# vtk DataFile Version 3.0

ASCII
DATASET UNSTRUCTURED_GRID

POINTS 14 double
	 2.00000000E+00	 1.00000000E+01	 1.22465000E-16
	 2.00000000E+00	 0.00000000E+00	 1.22465000E-16
	 2.30000000E+00	 0.00000000E+00	 1.40834000E-16
	 2.30000000E+00	 1.00000000E+01	 1.40834000E-16
	 2.00000000E+00	 5.00000000E+00	 1.22465000E-16
	 2.15000000E+00	 0.00000000E+00	 1.31650000E-16
	 2.30000000E+00	 5.00000000E+00	 1.40834000E-16
	 2.15000000E+00	 1.00000000E+01	 1.31650000E-16
	 0.00000000E+00	 1.10000000E+01	 0.00000000E+00
	 0.00000000E+00	 1.00000000E+01	 0.00000000E+00
	 0.00000000E+00	 5.00000000E+00	 0.00000000E+00
	 0.00000000E+00	 0.00000000E+00	 0.00000000E+00
	 0.00000000E+00	-1.00000000E+00	 0.00000000E+00
	 3.00000000E+00	 5.00000000E+00	 1.83697000E-16

CELLS 4 19
	8 0 1 2 3 4 5 6 7 
	2 8 9 
	3 9 11 10 
	2 11 12 

CELL_TYPES 4
	23
	3
	21
	3

POINT_DATA 14
FIELD NT 1
	NT 1 14 double
		 2.73000000E+02
		 8.21286000E+02
		 8.27306000E+02
		 2.82109000E+02
		 9.65482000E+02
		 8.23901000E+02
		 9.61700000E+02
		 2.77950000E+02
		 1.00000000E+03
		 1.00000000E+03
		 9.67515000E+02
		 9.35031000E+02
		 9.35031000E+02
		 0.00000000E+00
FIELD TOTEMP 1
	TOTEMP 1 14 double
		 0.00000000E+00
		 0.00000000E+00
		 0.00000000E+00
		 0.00000000E+00
		 0.00000000E+00
		 0.00000000E+00
		 0.00000000E+00
		 0.00000000E+00
		 1.00000000E+03
		 1.00000000E+03
		 9.67515000E+02
		 9.35031000E+02
		 9.35031000E+02
		 0.00000000E+00
FIELD MAFLOW 1
	MAFLOW 1 14 double
		 0.00000000E+00
		 0.00000000E+00
		 0.00000000E+00
		 0.00000000E+00
		 0.00000000E+00
		 0.00000000E+00
		 0.00000000E+00
		 0.00000000E+00
		 5.00000000E-07
		 5.00000000E-07
		 5.00000000E-07
		 5.00000000E-07
		 5.00000000E-07
		 0.00000000E+00
FIELD TOPRES 1
	TOPRES 1 14 double
		 0.00000000E+00
		 0.00000000E+00
		 0.00000000E+00
		 0.00000000E+00
		 0.00000000E+00
		 0.00000000E+00
		 0.00000000E+00
		 0.00000000E+00
		 1.30000000E-01
		 1.30000000E-01
		 1.21889000E-01
		 1.13778000E-01
		 1.13778000E-01
		 1.13778000E-01
