<?xml version="1.0"?>
<VTKFile type="UnstructuredGrid" version="0.1" byte_order="LittleEndian">
	<UnstructuredGrid>
		<Piece NumberOfPoints="14" NumberOfCells="4">
			<Points>
				<DataArray type="Float64" NumberOfComponents="3" format="ascii">
					 2.00000000E+00	 1.00000000E+01	 1.22465000E-16
					 2.00000000E+00	 0.00000000E+00	 1.22465000E-16
					 2.30000000E+00	 0.00000000E+00	 1.40834000E-16
					 2.30000000E+00	 1.00000000E+01	 1.40834000E-16
					 2.00000000E+00	 5.00000000E+00	 1.22465000E-16
					 2.15000000E+00	 0.00000000E+00	 1.31650000E-16
					 2.30000000E+00	 5.00000000E+00	 1.40834000E-16
					 2.15000000E+00	 1.00000000E+01	 1.31650000E-16
					 0.00000000E+00	 1.10000000E+01	 0.00000000E+00
					 0.00000000E+00	 1.00000000E+01	 0.00000000E+00
					 0.00000000E+00	 5.00000000E+00	 0.00000000E+00
					 0.00000000E+00	 0.00000000E+00	 0.00000000E+00
					 0.00000000E+00	-1.00000000E+00	 0.00000000E+00
					 3.00000000E+00	 5.00000000E+00	 1.83697000E-16

				</DataArray>
			</Points>
			<Cells>
				<DataArray type="Int32" Name="connectivity" format="ascii">
					0 1 2 3 4 5 6 7 8 9 9 11 10 11 12 
				</DataArray>
				<DataArray type="Int32" Name="offsets" format="ascii">
					8 10 13 15 
				</DataArray>
				<DataArray type="UInt8" Name="types" format="ascii">
					23 3 21 3 
				</DataArray>
			</Cells>
			<PointData>
				<DataArray type="Float32" Name="NT" NumberOfComponents="1" ComponentName0="T" format="ascii">
					 2.73000000E+02
					 8.21286000E+02
					 8.27306000E+02
					 2.82109000E+02
					 9.65482000E+02
					 8.23901000E+02
					 9.61700000E+02
					 2.77950000E+02
					 1.00000000E+03
					 1.00000000E+03
					 9.67515000E+02
					 9.35031000E+02
					 9.35031000E+02
					 0.00000000E+00
				</DataArray>
				<DataArray type="Float32" Name="TOTEMP" NumberOfComponents="1" ComponentName0="TT" format="ascii">
					 0.00000000E+00
					 0.00000000E+00
					 0.00000000E+00
					 0.00000000E+00
					 0.00000000E+00
					 0.00000000E+00
					 0.00000000E+00
					 0.00000000E+00
					 1.00000000E+03
					 1.00000000E+03
					 9.67515000E+02
					 9.35031000E+02
					 9.35031000E+02
					 0.00000000E+00
				</DataArray>
				<DataArray type="Float32" Name="MAFLOW" NumberOfComponents="1" ComponentName0="MF" format="ascii">
					 0.00000000E+00
					 0.00000000E+00
					 0.00000000E+00
					 0.00000000E+00
					 0.00000000E+00
					 0.00000000E+00
					 0.00000000E+00
					 0.00000000E+00
					 5.00000000E-07
					 5.00000000E-07
					 5.00000000E-07
					 5.00000000E-07
					 5.00000000E-07
					 0.00000000E+00
				</DataArray>
				<DataArray type="Float32" Name="TOPRES" NumberOfComponents="1" ComponentName0="PT" format="ascii">
					 0.00000000E+00
					 0.00000000E+00
					 0.00000000E+00
					 0.00000000E+00
					 0.00000000E+00
					 0.00000000E+00
					 0.00000000E+00
					 0.00000000E+00
					 1.30000000E-01
					 1.30000000E-01
					 1.21889000E-01
					 1.13778000E-01
					 1.13778000E-01
					 1.13778000E-01
				</DataArray>
			</PointData>
		</Piece>
	</UnstructuredGrid>
</VTKFile>