# vtk DataFile Version 3.0

ASCII
DATASET UNSTRUCTURED_GRID

POINTS 81 double
	 0.00000000E+00	 0.00000000E+00	 0.00000000E+00
	 1.00000000E+00	 0.00000000E+00	 0.00000000E+00
	 1.00000000E+00	 1.00000000E+00	 0.00000000E+00
	 0.00000000E+00	 1.00000000E+00	 0.00000000E+00
	 0.00000000E+00	 0.00000000E+00	 8.00000000E+00
	 1.00000000E+00	 0.00000000E+00	 8.00000000E+00
	 1.00000000E+00	 1.00000000E+00	 8.00000000E+00
	 0.00000000E+00	 1.00000000E+00	 8.00000000E+00
	 5.00000000E-01	 0.00000000E+00	 0.00000000E+00
	 1.00000000E+00	 5.00000000E-01	 0.00000000E+00
	 5.00000000E-01	 1.00000000E+00	 0.00000000E+00
	 0.00000000E+00	 5.00000000E-01	 0.00000000E+00
	 5.00000000E-01	 0.00000000E+00	 8.00000000E+00
	 1.00000000E+00	 5.00000000E-01	 8.00000000E+00
	 5.00000000E-01	 1.00000000E+00	 8.00000000E+00
	 0.00000000E+00	 5.00000000E-01	 8.00000000E+00
	 1.00000000E+00	 0.00000000E+00	 1.00000000E+00
	 1.00000000E+00	 0.00000000E+00	 2.00000000E+00
	 1.00000000E+00	 0.00000000E+00	 3.00000000E+00
	 1.00000000E+00	 0.00000000E+00	 4.00000000E+00
	 1.00000000E+00	 0.00000000E+00	 5.00000000E+00
	 1.00000000E+00	 0.00000000E+00	 6.00000000E+00
	 1.00000000E+00	 0.00000000E+00	 7.00000000E+00
	 0.00000000E+00	 0.00000000E+00	 7.00000000E+00
	 0.00000000E+00	 0.00000000E+00	 6.00000000E+00
	 0.00000000E+00	 0.00000000E+00	 5.00000000E+00
	 0.00000000E+00	 0.00000000E+00	 4.00000000E+00
	 0.00000000E+00	 0.00000000E+00	 3.00000000E+00
	 0.00000000E+00	 0.00000000E+00	 2.00000000E+00
	 0.00000000E+00	 0.00000000E+00	 1.00000000E+00
	 1.00000000E+00	 1.00000000E+00	 1.00000000E+00
	 1.00000000E+00	 1.00000000E+00	 2.00000000E+00
	 1.00000000E+00	 1.00000000E+00	 3.00000000E+00
	 1.00000000E+00	 1.00000000E+00	 4.00000000E+00
	 1.00000000E+00	 1.00000000E+00	 5.00000000E+00
	 1.00000000E+00	 1.00000000E+00	 6.00000000E+00
	 1.00000000E+00	 1.00000000E+00	 7.00000000E+00
	 0.00000000E+00	 1.00000000E+00	 1.00000000E+00
	 0.00000000E+00	 1.00000000E+00	 2.00000000E+00
	 0.00000000E+00	 1.00000000E+00	 3.00000000E+00
	 0.00000000E+00	 1.00000000E+00	 4.00000000E+00
	 0.00000000E+00	 1.00000000E+00	 5.00000000E+00
	 0.00000000E+00	 1.00000000E+00	 6.00000000E+00
	 0.00000000E+00	 1.00000000E+00	 7.00000000E+00
	 5.00000000E-01	 5.00000000E-01	 0.00000000E+00
	 5.00000000E-01	 5.00000000E-01	 8.00000000E+00
	 5.00000000E-01	 0.00000000E+00	 1.00000000E+00
	 5.00000000E-01	 0.00000000E+00	 2.00000000E+00
	 5.00000000E-01	 0.00000000E+00	 3.00000000E+00
	 5.00000000E-01	 0.00000000E+00	 4.00000000E+00
	 5.00000000E-01	 0.00000000E+00	 5.00000000E+00
	 5.00000000E-01	 0.00000000E+00	 6.00000000E+00
	 5.00000000E-01	 0.00000000E+00	 7.00000000E+00
	 1.00000000E+00	 5.00000000E-01	 1.00000000E+00
	 1.00000000E+00	 5.00000000E-01	 2.00000000E+00
	 1.00000000E+00	 5.00000000E-01	 3.00000000E+00
	 1.00000000E+00	 5.00000000E-01	 4.00000000E+00
	 1.00000000E+00	 5.00000000E-01	 5.00000000E+00
	 1.00000000E+00	 5.00000000E-01	 6.00000000E+00
	 1.00000000E+00	 5.00000000E-01	 7.00000000E+00
	 5.00000000E-01	 1.00000000E+00	 1.00000000E+00
	 5.00000000E-01	 1.00000000E+00	 2.00000000E+00
	 5.00000000E-01	 1.00000000E+00	 3.00000000E+00
	 5.00000000E-01	 1.00000000E+00	 4.00000000E+00
	 5.00000000E-01	 1.00000000E+00	 5.00000000E+00
	 5.00000000E-01	 1.00000000E+00	 6.00000000E+00
	 5.00000000E-01	 1.00000000E+00	 7.00000000E+00
	 0.00000000E+00	 5.00000000E-01	 1.00000000E+00
	 0.00000000E+00	 5.00000000E-01	 2.00000000E+00
	 0.00000000E+00	 5.00000000E-01	 3.00000000E+00
	 0.00000000E+00	 5.00000000E-01	 4.00000000E+00
	 0.00000000E+00	 5.00000000E-01	 5.00000000E+00
	 0.00000000E+00	 5.00000000E-01	 6.00000000E+00
	 0.00000000E+00	 5.00000000E-01	 7.00000000E+00
	 5.00000000E-01	 5.00000000E-01	 1.00000000E+00
	 5.00000000E-01	 5.00000000E-01	 2.00000000E+00
	 5.00000000E-01	 5.00000000E-01	 3.00000000E+00
	 5.00000000E-01	 5.00000000E-01	 4.00000000E+00
	 5.00000000E-01	 5.00000000E-01	 5.00000000E+00
	 5.00000000E-01	 5.00000000E-01	 6.00000000E+00
	 5.00000000E-01	 5.00000000E-01	 7.00000000E+00

CELLS 32 288
	8 0 8 44 11 29 46 74 67 
	8 8 1 9 44 46 16 53 74 
	8 11 44 10 3 67 74 60 37 
	8 44 9 2 10 74 53 30 60 
	8 29 46 74 67 28 47 75 68 
	8 46 16 53 74 47 17 54 75 
	8 67 74 60 37 68 75 61 38 
	8 74 53 30 60 75 54 31 61 
	8 28 47 75 68 27 48 76 69 
	8 47 17 54 75 48 18 55 76 
	8 68 75 61 38 69 76 62 39 
	8 75 54 31 61 76 55 32 62 
	8 27 48 76 69 26 49 77 70 
	8 48 18 55 76 49 19 56 77 
	8 69 76 62 39 70 77 63 40 
	8 76 55 32 62 77 56 33 63 
	8 26 49 77 70 25 50 78 71 
	8 49 19 56 77 50 20 57 78 
	8 70 77 63 40 71 78 64 41 
	8 77 56 33 63 78 57 34 64 
	8 25 50 78 71 24 51 79 72 
	8 50 20 57 78 51 21 58 79 
	8 71 78 64 41 72 79 65 42 
	8 78 57 34 64 79 58 35 65 
	8 24 51 79 72 23 52 80 73 
	8 51 21 58 79 52 22 59 80 
	8 72 79 65 42 73 80 66 43 
	8 79 58 35 65 80 59 36 66 
	8 23 52 80 73 4 12 45 15 
	8 52 22 59 80 12 5 13 45 
	8 73 80 66 43 15 45 14 7 
	8 80 59 36 66 45 13 6 14 

CELL_TYPES 32
	12
	12
	12
	12
	12
	12
	12
	12
	12
	12
	12
	12
	12
	12
	12
	12
	12
	12
	12
	12
	12
	12
	12
	12
	12
	12
	12
	12
	12
	12
	12
	12

POINT_DATA 81
FIELD SENFREQ 1
	SENFREQ 2 81 double
		 0.00000000E+00	 0.00000000E+00
		 0.00000000E+00	 0.00000000E+00
		 0.00000000E+00	 0.00000000E+00
		 0.00000000E+00	 0.00000000E+00
		-1.34521000E+11	-1.14159000E-02
		-1.34521000E+11	-1.14159000E-02
		-1.34521000E+11	-1.14159000E-02
		-1.34521000E+11	-1.14159000E-02
		 0.00000000E+00	 0.00000000E+00
		 0.00000000E+00	 0.00000000E+00
		 0.00000000E+00	 0.00000000E+00
		 0.00000000E+00	 0.00000000E+00
		 3.57231000E+12	 3.03157000E-01
		 3.57231000E+12	 3.03157000E-01
		 3.57231000E+12	 3.03157000E-01
		 3.57231000E+12	 3.03157000E-01
		 5.69559000E+11	 4.83345000E-02
		 1.99173000E+11	 1.69024000E-02
		 1.19606000E+11	 1.01501000E-02
		-6.18605000E+09	-5.24967000E-04
		-6.76842000E+10	-5.74389000E-03
		-4.51833000E+10	-3.83439000E-03
		-2.71679000E+12	-2.30555000E-01
		-2.71679000E+12	-2.30555000E-01
		-4.51833000E+10	-3.83439000E-03
		-6.76843000E+10	-5.74389000E-03
		-6.18603000E+09	-5.24965000E-04
		 1.19606000E+11	 1.01501000E-02
		 1.99173000E+11	 1.69024000E-02
		 5.69559000E+11	 4.83345000E-02
		 5.69559000E+11	 4.83345000E-02
		 1.99173000E+11	 1.69024000E-02
		 1.19606000E+11	 1.01501000E-02
		-6.18606000E+09	-5.24968000E-04
		-6.76842000E+10	-5.74388000E-03
		-4.51833000E+10	-3.83439000E-03
		-2.71679000E+12	-2.30555000E-01
		 5.69559000E+11	 4.83345000E-02
		 1.99173000E+11	 1.69024000E-02
		 1.19606000E+11	 1.01501000E-02
		-6.18604000E+09	-5.24966000E-04
		-6.76842000E+10	-5.74389000E-03
		-4.51832000E+10	-3.83438000E-03
		-2.71679000E+12	-2.30555000E-01
		 0.00000000E+00	 0.00000000E+00
		 1.17837000E+13	 1.00000000E+00
		 6.71525000E+11	 5.69876000E-02
		 2.32935000E+11	 1.97676000E-02
		 1.38166000E+11	 1.17252000E-02
		 5.49748000E+09	 4.66532000E-04
		-8.71880000E+10	-7.39903000E-03
		-1.00168000E+11	-8.50055000E-03
		-2.73415000E+12	-2.32028000E-01
		 6.71525000E+11	 5.69876000E-02
		 2.32935000E+11	 1.97676000E-02
		 1.38166000E+11	 1.17252000E-02
		 5.49749000E+09	 4.66533000E-04
		-8.71879000E+10	-7.39903000E-03
		-1.00168000E+11	-8.50055000E-03
		-2.73415000E+12	-2.32028000E-01
		 6.71525000E+11	 5.69876000E-02
		 2.32935000E+11	 1.97676000E-02
		 1.38166000E+11	 1.17252000E-02
		 5.49747000E+09	 4.66532000E-04
		-8.71880000E+10	-7.39903000E-03
		-1.00168000E+11	-8.50055000E-03
		-2.73415000E+12	-2.32028000E-01
		 6.71525000E+11	 5.69876000E-02
		 2.32935000E+11	 1.97676000E-02
		 1.38166000E+11	 1.17252000E-02
		 5.49746000E+09	 4.66531000E-04
		-8.71880000E+10	-7.39903000E-03
		-1.00168000E+11	-8.50055000E-03
		-2.73415000E+12	-2.32028000E-01
		 0.00000000E+00	 0.00000000E+00
		 0.00000000E+00	 0.00000000E+00
		 0.00000000E+00	 0.00000000E+00
		 0.00000000E+00	 0.00000000E+00
		 0.00000000E+00	 0.00000000E+00
		 0.00000000E+00	 0.00000000E+00
		 0.00000000E+00	 0.00000000E+00
