# vtk DataFile Version 3.0

ASCII
DATASET UNSTRUCTURED_GRID

POINTS 90 double
	 0.00000000E+00	 0.00000000E+00	 0.00000000E+00
	 1.00000000E+00	 0.00000000E+00	 0.00000000E+00
	 1.00000000E+00	 1.00000000E+00	 0.00000000E+00
	 0.00000000E+00	 1.00000000E+00	 0.00000000E+00
	 0.00000000E+00	 0.00000000E+00	 8.00000000E+00
	 1.00000000E+00	 0.00000000E+00	 8.00000000E+00
	 1.00000000E+00	 1.00000000E+00	 8.00000000E+00
	 0.00000000E+00	 1.00000000E+00	 8.00000000E+00
	 5.00000000E-01	 0.00000000E+00	 0.00000000E+00
	 1.00000000E+00	 5.00000000E-01	 0.00000000E+00
	 5.00000000E-01	 1.00000000E+00	 0.00000000E+00
	 0.00000000E+00	 5.00000000E-01	 0.00000000E+00
	 5.00000000E-01	 0.00000000E+00	 8.00000000E+00
	 1.00000000E+00	 5.00000000E-01	 8.00000000E+00
	 5.00000000E-01	 1.00000000E+00	 8.00000000E+00
	 0.00000000E+00	 5.00000000E-01	 8.00000000E+00
	 1.00000000E+00	 0.00000000E+00	 1.00000000E+00
	 1.00000000E+00	 0.00000000E+00	 2.00000000E+00
	 1.00000000E+00	 0.00000000E+00	 3.00000000E+00
	 1.00000000E+00	 0.00000000E+00	 4.00000000E+00
	 1.00000000E+00	 0.00000000E+00	 5.00000000E+00
	 1.00000000E+00	 0.00000000E+00	 6.00000000E+00
	 1.00000000E+00	 0.00000000E+00	 7.00000000E+00
	 0.00000000E+00	 0.00000000E+00	 7.00000000E+00
	 0.00000000E+00	 0.00000000E+00	 6.00000000E+00
	 0.00000000E+00	 0.00000000E+00	 5.00000000E+00
	 0.00000000E+00	 0.00000000E+00	 4.00000000E+00
	 0.00000000E+00	 0.00000000E+00	 3.00000000E+00
	 0.00000000E+00	 0.00000000E+00	 2.00000000E+00
	 0.00000000E+00	 0.00000000E+00	 1.00000000E+00
	 1.00000000E+00	 1.00000000E+00	 1.00000000E+00
	 1.00000000E+00	 1.00000000E+00	 2.00000000E+00
	 1.00000000E+00	 1.00000000E+00	 3.00000000E+00
	 1.00000000E+00	 1.00000000E+00	 4.00000000E+00
	 1.00000000E+00	 1.00000000E+00	 5.00000000E+00
	 1.00000000E+00	 1.00000000E+00	 6.00000000E+00
	 1.00000000E+00	 1.00000000E+00	 7.00000000E+00
	 0.00000000E+00	 1.00000000E+00	 1.00000000E+00
	 0.00000000E+00	 1.00000000E+00	 2.00000000E+00
	 0.00000000E+00	 1.00000000E+00	 3.00000000E+00
	 0.00000000E+00	 1.00000000E+00	 4.00000000E+00
	 0.00000000E+00	 1.00000000E+00	 5.00000000E+00
	 0.00000000E+00	 1.00000000E+00	 6.00000000E+00
	 0.00000000E+00	 1.00000000E+00	 7.00000000E+00
	 5.00000000E-01	 5.00000000E-01	 0.00000000E+00
	 5.00000000E-01	 5.00000000E-01	 8.00000000E+00
	 5.00000000E-01	 0.00000000E+00	 1.00000000E+00
	 5.00000000E-01	 0.00000000E+00	 2.00000000E+00
	 5.00000000E-01	 0.00000000E+00	 3.00000000E+00
	 5.00000000E-01	 0.00000000E+00	 4.00000000E+00
	 5.00000000E-01	 0.00000000E+00	 5.00000000E+00
	 5.00000000E-01	 0.00000000E+00	 6.00000000E+00
	 5.00000000E-01	 0.00000000E+00	 7.00000000E+00
	 1.00000000E+00	 5.00000000E-01	 1.00000000E+00
	 1.00000000E+00	 5.00000000E-01	 2.00000000E+00
	 1.00000000E+00	 5.00000000E-01	 3.00000000E+00
	 1.00000000E+00	 5.00000000E-01	 4.00000000E+00
	 1.00000000E+00	 5.00000000E-01	 5.00000000E+00
	 1.00000000E+00	 5.00000000E-01	 6.00000000E+00
	 1.00000000E+00	 5.00000000E-01	 7.00000000E+00
	 5.00000000E-01	 1.00000000E+00	 1.00000000E+00
	 5.00000000E-01	 1.00000000E+00	 2.00000000E+00
	 5.00000000E-01	 1.00000000E+00	 3.00000000E+00
	 5.00000000E-01	 1.00000000E+00	 4.00000000E+00
	 5.00000000E-01	 1.00000000E+00	 5.00000000E+00
	 5.00000000E-01	 1.00000000E+00	 6.00000000E+00
	 5.00000000E-01	 1.00000000E+00	 7.00000000E+00
	 0.00000000E+00	 5.00000000E-01	 1.00000000E+00
	 0.00000000E+00	 5.00000000E-01	 2.00000000E+00
	 0.00000000E+00	 5.00000000E-01	 3.00000000E+00
	 0.00000000E+00	 5.00000000E-01	 4.00000000E+00
	 0.00000000E+00	 5.00000000E-01	 5.00000000E+00
	 0.00000000E+00	 5.00000000E-01	 6.00000000E+00
	 0.00000000E+00	 5.00000000E-01	 7.00000000E+00
	 5.00000000E-01	 5.00000000E-01	 1.00000000E+00
	 5.00000000E-01	 5.00000000E-01	 2.00000000E+00
	 5.00000000E-01	 5.00000000E-01	 3.00000000E+00
	 5.00000000E-01	 5.00000000E-01	 4.00000000E+00
	 5.00000000E-01	 5.00000000E-01	 5.00000000E+00
	 5.00000000E-01	 5.00000000E-01	 6.00000000E+00
	 5.00000000E-01	 5.00000000E-01	 7.00000000E+00
	 1.00000000E+00	 0.00000000E+00	 4.00000000E+00
	 0.00000000E+00	 0.00000000E+00	 4.00000000E+00
	 1.00000000E+00	 1.00000000E+00	 4.00000000E+00
	 0.00000000E+00	 1.00000000E+00	 4.00000000E+00
	 5.00000000E-01	 0.00000000E+00	 4.00000000E+00
	 1.00000000E+00	 5.00000000E-01	 4.00000000E+00
	 5.00000000E-01	 1.00000000E+00	 4.00000000E+00
	 0.00000000E+00	 5.00000000E-01	 4.00000000E+00
	 5.00000000E-01	 5.00000000E-01	 4.00000000E+00

CELLS 32 288
	8 0 8 44 11 29 46 74 67 
	8 8 1 9 44 46 16 53 74 
	8 11 44 10 3 67 74 60 37 
	8 44 9 2 10 74 53 30 60 
	8 29 46 74 67 28 47 75 68 
	8 46 16 53 74 47 17 54 75 
	8 67 74 60 37 68 75 61 38 
	8 74 53 30 60 75 54 31 61 
	8 28 47 75 68 27 48 76 69 
	8 47 17 54 75 48 18 55 76 
	8 68 75 61 38 69 76 62 39 
	8 75 54 31 61 76 55 32 62 
	8 27 48 76 69 26 49 77 70 
	8 48 18 55 76 49 19 56 77 
	8 69 76 62 39 70 77 63 40 
	8 76 55 32 62 77 56 33 63 
	8 82 85 89 88 25 50 78 71 
	8 85 81 86 89 50 20 57 78 
	8 88 89 87 84 71 78 64 41 
	8 89 86 83 87 78 57 34 64 
	8 25 50 78 71 24 51 79 72 
	8 50 20 57 78 51 21 58 79 
	8 71 78 64 41 72 79 65 42 
	8 78 57 34 64 79 58 35 65 
	8 24 51 79 72 23 52 80 73 
	8 51 21 58 79 52 22 59 80 
	8 72 79 65 42 73 80 66 43 
	8 79 58 35 65 80 59 36 66 
	8 23 52 80 73 4 12 45 15 
	8 52 22 59 80 12 5 13 45 
	8 73 80 66 43 15 45 14 7 
	8 80 59 36 66 45 13 6 14 

CELL_TYPES 32
	12
	12
	12
	12
	12
	12
	12
	12
	12
	12
	12
	12
	12
	12
	12
	12
	12
	12
	12
	12
	12
	12
	12
	12
	12
	12
	12
	12
	12
	12
	12
	12

POINT_DATA 90
FIELD U 1
	U 3 90 double
		 0.00000000E+00	 0.00000000E+00	 0.00000000E+00
		 0.00000000E+00	 0.00000000E+00	 0.00000000E+00
		 0.00000000E+00	 0.00000000E+00	 0.00000000E+00
		 0.00000000E+00	 0.00000000E+00	 0.00000000E+00
		 4.45923000E+03	-3.84992000E+03	 1.34115000E+00
		 4.39911000E+03	-3.78011000E+03	-1.80031000E+01
		 4.45923000E+03	-3.84992000E+03	-1.34115000E+00
		 4.39911000E+03	-3.78011000E+03	 1.80031000E+01
		 0.00000000E+00	 0.00000000E+00	 0.00000000E+00
		 0.00000000E+00	 0.00000000E+00	 0.00000000E+00
		 0.00000000E+00	 0.00000000E+00	 0.00000000E+00
		 0.00000000E+00	 0.00000000E+00	 0.00000000E+00
		 4.44563000E+03	-3.79123000E+03	-3.71608000E+00
		 4.40156000E+03	-3.82920000E+03	-4.31431000E+00
		 4.44563000E+03	-3.79123000E+03	 3.71608000E+00
		 4.40156000E+03	-3.82920000E+03	 4.31431000E+00
		 6.88864000E+02	-6.05033000E+02	-3.47020000E+02
		 1.46851000E+03	-1.26490000E+03	-4.34051000E+02
		 2.27197000E+03	-1.95531000E+03	-4.08228000E+02
		 2.98435000E+03	-2.56812000E+03	-3.51468000E+02
		 3.57403000E+03	-3.07531000E+03	-2.79432000E+02
		 4.01449000E+03	-3.45472000E+03	-1.89199000E+02
		 4.29075000E+03	-3.69265000E+03	-1.03817000E+02
		 4.31175000E+03	-3.71703000E+03	 7.73391000E+00
		 4.03525000E+03	-3.47883000E+03	 1.40945000E+01
		 3.59499000E+03	-3.09964000E+03	 2.08165000E+01
		 3.00048000E+03	-2.58684000E+03	 2.61828000E+01
		 2.28283000E+03	-1.96792000E+03	 3.04112000E+01
		 1.46841000E+03	-1.26478000E+03	 3.23349000E+01
		 6.10847000E+02	-5.14457000E+02	 2.58515000E+01
		 6.10847000E+02	-5.14457000E+02	-2.58515000E+01
		 1.46841000E+03	-1.26478000E+03	-3.23349000E+01
		 2.28283000E+03	-1.96792000E+03	-3.04112000E+01
		 3.00048000E+03	-2.58684000E+03	-2.61828000E+01
		 3.59499000E+03	-3.09964000E+03	-2.08165000E+01
		 4.03525000E+03	-3.47883000E+03	-1.40945000E+01
		 4.31175000E+03	-3.71703000E+03	-7.73391000E+00
		 6.88864000E+02	-6.05033000E+02	 3.47020000E+02
		 1.46851000E+03	-1.26490000E+03	 4.34051000E+02
		 2.27197000E+03	-1.95531000E+03	 4.08228000E+02
		 2.98435000E+03	-2.56812000E+03	 3.51468000E+02
		 3.57403000E+03	-3.07531000E+03	 2.79432000E+02
		 4.01449000E+03	-3.45472000E+03	 1.89199000E+02
		 4.29075000E+03	-3.69265000E+03	 1.03817000E+02
		 0.00000000E+00	 0.00000000E+00	 0.00000000E+00
		 4.38478000E+03	-3.77678000E+03	 0.00000000E+00
		 6.19268000E+02	-5.74631000E+02	-1.60807000E+02
		 1.47310000E+03	-1.26733000E+03	-2.02937000E+02
		 2.27931000E+03	-1.95850000E+03	-1.88990000E+02
		 2.99752000E+03	-2.57384000E+03	-1.63385000E+02
		 3.58913000E+03	-3.08152000E+03	-1.27592000E+02
		 4.03289000E+03	-3.46282000E+03	-9.23579000E+01
		 4.29944000E+03	-3.69723000E+03	-3.95463000E+01
		 6.67137000E+02	-5.33399000E+02	-1.86695000E+02
		 1.47135000E+03	-1.26884000E+03	-2.35607000E+02
		 2.27379000E+03	-1.96326000E+03	-2.19415000E+02
		 2.98819000E+03	-2.58188000E+03	-1.89687000E+02
		 3.57759000E+03	-3.09145000E+03	-1.48132000E+02
		 4.02027000E+03	-3.47368000E+03	-1.07226000E+02
		 4.29242000E+03	-3.70327000E+03	-4.59126000E+01
		 6.19268000E+02	-5.74631000E+02	 1.60807000E+02
		 1.47310000E+03	-1.26733000E+03	 2.02937000E+02
		 2.27931000E+03	-1.95850000E+03	 1.88990000E+02
		 2.99752000E+03	-2.57384000E+03	 1.63385000E+02
		 3.58913000E+03	-3.08152000E+03	 1.27592000E+02
		 4.03289000E+03	-3.46282000E+03	 9.23579000E+01
		 4.29944000E+03	-3.69723000E+03	 3.95463000E+01
		 6.67137000E+02	-5.33399000E+02	 1.86695000E+02
		 1.47135000E+03	-1.26884000E+03	 2.35607000E+02
		 2.27379000E+03	-1.96326000E+03	 2.19415000E+02
		 2.98819000E+03	-2.58188000E+03	 1.89687000E+02
		 3.57759000E+03	-3.09145000E+03	 1.48132000E+02
		 4.02027000E+03	-3.47368000E+03	 1.07226000E+02
		 4.29242000E+03	-3.70327000E+03	 4.59126000E+01
		 6.36656000E+02	-5.48376000E+02	 0.00000000E+00
		 1.47584000E+03	-1.27120000E+03	 0.00000000E+00
		 2.27642000E+03	-1.96077000E+03	 0.00000000E+00
		 2.99194000E+03	-2.57707000E+03	 0.00000000E+00
		 3.58584000E+03	-3.08862000E+03	 0.00000000E+00
		 4.02018000E+03	-3.46274000E+03	 0.00000000E+00
		 4.31349000E+03	-3.71537000E+03	 0.00000000E+00
		 2.98435000E+03	-2.56812000E+03	-3.51468000E+02
		 3.00048000E+03	-2.58684000E+03	 2.61828000E+01
		 3.00048000E+03	-2.58684000E+03	-2.61828000E+01
		 2.98435000E+03	-2.56812000E+03	 3.51468000E+02
		 2.99752000E+03	-2.57384000E+03	-1.63385000E+02
		 2.98819000E+03	-2.58188000E+03	-1.89687000E+02
		 2.99752000E+03	-2.57384000E+03	 1.63385000E+02
		 2.98819000E+03	-2.58188000E+03	 1.89687000E+02
		 2.99194000E+03	-2.57707000E+03	 0.00000000E+00
