<?xml version="1.0"?>
<VTKFile type="UnstructuredGrid" version="0.1" byte_order="LittleEndian">
	<UnstructuredGrid>
		<Piece NumberOfPoints="81" NumberOfCells="32">
			<Points>
				<DataArray type="Float64" NumberOfComponents="3" format="ascii">
					 0.00000000E+00	 0.00000000E+00	 0.00000000E+00
					 1.00000000E+00	 0.00000000E+00	 0.00000000E+00
					 1.00000000E+00	 1.00000000E+00	 0.00000000E+00
					 0.00000000E+00	 1.00000000E+00	 0.00000000E+00
					 0.00000000E+00	 0.00000000E+00	 8.00000000E+00
					 1.00000000E+00	 0.00000000E+00	 8.00000000E+00
					 1.00000000E+00	 1.00000000E+00	 8.00000000E+00
					 0.00000000E+00	 1.00000000E+00	 8.00000000E+00
					 5.00000000E-01	 0.00000000E+00	 0.00000000E+00
					 1.00000000E+00	 5.00000000E-01	 0.00000000E+00
					 5.00000000E-01	 1.00000000E+00	 0.00000000E+00
					 0.00000000E+00	 5.00000000E-01	 0.00000000E+00
					 5.00000000E-01	 0.00000000E+00	 8.00000000E+00
					 1.00000000E+00	 5.00000000E-01	 8.00000000E+00
					 5.00000000E-01	 1.00000000E+00	 8.00000000E+00
					 0.00000000E+00	 5.00000000E-01	 8.00000000E+00
					 1.00000000E+00	 0.00000000E+00	 1.00000000E+00
					 1.00000000E+00	 0.00000000E+00	 2.00000000E+00
					 1.00000000E+00	 0.00000000E+00	 3.00000000E+00
					 1.00000000E+00	 0.00000000E+00	 4.00000000E+00
					 1.00000000E+00	 0.00000000E+00	 5.00000000E+00
					 1.00000000E+00	 0.00000000E+00	 6.00000000E+00
					 1.00000000E+00	 0.00000000E+00	 7.00000000E+00
					 0.00000000E+00	 0.00000000E+00	 7.00000000E+00
					 0.00000000E+00	 0.00000000E+00	 6.00000000E+00
					 0.00000000E+00	 0.00000000E+00	 5.00000000E+00
					 0.00000000E+00	 0.00000000E+00	 4.00000000E+00
					 0.00000000E+00	 0.00000000E+00	 3.00000000E+00
					 0.00000000E+00	 0.00000000E+00	 2.00000000E+00
					 0.00000000E+00	 0.00000000E+00	 1.00000000E+00
					 1.00000000E+00	 1.00000000E+00	 1.00000000E+00
					 1.00000000E+00	 1.00000000E+00	 2.00000000E+00
					 1.00000000E+00	 1.00000000E+00	 3.00000000E+00
					 1.00000000E+00	 1.00000000E+00	 4.00000000E+00
					 1.00000000E+00	 1.00000000E+00	 5.00000000E+00
					 1.00000000E+00	 1.00000000E+00	 6.00000000E+00
					 1.00000000E+00	 1.00000000E+00	 7.00000000E+00
					 0.00000000E+00	 1.00000000E+00	 1.00000000E+00
					 0.00000000E+00	 1.00000000E+00	 2.00000000E+00
					 0.00000000E+00	 1.00000000E+00	 3.00000000E+00
					 0.00000000E+00	 1.00000000E+00	 4.00000000E+00
					 0.00000000E+00	 1.00000000E+00	 5.00000000E+00
					 0.00000000E+00	 1.00000000E+00	 6.00000000E+00
					 0.00000000E+00	 1.00000000E+00	 7.00000000E+00
					 5.00000000E-01	 5.00000000E-01	 0.00000000E+00
					 5.00000000E-01	 5.00000000E-01	 8.00000000E+00
					 5.00000000E-01	 0.00000000E+00	 1.00000000E+00
					 5.00000000E-01	 0.00000000E+00	 2.00000000E+00
					 5.00000000E-01	 0.00000000E+00	 3.00000000E+00
					 5.00000000E-01	 0.00000000E+00	 4.00000000E+00
					 5.00000000E-01	 0.00000000E+00	 5.00000000E+00
					 5.00000000E-01	 0.00000000E+00	 6.00000000E+00
					 5.00000000E-01	 0.00000000E+00	 7.00000000E+00
					 1.00000000E+00	 5.00000000E-01	 1.00000000E+00
					 1.00000000E+00	 5.00000000E-01	 2.00000000E+00
					 1.00000000E+00	 5.00000000E-01	 3.00000000E+00
					 1.00000000E+00	 5.00000000E-01	 4.00000000E+00
					 1.00000000E+00	 5.00000000E-01	 5.00000000E+00
					 1.00000000E+00	 5.00000000E-01	 6.00000000E+00
					 1.00000000E+00	 5.00000000E-01	 7.00000000E+00
					 5.00000000E-01	 1.00000000E+00	 1.00000000E+00
					 5.00000000E-01	 1.00000000E+00	 2.00000000E+00
					 5.00000000E-01	 1.00000000E+00	 3.00000000E+00
					 5.00000000E-01	 1.00000000E+00	 4.00000000E+00
					 5.00000000E-01	 1.00000000E+00	 5.00000000E+00
					 5.00000000E-01	 1.00000000E+00	 6.00000000E+00
					 5.00000000E-01	 1.00000000E+00	 7.00000000E+00
					 0.00000000E+00	 5.00000000E-01	 1.00000000E+00
					 0.00000000E+00	 5.00000000E-01	 2.00000000E+00
					 0.00000000E+00	 5.00000000E-01	 3.00000000E+00
					 0.00000000E+00	 5.00000000E-01	 4.00000000E+00
					 0.00000000E+00	 5.00000000E-01	 5.00000000E+00
					 0.00000000E+00	 5.00000000E-01	 6.00000000E+00
					 0.00000000E+00	 5.00000000E-01	 7.00000000E+00
					 5.00000000E-01	 5.00000000E-01	 1.00000000E+00
					 5.00000000E-01	 5.00000000E-01	 2.00000000E+00
					 5.00000000E-01	 5.00000000E-01	 3.00000000E+00
					 5.00000000E-01	 5.00000000E-01	 4.00000000E+00
					 5.00000000E-01	 5.00000000E-01	 5.00000000E+00
					 5.00000000E-01	 5.00000000E-01	 6.00000000E+00
					 5.00000000E-01	 5.00000000E-01	 7.00000000E+00

				</DataArray>
			</Points>
			<Cells>
				<DataArray type="Int32" Name="connectivity" format="ascii">
					0 8 44 11 29 46 74 67 8 1 9 44 46 16 53 74 11 44 10 3 67 74 60 37 44 9 2 10 74 53 30 60 29 46 74 67 28 47 75 68 46 16 53 74 47 17 54 75 67 74 60 37 68 75 61 38 74 53 30 60 75 54 31 61 28 47 75 68 27 48 76 69 47 17 54 75 48 18 55 76 68 75 61 38 69 76 62 39 75 54 31 61 76 55 32 62 27 48 76 69 26 49 77 70 48 18 55 76 49 19 56 77 69 76 62 39 70 77 63 40 76 55 32 62 77 56 33 63 26 49 77 70 25 50 78 71 49 19 56 77 50 20 57 78 70 77 63 40 71 78 64 41 77 56 33 63 78 57 34 64 25 50 78 71 24 51 79 72 50 20 57 78 51 21 58 79 71 78 64 41 72 79 65 42 78 57 34 64 79 58 35 65 24 51 79 72 23 52 80 73 51 21 58 79 52 22 59 80 72 79 65 42 73 80 66 43 79 58 35 65 80 59 36 66 23 52 80 73 4 12 45 15 52 22 59 80 12 5 13 45 73 80 66 43 15 45 14 7 80 59 36 66 45 13 6 14 
				</DataArray>
				<DataArray type="Int32" Name="offsets" format="ascii">
					8 16 24 32 40 48 56 64 72 80 88 96 104 112 120 128 136 144 152 160 168 176 184 192 200 208 216 224 232 240 248 256 
				</DataArray>
				<DataArray type="UInt8" Name="types" format="ascii">
					12 12 12 12 12 12 12 12 12 12 12 12 12 12 12 12 12 12 12 12 12 12 12 12 12 12 12 12 12 12 12 12 
				</DataArray>
			</Cells>
			<PointData>
				<DataArray type="Float32" Name="U" NumberOfComponents="3" ComponentName0="D1" ComponentName1="D2" ComponentName2="D3" format="ascii">
					 0.00000000E+00	 0.00000000E+00	 0.00000000E+00
					 0.00000000E+00	 0.00000000E+00	 0.00000000E+00
					 0.00000000E+00	 0.00000000E+00	 0.00000000E+00
					 0.00000000E+00	 0.00000000E+00	 0.00000000E+00
					 6.01169000E+03	 1.09454000E+03	 1.42471000E+02
					 6.20433000E+03	 1.88447000E+03	-8.66076000E+01
					 6.01169000E+03	 1.09454000E+03	-1.42471000E+02
					 6.20433000E+03	 1.88447000E+03	 8.66076000E+01
					 0.00000000E+00	 0.00000000E+00	 0.00000000E+00
					 0.00000000E+00	 0.00000000E+00	 0.00000000E+00
					 0.00000000E+00	 0.00000000E+00	 0.00000000E+00
					 0.00000000E+00	 0.00000000E+00	 0.00000000E+00
					 6.29439000E+03	 1.41226000E+03	 1.39268000E+01
					 5.79127000E+03	 1.53495000E+03	-5.71098000E+01
					 6.29439000E+03	 1.41226000E+03	-1.39268000E+01
					 5.79127000E+03	 1.53495000E+03	 5.71098000E+01
					-2.55392000E+03	-5.19084000E+02	 4.46235000E+02
					-4.94229000E+03	-1.31002000E+03	 3.24927000E+02
					-5.71528000E+03	-1.53153000E+03	-5.95367000E+01
					-4.42634000E+03	-1.18775000E+03	-4.41454000E+02
					-1.55110000E+03	-4.13667000E+02	-6.75083000E+02
					 1.87581000E+03	 4.95930000E+02	-6.45894000E+02
					 4.65918000E+03	 1.23333000E+03	-4.29249000E+02
					 4.60881000E+03	 1.02677000E+03	 7.06120000E+02
					 1.85584000E+03	 4.14072000E+02	 1.06251000E+03
					-1.53274000E+03	-3.38359000E+02	 1.11052000E+03
					-4.37016000E+03	-9.57369000E+02	 7.26198000E+02
					-5.64382000E+03	-1.23851000E+03	 9.79388000E+01
					-4.88795000E+03	-1.08719000E+03	-5.34510000E+02
					-2.60770000E+03	-7.39632000E+02	-7.34064000E+02
					-2.60770000E+03	-7.39632000E+02	 7.34064000E+02
					-4.88795000E+03	-1.08719000E+03	 5.34510000E+02
					-5.64382000E+03	-1.23851000E+03	-9.79388000E+01
					-4.37016000E+03	-9.57369000E+02	-7.26198000E+02
					-1.53274000E+03	-3.38359000E+02	-1.11052000E+03
					 1.85584000E+03	 4.14072000E+02	-1.06251000E+03
					 4.60881000E+03	 1.02677000E+03	-7.06120000E+02
					-2.55392000E+03	-5.19084000E+02	-4.46235000E+02
					-4.94229000E+03	-1.31002000E+03	-3.24927000E+02
					-5.71528000E+03	-1.53153000E+03	 5.95367000E+01
					-4.42634000E+03	-1.18775000E+03	 4.41454000E+02
					-1.55110000E+03	-4.13667000E+02	 6.75083000E+02
					 1.87581000E+03	 4.95930000E+02	 6.45894000E+02
					 4.65918000E+03	 1.23333000E+03	 4.29249000E+02
					 0.00000000E+00	 0.00000000E+00	 0.00000000E+00
					 5.58077000E+03	 1.36093000E+03	 0.00000000E+00
					-2.49102000E+03	-6.36141000E+02	-1.45052000E+02
					-4.98722000E+03	-1.18838000E+03	-1.08192000E+02
					-5.74561000E+03	-1.36706000E+03	 1.93759000E+01
					-4.45160000E+03	-1.05795000E+03	 1.44572000E+02
					-1.56823000E+03	-3.73248000E+02	 2.15147000E+02
					 1.90788000E+03	 4.53178000E+02	 2.23336000E+02
					 4.59795000E+03	 1.11071000E+03	 1.13246000E+02
					-2.60863000E+03	-6.07462000E+02	 5.94816000E+02
					-4.87320000E+03	-1.21619000E+03	 4.43664000E+02
					-5.60592000E+03	-1.40113000E+03	-7.94550000E+01
					-4.33834000E+03	-1.08557000E+03	-5.92849000E+02
					-1.53058000E+03	-3.82429000E+02	-8.82253000E+02
					 1.85835000E+03	 4.65256000E+02	-9.15837000E+02
					 4.55470000E+03	 1.12126000E+03	-4.64387000E+02
					-2.49102000E+03	-6.36141000E+02	 1.45052000E+02
					-4.98722000E+03	-1.18838000E+03	 1.08192000E+02
					-5.74561000E+03	-1.36706000E+03	-1.93759000E+01
					-4.45160000E+03	-1.05795000E+03	-1.44572000E+02
					-1.56823000E+03	-3.73248000E+02	-2.15147000E+02
					 1.90788000E+03	 4.53178000E+02	-2.23336000E+02
					 4.59795000E+03	 1.11071000E+03	-1.13246000E+02
					-2.60863000E+03	-6.07462000E+02	-5.94816000E+02
					-4.87320000E+03	-1.21619000E+03	-4.43664000E+02
					-5.60592000E+03	-1.40113000E+03	 7.94550000E+01
					-4.33834000E+03	-1.08557000E+03	 5.92849000E+02
					-1.53058000E+03	-3.82429000E+02	 8.82253000E+02
					 1.85835000E+03	 4.65256000E+02	 9.15837000E+02
					 4.55470000E+03	 1.12126000E+03	 4.64387000E+02
					-2.51873000E+03	-6.14219000E+02	 0.00000000E+00
					-4.94628000E+03	-1.20620000E+03	 0.00000000E+00
					-5.67164000E+03	-1.38309000E+03	 0.00000000E+00
					-4.40122000E+03	-1.07328000E+03	 0.00000000E+00
					-1.52530000E+03	-3.71959000E+02	 0.00000000E+00
					 1.81950000E+03	 4.43704000E+02	 0.00000000E+00
					 4.77275000E+03	 1.16388000E+03	 0.00000000E+00
				</DataArray>
			</PointData>
		</Piece>
	</UnstructuredGrid>
</VTKFile>