<?xml version="1.0"?>
<VTKFile type="UnstructuredGrid" version="0.1" byte_order="LittleEndian">
	<UnstructuredGrid>
		<Piece NumberOfPoints="90" NumberOfCells="32">
			<Points>
				<DataArray type="Float64" NumberOfComponents="3" format="ascii">
					 0.00000000E+00	 0.00000000E+00	 0.00000000E+00
					 1.00000000E+00	 0.00000000E+00	 0.00000000E+00
					 1.00000000E+00	 1.00000000E+00	 0.00000000E+00
					 0.00000000E+00	 1.00000000E+00	 0.00000000E+00
					 0.00000000E+00	 0.00000000E+00	 8.00000000E+00
					 1.00000000E+00	 0.00000000E+00	 8.00000000E+00
					 1.00000000E+00	 1.00000000E+00	 8.00000000E+00
					 0.00000000E+00	 1.00000000E+00	 8.00000000E+00
					 5.00000000E-01	 0.00000000E+00	 0.00000000E+00
					 1.00000000E+00	 5.00000000E-01	 0.00000000E+00
					 5.00000000E-01	 1.00000000E+00	 0.00000000E+00
					 0.00000000E+00	 5.00000000E-01	 0.00000000E+00
					 5.00000000E-01	 0.00000000E+00	 8.00000000E+00
					 1.00000000E+00	 5.00000000E-01	 8.00000000E+00
					 5.00000000E-01	 1.00000000E+00	 8.00000000E+00
					 0.00000000E+00	 5.00000000E-01	 8.00000000E+00
					 1.00000000E+00	 0.00000000E+00	 1.00000000E+00
					 1.00000000E+00	 0.00000000E+00	 2.00000000E+00
					 1.00000000E+00	 0.00000000E+00	 3.00000000E+00
					 1.00000000E+00	 0.00000000E+00	 4.00000000E+00
					 1.00000000E+00	 0.00000000E+00	 5.00000000E+00
					 1.00000000E+00	 0.00000000E+00	 6.00000000E+00
					 1.00000000E+00	 0.00000000E+00	 7.00000000E+00
					 0.00000000E+00	 0.00000000E+00	 7.00000000E+00
					 0.00000000E+00	 0.00000000E+00	 6.00000000E+00
					 0.00000000E+00	 0.00000000E+00	 5.00000000E+00
					 0.00000000E+00	 0.00000000E+00	 4.00000000E+00
					 0.00000000E+00	 0.00000000E+00	 3.00000000E+00
					 0.00000000E+00	 0.00000000E+00	 2.00000000E+00
					 0.00000000E+00	 0.00000000E+00	 1.00000000E+00
					 1.00000000E+00	 1.00000000E+00	 1.00000000E+00
					 1.00000000E+00	 1.00000000E+00	 2.00000000E+00
					 1.00000000E+00	 1.00000000E+00	 3.00000000E+00
					 1.00000000E+00	 1.00000000E+00	 4.00000000E+00
					 1.00000000E+00	 1.00000000E+00	 5.00000000E+00
					 1.00000000E+00	 1.00000000E+00	 6.00000000E+00
					 1.00000000E+00	 1.00000000E+00	 7.00000000E+00
					 0.00000000E+00	 1.00000000E+00	 1.00000000E+00
					 0.00000000E+00	 1.00000000E+00	 2.00000000E+00
					 0.00000000E+00	 1.00000000E+00	 3.00000000E+00
					 0.00000000E+00	 1.00000000E+00	 4.00000000E+00
					 0.00000000E+00	 1.00000000E+00	 5.00000000E+00
					 0.00000000E+00	 1.00000000E+00	 6.00000000E+00
					 0.00000000E+00	 1.00000000E+00	 7.00000000E+00
					 5.00000000E-01	 5.00000000E-01	 0.00000000E+00
					 5.00000000E-01	 5.00000000E-01	 8.00000000E+00
					 5.00000000E-01	 0.00000000E+00	 1.00000000E+00
					 5.00000000E-01	 0.00000000E+00	 2.00000000E+00
					 5.00000000E-01	 0.00000000E+00	 3.00000000E+00
					 5.00000000E-01	 0.00000000E+00	 4.00000000E+00
					 5.00000000E-01	 0.00000000E+00	 5.00000000E+00
					 5.00000000E-01	 0.00000000E+00	 6.00000000E+00
					 5.00000000E-01	 0.00000000E+00	 7.00000000E+00
					 1.00000000E+00	 5.00000000E-01	 1.00000000E+00
					 1.00000000E+00	 5.00000000E-01	 2.00000000E+00
					 1.00000000E+00	 5.00000000E-01	 3.00000000E+00
					 1.00000000E+00	 5.00000000E-01	 4.00000000E+00
					 1.00000000E+00	 5.00000000E-01	 5.00000000E+00
					 1.00000000E+00	 5.00000000E-01	 6.00000000E+00
					 1.00000000E+00	 5.00000000E-01	 7.00000000E+00
					 5.00000000E-01	 1.00000000E+00	 1.00000000E+00
					 5.00000000E-01	 1.00000000E+00	 2.00000000E+00
					 5.00000000E-01	 1.00000000E+00	 3.00000000E+00
					 5.00000000E-01	 1.00000000E+00	 4.00000000E+00
					 5.00000000E-01	 1.00000000E+00	 5.00000000E+00
					 5.00000000E-01	 1.00000000E+00	 6.00000000E+00
					 5.00000000E-01	 1.00000000E+00	 7.00000000E+00
					 0.00000000E+00	 5.00000000E-01	 1.00000000E+00
					 0.00000000E+00	 5.00000000E-01	 2.00000000E+00
					 0.00000000E+00	 5.00000000E-01	 3.00000000E+00
					 0.00000000E+00	 5.00000000E-01	 4.00000000E+00
					 0.00000000E+00	 5.00000000E-01	 5.00000000E+00
					 0.00000000E+00	 5.00000000E-01	 6.00000000E+00
					 0.00000000E+00	 5.00000000E-01	 7.00000000E+00
					 5.00000000E-01	 5.00000000E-01	 1.00000000E+00
					 5.00000000E-01	 5.00000000E-01	 2.00000000E+00
					 5.00000000E-01	 5.00000000E-01	 3.00000000E+00
					 5.00000000E-01	 5.00000000E-01	 4.00000000E+00
					 5.00000000E-01	 5.00000000E-01	 5.00000000E+00
					 5.00000000E-01	 5.00000000E-01	 6.00000000E+00
					 5.00000000E-01	 5.00000000E-01	 7.00000000E+00
					 1.00000000E+00	 0.00000000E+00	 4.00000000E+00
					 0.00000000E+00	 0.00000000E+00	 4.00000000E+00
					 1.00000000E+00	 1.00000000E+00	 4.00000000E+00
					 0.00000000E+00	 1.00000000E+00	 4.00000000E+00
					 5.00000000E-01	 0.00000000E+00	 4.00000000E+00
					 1.00000000E+00	 5.00000000E-01	 4.00000000E+00
					 5.00000000E-01	 1.00000000E+00	 4.00000000E+00
					 0.00000000E+00	 5.00000000E-01	 4.00000000E+00
					 5.00000000E-01	 5.00000000E-01	 4.00000000E+00

				</DataArray>
			</Points>
			<Cells>
				<DataArray type="Int32" Name="connectivity" format="ascii">
					0 8 44 11 29 46 74 67 8 1 9 44 46 16 53 74 11 44 10 3 67 74 60 37 44 9 2 10 74 53 30 60 29 46 74 67 28 47 75 68 46 16 53 74 47 17 54 75 67 74 60 37 68 75 61 38 74 53 30 60 75 54 31 61 28 47 75 68 27 48 76 69 47 17 54 75 48 18 55 76 68 75 61 38 69 76 62 39 75 54 31 61 76 55 32 62 27 48 76 69 26 49 77 70 48 18 55 76 49 19 56 77 69 76 62 39 70 77 63 40 76 55 32 62 77 56 33 63 82 85 89 88 25 50 78 71 85 81 86 89 50 20 57 78 88 89 87 84 71 78 64 41 89 86 83 87 78 57 34 64 25 50 78 71 24 51 79 72 50 20 57 78 51 21 58 79 71 78 64 41 72 79 65 42 78 57 34 64 79 58 35 65 24 51 79 72 23 52 80 73 51 21 58 79 52 22 59 80 72 79 65 42 73 80 66 43 79 58 35 65 80 59 36 66 23 52 80 73 4 12 45 15 52 22 59 80 12 5 13 45 73 80 66 43 15 45 14 7 80 59 36 66 45 13 6 14 
				</DataArray>
				<DataArray type="Int32" Name="offsets" format="ascii">
					8 16 24 32 40 48 56 64 72 80 88 96 104 112 120 128 136 144 152 160 168 176 184 192 200 208 216 224 232 240 248 256 
				</DataArray>
				<DataArray type="UInt8" Name="types" format="ascii">
					12 12 12 12 12 12 12 12 12 12 12 12 12 12 12 12 12 12 12 12 12 12 12 12 12 12 12 12 12 12 12 12 
				</DataArray>
			</Cells>
			<PointData>
				<DataArray type="Float32" Name="SENFREQ" NumberOfComponents="2" ComponentName0="DFDN" ComponentName1="DFDNFIL" format="ascii">
					 0.00000000E+00	 0.00000000E+00
					 0.00000000E+00	 0.00000000E+00
					 0.00000000E+00	 0.00000000E+00
					 0.00000000E+00	 0.00000000E+00
					-1.97385000E+12	-3.63532000E-01
					-1.55242000E+12	-2.85916000E-01
					-1.97385000E+12	-3.63532000E-01
					-1.55242000E+12	-2.85916000E-01
					 0.00000000E+00	 0.00000000E+00
					 0.00000000E+00	 0.00000000E+00
					 0.00000000E+00	 0.00000000E+00
					 0.00000000E+00	 0.00000000E+00
					-2.62031000E+12	-4.82593000E-01
					-1.49397000E+12	-2.75151000E-01
					-2.62031000E+12	-4.82593000E-01
					-1.49397000E+12	-2.75151000E-01
					-6.31004000E+11	-1.16215000E-01
					-1.05731000E+12	-1.94729000E-01
					 2.22010000E+12	 4.08886000E-01
					 0.00000000E+00	 0.00000000E+00
					-1.77965000E+12	-3.27766000E-01
					 9.42597000E+11	 1.73602000E-01
					 7.47295000E+11	 1.37632000E-01
					 8.54690000E+11	 1.57412000E-01
					 9.27314000E+11	 1.70787000E-01
					-2.87236000E+12	-5.29015000E-01
					 0.00000000E+00	 0.00000000E+00
					 2.35593000E+12	 4.33901000E-01
					-1.44245000E+12	-2.65661000E-01
					-8.89984000E+11	-1.63912000E-01
					-8.89984000E+11	-1.63912000E-01
					-1.44245000E+12	-2.65661000E-01
					 2.35593000E+12	 4.33901000E-01
					 0.00000000E+00	 0.00000000E+00
					-2.87236000E+12	-5.29015000E-01
					 9.27314000E+11	 1.70787000E-01
					 8.54690000E+11	 1.57412000E-01
					-6.31004000E+11	-1.16215000E-01
					-1.05731000E+12	-1.94729000E-01
					 2.22010000E+12	 4.08886000E-01
					 0.00000000E+00	 0.00000000E+00
					-1.77965000E+12	-3.27766000E-01
					 9.42597000E+11	 1.73602000E-01
					 7.47295000E+11	 1.37632000E-01
					 0.00000000E+00	 0.00000000E+00
					-5.42964000E+12	-1.00000000E+00
					-1.38804000E+12	-2.55642000E-01
					-2.23643000E+12	-4.11893000E-01
					 3.33177000E+12	 6.13626000E-01
					 0.00000000E+00	 0.00000000E+00
					-4.59666000E+12	-8.46586000E-01
					 1.14700000E+12	 2.11248000E-01
					 1.28114000E+12	 2.35952000E-01
					-1.14186000E+12	-2.10301000E-01
					-1.40177000E+12	-2.58170000E-01
					 3.04086000E+12	 5.60048000E-01
					 0.00000000E+00	 0.00000000E+00
					-2.45016000E+12	-4.51256000E-01
					 1.24530000E+12	 2.29353000E-01
					 1.32891000E+12	 2.44751000E-01
					-1.38804000E+12	-2.55642000E-01
					-2.23643000E+12	-4.11893000E-01
					 3.33177000E+12	 6.13626000E-01
					 0.00000000E+00	 0.00000000E+00
					-4.59666000E+12	-8.46586000E-01
					 1.14700000E+12	 2.11248000E-01
					 1.28114000E+12	 2.35952000E-01
					-1.14186000E+12	-2.10301000E-01
					-1.40177000E+12	-2.58170000E-01
					 3.04086000E+12	 5.60048000E-01
					 0.00000000E+00	 0.00000000E+00
					-2.45016000E+12	-4.51256000E-01
					 1.24530000E+12	 2.29353000E-01
					 1.32891000E+12	 2.44751000E-01
					 0.00000000E+00	 0.00000000E+00
					 0.00000000E+00	 0.00000000E+00
					 0.00000000E+00	 0.00000000E+00
					 0.00000000E+00	 0.00000000E+00
					 0.00000000E+00	 0.00000000E+00
					 0.00000000E+00	 0.00000000E+00
					 0.00000000E+00	 0.00000000E+00
					 0.00000000E+00	 0.00000000E+00
					 0.00000000E+00	 0.00000000E+00
					 0.00000000E+00	 0.00000000E+00
					 0.00000000E+00	 0.00000000E+00
					 0.00000000E+00	 0.00000000E+00
					 0.00000000E+00	 0.00000000E+00
					 0.00000000E+00	 0.00000000E+00
					 0.00000000E+00	 0.00000000E+00
					 0.00000000E+00	 0.00000000E+00
				</DataArray>
			</PointData>
		</Piece>
	</UnstructuredGrid>
</VTKFile>