# vtk DataFile Version 3.0

ASCII
DATASET UNSTRUCTURED_GRID

POINTS 111 double
	 1.00000000E+00	 0.00000000E+00	 1.00000000E+00
	 1.00000000E+00	 0.00000000E+00	 1.50000000E+00
	 1.00000000E+00	 0.00000000E+00	 2.00000000E+00
	 1.00000000E+00	 0.00000000E+00	 2.50000000E+00
	 1.00000000E+00	 0.00000000E+00	 3.00000000E+00
	 1.00000000E+00	 0.00000000E+00	 3.50000000E+00
	 1.00000000E+00	 0.00000000E+00	 4.00000000E+00
	 0.00000000E+00	 0.00000000E+00	 4.00000000E+00
	 0.00000000E+00	 0.00000000E+00	 3.50000000E+00
	 0.00000000E+00	 0.00000000E+00	 3.00000000E+00
	 0.00000000E+00	 0.00000000E+00	 2.50000000E+00
	 0.00000000E+00	 0.00000000E+00	 2.00000000E+00
	 0.00000000E+00	 0.00000000E+00	 1.50000000E+00
	 0.00000000E+00	 0.00000000E+00	 1.00000000E+00
	 1.00000000E+00	 1.50000000E+00	 1.00000000E+00
	 1.00000000E+00	 1.50000000E+00	 1.50000000E+00
	 1.00000000E+00	 1.50000000E+00	 2.00000000E+00
	 1.00000000E+00	 1.50000000E+00	 2.50000000E+00
	 1.00000000E+00	 1.50000000E+00	 3.00000000E+00
	 1.00000000E+00	 1.50000000E+00	 3.50000000E+00
	 1.00000000E+00	 1.50000000E+00	 4.00000000E+00
	 0.00000000E+00	 1.50000000E+00	 1.00000000E+00
	 0.00000000E+00	 1.50000000E+00	 1.50000000E+00
	 0.00000000E+00	 1.50000000E+00	 2.00000000E+00
	 0.00000000E+00	 1.50000000E+00	 2.50000000E+00
	 0.00000000E+00	 1.50000000E+00	 3.00000000E+00
	 0.00000000E+00	 1.50000000E+00	 3.50000000E+00
	 0.00000000E+00	 1.50000000E+00	 4.00000000E+00
	 2.50000000E-01	 0.00000000E+00	 1.00000000E+00
	 5.00000000E-01	 0.00000000E+00	 1.00000000E+00
	 7.50000000E-01	 0.00000000E+00	 1.00000000E+00
	 5.00000000E-01	 0.00000000E+00	 1.50000000E+00
	 2.50000000E-01	 0.00000000E+00	 2.00000000E+00
	 5.00000000E-01	 0.00000000E+00	 2.00000000E+00
	 7.50000000E-01	 0.00000000E+00	 2.00000000E+00
	 5.00000000E-01	 0.00000000E+00	 2.50000000E+00
	 2.50000000E-01	 0.00000000E+00	 3.00000000E+00
	 5.00000000E-01	 0.00000000E+00	 3.00000000E+00
	 7.50000000E-01	 0.00000000E+00	 3.00000000E+00
	 5.00000000E-01	 0.00000000E+00	 3.50000000E+00
	 2.50000000E-01	 0.00000000E+00	 4.00000000E+00
	 5.00000000E-01	 0.00000000E+00	 4.00000000E+00
	 7.50000000E-01	 0.00000000E+00	 4.00000000E+00
	 1.00000000E+00	 3.75000000E-01	 1.00000000E+00
	 1.00000000E+00	 7.50000000E-01	 1.00000000E+00
	 1.00000000E+00	 1.12500000E+00	 1.00000000E+00
	 1.00000000E+00	 7.50000000E-01	 1.50000000E+00
	 1.00000000E+00	 3.75000000E-01	 2.00000000E+00
	 1.00000000E+00	 7.50000000E-01	 2.00000000E+00
	 1.00000000E+00	 1.12500000E+00	 2.00000000E+00
	 1.00000000E+00	 7.50000000E-01	 2.50000000E+00
	 1.00000000E+00	 3.75000000E-01	 3.00000000E+00
	 1.00000000E+00	 7.50000000E-01	 3.00000000E+00
	 1.00000000E+00	 1.12500000E+00	 3.00000000E+00
	 1.00000000E+00	 7.50000000E-01	 3.50000000E+00
	 1.00000000E+00	 3.75000000E-01	 4.00000000E+00
	 1.00000000E+00	 7.50000000E-01	 4.00000000E+00
	 1.00000000E+00	 1.12500000E+00	 4.00000000E+00
	 7.50000000E-01	 1.50000000E+00	 1.00000000E+00
	 5.00000000E-01	 1.50000000E+00	 1.00000000E+00
	 2.50000000E-01	 1.50000000E+00	 1.00000000E+00
	 5.00000000E-01	 1.50000000E+00	 1.50000000E+00
	 7.50000000E-01	 1.50000000E+00	 2.00000000E+00
	 5.00000000E-01	 1.50000000E+00	 2.00000000E+00
	 2.50000000E-01	 1.50000000E+00	 2.00000000E+00
	 5.00000000E-01	 1.50000000E+00	 2.50000000E+00
	 7.50000000E-01	 1.50000000E+00	 3.00000000E+00
	 5.00000000E-01	 1.50000000E+00	 3.00000000E+00
	 2.50000000E-01	 1.50000000E+00	 3.00000000E+00
	 5.00000000E-01	 1.50000000E+00	 3.50000000E+00
	 7.50000000E-01	 1.50000000E+00	 4.00000000E+00
	 5.00000000E-01	 1.50000000E+00	 4.00000000E+00
	 2.50000000E-01	 1.50000000E+00	 4.00000000E+00
	 0.00000000E+00	 1.12500000E+00	 1.00000000E+00
	 0.00000000E+00	 7.50000000E-01	 1.00000000E+00
	 0.00000000E+00	 3.75000000E-01	 1.00000000E+00
	 0.00000000E+00	 7.50000000E-01	 1.50000000E+00
	 0.00000000E+00	 1.12500000E+00	 2.00000000E+00
	 0.00000000E+00	 7.50000000E-01	 2.00000000E+00
	 0.00000000E+00	 3.75000000E-01	 2.00000000E+00
	 0.00000000E+00	 7.50000000E-01	 2.50000000E+00
	 0.00000000E+00	 1.12500000E+00	 3.00000000E+00
	 0.00000000E+00	 7.50000000E-01	 3.00000000E+00
	 0.00000000E+00	 3.75000000E-01	 3.00000000E+00
	 0.00000000E+00	 7.50000000E-01	 3.50000000E+00
	 0.00000000E+00	 1.12500000E+00	 4.00000000E+00
	 0.00000000E+00	 7.50000000E-01	 4.00000000E+00
	 0.00000000E+00	 3.75000000E-01	 4.00000000E+00
	 5.00000000E-01	 3.75000000E-01	 1.00000000E+00
	 2.50000000E-01	 7.50000000E-01	 1.00000000E+00
	 5.00000000E-01	 7.50000000E-01	 1.00000000E+00
	 7.50000000E-01	 7.50000000E-01	 1.00000000E+00
	 5.00000000E-01	 1.12500000E+00	 1.00000000E+00
	 5.00000000E-01	 7.50000000E-01	 1.50000000E+00
	 5.00000000E-01	 3.75000000E-01	 2.00000000E+00
	 2.50000000E-01	 7.50000000E-01	 2.00000000E+00
	 5.00000000E-01	 7.50000000E-01	 2.00000000E+00
	 7.50000000E-01	 7.50000000E-01	 2.00000000E+00
	 5.00000000E-01	 1.12500000E+00	 2.00000000E+00
	 5.00000000E-01	 7.50000000E-01	 2.50000000E+00
	 5.00000000E-01	 3.75000000E-01	 3.00000000E+00
	 2.50000000E-01	 7.50000000E-01	 3.00000000E+00
	 5.00000000E-01	 7.50000000E-01	 3.00000000E+00
	 7.50000000E-01	 7.50000000E-01	 3.00000000E+00
	 5.00000000E-01	 1.12500000E+00	 3.00000000E+00
	 5.00000000E-01	 7.50000000E-01	 3.50000000E+00
	 5.00000000E-01	 3.75000000E-01	 4.00000000E+00
	 2.50000000E-01	 7.50000000E-01	 4.00000000E+00
	 5.00000000E-01	 7.50000000E-01	 4.00000000E+00
	 7.50000000E-01	 7.50000000E-01	 4.00000000E+00
	 5.00000000E-01	 1.12500000E+00	 4.00000000E+00

CELLS 12 252
	20 13 29 90 74 11 33 96 78 28 88 89 75 32 94 95 79 12 31 93 76 
	20 29 0 44 90 33 2 48 96 30 43 91 88 34 47 97 94 31 1 46 93 
	20 74 90 59 21 78 96 63 23 89 92 60 73 95 98 64 77 76 93 61 22 
	20 90 44 14 59 96 48 16 63 91 45 58 92 97 49 62 98 93 46 15 61 
	20 11 33 96 78 9 37 102 82 32 94 95 79 36 100 101 83 10 35 99 80 
	20 33 2 48 96 37 4 52 102 34 47 97 94 38 51 103 100 35 3 50 99 
	20 78 96 63 23 82 102 67 25 95 98 64 77 101 104 68 81 80 99 65 24 
	20 96 48 16 63 102 52 18 67 97 49 62 98 103 53 66 104 99 50 17 65 
	20 9 37 102 82 7 41 108 86 36 100 101 83 40 106 107 87 8 39 105 84 
	20 37 4 52 102 41 6 56 108 38 51 103 100 42 55 109 106 39 5 54 105 
	20 82 102 67 25 86 108 71 27 101 104 68 81 107 110 72 85 84 105 69 26 
	20 102 52 18 67 108 56 20 71 103 53 66 104 109 57 70 110 105 54 19 69 

CELL_TYPES 12
	25
	25
	25
	25
	25
	25
	25
	25
	25
	25
	25
	25

POINT_DATA 111
FIELD U 1
	U 3 111 double
		-3.36664000E+03	-2.27011000E+03	 4.03404000E+02
		-4.98786000E+03	-3.32197000E+03	 3.55207000E+02
		-6.06967000E+03	-4.04759000E+03	 2.33188000E+02
		-6.64203000E+03	-4.41157000E+03	 7.64882000E+01
		-6.61592000E+03	-4.40111000E+03	-8.42072000E+01
		-6.02832000E+03	-4.00800000E+03	-2.41479000E+02
		-4.89287000E+03	-3.25287000E+03	-3.69191000E+02
		-4.89287000E+03	 3.25287000E+03	 3.69191000E+02
		-6.02832000E+03	 4.00800000E+03	 2.41479000E+02
		-6.61592000E+03	 4.40111000E+03	 8.42072000E+01
		-6.64203000E+03	 4.41157000E+03	-7.64882000E+01
		-6.06967000E+03	 4.04759000E+03	-2.33188000E+02
		-4.98786000E+03	 3.32197000E+03	-3.55207000E+02
		-3.36664000E+03	 2.27011000E+03	-4.03404000E+02
		 3.36664000E+03	-2.27011000E+03	-4.03404000E+02
		 4.98786000E+03	-3.32197000E+03	-3.55207000E+02
		 6.06967000E+03	-4.04759000E+03	-2.33188000E+02
		 6.64203000E+03	-4.41157000E+03	-7.64882000E+01
		 6.61592000E+03	-4.40111000E+03	 8.42072000E+01
		 6.02832000E+03	-4.00800000E+03	 2.41479000E+02
		 4.89287000E+03	-3.25287000E+03	 3.69191000E+02
		 3.36664000E+03	 2.27011000E+03	 4.03404000E+02
		 4.98786000E+03	 3.32197000E+03	 3.55207000E+02
		 6.06967000E+03	 4.04759000E+03	 2.33188000E+02
		 6.64203000E+03	 4.41157000E+03	 7.64882000E+01
		 6.61592000E+03	 4.40111000E+03	-8.42072000E+01
		 6.02832000E+03	 4.00800000E+03	-2.41479000E+02
		 4.89287000E+03	 3.25287000E+03	-3.69191000E+02
		-3.39104000E+03	 1.13775000E+03	 3.68136000E+01
		-3.42665000E+03	 0.00000000E+00	 0.00000000E+00
		-3.39104000E+03	-1.13775000E+03	-3.68136000E+01
		-4.94943000E+03	 0.00000000E+00	 0.00000000E+00
		-6.09048000E+03	 2.01691000E+03	-4.58481000E+01
		-6.08618000E+03	 0.00000000E+00	 0.00000000E+00
		-6.09048000E+03	-2.01691000E+03	 4.58481000E+01
		-6.63329000E+03	 0.00000000E+00	 0.00000000E+00
		-6.63051000E+03	 2.19522000E+03	 1.45417000E+01
		-6.62619000E+03	 0.00000000E+00	 0.00000000E+00
		-6.63051000E+03	-2.19522000E+03	-1.45417000E+01
		-6.01983000E+03	 0.00000000E+00	 0.00000000E+00
		-4.90252000E+03	 1.62200000E+03	 4.65269000E+01
		-4.89609000E+03	 0.00000000E+00	 0.00000000E+00
		-4.90252000E+03	-1.62200000E+03	-4.65269000E+01
		-1.68672000E+03	-2.24649000E+03	 6.02826000E+02
		 0.00000000E+00	-2.21964000E+03	 0.00000000E+00
		 1.68672000E+03	-2.24649000E+03	-6.02826000E+02
		 0.00000000E+00	-3.24285000E+03	 0.00000000E+00
		-3.03308000E+03	-4.00590000E+03	 2.67053000E+02
		 0.00000000E+00	-3.97666000E+03	 0.00000000E+00
		 3.03308000E+03	-4.00590000E+03	-2.67053000E+02
		 0.00000000E+00	-4.34215000E+03	 0.00000000E+00
		-3.31153000E+03	-4.35859000E+03	-9.99208000E+01
		 0.00000000E+00	-4.33153000E+03	 0.00000000E+00
		 3.31153000E+03	-4.35859000E+03	 9.99208000E+01
		 0.00000000E+00	-3.93579000E+03	 0.00000000E+00
		-2.44768000E+03	-3.22230000E+03	-4.55483000E+02
		 0.00000000E+00	-3.20229000E+03	 0.00000000E+00
		 2.44768000E+03	-3.22230000E+03	 4.55483000E+02
		 3.39104000E+03	-1.13775000E+03	 3.68136000E+01
		 3.42665000E+03	 0.00000000E+00	 0.00000000E+00
		 3.39104000E+03	 1.13775000E+03	-3.68136000E+01
		 4.94943000E+03	 0.00000000E+00	 0.00000000E+00
		 6.09048000E+03	-2.01691000E+03	-4.58481000E+01
		 6.08618000E+03	 0.00000000E+00	 0.00000000E+00
		 6.09048000E+03	 2.01691000E+03	 4.58481000E+01
		 6.63329000E+03	 0.00000000E+00	 0.00000000E+00
		 6.63051000E+03	-2.19522000E+03	 1.45417000E+01
		 6.62619000E+03	 0.00000000E+00	 0.00000000E+00
		 6.63051000E+03	 2.19522000E+03	-1.45417000E+01
		 6.01983000E+03	 0.00000000E+00	 0.00000000E+00
		 4.90252000E+03	-1.62200000E+03	 4.65269000E+01
		 4.89609000E+03	 0.00000000E+00	 0.00000000E+00
		 4.90252000E+03	 1.62200000E+03	-4.65269000E+01
		 1.68672000E+03	 2.24649000E+03	 6.02826000E+02
		 0.00000000E+00	 2.21964000E+03	 0.00000000E+00
		-1.68672000E+03	 2.24649000E+03	-6.02826000E+02
		 0.00000000E+00	 3.24285000E+03	 0.00000000E+00
		 3.03308000E+03	 4.00590000E+03	 2.67053000E+02
		 0.00000000E+00	 3.97666000E+03	 0.00000000E+00
		-3.03308000E+03	 4.00590000E+03	-2.67053000E+02
		 0.00000000E+00	 4.34215000E+03	 0.00000000E+00
		 3.31153000E+03	 4.35859000E+03	-9.99208000E+01
		 0.00000000E+00	 4.33153000E+03	 0.00000000E+00
		-3.31153000E+03	 4.35859000E+03	 9.99208000E+01
		 0.00000000E+00	 3.93579000E+03	 0.00000000E+00
		 2.44768000E+03	 3.22230000E+03	-4.55483000E+02
		 0.00000000E+00	 3.20229000E+03	 0.00000000E+00
		-2.44768000E+03	 3.22230000E+03	 4.55483000E+02
		-1.71017000E+03	 0.00000000E+00	 0.00000000E+00
		 0.00000000E+00	 1.11596000E+03	 0.00000000E+00
		 0.00000000E+00	 0.00000000E+00	 0.00000000E+00
		 0.00000000E+00	-1.11596000E+03	 0.00000000E+00
		 1.71017000E+03	 0.00000000E+00	 0.00000000E+00
		 0.00000000E+00	 0.00000000E+00	 0.00000000E+00
		-3.02990000E+03	 0.00000000E+00	 0.00000000E+00
		 0.00000000E+00	 1.95271000E+03	 0.00000000E+00
		 0.00000000E+00	 0.00000000E+00	 0.00000000E+00
		 0.00000000E+00	-1.95271000E+03	 0.00000000E+00
		 3.02990000E+03	 0.00000000E+00	 0.00000000E+00
		 0.00000000E+00	 0.00000000E+00	 0.00000000E+00
		-3.29669000E+03	 0.00000000E+00	 0.00000000E+00
		 0.00000000E+00	 2.12824000E+03	 0.00000000E+00
		 0.00000000E+00	 0.00000000E+00	 0.00000000E+00
		 0.00000000E+00	-2.12824000E+03	 0.00000000E+00
		 3.29669000E+03	 0.00000000E+00	 0.00000000E+00
		 0.00000000E+00	 0.00000000E+00	 0.00000000E+00
		-2.45773000E+03	 0.00000000E+00	 0.00000000E+00
		 0.00000000E+00	 1.58962000E+03	 0.00000000E+00
		 0.00000000E+00	 0.00000000E+00	 0.00000000E+00
		 0.00000000E+00	-1.58962000E+03	 0.00000000E+00
		 2.45773000E+03	 0.00000000E+00	 0.00000000E+00
