# vtk DataFile Version 3.0

ASCII
DATASET UNSTRUCTURED_GRID

POINTS 90 double
	 0.00000000E+00	 0.00000000E+00	 0.00000000E+00
	 1.00000000E+00	 0.00000000E+00	 0.00000000E+00
	 1.00000000E+00	 1.00000000E+00	 0.00000000E+00
	 0.00000000E+00	 1.00000000E+00	 0.00000000E+00
	 0.00000000E+00	 0.00000000E+00	 8.00000000E+00
	 1.00000000E+00	 0.00000000E+00	 8.00000000E+00
	 1.00000000E+00	 1.00000000E+00	 8.00000000E+00
	 0.00000000E+00	 1.00000000E+00	 8.00000000E+00
	 5.00000000E-01	 0.00000000E+00	 0.00000000E+00
	 1.00000000E+00	 5.00000000E-01	 0.00000000E+00
	 5.00000000E-01	 1.00000000E+00	 0.00000000E+00
	 0.00000000E+00	 5.00000000E-01	 0.00000000E+00
	 5.00000000E-01	 0.00000000E+00	 8.00000000E+00
	 1.00000000E+00	 5.00000000E-01	 8.00000000E+00
	 5.00000000E-01	 1.00000000E+00	 8.00000000E+00
	 0.00000000E+00	 5.00000000E-01	 8.00000000E+00
	 1.00000000E+00	 0.00000000E+00	 1.00000000E+00
	 1.00000000E+00	 0.00000000E+00	 2.00000000E+00
	 1.00000000E+00	 0.00000000E+00	 3.00000000E+00
	 1.00000000E+00	 0.00000000E+00	 4.00000000E+00
	 1.00000000E+00	 0.00000000E+00	 5.00000000E+00
	 1.00000000E+00	 0.00000000E+00	 6.00000000E+00
	 1.00000000E+00	 0.00000000E+00	 7.00000000E+00
	 0.00000000E+00	 0.00000000E+00	 7.00000000E+00
	 0.00000000E+00	 0.00000000E+00	 6.00000000E+00
	 0.00000000E+00	 0.00000000E+00	 5.00000000E+00
	 0.00000000E+00	 0.00000000E+00	 4.00000000E+00
	 0.00000000E+00	 0.00000000E+00	 3.00000000E+00
	 0.00000000E+00	 0.00000000E+00	 2.00000000E+00
	 0.00000000E+00	 0.00000000E+00	 1.00000000E+00
	 1.00000000E+00	 1.00000000E+00	 1.00000000E+00
	 1.00000000E+00	 1.00000000E+00	 2.00000000E+00
	 1.00000000E+00	 1.00000000E+00	 3.00000000E+00
	 1.00000000E+00	 1.00000000E+00	 4.00000000E+00
	 1.00000000E+00	 1.00000000E+00	 5.00000000E+00
	 1.00000000E+00	 1.00000000E+00	 6.00000000E+00
	 1.00000000E+00	 1.00000000E+00	 7.00000000E+00
	 0.00000000E+00	 1.00000000E+00	 1.00000000E+00
	 0.00000000E+00	 1.00000000E+00	 2.00000000E+00
	 0.00000000E+00	 1.00000000E+00	 3.00000000E+00
	 0.00000000E+00	 1.00000000E+00	 4.00000000E+00
	 0.00000000E+00	 1.00000000E+00	 5.00000000E+00
	 0.00000000E+00	 1.00000000E+00	 6.00000000E+00
	 0.00000000E+00	 1.00000000E+00	 7.00000000E+00
	 5.00000000E-01	 5.00000000E-01	 0.00000000E+00
	 5.00000000E-01	 5.00000000E-01	 8.00000000E+00
	 5.00000000E-01	 0.00000000E+00	 1.00000000E+00
	 5.00000000E-01	 0.00000000E+00	 2.00000000E+00
	 5.00000000E-01	 0.00000000E+00	 3.00000000E+00
	 5.00000000E-01	 0.00000000E+00	 4.00000000E+00
	 5.00000000E-01	 0.00000000E+00	 5.00000000E+00
	 5.00000000E-01	 0.00000000E+00	 6.00000000E+00
	 5.00000000E-01	 0.00000000E+00	 7.00000000E+00
	 1.00000000E+00	 5.00000000E-01	 1.00000000E+00
	 1.00000000E+00	 5.00000000E-01	 2.00000000E+00
	 1.00000000E+00	 5.00000000E-01	 3.00000000E+00
	 1.00000000E+00	 5.00000000E-01	 4.00000000E+00
	 1.00000000E+00	 5.00000000E-01	 5.00000000E+00
	 1.00000000E+00	 5.00000000E-01	 6.00000000E+00
	 1.00000000E+00	 5.00000000E-01	 7.00000000E+00
	 5.00000000E-01	 1.00000000E+00	 1.00000000E+00
	 5.00000000E-01	 1.00000000E+00	 2.00000000E+00
	 5.00000000E-01	 1.00000000E+00	 3.00000000E+00
	 5.00000000E-01	 1.00000000E+00	 4.00000000E+00
	 5.00000000E-01	 1.00000000E+00	 5.00000000E+00
	 5.00000000E-01	 1.00000000E+00	 6.00000000E+00
	 5.00000000E-01	 1.00000000E+00	 7.00000000E+00
	 0.00000000E+00	 5.00000000E-01	 1.00000000E+00
	 0.00000000E+00	 5.00000000E-01	 2.00000000E+00
	 0.00000000E+00	 5.00000000E-01	 3.00000000E+00
	 0.00000000E+00	 5.00000000E-01	 4.00000000E+00
	 0.00000000E+00	 5.00000000E-01	 5.00000000E+00
	 0.00000000E+00	 5.00000000E-01	 6.00000000E+00
	 0.00000000E+00	 5.00000000E-01	 7.00000000E+00
	 5.00000000E-01	 5.00000000E-01	 1.00000000E+00
	 5.00000000E-01	 5.00000000E-01	 2.00000000E+00
	 5.00000000E-01	 5.00000000E-01	 3.00000000E+00
	 5.00000000E-01	 5.00000000E-01	 4.00000000E+00
	 5.00000000E-01	 5.00000000E-01	 5.00000000E+00
	 5.00000000E-01	 5.00000000E-01	 6.00000000E+00
	 5.00000000E-01	 5.00000000E-01	 7.00000000E+00
	 1.00000000E+00	 0.00000000E+00	 4.00000000E+00
	 0.00000000E+00	 0.00000000E+00	 4.00000000E+00
	 1.00000000E+00	 1.00000000E+00	 4.00000000E+00
	 0.00000000E+00	 1.00000000E+00	 4.00000000E+00
	 5.00000000E-01	 0.00000000E+00	 4.00000000E+00
	 1.00000000E+00	 5.00000000E-01	 4.00000000E+00
	 5.00000000E-01	 1.00000000E+00	 4.00000000E+00
	 0.00000000E+00	 5.00000000E-01	 4.00000000E+00
	 5.00000000E-01	 5.00000000E-01	 4.00000000E+00

CELLS 32 288
	8 0 8 44 11 29 46 74 67 
	8 8 1 9 44 46 16 53 74 
	8 11 44 10 3 67 74 60 37 
	8 44 9 2 10 74 53 30 60 
	8 29 46 74 67 28 47 75 68 
	8 46 16 53 74 47 17 54 75 
	8 67 74 60 37 68 75 61 38 
	8 74 53 30 60 75 54 31 61 
	8 28 47 75 68 27 48 76 69 
	8 47 17 54 75 48 18 55 76 
	8 68 75 61 38 69 76 62 39 
	8 75 54 31 61 76 55 32 62 
	8 27 48 76 69 26 49 77 70 
	8 48 18 55 76 49 19 56 77 
	8 69 76 62 39 70 77 63 40 
	8 76 55 32 62 77 56 33 63 
	8 82 85 89 88 25 50 78 71 
	8 85 81 86 89 50 20 57 78 
	8 88 89 87 84 71 78 64 41 
	8 89 86 83 87 78 57 34 64 
	8 25 50 78 71 24 51 79 72 
	8 50 20 57 78 51 21 58 79 
	8 71 78 64 41 72 79 65 42 
	8 78 57 34 64 79 58 35 65 
	8 24 51 79 72 23 52 80 73 
	8 51 21 58 79 52 22 59 80 
	8 72 79 65 42 73 80 66 43 
	8 79 58 35 65 80 59 36 66 
	8 23 52 80 73 4 12 45 15 
	8 52 22 59 80 12 5 13 45 
	8 73 80 66 43 15 45 14 7 
	8 80 59 36 66 45 13 6 14 

CELL_TYPES 32
	12
	12
	12
	12
	12
	12
	12
	12
	12
	12
	12
	12
	12
	12
	12
	12
	12
	12
	12
	12
	12
	12
	12
	12
	12
	12
	12
	12
	12
	12
	12
	12

POINT_DATA 90
FIELD U 1
	U 3 90 double
		 0.00000000E+00	 0.00000000E+00	 0.00000000E+00
		 0.00000000E+00	 0.00000000E+00	 0.00000000E+00
		 0.00000000E+00	 0.00000000E+00	 0.00000000E+00
		 0.00000000E+00	 0.00000000E+00	 0.00000000E+00
		-3.24043000E+03	 5.77523000E+03	 5.08196000E+01
		-2.51761000E+03	 5.40290000E+03	 1.58796000E+02
		-3.24043000E+03	 5.77523000E+03	-5.08196000E+01
		-2.51761000E+03	 5.40290000E+03	-1.58796000E+02
		 0.00000000E+00	 0.00000000E+00	 0.00000000E+00
		 0.00000000E+00	 0.00000000E+00	 0.00000000E+00
		 0.00000000E+00	 0.00000000E+00	 0.00000000E+00
		 0.00000000E+00	 0.00000000E+00	 0.00000000E+00
		-2.96687000E+03	 5.29924000E+03	 5.22577000E+01
		-2.72972000E+03	 5.75961000E+03	 2.69188000E+01
		-2.96687000E+03	 5.29924000E+03	-5.22577000E+01
		-2.72972000E+03	 5.75961000E+03	-2.69188000E+01
		 1.31737000E+03	-2.41352000E+03	-8.18178000E+02
		 2.21480000E+03	-4.44501000E+03	-5.95758000E+02
		 2.54300000E+03	-5.12795000E+03	 1.09161000E+02
		 1.96772000E+03	-3.97028000E+03	 8.09411000E+02
		 6.92331000E+02	-1.39317000E+03	 1.23777000E+03
		-8.42007000E+02	 1.68801000E+03	 1.18425000E+03
		-2.08973000E+03	 4.19160000E+03	 7.87032000E+02
		-2.27874000E+03	 4.28896000E+03	 2.51874000E+02
		-9.16911000E+02	 1.72659000E+03	 3.78998000E+02
		 7.61240000E+02	-1.42866000E+03	 3.96125000E+02
		 2.17853000E+03	-4.07887000E+03	 2.59036000E+02
		 2.81113000E+03	-5.26607000E+03	 3.49349000E+01
		 2.41869000E+03	-4.55004000E+03	-1.90661000E+02
		 1.11556000E+03	-2.30956000E+03	-2.61842000E+02
		 1.11556000E+03	-2.30956000E+03	 2.61842000E+02
		 2.41869000E+03	-4.55004000E+03	 1.90661000E+02
		 2.81113000E+03	-5.26607000E+03	-3.49349000E+01
		 2.17853000E+03	-4.07887000E+03	-2.59036000E+02
		 7.61240000E+02	-1.42866000E+03	-3.96125000E+02
		-9.16911000E+02	 1.72659000E+03	-3.78998000E+02
		-2.27874000E+03	 4.28896000E+03	-2.51874000E+02
		 1.31737000E+03	-2.41352000E+03	 8.18178000E+02
		 2.21480000E+03	-4.44501000E+03	 5.95758000E+02
		 2.54300000E+03	-5.12795000E+03	-1.09161000E+02
		 1.96772000E+03	-3.97028000E+03	-8.09411000E+02
		 6.92331000E+02	-1.39317000E+03	-1.23777000E+03
		-8.42007000E+02	 1.68801000E+03	-1.18425000E+03
		-2.08973000E+03	 4.19160000E+03	-7.87032000E+02
		 0.00000000E+00	 0.00000000E+00	 0.00000000E+00
		-2.63050000E+03	 5.10662000E+03	 0.00000000E+00
		 1.17415000E+03	-2.38700000E+03	-5.44280000E+02
		 2.35073000E+03	-4.45916000E+03	-4.05970000E+02
		 2.70820000E+03	-5.12963000E+03	 7.27044000E+01
		 2.09827000E+03	-3.96975000E+03	 5.42480000E+02
		 7.39187000E+02	-1.40054000E+03	 8.07296000E+02
		-8.99281000E+02	 1.70046000E+03	 8.38026000E+02
		-2.16725000E+03	 4.16773000E+03	 4.24932000E+02
		 1.22958000E+03	-2.27938000E+03	-2.80367000E+02
		 2.29699000E+03	-4.56350000E+03	-2.09122000E+02
		 2.64236000E+03	-5.25746000E+03	 3.74512000E+01
		 2.04488000E+03	-4.07338000E+03	 2.79440000E+02
		 7.21440000E+02	-1.43499000E+03	 4.15851000E+02
		-8.75936000E+02	 1.74578000E+03	 4.31681000E+02
		-2.14686000E+03	 4.20730000E+03	 2.18889000E+02
		 1.17415000E+03	-2.38700000E+03	 5.44280000E+02
		 2.35073000E+03	-4.45916000E+03	 4.05970000E+02
		 2.70820000E+03	-5.12963000E+03	-7.27044000E+01
		 2.09827000E+03	-3.96975000E+03	-5.42480000E+02
		 7.39187000E+02	-1.40054000E+03	-8.07296000E+02
		-8.99281000E+02	 1.70046000E+03	-8.38026000E+02
		-2.16725000E+03	 4.16773000E+03	-4.24932000E+02
		 1.22958000E+03	-2.27938000E+03	 2.80367000E+02
		 2.29699000E+03	-4.56350000E+03	 2.09122000E+02
		 2.64236000E+03	-5.25746000E+03	-3.74512000E+01
		 2.04488000E+03	-4.07338000E+03	-2.79440000E+02
		 7.21440000E+02	-1.43499000E+03	-4.15851000E+02
		-8.75936000E+02	 1.74578000E+03	-4.31681000E+02
		-2.14686000E+03	 4.20730000E+03	-2.18889000E+02
		 1.18721000E+03	-2.30474000E+03	 0.00000000E+00
		 2.33143000E+03	-4.52603000E+03	 0.00000000E+00
		 2.67334000E+03	-5.18977000E+03	 0.00000000E+00
		 2.07452000E+03	-4.02728000E+03	 0.00000000E+00
		 7.18950000E+02	-1.39570000E+03	 0.00000000E+00
		-8.57623000E+02	 1.66491000E+03	 0.00000000E+00
		-2.24964000E+03	 4.36725000E+03	 0.00000000E+00
		 1.96772000E+03	-3.97028000E+03	 8.09411000E+02
		 2.17853000E+03	-4.07887000E+03	 2.59036000E+02
		 2.17853000E+03	-4.07887000E+03	-2.59036000E+02
		 1.96772000E+03	-3.97028000E+03	-8.09411000E+02
		 2.09827000E+03	-3.96975000E+03	 5.42480000E+02
		 2.04488000E+03	-4.07338000E+03	 2.79440000E+02
		 2.09827000E+03	-3.96975000E+03	-5.42480000E+02
		 2.04488000E+03	-4.07338000E+03	-2.79440000E+02
		 2.07452000E+03	-4.02728000E+03	 0.00000000E+00
