<?xml version="1.0"?>
<VTKFile type="UnstructuredGrid" version="0.1" byte_order="LittleEndian">
	<UnstructuredGrid>
		<Piece NumberOfPoints="90" NumberOfCells="32">
			<Points>
				<DataArray type="Float64" NumberOfComponents="3" format="ascii">
					 0.00000000E+00	 0.00000000E+00	 0.00000000E+00
					 1.00000000E+00	 0.00000000E+00	 0.00000000E+00
					 1.00000000E+00	 1.00000000E+00	 0.00000000E+00
					 0.00000000E+00	 1.00000000E+00	 0.00000000E+00
					 0.00000000E+00	 0.00000000E+00	 8.00000000E+00
					 1.00000000E+00	 0.00000000E+00	 8.00000000E+00
					 1.00000000E+00	 1.00000000E+00	 8.00000000E+00
					 0.00000000E+00	 1.00000000E+00	 8.00000000E+00
					 5.00000000E-01	 0.00000000E+00	 0.00000000E+00
					 1.00000000E+00	 5.00000000E-01	 0.00000000E+00
					 5.00000000E-01	 1.00000000E+00	 0.00000000E+00
					 0.00000000E+00	 5.00000000E-01	 0.00000000E+00
					 5.00000000E-01	 0.00000000E+00	 8.00000000E+00
					 1.00000000E+00	 5.00000000E-01	 8.00000000E+00
					 5.00000000E-01	 1.00000000E+00	 8.00000000E+00
					 0.00000000E+00	 5.00000000E-01	 8.00000000E+00
					 1.00000000E+00	 0.00000000E+00	 1.00000000E+00
					 1.00000000E+00	 0.00000000E+00	 2.00000000E+00
					 1.00000000E+00	 0.00000000E+00	 3.00000000E+00
					 1.00000000E+00	 0.00000000E+00	 4.00000000E+00
					 1.00000000E+00	 0.00000000E+00	 5.00000000E+00
					 1.00000000E+00	 0.00000000E+00	 6.00000000E+00
					 1.00000000E+00	 0.00000000E+00	 7.00000000E+00
					 0.00000000E+00	 0.00000000E+00	 7.00000000E+00
					 0.00000000E+00	 0.00000000E+00	 6.00000000E+00
					 0.00000000E+00	 0.00000000E+00	 5.00000000E+00
					 0.00000000E+00	 0.00000000E+00	 4.00000000E+00
					 0.00000000E+00	 0.00000000E+00	 3.00000000E+00
					 0.00000000E+00	 0.00000000E+00	 2.00000000E+00
					 0.00000000E+00	 0.00000000E+00	 1.00000000E+00
					 1.00000000E+00	 1.00000000E+00	 1.00000000E+00
					 1.00000000E+00	 1.00000000E+00	 2.00000000E+00
					 1.00000000E+00	 1.00000000E+00	 3.00000000E+00
					 1.00000000E+00	 1.00000000E+00	 4.00000000E+00
					 1.00000000E+00	 1.00000000E+00	 5.00000000E+00
					 1.00000000E+00	 1.00000000E+00	 6.00000000E+00
					 1.00000000E+00	 1.00000000E+00	 7.00000000E+00
					 0.00000000E+00	 1.00000000E+00	 1.00000000E+00
					 0.00000000E+00	 1.00000000E+00	 2.00000000E+00
					 0.00000000E+00	 1.00000000E+00	 3.00000000E+00
					 0.00000000E+00	 1.00000000E+00	 4.00000000E+00
					 0.00000000E+00	 1.00000000E+00	 5.00000000E+00
					 0.00000000E+00	 1.00000000E+00	 6.00000000E+00
					 0.00000000E+00	 1.00000000E+00	 7.00000000E+00
					 5.00000000E-01	 5.00000000E-01	 0.00000000E+00
					 5.00000000E-01	 5.00000000E-01	 8.00000000E+00
					 5.00000000E-01	 0.00000000E+00	 1.00000000E+00
					 5.00000000E-01	 0.00000000E+00	 2.00000000E+00
					 5.00000000E-01	 0.00000000E+00	 3.00000000E+00
					 5.00000000E-01	 0.00000000E+00	 4.00000000E+00
					 5.00000000E-01	 0.00000000E+00	 5.00000000E+00
					 5.00000000E-01	 0.00000000E+00	 6.00000000E+00
					 5.00000000E-01	 0.00000000E+00	 7.00000000E+00
					 1.00000000E+00	 5.00000000E-01	 1.00000000E+00
					 1.00000000E+00	 5.00000000E-01	 2.00000000E+00
					 1.00000000E+00	 5.00000000E-01	 3.00000000E+00
					 1.00000000E+00	 5.00000000E-01	 4.00000000E+00
					 1.00000000E+00	 5.00000000E-01	 5.00000000E+00
					 1.00000000E+00	 5.00000000E-01	 6.00000000E+00
					 1.00000000E+00	 5.00000000E-01	 7.00000000E+00
					 5.00000000E-01	 1.00000000E+00	 1.00000000E+00
					 5.00000000E-01	 1.00000000E+00	 2.00000000E+00
					 5.00000000E-01	 1.00000000E+00	 3.00000000E+00
					 5.00000000E-01	 1.00000000E+00	 4.00000000E+00
					 5.00000000E-01	 1.00000000E+00	 5.00000000E+00
					 5.00000000E-01	 1.00000000E+00	 6.00000000E+00
					 5.00000000E-01	 1.00000000E+00	 7.00000000E+00
					 0.00000000E+00	 5.00000000E-01	 1.00000000E+00
					 0.00000000E+00	 5.00000000E-01	 2.00000000E+00
					 0.00000000E+00	 5.00000000E-01	 3.00000000E+00
					 0.00000000E+00	 5.00000000E-01	 4.00000000E+00
					 0.00000000E+00	 5.00000000E-01	 5.00000000E+00
					 0.00000000E+00	 5.00000000E-01	 6.00000000E+00
					 0.00000000E+00	 5.00000000E-01	 7.00000000E+00
					 5.00000000E-01	 5.00000000E-01	 1.00000000E+00
					 5.00000000E-01	 5.00000000E-01	 2.00000000E+00
					 5.00000000E-01	 5.00000000E-01	 3.00000000E+00
					 5.00000000E-01	 5.00000000E-01	 4.00000000E+00
					 5.00000000E-01	 5.00000000E-01	 5.00000000E+00
					 5.00000000E-01	 5.00000000E-01	 6.00000000E+00
					 5.00000000E-01	 5.00000000E-01	 7.00000000E+00
					 1.00000000E+00	 0.00000000E+00	 4.00000000E+00
					 0.00000000E+00	 0.00000000E+00	 4.00000000E+00
					 1.00000000E+00	 1.00000000E+00	 4.00000000E+00
					 0.00000000E+00	 1.00000000E+00	 4.00000000E+00
					 5.00000000E-01	 0.00000000E+00	 4.00000000E+00
					 1.00000000E+00	 5.00000000E-01	 4.00000000E+00
					 5.00000000E-01	 1.00000000E+00	 4.00000000E+00
					 0.00000000E+00	 5.00000000E-01	 4.00000000E+00
					 5.00000000E-01	 5.00000000E-01	 4.00000000E+00

				</DataArray>
			</Points>
			<Cells>
				<DataArray type="Int32" Name="connectivity" format="ascii">
					0 8 44 11 29 46 74 67 8 1 9 44 46 16 53 74 11 44 10 3 67 74 60 37 44 9 2 10 74 53 30 60 29 46 74 67 28 47 75 68 46 16 53 74 47 17 54 75 67 74 60 37 68 75 61 38 74 53 30 60 75 54 31 61 28 47 75 68 27 48 76 69 47 17 54 75 48 18 55 76 68 75 61 38 69 76 62 39 75 54 31 61 76 55 32 62 27 48 76 69 26 49 77 70 48 18 55 76 49 19 56 77 69 76 62 39 70 77 63 40 76 55 32 62 77 56 33 63 82 85 89 88 25 50 78 71 85 81 86 89 50 20 57 78 88 89 87 84 71 78 64 41 89 86 83 87 78 57 34 64 25 50 78 71 24 51 79 72 50 20 57 78 51 21 58 79 71 78 64 41 72 79 65 42 78 57 34 64 79 58 35 65 24 51 79 72 23 52 80 73 51 21 58 79 52 22 59 80 72 79 65 42 73 80 66 43 79 58 35 65 80 59 36 66 23 52 80 73 4 12 45 15 52 22 59 80 12 5 13 45 73 80 66 43 15 45 14 7 80 59 36 66 45 13 6 14 
				</DataArray>
				<DataArray type="Int32" Name="offsets" format="ascii">
					8 16 24 32 40 48 56 64 72 80 88 96 104 112 120 128 136 144 152 160 168 176 184 192 200 208 216 224 232 240 248 256 
				</DataArray>
				<DataArray type="UInt8" Name="types" format="ascii">
					12 12 12 12 12 12 12 12 12 12 12 12 12 12 12 12 12 12 12 12 12 12 12 12 12 12 12 12 12 12 12 12 
				</DataArray>
			</Cells>
			<PointData>
				<DataArray type="Float32" Name="U" NumberOfComponents="3" ComponentName0="D1" ComponentName1="D2" ComponentName2="D3" format="ascii">
					 0.00000000E+00	 0.00000000E+00	 0.00000000E+00
					 0.00000000E+00	 0.00000000E+00	 0.00000000E+00
					 0.00000000E+00	 0.00000000E+00	 0.00000000E+00
					 0.00000000E+00	 0.00000000E+00	 0.00000000E+00
					 5.40290000E+03	 2.51761000E+03	 1.58796000E+02
					 5.77523000E+03	 3.24043000E+03	-5.08196000E+01
					 5.40290000E+03	 2.51761000E+03	-1.58796000E+02
					 5.77523000E+03	 3.24043000E+03	 5.08196000E+01
					 0.00000000E+00	 0.00000000E+00	 0.00000000E+00
					 0.00000000E+00	 0.00000000E+00	 0.00000000E+00
					 0.00000000E+00	 0.00000000E+00	 0.00000000E+00
					 0.00000000E+00	 0.00000000E+00	 0.00000000E+00
					 5.75961000E+03	 2.72972000E+03	 2.69188000E+01
					 5.29924000E+03	 2.96687000E+03	-5.22577000E+01
					 5.75961000E+03	 2.72972000E+03	-2.69188000E+01
					 5.29924000E+03	 2.96687000E+03	 5.22577000E+01
					-2.30956000E+03	-1.11556000E+03	 2.61842000E+02
					-4.55004000E+03	-2.41869000E+03	 1.90661000E+02
					-5.26607000E+03	-2.81113000E+03	-3.49349000E+01
					-4.07887000E+03	-2.17853000E+03	-2.59036000E+02
					-1.42866000E+03	-7.61240000E+02	-3.96125000E+02
					 1.72659000E+03	 9.16911000E+02	-3.78998000E+02
					 4.28896000E+03	 2.27874000E+03	-2.51874000E+02
					 4.19160000E+03	 2.08973000E+03	 7.87032000E+02
					 1.68801000E+03	 8.42007000E+02	 1.18425000E+03
					-1.39317000E+03	-6.92331000E+02	 1.23777000E+03
					-3.97028000E+03	-1.96772000E+03	 8.09411000E+02
					-5.12795000E+03	-2.54300000E+03	 1.09161000E+02
					-4.44501000E+03	-2.21480000E+03	-5.95758000E+02
					-2.41352000E+03	-1.31737000E+03	-8.18178000E+02
					-2.41352000E+03	-1.31737000E+03	 8.18178000E+02
					-4.44501000E+03	-2.21480000E+03	 5.95758000E+02
					-5.12795000E+03	-2.54300000E+03	-1.09161000E+02
					-3.97028000E+03	-1.96772000E+03	-8.09411000E+02
					-1.39317000E+03	-6.92331000E+02	-1.23777000E+03
					 1.68801000E+03	 8.42007000E+02	-1.18425000E+03
					 4.19160000E+03	 2.08973000E+03	-7.87032000E+02
					-2.30956000E+03	-1.11556000E+03	-2.61842000E+02
					-4.55004000E+03	-2.41869000E+03	-1.90661000E+02
					-5.26607000E+03	-2.81113000E+03	 3.49349000E+01
					-4.07887000E+03	-2.17853000E+03	 2.59036000E+02
					-1.42866000E+03	-7.61240000E+02	 3.96125000E+02
					 1.72659000E+03	 9.16911000E+02	 3.78998000E+02
					 4.28896000E+03	 2.27874000E+03	 2.51874000E+02
					 0.00000000E+00	 0.00000000E+00	 0.00000000E+00
					 5.10662000E+03	 2.63050000E+03	 0.00000000E+00
					-2.27938000E+03	-1.22958000E+03	-2.80367000E+02
					-4.56350000E+03	-2.29699000E+03	-2.09122000E+02
					-5.25746000E+03	-2.64236000E+03	 3.74512000E+01
					-4.07338000E+03	-2.04488000E+03	 2.79440000E+02
					-1.43499000E+03	-7.21440000E+02	 4.15851000E+02
					 1.74578000E+03	 8.75936000E+02	 4.31681000E+02
					 4.20730000E+03	 2.14686000E+03	 2.18889000E+02
					-2.38700000E+03	-1.17415000E+03	 5.44280000E+02
					-4.45916000E+03	-2.35073000E+03	 4.05970000E+02
					-5.12963000E+03	-2.70820000E+03	-7.27044000E+01
					-3.96975000E+03	-2.09827000E+03	-5.42480000E+02
					-1.40054000E+03	-7.39187000E+02	-8.07296000E+02
					 1.70046000E+03	 8.99281000E+02	-8.38026000E+02
					 4.16773000E+03	 2.16725000E+03	-4.24932000E+02
					-2.27938000E+03	-1.22958000E+03	 2.80367000E+02
					-4.56350000E+03	-2.29699000E+03	 2.09122000E+02
					-5.25746000E+03	-2.64236000E+03	-3.74512000E+01
					-4.07338000E+03	-2.04488000E+03	-2.79440000E+02
					-1.43499000E+03	-7.21440000E+02	-4.15851000E+02
					 1.74578000E+03	 8.75936000E+02	-4.31681000E+02
					 4.20730000E+03	 2.14686000E+03	-2.18889000E+02
					-2.38700000E+03	-1.17415000E+03	-5.44280000E+02
					-4.45916000E+03	-2.35073000E+03	-4.05970000E+02
					-5.12963000E+03	-2.70820000E+03	 7.27044000E+01
					-3.96975000E+03	-2.09827000E+03	 5.42480000E+02
					-1.40054000E+03	-7.39187000E+02	 8.07296000E+02
					 1.70046000E+03	 8.99281000E+02	 8.38026000E+02
					 4.16773000E+03	 2.16725000E+03	 4.24932000E+02
					-2.30474000E+03	-1.18721000E+03	 0.00000000E+00
					-4.52603000E+03	-2.33143000E+03	 0.00000000E+00
					-5.18977000E+03	-2.67334000E+03	 0.00000000E+00
					-4.02728000E+03	-2.07452000E+03	 0.00000000E+00
					-1.39570000E+03	-7.18950000E+02	 0.00000000E+00
					 1.66491000E+03	 8.57623000E+02	 0.00000000E+00
					 4.36725000E+03	 2.24964000E+03	 0.00000000E+00
					-4.07887000E+03	-2.17853000E+03	-2.59036000E+02
					-3.97028000E+03	-1.96772000E+03	 8.09411000E+02
					-3.97028000E+03	-1.96772000E+03	-8.09411000E+02
					-4.07887000E+03	-2.17853000E+03	 2.59036000E+02
					-4.07338000E+03	-2.04488000E+03	 2.79440000E+02
					-3.96975000E+03	-2.09827000E+03	-5.42480000E+02
					-4.07338000E+03	-2.04488000E+03	-2.79440000E+02
					-3.96975000E+03	-2.09827000E+03	 5.42480000E+02
					-4.02728000E+03	-2.07452000E+03	 0.00000000E+00
				</DataArray>
			</PointData>
		</Piece>
	</UnstructuredGrid>
</VTKFile>