# vtk DataFile Version 3.0

ASCII
DATASET UNSTRUCTURED_GRID

POINTS 261 double
	 0.00000000E+00	 0.00000000E+00	 0.00000000E+00
	 1.00000000E+00	 0.00000000E+00	 0.00000000E+00
	 1.00000000E+00	 1.00000000E+00	 0.00000000E+00
	 0.00000000E+00	 1.00000000E+00	 0.00000000E+00
	 0.00000000E+00	 0.00000000E+00	 8.00000000E+00
	 1.00000000E+00	 0.00000000E+00	 8.00000000E+00
	 1.00000000E+00	 1.00000000E+00	 8.00000000E+00
	 0.00000000E+00	 1.00000000E+00	 8.00000000E+00
	 2.50000000E-01	 0.00000000E+00	 0.00000000E+00
	 5.00000000E-01	 0.00000000E+00	 0.00000000E+00
	 7.50000000E-01	 0.00000000E+00	 0.00000000E+00
	 1.00000000E+00	 2.50000000E-01	 0.00000000E+00
	 1.00000000E+00	 5.00000000E-01	 0.00000000E+00
	 1.00000000E+00	 7.50000000E-01	 0.00000000E+00
	 7.50000000E-01	 1.00000000E+00	 0.00000000E+00
	 5.00000000E-01	 1.00000000E+00	 0.00000000E+00
	 2.50000000E-01	 1.00000000E+00	 0.00000000E+00
	 0.00000000E+00	 7.50000000E-01	 0.00000000E+00
	 0.00000000E+00	 5.00000000E-01	 0.00000000E+00
	 0.00000000E+00	 2.50000000E-01	 0.00000000E+00
	 2.50000000E-01	 0.00000000E+00	 8.00000000E+00
	 5.00000000E-01	 0.00000000E+00	 8.00000000E+00
	 7.50000000E-01	 0.00000000E+00	 8.00000000E+00
	 1.00000000E+00	 2.50000000E-01	 8.00000000E+00
	 1.00000000E+00	 5.00000000E-01	 8.00000000E+00
	 1.00000000E+00	 7.50000000E-01	 8.00000000E+00
	 7.50000000E-01	 1.00000000E+00	 8.00000000E+00
	 5.00000000E-01	 1.00000000E+00	 8.00000000E+00
	 2.50000000E-01	 1.00000000E+00	 8.00000000E+00
	 0.00000000E+00	 7.50000000E-01	 8.00000000E+00
	 0.00000000E+00	 5.00000000E-01	 8.00000000E+00
	 0.00000000E+00	 2.50000000E-01	 8.00000000E+00
	 1.00000000E+00	 0.00000000E+00	 5.00000000E-01
	 1.00000000E+00	 0.00000000E+00	 1.00000000E+00
	 1.00000000E+00	 0.00000000E+00	 1.50000000E+00
	 1.00000000E+00	 0.00000000E+00	 2.00000000E+00
	 1.00000000E+00	 0.00000000E+00	 2.50000000E+00
	 1.00000000E+00	 0.00000000E+00	 3.00000000E+00
	 1.00000000E+00	 0.00000000E+00	 3.50000000E+00
	 1.00000000E+00	 0.00000000E+00	 4.00000000E+00
	 1.00000000E+00	 0.00000000E+00	 4.50000000E+00
	 1.00000000E+00	 0.00000000E+00	 5.00000000E+00
	 1.00000000E+00	 0.00000000E+00	 5.50000000E+00
	 1.00000000E+00	 0.00000000E+00	 6.00000000E+00
	 1.00000000E+00	 0.00000000E+00	 6.50000000E+00
	 1.00000000E+00	 0.00000000E+00	 7.00000000E+00
	 1.00000000E+00	 0.00000000E+00	 7.50000000E+00
	 0.00000000E+00	 0.00000000E+00	 7.50000000E+00
	 0.00000000E+00	 0.00000000E+00	 7.00000000E+00
	 0.00000000E+00	 0.00000000E+00	 6.50000000E+00
	 0.00000000E+00	 0.00000000E+00	 6.00000000E+00
	 0.00000000E+00	 0.00000000E+00	 5.50000000E+00
	 0.00000000E+00	 0.00000000E+00	 5.00000000E+00
	 0.00000000E+00	 0.00000000E+00	 4.50000000E+00
	 0.00000000E+00	 0.00000000E+00	 4.00000000E+00
	 0.00000000E+00	 0.00000000E+00	 3.50000000E+00
	 0.00000000E+00	 0.00000000E+00	 3.00000000E+00
	 0.00000000E+00	 0.00000000E+00	 2.50000000E+00
	 0.00000000E+00	 0.00000000E+00	 2.00000000E+00
	 0.00000000E+00	 0.00000000E+00	 1.50000000E+00
	 0.00000000E+00	 0.00000000E+00	 1.00000000E+00
	 0.00000000E+00	 0.00000000E+00	 5.00000000E-01
	 1.00000000E+00	 1.00000000E+00	 5.00000000E-01
	 1.00000000E+00	 1.00000000E+00	 1.00000000E+00
	 1.00000000E+00	 1.00000000E+00	 1.50000000E+00
	 1.00000000E+00	 1.00000000E+00	 2.00000000E+00
	 1.00000000E+00	 1.00000000E+00	 2.50000000E+00
	 1.00000000E+00	 1.00000000E+00	 3.00000000E+00
	 1.00000000E+00	 1.00000000E+00	 3.50000000E+00
	 1.00000000E+00	 1.00000000E+00	 4.00000000E+00
	 1.00000000E+00	 1.00000000E+00	 4.50000000E+00
	 1.00000000E+00	 1.00000000E+00	 5.00000000E+00
	 1.00000000E+00	 1.00000000E+00	 5.50000000E+00
	 1.00000000E+00	 1.00000000E+00	 6.00000000E+00
	 1.00000000E+00	 1.00000000E+00	 6.50000000E+00
	 1.00000000E+00	 1.00000000E+00	 7.00000000E+00
	 1.00000000E+00	 1.00000000E+00	 7.50000000E+00
	 0.00000000E+00	 1.00000000E+00	 5.00000000E-01
	 0.00000000E+00	 1.00000000E+00	 1.00000000E+00
	 0.00000000E+00	 1.00000000E+00	 1.50000000E+00
	 0.00000000E+00	 1.00000000E+00	 2.00000000E+00
	 0.00000000E+00	 1.00000000E+00	 2.50000000E+00
	 0.00000000E+00	 1.00000000E+00	 3.00000000E+00
	 0.00000000E+00	 1.00000000E+00	 3.50000000E+00
	 0.00000000E+00	 1.00000000E+00	 4.00000000E+00
	 0.00000000E+00	 1.00000000E+00	 4.50000000E+00
	 0.00000000E+00	 1.00000000E+00	 5.00000000E+00
	 0.00000000E+00	 1.00000000E+00	 5.50000000E+00
	 0.00000000E+00	 1.00000000E+00	 6.00000000E+00
	 0.00000000E+00	 1.00000000E+00	 6.50000000E+00
	 0.00000000E+00	 1.00000000E+00	 7.00000000E+00
	 0.00000000E+00	 1.00000000E+00	 7.50000000E+00
	 5.00000000E-01	 2.50000000E-01	 0.00000000E+00
	 2.50000000E-01	 5.00000000E-01	 0.00000000E+00
	 5.00000000E-01	 5.00000000E-01	 0.00000000E+00
	 7.50000000E-01	 5.00000000E-01	 0.00000000E+00
	 5.00000000E-01	 7.50000000E-01	 0.00000000E+00
	 5.00000000E-01	 2.50000000E-01	 8.00000000E+00
	 2.50000000E-01	 5.00000000E-01	 8.00000000E+00
	 5.00000000E-01	 5.00000000E-01	 8.00000000E+00
	 7.50000000E-01	 5.00000000E-01	 8.00000000E+00
	 5.00000000E-01	 7.50000000E-01	 8.00000000E+00
	 5.00000000E-01	 0.00000000E+00	 5.00000000E-01
	 2.50000000E-01	 0.00000000E+00	 1.00000000E+00
	 5.00000000E-01	 0.00000000E+00	 1.00000000E+00
	 7.50000000E-01	 0.00000000E+00	 1.00000000E+00
	 5.00000000E-01	 0.00000000E+00	 1.50000000E+00
	 2.50000000E-01	 0.00000000E+00	 2.00000000E+00
	 5.00000000E-01	 0.00000000E+00	 2.00000000E+00
	 7.50000000E-01	 0.00000000E+00	 2.00000000E+00
	 5.00000000E-01	 0.00000000E+00	 2.50000000E+00
	 2.50000000E-01	 0.00000000E+00	 3.00000000E+00
	 5.00000000E-01	 0.00000000E+00	 3.00000000E+00
	 7.50000000E-01	 0.00000000E+00	 3.00000000E+00
	 5.00000000E-01	 0.00000000E+00	 3.50000000E+00
	 2.50000000E-01	 0.00000000E+00	 4.00000000E+00
	 5.00000000E-01	 0.00000000E+00	 4.00000000E+00
	 7.50000000E-01	 0.00000000E+00	 4.00000000E+00
	 5.00000000E-01	 0.00000000E+00	 4.50000000E+00
	 2.50000000E-01	 0.00000000E+00	 5.00000000E+00
	 5.00000000E-01	 0.00000000E+00	 5.00000000E+00
	 7.50000000E-01	 0.00000000E+00	 5.00000000E+00
	 5.00000000E-01	 0.00000000E+00	 5.50000000E+00
	 2.50000000E-01	 0.00000000E+00	 6.00000000E+00
	 5.00000000E-01	 0.00000000E+00	 6.00000000E+00
	 7.50000000E-01	 0.00000000E+00	 6.00000000E+00
	 5.00000000E-01	 0.00000000E+00	 6.50000000E+00
	 2.50000000E-01	 0.00000000E+00	 7.00000000E+00
	 5.00000000E-01	 0.00000000E+00	 7.00000000E+00
	 7.50000000E-01	 0.00000000E+00	 7.00000000E+00
	 5.00000000E-01	 0.00000000E+00	 7.50000000E+00
	 1.00000000E+00	 5.00000000E-01	 5.00000000E-01
	 1.00000000E+00	 2.50000000E-01	 1.00000000E+00
	 1.00000000E+00	 5.00000000E-01	 1.00000000E+00
	 1.00000000E+00	 7.50000000E-01	 1.00000000E+00
	 1.00000000E+00	 5.00000000E-01	 1.50000000E+00
	 1.00000000E+00	 2.50000000E-01	 2.00000000E+00
	 1.00000000E+00	 5.00000000E-01	 2.00000000E+00
	 1.00000000E+00	 7.50000000E-01	 2.00000000E+00
	 1.00000000E+00	 5.00000000E-01	 2.50000000E+00
	 1.00000000E+00	 2.50000000E-01	 3.00000000E+00
	 1.00000000E+00	 5.00000000E-01	 3.00000000E+00
	 1.00000000E+00	 7.50000000E-01	 3.00000000E+00
	 1.00000000E+00	 5.00000000E-01	 3.50000000E+00
	 1.00000000E+00	 2.50000000E-01	 4.00000000E+00
	 1.00000000E+00	 5.00000000E-01	 4.00000000E+00
	 1.00000000E+00	 7.50000000E-01	 4.00000000E+00
	 1.00000000E+00	 5.00000000E-01	 4.50000000E+00
	 1.00000000E+00	 2.50000000E-01	 5.00000000E+00
	 1.00000000E+00	 5.00000000E-01	 5.00000000E+00
	 1.00000000E+00	 7.50000000E-01	 5.00000000E+00
	 1.00000000E+00	 5.00000000E-01	 5.50000000E+00
	 1.00000000E+00	 2.50000000E-01	 6.00000000E+00
	 1.00000000E+00	 5.00000000E-01	 6.00000000E+00
	 1.00000000E+00	 7.50000000E-01	 6.00000000E+00
	 1.00000000E+00	 5.00000000E-01	 6.50000000E+00
	 1.00000000E+00	 2.50000000E-01	 7.00000000E+00
	 1.00000000E+00	 5.00000000E-01	 7.00000000E+00
	 1.00000000E+00	 7.50000000E-01	 7.00000000E+00
	 1.00000000E+00	 5.00000000E-01	 7.50000000E+00
	 5.00000000E-01	 1.00000000E+00	 5.00000000E-01
	 7.50000000E-01	 1.00000000E+00	 1.00000000E+00
	 5.00000000E-01	 1.00000000E+00	 1.00000000E+00
	 2.50000000E-01	 1.00000000E+00	 1.00000000E+00
	 5.00000000E-01	 1.00000000E+00	 1.50000000E+00
	 7.50000000E-01	 1.00000000E+00	 2.00000000E+00
	 5.00000000E-01	 1.00000000E+00	 2.00000000E+00
	 2.50000000E-01	 1.00000000E+00	 2.00000000E+00
	 5.00000000E-01	 1.00000000E+00	 2.50000000E+00
	 7.50000000E-01	 1.00000000E+00	 3.00000000E+00
	 5.00000000E-01	 1.00000000E+00	 3.00000000E+00
	 2.50000000E-01	 1.00000000E+00	 3.00000000E+00
	 5.00000000E-01	 1.00000000E+00	 3.50000000E+00
	 7.50000000E-01	 1.00000000E+00	 4.00000000E+00
	 5.00000000E-01	 1.00000000E+00	 4.00000000E+00
	 2.50000000E-01	 1.00000000E+00	 4.00000000E+00
	 5.00000000E-01	 1.00000000E+00	 4.50000000E+00
	 7.50000000E-01	 1.00000000E+00	 5.00000000E+00
	 5.00000000E-01	 1.00000000E+00	 5.00000000E+00
	 2.50000000E-01	 1.00000000E+00	 5.00000000E+00
	 5.00000000E-01	 1.00000000E+00	 5.50000000E+00
	 7.50000000E-01	 1.00000000E+00	 6.00000000E+00
	 5.00000000E-01	 1.00000000E+00	 6.00000000E+00
	 2.50000000E-01	 1.00000000E+00	 6.00000000E+00
	 5.00000000E-01	 1.00000000E+00	 6.50000000E+00
	 7.50000000E-01	 1.00000000E+00	 7.00000000E+00
	 5.00000000E-01	 1.00000000E+00	 7.00000000E+00
	 2.50000000E-01	 1.00000000E+00	 7.00000000E+00
	 5.00000000E-01	 1.00000000E+00	 7.50000000E+00
	 0.00000000E+00	 5.00000000E-01	 5.00000000E-01
	 0.00000000E+00	 7.50000000E-01	 1.00000000E+00
	 0.00000000E+00	 5.00000000E-01	 1.00000000E+00
	 0.00000000E+00	 2.50000000E-01	 1.00000000E+00
	 0.00000000E+00	 5.00000000E-01	 1.50000000E+00
	 0.00000000E+00	 7.50000000E-01	 2.00000000E+00
	 0.00000000E+00	 5.00000000E-01	 2.00000000E+00
	 0.00000000E+00	 2.50000000E-01	 2.00000000E+00
	 0.00000000E+00	 5.00000000E-01	 2.50000000E+00
	 0.00000000E+00	 7.50000000E-01	 3.00000000E+00
	 0.00000000E+00	 5.00000000E-01	 3.00000000E+00
	 0.00000000E+00	 2.50000000E-01	 3.00000000E+00
	 0.00000000E+00	 5.00000000E-01	 3.50000000E+00
	 0.00000000E+00	 7.50000000E-01	 4.00000000E+00
	 0.00000000E+00	 5.00000000E-01	 4.00000000E+00
	 0.00000000E+00	 2.50000000E-01	 4.00000000E+00
	 0.00000000E+00	 5.00000000E-01	 4.50000000E+00
	 0.00000000E+00	 7.50000000E-01	 5.00000000E+00
	 0.00000000E+00	 5.00000000E-01	 5.00000000E+00
	 0.00000000E+00	 2.50000000E-01	 5.00000000E+00
	 0.00000000E+00	 5.00000000E-01	 5.50000000E+00
	 0.00000000E+00	 7.50000000E-01	 6.00000000E+00
	 0.00000000E+00	 5.00000000E-01	 6.00000000E+00
	 0.00000000E+00	 2.50000000E-01	 6.00000000E+00
	 0.00000000E+00	 5.00000000E-01	 6.50000000E+00
	 0.00000000E+00	 7.50000000E-01	 7.00000000E+00
	 0.00000000E+00	 5.00000000E-01	 7.00000000E+00
	 0.00000000E+00	 2.50000000E-01	 7.00000000E+00
	 0.00000000E+00	 5.00000000E-01	 7.50000000E+00
	 5.00000000E-01	 5.00000000E-01	 5.00000000E-01
	 5.00000000E-01	 2.50000000E-01	 1.00000000E+00
	 2.50000000E-01	 5.00000000E-01	 1.00000000E+00
	 5.00000000E-01	 5.00000000E-01	 1.00000000E+00
	 7.50000000E-01	 5.00000000E-01	 1.00000000E+00
	 5.00000000E-01	 7.50000000E-01	 1.00000000E+00
	 5.00000000E-01	 5.00000000E-01	 1.50000000E+00
	 5.00000000E-01	 2.50000000E-01	 2.00000000E+00
	 2.50000000E-01	 5.00000000E-01	 2.00000000E+00
	 5.00000000E-01	 5.00000000E-01	 2.00000000E+00
	 7.50000000E-01	 5.00000000E-01	 2.00000000E+00
	 5.00000000E-01	 7.50000000E-01	 2.00000000E+00
	 5.00000000E-01	 5.00000000E-01	 2.50000000E+00
	 5.00000000E-01	 2.50000000E-01	 3.00000000E+00
	 2.50000000E-01	 5.00000000E-01	 3.00000000E+00
	 5.00000000E-01	 5.00000000E-01	 3.00000000E+00
	 7.50000000E-01	 5.00000000E-01	 3.00000000E+00
	 5.00000000E-01	 7.50000000E-01	 3.00000000E+00
	 5.00000000E-01	 5.00000000E-01	 3.50000000E+00
	 5.00000000E-01	 2.50000000E-01	 4.00000000E+00
	 2.50000000E-01	 5.00000000E-01	 4.00000000E+00
	 5.00000000E-01	 5.00000000E-01	 4.00000000E+00
	 7.50000000E-01	 5.00000000E-01	 4.00000000E+00
	 5.00000000E-01	 7.50000000E-01	 4.00000000E+00
	 5.00000000E-01	 5.00000000E-01	 4.50000000E+00
	 5.00000000E-01	 2.50000000E-01	 5.00000000E+00
	 2.50000000E-01	 5.00000000E-01	 5.00000000E+00
	 5.00000000E-01	 5.00000000E-01	 5.00000000E+00
	 7.50000000E-01	 5.00000000E-01	 5.00000000E+00
	 5.00000000E-01	 7.50000000E-01	 5.00000000E+00
	 5.00000000E-01	 5.00000000E-01	 5.50000000E+00
	 5.00000000E-01	 2.50000000E-01	 6.00000000E+00
	 2.50000000E-01	 5.00000000E-01	 6.00000000E+00
	 5.00000000E-01	 5.00000000E-01	 6.00000000E+00
	 7.50000000E-01	 5.00000000E-01	 6.00000000E+00
	 5.00000000E-01	 7.50000000E-01	 6.00000000E+00
	 5.00000000E-01	 5.00000000E-01	 6.50000000E+00
	 5.00000000E-01	 2.50000000E-01	 7.00000000E+00
	 2.50000000E-01	 5.00000000E-01	 7.00000000E+00
	 5.00000000E-01	 5.00000000E-01	 7.00000000E+00
	 7.50000000E-01	 5.00000000E-01	 7.00000000E+00
	 5.00000000E-01	 7.50000000E-01	 7.00000000E+00
	 5.00000000E-01	 5.00000000E-01	 7.50000000E+00

CELLS 32 672
	20 0 9 94 18 60 104 221 191 8 92 93 19 103 219 220 192 61 102 218 189 
	20 9 1 12 94 104 33 133 221 10 11 95 92 105 132 222 219 102 32 131 218 
	20 18 94 15 3 191 221 162 78 93 96 16 17 220 223 163 190 189 218 160 77 
	20 94 12 2 15 221 133 63 162 95 13 14 96 222 134 161 223 218 131 62 160 
	20 60 104 221 191 58 108 227 195 103 219 220 192 107 225 226 196 59 106 224 193 
	20 104 33 133 221 108 35 137 227 105 132 222 219 109 136 228 225 106 34 135 224 
	20 191 221 162 78 195 227 166 80 220 223 163 190 226 229 167 194 193 224 164 79 
	20 221 133 63 162 227 137 65 166 222 134 161 223 228 138 165 229 224 135 64 164 
	20 58 108 227 195 56 112 233 199 107 225 226 196 111 231 232 200 57 110 230 197 
	20 108 35 137 227 112 37 141 233 109 136 228 225 113 140 234 231 110 36 139 230 
	20 195 227 166 80 199 233 170 82 226 229 167 194 232 235 171 198 197 230 168 81 
	20 227 137 65 166 233 141 67 170 228 138 165 229 234 142 169 235 230 139 66 168 
	20 56 112 233 199 54 116 239 203 111 231 232 200 115 237 238 204 55 114 236 201 
	20 112 37 141 233 116 39 145 239 113 140 234 231 117 144 240 237 114 38 143 236 
	20 199 233 170 82 203 239 174 84 232 235 171 198 238 241 175 202 201 236 172 83 
	20 233 141 67 170 239 145 69 174 234 142 169 235 240 146 173 241 236 143 68 172 
	20 54 116 239 203 52 120 245 207 115 237 238 204 119 243 244 208 53 118 242 205 
	20 116 39 145 239 120 41 149 245 117 144 240 237 121 148 246 243 118 40 147 242 
	20 203 239 174 84 207 245 178 86 238 241 175 202 244 247 179 206 205 242 176 85 
	20 239 145 69 174 245 149 71 178 240 146 173 241 246 150 177 247 242 147 70 176 
	20 52 120 245 207 50 124 251 211 119 243 244 208 123 249 250 212 51 122 248 209 
	20 120 41 149 245 124 43 153 251 121 148 246 243 125 152 252 249 122 42 151 248 
	20 207 245 178 86 211 251 182 88 244 247 179 206 250 253 183 210 209 248 180 87 
	20 245 149 71 178 251 153 73 182 246 150 177 247 252 154 181 253 248 151 72 180 
	20 50 124 251 211 48 128 257 215 123 249 250 212 127 255 256 216 49 126 254 213 
	20 124 43 153 251 128 45 157 257 125 152 252 249 129 156 258 255 126 44 155 254 
	20 211 251 182 88 215 257 186 90 250 253 183 210 256 259 187 214 213 254 184 89 
	20 251 153 73 182 257 157 75 186 252 154 181 253 258 158 185 259 254 155 74 184 
	20 48 128 257 215 4 21 99 30 127 255 256 216 20 97 98 31 47 130 260 217 
	20 128 45 157 257 21 5 24 99 129 156 258 255 22 23 100 97 130 46 159 260 
	20 215 257 186 90 30 99 27 7 256 259 187 214 98 101 28 29 217 260 188 91 
	20 257 157 75 186 99 24 6 27 258 158 185 259 100 25 26 101 260 159 76 188 

CELL_TYPES 32
	25
	25
	25
	25
	25
	25
	25
	25
	25
	25
	25
	25
	25
	25
	25
	25
	25
	25
	25
	25
	25
	25
	25
	25
	25
	25
	25
	25
	25
	25
	25
	25

POINT_DATA 261
FIELD U 1
	U 3 261 double
		 0.00000000E+00	 0.00000000E+00	 0.00000000E+00
		 0.00000000E+00	 0.00000000E+00	 0.00000000E+00
		 0.00000000E+00	 0.00000000E+00	 0.00000000E+00
		 0.00000000E+00	 0.00000000E+00	 0.00000000E+00
		 1.74956000E-05	 3.83170000E-02	 3.85118000E-03
		-1.87114000E-05	 3.83163000E-02	 3.85160000E-03
		 1.82167000E-05	 3.82853000E-02	-4.07256000E-03
		-1.73792000E-05	 3.82857000E-02	-4.07259000E-03
		 0.00000000E+00	 0.00000000E+00	 0.00000000E+00
		 0.00000000E+00	 0.00000000E+00	 0.00000000E+00
		 0.00000000E+00	 0.00000000E+00	 0.00000000E+00
		 0.00000000E+00	 0.00000000E+00	 0.00000000E+00
		 0.00000000E+00	 0.00000000E+00	 0.00000000E+00
		 0.00000000E+00	 0.00000000E+00	 0.00000000E+00
		 0.00000000E+00	 0.00000000E+00	 0.00000000E+00
		 0.00000000E+00	 0.00000000E+00	 0.00000000E+00
		 0.00000000E+00	 0.00000000E+00	 0.00000000E+00
		 0.00000000E+00	 0.00000000E+00	 0.00000000E+00
		 0.00000000E+00	 0.00000000E+00	 0.00000000E+00
		 0.00000000E+00	 0.00000000E+00	 0.00000000E+00
		 1.59529000E-05	 3.83311000E-02	 3.84944000E-03
		-4.32789000E-07	 3.82709000E-02	 3.84586000E-03
		-1.69462000E-05	 3.83309000E-02	 3.84953000E-03
		 6.13689000E-07	 3.82922000E-02	 1.85801000E-03
		 5.06728000E-07	 3.82505000E-02	-1.10693000E-04
		-3.85745000E-07	 3.82770000E-02	-2.07879000E-03
		 1.67385000E-05	 3.82997000E-02	-4.07086000E-03
		 3.88724000E-07	 3.82396000E-02	-4.06689000E-03
		-1.59386000E-05	 3.82997000E-02	-4.07081000E-03
		 7.86888000E-07	 3.82776000E-02	-2.07870000E-03
		-3.12558000E-07	 3.82514000E-02	-1.10557000E-04
		-1.05526000E-06	 3.82930000E-02	 1.85779000E-03
		-1.26040000E-04	 2.44756000E-04	 3.84884000E-04
		-8.44624000E-05	 8.27372000E-04	 7.52191000E-04
		-9.46597000E-05	 1.79697000E-03	 1.07950000E-03
		-8.42932000E-05	 3.03575000E-03	 1.37881000E-03
		-8.55345000E-05	 4.57741000E-03	 1.66188000E-03
		-8.35609000E-05	 6.38553000E-03	 1.94137000E-03
		-8.33430000E-05	 8.48136000E-03	 2.21659000E-03
		-8.01525000E-05	 1.08567000E-02	 2.48482000E-03
		-7.66597000E-05	 1.34989000E-02	 2.73756000E-03
		-7.36394000E-05	 1.64014000E-02	 2.98020000E-03
		-7.15852000E-05	 1.95348000E-02	 3.21143000E-03
		-6.59483000E-05	 2.29316000E-02	 3.43567000E-03
		-5.78105000E-05	 2.65465000E-02	 3.62368000E-03
		-3.28667000E-05	 3.04060000E-02	 3.77517000E-03
		-2.48696000E-05	 3.43118000E-02	 3.84211000E-03
		 2.46566000E-05	 3.43120000E-02	 3.84202000E-03
		 3.29112000E-05	 3.04058000E-02	 3.77516000E-03
		 5.81627000E-05	 2.65461000E-02	 3.62355000E-03
		 6.58152000E-05	 2.29318000E-02	 3.43555000E-03
		 7.10947000E-05	 1.95353000E-02	 3.21142000E-03
		 7.30560000E-05	 1.64019000E-02	 2.98017000E-03
		 7.62454000E-05	 1.34993000E-02	 2.73755000E-03
		 7.99722000E-05	 1.08569000E-02	 2.48482000E-03
		 8.34303000E-05	 8.48127000E-03	 2.21659000E-03
		 8.38511000E-05	 6.38523000E-03	 1.94137000E-03
		 8.59653000E-05	 4.57697000E-03	 1.66188000E-03
		 8.47703000E-05	 3.03527000E-03	 1.37880000E-03
		 9.50944000E-05	 1.79653000E-03	 1.07950000E-03
		 8.47802000E-05	 8.27054000E-04	 7.52188000E-04
		 1.26195000E-04	 2.44602000E-04	 3.84883000E-04
		 1.25882000E-04	 2.44093000E-04	-3.84541000E-04
		 8.42525000E-05	 8.25906000E-04	-7.52085000E-04
		 9.44307000E-05	 1.79434000E-03	-1.08066000E-03
		 8.40700000E-05	 3.03159000E-03	-1.38241000E-03
		 8.52907000E-05	 4.57157000E-03	-1.66954000E-03
		 8.33060000E-05	 6.37762000E-03	-1.95487000E-03
		 8.31138000E-05	 8.47115000E-03	-2.23819000E-03
		 7.99371000E-05	 1.08439000E-02	-2.51707000E-03
		 7.65002000E-05	 1.34834000E-02	-2.78319000E-03
		 7.34735000E-05	 1.63830000E-02	-3.04222000E-03
		 7.14570000E-05	 1.95135000E-02	-3.29258000E-03
		 6.56605000E-05	 2.29071000E-02	-3.53941000E-03
		 5.78223000E-05	 2.65191000E-02	-3.75332000E-03
		 3.22807000E-05	 3.03767000E-02	-3.93458000E-03
		 2.50407000E-05	 3.42802000E-02	-4.03179000E-03
		-1.26039000E-04	 2.43941000E-04	-3.84551000E-04
		-8.45663000E-05	 8.25591000E-04	-7.52088000E-04
		-9.48682000E-05	 1.79391000E-03	-1.08066000E-03
		-8.45569000E-05	 3.03111000E-03	-1.38242000E-03
		-8.57449000E-05	 4.57112000E-03	-1.66954000E-03
		-8.36314000E-05	 6.37732000E-03	-1.95487000E-03
		-8.32180000E-05	 8.47105000E-03	-2.23819000E-03
		-7.97599000E-05	 1.08441000E-02	-2.51707000E-03
		-7.60643000E-05	 1.34839000E-02	-2.78319000E-03
		-7.29149000E-05	 1.63835000E-02	-3.04221000E-03
		-7.09773000E-05	 1.95140000E-02	-3.29267000E-03
		-6.56294000E-05	 2.29072000E-02	-3.53951000E-03
		-5.81231000E-05	 2.65188000E-02	-3.75305000E-03
		-3.25247000E-05	 3.03759000E-02	-3.93385000E-03
		-2.45682000E-05	 3.42808000E-02	-4.03148000E-03
		 0.00000000E+00	 0.00000000E+00	 0.00000000E+00
		 0.00000000E+00	 0.00000000E+00	 0.00000000E+00
		 0.00000000E+00	 0.00000000E+00	 0.00000000E+00
		 0.00000000E+00	 0.00000000E+00	 0.00000000E+00
		 0.00000000E+00	 0.00000000E+00	 0.00000000E+00
		-2.16147000E-07	 3.84086000E-02	 1.88481000E-03
		-5.99247000E-08	 3.83486000E-02	-1.10503000E-04
		 3.90667000E-08	 3.85742000E-02	-1.10742000E-04
		 1.67390000E-07	 3.83481000E-02	-1.10511000E-04
		 2.45415000E-07	 3.83925000E-02	-2.10674000E-03
		 8.15853000E-08	 2.98472000E-04	 3.74859000E-04
		 4.20114000E-05	 8.69063000E-04	 7.58319000E-04
		 1.58026000E-07	 8.78136000E-04	 7.63492000E-04
		-4.16945000E-05	 8.69222000E-04	 7.58349000E-04
		 2.14442000E-07	 1.84168000E-03	 1.07965000E-03
		 4.25015000E-05	 3.06771000E-03	 1.38033000E-03
		 2.37337000E-07	 3.08074000E-03	 1.38095000E-03
		-4.20252000E-05	 3.06795000E-03	 1.38033000E-03
		 2.11846000E-07	 4.61946000E-03	 1.66189000E-03
		 4.19697000E-05	 6.41677000E-03	 1.94128000E-03
		 1.45591000E-07	 6.42665000E-03	 1.94132000E-03
		-4.16792000E-05	 6.41692000E-03	 1.94125000E-03
		 4.01706000E-08	 8.52406000E-03	 2.21704000E-03
		 3.99971000E-05	 1.08847000E-02	 2.48503000E-03
		-8.23334000E-08	 1.08924000E-02	 2.48424000E-03
		-4.01690000E-05	 1.08846000E-02	 2.48499000E-03
		-2.10467000E-07	 1.35405000E-02	 2.73905000E-03
		 3.62122000E-05	 1.64225000E-02	 2.97920000E-03
		-2.78926000E-07	 1.64260000E-02	 2.97776000E-03
		-3.67842000E-05	 1.64222000E-02	 2.97920000E-03
		-2.34532000E-07	 1.95798000E-02	 3.21285000E-03
		 3.34347000E-05	 2.29460000E-02	 3.43216000E-03
		 1.22370000E-08	 2.29382000E-02	 3.42782000E-03
		-3.34846000E-05	 2.29460000E-02	 3.43231000E-03
		 1.09549000E-07	 2.65919000E-02	 3.63636000E-03
		 1.52780000E-05	 3.03795000E-02	 3.77394000E-03
		 5.71667000E-08	 3.03612000E-02	 3.76710000E-03
		-1.52103000E-05	 3.03796000E-02	 3.77399000E-03
		-1.55107000E-07	 3.43750000E-02	 3.84955000E-03
		-5.16397000E-08	 1.67441000E-04	 1.81376000E-07
		-4.26679000E-05	 7.98589000E-04	 3.69533000E-04
		-4.50859000E-08	 8.04243000E-04	 1.21446000E-07
		 4.25320000E-05	 7.97854000E-04	-3.69330000E-04
		-6.29746000E-08	 1.73815000E-03	-4.44103000E-07
		-4.21365000E-05	 3.00960000E-03	 6.86324000E-04
		-8.25008000E-08	 3.00252000E-03	-1.70188000E-06
		 4.19486000E-05	 3.00753000E-03	-6.89755000E-04
		-9.20291000E-08	 4.52827000E-03	-3.67095000E-06
		-4.18449000E-05	 6.35328000E-03	 9.67212000E-04
		-9.29800000E-08	 6.34286000E-03	-6.59397000E-06
		 4.16301000E-05	 6.34932000E-03	-9.80478000E-04
		-8.83924000E-08	 8.43495000E-03	-1.06084000E-05
		-4.00895000E-05	 1.08228000E-02	 1.23237000E-03
		-6.99114000E-08	 1.08087000E-02	-1.58993000E-05
		 3.99153000E-05	 1.08164000E-02	-1.26430000E-03
		-6.07391000E-08	 1.34544000E-02	-2.26069000E-05
		-3.69587000E-05	 1.63643000E-02	 1.47374000E-03
		-3.11986000E-08	 1.63460000E-02	-3.07182000E-05
		 3.68477000E-05	 1.63552000E-02	-1.53534000E-03
		-5.48983000E-08	 1.94967000E-02	-4.04280000E-05
		-3.24624000E-05	 2.28917000E-02	 1.68829000E-03
		 1.08586000E-08	 2.28681000E-02	-5.16154000E-05
		 3.23213000E-05	 2.28795000E-02	-1.79167000E-03
		-1.30634000E-07	 2.65165000E-02	-6.45724000E-05
		-1.83001000E-05	 3.03471000E-02	 1.83894000E-03
		 2.60503000E-07	 3.03022000E-02	-7.84653000E-05
		 1.82260000E-05	 3.03325000E-02	-1.99720000E-03
		-2.61771000E-07	 3.43505000E-02	-9.46986000E-05
		-8.05375000E-08	 2.97816000E-04	-3.74630000E-04
		 4.16091000E-05	 8.67704000E-04	-7.58390000E-04
		-1.58628000E-07	 8.76630000E-04	-7.63574000E-04
		-4.19247000E-05	 8.67546000E-04	-7.58362000E-04
		-2.13792000E-07	 1.83901000E-03	-1.08102000E-03
		 4.19180000E-05	 3.06377000E-03	-1.38413000E-03
		-2.41728000E-07	 3.07657000E-03	-1.38482000E-03
		-4.24042000E-05	 3.06353000E-03	-1.38413000E-03
		-2.24194000E-07	 4.61359000E-03	-1.66983000E-03
		 4.15539000E-05	 6.40900000E-03	-1.95499000E-03
		-1.58885000E-07	 6.41874000E-03	-1.95514000E-03
		-4.18761000E-05	 6.40885000E-03	-1.95502000E-03
		-5.24025000E-08	 8.51382000E-03	-2.23902000E-03
		 4.00716000E-05	 1.08718000E-02	-2.51750000E-03
		 8.97291000E-08	 1.08796000E-02	-2.51683000E-03
		-3.98949000E-05	 1.08719000E-02	-2.51755000E-03
		 2.13732000E-07	 1.35250000E-02	-2.78514000E-03
		 3.67121000E-05	 1.64039000E-02	-3.04145000E-03
		 2.85770000E-07	 1.64077000E-02	-3.04004000E-03
		-3.61404000E-05	 1.64041000E-02	-3.04146000E-03
		 2.09315000E-07	 1.95584000E-02	-3.29466000E-03
		 3.33489000E-05	 2.29215000E-02	-3.53633000E-03
		-9.07697000E-09	 2.29139000E-02	-3.53172000E-03
		-3.33584000E-05	 2.29215000E-02	-3.53622000E-03
		-1.50478000E-07	 2.65643000E-02	-3.76678000E-03
		 1.48714000E-05	 3.03500000E-02	-3.93269000E-03
		-3.80758000E-08	 3.03316000E-02	-3.92549000E-03
		-1.50325000E-05	 3.03497000E-02	-3.93251000E-03
		 1.39888000E-07	 3.43437000E-02	-4.03930000E-03
		 5.19062000E-08	 1.67281000E-04	 1.82943000E-07
		-4.26892000E-05	 7.97538000E-04	-3.69361000E-04
		 4.50188000E-08	 8.03926000E-04	 1.23168000E-07
		 4.28270000E-05	 7.98271000E-04	 3.69560000E-04
		 6.23499000E-08	 1.73772000E-03	-4.44147000E-07
		-4.21932000E-05	 3.00705000E-03	-6.89759000E-04
		 7.72954000E-08	 3.00204000E-03	-1.70187000E-06
		 4.23717000E-05	 3.00912000E-03	 6.86319000E-04
		 8.04283000E-08	 4.52784000E-03	-3.67398000E-06
		-4.17977000E-05	 6.34901000E-03	-9.80451000E-04
		 8.04832000E-08	 6.34255000E-03	-6.59318000E-06
		 4.19838000E-05	 6.35298000E-03	 9.67187000E-04
		 7.70195000E-08	 8.43486000E-03	-1.06058000E-05
		-3.98285000E-05	 1.08166000E-02	-1.26425000E-03
		 7.51426000E-08	 1.08089000E-02	-1.58972000E-05
		 4.00025000E-05	 1.08229000E-02	 1.23233000E-03
		 6.13086000E-08	 1.34548000E-02	-2.26099000E-05
		-3.65573000E-05	 1.63557000E-02	-1.53534000E-03
		 4.04648000E-08	 1.63466000E-02	-3.07205000E-05
		 3.66644000E-05	 1.63649000E-02	 1.47371000E-03
		 2.77689000E-08	 1.94972000E-02	-4.04367000E-05
		-3.23504000E-05	 2.28796000E-02	-1.79171000E-03
		-4.62131000E-09	 2.28682000E-02	-5.15486000E-05
		 3.24348000E-05	 2.28918000E-02	 1.68832000E-03
		 1.17561000E-07	 2.65161000E-02	-6.46501000E-05
		-1.82139000E-05	 3.03322000E-02	-1.99712000E-03
		-1.03935000E-07	 3.03022000E-02	-7.88431000E-05
		 1.83145000E-05	 3.03470000E-02	 1.83892000E-03
		 2.03817000E-07	 3.43505000E-02	-9.48847000E-05
		 0.00000000E+00	 2.20405000E-04	 1.19776000E-07
		 7.90895000E-08	 8.47105000E-04	 3.75041000E-04
		 2.00383000E-08	 8.44617000E-04	 6.17321000E-08
		 0.00000000E+00	 8.51546000E-04	 4.75161000E-08
		-2.01520000E-08	 8.44776000E-04	 6.18011000E-08
		-7.96503000E-08	 8.46343000E-04	-3.75009000E-04
		 0.00000000E+00	 1.78469000E-03	-5.52641000E-07
		 1.16987000E-07	 3.05380000E-03	 6.87880000E-04
		 3.60997000E-08	 3.03345000E-03	-1.79552000E-06
		-2.93767000E-09	 3.04562000E-03	-1.82546000E-06
		-4.13628000E-08	 3.03369000E-03	-1.79535000E-06
		-1.22401000E-07	 3.05172000E-03	-6.91568000E-04
		-5.37334000E-09	 4.57065000E-03	-3.81562000E-06
		 6.87927000E-08	 6.39544000E-03	 9.67089000E-04
		 3.42870000E-08	 6.37527000E-03	-6.71879000E-06
		-8.47263000E-09	 6.38607000E-03	-6.76234000E-06
		-4.91220000E-08	 6.37542000E-03	-6.71954000E-06
		-8.37703000E-08	 6.39148000E-03	-9.80680000E-04
		-4.41142000E-09	 8.47527000E-03	-1.07820000E-05
		-4.26722000E-08	 1.08629000E-02	 1.23251000E-03
		 3.49971000E-08	 1.08409000E-02	-1.60581000E-05
		-2.86254000E-09	 1.08535000E-02	-1.61210000E-05
		-3.50536000E-08	 1.08408000E-02	-1.60594000E-05
		 4.38770000E-08	 1.08565000E-02	-1.26482000E-03
		 3.90922000E-09	 1.34894000E-02	-2.27862000E-05
		-1.41154000E-07	 1.64017000E-02	 1.47236000E-03
		 1.39219000E-08	 1.63810000E-02	-3.09256000E-05
		-7.58982000E-09	 1.63951000E-02	-3.10201000E-05
		-1.70785000E-08	 1.63808000E-02	-3.09272000E-05
		 1.37384000E-07	 1.63926000E-02	-1.53441000E-03
		-3.09841000E-09	 1.95240000E-02	-4.06043000E-05
		-1.47765000E-08	 2.29273000E-02	 1.68644000E-03
		-1.59306000E-08	 2.29069000E-02	-5.18750000E-05
		-3.32612000E-08	 2.29363000E-02	-5.20956000E-05
		-1.35251000E-08	 2.29068000E-02	-5.18907000E-05
		-2.03176000E-08	 2.29152000E-02	-1.79033000E-03
		-1.85644000E-09	 2.65194000E-02	-6.46747000E-05
		 7.30826000E-08	 3.03861000E-02	 1.82949000E-03
		-4.81468000E-08	 3.03782000E-02	-7.93389000E-05
		 2.07076000E-08	 3.04127000E-02	-7.96989000E-05
		 1.63065000E-07	 3.03782000E-02	-7.92533000E-05
		 0.00000000E+00	 3.03715000E-02	-1.98821000E-03
		-2.47226000E-08	 3.42994000E-02	-9.42887000E-05
