    1C
    1UModel: beam     Date: 10-Mar-1998                                 
    1UUSER                                                              
    1UDATE              10.august.2019                                  
    1UTIME              19:17:23                                        
    1UHOST                                                              
    1UPGM               CalculiX                                        
    1UVERSION           Version 2.15                             
    1UCOMPILETIME       Fri 15 Mar 11:57:46 CET 2019                    
    1UDIR                                                               
    1UDBN                                                               
    1UMAT    1EL                                                        
    2C                           111                                     1
 -1        34 1.00000E+00 0.00000E+00 1.00000E+00
 -1        35 1.00000E+00 0.00000E+00 1.50000E+00
 -1        36 1.00000E+00 0.00000E+00 2.00000E+00
 -1        37 1.00000E+00 0.00000E+00 2.50000E+00
 -1        38 1.00000E+00 0.00000E+00 3.00000E+00
 -1        39 1.00000E+00 0.00000E+00 3.50000E+00
 -1        40 1.00000E+00 0.00000E+00 4.00000E+00
 -1        55 0.00000E+00 0.00000E+00 4.00000E+00
 -1        56 0.00000E+00 0.00000E+00 3.50000E+00
 -1        57 0.00000E+00 0.00000E+00 3.00000E+00
 -1        58 0.00000E+00 0.00000E+00 2.50000E+00
 -1        59 0.00000E+00 0.00000E+00 2.00000E+00
 -1        60 0.00000E+00 0.00000E+00 1.50000E+00
 -1        61 0.00000E+00 0.00000E+00 1.00000E+00
 -1        64 1.00000E+00 1.50000E+00 1.00000E+00
 -1        65 1.00000E+00 1.50000E+00 1.50000E+00
 -1        66 1.00000E+00 1.50000E+00 2.00000E+00
 -1        67 1.00000E+00 1.50000E+00 2.50000E+00
 -1        68 1.00000E+00 1.50000E+00 3.00000E+00
 -1        69 1.00000E+00 1.50000E+00 3.50000E+00
 -1        70 1.00000E+00 1.50000E+00 4.00000E+00
 -1        79 0.00000E+00 1.50000E+00 1.00000E+00
 -1        80 0.00000E+00 1.50000E+00 1.50000E+00
 -1        81 0.00000E+00 1.50000E+00 2.00000E+00
 -1        82 0.00000E+00 1.50000E+00 2.50000E+00
 -1        83 0.00000E+00 1.50000E+00 3.00000E+00
 -1        84 0.00000E+00 1.50000E+00 3.50000E+00
 -1        85 0.00000E+00 1.50000E+00 4.00000E+00
 -1       104 2.50000E-01 0.00000E+00 1.00000E+00
 -1       105 5.00000E-01 0.00000E+00 1.00000E+00
 -1       106 7.50000E-01 0.00000E+00 1.00000E+00
 -1       107 5.00000E-01 0.00000E+00 1.50000E+00
 -1       108 2.50000E-01 0.00000E+00 2.00000E+00
 -1       109 5.00000E-01 0.00000E+00 2.00000E+00
 -1       110 7.50000E-01 0.00000E+00 2.00000E+00
 -1       111 5.00000E-01 0.00000E+00 2.50000E+00
 -1       112 2.50000E-01 0.00000E+00 3.00000E+00
 -1       113 5.00000E-01 0.00000E+00 3.00000E+00
 -1       114 7.50000E-01 0.00000E+00 3.00000E+00
 -1       115 5.00000E-01 0.00000E+00 3.50000E+00
 -1       116 2.50000E-01 0.00000E+00 4.00000E+00
 -1       117 5.00000E-01 0.00000E+00 4.00000E+00
 -1       118 7.50000E-01 0.00000E+00 4.00000E+00
 -1       133 1.00000E+00 3.75000E-01 1.00000E+00
 -1       134 1.00000E+00 7.50000E-01 1.00000E+00
 -1       135 1.00000E+00 1.12500E+00 1.00000E+00
 -1       136 1.00000E+00 7.50000E-01 1.50000E+00
 -1       137 1.00000E+00 3.75000E-01 2.00000E+00
 -1       138 1.00000E+00 7.50000E-01 2.00000E+00
 -1       139 1.00000E+00 1.12500E+00 2.00000E+00
 -1       140 1.00000E+00 7.50000E-01 2.50000E+00
 -1       141 1.00000E+00 3.75000E-01 3.00000E+00
 -1       142 1.00000E+00 7.50000E-01 3.00000E+00
 -1       143 1.00000E+00 1.12500E+00 3.00000E+00
 -1       144 1.00000E+00 7.50000E-01 3.50000E+00
 -1       145 1.00000E+00 3.75000E-01 4.00000E+00
 -1       146 1.00000E+00 7.50000E-01 4.00000E+00
 -1       147 1.00000E+00 1.12500E+00 4.00000E+00
 -1       162 7.50000E-01 1.50000E+00 1.00000E+00
 -1       163 5.00000E-01 1.50000E+00 1.00000E+00
 -1       164 2.50000E-01 1.50000E+00 1.00000E+00
 -1       165 5.00000E-01 1.50000E+00 1.50000E+00
 -1       166 7.50000E-01 1.50000E+00 2.00000E+00
 -1       167 5.00000E-01 1.50000E+00 2.00000E+00
 -1       168 2.50000E-01 1.50000E+00 2.00000E+00
 -1       169 5.00000E-01 1.50000E+00 2.50000E+00
 -1       170 7.50000E-01 1.50000E+00 3.00000E+00
 -1       171 5.00000E-01 1.50000E+00 3.00000E+00
 -1       172 2.50000E-01 1.50000E+00 3.00000E+00
 -1       173 5.00000E-01 1.50000E+00 3.50000E+00
 -1       174 7.50000E-01 1.50000E+00 4.00000E+00
 -1       175 5.00000E-01 1.50000E+00 4.00000E+00
 -1       176 2.50000E-01 1.50000E+00 4.00000E+00
 -1       191 0.00000E+00 1.12500E+00 1.00000E+00
 -1       192 0.00000E+00 7.50000E-01 1.00000E+00
 -1       193 0.00000E+00 3.75000E-01 1.00000E+00
 -1       194 0.00000E+00 7.50000E-01 1.50000E+00
 -1       195 0.00000E+00 1.12500E+00 2.00000E+00
 -1       196 0.00000E+00 7.50000E-01 2.00000E+00
 -1       197 0.00000E+00 3.75000E-01 2.00000E+00
 -1       198 0.00000E+00 7.50000E-01 2.50000E+00
 -1       199 0.00000E+00 1.12500E+00 3.00000E+00
 -1       200 0.00000E+00 7.50000E-01 3.00000E+00
 -1       201 0.00000E+00 3.75000E-01 3.00000E+00
 -1       202 0.00000E+00 7.50000E-01 3.50000E+00
 -1       203 0.00000E+00 1.12500E+00 4.00000E+00
 -1       204 0.00000E+00 7.50000E-01 4.00000E+00
 -1       205 0.00000E+00 3.75000E-01 4.00000E+00
 -1       220 5.00000E-01 3.75000E-01 1.00000E+00
 -1       221 2.50000E-01 7.50000E-01 1.00000E+00
 -1       222 5.00000E-01 7.50000E-01 1.00000E+00
 -1       223 7.50000E-01 7.50000E-01 1.00000E+00
 -1       224 5.00000E-01 1.12500E+00 1.00000E+00
 -1       225 5.00000E-01 7.50000E-01 1.50000E+00
 -1       226 5.00000E-01 3.75000E-01 2.00000E+00
 -1       227 2.50000E-01 7.50000E-01 2.00000E+00
 -1       228 5.00000E-01 7.50000E-01 2.00000E+00
 -1       229 7.50000E-01 7.50000E-01 2.00000E+00
 -1       230 5.00000E-01 1.12500E+00 2.00000E+00
 -1       231 5.00000E-01 7.50000E-01 2.50000E+00
 -1       232 5.00000E-01 3.75000E-01 3.00000E+00
 -1       233 2.50000E-01 7.50000E-01 3.00000E+00
 -1       234 5.00000E-01 7.50000E-01 3.00000E+00
 -1       235 7.50000E-01 7.50000E-01 3.00000E+00
 -1       236 5.00000E-01 1.12500E+00 3.00000E+00
 -1       237 5.00000E-01 7.50000E-01 3.50000E+00
 -1       238 5.00000E-01 3.75000E-01 4.00000E+00
 -1       239 2.50000E-01 7.50000E-01 4.00000E+00
 -1       240 5.00000E-01 7.50000E-01 4.00000E+00
 -1       241 7.50000E-01 7.50000E-01 4.00000E+00
 -1       242 5.00000E-01 1.12500E+00 4.00000E+00
 -3
    3C                            12                                     1
 -1         5    4    0    1
 -2        61       105       222       192        59       109       228       196       104       220
 -2       221       193        60       107       225       194       108       226       227       197
 -1         6    4    0    1
 -2       105        34       134       222       109        36       138       228       106       133
 -2       223       220       107        35       136       225       110       137       229       226
 -1         7    4    0    1
 -2       192       222       163        79       196       228       167        81       221       224
 -2       164       191       194       225       165        80       227       230       168       195
 -1         8    4    0    1
 -2       222       134        64       163       228       138        66       167       223       135
 -2       162       224       225       136        65       165       229       139       166       230
 -1         9    4    0    1
 -2        59       109       228       196        57       113       234       200       108       226
 -2       227       197        58       111       231       198       112       232       233       201
 -1        10    4    0    1
 -2       109        36       138       228       113        38       142       234       110       137
 -2       229       226       111        37       140       231       114       141       235       232
 -1        11    4    0    1
 -2       196       228       167        81       200       234       171        83       227       230
 -2       168       195       198       231       169        82       233       236       172       199
 -1        12    4    0    1
 -2       228       138        66       167       234       142        68       171       229       139
 -2       166       230       231       140        67       169       235       143       170       236
 -1        13    4    0    1
 -2        57       113       234       200        55       117       240       204       112       232
 -2       233       201        56       115       237       202       116       238       239       205
 -1        14    4    0    1
 -2       113        38       142       234       117        40       146       240       114       141
 -2       235       232       115        39       144       237       118       145       241       238
 -1        15    4    0    1
 -2       200       234       171        83       204       240       175        85       233       236
 -2       172       199       202       237       173        84       239       242       176       203
 -1        16    4    0    1
 -2       234       142        68       171       240       146        70       175       235       143
 -2       170       236       237       144        69       173       241       147       174       242
 -3
    1PSTEP                         1           1           1          
  100CL  101 1.000000000         111                     0    1           1
 -4  DISP        4    1
 -5  D1          1    2    1    0
 -5  D2          1    2    2    0
 -5  D3          1    2    3    0
 -5  ALL         1    2    0    0    1ALL
 -1        34-3.36664E+03-2.27011E+03 4.03404E+02
 -1        35-4.98786E+03-3.32197E+03 3.55207E+02
 -1        36-6.06967E+03-4.04759E+03 2.33188E+02
 -1        37-6.64203E+03-4.41157E+03 7.64882E+01
 -1        38-6.61592E+03-4.40111E+03-8.42072E+01
 -1        39-6.02832E+03-4.00800E+03-2.41479E+02
 -1        40-4.89287E+03-3.25287E+03-3.69191E+02
 -1        55-4.89287E+03 3.25287E+03 3.69191E+02
 -1        56-6.02832E+03 4.00800E+03 2.41479E+02
 -1        57-6.61592E+03 4.40111E+03 8.42072E+01
 -1        58-6.64203E+03 4.41157E+03-7.64882E+01
 -1        59-6.06967E+03 4.04759E+03-2.33188E+02
 -1        60-4.98786E+03 3.32197E+03-3.55207E+02
 -1        61-3.36664E+03 2.27011E+03-4.03404E+02
 -1        64 3.36664E+03-2.27011E+03-4.03404E+02
 -1        65 4.98786E+03-3.32197E+03-3.55207E+02
 -1        66 6.06967E+03-4.04759E+03-2.33188E+02
 -1        67 6.64203E+03-4.41157E+03-7.64882E+01
 -1        68 6.61592E+03-4.40111E+03 8.42072E+01
 -1        69 6.02832E+03-4.00800E+03 2.41479E+02
 -1        70 4.89287E+03-3.25287E+03 3.69191E+02
 -1        79 3.36664E+03 2.27011E+03 4.03404E+02
 -1        80 4.98786E+03 3.32197E+03 3.55207E+02
 -1        81 6.06967E+03 4.04759E+03 2.33188E+02
 -1        82 6.64203E+03 4.41157E+03 7.64882E+01
 -1        83 6.61592E+03 4.40111E+03-8.42072E+01
 -1        84 6.02832E+03 4.00800E+03-2.41479E+02
 -1        85 4.89287E+03 3.25287E+03-3.69191E+02
 -1       104-3.39104E+03 1.13775E+03 3.68136E+01
 -1       105-3.42665E+03-1.41979E-11-6.84748E-12
 -1       106-3.39104E+03-1.13775E+03-3.68136E+01
 -1       107-4.94943E+03-1.68478E-11-1.23594E-12
 -1       108-6.09048E+03 2.01691E+03-4.58481E+01
 -1       109-6.08618E+03-2.11416E-11 1.58886E-12
 -1       110-6.09048E+03-2.01691E+03 4.58481E+01
 -1       111-6.63329E+03-2.04475E-11-4.54692E-12
 -1       112-6.63051E+03 2.19522E+03 1.45417E+01
 -1       113-6.62619E+03-1.49909E-11 8.92297E-12
 -1       114-6.63051E+03-2.19522E+03-1.45417E+01
 -1       115-6.01983E+03-1.23859E-11 1.04642E-11
 -1       116-4.90252E+03 1.62200E+03 4.65269E+01
 -1       117-4.89609E+03-6.91177E-13 5.69450E-12
 -1       118-4.90252E+03-1.62200E+03-4.65269E+01
 -1       133-1.68672E+03-2.24649E+03 6.02826E+02
 -1       134 1.85872E-12-2.21964E+03 6.02318E-12
 -1       135 1.68672E+03-2.24649E+03-6.02826E+02
 -1       136-9.82675E-12-3.24285E+03 3.94631E-12
 -1       137-3.03308E+03-4.00590E+03 2.67053E+02
 -1       138-5.34780E-12-3.97666E+03-6.98125E-12
 -1       139 3.03308E+03-4.00590E+03-2.67053E+02
 -1       140 6.67967E-12-4.34215E+03-1.83459E-11
 -1       141-3.31153E+03-4.35859E+03-9.99208E+01
 -1       142 2.72834E-11-4.33153E+03-1.97640E-11
 -1       143 3.31153E+03-4.35859E+03 9.99208E+01
 -1       144 4.92323E-11-3.93579E+03-1.71029E-11
 -1       145-2.44768E+03-3.22230E+03-4.55483E+02
 -1       146 6.30484E-11-3.20229E+03-1.44145E-11
 -1       147 2.44768E+03-3.22230E+03 4.55483E+02
 -1       162 3.39104E+03-1.13775E+03 3.68136E+01
 -1       163 3.42665E+03-8.62728E-12 4.51690E-12
 -1       164 3.39104E+03 1.13775E+03-3.68136E+01
 -1       165 4.94943E+03-1.38263E-11 2.31678E-12
 -1       166 6.09048E+03-2.01691E+03-4.58481E+01
 -1       167 6.08618E+03-1.34192E-11-6.14185E-12
 -1       168 6.09048E+03 2.01691E+03 4.58481E+01
 -1       169 6.63329E+03-1.93429E-11-3.72269E-12
 -1       170 6.63051E+03-2.19522E+03 1.45417E+01
 -1       171 6.62619E+03-1.12111E-12-8.41138E-12
 -1       172 6.63051E+03 2.19522E+03-1.45417E+01
 -1       173 6.01983E+03 7.05456E-12-1.63759E-11
 -1       174 4.90252E+03-1.62200E+03 4.65269E+01
 -1       175 4.89609E+03 6.64162E-12-2.22928E-11
 -1       176 4.90252E+03 1.62200E+03-4.65269E+01
 -1       191 1.68672E+03 2.24649E+03 6.02826E+02
 -1       192-2.67106E-13 2.21964E+03-2.84440E-12
 -1       193-1.68672E+03 2.24649E+03-6.02826E+02
 -1       194-9.48570E-12 3.24285E+03-5.65162E-12
 -1       195 3.03308E+03 4.00590E+03 2.67053E+02
 -1       196-2.38290E-12 3.97666E+03 5.92221E-12
 -1       197-3.03308E+03 4.00590E+03-2.67053E+02
 -1       198 5.65649E-12 4.34215E+03 1.41964E-11
 -1       199 3.31153E+03 4.35859E+03-9.99208E+01
 -1       200 3.65204E-11 4.33153E+03 1.31702E-11
 -1       201-3.31153E+03 4.35859E+03 9.99208E+01
 -1       202 4.22974E-11 3.93579E+03 6.41636E-12
 -1       203 2.44768E+03 3.22230E+03-4.55483E+02
 -1       204 5.57511E-11 3.20229E+03-4.62811E-12
 -1       205-2.44768E+03 3.22230E+03 4.55483E+02
 -1       220-1.71017E+03-1.17218E-11 2.69884E-13
 -1       221 8.70389E-13 1.11596E+03-2.00387E-12
 -1       222 7.46548E-12-1.41431E-11 2.84217E-12
 -1       223 4.35920E-12-1.11596E+03 2.42991E-12
 -1       224 1.71017E+03-1.41988E-11 3.19021E-12
 -1       225-2.78634E-12-1.77335E-12 2.29773E-13
 -1       226-3.02990E+03-8.05007E-12 1.47664E-12
 -1       227-1.66668E-12 1.95271E+03 2.83857E-12
 -1       228-2.72637E-12-9.38976E-13 3.08861E-13
 -1       229-4.22739E-12-1.95271E+03-3.09287E-12
 -1       230 3.02990E+03-5.53751E-12-2.48506E-12
 -1       231-1.74549E-12 2.39651E-13 1.36257E-12
 -1       232-3.29669E+03-1.01217E-11-4.45537E-14
 -1       233 1.56963E-11 2.12824E+03 2.13163E-12
 -1       234 4.10131E-12-5.51936E-12-3.48500E-12
 -1       235 1.44147E-11-2.12824E+03-8.07532E-12
 -1       236 3.29669E+03 1.17640E-12-2.59596E-12
 -1       237 2.55098E-11 1.34498E-12-7.57390E-12
 -1       238-2.45773E+03-8.59223E-13-2.62476E-12
 -1       239 7.41698E-11 1.58962E+03-1.04919E-11
 -1       240 6.61192E-11-1.75204E-13-9.89075E-12
 -1       241 6.38510E-11-1.58962E+03-1.49171E-11
 -1       242 2.45773E+03-1.43748E-11-1.38798E-11
 -3
 9999
