    1C
    1UModel: beam     Date: 10-Mar-1998                                 
    1UUSER                                                              
    1UDATE              01.august.2019                                  
    1UTIME              09:27:22                                        
    1UHOST                                                              
    1UPGM               CalculiX                                        
    1UVERSION           Version 2.15                             
    1UCOMPILETIME       Fri 15 Mar 11:57:46 CET 2019                    
    1UDIR                                                               
    1UDBN                                                               
    1UMAT    1EL                                                        
    2C                            90                                     1
 -1         1 0.00000E+00 0.00000E+00 0.00000E+00
 -1         2 1.00000E+00 0.00000E+00 0.00000E+00
 -1         3 1.00000E+00 1.00000E+00 0.00000E+00
 -1         4 0.00000E+00 1.00000E+00 0.00000E+00
 -1         5 0.00000E+00 0.00000E+00 8.00000E+00
 -1         6 1.00000E+00 0.00000E+00 8.00000E+00
 -1         7 1.00000E+00 1.00000E+00 8.00000E+00
 -1         8 0.00000E+00 1.00000E+00 8.00000E+00
 -1        10 5.00000E-01 0.00000E+00 0.00000E+00
 -1        13 1.00000E+00 5.00000E-01 0.00000E+00
 -1        16 5.00000E-01 1.00000E+00 0.00000E+00
 -1        19 0.00000E+00 5.00000E-01 0.00000E+00
 -1        22 5.00000E-01 0.00000E+00 8.00000E+00
 -1        25 1.00000E+00 5.00000E-01 8.00000E+00
 -1        28 5.00000E-01 1.00000E+00 8.00000E+00
 -1        31 0.00000E+00 5.00000E-01 8.00000E+00
 -1        34 1.00000E+00 0.00000E+00 1.00000E+00
 -1        36 1.00000E+00 0.00000E+00 2.00000E+00
 -1        38 1.00000E+00 0.00000E+00 3.00000E+00
 -1        40 1.00000E+00 0.00000E+00 4.00000E+00
 -1        42 1.00000E+00 0.00000E+00 5.00000E+00
 -1        44 1.00000E+00 0.00000E+00 6.00000E+00
 -1        46 1.00000E+00 0.00000E+00 7.00000E+00
 -1        49 0.00000E+00 0.00000E+00 7.00000E+00
 -1        51 0.00000E+00 0.00000E+00 6.00000E+00
 -1        53 0.00000E+00 0.00000E+00 5.00000E+00
 -1        55 0.00000E+00 0.00000E+00 4.00000E+00
 -1        57 0.00000E+00 0.00000E+00 3.00000E+00
 -1        59 0.00000E+00 0.00000E+00 2.00000E+00
 -1        61 0.00000E+00 0.00000E+00 1.00000E+00
 -1        64 1.00000E+00 1.00000E+00 1.00000E+00
 -1        66 1.00000E+00 1.00000E+00 2.00000E+00
 -1        68 1.00000E+00 1.00000E+00 3.00000E+00
 -1        70 1.00000E+00 1.00000E+00 4.00000E+00
 -1        72 1.00000E+00 1.00000E+00 5.00000E+00
 -1        74 1.00000E+00 1.00000E+00 6.00000E+00
 -1        76 1.00000E+00 1.00000E+00 7.00000E+00
 -1        79 0.00000E+00 1.00000E+00 1.00000E+00
 -1        81 0.00000E+00 1.00000E+00 2.00000E+00
 -1        83 0.00000E+00 1.00000E+00 3.00000E+00
 -1        85 0.00000E+00 1.00000E+00 4.00000E+00
 -1        87 0.00000E+00 1.00000E+00 5.00000E+00
 -1        89 0.00000E+00 1.00000E+00 6.00000E+00
 -1        91 0.00000E+00 1.00000E+00 7.00000E+00
 -1        95 5.00000E-01 5.00000E-01 0.00000E+00
 -1       100 5.00000E-01 5.00000E-01 8.00000E+00
 -1       105 5.00000E-01 0.00000E+00 1.00000E+00
 -1       109 5.00000E-01 0.00000E+00 2.00000E+00
 -1       113 5.00000E-01 0.00000E+00 3.00000E+00
 -1       117 5.00000E-01 0.00000E+00 4.00000E+00
 -1       121 5.00000E-01 0.00000E+00 5.00000E+00
 -1       125 5.00000E-01 0.00000E+00 6.00000E+00
 -1       129 5.00000E-01 0.00000E+00 7.00000E+00
 -1       134 1.00000E+00 5.00000E-01 1.00000E+00
 -1       138 1.00000E+00 5.00000E-01 2.00000E+00
 -1       142 1.00000E+00 5.00000E-01 3.00000E+00
 -1       146 1.00000E+00 5.00000E-01 4.00000E+00
 -1       150 1.00000E+00 5.00000E-01 5.00000E+00
 -1       154 1.00000E+00 5.00000E-01 6.00000E+00
 -1       158 1.00000E+00 5.00000E-01 7.00000E+00
 -1       163 5.00000E-01 1.00000E+00 1.00000E+00
 -1       167 5.00000E-01 1.00000E+00 2.00000E+00
 -1       171 5.00000E-01 1.00000E+00 3.00000E+00
 -1       175 5.00000E-01 1.00000E+00 4.00000E+00
 -1       179 5.00000E-01 1.00000E+00 5.00000E+00
 -1       183 5.00000E-01 1.00000E+00 6.00000E+00
 -1       187 5.00000E-01 1.00000E+00 7.00000E+00
 -1       192 0.00000E+00 5.00000E-01 1.00000E+00
 -1       196 0.00000E+00 5.00000E-01 2.00000E+00
 -1       200 0.00000E+00 5.00000E-01 3.00000E+00
 -1       204 0.00000E+00 5.00000E-01 4.00000E+00
 -1       208 0.00000E+00 5.00000E-01 5.00000E+00
 -1       212 0.00000E+00 5.00000E-01 6.00000E+00
 -1       216 0.00000E+00 5.00000E-01 7.00000E+00
 -1       222 5.00000E-01 5.00000E-01 1.00000E+00
 -1       228 5.00000E-01 5.00000E-01 2.00000E+00
 -1       234 5.00000E-01 5.00000E-01 3.00000E+00
 -1       240 5.00000E-01 5.00000E-01 4.00000E+00
 -1       246 5.00000E-01 5.00000E-01 5.00000E+00
 -1       252 5.00000E-01 5.00000E-01 6.00000E+00
 -1       258 5.00000E-01 5.00000E-01 7.00000E+00
 -1       340 1.00000E+00 0.00000E+00 4.00000E+00
 -1       355 0.00000E+00 0.00000E+00 4.00000E+00
 -1       370 1.00000E+00 1.00000E+00 4.00000E+00
 -1       385 0.00000E+00 1.00000E+00 4.00000E+00
 -1       417 5.00000E-01 0.00000E+00 4.00000E+00
 -1       446 1.00000E+00 5.00000E-01 4.00000E+00
 -1       475 5.00000E-01 1.00000E+00 4.00000E+00
 -1       504 0.00000E+00 5.00000E-01 4.00000E+00
 -1       540 5.00000E-01 5.00000E-01 4.00000E+00
 -3
    3C                            32                                     1
 -1         1    1    0    1
 -2         1        10        95        19        61       105       222       192
 -1         2    1    0    1
 -2        10         2        13        95       105        34       134       222
 -1         3    1    0    1
 -2        19        95        16         4       192       222       163        79
 -1         4    1    0    1
 -2        95        13         3        16       222       134        64       163
 -1         5    1    0    1
 -2        61       105       222       192        59       109       228       196
 -1         6    1    0    1
 -2       105        34       134       222       109        36       138       228
 -1         7    1    0    1
 -2       192       222       163        79       196       228       167        81
 -1         8    1    0    1
 -2       222       134        64       163       228       138        66       167
 -1         9    1    0    1
 -2        59       109       228       196        57       113       234       200
 -1        10    1    0    1
 -2       109        36       138       228       113        38       142       234
 -1        11    1    0    1
 -2       196       228       167        81       200       234       171        83
 -1        12    1    0    1
 -2       228       138        66       167       234       142        68       171
 -1        13    1    0    1
 -2        57       113       234       200        55       117       240       204
 -1        14    1    0    1
 -2       113        38       142       234       117        40       146       240
 -1        15    1    0    1
 -2       200       234       171        83       204       240       175        85
 -1        16    1    0    1
 -2       234       142        68       171       240       146        70       175
 -1        17    1    0    1
 -2       355       417       540       504        53       121       246       208
 -1        18    1    0    1
 -2       417       340       446       540       121        42       150       246
 -1        19    1    0    1
 -2       504       540       475       385       208       246       179        87
 -1        20    1    0    1
 -2       540       446       370       475       246       150        72       179
 -1        21    1    0    1
 -2        53       121       246       208        51       125       252       212
 -1        22    1    0    1
 -2       121        42       150       246       125        44       154       252
 -1        23    1    0    1
 -2       208       246       179        87       212       252       183        89
 -1        24    1    0    1
 -2       246       150        72       179       252       154        74       183
 -1        25    1    0    1
 -2        51       125       252       212        49       129       258       216
 -1        26    1    0    1
 -2       125        44       154       252       129        46       158       258
 -1        27    1    0    1
 -2       212       252       183        89       216       258       187        91
 -1        28    1    0    1
 -2       252       154        74       183       258       158        76       187
 -1        29    1    0    1
 -2        49       129       258       216         5        22       100        31
 -1        30    1    0    1
 -2       129        46       158       258        22         6        25       100
 -1        31    1    0    1
 -2       216       258       187        91        31       100        28         8
 -1        32    1    0    1
 -2       258       158        76       187       100        25         7        28
 -3
    1PSTEP                         1           1           1          
  100CL  101 1.000000000          90                     0    1           1
 -4  DISP        4    1
 -5  D1          1    2    1    0
 -5  D2          1    2    2    0
 -5  D3          1    2    3    0
 -5  ALL         1    2    0    0    1ALL
 -1         1 0.00000E+00 0.00000E+00 0.00000E+00
 -1         2 0.00000E+00 0.00000E+00 0.00000E+00
 -1         3 0.00000E+00 0.00000E+00 0.00000E+00
 -1         4 0.00000E+00 0.00000E+00 0.00000E+00
 -1         5 3.95069E-02 3.95069E-02 3.69317E+00
 -1         6-3.95069E-02 3.95069E-02 3.69317E+00
 -1         7-3.95069E-02-3.95069E-02 3.69317E+00
 -1         8 3.95069E-02-3.95069E-02 3.69317E+00
 -1        10 0.00000E+00 0.00000E+00 0.00000E+00
 -1        13 0.00000E+00 0.00000E+00 0.00000E+00
 -1        16 0.00000E+00 0.00000E+00 0.00000E+00
 -1        19 0.00000E+00 0.00000E+00 0.00000E+00
 -1        22 8.86568E-13 2.34086E-02 3.42371E+00
 -1        25-2.34086E-02 7.62624E-13 3.42371E+00
 -1        28 9.26492E-13-2.34086E-02 3.42371E+00
 -1        31 2.34086E-02 8.02586E-13 3.42371E+00
 -1        34-8.24414E-02 8.24414E-02 4.35572E-01
 -1        36-6.99543E-02 6.99543E-02 9.05998E-01
 -1        38-7.14760E-02 7.14760E-02 1.38474E+00
 -1        40-7.20135E-02 7.20135E-02 1.86080E+00
 -1        42-6.94768E-02 6.94768E-02 2.33478E+00
 -1        44-7.57606E-02 7.57606E-02 2.81912E+00
 -1        46-6.97539E-02 6.97539E-02 3.28253E+00
 -1        49 6.97539E-02 6.97539E-02 3.28253E+00
 -1        51 7.57606E-02 7.57606E-02 2.81912E+00
 -1        53 6.94768E-02 6.94768E-02 2.33478E+00
 -1        55 7.20135E-02 7.20135E-02 1.86080E+00
 -1        57 7.14760E-02 7.14760E-02 1.38474E+00
 -1        59 6.99543E-02 6.99543E-02 9.05998E-01
 -1        61 8.24414E-02 8.24414E-02 4.35572E-01
 -1        64-8.24414E-02-8.24414E-02 4.35572E-01
 -1        66-6.99543E-02-6.99543E-02 9.05998E-01
 -1        68-7.14760E-02-7.14760E-02 1.38474E+00
 -1        70-7.20135E-02-7.20135E-02 1.86080E+00
 -1        72-6.94768E-02-6.94768E-02 2.33478E+00
 -1        74-7.57606E-02-7.57606E-02 2.81912E+00
 -1        76-6.97539E-02-6.97539E-02 3.28253E+00
 -1        79 8.24414E-02-8.24414E-02 4.35572E-01
 -1        81 6.99543E-02-6.99543E-02 9.05998E-01
 -1        83 7.14760E-02-7.14760E-02 1.38474E+00
 -1        85 7.20135E-02-7.20135E-02 1.86080E+00
 -1        87 6.94768E-02-6.94768E-02 2.33478E+00
 -1        89 7.57606E-02-7.57606E-02 2.81912E+00
 -1        91 6.97539E-02-6.97539E-02 3.28253E+00
 -1        95 0.00000E+00 0.00000E+00 0.00000E+00
 -1       100 9.06559E-13 7.82807E-13 4.52043E+00
 -1       105 2.00764E-14 8.24653E-02 4.24438E-01
 -1       109 8.50084E-14 7.05300E-02 9.09050E-01
 -1       113 1.84714E-13 7.14394E-02 1.38414E+00
 -1       117 3.08103E-13 7.07662E-02 1.86054E+00
 -1       121 4.43834E-13 7.51077E-02 2.33808E+00
 -1       125 5.86447E-13 5.54595E-02 2.80025E+00
 -1       129 7.34468E-13 1.23106E-01 3.36379E+00
 -1       134-8.24653E-02 1.90599E-14 4.24438E-01
 -1       138-7.05300E-02 7.96446E-14 9.09050E-01
 -1       142-7.14394E-02 1.69168E-13 1.38414E+00
 -1       146-7.07662E-02 2.76758E-13 1.86054E+00
 -1       150-7.51077E-02 3.94344E-13 2.33808E+00
 -1       154-5.54595E-02 5.17323E-13 2.80025E+00
 -1       158-1.23106E-01 6.40037E-13 3.36379E+00
 -1       163 2.74259E-14-8.24653E-02 4.24438E-01
 -1       167 9.97464E-14-7.05300E-02 9.09050E-01
 -1       171 2.05462E-13-7.14394E-02 1.38414E+00
 -1       175 3.34795E-13-7.07662E-02 1.86054E+00
 -1       179 4.76346E-13-7.51077E-02 2.33808E+00
 -1       183 6.22362E-13-5.54595E-02 2.80025E+00
 -1       187 7.72906E-13-1.23106E-01 3.36379E+00
 -1       192 8.24653E-02 2.65048E-14 4.24438E-01
 -1       196 7.05300E-02 9.43204E-14 9.09050E-01
 -1       200 7.14394E-02 1.90070E-13 1.38414E+00
 -1       204 7.07662E-02 3.03368E-13 1.86054E+00
 -1       208 7.51077E-02 4.26997E-13 2.33808E+00
 -1       212 5.54595E-02 5.53394E-13 2.80025E+00
 -1       216 1.23106E-01 6.78346E-13 3.36379E+00
 -1       222 2.57024E-14 2.46261E-14 4.13215E-01
 -1       228 9.37207E-14 8.80147E-14 9.12058E-01
 -1       234 1.95927E-13 1.80398E-13 1.38394E+00
 -1       240 3.21915E-13 2.90552E-13 1.85979E+00
 -1       246 4.60153E-13 4.10780E-13 2.33834E+00
 -1       252 6.04670E-13 5.35461E-13 2.81743E+00
 -1       258 7.53939E-13 6.59306E-13 3.19746E+00
 -1       340-7.20135E-02 7.20135E-02 1.86080E+00
 -1       355 7.20135E-02 7.20135E-02 1.86080E+00
 -1       370-7.20135E-02-7.20135E-02 1.86080E+00
 -1       385 7.20135E-02-7.20135E-02 1.86080E+00
 -1       417 3.08103E-13 7.07662E-02 1.86054E+00
 -1       446-7.07662E-02 2.76758E-13 1.86054E+00
 -1       475 3.34795E-13-7.07662E-02 1.86054E+00
 -1       504 7.07662E-02 3.03368E-13 1.86054E+00
 -1       540 3.21915E-13 2.90552E-13 1.85979E+00
 -3
    1PSTEP                         2           1           2          
    1PGM                1.000000E+00                                  
    1PGK                5.454937E+11                                  
    1PHID                         -1                                  
    1PSUBC                         0                                  
    1PMODE                         1                                  
  100CL  102 117547.9305          90                     2    2MODAL      1
 -4  DISP        4    1
 -5  D1          1    2    1    0
 -5  D2          1    2    2    0
 -5  D3          1    2    3    0
 -5  ALL         1    2    0    0    1ALL
 -1         1 0.00000E+00 0.00000E+00 0.00000E+00
 -1         2 0.00000E+00 0.00000E+00 0.00000E+00
 -1         3 0.00000E+00 0.00000E+00 0.00000E+00
 -1         4 0.00000E+00 0.00000E+00 0.00000E+00
 -1         5 4.45923E+03-3.84992E+03 1.34115E+00
 -1         6 4.39911E+03-3.78011E+03-1.80031E+01
 -1         7 4.45923E+03-3.84992E+03-1.34115E+00
 -1         8 4.39911E+03-3.78011E+03 1.80031E+01
 -1        10 0.00000E+00 0.00000E+00 0.00000E+00
 -1        13 0.00000E+00 0.00000E+00 0.00000E+00
 -1        16 0.00000E+00 0.00000E+00 0.00000E+00
 -1        19 0.00000E+00 0.00000E+00 0.00000E+00
 -1        22 4.44563E+03-3.79123E+03-3.71608E+00
 -1        25 4.40156E+03-3.82920E+03-4.31431E+00
 -1        28 4.44563E+03-3.79123E+03 3.71608E+00
 -1        31 4.40156E+03-3.82920E+03 4.31431E+00
 -1        34 6.88864E+02-6.05033E+02-3.47020E+02
 -1        36 1.46851E+03-1.26490E+03-4.34051E+02
 -1        38 2.27197E+03-1.95531E+03-4.08228E+02
 -1        40 2.98435E+03-2.56812E+03-3.51468E+02
 -1        42 3.57403E+03-3.07531E+03-2.79432E+02
 -1        44 4.01449E+03-3.45472E+03-1.89199E+02
 -1        46 4.29075E+03-3.69265E+03-1.03817E+02
 -1        49 4.31175E+03-3.71703E+03 7.73391E+00
 -1        51 4.03525E+03-3.47883E+03 1.40945E+01
 -1        53 3.59499E+03-3.09964E+03 2.08165E+01
 -1        55 3.00048E+03-2.58684E+03 2.61828E+01
 -1        57 2.28283E+03-1.96792E+03 3.04112E+01
 -1        59 1.46841E+03-1.26478E+03 3.23349E+01
 -1        61 6.10847E+02-5.14457E+02 2.58515E+01
 -1        64 6.10847E+02-5.14457E+02-2.58515E+01
 -1        66 1.46841E+03-1.26478E+03-3.23349E+01
 -1        68 2.28283E+03-1.96792E+03-3.04112E+01
 -1        70 3.00048E+03-2.58684E+03-2.61828E+01
 -1        72 3.59499E+03-3.09964E+03-2.08165E+01
 -1        74 4.03525E+03-3.47883E+03-1.40945E+01
 -1        76 4.31175E+03-3.71703E+03-7.73391E+00
 -1        79 6.88864E+02-6.05033E+02 3.47020E+02
 -1        81 1.46851E+03-1.26490E+03 4.34051E+02
 -1        83 2.27197E+03-1.95531E+03 4.08228E+02
 -1        85 2.98435E+03-2.56812E+03 3.51468E+02
 -1        87 3.57403E+03-3.07531E+03 2.79432E+02
 -1        89 4.01449E+03-3.45472E+03 1.89199E+02
 -1        91 4.29075E+03-3.69265E+03 1.03817E+02
 -1        95 0.00000E+00 0.00000E+00 0.00000E+00
 -1       100 4.38478E+03-3.77678E+03-7.95808E-11
 -1       105 6.19268E+02-5.74631E+02-1.60807E+02
 -1       109 1.47310E+03-1.26733E+03-2.02937E+02
 -1       113 2.27931E+03-1.95850E+03-1.88990E+02
 -1       117 2.99752E+03-2.57384E+03-1.63385E+02
 -1       121 3.58913E+03-3.08152E+03-1.27592E+02
 -1       125 4.03289E+03-3.46282E+03-9.23579E+01
 -1       129 4.29944E+03-3.69723E+03-3.95463E+01
 -1       134 6.67137E+02-5.33399E+02-1.86695E+02
 -1       138 1.47135E+03-1.26884E+03-2.35607E+02
 -1       142 2.27379E+03-1.96326E+03-2.19415E+02
 -1       146 2.98819E+03-2.58188E+03-1.89687E+02
 -1       150 3.57759E+03-3.09145E+03-1.48132E+02
 -1       154 4.02027E+03-3.47368E+03-1.07226E+02
 -1       158 4.29242E+03-3.70327E+03-4.59126E+01
 -1       163 6.19268E+02-5.74631E+02 1.60807E+02
 -1       167 1.47310E+03-1.26733E+03 2.02937E+02
 -1       171 2.27931E+03-1.95850E+03 1.88990E+02
 -1       175 2.99752E+03-2.57384E+03 1.63385E+02
 -1       179 3.58913E+03-3.08152E+03 1.27592E+02
 -1       183 4.03289E+03-3.46282E+03 9.23579E+01
 -1       187 4.29944E+03-3.69723E+03 3.95463E+01
 -1       192 6.67137E+02-5.33399E+02 1.86695E+02
 -1       196 1.47135E+03-1.26884E+03 2.35607E+02
 -1       200 2.27379E+03-1.96326E+03 2.19415E+02
 -1       204 2.98819E+03-2.58188E+03 1.89687E+02
 -1       208 3.57759E+03-3.09145E+03 1.48132E+02
 -1       212 4.02027E+03-3.47368E+03 1.07226E+02
 -1       216 4.29242E+03-3.70327E+03 4.59126E+01
 -1       222 6.36656E+02-5.48376E+02-5.43565E-12
 -1       228 1.47584E+03-1.27120E+03-1.52198E-11
 -1       234 2.27642E+03-1.96077E+03-2.89617E-11
 -1       240 2.99194E+03-2.57707E+03-4.42242E-11
 -1       246 3.58584E+03-3.08862E+03-5.95719E-11
 -1       252 4.02018E+03-3.46274E+03-7.04858E-11
 -1       258 4.31349E+03-3.71537E+03-7.79892E-11
 -1       340 2.98435E+03-2.56812E+03-3.51468E+02
 -1       355 3.00048E+03-2.58684E+03 2.61828E+01
 -1       370 3.00048E+03-2.58684E+03-2.61828E+01
 -1       385 2.98435E+03-2.56812E+03 3.51468E+02
 -1       417 2.99752E+03-2.57384E+03-1.63385E+02
 -1       446 2.98819E+03-2.58188E+03-1.89687E+02
 -1       475 2.99752E+03-2.57384E+03 1.63385E+02
 -1       504 2.98819E+03-2.58188E+03 1.89687E+02
 -1       540 2.99194E+03-2.57707E+03-4.42242E-11
 -3
    1PSTEP                         3           1           2          
    1PGM                1.000000E+00                                  
    1PGK                5.454937E+11                                  
    1PHID                         -1                                  
    1PSUBC                         0                                  
    1PMODE                         2                                  
  100CL  103 117547.9305          90                     2    3MODAL      1
 -4  DISP        4    1
 -5  D1          1    2    1    0
 -5  D2          1    2    2    0
 -5  D3          1    2    3    0
 -5  ALL         1    2    0    0    1ALL
 -1         1 0.00000E+00 0.00000E+00 0.00000E+00
 -1         2 0.00000E+00 0.00000E+00 0.00000E+00
 -1         3 0.00000E+00 0.00000E+00 0.00000E+00
 -1         4 0.00000E+00 0.00000E+00 0.00000E+00
 -1         5 3.78011E+03 4.39911E+03 1.80031E+01
 -1         6 3.84992E+03 4.45923E+03 1.34115E+00
 -1         7 3.78011E+03 4.39911E+03-1.80031E+01
 -1         8 3.84992E+03 4.45923E+03-1.34115E+00
 -1        10 0.00000E+00 0.00000E+00 0.00000E+00
 -1        13 0.00000E+00 0.00000E+00 0.00000E+00
 -1        16 0.00000E+00 0.00000E+00 0.00000E+00
 -1        19 0.00000E+00 0.00000E+00 0.00000E+00
 -1        22 3.82920E+03 4.40156E+03 4.31431E+00
 -1        25 3.79123E+03 4.44563E+03-3.71608E+00
 -1        28 3.82920E+03 4.40156E+03-4.31431E+00
 -1        31 3.79123E+03 4.44563E+03 3.71608E+00
 -1        34 5.14457E+02 6.10847E+02 2.58515E+01
 -1        36 1.26478E+03 1.46841E+03 3.23349E+01
 -1        38 1.96792E+03 2.28283E+03 3.04112E+01
 -1        40 2.58684E+03 3.00048E+03 2.61828E+01
 -1        42 3.09964E+03 3.59499E+03 2.08165E+01
 -1        44 3.47883E+03 4.03525E+03 1.40945E+01
 -1        46 3.71703E+03 4.31175E+03 7.73391E+00
 -1        49 3.69265E+03 4.29075E+03 1.03817E+02
 -1        51 3.45472E+03 4.01449E+03 1.89199E+02
 -1        53 3.07531E+03 3.57403E+03 2.79432E+02
 -1        55 2.56812E+03 2.98435E+03 3.51468E+02
 -1        57 1.95531E+03 2.27197E+03 4.08228E+02
 -1        59 1.26490E+03 1.46851E+03 4.34051E+02
 -1        61 6.05033E+02 6.88864E+02 3.47020E+02
 -1        64 6.05033E+02 6.88864E+02-3.47020E+02
 -1        66 1.26490E+03 1.46851E+03-4.34051E+02
 -1        68 1.95531E+03 2.27197E+03-4.08228E+02
 -1        70 2.56812E+03 2.98435E+03-3.51468E+02
 -1        72 3.07531E+03 3.57403E+03-2.79432E+02
 -1        74 3.45472E+03 4.01449E+03-1.89199E+02
 -1        76 3.69265E+03 4.29075E+03-1.03817E+02
 -1        79 5.14457E+02 6.10847E+02-2.58515E+01
 -1        81 1.26478E+03 1.46841E+03-3.23349E+01
 -1        83 1.96792E+03 2.28283E+03-3.04112E+01
 -1        85 2.58684E+03 3.00048E+03-2.61828E+01
 -1        87 3.09964E+03 3.59499E+03-2.08165E+01
 -1        89 3.47883E+03 4.03525E+03-1.40945E+01
 -1        91 3.71703E+03 4.31175E+03-7.73391E+00
 -1        95 0.00000E+00 0.00000E+00 0.00000E+00
 -1       100 3.77678E+03 4.38478E+03-5.24324E-10
 -1       105 5.33399E+02 6.67137E+02 1.86695E+02
 -1       109 1.26884E+03 1.47135E+03 2.35607E+02
 -1       113 1.96326E+03 2.27379E+03 2.19415E+02
 -1       117 2.58188E+03 2.98819E+03 1.89687E+02
 -1       121 3.09145E+03 3.57759E+03 1.48132E+02
 -1       125 3.47368E+03 4.02027E+03 1.07226E+02
 -1       129 3.70327E+03 4.29242E+03 4.59126E+01
 -1       134 5.74631E+02 6.19268E+02-1.60807E+02
 -1       138 1.26733E+03 1.47310E+03-2.02937E+02
 -1       142 1.95850E+03 2.27931E+03-1.88990E+02
 -1       146 2.57384E+03 2.99752E+03-1.63385E+02
 -1       150 3.08152E+03 3.58913E+03-1.27592E+02
 -1       154 3.46282E+03 4.03289E+03-9.23579E+01
 -1       158 3.69723E+03 4.29944E+03-3.95463E+01
 -1       163 5.33399E+02 6.67137E+02-1.86695E+02
 -1       167 1.26884E+03 1.47135E+03-2.35607E+02
 -1       171 1.96326E+03 2.27379E+03-2.19415E+02
 -1       175 2.58188E+03 2.98819E+03-1.89687E+02
 -1       179 3.09145E+03 3.57759E+03-1.48132E+02
 -1       183 3.47368E+03 4.02027E+03-1.07226E+02
 -1       187 3.70327E+03 4.29242E+03-4.59126E+01
 -1       192 5.74631E+02 6.19268E+02 1.60807E+02
 -1       196 1.26733E+03 1.47310E+03 2.02937E+02
 -1       200 1.95850E+03 2.27931E+03 1.88990E+02
 -1       204 2.57384E+03 2.99752E+03 1.63385E+02
 -1       208 3.08152E+03 3.58913E+03 1.27592E+02
 -1       212 3.46282E+03 4.03289E+03 9.23579E+01
 -1       216 3.69723E+03 4.29944E+03 3.95463E+01
 -1       222 5.48376E+02 6.36656E+02-3.64935E-11
 -1       228 1.27120E+03 1.47584E+03-1.09807E-10
 -1       234 1.96077E+03 2.27642E+03-2.06484E-10
 -1       240 2.57707E+03 2.99194E+03-3.07864E-10
 -1       246 3.08862E+03 3.58584E+03-3.98359E-10
 -1       252 3.46274E+03 4.02018E+03-4.67480E-10
 -1       258 3.71537E+03 4.31349E+03-5.16593E-10
 -1       340 2.58684E+03 3.00048E+03 2.61828E+01
 -1       355 2.56812E+03 2.98435E+03 3.51468E+02
 -1       370 2.56812E+03 2.98435E+03-3.51468E+02
 -1       385 2.58684E+03 3.00048E+03-2.61828E+01
 -1       417 2.58188E+03 2.98819E+03 1.89687E+02
 -1       446 2.57384E+03 2.99752E+03-1.63385E+02
 -1       475 2.58188E+03 2.98819E+03-1.89687E+02
 -1       504 2.57384E+03 2.99752E+03 1.63385E+02
 -1       540 2.57707E+03 2.99194E+03-3.07864E-10
 -3
    1PSTEP                         4           1           2          
    1PGM                1.000000E+00                                  
    1PGK                7.413272E+11                                  
    1PHID                         -1                                  
    1PSUBC                         0                                  
    1PMODE                         3                                  
  100CL  104 137032.9829          90                     2    4MODAL      1
 -4  DISP        4    1
 -5  D1          1    2    1    0
 -5  D2          1    2    2    0
 -5  D3          1    2    3    0
 -5  ALL         1    2    0    0    1ALL
 -1         1 0.00000E+00 0.00000E+00 0.00000E+00
 -1         2 0.00000E+00 0.00000E+00 0.00000E+00
 -1         3 0.00000E+00 0.00000E+00 0.00000E+00
 -1         4 0.00000E+00 0.00000E+00 0.00000E+00
 -1         5-7.74965E+03 7.74965E+03 9.31344E-11
 -1         6-7.74965E+03-7.74965E+03 9.96437E-10
 -1         7 7.74965E+03-7.74965E+03-1.17453E-10
 -1         8 7.74965E+03 7.74965E+03-1.01878E-09
 -1        10 0.00000E+00 0.00000E+00 0.00000E+00
 -1        13 0.00000E+00 0.00000E+00 0.00000E+00
 -1        16 0.00000E+00 0.00000E+00 0.00000E+00
 -1        19 0.00000E+00 0.00000E+00 0.00000E+00
 -1        22-8.05540E+03-7.91601E-10 5.74502E-10
 -1        25 2.69651E-10-8.05540E+03 4.64279E-10
 -1        28 8.05540E+03-1.47884E-09-6.03521E-10
 -1        31 9.39963E-10 8.05540E+03-4.86722E-10
 -1        34-1.42382E+03-1.42382E+03 1.40176E-10
 -1        36-2.66877E+03-2.66877E+03 3.49928E-10
 -1        38-3.81085E+03-3.81085E+03 5.96174E-10
 -1        40-4.80968E+03-4.80968E+03 8.26731E-10
 -1        42-5.68510E+03-5.68510E+03 1.01335E-09
 -1        44-6.17751E+03-6.17751E+03 1.07701E-09
 -1        46-7.09332E+03-7.09332E+03 1.06735E-09
 -1        49-7.09332E+03 7.09332E+03 9.00258E-11
 -1        51-6.17751E+03 6.17751E+03 7.23048E-11
 -1        53-5.68510E+03 5.68510E+03 5.27507E-11
 -1        55-4.80968E+03 4.80968E+03 3.38787E-11
 -1        57-3.81085E+03 3.81085E+03 1.43245E-11
 -1        59-2.66877E+03 2.66877E+03-2.50111E-12
 -1        61-1.42382E+03 1.42382E+03-8.41283E-12
 -1        64 1.42382E+03-1.42382E+03 2.61480E-12
 -1        66 2.66877E+03-2.66877E+03-8.18545E-12
 -1        68 3.81085E+03-3.81085E+03-2.77396E-11
 -1        70 4.80968E+03-4.80968E+03-5.18412E-11
 -1        72 5.68510E+03-5.68510E+03-7.17364E-11
 -1        74 6.17751E+03-6.17751E+03-9.28821E-11
 -1        76 7.09332E+03-7.09332E+03-1.10120E-10
 -1        79 1.42382E+03 1.42382E+03-1.45860E-10
 -1        81 2.66877E+03 2.66877E+03-3.59478E-10
 -1        83 3.81085E+03 3.81085E+03-6.10271E-10
 -1        85 4.80968E+03 4.80968E+03-8.42647E-10
 -1        87 5.68510E+03 5.68510E+03-1.03114E-09
 -1        89 6.17751E+03 6.17751E+03-1.09742E-09
 -1        91 7.09332E+03 7.09332E+03-1.09080E-09
 -1        95 0.00000E+00 0.00000E+00 0.00000E+00
 -1       100-5.19307E-10 2.59661E-10-1.25873E-11
 -1       105-1.41623E+03 7.84297E-11 6.80984E-11
 -1       109-2.66881E+03 1.96280E-10 1.73259E-10
 -1       113-3.80884E+03 3.13776E-10 3.05590E-10
 -1       117-4.82531E+03 4.16321E-10 4.33147E-10
 -1       121-5.61047E+03 4.96698E-10 5.25915E-10
 -1       125-6.47550E+03 5.14774E-10 6.04672E-10
 -1       129-6.13105E+03 5.91172E-10 5.00863E-10
 -1       134-1.11413E-10-1.41623E+03 7.34417E-11
 -1       138-2.64208E-10-2.66881E+03 1.71212E-10
 -1       142-4.21096E-10-3.80884E+03 2.84672E-10
 -1       146-5.68889E-10-4.82531E+03 3.90173E-10
 -1       150-6.88033E-10-5.61047E+03 4.64297E-10
 -1       154-7.34985E-10-6.47550E+03 5.17645E-10
 -1       158-8.36280E-10-6.13105E+03 4.13216E-10
 -1       163 1.41623E+03 5.40865E-11-7.29869E-11
 -1       167 2.66881E+03 1.06070E-10-1.83491E-10
 -1       171 3.80884E+03 1.29717E-10-3.19687E-10
 -1       175 4.82531E+03 1.15733E-10-4.48608E-10
 -1       179 5.61047E+03 7.25322E-11-5.45924E-10
 -1       183 6.47550E+03-2.26805E-11-6.23231E-10
 -1       187 6.13105E+03-2.13731E-11-5.22533E-10
 -1       192-8.64020E-11 1.41623E+03-7.79892E-11
 -1       196-1.73713E-10 2.66881E+03-1.80989E-10
 -1       200-2.36014E-10 3.80884E+03-2.98542E-10
 -1       204-2.64436E-10 4.82531E+03-4.05407E-10
 -1       208-2.61025E-10 5.61047E+03-4.82714E-10
 -1       212-2.12026E-10 6.47550E+03-5.36829E-10
 -1       216-2.13845E-10 6.13105E+03-4.37151E-10
 -1       222-8.29914E-11 5.05622E-11-1.93268E-12
 -1       228-2.06455E-10 1.36538E-10-5.00222E-12
 -1       234-3.16277E-10 2.07706E-10-6.82121E-12
 -1       240-4.07908E-10 2.55113E-10-8.18545E-12
 -1       246-4.76120E-10 2.83762E-10-9.32232E-12
 -1       252-4.86807E-10 2.62276E-10-9.83391E-12
 -1       258-3.83920E-10 1.00272E-10-1.07221E-11
 -1       340-4.80968E+03-4.80968E+03 8.26731E-10
 -1       355-4.80968E+03 4.80968E+03 3.38787E-11
 -1       370 4.80968E+03-4.80968E+03-5.18412E-11
 -1       385 4.80968E+03 4.80968E+03-8.42647E-10
 -1       417-4.82531E+03 4.16321E-10 4.33147E-10
 -1       446-5.68889E-10-4.82531E+03 3.90173E-10
 -1       475 4.82531E+03 1.15733E-10-4.48608E-10
 -1       504-2.64436E-10 4.82531E+03-4.05407E-10
 -1       540-4.07908E-10 2.55113E-10-8.18545E-12
 -3
    1PSTEP                         5           1           2          
    1PGM                1.000000E+00                                  
    1PGK                2.798655E+12                                  
    1PHID                         -1                                  
    1PSUBC                         0                                  
    1PMODE                         4                                  
  100CL  105 266253.1736          90                     2    5MODAL      1
 -4  DISP        4    1
 -5  D1          1    2    1    0