<?xml version="1.0"?>
<VTKFile type="UnstructuredGrid" version="0.1" byte_order="LittleEndian">
	<UnstructuredGrid>
		<Piece NumberOfPoints="261" NumberOfCells="32">
			<Points>
				<DataArray type="Float64" NumberOfComponents="3" format="ascii">
					 0.00000000E+00	 0.00000000E+00	 0.00000000E+00
					 1.00000000E+00	 0.00000000E+00	 0.00000000E+00
					 1.00000000E+00	 1.00000000E+00	 0.00000000E+00
					 0.00000000E+00	 1.00000000E+00	 0.00000000E+00
					 0.00000000E+00	 0.00000000E+00	 8.00000000E+00
					 1.00000000E+00	 0.00000000E+00	 8.00000000E+00
					 1.00000000E+00	 1.00000000E+00	 8.00000000E+00
					 0.00000000E+00	 1.00000000E+00	 8.00000000E+00
					 2.50000000E-01	 0.00000000E+00	 0.00000000E+00
					 5.00000000E-01	 0.00000000E+00	 0.00000000E+00
					 7.50000000E-01	 0.00000000E+00	 0.00000000E+00
					 1.00000000E+00	 2.50000000E-01	 0.00000000E+00
					 1.00000000E+00	 5.00000000E-01	 0.00000000E+00
					 1.00000000E+00	 7.50000000E-01	 0.00000000E+00
					 7.50000000E-01	 1.00000000E+00	 0.00000000E+00
					 5.00000000E-01	 1.00000000E+00	 0.00000000E+00
					 2.50000000E-01	 1.00000000E+00	 0.00000000E+00
					 0.00000000E+00	 7.50000000E-01	 0.00000000E+00
					 0.00000000E+00	 5.00000000E-01	 0.00000000E+00
					 0.00000000E+00	 2.50000000E-01	 0.00000000E+00
					 2.50000000E-01	 0.00000000E+00	 8.00000000E+00
					 5.00000000E-01	 0.00000000E+00	 8.00000000E+00
					 7.50000000E-01	 0.00000000E+00	 8.00000000E+00
					 1.00000000E+00	 2.50000000E-01	 8.00000000E+00
					 1.00000000E+00	 5.00000000E-01	 8.00000000E+00
					 1.00000000E+00	 7.50000000E-01	 8.00000000E+00
					 7.50000000E-01	 1.00000000E+00	 8.00000000E+00
					 5.00000000E-01	 1.00000000E+00	 8.00000000E+00
					 2.50000000E-01	 1.00000000E+00	 8.00000000E+00
					 0.00000000E+00	 7.50000000E-01	 8.00000000E+00
					 0.00000000E+00	 5.00000000E-01	 8.00000000E+00
					 0.00000000E+00	 2.50000000E-01	 8.00000000E+00
					 1.00000000E+00	 0.00000000E+00	 5.00000000E-01
					 1.00000000E+00	 0.00000000E+00	 1.00000000E+00
					 1.00000000E+00	 0.00000000E+00	 1.50000000E+00
					 1.00000000E+00	 0.00000000E+00	 2.00000000E+00
					 1.00000000E+00	 0.00000000E+00	 2.50000000E+00
					 1.00000000E+00	 0.00000000E+00	 3.00000000E+00
					 1.00000000E+00	 0.00000000E+00	 3.50000000E+00
					 1.00000000E+00	 0.00000000E+00	 4.00000000E+00
					 1.00000000E+00	 0.00000000E+00	 4.50000000E+00
					 1.00000000E+00	 0.00000000E+00	 5.00000000E+00
					 1.00000000E+00	 0.00000000E+00	 5.50000000E+00
					 1.00000000E+00	 0.00000000E+00	 6.00000000E+00
					 1.00000000E+00	 0.00000000E+00	 6.50000000E+00
					 1.00000000E+00	 0.00000000E+00	 7.00000000E+00
					 1.00000000E+00	 0.00000000E+00	 7.50000000E+00
					 0.00000000E+00	 0.00000000E+00	 7.50000000E+00
					 0.00000000E+00	 0.00000000E+00	 7.00000000E+00
					 0.00000000E+00	 0.00000000E+00	 6.50000000E+00
					 0.00000000E+00	 0.00000000E+00	 6.00000000E+00
					 0.00000000E+00	 0.00000000E+00	 5.50000000E+00
					 0.00000000E+00	 0.00000000E+00	 5.00000000E+00
					 0.00000000E+00	 0.00000000E+00	 4.50000000E+00
					 0.00000000E+00	 0.00000000E+00	 4.00000000E+00
					 0.00000000E+00	 0.00000000E+00	 3.50000000E+00
					 0.00000000E+00	 0.00000000E+00	 3.00000000E+00
					 0.00000000E+00	 0.00000000E+00	 2.50000000E+00
					 0.00000000E+00	 0.00000000E+00	 2.00000000E+00
					 0.00000000E+00	 0.00000000E+00	 1.50000000E+00
					 0.00000000E+00	 0.00000000E+00	 1.00000000E+00
					 0.00000000E+00	 0.00000000E+00	 5.00000000E-01
					 1.00000000E+00	 1.00000000E+00	 5.00000000E-01
					 1.00000000E+00	 1.00000000E+00	 1.00000000E+00
					 1.00000000E+00	 1.00000000E+00	 1.50000000E+00
					 1.00000000E+00	 1.00000000E+00	 2.00000000E+00
					 1.00000000E+00	 1.00000000E+00	 2.50000000E+00
					 1.00000000E+00	 1.00000000E+00	 3.00000000E+00
					 1.00000000E+00	 1.00000000E+00	 3.50000000E+00
					 1.00000000E+00	 1.00000000E+00	 4.00000000E+00
					 1.00000000E+00	 1.00000000E+00	 4.50000000E+00
					 1.00000000E+00	 1.00000000E+00	 5.00000000E+00
					 1.00000000E+00	 1.00000000E+00	 5.50000000E+00
					 1.00000000E+00	 1.00000000E+00	 6.00000000E+00
					 1.00000000E+00	 1.00000000E+00	 6.50000000E+00
					 1.00000000E+00	 1.00000000E+00	 7.00000000E+00
					 1.00000000E+00	 1.00000000E+00	 7.50000000E+00
					 0.00000000E+00	 1.00000000E+00	 5.00000000E-01
					 0.00000000E+00	 1.00000000E+00	 1.00000000E+00
					 0.00000000E+00	 1.00000000E+00	 1.50000000E+00
					 0.00000000E+00	 1.00000000E+00	 2.00000000E+00
					 0.00000000E+00	 1.00000000E+00	 2.50000000E+00
					 0.00000000E+00	 1.00000000E+00	 3.00000000E+00
					 0.00000000E+00	 1.00000000E+00	 3.50000000E+00
					 0.00000000E+00	 1.00000000E+00	 4.00000000E+00
					 0.00000000E+00	 1.00000000E+00	 4.50000000E+00
					 0.00000000E+00	 1.00000000E+00	 5.00000000E+00
					 0.00000000E+00	 1.00000000E+00	 5.50000000E+00
					 0.00000000E+00	 1.00000000E+00	 6.00000000E+00
					 0.00000000E+00	 1.00000000E+00	 6.50000000E+00
					 0.00000000E+00	 1.00000000E+00	 7.00000000E+00
					 0.00000000E+00	 1.00000000E+00	 7.50000000E+00
					 5.00000000E-01	 2.50000000E-01	 0.00000000E+00
					 2.50000000E-01	 5.00000000E-01	 0.00000000E+00
					 5.00000000E-01	 5.00000000E-01	 0.00000000E+00
					 7.50000000E-01	 5.00000000E-01	 0.00000000E+00
					 5.00000000E-01	 7.50000000E-01	 0.00000000E+00
					 5.00000000E-01	 2.50000000E-01	 8.00000000E+00
					 2.50000000E-01	 5.00000000E-01	 8.00000000E+00
					 5.00000000E-01	 5.00000000E-01	 8.00000000E+00
					 7.50000000E-01	 5.00000000E-01	 8.00000000E+00
					 5.00000000E-01	 7.50000000E-01	 8.00000000E+00
					 5.00000000E-01	 0.00000000E+00	 5.00000000E-01
					 2.50000000E-01	 0.00000000E+00	 1.00000000E+00
					 5.00000000E-01	 0.00000000E+00	 1.00000000E+00
					 7.50000000E-01	 0.00000000E+00	 1.00000000E+00
					 5.00000000E-01	 0.00000000E+00	 1.50000000E+00
					 2.50000000E-01	 0.00000000E+00	 2.00000000E+00
					 5.00000000E-01	 0.00000000E+00	 2.00000000E+00
					 7.50000000E-01	 0.00000000E+00	 2.00000000E+00
					 5.00000000E-01	 0.00000000E+00	 2.50000000E+00
					 2.50000000E-01	 0.00000000E+00	 3.00000000E+00
					 5.00000000E-01	 0.00000000E+00	 3.00000000E+00
					 7.50000000E-01	 0.00000000E+00	 3.00000000E+00
					 5.00000000E-01	 0.00000000E+00	 3.50000000E+00
					 2.50000000E-01	 0.00000000E+00	 4.00000000E+00
					 5.00000000E-01	 0.00000000E+00	 4.00000000E+00
					 7.50000000E-01	 0.00000000E+00	 4.00000000E+00
					 5.00000000E-01	 0.00000000E+00	 4.50000000E+00
					 2.50000000E-01	 0.00000000E+00	 5.00000000E+00
					 5.00000000E-01	 0.00000000E+00	 5.00000000E+00
					 7.50000000E-01	 0.00000000E+00	 5.00000000E+00
					 5.00000000E-01	 0.00000000E+00	 5.50000000E+00
					 2.50000000E-01	 0.00000000E+00	 6.00000000E+00
					 5.00000000E-01	 0.00000000E+00	 6.00000000E+00
					 7.50000000E-01	 0.00000000E+00	 6.00000000E+00
					 5.00000000E-01	 0.00000000E+00	 6.50000000E+00
					 2.50000000E-01	 0.00000000E+00	 7.00000000E+00
					 5.00000000E-01	 0.00000000E+00	 7.00000000E+00
					 7.50000000E-01	 0.00000000E+00	 7.00000000E+00
					 5.00000000E-01	 0.00000000E+00	 7.50000000E+00
					 1.00000000E+00	 5.00000000E-01	 5.00000000E-01
					 1.00000000E+00	 2.50000000E-01	 1.00000000E+00
					 1.00000000E+00	 5.00000000E-01	 1.00000000E+00
					 1.00000000E+00	 7.50000000E-01	 1.00000000E+00
					 1.00000000E+00	 5.00000000E-01	 1.50000000E+00
					 1.00000000E+00	 2.50000000E-01	 2.00000000E+00
					 1.00000000E+00	 5.00000000E-01	 2.00000000E+00
					 1.00000000E+00	 7.50000000E-01	 2.00000000E+00
					 1.00000000E+00	 5.00000000E-01	 2.50000000E+00
					 1.00000000E+00	 2.50000000E-01	 3.00000000E+00
					 1.00000000E+00	 5.00000000E-01	 3.00000000E+00
					 1.00000000E+00	 7.50000000E-01	 3.00000000E+00
					 1.00000000E+00	 5.00000000E-01	 3.50000000E+00
					 1.00000000E+00	 2.50000000E-01	 4.00000000E+00
					 1.00000000E+00	 5.00000000E-01	 4.00000000E+00
					 1.00000000E+00	 7.50000000E-01	 4.00000000E+00
					 1.00000000E+00	 5.00000000E-01	 4.50000000E+00
					 1.00000000E+00	 2.50000000E-01	 5.00000000E+00
					 1.00000000E+00	 5.00000000E-01	 5.00000000E+00
					 1.00000000E+00	 7.50000000E-01	 5.00000000E+00
					 1.00000000E+00	 5.00000000E-01	 5.50000000E+00
					 1.00000000E+00	 2.50000000E-01	 6.00000000E+00
					 1.00000000E+00	 5.00000000E-01	 6.00000000E+00
					 1.00000000E+00	 7.50000000E-01	 6.00000000E+00
					 1.00000000E+00	 5.00000000E-01	 6.50000000E+00
					 1.00000000E+00	 2.50000000E-01	 7.00000000E+00
					 1.00000000E+00	 5.00000000E-01	 7.00000000E+00
					 1.00000000E+00	 7.50000000E-01	 7.00000000E+00
					 1.00000000E+00	 5.00000000E-01	 7.50000000E+00
					 5.00000000E-01	 1.00000000E+00	 5.00000000E-01
					 7.50000000E-01	 1.00000000E+00	 1.00000000E+00
					 5.00000000E-01	 1.00000000E+00	 1.00000000E+00
					 2.50000000E-01	 1.00000000E+00	 1.00000000E+00
					 5.00000000E-01	 1.00000000E+00	 1.50000000E+00
					 7.50000000E-01	 1.00000000E+00	 2.00000000E+00
					 5.00000000E-01	 1.00000000E+00	 2.00000000E+00
					 2.50000000E-01	 1.00000000E+00	 2.00000000E+00
					 5.00000000E-01	 1.00000000E+00	 2.50000000E+00
					 7.50000000E-01	 1.00000000E+00	 3.00000000E+00
					 5.00000000E-01	 1.00000000E+00	 3.00000000E+00
					 2.50000000E-01	 1.00000000E+00	 3.00000000E+00
					 5.00000000E-01	 1.00000000E+00	 3.50000000E+00
					 7.50000000E-01	 1.00000000E+00	 4.00000000E+00
					 5.00000000E-01	 1.00000000E+00	 4.00000000E+00
					 2.50000000E-01	 1.00000000E+00	 4.00000000E+00
					 5.00000000E-01	 1.00000000E+00	 4.50000000E+00
					 7.50000000E-01	 1.00000000E+00	 5.00000000E+00
					 5.00000000E-01	 1.00000000E+00	 5.00000000E+00
					 2.50000000E-01	 1.00000000E+00	 5.00000000E+00
					 5.00000000E-01	 1.00000000E+00	 5.50000000E+00
					 7.50000000E-01	 1.00000000E+00	 6.00000000E+00
					 5.00000000E-01	 1.00000000E+00	 6.00000000E+00
					 2.50000000E-01	 1.00000000E+00	 6.00000000E+00
					 5.00000000E-01	 1.00000000E+00	 6.50000000E+00
					 7.50000000E-01	 1.00000000E+00	 7.00000000E+00
					 5.00000000E-01	 1.00000000E+00	 7.00000000E+00
					 2.50000000E-01	 1.00000000E+00	 7.00000000E+00
					 5.00000000E-01	 1.00000000E+00	 7.50000000E+00
					 0.00000000E+00	 5.00000000E-01	 5.00000000E-01
					 0.00000000E+00	 7.50000000E-01	 1.00000000E+00
					 0.00000000E+00	 5.00000000E-01	 1.00000000E+00
					 0.00000000E+00	 2.50000000E-01	 1.00000000E+00
					 0.00000000E+00	 5.00000000E-01	 1.50000000E+00
					 0.00000000E+00	 7.50000000E-01	 2.00000000E+00
					 0.00000000E+00	 5.00000000E-01	 2.00000000E+00
					 0.00000000E+00	 2.50000000E-01	 2.00000000E+00
					 0.00000000E+00	 5.00000000E-01	 2.50000000E+00
					 0.00000000E+00	 7.50000000E-01	 3.00000000E+00
					 0.00000000E+00	 5.00000000E-01	 3.00000000E+00
					 0.00000000E+00	 2.50000000E-01	 3.00000000E+00
					 0.00000000E+00	 5.00000000E-01	 3.50000000E+00
					 0.00000000E+00	 7.50000000E-01	 4.00000000E+00
					 0.00000000E+00	 5.00000000E-01	 4.00000000E+00
					 0.00000000E+00	 2.50000000E-01	 4.00000000E+00
					 0.00000000E+00	 5.00000000E-01	 4.50000000E+00
					 0.00000000E+00	 7.50000000E-01	 5.00000000E+00
					 0.00000000E+00	 5.00000000E-01	 5.00000000E+00
					 0.00000000E+00	 2.50000000E-01	 5.00000000E+00
					 0.00000000E+00	 5.00000000E-01	 5.50000000E+00
					 0.00000000E+00	 7.50000000E-01	 6.00000000E+00
					 0.00000000E+00	 5.00000000E-01	 6.00000000E+00
					 0.00000000E+00	 2.50000000E-01	 6.00000000E+00
					 0.00000000E+00	 5.00000000E-01	 6.50000000E+00
					 0.00000000E+00	 7.50000000E-01	 7.00000000E+00
					 0.00000000E+00	 5.00000000E-01	 7.00000000E+00
					 0.00000000E+00	 2.50000000E-01	 7.00000000E+00
					 0.00000000E+00	 5.00000000E-01	 7.50000000E+00
					 5.00000000E-01	 5.00000000E-01	 5.00000000E-01
					 5.00000000E-01	 2.50000000E-01	 1.00000000E+00
					 2.50000000E-01	 5.00000000E-01	 1.00000000E+00
					 5.00000000E-01	 5.00000000E-01	 1.00000000E+00
					 7.50000000E-01	 5.00000000E-01	 1.00000000E+00
					 5.00000000E-01	 7.50000000E-01	 1.00000000E+00
					 5.00000000E-01	 5.00000000E-01	 1.50000000E+00
					 5.00000000E-01	 2.50000000E-01	 2.00000000E+00
					 2.50000000E-01	 5.00000000E-01	 2.00000000E+00
					 5.00000000E-01	 5.00000000E-01	 2.00000000E+00
					 7.50000000E-01	 5.00000000E-01	 2.00000000E+00
					 5.00000000E-01	 7.50000000E-01	 2.00000000E+00
					 5.00000000E-01	 5.00000000E-01	 2.50000000E+00
					 5.00000000E-01	 2.50000000E-01	 3.00000000E+00
					 2.50000000E-01	 5.00000000E-01	 3.00000000E+00
					 5.00000000E-01	 5.00000000E-01	 3.00000000E+00
					 7.50000000E-01	 5.00000000E-01	 3.00000000E+00
					 5.00000000E-01	 7.50000000E-01	 3.00000000E+00
					 5.00000000E-01	 5.00000000E-01	 3.50000000E+00
					 5.00000000E-01	 2.50000000E-01	 4.00000000E+00
					 2.50000000E-01	 5.00000000E-01	 4.00000000E+00
					 5.00000000E-01	 5.00000000E-01	 4.00000000E+00
					 7.50000000E-01	 5.00000000E-01	 4.00000000E+00
					 5.00000000E-01	 7.50000000E-01	 4.00000000E+00
					 5.00000000E-01	 5.00000000E-01	 4.50000000E+00
					 5.00000000E-01	 2.50000000E-01	 5.00000000E+00
					 2.50000000E-01	 5.00000000E-01	 5.00000000E+00
					 5.00000000E-01	 5.00000000E-01	 5.00000000E+00
					 7.50000000E-01	 5.00000000E-01	 5.00000000E+00
					 5.00000000E-01	 7.50000000E-01	 5.00000000E+00
					 5.00000000E-01	 5.00000000E-01	 5.50000000E+00
					 5.00000000E-01	 2.50000000E-01	 6.00000000E+00
					 2.50000000E-01	 5.00000000E-01	 6.00000000E+00
					 5.00000000E-01	 5.00000000E-01	 6.00000000E+00
					 7.50000000E-01	 5.00000000E-01	 6.00000000E+00
					 5.00000000E-01	 7.50000000E-01	 6.00000000E+00
					 5.00000000E-01	 5.00000000E-01	 6.50000000E+00
					 5.00000000E-01	 2.50000000E-01	 7.00000000E+00
					 2.50000000E-01	 5.00000000E-01	 7.00000000E+00
					 5.00000000E-01	 5.00000000E-01	 7.00000000E+00
					 7.50000000E-01	 5.00000000E-01	 7.00000000E+00
					 5.00000000E-01	 7.50000000E-01	 7.00000000E+00
					 5.00000000E-01	 5.00000000E-01	 7.50000000E+00

				</DataArray>
			</Points>
			<Cells>
				<DataArray type="Int32" Name="connectivity" format="ascii">
					0 9 94 18 60 104 221 191 8 92 93 19 103 219 220 192 61 102 218 189 9 1 12 94 104 33 133 221 10 11 95 92 105 132 222 219 102 32 131 218 18 94 15 3 191 221 162 78 93 96 16 17 220 223 163 190 189 218 160 77 94 12 2 15 221 133 63 162 95 13 14 96 222 134 161 223 218 131 62 160 60 104 221 191 58 108 227 195 103 219 220 192 107 225 226 196 59 106 224 193 104 33 133 221 108 35 137 227 105 132 222 219 109 136 228 225 106 34 135 224 191 221 162 78 195 227 166 80 220 223 163 190 226 229 167 194 193 224 164 79 221 133 63 162 227 137 65 166 222 134 161 223 228 138 165 229 224 135 64 164 58 108 227 195 56 112 233 199 107 225 226 196 111 231 232 200 57 110 230 197 108 35 137 227 112 37 141 233 109 136 228 225 113 140 234 231 110 36 139 230 195 227 166 80 199 233 170 82 226 229 167 194 232 235 171 198 197 230 168 81 227 137 65 166 233 141 67 170 228 138 165 229 234 142 169 235 230 139 66 168 56 112 233 199 54 116 239 203 111 231 232 200 115 237 238 204 55 114 236 201 112 37 141 233 116 39 145 239 113 140 234 231 117 144 240 237 114 38 143 236 199 233 170 82 203 239 174 84 232 235 171 198 238 241 175 202 201 236 172 83 233 141 67 170 239 145 69 174 234 142 169 235 240 146 173 241 236 143 68 172 54 116 239 203 52 120 245 207 115 237 238 204 119 243 244 208 53 118 242 205 116 39 145 239 120 41 149 245 117 144 240 237 121 148 246 243 118 40 147 242 203 239 174 84 207 245 178 86 238 241 175 202 244 247 179 206 205 242 176 85 239 145 69 174 245 149 71 178 240 146 173 241 246 150 177 247 242 147 70 176 52 120 245 207 50 124 251 211 119 243 244 208 123 249 250 212 51 122 248 209 120 41 149 245 124 43 153 251 121 148 246 243 125 152 252 249 122 42 151 248 207 245 178 86 211 251 182 88 244 247 179 206 250 253 183 210 209 248 180 87 245 149 71 178 251 153 73 182 246 150 177 247 252 154 181 253 248 151 72 180 50 124 251 211 48 128 257 215 123 249 250 212 127 255 256 216 49 126 254 213 124 43 153 251 128 45 157 257 125 152 252 249 129 156 258 255 126 44 155 254 211 251 182 88 215 257 186 90 250 253 183 210 256 259 187 214 213 254 184 89 251 153 73 182 257 157 75 186 252 154 181 253 258 158 185 259 254 155 74 184 48 128 257 215 4 21 99 30 127 255 256 216 20 97 98 31 47 130 260 217 128 45 157 257 21 5 24 99 129 156 258 255 22 23 100 97 130 46 159 260 215 257 186 90 30 99 27 7 256 259 187 214 98 101 28 29 217 260 188 91 257 157 75 186 99 24 6 27 258 158 185 259 100 25 26 101 260 159 76 188 
				</DataArray>
				<DataArray type="Int32" Name="offsets" format="ascii">
					20 40 60 80 100 120 140 160 180 200 220 240 260 280 300 320 340 360 380 400 420 440 460 480 500 520 540 560 580 600 620 640 
				</DataArray>
				<DataArray type="UInt8" Name="types" format="ascii">
					25 25 25 25 25 25 25 25 25 25 25 25 25 25 25 25 25 25 25 25 25 25 25 25 25 25 25 25 25 25 25 25 
				</DataArray>
			</Cells>
			<PointData>
				<DataArray type="Float32" Name="U" NumberOfComponents="3" ComponentName0="D1" ComponentName1="D2" ComponentName2="D3" format="ascii">
					 0.00000000E+00	 0.00000000E+00	 0.00000000E+00
					 0.00000000E+00	 0.00000000E+00	 0.00000000E+00
					 0.00000000E+00	 0.00000000E+00	 0.00000000E+00
					 0.00000000E+00	 0.00000000E+00	 0.00000000E+00
					 2.66813000E-05	 2.46377000E-02	 3.20567000E-03
					-2.78119000E-05	 2.46369000E-02	 3.20574000E-03
					 2.74278000E-05	 2.46167000E-02	-3.33243000E-03
					-2.65164000E-05	 2.46165000E-02	-3.33225000E-03
					 0.00000000E+00	 0.00000000E+00	 0.00000000E+00
					 0.00000000E+00	 0.00000000E+00	 0.00000000E+00
					 0.00000000E+00	 0.00000000E+00	 0.00000000E+00
					 0.00000000E+00	 0.00000000E+00	 0.00000000E+00
					 0.00000000E+00	 0.00000000E+00	 0.00000000E+00
					 0.00000000E+00	 0.00000000E+00	 0.00000000E+00
					 0.00000000E+00	 0.00000000E+00	 0.00000000E+00
					 0.00000000E+00	 0.00000000E+00	 0.00000000E+00
					 0.00000000E+00	 0.00000000E+00	 0.00000000E+00
					 0.00000000E+00	 0.00000000E+00	 0.00000000E+00
					 0.00000000E+00	 0.00000000E+00	 0.00000000E+00
					 0.00000000E+00	 0.00000000E+00	 0.00000000E+00
					 2.28490000E-05	 2.46596000E-02	 3.20412000E-03
					-4.62237000E-07	 2.45916000E-02	 3.20159000E-03
					-2.38385000E-05	 2.46593000E-02	 3.20401000E-03
					-6.60945000E-07	 2.46129000E-02	 1.55725000E-03
					 3.91341000E-07	 2.45687000E-02	-6.31635000E-05
					 7.10414000E-07	 2.46030000E-02	-1.68313000E-03
					 2.37173000E-05	 2.46384000E-02	-3.33086000E-03
					 4.24562000E-07	 2.45698000E-02	-3.32780000E-03
					-2.28484000E-05	 2.46381000E-02	-3.33067000E-03
					-3.84367000E-07	 2.46037000E-02	-1.68331000E-03
					-3.18115000E-07	 2.45703000E-02	-6.31652000E-05
					 1.79072000E-07	 2.46141000E-02	 1.55722000E-03
					 8.46830000E-06	-1.25069000E-04	-5.73091000E-05
					-3.01406000E-05	-2.58093000E-04	-2.68816000E-05
					-5.14350000E-05	-3.10529000E-04	 1.04384000E-04
					-7.27681000E-05	-1.65545000E-04	 3.12586000E-04
					-8.53521000E-05	 2.30683000E-04	 5.76516000E-04
					-9.35351000E-05	 9.32718000E-04	 8.75865000E-04
					-9.63874000E-05	 1.95363000E-03	 1.19103000E-03
					-9.74741000E-05	 3.30874000E-03	 1.51334000E-03
					-9.70903000E-05	 4.98568000E-03	 1.83406000E-03
					-9.58033000E-05	 7.00250000E-03	 2.15373000E-03
					-9.05559000E-05	 9.33279000E-03	 2.46012000E-03
					-7.67737000E-05	 1.20075000E-02	 2.74274000E-03
					-6.10987000E-05	 1.49343000E-02	 2.95742000E-03
					-3.16382000E-05	 1.81160000E-02	 3.12004000E-03
					-3.02094000E-05	 2.13225000E-02	 3.19181000E-03
					 2.98835000E-05	 2.13229000E-02	 3.19183000E-03
					 3.17998000E-05	 1.81161000E-02	 3.12017000E-03
					 6.17589000E-05	 1.49338000E-02	 2.95743000E-03
					 7.73311000E-05	 1.20068000E-02	 2.74267000E-03
					 9.09032000E-05	 9.33249000E-03	 2.46014000E-03
					 9.57722000E-05	 7.00245000E-03	 2.15370000E-03
					 9.68109000E-05	 4.98599000E-03	 1.83406000E-03
					 9.70011000E-05	 3.30918000E-03	 1.51332000E-03
					 9.58422000E-05	 1.95419000E-03	 1.19103000E-03
					 9.29664000E-05	 9.33270000E-04	 8.75864000E-04
					 8.48306000E-05	 2.31202000E-04	 5.76519000E-04
					 7.23209000E-05	-1.65111000E-04	 3.12585000E-04
					 5.10935000E-05	-3.10193000E-04	 1.04382000E-04
					 2.99160000E-05	-2.57875000E-04	-2.68841000E-05
					-8.57215000E-06	-1.24967000E-04	-5.73104000E-05
					-8.47813000E-06	-1.25080000E-04	 5.72940000E-05
					 3.01344000E-05	-2.58119000E-04	 2.68570000E-05
					 5.14288000E-05	-3.10586000E-04	-1.04425000E-04
					 7.27738000E-05	-1.65786000E-04	-3.12728000E-04
					 8.53628000E-05	 2.29931000E-04	-5.77099000E-04
					 9.35547000E-05	 9.31112000E-04	-8.77581000E-04
					 9.64073000E-05	 1.95068000E-03	-1.19499000E-03
					 9.75052000E-05	 3.30406000E-03	-1.52112000E-03
					 9.70935000E-05	 4.97879000E-03	-1.84762000E-03
					 9.57830000E-05	 6.99311000E-03	-2.17561000E-03
					 9.05594000E-05	 9.32031000E-03	-2.49284000E-03
					 7.66358000E-05	 1.19923000E-02	-2.78969000E-03
					 6.10549000E-05	 1.49162000E-02	-3.02130000E-03
					 3.09270000E-05	 1.80975000E-02	-3.20472000E-03
					 3.05332000E-05	 2.13003000E-02	-3.29696000E-03
					 8.57875000E-06	-1.24977000E-04	 5.72925000E-05
					-2.99189000E-05	-2.57901000E-04	 2.68554000E-05
					-5.11009000E-05	-3.10250000E-04	-1.04427000E-04
					-7.23449000E-05	-1.65354000E-04	-3.12727000E-04
					-8.48546000E-05	 2.30449000E-04	-5.77097000E-04
					-9.29949000E-05	 9.31662000E-04	-8.77575000E-04
					-9.58501000E-05	 1.95124000E-03	-1.19499000E-03
					-9.70261000E-05	 3.30450000E-03	-1.52112000E-03
					-9.68109000E-05	 4.97910000E-03	-1.84762000E-03
					-9.57949000E-05	 6.99300000E-03	-2.17555000E-03
					-9.08894000E-05	 9.32007000E-03	-2.49288000E-03
					-7.72461000E-05	 1.19914000E-02	-2.78974000E-03
					-6.16775000E-05	 1.49158000E-02	-3.02126000E-03
					-3.11695000E-05	 1.80962000E-02	-3.20392000E-03
					-2.98369000E-05	 2.13016000E-02	-3.29653000E-03
					 0.00000000E+00	 0.00000000E+00	 0.00000000E+00
					 0.00000000E+00	 0.00000000E+00	 0.00000000E+00
					 0.00000000E+00	 0.00000000E+00	 0.00000000E+00
					 0.00000000E+00	 0.00000000E+00	 0.00000000E+00
					 0.00000000E+00	 0.00000000E+00	 0.00000000E+00
					-2.33538000E-07	 2.47592000E-02	 1.59054000E-03
					-3.38906000E-08	 2.46902000E-02	-6.31802000E-05
					 5.00335000E-08	 2.49579000E-02	-6.34691000E-05
					 8.58003000E-08	 2.46893000E-02	-6.31219000E-05
					 2.55987000E-07	 2.47478000E-02	-1.71784000E-03
					-5.46498000E-08	-1.27240000E-04	-6.06918000E-05
					 1.49211000E-05	-2.49652000E-04	-3.50900000E-05
					-1.11794000E-07	-2.45659000E-04	-3.45122000E-05
					-1.51450000E-05	-2.49762000E-04	-3.51108000E-05
					-1.70424000E-07	-2.83804000E-04	 1.00090000E-04
					 3.60607000E-05	-1.38349000E-04	 3.08546000E-04
					-2.20542000E-07	-1.30939000E-04	 3.08185000E-04
					-3.65050000E-05	-1.38565000E-04	 3.08533000E-04
					-2.61773000E-07	 2.74439000E-04	 5.74385000E-04
					 4.63136000E-05	 9.66623000E-04	 8.74287000E-04
					-2.78581000E-07	 9.76615000E-04	 8.73986000E-04
					-4.68766000E-05	 9.66347000E-04	 8.74284000E-04
					-2.72472000E-07	 2.00390000E-03	 1.19081000E-03
					 4.84105000E-05	 3.34258000E-03	 1.51247000E-03
					-2.18568000E-07	 3.35130000E-03	 1.51170000E-03
					-4.88657000E-05	 3.34237000E-03	 1.51250000E-03
					-1.47754000E-07	 5.03848000E-03	 1.83514000E-03
					 4.76952000E-05	 7.03040000E-03	 2.15244000E-03
					 0.00000000E+00	 7.03522000E-03	 2.15092000E-03
					-4.77109000E-05	 7.03041000E-03	 2.15252000E-03
					 1.64426000E-07	 9.38911000E-03	 2.46299000E-03
					 3.94603000E-05	 1.20229000E-02	 2.74062000E-03
					 3.82579000E-07	 1.20138000E-02	 2.73470000E-03
					-3.87942000E-05	 1.20232000E-02	 2.74067000E-03
					 2.16446000E-07	 1.49847000E-02	 2.97386000E-03
					 1.43254000E-05	 1.80831000E-02	 3.11775000E-03
					 4.07685000E-08	 1.80602000E-02	 3.11003000E-03
					-1.42234000E-05	 1.80829000E-02	 3.11763000E-03
					-2.15653000E-07	 2.13992000E-02	 3.19971000E-03
					-3.12121000E-09	-1.22768000E-04	-9.42475000E-09
					-1.51396000E-05	-2.70235000E-04	 5.17078000E-06
					-2.56119000E-09	-2.78319000E-04	-2.76681000E-08
					 1.51331000E-05	-2.70245000E-04	-5.21646000E-06
					 1.09831000E-08	-3.31164000E-04	-3.72768000E-08
					-3.62330000E-05	-1.94760000E-04	 1.64538000E-04
					 2.47772000E-08	-2.04568000E-04	-7.17316000E-08
					 3.62645000E-05	-1.94900000E-04	-1.64680000E-04
					 3.85416000E-08	 1.90298000E-04	-2.60431000E-07
					-4.67404000E-05	 8.95985000E-04	 4.40393000E-04
					 4.68855000E-08	 8.82772000E-04	-7.80339000E-07
					 4.68047000E-05	 8.95160000E-04	-4.41994000E-04
					 5.32506000E-08	 1.90635000E-03	-1.87442000E-06
					-4.86934000E-05	 3.26888000E-03	 7.54894000E-04
					 5.70940000E-08	 3.25335000E-03	-3.73868000E-06
					 4.87711000E-05	 3.26653000E-03	-7.62451000E-04
					 5.23035000E-08	 4.93684000E-03	-6.60780000E-06
					-4.79282000E-05	 6.95785000E-03	 1.07042000E-03
					 4.79586000E-08	 6.93796000E-03	-1.06363000E-05
					 4.79860000E-05	 6.95315000E-03	-1.09189000E-03
					 1.86421000E-08	 9.29244000E-03	-1.61821000E-05
					-3.78728000E-05	 1.19633000E-02	 1.35100000E-03
					 8.51711000E-08	 1.19383000E-02	-2.31813000E-05
					 3.78392000E-05	 1.19558000E-02	-1.39756000E-03
					-4.30331000E-08	 1.49087000E-02	-3.16984000E-05
					-1.78350000E-05	 1.80534000E-02	 1.52945000E-03
					 2.48875000E-07	 1.80048000E-02	-4.07758000E-05
					 1.78056000E-05	 1.80442000E-02	-1.61297000E-03
					-2.60506000E-07	 2.13787000E-02	-5.22145000E-05
					 5.31119000E-08	-1.27251000E-04	 6.06735000E-05
					 1.51405000E-05	-2.49793000E-04	 3.50953000E-05
					 1.07636000E-07	-2.45691000E-04	 3.44983000E-05
					-1.49252000E-05	-2.49684000E-04	 3.50728000E-05
					 1.63162000E-07	-2.83860000E-04	-1.00128000E-04
					 3.65109000E-05	-1.38820000E-04	-3.08691000E-04
					 2.13016000E-07	-1.31193000E-04	-3.08352000E-04
					-3.60835000E-05	-1.38604000E-04	-3.08705000E-04
					 2.53740000E-07	 2.73685000E-04	-5.75055000E-04
					 4.68975000E-05	 9.64712000E-04	-8.76109000E-04
					 2.78196000E-07	 9.74981000E-04	-8.75844000E-04
					-4.63388000E-05	 9.64988000E-04	-8.76111000E-04
					 2.75891000E-07	 2.00094000E-03	-1.19500000E-03
					 4.89018000E-05	 3.33765000E-03	-1.52049000E-03
					 2.35902000E-07	 3.34657000E-03	-1.51974000E-03
					-4.84270000E-05	 3.33786000E-03	-1.52047000E-03
					 1.39823000E-07	 5.03158000E-03	-1.84911000E-03
					 4.77130000E-05	 7.02092000E-03	-2.17459000E-03
					 4.69078000E-09	 7.02567000E-03	-2.17302000E-03
					-4.77109000E-05	 7.02087000E-03	-2.17452000E-03
					-1.86764000E-07	 9.37671000E-03	-2.49633000E-03
					 3.87722000E-05	 1.20079000E-02	-2.78785000E-03
					-3.20987000E-07	 1.19982000E-02	-2.78163000E-03
					-3.94039000E-05	 1.20074000E-02	-2.78776000E-03
					-3.08229000E-07	 1.49667000E-02	-3.03862000E-03
					 1.37794000E-05	 1.80632000E-02	-3.20140000E-03
					-3.70909000E-08	 1.80397000E-02	-3.19326000E-03
					-1.39454000E-05	 1.80627000E-02	-3.20124000E-03
					 2.30557000E-07	 2.13782000E-02	-3.30468000E-03
					 1.21434000E-09	-1.22661000E-04	-1.08941000E-08
					-1.50270000E-05	-2.70025000E-04	-5.19646000E-06
					-1.33828000E-09	-2.78098000E-04	-2.96406000E-08
					 1.50250000E-05	-2.70016000E-04	 5.14669000E-06
					-1.82135000E-08	-3.30831000E-04	-3.88409000E-08
					-3.60538000E-05	-1.94464000E-04	-1.64666000E-04
					-3.16611000E-08	-2.04130000E-04	-7.14378000E-08
					 3.60065000E-05	-1.94324000E-04	 1.64524000E-04
					-4.62240000E-08	 1.90811000E-04	-2.59031000E-07
					-4.65241000E-05	 8.95720000E-04	-4.41985000E-04
					-4.62728000E-08	 8.83341000E-04	-7.76525000E-07
					 4.64561000E-05	 8.96545000E-04	 4.40392000E-04
					-5.20303000E-08	 1.90689000E-03	-1.87334000E-06
					-4.85289000E-05	 3.26700000E-03	-7.62467000E-04
					-4.27040000E-08	 3.25383000E-03	-3.73556000E-06
					 4.84665000E-05	 3.26935000E-03	 7.54905000E-04
					-5.59657000E-08	 4.93710000E-03	-6.62282000E-06
					-4.79782000E-05	 6.95314000E-03	-1.09194000E-03
					-4.01416000E-08	 6.93805000E-03	-1.06477000E-05
					 4.79119000E-05	 6.95787000E-03	 1.07047000E-03
					-4.50303000E-08	 9.29205000E-03	-1.61936000E-05
					-3.81595000E-05	 1.19552000E-02	-1.39752000E-03
					-3.20038000E-08	 1.19379000E-02	-2.31131000E-05
					 3.81913000E-05	 1.19628000E-02	 1.35099000E-03
					 6.46261000E-08	 1.49078000E-02	-3.18930000E-05
					-1.78951000E-05	 1.80440000E-02	-1.61300000E-03
					-1.87745000E-07	 1.80056000E-02	-4.14220000E-05
					 1.78950000E-05	 1.80538000E-02	 1.52964000E-03
					 1.79365000E-07	 2.13785000E-02	-5.25004000E-05
					 0.00000000E+00	-1.23170000E-04	-1.11102000E-08
					-5.71166000E-08	-2.57426000E-04	-2.14637000E-06
					-1.46609000E-09	-2.69520000E-04	-2.47912000E-08
					-2.40517000E-09	-2.65319000E-04	-2.37496000E-08
					-2.87115000E-09	-2.69631000E-04	-2.39499000E-08
					 5.26352000E-08	-2.57439000E-04	 2.10981000E-06
					-3.34609000E-09	-3.05849000E-04	-3.60421000E-08
					-1.12742000E-07	-1.59289000E-04	 1.60671000E-04
					-1.93129000E-08	-1.76563000E-04	-8.02899000E-08
					-4.81647000E-09	-1.68008000E-04	-8.67995000E-08
					 1.10041000E-08	-1.76781000E-04	-8.05090000E-08
					 1.04113000E-07	-1.59436000E-04	-1.60842000E-04
					-3.03001000E-09	 2.31909000E-04	-3.02648000E-07
					-1.40226000E-07	 9.42349000E-04	 4.38879000E-04
					-2.68552000E-08	 9.19267000E-04	-8.39423000E-07
					-3.08762000E-09	 9.31622000E-04	-8.62016000E-07
					 2.39563000E-08	 9.18983000E-04	-8.41157000E-07
					 1.37495000E-07	 9.41507000E-04	-4.40631000E-04
					 3.37327000E-09	 1.95279000E-03	-1.98477000E-06
					-1.12536000E-07	 3.31741000E-03	 7.54119000E-04
					-2.33879000E-08	 3.29289000E-03	-3.85570000E-06
					-1.06230000E-09	 3.30815000E-03	-3.90552000E-06
					 3.00201000E-08	 3.29264000E-03	-3.85613000E-06
					 1.17669000E-07	 3.31503000E-03	-7.61968000E-04