<?xml version="1.0"?>
<VTKFile type="UnstructuredGrid" version="0.1" byte_order="LittleEndian">
	<UnstructuredGrid>
		<Piece NumberOfPoints="261" NumberOfCells="32">
			<Points>
				<DataArray type="Float64" NumberOfComponents="3" format="ascii">
					 0.00000000E+00	 0.00000000E+00	 0.00000000E+00
					 1.00000000E+00	 0.00000000E+00	 0.00000000E+00
					 1.00000000E+00	 1.00000000E+00	 0.00000000E+00
					 0.00000000E+00	 1.00000000E+00	 0.00000000E+00
					 0.00000000E+00	 0.00000000E+00	 8.00000000E+00
					 1.00000000E+00	 0.00000000E+00	 8.00000000E+00
					 1.00000000E+00	 1.00000000E+00	 8.00000000E+00
					 0.00000000E+00	 1.00000000E+00	 8.00000000E+00
					 2.50000000E-01	 0.00000000E+00	 0.00000000E+00
					 5.00000000E-01	 0.00000000E+00	 0.00000000E+00
					 7.50000000E-01	 0.00000000E+00	 0.00000000E+00
					 1.00000000E+00	 2.50000000E-01	 0.00000000E+00
					 1.00000000E+00	 5.00000000E-01	 0.00000000E+00
					 1.00000000E+00	 7.50000000E-01	 0.00000000E+00
					 7.50000000E-01	 1.00000000E+00	 0.00000000E+00
					 5.00000000E-01	 1.00000000E+00	 0.00000000E+00
					 2.50000000E-01	 1.00000000E+00	 0.00000000E+00
					 0.00000000E+00	 7.50000000E-01	 0.00000000E+00
					 0.00000000E+00	 5.00000000E-01	 0.00000000E+00
					 0.00000000E+00	 2.50000000E-01	 0.00000000E+00
					 2.50000000E-01	 0.00000000E+00	 8.00000000E+00
					 5.00000000E-01	 0.00000000E+00	 8.00000000E+00
					 7.50000000E-01	 0.00000000E+00	 8.00000000E+00
					 1.00000000E+00	 2.50000000E-01	 8.00000000E+00
					 1.00000000E+00	 5.00000000E-01	 8.00000000E+00
					 1.00000000E+00	 7.50000000E-01	 8.00000000E+00
					 7.50000000E-01	 1.00000000E+00	 8.00000000E+00
					 5.00000000E-01	 1.00000000E+00	 8.00000000E+00
					 2.50000000E-01	 1.00000000E+00	 8.00000000E+00
					 0.00000000E+00	 7.50000000E-01	 8.00000000E+00
					 0.00000000E+00	 5.00000000E-01	 8.00000000E+00
					 0.00000000E+00	 2.50000000E-01	 8.00000000E+00
					 1.00000000E+00	 0.00000000E+00	 5.00000000E-01
					 1.00000000E+00	 0.00000000E+00	 1.00000000E+00
					 1.00000000E+00	 0.00000000E+00	 1.50000000E+00
					 1.00000000E+00	 0.00000000E+00	 2.00000000E+00
					 1.00000000E+00	 0.00000000E+00	 2.50000000E+00
					 1.00000000E+00	 0.00000000E+00	 3.00000000E+00
					 1.00000000E+00	 0.00000000E+00	 3.50000000E+00
					 1.00000000E+00	 0.00000000E+00	 4.00000000E+00
					 1.00000000E+00	 0.00000000E+00	 4.50000000E+00
					 1.00000000E+00	 0.00000000E+00	 5.00000000E+00
					 1.00000000E+00	 0.00000000E+00	 5.50000000E+00
					 1.00000000E+00	 0.00000000E+00	 6.00000000E+00
					 1.00000000E+00	 0.00000000E+00	 6.50000000E+00
					 1.00000000E+00	 0.00000000E+00	 7.00000000E+00
					 1.00000000E+00	 0.00000000E+00	 7.50000000E+00
					 0.00000000E+00	 0.00000000E+00	 7.50000000E+00
					 0.00000000E+00	 0.00000000E+00	 7.00000000E+00
					 0.00000000E+00	 0.00000000E+00	 6.50000000E+00
					 0.00000000E+00	 0.00000000E+00	 6.00000000E+00
					 0.00000000E+00	 0.00000000E+00	 5.50000000E+00
					 0.00000000E+00	 0.00000000E+00	 5.00000000E+00
					 0.00000000E+00	 0.00000000E+00	 4.50000000E+00
					 0.00000000E+00	 0.00000000E+00	 4.00000000E+00
					 0.00000000E+00	 0.00000000E+00	 3.50000000E+00
					 0.00000000E+00	 0.00000000E+00	 3.00000000E+00
					 0.00000000E+00	 0.00000000E+00	 2.50000000E+00
					 0.00000000E+00	 0.00000000E+00	 2.00000000E+00
					 0.00000000E+00	 0.00000000E+00	 1.50000000E+00
					 0.00000000E+00	 0.00000000E+00	 1.00000000E+00
					 0.00000000E+00	 0.00000000E+00	 5.00000000E-01
					 1.00000000E+00	 1.00000000E+00	 5.00000000E-01
					 1.00000000E+00	 1.00000000E+00	 1.00000000E+00
					 1.00000000E+00	 1.00000000E+00	 1.50000000E+00
					 1.00000000E+00	 1.00000000E+00	 2.00000000E+00
					 1.00000000E+00	 1.00000000E+00	 2.50000000E+00
					 1.00000000E+00	 1.00000000E+00	 3.00000000E+00
					 1.00000000E+00	 1.00000000E+00	 3.50000000E+00
					 1.00000000E+00	 1.00000000E+00	 4.00000000E+00
					 1.00000000E+00	 1.00000000E+00	 4.50000000E+00
					 1.00000000E+00	 1.00000000E+00	 5.00000000E+00
					 1.00000000E+00	 1.00000000E+00	 5.50000000E+00
					 1.00000000E+00	 1.00000000E+00	 6.00000000E+00
					 1.00000000E+00	 1.00000000E+00	 6.50000000E+00
					 1.00000000E+00	 1.00000000E+00	 7.00000000E+00
					 1.00000000E+00	 1.00000000E+00	 7.50000000E+00
					 0.00000000E+00	 1.00000000E+00	 5.00000000E-01
					 0.00000000E+00	 1.00000000E+00	 1.00000000E+00
					 0.00000000E+00	 1.00000000E+00	 1.50000000E+00
					 0.00000000E+00	 1.00000000E+00	 2.00000000E+00
					 0.00000000E+00	 1.00000000E+00	 2.50000000E+00
					 0.00000000E+00	 1.00000000E+00	 3.00000000E+00
					 0.00000000E+00	 1.00000000E+00	 3.50000000E+00
					 0.00000000E+00	 1.00000000E+00	 4.00000000E+00
					 0.00000000E+00	 1.00000000E+00	 4.50000000E+00
					 0.00000000E+00	 1.00000000E+00	 5.00000000E+00
					 0.00000000E+00	 1.00000000E+00	 5.50000000E+00
					 0.00000000E+00	 1.00000000E+00	 6.00000000E+00
					 0.00000000E+00	 1.00000000E+00	 6.50000000E+00
					 0.00000000E+00	 1.00000000E+00	 7.00000000E+00
					 0.00000000E+00	 1.00000000E+00	 7.50000000E+00
					 5.00000000E-01	 2.50000000E-01	 0.00000000E+00
					 2.50000000E-01	 5.00000000E-01	 0.00000000E+00
					 5.00000000E-01	 5.00000000E-01	 0.00000000E+00
					 7.50000000E-01	 5.00000000E-01	 0.00000000E+00
					 5.00000000E-01	 7.50000000E-01	 0.00000000E+00
					 5.00000000E-01	 2.50000000E-01	 8.00000000E+00
					 2.50000000E-01	 5.00000000E-01	 8.00000000E+00
					 5.00000000E-01	 5.00000000E-01	 8.00000000E+00
					 7.50000000E-01	 5.00000000E-01	 8.00000000E+00
					 5.00000000E-01	 7.50000000E-01	 8.00000000E+00
					 5.00000000E-01	 0.00000000E+00	 5.00000000E-01
					 2.50000000E-01	 0.00000000E+00	 1.00000000E+00
					 5.00000000E-01	 0.00000000E+00	 1.00000000E+00
					 7.50000000E-01	 0.00000000E+00	 1.00000000E+00
					 5.00000000E-01	 0.00000000E+00	 1.50000000E+00
					 2.50000000E-01	 0.00000000E+00	 2.00000000E+00
					 5.00000000E-01	 0.00000000E+00	 2.00000000E+00
					 7.50000000E-01	 0.00000000E+00	 2.00000000E+00
					 5.00000000E-01	 0.00000000E+00	 2.50000000E+00
					 2.50000000E-01	 0.00000000E+00	 3.00000000E+00
					 5.00000000E-01	 0.00000000E+00	 3.00000000E+00
					 7.50000000E-01	 0.00000000E+00	 3.00000000E+00
					 5.00000000E-01	 0.00000000E+00	 3.50000000E+00
					 2.50000000E-01	 0.00000000E+00	 4.00000000E+00
					 5.00000000E-01	 0.00000000E+00	 4.00000000E+00
					 7.50000000E-01	 0.00000000E+00	 4.00000000E+00
					 5.00000000E-01	 0.00000000E+00	 4.50000000E+00
					 2.50000000E-01	 0.00000000E+00	 5.00000000E+00
					 5.00000000E-01	 0.00000000E+00	 5.00000000E+00
					 7.50000000E-01	 0.00000000E+00	 5.00000000E+00
					 5.00000000E-01	 0.00000000E+00	 5.50000000E+00
					 2.50000000E-01	 0.00000000E+00	 6.00000000E+00
					 5.00000000E-01	 0.00000000E+00	 6.00000000E+00
					 7.50000000E-01	 0.00000000E+00	 6.00000000E+00
					 5.00000000E-01	 0.00000000E+00	 6.50000000E+00
					 2.50000000E-01	 0.00000000E+00	 7.00000000E+00
					 5.00000000E-01	 0.00000000E+00	 7.00000000E+00
					 7.50000000E-01	 0.00000000E+00	 7.00000000E+00
					 5.00000000E-01	 0.00000000E+00	 7.50000000E+00
					 1.00000000E+00	 5.00000000E-01	 5.00000000E-01
					 1.00000000E+00	 2.50000000E-01	 1.00000000E+00
					 1.00000000E+00	 5.00000000E-01	 1.00000000E+00
					 1.00000000E+00	 7.50000000E-01	 1.00000000E+00
					 1.00000000E+00	 5.00000000E-01	 1.50000000E+00
					 1.00000000E+00	 2.50000000E-01	 2.00000000E+00
					 1.00000000E+00	 5.00000000E-01	 2.00000000E+00
					 1.00000000E+00	 7.50000000E-01	 2.00000000E+00
					 1.00000000E+00	 5.00000000E-01	 2.50000000E+00
					 1.00000000E+00	 2.50000000E-01	 3.00000000E+00
					 1.00000000E+00	 5.00000000E-01	 3.00000000E+00
					 1.00000000E+00	 7.50000000E-01	 3.00000000E+00
					 1.00000000E+00	 5.00000000E-01	 3.50000000E+00
					 1.00000000E+00	 2.50000000E-01	 4.00000000E+00
					 1.00000000E+00	 5.00000000E-01	 4.00000000E+00
					 1.00000000E+00	 7.50000000E-01	 4.00000000E+00
					 1.00000000E+00	 5.00000000E-01	 4.50000000E+00
					 1.00000000E+00	 2.50000000E-01	 5.00000000E+00
					 1.00000000E+00	 5.00000000E-01	 5.00000000E+00
					 1.00000000E+00	 7.50000000E-01	 5.00000000E+00
					 1.00000000E+00	 5.00000000E-01	 5.50000000E+00
					 1.00000000E+00	 2.50000000E-01	 6.00000000E+00
					 1.00000000E+00	 5.00000000E-01	 6.00000000E+00
					 1.00000000E+00	 7.50000000E-01	 6.00000000E+00
					 1.00000000E+00	 5.00000000E-01	 6.50000000E+00
					 1.00000000E+00	 2.50000000E-01	 7.00000000E+00
					 1.00000000E+00	 5.00000000E-01	 7.00000000E+00
					 1.00000000E+00	 7.50000000E-01	 7.00000000E+00
					 1.00000000E+00	 5.00000000E-01	 7.50000000E+00
					 5.00000000E-01	 1.00000000E+00	 5.00000000E-01
					 7.50000000E-01	 1.00000000E+00	 1.00000000E+00
					 5.00000000E-01	 1.00000000E+00	 1.00000000E+00
					 2.50000000E-01	 1.00000000E+00	 1.00000000E+00
					 5.00000000E-01	 1.00000000E+00	 1.50000000E+00
					 7.50000000E-01	 1.00000000E+00	 2.00000000E+00
					 5.00000000E-01	 1.00000000E+00	 2.00000000E+00
					 2.50000000E-01	 1.00000000E+00	 2.00000000E+00
					 5.00000000E-01	 1.00000000E+00	 2.50000000E+00
					 7.50000000E-01	 1.00000000E+00	 3.00000000E+00
					 5.00000000E-01	 1.00000000E+00	 3.00000000E+00
					 2.50000000E-01	 1.00000000E+00	 3.00000000E+00
					 5.00000000E-01	 1.00000000E+00	 3.50000000E+00
					 7.50000000E-01	 1.00000000E+00	 4.00000000E+00
					 5.00000000E-01	 1.00000000E+00	 4.00000000E+00
					 2.50000000E-01	 1.00000000E+00	 4.00000000E+00
					 5.00000000E-01	 1.00000000E+00	 4.50000000E+00
					 7.50000000E-01	 1.00000000E+00	 5.00000000E+00
					 5.00000000E-01	 1.00000000E+00	 5.00000000E+00
					 2.50000000E-01	 1.00000000E+00	 5.00000000E+00
					 5.00000000E-01	 1.00000000E+00	 5.50000000E+00
					 7.50000000E-01	 1.00000000E+00	 6.00000000E+00
					 5.00000000E-01	 1.00000000E+00	 6.00000000E+00
					 2.50000000E-01	 1.00000000E+00	 6.00000000E+00
					 5.00000000E-01	 1.00000000E+00	 6.50000000E+00
					 7.50000000E-01	 1.00000000E+00	 7.00000000E+00
					 5.00000000E-01	 1.00000000E+00	 7.00000000E+00
					 2.50000000E-01	 1.00000000E+00	 7.00000000E+00
					 5.00000000E-01	 1.00000000E+00	 7.50000000E+00
					 0.00000000E+00	 5.00000000E-01	 5.00000000E-01
					 0.00000000E+00	 7.50000000E-01	 1.00000000E+00
					 0.00000000E+00	 5.00000000E-01	 1.00000000E+00
					 0.00000000E+00	 2.50000000E-01	 1.00000000E+00
					 0.00000000E+00	 5.00000000E-01	 1.50000000E+00
					 0.00000000E+00	 7.50000000E-01	 2.00000000E+00
					 0.00000000E+00	 5.00000000E-01	 2.00000000E+00
					 0.00000000E+00	 2.50000000E-01	 2.00000000E+00
					 0.00000000E+00	 5.00000000E-01	 2.50000000E+00
					 0.00000000E+00	 7.50000000E-01	 3.00000000E+00
					 0.00000000E+00	 5.00000000E-01	 3.00000000E+00
					 0.00000000E+00	 2.50000000E-01	 3.00000000E+00
					 0.00000000E+00	 5.00000000E-01	 3.50000000E+00
					 0.00000000E+00	 7.50000000E-01	 4.00000000E+00
					 0.00000000E+00	 5.00000000E-01	 4.00000000E+00
					 0.00000000E+00	 2.50000000E-01	 4.00000000E+00
					 0.00000000E+00	 5.00000000E-01	 4.50000000E+00
					 0.00000000E+00	 7.50000000E-01	 5.00000000E+00
					 0.00000000E+00	 5.00000000E-01	 5.00000000E+00
					 0.00000000E+00	 2.50000000E-01	 5.00000000E+00
					 0.00000000E+00	 5.00000000E-01	 5.50000000E+00
					 0.00000000E+00	 7.50000000E-01	 6.00000000E+00
					 0.00000000E+00	 5.00000000E-01	 6.00000000E+00
					 0.00000000E+00	 2.50000000E-01	 6.00000000E+00
					 0.00000000E+00	 5.00000000E-01	 6.50000000E+00
					 0.00000000E+00	 7.50000000E-01	 7.00000000E+00
					 0.00000000E+00	 5.00000000E-01	 7.00000000E+00
					 0.00000000E+00	 2.50000000E-01	 7.00000000E+00
					 0.00000000E+00	 5.00000000E-01	 7.50000000E+00
					 5.00000000E-01	 5.00000000E-01	 5.00000000E-01
					 5.00000000E-01	 2.50000000E-01	 1.00000000E+00
					 2.50000000E-01	 5.00000000E-01	 1.00000000E+00
					 5.00000000E-01	 5.00000000E-01	 1.00000000E+00
					 7.50000000E-01	 5.00000000E-01	 1.00000000E+00
					 5.00000000E-01	 7.50000000E-01	 1.00000000E+00
					 5.00000000E-01	 5.00000000E-01	 1.50000000E+00
					 5.00000000E-01	 2.50000000E-01	 2.00000000E+00
					 2.50000000E-01	 5.00000000E-01	 2.00000000E+00
					 5.00000000E-01	 5.00000000E-01	 2.00000000E+00
					 7.50000000E-01	 5.00000000E-01	 2.00000000E+00
					 5.00000000E-01	 7.50000000E-01	 2.00000000E+00
					 5.00000000E-01	 5.00000000E-01	 2.50000000E+00
					 5.00000000E-01	 2.50000000E-01	 3.00000000E+00
					 2.50000000E-01	 5.00000000E-01	 3.00000000E+00
					 5.00000000E-01	 5.00000000E-01	 3.00000000E+00
					 7.50000000E-01	 5.00000000E-01	 3.00000000E+00
					 5.00000000E-01	 7.50000000E-01	 3.00000000E+00
					 5.00000000E-01	 5.00000000E-01	 3.50000000E+00
					 5.00000000E-01	 2.50000000E-01	 4.00000000E+00
					 2.50000000E-01	 5.00000000E-01	 4.00000000E+00
					 5.00000000E-01	 5.00000000E-01	 4.00000000E+00
					 7.50000000E-01	 5.00000000E-01	 4.00000000E+00
					 5.00000000E-01	 7.50000000E-01	 4.00000000E+00
					 5.00000000E-01	 5.00000000E-01	 4.50000000E+00
					 5.00000000E-01	 2.50000000E-01	 5.00000000E+00
					 2.50000000E-01	 5.00000000E-01	 5.00000000E+00
					 5.00000000E-01	 5.00000000E-01	 5.00000000E+00
					 7.50000000E-01	 5.00000000E-01	 5.00000000E+00
					 5.00000000E-01	 7.50000000E-01	 5.00000000E+00
					 5.00000000E-01	 5.00000000E-01	 5.50000000E+00
					 5.00000000E-01	 2.50000000E-01	 6.00000000E+00
					 2.50000000E-01	 5.00000000E-01	 6.00000000E+00
					 5.00000000E-01	 5.00000000E-01	 6.00000000E+00
					 7.50000000E-01	 5.00000000E-01	 6.00000000E+00
					 5.00000000E-01	 7.50000000E-01	 6.00000000E+00
					 5.00000000E-01	 5.00000000E-01	 6.50000000E+00
					 5.00000000E-01	 2.50000000E-01	 7.00000000E+00
					 2.50000000E-01	 5.00000000E-01	 7.00000000E+00
					 5.00000000E-01	 5.00000000E-01	 7.00000000E+00
					 7.50000000E-01	 5.00000000E-01	 7.00000000E+00
					 5.00000000E-01	 7.50000000E-01	 7.00000000E+00
					 5.00000000E-01	 5.00000000E-01	 7.50000000E+00

				</DataArray>
			</Points>
			<Cells>
				<DataArray type="Int32" Name="connectivity" format="ascii">
					0 9 94 18 60 104 221 191 8 92 93 19 103 219 220 192 61 102 218 189 9 1 12 94 104 33 133 221 10 11 95 92 105 132 222 219 102 32 131 218 18 94 15 3 191 221 162 78 93 96 16 17 220 223 163 190 189 218 160 77 94 12 2 15 221 133 63 162 95 13 14 96 222 134 161 223 218 131 62 160 60 104 221 191 58 108 227 195 103 219 220 192 107 225 226 196 59 106 224 193 104 33 133 221 108 35 137 227 105 132 222 219 109 136 228 225 106 34 135 224 191 221 162 78 195 227 166 80 220 223 163 190 226 229 167 194 193 224 164 79 221 133 63 162 227 137 65 166 222 134 161 223 228 138 165 229 224 135 64 164 58 108 227 195 56 112 233 199 107 225 226 196 111 231 232 200 57 110 230 197 108 35 137 227 112 37 141 233 109 136 228 225 113 140 234 231 110 36 139 230 195 227 166 80 199 233 170 82 226 229 167 194 232 235 171 198 197 230 168 81 227 137 65 166 233 141 67 170 228 138 165 229 234 142 169 235 230 139 66 168 56 112 233 199 54 116 239 203 111 231 232 200 115 237 238 204 55 114 236 201 112 37 141 233 116 39 145 239 113 140 234 231 117 144 240 237 114 38 143 236 199 233 170 82 203 239 174 84 232 235 171 198 238 241 175 202 201 236 172 83 233 141 67 170 239 145 69 174 234 142 169 235 240 146 173 241 236 143 68 172 54 116 239 203 52 120 245 207 115 237 238 204 119 243 244 208 53 118 242 205 116 39 145 239 120 41 149 245 117 144 240 237 121 148 246 243 118 40 147 242 203 239 174 84 207 245 178 86 238 241 175 202 244 247 179 206 205 242 176 85 239 145 69 174 245 149 71 178 240 146 173 241 246 150 177 247 242 147 70 176 52 120 245 207 50 124 251 211 119 243 244 208 123 249 250 212 51 122 248 209 120 41 149 245 124 43 153 251 121 148 246 243 125 152 252 249 122 42 151 248 207 245 178 86 211 251 182 88 244 247 179 206 250 253 183 210 209 248 180 87 245 149 71 178 251 153 73 182 246 150 177 247 252 154 181 253 248 151 72 180 50 124 251 211 48 128 257 215 123 249 250 212 127 255 256 216 49 126 254 213 124 43 153 251 128 45 157 257 125 152 252 249 129 156 258 255 126 44 155 254 211 251 182 88 215 257 186 90 250 253 183 210 256 259 187 214 213 254 184 89 251 153 73 182 257 157 75 186 252 154 181 253 258 158 185 259 254 155 74 184 48 128 257 215 4 21 99 30 127 255 256 216 20 97 98 31 47 130 260 217 128 45 157 257 21 5 24 99 129 156 258 255 22 23 100 97 130 46 159 260 215 257 186 90 30 99 27 7 256 259 187 214 98 101 28 29 217 260 188 91 257 157 75 186 99 24 6 27 258 158 185 259 100 25 26 101 260 159 76 188 
				</DataArray>
				<DataArray type="Int32" Name="offsets" format="ascii">
					20 40 60 80 100 120 140 160 180 200 220 240 260 280 300 320 340 360 380 400 420 440 460 480 500 520 540 560 580 600 620 640 
				</DataArray>
				<DataArray type="UInt8" Name="types" format="ascii">
					25 25 25 25 25 25 25 25 25 25 25 25 25 25 25 25 25 25 25 25 25 25 25 25 25 25 25 25 25 25 25 25 
				</DataArray>
			</Cells>
			<PointData>
				<DataArray type="Float32" Name="U" NumberOfComponents="3" ComponentName0="D1" ComponentName1="D2" ComponentName2="D3" format="ascii">
					 0.00000000E+00	 0.00000000E+00	 0.00000000E+00
					 0.00000000E+00	 0.00000000E+00	 0.00000000E+00
					 0.00000000E+00	 0.00000000E+00	 0.00000000E+00
					 0.00000000E+00	 0.00000000E+00	 0.00000000E+00
					 3.78973000E-05	 4.32988000E-02	 3.97471000E-03
					-3.69676000E-05	 4.32991000E-02	 3.97412000E-03
					 3.72479000E-05	 4.32657000E-02	-4.23684000E-03
					-3.78584000E-05	 4.32650000E-02	-4.23666000E-03
					 0.00000000E+00	 0.00000000E+00	 0.00000000E+00
					 0.00000000E+00	 0.00000000E+00	 0.00000000E+00
					 0.00000000E+00	 0.00000000E+00	 0.00000000E+00
					 0.00000000E+00	 0.00000000E+00	 0.00000000E+00
					 0.00000000E+00	 0.00000000E+00	 0.00000000E+00
					 0.00000000E+00	 0.00000000E+00	 0.00000000E+00
					 0.00000000E+00	 0.00000000E+00	 0.00000000E+00
					 0.00000000E+00	 0.00000000E+00	 0.00000000E+00
					 0.00000000E+00	 0.00000000E+00	 0.00000000E+00
					 0.00000000E+00	 0.00000000E+00	 0.00000000E+00
					 0.00000000E+00	 0.00000000E+00	 0.00000000E+00
					 0.00000000E+00	 0.00000000E+00	 0.00000000E+00
					 2.94820000E-05	 4.33322000E-02	 3.98156000E-03
					 3.42650000E-07	 4.32860000E-02	 3.98454000E-03
					-2.87145000E-05	 4.33322000E-02	 3.98130000E-03
					-1.89299000E-06	 4.32729000E-02	 1.90590000E-03
					-8.43180000E-08	 4.32330000E-02	-1.30464000E-04
					 1.86844000E-06	 4.32564000E-02	-2.16722000E-03
					 2.88980000E-05	 4.32988000E-02	-4.24382000E-03
					-2.53663000E-07	 4.32526000E-02	-4.24658000E-03
					-2.94580000E-05	 4.32985000E-02	-4.24370000E-03
					-2.28993000E-06	 4.32560000E-02	-2.16753000E-03
					-1.00530000E-07	 4.32328000E-02	-1.30680000E-04
					 2.22572000E-06	 4.32726000E-02	 1.90621000E-03
					-1.55190000E-04	 2.54586000E-04	 4.61029000E-04
					-1.18012000E-04	 9.37921000E-04	 9.34977000E-04
					-1.33288000E-04	 2.15216000E-03	 1.38941000E-03
					-1.15921000E-04	 3.77877000E-03	 1.80728000E-03
					-1.04466000E-04	 5.83404000E-03	 2.17226000E-03
					-8.63309000E-05	 8.22217000E-03	 2.48577000E-03
					-7.26899000E-05	 1.09000000E-02	 2.74163000E-03
					-6.26930000E-05	 1.38053000E-02	 2.95774000E-03
					-5.84314000E-05	 1.69027000E-02	 3.14811000E-03
					-5.63947000E-05	 2.01969000E-02	 3.32983000E-03
					-5.32072000E-05	 2.36659000E-02	 3.50044000E-03
					-4.46812000E-05	 2.73431000E-02	 3.65866000E-03
					-4.01480000E-05	 3.11525000E-02	 3.77951000E-03
					-2.63623000E-05	 3.51364000E-02	 3.89302000E-03
					-4.20891000E-05	 3.91555000E-02	 3.96023000E-03
					 4.22661000E-05	 3.91553000E-02	 3.96044000E-03
					 2.63034000E-05	 3.51368000E-02	 3.89317000E-03
					 3.99741000E-05	 3.11528000E-02	 3.77977000E-03
					 4.49968000E-05	 2.73427000E-02	 3.65877000E-03
					 5.37496000E-05	 2.36653000E-02	 3.50046000E-03
					 5.67692000E-05	 2.01965000E-02	 3.32983000E-03
					 5.84731000E-05	 1.69027000E-02	 3.14811000E-03
					 6.24699000E-05	 1.38055000E-02	 2.95773000E-03
					 7.23092000E-05	 1.09004000E-02	 2.74163000E-03
					 8.59030000E-05	 8.22259000E-03	 2.48577000E-03
					 1.04070000E-04	 5.83444000E-03	 2.17226000E-03
					 1.15602000E-04	 3.77907000E-03	 1.80728000E-03
					 1.33072000E-04	 2.15237000E-03	 1.38941000E-03
					 1.17883000E-04	 9.38041000E-04	 9.34975000E-04
					 1.55137000E-04	 2.54635000E-04	 4.61027000E-04
					 1.54787000E-04	 2.53459000E-04	-4.60014000E-04
					 1.17583000E-04	 9.35550000E-04	-9.33826000E-04
					 1.32826000E-04	 2.14766000E-03	-1.38991000E-03
					 1.15455000E-04	 3.77156000E-03	-1.81179000E-03
					 1.03988000E-04	 5.82398000E-03	-2.18375000E-03
					 8.58693000E-05	 8.20914000E-03	-2.50724000E-03
					 7.22393000E-05	 1.08843000E-02	-2.77596000E-03
					 6.22605000E-05	 1.37870000E-02	-3.00753000E-03
					 5.79854000E-05	 1.68820000E-02	-3.21569000E-03
					 5.59729000E-05	 2.01737000E-02	-3.41777000E-03
					 5.28372000E-05	 2.36402000E-02	-3.61131000E-03
					 4.43886000E-05	 2.73150000E-02	-3.79559000E-03
					 3.97884000E-05	 3.11225000E-02	-3.94424000E-03
					 2.61315000E-05	 3.51043000E-02	-4.08832000E-03
					 4.19032000E-05	 3.91219000E-02	-4.18814000E-03
					-1.54739000E-04	 2.53507000E-04	-4.60008000E-04
					-1.17472000E-04	 9.35668000E-04	-9.33827000E-04
					-1.32633000E-04	 2.14787000E-03	-1.38991000E-03
					-1.15162000E-04	 3.77186000E-03	-1.81178000E-03
					-1.03605000E-04	 5.82437000E-03	-2.18375000E-03
					-8.54352000E-05	 8.20956000E-03	-2.50723000E-03
					-7.18524000E-05	 1.08846000E-02	-2.77597000E-03
					-6.20484000E-05	 1.37872000E-02	-3.00754000E-03
					-5.80679000E-05	 1.68820000E-02	-3.21569000E-03
					-5.63718000E-05	 2.01733000E-02	-3.41777000E-03
					-5.34119000E-05	 2.36397000E-02	-3.61123000E-03
					-4.46773000E-05	 2.73146000E-02	-3.79552000E-03
					-3.96936000E-05	 3.11227000E-02	-3.94453000E-03
					-2.59255000E-05	 3.51046000E-02	-4.08879000E-03
					-4.20118000E-05	 3.91220000E-02	-4.18830000E-03
					 0.00000000E+00	 0.00000000E+00	 0.00000000E+00
					 0.00000000E+00	 0.00000000E+00	 0.00000000E+00
					 0.00000000E+00	 0.00000000E+00	 0.00000000E+00
					 0.00000000E+00	 0.00000000E+00	 0.00000000E+00
					 0.00000000E+00	 0.00000000E+00	 0.00000000E+00
					 1.71730000E-07	 4.34180000E-02	 1.94293000E-03
					 1.60942000E-08	 4.33477000E-02	-1.30968000E-04
					-3.81347000E-08	 4.35697000E-02	-1.31373000E-04
					-1.27979000E-07	 4.33479000E-02	-1.30888000E-04
					-1.60960000E-07	 4.34009000E-02	-2.20585000E-03
					-2.79687000E-08	 3.21327000E-04	 4.47032000E-04
					 5.83262000E-05	 9.93995000E-04	 9.39952000E-04
					-6.37411000E-08	 1.00661000E-03	 9.46854000E-04
					-5.84543000E-05	 9.93935000E-04	 9.39940000E-04
					-1.09367000E-07	 2.21601000E-03	 1.38986000E-03
					 5.77393000E-05	 3.82342000E-03	 1.81133000E-03
					-1.57629000E-07	 3.83995000E-03	 1.81143000E-03
					-5.80563000E-05	 3.82327000E-03	 1.81132000E-03
					-1.97132000E-07	 5.88577000E-03	 2.17537000E-03
					 4.28059000E-05	 8.25447000E-03	 2.48926000E-03
					-2.10926000E-07	 8.26435000E-03	 2.48865000E-03
					-4.32307000E-05	 8.25427000E-03	 2.48926000E-03
					-1.86554000E-07	 1.09378000E-02	 2.74435000E-03
					 3.11938000E-05	 1.38259000E-02	 2.95845000E-03
					-1.08428000E-07	 1.38310000E-02	 2.95774000E-03
					-3.14149000E-05	 1.38258000E-02	 2.95849000E-03
					 2.43048000E-08	 1.69359000E-02	 3.14960000E-03
					 2.83723000E-05	 2.02100000E-02	 3.32851000E-03
					 1.82393000E-07	 2.02103000E-02	 3.32711000E-03
					-2.80009000E-05	 2.02102000E-02	 3.32857000E-03
					 2.51553000E-07	 2.37031000E-02	 3.50280000E-03
					 2.29425000E-05	 2.73473000E-02	 3.65554000E-03
					 1.26021000E-07	 2.73358000E-02	 3.64990000E-03
					-2.26646000E-05	 2.73475000E-02	 3.65538000E-03
					-7.40950000E-08	 3.11908000E-02	 3.79176000E-03
					 1.19423000E-05	 3.51087000E-02	 3.88714000E-03
					-6.35733000E-08	 3.50895000E-02	 3.88124000E-03
					-1.20262000E-05	 3.51085000E-02	 3.88698000E-03
					 8.18450000E-08	 3.92311000E-02	 3.96715000E-03
					-1.53596000E-07	 1.58447000E-04	 5.10307000E-07
					-5.95665000E-05	 8.96923000E-04	 4.65784000E-04
					-1.07270000E-07	 9.01129000E-04	 7.00111000E-07
					 5.92685000E-05	 8.95710000E-04	-4.64475000E-04
					-1.45862000E-07	 2.07466000E-03	-1.69889000E-08
					-5.78637000E-05	 3.74102000E-03	 8.94512000E-04
					-1.70693000E-07	 3.73077000E-03	-2.03915000E-06
					 5.74709000E-05	 3.73747000E-03	-8.98670000E-04
					-1.88737000E-07	 5.77389000E-03	-5.47795000E-06
					-4.33379000E-05	 8.18783000E-03	 1.22911000E-03
					-1.97224000E-07	 8.17574000E-03	-1.05026000E-05
					 4.29159000E-05	 8.18140000E-03	-1.25023000E-03
					-1.95187000E-07	 1.08546000E-02	-1.69396000E-05
					-3.14710000E-05	 1.37763000E-02	 1.46294000E-03
					-2.02309000E-07	 1.37621000E-02	-2.46793000E-05
					 3.10584000E-05	 1.37672000E-02	-1.51241000E-03
					-1.99912000E-07	 1.68650000E-02	-3.36044000E-05
					-2.83914000E-05	 2.01639000E-02	 1.64213000E-03
					-1.96070000E-07	 2.01456000E-02	-4.36874000E-05
					 2.79882000E-05	 2.01523000E-02	-1.72971000E-03
					-1.77428000E-07	 2.36364000E-02	-5.52594000E-05
					-2.18606000E-05	 2.73087000E-02	 1.79063000E-03
					-1.18532000E-07	 2.72849000E-02	-6.80106000E-05
					 2.16052000E-05	 2.72948000E-02	-1.92693000E-03
					-9.56790000E-08	 3.11299000E-02	-8.24006000E-05
					-1.56679000E-05	 3.50773000E-02	 1.89454000E-03
					-3.55442000E-08	 3.50306000E-02	-9.74592000E-05
					 1.56064000E-05	 3.50613000E-02	-2.08974000E-03
					-1.62256000E-07	 3.91968000E-02	-1.14175000E-04
					 2.48105000E-08	 3.20204000E-04	-4.46180000E-04
					 5.82699000E-05	 9.91483000E-04	-9.39001000E-04
					 5.71834000E-08	 1.00418000E-03	-9.45977000E-04
					-5.81571000E-05	 9.91541000E-04	-9.39014000E-04
					 9.60870000E-08	 2.21145000E-03	-1.39074000E-03
					 5.78324000E-05	 3.81600000E-03	-1.81618000E-03
					 1.45051000E-07	 3.83270000E-03	-1.81640000E-03
					-5.75406000E-05	 3.81615000E-03	-1.81619000E-03
					 1.90646000E-07	 5.87566000E-03	-2.18733000E-03
					 4.30093000E-05	 8.24117000E-03	-2.51105000E-03
					 2.12333000E-07	 8.25126000E-03	-2.51054000E-03
					-4.25793000E-05	 8.24138000E-03	-2.51105000E-03
					 1.91815000E-07	 1.09221000E-02	-2.77910000E-03
					 3.12006000E-05	 1.38074000E-02	-3.00852000E-03
					 1.02488000E-07	 1.38126000E-02	-3.00782000E-03
					-3.09900000E-05	 1.38075000E-02	-3.00849000E-03
					-4.29158000E-08	 1.69152000E-02	-3.21761000E-03
					 2.77807000E-05	 2.01870000E-02	-3.41669000E-03
					-2.02029000E-07	 2.01871000E-02	-3.41522000E-03
					-2.81878000E-05	 2.01868000E-02	-3.41663000E-03
					-2.64074000E-07	 2.36774000E-02	-3.61408000E-03
					 2.25323000E-05	 2.73194000E-02	-3.79219000E-03
					-1.17270000E-07	 2.73078000E-02	-3.78648000E-03
					-2.27804000E-05	 2.73192000E-02	-3.79228000E-03
					 5.55033000E-08	 3.11604000E-02	-3.95717000E-03
					 1.19283000E-05	 3.50765000E-02	-4.08244000E-03
					 1.03785000E-07	 3.50577000E-02	-4.07645000E-03
					-1.17237000E-05	 3.50766000E-02	-4.08261000E-03
					-5.31334000E-08	 3.91973000E-02	-4.19579000E-03
					 1.50402000E-07	 1.58498000E-04	 5.06448000E-07
					-5.92160000E-05	 8.95830000E-04	-4.64464000E-04
					 1.00503000E-07	 9.01252000E-04	 6.94813000E-07
					 5.94983000E-05	 8.97045000E-04	 4.65769000E-04
					 1.33871000E-07	 2.07487000E-03	-2.04009000E-08
					-5.73304000E-05	 3.73777000E-03	-8.98652000E-04
					 1.59929000E-07	 3.73108000E-03	-2.04049000E-06
					 5.76993000E-05	 3.74133000E-03	 8.94498000E-04
					 1.82287000E-07	 5.77427000E-03	-5.47422000E-06
					-4.26993000E-05	 8.18182000E-03	-1.25022000E-03
					 1.98610000E-07	 8.17618000E-03	-1.05001000E-05
					 4.31242000E-05	 8.18826000E-03	 1.22911000E-03
					 1.98031000E-07	 1.08550000E-02	-1.69414000E-05
					-3.09538000E-05	 1.37674000E-02	-1.51246000E-03
					 1.96181000E-07	 1.37624000E-02	-2.46831000E-05
					 3.13585000E-05	 1.37765000E-02	 1.46297000E-03
					 1.86448000E-07	 1.68649000E-02	-3.36126000E-05
					-2.82032000E-05	 2.01520000E-02	-1.72976000E-03
					 1.73361000E-07	 2.01453000E-02	-4.36909000E-05
					 2.85698000E-05	 2.01635000E-02	 1.64220000E-03
					 1.67782000E-07	 2.36358000E-02	-5.52496000E-05
					-2.17210000E-05	 2.72944000E-02	-1.92687000E-03
					 1.08139000E-07	 2.72847000E-02	-6.80188000E-05
					 2.19920000E-05	 2.73084000E-02	 1.79061000E-03
					 1.25916000E-07	 3.11300000E-02	-8.23988000E-05
					-1.56028000E-05	 3.50617000E-02	-2.08981000E-03
					-6.32102000E-08	 3.50311000E-02	-9.72848000E-05
					 1.56561000E-05	 3.50777000E-02	 1.89469000E-03
					 1.73119000E-07	 3.91967000E-02	-1.14097000E-04
					-1.13155000E-09	 2.24883000E-04	 4.09463000E-07
					-3.38473000E-08	 9.62617000E-04	 4.70308000E-04
					 4.38305000E-08	 9.55388000E-04	 6.04104000E-07
					-3.75931000E-09	 9.65184000E-04	 5.84095000E-07
					-5.08804000E-08	 9.55327000E-04	 6.05752000E-07
					 2.69487000E-08	 9.61362000E-04	-4.69252000E-04
					-5.75998000E-09	 2.13972000E-03	-2.13034000E-07
					-8.16961000E-08	 3.80110000E-03	 8.98305000E-04
					 7.34604000E-08	 3.77398000E-03	-2.21248000E-06
					-6.12818000E-09	 3.78952000E-03	-2.26262000E-06
					-8.53323000E-08	 3.77383000E-03	-2.21212000E-06
					 6.96325000E-08	 3.79750000E-03	-9.02913000E-04
					-3.16199000E-09	 5.82548000E-03	-5.71087000E-06
					-1.05207000E-07	 8.23168000E-03	 1.23220000E-03
					 9.88570000E-08	 8.20987000E-03	-1.06721000E-05
					 0.00000000E+00	 8.22120000E-03	-1.07308000E-05
					-9.74713000E-08	 8.20965000E-03	-1.06726000E-05
					 1.06652000E-07	 8.22519000E-03	-1.25376000E-03
					 1.85057000E-09	 1.08898000E-02	-1.71332000E-05
					-5.58212000E-08	 1.38079000E-02	 1.46365000E-03
					 9.63638000E-08	 1.37883000E-02	-2.48386000E-05
					-2.09796000E-09	 1.37998000E-02	-2.49041000E-05
					-1.01123000E-07	 1.37882000E-02	-2.48363000E-05
					 4.96770000E-08	 1.37988000E-02	-1.51350000E-03