# vtk DataFile Version 3.0

ASCII
DATASET UNSTRUCTURED_GRID

POINTS 261 double
	 0.00000000E+00	 0.00000000E+00	 0.00000000E+00
	 1.00000000E+00	 0.00000000E+00	 0.00000000E+00
	 1.00000000E+00	 1.50000000E+00	 0.00000000E+00
	 0.00000000E+00	 1.50000000E+00	 0.00000000E+00
	 0.00000000E+00	 0.00000000E+00	 8.00000000E+00
	 1.00000000E+00	 0.00000000E+00	 8.00000000E+00
	 1.00000000E+00	 1.50000000E+00	 8.00000000E+00
	 0.00000000E+00	 1.50000000E+00	 8.00000000E+00
	 2.50000000E-01	 0.00000000E+00	 0.00000000E+00
	 5.00000000E-01	 0.00000000E+00	 0.00000000E+00
	 7.50000000E-01	 0.00000000E+00	 0.00000000E+00
	 1.00000000E+00	 3.75000000E-01	 0.00000000E+00
	 1.00000000E+00	 7.50000000E-01	 0.00000000E+00
	 1.00000000E+00	 1.12500000E+00	 0.00000000E+00
	 7.50000000E-01	 1.50000000E+00	 0.00000000E+00
	 5.00000000E-01	 1.50000000E+00	 0.00000000E+00
	 2.50000000E-01	 1.50000000E+00	 0.00000000E+00
	 0.00000000E+00	 1.12500000E+00	 0.00000000E+00
	 0.00000000E+00	 7.50000000E-01	 0.00000000E+00
	 0.00000000E+00	 3.75000000E-01	 0.00000000E+00
	 2.50000000E-01	 0.00000000E+00	 8.00000000E+00
	 5.00000000E-01	 0.00000000E+00	 8.00000000E+00
	 7.50000000E-01	 0.00000000E+00	 8.00000000E+00
	 1.00000000E+00	 3.75000000E-01	 8.00000000E+00
	 1.00000000E+00	 7.50000000E-01	 8.00000000E+00
	 1.00000000E+00	 1.12500000E+00	 8.00000000E+00
	 7.50000000E-01	 1.50000000E+00	 8.00000000E+00
	 5.00000000E-01	 1.50000000E+00	 8.00000000E+00
	 2.50000000E-01	 1.50000000E+00	 8.00000000E+00
	 0.00000000E+00	 1.12500000E+00	 8.00000000E+00
	 0.00000000E+00	 7.50000000E-01	 8.00000000E+00
	 0.00000000E+00	 3.75000000E-01	 8.00000000E+00
	 1.00000000E+00	 0.00000000E+00	 5.00000000E-01
	 1.00000000E+00	 0.00000000E+00	 1.00000000E+00
	 1.00000000E+00	 0.00000000E+00	 1.50000000E+00
	 1.00000000E+00	 0.00000000E+00	 2.00000000E+00
	 1.00000000E+00	 0.00000000E+00	 2.50000000E+00
	 1.00000000E+00	 0.00000000E+00	 3.00000000E+00
	 1.00000000E+00	 0.00000000E+00	 3.50000000E+00
	 1.00000000E+00	 0.00000000E+00	 4.00000000E+00
	 1.00000000E+00	 0.00000000E+00	 4.50000000E+00
	 1.00000000E+00	 0.00000000E+00	 5.00000000E+00
	 1.00000000E+00	 0.00000000E+00	 5.50000000E+00
	 1.00000000E+00	 0.00000000E+00	 6.00000000E+00
	 1.00000000E+00	 0.00000000E+00	 6.50000000E+00
	 1.00000000E+00	 0.00000000E+00	 7.00000000E+00
	 1.00000000E+00	 0.00000000E+00	 7.50000000E+00
	 0.00000000E+00	 0.00000000E+00	 7.50000000E+00
	 0.00000000E+00	 0.00000000E+00	 7.00000000E+00
	 0.00000000E+00	 0.00000000E+00	 6.50000000E+00
	 0.00000000E+00	 0.00000000E+00	 6.00000000E+00
	 0.00000000E+00	 0.00000000E+00	 5.50000000E+00
	 0.00000000E+00	 0.00000000E+00	 5.00000000E+00
	 0.00000000E+00	 0.00000000E+00	 4.50000000E+00
	 0.00000000E+00	 0.00000000E+00	 4.00000000E+00
	 0.00000000E+00	 0.00000000E+00	 3.50000000E+00
	 0.00000000E+00	 0.00000000E+00	 3.00000000E+00
	 0.00000000E+00	 0.00000000E+00	 2.50000000E+00
	 0.00000000E+00	 0.00000000E+00	 2.00000000E+00
	 0.00000000E+00	 0.00000000E+00	 1.50000000E+00
	 0.00000000E+00	 0.00000000E+00	 1.00000000E+00
	 0.00000000E+00	 0.00000000E+00	 5.00000000E-01
	 1.00000000E+00	 1.50000000E+00	 5.00000000E-01
	 1.00000000E+00	 1.50000000E+00	 1.00000000E+00
	 1.00000000E+00	 1.50000000E+00	 1.50000000E+00
	 1.00000000E+00	 1.50000000E+00	 2.00000000E+00
	 1.00000000E+00	 1.50000000E+00	 2.50000000E+00
	 1.00000000E+00	 1.50000000E+00	 3.00000000E+00
	 1.00000000E+00	 1.50000000E+00	 3.50000000E+00
	 1.00000000E+00	 1.50000000E+00	 4.00000000E+00
	 1.00000000E+00	 1.50000000E+00	 4.50000000E+00
	 1.00000000E+00	 1.50000000E+00	 5.00000000E+00
	 1.00000000E+00	 1.50000000E+00	 5.50000000E+00
	 1.00000000E+00	 1.50000000E+00	 6.00000000E+00
	 1.00000000E+00	 1.50000000E+00	 6.50000000E+00
	 1.00000000E+00	 1.50000000E+00	 7.00000000E+00
	 1.00000000E+00	 1.50000000E+00	 7.50000000E+00
	 0.00000000E+00	 1.50000000E+00	 5.00000000E-01
	 0.00000000E+00	 1.50000000E+00	 1.00000000E+00
	 0.00000000E+00	 1.50000000E+00	 1.50000000E+00
	 0.00000000E+00	 1.50000000E+00	 2.00000000E+00
	 0.00000000E+00	 1.50000000E+00	 2.50000000E+00
	 0.00000000E+00	 1.50000000E+00	 3.00000000E+00
	 0.00000000E+00	 1.50000000E+00	 3.50000000E+00
	 0.00000000E+00	 1.50000000E+00	 4.00000000E+00
	 0.00000000E+00	 1.50000000E+00	 4.50000000E+00
	 0.00000000E+00	 1.50000000E+00	 5.00000000E+00
	 0.00000000E+00	 1.50000000E+00	 5.50000000E+00
	 0.00000000E+00	 1.50000000E+00	 6.00000000E+00
	 0.00000000E+00	 1.50000000E+00	 6.50000000E+00
	 0.00000000E+00	 1.50000000E+00	 7.00000000E+00
	 0.00000000E+00	 1.50000000E+00	 7.50000000E+00
	 5.00000000E-01	 3.75000000E-01	 0.00000000E+00
	 2.50000000E-01	 7.50000000E-01	 0.00000000E+00
	 5.00000000E-01	 7.50000000E-01	 0.00000000E+00
	 7.50000000E-01	 7.50000000E-01	 0.00000000E+00
	 5.00000000E-01	 1.12500000E+00	 0.00000000E+00
	 5.00000000E-01	 3.75000000E-01	 8.00000000E+00
	 2.50000000E-01	 7.50000000E-01	 8.00000000E+00
	 5.00000000E-01	 7.50000000E-01	 8.00000000E+00
	 7.50000000E-01	 7.50000000E-01	 8.00000000E+00
	 5.00000000E-01	 1.12500000E+00	 8.00000000E+00
	 5.00000000E-01	 0.00000000E+00	 5.00000000E-01
	 2.50000000E-01	 0.00000000E+00	 1.00000000E+00
	 5.00000000E-01	 0.00000000E+00	 1.00000000E+00
	 7.50000000E-01	 0.00000000E+00	 1.00000000E+00
	 5.00000000E-01	 0.00000000E+00	 1.50000000E+00
	 2.50000000E-01	 0.00000000E+00	 2.00000000E+00
	 5.00000000E-01	 0.00000000E+00	 2.00000000E+00
	 7.50000000E-01	 0.00000000E+00	 2.00000000E+00
	 5.00000000E-01	 0.00000000E+00	 2.50000000E+00
	 2.50000000E-01	 0.00000000E+00	 3.00000000E+00
	 5.00000000E-01	 0.00000000E+00	 3.00000000E+00
	 7.50000000E-01	 0.00000000E+00	 3.00000000E+00
	 5.00000000E-01	 0.00000000E+00	 3.50000000E+00
	 2.50000000E-01	 0.00000000E+00	 4.00000000E+00
	 5.00000000E-01	 0.00000000E+00	 4.00000000E+00
	 7.50000000E-01	 0.00000000E+00	 4.00000000E+00
	 5.00000000E-01	 0.00000000E+00	 4.50000000E+00
	 2.50000000E-01	 0.00000000E+00	 5.00000000E+00
	 5.00000000E-01	 0.00000000E+00	 5.00000000E+00
	 7.50000000E-01	 0.00000000E+00	 5.00000000E+00
	 5.00000000E-01	 0.00000000E+00	 5.50000000E+00
	 2.50000000E-01	 0.00000000E+00	 6.00000000E+00
	 5.00000000E-01	 0.00000000E+00	 6.00000000E+00
	 7.50000000E-01	 0.00000000E+00	 6.00000000E+00
	 5.00000000E-01	 0.00000000E+00	 6.50000000E+00
	 2.50000000E-01	 0.00000000E+00	 7.00000000E+00
	 5.00000000E-01	 0.00000000E+00	 7.00000000E+00
	 7.50000000E-01	 0.00000000E+00	 7.00000000E+00
	 5.00000000E-01	 0.00000000E+00	 7.50000000E+00
	 1.00000000E+00	 7.50000000E-01	 5.00000000E-01
	 1.00000000E+00	 3.75000000E-01	 1.00000000E+00
	 1.00000000E+00	 7.50000000E-01	 1.00000000E+00
	 1.00000000E+00	 1.12500000E+00	 1.00000000E+00
	 1.00000000E+00	 7.50000000E-01	 1.50000000E+00
	 1.00000000E+00	 3.75000000E-01	 2.00000000E+00
	 1.00000000E+00	 7.50000000E-01	 2.00000000E+00
	 1.00000000E+00	 1.12500000E+00	 2.00000000E+00
	 1.00000000E+00	 7.50000000E-01	 2.50000000E+00
	 1.00000000E+00	 3.75000000E-01	 3.00000000E+00
	 1.00000000E+00	 7.50000000E-01	 3.00000000E+00
	 1.00000000E+00	 1.12500000E+00	 3.00000000E+00
	 1.00000000E+00	 7.50000000E-01	 3.50000000E+00
	 1.00000000E+00	 3.75000000E-01	 4.00000000E+00
	 1.00000000E+00	 7.50000000E-01	 4.00000000E+00
	 1.00000000E+00	 1.12500000E+00	 4.00000000E+00
	 1.00000000E+00	 7.50000000E-01	 4.50000000E+00
	 1.00000000E+00	 3.75000000E-01	 5.00000000E+00
	 1.00000000E+00	 7.50000000E-01	 5.00000000E+00
	 1.00000000E+00	 1.12500000E+00	 5.00000000E+00
	 1.00000000E+00	 7.50000000E-01	 5.50000000E+00
	 1.00000000E+00	 3.75000000E-01	 6.00000000E+00
	 1.00000000E+00	 7.50000000E-01	 6.00000000E+00
	 1.00000000E+00	 1.12500000E+00	 6.00000000E+00
	 1.00000000E+00	 7.50000000E-01	 6.50000000E+00
	 1.00000000E+00	 3.75000000E-01	 7.00000000E+00
	 1.00000000E+00	 7.50000000E-01	 7.00000000E+00
	 1.00000000E+00	 1.12500000E+00	 7.00000000E+00
	 1.00000000E+00	 7.50000000E-01	 7.50000000E+00
	 5.00000000E-01	 1.50000000E+00	 5.00000000E-01
	 7.50000000E-01	 1.50000000E+00	 1.00000000E+00
	 5.00000000E-01	 1.50000000E+00	 1.00000000E+00
	 2.50000000E-01	 1.50000000E+00	 1.00000000E+00
	 5.00000000E-01	 1.50000000E+00	 1.50000000E+00
	 7.50000000E-01	 1.50000000E+00	 2.00000000E+00
	 5.00000000E-01	 1.50000000E+00	 2.00000000E+00
	 2.50000000E-01	 1.50000000E+00	 2.00000000E+00
	 5.00000000E-01	 1.50000000E+00	 2.50000000E+00
	 7.50000000E-01	 1.50000000E+00	 3.00000000E+00
	 5.00000000E-01	 1.50000000E+00	 3.00000000E+00
	 2.50000000E-01	 1.50000000E+00	 3.00000000E+00
	 5.00000000E-01	 1.50000000E+00	 3.50000000E+00
	 7.50000000E-01	 1.50000000E+00	 4.00000000E+00
	 5.00000000E-01	 1.50000000E+00	 4.00000000E+00
	 2.50000000E-01	 1.50000000E+00	 4.00000000E+00
	 5.00000000E-01	 1.50000000E+00	 4.50000000E+00
	 7.50000000E-01	 1.50000000E+00	 5.00000000E+00
	 5.00000000E-01	 1.50000000E+00	 5.00000000E+00
	 2.50000000E-01	 1.50000000E+00	 5.00000000E+00
	 5.00000000E-01	 1.50000000E+00	 5.50000000E+00
	 7.50000000E-01	 1.50000000E+00	 6.00000000E+00
	 5.00000000E-01	 1.50000000E+00	 6.00000000E+00
	 2.50000000E-01	 1.50000000E+00	 6.00000000E+00
	 5.00000000E-01	 1.50000000E+00	 6.50000000E+00
	 7.50000000E-01	 1.50000000E+00	 7.00000000E+00
	 5.00000000E-01	 1.50000000E+00	 7.00000000E+00
	 2.50000000E-01	 1.50000000E+00	 7.00000000E+00
	 5.00000000E-01	 1.50000000E+00	 7.50000000E+00
	 0.00000000E+00	 7.50000000E-01	 5.00000000E-01
	 0.00000000E+00	 1.12500000E+00	 1.00000000E+00
	 0.00000000E+00	 7.50000000E-01	 1.00000000E+00
	 0.00000000E+00	 3.75000000E-01	 1.00000000E+00
	 0.00000000E+00	 7.50000000E-01	 1.50000000E+00
	 0.00000000E+00	 1.12500000E+00	 2.00000000E+00
	 0.00000000E+00	 7.50000000E-01	 2.00000000E+00
	 0.00000000E+00	 3.75000000E-01	 2.00000000E+00
	 0.00000000E+00	 7.50000000E-01	 2.50000000E+00
	 0.00000000E+00	 1.12500000E+00	 3.00000000E+00
	 0.00000000E+00	 7.50000000E-01	 3.00000000E+00
	 0.00000000E+00	 3.75000000E-01	 3.00000000E+00
	 0.00000000E+00	 7.50000000E-01	 3.50000000E+00
	 0.00000000E+00	 1.12500000E+00	 4.00000000E+00
	 0.00000000E+00	 7.50000000E-01	 4.00000000E+00
	 0.00000000E+00	 3.75000000E-01	 4.00000000E+00
	 0.00000000E+00	 7.50000000E-01	 4.50000000E+00
	 0.00000000E+00	 1.12500000E+00	 5.00000000E+00
	 0.00000000E+00	 7.50000000E-01	 5.00000000E+00
	 0.00000000E+00	 3.75000000E-01	 5.00000000E+00
	 0.00000000E+00	 7.50000000E-01	 5.50000000E+00
	 0.00000000E+00	 1.12500000E+00	 6.00000000E+00
	 0.00000000E+00	 7.50000000E-01	 6.00000000E+00
	 0.00000000E+00	 3.75000000E-01	 6.00000000E+00
	 0.00000000E+00	 7.50000000E-01	 6.50000000E+00
	 0.00000000E+00	 1.12500000E+00	 7.00000000E+00
	 0.00000000E+00	 7.50000000E-01	 7.00000000E+00
	 0.00000000E+00	 3.75000000E-01	 7.00000000E+00
	 0.00000000E+00	 7.50000000E-01	 7.50000000E+00
	 5.00000000E-01	 7.50000000E-01	 5.00000000E-01
	 5.00000000E-01	 3.75000000E-01	 1.00000000E+00
	 2.50000000E-01	 7.50000000E-01	 1.00000000E+00
	 5.00000000E-01	 7.50000000E-01	 1.00000000E+00
	 7.50000000E-01	 7.50000000E-01	 1.00000000E+00
	 5.00000000E-01	 1.12500000E+00	 1.00000000E+00
	 5.00000000E-01	 7.50000000E-01	 1.50000000E+00
	 5.00000000E-01	 3.75000000E-01	 2.00000000E+00
	 2.50000000E-01	 7.50000000E-01	 2.00000000E+00
	 5.00000000E-01	 7.50000000E-01	 2.00000000E+00
	 7.50000000E-01	 7.50000000E-01	 2.00000000E+00
	 5.00000000E-01	 1.12500000E+00	 2.00000000E+00
	 5.00000000E-01	 7.50000000E-01	 2.50000000E+00
	 5.00000000E-01	 3.75000000E-01	 3.00000000E+00
	 2.50000000E-01	 7.50000000E-01	 3.00000000E+00
	 5.00000000E-01	 7.50000000E-01	 3.00000000E+00
	 7.50000000E-01	 7.50000000E-01	 3.00000000E+00
	 5.00000000E-01	 1.12500000E+00	 3.00000000E+00
	 5.00000000E-01	 7.50000000E-01	 3.50000000E+00
	 5.00000000E-01	 3.75000000E-01	 4.00000000E+00
	 2.50000000E-01	 7.50000000E-01	 4.00000000E+00
	 5.00000000E-01	 7.50000000E-01	 4.00000000E+00
	 7.50000000E-01	 7.50000000E-01	 4.00000000E+00
	 5.00000000E-01	 1.12500000E+00	 4.00000000E+00
	 5.00000000E-01	 7.50000000E-01	 4.50000000E+00
	 5.00000000E-01	 3.75000000E-01	 5.00000000E+00
	 2.50000000E-01	 7.50000000E-01	 5.00000000E+00
	 5.00000000E-01	 7.50000000E-01	 5.00000000E+00
	 7.50000000E-01	 7.50000000E-01	 5.00000000E+00
	 5.00000000E-01	 1.12500000E+00	 5.00000000E+00
	 5.00000000E-01	 7.50000000E-01	 5.50000000E+00
	 5.00000000E-01	 3.75000000E-01	 6.00000000E+00
	 2.50000000E-01	 7.50000000E-01	 6.00000000E+00
	 5.00000000E-01	 7.50000000E-01	 6.00000000E+00
	 7.50000000E-01	 7.50000000E-01	 6.00000000E+00
	 5.00000000E-01	 1.12500000E+00	 6.00000000E+00
	 5.00000000E-01	 7.50000000E-01	 6.50000000E+00
	 5.00000000E-01	 3.75000000E-01	 7.00000000E+00
	 2.50000000E-01	 7.50000000E-01	 7.00000000E+00
	 5.00000000E-01	 7.50000000E-01	 7.00000000E+00
	 7.50000000E-01	 7.50000000E-01	 7.00000000E+00
	 5.00000000E-01	 1.12500000E+00	 7.00000000E+00
	 5.00000000E-01	 7.50000000E-01	 7.50000000E+00

CELLS 32 672
	20 0 9 94 18 60 104 221 191 8 92 93 19 103 219 220 192 61 102 218 189 
	20 9 1 12 94 104 33 133 221 10 11 95 92 105 132 222 219 102 32 131 218 
	20 18 94 15 3 191 221 162 78 93 96 16 17 220 223 163 190 189 218 160 77 
	20 94 12 2 15 221 133 63 162 95 13 14 96 222 134 161 223 218 131 62 160 
	20 60 104 221 191 58 108 227 195 103 219 220 192 107 225 226 196 59 106 224 193 
	20 104 33 133 221 108 35 137 227 105 132 222 219 109 136 228 225 106 34 135 224 
	20 191 221 162 78 195 227 166 80 220 223 163 190 226 229 167 194 193 224 164 79 
	20 221 133 63 162 227 137 65 166 222 134 161 223 228 138 165 229 224 135 64 164 
	20 58 108 227 195 56 112 233 199 107 225 226 196 111 231 232 200 57 110 230 197 
	20 108 35 137 227 112 37 141 233 109 136 228 225 113 140 234 231 110 36 139 230 
	20 195 227 166 80 199 233 170 82 226 229 167 194 232 235 171 198 197 230 168 81 
	20 227 137 65 166 233 141 67 170 228 138 165 229 234 142 169 235 230 139 66 168 
	20 56 112 233 199 54 116 239 203 111 231 232 200 115 237 238 204 55 114 236 201 
	20 112 37 141 233 116 39 145 239 113 140 234 231 117 144 240 237 114 38 143 236 
	20 199 233 170 82 203 239 174 84 232 235 171 198 238 241 175 202 201 236 172 83 
	20 233 141 67 170 239 145 69 174 234 142 169 235 240 146 173 241 236 143 68 172 
	20 54 116 239 203 52 120 245 207 115 237 238 204 119 243 244 208 53 118 242 205 
	20 116 39 145 239 120 41 149 245 117 144 240 237 121 148 246 243 118 40 147 242 
	20 203 239 174 84 207 245 178 86 238 241 175 202 244 247 179 206 205 242 176 85 
	20 239 145 69 174 245 149 71 178 240 146 173 241 246 150 177 247 242 147 70 176 
	20 52 120 245 207 50 124 251 211 119 243 244 208 123 249 250 212 51 122 248 209 
	20 120 41 149 245 124 43 153 251 121 148 246 243 125 152 252 249 122 42 151 248 
	20 207 245 178 86 211 251 182 88 244 247 179 206 250 253 183 210 209 248 180 87 
	20 245 149 71 178 251 153 73 182 246 150 177 247 252 154 181 253 248 151 72 180 
	20 50 124 251 211 48 128 257 215 123 249 250 212 127 255 256 216 49 126 254 213 
	20 124 43 153 251 128 45 157 257 125 152 252 249 129 156 258 255 126 44 155 254 
	20 211 251 182 88 215 257 186 90 250 253 183 210 256 259 187 214 213 254 184 89 
	20 251 153 73 182 257 157 75 186 252 154 181 253 258 158 185 259 254 155 74 184 
	20 48 128 257 215 4 21 99 30 127 255 256 216 20 97 98 31 47 130 260 217 
	20 128 45 157 257 21 5 24 99 129 156 258 255 22 23 100 97 130 46 159 260 
	20 215 257 186 90 30 99 27 7 256 259 187 214 98 101 28 29 217 260 188 91 
	20 257 157 75 186 99 24 6 27 258 158 185 259 100 25 26 101 260 159 76 188 

CELL_TYPES 32
	25
	25
	25
	25
	25
	25
	25
	25
	25
	25
	25
	25
	25
	25
	25
	25
	25
	25
	25
	25
	25
	25
	25
	25
	25
	25
	25
	25
	25
	25
	25
	25

POINT_DATA 261
FIELD U 1
	U 3 261 double
		 0.00000000E+00	 0.00000000E+00	 0.00000000E+00
		 0.00000000E+00	 0.00000000E+00	 0.00000000E+00
		 0.00000000E+00	 0.00000000E+00	 0.00000000E+00
		 0.00000000E+00	 0.00000000E+00	 0.00000000E+00
		-1.61692000E+00	 5.94240000E+03	-1.61079000E+02
		 1.61692000E+00	 5.94240000E+03	-1.61079000E+02
		-3.33233000E+00	 4.69658000E+03	-4.81197000E+03
		 3.33233000E+00	 4.69658000E+03	-4.81197000E+03
		 0.00000000E+00	 0.00000000E+00	 0.00000000E+00
		 0.00000000E+00	 0.00000000E+00	 0.00000000E+00
		 0.00000000E+00	 0.00000000E+00	 0.00000000E+00
		 0.00000000E+00	 0.00000000E+00	 0.00000000E+00
		 0.00000000E+00	 0.00000000E+00	 0.00000000E+00
		 0.00000000E+00	 0.00000000E+00	 0.00000000E+00
		 0.00000000E+00	 0.00000000E+00	 0.00000000E+00
		 0.00000000E+00	 0.00000000E+00	 0.00000000E+00
		 0.00000000E+00	 0.00000000E+00	 0.00000000E+00
		 0.00000000E+00	 0.00000000E+00	 0.00000000E+00
		 0.00000000E+00	 0.00000000E+00	 0.00000000E+00
		 0.00000000E+00	 0.00000000E+00	 0.00000000E+00
		-1.06053000E+00	 5.94227000E+03	-1.52427000E+02
		 0.00000000E+00	 5.94156000E+03	-1.45165000E+02
		 1.06053000E+00	 5.94227000E+03	-1.52427000E+02
		 2.35036000E+00	 5.62591000E+03	-1.31912000E+03
		 2.90703000E+00	 5.30923000E+03	-2.47703000E+03
		-6.57552000E-01	 5.00830000E+03	-3.63584000E+03
		-1.30351000E+00	 4.69844000E+03	-4.80899000E+03
		-2.10002000E-09	 4.69989000E+03	-4.80383000E+03
		 1.30351000E+00	 4.69844000E+03	-4.80899000E+03
		 6.57552000E-01	 5.00830000E+03	-3.63584000E+03
		-2.90703000E+00	 5.30923000E+03	-2.47703000E+03
		-2.35036000E+00	 5.62591000E+03	-1.31912000E+03
		 1.59632000E+02	-5.06607000E+02	-5.00998000E+02
		 5.42320000E+01	-1.23745000E+03	-8.33733000E+02
		 2.43199000E+01	-2.15561000E+03	-9.19315000E+02
		-3.02071000E+01	-3.02072000E+03	-8.19113000E+02
		-6.67725000E+01	-3.76602000E+03	-5.67757000E+02
		-1.00423000E+02	-4.26618000E+03	-2.18624000E+02
		-1.21242000E+02	-4.45541000E+03	 1.77726000E+02
		-1.31293000E+02	-4.29163000E+03	 5.61721000E+02
		-1.29842000E+02	-3.76923000E+03	 8.82256000E+02
		-1.18732000E+02	-2.91015000E+03	 1.10118000E+03
		-9.98047000E+01	-1.76172000E+03	 1.18898000E+03
		-7.58394000E+01	-3.85185000E+02	 1.13836000E+03
		-4.91352000E+01	 1.14133000E+03	 9.51822000E+02
		-2.56278000E+01	 2.74987000E+03	 6.49484000E+02
		-6.92666000E+00	 4.36353000E+03	 2.64130000E+02
		 6.92666000E+00	 4.36353000E+03	 2.64130000E+02
		 2.56278000E+01	 2.74987000E+03	 6.49484000E+02
		 4.91352000E+01	 1.14133000E+03	 9.51822000E+02
		 7.58394000E+01	-3.85185000E+02	 1.13836000E+03
		 9.98047000E+01	-1.76172000E+03	 1.18898000E+03
		 1.18732000E+02	-2.91015000E+03	 1.10118000E+03
		 1.29842000E+02	-3.76923000E+03	 8.82256000E+02
		 1.31293000E+02	-4.29163000E+03	 5.61721000E+02
		 1.21242000E+02	-4.45541000E+03	 1.77726000E+02
		 1.00423000E+02	-4.26618000E+03	-2.18624000E+02
		 6.67725000E+01	-3.76602000E+03	-5.67757000E+02
		 3.02071000E+01	-3.02072000E+03	-8.19113000E+02
		-2.43199000E+01	-2.15561000E+03	-9.19315000E+02
		-5.42320000E+01	-1.23745000E+03	-8.33733000E+02
		-1.59632000E+02	-5.06607000E+02	-5.00998000E+02
		-1.53799000E+02	-4.30270000E+02	 5.10948000E+02
		-3.11863000E+01	-1.08664000E+03	 8.85304000E+02
		-1.49508000E+00	-1.94478000E+03	 1.06286000E+03
		 5.30835000E+01	-2.77042000E+03	 1.06913000E+03
		 9.00545000E+01	-3.53741000E+03	 9.26760000E+02
		 1.23528000E+02	-4.10703000E+03	 6.48124000E+02
		 1.42567000E+02	-4.42890000E+03	 2.48289000E+02
		 1.50750000E+02	-4.44197000E+03	-2.54344000E+02
		 1.46835000E+02	-4.12979000E+03	-8.32445000E+02
		 1.33140000E+02	-3.49006000E+03	-1.46195000E+03
		 1.11106000E+02	-2.54933000E+03	-2.10599000E+03
		 8.37888000E+01	-1.35463000E+03	-2.74474000E+03
		 5.54161000E+01	 3.73342000E+01	-3.33969000E+03
		 2.78516000E+01	 1.55125000E+03	-3.88941000E+03
		 9.98693000E+00	 3.12251000E+03	-4.37334000E+03
		 1.53799000E+02	-4.30270000E+02	 5.10948000E+02
		 3.11863000E+01	-1.08664000E+03	 8.85304000E+02
		 1.49508000E+00	-1.94478000E+03	 1.06286000E+03
		-5.30835000E+01	-2.77042000E+03	 1.06913000E+03
		-9.00545000E+01	-3.53741000E+03	 9.26760000E+02
		-1.23528000E+02	-4.10703000E+03	 6.48124000E+02
		-1.42567000E+02	-4.42890000E+03	 2.48289000E+02
		-1.50750000E+02	-4.44197000E+03	-2.54344000E+02
		-1.46835000E+02	-4.12979000E+03	-8.32445000E+02
		-1.33140000E+02	-3.49006000E+03	-1.46195000E+03
		-1.11106000E+02	-2.54933000E+03	-2.10599000E+03
		-8.37888000E+01	-1.35463000E+03	-2.74474000E+03
		-5.54161000E+01	 3.73342000E+01	-3.33969000E+03
		-2.78516000E+01	 1.55125000E+03	-3.88941000E+03
		-9.98693000E+00	 3.12251000E+03	-4.37334000E+03
		 0.00000000E+00	 0.00000000E+00	 0.00000000E+00
		 0.00000000E+00	 0.00000000E+00	 0.00000000E+00
		 0.00000000E+00	 0.00000000E+00	 0.00000000E+00
		 0.00000000E+00	 0.00000000E+00	 0.00000000E+00
		 0.00000000E+00	 0.00000000E+00	 0.00000000E+00
		 0.00000000E+00	 5.63103000E+03	-1.32622000E+03
		-3.79280000E-01	 5.31247000E+03	-2.47849000E+03
		 0.00000000E+00	 5.31877000E+03	-2.48215000E+03
		 3.79280000E-01	 5.31247000E+03	-2.47849000E+03
		-1.46929000E-09	 5.00477000E+03	-3.64763000E+03
		 0.00000000E+00	-5.50991000E+02	-4.89943000E+02
		-2.64048000E+01	-1.26379000E+03	-8.51052000E+02
		 0.00000000E+00	-1.26626000E+03	-8.57484000E+02
		 2.64048000E+01	-1.26379000E+03	-8.51052000E+02
		 0.00000000E+00	-2.15956000E+03	-9.27872000E+02
		 1.50644000E+01	-3.01107000E+03	-8.30099000E+02
		 0.00000000E+00	-3.01091000E+03	-8.31876000E+02
		-1.50644000E+01	-3.01107000E+03	-8.30099000E+02
		 0.00000000E+00	-3.73876000E+03	-5.79993000E+02
		 4.99921000E+01	-4.23862000E+03	-2.30032000E+02
		 0.00000000E+00	-4.23019000E+03	-2.31840000E+02
		-4.99921000E+01	-4.23862000E+03	-2.30032000E+02
		 0.00000000E+00	-4.41079000E+03	 1.64694000E+02
		 6.54479000E+01	-4.25525000E+03	 5.52484000E+02
		 0.00000000E+00	-4.24452000E+03	 5.49775000E+02
		-6.54479000E+01	-4.25525000E+03	 5.52484000E+02
		 1.10094000E-09	-3.72246000E+03	 8.71831000E+02
		 5.92604000E+01	-2.87751000E+03	 1.09629000E+03
		 1.18507000E-09	-2.86776000E+03	 1.09391000E+03
		-5.92604000E+01	-2.87751000E+03	 1.09629000E+03
		 1.19530000E-09	-1.72554000E+03	 1.18403000E+03
		 3.78409000E+01	-3.63912000E+02	 1.13980000E+03
		 1.15297000E-09	-3.57841000E+02	 1.13946000E+03
		-3.78409000E+01	-3.63912000E+02	 1.13980000E+03
		 1.02523000E-09	 1.16103000E+03	 9.50012000E+02
		 1.28913000E+01	 2.75571000E+03	 6.54365000E+02
		 0.00000000E+00	 2.75665000E+03	 6.55359000E+02
		-1.28913000E+01	 2.75571000E+03	 6.54365000E+02
		 0.00000000E+00	 4.36704000E+03	 2.65848000E+02
		 2.53840000E-01	-3.70510000E+02	-3.46452000E+00
		 2.73359000E+01	-1.16878000E+03	-3.37056000E+02
		 4.67065000E+00	-1.15217000E+03	 1.03634000E+01
		-1.34999000E+01	-1.09886000E+03	 3.67159000E+02
		 8.62704000E+00	-2.02223000E+03	 4.78091000E+01
		-6.34689000E+00	-2.97878000E+03	-3.07041000E+02
		 1.41491000E+01	-2.93120000E+03	 1.12796000E+02
		 3.26875000E+01	-2.86989000E+03	 5.38769000E+02
		 1.67700000E+01	-3.70182000E+03	 1.75586000E+02
		-3.96652000E+01	-4.27935000E+03	 3.35606000E+01
		 1.77680000E+01	-4.26450000E+03	 2.22309000E+02
		 7.10385000E+01	-4.21257000E+03	 4.08762000E+02
		 1.75399000E+01	-4.52866000E+03	 2.27774000E+02
		-5.56202000E+01	-4.40132000E+03	 3.78370000E+02
		 1.63321000E+01	-4.46187000E+03	 1.75444000E+02
		 8.37018000E+01	-4.48025000E+03	-3.77833000E+01
		 1.43178000E+01	-4.04062000E+03	 4.98595000E+01
		-5.23619000E+01	-3.12417000E+03	 4.63893000E+02
		 1.17147000E+01	-3.28442000E+03	-1.53730000E+02
		 7.24923000E+01	-3.40608000E+03	-7.84845000E+02
		 8.97150000E+00	-2.22567000E+03	-4.35240000E+02
		-3.40727000E+01	-6.77037000E+02	 1.56796000E+02
		 6.56005000E+00	-9.25007000E+02	-7.81657000E+02
		 4.54729000E+01	-1.14595000E+03	-1.73159000E+03
		 3.70902000E+00	 5.50873000E+02	-1.18154000E+03
		-1.15384000E+01	 2.42631000E+03	-4.98949000E+02
		 4.19247000E+00	 2.12652000E+03	-1.60575000E+03
		 1.63044000E+01	 1.84132000E+03	-2.72635000E+03
		-1.72645000E+00	 3.73377000E+03	-2.05236000E+03
		 0.00000000E+00	-4.74705000E+02	 5.09408000E+02
		-1.63777000E+01	-1.10577000E+03	 9.17852000E+02
		 0.00000000E+00	-1.10782000E+03	 9.28195000E+02
		 1.63777000E+01	-1.10577000E+03	 9.17852000E+02
		 0.00000000E+00	-1.94244000E+03	 1.08241000E+03
		 2.71288000E+01	-2.75934000E+03	 1.08493000E+03
		 0.00000000E+00	-2.75911000E+03	 1.08972000E+03
		-2.71288000E+01	-2.75934000E+03	 1.08493000E+03
		 0.00000000E+00	-3.50957000E+03	 9.37016000E+02
		 6.20695000E+01	-4.08087000E+03	 6.52674000E+02
		 0.00000000E+00	-4.07237000E+03	 6.52262000E+02
		-6.20695000E+01	-4.08087000E+03	 6.52674000E+02
		 0.00000000E+00	-4.38669000E+03	 2.44796000E+02
		 7.57859000E+01	-4.40946000E+03	-2.61233000E+02
		 0.00000000E+00	-4.39891000E+03	-2.63339000E+02
		-7.57859000E+01	-4.40946000E+03	-2.61233000E+02
		 0.00000000E+00	-4.08772000E+03	-8.46627000E+02
		 6.67953000E+01	-3.46254000E+03	-1.47512000E+03
		 0.00000000E+00	-3.45303000E+03	-1.47813000E+03
		-6.67953000E+01	-3.46254000E+03	-1.47512000E+03
		-1.04023000E-09	-2.51899000E+03	-2.12400000E+03
		 4.20327000E+01	-1.33826000E+03	-2.75730000E+03
		-1.25402000E-09	-1.33189000E+03	-2.75859000E+03
		-4.20327000E+01	-1.33826000E+03	-2.75730000E+03
		-1.48884000E-09	 4.86020000E+01	-3.35649000E+03
		 1.37993000E+01	 1.55564000E+03	-3.89677000E+03
		-1.69666000E-09	 1.55864000E+03	-3.89706000E+03
		-1.37993000E+01	 1.55564000E+03	-3.89677000E+03
		-1.92813000E-09	 3.12577000E+03	-4.38098000E+03
		-2.53840000E-01	-3.70510000E+02	-3.46452000E+00
		 1.34999000E+01	-1.09886000E+03	 3.67159000E+02
		-4.67065000E+00	-1.15217000E+03	 1.03634000E+01
		-2.73359000E+01	-1.16878000E+03	-3.37056000E+02
		-8.62704000E+00	-2.02223000E+03	 4.78091000E+01
		-3.26875000E+01	-2.86989000E+03	 5.38769000E+02
		-1.41491000E+01	-2.93120000E+03	 1.12796000E+02
		 6.34689000E+00	-2.97878000E+03	-3.07041000E+02
		-1.67700000E+01	-3.70182000E+03	 1.75586000E+02
		-7.10385000E+01	-4.21257000E+03	 4.08762000E+02
		-1.77680000E+01	-4.26450000E+03	 2.22309000E+02
		 3.96652000E+01	-4.27935000E+03	 3.35606000E+01
		-1.75399000E+01	-4.52866000E+03	 2.27774000E+02
		-8.37018000E+01	-4.48025000E+03	-3.77833000E+01
		-1.63321000E+01	-4.46187000E+03	 1.75444000E+02
		 5.56202000E+01	-4.40132000E+03	 3.78370000E+02
		-1.43178000E+01	-4.04062000E+03	 4.98595000E+01
		-7.24923000E+01	-3.40608000E+03	-7.84845000E+02
		-1.17147000E+01	-3.28442000E+03	-1.53730000E+02
		 5.23619000E+01	-3.12417000E+03	 4.63893000E+02
		-8.97150000E+00	-2.22567000E+03	-4.35240000E+02
		-4.54729000E+01	-1.14595000E+03	-1.73159000E+03
		-6.56005000E+00	-9.25007000E+02	-7.81657000E+02
		 3.40727000E+01	-6.77037000E+02	 1.56796000E+02
		-3.70902000E+00	 5.50873000E+02	-1.18154000E+03
		-1.63044000E+01	 1.84132000E+03	-2.72635000E+03
		-4.19247000E+00	 2.12652000E+03	-1.60575000E+03
		 1.15384000E+01	 2.42631000E+03	-4.98949000E+02
		 1.72645000E+00	 3.73377000E+03	-2.05236000E+03
		 0.00000000E+00	-4.09306000E+02	 2.14332000E+00
		 0.00000000E+00	-1.19225000E+03	-3.51366000E+02
		-2.13823000E+00	-1.17136000E+03	 1.55562000E+01
		 0.00000000E+00	-1.17131000E+03	 1.64300000E+01
		 2.13823000E+00	-1.17136000E+03	 1.55562000E+01
		 0.00000000E+00	-1.11731000E+03	 3.97193000E+02
		 0.00000000E+00	-2.02732000E+03	 5.40503000E+01
		 0.00000000E+00	-2.96779000E+03	-3.16540000E+02
		-7.22860000E+00	-2.92000000E+03	 1.15437000E+02
		 0.00000000E+00	-2.91743000E+03	 1.15925000E+02
		 7.22860000E+00	-2.92000000E+03	 1.15437000E+02
		 0.00000000E+00	-2.85748000E+03	 5.54342000E+02
		 0.00000000E+00	-3.67732000E+03	 1.75175000E+02
		 0.00000000E+00	-4.24339000E+03	 2.18975000E+01
		-9.16874000E+00	-4.23775000E+03	 2.18762000E+02
		 0.00000000E+00	-4.22866000E+03	 2.17577000E+02
		 9.16874000E+00	-4.23775000E+03	 2.18762000E+02
		 0.00000000E+00	-4.17764000E+03	 4.11286000E+02
		 0.00000000E+00	-4.48759000E+03	 2.19967000E+02
		 0.00000000E+00	-4.35531000E+03	 3.66814000E+02
		-8.42558000E+00	-4.42837000E+03	 1.67475000E+02
		 0.00000000E+00	-4.41764000E+03	 1.64923000E+02
		 8.42558000E+00	-4.42837000E+03	 1.67475000E+02
		 0.00000000E+00	-4.43741000E+03	-4.71391000E+01
		 0.00000000E+00	-3.99793000E+03	 3.81011000E+01
		 0.00000000E+00	-3.08268000E+03	 4.55640000E+02
		-6.02172000E+00	-3.25510000E+03	-1.63324000E+02
		 0.00000000E+00	-3.24556000E+03	-1.66541000E+02
		 6.02172000E+00	-3.25510000E+03	-1.63324000E+02
		 0.00000000E+00	-3.36910000E+03	-8.00523000E+02
		 0.00000000E+00	-2.19325000E+03	-4.45518000E+02
		 0.00000000E+00	-6.50365000E+02	 1.53360000E+02
		-3.32895000E+00	-9.06524000E+02	-7.89711000E+02
		 0.00000000E+00	-9.00271000E+02	-7.93247000E+02
		 3.32895000E+00	-9.06524000E+02	-7.89711000E+02
		 0.00000000E+00	-1.12347000E+03	-1.74759000E+03
		 0.00000000E+00	 5.66999000E+02	-1.18672000E+03
		 0.00000000E+00	 2.43552000E+03	-4.98340000E+02
		-2.09068000E+00	 2.13299000E+03	-1.61491000E+03
		 0.00000000E+00	 2.13490000E+03	-1.62112000E+03
		 2.09068000E+00	 2.13299000E+03	-1.61491000E+03
		-1.05524000E-09	 1.85037000E+03	-2.73657000E+03
		 0.00000000E+00	 3.73812000E+03	-2.04333000E+03
