<?xml version="1.0"?>
<VTKFile type="UnstructuredGrid" version="0.1" byte_order="LittleEndian">
	<UnstructuredGrid>
		<Piece NumberOfPoints="261" NumberOfCells="32">
			<Points>
				<DataArray type="Float64" NumberOfComponents="3" format="ascii">
					 0.00000000E+00	 0.00000000E+00	 0.00000000E+00
					 1.00000000E+00	 0.00000000E+00	 0.00000000E+00
					 1.00000000E+00	 1.50000000E+00	 0.00000000E+00
					 0.00000000E+00	 1.50000000E+00	 0.00000000E+00
					 0.00000000E+00	 0.00000000E+00	 8.00000000E+00
					 1.00000000E+00	 0.00000000E+00	 8.00000000E+00
					 1.00000000E+00	 1.50000000E+00	 8.00000000E+00
					 0.00000000E+00	 1.50000000E+00	 8.00000000E+00
					 2.50000000E-01	 0.00000000E+00	 0.00000000E+00
					 5.00000000E-01	 0.00000000E+00	 0.00000000E+00
					 7.50000000E-01	 0.00000000E+00	 0.00000000E+00
					 1.00000000E+00	 3.75000000E-01	 0.00000000E+00
					 1.00000000E+00	 7.50000000E-01	 0.00000000E+00
					 1.00000000E+00	 1.12500000E+00	 0.00000000E+00
					 7.50000000E-01	 1.50000000E+00	 0.00000000E+00
					 5.00000000E-01	 1.50000000E+00	 0.00000000E+00
					 2.50000000E-01	 1.50000000E+00	 0.00000000E+00
					 0.00000000E+00	 1.12500000E+00	 0.00000000E+00
					 0.00000000E+00	 7.50000000E-01	 0.00000000E+00
					 0.00000000E+00	 3.75000000E-01	 0.00000000E+00
					 2.50000000E-01	 0.00000000E+00	 8.00000000E+00
					 5.00000000E-01	 0.00000000E+00	 8.00000000E+00
					 7.50000000E-01	 0.00000000E+00	 8.00000000E+00
					 1.00000000E+00	 3.75000000E-01	 8.00000000E+00
					 1.00000000E+00	 7.50000000E-01	 8.00000000E+00
					 1.00000000E+00	 1.12500000E+00	 8.00000000E+00
					 7.50000000E-01	 1.50000000E+00	 8.00000000E+00
					 5.00000000E-01	 1.50000000E+00	 8.00000000E+00
					 2.50000000E-01	 1.50000000E+00	 8.00000000E+00
					 0.00000000E+00	 1.12500000E+00	 8.00000000E+00
					 0.00000000E+00	 7.50000000E-01	 8.00000000E+00
					 0.00000000E+00	 3.75000000E-01	 8.00000000E+00
					 1.00000000E+00	 0.00000000E+00	 5.00000000E-01
					 1.00000000E+00	 0.00000000E+00	 1.00000000E+00
					 1.00000000E+00	 0.00000000E+00	 1.50000000E+00
					 1.00000000E+00	 0.00000000E+00	 2.00000000E+00
					 1.00000000E+00	 0.00000000E+00	 2.50000000E+00
					 1.00000000E+00	 0.00000000E+00	 3.00000000E+00
					 1.00000000E+00	 0.00000000E+00	 3.50000000E+00
					 1.00000000E+00	 0.00000000E+00	 4.00000000E+00
					 1.00000000E+00	 0.00000000E+00	 4.50000000E+00
					 1.00000000E+00	 0.00000000E+00	 5.00000000E+00
					 1.00000000E+00	 0.00000000E+00	 5.50000000E+00
					 1.00000000E+00	 0.00000000E+00	 6.00000000E+00
					 1.00000000E+00	 0.00000000E+00	 6.50000000E+00
					 1.00000000E+00	 0.00000000E+00	 7.00000000E+00
					 1.00000000E+00	 0.00000000E+00	 7.50000000E+00
					 0.00000000E+00	 0.00000000E+00	 7.50000000E+00
					 0.00000000E+00	 0.00000000E+00	 7.00000000E+00
					 0.00000000E+00	 0.00000000E+00	 6.50000000E+00
					 0.00000000E+00	 0.00000000E+00	 6.00000000E+00
					 0.00000000E+00	 0.00000000E+00	 5.50000000E+00
					 0.00000000E+00	 0.00000000E+00	 5.00000000E+00
					 0.00000000E+00	 0.00000000E+00	 4.50000000E+00
					 0.00000000E+00	 0.00000000E+00	 4.00000000E+00
					 0.00000000E+00	 0.00000000E+00	 3.50000000E+00
					 0.00000000E+00	 0.00000000E+00	 3.00000000E+00
					 0.00000000E+00	 0.00000000E+00	 2.50000000E+00
					 0.00000000E+00	 0.00000000E+00	 2.00000000E+00
					 0.00000000E+00	 0.00000000E+00	 1.50000000E+00
					 0.00000000E+00	 0.00000000E+00	 1.00000000E+00
					 0.00000000E+00	 0.00000000E+00	 5.00000000E-01
					 1.00000000E+00	 1.50000000E+00	 5.00000000E-01
					 1.00000000E+00	 1.50000000E+00	 1.00000000E+00
					 1.00000000E+00	 1.50000000E+00	 1.50000000E+00
					 1.00000000E+00	 1.50000000E+00	 2.00000000E+00
					 1.00000000E+00	 1.50000000E+00	 2.50000000E+00
					 1.00000000E+00	 1.50000000E+00	 3.00000000E+00
					 1.00000000E+00	 1.50000000E+00	 3.50000000E+00
					 1.00000000E+00	 1.50000000E+00	 4.00000000E+00
					 1.00000000E+00	 1.50000000E+00	 4.50000000E+00
					 1.00000000E+00	 1.50000000E+00	 5.00000000E+00
					 1.00000000E+00	 1.50000000E+00	 5.50000000E+00
					 1.00000000E+00	 1.50000000E+00	 6.00000000E+00
					 1.00000000E+00	 1.50000000E+00	 6.50000000E+00
					 1.00000000E+00	 1.50000000E+00	 7.00000000E+00
					 1.00000000E+00	 1.50000000E+00	 7.50000000E+00
					 0.00000000E+00	 1.50000000E+00	 5.00000000E-01
					 0.00000000E+00	 1.50000000E+00	 1.00000000E+00
					 0.00000000E+00	 1.50000000E+00	 1.50000000E+00
					 0.00000000E+00	 1.50000000E+00	 2.00000000E+00
					 0.00000000E+00	 1.50000000E+00	 2.50000000E+00
					 0.00000000E+00	 1.50000000E+00	 3.00000000E+00
					 0.00000000E+00	 1.50000000E+00	 3.50000000E+00
					 0.00000000E+00	 1.50000000E+00	 4.00000000E+00
					 0.00000000E+00	 1.50000000E+00	 4.50000000E+00
					 0.00000000E+00	 1.50000000E+00	 5.00000000E+00
					 0.00000000E+00	 1.50000000E+00	 5.50000000E+00
					 0.00000000E+00	 1.50000000E+00	 6.00000000E+00
					 0.00000000E+00	 1.50000000E+00	 6.50000000E+00
					 0.00000000E+00	 1.50000000E+00	 7.00000000E+00
					 0.00000000E+00	 1.50000000E+00	 7.50000000E+00
					 5.00000000E-01	 3.75000000E-01	 0.00000000E+00
					 2.50000000E-01	 7.50000000E-01	 0.00000000E+00
					 5.00000000E-01	 7.50000000E-01	 0.00000000E+00
					 7.50000000E-01	 7.50000000E-01	 0.00000000E+00
					 5.00000000E-01	 1.12500000E+00	 0.00000000E+00
					 5.00000000E-01	 3.75000000E-01	 8.00000000E+00
					 2.50000000E-01	 7.50000000E-01	 8.00000000E+00
					 5.00000000E-01	 7.50000000E-01	 8.00000000E+00
					 7.50000000E-01	 7.50000000E-01	 8.00000000E+00
					 5.00000000E-01	 1.12500000E+00	 8.00000000E+00
					 5.00000000E-01	 0.00000000E+00	 5.00000000E-01
					 2.50000000E-01	 0.00000000E+00	 1.00000000E+00
					 5.00000000E-01	 0.00000000E+00	 1.00000000E+00
					 7.50000000E-01	 0.00000000E+00	 1.00000000E+00
					 5.00000000E-01	 0.00000000E+00	 1.50000000E+00
					 2.50000000E-01	 0.00000000E+00	 2.00000000E+00
					 5.00000000E-01	 0.00000000E+00	 2.00000000E+00
					 7.50000000E-01	 0.00000000E+00	 2.00000000E+00
					 5.00000000E-01	 0.00000000E+00	 2.50000000E+00
					 2.50000000E-01	 0.00000000E+00	 3.00000000E+00
					 5.00000000E-01	 0.00000000E+00	 3.00000000E+00
					 7.50000000E-01	 0.00000000E+00	 3.00000000E+00
					 5.00000000E-01	 0.00000000E+00	 3.50000000E+00
					 2.50000000E-01	 0.00000000E+00	 4.00000000E+00
					 5.00000000E-01	 0.00000000E+00	 4.00000000E+00
					 7.50000000E-01	 0.00000000E+00	 4.00000000E+00
					 5.00000000E-01	 0.00000000E+00	 4.50000000E+00
					 2.50000000E-01	 0.00000000E+00	 5.00000000E+00
					 5.00000000E-01	 0.00000000E+00	 5.00000000E+00
					 7.50000000E-01	 0.00000000E+00	 5.00000000E+00
					 5.00000000E-01	 0.00000000E+00	 5.50000000E+00
					 2.50000000E-01	 0.00000000E+00	 6.00000000E+00
					 5.00000000E-01	 0.00000000E+00	 6.00000000E+00
					 7.50000000E-01	 0.00000000E+00	 6.00000000E+00
					 5.00000000E-01	 0.00000000E+00	 6.50000000E+00
					 2.50000000E-01	 0.00000000E+00	 7.00000000E+00
					 5.00000000E-01	 0.00000000E+00	 7.00000000E+00
					 7.50000000E-01	 0.00000000E+00	 7.00000000E+00
					 5.00000000E-01	 0.00000000E+00	 7.50000000E+00
					 1.00000000E+00	 7.50000000E-01	 5.00000000E-01
					 1.00000000E+00	 3.75000000E-01	 1.00000000E+00
					 1.00000000E+00	 7.50000000E-01	 1.00000000E+00
					 1.00000000E+00	 1.12500000E+00	 1.00000000E+00
					 1.00000000E+00	 7.50000000E-01	 1.50000000E+00
					 1.00000000E+00	 3.75000000E-01	 2.00000000E+00
					 1.00000000E+00	 7.50000000E-01	 2.00000000E+00
					 1.00000000E+00	 1.12500000E+00	 2.00000000E+00
					 1.00000000E+00	 7.50000000E-01	 2.50000000E+00
					 1.00000000E+00	 3.75000000E-01	 3.00000000E+00
					 1.00000000E+00	 7.50000000E-01	 3.00000000E+00
					 1.00000000E+00	 1.12500000E+00	 3.00000000E+00
					 1.00000000E+00	 7.50000000E-01	 3.50000000E+00
					 1.00000000E+00	 3.75000000E-01	 4.00000000E+00
					 1.00000000E+00	 7.50000000E-01	 4.00000000E+00
					 1.00000000E+00	 1.12500000E+00	 4.00000000E+00
					 1.00000000E+00	 7.50000000E-01	 4.50000000E+00
					 1.00000000E+00	 3.75000000E-01	 5.00000000E+00
					 1.00000000E+00	 7.50000000E-01	 5.00000000E+00
					 1.00000000E+00	 1.12500000E+00	 5.00000000E+00
					 1.00000000E+00	 7.50000000E-01	 5.50000000E+00
					 1.00000000E+00	 3.75000000E-01	 6.00000000E+00
					 1.00000000E+00	 7.50000000E-01	 6.00000000E+00
					 1.00000000E+00	 1.12500000E+00	 6.00000000E+00
					 1.00000000E+00	 7.50000000E-01	 6.50000000E+00
					 1.00000000E+00	 3.75000000E-01	 7.00000000E+00
					 1.00000000E+00	 7.50000000E-01	 7.00000000E+00
					 1.00000000E+00	 1.12500000E+00	 7.00000000E+00
					 1.00000000E+00	 7.50000000E-01	 7.50000000E+00
					 5.00000000E-01	 1.50000000E+00	 5.00000000E-01
					 7.50000000E-01	 1.50000000E+00	 1.00000000E+00
					 5.00000000E-01	 1.50000000E+00	 1.00000000E+00
					 2.50000000E-01	 1.50000000E+00	 1.00000000E+00
					 5.00000000E-01	 1.50000000E+00	 1.50000000E+00
					 7.50000000E-01	 1.50000000E+00	 2.00000000E+00
					 5.00000000E-01	 1.50000000E+00	 2.00000000E+00
					 2.50000000E-01	 1.50000000E+00	 2.00000000E+00
					 5.00000000E-01	 1.50000000E+00	 2.50000000E+00
					 7.50000000E-01	 1.50000000E+00	 3.00000000E+00
					 5.00000000E-01	 1.50000000E+00	 3.00000000E+00
					 2.50000000E-01	 1.50000000E+00	 3.00000000E+00
					 5.00000000E-01	 1.50000000E+00	 3.50000000E+00
					 7.50000000E-01	 1.50000000E+00	 4.00000000E+00
					 5.00000000E-01	 1.50000000E+00	 4.00000000E+00
					 2.50000000E-01	 1.50000000E+00	 4.00000000E+00
					 5.00000000E-01	 1.50000000E+00	 4.50000000E+00
					 7.50000000E-01	 1.50000000E+00	 5.00000000E+00
					 5.00000000E-01	 1.50000000E+00	 5.00000000E+00
					 2.50000000E-01	 1.50000000E+00	 5.00000000E+00
					 5.00000000E-01	 1.50000000E+00	 5.50000000E+00
					 7.50000000E-01	 1.50000000E+00	 6.00000000E+00
					 5.00000000E-01	 1.50000000E+00	 6.00000000E+00
					 2.50000000E-01	 1.50000000E+00	 6.00000000E+00
					 5.00000000E-01	 1.50000000E+00	 6.50000000E+00
					 7.50000000E-01	 1.50000000E+00	 7.00000000E+00
					 5.00000000E-01	 1.50000000E+00	 7.00000000E+00
					 2.50000000E-01	 1.50000000E+00	 7.00000000E+00
					 5.00000000E-01	 1.50000000E+00	 7.50000000E+00
					 0.00000000E+00	 7.50000000E-01	 5.00000000E-01
					 0.00000000E+00	 1.12500000E+00	 1.00000000E+00
					 0.00000000E+00	 7.50000000E-01	 1.00000000E+00
					 0.00000000E+00	 3.75000000E-01	 1.00000000E+00
					 0.00000000E+00	 7.50000000E-01	 1.50000000E+00
					 0.00000000E+00	 1.12500000E+00	 2.00000000E+00
					 0.00000000E+00	 7.50000000E-01	 2.00000000E+00
					 0.00000000E+00	 3.75000000E-01	 2.00000000E+00
					 0.00000000E+00	 7.50000000E-01	 2.50000000E+00
					 0.00000000E+00	 1.12500000E+00	 3.00000000E+00
					 0.00000000E+00	 7.50000000E-01	 3.00000000E+00
					 0.00000000E+00	 3.75000000E-01	 3.00000000E+00
					 0.00000000E+00	 7.50000000E-01	 3.50000000E+00
					 0.00000000E+00	 1.12500000E+00	 4.00000000E+00
					 0.00000000E+00	 7.50000000E-01	 4.00000000E+00
					 0.00000000E+00	 3.75000000E-01	 4.00000000E+00
					 0.00000000E+00	 7.50000000E-01	 4.50000000E+00
					 0.00000000E+00	 1.12500000E+00	 5.00000000E+00
					 0.00000000E+00	 7.50000000E-01	 5.00000000E+00
					 0.00000000E+00	 3.75000000E-01	 5.00000000E+00
					 0.00000000E+00	 7.50000000E-01	 5.50000000E+00
					 0.00000000E+00	 1.12500000E+00	 6.00000000E+00
					 0.00000000E+00	 7.50000000E-01	 6.00000000E+00
					 0.00000000E+00	 3.75000000E-01	 6.00000000E+00
					 0.00000000E+00	 7.50000000E-01	 6.50000000E+00
					 0.00000000E+00	 1.12500000E+00	 7.00000000E+00
					 0.00000000E+00	 7.50000000E-01	 7.00000000E+00
					 0.00000000E+00	 3.75000000E-01	 7.00000000E+00
					 0.00000000E+00	 7.50000000E-01	 7.50000000E+00
					 5.00000000E-01	 7.50000000E-01	 5.00000000E-01
					 5.00000000E-01	 3.75000000E-01	 1.00000000E+00
					 2.50000000E-01	 7.50000000E-01	 1.00000000E+00
					 5.00000000E-01	 7.50000000E-01	 1.00000000E+00
					 7.50000000E-01	 7.50000000E-01	 1.00000000E+00
					 5.00000000E-01	 1.12500000E+00	 1.00000000E+00
					 5.00000000E-01	 7.50000000E-01	 1.50000000E+00
					 5.00000000E-01	 3.75000000E-01	 2.00000000E+00
					 2.50000000E-01	 7.50000000E-01	 2.00000000E+00
					 5.00000000E-01	 7.50000000E-01	 2.00000000E+00
					 7.50000000E-01	 7.50000000E-01	 2.00000000E+00
					 5.00000000E-01	 1.12500000E+00	 2.00000000E+00
					 5.00000000E-01	 7.50000000E-01	 2.50000000E+00
					 5.00000000E-01	 3.75000000E-01	 3.00000000E+00
					 2.50000000E-01	 7.50000000E-01	 3.00000000E+00
					 5.00000000E-01	 7.50000000E-01	 3.00000000E+00
					 7.50000000E-01	 7.50000000E-01	 3.00000000E+00
					 5.00000000E-01	 1.12500000E+00	 3.00000000E+00
					 5.00000000E-01	 7.50000000E-01	 3.50000000E+00
					 5.00000000E-01	 3.75000000E-01	 4.00000000E+00
					 2.50000000E-01	 7.50000000E-01	 4.00000000E+00
					 5.00000000E-01	 7.50000000E-01	 4.00000000E+00
					 7.50000000E-01	 7.50000000E-01	 4.00000000E+00
					 5.00000000E-01	 1.12500000E+00	 4.00000000E+00
					 5.00000000E-01	 7.50000000E-01	 4.50000000E+00
					 5.00000000E-01	 3.75000000E-01	 5.00000000E+00
					 2.50000000E-01	 7.50000000E-01	 5.00000000E+00
					 5.00000000E-01	 7.50000000E-01	 5.00000000E+00
					 7.50000000E-01	 7.50000000E-01	 5.00000000E+00
					 5.00000000E-01	 1.12500000E+00	 5.00000000E+00
					 5.00000000E-01	 7.50000000E-01	 5.50000000E+00
					 5.00000000E-01	 3.75000000E-01	 6.00000000E+00
					 2.50000000E-01	 7.50000000E-01	 6.00000000E+00
					 5.00000000E-01	 7.50000000E-01	 6.00000000E+00
					 7.50000000E-01	 7.50000000E-01	 6.00000000E+00
					 5.00000000E-01	 1.12500000E+00	 6.00000000E+00
					 5.00000000E-01	 7.50000000E-01	 6.50000000E+00
					 5.00000000E-01	 3.75000000E-01	 7.00000000E+00
					 2.50000000E-01	 7.50000000E-01	 7.00000000E+00
					 5.00000000E-01	 7.50000000E-01	 7.00000000E+00
					 7.50000000E-01	 7.50000000E-01	 7.00000000E+00
					 5.00000000E-01	 1.12500000E+00	 7.00000000E+00
					 5.00000000E-01	 7.50000000E-01	 7.50000000E+00

				</DataArray>
			</Points>
			<Cells>
				<DataArray type="Int32" Name="connectivity" format="ascii">
					0 9 94 18 60 104 221 191 8 92 93 19 103 219 220 192 61 102 218 189 9 1 12 94 104 33 133 221 10 11 95 92 105 132 222 219 102 32 131 218 18 94 15 3 191 221 162 78 93 96 16 17 220 223 163 190 189 218 160 77 94 12 2 15 221 133 63 162 95 13 14 96 222 134 161 223 218 131 62 160 60 104 221 191 58 108 227 195 103 219 220 192 107 225 226 196 59 106 224 193 104 33 133 221 108 35 137 227 105 132 222 219 109 136 228 225 106 34 135 224 191 221 162 78 195 227 166 80 220 223 163 190 226 229 167 194 193 224 164 79 221 133 63 162 227 137 65 166 222 134 161 223 228 138 165 229 224 135 64 164 58 108 227 195 56 112 233 199 107 225 226 196 111 231 232 200 57 110 230 197 108 35 137 227 112 37 141 233 109 136 228 225 113 140 234 231 110 36 139 230 195 227 166 80 199 233 170 82 226 229 167 194 232 235 171 198 197 230 168 81 227 137 65 166 233 141 67 170 228 138 165 229 234 142 169 235 230 139 66 168 56 112 233 199 54 116 239 203 111 231 232 200 115 237 238 204 55 114 236 201 112 37 141 233 116 39 145 239 113 140 234 231 117 144 240 237 114 38 143 236 199 233 170 82 203 239 174 84 232 235 171 198 238 241 175 202 201 236 172 83 233 141 67 170 239 145 69 174 234 142 169 235 240 146 173 241 236 143 68 172 54 116 239 203 52 120 245 207 115 237 238 204 119 243 244 208 53 118 242 205 116 39 145 239 120 41 149 245 117 144 240 237 121 148 246 243 118 40 147 242 203 239 174 84 207 245 178 86 238 241 175 202 244 247 179 206 205 242 176 85 239 145 69 174 245 149 71 178 240 146 173 241 246 150 177 247 242 147 70 176 52 120 245 207 50 124 251 211 119 243 244 208 123 249 250 212 51 122 248 209 120 41 149 245 124 43 153 251 121 148 246 243 125 152 252 249 122 42 151 248 207 245 178 86 211 251 182 88 244 247 179 206 250 253 183 210 209 248 180 87 245 149 71 178 251 153 73 182 246 150 177 247 252 154 181 253 248 151 72 180 50 124 251 211 48 128 257 215 123 249 250 212 127 255 256 216 49 126 254 213 124 43 153 251 128 45 157 257 125 152 252 249 129 156 258 255 126 44 155 254 211 251 182 88 215 257 186 90 250 253 183 210 256 259 187 214 213 254 184 89 251 153 73 182 257 157 75 186 252 154 181 253 258 158 185 259 254 155 74 184 48 128 257 215 4 21 99 30 127 255 256 216 20 97 98 31 47 130 260 217 128 45 157 257 21 5 24 99 129 156 258 255 22 23 100 97 130 46 159 260 215 257 186 90 30 99 27 7 256 259 187 214 98 101 28 29 217 260 188 91 257 157 75 186 99 24 6 27 258 158 185 259 100 25 26 101 260 159 76 188 
				</DataArray>
				<DataArray type="Int32" Name="offsets" format="ascii">
					20 40 60 80 100 120 140 160 180 200 220 240 260 280 300 320 340 360 380 400 420 440 460 480 500 520 540 560 580 600 620 640 
				</DataArray>
				<DataArray type="UInt8" Name="types" format="ascii">
					25 25 25 25 25 25 25 25 25 25 25 25 25 25 25 25 25 25 25 25 25 25 25 25 25 25 25 25 25 25 25 25 
				</DataArray>
			</Cells>
			<PointData>
				<DataArray type="Float32" Name="U" NumberOfComponents="3" ComponentName0="D1" ComponentName1="D2" ComponentName2="D3" format="ascii">
					 0.00000000E+00	 0.00000000E+00	 0.00000000E+00
					 0.00000000E+00	 0.00000000E+00	 0.00000000E+00
					 0.00000000E+00	 0.00000000E+00	 0.00000000E+00
					 0.00000000E+00	 0.00000000E+00	 0.00000000E+00
					 5.53614000E+03	 6.69382000E+01	 3.43905000E+03
					 5.53614000E+03	-6.69382000E+01	-3.43905000E+03
					 5.53614000E+03	 6.69382000E+01	-3.43905000E+03
					 5.53614000E+03	-6.69382000E+01	 3.43905000E+03
					 0.00000000E+00	 0.00000000E+00	 0.00000000E+00
					 0.00000000E+00	 0.00000000E+00	 0.00000000E+00
					 0.00000000E+00	 0.00000000E+00	 0.00000000E+00
					 0.00000000E+00	 0.00000000E+00	 0.00000000E+00
					 0.00000000E+00	 0.00000000E+00	 0.00000000E+00
					 0.00000000E+00	 0.00000000E+00	 0.00000000E+00
					 0.00000000E+00	 0.00000000E+00	 0.00000000E+00
					 0.00000000E+00	 0.00000000E+00	 0.00000000E+00
					 0.00000000E+00	 0.00000000E+00	 0.00000000E+00
					 0.00000000E+00	 0.00000000E+00	 0.00000000E+00
					 0.00000000E+00	 0.00000000E+00	 0.00000000E+00
					 0.00000000E+00	 0.00000000E+00	 0.00000000E+00
					 5.51811000E+03	 2.25428000E+01	 1.67468000E+03
					 5.48538000E+03	 0.00000000E+00	 0.00000000E+00
					 5.51811000E+03	-2.25428000E+01	-1.67468000E+03
					 5.61341000E+03	-5.59440000E+01	-3.50169000E+03
					 5.66815000E+03	 0.00000000E+00	-3.50604000E+03
					 5.61341000E+03	 5.59440000E+01	-3.50169000E+03
					 5.51811000E+03	 2.25428000E+01	-1.67468000E+03
					 5.48538000E+03	 0.00000000E+00	 0.00000000E+00
					 5.51811000E+03	-2.25428000E+01	 1.67468000E+03
					 5.61341000E+03	-5.59440000E+01	 3.50169000E+03
					 5.66815000E+03	 0.00000000E+00	 3.50604000E+03
					 5.61341000E+03	 5.59440000E+01	 3.50169000E+03
					-1.80116000E+03	 1.75211000E+02	 1.00009000E+03
					-3.82097000E+03	-3.09644000E+02	 9.67162000E+02
					-4.99835000E+03	-5.12219000E+02	-5.27087000E+01
					-4.20798000E+03	-4.85326000E+02	-1.31914000E+03
					-1.79972000E+03	-1.85297000E+02	-2.13803000E+03
					 1.31518000E+03	 2.04055000E+02	-2.15460000E+03
					 3.75489000E+03	 5.20319000E+02	-1.24655000E+03
					 4.56435000E+03	 6.11793000E+02	 1.36395000E+02
					 3.32835000E+03	 4.36265000E+02	 1.41550000E+03
					 6.88713000E+02	 6.15164000E+01	 2.06226000E+03
					-2.20563000E+03	-3.53401000E+02	 1.69027000E+03
					-4.02202000E+03	-6.39033000E+02	 5.13189000E+02
					-3.86027000E+03	-6.87427000E+02	-1.06720000E+03
					-1.67897000E+03	-5.10944000E+02	-2.48731000E+03
					 1.80166000E+03	-2.53288000E+02	-3.24342000E+03
					 1.80166000E+03	 2.53288000E+02	 3.24342000E+03
					-1.67897000E+03	 5.10944000E+02	 2.48731000E+03
					-3.86027000E+03	 6.87427000E+02	 1.06720000E+03
					-4.02202000E+03	 6.39033000E+02	-5.13189000E+02
					-2.20563000E+03	 3.53401000E+02	-1.69027000E+03
					 6.88713000E+02	-6.15164000E+01	-2.06226000E+03
					 3.32835000E+03	-4.36265000E+02	-1.41550000E+03
					 4.56435000E+03	-6.11793000E+02	-1.36395000E+02
					 3.75489000E+03	-5.20319000E+02	 1.24655000E+03
					 1.31518000E+03	-2.04055000E+02	 2.15460000E+03
					-1.79972000E+03	 1.85297000E+02	 2.13803000E+03
					-4.20798000E+03	 4.85326000E+02	 1.31914000E+03
					-4.99835000E+03	 5.12219000E+02	 5.27087000E+01
					-3.82097000E+03	 3.09644000E+02	-9.67162000E+02
					-1.80116000E+03	-1.75211000E+02	-1.00009000E+03
					-1.80116000E+03	-1.75211000E+02	 1.00009000E+03
					-3.82097000E+03	 3.09644000E+02	 9.67162000E+02
					-4.99835000E+03	 5.12219000E+02	-5.27087000E+01
					-4.20798000E+03	 4.85326000E+02	-1.31914000E+03
					-1.79972000E+03	 1.85297000E+02	-2.13803000E+03
					 1.31518000E+03	-2.04055000E+02	-2.15460000E+03
					 3.75489000E+03	-5.20319000E+02	-1.24655000E+03
					 4.56435000E+03	-6.11793000E+02	 1.36395000E+02
					 3.32835000E+03	-4.36265000E+02	 1.41550000E+03
					 6.88713000E+02	-6.15164000E+01	 2.06226000E+03
					-2.20563000E+03	 3.53401000E+02	 1.69027000E+03
					-4.02202000E+03	 6.39033000E+02	 5.13189000E+02
					-3.86027000E+03	 6.87427000E+02	-1.06720000E+03
					-1.67897000E+03	 5.10944000E+02	-2.48731000E+03
					 1.80166000E+03	 2.53288000E+02	-3.24342000E+03
					-1.80116000E+03	 1.75211000E+02	-1.00009000E+03
					-3.82097000E+03	-3.09644000E+02	-9.67162000E+02
					-4.99835000E+03	-5.12219000E+02	 5.27087000E+01
					-4.20798000E+03	-4.85326000E+02	 1.31914000E+03
					-1.79972000E+03	-1.85297000E+02	 2.13803000E+03
					 1.31518000E+03	 2.04055000E+02	 2.15460000E+03
					 3.75489000E+03	 5.20319000E+02	 1.24655000E+03
					 4.56435000E+03	 6.11793000E+02	-1.36395000E+02
					 3.32835000E+03	 4.36265000E+02	-1.41550000E+03
					 6.88713000E+02	 6.15164000E+01	-2.06226000E+03
					-2.20563000E+03	-3.53401000E+02	-1.69027000E+03
					-4.02202000E+03	-6.39033000E+02	-5.13189000E+02
					-3.86027000E+03	-6.87427000E+02	 1.06720000E+03
					-1.67897000E+03	-5.10944000E+02	 2.48731000E+03
					 1.80166000E+03	-2.53288000E+02	 3.24342000E+03
					 0.00000000E+00	 0.00000000E+00	 0.00000000E+00
					 0.00000000E+00	 0.00000000E+00	 0.00000000E+00
					 0.00000000E+00	 0.00000000E+00	 0.00000000E+00
					 0.00000000E+00	 0.00000000E+00	 0.00000000E+00
					 0.00000000E+00	 0.00000000E+00	 0.00000000E+00
					 5.56141000E+03	 0.00000000E+00	 0.00000000E+00
					 5.66970000E+03	 0.00000000E+00	 1.72722000E+03
					 5.64768000E+03	 0.00000000E+00	 0.00000000E+00
					 5.66970000E+03	 0.00000000E+00	-1.72722000E+03
					 5.56141000E+03	 0.00000000E+00	 0.00000000E+00
					-1.68658000E+03	 0.00000000E+00	 0.00000000E+00
					-3.93641000E+03	 1.52937000E+02	-2.76421000E+02
					-4.02888000E+03	 0.00000000E+00	 0.00000000E+00
					-3.93641000E+03	-1.52937000E+02	 2.76421000E+02
					-5.07957000E+03	 0.00000000E+00	 0.00000000E+00
					-4.37087000E+03	 2.45960000E+02	 5.73411000E+02
					-4.41524000E+03	 0.00000000E+00	 0.00000000E+00
					-4.37087000E+03	-2.45960000E+02	-5.73411000E+02
					-1.83812000E+03	 0.00000000E+00	 0.00000000E+00
					 1.36243000E+03	-1.02782000E+02	 9.16756000E+02
					 1.36378000E+03	 0.00000000E+00	 0.00000000E+00
					 1.36243000E+03	 1.02782000E+02	-9.16756000E+02
					 3.90319000E+03	 0.00000000E+00	 0.00000000E+00
					 4.72659000E+03	-3.08654000E+02	-5.02898000E+01
					 4.75948000E+03	 0.00000000E+00	 0.00000000E+00
					 4.72659000E+03	 3.08654000E+02	 5.02898000E+01
					 3.44933000E+03	 0.00000000E+00	 0.00000000E+00
					 7.03796000E+02	-3.12228000E+01	-8.51365000E+02
					 7.03644000E+02	 0.00000000E+00	 0.00000000E+00
					 7.03796000E+02	 3.12228000E+01	 8.51365000E+02
					-2.30032000E+03	 0.00000000E+00	 0.00000000E+00
					-4.19771000E+03	 3.21311000E+02	-1.84983000E+02
					-4.24192000E+03	 0.00000000E+00	 0.00000000E+00
					-4.19771000E+03	-3.21311000E+02	 1.84983000E+02
					-4.05058000E+03	 0.00000000E+00	 0.00000000E+00
					-1.81818000E+03	 2.56908000E+02	 1.13807000E+03
					-1.86648000E+03	 0.00000000E+00	 0.00000000E+00
					-1.81818000E+03	-2.56908000E+02	-1.13807000E+03
					 1.74185000E+03	 0.00000000E+00	 0.00000000E+00
					-1.85134000E+03	 0.00000000E+00	 1.02841000E+03
					-3.69820000E+03	-1.59647000E+02	 1.08026000E+03
					-3.64228000E+03	 0.00000000E+00	 1.01954000E+03
					-3.69820000E+03	 1.59647000E+02	 1.08026000E+03
					-4.63150000E+03	 0.00000000E+00	-4.67614000E+01
					-3.93204000E+03	-2.29869000E+02	-1.36920000E+03
					-3.88002000E+03	 0.00000000E+00	-1.33244000E+03
					-3.93204000E+03	 2.29869000E+02	-1.36920000E+03
					-1.66822000E+03	 0.00000000E+00	-2.17750000E+03
					 1.19489000E+03	 9.84323000E+01	-2.25415000E+03
					 1.16583000E+03	 0.00000000E+00	-2.18628000E+03
					 1.19489000E+03	-9.84323000E+01	-2.25415000E+03
					 3.38362000E+03	 0.00000000E+00	-1.27107000E+03
					 4.21783000E+03	 2.96214000E+02	 1.47620000E+02
					 4.13090000E+03	 0.00000000E+00	 1.40719000E+02
					 4.21783000E+03	-2.96214000E+02	 1.47620000E+02
					 3.01832000E+03	 0.00000000E+00	 1.44811000E+03
					 6.53297000E+02	 2.89841000E+01	 2.17343000E+03
					 6.46209000E+02	 0.00000000E+00	 2.09976000E+03
					 6.53297000E+02	-2.89841000E+01	 2.17343000E+03
					-1.94901000E+03	 0.00000000E+00	 1.73171000E+03
					-3.65916000E+03	-3.11484000E+02	 5.58244000E+02
					-3.56515000E+03	 0.00000000E+00	 5.31426000E+02
					-3.65916000E+03	 3.11484000E+02	 5.58244000E+02
					-3.35839000E+03	 0.00000000E+00	-1.07647000E+03
					-1.38707000E+03	-2.54254000E+02	-2.55342000E+03
					-1.29579000E+03	 0.00000000E+00	-2.50612000E+03
					-1.38707000E+03	 2.54254000E+02	-2.55342000E+03
					 2.01145000E+03	 0.00000000E+00	-3.28141000E+03
					-1.68658000E+03	 0.00000000E+00	 0.00000000E+00
					-3.93641000E+03	 1.52937000E+02	 2.76421000E+02
					-4.02888000E+03	 0.00000000E+00	 0.00000000E+00
					-3.93641000E+03	-1.52937000E+02	-2.76421000E+02
					-5.07957000E+03	 0.00000000E+00	 0.00000000E+00
					-4.37087000E+03	 2.45960000E+02	-5.73411000E+02
					-4.41524000E+03	 0.00000000E+00	 0.00000000E+00
					-4.37087000E+03	-2.45960000E+02	 5.73411000E+02
					-1.83812000E+03	 0.00000000E+00	 0.00000000E+00
					 1.36243000E+03	-1.02782000E+02	-9.16756000E+02
					 1.36378000E+03	 0.00000000E+00	 0.00000000E+00
					 1.36243000E+03	 1.02782000E+02	 9.16756000E+02
					 3.90319000E+03	 0.00000000E+00	 0.00000000E+00
					 4.72659000E+03	-3.08654000E+02	 5.02898000E+01
					 4.75948000E+03	 0.00000000E+00	 0.00000000E+00
					 4.72659000E+03	 3.08654000E+02	-5.02898000E+01
					 3.44933000E+03	 0.00000000E+00	 0.00000000E+00
					 7.03796000E+02	-3.12228000E+01	 8.51365000E+02
					 7.03644000E+02	 0.00000000E+00	 0.00000000E+00
					 7.03796000E+02	 3.12228000E+01	-8.51365000E+02
					-2.30032000E+03	 0.00000000E+00	 0.00000000E+00
					-4.19771000E+03	 3.21311000E+02	 1.84983000E+02
					-4.24192000E+03	 0.00000000E+00	 0.00000000E+00
					-4.19771000E+03	-3.21311000E+02	-1.84983000E+02
					-4.05058000E+03	 0.00000000E+00	 0.00000000E+00
					-1.81818000E+03	 2.56908000E+02	-1.13807000E+03
					-1.86648000E+03	 0.00000000E+00	 0.00000000E+00
					-1.81818000E+03	-2.56908000E+02	 1.13807000E+03
					 1.74185000E+03	 0.00000000E+00	 0.00000000E+00
					-1.85134000E+03	 0.00000000E+00	-1.02841000E+03
					-3.69820000E+03	-1.59647000E+02	-1.08026000E+03
					-3.64228000E+03	 0.00000000E+00	-1.01954000E+03
					-3.69820000E+03	 1.59647000E+02	-1.08026000E+03
					-4.63150000E+03	 0.00000000E+00	 4.67614000E+01
					-3.93204000E+03	-2.29869000E+02	 1.36920000E+03
					-3.88002000E+03	 0.00000000E+00	 1.33244000E+03
					-3.93204000E+03	 2.29869000E+02	 1.36920000E+03
					-1.66822000E+03	 0.00000000E+00	 2.17750000E+03
					 1.19489000E+03	 9.84323000E+01	 2.25415000E+03
					 1.16583000E+03	 0.00000000E+00	 2.18628000E+03
					 1.19489000E+03	-9.84323000E+01	 2.25415000E+03
					 3.38362000E+03	 0.00000000E+00	 1.27107000E+03
					 4.21783000E+03	 2.96214000E+02	-1.47620000E+02
					 4.13090000E+03	 0.00000000E+00	-1.40719000E+02
					 4.21783000E+03	-2.96214000E+02	-1.47620000E+02
					 3.01832000E+03	 0.00000000E+00	-1.44811000E+03
					 6.53297000E+02	 2.89841000E+01	-2.17343000E+03
					 6.46209000E+02	 0.00000000E+00	-2.09976000E+03
					 6.53297000E+02	-2.89841000E+01	-2.17343000E+03
					-1.94901000E+03	 0.00000000E+00	-1.73171000E+03
					-3.65916000E+03	-3.11484000E+02	-5.58244000E+02
					-3.56515000E+03	 0.00000000E+00	-5.31426000E+02
					-3.65916000E+03	 3.11484000E+02	-5.58244000E+02
					-3.35839000E+03	 0.00000000E+00	 1.07647000E+03
					-1.38707000E+03	-2.54254000E+02	 2.55342000E+03
					-1.29579000E+03	 0.00000000E+00	 2.50612000E+03
					-1.38707000E+03	 2.54254000E+02	 2.55342000E+03
					 2.01145000E+03	 0.00000000E+00	 3.28141000E+03
					-1.70969000E+03	 0.00000000E+00	 0.00000000E+00
					-3.91131000E+03	 0.00000000E+00	 0.00000000E+00
					-3.75895000E+03	 0.00000000E+00	-3.57796000E+02
					-3.85495000E+03	 0.00000000E+00	 0.00000000E+00
					-3.75895000E+03	 0.00000000E+00	 3.57796000E+02
					-3.91131000E+03	 0.00000000E+00	 0.00000000E+00
					-4.74739000E+03	 0.00000000E+00	 0.00000000E+00
					-4.14259000E+03	 0.00000000E+00	 0.00000000E+00
					-4.05666000E+03	 0.00000000E+00	 6.09148000E+02
					-4.10376000E+03	 0.00000000E+00	 0.00000000E+00
					-4.05666000E+03	 0.00000000E+00	-6.09148000E+02
					-4.14259000E+03	 0.00000000E+00	 0.00000000E+00
					-1.72216000E+03	 0.00000000E+00	 0.00000000E+00
					 1.24709000E+03	 0.00000000E+00	 0.00000000E+00
					 1.21938000E+03	 0.00000000E+00	 9.92227000E+02
					 1.22390000E+03	 0.00000000E+00	 0.00000000E+00
					 1.21938000E+03	 0.00000000E+00	-9.92227000E+02
					 1.24709000E+03	 0.00000000E+00	 0.00000000E+00
					 3.55773000E+03	 0.00000000E+00	 0.00000000E+00
					 4.42038000E+03	 0.00000000E+00	 0.00000000E+00
					 4.30925000E+03	 0.00000000E+00	-5.91531000E+01
					 4.34914000E+03	 0.00000000E+00	 0.00000000E+00
					 4.30925000E+03	 0.00000000E+00	 5.91531000E+01
					 4.42038000E+03	 0.00000000E+00	 0.00000000E+00