    1C
    1Utest C3D6 node load                                               
    1UUSER                                                              
    1UDATE              01.august.2019                                  
    1UTIME              09:25:07                                        
    1UHOST                                                              
    1UPGM               CalculiX                                        
    1UVERSION           Version 2.15                             
    1UCOMPILETIME       Fri 15 Mar 11:57:46 CET 2019                    
    1UDIR                                                               
    1UDBN                                                               
    1UMAT    1M1                                                        
    2C                            16                                     1
 -1         1 0.00000E+00 5.00000E-01 0.00000E+00
 -1         2 0.00000E+00 0.00000E+00 0.00000E+00
 -1         3 5.00000E-01 0.00000E+00 0.00000E+00
 -1         4 1.00000E+00 0.00000E+00 0.00000E+00
 -1         5 1.50000E+00 0.00000E+00 0.00000E+00
 -1         6 1.50000E+00 5.00000E-01 0.00000E+00
 -1         7 1.00000E+00 5.00000E-01 0.00000E+00
 -1         8 5.00000E-01 5.00000E-01 0.00000E+00
 -1         9 0.00000E+00 5.00000E-01 5.00000E-01
 -1        10 0.00000E+00 0.00000E+00 5.00000E-01
 -1        11 5.00000E-01 0.00000E+00 5.00000E-01
 -1        12 1.00000E+00 0.00000E+00 5.00000E-01
 -1        13 1.50000E+00 0.00000E+00 5.00000E-01
 -1        14 1.50000E+00 5.00000E-01 5.00000E-01
 -1        15 1.00000E+00 5.00000E-01 5.00000E-01
 -1        16 5.00000E-01 5.00000E-01 5.00000E-01
 -3
    3C                             6                                     1
 -1         7    2    0    1
 -2         1         3         8         9        11        16
 -1         8    2    0    1
 -2         1         2         3         9        10        11
 -1         9    2    0    1
 -2         8         3         7        16        11        15
 -1        10    2    0    1
 -2         3         4         7        11        12        15
 -1        11    2    0    1
 -2         7         5         6        15        13        14
 -1        12    2    0    1
 -2         7         4         5        15        12        13
 -3
 9999
