# vtk DataFile Version 3.0

ASCII
DATASET UNSTRUCTURED_GRID

POINTS 1408 double
	 1.00000000E+01	 0.00000000E+00	 5.00000000E-01
	 1.00000000E+01	 0.00000000E+00	 4.55000000E-01
	 1.00000000E+01	 0.00000000E+00	 4.10000000E-01
	 1.00000000E+01	 0.00000000E+00	 4.10000000E-01
	 1.00000000E+01	 0.00000000E+00	 4.05000000E-01
	 1.00000000E+01	 0.00000000E+00	 4.00000000E-01
	 1.00000000E+01	 0.00000000E+00	 4.00000000E-01
	 1.00000000E+01	 0.00000000E+00	 3.50000000E-01
	 1.00000000E+01	 0.00000000E+00	 3.00000000E-01
	 1.00000000E+01	 0.00000000E+00	 3.00000000E-01
	 1.00000000E+01	 0.00000000E+00	 2.50000000E-01
	 1.00000000E+01	 0.00000000E+00	 2.00000000E-01
	 1.00000000E+01	 0.00000000E+00	 2.00000000E-01
	 1.00000000E+01	 0.00000000E+00	 1.50000000E-01
	 1.00000000E+01	 0.00000000E+00	 1.00000000E-01
	 1.00000000E+01	 0.00000000E+00	 1.00000000E-01
	 1.00000000E+01	 0.00000000E+00	 5.00000000E-02
	 1.00000000E+01	 0.00000000E+00	-5.55112000E-17
	 1.00000000E+01	 0.00000000E+00	-5.55112000E-17
	 1.00000000E+01	 0.00000000E+00	-5.00000000E-02
	 1.00000000E+01	 0.00000000E+00	-1.00000000E-01
	 1.00000000E+01	 0.00000000E+00	-1.00000000E-01
	 1.00000000E+01	 0.00000000E+00	-1.50000000E-01
	 1.00000000E+01	 0.00000000E+00	-2.00000000E-01
	 1.00000000E+01	 0.00000000E+00	-2.00000000E-01
	 1.00000000E+01	 0.00000000E+00	-2.50000000E-01
	 1.00000000E+01	 0.00000000E+00	-3.00000000E-01
	 1.00000000E+01	 0.00000000E+00	-3.00000000E-01
	 1.00000000E+01	 0.00000000E+00	-3.50000000E-01
	 1.00000000E+01	 0.00000000E+00	-4.00000000E-01
	 1.00000000E+01	 0.00000000E+00	-4.00000000E-01
	 1.00000000E+01	 0.00000000E+00	-4.50000000E-01
	 1.00000000E+01	 0.00000000E+00	-5.00000000E-01
	 9.00000000E+00	 0.00000000E+00	 5.00000000E-01
	 9.00000000E+00	 0.00000000E+00	 4.55000000E-01
	 9.00000000E+00	 0.00000000E+00	 4.10000000E-01
	 9.00000000E+00	 0.00000000E+00	 4.10000000E-01
	 9.00000000E+00	 0.00000000E+00	 4.05000000E-01
	 9.00000000E+00	 0.00000000E+00	 4.00000000E-01
	 9.00000000E+00	 0.00000000E+00	 4.00000000E-01
	 9.00000000E+00	 0.00000000E+00	 3.50000000E-01
	 9.00000000E+00	 0.00000000E+00	 3.00000000E-01
	 9.00000000E+00	 0.00000000E+00	 3.00000000E-01
	 9.00000000E+00	 0.00000000E+00	 2.50000000E-01
	 9.00000000E+00	 0.00000000E+00	 2.00000000E-01
	 9.00000000E+00	 0.00000000E+00	 2.00000000E-01
	 9.00000000E+00	 0.00000000E+00	 1.50000000E-01
	 9.00000000E+00	 0.00000000E+00	 1.00000000E-01
	 9.00000000E+00	 0.00000000E+00	 1.00000000E-01
	 9.00000000E+00	 0.00000000E+00	 5.00000000E-02
	 9.00000000E+00	 0.00000000E+00	-5.55112000E-17
	 9.00000000E+00	 0.00000000E+00	-5.55112000E-17
	 9.00000000E+00	 0.00000000E+00	-5.00000000E-02
	 9.00000000E+00	 0.00000000E+00	-1.00000000E-01
	 9.00000000E+00	 0.00000000E+00	-1.00000000E-01
	 9.00000000E+00	 0.00000000E+00	-1.50000000E-01
	 9.00000000E+00	 0.00000000E+00	-2.00000000E-01
	 9.00000000E+00	 0.00000000E+00	-2.00000000E-01
	 9.00000000E+00	 0.00000000E+00	-2.50000000E-01
	 9.00000000E+00	 0.00000000E+00	-3.00000000E-01
	 9.00000000E+00	 0.00000000E+00	-3.00000000E-01
	 9.00000000E+00	 0.00000000E+00	-3.50000000E-01
	 9.00000000E+00	 0.00000000E+00	-4.00000000E-01
	 9.00000000E+00	 0.00000000E+00	-4.00000000E-01
	 9.00000000E+00	 0.00000000E+00	-4.50000000E-01
	 9.00000000E+00	 0.00000000E+00	-5.00000000E-01
	 9.00000000E+00	 1.00000000E+00	 5.00000000E-01
	 9.00000000E+00	 1.00000000E+00	 4.55000000E-01
	 9.00000000E+00	 1.00000000E+00	 4.10000000E-01
	 9.00000000E+00	 1.00000000E+00	 4.10000000E-01
	 9.00000000E+00	 1.00000000E+00	 4.05000000E-01
	 9.00000000E+00	 1.00000000E+00	 4.00000000E-01
	 9.00000000E+00	 1.00000000E+00	 4.00000000E-01
	 9.00000000E+00	 1.00000000E+00	 3.50000000E-01
	 9.00000000E+00	 1.00000000E+00	 3.00000000E-01
	 9.00000000E+00	 1.00000000E+00	 3.00000000E-01
	 9.00000000E+00	 1.00000000E+00	 2.50000000E-01
	 9.00000000E+00	 1.00000000E+00	 2.00000000E-01
	 9.00000000E+00	 1.00000000E+00	 2.00000000E-01
	 9.00000000E+00	 1.00000000E+00	 1.50000000E-01
	 9.00000000E+00	 1.00000000E+00	 1.00000000E-01
	 9.00000000E+00	 1.00000000E+00	 1.00000000E-01
	 9.00000000E+00	 1.00000000E+00	 5.00000000E-02
	 9.00000000E+00	 1.00000000E+00	-5.55112000E-17
	 9.00000000E+00	 1.00000000E+00	-5.55112000E-17
	 9.00000000E+00	 1.00000000E+00	-5.00000000E-02
	 9.00000000E+00	 1.00000000E+00	-1.00000000E-01
	 9.00000000E+00	 1.00000000E+00	-1.00000000E-01
	 9.00000000E+00	 1.00000000E+00	-1.50000000E-01
	 9.00000000E+00	 1.00000000E+00	-2.00000000E-01
	 9.00000000E+00	 1.00000000E+00	-2.00000000E-01
	 9.00000000E+00	 1.00000000E+00	-2.50000000E-01
	 9.00000000E+00	 1.00000000E+00	-3.00000000E-01
	 9.00000000E+00	 1.00000000E+00	-3.00000000E-01
	 9.00000000E+00	 1.00000000E+00	-3.50000000E-01
	 9.00000000E+00	 1.00000000E+00	-4.00000000E-01
	 9.00000000E+00	 1.00000000E+00	-4.00000000E-01
	 9.00000000E+00	 1.00000000E+00	-4.50000000E-01
	 9.00000000E+00	 1.00000000E+00	-5.00000000E-01
	 1.00000000E+01	 1.00000000E+00	 5.00000000E-01
	 1.00000000E+01	 1.00000000E+00	 4.55000000E-01
	 1.00000000E+01	 1.00000000E+00	 4.10000000E-01
	 1.00000000E+01	 1.00000000E+00	 4.10000000E-01
	 1.00000000E+01	 1.00000000E+00	 4.05000000E-01
	 1.00000000E+01	 1.00000000E+00	 4.00000000E-01
	 1.00000000E+01	 1.00000000E+00	 4.00000000E-01
	 1.00000000E+01	 1.00000000E+00	 3.50000000E-01
	 1.00000000E+01	 1.00000000E+00	 3.00000000E-01
	 1.00000000E+01	 1.00000000E+00	 3.00000000E-01
	 1.00000000E+01	 1.00000000E+00	 2.50000000E-01
	 1.00000000E+01	 1.00000000E+00	 2.00000000E-01
	 1.00000000E+01	 1.00000000E+00	 2.00000000E-01
	 1.00000000E+01	 1.00000000E+00	 1.50000000E-01
	 1.00000000E+01	 1.00000000E+00	 1.00000000E-01
	 1.00000000E+01	 1.00000000E+00	 1.00000000E-01
	 1.00000000E+01	 1.00000000E+00	 5.00000000E-02
	 1.00000000E+01	 1.00000000E+00	-5.55112000E-17
	 1.00000000E+01	 1.00000000E+00	-5.55112000E-17
	 1.00000000E+01	 1.00000000E+00	-5.00000000E-02
	 1.00000000E+01	 1.00000000E+00	-1.00000000E-01
	 1.00000000E+01	 1.00000000E+00	-1.00000000E-01
	 1.00000000E+01	 1.00000000E+00	-1.50000000E-01
	 1.00000000E+01	 1.00000000E+00	-2.00000000E-01
	 1.00000000E+01	 1.00000000E+00	-2.00000000E-01
	 1.00000000E+01	 1.00000000E+00	-2.50000000E-01
	 1.00000000E+01	 1.00000000E+00	-3.00000000E-01
	 1.00000000E+01	 1.00000000E+00	-3.00000000E-01
	 1.00000000E+01	 1.00000000E+00	-3.50000000E-01
	 1.00000000E+01	 1.00000000E+00	-4.00000000E-01
	 1.00000000E+01	 1.00000000E+00	-4.00000000E-01
	 1.00000000E+01	 1.00000000E+00	-4.50000000E-01
	 1.00000000E+01	 1.00000000E+00	-5.00000000E-01
	 9.50000000E+00	 0.00000000E+00	 5.00000000E-01
	 9.50000000E+00	 0.00000000E+00	 4.10000000E-01
	 9.50000000E+00	 0.00000000E+00	 4.10000000E-01
	 9.50000000E+00	 0.00000000E+00	 4.00000000E-01
	 9.50000000E+00	 0.00000000E+00	 4.00000000E-01
	 9.50000000E+00	 0.00000000E+00	 3.00000000E-01
	 9.50000000E+00	 0.00000000E+00	 3.00000000E-01
	 9.50000000E+00	 0.00000000E+00	 2.00000000E-01
	 9.50000000E+00	 0.00000000E+00	 2.00000000E-01
	 9.50000000E+00	 0.00000000E+00	 1.00000000E-01
	 9.50000000E+00	 0.00000000E+00	 1.00000000E-01
	 9.50000000E+00	 0.00000000E+00	-5.55112000E-17
	 9.50000000E+00	 0.00000000E+00	-5.55112000E-17
	 9.50000000E+00	 0.00000000E+00	-1.00000000E-01
	 9.50000000E+00	 0.00000000E+00	-1.00000000E-01
	 9.50000000E+00	 0.00000000E+00	-2.00000000E-01
	 9.50000000E+00	 0.00000000E+00	-2.00000000E-01
	 9.50000000E+00	 0.00000000E+00	-3.00000000E-01
	 9.50000000E+00	 0.00000000E+00	-3.00000000E-01
	 9.50000000E+00	 0.00000000E+00	-4.00000000E-01
	 9.50000000E+00	 0.00000000E+00	-4.00000000E-01
	 9.50000000E+00	 0.00000000E+00	-5.00000000E-01
	 9.00000000E+00	 5.00000000E-01	 5.00000000E-01
	 9.00000000E+00	 5.00000000E-01	 4.10000000E-01
	 9.00000000E+00	 5.00000000E-01	 4.10000000E-01
	 9.00000000E+00	 5.00000000E-01	 4.00000000E-01
	 9.00000000E+00	 5.00000000E-01	 4.00000000E-01
	 9.00000000E+00	 5.00000000E-01	 3.00000000E-01
	 9.00000000E+00	 5.00000000E-01	 3.00000000E-01
	 9.00000000E+00	 5.00000000E-01	 2.00000000E-01
	 9.00000000E+00	 5.00000000E-01	 2.00000000E-01
	 9.00000000E+00	 5.00000000E-01	 1.00000000E-01
	 9.00000000E+00	 5.00000000E-01	 1.00000000E-01
	 9.00000000E+00	 5.00000000E-01	-5.55112000E-17
	 9.00000000E+00	 5.00000000E-01	-5.55112000E-17
	 9.00000000E+00	 5.00000000E-01	-1.00000000E-01
	 9.00000000E+00	 5.00000000E-01	-1.00000000E-01
	 9.00000000E+00	 5.00000000E-01	-2.00000000E-01
	 9.00000000E+00	 5.00000000E-01	-2.00000000E-01
	 9.00000000E+00	 5.00000000E-01	-3.00000000E-01
	 9.00000000E+00	 5.00000000E-01	-3.00000000E-01
	 9.00000000E+00	 5.00000000E-01	-4.00000000E-01
	 9.00000000E+00	 5.00000000E-01	-4.00000000E-01
	 9.00000000E+00	 5.00000000E-01	-5.00000000E-01
	 9.50000000E+00	 1.00000000E+00	 5.00000000E-01
	 9.50000000E+00	 1.00000000E+00	 4.10000000E-01
	 9.50000000E+00	 1.00000000E+00	 4.10000000E-01
	 9.50000000E+00	 1.00000000E+00	 4.00000000E-01
	 9.50000000E+00	 1.00000000E+00	 4.00000000E-01
	 9.50000000E+00	 1.00000000E+00	 3.00000000E-01
	 9.50000000E+00	 1.00000000E+00	 3.00000000E-01
	 9.50000000E+00	 1.00000000E+00	 2.00000000E-01
	 9.50000000E+00	 1.00000000E+00	 2.00000000E-01
	 9.50000000E+00	 1.00000000E+00	 1.00000000E-01
	 9.50000000E+00	 1.00000000E+00	 1.00000000E-01
	 9.50000000E+00	 1.00000000E+00	-5.55112000E-17
	 9.50000000E+00	 1.00000000E+00	-5.55112000E-17
	 9.50000000E+00	 1.00000000E+00	-1.00000000E-01
	 9.50000000E+00	 1.00000000E+00	-1.00000000E-01
	 9.50000000E+00	 1.00000000E+00	-2.00000000E-01
	 9.50000000E+00	 1.00000000E+00	-2.00000000E-01
	 9.50000000E+00	 1.00000000E+00	-3.00000000E-01
	 9.50000000E+00	 1.00000000E+00	-3.00000000E-01
	 9.50000000E+00	 1.00000000E+00	-4.00000000E-01
	 9.50000000E+00	 1.00000000E+00	-4.00000000E-01
	 9.50000000E+00	 1.00000000E+00	-5.00000000E-01
	 1.00000000E+01	 5.00000000E-01	 5.00000000E-01
	 1.00000000E+01	 5.00000000E-01	 4.10000000E-01
	 1.00000000E+01	 5.00000000E-01	 4.10000000E-01
	 1.00000000E+01	 5.00000000E-01	 4.00000000E-01
[...]
POINT_DATA 1408
FIELD U 1
	U 3 1408 double
		 2.34554000E-03	-1.18719000E-08	-3.20455000E-02
		 2.15535000E-03	-7.03082000E-09	-3.20451000E-02
		 1.96516000E-03	-2.70409000E-09	-3.20447000E-02
		 1.96516000E-03	-2.70409000E-09	-3.20447000E-02
		 1.94402000E-03	-2.25509000E-09	-3.20447000E-02
		 1.92289000E-03	-1.81245000E-09	-3.20446000E-02
		 1.92289000E-03	-1.81245000E-09	-3.20446000E-02
		 1.71157000E-03	 2.26480000E-09	-3.20442000E-02
		 1.50025000E-03	 5.70707000E-09	-3.20437000E-02
		 1.50025000E-03	 5.70707000E-09	-3.20437000E-02
		 1.28893000E-03	 8.51437000E-09	-3.20433000E-02
		 1.07761000E-03	 1.06867000E-08	-3.20428000E-02
		 1.07761000E-03	 1.06867000E-08	-3.20428000E-02
		 8.66295000E-04	 1.22240000E-08	-3.20424000E-02
		 6.54979000E-04	 1.31264000E-08	-3.20420000E-02
		 6.54979000E-04	 1.31264000E-08	-3.20420000E-02
		 4.43663000E-04	 1.33937000E-08	-3.20415000E-02
		 2.32348000E-04	 1.30261000E-08	-3.20411000E-02
		 2.32348000E-04	 1.30261000E-08	-3.20411000E-02
		 2.10341000E-05	 1.20236000E-08	-3.20406000E-02
		-1.90279000E-04	 1.03860000E-08	-3.20402000E-02
		-1.90279000E-04	 1.03860000E-08	-3.20402000E-02
		-4.01591000E-04	 8.11345000E-09	-3.20397000E-02
		-6.12902000E-04	 5.20592000E-09	-3.20393000E-02
		-6.12902000E-04	 5.20592000E-09	-3.20393000E-02
		-8.24213000E-04	 1.66342000E-09	-3.20388000E-02
		-1.03552000E-03	-2.51406000E-09	-3.20384000E-02
		-1.03552000E-03	-2.51406000E-09	-3.20384000E-02
		-1.24683000E-03	-7.32652000E-09	-3.20379000E-02
		-1.45814000E-03	-1.27740000E-08	-3.20374000E-02
		-1.45814000E-03	-1.27740000E-08	-3.20374000E-02
		-1.66944000E-03	-1.88564000E-08	-3.20370000E-02
		-1.88075000E-03	-2.55738000E-08	-3.20365000E-02
		 2.35257000E-03	 6.74683000E-07	-2.78173000E-02
		 2.16256000E-03	 5.80806000E-07	-2.78169000E-02
		 1.97255000E-03	 4.93311000E-07	-2.78165000E-02
		 1.97255000E-03	 4.93311000E-07	-2.78165000E-02
		 1.95144000E-03	 4.83984000E-07	-2.78164000E-02
		 1.93033000E-03	 4.74735000E-07	-2.78164000E-02
		 1.93033000E-03	 4.74735000E-07	-2.78164000E-02
		 1.71921000E-03	 3.86579000E-07	-2.78159000E-02
		 1.50810000E-03	 3.06301000E-07	-2.78155000E-02
		 1.50810000E-03	 3.06301000E-07	-2.78155000E-02
		 1.29699000E-03	 2.33902000E-07	-2.78151000E-02
		 1.08589000E-03	 1.69382000E-07	-2.78146000E-02
		 1.08589000E-03	 1.69382000E-07	-2.78146000E-02
		 8.74784000E-04	 1.12740000E-07	-2.78142000E-02
		 6.63687000E-04	 6.39767000E-08	-2.78138000E-02
		 6.63687000E-04	 6.39767000E-08	-2.78138000E-02
		 4.52593000E-04	 2.30921000E-08	-2.78133000E-02
		 2.41503000E-04	-9.91402000E-09	-2.78129000E-02
		 2.41503000E-04	-9.91402000E-09	-2.78129000E-02
		 3.04163000E-05	-3.50415000E-08	-2.78125000E-02
		-1.80667000E-04	-5.22904000E-08	-2.78121000E-02
		-1.80667000E-04	-5.22904000E-08	-2.78121000E-02
		-3.91746000E-04	-6.16608000E-08	-2.78116000E-02
		-6.02822000E-04	-6.31525000E-08	-2.78112000E-02
		-6.02822000E-04	-6.31525000E-08	-2.78112000E-02
		-8.13894000E-04	-5.67657000E-08	-2.78108000E-02
		-1.02496000E-03	-4.25003000E-08	-2.78104000E-02
		-1.02496000E-03	-4.25003000E-08	-2.78104000E-02
		-1.23603000E-03	-2.03563000E-08	-2.78100000E-02
		-1.44709000E-03	 9.66627000E-09	-2.78096000E-02
		-1.44709000E-03	 9.66627000E-09	-2.78096000E-02
		-1.65815000E-03	 4.75674000E-08	-2.78092000E-02
		-1.86920000E-03	 9.33471000E-08	-2.78088000E-02
		 2.35257000E-03	-6.74683000E-07	-2.78173000E-02
		 2.16256000E-03	-5.80806000E-07	-2.78169000E-02
		 1.97255000E-03	-4.93311000E-07	-2.78165000E-02
		 1.97255000E-03	-4.93311000E-07	-2.78165000E-02
		 1.95144000E-03	-4.83984000E-07	-2.78164000E-02
		 1.93033000E-03	-4.74735000E-07	-2.78164000E-02
		 1.93033000E-03	-4.74735000E-07	-2.78164000E-02
		 1.71921000E-03	-3.86579000E-07	-2.78159000E-02
		 1.50810000E-03	-3.06301000E-07	-2.78155000E-02
		 1.50810000E-03	-3.06301000E-07	-2.78155000E-02
		 1.29699000E-03	-2.33902000E-07	-2.78151000E-02
		 1.08589000E-03	-1.69382000E-07	-2.78146000E-02
		 1.08589000E-03	-1.69382000E-07	-2.78146000E-02
		 8.74784000E-04	-1.12740000E-07	-2.78142000E-02
		 6.63687000E-04	-6.39767000E-08	-2.78138000E-02
		 6.63687000E-04	-6.39767000E-08	-2.78138000E-02
		 4.52593000E-04	-2.30921000E-08	-2.78133000E-02
		 2.41503000E-04	 9.91402000E-09	-2.78129000E-02
		 2.41503000E-04	 9.91402000E-09	-2.78129000E-02
		 3.04163000E-05	 3.50415000E-08	-2.78125000E-02
		-1.80667000E-04	 5.22904000E-08	-2.78121000E-02
		-1.80667000E-04	 5.22904000E-08	-2.78121000E-02
		-3.91746000E-04	 6.16608000E-08	-2.78116000E-02
		-6.02822000E-04	 6.31525000E-08	-2.78112000E-02
		-6.02822000E-04	 6.31525000E-08	-2.78112000E-02
		-8.13894000E-04	 5.67657000E-08	-2.78108000E-02
		-1.02496000E-03	 4.25003000E-08	-2.78104000E-02
		-1.02496000E-03	 4.25003000E-08	-2.78104000E-02
		-1.23603000E-03	 2.03563000E-08	-2.78100000E-02
		-1.44709000E-03	-9.66627000E-09	-2.78096000E-02
		-1.44709000E-03	-9.66627000E-09	-2.78096000E-02
		-1.65815000E-03	-4.75674000E-08	-2.78092000E-02
		-1.86920000E-03	-9.33471000E-08	-2.78088000E-02
		 2.34554000E-03	 1.18719000E-08	-3.20455000E-02
		 2.15535000E-03	 7.03082000E-09	-3.20451000E-02
		 1.96516000E-03	 2.70409000E-09	-3.20447000E-02
		 1.96516000E-03	 2.70409000E-09	-3.20447000E-02
		 1.94402000E-03	 2.25509000E-09	-3.20447000E-02
		 1.92289000E-03	 1.81245000E-09	-3.20446000E-02
		 1.92289000E-03	 1.81245000E-09	-3.20446000E-02
		 1.71157000E-03	-2.26480000E-09	-3.20442000E-02
		 1.50025000E-03	-5.70707000E-09	-3.20437000E-02
		 1.50025000E-03	-5.70707000E-09	-3.20437000E-02
		 1.28893000E-03	-8.51437000E-09	-3.20433000E-02
		 1.07761000E-03	-1.06867000E-08	-3.20428000E-02
		 1.07761000E-03	-1.06867000E-08	-3.20428000E-02
		 8.66295000E-04	-1.22240000E-08	-3.20424000E-02
		 6.54979000E-04	-1.31264000E-08	-3.20420000E-02
		 6.54979000E-04	-1.31264000E-08	-3.20420000E-02
		 4.43663000E-04	-1.33937000E-08	-3.20415000E-02
		 2.32348000E-04	-1.30261000E-08	-3.20411000E-02
		 2.32348000E-04	-1.30261000E-08	-3.20411000E-02
		 2.10341000E-05	-1.20236000E-08	-3.20406000E-02
		-1.90279000E-04	-1.03860000E-08	-3.20402000E-02
		-1.90279000E-04	-1.03860000E-08	-3.20402000E-02
		-4.01591000E-04	-8.11345000E-09	-3.20397000E-02
		-6.12902000E-04	-5.20592000E-09	-3.20393000E-02
		-6.12902000E-04	-5.20592000E-09	-3.20393000E-02
		-8.24213000E-04	-1.66342000E-09	-3.20388000E-02
		-1.03552000E-03	 2.51406000E-09	-3.20384000E-02
		-1.03552000E-03	 2.51406000E-09	-3.20384000E-02
		-1.24683000E-03	 7.32652000E-09	-3.20379000E-02
		-1.45814000E-03	 1.27740000E-08	-3.20374000E-02
		-1.45814000E-03	 1.27740000E-08	-3.20374000E-02
		-1.66944000E-03	 1.88564000E-08	-3.20370000E-02
		-1.88075000E-03	 2.55738000E-08	-3.20365000E-02
		 2.34974000E-03	 2.13863000E-07	-2.99315000E-02
		 1.96940000E-03	 1.42673000E-07	-2.99307000E-02
		 1.96940000E-03	 1.42673000E-07	-2.99307000E-02
		 1.92714000E-03	 1.35487000E-07	-2.99306000E-02
		 1.92714000E-03	 1.35487000E-07	-2.99306000E-02
		 1.50454000E-03	 7.15984000E-08	-2.99297000E-02
		 1.50454000E-03	 7.15984000E-08	-2.99297000E-02
		 1.08196000E-03	 2.21970000E-08	-2.99289000E-02
		 1.08196000E-03	 2.21970000E-08	-2.99289000E-02
		 6.59381000E-04	-1.27173000E-08	-2.99280000E-02
		 6.59381000E-04	-1.27173000E-08	-2.99280000E-02
		 2.36813000E-04	-3.31444000E-08	-2.99271000E-02
		 2.36813000E-04	-3.31444000E-08	-2.99271000E-02
		-1.85745000E-04	-3.90842000E-08	-2.99263000E-02
		-1.85745000E-04	-3.90842000E-08	-2.99263000E-02
		-6.08294000E-04	-3.05369000E-08	-2.99254000E-02
		-6.08294000E-04	-3.05369000E-08	-2.99254000E-02
		-1.03083000E-03	-7.50236000E-09	-2.99246000E-02
		-1.03083000E-03	-7.50236000E-09	-2.99246000E-02
		-1.45337000E-03	 3.00194000E-08	-2.99237000E-02
		-1.45337000E-03	 3.00194000E-08	-2.99237000E-02
		-1.87589000E-03	 8.20283000E-08	-2.99229000E-02
		 2.35279000E-03	 0.00000000E+00	-2.78178000E-02
		 1.97275000E-03	 0.00000000E+00	-2.78169000E-02
		 1.97275000E-03	 0.00000000E+00	-2.78169000E-02
		 1.93052000E-03	 0.00000000E+00	-2.78168000E-02
		 1.93052000E-03	 0.00000000E+00	-2.78168000E-02
		 1.50826000E-03	 0.00000000E+00	-2.78159000E-02
		 1.50826000E-03	 0.00000000E+00	-2.78159000E-02
		 1.08602000E-03	 0.00000000E+00	-2.78149000E-02
		 1.08602000E-03	 0.00000000E+00	-2.78149000E-02
		 6.63786000E-04	 0.00000000E+00	-2.78140000E-02
		 6.63786000E-04	 0.00000000E+00	-2.78140000E-02
		 2.41571000E-04	 0.00000000E+00	-2.78130000E-02
		 2.41571000E-04	 0.00000000E+00	-2.78130000E-02
		-1.80630000E-04	 0.00000000E+00	-2.78121000E-02
		-1.80630000E-04	 0.00000000E+00	-2.78121000E-02
		-6.02817000E-04	 0.00000000E+00	-2.78112000E-02
		-6.02817000E-04	 0.00000000E+00	-2.78112000E-02
		-1.02499000E-03	 0.00000000E+00	-2.78103000E-02
		-1.02499000E-03	 0.00000000E+00	-2.78103000E-02
		-1.44715000E-03	 0.00000000E+00	-2.78094000E-02
		-1.44715000E-03	 0.00000000E+00	-2.78094000E-02
		-1.86929000E-03	 0.00000000E+00	-2.78085000E-02
		 2.34974000E-03	-2.13863000E-07	-2.99315000E-02
		 1.96940000E-03	-1.42673000E-07	-2.99307000E-02
		 1.96940000E-03	-1.42673000E-07	-2.99307000E-02
		 1.92714000E-03	-1.35487000E-07	-2.99306000E-02
		 1.92714000E-03	-1.35487000E-07	-2.99306000E-02
		 1.50454000E-03	-7.15984000E-08	-2.99297000E-02
		 1.50454000E-03	-7.15984000E-08	-2.99297000E-02
		 1.08196000E-03	-2.21970000E-08	-2.99289000E-02
		 1.08196000E-03	-2.21970000E-08	-2.99289000E-02
		 6.59381000E-04	 1.27173000E-08	-2.99280000E-02
		 6.59381000E-04	 1.27173000E-08	-2.99280000E-02
		 2.36813000E-04	 3.31444000E-08	-2.99271000E-02
		 2.36813000E-04	 3.31444000E-08	-2.99271000E-02
		-1.85745000E-04	 3.90842000E-08	-2.99263000E-02
		-1.85745000E-04	 3.90842000E-08	-2.99263000E-02
		-6.08294000E-04	 3.05369000E-08	-2.99254000E-02
		-6.08294000E-04	 3.05369000E-08	-2.99254000E-02
		-1.03083000E-03	 7.50236000E-09	-2.99246000E-02
		-1.03083000E-03	 7.50236000E-09	-2.99246000E-02
		-1.45337000E-03	-3.00194000E-08	-2.99237000E-02
		-1.45337000E-03	-3.00194000E-08	-2.99237000E-02
		-1.87589000E-03	-8.20283000E-08	-2.99229000E-02
		 2.34554000E-03	 0.00000000E+00	-3.20454000E-02
		 1.96516000E-03	 0.00000000E+00	-3.20447000E-02
		 1.96516000E-03	 0.00000000E+00	-3.20447000E-02
		 1.92289000E-03	 0.00000000E+00	-3.20446000E-02
		 1.92289000E-03	 0.00000000E+00	-3.20446000E-02
		 1.50025000E-03	 0.00000000E+00	-3.20437000E-02
		 1.50025000E-03	 0.00000000E+00	-3.20437000E-02
		 1.07761000E-03	 0.00000000E+00	-3.20428000E-02
		 1.07761000E-03	 0.00000000E+00	-3.20428000E-02
		 6.54979000E-04	 0.00000000E+00	-3.20419000E-02
		 6.54979000E-04	 0.00000000E+00	-3.20419000E-02
		 2.32348000E-04	 0.00000000E+00	-3.20410000E-02
		 2.32348000E-04	 0.00000000E+00	-3.20410000E-02
		-1.90279000E-04	 0.00000000E+00	-3.20401000E-02
		-1.90279000E-04	 0.00000000E+00	-3.20401000E-02
		-6.12903000E-04	 0.00000000E+00	-3.20392000E-02
		-6.12903000E-04	 0.00000000E+00	-3.20392000E-02
		-1.03552000E-03	 0.00000000E+00	-3.20383000E-02
		-1.03552000E-03	 0.00000000E+00	-3.20383000E-02
		-1.45814000E-03	 0.00000000E+00	-3.20374000E-02
		-1.45814000E-03	 0.00000000E+00	-3.20374000E-02
		-1.88075000E-03	 0.00000000E+00	-3.20365000E-02
		 2.34784000E-03	 2.90424000E-06	-2.35979000E-02
		 2.15917000E-03	 2.49022000E-06	-2.35975000E-02
		 1.97051000E-03	 2.10486000E-06	-2.35970000E-02
		 1.97051000E-03	 2.10486000E-06	-2.35970000E-02
		 1.94955000E-03	 2.06381000E-06	-2.35970000E-02
		 1.92858000E-03	 2.02311000E-06	-2.35969000E-02
		 1.92858000E-03	 2.02311000E-06	-2.35969000E-02
		 1.71895000E-03	 1.63561000E-06	-2.35965000E-02
		 1.50932000E-03	 1.28350000E-06	-2.35960000E-02
		 1.50932000E-03	 1.28350000E-06	-2.35960000E-02
		 1.29969000E-03	 9.66759000E-07	-2.35956000E-02
		 1.09005000E-03	 6.85402000E-07	-2.35952000E-02
		 1.09005000E-03	 6.85402000E-07	-2.35952000E-02
		 8.80418000E-04	 4.39424000E-07	-2.35948000E-02
		 6.70780000E-04	 2.28827000E-07	-2.35944000E-02
		 6.70780000E-04	 2.28827000E-07	-2.35944000E-02
		 4.61140000E-04	 5.36098000E-08	-2.35940000E-02
		 2.51499000E-04	-8.62276000E-08	-2.35937000E-02
		 2.51499000E-04	-8.62276000E-08	-2.35937000E-02
		 4.18556000E-05	-1.90685000E-07	-2.35933000E-02
		-1.67789000E-04	-2.59762000E-07	-2.35930000E-02
		-1.67789000E-04	-2.59762000E-07	-2.35930000E-02
		-3.77435000E-04	-2.93460000E-07	-2.35927000E-02
		-5.87084000E-04	-2.91778000E-07	-2.35924000E-02
		-5.87084000E-04	-2.91778000E-07	-2.35924000E-02
		-7.96733000E-04	-2.54715000E-07	-2.35921000E-02
		-1.00638000E-03	-1.82273000E-07	-2.35918000E-02
		-1.00638000E-03	-1.82273000E-07	-2.35918000E-02
		-1.21604000E-03	-7.44503000E-08	-2.35916000E-02
		-1.42569000E-03	 6.87520000E-08	-2.35913000E-02
		-1.42569000E-03	 6.87520000E-08	-2.35913000E-02
		-1.63535000E-03	 2.47334000E-07	-2.35911000E-02
		-1.84501000E-03	 4.61297000E-07	-2.35909000E-02
		 2.34784000E-03	-2.90424000E-06	-2.35979000E-02
		 2.15917000E-03	-2.49022000E-06	-2.35975000E-02
		 1.97051000E-03	-2.10486000E-06	-2.35970000E-02
		 1.97051000E-03	-2.10486000E-06	-2.35970000E-02
		 1.94955000E-03	-2.06381000E-06	-2.35970000E-02
		 1.92858000E-03	-2.02311000E-06	-2.35969000E-02
		 1.92858000E-03	-2.02311000E-06	-2.35969000E-02
		 1.71895000E-03	-1.63561000E-06	-2.35965000E-02
		 1.50932000E-03	-1.28350000E-06	-2.35960000E-02
		 1.50932000E-03	-1.28350000E-06	-2.35960000E-02
		 1.29969000E-03	-9.66759000E-07	-2.35956000E-02
		 1.09005000E-03	-6.85402000E-07	-2.35952000E-02
		 1.09005000E-03	-6.85402000E-07	-2.35952000E-02
		 8.80418000E-04	-4.39424000E-07	-2.35948000E-02
		 6.70780000E-04	-2.28827000E-07	-2.35944000E-02
		 6.70780000E-04	-2.28827000E-07	-2.35944000E-02
		 4.61140000E-04	-5.36098000E-08	-2.35940000E-02
		 2.51499000E-04	 8.62276000E-08	-2.35937000E-02
		 2.51499000E-04	 8.62276000E-08	-2.35937000E-02
		 4.18556000E-05	 1.90685000E-07	-2.35933000E-02
		-1.67789000E-04	 2.59762000E-07	-2.35930000E-02
		-1.67789000E-04	 2.59762000E-07	-2.35930000E-02
		-3.77435000E-04	 2.93460000E-07	-2.35927000E-02
		-5.87084000E-04	 2.91778000E-07	-2.35924000E-02
		-5.87084000E-04	 2.91778000E-07	-2.35924000E-02
		-7.96733000E-04	 2.54715000E-07	-2.35921000E-02
		-1.00638000E-03	 1.82273000E-07	-2.35918000E-02
		-1.00638000E-03	 1.82273000E-07	-2.35918000E-02
		-1.21604000E-03	 7.44503000E-08	-2.35916000E-02
		-1.42569000E-03	-6.87520000E-08	-2.35913000E-02
		-1.42569000E-03	-6.87520000E-08	-2.35913000E-02
		-1.63535000E-03	-2.47334000E-07	-2.35911000E-02
		-1.84501000E-03	-4.61297000E-07	-2.35909000E-02
		 2.35244000E-03	 1.64206000E-06	-2.57047000E-02
		 1.97336000E-03	 1.16991000E-06	-2.57038000E-02
		 1.97336000E-03	 1.16991000E-06	-2.57038000E-02
		 1.93125000E-03	 1.12177000E-06	-2.57037000E-02
		 1.93125000E-03	 1.12177000E-06	-2.57037000E-02
		 1.51005000E-03	 6.88003000E-07	-2.57028000E-02
		 1.51005000E-03	 6.88003000E-07	-2.57028000E-02
		 1.08886000E-03	 3.40751000E-07	-2.57020000E-02
		 1.08886000E-03	 3.40751000E-07	-2.57020000E-02
		 6.67675000E-04	 8.00154000E-08	-2.57011000E-02
		 6.67675000E-04	 8.00154000E-08	-2.57011000E-02
		 2.46493000E-04	-9.42028000E-08	-2.57004000E-02
		 2.46493000E-04	-9.42028000E-08	-2.57004000E-02
		-1.74685000E-04	-1.81904000E-07	-2.56996000E-02
		-1.74685000E-04	-1.81904000E-07	-2.56996000E-02
		-5.95860000E-04	-1.83088000E-07	-2.56989000E-02
		-5.95860000E-04	-1.83088000E-07	-2.56989000E-02
		-1.01703000E-03	-9.77549000E-08	-2.56982000E-02
		-1.01703000E-03	-9.77549000E-08	-2.56982000E-02
		-1.43820000E-03	 7.40952000E-08	-2.56975000E-02
		-1.43820000E-03	 7.40952000E-08	-2.56975000E-02
		-1.85936000E-03	 3.32462000E-07	-2.56969000E-02
		 2.34834000E-03	 0.00000000E+00	-2.36003000E-02
		 1.97095000E-03	 0.00000000E+00	-2.35991000E-02
		 1.97095000E-03	 0.00000000E+00	-2.35991000E-02
		 1.92902000E-03	 0.00000000E+00	-2.35989000E-02
		 1.92902000E-03	 0.00000000E+00	-2.35989000E-02
		 1.50969000E-03	 0.00000000E+00	-2.35977000E-02
		 1.50969000E-03	 0.00000000E+00	-2.35977000E-02
		 1.09035000E-03	 0.00000000E+00	-2.35965000E-02
		 1.09035000E-03	 0.00000000E+00	-2.35965000E-02
		 6.71010000E-04	 0.00000000E+00	-2.35953000E-02
		 6.71010000E-04	 0.00000000E+00	-2.35953000E-02
		 2.51660000E-04	 0.00000000E+00	-2.35943000E-02
		 2.51660000E-04	 0.00000000E+00	-2.35943000E-02
		-1.67696000E-04	 0.00000000E+00	-2.35932000E-02
		-1.67696000E-04	 0.00000000E+00	-2.35932000E-02
		-5.87059000E-04	 0.00000000E+00	-2.35923000E-02
		-5.87059000E-04	 0.00000000E+00	-2.35923000E-02
		-1.00643000E-03	 0.00000000E+00	-2.35914000E-02
		-1.00643000E-03	 0.00000000E+00	-2.35914000E-02
		-1.42580000E-03	 0.00000000E+00	-2.35905000E-02
		-1.42580000E-03	 0.00000000E+00	-2.35905000E-02
		-1.84519000E-03	 0.00000000E+00	-2.35897000E-02
		 2.35244000E-03	-1.64206000E-06	-2.57047000E-02
		 1.97336000E-03	-1.16991000E-06	-2.57038000E-02
		 1.97336000E-03	-1.16991000E-06	-2.57038000E-02
		 1.93125000E-03	-1.12177000E-06	-2.57037000E-02
		 1.93125000E-03	-1.12177000E-06	-2.57037000E-02
		 1.51005000E-03	-6.88003000E-07	-2.57028000E-02
		 1.51005000E-03	-6.88003000E-07	-2.57028000E-02
		 1.08886000E-03	-3.40751000E-07	-2.57020000E-02
		 1.08886000E-03	-3.40751000E-07	-2.57020000E-02
		 6.67675000E-04	-8.00154000E-08	-2.57011000E-02
		 6.67675000E-04	-8.00154000E-08	-2.57011000E-02
		 2.46493000E-04	 9.42028000E-08	-2.57004000E-02
		 2.46493000E-04	 9.42028000E-08	-2.57004000E-02
		-1.74685000E-04	 1.81904000E-07	-2.56996000E-02
		-1.74685000E-04	 1.81904000E-07	-2.56996000E-02
		-5.95860000E-04	 1.83088000E-07	-2.56989000E-02
		-5.95860000E-04	 1.83088000E-07	-2.56989000E-02
		-1.01703000E-03	 9.77549000E-08	-2.56982000E-02
		-1.01703000E-03	 9.77549000E-08	-2.56982000E-02
		-1.43820000E-03	-7.40952000E-08	-2.56975000E-02
		-1.43820000E-03	-7.40952000E-08	-2.56975000E-02
		-1.85936000E-03	-3.32462000E-07	-2.56969000E-02
		 2.31665000E-03	 6.99838000E-06	-1.94233000E-02
		 2.13164000E-03	 5.99732000E-06	-1.94228000E-02
		 1.94661000E-03	 5.06562000E-06	-1.94223000E-02
		 1.94661000E-03	 5.06562000E-06	-1.94223000E-02
		 1.92605000E-03	 4.96638000E-06	-1.94222000E-02
		 1.90549000E-03	 4.86800000E-06	-1.94222000E-02
		 1.90549000E-03	 4.86800000E-06	-1.94222000E-02
		 1.69988000E-03	 3.93126000E-06	-1.94217000E-02
		 1.49425000E-03	 3.08015000E-06	-1.94213000E-02
		 1.49425000E-03	 3.08015000E-06	-1.94213000E-02
		 1.28860000E-03	 2.31468000E-06	-1.94209000E-02
		 1.08294000E-03	 1.63485000E-06	-1.94205000E-02
		 1.08294000E-03	 1.63485000E-06	-1.94205000E-02
		 8.77249000E-04	 1.04065000E-06	-1.94201000E-02
		 6.71543000E-04	 5.32087000E-07	-1.94198000E-02
		 6.71543000E-04	 5.32087000E-07	-1.94198000E-02
		 4.65818000E-04	 1.09160000E-07	-1.94196000E-02
		 2.60074000E-04	-2.28132000E-07	-1.94193000E-02
		 2.60074000E-04	-2.28132000E-07	-1.94193000E-02
		 5.43098000E-05	-4.79788000E-07	-1.94192000E-02
		-1.51473000E-04	-6.45809000E-07	-1.94190000E-02
		-1.51473000E-04	-6.45809000E-07	-1.94190000E-02
		-3.57275000E-04	-7.26195000E-07	-1.94189000E-02
		-5.63097000E-04	-7.20945000E-07	-1.94188000E-02
		-5.63097000E-04	-7.20945000E-07	-1.94188000E-02
		-7.68938000E-04	-6.30059000E-07	-1.94187000E-02
		-9.74797000E-04	-4.53538000E-07	-1.94187000E-02
		-9.74797000E-04	-4.53538000E-07	-1.94187000E-02
		-1.18068000E-03	-1.91381000E-07	-1.94188000E-02
		-1.38658000E-03	 1.56410000E-07	-1.94188000E-02
		-1.38658000E-03	 1.56410000E-07	-1.94188000E-02
		-1.59249000E-03	 5.89838000E-07	-1.94189000E-02
		-1.79843000E-03	 1.10890000E-06	-1.94190000E-02
		 2.31665000E-03	-6.99838000E-06	-1.94233000E-02
		 2.13164000E-03	-5.99732000E-06	-1.94228000E-02
		 1.94661000E-03	-5.06562000E-06	-1.94223000E-02
		 1.94661000E-03	-5.06562000E-06	-1.94223000E-02
		 1.92605000E-03	-4.96638000E-06	-1.94222000E-02
		 1.90549000E-03	-4.86800000E-06	-1.94222000E-02
		 1.90549000E-03	-4.86800000E-06	-1.94222000E-02
		 1.69988000E-03	-3.93126000E-06	-1.94217000E-02
		 1.49425000E-03	-3.08015000E-06	-1.94213000E-02
		 1.49425000E-03	-3.08015000E-06	-1.94213000E-02
		 1.28860000E-03	-2.31468000E-06	-1.94209000E-02
		 1.08294000E-03	-1.63485000E-06	-1.94205000E-02
		 1.08294000E-03	-1.63485000E-06	-1.94205000E-02
		 8.77249000E-04	-1.04065000E-06	-1.94201000E-02