    1C
    1UUSER                                                              
    1UDATE              01.august.2019                                  
    1UTIME              09:27:50                                        
    1UHOST                                                              
    1UPGM               CalculiX                                        
    1UVERSION           Version 2.15                             
    1UCOMPILETIME       Fri 15 Mar 11:57:46 CET 2019                    
    1UDIR                                                               
    1UDBN                                                               
    1UMAT    1EL                                                        
    1UMAT    2SI1                                                       
    1UMAT    3SPRING                                                    
    2C                            18                                     1
 -1         1 0.00000E+00 0.00000E+00 0.00000E+00
 -1         2 1.10000E+00 0.00000E+00 0.00000E+00
 -1         3 1.00000E+00-1.00000E-01 1.00000E-01
 -1         4 1.20000E+00-1.00000E-01 1.00000E-01
 -1         5 1.20000E+00-1.00000E-01-1.00000E-01
 -1         6 1.00000E+00-1.00000E-01-1.00000E-01
 -1         7 1.00000E+00 1.00000E-01 1.00000E-01
 -1         8 1.20000E+00 1.00000E-01 1.00000E-01
 -1         9 1.20000E+00 1.00000E-01-1.00000E-01
 -1        10 1.00000E+00 1.00000E-01-1.00000E-01
 -1        11 1.00000E+00-1.00000E-01 1.00000E-01
 -1        12 2.00000E+00-1.00000E-01 1.00000E-01
 -1        13 2.00000E+00-1.00000E-01-1.00000E-01
 -1        14 1.00000E+00-1.00000E-01-1.00000E-01
 -1        15 1.00000E+00 1.00000E-01 1.00000E-01
 -1        16 2.00000E+00 1.00000E-01 1.00000E-01
 -1        17 2.00000E+00 1.00000E-01-1.00000E-01
 -1        18 1.00000E+00 1.00000E-01-1.00000E-01
 -3
    3C                             3                                     1
 -1         1   11    0    3
 -2         1         2
 -1         2    1    0    1
 -2         3         4         5         6         7         8         9        10
 -1         3    1    0    1
 -2        11        12        13        14        15        16        17        18
 -3
 9999
