    1C
    1C
    1UUSER
    1UDATE              01.august.2019      
    1UTIME              09:28:20
    1UHOST
    1UPGM               CalculiX
    1UDIR
    1UDBN
    2C                                                                   1
 -1         1 1.00000E-01 1.00000E+00 0.00000E+00
 -1         2 1.00000E-01 9.50000E-01 0.00000E+00
 -1         3 1.00000E-01 9.50000E-01 1.00000E-01
 -1         4 1.00000E-01 1.00000E+00 1.00000E-01
 -1         5 0.00000E+00 1.00000E+00 0.00000E+00
 -1         6 0.00000E+00 9.50000E-01 0.00000E+00
 -1         7 0.00000E+00 9.50000E-01 1.00000E-01
 -1         8 0.00000E+00 1.00000E+00 1.00000E-01
 -1         9 1.00000E-01 9.00000E-01 0.00000E+00
 -1        10 1.00000E-01 9.00000E-01 1.00000E-01
 -1        11 0.00000E+00 9.00000E-01 0.00000E+00
 -1        12 0.00000E+00 9.00000E-01 1.00000E-01
 -1        13 1.00000E-01 8.50000E-01 0.00000E+00
 -1        14 1.00000E-01 8.50000E-01 1.00000E-01
 -1        15 0.00000E+00 8.50000E-01 0.00000E+00
 -1        16 0.00000E+00 8.50000E-01 1.00000E-01
 -1        17 1.00000E-01 8.00000E-01 0.00000E+00
 -1        18 1.00000E-01 8.00000E-01 1.00000E-01
 -1        19 0.00000E+00 8.00000E-01 0.00000E+00
 -1        20 0.00000E+00 8.00000E-01 1.00000E-01
 -1        21 1.00000E-01 7.50000E-01 0.00000E+00
 -1        22 1.00000E-01 7.50000E-01 1.00000E-01
 -1        23 0.00000E+00 7.50000E-01 0.00000E+00
 -1        24 0.00000E+00 7.50000E-01 1.00000E-01
 -1        25 1.00000E-01 7.00000E-01 0.00000E+00
 -1        26 1.00000E-01 7.00000E-01 1.00000E-01
 -1        27 0.00000E+00 7.00000E-01 0.00000E+00
 -1        28 0.00000E+00 7.00000E-01 1.00000E-01
 -1        29 1.00000E-01 6.50000E-01 0.00000E+00
 -1        30 1.00000E-01 6.50000E-01 1.00000E-01
 -1        31 0.00000E+00 6.50000E-01 0.00000E+00
 -1        32 0.00000E+00 6.50000E-01 1.00000E-01
 -1        33 1.00000E-01 6.00000E-01 0.00000E+00
 -1        34 1.00000E-01 6.00000E-01 1.00000E-01
 -1        35 0.00000E+00 6.00000E-01 0.00000E+00
 -1        36 0.00000E+00 6.00000E-01 1.00000E-01
 -1        37 1.00000E-01 5.50000E-01 0.00000E+00
 -1        38 1.00000E-01 5.50000E-01 1.00000E-01
 -1        39 0.00000E+00 5.50000E-01 0.00000E+00
 -1        40 0.00000E+00 5.50000E-01 1.00000E-01
 -1        41 1.00000E-01 5.00000E-01 0.00000E+00
 -1        42 1.00000E-01 5.00000E-01 1.00000E-01
 -1        43 0.00000E+00 5.00000E-01 0.00000E+00
 -1        44 0.00000E+00 5.00000E-01 1.00000E-01
 -1        45 1.00000E-01 4.50000E-01 0.00000E+00
 -1        46 1.00000E-01 4.50000E-01 1.00000E-01
 -1        47 0.00000E+00 4.50000E-01 0.00000E+00
 -1        48 0.00000E+00 4.50000E-01 1.00000E-01
 -1        49 1.00000E-01 4.00000E-01 0.00000E+00
 -1        50 1.00000E-01 4.00000E-01 1.00000E-01
 -1        51 0.00000E+00 4.00000E-01 0.00000E+00
 -1        52 0.00000E+00 4.00000E-01 1.00000E-01
 -1        53 1.00000E-01 3.50000E-01 0.00000E+00
 -1        54 1.00000E-01 3.50000E-01 1.00000E-01
 -1        55 0.00000E+00 3.50000E-01 0.00000E+00
 -1        56 0.00000E+00 3.50000E-01 1.00000E-01
 -1        57 1.00000E-01 3.00000E-01 0.00000E+00
 -1        58 1.00000E-01 3.00000E-01 1.00000E-01
 -1        59 0.00000E+00 3.00000E-01 0.00000E+00
 -1        60 0.00000E+00 3.00000E-01 1.00000E-01
 -1        61 1.00000E-01 2.50000E-01 0.00000E+00
 -1        62 1.00000E-01 2.50000E-01 1.00000E-01
 -1        63 0.00000E+00 2.50000E-01 0.00000E+00
 -1        64 0.00000E+00 2.50000E-01 1.00000E-01
 -1        65 1.00000E-01 2.00000E-01 0.00000E+00
 -1        66 1.00000E-01 2.00000E-01 1.00000E-01
 -1        67 0.00000E+00 2.00000E-01 0.00000E+00
 -1        68 0.00000E+00 2.00000E-01 1.00000E-01
 -1        69 1.00000E-01 1.50000E-01 0.00000E+00
 -1        70 1.00000E-01 1.50000E-01 1.00000E-01
 -1        71 0.00000E+00 1.50000E-01 0.00000E+00
 -1        72 0.00000E+00 1.50000E-01 1.00000E-01
 -1        73 1.00000E-01 1.00000E-01 0.00000E+00
 -1        74 1.00000E-01 1.00000E-01 1.00000E-01
 -1        75 0.00000E+00 1.00000E-01 0.00000E+00
 -1        76 0.00000E+00 1.00000E-01 1.00000E-01
 -1        77 1.00000E-01 5.00000E-02 0.00000E+00
 -1        78 1.00000E-01 5.00000E-02 1.00000E-01
 -1        79 0.00000E+00 5.00000E-02 0.00000E+00
 -1        80 0.00000E+00 5.00000E-02 1.00000E-01
 -1        81 1.00000E-01 0.00000E+00 0.00000E+00
 -1        82 1.00000E-01 0.00000E+00 1.00000E-01
 -1        83 0.00000E+00 0.00000E+00 0.00000E+00
 -1        84 0.00000E+00 0.00000E+00 1.00000E-01
 -3
    3C                                                                   1
 -1         1    1    0WATER
 -2         1         2         3         4         5         6         7         8
 -1         2    1    0WATER
 -2         2         9        10         3         6        11        12         7
 -1         3    1    0WATER
 -2         9        13        14        10        11        15        16        12
 -1         4    1    0WATER
 -2        13        17        18        14        15        19        20        16
 -1         5    1    0WATER
 -2        17        21        22        18        19        23        24        20
 -1         6    1    0WATER
 -2        21        25        26        22        23        27        28        24
 -1         7    1    0WATER
 -2        25        29        30        26        27        31        32        28
 -1         8    1    0WATER
 -2        29        33        34        30        31        35        36        32
 -1         9    1    0WATER
 -2        33        37        38        34        35        39        40        36
 -1        10    1    0WATER
 -2        37        41        42        38        39        43        44        40
 -1        11    1    0WATER
 -2        41        45        46        42        43        47        48        44
 -1        12    1    0WATER
 -2        45        49        50        46        47        51        52        48
 -1        13    1    0WATER
 -2        49        53        54        50        51        55        56        52
 -1        14    1    0WATER
 -2        53        57        58        54        55        59        60        56
 -1        15    1    0WATER
 -2        57        61        62        58        59        63        64        60
 -1        16    1    0WATER
 -2        61        65        66        62        63        67        68        64
 -1        17    1    0WATER
 -2        65        69        70        66        67        71        72        68
 -1        18    1    0WATER
 -2        69        73        74        70        71        75        76        72
 -1        19    1    0WATER
 -2        73        77        78        74        75        79        80        76
 -1        20    1    0WATER
 -2        77        81        82        78        79        83        84        80
 -3
 9999
