<?xml version="1.0"?>
<VTKFile type="UnstructuredGrid" version="0.1" byte_order="LittleEndian">
	<UnstructuredGrid>
		<Piece NumberOfPoints="2960" NumberOfCells="632">
			<Points>
				<DataArray type="Float64" NumberOfComponents="3" format="ascii">
					 0.00000000E+00	 0.00000000E+00	 0.00000000E+00
					 1.25000000E-01	 0.00000000E+00	 0.00000000E+00
					 2.50000000E-01	 0.00000000E+00	 0.00000000E+00
					 3.75000000E-01	 0.00000000E+00	 0.00000000E+00
					 5.00000000E-01	 0.00000000E+00	 0.00000000E+00
					 6.25000000E-01	 0.00000000E+00	 0.00000000E+00
					 7.50000000E-01	 0.00000000E+00	 0.00000000E+00
					 8.75000000E-01	 0.00000000E+00	 0.00000000E+00
					 1.00000000E+00	 0.00000000E+00	 0.00000000E+00
					 1.00000000E+00	 0.00000000E+00	 1.25000000E-01
					 1.00000000E+00	 0.00000000E+00	 2.50000000E-01
					 1.00000000E+00	 0.00000000E+00	 3.75000000E-01
					 1.00000000E+00	 0.00000000E+00	 5.00000000E-01
					 1.00000000E+00	 0.00000000E+00	 6.25000000E-01
					 1.00000000E+00	 0.00000000E+00	 7.50000000E-01
					 1.00000000E+00	 0.00000000E+00	 8.75000000E-01
					 1.00000000E+00	 0.00000000E+00	 1.00000000E+00
					 8.75000000E-01	 0.00000000E+00	 1.00000000E+00
					 7.50000000E-01	 0.00000000E+00	 1.00000000E+00
					 6.25000000E-01	 0.00000000E+00	 1.00000000E+00
					 5.00000000E-01	 0.00000000E+00	 1.00000000E+00
					 3.75000000E-01	 0.00000000E+00	 1.00000000E+00
					 2.50000000E-01	 0.00000000E+00	 1.00000000E+00
					 1.25000000E-01	 0.00000000E+00	 1.00000000E+00
					 0.00000000E+00	 0.00000000E+00	 1.00000000E+00
					 0.00000000E+00	 0.00000000E+00	 8.75000000E-01
					 0.00000000E+00	 0.00000000E+00	 7.50000000E-01
					 0.00000000E+00	 0.00000000E+00	 6.25000000E-01
					 0.00000000E+00	 0.00000000E+00	 5.00000000E-01
					 0.00000000E+00	 0.00000000E+00	 3.75000000E-01
					 0.00000000E+00	 0.00000000E+00	 2.50000000E-01
					 0.00000000E+00	 0.00000000E+00	 1.25000000E-01
					 5.00000000E-01	 0.00000000E+00	 8.75000000E-01
					 5.00000000E-01	 0.00000000E+00	 7.50000000E-01
					 5.00000000E-01	 0.00000000E+00	 6.25000000E-01
					 5.00000000E-01	 0.00000000E+00	 5.00000000E-01
					 5.00000000E-01	 0.00000000E+00	 3.75000000E-01
					 5.00000000E-01	 0.00000000E+00	 2.50000000E-01
					 5.00000000E-01	 0.00000000E+00	 1.25000000E-01
					 6.25000000E-01	 0.00000000E+00	 5.00000000E-01
					 7.50000000E-01	 0.00000000E+00	 5.00000000E-01
					 8.75000000E-01	 0.00000000E+00	 5.00000000E-01
					 7.50000000E-01	 0.00000000E+00	 6.25000000E-01
					 7.50000000E-01	 0.00000000E+00	 7.50000000E-01
					 7.50000000E-01	 0.00000000E+00	 8.75000000E-01
					 6.25000000E-01	 0.00000000E+00	 7.50000000E-01
					 6.25000000E-01	 0.00000000E+00	 6.25000000E-01
					 6.25000000E-01	 0.00000000E+00	 8.75000000E-01
					 8.75000000E-01	 0.00000000E+00	 7.50000000E-01
					 8.75000000E-01	 0.00000000E+00	 6.25000000E-01
					 8.75000000E-01	 0.00000000E+00	 8.75000000E-01
					 7.50000000E-01	 0.00000000E+00	 1.25000000E-01
					 7.50000000E-01	 0.00000000E+00	 2.50000000E-01
					 7.50000000E-01	 0.00000000E+00	 3.75000000E-01
					 6.25000000E-01	 0.00000000E+00	 2.50000000E-01
					 6.25000000E-01	 0.00000000E+00	 1.25000000E-01
					 6.25000000E-01	 0.00000000E+00	 3.75000000E-01
					 8.75000000E-01	 0.00000000E+00	 2.50000000E-01
					 8.75000000E-01	 0.00000000E+00	 1.25000000E-01
					 8.75000000E-01	 0.00000000E+00	 3.75000000E-01
					 1.25000000E-01	 0.00000000E+00	 5.00000000E-01
					 2.50000000E-01	 0.00000000E+00	 5.00000000E-01
					 3.75000000E-01	 0.00000000E+00	 5.00000000E-01
					 2.50000000E-01	 0.00000000E+00	 6.25000000E-01
					 2.50000000E-01	 0.00000000E+00	 7.50000000E-01
					 2.50000000E-01	 0.00000000E+00	 8.75000000E-01
					 1.25000000E-01	 0.00000000E+00	 7.50000000E-01
					 1.25000000E-01	 0.00000000E+00	 6.25000000E-01
					 1.25000000E-01	 0.00000000E+00	 8.75000000E-01
					 3.75000000E-01	 0.00000000E+00	 7.50000000E-01
					 3.75000000E-01	 0.00000000E+00	 6.25000000E-01
					 3.75000000E-01	 0.00000000E+00	 8.75000000E-01
					 2.50000000E-01	 0.00000000E+00	 1.25000000E-01
					 2.50000000E-01	 0.00000000E+00	 2.50000000E-01
					 2.50000000E-01	 0.00000000E+00	 3.75000000E-01
					 1.25000000E-01	 0.00000000E+00	 2.50000000E-01
					 1.25000000E-01	 0.00000000E+00	 1.25000000E-01
					 1.25000000E-01	 0.00000000E+00	 3.75000000E-01
					 3.75000000E-01	 0.00000000E+00	 2.50000000E-01
					 3.75000000E-01	 0.00000000E+00	 1.25000000E-01
					 3.75000000E-01	 0.00000000E+00	 3.75000000E-01
					 7.50000000E-01	 1.25000000E-01	 7.50000000E-01
					 6.25000000E-01	 1.25000000E-01	 7.50000000E-01
					 6.25000000E-01	 1.25000000E-01	 6.25000000E-01
					 7.50000000E-01	 1.25000000E-01	 6.25000000E-01
					 7.50000000E-01	 2.50000000E-01	 7.50000000E-01
					 6.25000000E-01	 2.50000000E-01	 7.50000000E-01
					 6.25000000E-01	 2.50000000E-01	 6.25000000E-01
					 7.50000000E-01	 2.50000000E-01	 6.25000000E-01
					 7.50000000E-01	 3.75000000E-01	 7.50000000E-01
					 6.25000000E-01	 3.75000000E-01	 7.50000000E-01
					 6.25000000E-01	 3.75000000E-01	 6.25000000E-01
					 7.50000000E-01	 3.75000000E-01	 6.25000000E-01
					 7.50000000E-01	 5.00000000E-01	 7.50000000E-01
					 6.25000000E-01	 5.00000000E-01	 7.50000000E-01
					 6.25000000E-01	 5.00000000E-01	 6.25000000E-01
					 7.50000000E-01	 5.00000000E-01	 6.25000000E-01
					 7.50000000E-01	 6.25000000E-01	 7.50000000E-01
					 6.25000000E-01	 6.25000000E-01	 7.50000000E-01
					 6.25000000E-01	 6.25000000E-01	 6.25000000E-01
					 7.50000000E-01	 6.25000000E-01	 6.25000000E-01
					 7.50000000E-01	 7.50000000E-01	 7.50000000E-01
					 6.25000000E-01	 7.50000000E-01	 7.50000000E-01
					 6.25000000E-01	 7.50000000E-01	 6.25000000E-01
					 7.50000000E-01	 7.50000000E-01	 6.25000000E-01
					 7.50000000E-01	 8.75000000E-01	 7.50000000E-01
					 6.25000000E-01	 8.75000000E-01	 7.50000000E-01
					 6.25000000E-01	 8.75000000E-01	 6.25000000E-01
					 7.50000000E-01	 8.75000000E-01	 6.25000000E-01
					 7.50000000E-01	 1.00000000E+00	 7.50000000E-01
					 6.25000000E-01	 1.00000000E+00	 7.50000000E-01
					 6.25000000E-01	 1.00000000E+00	 6.25000000E-01
					 7.50000000E-01	 1.00000000E+00	 6.25000000E-01
					 6.25000000E-01	 1.25000000E-01	 5.00000000E-01
					 7.50000000E-01	 1.25000000E-01	 5.00000000E-01
					 6.25000000E-01	 2.50000000E-01	 5.00000000E-01
					 7.50000000E-01	 2.50000000E-01	 5.00000000E-01
					 6.25000000E-01	 3.75000000E-01	 5.00000000E-01
					 7.50000000E-01	 3.75000000E-01	 5.00000000E-01
					 6.25000000E-01	 5.00000000E-01	 5.00000000E-01
					 7.50000000E-01	 5.00000000E-01	 5.00000000E-01
					 6.25000000E-01	 6.25000000E-01	 5.00000000E-01
					 7.50000000E-01	 6.25000000E-01	 5.00000000E-01
					 6.25000000E-01	 7.50000000E-01	 5.00000000E-01
					 7.50000000E-01	 7.50000000E-01	 5.00000000E-01
					 6.25000000E-01	 8.75000000E-01	 5.00000000E-01
					 7.50000000E-01	 8.75000000E-01	 5.00000000E-01
					 6.25000000E-01	 1.00000000E+00	 5.00000000E-01
					 7.50000000E-01	 1.00000000E+00	 5.00000000E-01
					 5.00000000E-01	 1.25000000E-01	 7.50000000E-01
					 5.00000000E-01	 1.25000000E-01	 6.25000000E-01
					 5.00000000E-01	 2.50000000E-01	 7.50000000E-01
					 5.00000000E-01	 2.50000000E-01	 6.25000000E-01
					 5.00000000E-01	 3.75000000E-01	 7.50000000E-01
					 5.00000000E-01	 3.75000000E-01	 6.25000000E-01
					 5.00000000E-01	 5.00000000E-01	 7.50000000E-01
					 5.00000000E-01	 5.00000000E-01	 6.25000000E-01
					 5.00000000E-01	 6.25000000E-01	 7.50000000E-01
					 5.00000000E-01	 6.25000000E-01	 6.25000000E-01
					 5.00000000E-01	 7.50000000E-01	 7.50000000E-01
					 5.00000000E-01	 7.50000000E-01	 6.25000000E-01
					 5.00000000E-01	 8.75000000E-01	 7.50000000E-01
					 5.00000000E-01	 8.75000000E-01	 6.25000000E-01
					 5.00000000E-01	 1.00000000E+00	 7.50000000E-01
					 5.00000000E-01	 1.00000000E+00	 6.25000000E-01
					 5.00000000E-01	 1.25000000E-01	 5.00000000E-01
					 5.00000000E-01	 2.50000000E-01	 5.00000000E-01
					 5.00000000E-01	 3.75000000E-01	 5.00000000E-01
					 5.00000000E-01	 5.00000000E-01	 5.00000000E-01
					 5.00000000E-01	 6.25000000E-01	 5.00000000E-01
					 5.00000000E-01	 7.50000000E-01	 5.00000000E-01
					 5.00000000E-01	 8.75000000E-01	 5.00000000E-01
					 5.00000000E-01	 1.00000000E+00	 5.00000000E-01
					 6.25000000E-01	 1.25000000E-01	 3.75000000E-01
					 7.50000000E-01	 1.25000000E-01	 3.75000000E-01
					 6.25000000E-01	 2.50000000E-01	 3.75000000E-01
					 7.50000000E-01	 2.50000000E-01	 3.75000000E-01
					 6.25000000E-01	 3.75000000E-01	 3.75000000E-01
					 7.50000000E-01	 3.75000000E-01	 3.75000000E-01
					 6.25000000E-01	 5.00000000E-01	 3.75000000E-01
					 7.50000000E-01	 5.00000000E-01	 3.75000000E-01
					 6.25000000E-01	 6.25000000E-01	 3.75000000E-01
					 7.50000000E-01	 6.25000000E-01	 3.75000000E-01
					 6.25000000E-01	 7.50000000E-01	 3.75000000E-01
					 7.50000000E-01	 7.50000000E-01	 3.75000000E-01
					 6.25000000E-01	 8.75000000E-01	 3.75000000E-01
					 7.50000000E-01	 8.75000000E-01	 3.75000000E-01
					 6.25000000E-01	 1.00000000E+00	 3.75000000E-01
					 7.50000000E-01	 1.00000000E+00	 3.75000000E-01
					 1.25000000E-01	 1.25000000E-01	 7.50000000E-01
					 0.00000000E+00	 1.25000000E-01	 7.50000000E-01
					 0.00000000E+00	 1.25000000E-01	 6.25000000E-01
					 1.25000000E-01	 1.25000000E-01	 6.25000000E-01
					 1.25000000E-01	 2.50000000E-01	 7.50000000E-01
					 0.00000000E+00	 2.50000000E-01	 7.50000000E-01
					 0.00000000E+00	 2.50000000E-01	 6.25000000E-01
					 1.25000000E-01	 2.50000000E-01	 6.25000000E-01
					 1.25000000E-01	 3.75000000E-01	 7.50000000E-01
					 0.00000000E+00	 3.75000000E-01	 7.50000000E-01
					 0.00000000E+00	 3.75000000E-01	 6.25000000E-01
					 1.25000000E-01	 3.75000000E-01	 6.25000000E-01
					 1.25000000E-01	 5.00000000E-01	 7.50000000E-01
					 0.00000000E+00	 5.00000000E-01	 7.50000000E-01
[...]
			<PointData>
				<DataArray type="Float32" Name="U" NumberOfComponents="3" ComponentName0="D1" ComponentName1="D2" ComponentName2="D3" format="ascii">
					 0.00000000E+00	 0.00000000E+00	 0.00000000E+00
					 0.00000000E+00	 0.00000000E+00	 0.00000000E+00
					 0.00000000E+00	 0.00000000E+00	 0.00000000E+00
					 0.00000000E+00	 0.00000000E+00	 0.00000000E+00
					 0.00000000E+00	 0.00000000E+00	 0.00000000E+00
					 0.00000000E+00	 0.00000000E+00	 0.00000000E+00
					 0.00000000E+00	 0.00000000E+00	 0.00000000E+00
					 0.00000000E+00	 0.00000000E+00	 0.00000000E+00
					 0.00000000E+00	 0.00000000E+00	 0.00000000E+00
					-1.00343000E-04	 1.13723000E-04	 2.15737000E-04
					-2.05125000E-04	 1.48425000E-04	 3.70810000E-04
					-3.49943000E-04	 1.57902000E-04	 5.17382000E-04
					-5.32232000E-04	 1.57443000E-04	 6.61446000E-04
					-7.49154000E-04	 1.57163000E-04	 8.04809000E-04
					-1.00161000E-03	 1.70800000E-04	 9.61516000E-04
					-1.29294000E-03	 2.06847000E-04	 1.12826000E-03
					-1.78144000E-03	 4.56082000E-04	 1.45930000E-03
					-1.66897000E-03	 3.55056000E-04	 1.02424000E-03
					-1.55714000E-03	 2.06193000E-04	 5.96093000E-04
					-1.49823000E-03	 7.58951000E-05	 2.68886000E-04
					-1.48431000E-03	-1.22453000E-05	-5.90735000E-06
					-1.49932000E-03	-1.05588000E-04	-2.97596000E-04
					-1.54397000E-03	-2.22671000E-04	-6.08605000E-04
					-1.65890000E-03	-3.44538000E-04	-1.00684000E-03
					-1.76653000E-03	-4.19576000E-04	-1.42430000E-03
					-1.28977000E-03	-2.12092000E-04	-1.11971000E-03
					-1.00187000E-03	-1.74877000E-04	-9.58708000E-04
					-7.50522000E-04	-1.60660000E-04	-8.05393000E-04
					-5.33652000E-04	-1.59853000E-04	-6.63053000E-04
					-3.51186000E-04	-1.59450000E-04	-5.19155000E-04
					-2.06118000E-04	-1.49275000E-04	-3.72285000E-04
					-1.00990000E-04	-1.14110000E-04	-2.16665000E-04
					-1.20931000E-03	-5.18449000E-06	-6.11022000E-06
					-9.39884000E-04	-3.52503000E-06	-4.46086000E-06
					-6.83515000E-04	-2.32404000E-06	-2.96291000E-06
					-4.56536000E-04	-1.63661000E-06	-2.07106000E-06
					-2.65980000E-04	-1.09095000E-06	-1.42463000E-06
					-1.19025000E-04	-6.69033000E-07	-9.21561000E-07
					-2.50322000E-05	-3.41015000E-07	-4.76995000E-07
					-4.59711000E-04	 3.70212000E-05	 1.41560000E-04
					-4.71579000E-04	 7.66134000E-05	 2.96673000E-04
					-4.95387000E-04	 1.17055000E-04	 4.69929000E-04
					-6.92530000E-04	 7.31331000E-05	 3.61197000E-04
					-9.45715000E-04	 7.42880000E-05	 4.22842000E-04
					-1.22767000E-03	 8.09639000E-05	 4.80612000E-04
					-9.40521000E-04	 3.25391000E-05	 1.98265000E-04
					-6.85021000E-04	 3.40658000E-05	 1.71211000E-04
					-1.21439000E-03	 3.36161000E-05	 2.23277000E-04
					-9.63551000E-04	 1.23599000E-04	 6.83000000E-04
					-7.12137000E-04	 1.15152000E-04	 5.74565000E-04
					-1.24545000E-03	 1.39094000E-04	 7.83099000E-04
					-3.64639000E-05	 5.85463000E-05	 8.55698000E-05
					-1.37685000E-04	 7.53130000E-05	 1.57030000E-04
					-2.84998000E-04	 7.87083000E-05	 2.28164000E-04
					-1.23296000E-04	 3.75346000E-05	 7.48574000E-05
					-2.74840000E-05	 2.91383000E-05	 4.11296000E-05
					-2.70315000E-04	 3.88438000E-05	 1.08874000E-04
					-1.65387000E-04	 1.11793000E-04	 2.53306000E-04
					-6.01850000E-05	 8.78308000E-05	 1.40345000E-04
					-3.11671000E-04	 1.18188000E-04	 3.63376000E-04
					-4.96865000E-04	-1.19850000E-04	-4.71960000E-04
					-4.72830000E-04	-7.96684000E-05	-2.99635000E-04
					-4.60442000E-04	-4.02333000E-05	-1.45367000E-04
					-6.94257000E-04	-7.73595000E-05	-3.64871000E-04
					-9.47627000E-04	-8.01239000E-05	-4.27516000E-04
					-1.23024000E-03	-8.82171000E-05	-4.86711000E-04
					-9.65135000E-04	-1.28313000E-04	-6.83177000E-04
					-7.13872000E-04	-1.19050000E-04	-5.76218000E-04
					-1.24632000E-03	-1.43764000E-04	-7.78772000E-04
					-9.41649000E-04	-3.92702000E-05	-2.06308000E-04
					-6.85993000E-04	-3.86054000E-05	-1.76590000E-04
					-1.21489000E-03	-4.36680000E-05	-2.35582000E-04
					-3.67955000E-05	-5.91692000E-05	-8.64114000E-05
					-1.38306000E-04	-7.65499000E-05	-1.58603000E-04
					-2.85918000E-04	-8.07503000E-05	-2.30441000E-04
					-1.66222000E-04	-1.12881000E-04	-2.54709000E-04
					-6.06646000E-05	-8.83718000E-05	-1.41131000E-04
					-3.12827000E-04	-1.20034000E-04	-3.65236000E-04
					-1.23633000E-04	-3.88487000E-05	-7.66214000E-05
					-2.76623000E-05	-2.98064000E-05	-4.20516000E-05
					-2.70826000E-04	-4.09928000E-05	-1.11561000E-04
					-9.88106000E-04	 5.61785000E-05	 4.07864000E-04
					-9.80131000E-04	 2.44715000E-05	 1.92377000E-04
					-7.21344000E-04	 2.44785000E-05	 1.69420000E-04
					-7.30104000E-04	 5.31244000E-05	 3.55835000E-04
					-1.02045000E-03	 3.96228000E-05	 3.90366000E-04
					-1.01398000E-03	 1.71396000E-05	 1.84086000E-04
					-7.50506000E-04	 1.61555000E-05	 1.64289000E-04
					-7.58398000E-04	 3.56602000E-05	 3.45281000E-04
					-1.03940000E-03	 2.11095000E-05	 3.81711000E-04
					-1.03455000E-03	 8.60347000E-06	 1.79795000E-04
					-7.68758000E-04	 7.59759000E-06	 1.60691000E-04
					-7.75690000E-04	 1.79025000E-05	 3.38101000E-04
					-1.04561000E-03	-4.93281000E-07	 3.79671000E-04
					-1.04149000E-03	-1.83231000E-06	 1.78937000E-04
					-7.75122000E-04	-1.42465000E-06	 1.59771000E-04
					-7.81728000E-04	-6.32658000E-07	 3.35897000E-04
					-1.03970000E-03	-2.21999000E-05	 3.82523000E-04
					-1.03505000E-03	-1.23362000E-05	 1.80907000E-04
					-7.69745000E-04	-1.05293000E-05	 1.61545000E-04
					-7.76757000E-04	-1.93025000E-05	 3.38530000E-04
					-1.02201000E-03	-4.13868000E-05	 3.91402000E-04
					-1.01564000E-03	-2.13799000E-05	 1.86270000E-04
					-7.52897000E-04	-1.91536000E-05	 1.66046000E-04
					-7.60959000E-04	-3.72370000E-05	 3.45840000E-04
					-9.92183000E-04	-5.80520000E-05	 4.08007000E-04
					-9.84102000E-04	-2.88592000E-05	 1.95853000E-04
					-7.25689000E-04	-2.76576000E-05	 1.72170000E-04
					-7.34734000E-04	-5.49036000E-05	 3.56085000E-04
					-9.53216000E-04	-7.59571000E-05	 4.21862000E-04
					-9.47353000E-04	-3.73192000E-05	 2.03330000E-04
					-6.91416000E-04	-3.73773000E-05	 1.75043000E-04
					-6.99301000E-04	-7.46705000E-05	 3.61326000E-04
					-4.94177000E-04	 2.67361000E-05	 1.40857000E-04
					-5.06604000E-04	 5.57254000E-05	 2.94212000E-04
					-5.19313000E-04	 1.70560000E-05	 1.37363000E-04
					-5.31602000E-04	 3.60526000E-05	 2.87135000E-04
					-5.34632000E-04	 7.91536000E-06	 1.34610000E-04
					-5.46650000E-04	 1.75310000E-05	 2.81659000E-04
					-5.40086000E-04	-1.02403000E-06	 1.33830000E-04
					-5.52004000E-04	-5.38981000E-07	 2.79833000E-04
					-5.35774000E-04	-9.97700000E-06	 1.35259000E-04
					-5.47860000E-04	-1.86496000E-05	 2.81920000E-04
					-5.21770000E-04	-1.91905000E-05	 1.38700000E-04
					-5.34196000E-04	-3.72830000E-05	 2.87530000E-04
					-4.98111000E-04	-2.89603000E-05	 1.42950000E-04
					-5.10749000E-04	-5.69754000E-05	 2.94637000E-04
					-4.64994000E-04	-3.93797000E-05	 1.44485000E-04
					-4.77178000E-04	-7.77530000E-05	 2.97284000E-04
					-9.78041000E-04	-3.11819000E-06	-2.69628000E-06
					-7.19012000E-04	-2.14739000E-06	-1.98897000E-06
					-1.01212000E-03	-3.03479000E-06	-1.20366000E-06
					-7.48269000E-04	-2.12077000E-06	-9.87981000E-07
					-1.03325000E-03	-3.04354000E-06	-2.43542000E-07
					-7.66786000E-04	-2.20572000E-06	-2.53025000E-07
					-1.04045000E-03	-3.24958000E-06	 3.73455000E-07
					-7.73241000E-04	-2.25385000E-06	 3.05557000E-07
					-1.03386000E-03	-3.31674000E-06	 9.05478000E-07
					-7.67687000E-04	-2.29397000E-06	 8.93333000E-07
					-1.01387000E-03	-3.42640000E-06	 1.86442000E-06
					-7.50450000E-04	-2.25508000E-06	 1.74122000E-06
					-9.81800000E-04	-3.47931000E-06	 3.47857000E-06
					-7.22932000E-04	-2.32991000E-06	 2.95169000E-06
					-9.46196000E-04	-3.88065000E-06	 5.40490000E-06
					-6.89203000E-04	-2.59955000E-06	 4.09522000E-06
					-4.90664000E-04	-1.51176000E-06	-1.40748000E-06
					-5.15767000E-04	-1.47521000E-06	-7.62779000E-07
					-5.31126000E-04	-1.49094000E-06	-2.16747000E-07
					-5.36561000E-04	-1.51760000E-06	 2.53436000E-07
					-5.32124000E-04	-1.51233000E-06	 7.64938000E-07
					-5.17916000E-04	-1.52329000E-06	 1.42803000E-06
					-4.94105000E-04	-1.60817000E-06	 2.22582000E-06
					-4.61168000E-04	-1.81775000E-06	 3.00208000E-06
					-3.02924000E-04	 2.79460000E-05	 1.07303000E-04
					-3.17796000E-04	 5.68113000E-05	 2.24460000E-04
					-3.23958000E-04	 1.74928000E-05	 1.04195000E-04
					-3.39219000E-04	 3.58951000E-05	 2.18301000E-04
					-3.36093000E-04	 8.07123000E-06	 1.02014000E-04
					-3.51562000E-04	 1.70753000E-05	 2.14023000E-04
					-3.40375000E-04	-6.40471000E-07	 1.01409000E-04
					-3.55915000E-04	-3.45482000E-07	 2.12635000E-04
					-3.37100000E-04	-9.37153000E-06	 1.02471000E-04
					-3.52630000E-04	-1.77903000E-05	 2.14205000E-04
					-3.26022000E-04	-1.88460000E-05	 1.05144000E-04
					-3.41402000E-04	-3.66524000E-05	 2.18634000E-04
					-3.06055000E-04	-2.93989000E-05	 1.08807000E-04
					-3.21107000E-04	-5.75934000E-05	 2.24935000E-04
					-2.74375000E-04	-4.04337000E-05	 1.11008000E-04
					-2.89313000E-04	-7.94670000E-05	 2.28884000E-04
					-1.00660000E-03	-9.78662000E-05	-6.58531000E-04
					-1.03899000E-03	-1.32103000E-04	-9.30846000E-04
					-7.84743000E-04	-1.18751000E-04	-7.94102000E-04
					-7.50675000E-04	-8.81280000E-05	-5.66464000E-04
					-1.03457000E-03	-6.94577000E-05	-6.35198000E-04
					-1.06287000E-03	-9.20256000E-05	-9.07053000E-04
					-8.08578000E-04	-8.05285000E-05	-7.79013000E-04
					-7.76577000E-04	-6.04185000E-05	-5.51900000E-04
					-1.05128000E-03	-3.91820000E-05	-6.23963000E-04
					-1.07774000E-03	-5.06376000E-05	-8.96374000E-04
					-8.22931000E-04	-4.29066000E-05	-7.69135000E-04
					-7.92141000E-04	-3.27456000E-05	-5.42191000E-04
					-1.05698000E-03	-5.87112000E-06	-6.21032000E-04
					-1.08297000E-03	-6.26450000E-06	-8.93421000E-04
					-8.27976000E-04	-4.50588000E-06	-7.65785000E-04
					-7.97527000E-04	-4.20007000E-06	-5.38818000E-04
					-1.05173000E-03	 2.76924000E-05	-6.23610000E-04
					-1.07833000E-03	 3.81762000E-05	-8.95754000E-04
					-8.23474000E-04	 3.40286000E-05	-7.68214000E-04
					-7.92678000E-04	 2.45164000E-05	-5.41133000E-04
					-1.03546000E-03	 5.81535000E-05	-6.32489000E-04
					-1.06399000E-03	 7.93928000E-05	-9.05083000E-04
					-8.09443000E-04	 7.20730000E-05	-7.76372000E-04
					-7.77527000E-04	 5.26256000E-05	-5.48796000E-04
					-1.00836000E-03	 8.66664000E-05	-6.50827000E-04
					-1.04085000E-03	 1.19675000E-04	-9.25803000E-04
					-7.85595000E-04	 1.10608000E-04	-7.88471000E-04
					-7.51936000E-04	 8.04861000E-05	-5.60012000E-04
					-9.67516000E-04	 1.16138000E-04	-6.69186000E-04
					-1.00374000E-03	 1.62694000E-04	-9.48526000E-04
					-7.51341000E-04	 1.52273000E-04	-7.96393000E-04
					-7.15553000E-04	 1.10911000E-04	-5.66255000E-04
					-1.95115000E-04	-7.82974000E-05	-2.40625000E-04
					-2.38637000E-04	-1.03081000E-04	-3.57287000E-04
					-1.26519000E-04	-7.00739000E-05	-1.93105000E-04
					-8.00805000E-05	-5.32247000E-05	-1.17220000E-04
					-2.12699000E-04	-4.76897000E-05	-2.32706000E-04
					-2.58784000E-04	-6.24963000E-05	-3.51583000E-04
					-1.38329000E-04	-3.78708000E-05	-1.90342000E-04
					-9.04339000E-05	-2.89264000E-05	-1.10995000E-04
					-2.22067000E-04	-2.27962000E-05	-2.28979000E-04
					-2.69264000E-04	-2.96955000E-05	-3.49750000E-04
					-1.44253000E-04	-1.74537000E-05	-1.91921000E-04
					-9.52458000E-05	-1.34156000E-05	-1.09924000E-04
					-2.25068000E-04	-8.40096000E-07	-2.27657000E-04
					-2.72508000E-04	-9.07905000E-07	-3.49105000E-04
					-1.45950000E-04	-3.07420000E-07	-1.92383000E-04
					-9.67584000E-05	-2.91473000E-07	-1.09544000E-04
					-2.22285000E-04	 2.11032000E-05	-2.28330000E-04
					-2.69342000E-04	 2.78713000E-05	-3.49170000E-04
					-1.44212000E-04	 1.68297000E-05	-1.91657000E-04
					-9.53236000E-05	 1.28210000E-05	-1.09627000E-04
					-2.13129000E-04	 4.59171000E-05	-2.31290000E-04
					-2.58933000E-04	 6.06001000E-05	-3.50297000E-04
					-1.38241000E-04	 3.71961000E-05	-1.89769000E-04
					-9.05877000E-05	 2.82753000E-05	-1.10358000E-04
					-1.95755000E-04	 7.62862000E-05	-2.38257000E-04
					-2.38860000E-04	 1.00947000E-04	-3.55093000E-04
					-1.26374000E-04	 6.92113000E-05	-1.92095000E-04
					-8.03093000E-05	 5.23729000E-05	-1.16120000E-04
					-1.67055000E-04	 1.10439000E-04	-2.51146000E-04
					-2.06427000E-04	 1.46699000E-04	-3.68875000E-04
					-1.00796000E-04	 1.12891000E-04	-2.14878000E-04
					-6.09501000E-05	 8.71058000E-05	-1.39259000E-04
					-3.84818000E-04	 1.13813000E-04	 5.11426000E-04
					-3.44986000E-04	 8.53229000E-05	 3.57780000E-04
					-1.94487000E-04	 7.73437000E-05	 2.39787000E-04
					-2.37917000E-04	 1.02343000E-04	 3.56373000E-04
					-4.08250000E-04	 7.21973000E-05	 5.04002000E-04
					-3.67242000E-04	 5.41249000E-05	 3.49883000E-04
					-2.12312000E-04	 4.68181000E-05	 2.32281000E-04
					-2.58353000E-04	 6.18391000E-05	 3.51110000E-04
					-4.21561000E-04	 3.48723000E-05	 4.99344000E-04
					-3.79986000E-04	 2.60323000E-05	 3.44578000E-04
					-2.21942000E-04	 2.19763000E-05	 2.28891000E-04
					-2.69141000E-04	 2.90963000E-05	 3.49643000E-04
					-4.26149000E-04	 4.02571000E-07	 4.97885000E-04
					-3.84440000E-04	-1.57989000E-08	 3.42822000E-04
					-2.25212000E-04	 5.76092000E-08	 2.27895000E-04
					-2.72706000E-04	 3.60604000E-07	 3.49360000E-04
					-4.22553000E-04	-3.40717000E-05	 4.99388000E-04
					-3.81046000E-04	-2.60829000E-05	 3.44578000E-04
					-2.22711000E-04	-2.18695000E-05	 2.28942000E-04
					-2.69878000E-04	-2.83804000E-05	 3.49845000E-04
					-4.10259000E-04	-7.13766000E-05	 5.04021000E-04
					-3.69399000E-04	-5.41896000E-05	 3.49806000E-04
					-2.13852000E-04	-4.67256000E-05	 2.32364000E-04
					-2.59826000E-04	-6.11294000E-05	 3.51494000E-04
					-3.87860000E-04	-1.12877000E-04	 5.11352000E-04
					-3.48252000E-04	-8.53256000E-05	 3.57565000E-04
					-1.96772000E-04	-7.72428000E-05	 2.39879000E-04
					-2.40108000E-04	-1.01608000E-04	 3.56904000E-04
					-3.54017000E-04	-1.56699000E-04	 5.17159000E-04
					-3.15978000E-04	-1.18015000E-04	 3.63075000E-04
					-1.68355000E-04	-1.11655000E-04	 2.53364000E-04
					-2.08021000E-04	-1.47594000E-04	 3.71286000E-04
					-7.31279000E-04	-5.72652000E-05	-3.58198000E-04
					-5.31710000E-04	-8.82609000E-05	-4.66850000E-04
					-5.07545000E-04	-5.86743000E-05	-2.96122000E-04
					-7.59006000E-04	-3.97588000E-05	-3.46420000E-04
					-5.55943000E-04	-5.83357000E-05	-4.56965000E-04
					-5.32159000E-04	-3.89797000E-05	-2.88131000E-04
					-7.75931000E-04	-2.21773000E-05	-3.38284000E-04
					-5.70230000E-04	-3.01522000E-05	-4.49445000E-04
					-5.46870000E-04	-2.04602000E-05	-2.81894000E-04
					-7.81741000E-04	-3.70745000E-06	-3.35360000E-04
					-5.75082000E-04	-2.73920000E-06	-4.46514000E-04
					-5.51928000E-04	-2.40233000E-06	-2.79376000E-04
					-7.76486000E-04	 1.49806000E-05	-3.37082000E-04
					-5.70658000E-04	 2.47688000E-05	-4.48274000E-04
					-5.47463000E-04	 1.57505000E-05	-2.80652000E-04
					-7.60253000E-04	 3.30661000E-05	-3.42850000E-04
					-5.56765000E-04	 5.30972000E-05	-4.54127000E-04
					-5.33383000E-04	 3.43963000E-05	-2.85163000E-04
					-7.33402000E-04	 5.05887000E-05	-3.51031000E-04
					-5.32913000E-04	 8.29657000E-05	-4.61768000E-04
					-5.09455000E-04	 5.39988000E-05	-2.90887000E-04
					-6.97330000E-04	 7.00129000E-05	-3.54198000E-04
					-4.98473000E-04	 1.14103000E-04	-4.64572000E-04
					-4.75433000E-04	 7.44823000E-05	-2.92185000E-04
					-9.80740000E-04	-3.04575000E-05	-1.97323000E-04
					-7.21979000E-04	-2.87218000E-05	-1.72978000E-04
					-1.01420000E-03	-2.30653000E-05	-1.86183000E-04
					-7.50853000E-04	-2.03332000E-05	-1.66063000E-04
					-1.03470000E-03	-1.44394000E-05	-1.80125000E-04
					-7.68916000E-04	-1.19688000E-05	-1.61107000E-04
					-1.04168000E-03	-4.33485000E-06	-1.78235000E-04
					-7.75149000E-04	-3.04036000E-06	-1.59165000E-04
					-1.03529000E-03	 6.05209000E-06	-1.79108000E-04
					-7.69648000E-04	 6.03198000E-06	-1.59817000E-04
					-1.01575000E-03	 1.47940000E-05	-1.82312000E-04
					-7.52648000E-04	 1.47659000E-05	-1.62590000E-04
					-9.83914000E-04	 2.21295000E-05	-1.88365000E-04
					-7.25211000E-04	 2.30882000E-05	-1.66365000E-04
					-9.47100000E-04	 2.96070000E-05	-1.91978000E-04
					-6.90625000E-04	 3.22994000E-05	-1.66960000E-04
					-3.18509000E-04	-5.87256000E-05	-2.25913000E-04
					-3.45855000E-04	-8.71062000E-05	-3.58908000E-04
					-1.66603000E-04	-5.31672000E-05	-1.48646000E-04
					-3.39662000E-04	-3.77349000E-05	-2.19071000E-04
					-3.67773000E-04	-5.58649000E-05	-3.50460000E-04
					-1.82798000E-04	-3.23611000E-05	-1.42266000E-04
					-3.51729000E-04	-1.88851000E-05	-2.14214000E-04
					-3.80171000E-04	-2.77373000E-05	-3.44701000E-04
					-1.91490000E-04	-1.55112000E-05	-1.38964000E-04
					-3.55812000E-04	-1.44110000E-06	-2.12277000E-04
					-3.84283000E-04	-1.64500000E-06	-3.42498000E-04
					-1.94359000E-04	-7.31503000E-07	-1.37729000E-04
					-3.52241000E-04	 1.60180000E-05	-2.13223000E-04
					-3.80517000E-04	 2.44670000E-05	-3.43723000E-04
					-1.91860000E-04	 1.40331000E-05	-1.38323000E-04
					-3.40697000E-04	 3.48506000E-05	-2.16868000E-04
					-3.68452000E-04	 5.25867000E-05	-3.48265000E-04
					-1.83538000E-04	 3.07992000E-05	-1.40881000E-04
					-3.20068000E-04	 5.56422000E-05	-2.22245000E-04
					-3.46855000E-04	 8.36357000E-05	-3.55199000E-04
					-1.67700000E-04	 5.13703000E-05	-1.46358000E-04
					-2.87972000E-04	 7.72445000E-05	-2.25254000E-04
					-3.14149000E-04	 1.16127000E-04	-3.59889000E-04
					-1.39719000E-04	 7.43384000E-05	-1.55233000E-04
					-1.47376000E-04	-5.62517000E-07	-5.83907000E-07
					-1.51941000E-04	-2.70631000E-05	-7.13740000E-05
					-4.67819000E-05	-1.81510000E-05	-3.34893000E-05
					-4.41410000E-05	-2.29860000E-07	-2.64446000E-07
					-1.63034000E-04	-5.01072000E-07	-3.14903000E-07
					-1.67666000E-04	-1.65401000E-05	-6.78633000E-05
					-5.58791000E-05	-9.86070000E-06	-3.09249000E-05
					-5.32184000E-05	-1.75157000E-07	-1.34252000E-07
					-1.71444000E-04	-4.74722000E-07	-8.72304000E-08
					-1.76097000E-04	-8.03052000E-06	-6.59300000E-05
					-6.02762000E-05	-4.59362000E-06	-3.02195000E-05
					-5.76238000E-05	-1.57015000E-07	-3.44220000E-08
					-1.74335000E-04	-4.67488000E-07	 1.26814000E-07
					-1.78950000E-04	-6.03383000E-07	-6.51337000E-05
					-6.17468000E-05	-1.98438000E-07	-2.99186000E-05
					-5.91195000E-05	-1.51197000E-07	 6.01586000E-08
					-1.72101000E-04	-4.77572000E-07	 3.58274000E-07
					-1.76622000E-04	 6.80714000E-06	-6.53576000E-05
					-6.05664000E-05	 4.18310000E-06	-2.99663000E-05
					-5.79895000E-05	-1.58130000E-07	 1.61298000E-07
					-1.64350000E-04	-5.23572000E-07	 6.31593000E-07
					-1.68716000E-04	 1.52353000E-05	-6.66367000E-05
					-5.64570000E-05	 9.39237000E-06	-3.03890000E-05
					-5.39462000E-05	-1.89629000E-07	 2.78031000E-07
					-1.49323000E-04	-6.32085000E-07	 9.56105000E-07
					-1.53496000E-04	 2.55456000E-05	-6.93659000E-05
					-4.76321000E-05	 1.74977000E-05	-3.25819000E-05
					-4.52093000E-05	-2.82993000E-07	 4.32707000E-07
					-1.21497000E-04	-8.05356000E-07	 1.32977000E-06
					-1.25619000E-04	 3.69666000E-05	-7.36927000E-05
					-2.87383000E-05	 2.87928000E-05	-4.05533000E-05
					-2.63794000E-05	-4.53842000E-07	 6.79447000E-07
					-7.49516000E-04	 8.40711000E-05	 5.65507000E-04
					-5.30622000E-04	 8.54297000E-05	 4.65656000E-04
					-7.76033000E-04	 5.63612000E-05	 5.51423000E-04
					-5.55308000E-04	 5.54898000E-05	 4.56350000E-04
					-7.91950000E-04	 2.85973000E-05	 5.42171000E-04
					-5.69997000E-04	 2.73191000E-05	 4.49328000E-04
					-7.97530000E-04	 1.49719000E-08	 5.39217000E-04
					-5.75208000E-04	-7.75607000E-08	 4.46883000E-04
					-7.93030000E-04	-2.86806000E-05	 5.42081000E-04
					-5.71197000E-04	-2.75116000E-05	 4.49247000E-04
					-7.78547000E-04	-5.66166000E-05	 5.50694000E-04
					-5.57858000E-04	-5.57638000E-05	 4.55970000E-04
					-7.53956000E-04	-8.44274000E-05	 5.63376000E-04