    1C
    1UUSER                                                              
    1UDATE              01.august.2019                                  
    1UTIME              09:36:55                                        
    1UHOST                                                              
    1UPGM               CalculiX                                        
    1UVERSION           Version 2.15                             
    1UCOMPILETIME       Fri 15 Mar 11:57:46 CET 2019                    
    1UDIR                                                               
    1UDBN                                                               
    1UMAT    1EL                                                        
    2C                            40                                     1
 -1         1 7.50000E-01 5.00000E-01 5.00000E-01
 -1         2 7.50000E-01 6.93889E-18 5.00000E-01
 -1         3 7.50000E-01 6.93889E-18 1.00000E+00
 -1         4 7.50000E-01 5.00000E-01 1.00000E+00
 -1         5 2.50000E-01 5.00000E-01 5.00000E-01
 -1         6 2.50000E-01 6.93889E-18 5.00000E-01
 -1         7 2.50000E-01 6.93889E-18 1.00000E+00
 -1         8 2.50000E-01 5.00000E-01 1.00000E+00
 -1         9 7.50000E-01 2.50000E-01 5.00000E-01
 -1        10 7.50000E-01 6.93889E-18 7.50000E-01
 -1        11 7.50000E-01 2.50000E-01 1.00000E+00
 -1        12 7.50000E-01 5.00000E-01 7.50000E-01
 -1        13 5.00000E-01 5.00000E-01 5.00000E-01
 -1        14 5.00000E-01 6.93889E-18 5.00000E-01
 -1        15 5.00000E-01 6.93889E-18 1.00000E+00
 -1        16 5.00000E-01 5.00000E-01 1.00000E+00
 -1        17 2.50000E-01 2.50000E-01 5.00000E-01
 -1        18 2.50000E-01 6.93889E-18 7.50000E-01
 -1        19 2.50000E-01 2.50000E-01 1.00000E+00
 -1        20 2.50000E-01 5.00000E-01 7.50000E-01
 -1        21 3.00000E+00 1.00000E+00 6.93889E-18
 -1        22 3.00000E+00 6.93889E-18 6.93889E-18
 -1        23 3.00000E+00 6.93889E-18 1.00000E+00
 -1        24 3.00000E+00 1.00000E+00 1.00000E+00
 -1        25 2.00000E+00 1.00000E+00 6.93889E-18
 -1        26 2.00000E+00 6.93889E-18 6.93889E-18
 -1        27 2.00000E+00 6.93889E-18 1.00000E+00
 -1        28 2.00000E+00 1.00000E+00 1.00000E+00
 -1        29 3.00000E+00 5.00000E-01 6.93889E-18
 -1        30 3.00000E+00 6.93889E-18 5.00000E-01
 -1        31 3.00000E+00 5.00000E-01 1.00000E+00
 -1        32 3.00000E+00 1.00000E+00 5.00000E-01
 -1        33 2.50000E+00 1.00000E+00 6.93889E-18
 -1        34 2.50000E+00 6.93889E-18 6.93889E-18
 -1        35 2.50000E+00 6.93889E-18 1.00000E+00
 -1        36 2.50000E+00 1.00000E+00 1.00000E+00
 -1        37 2.00000E+00 5.00000E-01 6.93889E-18
 -1        38 2.00000E+00 6.93889E-18 5.00000E-01
 -1        39 2.00000E+00 5.00000E-01 1.00000E+00
 -1        40 2.00000E+00 1.00000E+00 5.00000E-01
 -3
    3C                             2                                     1
 -1         1    4    0    1
 -2         1         2         3         4         5         6         7         8         9        10
 -2        11        12        13        14        15        16        17        18        19        20
 -1         2    4    0    1
 -2        21        22        23        24        25        26        27        28        29        30
 -2        31        32        33        34        35        36        37        38        39        40
 -3
 9999
