<?xml version="1.0"?>
<VTKFile type="UnstructuredGrid" version="0.1" byte_order="LittleEndian">
	<UnstructuredGrid>
		<Piece NumberOfPoints="286" NumberOfCells="120">
			<Points>
				<DataArray type="Float64" NumberOfComponents="3" format="ascii">
					 0.00000000E+00	 1.00000000E+00	 1.00000000E-01
					 0.00000000E+00	 1.00000000E+00	 0.00000000E+00
					 5.00000000E-01	 1.00000000E+00	 0.00000000E+00
					 5.00000000E-01	 1.00000000E+00	 1.00000000E-01
					 0.00000000E+00	 9.00000000E-01	 1.00000000E-01
					 0.00000000E+00	 9.00000000E-01	 0.00000000E+00
					 5.00000000E-01	 9.36818000E-01	-6.93889000E-18
					 5.00000000E-01	 9.36818000E-01	 1.00000000E-01
					 1.00000000E+00	 1.00000000E+00	 0.00000000E+00
					 1.00000000E+00	 1.00000000E+00	 1.00000000E-01
					 1.00000000E+00	 9.73636000E-01	 0.00000000E+00
					 1.00000000E+00	 9.73636000E-01	 1.00000000E-01
					 0.00000000E+00	 8.00000000E-01	 1.00000000E-01
					 0.00000000E+00	 8.00000000E-01	 0.00000000E+00
					 5.00000000E-01	 8.69991000E-01	 6.93889000E-18
					 5.00000000E-01	 8.69991000E-01	 1.00000000E-01
					 1.00000000E+00	 9.39983000E-01	 0.00000000E+00
					 1.00000000E+00	 9.39983000E-01	 1.00000000E-01
					 0.00000000E+00	 7.00000000E-01	 1.00000000E-01
					 0.00000000E+00	 7.00000000E-01	 0.00000000E+00
					 5.00000000E-01	 7.98512000E-01	 6.93889000E-18
					 5.00000000E-01	 7.98512000E-01	 1.00000000E-01
					 1.00000000E+00	 8.97024000E-01	 0.00000000E+00
					 1.00000000E+00	 8.97024000E-01	 1.00000000E-01
					 0.00000000E+00	 6.00000000E-01	 1.00000000E-01
					 0.00000000E+00	 6.00000000E-01	 0.00000000E+00
					 5.00000000E-01	 7.21093000E-01	-1.38778000E-17
					 5.00000000E-01	 7.21093000E-01	 1.00000000E-01
					 1.00000000E+00	 8.42185000E-01	 0.00000000E+00
					 1.00000000E+00	 8.42185000E-01	 1.00000000E-01
					 0.00000000E+00	 5.00000000E-01	 1.00000000E-01
					 0.00000000E+00	 5.00000000E-01	 0.00000000E+00
					 5.00000000E-01	 6.36092000E-01	 6.93889000E-18
					 5.00000000E-01	 6.36092000E-01	 1.00000000E-01
					 1.00000000E+00	 7.72183000E-01	 0.00000000E+00
					 1.00000000E+00	 7.72183000E-01	 1.00000000E-01
					 0.00000000E+00	 4.00000000E-01	 1.00000000E-01
					 0.00000000E+00	 4.00000000E-01	 0.00000000E+00
					 5.00000000E-01	 5.41412000E-01	 6.93889000E-18
					 5.00000000E-01	 5.41412000E-01	 1.00000000E-01
					 1.00000000E+00	 6.82824000E-01	 0.00000000E+00
					 1.00000000E+00	 6.82824000E-01	 1.00000000E-01
					 0.00000000E+00	 3.00000000E-01	 1.00000000E-01
					 0.00000000E+00	 3.00000000E-01	 0.00000000E+00
					 5.00000000E-01	 4.34378000E-01	 6.93889000E-18
					 5.00000000E-01	 4.34378000E-01	 1.00000000E-01
					 1.00000000E+00	 5.68756000E-01	 0.00000000E+00
					 1.00000000E+00	 5.68756000E-01	 1.00000000E-01
					 0.00000000E+00	 2.00000000E-01	 1.00000000E-01
					 0.00000000E+00	 2.00000000E-01	 0.00000000E+00
					 5.00000000E-01	 3.11573000E-01	 1.38778000E-17
					 5.00000000E-01	 3.11573000E-01	 1.00000000E-01
					 1.00000000E+00	 4.23146000E-01	 0.00000000E+00
					 1.00000000E+00	 4.23146000E-01	 1.00000000E-01
					 0.00000000E+00	 1.00000000E-01	 1.00000000E-01
					 0.00000000E+00	 1.00000000E-01	 0.00000000E+00
					 5.00000000E-01	 1.68636000E-01	-6.93889000E-18
					 5.00000000E-01	 1.68636000E-01	 1.00000000E-01
					 1.00000000E+00	 2.37272000E-01	 0.00000000E+00
					 1.00000000E+00	 2.37272000E-01	 1.00000000E-01
					 0.00000000E+00	 0.00000000E+00	 1.00000000E-01
					 0.00000000E+00	 0.00000000E+00	 0.00000000E+00
					 5.00000000E-01	 0.00000000E+00	 0.00000000E+00
					 5.00000000E-01	 0.00000000E+00	 1.00000000E-01
					 1.00000000E+00	 0.00000000E+00	 0.00000000E+00
					 1.00000000E+00	 0.00000000E+00	 1.00000000E-01
					 1.50000000E+00	 1.00000000E+00	 0.00000000E+00
					 1.50000000E+00	 1.00000000E+00	 1.00000000E-01
					 1.50000000E+00	 8.68182000E-01	 0.00000000E+00
					 1.50000000E+00	 8.68182000E-01	 1.00000000E-01
					 2.00000000E+00	 1.00000000E+00	 0.00000000E+00
					 2.00000000E+00	 1.00000000E+00	 1.00000000E-01
					 2.00000000E+00	 7.62728000E-01	 0.00000000E+00
					 2.00000000E+00	 7.62728000E-01	 1.00000000E-01
					 1.50000000E+00	 7.58419000E-01	-6.93889000E-18
					 1.50000000E+00	 7.58419000E-01	 1.00000000E-01
					 2.00000000E+00	 5.76854000E-01	 0.00000000E+00
					 2.00000000E+00	 5.76854000E-01	 1.00000000E-01
					 1.50000000E+00	 6.64134000E-01	-6.93889000E-18
					 1.50000000E+00	 6.64134000E-01	 1.00000000E-01
					 2.00000000E+00	 4.31244000E-01	 0.00000000E+00
					 2.00000000E+00	 4.31244000E-01	 1.00000000E-01
					 1.50000000E+00	 5.79681000E-01	 6.93889000E-18
					 1.50000000E+00	 5.79681000E-01	 1.00000000E-01
					 2.00000000E+00	 3.17176000E-01	 0.00000000E+00
					 2.00000000E+00	 3.17176000E-01	 1.00000000E-01
					 1.50000000E+00	 5.00000000E-01	 0.00000000E+00
					 1.50000000E+00	 5.00000000E-01	 1.00000000E-01
					 2.00000000E+00	 2.27817000E-01	 0.00000000E+00
					 2.00000000E+00	 2.27817000E-01	 1.00000000E-01
					 1.50000000E+00	 4.20319000E-01	-6.93889000E-18
					 1.50000000E+00	 4.20319000E-01	 1.00000000E-01
					 2.00000000E+00	 1.57815000E-01	 0.00000000E+00
					 2.00000000E+00	 1.57815000E-01	 1.00000000E-01
					 1.50000000E+00	 3.35866000E-01	-6.93889000E-18
					 1.50000000E+00	 3.35866000E-01	 1.00000000E-01
					 2.00000000E+00	 1.02976000E-01	 0.00000000E+00
					 2.00000000E+00	 1.02976000E-01	 1.00000000E-01
					 1.50000000E+00	 2.41581000E-01	-6.93889000E-18
					 1.50000000E+00	 2.41581000E-01	 1.00000000E-01
					 2.00000000E+00	 6.00170000E-02	 0.00000000E+00
					 2.00000000E+00	 6.00170000E-02	 1.00000000E-01
					 1.50000000E+00	 1.31818000E-01	 6.93889000E-18
					 1.50000000E+00	 1.31818000E-01	 1.00000000E-01
					 2.00000000E+00	 2.63635000E-02	 0.00000000E+00
					 2.00000000E+00	 2.63635000E-02	 1.00000000E-01
					 1.50000000E+00	 0.00000000E+00	 0.00000000E+00
					 1.50000000E+00	 0.00000000E+00	 1.00000000E-01
					 2.00000000E+00	 0.00000000E+00	 0.00000000E+00
					 2.00000000E+00	 0.00000000E+00	 1.00000000E-01
					 2.50000000E+00	 1.00000000E+00	 0.00000000E+00
					 2.50000000E+00	 1.00000000E+00	 1.00000000E-01
					 2.50000000E+00	 8.68182000E-01	 0.00000000E+00
					 2.50000000E+00	 8.68182000E-01	 1.00000000E-01
					 3.00000000E+00	 1.00000000E+00	 0.00000000E+00
					 3.00000000E+00	 1.00000000E+00	 1.00000000E-01
					 3.00000000E+00	 9.73636000E-01	 0.00000000E+00
					 3.00000000E+00	 9.73636000E-01	 1.00000000E-01
					 2.50000000E+00	 7.58419000E-01	 6.93889000E-18
					 2.50000000E+00	 7.58419000E-01	 1.00000000E-01
					 3.00000000E+00	 9.39983000E-01	 0.00000000E+00
					 3.00000000E+00	 9.39983000E-01	 1.00000000E-01
					 2.50000000E+00	 6.64134000E-01	-6.93889000E-18
					 2.50000000E+00	 6.64134000E-01	 1.00000000E-01
					 3.00000000E+00	 8.97024000E-01	 0.00000000E+00
					 3.00000000E+00	 8.97024000E-01	 1.00000000E-01
					 2.50000000E+00	 5.79681000E-01	 0.00000000E+00
					 2.50000000E+00	 5.79681000E-01	 1.00000000E-01
					 3.00000000E+00	 8.42185000E-01	 0.00000000E+00
					 3.00000000E+00	 8.42185000E-01	 1.00000000E-01
					 2.50000000E+00	 5.00000000E-01	 6.93889000E-18
					 2.50000000E+00	 5.00000000E-01	 1.00000000E-01
					 3.00000000E+00	 7.72183000E-01	 0.00000000E+00
					 3.00000000E+00	 7.72183000E-01	 1.00000000E-01
					 2.50000000E+00	 4.20319000E-01	-1.38778000E-17
					 2.50000000E+00	 4.20319000E-01	 1.00000000E-01
					 3.00000000E+00	 6.82824000E-01	 0.00000000E+00
					 3.00000000E+00	 6.82824000E-01	 1.00000000E-01
					 2.50000000E+00	 3.35866000E-01	-6.93889000E-18
					 2.50000000E+00	 3.35866000E-01	 1.00000000E-01
					 3.00000000E+00	 5.68756000E-01	 0.00000000E+00
					 3.00000000E+00	 5.68756000E-01	 1.00000000E-01
					 2.50000000E+00	 2.41581000E-01	 6.93889000E-18
					 2.50000000E+00	 2.41581000E-01	 1.00000000E-01
					 3.00000000E+00	 4.23146000E-01	 0.00000000E+00
					 3.00000000E+00	 4.23146000E-01	 1.00000000E-01
					 2.50000000E+00	 1.31818000E-01	 6.93889000E-18
					 2.50000000E+00	 1.31818000E-01	 1.00000000E-01
					 3.00000000E+00	 2.37272000E-01	 0.00000000E+00
					 3.00000000E+00	 2.37272000E-01	 1.00000000E-01
					 2.50000000E+00	 0.00000000E+00	 0.00000000E+00
					 2.50000000E+00	 0.00000000E+00	 1.00000000E-01
					 3.00000000E+00	 0.00000000E+00	 0.00000000E+00
					 3.00000000E+00	 0.00000000E+00	 1.00000000E-01
					 3.50000000E+00	 1.00000000E+00	 0.00000000E+00
					 3.50000000E+00	 1.00000000E+00	 1.00000000E-01
					 3.50000000E+00	 8.68182000E-01	 0.00000000E+00
					 3.50000000E+00	 8.68182000E-01	 1.00000000E-01
					 4.00000000E+00	 1.00000000E+00	 0.00000000E+00
					 4.00000000E+00	 1.00000000E+00	 1.00000000E-01
					 4.00000000E+00	 7.62728000E-01	 0.00000000E+00
					 4.00000000E+00	 7.62728000E-01	 1.00000000E-01
					 3.50000000E+00	 7.58419000E-01	-1.38778000E-17
					 3.50000000E+00	 7.58419000E-01	 1.00000000E-01
					 4.00000000E+00	 5.76854000E-01	 0.00000000E+00
					 4.00000000E+00	 5.76854000E-01	 1.00000000E-01
					 3.50000000E+00	 6.64134000E-01	-6.93889000E-18
					 3.50000000E+00	 6.64134000E-01	 1.00000000E-01
					 4.00000000E+00	 4.31244000E-01	 0.00000000E+00
					 4.00000000E+00	 4.31244000E-01	 1.00000000E-01
					 3.50000000E+00	 5.79681000E-01	 0.00000000E+00
					 3.50000000E+00	 5.79681000E-01	 1.00000000E-01
					 4.00000000E+00	 3.17176000E-01	 0.00000000E+00
					 4.00000000E+00	 3.17176000E-01	 1.00000000E-01
					 3.50000000E+00	 5.00000000E-01	 6.93889000E-18
					 3.50000000E+00	 5.00000000E-01	 1.00000000E-01
					 4.00000000E+00	 2.27817000E-01	 0.00000000E+00
					 4.00000000E+00	 2.27817000E-01	 1.00000000E-01
					 3.50000000E+00	 4.20319000E-01	-1.38778000E-17
					 3.50000000E+00	 4.20319000E-01	 1.00000000E-01
					 4.00000000E+00	 1.57815000E-01	 0.00000000E+00
					 4.00000000E+00	 1.57815000E-01	 1.00000000E-01
					 3.50000000E+00	 3.35866000E-01	-6.93889000E-18
					 3.50000000E+00	 3.35866000E-01	 1.00000000E-01
[...]
			<PointData>
				<DataArray type="Float32" Name="V3DF" NumberOfComponents="3" ComponentName0="V1" ComponentName1="V2" ComponentName2="V3" format="ascii">
					 9.75000000E-01	 0.00000000E+00	 0.00000000E+00
					 9.75000000E-01	 0.00000000E+00	 0.00000000E+00
					 1.00000000E+00	 0.00000000E+00	 0.00000000E+00
					 1.00000000E+00	 0.00000000E+00	 0.00000000E+00
					 9.00000000E-01	 0.00000000E+00	 0.00000000E+00
					 9.00000000E-01	 0.00000000E+00	 0.00000000E+00
					 9.36355000E-01	 2.78915000E-05	 0.00000000E+00
					 9.36355000E-01	 2.78915000E-05	 0.00000000E+00
					 1.00000000E+00	 0.00000000E+00	 0.00000000E+00
					 1.00000000E+00	 0.00000000E+00	 0.00000000E+00
					 9.72672000E-01	 6.20098000E-05	 0.00000000E+00
					 9.72672000E-01	 6.20098000E-05	 0.00000000E+00
					 8.00000000E-01	 0.00000000E+00	 0.00000000E+00
					 8.00000000E-01	 0.00000000E+00	 0.00000000E+00
					 8.69708000E-01	 3.08090000E-05	 0.00000000E+00
					 8.69708000E-01	 3.08090000E-05	 0.00000000E+00
					 9.38390000E-01	 5.95424000E-05	 0.00000000E+00
					 9.38390000E-01	 5.95424000E-05	 0.00000000E+00
					 7.00000000E-01	 0.00000000E+00	 0.00000000E+00
					 7.00000000E-01	 0.00000000E+00	 0.00000000E+00
					 7.98714000E-01	 3.42231000E-05	 0.00000000E+00
					 7.98714000E-01	 3.42231000E-05	 0.00000000E+00
					 8.95164000E-01	 3.34706000E-05	 0.00000000E+00
					 8.95164000E-01	 3.34706000E-05	 0.00000000E+00
					 6.00000000E-01	 0.00000000E+00	 0.00000000E+00
					 6.00000000E-01	 0.00000000E+00	 0.00000000E+00
					 7.21869000E-01	 3.65499000E-05	 0.00000000E+00
					 7.21869000E-01	 3.65499000E-05	 0.00000000E+00
					 8.40346000E-01	 9.55635000E-06	 0.00000000E+00
					 8.40346000E-01	 9.55635000E-06	 0.00000000E+00
					 5.00000000E-01	 0.00000000E+00	 0.00000000E+00
					 5.00000000E-01	 0.00000000E+00	 0.00000000E+00
					 6.37356000E-01	 3.16860000E-05	 0.00000000E+00
					 6.37356000E-01	 3.16860000E-05	 0.00000000E+00
					 7.70593000E-01	-6.81481000E-06	 0.00000000E+00
					 7.70593000E-01	-6.81481000E-06	 0.00000000E+00
					 4.00000000E-01	 0.00000000E+00	 0.00000000E+00
					 4.00000000E-01	 0.00000000E+00	 0.00000000E+00
					 5.42946000E-01	 1.83173000E-05	 0.00000000E+00
					 5.42946000E-01	 1.83173000E-05	 0.00000000E+00
					 6.81646000E-01	-1.54195000E-05	 0.00000000E+00
					 6.81646000E-01	-1.54195000E-05	 0.00000000E+00
					 3.00000000E-01	 0.00000000E+00	 0.00000000E+00
					 3.00000000E-01	 0.00000000E+00	 0.00000000E+00
					 4.35874000E-01	-2.97309000E-06	 0.00000000E+00
					 4.35874000E-01	-2.97309000E-06	 0.00000000E+00
					 5.68079000E-01	-1.65532000E-05	 0.00000000E+00
					 5.68079000E-01	-1.65532000E-05	 0.00000000E+00
					 2.00000000E-01	 0.00000000E+00	 0.00000000E+00
					 2.00000000E-01	 0.00000000E+00	 0.00000000E+00
					 3.12713000E-01	-2.96736000E-05	 0.00000000E+00
					 3.12713000E-01	-2.96736000E-05	 0.00000000E+00
					 4.22974000E-01	-1.51788000E-05	 0.00000000E+00
					 4.22974000E-01	-1.51788000E-05	 0.00000000E+00
					 1.00000000E-01	 0.00000000E+00	 0.00000000E+00
					 1.00000000E-01	 0.00000000E+00	 0.00000000E+00
					 1.69229000E-01	-5.51933000E-05	 0.00000000E+00
					 1.69229000E-01	-5.51933000E-05	 0.00000000E+00
					 2.37413000E-01	-7.88959000E-06	 0.00000000E+00
					 2.37413000E-01	-7.88959000E-06	 0.00000000E+00
					 2.50000000E-02	 0.00000000E+00	 0.00000000E+00
					 2.50000000E-02	 0.00000000E+00	 0.00000000E+00
					 0.00000000E+00	 0.00000000E+00	 0.00000000E+00
					 0.00000000E+00	 0.00000000E+00	 0.00000000E+00
					 0.00000000E+00	 0.00000000E+00	 0.00000000E+00
					 0.00000000E+00	 0.00000000E+00	 0.00000000E+00
					 1.00000000E+00	 0.00000000E+00	 0.00000000E+00
					 1.00000000E+00	 0.00000000E+00	 0.00000000E+00
					 8.65358000E-01	-9.13030000E-06	 0.00000000E+00
					 8.65358000E-01	-9.13030000E-06	 0.00000000E+00
					 1.00000000E+00	 0.00000000E+00	 0.00000000E+00
					 1.00000000E+00	 0.00000000E+00	 0.00000000E+00
					 7.62943000E-01	-2.04565000E-05	 0.00000000E+00
					 7.62943000E-01	-2.04565000E-05	 0.00000000E+00
					 7.54927000E-01	-1.46518000E-05	 0.00000000E+00
					 7.54927000E-01	-1.46518000E-05	 0.00000000E+00
					 5.78496000E-01	-3.27216000E-06	 0.00000000E+00
					 5.78496000E-01	-3.27216000E-06	 0.00000000E+00
					 6.60665000E-01	-1.98017000E-05	 0.00000000E+00
					 6.60665000E-01	-1.98017000E-05	 0.00000000E+00
					 4.33382000E-01	 3.06507000E-06	 0.00000000E+00
					 4.33382000E-01	 3.06507000E-06	 0.00000000E+00
					 5.76593000E-01	-1.47307000E-05	 0.00000000E+00
					 5.76593000E-01	-1.47307000E-05	 0.00000000E+00
					 3.19406000E-01	 1.12099000E-05	 0.00000000E+00
					 3.19406000E-01	 1.12099000E-05	 0.00000000E+00
					 4.97460000E-01	-5.68273000E-06	 0.00000000E+00
					 4.97460000E-01	-5.68273000E-06	 0.00000000E+00
					 2.29889000E-01	 1.26693000E-05	 0.00000000E+00
					 2.29889000E-01	 1.26693000E-05	 0.00000000E+00
					 4.18407000E-01	 5.06813000E-06	 0.00000000E+00
					 4.18407000E-01	 5.06813000E-06	 0.00000000E+00
					 1.59569000E-01	 5.72119000E-06	 0.00000000E+00
					 1.59569000E-01	 5.72119000E-06	 0.00000000E+00
					 3.34622000E-01	 1.47066000E-05	 0.00000000E+00
					 3.34622000E-01	 1.47066000E-05	 0.00000000E+00
					 1.04313000E-01	-6.31950000E-06	 0.00000000E+00
					 1.04313000E-01	-6.31950000E-06	 0.00000000E+00
					 2.40985000E-01	 1.91735000E-05	 0.00000000E+00
					 2.40985000E-01	 1.91735000E-05	 0.00000000E+00
					 6.08809000E-02	-1.84822000E-05	 0.00000000E+00
					 6.08809000E-02	-1.84822000E-05	 0.00000000E+00
					 1.31671000E-01	 1.93622000E-05	 0.00000000E+00
					 1.31671000E-01	 1.93622000E-05	 0.00000000E+00
					 2.67550000E-02	-2.27454000E-05	 0.00000000E+00
					 2.67550000E-02	-2.27454000E-05	 0.00000000E+00
					 0.00000000E+00	 0.00000000E+00	 0.00000000E+00
					 0.00000000E+00	 0.00000000E+00	 0.00000000E+00
					 0.00000000E+00	 0.00000000E+00	 0.00000000E+00
					 0.00000000E+00	 0.00000000E+00	 0.00000000E+00
					 1.00000000E+00	 0.00000000E+00	 0.00000000E+00
					 1.00000000E+00	 0.00000000E+00	 0.00000000E+00
					 8.69218000E-01	 4.96187000E-05	 0.00000000E+00
					 8.69218000E-01	 4.96187000E-05	 0.00000000E+00
					 1.00000000E+00	 0.00000000E+00	 0.00000000E+00
					 1.00000000E+00	 0.00000000E+00	 0.00000000E+00
					 9.71697000E-01	 5.13542000E-05	 0.00000000E+00
					 9.71697000E-01	 5.13542000E-05	 0.00000000E+00
					 7.61179000E-01	 4.22422000E-05	 0.00000000E+00
					 7.61179000E-01	 4.22422000E-05	 0.00000000E+00
					 9.37072000E-01	 5.30498000E-05	 0.00000000E+00
					 9.37072000E-01	 5.30498000E-05	 0.00000000E+00
					 6.67804000E-01	 3.87720000E-05	 0.00000000E+00
					 6.67804000E-01	 3.87720000E-05	 0.00000000E+00
					 8.93947000E-01	 4.48559000E-05	 0.00000000E+00
					 8.93947000E-01	 4.48559000E-05	 0.00000000E+00
					 5.83768000E-01	 2.96699000E-05	 0.00000000E+00
					 5.83768000E-01	 2.96699000E-05	 0.00000000E+00
					 8.39384000E-01	 3.34684000E-05	 0.00000000E+00
					 8.39384000E-01	 3.34684000E-05	 0.00000000E+00
					 5.04127000E-01	 1.62605000E-05	 0.00000000E+00
					 5.04127000E-01	 1.62605000E-05	 0.00000000E+00
					 7.69934000E-01	 1.83870000E-05	 0.00000000E+00
					 7.69934000E-01	 1.83870000E-05	 0.00000000E+00
					 4.24107000E-01	-4.15173000E-06	 0.00000000E+00
					 4.24107000E-01	-4.15173000E-06	 0.00000000E+00
					 6.81287000E-01	 4.86348000E-07	 0.00000000E+00
					 6.81287000E-01	 4.86348000E-07	 0.00000000E+00
					 3.38923000E-01	-3.05019000E-05	 0.00000000E+00
					 3.38923000E-01	-3.05019000E-05	 0.00000000E+00
					 5.67964000E-01	-1.52225000E-05	 0.00000000E+00
					 5.67964000E-01	-1.52225000E-05	 0.00000000E+00
					 2.43596000E-01	-5.75615000E-05	 0.00000000E+00
					 2.43596000E-01	-5.75615000E-05	 0.00000000E+00
					 4.23001000E-01	-2.51312000E-05	 0.00000000E+00
					 4.23001000E-01	-2.51312000E-05	 0.00000000E+00
					 1.32739000E-01	-7.38661000E-05	 0.00000000E+00
					 1.32739000E-01	-7.38661000E-05	 0.00000000E+00
					 2.37478000E-01	-1.75981000E-05	 0.00000000E+00
					 2.37478000E-01	-1.75981000E-05	 0.00000000E+00
					 0.00000000E+00	 0.00000000E+00	 0.00000000E+00
					 0.00000000E+00	 0.00000000E+00	 0.00000000E+00
					 0.00000000E+00	 0.00000000E+00	 0.00000000E+00
					 0.00000000E+00	 0.00000000E+00	 0.00000000E+00
					 1.00000000E+00	 0.00000000E+00	 0.00000000E+00
					 1.00000000E+00	 0.00000000E+00	 0.00000000E+00
					 8.65155000E-01	-1.54093000E-05	 0.00000000E+00
					 8.65155000E-01	-1.54093000E-05	 0.00000000E+00
					 1.00000000E+00	 0.00000000E+00	 0.00000000E+00
					 1.00000000E+00	 0.00000000E+00	 0.00000000E+00
					 7.62964000E-01	-2.51776000E-05	 0.00000000E+00
					 7.62964000E-01	-2.51776000E-05	 0.00000000E+00
					 7.54529000E-01	-1.54011000E-05	 0.00000000E+00
					 7.54529000E-01	-1.54011000E-05	 0.00000000E+00
					 5.78543000E-01	-5.70101000E-06	 0.00000000E+00
					 5.78543000E-01	-5.70101000E-06	 0.00000000E+00
					 6.60088000E-01	-1.45228000E-05	 0.00000000E+00
					 6.60088000E-01	-1.45228000E-05	 0.00000000E+00
					 4.33459000E-01	 4.22648000E-06	 0.00000000E+00
					 4.33459000E-01	 4.22648000E-06	 0.00000000E+00
					 5.75880000E-01	-7.77398000E-06	 0.00000000E+00
					 5.75880000E-01	-7.77398000E-06	 0.00000000E+00
					 3.19510000E-01	 1.47504000E-05	 0.00000000E+00
					 3.19510000E-01	 1.47504000E-05	 0.00000000E+00
					 4.96678000E-01	-1.59780000E-06	 0.00000000E+00
					 4.96678000E-01	-1.59780000E-06	 0.00000000E+00
					 2.30012000E-01	 1.56317000E-05	 0.00000000E+00
					 2.30012000E-01	 1.56317000E-05	 0.00000000E+00
					 4.17650000E-01	 5.89409000E-06	 0.00000000E+00
					 4.17650000E-01	 5.89409000E-06	 0.00000000E+00
					 1.59696000E-01	 7.46462000E-06	 0.00000000E+00
					 1.59696000E-01	 7.46462000E-06	 0.00000000E+00
					 3.34000000E-01	 1.45236000E-05	 0.00000000E+00
					 3.34000000E-01	 1.45236000E-05	 0.00000000E+00
					 1.04423000E-01	-6.10075000E-06	 0.00000000E+00
					 1.04423000E-01	-6.10075000E-06	 0.00000000E+00
					 2.40585000E-01	 2.08091000E-05	 0.00000000E+00
					 2.40585000E-01	 2.08091000E-05	 0.00000000E+00
					 6.09532000E-02	-1.94765000E-05	 0.00000000E+00
					 6.09532000E-02	-1.94765000E-05	 0.00000000E+00
					 1.31508000E-01	 2.37678000E-05	 0.00000000E+00
					 1.31508000E-01	 2.37678000E-05	 0.00000000E+00
					 2.67840000E-02	-2.44599000E-05	 0.00000000E+00
					 2.67840000E-02	-2.44599000E-05	 0.00000000E+00
					 0.00000000E+00	 0.00000000E+00	 0.00000000E+00
					 0.00000000E+00	 0.00000000E+00	 0.00000000E+00
					 0.00000000E+00	 0.00000000E+00	 0.00000000E+00
					 0.00000000E+00	 0.00000000E+00	 0.00000000E+00
					 1.00000000E+00	 0.00000000E+00	 0.00000000E+00
					 1.00000000E+00	 0.00000000E+00	 0.00000000E+00
					 8.69238000E-01	 5.25729000E-05	 0.00000000E+00
					 8.69238000E-01	 5.25729000E-05	 0.00000000E+00
					 1.00000000E+00	 0.00000000E+00	 0.00000000E+00
					 1.00000000E+00	 0.00000000E+00	 0.00000000E+00
					 9.70883000E-01	 1.29280000E-05	 0.00000000E+00
					 9.70883000E-01	 1.29280000E-05	 0.00000000E+00
					 7.61231000E-01	 4.31604000E-05	 0.00000000E+00
					 7.61231000E-01	 4.31604000E-05	 0.00000000E+00
					 9.36047000E-01	 1.46233000E-05	 0.00000000E+00
					 9.36047000E-01	 1.46233000E-05	 0.00000000E+00
					 6.67893000E-01	 3.85889000E-05	 0.00000000E+00
					 6.67893000E-01	 3.85889000E-05	 0.00000000E+00
					 8.93072000E-01	 1.05150000E-05	 0.00000000E+00
					 8.93072000E-01	 1.05150000E-05	 0.00000000E+00
					 5.83882000E-01	 2.96406000E-05	 0.00000000E+00
					 5.83882000E-01	 2.96406000E-05	 0.00000000E+00
					 8.38775000E-01	 9.06123000E-06	 0.00000000E+00
					 8.38775000E-01	 9.06123000E-06	 0.00000000E+00
					 5.04245000E-01	 1.44418000E-05	 0.00000000E+00
					 5.04245000E-01	 1.44418000E-05	 0.00000000E+00
					 7.69564000E-01	 1.14272000E-05	 0.00000000E+00
					 7.69564000E-01	 1.14272000E-05	 0.00000000E+00
					 4.24212000E-01	-8.68158000E-06	 0.00000000E+00
					 4.24212000E-01	-8.68158000E-06	 0.00000000E+00
					 6.81080000E-01	 1.13266000E-05	 0.00000000E+00
					 6.81080000E-01	 1.13266000E-05	 0.00000000E+00
					 3.39006000E-01	-3.82886000E-05	 0.00000000E+00
					 3.39006000E-01	-3.82886000E-05	 0.00000000E+00
					 5.67848000E-01	 5.77267000E-06	 0.00000000E+00
					 5.67848000E-01	 5.77267000E-06	 0.00000000E+00
					 2.43650000E-01	-6.55843000E-05	 0.00000000E+00
					 2.43650000E-01	-6.55843000E-05	 0.00000000E+00
					 4.22937000E-01	-5.01421000E-06	 0.00000000E+00
					 4.22937000E-01	-5.01421000E-06	 0.00000000E+00
					 1.32761000E-01	-7.79534000E-05	 0.00000000E+00
					 1.32761000E-01	-7.79534000E-05	 0.00000000E+00
					 2.37455000E-01	-1.96396000E-06	 0.00000000E+00
					 2.37455000E-01	-1.96396000E-06	 0.00000000E+00
					 0.00000000E+00	 0.00000000E+00	 0.00000000E+00
					 0.00000000E+00	 0.00000000E+00	 0.00000000E+00
					 0.00000000E+00	 0.00000000E+00	 0.00000000E+00
					 0.00000000E+00	 0.00000000E+00	 0.00000000E+00
					 1.00000000E+00	 0.00000000E+00	 0.00000000E+00
					 1.00000000E+00	 0.00000000E+00	 0.00000000E+00
					 8.66882000E-01	 2.43576000E-07	 0.00000000E+00
					 8.66882000E-01	 2.43576000E-07	 0.00000000E+00
					 1.00000000E+00	 0.00000000E+00	 0.00000000E+00
					 1.00000000E+00	 0.00000000E+00	 0.00000000E+00
					 8.70891000E-01	-2.25865000E-06	 0.00000000E+00
					 8.70891000E-01	-2.25865000E-06	 0.00000000E+00
					 7.56610000E-01	 1.75531000E-05	 0.00000000E+00
					 7.56610000E-01	 1.75531000E-05	 0.00000000E+00
					 7.62734000E-01	 2.74922000E-05	 0.00000000E+00
					 7.62734000E-01	 2.74922000E-05	 0.00000000E+00
					 6.61782000E-01	 6.08784000E-06	 0.00000000E+00
					 6.61782000E-01	 6.08784000E-06	 0.00000000E+00
					 6.69244000E-01	 4.40699000E-05	 0.00000000E+00
					 6.69244000E-01	 4.40699000E-05	 0.00000000E+00
					 5.76892000E-01	 4.93704000E-06	 0.00000000E+00
					 5.76892000E-01	 4.93704000E-06	 0.00000000E+00
					 5.85002000E-01	 4.53361000E-05	 0.00000000E+00
					 5.85002000E-01	 4.53361000E-05	 0.00000000E+00
					 4.97038000E-01	 3.63303000E-06	 0.00000000E+00
					 4.97038000E-01	 3.63303000E-06	 0.00000000E+00
					 5.05031000E-01	 3.13784000E-05	 0.00000000E+00
					 5.05031000E-01	 3.13784000E-05	 0.00000000E+00
					 4.17567000E-01	 2.32772000E-06	 0.00000000E+00
					 4.17567000E-01	 2.32772000E-06	 0.00000000E+00
					 4.24596000E-01	 7.46265000E-06	 0.00000000E+00
					 4.24596000E-01	 7.46265000E-06	 0.00000000E+00
					 3.33729000E-01	 3.38636000E-06	 0.00000000E+00
					 3.33729000E-01	 3.38636000E-06	 0.00000000E+00
					 3.38999000E-01	-2.03626000E-05	 0.00000000E+00
					 3.38999000E-01	-2.03626000E-05	 0.00000000E+00
					 2.40334000E-01	 4.17065000E-06	 0.00000000E+00
					 2.40334000E-01	 4.17065000E-06	 0.00000000E+00
					 2.43359000E-01	-4.94631000E-05	 0.00000000E+00
					 2.43359000E-01	-4.94631000E-05	 0.00000000E+00
					 1.31380000E-01	 2.84967000E-06	 0.00000000E+00
					 1.31380000E-01	 2.84967000E-06	 0.00000000E+00
					 1.32417000E-01	-8.25487000E-05	 0.00000000E+00
					 1.32417000E-01	-8.25487000E-05	 0.00000000E+00
					 0.00000000E+00	 0.00000000E+00	 0.00000000E+00
					 0.00000000E+00	 0.00000000E+00	 0.00000000E+00
					 0.00000000E+00	 0.00000000E+00	 0.00000000E+00
					 0.00000000E+00	 0.00000000E+00	 0.00000000E+00
				</DataArray>
				<DataArray type="Float32" Name="PS3DF" NumberOfComponents="1" ComponentName0="PS" format="ascii">
					 1.00052000E+00
					 1.00052000E+00
					 1.00078000E+00
					 1.00078000E+00
					 1.00000000E+00
					 1.00000000E+00
					 1.00304000E+00
					 1.00304000E+00
					 1.00091000E+00
					 1.00091000E+00
					 1.00192000E+00
					 1.00192000E+00
					 1.00000000E+00
					 1.00000000E+00
					 1.00465000E+00
					 1.00465000E+00
					 1.00293000E+00
					 1.00293000E+00
					 1.00000000E+00
					 1.00000000E+00
					 1.00573000E+00
					 1.00573000E+00
					 1.00337000E+00
					 1.00337000E+00
					 1.00000000E+00
					 1.00000000E+00
					 1.00665000E+00
					 1.00665000E+00
					 1.00350000E+00
					 1.00350000E+00
					 1.00000000E+00
					 1.00000000E+00
					 1.00739000E+00
					 1.00739000E+00
					 1.00346000E+00
					 1.00346000E+00
					 1.00000000E+00
					 1.00000000E+00
					 1.00782000E+00
					 1.00782000E+00
					 1.00334000E+00
					 1.00334000E+00
					 1.00000000E+00
					 1.00000000E+00
					 1.00771000E+00
					 1.00771000E+00
					 1.00322000E+00
					 1.00322000E+00
					 1.00000000E+00
					 1.00000000E+00
					 1.00698000E+00
					 1.00698000E+00
					 1.00318000E+00
					 1.00318000E+00
					 1.00000000E+00
					 1.00000000E+00
					 1.00527000E+00
					 1.00527000E+00
					 1.00299000E+00
					 1.00299000E+00
					 1.00102000E+00
					 1.00102000E+00
					 1.00229000E+00
					 1.00229000E+00
					 1.00236000E+00
					 1.00236000E+00
					 1.00175000E+00
					 1.00175000E+00
					 1.00062000E+00
					 1.00062000E+00
					 1.00226000E+00
					 1.00226000E+00
					 1.00285000E+00
					 1.00285000E+00
					 9.99422000E-01
					 9.99422000E-01
					 1.00294000E+00
					 1.00294000E+00
					 9.98369000E-01
					 9.98369000E-01
					 1.00283000E+00
					 1.00283000E+00
					 9.97801000E-01
					 9.97801000E-01
					 1.00282000E+00
					 1.00282000E+00
					 9.97642000E-01
					 9.97642000E-01
					 1.00287000E+00
					 1.00287000E+00
					 9.97936000E-01
					 9.97936000E-01
					 1.00283000E+00
					 1.00283000E+00
					 9.98711000E-01
					 9.98711000E-01
					 1.00270000E+00
					 1.00270000E+00
					 9.99837000E-01
					 9.99837000E-01
					 1.00240000E+00
					 1.00240000E+00
					 1.00086000E+00
					 1.00086000E+00
					 1.00167000E+00
					 1.00167000E+00
					 1.00172000E+00
					 1.00172000E+00
					 1.00116000E+00
					 1.00116000E+00
					 1.00172000E+00
					 1.00172000E+00
					 1.00477000E+00
					 1.00477000E+00
					 1.00123000E+00
					 1.00123000E+00
					 1.00180000E+00
					 1.00180000E+00
					 1.00685000E+00
					 1.00685000E+00
					 1.00252000E+00
					 1.00252000E+00
					 1.00799000E+00
					 1.00799000E+00
					 1.00276000E+00
					 1.00276000E+00
					 1.00869000E+00
					 1.00869000E+00
					 1.00283000E+00
					 1.00283000E+00
					 1.00919000E+00
					 1.00919000E+00
					 1.00299000E+00
					 1.00299000E+00
					 1.00917000E+00
					 1.00917000E+00
					 1.00323000E+00
					 1.00323000E+00
					 1.00846000E+00
					 1.00846000E+00
					 1.00337000E+00
					 1.00337000E+00
					 1.00719000E+00
					 1.00719000E+00
					 1.00345000E+00
					 1.00345000E+00
					 1.00499000E+00
					 1.00499000E+00
					 1.00319000E+00
					 1.00319000E+00
					 1.00173000E+00
					 1.00173000E+00
					 1.00229000E+00
					 1.00229000E+00
					 1.00178000E+00
					 1.00178000E+00
					 1.00039000E+00
					 1.00039000E+00
					 1.00227000E+00
					 1.00227000E+00
					 1.00285000E+00
					 1.00285000E+00
					 9.98964000E-01
					 9.98964000E-01
					 1.00297000E+00
					 1.00297000E+00
					 9.97776000E-01
					 9.97776000E-01
					 1.00298000E+00
					 1.00298000E+00
					 9.97153000E-01
					 9.97153000E-01
					 1.00304000E+00
					 1.00304000E+00
					 9.96990000E-01
					 9.96990000E-01
					 1.00304000E+00
					 1.00304000E+00
					 9.97273000E-01
					 9.97273000E-01
					 1.00295000E+00
					 1.00295000E+00
					 9.98006000E-01
					 9.98006000E-01
					 1.00273000E+00
					 1.00273000E+00
					 9.99204000E-01
					 9.99204000E-01
					 1.00237000E+00
					 1.00237000E+00
					 1.00049000E+00
					 1.00049000E+00
					 1.00166000E+00
					 1.00166000E+00
					 1.00171000E+00
					 1.00171000E+00
					 1.00117000E+00
					 1.00117000E+00
					 1.00172000E+00
					 1.00172000E+00
					 1.00481000E+00
					 1.00481000E+00
					 1.00111000E+00
					 1.00111000E+00
					 1.00049000E+00
					 1.00049000E+00
					 1.00698000E+00
					 1.00698000E+00
					 1.00041000E+00
					 1.00041000E+00
					 1.00835000E+00
					 1.00835000E+00
					 1.00040000E+00
					 1.00040000E+00
					 1.00926000E+00
					 1.00926000E+00
					 1.00058000E+00