<?xml version="1.0"?>
<VTKFile type="UnstructuredGrid" version="0.1" byte_order="LittleEndian">
	<UnstructuredGrid>
		<Piece NumberOfPoints="286" NumberOfCells="120">
			<Points>
				<DataArray type="Float64" NumberOfComponents="3" format="ascii">
					 0.00000000E+00	 1.00000000E+00	 1.00000000E-01
					 0.00000000E+00	 1.00000000E+00	 0.00000000E+00
					 5.00000000E-01	 1.00000000E+00	 0.00000000E+00
					 5.00000000E-01	 1.00000000E+00	 1.00000000E-01
					 0.00000000E+00	 9.00000000E-01	 1.00000000E-01
					 0.00000000E+00	 9.00000000E-01	 0.00000000E+00
					 5.00000000E-01	 9.36818000E-01	-6.93889000E-18
					 5.00000000E-01	 9.36818000E-01	 1.00000000E-01
					 1.00000000E+00	 1.00000000E+00	 0.00000000E+00
					 1.00000000E+00	 1.00000000E+00	 1.00000000E-01
					 1.00000000E+00	 9.73636000E-01	 0.00000000E+00
					 1.00000000E+00	 9.73636000E-01	 1.00000000E-01
					 0.00000000E+00	 8.00000000E-01	 1.00000000E-01
					 0.00000000E+00	 8.00000000E-01	 0.00000000E+00
					 5.00000000E-01	 8.69991000E-01	 6.93889000E-18
					 5.00000000E-01	 8.69991000E-01	 1.00000000E-01
					 1.00000000E+00	 9.39983000E-01	 0.00000000E+00
					 1.00000000E+00	 9.39983000E-01	 1.00000000E-01
					 0.00000000E+00	 7.00000000E-01	 1.00000000E-01
					 0.00000000E+00	 7.00000000E-01	 0.00000000E+00
					 5.00000000E-01	 7.98512000E-01	 6.93889000E-18
					 5.00000000E-01	 7.98512000E-01	 1.00000000E-01
					 1.00000000E+00	 8.97024000E-01	 0.00000000E+00
					 1.00000000E+00	 8.97024000E-01	 1.00000000E-01
					 0.00000000E+00	 6.00000000E-01	 1.00000000E-01
					 0.00000000E+00	 6.00000000E-01	 0.00000000E+00
					 5.00000000E-01	 7.21093000E-01	-1.38778000E-17
					 5.00000000E-01	 7.21093000E-01	 1.00000000E-01
					 1.00000000E+00	 8.42185000E-01	 0.00000000E+00
					 1.00000000E+00	 8.42185000E-01	 1.00000000E-01
					 0.00000000E+00	 5.00000000E-01	 1.00000000E-01
					 0.00000000E+00	 5.00000000E-01	 0.00000000E+00
					 5.00000000E-01	 6.36092000E-01	 6.93889000E-18
					 5.00000000E-01	 6.36092000E-01	 1.00000000E-01
					 1.00000000E+00	 7.72183000E-01	 0.00000000E+00
					 1.00000000E+00	 7.72183000E-01	 1.00000000E-01
					 0.00000000E+00	 4.00000000E-01	 1.00000000E-01
					 0.00000000E+00	 4.00000000E-01	 0.00000000E+00
					 5.00000000E-01	 5.41412000E-01	 6.93889000E-18
					 5.00000000E-01	 5.41412000E-01	 1.00000000E-01
					 1.00000000E+00	 6.82824000E-01	 0.00000000E+00
					 1.00000000E+00	 6.82824000E-01	 1.00000000E-01
					 0.00000000E+00	 3.00000000E-01	 1.00000000E-01
					 0.00000000E+00	 3.00000000E-01	 0.00000000E+00
					 5.00000000E-01	 4.34378000E-01	 6.93889000E-18
					 5.00000000E-01	 4.34378000E-01	 1.00000000E-01
					 1.00000000E+00	 5.68756000E-01	 0.00000000E+00
					 1.00000000E+00	 5.68756000E-01	 1.00000000E-01
					 0.00000000E+00	 2.00000000E-01	 1.00000000E-01
					 0.00000000E+00	 2.00000000E-01	 0.00000000E+00
					 5.00000000E-01	 3.11573000E-01	 1.38778000E-17
					 5.00000000E-01	 3.11573000E-01	 1.00000000E-01
					 1.00000000E+00	 4.23146000E-01	 0.00000000E+00
					 1.00000000E+00	 4.23146000E-01	 1.00000000E-01
					 0.00000000E+00	 1.00000000E-01	 1.00000000E-01
					 0.00000000E+00	 1.00000000E-01	 0.00000000E+00
					 5.00000000E-01	 1.68636000E-01	-6.93889000E-18
					 5.00000000E-01	 1.68636000E-01	 1.00000000E-01
					 1.00000000E+00	 2.37272000E-01	 0.00000000E+00
					 1.00000000E+00	 2.37272000E-01	 1.00000000E-01
					 0.00000000E+00	 0.00000000E+00	 1.00000000E-01
					 0.00000000E+00	 0.00000000E+00	 0.00000000E+00
					 5.00000000E-01	 0.00000000E+00	 0.00000000E+00
					 5.00000000E-01	 0.00000000E+00	 1.00000000E-01
					 1.00000000E+00	 0.00000000E+00	 0.00000000E+00
					 1.00000000E+00	 0.00000000E+00	 1.00000000E-01
					 1.50000000E+00	 1.00000000E+00	 0.00000000E+00
					 1.50000000E+00	 1.00000000E+00	 1.00000000E-01
					 1.50000000E+00	 8.68182000E-01	 0.00000000E+00
					 1.50000000E+00	 8.68182000E-01	 1.00000000E-01
					 2.00000000E+00	 1.00000000E+00	 0.00000000E+00
					 2.00000000E+00	 1.00000000E+00	 1.00000000E-01
					 2.00000000E+00	 7.62728000E-01	 0.00000000E+00
					 2.00000000E+00	 7.62728000E-01	 1.00000000E-01
					 1.50000000E+00	 7.58419000E-01	-6.93889000E-18
					 1.50000000E+00	 7.58419000E-01	 1.00000000E-01
					 2.00000000E+00	 5.76854000E-01	 0.00000000E+00
					 2.00000000E+00	 5.76854000E-01	 1.00000000E-01
					 1.50000000E+00	 6.64134000E-01	-6.93889000E-18
					 1.50000000E+00	 6.64134000E-01	 1.00000000E-01
					 2.00000000E+00	 4.31244000E-01	 0.00000000E+00
					 2.00000000E+00	 4.31244000E-01	 1.00000000E-01
					 1.50000000E+00	 5.79681000E-01	 6.93889000E-18
					 1.50000000E+00	 5.79681000E-01	 1.00000000E-01
					 2.00000000E+00	 3.17176000E-01	 0.00000000E+00
					 2.00000000E+00	 3.17176000E-01	 1.00000000E-01
					 1.50000000E+00	 5.00000000E-01	 0.00000000E+00
					 1.50000000E+00	 5.00000000E-01	 1.00000000E-01
					 2.00000000E+00	 2.27817000E-01	 0.00000000E+00
					 2.00000000E+00	 2.27817000E-01	 1.00000000E-01
					 1.50000000E+00	 4.20319000E-01	-6.93889000E-18
					 1.50000000E+00	 4.20319000E-01	 1.00000000E-01
					 2.00000000E+00	 1.57815000E-01	 0.00000000E+00
					 2.00000000E+00	 1.57815000E-01	 1.00000000E-01
					 1.50000000E+00	 3.35866000E-01	-6.93889000E-18
					 1.50000000E+00	 3.35866000E-01	 1.00000000E-01
					 2.00000000E+00	 1.02976000E-01	 0.00000000E+00
					 2.00000000E+00	 1.02976000E-01	 1.00000000E-01
					 1.50000000E+00	 2.41581000E-01	-6.93889000E-18
					 1.50000000E+00	 2.41581000E-01	 1.00000000E-01
					 2.00000000E+00	 6.00170000E-02	 0.00000000E+00
					 2.00000000E+00	 6.00170000E-02	 1.00000000E-01
					 1.50000000E+00	 1.31818000E-01	 6.93889000E-18
					 1.50000000E+00	 1.31818000E-01	 1.00000000E-01
					 2.00000000E+00	 2.63635000E-02	 0.00000000E+00
					 2.00000000E+00	 2.63635000E-02	 1.00000000E-01
					 1.50000000E+00	 0.00000000E+00	 0.00000000E+00
					 1.50000000E+00	 0.00000000E+00	 1.00000000E-01
					 2.00000000E+00	 0.00000000E+00	 0.00000000E+00
					 2.00000000E+00	 0.00000000E+00	 1.00000000E-01
					 2.50000000E+00	 1.00000000E+00	 0.00000000E+00
					 2.50000000E+00	 1.00000000E+00	 1.00000000E-01
					 2.50000000E+00	 8.68182000E-01	 0.00000000E+00
					 2.50000000E+00	 8.68182000E-01	 1.00000000E-01
					 3.00000000E+00	 1.00000000E+00	 0.00000000E+00
					 3.00000000E+00	 1.00000000E+00	 1.00000000E-01
					 3.00000000E+00	 9.73636000E-01	 0.00000000E+00
					 3.00000000E+00	 9.73636000E-01	 1.00000000E-01
					 2.50000000E+00	 7.58419000E-01	 6.93889000E-18
					 2.50000000E+00	 7.58419000E-01	 1.00000000E-01
					 3.00000000E+00	 9.39983000E-01	 0.00000000E+00
					 3.00000000E+00	 9.39983000E-01	 1.00000000E-01
					 2.50000000E+00	 6.64134000E-01	-6.93889000E-18
					 2.50000000E+00	 6.64134000E-01	 1.00000000E-01
					 3.00000000E+00	 8.97024000E-01	 0.00000000E+00
					 3.00000000E+00	 8.97024000E-01	 1.00000000E-01
					 2.50000000E+00	 5.79681000E-01	 0.00000000E+00
					 2.50000000E+00	 5.79681000E-01	 1.00000000E-01
					 3.00000000E+00	 8.42185000E-01	 0.00000000E+00
					 3.00000000E+00	 8.42185000E-01	 1.00000000E-01
					 2.50000000E+00	 5.00000000E-01	 6.93889000E-18
					 2.50000000E+00	 5.00000000E-01	 1.00000000E-01
					 3.00000000E+00	 7.72183000E-01	 0.00000000E+00
					 3.00000000E+00	 7.72183000E-01	 1.00000000E-01
					 2.50000000E+00	 4.20319000E-01	-1.38778000E-17
					 2.50000000E+00	 4.20319000E-01	 1.00000000E-01
					 3.00000000E+00	 6.82824000E-01	 0.00000000E+00
					 3.00000000E+00	 6.82824000E-01	 1.00000000E-01
					 2.50000000E+00	 3.35866000E-01	-6.93889000E-18
					 2.50000000E+00	 3.35866000E-01	 1.00000000E-01
					 3.00000000E+00	 5.68756000E-01	 0.00000000E+00
					 3.00000000E+00	 5.68756000E-01	 1.00000000E-01
					 2.50000000E+00	 2.41581000E-01	 6.93889000E-18
					 2.50000000E+00	 2.41581000E-01	 1.00000000E-01
					 3.00000000E+00	 4.23146000E-01	 0.00000000E+00
					 3.00000000E+00	 4.23146000E-01	 1.00000000E-01
					 2.50000000E+00	 1.31818000E-01	 6.93889000E-18
					 2.50000000E+00	 1.31818000E-01	 1.00000000E-01
					 3.00000000E+00	 2.37272000E-01	 0.00000000E+00
					 3.00000000E+00	 2.37272000E-01	 1.00000000E-01
					 2.50000000E+00	 0.00000000E+00	 0.00000000E+00
					 2.50000000E+00	 0.00000000E+00	 1.00000000E-01
					 3.00000000E+00	 0.00000000E+00	 0.00000000E+00
					 3.00000000E+00	 0.00000000E+00	 1.00000000E-01
					 3.50000000E+00	 1.00000000E+00	 0.00000000E+00
					 3.50000000E+00	 1.00000000E+00	 1.00000000E-01
					 3.50000000E+00	 8.68182000E-01	 0.00000000E+00
					 3.50000000E+00	 8.68182000E-01	 1.00000000E-01
					 4.00000000E+00	 1.00000000E+00	 0.00000000E+00
					 4.00000000E+00	 1.00000000E+00	 1.00000000E-01
					 4.00000000E+00	 7.62728000E-01	 0.00000000E+00
					 4.00000000E+00	 7.62728000E-01	 1.00000000E-01
					 3.50000000E+00	 7.58419000E-01	-1.38778000E-17
					 3.50000000E+00	 7.58419000E-01	 1.00000000E-01
					 4.00000000E+00	 5.76854000E-01	 0.00000000E+00
					 4.00000000E+00	 5.76854000E-01	 1.00000000E-01
					 3.50000000E+00	 6.64134000E-01	-6.93889000E-18
					 3.50000000E+00	 6.64134000E-01	 1.00000000E-01
					 4.00000000E+00	 4.31244000E-01	 0.00000000E+00
					 4.00000000E+00	 4.31244000E-01	 1.00000000E-01
					 3.50000000E+00	 5.79681000E-01	 0.00000000E+00
					 3.50000000E+00	 5.79681000E-01	 1.00000000E-01
					 4.00000000E+00	 3.17176000E-01	 0.00000000E+00
					 4.00000000E+00	 3.17176000E-01	 1.00000000E-01
					 3.50000000E+00	 5.00000000E-01	 6.93889000E-18
					 3.50000000E+00	 5.00000000E-01	 1.00000000E-01
					 4.00000000E+00	 2.27817000E-01	 0.00000000E+00
					 4.00000000E+00	 2.27817000E-01	 1.00000000E-01
					 3.50000000E+00	 4.20319000E-01	-1.38778000E-17
					 3.50000000E+00	 4.20319000E-01	 1.00000000E-01
					 4.00000000E+00	 1.57815000E-01	 0.00000000E+00
					 4.00000000E+00	 1.57815000E-01	 1.00000000E-01
					 3.50000000E+00	 3.35866000E-01	-6.93889000E-18
					 3.50000000E+00	 3.35866000E-01	 1.00000000E-01
[...]
			<PointData>
				<DataArray type="Float32" Name="V3DF" NumberOfComponents="3" ComponentName0="V1" ComponentName1="V2" ComponentName2="V3" format="ascii">
					 9.75000000E-01	 0.00000000E+00	 0.00000000E+00
					 9.75000000E-01	 0.00000000E+00	 0.00000000E+00
					 1.00000000E+00	 0.00000000E+00	 0.00000000E+00
					 1.00000000E+00	 0.00000000E+00	 0.00000000E+00
					 9.00000000E-01	 0.00000000E+00	 0.00000000E+00
					 9.00000000E-01	 0.00000000E+00	 0.00000000E+00
					 9.36136000E-01	 2.57991000E-05	 0.00000000E+00
					 9.36136000E-01	 2.57991000E-05	 0.00000000E+00
					 1.00000000E+00	 0.00000000E+00	 0.00000000E+00
					 1.00000000E+00	 0.00000000E+00	 0.00000000E+00
					 9.72064000E-01	 9.01129000E-05	 0.00000000E+00
					 9.72064000E-01	 9.01129000E-05	 0.00000000E+00
					 8.00000000E-01	 0.00000000E+00	 0.00000000E+00
					 8.00000000E-01	 0.00000000E+00	 0.00000000E+00
					 8.69565000E-01	 4.40857000E-05	 0.00000000E+00
					 8.69565000E-01	 4.40857000E-05	 0.00000000E+00
					 9.37318000E-01	 9.11159000E-05	 0.00000000E+00
					 9.37318000E-01	 9.11159000E-05	 0.00000000E+00
					 7.00000000E-01	 0.00000000E+00	 0.00000000E+00
					 7.00000000E-01	 0.00000000E+00	 0.00000000E+00
					 7.98870000E-01	 5.89489000E-05	 0.00000000E+00
					 7.98870000E-01	 5.89489000E-05	 0.00000000E+00
					 8.93876000E-01	 5.54160000E-05	 0.00000000E+00
					 8.93876000E-01	 5.54160000E-05	 0.00000000E+00
					 6.00000000E-01	 0.00000000E+00	 0.00000000E+00
					 6.00000000E-01	 0.00000000E+00	 0.00000000E+00
					 7.22425000E-01	 6.55387000E-05	 0.00000000E+00
					 7.22425000E-01	 6.55387000E-05	 0.00000000E+00
					 8.39043000E-01	 1.81122000E-05	 0.00000000E+00
					 8.39043000E-01	 1.81122000E-05	 0.00000000E+00
					 5.00000000E-01	 0.00000000E+00	 0.00000000E+00
					 5.00000000E-01	 0.00000000E+00	 0.00000000E+00
					 6.38260000E-01	 5.82302000E-05	 0.00000000E+00
					 6.38260000E-01	 5.82302000E-05	 0.00000000E+00
					 7.69569000E-01	-8.94391000E-06	 0.00000000E+00
					 7.69569000E-01	-8.94391000E-06	 0.00000000E+00
					 4.00000000E-01	 0.00000000E+00	 0.00000000E+00
					 4.00000000E-01	 0.00000000E+00	 0.00000000E+00
					 5.44020000E-01	 3.45186000E-05	 0.00000000E+00
					 5.44020000E-01	 3.45186000E-05	 0.00000000E+00
					 6.81115000E-01	-2.35739000E-05	 0.00000000E+00
					 6.81115000E-01	-2.35739000E-05	 0.00000000E+00
					 3.00000000E-01	 0.00000000E+00	 0.00000000E+00
					 3.00000000E-01	 0.00000000E+00	 0.00000000E+00
					 4.36903000E-01	-1.24001000E-06	 0.00000000E+00
					 4.36903000E-01	-1.24001000E-06	 0.00000000E+00
					 5.67784000E-01	-2.75024000E-05	 0.00000000E+00
					 5.67784000E-01	-2.75024000E-05	 0.00000000E+00
					 2.00000000E-01	 0.00000000E+00	 0.00000000E+00
					 2.00000000E-01	 0.00000000E+00	 0.00000000E+00
					 3.13479000E-01	-4.52966000E-05	 0.00000000E+00
					 3.13479000E-01	-4.52966000E-05	 0.00000000E+00
					 4.22789000E-01	-2.64183000E-05	 0.00000000E+00
					 4.22789000E-01	-2.64183000E-05	 0.00000000E+00
					 1.00000000E-01	 0.00000000E+00	 0.00000000E+00
					 1.00000000E-01	 0.00000000E+00	 0.00000000E+00
					 1.69641000E-01	-8.38736000E-05	 0.00000000E+00
					 1.69641000E-01	-8.38736000E-05	 0.00000000E+00
					 2.37464000E-01	-1.25331000E-05	 0.00000000E+00
					 2.37464000E-01	-1.25331000E-05	 0.00000000E+00
					 2.50000000E-02	 0.00000000E+00	 0.00000000E+00
					 2.50000000E-02	 0.00000000E+00	 0.00000000E+00
					 0.00000000E+00	 0.00000000E+00	 0.00000000E+00
					 0.00000000E+00	 0.00000000E+00	 0.00000000E+00
					 0.00000000E+00	 0.00000000E+00	 0.00000000E+00
					 0.00000000E+00	 0.00000000E+00	 0.00000000E+00
					 1.00000000E+00	 0.00000000E+00	 0.00000000E+00
					 1.00000000E+00	 0.00000000E+00	 0.00000000E+00
					 8.63380000E-01	-3.68374000E-05	 0.00000000E+00
					 8.63380000E-01	-3.68374000E-05	 0.00000000E+00
					 1.00000000E+00	 0.00000000E+00	 0.00000000E+00
					 1.00000000E+00	 0.00000000E+00	 0.00000000E+00
					 7.63109000E-01	-3.59225000E-05	 0.00000000E+00
					 7.63109000E-01	-3.59225000E-05	 0.00000000E+00
					 7.52376000E-01	-3.52875000E-05	 0.00000000E+00
					 7.52376000E-01	-3.52875000E-05	 0.00000000E+00
					 5.79619000E-01	-5.39534000E-06	 0.00000000E+00
					 5.79619000E-01	-5.39534000E-06	 0.00000000E+00
					 6.58174000E-01	-3.63188000E-05	 0.00000000E+00
					 6.58174000E-01	-3.63188000E-05	 0.00000000E+00
					 4.34673000E-01	 5.45750000E-06	 0.00000000E+00
					 4.34673000E-01	 5.45750000E-06	 0.00000000E+00
					 5.74405000E-01	-2.54751000E-05	 0.00000000E+00
					 5.74405000E-01	-2.54751000E-05	 0.00000000E+00
					 3.20590000E-01	 1.67063000E-05	 0.00000000E+00
					 3.20590000E-01	 1.67063000E-05	 0.00000000E+00
					 4.95704000E-01	-9.44948000E-06	 0.00000000E+00
					 4.95704000E-01	-9.44948000E-06	 0.00000000E+00
					 2.31164000E-01	 1.65419000E-05	 0.00000000E+00
					 2.31164000E-01	 1.65419000E-05	 0.00000000E+00
					 4.17194000E-01	 1.03406000E-05	 0.00000000E+00
					 4.17194000E-01	 1.03406000E-05	 0.00000000E+00
					 1.60795000E-01	 4.94789000E-06	 0.00000000E+00
					 1.60795000E-01	 4.94789000E-06	 0.00000000E+00
					 3.33773000E-01	 2.90076000E-05	 0.00000000E+00
					 3.33773000E-01	 2.90076000E-05	 0.00000000E+00
					 1.05270000E-01	-1.08968000E-05	 0.00000000E+00
					 1.05270000E-01	-1.08968000E-05	 0.00000000E+00
					 2.40458000E-01	 4.02798000E-05	 0.00000000E+00
					 2.40458000E-01	 4.02798000E-05	 0.00000000E+00
					 6.15361000E-02	-2.44316000E-05	 0.00000000E+00
					 6.15361000E-02	-2.44316000E-05	 0.00000000E+00
					 1.31522000E-01	 4.82129000E-05	 0.00000000E+00
					 1.31522000E-01	 4.82129000E-05	 0.00000000E+00
					 2.70726000E-02	-2.69099000E-05	 0.00000000E+00
					 2.70726000E-02	-2.69099000E-05	 0.00000000E+00
					 0.00000000E+00	 0.00000000E+00	 0.00000000E+00
					 0.00000000E+00	 0.00000000E+00	 0.00000000E+00
					 0.00000000E+00	 0.00000000E+00	 0.00000000E+00
					 0.00000000E+00	 0.00000000E+00	 0.00000000E+00
					 1.00000000E+00	 0.00000000E+00	 0.00000000E+00
					 1.00000000E+00	 0.00000000E+00	 0.00000000E+00
					 8.70190000E-01	 8.83142000E-05	 0.00000000E+00
					 8.70190000E-01	 8.83142000E-05	 0.00000000E+00
					 1.00000000E+00	 0.00000000E+00	 0.00000000E+00
					 1.00000000E+00	 0.00000000E+00	 0.00000000E+00
					 9.70848000E-01	 7.20286000E-05	 0.00000000E+00
					 9.70848000E-01	 7.20286000E-05	 0.00000000E+00
					 7.63215000E-01	 8.15067000E-05	 0.00000000E+00
					 7.63215000E-01	 8.15067000E-05	 0.00000000E+00
					 9.35685000E-01	 7.76278000E-05	 0.00000000E+00
					 9.35685000E-01	 7.76278000E-05	 0.00000000E+00
					 6.70102000E-01	 6.90505000E-05	 0.00000000E+00
					 6.70102000E-01	 6.90505000E-05	 0.00000000E+00
					 8.92093000E-01	 6.71199000E-05	 0.00000000E+00
					 8.92093000E-01	 6.71199000E-05	 0.00000000E+00
					 5.86068000E-01	 4.84599000E-05	 0.00000000E+00
					 5.86068000E-01	 4.84599000E-05	 0.00000000E+00
					 8.37347000E-01	 5.01309000E-05	 0.00000000E+00
					 8.37347000E-01	 5.01309000E-05	 0.00000000E+00
					 5.06769000E-01	 2.61200000E-05	 0.00000000E+00
					 5.06769000E-01	 2.61200000E-05	 0.00000000E+00
					 7.68210000E-01	 2.90078000E-05	 0.00000000E+00
					 7.68210000E-01	 2.90078000E-05	 0.00000000E+00
					 4.26883000E-01	-1.01190000E-05	 0.00000000E+00
					 4.26883000E-01	-1.01190000E-05	 0.00000000E+00
					 6.80109000E-01	 2.82599000E-06	 0.00000000E+00
					 6.80109000E-01	 2.82599000E-06	 0.00000000E+00
					 3.41274000E-01	-6.02198000E-05	 0.00000000E+00
					 3.41274000E-01	-6.02198000E-05	 0.00000000E+00
					 5.67360000E-01	-2.53769000E-05	 0.00000000E+00
					 5.67360000E-01	-2.53769000E-05	 0.00000000E+00
					 2.45217000E-01	-1.06644000E-04	 0.00000000E+00
					 2.45217000E-01	-1.06644000E-04	 0.00000000E+00
					 4.22883000E-01	-4.41735000E-05	 0.00000000E+00
					 4.22883000E-01	-4.41735000E-05	 0.00000000E+00
					 1.33518000E-01	-1.26721000E-04	 0.00000000E+00
					 1.33518000E-01	-1.26721000E-04	 0.00000000E+00
					 2.37617000E-01	-3.03994000E-05	 0.00000000E+00
					 2.37617000E-01	-3.03994000E-05	 0.00000000E+00
					 0.00000000E+00	 0.00000000E+00	 0.00000000E+00
					 0.00000000E+00	 0.00000000E+00	 0.00000000E+00
					 0.00000000E+00	 0.00000000E+00	 0.00000000E+00
					 0.00000000E+00	 0.00000000E+00	 0.00000000E+00
					 1.00000000E+00	 0.00000000E+00	 0.00000000E+00
					 1.00000000E+00	 0.00000000E+00	 0.00000000E+00
					 8.63436000E-01	-5.02081000E-05	 0.00000000E+00
					 8.63436000E-01	-5.02081000E-05	 0.00000000E+00
					 1.00000000E+00	 0.00000000E+00	 0.00000000E+00
					 1.00000000E+00	 0.00000000E+00	 0.00000000E+00
					 7.63152000E-01	-4.28568000E-05	 0.00000000E+00
					 7.63152000E-01	-4.28568000E-05	 0.00000000E+00
					 7.52284000E-01	-3.93510000E-05	 0.00000000E+00
					 7.52284000E-01	-3.93510000E-05	 0.00000000E+00
					 5.79767000E-01	-5.28624000E-06	 0.00000000E+00
					 5.79767000E-01	-5.28624000E-06	 0.00000000E+00
					 6.57323000E-01	-2.88016000E-05	 0.00000000E+00
					 6.57323000E-01	-2.88016000E-05	 0.00000000E+00
					 4.35058000E-01	 1.09544000E-05	 0.00000000E+00
					 4.35058000E-01	 1.09544000E-05	 0.00000000E+00
					 5.73090000E-01	-1.26907000E-05	 0.00000000E+00
					 5.73090000E-01	-1.26907000E-05	 0.00000000E+00
					 3.21182000E-01	 2.46266000E-05	 0.00000000E+00
					 3.21182000E-01	 2.46266000E-05	 0.00000000E+00
					 4.94216000E-01	 4.45776000E-07	 0.00000000E+00
					 4.94216000E-01	 4.45776000E-07	 0.00000000E+00
					 2.31603000E-01	 2.49185000E-05	 0.00000000E+00
					 2.31603000E-01	 2.49185000E-05	 0.00000000E+00
					 4.15608000E-01	 1.37461000E-05	 0.00000000E+00
					 4.15608000E-01	 1.37461000E-05	 0.00000000E+00
					 1.61041000E-01	 1.23331000E-05	 0.00000000E+00
					 1.61041000E-01	 1.23331000E-05	 0.00000000E+00
					 3.32512000E-01	 2.89121000E-05	 0.00000000E+00
					 3.32512000E-01	 2.89121000E-05	 0.00000000E+00
					 1.05402000E-01	-4.25239000E-06	 0.00000000E+00
					 1.05402000E-01	-4.25239000E-06	 0.00000000E+00
					 2.39740000E-01	 4.38234000E-05	 0.00000000E+00
					 2.39740000E-01	 4.38234000E-05	 0.00000000E+00
					 6.15098000E-02	-1.89776000E-05	 0.00000000E+00
					 6.15098000E-02	-1.89776000E-05	 0.00000000E+00
					 1.31215000E-01	 5.73368000E-05	 0.00000000E+00
					 1.31215000E-01	 5.73368000E-05	 0.00000000E+00
					 2.70149000E-02	-2.51799000E-05	 0.00000000E+00
					 2.70149000E-02	-2.51799000E-05	 0.00000000E+00
					 0.00000000E+00	 0.00000000E+00	 0.00000000E+00
					 0.00000000E+00	 0.00000000E+00	 0.00000000E+00
					 0.00000000E+00	 0.00000000E+00	 0.00000000E+00
					 0.00000000E+00	 0.00000000E+00	 0.00000000E+00
					 1.00000000E+00	 0.00000000E+00	 0.00000000E+00
					 1.00000000E+00	 0.00000000E+00	 0.00000000E+00
					 8.70230000E-01	 9.25943000E-05	 0.00000000E+00
					 8.70230000E-01	 9.25943000E-05	 0.00000000E+00
					 1.00000000E+00	 0.00000000E+00	 0.00000000E+00
					 1.00000000E+00	 0.00000000E+00	 0.00000000E+00
					 9.69116000E-01	 8.80862000E-06	 0.00000000E+00
					 9.69116000E-01	 8.80862000E-06	 0.00000000E+00
					 7.63373000E-01	 8.41550000E-05	 0.00000000E+00
					 7.63373000E-01	 8.41550000E-05	 0.00000000E+00
					 9.33306000E-01	 1.51032000E-05	 0.00000000E+00
					 9.33306000E-01	 1.51032000E-05	 0.00000000E+00
					 6.70703000E-01	 7.40432000E-05	 0.00000000E+00
					 6.70703000E-01	 7.40432000E-05	 0.00000000E+00
					 8.90101000E-01	 1.59663000E-05	 0.00000000E+00
					 8.90101000E-01	 1.59663000E-05	 0.00000000E+00
					 5.87027000E-01	 5.46711000E-05	 0.00000000E+00
					 5.87027000E-01	 5.46711000E-05	 0.00000000E+00
					 8.35993000E-01	 1.79817000E-05	 0.00000000E+00
					 8.35993000E-01	 1.79817000E-05	 0.00000000E+00
					 5.07411000E-01	 2.41539000E-05	 0.00000000E+00
					 5.07411000E-01	 2.41539000E-05	 0.00000000E+00
					 7.67464000E-01	 2.19787000E-05	 0.00000000E+00
					 7.67464000E-01	 2.19787000E-05	 0.00000000E+00
					 4.27055000E-01	-2.01784000E-05	 0.00000000E+00
					 4.27055000E-01	-2.01784000E-05	 0.00000000E+00
					 6.80036000E-01	 2.06281000E-05	 0.00000000E+00
					 6.80036000E-01	 2.06281000E-05	 0.00000000E+00
					 3.41231000E-01	-6.95752000E-05	 0.00000000E+00
					 3.41231000E-01	-6.95752000E-05	 0.00000000E+00
					 5.67350000E-01	 1.16712000E-05	 0.00000000E+00
					 5.67350000E-01	 1.16712000E-05	 0.00000000E+00
					 2.44979000E-01	-1.10655000E-04	 0.00000000E+00
					 2.44979000E-01	-1.10655000E-04	 0.00000000E+00
					 4.22606000E-01	-5.21398000E-06	 0.00000000E+00
					 4.22606000E-01	-5.21398000E-06	 0.00000000E+00
					 1.33339000E-01	-1.27013000E-04	 0.00000000E+00
					 1.33339000E-01	-1.27013000E-04	 0.00000000E+00
					 2.37476000E-01	 1.13393000E-06	 0.00000000E+00
					 2.37476000E-01	 1.13393000E-06	 0.00000000E+00
					 0.00000000E+00	 0.00000000E+00	 0.00000000E+00
					 0.00000000E+00	 0.00000000E+00	 0.00000000E+00
					 0.00000000E+00	 0.00000000E+00	 0.00000000E+00
					 0.00000000E+00	 0.00000000E+00	 0.00000000E+00
					 1.00000000E+00	 0.00000000E+00	 0.00000000E+00
					 1.00000000E+00	 0.00000000E+00	 0.00000000E+00
					 8.66088000E-01	-9.21995000E-06	 0.00000000E+00
					 8.66088000E-01	-9.21995000E-06	 0.00000000E+00
					 1.00000000E+00	 0.00000000E+00	 0.00000000E+00
					 1.00000000E+00	 0.00000000E+00	 0.00000000E+00
					 8.72712000E-01	 6.31213000E-06	 0.00000000E+00
					 8.72712000E-01	 6.31213000E-06	 0.00000000E+00
					 7.55515000E-01	 2.51790000E-05	 0.00000000E+00
					 7.55515000E-01	 2.51790000E-05	 0.00000000E+00
					 7.65588000E-01	 5.39909000E-05	 0.00000000E+00
					 7.65588000E-01	 5.39909000E-05	 0.00000000E+00
					 6.60512000E-01	 1.25101000E-05	 0.00000000E+00
					 6.60512000E-01	 1.25101000E-05	 0.00000000E+00
					 6.72475000E-01	 7.90289000E-05	 0.00000000E+00
					 6.72475000E-01	 7.90289000E-05	 0.00000000E+00
					 5.75555000E-01	 8.03414000E-06	 0.00000000E+00
					 5.75555000E-01	 8.03414000E-06	 0.00000000E+00
					 5.88156000E-01	 7.74924000E-05	 0.00000000E+00
					 5.88156000E-01	 7.74924000E-05	 0.00000000E+00
					 4.95827000E-01	 4.77624000E-06	 0.00000000E+00
					 4.95827000E-01	 4.77624000E-06	 0.00000000E+00
					 5.07614000E-01	 5.21926000E-05	 0.00000000E+00
					 5.07614000E-01	 5.21926000E-05	 0.00000000E+00
					 4.16485000E-01	 4.44625000E-06	 0.00000000E+00
					 4.16485000E-01	 4.44625000E-06	 0.00000000E+00
					 4.26410000E-01	 9.57884000E-06	 0.00000000E+00
					 4.26410000E-01	 9.57884000E-06	 0.00000000E+00
					 3.32692000E-01	 8.67581000E-06	 0.00000000E+00
					 3.32692000E-01	 8.67581000E-06	 0.00000000E+00
					 3.40444000E-01	-3.99218000E-05	 0.00000000E+00
					 3.40444000E-01	-3.99218000E-05	 0.00000000E+00
					 2.39598000E-01	 1.24542000E-05	 0.00000000E+00
					 2.39598000E-01	 1.24542000E-05	 0.00000000E+00
					 2.44432000E-01	-9.08673000E-05	 0.00000000E+00
					 2.44432000E-01	-9.08673000E-05	 0.00000000E+00
					 1.31101000E-01	 1.37217000E-05	 0.00000000E+00
					 1.31101000E-01	 1.37217000E-05	 0.00000000E+00
					 1.32845000E-01	-1.42418000E-04	 0.00000000E+00
					 1.32845000E-01	-1.42418000E-04	 0.00000000E+00
					 0.00000000E+00	 0.00000000E+00	 0.00000000E+00
					 0.00000000E+00	 0.00000000E+00	 0.00000000E+00
					 0.00000000E+00	 0.00000000E+00	 0.00000000E+00
					 0.00000000E+00	 0.00000000E+00	 0.00000000E+00
				</DataArray>
				<DataArray type="Float32" Name="PS3DF" NumberOfComponents="1" ComponentName0="PS" format="ascii">
					 1.00049000E+00
					 1.00049000E+00
					 1.00075000E+00
					 1.00075000E+00
					 1.00000000E+00
					 1.00000000E+00
					 1.00289000E+00
					 1.00289000E+00
					 1.00090000E+00
					 1.00090000E+00
					 1.00197000E+00
					 1.00197000E+00
					 1.00000000E+00
					 1.00000000E+00
					 1.00446000E+00
					 1.00446000E+00
					 1.00300000E+00
					 1.00300000E+00
					 1.00000000E+00
					 1.00000000E+00
					 1.00555000E+00
					 1.00555000E+00
					 1.00345000E+00
					 1.00345000E+00
					 1.00000000E+00
					 1.00000000E+00
					 1.00654000E+00
					 1.00654000E+00
					 1.00358000E+00
					 1.00358000E+00
					 1.00000000E+00
					 1.00000000E+00
					 1.00736000E+00
					 1.00736000E+00
					 1.00352000E+00
					 1.00352000E+00
					 1.00000000E+00
					 1.00000000E+00
					 1.00787000E+00
					 1.00787000E+00
					 1.00338000E+00
					 1.00338000E+00
					 1.00000000E+00
					 1.00000000E+00
					 1.00782000E+00
					 1.00782000E+00
					 1.00324000E+00
					 1.00324000E+00
					 1.00000000E+00
					 1.00000000E+00
					 1.00710000E+00
					 1.00710000E+00
					 1.00317000E+00
					 1.00317000E+00
					 1.00000000E+00
					 1.00000000E+00
					 1.00534000E+00
					 1.00534000E+00
					 1.00295000E+00
					 1.00295000E+00
					 1.00101000E+00
					 1.00101000E+00
					 1.00228000E+00
					 1.00228000E+00
					 1.00233000E+00
					 1.00233000E+00
					 1.00172000E+00
					 1.00172000E+00
					 1.00033000E+00
					 1.00033000E+00
					 1.00223000E+00
					 1.00223000E+00
					 1.00277000E+00
					 1.00277000E+00
					 9.98938000E-01
					 9.98938000E-01
					 1.00286000E+00
					 1.00286000E+00
					 9.97764000E-01
					 9.97764000E-01
					 1.00275000E+00
					 1.00275000E+00
					 9.97135000E-01
					 9.97135000E-01
					 1.00275000E+00
					 1.00275000E+00
					 9.96968000E-01
					 9.96968000E-01
					 1.00280000E+00
					 1.00280000E+00
					 9.97306000E-01
					 9.97306000E-01
					 1.00277000E+00
					 1.00277000E+00
					 9.98169000E-01
					 9.98169000E-01
					 1.00263000E+00
					 1.00263000E+00
					 9.99423000E-01
					 9.99423000E-01
					 1.00234000E+00
					 1.00234000E+00
					 1.00062000E+00
					 1.00062000E+00
					 1.00163000E+00
					 1.00163000E+00
					 1.00169000E+00
					 1.00169000E+00
					 1.00114000E+00
					 1.00114000E+00
					 1.00169000E+00
					 1.00169000E+00
					 1.00497000E+00
					 1.00497000E+00
					 1.00121000E+00
					 1.00121000E+00
					 1.00177000E+00
					 1.00177000E+00
					 1.00725000E+00
					 1.00725000E+00
					 1.00248000E+00
					 1.00248000E+00
					 1.00853000E+00
					 1.00853000E+00
					 1.00272000E+00
					 1.00272000E+00
					 1.00933000E+00
					 1.00933000E+00
					 1.00279000E+00
					 1.00279000E+00
					 1.00988000E+00
					 1.00988000E+00
					 1.00296000E+00
					 1.00296000E+00
					 1.00984000E+00
					 1.00984000E+00
					 1.00322000E+00
					 1.00322000E+00
					 1.00904000E+00
					 1.00904000E+00
					 1.00337000E+00
					 1.00337000E+00
					 1.00761000E+00
					 1.00761000E+00
					 1.00344000E+00
					 1.00344000E+00
					 1.00521000E+00
					 1.00521000E+00
					 1.00316000E+00
					 1.00316000E+00
					 1.00170000E+00
					 1.00170000E+00
					 1.00225000E+00
					 1.00225000E+00
					 1.00175000E+00
					 1.00175000E+00
					 1.00008000E+00
					 1.00008000E+00
					 1.00223000E+00
					 1.00223000E+00
					 1.00278000E+00
					 1.00278000E+00
					 9.98440000E-01
					 9.98440000E-01
					 1.00289000E+00
					 1.00289000E+00
					 9.97106000E-01
					 9.97106000E-01
					 1.00291000E+00
					 1.00291000E+00
					 9.96405000E-01
					 9.96405000E-01
					 1.00299000E+00
					 1.00299000E+00
					 9.96226000E-01
					 9.96226000E-01
					 1.00299000E+00
					 1.00299000E+00
					 9.96549000E-01
					 9.96549000E-01
					 1.00289000E+00
					 1.00289000E+00
					 9.97375000E-01
					 9.97375000E-01
					 1.00267000E+00
					 1.00267000E+00
					 9.98717000E-01
					 9.98717000E-01
					 1.00232000E+00
					 1.00232000E+00
					 1.00020000E+00
					 1.00020000E+00
					 1.00162000E+00
					 1.00162000E+00
					 1.00169000E+00
					 1.00169000E+00
					 1.00116000E+00
					 1.00116000E+00
					 1.00169000E+00
					 1.00169000E+00
					 1.00502000E+00
					 1.00502000E+00
					 1.00108000E+00
					 1.00108000E+00
					 1.00030000E+00
					 1.00030000E+00
					 1.00738000E+00
					 1.00738000E+00
					 1.00011000E+00
					 1.00011000E+00
					 1.00891000E+00
					 1.00891000E+00
					 1.00006000E+00
					 1.00006000E+00
					 1.00995000E+00
					 1.00995000E+00
					 1.00025000E+00