# vtk DataFile Version 3.0

ASCII
DATASET UNSTRUCTURED_GRID

POINTS 16 double
	 1.00000000E+00	 1.00000000E+00	-1.49012000E-08
	 1.00000000E+00	 0.00000000E+00	-1.49012000E-08
	 1.00000000E+00	 0.00000000E+00	 1.00000000E+00
	 1.00000000E+00	 1.00000000E+00	 1.00000000E+00
	-7.45058000E-09	 1.00000000E+00	-1.49012000E-08
	-7.45058000E-09	 0.00000000E+00	-1.49012000E-08
	-7.45058000E-09	 0.00000000E+00	 1.00000000E+00
	-7.45058000E-09	 1.00000000E+00	 1.00000000E+00
	 5.00000000E-01	 6.41421000E-01	 1.00000000E+00
	 6.41421000E-01	 5.00000000E-01	 1.00000000E+00
	 6.41421000E-01	 5.00000000E-01	 1.20000000E+00
	 5.00000000E-01	 6.41421000E-01	 1.20000000E+00
	 3.58579000E-01	 5.00000000E-01	 1.00000000E+00
	 5.00000000E-01	 3.58579000E-01	 1.00000000E+00
	 5.00000000E-01	 3.58579000E-01	 1.20000000E+00
	 3.58579000E-01	 5.00000000E-01	 1.20000000E+00

CELLS 2 18
	8 0 1 2 3 4 5 6 7 
	8 8 9 10 11 12 13 14 15 

CELL_TYPES 2
	12
	12

POINT_DATA 16
FIELD U 1
	U 3 16 double
		 0.00000000E+00	 0.00000000E+00	 0.00000000E+00
		 0.00000000E+00	 0.00000000E+00	 0.00000000E+00
		 3.72600000E-06	-2.89093000E-06	-1.73283000E-05
		 3.72603000E-06	 4.47108000E-06	-1.73283000E-05
		 0.00000000E+00	 0.00000000E+00	 0.00000000E+00
		 0.00000000E+00	 0.00000000E+00	 0.00000000E+00
		-3.72600000E-06	-2.89093000E-06	-1.73283000E-05
		-3.72603000E-06	 4.47108000E-06	-1.73283000E-05
		 0.00000000E+00	-7.81905000E-02	-2.73283000E-05
		 1.97446000E-05	-7.82109000E-02	-2.73283000E-05
		 2.11469000E-05	-7.82067000E-02	-1.23220000E-04
		 0.00000000E+00	-7.81832000E-02	-1.26360000E-04
		-1.97446000E-05	-7.82109000E-02	-2.73283000E-05
		 0.00000000E+00	-7.82328000E-02	-2.73283000E-05
		 0.00000000E+00	-7.82188000E-02	-1.16549000E-04
		-2.11469000E-05	-7.82067000E-02	-1.23220000E-04
FIELD S 1
	S 10 16 double
		-2.09938000E+00	-2.09938000E+00	-4.89829000E+00	 2.69105000E-06	 3.61099000E-01	 3.00928000E-01	 2.91491812E+00	-4.97512232E+00	-2.09938265E+00	-2.02254504E+00
		-2.09938000E+00	-2.09938000E+00	-4.89829000E+00	-1.73999000E-06	-2.33485000E-01	 3.00926000E-01	 2.87560642E+00	-4.94919562E+00	-2.09938169E+00	-2.04847270E+00
		 8.99226000E-01	 8.84686000E-01	-3.10350000E+00	 4.79028000E-09	-2.33490000E-01	 3.00933000E-01	 4.04957553E+00	-3.13947082E+00	 8.88944892E-01	 9.30937927E-01
		 8.99239000E-01	 8.84694000E-01	-3.10350000E+00	 4.43567000E-06	 3.61107000E-01	 3.00935000E-01	 4.07759631E+00	-3.15807528E+00	 8.92319083E-01	 9.46189192E-01
		-2.09938000E+00	-2.09938000E+00	-4.89829000E+00	-2.69105000E-06	 3.61099000E-01	-3.00928000E-01	 2.91491812E+00	-4.97512232E+00	-2.09938265E+00	-2.02254504E+00
		-2.09938000E+00	-2.09938000E+00	-4.89829000E+00	 1.73999000E-06	-2.33485000E-01	-3.00926000E-01	 2.87560642E+00	-4.94919562E+00	-2.09938169E+00	-2.04847270E+00
		 8.99226000E-01	 8.84686000E-01	-3.10350000E+00	-3.73258000E-09	-2.33490000E-01	-3.00933000E-01	 4.04957553E+00	-3.13947082E+00	 8.88944891E-01	 9.30937928E-01
		 8.99239000E-01	 8.84694000E-01	-3.10350000E+00	-4.43503000E-06	 3.61107000E-01	-3.00935000E-01	 4.07759631E+00	-3.15807528E+00	 8.92319084E-01	 9.46189192E-01
		-3.04334000E+00	-2.31422000E+00	-1.05478000E+02	 0.00000000E+00	 2.93708000E+00	 0.00000000E+00	 1.02926953E+02	-1.05561551E+02	-3.04334000E+00	-2.23066880E+00
		-4.87942000E-01	 1.11231000E+00	-1.00394000E+02	 4.35695000E-01	 1.68870000E+00	 5.65605000E-01	 1.00765770E+02	-1.00425205E+02	-5.98706611E-01	 1.25427953E+00
		-5.80555000E-01	-4.44666000E+00	-1.02089000E+02	-3.26481000E+00	-1.11099000E+00	-4.42162000E-01	 9.98135023E+01	-1.02103904E+02	-6.29313386E+00	 1.28082324E+00
		 2.41472000E+00	 5.07847000E+00	-1.01624000E+02	 0.00000000E+00	 1.14500000E+00	 0.00000000E+00	 1.05414501E+02	-1.01636285E+02	 2.41472000E+00	 5.09075532E+00
		-4.87942000E-01	 1.11231000E+00	-1.00394000E+02	-4.35695000E-01	 1.68870000E+00	-5.65605000E-01	 1.00765770E+02	-1.00425205E+02	-5.98706611E-01	 1.25427953E+00
		 4.20682000E+00	 6.67886000E+00	-9.03258000E+01	 0.00000000E+00	 5.66449000E+00	 0.00000000E+00	 9.62936913E+01	-9.06554520E+01	 4.20682000E+00	 7.00851196E+00
		-1.43648000E+00	-1.18311000E+01	-9.75691000E+01	 0.00000000E+00	 1.85652000E+00	 0.00000000E+00	 9.14363533E+01	-9.76092812E+01	-1.17909188E+01	-1.43648000E+00
		-5.80555000E-01	-4.44666000E+00	-1.02089000E+02	 3.26481000E+00	-1.11099000E+00	 4.42162000E-01	 9.98135023E+01	-1.02103904E+02	-6.29313386E+00	 1.28082324E+00
FIELD CONTACT 1
	CONTACT 6 16 double
		 0.00000000E+00	 0.00000000E+00	 0.00000000E+00	 0.00000000E+00	 0.00000000E+00	 0.00000000E+00
		 0.00000000E+00	 0.00000000E+00	 0.00000000E+00	 0.00000000E+00	 0.00000000E+00	 0.00000000E+00
		 0.00000000E+00	 0.00000000E+00	 0.00000000E+00	 0.00000000E+00	 0.00000000E+00	 0.00000000E+00
		 0.00000000E+00	 0.00000000E+00	 0.00000000E+00	 0.00000000E+00	 0.00000000E+00	 0.00000000E+00
		 0.00000000E+00	 0.00000000E+00	 0.00000000E+00	 0.00000000E+00	 0.00000000E+00	 0.00000000E+00
		 0.00000000E+00	 0.00000000E+00	 0.00000000E+00	 0.00000000E+00	 0.00000000E+00	 0.00000000E+00
		 0.00000000E+00	 0.00000000E+00	 0.00000000E+00	 0.00000000E+00	 0.00000000E+00	 0.00000000E+00
		 0.00000000E+00	 0.00000000E+00	 0.00000000E+00	 0.00000000E+00	 0.00000000E+00	 0.00000000E+00
		-1.00000000E-05	 0.00000000E+00	-7.81956000E-02	 1.00000000E+02	 0.00000000E+00	 1.60174000E+00
		-1.00000000E-05	 1.49043000E-05	-7.82110000E-02	 1.00000000E+02	-5.02359000E-03	 1.60003000E+00
		 0.00000000E+00	 0.00000000E+00	 0.00000000E+00	 0.00000000E+00	 0.00000000E+00	 0.00000000E+00
		 0.00000000E+00	 0.00000000E+00	 0.00000000E+00	 0.00000000E+00	 0.00000000E+00	 0.00000000E+00
		-1.00000000E-05	-1.49043000E-05	-7.82110000E-02	 1.00000000E+02	 5.02359000E-03	 1.60003000E+00
		-1.00000000E-05	 0.00000000E+00	-7.82277000E-02	 1.00000000E+02	 0.00000000E+00	 1.58147000E+00
		 0.00000000E+00	 0.00000000E+00	 0.00000000E+00	 0.00000000E+00	 0.00000000E+00	 0.00000000E+00
		 0.00000000E+00	 0.00000000E+00	 0.00000000E+00	 0.00000000E+00	 0.00000000E+00	 0.00000000E+00
