<?xml version="1.0"?>
<VTKFile type="UnstructuredGrid" version="0.1" byte_order="LittleEndian">
	<UnstructuredGrid>
		<Piece NumberOfPoints="16" NumberOfCells="2">
			<Points>
				<DataArray type="Float64" NumberOfComponents="3" format="ascii">
					 1.00000000E+00	 1.00000000E+00	-1.49012000E-08
					 1.00000000E+00	 0.00000000E+00	-1.49012000E-08
					 1.00000000E+00	 0.00000000E+00	 1.00000000E+00
					 1.00000000E+00	 1.00000000E+00	 1.00000000E+00
					-7.45058000E-09	 1.00000000E+00	-1.49012000E-08
					-7.45058000E-09	 0.00000000E+00	-1.49012000E-08
					-7.45058000E-09	 0.00000000E+00	 1.00000000E+00
					-7.45058000E-09	 1.00000000E+00	 1.00000000E+00
					 5.00000000E-01	 6.41421000E-01	 1.00000000E+00
					 6.41421000E-01	 5.00000000E-01	 1.00000000E+00
					 6.41421000E-01	 5.00000000E-01	 1.20000000E+00
					 5.00000000E-01	 6.41421000E-01	 1.20000000E+00
					 3.58579000E-01	 5.00000000E-01	 1.00000000E+00
					 5.00000000E-01	 3.58579000E-01	 1.00000000E+00
					 5.00000000E-01	 3.58579000E-01	 1.20000000E+00
					 3.58579000E-01	 5.00000000E-01	 1.20000000E+00

				</DataArray>
			</Points>
			<Cells>
				<DataArray type="Int32" Name="connectivity" format="ascii">
					0 1 2 3 4 5 6 7 8 9 10 11 12 13 14 15 
				</DataArray>
				<DataArray type="Int32" Name="offsets" format="ascii">
					8 16 
				</DataArray>
				<DataArray type="UInt8" Name="types" format="ascii">
					12 12 
				</DataArray>
			</Cells>
			<PointData>
				<DataArray type="Float32" Name="U" NumberOfComponents="3" ComponentName0="D1" ComponentName1="D2" ComponentName2="D3" format="ascii">
					 0.00000000E+00	 0.00000000E+00	 0.00000000E+00
					 0.00000000E+00	 0.00000000E+00	 0.00000000E+00
					 3.63477000E-06	-9.40215000E-06	-1.74166000E-05
					 3.63480000E-06	-1.45157000E-06	-1.74166000E-05
					 0.00000000E+00	 0.00000000E+00	 0.00000000E+00
					 0.00000000E+00	 0.00000000E+00	 0.00000000E+00
					-3.63477000E-06	-9.40215000E-06	-1.74166000E-05
					-3.63480000E-06	-1.45157000E-06	-1.74166000E-05
					 0.00000000E+00	-9.07509000E-02	-2.74176000E-05
					 2.34840000E-05	-9.07699000E-02	-2.74176000E-05
					 1.38204000E-05	-9.07987000E-02	-1.18906000E-04
					 0.00000000E+00	-9.08009000E-02	-9.73731000E-05
					-2.34840000E-05	-9.07699000E-02	-2.74176000E-05
					 0.00000000E+00	-9.07785000E-02	-2.74176000E-05
					 0.00000000E+00	-9.08750000E-02	-1.64754000E-04
					-1.38204000E-05	-9.07987000E-02	-1.18906000E-04
				</DataArray>
				<DataArray type="Float32" Name="S" NumberOfComponents="10" ComponentName0="xx" ComponentName1="yy" ComponentName2="zz" ComponentName3="xy" ComponentName4="yz" ComponentName5="zx" ComponentName6="Mises" ComponentName7="Min Principal" ComponentName8="Mid Principal" ComponentName9="Max Principal" format="ascii">
					-2.11007000E+00	-2.11007000E+00	-4.92323000E+00	-8.52321000E-07	-1.17220000E-01	 2.93560000E-01	 2.86594194E+00	-4.95831060E+00	-2.11007059E+00	-2.07498882E+00
					-2.11006000E+00	-2.11006000E+00	-4.92322000E+00	-5.52041000E-06	-7.59339000E-01	 2.93558000E-01	 3.14677378E+00	-5.14182876E+00	-2.11006371E+00	-1.89144753E+00
					 9.08266000E-01	 1.01829000E+00	-3.07923000E+00	-3.34271000E-06	-7.59356000E-01	 2.93564000E-01	 4.28244719E+00	-3.23557923E+00	 9.17151136E-01	 1.16575409E+00
					 9.08276000E-01	 1.01828000E+00	-3.07924000E+00	 1.32682000E-06	-1.17223000E-01	 2.93567000E-01	 4.08053868E+00	-3.10405256E+00	 9.28982500E-01	 1.02238606E+00
					-2.11007000E+00	-2.11007000E+00	-4.92323000E+00	 8.52321000E-07	-1.17220000E-01	-2.93560000E-01	 2.86594194E+00	-4.95831060E+00	-2.11007059E+00	-2.07498882E+00
					-2.11006000E+00	-2.11006000E+00	-4.92322000E+00	 5.52041000E-06	-7.59339000E-01	-2.93558000E-01	 3.14677378E+00	-5.14182876E+00	-2.11006371E+00	-1.89144753E+00
					 9.08266000E-01	 1.01829000E+00	-3.07923000E+00	 3.33614000E-06	-7.59356000E-01	-2.93564000E-01	 4.28244719E+00	-3.23557923E+00	 9.17151139E-01	 1.16575409E+00
					 9.08276000E-01	 1.01828000E+00	-3.07924000E+00	-1.33062000E-06	-1.17223000E-01	-2.93567000E-01	 4.08053868E+00	-3.10405256E+00	 9.28982501E-01	 1.02238606E+00
					 2.09245000E+01	 1.58852000E+01	-6.23554000E+01	 0.00000000E+00	-2.01653000E+01	 0.00000000E+00	 8.80975701E+01	-6.72468847E+01	 2.07766847E+01	 2.09245000E+01
					 3.37324000E+00	-7.68112000E+00	-9.72639000E+01	-3.00138000E+00	-1.16007000E+01	-3.89801000E+00	 9.80504496E+01	-9.89181407E+01	-6.79870845E+00	 4.14506920E+00
					 3.98735000E+00	 3.05561000E+01	-8.56082000E+01	 2.24242000E+01	 7.63574000E+00	 3.04065000E+00	 1.13247019E+02	-8.61366867E+01	-8.77542259E+00	 4.38473593E+01
					-1.66040000E+01	-3.48728000E+01	-8.88314000E+01	 0.00000000E+00	-7.87485000E+00	 0.00000000E+00	 6.64611031E+01	-8.99571866E+01	-3.37470134E+01	-1.66040000E+01
					 3.37324000E+00	-7.68112000E+00	-9.72639000E+01	 3.00138000E+00	-1.16007000E+01	 3.89801000E+00	 9.80504496E+01	-9.89181407E+01	-6.79870845E+00	 4.14506920E+00
					-2.88943000E+01	-4.59329000E+01	-1.66424000E+02	 0.00000000E+00	-3.88979000E+01	 0.00000000E+00	 1.46289298E+02	-1.77890185E+02	-3.44667151E+01	-2.88943000E+01
					 9.86128000E+00	 8.13295000E+01	-1.16656000E+02	 0.00000000E+00	-1.27473000E+01	 0.00000000E+00	 1.75053633E+02	-1.17473361E+02	 9.86128000E+00	 8.21468608E+01
					 3.98735000E+00	 3.05561000E+01	-8.56082000E+01	-2.24242000E+01	 7.63574000E+00	-3.04065000E+00	 1.13247019E+02	-8.61366867E+01	-8.77542259E+00	 4.38473593E+01
				</DataArray>
				<DataArray type="Float32" Name="CONTACT" NumberOfComponents="6" ComponentName0="COPEN" ComponentName1="CSLIP1" ComponentName2="CSLIP2" ComponentName3="CPRESS" ComponentName4="CSHEAR1" ComponentName5="CSHEAR2" format="ascii">
					 0.00000000E+00	 0.00000000E+00	 0.00000000E+00	 0.00000000E+00	 0.00000000E+00	 0.00000000E+00
					 0.00000000E+00	 0.00000000E+00	 0.00000000E+00	 0.00000000E+00	 0.00000000E+00	 0.00000000E+00
					 0.00000000E+00	 0.00000000E+00	 0.00000000E+00	 0.00000000E+00	 0.00000000E+00	 0.00000000E+00
					 0.00000000E+00	 0.00000000E+00	 0.00000000E+00	 0.00000000E+00	 0.00000000E+00	 0.00000000E+00
					 0.00000000E+00	 0.00000000E+00	 0.00000000E+00	 0.00000000E+00	 0.00000000E+00	 0.00000000E+00
					 0.00000000E+00	 0.00000000E+00	 0.00000000E+00	 0.00000000E+00	 0.00000000E+00	 0.00000000E+00
					 0.00000000E+00	 0.00000000E+00	 0.00000000E+00	 0.00000000E+00	 0.00000000E+00	 0.00000000E+00
					 0.00000000E+00	 0.00000000E+00	 0.00000000E+00	 0.00000000E+00	 0.00000000E+00	 0.00000000E+00
					-1.00010000E-05	 0.00000000E+00	-9.07494000E-02	 1.00010000E+02	 0.00000000E+00	-1.09520000E+01
					-1.00010000E-05	 1.79068000E-05	-9.07638000E-02	 1.00010000E+02	-2.02112000E-03	-1.09527000E+01
					 0.00000000E+00	 0.00000000E+00	 0.00000000E+00	 0.00000000E+00	 0.00000000E+00	 0.00000000E+00
					 0.00000000E+00	 0.00000000E+00	 0.00000000E+00	 0.00000000E+00	 0.00000000E+00	 0.00000000E+00
					-1.00010000E-05	-1.79068000E-05	-9.07638000E-02	 1.00010000E+02	 2.02112000E-03	-1.09527000E+01
					-1.00010000E-05	 0.00000000E+00	-9.07696000E-02	 1.00010000E+02	 0.00000000E+00	-1.09605000E+01
					 0.00000000E+00	 0.00000000E+00	 0.00000000E+00	 0.00000000E+00	 0.00000000E+00	 0.00000000E+00
					 0.00000000E+00	 0.00000000E+00	 0.00000000E+00	 0.00000000E+00	 0.00000000E+00	 0.00000000E+00
				</DataArray>
			</PointData>
		</Piece>
	</UnstructuredGrid>
</VTKFile>