# vtk DataFile Version 3.0

ASCII
DATASET UNSTRUCTURED_GRID

POINTS 16 double
	 1.00000000E+00	 1.00000000E+00	-1.49012000E-08
	 1.00000000E+00	 0.00000000E+00	-1.49012000E-08
	 1.00000000E+00	 0.00000000E+00	 1.00000000E+00
	 1.00000000E+00	 1.00000000E+00	 1.00000000E+00
	-7.45058000E-09	 1.00000000E+00	-1.49012000E-08
	-7.45058000E-09	 0.00000000E+00	-1.49012000E-08
	-7.45058000E-09	 0.00000000E+00	 1.00000000E+00
	-7.45058000E-09	 1.00000000E+00	 1.00000000E+00
	 5.00000000E-01	 6.41421000E-01	 1.00000000E+00
	 6.41421000E-01	 5.00000000E-01	 1.00000000E+00
	 6.41421000E-01	 5.00000000E-01	 1.20000000E+00
	 5.00000000E-01	 6.41421000E-01	 1.20000000E+00
	 3.58579000E-01	 5.00000000E-01	 1.00000000E+00
	 5.00000000E-01	 3.58579000E-01	 1.00000000E+00
	 5.00000000E-01	 3.58579000E-01	 1.20000000E+00
	 3.58579000E-01	 5.00000000E-01	 1.20000000E+00

CELLS 2 18
	8 0 1 2 3 4 5 6 7 
	8 8 9 10 11 12 13 14 15 

CELL_TYPES 2
	12
	12

POINT_DATA 16
FIELD U 1
	U 3 16 double
		 0.00000000E+00	 0.00000000E+00	 0.00000000E+00
		 0.00000000E+00	 0.00000000E+00	 0.00000000E+00
		 3.56703000E-06	-1.36115000E-05	-1.74819000E-05
		 3.56706000E-06	-5.22422000E-06	-1.74819000E-05
		 0.00000000E+00	 0.00000000E+00	 0.00000000E+00
		 0.00000000E+00	 0.00000000E+00	 0.00000000E+00
		-3.56703000E-06	-1.36115000E-05	-1.74819000E-05
		-3.56706000E-06	-5.22422000E-06	-1.74819000E-05
		 0.00000000E+00	-9.88144000E-02	-2.74836000E-05
		 2.58864000E-05	-9.88326000E-02	-2.74836000E-05
		 9.11703000E-06	-9.88825000E-02	-1.16150000E-04
		 0.00000000E+00	-9.89011000E-02	-7.87871000E-05
		-2.58864000E-05	-9.88326000E-02	-2.74836000E-05
		 0.00000000E+00	-9.88326000E-02	-2.74836000E-05
		 0.00000000E+00	-9.90000000E-02	-1.95716000E-04
		-9.11703000E-06	-9.88825000E-02	-1.16150000E-04
FIELD S 1
	S 10 16 double
		-2.11799000E+00	-2.11799000E+00	-4.94170000E+00	-3.01027000E-06	-4.21902000E-01	 2.88090000E-01	 2.95910960E+00	-5.03128812E+00	-2.11799280E+00	-2.02839908E+00
		-2.11798000E+00	-2.11795000E+00	-4.94168000E+00	-7.84298000E-06	-1.09929000E+00	 2.88087000E-01	 3.44204362E+00	-5.34221524E+00	-2.11798192E+00	-1.71741284E+00
		 9.14967000E-01	 1.11744000E+00	-3.06120000E+00	-5.43891000E-06	-1.09932000E+00	 2.88094000E-01	 4.53105657E+00	-3.35110237E+00	 9.23100096E-01	 1.39920927E+00
		 9.14974000E-01	 1.11741000E+00	-3.06121000E+00	-6.04329000E-07	-4.21912000E-01	 2.88096000E-01	 4.17599921E+00	-3.12373306E+00	 9.31735734E-01	 1.16317133E+00
		-2.11799000E+00	-2.11799000E+00	-4.94170000E+00	 3.01027000E-06	-4.21902000E-01	-2.88090000E-01	 2.95910960E+00	-5.03128812E+00	-2.11799280E+00	-2.02839908E+00
		-2.11798000E+00	-2.11795000E+00	-4.94168000E+00	 7.84298000E-06	-1.09929000E+00	-2.88087000E-01	 3.44204362E+00	-5.34221524E+00	-2.11798192E+00	-1.71741284E+00
		 9.14967000E-01	 1.11744000E+00	-3.06120000E+00	 5.43072000E-06	-1.09932000E+00	-2.88094000E-01	 4.53105657E+00	-3.35110237E+00	 9.23100098E-01	 1.39920927E+00
		 9.14974000E-01	 1.11741000E+00	-3.06121000E+00	 5.99758000E-07	-4.21912000E-01	-2.88096000E-01	 4.17599921E+00	-3.12373306E+00	 9.31735735E-01	 1.16317133E+00
		 3.63113000E+01	 2.75817000E+01	-3.46708000E+01	 0.00000000E+00	-3.50010000E+01	 0.00000000E+00	 9.03893196E+01	-5.03837797E+01	 3.63113000E+01	 4.32946797E+01
		 5.84671000E+00	-1.33394000E+01	-9.52737000E+01	-5.20976000E+00	-2.01382000E+01	-6.76465000E+00	 1.00442443E+02	-1.00523916E+02	-9.44372960E+00	 7.20125606E+00
		 6.91897000E+00	 5.30137000E+01	-7.50390000E+01	 3.89109000E+01	 1.32528000E+01	 5.27763000E+00	 1.33312821E+02	-7.64193244E+01	-1.51949899E+01	 7.65079842E+01
		-2.88103000E+01	-6.05048000E+01	-8.06171000E+01	 0.00000000E+00	-1.36742000E+01	 0.00000000E+00	 5.10631616E+01	-8.75347504E+01	-5.35871496E+01	-2.88103000E+01
		 5.84671000E+00	-1.33394000E+01	-9.52737000E+01	 5.20976000E+00	-2.01382000E+01	 6.76465000E+00	 1.00442443E+02	-1.00523916E+02	-9.44372960E+00	 7.20125606E+00
		-5.01431000E+01	-7.96931000E+01	-2.15247000E+02	 0.00000000E+00	-6.74700000E+01	 0.00000000E+00	 1.92120490E+02	-2.43104332E+02	-5.18357682E+01	-5.01431000E+01
		 1.71194000E+01	 1.41190000E+02	-1.28887000E+02	 0.00000000E+00	-2.21104000E+01	 0.00000000E+00	 2.37261656E+02	-1.30685141E+02	 1.71194000E+01	 1.42988141E+02
		 6.91897000E+00	 5.30137000E+01	-7.50390000E+01	-3.89109000E+01	 1.32528000E+01	-5.27763000E+00	 1.33312821E+02	-7.64193244E+01	-1.51949899E+01	 7.65079842E+01
FIELD CONTACT 1
	CONTACT 6 16 double
		 0.00000000E+00	 0.00000000E+00	 0.00000000E+00	 0.00000000E+00	 0.00000000E+00	 0.00000000E+00
		 0.00000000E+00	 0.00000000E+00	 0.00000000E+00	 0.00000000E+00	 0.00000000E+00	 0.00000000E+00
		 0.00000000E+00	 0.00000000E+00	 0.00000000E+00	 0.00000000E+00	 0.00000000E+00	 0.00000000E+00
		 0.00000000E+00	 0.00000000E+00	 0.00000000E+00	 0.00000000E+00	 0.00000000E+00	 0.00000000E+00
		 0.00000000E+00	 0.00000000E+00	 0.00000000E+00	 0.00000000E+00	 0.00000000E+00	 0.00000000E+00
		 0.00000000E+00	 0.00000000E+00	 0.00000000E+00	 0.00000000E+00	 0.00000000E+00	 0.00000000E+00
		 0.00000000E+00	 0.00000000E+00	 0.00000000E+00	 0.00000000E+00	 0.00000000E+00	 0.00000000E+00
		 0.00000000E+00	 0.00000000E+00	 0.00000000E+00	 0.00000000E+00	 0.00000000E+00	 0.00000000E+00
		-1.00017000E-05	 0.00000000E+00	-9.88086000E-02	 1.00017000E+02	 0.00000000E+00	-1.90112000E+01
		-1.00017000E-05	 1.98378000E-05	-9.88215000E-02	 1.00017000E+02	-9.01369000E-05	-1.90113000E+01
		 0.00000000E+00	 0.00000000E+00	 0.00000000E+00	 0.00000000E+00	 0.00000000E+00	 0.00000000E+00
		 0.00000000E+00	 0.00000000E+00	 0.00000000E+00	 0.00000000E+00	 0.00000000E+00	 0.00000000E+00
		-1.00017000E-05	-1.98378000E-05	-9.88215000E-02	 1.00017000E+02	 9.01369000E-05	-1.90113000E+01
		-1.00017000E-05	 0.00000000E+00	-9.88211000E-02	 1.00017000E+02	 0.00000000E+00	-1.90121000E+01
		 0.00000000E+00	 0.00000000E+00	 0.00000000E+00	 0.00000000E+00	 0.00000000E+00	 0.00000000E+00
		 0.00000000E+00	 0.00000000E+00	 0.00000000E+00	 0.00000000E+00	 0.00000000E+00	 0.00000000E+00
