<?xml version="1.0"?>
<VTKFile type="UnstructuredGrid" version="0.1" byte_order="LittleEndian">
	<UnstructuredGrid>
		<Piece NumberOfPoints="261" NumberOfCells="32">
			<Points>
				<DataArray type="Float64" NumberOfComponents="3" format="ascii">
					 0.00000000E+00	 0.00000000E+00	 0.00000000E+00
					 1.00000000E+00	 0.00000000E+00	 0.00000000E+00
					 1.00000000E+00	 1.00000000E+00	 0.00000000E+00
					 0.00000000E+00	 1.00000000E+00	 0.00000000E+00
					 0.00000000E+00	 0.00000000E+00	 8.00000000E+00
					 1.00000000E+00	 0.00000000E+00	 8.00000000E+00
					 1.00000000E+00	 1.00000000E+00	 8.00000000E+00
					 0.00000000E+00	 1.00000000E+00	 8.00000000E+00
					 2.50000000E-01	 0.00000000E+00	 0.00000000E+00
					 5.00000000E-01	 0.00000000E+00	 0.00000000E+00
					 7.50000000E-01	 0.00000000E+00	 0.00000000E+00
					 1.00000000E+00	 2.50000000E-01	 0.00000000E+00
					 1.00000000E+00	 5.00000000E-01	 0.00000000E+00
					 1.00000000E+00	 7.50000000E-01	 0.00000000E+00
					 7.50000000E-01	 1.00000000E+00	 0.00000000E+00
					 5.00000000E-01	 1.00000000E+00	 0.00000000E+00
					 2.50000000E-01	 1.00000000E+00	 0.00000000E+00
					 0.00000000E+00	 7.50000000E-01	 0.00000000E+00
					 0.00000000E+00	 5.00000000E-01	 0.00000000E+00
					 0.00000000E+00	 2.50000000E-01	 0.00000000E+00
					 2.50000000E-01	 0.00000000E+00	 8.00000000E+00
					 5.00000000E-01	 0.00000000E+00	 8.00000000E+00
					 7.50000000E-01	 0.00000000E+00	 8.00000000E+00
					 1.00000000E+00	 2.50000000E-01	 8.00000000E+00
					 1.00000000E+00	 5.00000000E-01	 8.00000000E+00
					 1.00000000E+00	 7.50000000E-01	 8.00000000E+00
					 7.50000000E-01	 1.00000000E+00	 8.00000000E+00
					 5.00000000E-01	 1.00000000E+00	 8.00000000E+00
					 2.50000000E-01	 1.00000000E+00	 8.00000000E+00
					 0.00000000E+00	 7.50000000E-01	 8.00000000E+00
					 0.00000000E+00	 5.00000000E-01	 8.00000000E+00
					 0.00000000E+00	 2.50000000E-01	 8.00000000E+00
					 1.00000000E+00	 0.00000000E+00	 5.00000000E-01
					 1.00000000E+00	 0.00000000E+00	 1.00000000E+00
					 1.00000000E+00	 0.00000000E+00	 1.50000000E+00
					 1.00000000E+00	 0.00000000E+00	 2.00000000E+00
					 1.00000000E+00	 0.00000000E+00	 2.50000000E+00
					 1.00000000E+00	 0.00000000E+00	 3.00000000E+00
					 1.00000000E+00	 0.00000000E+00	 3.50000000E+00
					 1.00000000E+00	 0.00000000E+00	 4.00000000E+00
					 1.00000000E+00	 0.00000000E+00	 4.50000000E+00
					 1.00000000E+00	 0.00000000E+00	 5.00000000E+00
					 1.00000000E+00	 0.00000000E+00	 5.50000000E+00
					 1.00000000E+00	 0.00000000E+00	 6.00000000E+00
					 1.00000000E+00	 0.00000000E+00	 6.50000000E+00
					 1.00000000E+00	 0.00000000E+00	 7.00000000E+00
					 1.00000000E+00	 0.00000000E+00	 7.50000000E+00
					 0.00000000E+00	 0.00000000E+00	 7.50000000E+00
					 0.00000000E+00	 0.00000000E+00	 7.00000000E+00
					 0.00000000E+00	 0.00000000E+00	 6.50000000E+00
					 0.00000000E+00	 0.00000000E+00	 6.00000000E+00
					 0.00000000E+00	 0.00000000E+00	 5.50000000E+00
					 0.00000000E+00	 0.00000000E+00	 5.00000000E+00
					 0.00000000E+00	 0.00000000E+00	 4.50000000E+00
					 0.00000000E+00	 0.00000000E+00	 4.00000000E+00
					 0.00000000E+00	 0.00000000E+00	 3.50000000E+00
					 0.00000000E+00	 0.00000000E+00	 3.00000000E+00
					 0.00000000E+00	 0.00000000E+00	 2.50000000E+00
					 0.00000000E+00	 0.00000000E+00	 2.00000000E+00
					 0.00000000E+00	 0.00000000E+00	 1.50000000E+00
					 0.00000000E+00	 0.00000000E+00	 1.00000000E+00
					 0.00000000E+00	 0.00000000E+00	 5.00000000E-01
					 1.00000000E+00	 1.00000000E+00	 5.00000000E-01
					 1.00000000E+00	 1.00000000E+00	 1.00000000E+00
					 1.00000000E+00	 1.00000000E+00	 1.50000000E+00
					 1.00000000E+00	 1.00000000E+00	 2.00000000E+00
					 1.00000000E+00	 1.00000000E+00	 2.50000000E+00
					 1.00000000E+00	 1.00000000E+00	 3.00000000E+00
					 1.00000000E+00	 1.00000000E+00	 3.50000000E+00
					 1.00000000E+00	 1.00000000E+00	 4.00000000E+00
					 1.00000000E+00	 1.00000000E+00	 4.50000000E+00
					 1.00000000E+00	 1.00000000E+00	 5.00000000E+00
					 1.00000000E+00	 1.00000000E+00	 5.50000000E+00
					 1.00000000E+00	 1.00000000E+00	 6.00000000E+00
					 1.00000000E+00	 1.00000000E+00	 6.50000000E+00
					 1.00000000E+00	 1.00000000E+00	 7.00000000E+00
					 1.00000000E+00	 1.00000000E+00	 7.50000000E+00
					 0.00000000E+00	 1.00000000E+00	 5.00000000E-01
					 0.00000000E+00	 1.00000000E+00	 1.00000000E+00
					 0.00000000E+00	 1.00000000E+00	 1.50000000E+00
					 0.00000000E+00	 1.00000000E+00	 2.00000000E+00
					 0.00000000E+00	 1.00000000E+00	 2.50000000E+00
					 0.00000000E+00	 1.00000000E+00	 3.00000000E+00
					 0.00000000E+00	 1.00000000E+00	 3.50000000E+00
					 0.00000000E+00	 1.00000000E+00	 4.00000000E+00
					 0.00000000E+00	 1.00000000E+00	 4.50000000E+00
					 0.00000000E+00	 1.00000000E+00	 5.00000000E+00
					 0.00000000E+00	 1.00000000E+00	 5.50000000E+00
					 0.00000000E+00	 1.00000000E+00	 6.00000000E+00
					 0.00000000E+00	 1.00000000E+00	 6.50000000E+00
					 0.00000000E+00	 1.00000000E+00	 7.00000000E+00
					 0.00000000E+00	 1.00000000E+00	 7.50000000E+00
					 5.00000000E-01	 2.50000000E-01	 0.00000000E+00
					 2.50000000E-01	 5.00000000E-01	 0.00000000E+00
					 5.00000000E-01	 5.00000000E-01	 0.00000000E+00
					 7.50000000E-01	 5.00000000E-01	 0.00000000E+00
					 5.00000000E-01	 7.50000000E-01	 0.00000000E+00
					 5.00000000E-01	 2.50000000E-01	 8.00000000E+00
					 2.50000000E-01	 5.00000000E-01	 8.00000000E+00
					 5.00000000E-01	 5.00000000E-01	 8.00000000E+00
					 7.50000000E-01	 5.00000000E-01	 8.00000000E+00
					 5.00000000E-01	 7.50000000E-01	 8.00000000E+00
					 5.00000000E-01	 0.00000000E+00	 5.00000000E-01
					 2.50000000E-01	 0.00000000E+00	 1.00000000E+00
					 5.00000000E-01	 0.00000000E+00	 1.00000000E+00
					 7.50000000E-01	 0.00000000E+00	 1.00000000E+00
					 5.00000000E-01	 0.00000000E+00	 1.50000000E+00
					 2.50000000E-01	 0.00000000E+00	 2.00000000E+00
					 5.00000000E-01	 0.00000000E+00	 2.00000000E+00
					 7.50000000E-01	 0.00000000E+00	 2.00000000E+00
					 5.00000000E-01	 0.00000000E+00	 2.50000000E+00
					 2.50000000E-01	 0.00000000E+00	 3.00000000E+00
					 5.00000000E-01	 0.00000000E+00	 3.00000000E+00
					 7.50000000E-01	 0.00000000E+00	 3.00000000E+00
					 5.00000000E-01	 0.00000000E+00	 3.50000000E+00
					 2.50000000E-01	 0.00000000E+00	 4.00000000E+00
					 5.00000000E-01	 0.00000000E+00	 4.00000000E+00
					 7.50000000E-01	 0.00000000E+00	 4.00000000E+00
					 5.00000000E-01	 0.00000000E+00	 4.50000000E+00
					 2.50000000E-01	 0.00000000E+00	 5.00000000E+00
					 5.00000000E-01	 0.00000000E+00	 5.00000000E+00
					 7.50000000E-01	 0.00000000E+00	 5.00000000E+00
					 5.00000000E-01	 0.00000000E+00	 5.50000000E+00
					 2.50000000E-01	 0.00000000E+00	 6.00000000E+00
					 5.00000000E-01	 0.00000000E+00	 6.00000000E+00
					 7.50000000E-01	 0.00000000E+00	 6.00000000E+00
					 5.00000000E-01	 0.00000000E+00	 6.50000000E+00
					 2.50000000E-01	 0.00000000E+00	 7.00000000E+00
					 5.00000000E-01	 0.00000000E+00	 7.00000000E+00
					 7.50000000E-01	 0.00000000E+00	 7.00000000E+00
					 5.00000000E-01	 0.00000000E+00	 7.50000000E+00
					 1.00000000E+00	 5.00000000E-01	 5.00000000E-01
					 1.00000000E+00	 2.50000000E-01	 1.00000000E+00
					 1.00000000E+00	 5.00000000E-01	 1.00000000E+00
					 1.00000000E+00	 7.50000000E-01	 1.00000000E+00
					 1.00000000E+00	 5.00000000E-01	 1.50000000E+00
					 1.00000000E+00	 2.50000000E-01	 2.00000000E+00
					 1.00000000E+00	 5.00000000E-01	 2.00000000E+00
					 1.00000000E+00	 7.50000000E-01	 2.00000000E+00
					 1.00000000E+00	 5.00000000E-01	 2.50000000E+00
					 1.00000000E+00	 2.50000000E-01	 3.00000000E+00
					 1.00000000E+00	 5.00000000E-01	 3.00000000E+00
					 1.00000000E+00	 7.50000000E-01	 3.00000000E+00
					 1.00000000E+00	 5.00000000E-01	 3.50000000E+00
					 1.00000000E+00	 2.50000000E-01	 4.00000000E+00
					 1.00000000E+00	 5.00000000E-01	 4.00000000E+00
					 1.00000000E+00	 7.50000000E-01	 4.00000000E+00
					 1.00000000E+00	 5.00000000E-01	 4.50000000E+00
					 1.00000000E+00	 2.50000000E-01	 5.00000000E+00
					 1.00000000E+00	 5.00000000E-01	 5.00000000E+00
					 1.00000000E+00	 7.50000000E-01	 5.00000000E+00
					 1.00000000E+00	 5.00000000E-01	 5.50000000E+00
					 1.00000000E+00	 2.50000000E-01	 6.00000000E+00
					 1.00000000E+00	 5.00000000E-01	 6.00000000E+00
					 1.00000000E+00	 7.50000000E-01	 6.00000000E+00
					 1.00000000E+00	 5.00000000E-01	 6.50000000E+00
					 1.00000000E+00	 2.50000000E-01	 7.00000000E+00
					 1.00000000E+00	 5.00000000E-01	 7.00000000E+00
					 1.00000000E+00	 7.50000000E-01	 7.00000000E+00
					 1.00000000E+00	 5.00000000E-01	 7.50000000E+00
					 5.00000000E-01	 1.00000000E+00	 5.00000000E-01
					 7.50000000E-01	 1.00000000E+00	 1.00000000E+00
					 5.00000000E-01	 1.00000000E+00	 1.00000000E+00
					 2.50000000E-01	 1.00000000E+00	 1.00000000E+00
					 5.00000000E-01	 1.00000000E+00	 1.50000000E+00
					 7.50000000E-01	 1.00000000E+00	 2.00000000E+00
					 5.00000000E-01	 1.00000000E+00	 2.00000000E+00
					 2.50000000E-01	 1.00000000E+00	 2.00000000E+00
					 5.00000000E-01	 1.00000000E+00	 2.50000000E+00
					 7.50000000E-01	 1.00000000E+00	 3.00000000E+00
					 5.00000000E-01	 1.00000000E+00	 3.00000000E+00
					 2.50000000E-01	 1.00000000E+00	 3.00000000E+00
					 5.00000000E-01	 1.00000000E+00	 3.50000000E+00
					 7.50000000E-01	 1.00000000E+00	 4.00000000E+00
					 5.00000000E-01	 1.00000000E+00	 4.00000000E+00
					 2.50000000E-01	 1.00000000E+00	 4.00000000E+00
					 5.00000000E-01	 1.00000000E+00	 4.50000000E+00
					 7.50000000E-01	 1.00000000E+00	 5.00000000E+00
					 5.00000000E-01	 1.00000000E+00	 5.00000000E+00
					 2.50000000E-01	 1.00000000E+00	 5.00000000E+00
					 5.00000000E-01	 1.00000000E+00	 5.50000000E+00
					 7.50000000E-01	 1.00000000E+00	 6.00000000E+00
					 5.00000000E-01	 1.00000000E+00	 6.00000000E+00
					 2.50000000E-01	 1.00000000E+00	 6.00000000E+00
					 5.00000000E-01	 1.00000000E+00	 6.50000000E+00
					 7.50000000E-01	 1.00000000E+00	 7.00000000E+00
					 5.00000000E-01	 1.00000000E+00	 7.00000000E+00
					 2.50000000E-01	 1.00000000E+00	 7.00000000E+00
					 5.00000000E-01	 1.00000000E+00	 7.50000000E+00
					 0.00000000E+00	 5.00000000E-01	 5.00000000E-01
					 0.00000000E+00	 7.50000000E-01	 1.00000000E+00
					 0.00000000E+00	 5.00000000E-01	 1.00000000E+00
					 0.00000000E+00	 2.50000000E-01	 1.00000000E+00
					 0.00000000E+00	 5.00000000E-01	 1.50000000E+00
					 0.00000000E+00	 7.50000000E-01	 2.00000000E+00
					 0.00000000E+00	 5.00000000E-01	 2.00000000E+00
					 0.00000000E+00	 2.50000000E-01	 2.00000000E+00
					 0.00000000E+00	 5.00000000E-01	 2.50000000E+00
					 0.00000000E+00	 7.50000000E-01	 3.00000000E+00
					 0.00000000E+00	 5.00000000E-01	 3.00000000E+00
					 0.00000000E+00	 2.50000000E-01	 3.00000000E+00
					 0.00000000E+00	 5.00000000E-01	 3.50000000E+00
					 0.00000000E+00	 7.50000000E-01	 4.00000000E+00
					 0.00000000E+00	 5.00000000E-01	 4.00000000E+00
					 0.00000000E+00	 2.50000000E-01	 4.00000000E+00
					 0.00000000E+00	 5.00000000E-01	 4.50000000E+00
					 0.00000000E+00	 7.50000000E-01	 5.00000000E+00
					 0.00000000E+00	 5.00000000E-01	 5.00000000E+00
					 0.00000000E+00	 2.50000000E-01	 5.00000000E+00
					 0.00000000E+00	 5.00000000E-01	 5.50000000E+00
					 0.00000000E+00	 7.50000000E-01	 6.00000000E+00
					 0.00000000E+00	 5.00000000E-01	 6.00000000E+00
					 0.00000000E+00	 2.50000000E-01	 6.00000000E+00
					 0.00000000E+00	 5.00000000E-01	 6.50000000E+00
					 0.00000000E+00	 7.50000000E-01	 7.00000000E+00
					 0.00000000E+00	 5.00000000E-01	 7.00000000E+00
					 0.00000000E+00	 2.50000000E-01	 7.00000000E+00
					 0.00000000E+00	 5.00000000E-01	 7.50000000E+00
					 5.00000000E-01	 5.00000000E-01	 5.00000000E-01
					 5.00000000E-01	 2.50000000E-01	 1.00000000E+00
					 2.50000000E-01	 5.00000000E-01	 1.00000000E+00
					 5.00000000E-01	 5.00000000E-01	 1.00000000E+00
					 7.50000000E-01	 5.00000000E-01	 1.00000000E+00
					 5.00000000E-01	 7.50000000E-01	 1.00000000E+00
					 5.00000000E-01	 5.00000000E-01	 1.50000000E+00
					 5.00000000E-01	 2.50000000E-01	 2.00000000E+00
					 2.50000000E-01	 5.00000000E-01	 2.00000000E+00
					 5.00000000E-01	 5.00000000E-01	 2.00000000E+00
					 7.50000000E-01	 5.00000000E-01	 2.00000000E+00
					 5.00000000E-01	 7.50000000E-01	 2.00000000E+00
					 5.00000000E-01	 5.00000000E-01	 2.50000000E+00
					 5.00000000E-01	 2.50000000E-01	 3.00000000E+00
					 2.50000000E-01	 5.00000000E-01	 3.00000000E+00
					 5.00000000E-01	 5.00000000E-01	 3.00000000E+00
					 7.50000000E-01	 5.00000000E-01	 3.00000000E+00
					 5.00000000E-01	 7.50000000E-01	 3.00000000E+00
					 5.00000000E-01	 5.00000000E-01	 3.50000000E+00
					 5.00000000E-01	 2.50000000E-01	 4.00000000E+00
					 2.50000000E-01	 5.00000000E-01	 4.00000000E+00
					 5.00000000E-01	 5.00000000E-01	 4.00000000E+00
					 7.50000000E-01	 5.00000000E-01	 4.00000000E+00
					 5.00000000E-01	 7.50000000E-01	 4.00000000E+00
					 5.00000000E-01	 5.00000000E-01	 4.50000000E+00
					 5.00000000E-01	 2.50000000E-01	 5.00000000E+00
					 2.50000000E-01	 5.00000000E-01	 5.00000000E+00
					 5.00000000E-01	 5.00000000E-01	 5.00000000E+00
					 7.50000000E-01	 5.00000000E-01	 5.00000000E+00
					 5.00000000E-01	 7.50000000E-01	 5.00000000E+00
					 5.00000000E-01	 5.00000000E-01	 5.50000000E+00
					 5.00000000E-01	 2.50000000E-01	 6.00000000E+00
					 2.50000000E-01	 5.00000000E-01	 6.00000000E+00
					 5.00000000E-01	 5.00000000E-01	 6.00000000E+00
					 7.50000000E-01	 5.00000000E-01	 6.00000000E+00
					 5.00000000E-01	 7.50000000E-01	 6.00000000E+00
					 5.00000000E-01	 5.00000000E-01	 6.50000000E+00
					 5.00000000E-01	 2.50000000E-01	 7.00000000E+00
					 2.50000000E-01	 5.00000000E-01	 7.00000000E+00
					 5.00000000E-01	 5.00000000E-01	 7.00000000E+00
					 7.50000000E-01	 5.00000000E-01	 7.00000000E+00
					 5.00000000E-01	 7.50000000E-01	 7.00000000E+00
					 5.00000000E-01	 5.00000000E-01	 7.50000000E+00

				</DataArray>
			</Points>
			<Cells>
				<DataArray type="Int32" Name="connectivity" format="ascii">
					0 9 94 18 60 104 221 191 8 92 93 19 103 219 220 192 61 102 218 189 9 1 12 94 104 33 133 221 10 11 95 92 105 132 222 219 102 32 131 218 18 94 15 3 191 221 162 78 93 96 16 17 220 223 163 190 189 218 160 77 94 12 2 15 221 133 63 162 95 13 14 96 222 134 161 223 218 131 62 160 60 104 221 191 58 108 227 195 103 219 220 192 107 225 226 196 59 106 224 193 104 33 133 221 108 35 137 227 105 132 222 219 109 136 228 225 106 34 135 224 191 221 162 78 195 227 166 80 220 223 163 190 226 229 167 194 193 224 164 79 221 133 63 162 227 137 65 166 222 134 161 223 228 138 165 229 224 135 64 164 58 108 227 195 56 112 233 199 107 225 226 196 111 231 232 200 57 110 230 197 108 35 137 227 112 37 141 233 109 136 228 225 113 140 234 231 110 36 139 230 195 227 166 80 199 233 170 82 226 229 167 194 232 235 171 198 197 230 168 81 227 137 65 166 233 141 67 170 228 138 165 229 234 142 169 235 230 139 66 168 56 112 233 199 54 116 239 203 111 231 232 200 115 237 238 204 55 114 236 201 112 37 141 233 116 39 145 239 113 140 234 231 117 144 240 237 114 38 143 236 199 233 170 82 203 239 174 84 232 235 171 198 238 241 175 202 201 236 172 83 233 141 67 170 239 145 69 174 234 142 169 235 240 146 173 241 236 143 68 172 54 116 239 203 52 120 245 207 115 237 238 204 119 243 244 208 53 118 242 205 116 39 145 239 120 41 149 245 117 144 240 237 121 148 246 243 118 40 147 242 203 239 174 84 207 245 178 86 238 241 175 202 244 247 179 206 205 242 176 85 239 145 69 174 245 149 71 178 240 146 173 241 246 150 177 247 242 147 70 176 52 120 245 207 50 124 251 211 119 243 244 208 123 249 250 212 51 122 248 209 120 41 149 245 124 43 153 251 121 148 246 243 125 152 252 249 122 42 151 248 207 245 178 86 211 251 182 88 244 247 179 206 250 253 183 210 209 248 180 87 245 149 71 178 251 153 73 182 246 150 177 247 252 154 181 253 248 151 72 180 50 124 251 211 48 128 257 215 123 249 250 212 127 255 256 216 49 126 254 213 124 43 153 251 128 45 157 257 125 152 252 249 129 156 258 255 126 44 155 254 211 251 182 88 215 257 186 90 250 253 183 210 256 259 187 214 213 254 184 89 251 153 73 182 257 157 75 186 252 154 181 253 258 158 185 259 254 155 74 184 48 128 257 215 4 21 99 30 127 255 256 216 20 97 98 31 47 130 260 217 128 45 157 257 21 5 24 99 129 156 258 255 22 23 100 97 130 46 159 260 215 257 186 90 30 99 27 7 256 259 187 214 98 101 28 29 217 260 188 91 257 157 75 186 99 24 6 27 258 158 185 259 100 25 26 101 260 159 76 188 
				</DataArray>
				<DataArray type="Int32" Name="offsets" format="ascii">
					20 40 60 80 100 120 140 160 180 200 220 240 260 280 300 320 340 360 380 400 420 440 460 480 500 520 540 560 580 600 620 640 
				</DataArray>
				<DataArray type="UInt8" Name="types" format="ascii">
					25 25 25 25 25 25 25 25 25 25 25 25 25 25 25 25 25 25 25 25 25 25 25 25 25 25 25 25 25 25 25 25 
				</DataArray>
			</Cells>
			<PointData>
				<DataArray type="Float32" Name="DOR1" NumberOfComponents="3" ComponentName0="dD1dRy" ComponentName1="dD2dRy" ComponentName2="dD3dRy" format="ascii">
					 0.00000000E+00	 0.00000000E+00	 0.00000000E+00
					 0.00000000E+00	 0.00000000E+00	 0.00000000E+00
					 0.00000000E+00	 0.00000000E+00	 0.00000000E+00
					 0.00000000E+00	 0.00000000E+00	 0.00000000E+00
					 3.22656000E-04	-6.45139000E-04	-5.24320000E-05
					 3.12869000E-04	-9.23671000E-06	-3.75364000E-05
					-3.12718000E-04	-9.23730000E-06	 3.76221000E-05
					-3.13701000E-04	-6.37164000E-04	 4.07687000E-05
					 0.00000000E+00	 0.00000000E+00	 0.00000000E+00
					 0.00000000E+00	 0.00000000E+00	 0.00000000E+00
					 0.00000000E+00	 0.00000000E+00	 0.00000000E+00
					 0.00000000E+00	 0.00000000E+00	 0.00000000E+00
					 0.00000000E+00	 0.00000000E+00	 0.00000000E+00
					 0.00000000E+00	 0.00000000E+00	 0.00000000E+00
					 0.00000000E+00	 0.00000000E+00	 0.00000000E+00
					 0.00000000E+00	 0.00000000E+00	 0.00000000E+00
					 0.00000000E+00	 0.00000000E+00	 0.00000000E+00
					 0.00000000E+00	 0.00000000E+00	 0.00000000E+00
					 0.00000000E+00	 0.00000000E+00	 0.00000000E+00
					 0.00000000E+00	 0.00000000E+00	 0.00000000E+00
					 3.17939000E-04	-4.82155000E-04	-4.25671000E-05
					 3.12554000E-04	-3.22796000E-04	-3.97195000E-05
					 3.12488000E-04	-1.66179000E-04	-3.87183000E-05
					 1.56521000E-04	-9.44983000E-06	-1.91536000E-05
					 7.59790000E-07	-9.32081000E-06	-9.73154000E-07
					-1.55679000E-04	-9.15879000E-06	 1.82123000E-05
					-3.12288000E-04	-1.66178000E-04	 3.80821000E-05
					-3.12030000E-04	-3.23039000E-04	 3.95117000E-05
					-3.12827000E-04	-4.79882000E-04	 4.04444000E-05
					-1.55807000E-04	-6.37312000E-04	 2.10244000E-05
					 4.85283000E-07	-6.37598000E-04	 2.20855000E-06
					 1.59468000E-04	-6.40653000E-04	-2.32504000E-05
					 3.69549000E-05	 3.36101000E-05	 2.58705000E-05
					 7.37324000E-05	 6.57718000E-05	 3.16480000E-05
					 1.04742000E-04	 9.41608000E-05	 2.42065000E-05
					 1.37375000E-04	 1.15278000E-04	 1.98751000E-05
					 1.64071000E-04	 1.32562000E-04	 1.40766000E-05
					 1.90660000E-04	 1.44163000E-04	 9.53269000E-06
					 2.13433000E-04	 1.51241000E-04	 4.40306000E-06
					 2.34698000E-04	 1.53025000E-04	-5.86470000E-07
					 2.52798000E-04	 1.50037000E-04	-5.55760000E-06
					 2.69044000E-04	 1.41932000E-04	-1.06551000E-05
					 2.82257000E-04	 1.28979000E-04	-1.53172000E-05
					 2.93519000E-04	 1.11058000E-04	-2.07577000E-05
					 3.01998000E-04	 8.80746000E-05	-2.51707000E-05
					 3.07822000E-04	 6.01324000E-05	-3.04841000E-05
					 3.12114000E-04	 2.72602000E-05	-3.59457000E-05
					 3.12109000E-04	-5.96157000E-04	-4.34189000E-05
					 3.11133000E-04	-5.56732000E-04	-3.82998000E-05
					 3.02762000E-04	-5.16357000E-04	-4.02620000E-05
					 2.95647000E-04	-4.76556000E-04	-3.99845000E-05
					 2.83619000E-04	-4.36272000E-04	-4.02864000E-05
					 2.70503000E-04	-3.96140000E-04	-3.97254000E-05
					 2.54098000E-04	-3.56231000E-04	-3.99702000E-05
					 2.36128000E-04	-3.16244000E-04	-3.99224000E-05
					 2.14791000E-04	-2.76446000E-04	-3.98824000E-05
					 1.92039000E-04	-2.36415000E-04	-3.99258000E-05
					 1.65394000E-04	-1.96920000E-04	-3.94618000E-05
					 1.38733000E-04	-1.56739000E-04	-4.02281000E-05
					 1.06138000E-04	-1.17992000E-04	-3.93352000E-05
					 7.48389000E-05	-7.67605000E-05	-4.17578000E-05
					 3.83074000E-05	-3.72523000E-05	-3.08076000E-05
					-3.69550000E-05	 3.36102000E-05	-2.58705000E-05
					-7.37362000E-05	 6.57736000E-05	-3.16454000E-05
					-1.04742000E-04	 9.41591000E-05	-2.42071000E-05
					-1.37381000E-04	 1.15285000E-04	-1.98733000E-05
					-1.64073000E-04	 1.32557000E-04	-1.40766000E-05
					-1.90663000E-04	 1.44186000E-04	-9.53873000E-06
					-2.13442000E-04	 1.51223000E-04	-4.39436000E-06
					-2.34678000E-04	 1.53063000E-04	 5.28231000E-07
					-2.52825000E-04	 1.50014000E-04	 5.60832000E-06
					-2.68983000E-04	 1.41972000E-04	 1.04730000E-05
					-2.82337000E-04	 1.28978000E-04	 1.54862000E-05
					-2.93564000E-04	 1.10883000E-04	 2.03640000E-05
					-3.01915000E-04	 8.82478000E-05	 2.53738000E-05
					-3.08526000E-04	 6.04409000E-05	 3.06070000E-05
					-3.12222000E-04	 2.75380000E-05	 3.52069000E-05
					-3.83075000E-05	-3.72526000E-05	 3.08072000E-05
					-7.48448000E-05	-7.67606000E-05	 4.17589000E-05
					-1.06137000E-04	-1.17992000E-04	 3.93328000E-05
					-1.38748000E-04	-1.56740000E-04	 4.02315000E-05
					-1.65390000E-04	-1.96920000E-04	 3.94587000E-05
					-1.92074000E-04	-2.36423000E-04	 3.99573000E-05
					-2.14770000E-04	-2.76440000E-04	 3.98555000E-05
					-2.36196000E-04	-3.16260000E-04	 3.99771000E-05
					-2.54074000E-04	-3.56218000E-04	 3.99352000E-05
					-2.70682000E-04	-3.96232000E-04	 4.00788000E-05
					-2.83459000E-04	-4.36194000E-04	 3.99848000E-05
					-2.95674000E-04	-4.76448000E-04	 4.02751000E-05
					-3.02860000E-04	-5.16329000E-04	 4.00203000E-05
					-3.10258000E-04	-5.56275000E-04	 4.01358000E-05
					-3.13064000E-04	-5.97202000E-04	 4.09507000E-05
					 0.00000000E+00	 0.00000000E+00	 0.00000000E+00
					 0.00000000E+00	 0.00000000E+00	 0.00000000E+00
					 0.00000000E+00	 0.00000000E+00	 0.00000000E+00
					 0.00000000E+00	 0.00000000E+00	 0.00000000E+00
					 0.00000000E+00	 0.00000000E+00	 0.00000000E+00
					 1.56851000E-04	-3.22347000E-04	-1.98749000E-05
					 1.75685000E-07	-4.80611000E-04	 1.31539000E-06
					 2.93358000E-07	-3.22839000E-04	 7.78651000E-07
					 5.97976000E-07	-1.65928000E-04	 1.74817000E-07
					-1.56086000E-04	-3.23120000E-04	 2.05424000E-05
					 4.16143000E-05	-1.54989000E-06	-2.37923000E-06
					 7.28864000E-05	-4.05410000E-05	-2.29301000E-05
					 7.00026000E-05	-5.23012000E-06	-4.92963000E-06
					 7.18389000E-05	 3.00334000E-05	 1.28390000E-05
					 1.06091000E-04	-1.16183000E-05	-7.63100000E-06
					 1.37579000E-04	-8.85295000E-05	-2.52694000E-05
					 1.36314000E-04	-2.04142000E-05	-1.01850000E-05
					 1.36489000E-04	 4.75382000E-05	 4.95921000E-06
					 1.64861000E-04	-3.18969000E-05	-1.26730000E-05
					 1.91352000E-04	-1.40968000E-04	-2.75612000E-05
					 1.90331000E-04	-4.58119000E-05	-1.52057000E-05
					 1.90240000E-04	 4.92009000E-05	-2.86853000E-06
					 2.13983000E-04	-6.23075000E-05	-1.77337000E-05
					 2.35538000E-04	-1.98627000E-04	-3.00730000E-05
					 2.34680000E-04	-8.12751000E-05	-2.02748000E-05
					 2.34401000E-04	 3.59210000E-05	-1.04267000E-05
					 2.53294000E-04	-1.02828000E-04	-2.27540000E-05
					 2.69908000E-04	-2.61353000E-04	-3.25443000E-05
					 2.69015000E-04	-1.26768000E-04	-2.51998000E-05
					 2.68755000E-04	 7.61247000E-06	-1.79223000E-05
					 2.82802000E-04	-1.53349000E-04	-2.78019000E-05
					 2.94647000E-04	-3.29153000E-04	-3.47648000E-05
					 2.93383000E-04	-1.82263000E-04	-3.00582000E-05
					 2.93166000E-04	-3.55414000E-05	-2.54582000E-05
					 3.02738000E-04	-2.13904000E-04	-3.29886000E-05
					 3.09595000E-04	-4.02546000E-04	-3.71259000E-05
					 3.07699000E-04	-2.47788000E-04	-3.45240000E-05
					 3.07469000E-04	-9.37922000E-05	-3.23456000E-05
					 3.12189000E-04	-2.84329000E-04	-3.74696000E-05
					-1.39153000E-09	 3.05200000E-05	 1.11748000E-09
					 3.72467000E-05	 6.74402000E-05	 1.51454000E-05
					 3.87432000E-09	 6.93903000E-05	-1.57632000E-09
					-3.72447000E-05	 6.74410000E-05	-1.51457000E-05
					-4.65379000E-09	 9.45977000E-05	 1.53443000E-09
					 6.86405000E-05	 1.16266000E-04	 1.00667000E-05
					 1.00431000E-08	 1.16637000E-04	-2.81493000E-09
					-6.86337000E-05	 1.16270000E-04	-1.00685000E-05
					-9.59151000E-09	 1.33285000E-04	 2.66611000E-09
					 9.53980000E-05	 1.44871000E-04	 4.73696000E-06
					 2.04875000E-08	 1.45228000E-04	-1.30261000E-09
					-9.53784000E-05	 1.44882000E-04	-4.74157000E-06
					-1.70921000E-08	 1.52058000E-04	 0.00000000E+00
					 1.17396000E-04	 1.53708000E-04	-2.85146000E-07
					 3.39147000E-08	 1.53964000E-04	 1.71215000E-08
					-1.17354000E-04	 1.53728000E-04	 2.73087000E-07
					-2.62904000E-08	 1.50860000E-04	-1.40574000E-08
					 1.34582000E-04	 1.42581000E-04	-5.27683000E-06
					 4.80038000E-08	 1.42820000E-04	 7.25007000E-08
					-1.34498000E-04	 1.42597000E-04	 5.25728000E-06
					-3.14815000E-08	 1.29850000E-04	-6.40265000E-08
					 1.46815000E-04	 1.11671000E-04	-1.03384000E-05
					 5.28661000E-08	 1.11924000E-04	 1.48892000E-07
					-1.46805000E-04	 1.11611000E-04	 1.02933000E-05
					-6.89000000E-08	 8.89167000E-05	-7.15174000E-08
					 1.54124000E-04	 6.10171000E-05	-1.52721000E-05
					 2.19668000E-07	 6.13585000E-05	-1.63886000E-07
					-1.54176000E-04	 6.11183000E-05	 1.51965000E-05
					 2.40921000E-08	 2.79278000E-05	-1.74896000E-07
					-4.16158000E-05	-1.54984000E-06	 2.37971000E-06
					-7.18395000E-05	 3.00340000E-05	-1.28385000E-05
					-7.00001000E-05	-5.23068000E-06	 4.92800000E-06
					-7.28880000E-05	-4.05413000E-05	 2.29293000E-05
					-1.06096000E-04	-1.16179000E-05	 7.63242000E-06
					-1.36488000E-04	 4.75404000E-05	-4.96110000E-06
					-1.36306000E-04	-2.04169000E-05	 1.01792000E-05
					-1.37582000E-04	-8.85315000E-05	 2.52704000E-05
					-1.64872000E-04	-3.18945000E-05	 1.26768000E-05
					-1.90233000E-04	 4.92071000E-05	 2.86161000E-06
					-1.90316000E-04	-4.58218000E-05	 1.51973000E-05
					-1.91361000E-04	-1.40976000E-04	 2.75653000E-05
					-2.14001000E-04	-6.23010000E-05	 1.77419000E-05
					-2.34385000E-04	 3.59248000E-05	 1.03896000E-05
					-2.34663000E-04	-8.13072000E-05	 2.02583000E-05
					-2.35564000E-04	-1.98656000E-04	 3.01153000E-05
					-2.53308000E-04	-1.02799000E-04	 2.27549000E-05
					-2.68740000E-04	 7.58545000E-06	 1.78715000E-05
					-2.69061000E-04	-1.26853000E-04	 2.52798000E-05
					-2.70021000E-04	-2.61416000E-04	 3.26798000E-05
					-2.82786000E-04	-1.53289000E-04	 2.77572000E-05
					-2.93391000E-04	-3.56630000E-05	 2.53823000E-05
					-2.93747000E-04	-1.82372000E-04	 3.03550000E-05
					-2.94833000E-04	-3.29271000E-04	 3.53067000E-05
					-3.02394000E-04	-2.13846000E-04	 3.25781000E-05
					-3.08135000E-04	-9.35765000E-05	 3.28305000E-05
					-3.08405000E-04	-2.47497000E-04	 3.52095000E-05
					-3.09540000E-04	-4.01800000E-04	 3.76952000E-05
					-3.12611000E-04	-2.84832000E-04	 3.84241000E-05
					-1.48933000E-09	-3.27860000E-05	 0.00000000E+00
					-3.77655000E-05	-7.78174000E-05	 2.01937000E-05
					 4.96711000E-09	-7.97518000E-05	 0.00000000E+00
					 3.77676000E-05	-7.78172000E-05	-2.01927000E-05
					-5.56566000E-09	-1.17343000E-04	 0.00000000E+00
					-6.93328000E-05	-1.57054000E-04	 2.02433000E-05
					 1.45455000E-08	-1.57184000E-04	 0.00000000E+00
					 6.93396000E-05	-1.57054000E-04	-2.02406000E-05
					-1.28678000E-08	-1.96624000E-04	 0.00000000E+00
					-9.60710000E-05	-2.36392000E-04	 1.99485000E-05
					 3.89339000E-08	-2.36482000E-04	-3.40835000E-09
					 9.60941000E-05	-2.36387000E-04	-1.99385000E-05
					-3.14168000E-08	-2.76261000E-04	 1.83217000E-09
					-1.18075000E-04	-3.16178000E-04	 1.99800000E-05
					 9.68351000E-08	-3.16132000E-04	-1.73197000E-08
					 1.18130000E-04	-3.16174000E-04	-1.99614000E-05
					-7.32072000E-08	-3.56093000E-04	 1.43436000E-08
					-1.35274000E-04	-3.96102000E-04	 2.00197000E-05
					 2.55605000E-07	-3.96020000E-04	-7.24288000E-08
					 1.35470000E-04	-3.96048000E-04	-1.99470000E-05
					-1.91482000E-07	-4.36137000E-04	 4.37240000E-08
					-1.47502000E-04	-4.76173000E-04	 1.99844000E-05
					 5.78582000E-07	-4.75982000E-04	-1.84708000E-07
					 1.47948000E-04	-4.76247000E-04	-1.99005000E-05
					-4.76423000E-07	-5.16400000E-04	 1.41255000E-07
					-1.54792000E-04	-5.56348000E-04	 2.01604000E-05
					 1.28435000E-06	-5.56368000E-04	-2.69332000E-07
					 1.56872000E-04	-5.56538000E-04	-1.98944000E-05
					-8.19516000E-07	-5.96332000E-04	 5.71089000E-07
					 0.00000000E+00	-7.31238000E-07	 0.00000000E+00
					 3.56246000E-05	-4.67490000E-06	-2.49058000E-06
					 0.00000000E+00	-4.14140000E-05	 0.00000000E+00
					-5.77665000E-09	-4.62089000E-06	 0.00000000E+00
					 0.00000000E+00	 3.17963000E-05	 0.00000000E+00
					-3.56291000E-05	-4.67501000E-06	 2.49037000E-06
					 2.92878000E-09	-1.08008000E-05	 0.00000000E+00
					 6.80700000E-05	-1.98917000E-05	-5.07681000E-06
					 0.00000000E+00	-8.84822000E-05	 0.00000000E+00
					-1.55392000E-08	-1.97422000E-05	 1.89396000E-09
					-2.60791000E-09	 4.86379000E-05	 0.00000000E+00
					-6.80818000E-05	-1.98937000E-05	 5.07608000E-06
					 8.35669000E-09	-3.11162000E-05	 0.00000000E+00
					 9.52332000E-05	-4.52504000E-05	-7.60880000E-06
					 3.33938000E-09	-1.40632000E-04	 1.06912000E-09
					-3.34682000E-08	-4.50913000E-05	 4.87547000E-09
					-6.94494000E-09	 5.00828000E-05	 1.19103000E-09
					-9.52586000E-05	-4.52530000E-05	 7.60845000E-06
					 1.92073000E-08	-6.15414000E-05	-5.17203000E-09
					 1.17348000E-04	-8.07146000E-05	-1.01256000E-05
					 1.17105000E-08	-1.98227000E-04	-6.90396000E-09
					-6.93962000E-08	-8.05566000E-05	 4.00838000E-09
					-1.63383000E-08	 3.67542000E-05	 1.17493000E-08
					-1.17410000E-04	-8.07383000E-05	 1.01242000E-05