# vtk DataFile Version 3.0

ASCII
DATASET UNSTRUCTURED_GRID

POINTS 261 double
	 0.00000000E+00	 0.00000000E+00	 0.00000000E+00
	 1.00000000E+00	 0.00000000E+00	 0.00000000E+00
	 1.00000000E+00	 1.00000000E+00	 0.00000000E+00
	 0.00000000E+00	 1.00000000E+00	 0.00000000E+00
	 0.00000000E+00	 0.00000000E+00	 8.00000000E+00
	 1.00000000E+00	 0.00000000E+00	 8.00000000E+00
	 1.00000000E+00	 1.00000000E+00	 8.00000000E+00
	 0.00000000E+00	 1.00000000E+00	 8.00000000E+00
	 2.50000000E-01	 0.00000000E+00	 0.00000000E+00
	 5.00000000E-01	 0.00000000E+00	 0.00000000E+00
	 7.50000000E-01	 0.00000000E+00	 0.00000000E+00
	 1.00000000E+00	 2.50000000E-01	 0.00000000E+00
	 1.00000000E+00	 5.00000000E-01	 0.00000000E+00
	 1.00000000E+00	 7.50000000E-01	 0.00000000E+00
	 7.50000000E-01	 1.00000000E+00	 0.00000000E+00
	 5.00000000E-01	 1.00000000E+00	 0.00000000E+00
	 2.50000000E-01	 1.00000000E+00	 0.00000000E+00
	 0.00000000E+00	 7.50000000E-01	 0.00000000E+00
	 0.00000000E+00	 5.00000000E-01	 0.00000000E+00
	 0.00000000E+00	 2.50000000E-01	 0.00000000E+00
	 2.50000000E-01	 0.00000000E+00	 8.00000000E+00
	 5.00000000E-01	 0.00000000E+00	 8.00000000E+00
	 7.50000000E-01	 0.00000000E+00	 8.00000000E+00
	 1.00000000E+00	 2.50000000E-01	 8.00000000E+00
	 1.00000000E+00	 5.00000000E-01	 8.00000000E+00
	 1.00000000E+00	 7.50000000E-01	 8.00000000E+00
	 7.50000000E-01	 1.00000000E+00	 8.00000000E+00
	 5.00000000E-01	 1.00000000E+00	 8.00000000E+00
	 2.50000000E-01	 1.00000000E+00	 8.00000000E+00
	 0.00000000E+00	 7.50000000E-01	 8.00000000E+00
	 0.00000000E+00	 5.00000000E-01	 8.00000000E+00
	 0.00000000E+00	 2.50000000E-01	 8.00000000E+00
	 1.00000000E+00	 0.00000000E+00	 5.00000000E-01
	 1.00000000E+00	 0.00000000E+00	 1.00000000E+00
	 1.00000000E+00	 0.00000000E+00	 1.50000000E+00
	 1.00000000E+00	 0.00000000E+00	 2.00000000E+00
	 1.00000000E+00	 0.00000000E+00	 2.50000000E+00
	 1.00000000E+00	 0.00000000E+00	 3.00000000E+00
	 1.00000000E+00	 0.00000000E+00	 3.50000000E+00
	 1.00000000E+00	 0.00000000E+00	 4.00000000E+00
	 1.00000000E+00	 0.00000000E+00	 4.50000000E+00
	 1.00000000E+00	 0.00000000E+00	 5.00000000E+00
	 1.00000000E+00	 0.00000000E+00	 5.50000000E+00
	 1.00000000E+00	 0.00000000E+00	 6.00000000E+00
	 1.00000000E+00	 0.00000000E+00	 6.50000000E+00
	 1.00000000E+00	 0.00000000E+00	 7.00000000E+00
	 1.00000000E+00	 0.00000000E+00	 7.50000000E+00
	 0.00000000E+00	 0.00000000E+00	 7.50000000E+00
	 0.00000000E+00	 0.00000000E+00	 7.00000000E+00
	 0.00000000E+00	 0.00000000E+00	 6.50000000E+00
	 0.00000000E+00	 0.00000000E+00	 6.00000000E+00
	 0.00000000E+00	 0.00000000E+00	 5.50000000E+00
	 0.00000000E+00	 0.00000000E+00	 5.00000000E+00
	 0.00000000E+00	 0.00000000E+00	 4.50000000E+00
	 0.00000000E+00	 0.00000000E+00	 4.00000000E+00
	 0.00000000E+00	 0.00000000E+00	 3.50000000E+00
	 0.00000000E+00	 0.00000000E+00	 3.00000000E+00
	 0.00000000E+00	 0.00000000E+00	 2.50000000E+00
	 0.00000000E+00	 0.00000000E+00	 2.00000000E+00
	 0.00000000E+00	 0.00000000E+00	 1.50000000E+00
	 0.00000000E+00	 0.00000000E+00	 1.00000000E+00
	 0.00000000E+00	 0.00000000E+00	 5.00000000E-01
	 1.00000000E+00	 1.00000000E+00	 5.00000000E-01
	 1.00000000E+00	 1.00000000E+00	 1.00000000E+00
	 1.00000000E+00	 1.00000000E+00	 1.50000000E+00
	 1.00000000E+00	 1.00000000E+00	 2.00000000E+00
	 1.00000000E+00	 1.00000000E+00	 2.50000000E+00
	 1.00000000E+00	 1.00000000E+00	 3.00000000E+00
	 1.00000000E+00	 1.00000000E+00	 3.50000000E+00
	 1.00000000E+00	 1.00000000E+00	 4.00000000E+00
	 1.00000000E+00	 1.00000000E+00	 4.50000000E+00
	 1.00000000E+00	 1.00000000E+00	 5.00000000E+00
	 1.00000000E+00	 1.00000000E+00	 5.50000000E+00
	 1.00000000E+00	 1.00000000E+00	 6.00000000E+00
	 1.00000000E+00	 1.00000000E+00	 6.50000000E+00
	 1.00000000E+00	 1.00000000E+00	 7.00000000E+00
	 1.00000000E+00	 1.00000000E+00	 7.50000000E+00
	 0.00000000E+00	 1.00000000E+00	 5.00000000E-01
	 0.00000000E+00	 1.00000000E+00	 1.00000000E+00
	 0.00000000E+00	 1.00000000E+00	 1.50000000E+00
	 0.00000000E+00	 1.00000000E+00	 2.00000000E+00
	 0.00000000E+00	 1.00000000E+00	 2.50000000E+00
	 0.00000000E+00	 1.00000000E+00	 3.00000000E+00
	 0.00000000E+00	 1.00000000E+00	 3.50000000E+00
	 0.00000000E+00	 1.00000000E+00	 4.00000000E+00
	 0.00000000E+00	 1.00000000E+00	 4.50000000E+00
	 0.00000000E+00	 1.00000000E+00	 5.00000000E+00
	 0.00000000E+00	 1.00000000E+00	 5.50000000E+00
	 0.00000000E+00	 1.00000000E+00	 6.00000000E+00
	 0.00000000E+00	 1.00000000E+00	 6.50000000E+00
	 0.00000000E+00	 1.00000000E+00	 7.00000000E+00
	 0.00000000E+00	 1.00000000E+00	 7.50000000E+00
	 5.00000000E-01	 2.50000000E-01	 0.00000000E+00
	 2.50000000E-01	 5.00000000E-01	 0.00000000E+00
	 5.00000000E-01	 5.00000000E-01	 0.00000000E+00
	 7.50000000E-01	 5.00000000E-01	 0.00000000E+00
	 5.00000000E-01	 7.50000000E-01	 0.00000000E+00
	 5.00000000E-01	 2.50000000E-01	 8.00000000E+00
	 2.50000000E-01	 5.00000000E-01	 8.00000000E+00
	 5.00000000E-01	 5.00000000E-01	 8.00000000E+00
	 7.50000000E-01	 5.00000000E-01	 8.00000000E+00
	 5.00000000E-01	 7.50000000E-01	 8.00000000E+00
	 5.00000000E-01	 0.00000000E+00	 5.00000000E-01
	 2.50000000E-01	 0.00000000E+00	 1.00000000E+00
	 5.00000000E-01	 0.00000000E+00	 1.00000000E+00
	 7.50000000E-01	 0.00000000E+00	 1.00000000E+00
	 5.00000000E-01	 0.00000000E+00	 1.50000000E+00
	 2.50000000E-01	 0.00000000E+00	 2.00000000E+00
	 5.00000000E-01	 0.00000000E+00	 2.00000000E+00
	 7.50000000E-01	 0.00000000E+00	 2.00000000E+00
	 5.00000000E-01	 0.00000000E+00	 2.50000000E+00
	 2.50000000E-01	 0.00000000E+00	 3.00000000E+00
	 5.00000000E-01	 0.00000000E+00	 3.00000000E+00
	 7.50000000E-01	 0.00000000E+00	 3.00000000E+00
	 5.00000000E-01	 0.00000000E+00	 3.50000000E+00
	 2.50000000E-01	 0.00000000E+00	 4.00000000E+00
	 5.00000000E-01	 0.00000000E+00	 4.00000000E+00
	 7.50000000E-01	 0.00000000E+00	 4.00000000E+00
	 5.00000000E-01	 0.00000000E+00	 4.50000000E+00
	 2.50000000E-01	 0.00000000E+00	 5.00000000E+00
	 5.00000000E-01	 0.00000000E+00	 5.00000000E+00
	 7.50000000E-01	 0.00000000E+00	 5.00000000E+00
	 5.00000000E-01	 0.00000000E+00	 5.50000000E+00
	 2.50000000E-01	 0.00000000E+00	 6.00000000E+00
	 5.00000000E-01	 0.00000000E+00	 6.00000000E+00
	 7.50000000E-01	 0.00000000E+00	 6.00000000E+00
	 5.00000000E-01	 0.00000000E+00	 6.50000000E+00
	 2.50000000E-01	 0.00000000E+00	 7.00000000E+00
	 5.00000000E-01	 0.00000000E+00	 7.00000000E+00
	 7.50000000E-01	 0.00000000E+00	 7.00000000E+00
	 5.00000000E-01	 0.00000000E+00	 7.50000000E+00
	 1.00000000E+00	 5.00000000E-01	 5.00000000E-01
	 1.00000000E+00	 2.50000000E-01	 1.00000000E+00
	 1.00000000E+00	 5.00000000E-01	 1.00000000E+00
	 1.00000000E+00	 7.50000000E-01	 1.00000000E+00
	 1.00000000E+00	 5.00000000E-01	 1.50000000E+00
	 1.00000000E+00	 2.50000000E-01	 2.00000000E+00
	 1.00000000E+00	 5.00000000E-01	 2.00000000E+00
	 1.00000000E+00	 7.50000000E-01	 2.00000000E+00
	 1.00000000E+00	 5.00000000E-01	 2.50000000E+00
	 1.00000000E+00	 2.50000000E-01	 3.00000000E+00
	 1.00000000E+00	 5.00000000E-01	 3.00000000E+00
	 1.00000000E+00	 7.50000000E-01	 3.00000000E+00
	 1.00000000E+00	 5.00000000E-01	 3.50000000E+00
	 1.00000000E+00	 2.50000000E-01	 4.00000000E+00
	 1.00000000E+00	 5.00000000E-01	 4.00000000E+00
	 1.00000000E+00	 7.50000000E-01	 4.00000000E+00
	 1.00000000E+00	 5.00000000E-01	 4.50000000E+00
	 1.00000000E+00	 2.50000000E-01	 5.00000000E+00
	 1.00000000E+00	 5.00000000E-01	 5.00000000E+00
	 1.00000000E+00	 7.50000000E-01	 5.00000000E+00
	 1.00000000E+00	 5.00000000E-01	 5.50000000E+00
	 1.00000000E+00	 2.50000000E-01	 6.00000000E+00
	 1.00000000E+00	 5.00000000E-01	 6.00000000E+00
	 1.00000000E+00	 7.50000000E-01	 6.00000000E+00
	 1.00000000E+00	 5.00000000E-01	 6.50000000E+00
	 1.00000000E+00	 2.50000000E-01	 7.00000000E+00
	 1.00000000E+00	 5.00000000E-01	 7.00000000E+00
	 1.00000000E+00	 7.50000000E-01	 7.00000000E+00
	 1.00000000E+00	 5.00000000E-01	 7.50000000E+00
	 5.00000000E-01	 1.00000000E+00	 5.00000000E-01
	 7.50000000E-01	 1.00000000E+00	 1.00000000E+00
	 5.00000000E-01	 1.00000000E+00	 1.00000000E+00
	 2.50000000E-01	 1.00000000E+00	 1.00000000E+00
	 5.00000000E-01	 1.00000000E+00	 1.50000000E+00
	 7.50000000E-01	 1.00000000E+00	 2.00000000E+00
	 5.00000000E-01	 1.00000000E+00	 2.00000000E+00
	 2.50000000E-01	 1.00000000E+00	 2.00000000E+00
	 5.00000000E-01	 1.00000000E+00	 2.50000000E+00
	 7.50000000E-01	 1.00000000E+00	 3.00000000E+00
	 5.00000000E-01	 1.00000000E+00	 3.00000000E+00
	 2.50000000E-01	 1.00000000E+00	 3.00000000E+00
	 5.00000000E-01	 1.00000000E+00	 3.50000000E+00
	 7.50000000E-01	 1.00000000E+00	 4.00000000E+00
	 5.00000000E-01	 1.00000000E+00	 4.00000000E+00
	 2.50000000E-01	 1.00000000E+00	 4.00000000E+00
	 5.00000000E-01	 1.00000000E+00	 4.50000000E+00
	 7.50000000E-01	 1.00000000E+00	 5.00000000E+00
	 5.00000000E-01	 1.00000000E+00	 5.00000000E+00
	 2.50000000E-01	 1.00000000E+00	 5.00000000E+00
	 5.00000000E-01	 1.00000000E+00	 5.50000000E+00
	 7.50000000E-01	 1.00000000E+00	 6.00000000E+00
	 5.00000000E-01	 1.00000000E+00	 6.00000000E+00
	 2.50000000E-01	 1.00000000E+00	 6.00000000E+00
	 5.00000000E-01	 1.00000000E+00	 6.50000000E+00
	 7.50000000E-01	 1.00000000E+00	 7.00000000E+00
	 5.00000000E-01	 1.00000000E+00	 7.00000000E+00
	 2.50000000E-01	 1.00000000E+00	 7.00000000E+00
	 5.00000000E-01	 1.00000000E+00	 7.50000000E+00
	 0.00000000E+00	 5.00000000E-01	 5.00000000E-01
	 0.00000000E+00	 7.50000000E-01	 1.00000000E+00
	 0.00000000E+00	 5.00000000E-01	 1.00000000E+00
	 0.00000000E+00	 2.50000000E-01	 1.00000000E+00
	 0.00000000E+00	 5.00000000E-01	 1.50000000E+00
	 0.00000000E+00	 7.50000000E-01	 2.00000000E+00
	 0.00000000E+00	 5.00000000E-01	 2.00000000E+00
	 0.00000000E+00	 2.50000000E-01	 2.00000000E+00
	 0.00000000E+00	 5.00000000E-01	 2.50000000E+00
	 0.00000000E+00	 7.50000000E-01	 3.00000000E+00
	 0.00000000E+00	 5.00000000E-01	 3.00000000E+00
	 0.00000000E+00	 2.50000000E-01	 3.00000000E+00
	 0.00000000E+00	 5.00000000E-01	 3.50000000E+00
	 0.00000000E+00	 7.50000000E-01	 4.00000000E+00
	 0.00000000E+00	 5.00000000E-01	 4.00000000E+00
	 0.00000000E+00	 2.50000000E-01	 4.00000000E+00
	 0.00000000E+00	 5.00000000E-01	 4.50000000E+00
	 0.00000000E+00	 7.50000000E-01	 5.00000000E+00
	 0.00000000E+00	 5.00000000E-01	 5.00000000E+00
	 0.00000000E+00	 2.50000000E-01	 5.00000000E+00
	 0.00000000E+00	 5.00000000E-01	 5.50000000E+00
	 0.00000000E+00	 7.50000000E-01	 6.00000000E+00
	 0.00000000E+00	 5.00000000E-01	 6.00000000E+00
	 0.00000000E+00	 2.50000000E-01	 6.00000000E+00
	 0.00000000E+00	 5.00000000E-01	 6.50000000E+00
	 0.00000000E+00	 7.50000000E-01	 7.00000000E+00
	 0.00000000E+00	 5.00000000E-01	 7.00000000E+00
	 0.00000000E+00	 2.50000000E-01	 7.00000000E+00
	 0.00000000E+00	 5.00000000E-01	 7.50000000E+00
	 5.00000000E-01	 5.00000000E-01	 5.00000000E-01
	 5.00000000E-01	 2.50000000E-01	 1.00000000E+00
	 2.50000000E-01	 5.00000000E-01	 1.00000000E+00
	 5.00000000E-01	 5.00000000E-01	 1.00000000E+00
	 7.50000000E-01	 5.00000000E-01	 1.00000000E+00
	 5.00000000E-01	 7.50000000E-01	 1.00000000E+00
	 5.00000000E-01	 5.00000000E-01	 1.50000000E+00
	 5.00000000E-01	 2.50000000E-01	 2.00000000E+00
	 2.50000000E-01	 5.00000000E-01	 2.00000000E+00
	 5.00000000E-01	 5.00000000E-01	 2.00000000E+00
	 7.50000000E-01	 5.00000000E-01	 2.00000000E+00
	 5.00000000E-01	 7.50000000E-01	 2.00000000E+00
	 5.00000000E-01	 5.00000000E-01	 2.50000000E+00
	 5.00000000E-01	 2.50000000E-01	 3.00000000E+00
	 2.50000000E-01	 5.00000000E-01	 3.00000000E+00
	 5.00000000E-01	 5.00000000E-01	 3.00000000E+00
	 7.50000000E-01	 5.00000000E-01	 3.00000000E+00
	 5.00000000E-01	 7.50000000E-01	 3.00000000E+00
	 5.00000000E-01	 5.00000000E-01	 3.50000000E+00
	 5.00000000E-01	 2.50000000E-01	 4.00000000E+00
	 2.50000000E-01	 5.00000000E-01	 4.00000000E+00
	 5.00000000E-01	 5.00000000E-01	 4.00000000E+00
	 7.50000000E-01	 5.00000000E-01	 4.00000000E+00
	 5.00000000E-01	 7.50000000E-01	 4.00000000E+00
	 5.00000000E-01	 5.00000000E-01	 4.50000000E+00
	 5.00000000E-01	 2.50000000E-01	 5.00000000E+00
	 2.50000000E-01	 5.00000000E-01	 5.00000000E+00
	 5.00000000E-01	 5.00000000E-01	 5.00000000E+00
	 7.50000000E-01	 5.00000000E-01	 5.00000000E+00
	 5.00000000E-01	 7.50000000E-01	 5.00000000E+00
	 5.00000000E-01	 5.00000000E-01	 5.50000000E+00
	 5.00000000E-01	 2.50000000E-01	 6.00000000E+00
	 2.50000000E-01	 5.00000000E-01	 6.00000000E+00
	 5.00000000E-01	 5.00000000E-01	 6.00000000E+00
	 7.50000000E-01	 5.00000000E-01	 6.00000000E+00
	 5.00000000E-01	 7.50000000E-01	 6.00000000E+00
	 5.00000000E-01	 5.00000000E-01	 6.50000000E+00
	 5.00000000E-01	 2.50000000E-01	 7.00000000E+00
	 2.50000000E-01	 5.00000000E-01	 7.00000000E+00
	 5.00000000E-01	 5.00000000E-01	 7.00000000E+00
	 7.50000000E-01	 5.00000000E-01	 7.00000000E+00
	 5.00000000E-01	 7.50000000E-01	 7.00000000E+00
	 5.00000000E-01	 5.00000000E-01	 7.50000000E+00

CELLS 32 672
	20 0 9 94 18 60 104 221 191 8 92 93 19 103 219 220 192 61 102 218 189 
	20 9 1 12 94 104 33 133 221 10 11 95 92 105 132 222 219 102 32 131 218 
	20 18 94 15 3 191 221 162 78 93 96 16 17 220 223 163 190 189 218 160 77 
	20 94 12 2 15 221 133 63 162 95 13 14 96 222 134 161 223 218 131 62 160 
	20 60 104 221 191 58 108 227 195 103 219 220 192 107 225 226 196 59 106 224 193 
	20 104 33 133 221 108 35 137 227 105 132 222 219 109 136 228 225 106 34 135 224 
	20 191 221 162 78 195 227 166 80 220 223 163 190 226 229 167 194 193 224 164 79 
	20 221 133 63 162 227 137 65 166 222 134 161 223 228 138 165 229 224 135 64 164 
	20 58 108 227 195 56 112 233 199 107 225 226 196 111 231 232 200 57 110 230 197 
	20 108 35 137 227 112 37 141 233 109 136 228 225 113 140 234 231 110 36 139 230 
	20 195 227 166 80 199 233 170 82 226 229 167 194 232 235 171 198 197 230 168 81 
	20 227 137 65 166 233 141 67 170 228 138 165 229 234 142 169 235 230 139 66 168 
	20 56 112 233 199 54 116 239 203 111 231 232 200 115 237 238 204 55 114 236 201 
	20 112 37 141 233 116 39 145 239 113 140 234 231 117 144 240 237 114 38 143 236 
	20 199 233 170 82 203 239 174 84 232 235 171 198 238 241 175 202 201 236 172 83 
	20 233 141 67 170 239 145 69 174 234 142 169 235 240 146 173 241 236 143 68 172 
	20 54 116 239 203 52 120 245 207 115 237 238 204 119 243 244 208 53 118 242 205 
	20 116 39 145 239 120 41 149 245 117 144 240 237 121 148 246 243 118 40 147 242 
	20 203 239 174 84 207 245 178 86 238 241 175 202 244 247 179 206 205 242 176 85 
	20 239 145 69 174 245 149 71 178 240 146 173 241 246 150 177 247 242 147 70 176 
	20 52 120 245 207 50 124 251 211 119 243 244 208 123 249 250 212 51 122 248 209 
	20 120 41 149 245 124 43 153 251 121 148 246 243 125 152 252 249 122 42 151 248 
	20 207 245 178 86 211 251 182 88 244 247 179 206 250 253 183 210 209 248 180 87 
	20 245 149 71 178 251 153 73 182 246 150 177 247 252 154 181 253 248 151 72 180 
	20 50 124 251 211 48 128 257 215 123 249 250 212 127 255 256 216 49 126 254 213 
	20 124 43 153 251 128 45 157 257 125 152 252 249 129 156 258 255 126 44 155 254 
	20 211 251 182 88 215 257 186 90 250 253 183 210 256 259 187 214 213 254 184 89 
	20 251 153 73 182 257 157 75 186 252 154 181 253 258 158 185 259 254 155 74 184 
	20 48 128 257 215 4 21 99 30 127 255 256 216 20 97 98 31 47 130 260 217 
	20 128 45 157 257 21 5 24 99 129 156 258 255 22 23 100 97 130 46 159 260 
	20 215 257 186 90 30 99 27 7 256 259 187 214 98 101 28 29 217 260 188 91 
	20 257 157 75 186 99 24 6 27 258 158 185 259 100 25 26 101 260 159 76 188 

CELL_TYPES 32
	25
	25
	25
	25
	25
	25
	25
	25
	25
	25
	25
	25
	25
	25
	25
	25
	25
	25
	25
	25
	25
	25
	25
	25
	25
	25
	25
	25
	25
	25
	25
	25

POINT_DATA 261
FIELD DOR1 1
	DOR1 3 261 double
		 0.00000000E+00	 0.00000000E+00	 0.00000000E+00
		 0.00000000E+00	 0.00000000E+00	 0.00000000E+00
		 0.00000000E+00	 0.00000000E+00	 0.00000000E+00
		 0.00000000E+00	 0.00000000E+00	 0.00000000E+00
		-1.59835000E-05	-1.72588000E-07	-4.51165000E-06
		-1.17568000E-05	-1.67784000E-07	 7.28766000E-07
		-1.07229000E-05	 1.75458000E-07	 3.42485000E-07
		-1.09707000E-05	-1.66967000E-07	-6.82718000E-07
		 0.00000000E+00	 0.00000000E+00	 0.00000000E+00
		 0.00000000E+00	 0.00000000E+00	 0.00000000E+00
		 0.00000000E+00	 0.00000000E+00	 0.00000000E+00
		 0.00000000E+00	 0.00000000E+00	 0.00000000E+00
		 0.00000000E+00	 0.00000000E+00	 0.00000000E+00
		 0.00000000E+00	 0.00000000E+00	 0.00000000E+00
		 0.00000000E+00	 0.00000000E+00	 0.00000000E+00
		 0.00000000E+00	 0.00000000E+00	 0.00000000E+00
		 0.00000000E+00	 0.00000000E+00	 0.00000000E+00
		 0.00000000E+00	 0.00000000E+00	 0.00000000E+00
		 0.00000000E+00	 0.00000000E+00	 0.00000000E+00
		 0.00000000E+00	 0.00000000E+00	 0.00000000E+00
		-1.07622000E-05	 4.58928000E-07	-1.93672000E-07
		-9.83027000E-06	 1.84458000E-07	 7.32526000E-07
		-1.05851000E-05	-1.14088000E-07	 3.55559000E-07
		-1.10020000E-05	-3.25015000E-07	 5.02674000E-07
		-1.01984000E-05	-1.60293000E-07	 3.24414000E-07
		-1.01250000E-05	 1.31516000E-07	 3.94019000E-07
		-1.05828000E-05	 1.05329000E-07	 1.77782000E-07
		-1.11969000E-05	-4.90990000E-07	-1.14754000E-07
		-1.11313000E-05	-3.50349000E-07	-4.34880000E-07
		-1.18145000E-05	-3.39333000E-08	-1.15873000E-06
		-1.17375000E-05	 5.96404000E-08	-1.85140000E-06
		-1.61635000E-05	-2.63276000E-07	-3.45770000E-06
		-5.47041000E-06	 1.04256000E-06	 9.29014000E-07
		-6.67365000E-06	-6.90094000E-08	 4.05294000E-07
		-7.18688000E-06	-2.19234000E-07	 6.65113000E-07
		-7.24832000E-06	 1.73697000E-07	 5.92759000E-07
		-7.59018000E-06	-2.28927000E-08	 6.10589000E-07
		-7.94106000E-06	 6.48636000E-09	 6.24230000E-07
		-8.29977000E-06	-5.83916000E-08	 6.20574000E-07
		-8.47592000E-06	-5.30359000E-08	 6.11495000E-07
		-8.91662000E-06	-5.57825000E-08	 6.14135000E-07
		-9.01820000E-06	-9.68714000E-08	 5.71944000E-07
		-9.56597000E-06	-7.82509000E-08	 6.72277000E-07
		-9.85833000E-06	-1.99445000E-07	 7.29293000E-07
		-9.90243000E-06	-3.28529000E-08	 4.32595000E-07
		-1.05849000E-05	-7.97582000E-08	 8.09748000E-07
		-1.07046000E-05	-3.04482000E-07	 6.61605000E-07
		-8.65327000E-06	-6.58157000E-07	-6.21241000E-07
		-1.10922000E-05	-4.54513000E-07	-5.11040000E-07
		-1.08404000E-05	 2.11574000E-07	-6.20173000E-07
		-9.21207000E-06	-2.21151000E-07	-7.75082000E-07
		-9.54004000E-06	-1.49720000E-07	-6.75712000E-07
		-8.88926000E-06	-8.11644000E-08	-5.94681000E-07
		-8.98746000E-06	-6.57751000E-08	-6.37846000E-07
		-8.40128000E-06	-4.43861000E-08	-6.48511000E-07
		-8.30017000E-06	-3.08798000E-08	-6.37040000E-07
		-7.92116000E-06	-5.79435000E-08	-6.44356000E-07
		-7.58410000E-06	-4.03420000E-08	-6.27786000E-07
		-7.21747000E-06	-2.19180000E-07	-6.11266000E-07
		-7.18966000E-06	 2.32806000E-07	-6.71606000E-07
		-6.68823000E-06	 7.20401000E-08	-4.01334000E-07
		-5.47660000E-06	-1.11874000E-06	-9.31021000E-07
		-5.46037000E-06	-1.05158000E-06	 9.29059000E-07
		-6.67266000E-06	 5.29387000E-08	 4.15738000E-07
		-7.17112000E-06	 1.98638000E-07	 6.72877000E-07
		-7.26395000E-06	-2.11461000E-07	 6.13205000E-07
		-7.56594000E-06	-2.08550000E-08	 6.23108000E-07
		-7.98904000E-06	-7.88655000E-08	 6.60612000E-07
		-8.25671000E-06	-2.03185000E-08	 6.27801000E-07
		-8.56017000E-06	-7.12292000E-08	 6.57002000E-07
		-8.85616000E-06	-6.25033000E-08	 6.33580000E-07
		-9.14775000E-06	-7.52718000E-08	 6.39670000E-07
		-9.48002000E-06	-9.54122000E-08	 6.43380000E-07
		-9.75477000E-06	-9.40980000E-08	 6.41491000E-07
		-1.00836000E-05	-1.31343000E-07	 6.73983000E-07
		-1.04012000E-05	-9.18065000E-08	 5.32814000E-07
		-1.04567000E-05	 3.78469000E-09	 3.36577000E-07
		-5.48274000E-06	 1.10822000E-06	-9.27888000E-07
		-6.70844000E-06	-8.35227000E-08	-3.98632000E-07
		-7.19159000E-06	-2.57955000E-07	-6.59081000E-07
		-7.25279000E-06	 1.95097000E-07	-6.03072000E-07
		-7.57075000E-06	-1.20302000E-08	-6.07873000E-07
		-7.99136000E-06	 7.13329000E-09	-6.38425000E-07
		-8.27242000E-06	-6.92790000E-08	-6.08036000E-07
		-8.55482000E-06	-3.04179000E-08	-6.30075000E-07
		-8.86095000E-06	-6.37961000E-08	-6.07182000E-07
		-9.18520000E-06	-7.31657000E-08	-6.00228000E-07
		-9.44339000E-06	-1.09922000E-07	-6.34276000E-07
		-9.80918000E-06	-5.73115000E-08	-6.70800000E-07
		-1.00794000E-05	-1.04029000E-07	-5.36956000E-07
		-1.02938000E-05	-1.43961000E-07	-5.57847000E-07
		-1.06500000E-05	-3.63548000E-08	-7.83180000E-07
		 0.00000000E+00	 0.00000000E+00	 0.00000000E+00
		 0.00000000E+00	 0.00000000E+00	 0.00000000E+00
		 0.00000000E+00	 0.00000000E+00	 0.00000000E+00
		 0.00000000E+00	 0.00000000E+00	 0.00000000E+00
		 0.00000000E+00	 0.00000000E+00	 0.00000000E+00
		-1.07336000E-05	 5.09263000E-07	 4.49229000E-07
		-1.14340000E-05	-5.06441000E-07	-6.82951000E-07
		-1.02484000E-05	 4.52583000E-07	 2.17225000E-08
		-1.03732000E-05	 9.27112000E-08	 3.27279000E-07
		-1.08726000E-05	-6.55924000E-08	-1.55673000E-07
		-5.29733000E-06	 3.96184000E-08	-1.26971000E-09
		-6.91257000E-06	 1.73059000E-07	-1.58450000E-07
		-7.11729000E-06	 4.56297000E-09	-7.18476000E-09
		-6.90229000E-06	-1.91913000E-07	 1.52795000E-07
		-7.05398000E-06	-2.21979000E-08	-6.99490000E-09
		-7.32814000E-06	-1.28154000E-07	-3.58620000E-07
		-7.44331000E-06	-1.58307000E-08	-3.84588000E-09
		-7.34534000E-06	 1.03394000E-07	 3.46481000E-07
		-7.51246000E-06	-1.78246000E-08	-6.81207000E-09
		-8.01113000E-06	-3.84897000E-08	-3.56219000E-07
		-8.09671000E-06	-3.27527000E-08	-4.62182000E-09
		-8.01928000E-06	-2.17937000E-08	 3.36724000E-07
		-8.21610000E-06	-3.89516000E-08	-1.82802000E-08
		-8.53791000E-06	-5.00277000E-08	-3.38496000E-07
		-8.69022000E-06	-4.52097000E-08	-4.62327000E-09
		-8.58113000E-06	-4.78004000E-08	 3.31769000E-07
		-8.77047000E-06	-7.20935000E-08	-6.05086000E-09
		-9.14037000E-06	-6.15772000E-08	-3.95126000E-07
		-9.32922000E-06	-6.56429000E-08	 1.85707000E-08
		-9.18235000E-06	-7.61966000E-08	 3.48827000E-07
		-9.39254000E-06	-8.99636000E-08	-7.35981000E-08
		-9.53960000E-06	-1.09516000E-07	-2.01174000E-07
		-1.01196000E-05	 3.11219000E-08	-3.17020000E-08
		-9.95577000E-06	-9.71079000E-08	 3.05926000E-07
		-9.78806000E-06	-2.60220000E-07	 1.24490000E-07
		-1.10118000E-05	-2.86422000E-07	-9.73916000E-07
		-9.90611000E-06	-1.15800000E-07	-1.96483000E-07
		-1.03494000E-05	-8.79614000E-08	 5.23135000E-07
		-1.13656000E-05	 1.09106000E-07	 9.55604000E-08
		 2.93232000E-06	 0.00000000E+00	 3.97008000E-09
		 6.40870000E-09	 3.32242000E-08	 8.95467000E-07
		 1.39757000E-06	-2.32764000E-09	 1.21268000E-06
		 6.80967000E-09	-4.09203000E-08	 9.00559000E-07
		 7.97630000E-07	-7.79715000E-09	 6.92002000E-07
		-1.81369000E-06	 5.89128000E-08	 6.64018000E-07
		 1.80921000E-07	-1.05962000E-08	 8.31160000E-07
		-1.82142000E-06	-8.67001000E-08	 6.74538000E-07
		-8.10991000E-07	-2.20128000E-08	 8.45658000E-07
		-3.28893000E-06	-1.71136000E-09	 7.14441000E-07
		-1.79490000E-06	-2.33613000E-08	 7.66697000E-07
		-3.31308000E-06	-5.66034000E-08	 7.32021000E-07
		-2.68371000E-06	-4.31600000E-08	 8.09612000E-07
		-4.82220000E-06	-4.76937000E-08	 6.92164000E-07
		-3.62679000E-06	-4.02828000E-08	 7.89623000E-07
		-4.86358000E-06	-5.28154000E-08	 7.17364000E-07
		-4.51602000E-06	-7.03136000E-08	 8.12927000E-07
		-6.31664000E-06	-7.73260000E-08	 6.92089000E-07
		-5.47557000E-06	-5.81748000E-08	 7.93235000E-07
		-6.38405000E-06	-6.81192000E-08	 7.18346000E-07
		-6.35966000E-06	-1.00974000E-07	 8.09631000E-07
		-7.98586000E-06	-1.70085000E-07	 7.29860000E-07
		-7.35631000E-06	-1.39656000E-07	 7.76678000E-07
		-7.92544000E-06	-1.11063000E-07	 7.10530000E-07
		-8.18790000E-06	-7.70566000E-08	 8.30014000E-07
		-9.61921000E-06	-1.29430000E-07	 8.94354000E-07
		-9.12975000E-06	-2.22797000E-07	 8.71329000E-07
		-9.51004000E-06	-1.80679000E-07	 6.91483000E-07
		-1.02089000E-05	-1.77566000E-07	 7.01648000E-07
		-5.29884000E-06	-4.37979000E-08	 1.86262000E-09
		-6.89778000E-06	 1.80428000E-07	 1.60882000E-07
		-7.10909000E-06	-1.46402000E-08	-1.39711000E-09
		-6.91835000E-06	-1.82213000E-07	-1.53307000E-07
		-7.06074000E-06	 4.81254000E-09	 3.56756000E-09
		-7.34111000E-06	-1.35835000E-07	 3.63212000E-07
		-7.41914000E-06	-1.28403000E-08	 8.85134000E-09
		-7.33417000E-06	 1.02321000E-07	-3.50220000E-07
		-7.53014000E-06	-2.61830000E-08	 9.31265000E-09
		-8.01725000E-06	-4.38943000E-08	 3.59480000E-07
		-8.04521000E-06	-2.86946000E-08	 8.16664000E-09
		-8.01867000E-06	-1.55581000E-08	-3.39778000E-07
		-8.25120000E-06	-4.14308000E-08	 1.07615000E-08
		-8.56282000E-06	-6.12504000E-08	 3.66256000E-07
		-8.56770000E-06	-4.85315000E-08	 6.87295000E-09
		-8.56122000E-06	-3.57336000E-08	-3.45510000E-07
		-8.85778000E-06	-6.50295000E-08	 1.84187000E-08
		-9.15945000E-06	-7.85780000E-08	 3.58668000E-07
		-9.15928000E-06	-7.34982000E-08	 4.92365000E-09
		-9.17154000E-06	-8.03175000E-08	-3.35664000E-07
		-9.47936000E-06	-9.38126000E-08	 2.00012000E-08
		-9.73372000E-06	-1.00164000E-07	 3.63820000E-07
		-9.75859000E-06	-1.44247000E-07	 4.16466000E-08
		-9.78374000E-06	-7.50872000E-08	-3.39918000E-07
		-1.00684000E-05	-7.27825000E-08	-3.87866000E-08
		-1.04636000E-05	-1.66663000E-07	 3.63223000E-07
		-1.03554000E-05	-9.43689000E-08	 8.08205000E-08
		-1.03285000E-05	-2.00628000E-07	-2.71801000E-07
		-1.07084000E-05	-2.59420000E-07	 1.67902000E-07
		 2.92820000E-06	 0.00000000E+00	 2.54960000E-09
		 1.22073000E-08	 3.09342000E-08	-9.08136000E-07
		 1.38265000E-06	-4.31724000E-09	-1.22901000E-06
		 2.22234000E-08	-3.83331000E-08	-9.09332000E-07
		 7.96014000E-07	-6.57609000E-09	-6.94283000E-07
		-1.82991000E-06	 6.40135000E-08	-6.62507000E-07
		 1.83642000E-07	-1.50053000E-08	-8.28013000E-07
		-1.81241000E-06	-8.93682000E-08	-6.67412000E-07
		-8.05774000E-07	-1.89053000E-08	-8.47162000E-07
		-3.31715000E-06	-5.47509000E-09	-7.22660000E-07
		-1.81216000E-06	-3.45024000E-08	-7.65110000E-07
		-3.28098000E-06	-5.30472000E-08	-7.23371000E-07
		-2.67430000E-06	-3.81987000E-08	-8.07778000E-07
		-4.87661000E-06	-4.16836000E-08	-7.02648000E-07
		-3.65385000E-06	-4.99084000E-08	-7.90266000E-07
		-4.80640000E-06	-4.41792000E-08	-7.19179000E-07
		-4.49651000E-06	-5.94029000E-08	-8.15536000E-07
		-6.42402000E-06	-7.98256000E-08	-7.11853000E-07
		-5.52582000E-06	-8.78203000E-08	-8.14454000E-07
		-6.24868000E-06	-8.37687000E-08	-6.85180000E-07
		-6.33660000E-06	-1.03632000E-07	-7.78543000E-07
		-7.93938000E-06	-5.90017000E-08	-7.31160000E-07
		-7.30258000E-06	-6.28804000E-08	-8.10957000E-07
		-7.78483000E-06	-1.49710000E-07	-8.47353000E-07
		-8.28750000E-06	-4.41049000E-08	-8.32479000E-07
		-9.36373000E-06	-3.12390000E-07	-6.67320000E-07
		-9.08625000E-06	-4.69488000E-07	-7.24530000E-07
		-9.16585000E-06	-4.19049000E-07	-5.05281000E-07
		-1.01586000E-05	 5.58023000E-08	-1.06046000E-06
		 3.20508000E-06	 2.29578000E-09	-2.98123000E-09
		-9.56620000E-08	 4.67584000E-09	 4.36662000E-09
		 1.38044000E-06	-2.06233000E-09	-6.94314000E-07
		 1.39174000E-06	-1.37205000E-09	 8.28901000E-09
		 1.38268000E-06	-1.09145000E-09	 6.94633000E-07
		-9.15371000E-08	-8.45663000E-09	 7.39724000E-09
		 6.84400000E-07	-4.75587000E-09	 1.33123000E-09
		-1.84550000E-06	-1.41142000E-08	-5.29188000E-09
		 2.78981000E-07	-1.29141000E-08	-3.54307000E-07
		 3.68571000E-07	-1.13328000E-08	-2.03269000E-09
		 2.80345000E-07	-1.06975000E-08	 3.54201000E-07
		-1.83341000E-06	-1.01067000E-08	 0.00000000E+00
		-8.81495000E-07	-1.84291000E-08	 1.01267000E-09
		-3.30202000E-06	-3.01067000E-08	-2.69045000E-09
		-1.74881000E-06	-3.15383000E-08	-3.57088000E-07
		-1.68241000E-06	-3.13035000E-08	-1.47667000E-09
		-1.74105000E-06	-2.61492000E-08	 3.56296000E-07
		-3.27683000E-06	-2.98994000E-08	 4.60073000E-09
		-2.72664000E-06	-3.41765000E-08	 1.00434000E-09
		-4.89374000E-06	-5.05296000E-08	 0.00000000E+00
		-3.59965000E-06	-5.49400000E-08	-3.64243000E-07
		-3.54417000E-06	-5.37182000E-08	 0.00000000E+00
		-3.58553000E-06	-4.89140000E-08	 3.63227000E-07
		-4.83162000E-06	-5.01294000E-08	 2.74491000E-09
		-4.55717000E-06	-6.09786000E-08	 0.00000000E+00
		-6.43758000E-06	-8.00873000E-08	 6.50222000E-09
		-5.47405000E-06	-8.25337000E-08	-3.56429000E-07
		-5.43412000E-06	-1.02693000E-07	 1.26564000E-08
		-5.45153000E-06	-7.23458000E-08	 3.58467000E-07
		-6.35990000E-06	-8.83669000E-08	 9.47362000E-09
		-6.35418000E-06	-5.79581000E-08	-1.15475000E-08
		-8.10520000E-06	-1.32747000E-08	 2.31163000E-08
		-7.29495000E-06	-1.13691000E-07	-3.90082000E-07
		-7.22623000E-06	-5.38795000E-08	 2.39212000E-08
		-7.30118000E-06	-1.17003000E-07	 4.00888000E-07
		-7.89311000E-06	-9.89435000E-08	 2.85568000E-08
		-8.34700000E-06	-2.07438000E-07	-1.69458000E-08
		-9.19012000E-06	-1.42312000E-07	-1.77998000E-07
		-9.10734000E-06	-1.13757000E-07	-2.97816000E-07
		-9.37440000E-06	-1.12242000E-07	-3.92575000E-08
		-9.21423000E-06	-9.65555000E-08	 2.95452000E-07
		-9.49448000E-06	-9.60705000E-08	 3.94009000E-08
		-9.64241000E-06	-7.11806000E-09	 1.67066000E-07
