    1C
    1UModel: beam     Date: 10-Mar-1998                                 
    1UUSER                                                              
    1UDATE              01.august.2019                                  
    1UTIME              09:38:11                                        
    1UHOST                                                              
    1UPGM               CalculiX                                        
    1UVERSION           Version 2.15                             
    1UCOMPILETIME       Fri 15 Mar 11:57:46 CET 2019                    
    1UDIR                                                               
    1UDBN                                                               
    1UMAT    1EL                                                        
    2C                           261                                     1
 -1         1 0.00000E+00 0.00000E+00 0.00000E+00
 -1         2 1.00000E+00 0.00000E+00 0.00000E+00
 -1         3 1.00000E+00 1.00000E+00 0.00000E+00
 -1         4 0.00000E+00 1.00000E+00 0.00000E+00
 -1         5 0.00000E+00 0.00000E+00 8.00000E+00
 -1         6 1.00000E+00 0.00000E+00 8.00000E+00
 -1         7 1.00000E+00 1.00000E+00 8.00000E+00
 -1         8 0.00000E+00 1.00000E+00 8.00000E+00
 -1         9 2.50000E-01 0.00000E+00 0.00000E+00
 -1        10 5.00000E-01 0.00000E+00 0.00000E+00
 -1        11 7.50000E-01 0.00000E+00 0.00000E+00
 -1        12 1.00000E+00 2.50000E-01 0.00000E+00
 -1        13 1.00000E+00 5.00000E-01 0.00000E+00
 -1        14 1.00000E+00 7.50000E-01 0.00000E+00
 -1        15 7.50000E-01 1.00000E+00 0.00000E+00
 -1        16 5.00000E-01 1.00000E+00 0.00000E+00
 -1        17 2.50000E-01 1.00000E+00 0.00000E+00
 -1        18 0.00000E+00 7.50000E-01 0.00000E+00
 -1        19 0.00000E+00 5.00000E-01 0.00000E+00
 -1        20 0.00000E+00 2.50000E-01 0.00000E+00
 -1        21 2.50000E-01 0.00000E+00 8.00000E+00
 -1        22 5.00000E-01 0.00000E+00 8.00000E+00
 -1        23 7.50000E-01 0.00000E+00 8.00000E+00
 -1        24 1.00000E+00 2.50000E-01 8.00000E+00
 -1        25 1.00000E+00 5.00000E-01 8.00000E+00
 -1        26 1.00000E+00 7.50000E-01 8.00000E+00
 -1        27 7.50000E-01 1.00000E+00 8.00000E+00
 -1        28 5.00000E-01 1.00000E+00 8.00000E+00
 -1        29 2.50000E-01 1.00000E+00 8.00000E+00
 -1        30 0.00000E+00 7.50000E-01 8.00000E+00
 -1        31 0.00000E+00 5.00000E-01 8.00000E+00
 -1        32 0.00000E+00 2.50000E-01 8.00000E+00
 -1        33 1.00000E+00 0.00000E+00 5.00000E-01
 -1        34 1.00000E+00 0.00000E+00 1.00000E+00
 -1        35 1.00000E+00 0.00000E+00 1.50000E+00
 -1        36 1.00000E+00 0.00000E+00 2.00000E+00
 -1        37 1.00000E+00 0.00000E+00 2.50000E+00
 -1        38 1.00000E+00 0.00000E+00 3.00000E+00
 -1        39 1.00000E+00 0.00000E+00 3.50000E+00
 -1        40 1.00000E+00 0.00000E+00 4.00000E+00
 -1        41 1.00000E+00 0.00000E+00 4.50000E+00
 -1        42 1.00000E+00 0.00000E+00 5.00000E+00
 -1        43 1.00000E+00 0.00000E+00 5.50000E+00
 -1        44 1.00000E+00 0.00000E+00 6.00000E+00
 -1        45 1.00000E+00 0.00000E+00 6.50000E+00
 -1        46 1.00000E+00 0.00000E+00 7.00000E+00
 -1        47 1.00000E+00 0.00000E+00 7.50000E+00
 -1        48 0.00000E+00 0.00000E+00 7.50000E+00
 -1        49 0.00000E+00 0.00000E+00 7.00000E+00
 -1        50 0.00000E+00 0.00000E+00 6.50000E+00
 -1        51 0.00000E+00 0.00000E+00 6.00000E+00
 -1        52 0.00000E+00 0.00000E+00 5.50000E+00
 -1        53 0.00000E+00 0.00000E+00 5.00000E+00
 -1        54 0.00000E+00 0.00000E+00 4.50000E+00
 -1        55 0.00000E+00 0.00000E+00 4.00000E+00
 -1        56 0.00000E+00 0.00000E+00 3.50000E+00
 -1        57 0.00000E+00 0.00000E+00 3.00000E+00
 -1        58 0.00000E+00 0.00000E+00 2.50000E+00
 -1        59 0.00000E+00 0.00000E+00 2.00000E+00
 -1        60 0.00000E+00 0.00000E+00 1.50000E+00
 -1        61 0.00000E+00 0.00000E+00 1.00000E+00
 -1        62 0.00000E+00 0.00000E+00 5.00000E-01
 -1        63 1.00000E+00 1.00000E+00 5.00000E-01
 -1        64 1.00000E+00 1.00000E+00 1.00000E+00
 -1        65 1.00000E+00 1.00000E+00 1.50000E+00
 -1        66 1.00000E+00 1.00000E+00 2.00000E+00
 -1        67 1.00000E+00 1.00000E+00 2.50000E+00
 -1        68 1.00000E+00 1.00000E+00 3.00000E+00
 -1        69 1.00000E+00 1.00000E+00 3.50000E+00
 -1        70 1.00000E+00 1.00000E+00 4.00000E+00
 -1        71 1.00000E+00 1.00000E+00 4.50000E+00
 -1        72 1.00000E+00 1.00000E+00 5.00000E+00
 -1        73 1.00000E+00 1.00000E+00 5.50000E+00
 -1        74 1.00000E+00 1.00000E+00 6.00000E+00
 -1        75 1.00000E+00 1.00000E+00 6.50000E+00
 -1        76 1.00000E+00 1.00000E+00 7.00000E+00
 -1        77 1.00000E+00 1.00000E+00 7.50000E+00
 -1        78 0.00000E+00 1.00000E+00 5.00000E-01
 -1        79 0.00000E+00 1.00000E+00 1.00000E+00
 -1        80 0.00000E+00 1.00000E+00 1.50000E+00
 -1        81 0.00000E+00 1.00000E+00 2.00000E+00
 -1        82 0.00000E+00 1.00000E+00 2.50000E+00
 -1        83 0.00000E+00 1.00000E+00 3.00000E+00
 -1        84 0.00000E+00 1.00000E+00 3.50000E+00
 -1        85 0.00000E+00 1.00000E+00 4.00000E+00
 -1        86 0.00000E+00 1.00000E+00 4.50000E+00
 -1        87 0.00000E+00 1.00000E+00 5.00000E+00
 -1        88 0.00000E+00 1.00000E+00 5.50000E+00
 -1        89 0.00000E+00 1.00000E+00 6.00000E+00
 -1        90 0.00000E+00 1.00000E+00 6.50000E+00
 -1        91 0.00000E+00 1.00000E+00 7.00000E+00
 -1        92 0.00000E+00 1.00000E+00 7.50000E+00
 -1        93 5.00000E-01 2.50000E-01 0.00000E+00
 -1        94 2.50000E-01 5.00000E-01 0.00000E+00
 -1        95 5.00000E-01 5.00000E-01 0.00000E+00
 -1        96 7.50000E-01 5.00000E-01 0.00000E+00
 -1        97 5.00000E-01 7.50000E-01 0.00000E+00
 -1        98 5.00000E-01 2.50000E-01 8.00000E+00
 -1        99 2.50000E-01 5.00000E-01 8.00000E+00
 -1       100 5.00000E-01 5.00000E-01 8.00000E+00
 -1       101 7.50000E-01 5.00000E-01 8.00000E+00
 -1       102 5.00000E-01 7.50000E-01 8.00000E+00
 -1       103 5.00000E-01 0.00000E+00 5.00000E-01
 -1       104 2.50000E-01 0.00000E+00 1.00000E+00
 -1       105 5.00000E-01 0.00000E+00 1.00000E+00
 -1       106 7.50000E-01 0.00000E+00 1.00000E+00
 -1       107 5.00000E-01 0.00000E+00 1.50000E+00
 -1       108 2.50000E-01 0.00000E+00 2.00000E+00
 -1       109 5.00000E-01 0.00000E+00 2.00000E+00
 -1       110 7.50000E-01 0.00000E+00 2.00000E+00
 -1       111 5.00000E-01 0.00000E+00 2.50000E+00
 -1       112 2.50000E-01 0.00000E+00 3.00000E+00
 -1       113 5.00000E-01 0.00000E+00 3.00000E+00
 -1       114 7.50000E-01 0.00000E+00 3.00000E+00
 -1       115 5.00000E-01 0.00000E+00 3.50000E+00
 -1       116 2.50000E-01 0.00000E+00 4.00000E+00
 -1       117 5.00000E-01 0.00000E+00 4.00000E+00
 -1       118 7.50000E-01 0.00000E+00 4.00000E+00
 -1       119 5.00000E-01 0.00000E+00 4.50000E+00
 -1       120 2.50000E-01 0.00000E+00 5.00000E+00
 -1       121 5.00000E-01 0.00000E+00 5.00000E+00
 -1       122 7.50000E-01 0.00000E+00 5.00000E+00
 -1       123 5.00000E-01 0.00000E+00 5.50000E+00
 -1       124 2.50000E-01 0.00000E+00 6.00000E+00
 -1       125 5.00000E-01 0.00000E+00 6.00000E+00
 -1       126 7.50000E-01 0.00000E+00 6.00000E+00
 -1       127 5.00000E-01 0.00000E+00 6.50000E+00
 -1       128 2.50000E-01 0.00000E+00 7.00000E+00
 -1       129 5.00000E-01 0.00000E+00 7.00000E+00
 -1       130 7.50000E-01 0.00000E+00 7.00000E+00
 -1       131 5.00000E-01 0.00000E+00 7.50000E+00
 -1       132 1.00000E+00 5.00000E-01 5.00000E-01
 -1       133 1.00000E+00 2.50000E-01 1.00000E+00
 -1       134 1.00000E+00 5.00000E-01 1.00000E+00
 -1       135 1.00000E+00 7.50000E-01 1.00000E+00
 -1       136 1.00000E+00 5.00000E-01 1.50000E+00
 -1       137 1.00000E+00 2.50000E-01 2.00000E+00
 -1       138 1.00000E+00 5.00000E-01 2.00000E+00
 -1       139 1.00000E+00 7.50000E-01 2.00000E+00
 -1       140 1.00000E+00 5.00000E-01 2.50000E+00
 -1       141 1.00000E+00 2.50000E-01 3.00000E+00
 -1       142 1.00000E+00 5.00000E-01 3.00000E+00
 -1       143 1.00000E+00 7.50000E-01 3.00000E+00
 -1       144 1.00000E+00 5.00000E-01 3.50000E+00
 -1       145 1.00000E+00 2.50000E-01 4.00000E+00
 -1       146 1.00000E+00 5.00000E-01 4.00000E+00
 -1       147 1.00000E+00 7.50000E-01 4.00000E+00
 -1       148 1.00000E+00 5.00000E-01 4.50000E+00
 -1       149 1.00000E+00 2.50000E-01 5.00000E+00
 -1       150 1.00000E+00 5.00000E-01 5.00000E+00
 -1       151 1.00000E+00 7.50000E-01 5.00000E+00
 -1       152 1.00000E+00 5.00000E-01 5.50000E+00
 -1       153 1.00000E+00 2.50000E-01 6.00000E+00
 -1       154 1.00000E+00 5.00000E-01 6.00000E+00
 -1       155 1.00000E+00 7.50000E-01 6.00000E+00
 -1       156 1.00000E+00 5.00000E-01 6.50000E+00
 -1       157 1.00000E+00 2.50000E-01 7.00000E+00
 -1       158 1.00000E+00 5.00000E-01 7.00000E+00
 -1       159 1.00000E+00 7.50000E-01 7.00000E+00
 -1       160 1.00000E+00 5.00000E-01 7.50000E+00
 -1       161 5.00000E-01 1.00000E+00 5.00000E-01
 -1       162 7.50000E-01 1.00000E+00 1.00000E+00
 -1       163 5.00000E-01 1.00000E+00 1.00000E+00
 -1       164 2.50000E-01 1.00000E+00 1.00000E+00
 -1       165 5.00000E-01 1.00000E+00 1.50000E+00
 -1       166 7.50000E-01 1.00000E+00 2.00000E+00
 -1       167 5.00000E-01 1.00000E+00 2.00000E+00
 -1       168 2.50000E-01 1.00000E+00 2.00000E+00
 -1       169 5.00000E-01 1.00000E+00 2.50000E+00
 -1       170 7.50000E-01 1.00000E+00 3.00000E+00
 -1       171 5.00000E-01 1.00000E+00 3.00000E+00
 -1       172 2.50000E-01 1.00000E+00 3.00000E+00
 -1       173 5.00000E-01 1.00000E+00 3.50000E+00
 -1       174 7.50000E-01 1.00000E+00 4.00000E+00
 -1       175 5.00000E-01 1.00000E+00 4.00000E+00
 -1       176 2.50000E-01 1.00000E+00 4.00000E+00
 -1       177 5.00000E-01 1.00000E+00 4.50000E+00
 -1       178 7.50000E-01 1.00000E+00 5.00000E+00
 -1       179 5.00000E-01 1.00000E+00 5.00000E+00
 -1       180 2.50000E-01 1.00000E+00 5.00000E+00
 -1       181 5.00000E-01 1.00000E+00 5.50000E+00
 -1       182 7.50000E-01 1.00000E+00 6.00000E+00
 -1       183 5.00000E-01 1.00000E+00 6.00000E+00
 -1       184 2.50000E-01 1.00000E+00 6.00000E+00
 -1       185 5.00000E-01 1.00000E+00 6.50000E+00
 -1       186 7.50000E-01 1.00000E+00 7.00000E+00
 -1       187 5.00000E-01 1.00000E+00 7.00000E+00
 -1       188 2.50000E-01 1.00000E+00 7.00000E+00
 -1       189 5.00000E-01 1.00000E+00 7.50000E+00
 -1       190 0.00000E+00 5.00000E-01 5.00000E-01
 -1       191 0.00000E+00 7.50000E-01 1.00000E+00
 -1       192 0.00000E+00 5.00000E-01 1.00000E+00
 -1       193 0.00000E+00 2.50000E-01 1.00000E+00
 -1       194 0.00000E+00 5.00000E-01 1.50000E+00
 -1       195 0.00000E+00 7.50000E-01 2.00000E+00
 -1       196 0.00000E+00 5.00000E-01 2.00000E+00
 -1       197 0.00000E+00 2.50000E-01 2.00000E+00
 -1       198 0.00000E+00 5.00000E-01 2.50000E+00
 -1       199 0.00000E+00 7.50000E-01 3.00000E+00
 -1       200 0.00000E+00 5.00000E-01 3.00000E+00
 -1       201 0.00000E+00 2.50000E-01 3.00000E+00
 -1       202 0.00000E+00 5.00000E-01 3.50000E+00
 -1       203 0.00000E+00 7.50000E-01 4.00000E+00
 -1       204 0.00000E+00 5.00000E-01 4.00000E+00
 -1       205 0.00000E+00 2.50000E-01 4.00000E+00
 -1       206 0.00000E+00 5.00000E-01 4.50000E+00
 -1       207 0.00000E+00 7.50000E-01 5.00000E+00
 -1       208 0.00000E+00 5.00000E-01 5.00000E+00
 -1       209 0.00000E+00 2.50000E-01 5.00000E+00
 -1       210 0.00000E+00 5.00000E-01 5.50000E+00
 -1       211 0.00000E+00 7.50000E-01 6.00000E+00
 -1       212 0.00000E+00 5.00000E-01 6.00000E+00
 -1       213 0.00000E+00 2.50000E-01 6.00000E+00
 -1       214 0.00000E+00 5.00000E-01 6.50000E+00
 -1       215 0.00000E+00 7.50000E-01 7.00000E+00
 -1       216 0.00000E+00 5.00000E-01 7.00000E+00
 -1       217 0.00000E+00 2.50000E-01 7.00000E+00
 -1       218 0.00000E+00 5.00000E-01 7.50000E+00
 -1       219 5.00000E-01 5.00000E-01 5.00000E-01
 -1       220 5.00000E-01 2.50000E-01 1.00000E+00
 -1       221 2.50000E-01 5.00000E-01 1.00000E+00
 -1       222 5.00000E-01 5.00000E-01 1.00000E+00
 -1       223 7.50000E-01 5.00000E-01 1.00000E+00
 -1       224 5.00000E-01 7.50000E-01 1.00000E+00
 -1       225 5.00000E-01 5.00000E-01 1.50000E+00
 -1       226 5.00000E-01 2.50000E-01 2.00000E+00
 -1       227 2.50000E-01 5.00000E-01 2.00000E+00
 -1       228 5.00000E-01 5.00000E-01 2.00000E+00
 -1       229 7.50000E-01 5.00000E-01 2.00000E+00
 -1       230 5.00000E-01 7.50000E-01 2.00000E+00
 -1       231 5.00000E-01 5.00000E-01 2.50000E+00
 -1       232 5.00000E-01 2.50000E-01 3.00000E+00
 -1       233 2.50000E-01 5.00000E-01 3.00000E+00
 -1       234 5.00000E-01 5.00000E-01 3.00000E+00
 -1       235 7.50000E-01 5.00000E-01 3.00000E+00
 -1       236 5.00000E-01 7.50000E-01 3.00000E+00
 -1       237 5.00000E-01 5.00000E-01 3.50000E+00
 -1       238 5.00000E-01 2.50000E-01 4.00000E+00
 -1       239 2.50000E-01 5.00000E-01 4.00000E+00
 -1       240 5.00000E-01 5.00000E-01 4.00000E+00
 -1       241 7.50000E-01 5.00000E-01 4.00000E+00
 -1       242 5.00000E-01 7.50000E-01 4.00000E+00
 -1       243 5.00000E-01 5.00000E-01 4.50000E+00
 -1       244 5.00000E-01 2.50000E-01 5.00000E+00
 -1       245 2.50000E-01 5.00000E-01 5.00000E+00
 -1       246 5.00000E-01 5.00000E-01 5.00000E+00
 -1       247 7.50000E-01 5.00000E-01 5.00000E+00
 -1       248 5.00000E-01 7.50000E-01 5.00000E+00
 -1       249 5.00000E-01 5.00000E-01 5.50000E+00
 -1       250 5.00000E-01 2.50000E-01 6.00000E+00
 -1       251 2.50000E-01 5.00000E-01 6.00000E+00
 -1       252 5.00000E-01 5.00000E-01 6.00000E+00
 -1       253 7.50000E-01 5.00000E-01 6.00000E+00
 -1       254 5.00000E-01 7.50000E-01 6.00000E+00
 -1       255 5.00000E-01 5.00000E-01 6.50000E+00
 -1       256 5.00000E-01 2.50000E-01 7.00000E+00
 -1       257 2.50000E-01 5.00000E-01 7.00000E+00
 -1       258 5.00000E-01 5.00000E-01 7.00000E+00
 -1       259 7.50000E-01 5.00000E-01 7.00000E+00
 -1       260 5.00000E-01 7.50000E-01 7.00000E+00
 -1       261 5.00000E-01 5.00000E-01 7.50000E+00
 -3
    3C                            32                                     1
 -1         1    4    0    1
 -2         1        10        95        19        61       105       222       192         9        93
 -2        94        20        62       103       219       190       104       220       221       193
 -1         2    4    0    1
 -2        10         2        13        95       105        34       134       222        11        12
 -2        96        93       103        33       132       219       106       133       223       220
 -1         3    4    0    1
 -2        19        95        16         4       192       222       163        79        94        97
 -2        17        18       190       219       161        78       221       224       164       191
 -1         4    4    0    1
 -2        95        13         3        16       222       134        64       163        96        14
 -2        15        97       219       132        63       161       223       135       162       224
 -1         5    4    0    1
 -2        61       105       222       192        59       109       228       196       104       220
 -2       221       193        60       107       225       194       108       226       227       197
 -1         6    4    0    1
 -2       105        34       134       222       109        36       138       228       106       133
 -2       223       220       107        35       136       225       110       137       229       226
 -1         7    4    0    1
 -2       192       222       163        79       196       228       167        81       221       224
 -2       164       191       194       225       165        80       227       230       168       195
 -1         8    4    0    1
 -2       222       134        64       163       228       138        66       167       223       135
 -2       162       224       225       136        65       165       229       139       166       230
 -1         9    4    0    1
 -2        59       109       228       196        57       113       234       200       108       226
 -2       227       197        58       111       231       198       112       232       233       201
 -1        10    4    0    1
 -2       109        36       138       228       113        38       142       234       110       137
 -2       229       226       111        37       140       231       114       141       235       232
 -1        11    4    0    1
 -2       196       228       167        81       200       234       171        83       227       230
 -2       168       195       198       231       169        82       233       236       172       199
 -1        12    4    0    1
 -2       228       138        66       167       234       142        68       171       229       139
 -2       166       230       231       140        67       169       235       143       170       236
 -1        13    4    0    1
 -2        57       113       234       200        55       117       240       204       112       232
 -2       233       201        56       115       237       202       116       238       239       205
 -1        14    4    0    1
 -2       113        38       142       234       117        40       146       240       114       141
 -2       235       232       115        39       144       237       118       145       241       238
 -1        15    4    0    1
 -2       200       234       171        83       204       240       175        85       233       236
 -2       172       199       202       237       173        84       239       242       176       203
 -1        16    4    0    1
 -2       234       142        68       171       240       146        70       175       235       143
 -2       170       236       237       144        69       173       241       147       174       242
 -1        17    4    0    1
 -2        55       117       240       204        53       121       246       208       116       238
 -2       239       205        54       119       243       206       120       244       245       209
 -1        18    4    0    1
 -2       117        40       146       240       121        42       150       246       118       145
 -2       241       238       119        41       148       243       122       149       247       244
 -1        19    4    0    1
 -2       204       240       175        85       208       246       179        87       239       242
 -2       176       203       206       243       177        86       245       248       180       207
 -1        20    4    0    1
 -2       240       146        70       175       246       150        72       179       241       147
 -2       174       242       243       148        71       177       247       151       178       248
 -1        21    4    0    1
 -2        53       121       246       208        51       125       252       212       120       244
 -2       245       209        52       123       249       210       124       250       251       213
 -1        22    4    0    1
 -2       121        42       150       246       125        44       154       252       122       149
 -2       247       244       123        43       152       249       126       153       253       250
 -1        23    4    0    1
 -2       208       246       179        87       212       252       183        89       245       248
 -2       180       207       210       249       181        88       251       254       184       211
 -1        24    4    0    1
 -2       246       150        72       179       252       154        74       183       247       151
 -2       178       248       249       152        73       181       253       155       182       254
 -1        25    4    0    1
 -2        51       125       252       212        49       129       258       216       124       250
 -2       251       213        50       127       255       214       128       256       257       217
 -1        26    4    0    1
 -2       125        44       154       252       129        46       158       258       126       153
 -2       253       250       127        45       156       255       130       157       259       256
 -1        27    4    0    1
 -2       212       252       183        89       216       258       187        91       251       254
 -2       184       211       214       255       185        90       257       260       188       215
 -1        28    4    0    1
 -2       252       154        74       183       258       158        76       187       253       155
 -2       182       254       255       156        75       185       259       159       186       260
 -1        29    4    0    1
 -2        49       129       258       216         5        22       100        31       128       256
 -2       257       217        48       131       261       218        21        98        99        32
 -1        30    4    0    1
 -2       129        46       158       258        22         6        25       100       130       157
 -2       259       256       131        47       160       261        23        24       101        98
 -1        31    4    0    1
 -2       216       258       187        91        31       100        28         8       257       260
 -2       188       215       218       261       189        92        99       102        29        30
 -1        32    4    0    1
 -2       258       158        76       187       100        25         7        28       259       159
 -2       186       260       261       160        77       189       101        26        27       102
 -3
    1PSTEP                         1           1           1          
  100CL  101 1.000000000         261                     0    1           1
 -4  TOSTRAIN    6    1
 -5  EXX         1    4    1    1
 -5  EYY         1    4    2    2
 -5  EZZ         1    4    3    3
 -5  EXY         1    4    1    2
 -5  EYZ         1    4    2    3
 -5  EZX         1    4    3    1
 -1         1 2.56352E-13 5.57287E-13-2.08111E-12 3.57566E-13 9.77433E-13-2.98902E-13
 -1         2 2.56354E-13 5.57283E-13-2.08110E-12-3.57567E-13 9.77442E-13 2.98898E-13
 -1         3 2.56355E-13 5.57283E-13-2.08110E-12 3.57567E-13-9.77440E-13 2.98894E-13
 -1         4 2.56355E-13 5.57285E-13-2.08110E-12-3.57564E-13-9.77437E-13-2.98896E-13
 -1         5-4.04693E-13-4.04605E-13 2.96915E-12 3.49230E-13 2.58576E-12 2.58575E-12
 -1         6-4.04690E-13-4.04647E-13 2.96914E-12-3.49360E-13 2.58576E-12-2.58574E-12
 -1         7-4.04701E-13-4.04617E-13 2.96916E-12 3.49332E-13-2.58575E-12-2.58575E-12
 -1         8-4.04679E-13-4.04712E-13 2.96915E-12-3.49175E-13-2.58579E-12 2.58574E-12
 -1         9 3.78091E-14 8.21965E-13-2.13481E-12 2.93235E-13 8.88907E-13-1.14393E-13
 -1        10-1.80737E-13 1.08664E-12-2.18852E-12 1.24879E-18 8.00380E-13 2.33050E-18
 -1        11 3.78071E-14 8.21965E-13-2.13481E-12-2.93234E-13 8.88911E-13 1.14393E-13
 -1        12-2.39586E-13-3.40397E-13 1.45493E-12 3.35187E-14-1.21164E-12-1.59471E-13
 -1        13-7.35527E-13-1.23808E-12 4.99097E-12-3.18742E-19-2.40727E-18-6.17837E-13
 -1        14-2.39586E-13-3.40396E-13 1.45493E-12-3.35187E-14 1.21164E-12-1.59471E-13
 -1        15 3.78085E-14 8.21966E-13-2.13481E-12 2.93236E-13-8.88909E-13 1.14391E-13
 -1        16-1.80737E-13 1.08664E-12-2.18851E-12 3.16577E-19-8.00379E-13 2.12109E-19
 -1        17 3.78097E-14 8.21963E-13-2.13481E-12-2.93234E-13-8.88909E-13-1.14391E-13
 -1        18-2.39586E-13-3.40397E-13 1.45493E-12 3.35200E-14 1.21164E-12 1.59470E-13
 -1        19-7.35528E-13-1.23808E-12 4.99097E-12-1.64153E-18 4.90080E-20 6.17837E-13
 -1        20-2.39588E-13-3.40395E-13 1.45493E-12-3.35209E-14-1.21164E-12 1.59468E-13
 -1        21-1.28629E-13 8.71028E-13-2.07194E-12 4.01731E-13-8.69644E-13-1.27431E-12
 -1        22 1.47404E-13 2.14675E-12-7.11304E-12 5.96524E-17-4.32507E-12-9.40530E-18
 -1        23-1.28658E-13 8.71100E-13-2.07195E-12-4.01737E-13-8.69664E-13 1.27431E-12
 -1        24 8.71026E-13-1.28660E-13-2.07191E-12-4.01763E-13-1.27433E-12 8.69716E-13
 -1        25 2.14675E-12 1.47359E-13-7.11296E-12 3.74526E-17-7.59521E-18 4.32517E-12
 -1        26 8.71030E-13-1.28613E-13-2.07190E-12 4.01786E-13 1.27433E-12 8.69713E-13
 -1        27-1.28658E-13 8.71089E-13-2.07194E-12 4.01744E-13 8.69657E-13 1.27430E-12
 -1        28 1.47405E-13 2.14676E-12-7.11303E-12-9.22770E-17 4.32506E-12-4.52275E-18
 -1        29-1.28627E-13 8.71005E-13-2.07194E-12-4.01758E-13 8.69634E-13-1.27432E-12
 -1        30 8.71012E-13-1.28649E-13-2.07191E-12-4.01684E-13 1.27430E-12-8.69716E-13
 -1        31 2.14671E-12 1.47386E-13-7.11296E-12 1.98967E-18-1.03987E-17-4.32517E-12
 -1        32 8.71009E-13-1.28623E-13-2.07191E-12 4.01713E-13-1.27433E-12-8.69712E-13
 -1        33-1.37806E-13-1.87066E-13 3.34813E-13-1.73225E-13 1.41108E-14-4.43397E-14
 -1        34-6.01053E-13-5.28929E-13 2.15962E-12 1.05548E-13-4.84592E-13-7.85504E-14
 -1        35-5.44766E-13-4.07656E-13 1.62912E-12 4.88868E-14-4.45354E-14 5.64259E-14
 -1        36-4.55863E-13-6.00428E-13 1.69034E-12-4.68532E-14 5.03646E-15-4.98660E-14
 -1        37-4.99194E-13-5.05327E-13 1.68015E-12-2.34083E-15 3.27938E-14-6.99443E-16
 -1        38-5.05007E-13-4.94774E-13 1.67645E-12-7.25950E-15-3.29707E-14 1.10663E-14
 -1        39-5.08326E-13-5.05148E-13 1.67684E-12 1.07290E-14 4.40588E-15-9.26053E-15
 -1        40-4.96293E-13-5.00781E-13 1.68841E-12-1.30121E-14 8.14793E-15-5.27885E-15
 -1        41-5.04168E-13-5.04629E-13 1.67507E-12 1.79135E-15-1.27291E-14 1.44622E-14
 -1        42-4.79246E-13-4.78343E-13 1.66029E-12-5.89032E-14-1.22758E-13 1.21728E-13
 -1        43-5.41800E-13-5.41686E-13 1.70247E-12 6.48407E-14 1.36640E-13-1.37070E-13
 -1        44-5.51701E-13-5.51916E-13 1.60276E-12-9.96080E-14 2.33444E-13-2.33205E-13
 -1        45-3.97134E-13-3.97123E-13 1.81578E-12-5.85114E-15-4.22003E-13 4.22161E-13
 -1        46-5.16408E-13-5.16420E-13 1.04358E-12 1.64076E-13-5.74720E-13 5.74654E-13
 -1        47-5.46545E-13-5.46638E-13 1.45123E-12-2.54306E-13 1.10451E-12-1.10455E-12
 -1        48-5.46550E-13-5.46477E-13 1.45122E-12 2.54284E-13 1.10452E-12 1.10455E-12
 -1        49-5.16404E-13-5.16383E-13 1.04360E-12-1.63990E-13-5.74743E-13-5.74664E-13
 -1        50-3.97130E-13-3.97220E-13 1.81579E-12 5.89176E-15-4.22024E-13-4.22160E-13
 -1        51-5.51703E-13-5.52090E-13 1.60275E-12 9.95850E-14 2.33479E-13 2.33211E-13
 -1        52-5.41795E-13-5.41768E-13 1.70248E-12-6.48306E-14 1.36611E-13 1.37070E-13
 -1        53-4.79249E-13-4.78251E-13 1.66029E-12 5.89394E-14-1.22810E-13-1.21729E-13
 -1        54-5.04173E-13-5.04670E-13 1.67506E-12-1.77920E-15-1.27413E-14-1.44622E-14
 -1        55-4.96290E-13-5.00806E-13 1.68841E-12 1.29854E-14 8.15769E-15 5.27635E-15
 -1        56-5.08323E-13-5.05147E-13 1.67684E-12-1.07352E-14 4.40620E-15 9.25819E-15
 -1        57-5.05005E-13-4.94774E-13 1.67644E-12 7.30402E-15-3.29776E-14-1.10661E-14
 -1        58-4.99194E-13-5.05341E-13 1.68015E-12 2.34911E-15 3.27950E-14 6.99263E-16
 -1        59-4.55865E-13-6.00436E-13 1.69033E-12 4.68402E-14 5.03478E-15 4.98666E-14
 -1        60-5.44765E-13-4.07648E-13 1.62912E-12-4.88880E-14-4.45382E-14-5.64257E-14
 -1        61-6.01051E-13-5.28929E-13 2.15962E-12-1.05545E-13-4.84595E-13 7.85549E-14
 -1        62-1.37806E-13-1.87058E-13 3.34814E-13 1.73225E-13 1.41079E-14 4.43411E-14
 -1        63-1.37806E-13-1.87069E-13 3.34812E-13 1.73224E-13-1.41075E-14-4.43449E-14
 -1        64-6.01053E-13-5.28945E-13 2.15961E-12-1.05551E-13 4.84596E-13-7.85536E-14
 -1        65-5.44764E-13-4.07644E-13 1.62912E-12-4.88884E-14 4.45381E-14 5.64261E-14
 -1        66-4.55861E-13-6.00396E-13 1.69034E-12 4.68428E-14-5.04646E-15-4.98649E-14
 -1        67-4.99196E-13-5.05313E-13 1.68015E-12 2.33321E-15-3.28017E-14-7.01841E-16
 -1        68-5.05007E-13-4.94743E-13 1.67644E-12 7.27388E-15 3.29781E-14 1.10667E-14
 -1        69-5.08321E-13-5.05140E-13 1.67684E-12-1.07445E-14-4.41498E-15-9.25722E-15
 -1        70-4.96292E-13-5.00736E-13 1.68841E-12 1.29830E-14-8.15781E-15-5.28343E-15
 -1        71-5.04174E-13-5.04613E-13 1.67506E-12-1.78331E-15 1.27188E-14 1.44658E-14
 -1        72-4.79245E-13-4.78353E-13 1.66029E-12 5.89169E-14 1.22765E-13 1.21736E-13
 -1        73-5.41796E-13-5.41714E-13 1.70248E-12-6.48715E-14-1.36620E-13-1.37073E-13
 -1        74-5.51707E-13-5.51914E-13 1.60276E-12 9.95520E-14-2.33424E-13-2.33207E-13
 -1        75-3.97132E-13-3.97236E-13 1.81578E-12 5.87369E-15 4.22022E-13 4.22170E-13
 -1        76-5.16401E-13-5.16507E-13 1.04359E-12-1.63998E-13 5.74710E-13 5.74661E-13
 -1        77-5.46550E-13-5.46532E-13 1.45122E-12 2.54326E-13-1.10451E-12-1.10456E-12
 -1        78-1.37808E-13-1.87057E-13 3.34816E-13-1.73224E-13-1.41058E-14 4.43404E-14
 -1        79-6.01054E-13-5.28923E-13 2.15962E-12 1.05547E-13 4.84595E-13 7.85483E-14
 -1        80-5.44765E-13-4.07656E-13 1.62912E-12 4.88910E-14 4.45340E-14-5.64265E-14
 -1        81-4.55864E-13-6.00423E-13 1.69034E-12-4.68263E-14-5.04046E-15 4.98696E-14
 -1        82-4.99196E-13-5.05330E-13 1.68015E-12-2.33256E-15-3.27933E-14 7.02369E-16
 -1        83-5.05010E-13-4.94750E-13 1.67644E-12-7.26801E-15 3.29683E-14-1.10672E-14
 -1        84-5.08324E-13-5.05142E-13 1.67684E-12 1.07557E-14-4.41332E-15 9.25846E-15
 -1        85-4.96291E-13-5.00774E-13 1.68841E-12-1.29990E-14-8.13411E-15 5.28112E-15
 -1        86-5.04177E-13-5.04622E-13 1.67507E-12 1.78977E-15 1.27224E-14-1.44629E-14
 -1        87-4.79248E-13-4.78341E-13 1.66029E-12-5.88957E-14 1.22745E-13-1.21734E-13
 -1        88-5.41793E-13-5.41711E-13 1.70248E-12 6.48800E-14-1.36641E-13 1.37072E-13
 -1        89-5.51700E-13-5.51846E-13 1.60275E-12-9.95639E-14-2.33463E-13 2.33211E-13
 -1        90-3.97130E-13-3.97088E-13 1.81579E-12-5.90543E-15 4.22041E-13-4.22159E-13
 -1        91-5.16410E-13-5.16446E-13 1.04361E-12 1.63972E-13 5.74768E-13-5.74655E-13
 -1        92-5.46547E-13-5.46610E-13 1.45122E-12-2.54258E-13-1.10452E-12 1.10455E-12
 -1        93-4.58133E-13 2.10939E-13 1.39378E-12 1.70307E-18-1.19930E-12 1.07578E-18