# vtk DataFile Version 3.0

ASCII
DATASET UNSTRUCTURED_GRID

POINTS 80 double
	 0.00000000E+00	 0.00000000E+00	-5.00000000E-03
	 0.00000000E+00	 0.00000000E+00	 0.00000000E+00
	 0.00000000E+00	 0.00000000E+00	 5.00000000E-03
	 0.00000000E+00	 0.00000000E+00	-5.00000000E-03
	 0.00000000E+00	 0.00000000E+00	 0.00000000E+00
	 0.00000000E+00	 0.00000000E+00	 5.00000000E-03
	 0.00000000E+00	 0.00000000E+00	-5.00000000E-03
	 0.00000000E+00	 0.00000000E+00	 0.00000000E+00
	 0.00000000E+00	 0.00000000E+00	 5.00000000E-03
	 0.00000000E+00	 0.00000000E+00	-5.00000000E-03
	 0.00000000E+00	 0.00000000E+00	 0.00000000E+00
	 0.00000000E+00	 0.00000000E+00	 5.00000000E-03
	 1.00000000E+00	 0.00000000E+00	-5.00000000E-03
	 1.00000000E+00	 0.00000000E+00	 0.00000000E+00
	 1.00000000E+00	 0.00000000E+00	 5.00000000E-03
	 1.00000000E+00	 0.00000000E+00	-5.00000000E-03
	 1.00000000E+00	 0.00000000E+00	 0.00000000E+00
	 1.00000000E+00	 0.00000000E+00	 5.00000000E-03
	 1.00000000E+00	 1.00000000E+00	-5.00000000E-03
	 1.00000000E+00	 1.00000000E+00	 0.00000000E+00
	 1.00000000E+00	 1.00000000E+00	 5.00000000E-03
	 0.00000000E+00	 1.00000000E+00	-5.00000000E-03
	 0.00000000E+00	 1.00000000E+00	 0.00000000E+00
	 0.00000000E+00	 1.00000000E+00	 5.00000000E-03
	 0.00000000E+00	 1.00000000E+00	-5.00000000E-03
	 0.00000000E+00	 1.00000000E+00	 0.00000000E+00
	 0.00000000E+00	 1.00000000E+00	 5.00000000E-03
	-1.00000000E+00	 1.00000000E+00	-5.00000000E-03
	-1.00000000E+00	 1.00000000E+00	 0.00000000E+00
	-1.00000000E+00	 1.00000000E+00	 5.00000000E-03
	-1.00000000E+00	 0.00000000E+00	-5.00000000E-03
	-1.00000000E+00	 0.00000000E+00	 0.00000000E+00
	-1.00000000E+00	 0.00000000E+00	 5.00000000E-03
	-1.00000000E+00	 0.00000000E+00	-5.00000000E-03
	-1.00000000E+00	 0.00000000E+00	 0.00000000E+00
	-1.00000000E+00	 0.00000000E+00	 5.00000000E-03
	-1.00000000E+00	-1.00000000E+00	-5.00000000E-03
	-1.00000000E+00	-1.00000000E+00	 0.00000000E+00
	-1.00000000E+00	-1.00000000E+00	 5.00000000E-03
	 0.00000000E+00	-1.00000000E+00	-5.00000000E-03
	 0.00000000E+00	-1.00000000E+00	 0.00000000E+00
	 0.00000000E+00	-1.00000000E+00	 5.00000000E-03
	 0.00000000E+00	-1.00000000E+00	-5.00000000E-03
	 0.00000000E+00	-1.00000000E+00	 0.00000000E+00
	 0.00000000E+00	-1.00000000E+00	 5.00000000E-03
	 1.00000000E+00	-1.00000000E+00	-5.00000000E-03
	 1.00000000E+00	-1.00000000E+00	 0.00000000E+00
	 1.00000000E+00	-1.00000000E+00	 5.00000000E-03
	 5.00000000E-01	-1.00000000E+00	-5.00000000E-03
	 5.00000000E-01	-1.00000000E+00	 5.00000000E-03
	 1.00000000E+00	-5.00000000E-01	-5.00000000E-03
	 1.00000000E+00	-5.00000000E-01	 5.00000000E-03
	 1.00000000E+00	 5.00000000E-01	-5.00000000E-03
	 1.00000000E+00	 5.00000000E-01	 5.00000000E-03
	 5.00000000E-01	 1.00000000E+00	-5.00000000E-03
	 5.00000000E-01	 1.00000000E+00	 5.00000000E-03
	-5.00000000E-01	 1.00000000E+00	-5.00000000E-03
	-5.00000000E-01	 1.00000000E+00	 5.00000000E-03
	-1.00000000E+00	 5.00000000E-01	-5.00000000E-03
	-1.00000000E+00	 5.00000000E-01	 5.00000000E-03
	-1.00000000E+00	-5.00000000E-01	-5.00000000E-03
	-1.00000000E+00	-5.00000000E-01	 5.00000000E-03
	-5.00000000E-01	-1.00000000E+00	-5.00000000E-03
	-5.00000000E-01	-1.00000000E+00	 5.00000000E-03
	 0.00000000E+00	-5.00000000E-01	-5.00000000E-03
	 0.00000000E+00	-5.00000000E-01	 5.00000000E-03
	 0.00000000E+00	-5.00000000E-01	-5.00000000E-03
	 0.00000000E+00	-5.00000000E-01	 5.00000000E-03
	 5.00000000E-01	 0.00000000E+00	-5.00000000E-03
	 5.00000000E-01	 0.00000000E+00	 5.00000000E-03
	 5.00000000E-01	 0.00000000E+00	-5.00000000E-03
	 5.00000000E-01	 0.00000000E+00	 5.00000000E-03
	 0.00000000E+00	 5.00000000E-01	-5.00000000E-03
	 0.00000000E+00	 5.00000000E-01	 5.00000000E-03
	 0.00000000E+00	 5.00000000E-01	-5.00000000E-03
	 0.00000000E+00	 5.00000000E-01	 5.00000000E-03
	-5.00000000E-01	 0.00000000E+00	-5.00000000E-03
	-5.00000000E-01	 0.00000000E+00	 5.00000000E-03
	-5.00000000E-01	 0.00000000E+00	-5.00000000E-03
	-5.00000000E-01	 0.00000000E+00	 5.00000000E-03

CELLS 4 84
	20 0 12 18 21 2 14 20 23 68 52 54 72 69 53 55 73 1 13 19 22 
	20 3 24 27 30 5 26 29 32 74 56 58 76 75 57 59 77 4 25 28 31 
	20 6 33 36 39 8 35 38 41 78 60 62 64 79 61 63 65 7 34 37 40 
	20 9 42 45 15 11 44 47 17 66 48 50 70 67 49 51 71 10 43 46 16 

CELL_TYPES 4
	25
	25
	25
	25

POINT_DATA 80
FIELD U 1
	U 3 80 double
		 2.65798000E-05	 2.65798000E-05	-5.30598000E-03
		 3.97418000E-09	 3.97418000E-09	-5.30618000E-03
		-2.65798000E-05	-2.65798000E-05	-5.30639000E-03
		-2.65798000E-05	 2.65798000E-05	-5.30598000E-03
		-3.97418000E-09	 3.97418000E-09	-5.30618000E-03
		 2.65798000E-05	-2.65798000E-05	-5.30639000E-03
		-2.65798000E-05	-2.65798000E-05	-5.30598000E-03
		-3.97418000E-09	-3.97418000E-09	-5.30618000E-03
		 2.65798000E-05	 2.65798000E-05	-5.30639000E-03
		 2.65798000E-05	-2.65798000E-05	-5.30598000E-03
		 3.97418000E-09	-3.97418000E-09	-5.30618000E-03
		-2.65798000E-05	 2.65798000E-05	-5.30639000E-03
		 2.64751000E-05	 2.61561000E-09	 9.93349000E-08
		-2.71899000E-09	-1.00232000E-09	 0.00000000E+00
		-2.64751000E-05	-2.61561000E-09	-9.93349000E-08
		 2.64751000E-05	-2.61561000E-09	 9.93349000E-08
		-2.71899000E-09	 1.00232000E-09	 0.00000000E+00
		-2.64751000E-05	 2.61561000E-09	-9.93349000E-08
		 2.61054000E-09	 2.61054000E-09	 0.00000000E+00
		 0.00000000E+00	 0.00000000E+00	 0.00000000E+00
		-2.61054000E-09	-2.61054000E-09	 0.00000000E+00
		 2.61561000E-09	 2.64751000E-05	 9.93349000E-08
		-1.00232000E-09	-2.71899000E-09	 0.00000000E+00
		-2.61561000E-09	-2.64751000E-05	-9.93349000E-08
		-2.61561000E-09	 2.64751000E-05	 9.93349000E-08
		 1.00232000E-09	-2.71899000E-09	 0.00000000E+00
		 2.61561000E-09	-2.64751000E-05	-9.93349000E-08
		-2.61054000E-09	 2.61054000E-09	 0.00000000E+00
		 0.00000000E+00	 0.00000000E+00	 0.00000000E+00
		 2.61054000E-09	-2.61054000E-09	 0.00000000E+00
		-2.64751000E-05	 2.61561000E-09	 9.93349000E-08
		 2.71899000E-09	-1.00232000E-09	 0.00000000E+00
		 2.64751000E-05	-2.61561000E-09	-9.93349000E-08
		-2.64751000E-05	-2.61561000E-09	 9.93349000E-08
		 2.71899000E-09	 1.00232000E-09	 0.00000000E+00
		 2.64751000E-05	 2.61561000E-09	-9.93349000E-08
		-2.61054000E-09	-2.61054000E-09	 0.00000000E+00
		 0.00000000E+00	 0.00000000E+00	 0.00000000E+00
		 2.61054000E-09	 2.61054000E-09	 0.00000000E+00
		-2.61561000E-09	-2.64751000E-05	 9.93349000E-08
		 1.00232000E-09	 2.71899000E-09	 0.00000000E+00
		 2.61561000E-09	 2.64751000E-05	-9.93349000E-08
		 2.61561000E-09	-2.64751000E-05	 9.93349000E-08
		-1.00232000E-09	 2.71899000E-09	 0.00000000E+00
		-2.61561000E-09	 2.64751000E-05	-9.93349000E-08
		 2.61054000E-09	-2.61054000E-09	 0.00000000E+00
		 0.00000000E+00	 0.00000000E+00	 0.00000000E+00
		-2.61054000E-09	 2.61054000E-09	 0.00000000E+00
		 2.61859000E-09	-1.32259000E-05	 2.46153000E-08
		-2.61859000E-09	 1.32259000E-05	-2.46153000E-08
		 1.32259000E-05	-2.61859000E-09	 2.46153000E-08
		-1.32259000E-05	 2.61859000E-09	-2.46153000E-08
		 1.32259000E-05	 2.61859000E-09	 2.46153000E-08
		-1.32259000E-05	-2.61859000E-09	-2.46153000E-08
		 2.61859000E-09	 1.32259000E-05	 2.46153000E-08
		-2.61859000E-09	-1.32259000E-05	-2.46153000E-08
		-2.61859000E-09	 1.32259000E-05	 2.46153000E-08
		 2.61859000E-09	-1.32259000E-05	-2.46153000E-08
		-1.32259000E-05	 2.61859000E-09	 2.46153000E-08
		 1.32259000E-05	-2.61859000E-09	-2.46153000E-08
		-1.32259000E-05	-2.61859000E-09	 2.46153000E-08
		 1.32259000E-05	 2.61859000E-09	-2.46153000E-08
		-2.61859000E-09	-1.32259000E-05	 2.46153000E-08
		 2.61859000E-09	 1.32259000E-05	-2.46153000E-08
		-1.32783000E-05	-2.66227000E-05	-2.65033000E-03
		 1.32783000E-05	 2.64325000E-05	-2.65059000E-03
		 1.32783000E-05	-2.66227000E-05	-2.65033000E-03
		-1.32783000E-05	 2.64325000E-05	-2.65059000E-03
		 2.66227000E-05	 1.32783000E-05	-2.65033000E-03
		-2.64325000E-05	-1.32783000E-05	-2.65059000E-03
		 2.66227000E-05	-1.32783000E-05	-2.65033000E-03
		-2.64325000E-05	 1.32783000E-05	-2.65059000E-03
		 1.32783000E-05	 2.66227000E-05	-2.65033000E-03
		-1.32783000E-05	-2.64325000E-05	-2.65059000E-03
		-1.32783000E-05	 2.66227000E-05	-2.65033000E-03
		 1.32783000E-05	-2.64325000E-05	-2.65059000E-03
		-2.66227000E-05	 1.32783000E-05	-2.65033000E-03
		 2.64325000E-05	-1.32783000E-05	-2.65059000E-03
		-2.66227000E-05	-1.32783000E-05	-2.65033000E-03
		 2.64325000E-05	 1.32783000E-05	-2.65059000E-03
FIELD S 1
	S 10 80 double
		 4.31944000E+00	 4.31944000E+00	 1.88210000E-03	-2.02064000E+00	 1.78072000E-01	 1.78072000E-01	 5.57499077E+00	-2.54043451E-02	 2.32608645E+00	 6.34008000E+00
		 4.34914000E+00	 4.34914000E+00	-3.02316000E-03	 2.28187000E+00	 7.77895000E-02	 7.77895000E-02	 5.88204246E+00	-4.84695046E-03	 2.06727000E+00	 6.63283379E+00
		 4.38472000E+00	 4.38472000E+00	-4.51164000E-03	 6.58590000E+00	-2.24656000E-02	-2.24656000E-02	 1.22225455E+01	-2.20118000E+00	-4.60361137E-03	 1.09707120E+01
		 4.31944000E+00	 4.31944000E+00	 1.88210000E-03	 2.02064000E+00	 1.78072000E-01	-1.78072000E-01	 5.57499077E+00	-2.54043451E-02	 2.32608645E+00	 6.34008000E+00
		 4.34914000E+00	 4.34914000E+00	-3.02316000E-03	-2.28187000E+00	 7.77895000E-02	-7.77895000E-02	 5.88204246E+00	-4.84695046E-03	 2.06727000E+00	 6.63283379E+00
		 4.38472000E+00	 4.38472000E+00	-4.51164000E-03	-6.58590000E+00	-2.24656000E-02	 2.24656000E-02	 1.22225455E+01	-2.20118000E+00	-4.60361137E-03	 1.09707120E+01
		 4.31944000E+00	 4.31944000E+00	 1.88210000E-03	-2.02064000E+00	-1.78072000E-01	-1.78072000E-01	 5.57499077E+00	-2.54043451E-02	 2.32608645E+00	 6.34008000E+00
		 4.34914000E+00	 4.34914000E+00	-3.02316000E-03	 2.28187000E+00	-7.77895000E-02	-7.77895000E-02	 5.88204246E+00	-4.84695046E-03	 2.06727000E+00	 6.63283379E+00
		 4.38472000E+00	 4.38472000E+00	-4.51164000E-03	 6.58590000E+00	 2.24656000E-02	 2.24656000E-02	 1.22225455E+01	-2.20118000E+00	-4.60361137E-03	 1.09707120E+01
		 4.31944000E+00	 4.31944000E+00	 1.88210000E-03	 2.02064000E+00	-1.78072000E-01	 1.78072000E-01	 5.57499077E+00	-2.54043451E-02	 2.32608645E+00	 6.34008000E+00
		 4.34914000E+00	 4.34914000E+00	-3.02316000E-03	-2.28187000E+00	-7.77895000E-02	 7.77895000E-02	 5.88204246E+00	-4.84695046E-03	 2.06727000E+00	 6.63283379E+00
		 4.38472000E+00	 4.38472000E+00	-4.51164000E-03	-6.58590000E+00	 2.24656000E-02	-2.24656000E-02	 1.22225455E+01	-2.20118000E+00	-4.60361137E-03	 1.09707120E+01
		 3.12328000E+00	 9.37092000E-01	-2.14015000E-03	-4.28457000E+00	-1.01673000E-01	-2.96312000E-02	 7.92598130E+00	-2.39567422E+00	 1.67566256E-03	 6.45223040E+00
		 3.14519000E+00	 9.44175000E-01	-6.63303000E-04	 6.60083000E-05	-4.18347000E-02	 5.84843000E-02	 2.79862491E+00	-3.59626233E-03	 9.46020828E-01	 3.14627713E+00
		 3.17111000E+00	 9.52785000E-01	 2.36350000E-03	 4.28497000E+00	 1.80278000E-02	 1.46640000E-01	 7.94235476E+00	-2.36665679E+00	 2.28618293E-03	 6.49062911E+00
		 3.12328000E+00	 9.37092000E-01	-2.14015000E-03	 4.28457000E+00	 1.01673000E-01	-2.96312000E-02	 7.92598130E+00	-2.39567422E+00	 1.67566256E-03	 6.45223040E+00
		 3.14519000E+00	 9.44175000E-01	-6.63303000E-04	-6.60083000E-05	 4.18347000E-02	 5.84843000E-02	 2.79862491E+00	-3.59626233E-03	 9.46020828E-01	 3.14627713E+00
		 3.17111000E+00	 9.52785000E-01	 2.36350000E-03	-4.28497000E+00	-1.80278000E-02	 1.46640000E-01	 7.94235476E+00	-2.36665679E+00	 2.28618293E-03	 6.49062911E+00
		 1.21073000E-03	 1.21073000E-03	 2.99111000E-04	-4.26800000E+00	-4.16554000E-02	-4.16554000E-02	 7.39309704E+00	-4.26760240E+00	 1.11223771E-03	 4.26921073E+00
		 1.39215000E-03	 1.39215000E-03	 4.63747000E-04	 4.65708000E-04	-4.17417000E-02	-4.17417000E-02	 1.02253263E-01	-5.78749911E-02	 9.26442000E-04	 6.01965961E-02
		 1.23118000E-03	 1.23118000E-03	 3.11682000E-04	 4.26796000E+00	-4.18173000E-02	-4.18173000E-02	 7.39303325E+00	-4.26672882E+00	-5.07432761E-04	 4.27001029E+00
		 9.37092000E-01	 3.12328000E+00	-2.14015000E-03	-4.28457000E+00	-2.96312000E-02	-1.01673000E-01	 7.92598130E+00	-2.39567422E+00	 1.67566256E-03	 6.45223040E+00
		 9.44175000E-01	 3.14519000E+00	-6.63303000E-04	 6.60083000E-05	 5.84843000E-02	-4.18347000E-02	 2.79862491E+00	-3.59626233E-03	 9.46020828E-01	 3.14627713E+00
		 9.52785000E-01	 3.17111000E+00	 2.36350000E-03	 4.28497000E+00	 1.46640000E-01	 1.80278000E-02	 7.94235476E+00	-2.36665679E+00	 2.28618293E-03	 6.49062911E+00
		 9.37092000E-01	 3.12328000E+00	-2.14015000E-03	 4.28457000E+00	-2.96312000E-02	 1.01673000E-01	 7.92598130E+00	-2.39567422E+00	 1.67566256E-03	 6.45223040E+00
		 9.44175000E-01	 3.14519000E+00	-6.63303000E-04	-6.60083000E-05	 5.84843000E-02	 4.18347000E-02	 2.79862491E+00	-3.59626233E-03	 9.46020828E-01	 3.14627713E+00
		 9.52785000E-01	 3.17111000E+00	 2.36350000E-03	-4.28497000E+00	 1.46640000E-01	-1.80278000E-02	 7.94235476E+00	-2.36665679E+00	 2.28618293E-03	 6.49062911E+00
		 1.21073000E-03	 1.21073000E-03	 2.99111000E-04	 4.26800000E+00	-4.16554000E-02	 4.16554000E-02	 7.39309704E+00	-4.26760240E+00	 1.11223771E-03	 4.26921073E+00
		 1.39215000E-03	 1.39215000E-03	 4.63747000E-04	-4.65708000E-04	-4.17417000E-02	 4.17417000E-02	 1.02253263E-01	-5.78749911E-02	 9.26442000E-04	 6.01965961E-02
		 1.23118000E-03	 1.23118000E-03	 3.11681000E-04	-4.26796000E+00	-4.18173000E-02	 4.18173000E-02	 7.39303325E+00	-4.26672882E+00	-5.07433761E-04	 4.27001029E+00
		 3.12328000E+00	 9.37092000E-01	-2.14015000E-03	 4.28457000E+00	-1.01673000E-01	 2.96312000E-02	 7.92598130E+00	-2.39567422E+00	 1.67566256E-03	 6.45223040E+00
		 3.14519000E+00	 9.44175000E-01	-6.63303000E-04	-6.60083000E-05	-4.18347000E-02	-5.84843000E-02	 2.79862491E+00	-3.59626233E-03	 9.46020828E-01	 3.14627713E+00
		 3.17111000E+00	 9.52785000E-01	 2.36350000E-03	-4.28497000E+00	 1.80278000E-02	-1.46640000E-01	 7.94235476E+00	-2.36665679E+00	 2.28618293E-03	 6.49062911E+00
		 3.12328000E+00	 9.37092000E-01	-2.14015000E-03	-4.28457000E+00	 1.01673000E-01	 2.96312000E-02	 7.92598130E+00	-2.39567422E+00	 1.67566256E-03	 6.45223040E+00
		 3.14519000E+00	 9.44175000E-01	-6.63303000E-04	 6.60083000E-05	 4.18347000E-02	-5.84843000E-02	 2.79862491E+00	-3.59626233E-03	 9.46020828E-01	 3.14627713E+00
		 3.17111000E+00	 9.52785000E-01	 2.36350000E-03	 4.28497000E+00	-1.80278000E-02	-1.46640000E-01	 7.94235476E+00	-2.36665679E+00	 2.28618293E-03	 6.49062911E+00
		 1.21073000E-03	 1.21073000E-03	 2.99111000E-04	-4.26800000E+00	 4.16554000E-02	 4.16554000E-02	 7.39309704E+00	-4.26760240E+00	 1.11223771E-03	 4.26921073E+00
		 1.39215000E-03	 1.39215000E-03	 4.63747000E-04	 4.65708000E-04	 4.17417000E-02	 4.17417000E-02	 1.02253263E-01	-5.78749911E-02	 9.26442000E-04	 6.01965961E-02
		 1.23118000E-03	 1.23118000E-03	 3.11682000E-04	 4.26796000E+00	 4.18173000E-02	 4.18173000E-02	 7.39303325E+00	-4.26672882E+00	-5.07432761E-04	 4.27001029E+00
		 9.37092000E-01	 3.12328000E+00	-2.14015000E-03	-4.28457000E+00	 2.96312000E-02	 1.01673000E-01	 7.92598130E+00	-2.39567422E+00	 1.67566256E-03	 6.45223040E+00
		 9.44175000E-01	 3.14519000E+00	-6.63303000E-04	 6.60083000E-05	-5.84843000E-02	 4.18347000E-02	 2.79862491E+00	-3.59626233E-03	 9.46020828E-01	 3.14627713E+00
		 9.52785000E-01	 3.17111000E+00	 2.36350000E-03	 4.28497000E+00	-1.46640000E-01	-1.80278000E-02	 7.94235476E+00	-2.36665679E+00	 2.28618293E-03	 6.49062911E+00
		 9.37092000E-01	 3.12328000E+00	-2.14015000E-03	 4.28457000E+00	 2.96312000E-02	-1.01673000E-01	 7.92598130E+00	-2.39567422E+00	 1.67566256E-03	 6.45223040E+00
		 9.44175000E-01	 3.14519000E+00	-6.63303000E-04	-6.60083000E-05	-5.84843000E-02	-4.18347000E-02	 2.79862491E+00	-3.59626233E-03	 9.46020828E-01	 3.14627713E+00
		 9.52785000E-01	 3.17111000E+00	 2.36350000E-03	-4.28497000E+00	-1.46640000E-01	 1.80278000E-02	 7.94235476E+00	-2.36665679E+00	 2.28618293E-03	 6.49062911E+00
		 1.21073000E-03	 1.21073000E-03	 2.99111000E-04	 4.26800000E+00	 4.16554000E-02	-4.16554000E-02	 7.39309704E+00	-4.26760240E+00	 1.11223771E-03	 4.26921073E+00
		 1.39215000E-03	 1.39215000E-03	 4.63747000E-04	-4.65708000E-04	 4.17417000E-02	-4.17417000E-02	 1.02253263E-01	-5.78749911E-02	 9.26442000E-04	 6.01965961E-02
		 1.23118000E-03	 1.23118000E-03	 3.11682000E-04	-4.26796000E+00	 4.18173000E-02	-4.18173000E-02	 7.39303325E+00	-4.26672882E+00	-5.07432761E-04	 4.27001029E+00
		 2.25669000E-01	 7.51360000E-01	-1.98728000E-03	 4.28394000E+00	 4.21198000E-02	-7.17516000E-02	 7.45151314E+00	-3.80521189E+00	-3.28279754E-04	 4.78058189E+00
		 2.33876000E-01	 7.76109000E-01	 6.20888000E-04	-4.26885000E+00	-4.58632000E-02	-1.20161000E-02	 7.42636436E+00	-3.77288535E+00	 9.15029468E-04	 4.78257621E+00
		 7.51360000E-01	 2.25669000E-01	-1.98728000E-03	 4.28394000E+00	 7.17516000E-02	-4.21198000E-02	 7.45151314E+00	-3.80521189E+00	-3.28279754E-04	 4.78058189E+00
		 7.76109000E-01	 2.33876000E-01	 6.20888000E-04	-4.26885000E+00	 1.20161000E-02	 4.58632000E-02	 7.42636436E+00	-3.77288535E+00	 9.15029468E-04	 4.78257621E+00
		 7.51360000E-01	 2.25669000E-01	-1.98728000E-03	-4.28394000E+00	-7.17516000E-02	-4.21198000E-02	 7.45151314E+00	-3.80521189E+00	-3.28279754E-04	 4.78058189E+00
		 7.76109000E-01	 2.33876000E-01	 6.20888000E-04	 4.26885000E+00	-1.20161000E-02	 4.58632000E-02	 7.42636436E+00	-3.77288535E+00	 9.15029468E-04	 4.78257621E+00
		 2.25669000E-01	 7.51360000E-01	-1.98728000E-03	-4.28394000E+00	-4.21198000E-02	-7.17516000E-02	 7.45151314E+00	-3.80521189E+00	-3.28279754E-04	 4.78058189E+00
		 2.33876000E-01	 7.76109000E-01	 6.20888000E-04	 4.26885000E+00	 4.58632000E-02	-1.20161000E-02	 7.42636436E+00	-3.77288535E+00	 9.15029468E-04	 4.78257621E+00
		 2.25669000E-01	 7.51360000E-01	-1.98728000E-03	 4.28394000E+00	-4.21198000E-02	 7.17516000E-02	 7.45151314E+00	-3.80521189E+00	-3.28279754E-04	 4.78058189E+00
		 2.33876000E-01	 7.76109000E-01	 6.20888000E-04	-4.26885000E+00	 4.58632000E-02	 1.20161000E-02	 7.42636436E+00	-3.77288535E+00	 9.15029468E-04	 4.78257621E+00
		 7.51360000E-01	 2.25669000E-01	-1.98728000E-03	 4.28394000E+00	-7.17516000E-02	 4.21198000E-02	 7.45151314E+00	-3.80521189E+00	-3.28279754E-04	 4.78058189E+00
		 7.76109000E-01	 2.33876000E-01	 6.20888000E-04	-4.26885000E+00	-1.20161000E-02	-4.58632000E-02	 7.42636436E+00	-3.77288535E+00	 9.15029468E-04	 4.78257621E+00
		 7.51360000E-01	 2.25669000E-01	-1.98728000E-03	-4.28394000E+00	 7.17516000E-02	 4.21198000E-02	 7.45151314E+00	-3.80521189E+00	-3.28279754E-04	 4.78058189E+00
		 7.76109000E-01	 2.33876000E-01	 6.20888000E-04	 4.26885000E+00	 1.20161000E-02	-4.58632000E-02	 7.42636436E+00	-3.77288535E+00	 9.15029468E-04	 4.78257621E+00
		 2.25669000E-01	 7.51360000E-01	-1.98728000E-03	-4.28394000E+00	 4.21198000E-02	 7.17516000E-02	 7.45151314E+00	-3.80521189E+00	-3.28279754E-04	 4.78058189E+00
		 2.33876000E-01	 7.76109000E-01	 6.20888000E-04	 4.26885000E+00	-4.58632000E-02	 1.20161000E-02	 7.42636436E+00	-3.77288535E+00	 9.15029468E-04	 4.78257621E+00
		 1.81343000E+00	 3.47777000E+00	 2.35479000E-03	-3.16330000E+00	-6.97902000E-02	-3.12541000E-02	 6.25309596E+00	-6.32478971E-01	 9.28372326E-03	 5.91675004E+00
		 1.85242000E+00	 3.53368000E+00	 7.63515000E-04	 5.42411000E+00	-5.76210000E-02	 9.24262000E-03	 9.88137175E+00	-2.79652236E+00	 1.29778600E-03	 8.18208809E+00
		 1.81343000E+00	 3.47777000E+00	 2.35479000E-03	 3.16330000E+00	-6.97902000E-02	 3.12541000E-02	 6.25309596E+00	-6.32478971E-01	 9.28372326E-03	 5.91675004E+00
		 1.85242000E+00	 3.53368000E+00	 7.63515000E-04	-5.42411000E+00	-5.76210000E-02	-9.24262000E-03	 9.88137175E+00	-2.79652236E+00	 1.29778600E-03	 8.18208809E+00
		 3.47777000E+00	 1.81343000E+00	 2.35479000E-03	-3.16330000E+00	 3.12541000E-02	 6.97902000E-02	 6.25309596E+00	-6.32478971E-01	 9.28372326E-03	 5.91675004E+00
		 3.53368000E+00	 1.85242000E+00	 7.63515000E-04	 5.42411000E+00	-9.24262000E-03	 5.76210000E-02	 9.88137175E+00	-2.79652236E+00	 1.29778600E-03	 8.18208809E+00
		 3.47777000E+00	 1.81343000E+00	 2.35479000E-03	 3.16330000E+00	-3.12541000E-02	 6.97902000E-02	 6.25309596E+00	-6.32478971E-01	 9.28372326E-03	 5.91675004E+00
		 3.53368000E+00	 1.85242000E+00	 7.63515000E-04	-5.42411000E+00	 9.24262000E-03	 5.76210000E-02	 9.88137175E+00	-2.79652236E+00	 1.29778600E-03	 8.18208809E+00
		 1.81343000E+00	 3.47777000E+00	 2.35479000E-03	-3.16330000E+00	 6.97902000E-02	 3.12541000E-02	 6.25309596E+00	-6.32478971E-01	 9.28372326E-03	 5.91675004E+00
		 1.85242000E+00	 3.53368000E+00	 7.63515000E-04	 5.42411000E+00	 5.76210000E-02	-9.24262000E-03	 9.88137175E+00	-2.79652236E+00	 1.29778600E-03	 8.18208809E+00
		 1.81343000E+00	 3.47777000E+00	 2.35479000E-03	 3.16330000E+00	 6.97902000E-02	-3.12541000E-02	 6.25309596E+00	-6.32478971E-01	 9.28372326E-03	 5.91675004E+00
		 1.85242000E+00	 3.53368000E+00	 7.63515000E-04	-5.42411000E+00	 5.76210000E-02	 9.24262000E-03	 9.88137175E+00	-2.79652236E+00	 1.29778600E-03	 8.18208809E+00
		 3.47777000E+00	 1.81343000E+00	 2.35479000E-03	 3.16330000E+00	 3.12541000E-02	-6.97902000E-02	 6.25309596E+00	-6.32478971E-01	 9.28372326E-03	 5.91675004E+00
		 3.53368000E+00	 1.85242000E+00	 7.63515000E-04	-5.42411000E+00	-9.24262000E-03	-5.76210000E-02	 9.88137175E+00	-2.79652236E+00	 1.29778600E-03	 8.18208809E+00
		 3.47777000E+00	 1.81343000E+00	 2.35479000E-03	-3.16330000E+00	-3.12541000E-02	-6.97902000E-02	 6.25309596E+00	-6.32478971E-01	 9.28372326E-03	 5.91675004E+00
		 3.53368000E+00	 1.85242000E+00	 7.63515000E-04	 5.42411000E+00	 9.24262000E-03	-5.76210000E-02	 9.88137175E+00	-2.79652236E+00	 1.29778600E-03	 8.18208809E+00
FIELD RF 1
	RF 3 80 double
		-5.85277000E-03	-5.85277000E-03	-1.24995000E-04
		 0.00000000E+00	 0.00000000E+00	 0.00000000E+00
		-5.85277000E-03	-5.85277000E-03	-1.25005000E-04
		 5.85277000E-03	-5.85277000E-03	-1.24995000E-04
		 0.00000000E+00	 0.00000000E+00	 0.00000000E+00
		 5.85277000E-03	-5.85277000E-03	-1.25005000E-04
		 5.85277000E-03	 5.85277000E-03	-1.24995000E-04
		 0.00000000E+00	 0.00000000E+00	 0.00000000E+00
		 5.85277000E-03	 5.85277000E-03	-1.25005000E-04
		-5.85277000E-03	 5.85277000E-03	-1.24995000E-04
		 0.00000000E+00	 0.00000000E+00	 0.00000000E+00
		-5.85277000E-03	 5.85277000E-03	-1.25005000E-04
		 1.16381000E-03	-1.16776000E-03	 7.37195000E-05
		 0.00000000E+00	 0.00000000E+00	 0.00000000E+00
		 1.16381000E-03	-1.16776000E-03	 7.36952000E-05
		 1.16381000E-03	 1.16776000E-03	 7.37196000E-05
		 0.00000000E+00	 0.00000000E+00	 0.00000000E+00
		 1.16381000E-03	 1.16776000E-03	 7.36952000E-05
		-1.20672000E-03	-1.20672000E-03	 4.80407000E-05
		-6.00983000E-04	-6.00983000E-04	-2.64760000E-04
		-1.20672000E-03	-1.20672000E-03	 4.80005000E-05
		-1.16776000E-03	 1.16381000E-03	 7.37195000E-05
		 0.00000000E+00	 0.00000000E+00	 0.00000000E+00
		-1.16776000E-03	 1.16381000E-03	 7.36952000E-05
		 1.16776000E-03	 1.16381000E-03	 7.37195000E-05
		 0.00000000E+00	 0.00000000E+00	 0.00000000E+00
		 1.16776000E-03	 1.16381000E-03	 7.36952000E-05
		 1.20672000E-03	-1.20672000E-03	 4.80407000E-05
		 6.00983000E-04	-6.00983000E-04	-2.64760000E-04
		 1.20672000E-03	-1.20672000E-03	 4.80005000E-05
		-1.16381000E-03	-1.16776000E-03	 7.37196000E-05
		 0.00000000E+00	 0.00000000E+00	 0.00000000E+00
		-1.16381000E-03	-1.16776000E-03	 7.36952000E-05
		-1.16381000E-03	 1.16776000E-03	 7.37195000E-05
		 0.00000000E+00	 0.00000000E+00	 0.00000000E+00
		-1.16381000E-03	 1.16776000E-03	 7.36952000E-05
		 1.20672000E-03	 1.20672000E-03	 4.80407000E-05
		 6.00983000E-04	 6.00983000E-04	-2.64760000E-04
		 1.20672000E-03	 1.20672000E-03	 4.80005000E-05
		 1.16776000E-03	-1.16381000E-03	 7.37195000E-05
		 0.00000000E+00	 0.00000000E+00	 0.00000000E+00
		 1.16776000E-03	-1.16381000E-03	 7.36952000E-05
		-1.16776000E-03	-1.16381000E-03	 7.37195000E-05
		 0.00000000E+00	 0.00000000E+00	 0.00000000E+00
		-1.16776000E-03	-1.16381000E-03	 7.36952000E-05
		-1.20672000E-03	 1.20672000E-03	 4.80407000E-05
		-6.00983000E-04	 6.00983000E-04	-2.64760000E-04
		-1.20672000E-03	 1.20672000E-03	 4.80005000E-05
		 3.56762000E-03	-5.58868000E-03	 3.09288000E-05
		 3.56762000E-03	-5.58868000E-03	 3.10160000E-05
		 5.58868000E-03	-3.56762000E-03	 3.09288000E-05
		 5.58868000E-03	-3.56762000E-03	 3.10160000E-05
		 5.58868000E-03	 3.56762000E-03	 3.09288000E-05
		 5.58868000E-03	 3.56762000E-03	 3.10159000E-05
		 3.56762000E-03	 5.58868000E-03	 3.09288000E-05
		 3.56762000E-03	 5.58868000E-03	 3.10159000E-05
		-3.56762000E-03	 5.58868000E-03	 3.09288000E-05
		-3.56762000E-03	 5.58868000E-03	 3.10159000E-05
		-5.58868000E-03	 3.56762000E-03	 3.09288000E-05
		-5.58868000E-03	 3.56762000E-03	 3.10159000E-05
		-5.58868000E-03	-3.56762000E-03	 3.09288000E-05
		-5.58868000E-03	-3.56762000E-03	 3.10159000E-05
		-3.56762000E-03	-5.58868000E-03	 3.09288000E-05
		-3.56762000E-03	-5.58868000E-03	 3.10159000E-05
		 1.79237000E-03	 0.00000000E+00	-7.37229000E-08
		 1.79237000E-03	 0.00000000E+00	 7.37218000E-08
		-1.79237000E-03	 0.00000000E+00	-7.37266000E-08
		-1.79237000E-03	 0.00000000E+00	 7.37255000E-08
		 0.00000000E+00	-1.79237000E-03	-7.37197000E-08
		 0.00000000E+00	-1.79237000E-03	 7.37186000E-08
		 0.00000000E+00	 1.79237000E-03	-7.37233000E-08
		 0.00000000E+00	 1.79237000E-03	 7.37223000E-08
		-1.79237000E-03	 0.00000000E+00	-7.37195000E-08
		-1.79237000E-03	 0.00000000E+00	 7.37184000E-08
		 1.79237000E-03	 0.00000000E+00	-7.37232000E-08
		 1.79237000E-03	 0.00000000E+00	 7.37222000E-08
		 0.00000000E+00	-1.79237000E-03	-7.37230000E-08
		 0.00000000E+00	-1.79237000E-03	 7.37219000E-08
		 0.00000000E+00	 1.79237000E-03	-7.37248000E-08
		 0.00000000E+00	 1.79237000E-03	 7.37237000E-08
