# vtk DataFile Version 3.0

ASCII
DATASET UNSTRUCTURED_GRID

POINTS 261 double
	 0.00000000E+00	 0.00000000E+00	 0.00000000E+00
	 1.00000000E+00	 0.00000000E+00	 0.00000000E+00
	 1.00000000E+00	 1.00000000E+00	 0.00000000E+00
	 0.00000000E+00	 1.00000000E+00	 0.00000000E+00
	 0.00000000E+00	 0.00000000E+00	 8.00000000E+00
	 1.00000000E+00	 0.00000000E+00	 8.00000000E+00
	 1.00000000E+00	 1.00000000E+00	 8.00000000E+00
	 0.00000000E+00	 1.00000000E+00	 8.00000000E+00
	 2.50000000E-01	 0.00000000E+00	 0.00000000E+00
	 5.00000000E-01	 0.00000000E+00	 0.00000000E+00
	 7.50000000E-01	 0.00000000E+00	 0.00000000E+00
	 1.00000000E+00	 2.50000000E-01	 0.00000000E+00
	 1.00000000E+00	 5.00000000E-01	 0.00000000E+00
	 1.00000000E+00	 7.50000000E-01	 0.00000000E+00
	 7.50000000E-01	 1.00000000E+00	 0.00000000E+00
	 5.00000000E-01	 1.00000000E+00	 0.00000000E+00
	 2.50000000E-01	 1.00000000E+00	 0.00000000E+00
	 0.00000000E+00	 7.50000000E-01	 0.00000000E+00
	 0.00000000E+00	 5.00000000E-01	 0.00000000E+00
	 0.00000000E+00	 2.50000000E-01	 0.00000000E+00
	 2.50000000E-01	 0.00000000E+00	 8.00000000E+00
	 5.00000000E-01	 0.00000000E+00	 8.00000000E+00
	 7.50000000E-01	 0.00000000E+00	 8.00000000E+00
	 1.00000000E+00	 2.50000000E-01	 8.00000000E+00
	 1.00000000E+00	 5.00000000E-01	 8.00000000E+00
	 1.00000000E+00	 7.50000000E-01	 8.00000000E+00
	 7.50000000E-01	 1.00000000E+00	 8.00000000E+00
	 5.00000000E-01	 1.00000000E+00	 8.00000000E+00
	 2.50000000E-01	 1.00000000E+00	 8.00000000E+00
	 0.00000000E+00	 7.50000000E-01	 8.00000000E+00
	 0.00000000E+00	 5.00000000E-01	 8.00000000E+00
	 0.00000000E+00	 2.50000000E-01	 8.00000000E+00
	 1.00000000E+00	 0.00000000E+00	 5.00000000E-01
	 1.00000000E+00	 0.00000000E+00	 1.00000000E+00
	 1.00000000E+00	 0.00000000E+00	 1.50000000E+00
	 1.00000000E+00	 0.00000000E+00	 2.00000000E+00
	 1.00000000E+00	 0.00000000E+00	 2.50000000E+00
	 1.00000000E+00	 0.00000000E+00	 3.00000000E+00
	 1.00000000E+00	 0.00000000E+00	 3.50000000E+00
	 1.00000000E+00	 0.00000000E+00	 4.00000000E+00
	 1.00000000E+00	 0.00000000E+00	 4.50000000E+00
	 1.00000000E+00	 0.00000000E+00	 5.00000000E+00
	 1.00000000E+00	 0.00000000E+00	 5.50000000E+00
	 1.00000000E+00	 0.00000000E+00	 6.00000000E+00
	 1.00000000E+00	 0.00000000E+00	 6.50000000E+00
	 1.00000000E+00	 0.00000000E+00	 7.00000000E+00
	 1.00000000E+00	 0.00000000E+00	 7.50000000E+00
	 0.00000000E+00	 0.00000000E+00	 7.50000000E+00
	 0.00000000E+00	 0.00000000E+00	 7.00000000E+00
	 0.00000000E+00	 0.00000000E+00	 6.50000000E+00
	 0.00000000E+00	 0.00000000E+00	 6.00000000E+00
	 0.00000000E+00	 0.00000000E+00	 5.50000000E+00
	 0.00000000E+00	 0.00000000E+00	 5.00000000E+00
	 0.00000000E+00	 0.00000000E+00	 4.50000000E+00
	 0.00000000E+00	 0.00000000E+00	 4.00000000E+00
	 0.00000000E+00	 0.00000000E+00	 3.50000000E+00
	 0.00000000E+00	 0.00000000E+00	 3.00000000E+00
	 0.00000000E+00	 0.00000000E+00	 2.50000000E+00
	 0.00000000E+00	 0.00000000E+00	 2.00000000E+00
	 0.00000000E+00	 0.00000000E+00	 1.50000000E+00
	 0.00000000E+00	 0.00000000E+00	 1.00000000E+00
	 0.00000000E+00	 0.00000000E+00	 5.00000000E-01
	 1.00000000E+00	 1.00000000E+00	 5.00000000E-01
	 1.00000000E+00	 1.00000000E+00	 1.00000000E+00
	 1.00000000E+00	 1.00000000E+00	 1.50000000E+00
	 1.00000000E+00	 1.00000000E+00	 2.00000000E+00
	 1.00000000E+00	 1.00000000E+00	 2.50000000E+00
	 1.00000000E+00	 1.00000000E+00	 3.00000000E+00
	 1.00000000E+00	 1.00000000E+00	 3.50000000E+00
	 1.00000000E+00	 1.00000000E+00	 4.00000000E+00
	 1.00000000E+00	 1.00000000E+00	 4.50000000E+00
	 1.00000000E+00	 1.00000000E+00	 5.00000000E+00
	 1.00000000E+00	 1.00000000E+00	 5.50000000E+00
	 1.00000000E+00	 1.00000000E+00	 6.00000000E+00
	 1.00000000E+00	 1.00000000E+00	 6.50000000E+00
	 1.00000000E+00	 1.00000000E+00	 7.00000000E+00
	 1.00000000E+00	 1.00000000E+00	 7.50000000E+00
	 0.00000000E+00	 1.00000000E+00	 5.00000000E-01
	 0.00000000E+00	 1.00000000E+00	 1.00000000E+00
	 0.00000000E+00	 1.00000000E+00	 1.50000000E+00
	 0.00000000E+00	 1.00000000E+00	 2.00000000E+00
	 0.00000000E+00	 1.00000000E+00	 2.50000000E+00
	 0.00000000E+00	 1.00000000E+00	 3.00000000E+00
	 0.00000000E+00	 1.00000000E+00	 3.50000000E+00
	 0.00000000E+00	 1.00000000E+00	 4.00000000E+00
	 0.00000000E+00	 1.00000000E+00	 4.50000000E+00
	 0.00000000E+00	 1.00000000E+00	 5.00000000E+00
	 0.00000000E+00	 1.00000000E+00	 5.50000000E+00
	 0.00000000E+00	 1.00000000E+00	 6.00000000E+00
	 0.00000000E+00	 1.00000000E+00	 6.50000000E+00
	 0.00000000E+00	 1.00000000E+00	 7.00000000E+00
	 0.00000000E+00	 1.00000000E+00	 7.50000000E+00
	 5.00000000E-01	 2.50000000E-01	 0.00000000E+00
	 2.50000000E-01	 5.00000000E-01	 0.00000000E+00
	 5.00000000E-01	 5.00000000E-01	 0.00000000E+00
	 7.50000000E-01	 5.00000000E-01	 0.00000000E+00
	 5.00000000E-01	 7.50000000E-01	 0.00000000E+00
	 5.00000000E-01	 2.50000000E-01	 8.00000000E+00
	 2.50000000E-01	 5.00000000E-01	 8.00000000E+00
	 5.00000000E-01	 5.00000000E-01	 8.00000000E+00
	 7.50000000E-01	 5.00000000E-01	 8.00000000E+00
	 5.00000000E-01	 7.50000000E-01	 8.00000000E+00
	 5.00000000E-01	 0.00000000E+00	 5.00000000E-01
	 2.50000000E-01	 0.00000000E+00	 1.00000000E+00
	 5.00000000E-01	 0.00000000E+00	 1.00000000E+00
	 7.50000000E-01	 0.00000000E+00	 1.00000000E+00
	 5.00000000E-01	 0.00000000E+00	 1.50000000E+00
	 2.50000000E-01	 0.00000000E+00	 2.00000000E+00
	 5.00000000E-01	 0.00000000E+00	 2.00000000E+00
	 7.50000000E-01	 0.00000000E+00	 2.00000000E+00
	 5.00000000E-01	 0.00000000E+00	 2.50000000E+00
	 2.50000000E-01	 0.00000000E+00	 3.00000000E+00
	 5.00000000E-01	 0.00000000E+00	 3.00000000E+00
	 7.50000000E-01	 0.00000000E+00	 3.00000000E+00
	 5.00000000E-01	 0.00000000E+00	 3.50000000E+00
	 2.50000000E-01	 0.00000000E+00	 4.00000000E+00
	 5.00000000E-01	 0.00000000E+00	 4.00000000E+00
	 7.50000000E-01	 0.00000000E+00	 4.00000000E+00
	 5.00000000E-01	 0.00000000E+00	 4.50000000E+00
	 2.50000000E-01	 0.00000000E+00	 5.00000000E+00
	 5.00000000E-01	 0.00000000E+00	 5.00000000E+00
	 7.50000000E-01	 0.00000000E+00	 5.00000000E+00
	 5.00000000E-01	 0.00000000E+00	 5.50000000E+00
	 2.50000000E-01	 0.00000000E+00	 6.00000000E+00
	 5.00000000E-01	 0.00000000E+00	 6.00000000E+00
	 7.50000000E-01	 0.00000000E+00	 6.00000000E+00
	 5.00000000E-01	 0.00000000E+00	 6.50000000E+00
	 2.50000000E-01	 0.00000000E+00	 7.00000000E+00
	 5.00000000E-01	 0.00000000E+00	 7.00000000E+00
	 7.50000000E-01	 0.00000000E+00	 7.00000000E+00
	 5.00000000E-01	 0.00000000E+00	 7.50000000E+00
	 1.00000000E+00	 5.00000000E-01	 5.00000000E-01
	 1.00000000E+00	 2.50000000E-01	 1.00000000E+00
	 1.00000000E+00	 5.00000000E-01	 1.00000000E+00
	 1.00000000E+00	 7.50000000E-01	 1.00000000E+00
	 1.00000000E+00	 5.00000000E-01	 1.50000000E+00
	 1.00000000E+00	 2.50000000E-01	 2.00000000E+00
	 1.00000000E+00	 5.00000000E-01	 2.00000000E+00
	 1.00000000E+00	 7.50000000E-01	 2.00000000E+00
	 1.00000000E+00	 5.00000000E-01	 2.50000000E+00
	 1.00000000E+00	 2.50000000E-01	 3.00000000E+00
	 1.00000000E+00	 5.00000000E-01	 3.00000000E+00
	 1.00000000E+00	 7.50000000E-01	 3.00000000E+00
	 1.00000000E+00	 5.00000000E-01	 3.50000000E+00
	 1.00000000E+00	 2.50000000E-01	 4.00000000E+00
	 1.00000000E+00	 5.00000000E-01	 4.00000000E+00
	 1.00000000E+00	 7.50000000E-01	 4.00000000E+00
	 1.00000000E+00	 5.00000000E-01	 4.50000000E+00
	 1.00000000E+00	 2.50000000E-01	 5.00000000E+00
	 1.00000000E+00	 5.00000000E-01	 5.00000000E+00
	 1.00000000E+00	 7.50000000E-01	 5.00000000E+00
	 1.00000000E+00	 5.00000000E-01	 5.50000000E+00
	 1.00000000E+00	 2.50000000E-01	 6.00000000E+00
	 1.00000000E+00	 5.00000000E-01	 6.00000000E+00
	 1.00000000E+00	 7.50000000E-01	 6.00000000E+00
	 1.00000000E+00	 5.00000000E-01	 6.50000000E+00
	 1.00000000E+00	 2.50000000E-01	 7.00000000E+00
	 1.00000000E+00	 5.00000000E-01	 7.00000000E+00
	 1.00000000E+00	 7.50000000E-01	 7.00000000E+00
	 1.00000000E+00	 5.00000000E-01	 7.50000000E+00
	 5.00000000E-01	 1.00000000E+00	 5.00000000E-01
	 7.50000000E-01	 1.00000000E+00	 1.00000000E+00
	 5.00000000E-01	 1.00000000E+00	 1.00000000E+00
	 2.50000000E-01	 1.00000000E+00	 1.00000000E+00
	 5.00000000E-01	 1.00000000E+00	 1.50000000E+00
	 7.50000000E-01	 1.00000000E+00	 2.00000000E+00
	 5.00000000E-01	 1.00000000E+00	 2.00000000E+00
	 2.50000000E-01	 1.00000000E+00	 2.00000000E+00
	 5.00000000E-01	 1.00000000E+00	 2.50000000E+00
	 7.50000000E-01	 1.00000000E+00	 3.00000000E+00
	 5.00000000E-01	 1.00000000E+00	 3.00000000E+00
	 2.50000000E-01	 1.00000000E+00	 3.00000000E+00
	 5.00000000E-01	 1.00000000E+00	 3.50000000E+00
	 7.50000000E-01	 1.00000000E+00	 4.00000000E+00
	 5.00000000E-01	 1.00000000E+00	 4.00000000E+00
	 2.50000000E-01	 1.00000000E+00	 4.00000000E+00
	 5.00000000E-01	 1.00000000E+00	 4.50000000E+00
	 7.50000000E-01	 1.00000000E+00	 5.00000000E+00
	 5.00000000E-01	 1.00000000E+00	 5.00000000E+00
	 2.50000000E-01	 1.00000000E+00	 5.00000000E+00
	 5.00000000E-01	 1.00000000E+00	 5.50000000E+00
	 7.50000000E-01	 1.00000000E+00	 6.00000000E+00
	 5.00000000E-01	 1.00000000E+00	 6.00000000E+00
	 2.50000000E-01	 1.00000000E+00	 6.00000000E+00
	 5.00000000E-01	 1.00000000E+00	 6.50000000E+00
	 7.50000000E-01	 1.00000000E+00	 7.00000000E+00
	 5.00000000E-01	 1.00000000E+00	 7.00000000E+00
	 2.50000000E-01	 1.00000000E+00	 7.00000000E+00
	 5.00000000E-01	 1.00000000E+00	 7.50000000E+00
	 0.00000000E+00	 5.00000000E-01	 5.00000000E-01
	 0.00000000E+00	 7.50000000E-01	 1.00000000E+00
	 0.00000000E+00	 5.00000000E-01	 1.00000000E+00
	 0.00000000E+00	 2.50000000E-01	 1.00000000E+00
	 0.00000000E+00	 5.00000000E-01	 1.50000000E+00
	 0.00000000E+00	 7.50000000E-01	 2.00000000E+00
	 0.00000000E+00	 5.00000000E-01	 2.00000000E+00
	 0.00000000E+00	 2.50000000E-01	 2.00000000E+00
	 0.00000000E+00	 5.00000000E-01	 2.50000000E+00
	 0.00000000E+00	 7.50000000E-01	 3.00000000E+00
	 0.00000000E+00	 5.00000000E-01	 3.00000000E+00
	 0.00000000E+00	 2.50000000E-01	 3.00000000E+00
	 0.00000000E+00	 5.00000000E-01	 3.50000000E+00
	 0.00000000E+00	 7.50000000E-01	 4.00000000E+00
	 0.00000000E+00	 5.00000000E-01	 4.00000000E+00
	 0.00000000E+00	 2.50000000E-01	 4.00000000E+00
	 0.00000000E+00	 5.00000000E-01	 4.50000000E+00
	 0.00000000E+00	 7.50000000E-01	 5.00000000E+00
	 0.00000000E+00	 5.00000000E-01	 5.00000000E+00
	 0.00000000E+00	 2.50000000E-01	 5.00000000E+00
	 0.00000000E+00	 5.00000000E-01	 5.50000000E+00
	 0.00000000E+00	 7.50000000E-01	 6.00000000E+00
	 0.00000000E+00	 5.00000000E-01	 6.00000000E+00
	 0.00000000E+00	 2.50000000E-01	 6.00000000E+00
	 0.00000000E+00	 5.00000000E-01	 6.50000000E+00
	 0.00000000E+00	 7.50000000E-01	 7.00000000E+00
	 0.00000000E+00	 5.00000000E-01	 7.00000000E+00
	 0.00000000E+00	 2.50000000E-01	 7.00000000E+00
	 0.00000000E+00	 5.00000000E-01	 7.50000000E+00
	 5.00000000E-01	 5.00000000E-01	 5.00000000E-01
	 5.00000000E-01	 2.50000000E-01	 1.00000000E+00
	 2.50000000E-01	 5.00000000E-01	 1.00000000E+00
	 5.00000000E-01	 5.00000000E-01	 1.00000000E+00
	 7.50000000E-01	 5.00000000E-01	 1.00000000E+00
	 5.00000000E-01	 7.50000000E-01	 1.00000000E+00
	 5.00000000E-01	 5.00000000E-01	 1.50000000E+00
	 5.00000000E-01	 2.50000000E-01	 2.00000000E+00
	 2.50000000E-01	 5.00000000E-01	 2.00000000E+00
	 5.00000000E-01	 5.00000000E-01	 2.00000000E+00
	 7.50000000E-01	 5.00000000E-01	 2.00000000E+00
	 5.00000000E-01	 7.50000000E-01	 2.00000000E+00
	 5.00000000E-01	 5.00000000E-01	 2.50000000E+00
	 5.00000000E-01	 2.50000000E-01	 3.00000000E+00
	 2.50000000E-01	 5.00000000E-01	 3.00000000E+00
	 5.00000000E-01	 5.00000000E-01	 3.00000000E+00
	 7.50000000E-01	 5.00000000E-01	 3.00000000E+00
	 5.00000000E-01	 7.50000000E-01	 3.00000000E+00
	 5.00000000E-01	 5.00000000E-01	 3.50000000E+00
	 5.00000000E-01	 2.50000000E-01	 4.00000000E+00
	 2.50000000E-01	 5.00000000E-01	 4.00000000E+00
	 5.00000000E-01	 5.00000000E-01	 4.00000000E+00
	 7.50000000E-01	 5.00000000E-01	 4.00000000E+00
	 5.00000000E-01	 7.50000000E-01	 4.00000000E+00
	 5.00000000E-01	 5.00000000E-01	 4.50000000E+00
	 5.00000000E-01	 2.50000000E-01	 5.00000000E+00
	 2.50000000E-01	 5.00000000E-01	 5.00000000E+00
	 5.00000000E-01	 5.00000000E-01	 5.00000000E+00
	 7.50000000E-01	 5.00000000E-01	 5.00000000E+00
	 5.00000000E-01	 7.50000000E-01	 5.00000000E+00
	 5.00000000E-01	 5.00000000E-01	 5.50000000E+00
	 5.00000000E-01	 2.50000000E-01	 6.00000000E+00
	 2.50000000E-01	 5.00000000E-01	 6.00000000E+00
	 5.00000000E-01	 5.00000000E-01	 6.00000000E+00
	 7.50000000E-01	 5.00000000E-01	 6.00000000E+00
	 5.00000000E-01	 7.50000000E-01	 6.00000000E+00
	 5.00000000E-01	 5.00000000E-01	 6.50000000E+00
	 5.00000000E-01	 2.50000000E-01	 7.00000000E+00
	 2.50000000E-01	 5.00000000E-01	 7.00000000E+00
	 5.00000000E-01	 5.00000000E-01	 7.00000000E+00
	 7.50000000E-01	 5.00000000E-01	 7.00000000E+00
	 5.00000000E-01	 7.50000000E-01	 7.00000000E+00
	 5.00000000E-01	 5.00000000E-01	 7.50000000E+00

CELLS 32 672
	20 0 9 94 18 60 104 221 191 8 92 93 19 103 219 220 192 61 102 218 189 
	20 9 1 12 94 104 33 133 221 10 11 95 92 105 132 222 219 102 32 131 218 
	20 18 94 15 3 191 221 162 78 93 96 16 17 220 223 163 190 189 218 160 77 
	20 94 12 2 15 221 133 63 162 95 13 14 96 222 134 161 223 218 131 62 160 
	20 60 104 221 191 58 108 227 195 103 219 220 192 107 225 226 196 59 106 224 193 
	20 104 33 133 221 108 35 137 227 105 132 222 219 109 136 228 225 106 34 135 224 
	20 191 221 162 78 195 227 166 80 220 223 163 190 226 229 167 194 193 224 164 79 
	20 221 133 63 162 227 137 65 166 222 134 161 223 228 138 165 229 224 135 64 164 
	20 58 108 227 195 56 112 233 199 107 225 226 196 111 231 232 200 57 110 230 197 
	20 108 35 137 227 112 37 141 233 109 136 228 225 113 140 234 231 110 36 139 230 
	20 195 227 166 80 199 233 170 82 226 229 167 194 232 235 171 198 197 230 168 81 
	20 227 137 65 166 233 141 67 170 228 138 165 229 234 142 169 235 230 139 66 168 
	20 56 112 233 199 54 116 239 203 111 231 232 200 115 237 238 204 55 114 236 201 
	20 112 37 141 233 116 39 145 239 113 140 234 231 117 144 240 237 114 38 143 236 
	20 199 233 170 82 203 239 174 84 232 235 171 198 238 241 175 202 201 236 172 83 
	20 233 141 67 170 239 145 69 174 234 142 169 235 240 146 173 241 236 143 68 172 
	20 54 116 239 203 52 120 245 207 115 237 238 204 119 243 244 208 53 118 242 205 
	20 116 39 145 239 120 41 149 245 117 144 240 237 121 148 246 243 118 40 147 242 
	20 203 239 174 84 207 245 178 86 238 241 175 202 244 247 179 206 205 242 176 85 
	20 239 145 69 174 245 149 71 178 240 146 173 241 246 150 177 247 242 147 70 176 
	20 52 120 245 207 50 124 251 211 119 243 244 208 123 249 250 212 51 122 248 209 
	20 120 41 149 245 124 43 153 251 121 148 246 243 125 152 252 249 122 42 151 248 
	20 207 245 178 86 211 251 182 88 244 247 179 206 250 253 183 210 209 248 180 87 
	20 245 149 71 178 251 153 73 182 246 150 177 247 252 154 181 253 248 151 72 180 
	20 50 124 251 211 48 128 257 215 123 249 250 212 127 255 256 216 49 126 254 213 
	20 124 43 153 251 128 45 157 257 125 152 252 249 129 156 258 255 126 44 155 254 
	20 211 251 182 88 215 257 186 90 250 253 183 210 256 259 187 214 213 254 184 89 
	20 251 153 73 182 257 157 75 186 252 154 181 253 258 158 185 259 254 155 74 184 
	20 48 128 257 215 4 21 99 30 127 255 256 216 20 97 98 31 47 130 260 217 
	20 128 45 157 257 21 5 24 99 129 156 258 255 22 23 100 97 130 46 159 260 
	20 215 257 186 90 30 99 27 7 256 259 187 214 98 101 28 29 217 260 188 91 
	20 257 157 75 186 99 24 6 27 258 158 185 259 100 25 26 101 260 159 76 188 

CELL_TYPES 32
	25
	25
	25
	25
	25
	25
	25
	25
	25
	25
	25
	25
	25
	25
	25
	25
	25
	25
	25
	25
	25
	25
	25
	25
	25
	25
	25
	25
	25
	25
	25
	25

POINT_DATA 261
FIELD SENSTRE 1
	SENSTRE 2 261 double
		-6.14346000E-05	-9.63882000E-03
		-2.36352000E-04	-1.00096000E-02
		 0.00000000E+00	 0.00000000E+00
		 0.00000000E+00	 0.00000000E+00
		-1.48034000E-04	-1.00793000E-02
		-3.44321000E-05	-9.25876000E-03
		 0.00000000E+00	 0.00000000E+00
		 0.00000000E+00	 0.00000000E+00
		 7.72822000E-04	-7.68637000E-03
		 3.10461000E-04	-7.67808000E-03
		 6.25676000E-04	-7.65397000E-03
		-1.15475000E-03	-7.81070000E-03
		 0.00000000E+00	 0.00000000E+00
		 0.00000000E+00	 0.00000000E+00
		 0.00000000E+00	 0.00000000E+00
		 0.00000000E+00	 0.00000000E+00
		 0.00000000E+00	 0.00000000E+00
		 0.00000000E+00	 0.00000000E+00
		 0.00000000E+00	 0.00000000E+00
		-1.08992000E-03	-7.18361000E-03
		 7.54606000E-04	-7.53004000E-03
		 3.79242000E-04	-7.48483000E-03
		 7.48170000E-04	-7.42400000E-03
		-1.00196000E-03	-7.40237000E-03
		 0.00000000E+00	 0.00000000E+00
		 0.00000000E+00	 0.00000000E+00
		 0.00000000E+00	 0.00000000E+00
		 0.00000000E+00	 0.00000000E+00
		 0.00000000E+00	 0.00000000E+00
		 0.00000000E+00	 0.00000000E+00
		 0.00000000E+00	 0.00000000E+00
		-1.12118000E-03	-7.00736000E-03
		-1.79979000E-04	-3.25611000E-02
		-2.05381000E-03	-8.02829000E-02
		-6.38413000E-03	-2.19698000E-01
		-3.11630000E-02	-3.73901000E-01
		-6.89940000E-02	-5.29838000E-01
		-1.65972000E-01	-6.85393000E-01
		-5.05471000E-01	-8.12717000E-01
		-9.73562000E-01	-8.77510000E-01
		-5.05765000E-01	-8.12550000E-01
		-1.65520000E-01	-6.85044000E-01
		-6.78925000E-02	-5.29339000E-01
		-2.97734000E-02	-3.73267000E-01
		-4.86243000E-03	-2.18962000E-01
		-9.91272000E-04	-7.94553000E-02
		 1.50489000E-04	-3.16906000E-02
		-7.75318000E-05	-3.33676000E-02
		-2.80060000E-03	-8.19443000E-02
		-8.38848000E-03	-2.22475000E-01
		-3.64467000E-02	-3.77867000E-01
		-7.75649000E-02	-5.35032000E-01
		-1.79800000E-01	-6.91790000E-01
		-5.23678000E-01	-8.19883000E-01
		-9.91728000E-01	-8.85009000E-01
		-5.22072000E-01	-8.19576000E-01
		-1.78042000E-01	-6.91221000E-01
		-7.58253000E-02	-5.34315000E-01
		-3.49202000E-02	-3.77061000E-01
		-7.14444000E-03	-2.21673000E-01
		-2.02551000E-03	-8.11937000E-02
		 1.32795000E-04	-3.27134000E-02
		 1.14776000E-03	-3.90235000E-02
		-3.90359000E-03	-8.72612000E-02
		-6.70143000E-03	-2.20690000E-01
		-2.03588000E-02	-3.67516000E-01
		-3.27392000E-02	-5.19318000E-01
		-2.73467000E-01	-6.67095000E-01
		-6.30830000E-01	-7.86477000E-01
		-9.49246000E-01	-8.45346000E-01
		-6.30645000E-01	-7.86122000E-01
		-2.73442000E-01	-6.66430000E-01
		-3.29998000E-02	-5.18450000E-01
		-2.05594000E-02	-3.66510000E-01
		-7.11255000E-03	-2.19647000E-01
		-4.77062000E-03	-8.62429000E-02
		 1.09015000E-04	-3.80715000E-02
		-2.94078000E-03	-3.78361000E-02
		-5.31772000E-03	-8.53566000E-02
		-5.70947000E-03	-2.17746000E-01
		-1.63239000E-02	-3.63435000E-01
		-2.58323000E-02	-5.13979000E-01
		-2.61080000E-01	-6.60502000E-01
		-6.13533000E-01	-7.78932000E-01
		-9.30185000E-01	-8.37220000E-01
		-6.12205000E-01	-7.78163000E-01
		-2.58898000E-01	-6.59030000E-01
		-2.31542000E-02	-5.12027000E-01
		-1.37985000E-02	-3.61126000E-01
		-3.32321000E-03	-2.15250000E-01
		-1.71786000E-03	-8.27296000E-02
		 1.69389000E-03	-3.52493000E-02
		-8.77647000E-04	-2.03460000E-04
		 0.00000000E+00	 0.00000000E+00
		 0.00000000E+00	 0.00000000E+00
		 0.00000000E+00	 0.00000000E+00
		 0.00000000E+00	 0.00000000E+00
		-8.39509000E-04	-1.59518000E-04
		 0.00000000E+00	 0.00000000E+00
		 0.00000000E+00	 0.00000000E+00
		 0.00000000E+00	 0.00000000E+00
		 0.00000000E+00	 0.00000000E+00
		 7.20992000E-04	-3.89526000E-02
		-4.64407000E-03	-9.97092000E-02
		-7.05189000E-03	-1.00196000E-01
		-4.55118000E-03	-9.95301000E-02
		-1.97333000E-02	-2.52808000E-01
		-2.20979000E-02	-4.21121000E-01
		-5.79040000E-03	-4.21494000E-01
		-1.82733000E-02	-4.20691000E-01
		 3.69430000E-02	-5.97000000E-01
		-2.53294000E-01	-7.76217000E-01
		-5.14141000E-01	-7.78820000E-01
		-2.40818000E-01	-7.75435000E-01
		-1.59940000E+00	-9.26015000E-01
		-1.81348000E+00	-9.94083000E-01
		-1.70196000E+00	-1.00000000E+00
		-1.79457000E+00	-9.93068000E-01
		-1.60038000E+00	-9.26139000E-01
		-2.55174000E-01	-7.76467000E-01
		-5.14868000E-01	-7.79020000E-01
		-2.40472000E-01	-7.75580000E-01
		 3.65576000E-02	-5.97207000E-01
		-2.35273000E-02	-4.21375000E-01
		-5.76401000E-03	-4.21670000E-01
		-1.67328000E-02	-4.20791000E-01
		-1.93535000E-02	-2.52901000E-01
		-5.03181000E-03	-9.97586000E-02
		-6.72748000E-03	-1.00174000E-01
		-3.37827000E-03	-9.94384000E-02
		 8.53703000E-04	-3.88178000E-02
		-6.31183000E-03	-2.01603000E-02
		 2.90004000E-03	-4.32493000E-02
		-1.65277000E-03	-4.42701000E-02
		-4.33811000E-03	-4.48437000E-02
		 1.13883000E-03	-1.24309000E-01
		-3.10005000E-02	-2.08160000E-01
		-1.96694000E-02	-2.09505000E-01
		-2.12890000E-02	-2.10280000E-01
		-2.75268000E-02	-2.92147000E-01
		 1.51396000E-01	-3.72491000E-01
		-5.62604000E-02	-3.75190000E-01
		-1.20659000E-01	-3.78269000E-01
		-2.28253000E-01	-4.47189000E-01
		-1.08844000E+00	-4.88231000E-01
		-6.01671000E-01	-4.88382000E-01
		-8.61834000E-01	-4.88980000E-01
		-2.28161000E-01	-4.47042000E-01
		 1.52051000E-01	-3.72182000E-01
		-5.60877000E-02	-3.74906000E-01
		-1.20961000E-01	-3.78011000E-01
		-2.72791000E-02	-2.91767000E-01
		-2.96056000E-02	-2.07660000E-01
		-1.93587000E-02	-2.09052000E-01
		-2.18884000E-02	-2.09876000E-01
		 1.33845000E-03	-1.23822000E-01
		 4.12512000E-03	-4.26839000E-02
		-1.15180000E-03	-4.37555000E-02
		-4.78410000E-03	-4.43875000E-02
		-5.28669000E-03	-1.96437000E-02
		-2.77689000E-03	-4.58526000E-02
		-5.72256000E-03	-1.05179000E-01
		-7.79103000E-03	-1.05702000E-01
		-1.06125000E-02	-1.05134000E-01
		-1.20522000E-02	-2.48401000E-01
		-2.07054000E-02	-4.04184000E-01
		-2.21532000E-02	-4.04641000E-01
		-1.64497000E-02	-4.03765000E-01
		-3.94057000E-02	-5.70923000E-01
		-3.09640000E-01	-7.34440000E-01
		-4.62999000E-01	-7.36228000E-01
		-2.97115000E-01	-7.33654000E-01
		-1.20583000E+00	-8.68239000E-01
		-1.67367000E+00	-9.31815000E-01
		-1.43440000E+00	-9.35837000E-01
		-1.65351000E+00	-9.30757000E-01
		-1.20457000E+00	-8.67511000E-01
		-3.09160000E-01	-7.33121000E-01
		-4.61333000E-01	-7.34836000E-01
		-2.94134000E-01	-7.32201000E-01
		-3.74721000E-02	-5.69083000E-01
		-2.02366000E-02	-4.02112000E-01
		-2.03943000E-02	-4.02463000E-01
		-1.35644000E-02	-4.01494000E-01
		-1.03041000E-02	-2.46060000E-01
		-7.29485000E-03	-1.02926000E-01
		-5.93441000E-03	-1.03270000E-01
		-4.21293000E-03	-1.02538000E-01
		-1.92575000E-03	-4.35055000E-02
		-1.37551000E-03	-1.92293000E-02
		-2.00809000E-03	-4.38508000E-02
		 3.59912000E-04	-4.34363000E-02
		 3.55368000E-03	-4.26097000E-02
		 1.26957000E-03	-1.23588000E-01
		-1.73043000E-02	-2.09195000E-01
		-1.94501000E-02	-2.08854000E-01
		-3.46133000E-02	-2.07945000E-01
		-2.71526000E-02	-2.91553000E-01
		-1.07841000E-01	-3.76937000E-01
		-5.59267000E-02	-3.74647000E-01
		 1.39023000E-01	-3.72741000E-01
		-2.27736000E-01	-4.46716000E-01
		-8.41495000E-01	-4.87527000E-01
		-6.01202000E-01	-4.87968000E-01
		-1.10768000E+00	-4.88859000E-01
		-2.27893000E-01	-4.46628000E-01
		-1.06099000E-01	-3.76674000E-01
		-5.60055000E-02	-3.74473000E-01
		 1.37216000E-01	-3.72654000E-01
		-2.72452000E-02	-2.91311000E-01
		-1.51521000E-02	-2.08776000E-01
		-1.92992000E-02	-2.08558000E-01
		-3.63062000E-02	-2.07768000E-01
		 1.50676000E-03	-1.23261000E-01
		-1.02919000E-03	-4.33707000E-02
		-2.56368000E-04	-4.31008000E-02
		 2.29541000E-03	-4.23966000E-02
		-3.79845000E-03	-1.89112000E-02
		 0.00000000E+00	 0.00000000E+00
		 0.00000000E+00	 0.00000000E+00
		 0.00000000E+00	 0.00000000E+00
		 0.00000000E+00	 0.00000000E+00
		 0.00000000E+00	 0.00000000E+00
		 0.00000000E+00	 0.00000000E+00
		 0.00000000E+00	 0.00000000E+00
		 0.00000000E+00	 0.00000000E+00
		 0.00000000E+00	 0.00000000E+00
		 0.00000000E+00	 0.00000000E+00
		 0.00000000E+00	 0.00000000E+00
		 0.00000000E+00	 0.00000000E+00
		 0.00000000E+00	 0.00000000E+00
		 0.00000000E+00	 0.00000000E+00
		 0.00000000E+00	 0.00000000E+00
		 0.00000000E+00	 0.00000000E+00
		 0.00000000E+00	 0.00000000E+00
		 0.00000000E+00	 0.00000000E+00
		 0.00000000E+00	 0.00000000E+00
		 0.00000000E+00	 0.00000000E+00
		 0.00000000E+00	 0.00000000E+00
		 0.00000000E+00	 0.00000000E+00
		 0.00000000E+00	 0.00000000E+00
		 0.00000000E+00	 0.00000000E+00
		 0.00000000E+00	 0.00000000E+00
		 0.00000000E+00	 0.00000000E+00
		 0.00000000E+00	 0.00000000E+00
		 0.00000000E+00	 0.00000000E+00
		 0.00000000E+00	 0.00000000E+00
		 0.00000000E+00	 0.00000000E+00
		 0.00000000E+00	 0.00000000E+00
		 0.00000000E+00	 0.00000000E+00
		 0.00000000E+00	 0.00000000E+00
		 0.00000000E+00	 0.00000000E+00
		 0.00000000E+00	 0.00000000E+00
		 0.00000000E+00	 0.00000000E+00
		 0.00000000E+00	 0.00000000E+00
		 0.00000000E+00	 0.00000000E+00
		 0.00000000E+00	 0.00000000E+00
		 0.00000000E+00	 0.00000000E+00
		 0.00000000E+00	 0.00000000E+00
		 0.00000000E+00	 0.00000000E+00
		 0.00000000E+00	 0.00000000E+00
