<?xml version="1.0"?>
<VTKFile type="UnstructuredGrid" version="0.1" byte_order="LittleEndian">
	<UnstructuredGrid>
		<Piece NumberOfPoints="40" NumberOfCells="2">
			<Points>
				<DataArray type="Float64" NumberOfComponents="3" format="ascii">
					 5.00000000E+00	-5.00000000E+00	 0.00000000E+00
					-5.00000000E+00	-5.00000000E+00	 0.00000000E+00
					-5.00000000E+00	 5.00000000E+00	 0.00000000E+00
					 5.00000000E+00	 5.00000000E+00	 0.00000000E+00
					 0.00000000E+00	-5.00000000E+00	 0.00000000E+00
					-5.00000000E+00	 0.00000000E+00	 0.00000000E+00
					 0.00000000E+00	 5.00000000E+00	 0.00000000E+00
					 5.00000000E+00	 0.00000000E+00	 0.00000000E+00
					 5.00000000E+00	-5.00000000E+00	-1.50000000E+01
					-5.00000000E+00	-5.00000000E+00	-1.50000000E+01
					-5.00000000E+00	 5.00000000E+00	-1.50000000E+01
					 5.00000000E+00	 5.00000000E+00	-1.50000000E+01
					 5.00000000E+00	-5.00000000E+00	-3.00000000E+01
					-5.00000000E+00	-5.00000000E+00	-3.00000000E+01
					-5.00000000E+00	 5.00000000E+00	-3.00000000E+01
					 5.00000000E+00	 5.00000000E+00	-3.00000000E+01
					 0.00000000E+00	-5.00000000E+00	-3.00000000E+01
					-5.00000000E+00	 0.00000000E+00	-3.00000000E+01
					 0.00000000E+00	 5.00000000E+00	-3.00000000E+01
					 5.00000000E+00	 0.00000000E+00	-3.00000000E+01
					 5.00000000E+00	-5.00000000E+00	-3.00000000E+01
					-5.00000000E+00	-5.00000000E+00	-3.00000000E+01
					-5.00000000E+00	 5.00000000E+00	-3.00000000E+01
					 5.00000000E+00	 5.00000000E+00	-3.00000000E+01
					 0.00000000E+00	-5.00000000E+00	-3.00000000E+01
					-5.00000000E+00	 0.00000000E+00	-3.00000000E+01
					 0.00000000E+00	 5.00000000E+00	-3.00000000E+01
					 5.00000000E+00	 0.00000000E+00	-3.00000000E+01
					 5.00000000E+00	-5.00000000E+00	-1.80000000E+02
					-5.00000000E+00	-5.00000000E+00	-1.80000000E+02
					-5.00000000E+00	 5.00000000E+00	-1.80000000E+02
					 5.00000000E+00	 5.00000000E+00	-1.80000000E+02
					 5.00000000E+00	-5.00000000E+00	-3.30000000E+02
					-5.00000000E+00	-5.00000000E+00	-3.30000000E+02
					-5.00000000E+00	 5.00000000E+00	-3.30000000E+02
					 5.00000000E+00	 5.00000000E+00	-3.30000000E+02
					 0.00000000E+00	-5.00000000E+00	-3.30000000E+02
					-5.00000000E+00	 0.00000000E+00	-3.30000000E+02
					 0.00000000E+00	 5.00000000E+00	-3.30000000E+02
					 5.00000000E+00	 0.00000000E+00	-3.30000000E+02

				</DataArray>
			</Points>
			<Cells>
				<DataArray type="Int32" Name="connectivity" format="ascii">
					0 12 13 1 3 15 14 2 8 16 9 4 11 18 10 6 7 19 17 5 20 32 33 21 23 35 34 22 28 36 29 24 31 38 30 26 27 39 37 25 
				</DataArray>
				<DataArray type="Int32" Name="offsets" format="ascii">
					20 40 
				</DataArray>
				<DataArray type="UInt8" Name="types" format="ascii">
					25 25 
				</DataArray>
			</Cells>
			<PointData>
				<DataArray type="Float32" Name="U" NumberOfComponents="3" ComponentName0="D1" ComponentName1="D2" ComponentName2="D3" format="ascii">
					-1.93319000E+00	 1.64073000E-07	 3.94901000E+00
					 1.93319000E+00	 1.64073000E-07	-3.94901000E+00
					 1.93319000E+00	-1.64073000E-07	-3.94901000E+00
					-1.93319000E+00	-1.64073000E-07	 3.94901000E+00
					 0.00000000E+00	 1.64073000E-07	 0.00000000E+00
					 1.93319000E+00	 0.00000000E+00	-3.94901000E+00
					 0.00000000E+00	-1.64073000E-07	 0.00000000E+00
					-1.93319000E+00	 0.00000000E+00	 3.94901000E+00
					 9.91384000E+00	 1.58439000E-07	 9.74857000E+00
					 1.37802000E+01	 1.58439000E-07	 1.85056000E+00
					 1.37802000E+01	-1.58439000E-07	 1.85056000E+00
					 9.91384000E+00	-1.58439000E-07	 9.74857000E+00
					 2.17609000E+01	 1.52809000E-07	 1.55481000E+01
					 2.56272000E+01	 1.52809000E-07	 7.65011000E+00
					 2.56272000E+01	-1.52809000E-07	 7.65011000E+00
					 2.17609000E+01	-1.52809000E-07	 1.55481000E+01
					 2.36940000E+01	 1.52809000E-07	 1.15991000E+01
					 2.56272000E+01	 0.00000000E+00	 7.65011000E+00
					 2.36940000E+01	-1.52809000E-07	 1.15991000E+01
					 2.17609000E+01	 0.00000000E+00	 1.55481000E+01
					 2.35372000E+01	 2.01271000E-07	 1.28415000E+01
					 2.38509000E+01	 2.01271000E-07	 1.03567000E+01
					 2.38509000E+01	-2.01271000E-07	 1.03567000E+01
					 2.35372000E+01	-2.01271000E-07	 1.28415000E+01
					 2.36940000E+01	 2.01271000E-07	 1.15991000E+01
					 2.38509000E+01	 0.00000000E+00	 1.03567000E+01
					 2.36940000E+01	-2.01271000E-07	 1.15991000E+01
					 2.35372000E+01	 0.00000000E+00	 1.28415000E+01
					 6.08098000E+01	 1.01940000E-07	 1.75461000E+01
					 6.11234000E+01	 1.01940000E-07	 1.50613000E+01
					 6.11234000E+01	-1.01940000E-07	 1.50613000E+01
					 6.08098000E+01	-1.01940000E-07	 1.75461000E+01
					 9.80826000E+01	 2.61329000E-09	 2.22508000E+01
					 9.83963000E+01	 2.61329000E-09	 1.97659000E+01
					 9.83963000E+01	-2.61329000E-09	 1.97659000E+01
					 9.80826000E+01	-2.61329000E-09	 2.22508000E+01
					 9.82394000E+01	 2.61329000E-09	 2.10083000E+01
					 9.83963000E+01	 0.00000000E+00	 1.97659000E+01
					 9.82394000E+01	-2.61329000E-09	 2.10083000E+01
					 9.80826000E+01	 0.00000000E+00	 2.22508000E+01
				</DataArray>
			</PointData>
		</Piece>
	</UnstructuredGrid>
</VTKFile>