# vtk DataFile Version 3.0

ASCII
DATASET UNSTRUCTURED_GRID

POINTS 40 double
	 5.00000000E+00	-5.00000000E+00	 0.00000000E+00
	-5.00000000E+00	-5.00000000E+00	 0.00000000E+00
	-5.00000000E+00	 5.00000000E+00	 0.00000000E+00
	 5.00000000E+00	 5.00000000E+00	 0.00000000E+00
	 0.00000000E+00	-5.00000000E+00	 0.00000000E+00
	-5.00000000E+00	 0.00000000E+00	 0.00000000E+00
	 0.00000000E+00	 5.00000000E+00	 0.00000000E+00
	 5.00000000E+00	 0.00000000E+00	 0.00000000E+00
	 5.00000000E+00	-5.00000000E+00	-1.50000000E+01
	-5.00000000E+00	-5.00000000E+00	-1.50000000E+01
	-5.00000000E+00	 5.00000000E+00	-1.50000000E+01
	 5.00000000E+00	 5.00000000E+00	-1.50000000E+01
	 5.00000000E+00	-5.00000000E+00	-3.00000000E+01
	-5.00000000E+00	-5.00000000E+00	-3.00000000E+01
	-5.00000000E+00	 5.00000000E+00	-3.00000000E+01
	 5.00000000E+00	 5.00000000E+00	-3.00000000E+01
	 0.00000000E+00	-5.00000000E+00	-3.00000000E+01
	-5.00000000E+00	 0.00000000E+00	-3.00000000E+01
	 0.00000000E+00	 5.00000000E+00	-3.00000000E+01
	 5.00000000E+00	 0.00000000E+00	-3.00000000E+01
	 5.00000000E+00	-5.00000000E+00	-3.00000000E+01
	-5.00000000E+00	-5.00000000E+00	-3.00000000E+01
	-5.00000000E+00	 5.00000000E+00	-3.00000000E+01
	 5.00000000E+00	 5.00000000E+00	-3.00000000E+01
	 0.00000000E+00	-5.00000000E+00	-3.00000000E+01
	-5.00000000E+00	 0.00000000E+00	-3.00000000E+01
	 0.00000000E+00	 5.00000000E+00	-3.00000000E+01
	 5.00000000E+00	 0.00000000E+00	-3.00000000E+01
	 5.00000000E+00	-5.00000000E+00	-1.80000000E+02
	-5.00000000E+00	-5.00000000E+00	-1.80000000E+02
	-5.00000000E+00	 5.00000000E+00	-1.80000000E+02
	 5.00000000E+00	 5.00000000E+00	-1.80000000E+02
	 5.00000000E+00	-5.00000000E+00	-3.30000000E+02
	-5.00000000E+00	-5.00000000E+00	-3.30000000E+02
	-5.00000000E+00	 5.00000000E+00	-3.30000000E+02
	 5.00000000E+00	 5.00000000E+00	-3.30000000E+02
	 0.00000000E+00	-5.00000000E+00	-3.30000000E+02
	-5.00000000E+00	 0.00000000E+00	-3.30000000E+02
	 0.00000000E+00	 5.00000000E+00	-3.30000000E+02
	 5.00000000E+00	 0.00000000E+00	-3.30000000E+02

CELLS 2 42
	20 0 12 13 1 3 15 14 2 8 16 9 4 11 18 10 6 7 19 17 5 
	20 20 32 33 21 23 35 34 22 28 36 29 24 31 38 30 26 27 39 37 25 

CELL_TYPES 2
	25
	25

POINT_DATA 40
FIELD U 1
	U 3 40 double
		-5.21509000E+00	-7.64000000E-09	-4.99537000E+00
		 5.21509000E+00	-7.64000000E-09	 4.99537000E+00
		 5.21509000E+00	 7.64000000E-09	 4.99537000E+00
		-5.21509000E+00	 7.64000000E-09	-4.99537000E+00
		 0.00000000E+00	-7.64000000E-09	 0.00000000E+00
		 5.21509000E+00	 0.00000000E+00	 4.99537000E+00
		 0.00000000E+00	 7.64000000E-09	 0.00000000E+00
		-5.21509000E+00	 0.00000000E+00	-4.99537000E+00
		-2.02012000E+01	-7.78911000E-09	 1.06499000E+01
		-9.77104000E+00	-7.78911000E-09	 2.06406000E+01
		-9.77104000E+00	 7.78911000E-09	 2.06406000E+01
		-2.02012000E+01	 7.78911000E-09	 1.06499000E+01
		-3.51873000E+01	-7.92921000E-09	 2.62951000E+01
		-2.47572000E+01	-7.92921000E-09	 3.62858000E+01
		-2.47572000E+01	 7.92921000E-09	 3.62858000E+01
		-3.51873000E+01	 7.92921000E-09	 2.62951000E+01
		-2.99722000E+01	-7.92921000E-09	 3.12905000E+01
		-2.47572000E+01	 0.00000000E+00	 3.62858000E+01
		-2.99722000E+01	 7.92921000E-09	 3.12905000E+01
		-3.51873000E+01	 0.00000000E+00	 2.62951000E+01
		-2.99780000E+01	 1.72801000E-07	 3.15302000E+01
		-2.99665000E+01	 1.72801000E-07	 3.10507000E+01
		-2.99665000E+01	-1.72801000E-07	 3.10507000E+01
		-2.99780000E+01	-1.72801000E-07	 3.15302000E+01
		-2.99722000E+01	 1.72801000E-07	 3.12905000E+01
		-2.99665000E+01	 0.00000000E+00	 3.10507000E+01
		-2.99722000E+01	-1.72801000E-07	 3.12905000E+01
		-2.99780000E+01	 0.00000000E+00	 3.15302000E+01
		-2.27862000E+01	 8.66125000E-08	 3.17027000E+01
		-2.27747000E+01	 8.66125000E-08	 3.12232000E+01
		-2.27747000E+01	-8.66125000E-08	 3.12232000E+01
		-2.27862000E+01	-8.66125000E-08	 3.17027000E+01
		-1.55942000E+01	 0.00000000E+00	 3.18752000E+01
		-1.55827000E+01	 0.00000000E+00	 3.13957000E+01
		-1.55827000E+01	 0.00000000E+00	 3.13957000E+01
		-1.55942000E+01	 0.00000000E+00	 3.18752000E+01
		-1.55884000E+01	 0.00000000E+00	 3.16355000E+01
		-1.55827000E+01	 0.00000000E+00	 3.13957000E+01
		-1.55884000E+01	 0.00000000E+00	 3.16355000E+01
		-1.55942000E+01	 0.00000000E+00	 3.18752000E+01
