# vtk DataFile Version 3.0

ASCII
DATASET UNSTRUCTURED_GRID

POINTS 40 double
	 5.00000000E+00	-5.00000000E+00	 0.00000000E+00
	-5.00000000E+00	-5.00000000E+00	 0.00000000E+00
	-5.00000000E+00	 5.00000000E+00	 0.00000000E+00
	 5.00000000E+00	 5.00000000E+00	 0.00000000E+00
	 0.00000000E+00	-5.00000000E+00	 0.00000000E+00
	-5.00000000E+00	 0.00000000E+00	 0.00000000E+00
	 0.00000000E+00	 5.00000000E+00	 0.00000000E+00
	 5.00000000E+00	 0.00000000E+00	 0.00000000E+00
	 5.00000000E+00	-5.00000000E+00	-1.50000000E+01
	-5.00000000E+00	-5.00000000E+00	-1.50000000E+01
	-5.00000000E+00	 5.00000000E+00	-1.50000000E+01
	 5.00000000E+00	 5.00000000E+00	-1.50000000E+01
	 5.00000000E+00	-5.00000000E+00	-3.00000000E+01
	-5.00000000E+00	-5.00000000E+00	-3.00000000E+01
	-5.00000000E+00	 5.00000000E+00	-3.00000000E+01
	 5.00000000E+00	 5.00000000E+00	-3.00000000E+01
	 0.00000000E+00	-5.00000000E+00	-3.00000000E+01
	-5.00000000E+00	 0.00000000E+00	-3.00000000E+01
	 0.00000000E+00	 5.00000000E+00	-3.00000000E+01
	 5.00000000E+00	 0.00000000E+00	-3.00000000E+01
	 5.00000000E+00	-5.00000000E+00	-3.00000000E+01
	-5.00000000E+00	-5.00000000E+00	-3.00000000E+01
	-5.00000000E+00	 5.00000000E+00	-3.00000000E+01
	 5.00000000E+00	 5.00000000E+00	-3.00000000E+01
	 0.00000000E+00	-5.00000000E+00	-3.00000000E+01
	-5.00000000E+00	 0.00000000E+00	-3.00000000E+01
	 0.00000000E+00	 5.00000000E+00	-3.00000000E+01
	 5.00000000E+00	 0.00000000E+00	-3.00000000E+01
	 5.00000000E+00	-5.00000000E+00	-1.80000000E+02
	-5.00000000E+00	-5.00000000E+00	-1.80000000E+02
	-5.00000000E+00	 5.00000000E+00	-1.80000000E+02
	 5.00000000E+00	 5.00000000E+00	-1.80000000E+02
	 5.00000000E+00	-5.00000000E+00	-3.30000000E+02
	-5.00000000E+00	-5.00000000E+00	-3.30000000E+02
	-5.00000000E+00	 5.00000000E+00	-3.30000000E+02
	 5.00000000E+00	 5.00000000E+00	-3.30000000E+02
	 0.00000000E+00	-5.00000000E+00	-3.30000000E+02
	-5.00000000E+00	 0.00000000E+00	-3.30000000E+02
	 0.00000000E+00	 5.00000000E+00	-3.30000000E+02
	 5.00000000E+00	 0.00000000E+00	-3.30000000E+02

CELLS 2 42
	20 0 12 13 1 3 15 14 2 8 16 9 4 11 18 10 6 7 19 17 5 
	20 20 32 33 21 23 35 34 22 28 36 29 24 31 38 30 26 27 39 37 25 

CELL_TYPES 2
	25
	25

POINT_DATA 40
FIELD U 1
	U 3 40 double
		-4.94722000E-06	 2.69598000E-07	-6.83931000E-03
		 4.94722000E-06	 2.69598000E-07	 6.83931000E-03
		 4.94722000E-06	-2.69598000E-07	 6.83931000E-03
		-4.94722000E-06	-2.69598000E-07	-6.83931000E-03
		 0.00000000E+00	 2.69598000E-07	 0.00000000E+00
		 4.94722000E-06	 0.00000000E+00	 6.83931000E-03
		 0.00000000E+00	-2.69598000E-07	 0.00000000E+00
		-4.94722000E-06	 0.00000000E+00	-6.83931000E-03
		-2.21140000E-02	 2.54336000E-07	-7.64270000E-03
		-2.21018000E-02	 2.54336000E-07	 7.67010000E-03
		-2.21018000E-02	-2.54336000E-07	 7.67010000E-03
		-2.21140000E-02	-2.54336000E-07	-7.64270000E-03
		-4.60160000E-02	 2.62667000E-07	-8.02515000E-03
		-4.60025000E-02	 2.62667000E-07	 8.08558000E-03
		-4.60025000E-02	-2.62667000E-07	 8.08558000E-03
		-4.60160000E-02	-2.62667000E-07	-8.02515000E-03
		-4.60092000E-02	 2.62667000E-07	 3.02174000E-05
		-4.60025000E-02	 0.00000000E+00	 8.08558000E-03
		-4.60092000E-02	-2.62667000E-07	 3.02174000E-05
		-4.60160000E-02	 0.00000000E+00	-8.02515000E-03
		-4.60104000E-02	 3.68977000E-07	 2.95909000E-03
		-4.60080000E-02	 3.68977000E-07	-2.89866000E-03
		-4.60080000E-02	-3.68977000E-07	-2.89866000E-03
		-4.60104000E-02	-3.68977000E-07	 2.95909000E-03
		-4.60092000E-02	 3.68977000E-07	 3.02174000E-05
		-4.60080000E-02	 0.00000000E+00	-2.89866000E-03
		-4.60092000E-02	-3.68977000E-07	 3.02174000E-05
		-4.60104000E-02	 0.00000000E+00	 2.95909000E-03
		 6.37067000E-03	 7.50893000E-08	 5.75616000E-04
		 6.37088000E-03	 7.50893000E-08	-5.32759000E-04
		 6.37088000E-03	-7.50893000E-08	-5.32759000E-04
		 6.37067000E-03	-7.50893000E-08	 5.75616000E-04
		-1.27606000E-02	 1.20434000E-07	-1.80336000E-03
		-1.27597000E-02	 1.20434000E-07	 1.83764000E-03
		-1.27597000E-02	-1.20434000E-07	 1.83764000E-03
		-1.27606000E-02	-1.20434000E-07	-1.80336000E-03
		-1.27601000E-02	 1.20434000E-07	 1.71422000E-05
		-1.27597000E-02	 0.00000000E+00	 1.83764000E-03
		-1.27601000E-02	-1.20434000E-07	 1.71422000E-05
		-1.27606000E-02	 0.00000000E+00	-1.80336000E-03
