# vtk DataFile Version 3.0

ASCII
DATASET UNSTRUCTURED_GRID

POINTS 40 double
	 5.00000000E+00	-5.00000000E+00	 0.00000000E+00
	-5.00000000E+00	-5.00000000E+00	 0.00000000E+00
	-5.00000000E+00	 5.00000000E+00	 0.00000000E+00
	 5.00000000E+00	 5.00000000E+00	 0.00000000E+00
	 0.00000000E+00	-5.00000000E+00	 0.00000000E+00
	-5.00000000E+00	 0.00000000E+00	 0.00000000E+00
	 0.00000000E+00	 5.00000000E+00	 0.00000000E+00
	 5.00000000E+00	 0.00000000E+00	 0.00000000E+00
	 5.00000000E+00	-5.00000000E+00	-1.50000000E+01
	-5.00000000E+00	-5.00000000E+00	-1.50000000E+01
	-5.00000000E+00	 5.00000000E+00	-1.50000000E+01
	 5.00000000E+00	 5.00000000E+00	-1.50000000E+01
	 5.00000000E+00	-5.00000000E+00	-3.00000000E+01
	-5.00000000E+00	-5.00000000E+00	-3.00000000E+01
	-5.00000000E+00	 5.00000000E+00	-3.00000000E+01
	 5.00000000E+00	 5.00000000E+00	-3.00000000E+01
	 0.00000000E+00	-5.00000000E+00	-3.00000000E+01
	-5.00000000E+00	 0.00000000E+00	-3.00000000E+01
	 0.00000000E+00	 5.00000000E+00	-3.00000000E+01
	 5.00000000E+00	 0.00000000E+00	-3.00000000E+01
	 5.00000000E+00	-5.00000000E+00	-3.00000000E+01
	-5.00000000E+00	-5.00000000E+00	-3.00000000E+01
	-5.00000000E+00	 5.00000000E+00	-3.00000000E+01
	 5.00000000E+00	 5.00000000E+00	-3.00000000E+01
	 0.00000000E+00	-5.00000000E+00	-3.00000000E+01
	-5.00000000E+00	 0.00000000E+00	-3.00000000E+01
	 0.00000000E+00	 5.00000000E+00	-3.00000000E+01
	 5.00000000E+00	 0.00000000E+00	-3.00000000E+01
	 5.00000000E+00	-5.00000000E+00	-1.80000000E+02
	-5.00000000E+00	-5.00000000E+00	-1.80000000E+02
	-5.00000000E+00	 5.00000000E+00	-1.80000000E+02
	 5.00000000E+00	 5.00000000E+00	-1.80000000E+02
	 5.00000000E+00	-5.00000000E+00	-3.30000000E+02
	-5.00000000E+00	-5.00000000E+00	-3.30000000E+02
	-5.00000000E+00	 5.00000000E+00	-3.30000000E+02
	 5.00000000E+00	 5.00000000E+00	-3.30000000E+02
	 0.00000000E+00	-5.00000000E+00	-3.30000000E+02
	-5.00000000E+00	 0.00000000E+00	-3.30000000E+02
	 0.00000000E+00	 5.00000000E+00	-3.30000000E+02
	 5.00000000E+00	 0.00000000E+00	-3.30000000E+02

CELLS 2 42
	20 0 12 13 1 3 15 14 2 8 16 9 4 11 18 10 6 7 19 17 5 
	20 20 32 33 21 23 35 34 22 28 36 29 24 31 38 30 26 27 39 37 25 

CELL_TYPES 2
	25
	25

POINT_DATA 40
FIELD U 1
	U 3 40 double
		-4.86633000E-07	 1.60650000E-07	-1.80550000E-03
		 4.86633000E-07	 1.60650000E-07	 1.80550000E-03
		 4.86633000E-07	-1.60650000E-07	 1.80550000E-03
		-4.86633000E-07	-1.60650000E-07	-1.80550000E-03
		 0.00000000E+00	 1.60650000E-07	 0.00000000E+00
		 4.86633000E-07	 0.00000000E+00	 1.80550000E-03
		 0.00000000E+00	-1.60650000E-07	 0.00000000E+00
		-4.86633000E-07	 0.00000000E+00	-1.80550000E-03
		-3.13863000E-03	 1.42925000E-07	-6.71589000E-04
		-3.13825000E-03	 1.42925000E-07	 6.69321000E-04
		-3.13825000E-03	-1.42925000E-07	 6.69321000E-04
		-3.13863000E-03	-1.42925000E-07	-6.71589000E-04
		-3.91402000E-03	 1.69888000E-07	-1.53791000E-04
		-3.91367000E-03	 1.69888000E-07	 1.48647000E-04
		-3.91367000E-03	-1.69888000E-07	 1.48647000E-04
		-3.91402000E-03	-1.69888000E-07	-1.53791000E-04
		-3.91384000E-03	 1.69888000E-07	-2.57237000E-06
		-3.91367000E-03	 0.00000000E+00	 1.48647000E-04
		-3.91384000E-03	-1.69888000E-07	-2.57237000E-06
		-3.91402000E-03	 0.00000000E+00	-1.53791000E-04
		-3.91400000E-03	 1.49661000E-07	 2.56469000E-04
		-3.91369000E-03	 1.49661000E-07	-2.61614000E-04
		-3.91369000E-03	-1.49661000E-07	-2.61614000E-04
		-3.91400000E-03	-1.49661000E-07	 2.56469000E-04
		-3.91384000E-03	 1.49661000E-07	-2.57237000E-06
		-3.91369000E-03	 0.00000000E+00	-2.61614000E-04
		-3.91384000E-03	-1.49661000E-07	-2.57237000E-06
		-3.91400000E-03	 0.00000000E+00	 2.56469000E-04
		 6.44076000E-04	 6.61719000E-08	 3.04325000E-05
		 6.44208000E-04	 6.61719000E-08	-5.69517000E-05
		 6.44208000E-04	-6.61719000E-08	-5.69517000E-05
		 6.44076000E-04	-6.61719000E-08	 3.04325000E-05
		-1.28973000E-03	-1.45226000E-08	-1.87453000E-04
		-1.28975000E-03	-1.45226000E-08	 1.55862000E-04
		-1.28975000E-03	 1.45226000E-08	 1.55862000E-04
		-1.28973000E-03	 1.45226000E-08	-1.87453000E-04
		-1.28974000E-03	-1.45226000E-08	-1.57952000E-05
		-1.28975000E-03	 0.00000000E+00	 1.55862000E-04
		-1.28974000E-03	 1.45226000E-08	-1.57952000E-05
		-1.28973000E-03	 0.00000000E+00	-1.87453000E-04
