# vtk DataFile Version 3.0

ASCII
DATASET UNSTRUCTURED_GRID

POINTS 40 double
	 5.00000000E+00	-5.00000000E+00	 0.00000000E+00
	-5.00000000E+00	-5.00000000E+00	 0.00000000E+00
	-5.00000000E+00	 5.00000000E+00	 0.00000000E+00
	 5.00000000E+00	 5.00000000E+00	 0.00000000E+00
	 0.00000000E+00	-5.00000000E+00	 0.00000000E+00
	-5.00000000E+00	 0.00000000E+00	 0.00000000E+00
	 0.00000000E+00	 5.00000000E+00	 0.00000000E+00
	 5.00000000E+00	 0.00000000E+00	 0.00000000E+00
	 5.00000000E+00	-5.00000000E+00	-1.50000000E+01
	-5.00000000E+00	-5.00000000E+00	-1.50000000E+01
	-5.00000000E+00	 5.00000000E+00	-1.50000000E+01
	 5.00000000E+00	 5.00000000E+00	-1.50000000E+01
	 5.00000000E+00	-5.00000000E+00	-3.00000000E+01
	-5.00000000E+00	-5.00000000E+00	-3.00000000E+01
	-5.00000000E+00	 5.00000000E+00	-3.00000000E+01
	 5.00000000E+00	 5.00000000E+00	-3.00000000E+01
	 0.00000000E+00	-5.00000000E+00	-3.00000000E+01
	-5.00000000E+00	 0.00000000E+00	-3.00000000E+01
	 0.00000000E+00	 5.00000000E+00	-3.00000000E+01
	 5.00000000E+00	 0.00000000E+00	-3.00000000E+01
	 5.00000000E+00	-5.00000000E+00	-3.00000000E+01
	-5.00000000E+00	-5.00000000E+00	-3.00000000E+01
	-5.00000000E+00	 5.00000000E+00	-3.00000000E+01
	 5.00000000E+00	 5.00000000E+00	-3.00000000E+01
	 0.00000000E+00	-5.00000000E+00	-3.00000000E+01
	-5.00000000E+00	 0.00000000E+00	-3.00000000E+01
	 0.00000000E+00	 5.00000000E+00	-3.00000000E+01
	 5.00000000E+00	 0.00000000E+00	-3.00000000E+01
	 5.00000000E+00	-5.00000000E+00	-1.80000000E+02
	-5.00000000E+00	-5.00000000E+00	-1.80000000E+02
	-5.00000000E+00	 5.00000000E+00	-1.80000000E+02
	 5.00000000E+00	 5.00000000E+00	-1.80000000E+02
	 5.00000000E+00	-5.00000000E+00	-3.30000000E+02
	-5.00000000E+00	-5.00000000E+00	-3.30000000E+02
	-5.00000000E+00	 5.00000000E+00	-3.30000000E+02
	 5.00000000E+00	 5.00000000E+00	-3.30000000E+02
	 0.00000000E+00	-5.00000000E+00	-3.30000000E+02
	-5.00000000E+00	 0.00000000E+00	-3.30000000E+02
	 0.00000000E+00	 5.00000000E+00	-3.30000000E+02
	 5.00000000E+00	 0.00000000E+00	-3.30000000E+02

CELLS 2 42
	20 0 12 13 1 3 15 14 2 8 16 9 4 11 18 10 6 7 19 17 5 
	20 20 32 33 21 23 35 34 22 28 36 29 24 31 38 30 26 27 39 37 25 

CELL_TYPES 2
	25
	25

POINT_DATA 40
FIELD U 1
	U 3 40 double
		-9.23496000E+00	-1.49572000E-07	 2.65803000E+00
		 9.23496000E+00	-1.49572000E-07	-2.65803000E+00
		 9.23496000E+00	 1.49572000E-07	-2.65803000E+00
		-9.23496000E+00	 1.49572000E-07	 2.65803000E+00
		 0.00000000E+00	-1.49572000E-07	 0.00000000E+00
		 9.23496000E+00	 0.00000000E+00	-2.65803000E+00
		 0.00000000E+00	 1.49572000E-07	 0.00000000E+00
		-9.23496000E+00	 0.00000000E+00	 2.65803000E+00
		-1.26084000E+00	-1.42999000E-07	 3.03629000E+01
		 1.72091000E+01	-1.42999000E-07	 2.50468000E+01
		 1.72091000E+01	 1.42999000E-07	 2.50468000E+01
		-1.26084000E+00	 1.42999000E-07	 3.03629000E+01
		 6.71328000E+00	-1.36425000E-07	 5.80678000E+01
		 2.51832000E+01	-1.36425000E-07	 5.27517000E+01
		 2.51832000E+01	 1.36425000E-07	 5.27517000E+01
		 6.71328000E+00	 1.36425000E-07	 5.80678000E+01
		 1.59482000E+01	-1.36425000E-07	 5.54097000E+01
		 2.51832000E+01	 0.00000000E+00	 5.27517000E+01
		 1.59482000E+01	 1.36425000E-07	 5.54097000E+01
		 6.71328000E+00	 0.00000000E+00	 5.80678000E+01
		 1.57707000E+01	 1.46405000E-07	 5.40891000E+01
		 1.61258000E+01	 1.46405000E-07	 5.67304000E+01
		 1.61258000E+01	-1.46405000E-07	 5.67304000E+01
		 1.57707000E+01	-1.46405000E-07	 5.40891000E+01
		 1.59482000E+01	 1.46405000E-07	 5.54097000E+01
		 1.61258000E+01	 0.00000000E+00	 5.67304000E+01
		 1.59482000E+01	-1.46405000E-07	 5.54097000E+01
		 1.57707000E+01	 0.00000000E+00	 5.40891000E+01
		-2.38496000E+01	 7.32337000E-08	 5.94162000E+01
		-2.34945000E+01	 7.32337000E-08	 6.20575000E+01
		-2.34945000E+01	-7.32337000E-08	 6.20575000E+01
		-2.38496000E+01	-7.32337000E-08	 5.94162000E+01
		-6.34704000E+01	 0.00000000E+00	 6.47434000E+01
		-6.31152000E+01	 0.00000000E+00	 6.73848000E+01
		-6.31152000E+01	 0.00000000E+00	 6.73848000E+01
		-6.34704000E+01	 0.00000000E+00	 6.47434000E+01
		-6.32928000E+01	 0.00000000E+00	 6.60641000E+01
		-6.31152000E+01	 0.00000000E+00	 6.73848000E+01
		-6.32928000E+01	 0.00000000E+00	 6.60641000E+01
		-6.34704000E+01	 0.00000000E+00	 6.47434000E+01
