# vtk DataFile Version 3.0

ASCII
DATASET UNSTRUCTURED_GRID

POINTS 40 double
	 5.00000000E+00	-5.00000000E+00	 0.00000000E+00
	-5.00000000E+00	-5.00000000E+00	 0.00000000E+00
	-5.00000000E+00	 5.00000000E+00	 0.00000000E+00
	 5.00000000E+00	 5.00000000E+00	 0.00000000E+00
	 0.00000000E+00	-5.00000000E+00	 0.00000000E+00
	-5.00000000E+00	 0.00000000E+00	 0.00000000E+00
	 0.00000000E+00	 5.00000000E+00	 0.00000000E+00
	 5.00000000E+00	 0.00000000E+00	 0.00000000E+00
	 5.00000000E+00	-5.00000000E+00	-1.50000000E+01
	-5.00000000E+00	-5.00000000E+00	-1.50000000E+01
	-5.00000000E+00	 5.00000000E+00	-1.50000000E+01
	 5.00000000E+00	 5.00000000E+00	-1.50000000E+01
	 5.00000000E+00	-5.00000000E+00	-3.00000000E+01
	-5.00000000E+00	-5.00000000E+00	-3.00000000E+01
	-5.00000000E+00	 5.00000000E+00	-3.00000000E+01
	 5.00000000E+00	 5.00000000E+00	-3.00000000E+01
	 0.00000000E+00	-5.00000000E+00	-3.00000000E+01
	-5.00000000E+00	 0.00000000E+00	-3.00000000E+01
	 0.00000000E+00	 5.00000000E+00	-3.00000000E+01
	 5.00000000E+00	 0.00000000E+00	-3.00000000E+01
	 5.00000000E+00	-5.00000000E+00	-3.00000000E+01
	-5.00000000E+00	-5.00000000E+00	-3.00000000E+01
	-5.00000000E+00	 5.00000000E+00	-3.00000000E+01
	 5.00000000E+00	 5.00000000E+00	-3.00000000E+01
	 0.00000000E+00	-5.00000000E+00	-3.00000000E+01
	-5.00000000E+00	 0.00000000E+00	-3.00000000E+01
	 0.00000000E+00	 5.00000000E+00	-3.00000000E+01
	 5.00000000E+00	 0.00000000E+00	-3.00000000E+01
	 5.00000000E+00	-5.00000000E+00	-1.80000000E+02
	-5.00000000E+00	-5.00000000E+00	-1.80000000E+02
	-5.00000000E+00	 5.00000000E+00	-1.80000000E+02
	 5.00000000E+00	 5.00000000E+00	-1.80000000E+02
	 5.00000000E+00	-5.00000000E+00	-3.30000000E+02
	-5.00000000E+00	-5.00000000E+00	-3.30000000E+02
	-5.00000000E+00	 5.00000000E+00	-3.30000000E+02
	 5.00000000E+00	 5.00000000E+00	-3.30000000E+02
	 0.00000000E+00	-5.00000000E+00	-3.30000000E+02
	-5.00000000E+00	 0.00000000E+00	-3.30000000E+02
	 0.00000000E+00	 5.00000000E+00	-3.30000000E+02
	 5.00000000E+00	 0.00000000E+00	-3.30000000E+02

CELLS 2 42
	20 0 12 13 1 3 15 14 2 8 16 9 4 11 18 10 6 7 19 17 5 
	20 20 32 33 21 23 35 34 22 28 36 29 24 31 38 30 26 27 39 37 25 

CELL_TYPES 2
	25
	25

POINT_DATA 40
FIELD U 1
	U 3 40 double
		-1.69800000E-02	 2.28550000E-07	-4.11715000E-01
		 1.69800000E-02	 2.28550000E-07	 4.11715000E-01
		 1.69800000E-02	-2.28550000E-07	 4.11715000E-01
		-1.69800000E-02	-2.28550000E-07	-4.11715000E-01
		 0.00000000E+00	 2.28550000E-07	 0.00000000E+00
		 1.69800000E-02	 0.00000000E+00	 4.11715000E-01
		 0.00000000E+00	-2.28550000E-07	 0.00000000E+00
		-1.69800000E-02	 0.00000000E+00	-4.11715000E-01
		-1.25217000E+00	 2.19044000E-07	-3.60795000E-01
		-1.21820000E+00	 2.19044000E-07	 4.62675000E-01
		-1.21820000E+00	-2.19044000E-07	 4.62675000E-01
		-1.25217000E+00	-2.19044000E-07	-3.60795000E-01
		-2.48740000E+00	 2.09545000E-07	-3.09861000E-01
		-2.45343000E+00	 2.09545000E-07	 5.13629000E-01
		-2.45343000E+00	-2.09545000E-07	 5.13629000E-01
		-2.48740000E+00	-2.09545000E-07	-3.09861000E-01
		-2.47041000E+00	 2.09545000E-07	 1.01884000E-01
		-2.45343000E+00	 0.00000000E+00	 5.13629000E-01
		-2.47041000E+00	-2.09545000E-07	 1.01884000E-01
		-2.48740000E+00	 0.00000000E+00	-3.09861000E-01
		-2.47079000E+00	 1.91391000E-07	 1.63262000E-01
		-2.47004000E+00	 1.91391000E-07	 4.05061000E-02
		-2.47004000E+00	-1.91391000E-07	 4.05061000E-02
		-2.47079000E+00	-1.91391000E-07	 1.63262000E-01
		-2.47041000E+00	 1.91391000E-07	 1.01884000E-01
		-2.47004000E+00	 0.00000000E+00	 4.05061000E-02
		-2.47041000E+00	-1.91391000E-07	 1.01884000E-01
		-2.47079000E+00	 0.00000000E+00	 1.63262000E-01
		-6.24230000E-01	 9.46807000E-08	 1.74964000E-01
		-6.23468000E-01	 9.46807000E-08	 5.15091000E-02
		-6.23468000E-01	-9.46807000E-08	 5.15091000E-02
		-6.24230000E-01	-9.46807000E-08	 1.74964000E-01
		 1.23285000E+00	 5.31182000E-09	 1.86804000E-01
		 1.23362000E+00	 5.31182000E-09	 6.26513000E-02
		 1.23362000E+00	-5.31182000E-09	 6.26513000E-02
		 1.23285000E+00	-5.31182000E-09	 1.86804000E-01
		 1.23323000E+00	 5.31182000E-09	 1.24728000E-01
		 1.23362000E+00	 0.00000000E+00	 6.26513000E-02
		 1.23323000E+00	-5.31182000E-09	 1.24728000E-01
		 1.23285000E+00	 0.00000000E+00	 1.86804000E-01
