# vtk DataFile Version 3.0

ASCII
DATASET UNSTRUCTURED_GRID

POINTS 40 double
	 5.00000000E+00	-5.00000000E+00	 0.00000000E+00
	-5.00000000E+00	-5.00000000E+00	 0.00000000E+00
	-5.00000000E+00	 5.00000000E+00	 0.00000000E+00
	 5.00000000E+00	 5.00000000E+00	 0.00000000E+00
	 0.00000000E+00	-5.00000000E+00	 0.00000000E+00
	-5.00000000E+00	 0.00000000E+00	 0.00000000E+00
	 0.00000000E+00	 5.00000000E+00	 0.00000000E+00
	 5.00000000E+00	 0.00000000E+00	 0.00000000E+00
	 5.00000000E+00	-5.00000000E+00	-1.50000000E+01
	-5.00000000E+00	-5.00000000E+00	-1.50000000E+01
	-5.00000000E+00	 5.00000000E+00	-1.50000000E+01
	 5.00000000E+00	 5.00000000E+00	-1.50000000E+01
	 5.00000000E+00	-5.00000000E+00	-3.00000000E+01
	-5.00000000E+00	-5.00000000E+00	-3.00000000E+01
	-5.00000000E+00	 5.00000000E+00	-3.00000000E+01
	 5.00000000E+00	 5.00000000E+00	-3.00000000E+01
	 0.00000000E+00	-5.00000000E+00	-3.00000000E+01
	-5.00000000E+00	 0.00000000E+00	-3.00000000E+01
	 0.00000000E+00	 5.00000000E+00	-3.00000000E+01
	 5.00000000E+00	 0.00000000E+00	-3.00000000E+01
	 5.00000000E+00	-5.00000000E+00	-3.00000000E+01
	-5.00000000E+00	-5.00000000E+00	-3.00000000E+01
	-5.00000000E+00	 5.00000000E+00	-3.00000000E+01
	 5.00000000E+00	 5.00000000E+00	-3.00000000E+01
	 0.00000000E+00	-5.00000000E+00	-3.00000000E+01
	-5.00000000E+00	 0.00000000E+00	-3.00000000E+01
	 0.00000000E+00	 5.00000000E+00	-3.00000000E+01
	 5.00000000E+00	 0.00000000E+00	-3.00000000E+01
	 5.00000000E+00	-5.00000000E+00	-1.80000000E+02
	-5.00000000E+00	-5.00000000E+00	-1.80000000E+02
	-5.00000000E+00	 5.00000000E+00	-1.80000000E+02
	 5.00000000E+00	 5.00000000E+00	-1.80000000E+02
	 5.00000000E+00	-5.00000000E+00	-3.30000000E+02
	-5.00000000E+00	-5.00000000E+00	-3.30000000E+02
	-5.00000000E+00	 5.00000000E+00	-3.30000000E+02
	 5.00000000E+00	 5.00000000E+00	-3.30000000E+02
	 0.00000000E+00	-5.00000000E+00	-3.30000000E+02
	-5.00000000E+00	 0.00000000E+00	-3.30000000E+02
	 0.00000000E+00	 5.00000000E+00	-3.30000000E+02
	 5.00000000E+00	 0.00000000E+00	-3.30000000E+02

CELLS 2 42
	20 0 12 13 1 3 15 14 2 8 16 9 4 11 18 10 6 7 19 17 5 
	20 20 32 33 21 23 35 34 22 28 36 29 24 31 38 30 26 27 39 37 25 

CELL_TYPES 2
	25
	25

POINT_DATA 40
FIELD U 1
	U 3 40 double
		-6.78556000E-02	 2.02790000E-07	-8.20944000E-01
		 6.78556000E-02	 2.02790000E-07	 8.20944000E-01
		 6.78556000E-02	-2.02790000E-07	 8.20944000E-01
		-6.78556000E-02	-2.02790000E-07	-8.20944000E-01
		 0.00000000E+00	 2.02790000E-07	 0.00000000E+00
		 6.78556000E-02	 0.00000000E+00	 8.20944000E-01
		 0.00000000E+00	-2.02790000E-07	 0.00000000E+00
		-6.78556000E-02	 0.00000000E+00	-8.20944000E-01
		-2.53067000E+00	 1.93757000E-07	-6.17375000E-01
		-2.39497000E+00	 1.93757000E-07	 1.02450000E+00
		-2.39497000E+00	-1.93757000E-07	 1.02450000E+00
		-2.53067000E+00	-1.93757000E-07	-6.17375000E-01
		-4.99348000E+00	 1.84725000E-07	-4.13812000E-01
		-4.85777000E+00	 1.84725000E-07	 1.22806000E+00
		-4.85777000E+00	-1.84725000E-07	 1.22806000E+00
		-4.99348000E+00	-1.84725000E-07	-4.13812000E-01
		-4.92562000E+00	 1.84725000E-07	 4.07122000E-01
		-4.85777000E+00	 0.00000000E+00	 1.22806000E+00
		-4.92562000E+00	-1.84725000E-07	 4.07122000E-01
		-4.99348000E+00	 0.00000000E+00	-4.13812000E-01
		-4.92712000E+00	 1.96319000E-07	 5.29494000E-01
		-4.92413000E+00	 1.96319000E-07	 2.84749000E-01
		-4.92413000E+00	-1.96319000E-07	 2.84749000E-01
		-4.92712000E+00	-1.96319000E-07	 5.29494000E-01
		-4.92562000E+00	 1.96319000E-07	 4.07122000E-01
		-4.92413000E+00	 0.00000000E+00	 2.84749000E-01
		-4.92562000E+00	-1.96319000E-07	 4.07122000E-01
		-4.92712000E+00	 0.00000000E+00	 5.29494000E-01
		-1.25756000E+00	 9.79025000E-08	 5.74264000E-01
		-1.25457000E+00	 9.79025000E-08	 3.29735000E-01
		-1.25457000E+00	-9.79025000E-08	 3.29735000E-01
		-1.25756000E+00	-9.79025000E-08	 5.74264000E-01
		 2.40876000E+00	 0.00000000E+00	 6.18964000E-01
		 2.41175000E+00	 0.00000000E+00	 3.74650000E-01
		 2.41175000E+00	 0.00000000E+00	 3.74650000E-01
		 2.40876000E+00	 0.00000000E+00	 6.18964000E-01
		 2.41025000E+00	 0.00000000E+00	 4.96807000E-01
		 2.41175000E+00	 0.00000000E+00	 3.74650000E-01
		 2.41025000E+00	 0.00000000E+00	 4.96807000E-01
		 2.40876000E+00	 0.00000000E+00	 6.18964000E-01
