<?xml version="1.0"?>
<VTKFile type="UnstructuredGrid" version="0.1" byte_order="LittleEndian">
	<UnstructuredGrid>
		<Piece NumberOfPoints="20" NumberOfCells="1">
			<Points>
				<DataArray type="Float64" NumberOfComponents="3" format="ascii">
					 1.00000000E+00	 0.00000000E+00	-5.00000000E-03
					 1.00000000E+00	 0.00000000E+00	 0.00000000E+00
					 1.00000000E+00	 0.00000000E+00	 5.00000000E-03
					 0.00000000E+00	 0.00000000E+00	-5.00000000E-03
					 0.00000000E+00	 0.00000000E+00	 0.00000000E+00
					 0.00000000E+00	 0.00000000E+00	 5.00000000E-03
					 0.00000000E+00	 1.00000000E+00	-5.00000000E-03
					 0.00000000E+00	 1.00000000E+00	 0.00000000E+00
					 0.00000000E+00	 1.00000000E+00	 5.00000000E-03
					 1.00000000E+00	 1.00000000E+00	-5.00000000E-03
					 1.00000000E+00	 1.00000000E+00	 0.00000000E+00
					 1.00000000E+00	 1.00000000E+00	 5.00000000E-03
					 1.00000000E+00	 5.00000000E-01	-5.00000000E-03
					 1.00000000E+00	 5.00000000E-01	 5.00000000E-03
					 5.00000000E-01	 1.00000000E+00	-5.00000000E-03
					 5.00000000E-01	 1.00000000E+00	 5.00000000E-03
					 0.00000000E+00	 5.00000000E-01	-5.00000000E-03
					 0.00000000E+00	 5.00000000E-01	 5.00000000E-03
					 5.00000000E-01	 0.00000000E+00	-5.00000000E-03
					 5.00000000E-01	 0.00000000E+00	 5.00000000E-03

				</DataArray>
			</Points>
			<Cells>
				<DataArray type="Int32" Name="connectivity" format="ascii">
					0 9 6 3 2 11 8 5 12 14 16 18 13 15 17 19 1 10 7 4 
				</DataArray>
				<DataArray type="Int32" Name="offsets" format="ascii">
					20 
				</DataArray>
				<DataArray type="UInt8" Name="types" format="ascii">
					25 
				</DataArray>
			</Cells>
			<PointData>
				<DataArray type="Float32" Name="U" NumberOfComponents="3" ComponentName0="D1" ComponentName1="D2" ComponentName2="D3" format="ascii">
					 0.00000000E+00	 0.00000000E+00	 0.00000000E+00
					 0.00000000E+00	 0.00000000E+00	 0.00000000E+00
					 0.00000000E+00	 0.00000000E+00	 0.00000000E+00
					 1.85714000E-04	 0.00000000E+00	 0.00000000E+00
					 1.85714000E-04	 0.00000000E+00	 0.00000000E+00
					 1.85714000E-04	 0.00000000E+00	 0.00000000E+00
					 1.85714000E-04	 4.33333000E-04	 0.00000000E+00
					 1.85714000E-04	 4.33333000E-04	 0.00000000E+00
					 1.85714000E-04	 4.33333000E-04	 0.00000000E+00
					 0.00000000E+00	 4.33333000E-04	 0.00000000E+00
					 0.00000000E+00	 4.33333000E-04	 0.00000000E+00
					 0.00000000E+00	 4.33333000E-04	 0.00000000E+00
					 0.00000000E+00	 2.16667000E-04	 0.00000000E+00
					 0.00000000E+00	 2.16667000E-04	 0.00000000E+00
					 9.28571000E-05	 4.33333000E-04	 0.00000000E+00
					 9.28571000E-05	 4.33333000E-04	 0.00000000E+00
					 1.85714000E-04	 2.16667000E-04	 0.00000000E+00
					 1.85714000E-04	 2.16667000E-04	 0.00000000E+00
					 9.28571000E-05	 0.00000000E+00	 0.00000000E+00
					 9.28571000E-05	 0.00000000E+00	 0.00000000E+00
				</DataArray>
				<DataArray type="Float32" Name="S" NumberOfComponents="10" ComponentName0="xx" ComponentName1="yy" ComponentName2="zz" ComponentName3="xy" ComponentName4="yz" ComponentName5="zx" ComponentName6="Mises" ComponentName7="Min Principal" ComponentName8="Mid Principal" ComponentName9="Max Principal" format="ascii">
					-4.99245000E-07	 9.99960000E+01	 2.99988000E+01	-2.95785000E-07	 0.00000000E+00	 0.00000000E+00	 8.88783893E+01	-4.99245001E-07	 2.99988000E+01	 9.99960000E+01
					-4.99243000E-07	 1.00005000E+02	 3.00015000E+01	-2.95785000E-07	 0.00000000E+00	 0.00000000E+00	 8.88863886E+01	-4.99243001E-07	 3.00015000E+01	 1.00005000E+02
					-4.99245000E-07	 9.99960000E+01	 2.99988000E+01	-2.95785000E-07	 0.00000000E+00	 0.00000000E+00	 8.88783893E+01	-4.99245001E-07	 2.99988000E+01	 9.99960000E+01
					-4.99064000E-07	 9.99960000E+01	 2.99988000E+01	 2.95918000E-07	 0.00000000E+00	 0.00000000E+00	 8.88783893E+01	-4.99064001E-07	 2.99988000E+01	 9.99960000E+01
					-4.99063000E-07	 1.00005000E+02	 3.00015000E+01	 2.95918000E-07	 0.00000000E+00	 0.00000000E+00	 8.88863886E+01	-4.99063001E-07	 3.00015000E+01	 1.00005000E+02
					-4.99064000E-07	 9.99960000E+01	 2.99988000E+01	 2.95918000E-07	 0.00000000E+00	 0.00000000E+00	 8.88783893E+01	-4.99064001E-07	 2.99988000E+01	 9.99960000E+01
					 8.33944000E-07	 9.99960000E+01	 2.99988000E+01	 1.03703000E-06	 0.00000000E+00	 0.00000000E+00	 8.88783883E+01	 8.33943989E-07	 2.99988000E+01	 9.99960000E+01
					 8.33945000E-07	 1.00005000E+02	 3.00015000E+01	 1.03703000E-06	 0.00000000E+00	 0.00000000E+00	 8.88863877E+01	 8.33944989E-07	 3.00015000E+01	 1.00005000E+02
					 8.33944000E-07	 9.99960000E+01	 2.99988000E+01	 1.03703000E-06	 0.00000000E+00	 0.00000000E+00	 8.88783883E+01	 8.33943989E-07	 2.99988000E+01	 9.99960000E+01
					 8.34112000E-07	 9.99960000E+01	 2.99988000E+01	-1.03696000E-06	 0.00000000E+00	 0.00000000E+00	 8.88783883E+01	 8.34111989E-07	 2.99988000E+01	 9.99960000E+01
					 8.34113000E-07	 1.00005000E+02	 3.00015000E+01	-1.03696000E-06	 0.00000000E+00	 0.00000000E+00	 8.88863877E+01	 8.34112989E-07	 3.00015000E+01	 1.00005000E+02
					 8.34112000E-07	 9.99960000E+01	 2.99988000E+01	-1.03696000E-06	 0.00000000E+00	 0.00000000E+00	 8.88783883E+01	 8.34111989E-07	 2.99988000E+01	 9.99960000E+01
					-7.58611000E-07	 1.00005000E+02	 3.00015000E+01	-6.66387000E-07	 0.00000000E+00	 0.00000000E+00	 8.88863888E+01	-7.58611004E-07	 3.00015000E+01	 1.00005000E+02
					-7.58611000E-07	 1.00005000E+02	 3.00015000E+01	-6.66387000E-07	 0.00000000E+00	 0.00000000E+00	 8.88863888E+01	-7.58611004E-07	 3.00015000E+01	 1.00005000E+02
					 1.50883000E-06	 1.00005000E+02	 3.00015000E+01	 0.00000000E+00	 0.00000000E+00	 0.00000000E+00	 8.88863872E+01	 1.50883000E-06	 3.00015000E+01	 1.00005000E+02
					 1.50883000E-06	 1.00005000E+02	 3.00015000E+01	 0.00000000E+00	 0.00000000E+00	 0.00000000E+00	 8.88863872E+01	 1.50883000E-06	 3.00015000E+01	 1.00005000E+02
					-7.58605000E-07	 1.00005000E+02	 3.00015000E+01	 6.66458000E-07	 0.00000000E+00	 0.00000000E+00	 8.88863888E+01	-7.58605004E-07	 3.00015000E+01	 1.00005000E+02
					-7.58605000E-07	 1.00005000E+02	 3.00015000E+01	 6.66458000E-07	 0.00000000E+00	 0.00000000E+00	 8.88863888E+01	-7.58605004E-07	 3.00015000E+01	 1.00005000E+02
					 1.75652000E-07	 1.00005000E+02	 3.00015000E+01	 0.00000000E+00	 0.00000000E+00	 0.00000000E+00	 8.88863881E+01	 1.75652000E-07	 3.00015000E+01	 1.00005000E+02
					 1.75652000E-07	 1.00005000E+02	 3.00015000E+01	 0.00000000E+00	 0.00000000E+00	 0.00000000E+00	 8.88863881E+01	 1.75652000E-07	 3.00015000E+01	 1.00005000E+02
				</DataArray>
				<DataArray type="Float32" Name="E" NumberOfComponents="10" ComponentName0="xx" ComponentName1="yy" ComponentName2="zz" ComponentName3="xy" ComponentName4="yz" ComponentName5="zx" ComponentName6="Mises" ComponentName7="Min Principal" ComponentName8="Mid Principal" ComponentName9="Max Principal" format="ascii">
					-1.85707000E-04	 4.33316000E-04	 0.00000000E+00	 0.00000000E+00	 0.00000000E+00	 0.00000000E+00	 3.66799770E-04	-1.85707000E-04	 0.00000000E+00	 4.33316000E-04
					-1.85724000E-04	 4.33355000E-04	 0.00000000E+00	 0.00000000E+00	 0.00000000E+00	 0.00000000E+00	 3.66832922E-04	-1.85724000E-04	 0.00000000E+00	 4.33355000E-04
					-1.85707000E-04	 4.33316000E-04	 0.00000000E+00	 0.00000000E+00	 0.00000000E+00	 0.00000000E+00	 3.66799770E-04	-1.85707000E-04	 0.00000000E+00	 4.33316000E-04
					-1.85707000E-04	 4.33316000E-04	 0.00000000E+00	 0.00000000E+00	 0.00000000E+00	 0.00000000E+00	 3.66799770E-04	-1.85707000E-04	 0.00000000E+00	 4.33316000E-04
					-1.85724000E-04	 4.33355000E-04	 0.00000000E+00	 0.00000000E+00	 0.00000000E+00	 0.00000000E+00	 3.66832922E-04	-1.85724000E-04	 0.00000000E+00	 4.33355000E-04
					-1.85707000E-04	 4.33316000E-04	 0.00000000E+00	 0.00000000E+00	 0.00000000E+00	 0.00000000E+00	 3.66799770E-04	-1.85707000E-04	 0.00000000E+00	 4.33316000E-04
					-1.85707000E-04	 4.33316000E-04	 0.00000000E+00	 0.00000000E+00	 0.00000000E+00	 0.00000000E+00	 3.66799770E-04	-1.85707000E-04	 0.00000000E+00	 4.33316000E-04
					-1.85724000E-04	 4.33355000E-04	 0.00000000E+00	 0.00000000E+00	 0.00000000E+00	 0.00000000E+00	 3.66832922E-04	-1.85724000E-04	 0.00000000E+00	 4.33355000E-04
					-1.85707000E-04	 4.33316000E-04	 0.00000000E+00	 0.00000000E+00	 0.00000000E+00	 0.00000000E+00	 3.66799770E-04	-1.85707000E-04	 0.00000000E+00	 4.33316000E-04
					-1.85707000E-04	 4.33316000E-04	 0.00000000E+00	 0.00000000E+00	 0.00000000E+00	 0.00000000E+00	 3.66799770E-04	-1.85707000E-04	 0.00000000E+00	 4.33316000E-04
					-1.85724000E-04	 4.33355000E-04	 0.00000000E+00	 0.00000000E+00	 0.00000000E+00	 0.00000000E+00	 3.66832922E-04	-1.85724000E-04	 0.00000000E+00	 4.33355000E-04
					-1.85707000E-04	 4.33316000E-04	 0.00000000E+00	 0.00000000E+00	 0.00000000E+00	 0.00000000E+00	 3.66799770E-04	-1.85707000E-04	 0.00000000E+00	 4.33316000E-04
					-1.85724000E-04	 4.33355000E-04	 0.00000000E+00	 0.00000000E+00	 0.00000000E+00	 0.00000000E+00	 3.66832922E-04	-1.85724000E-04	 0.00000000E+00	 4.33355000E-04
					-1.85724000E-04	 4.33355000E-04	 0.00000000E+00	 0.00000000E+00	 0.00000000E+00	 0.00000000E+00	 3.66832922E-04	-1.85724000E-04	 0.00000000E+00	 4.33355000E-04
					-1.85724000E-04	 4.33355000E-04	 0.00000000E+00	 0.00000000E+00	 0.00000000E+00	 0.00000000E+00	 3.66832922E-04	-1.85724000E-04	 0.00000000E+00	 4.33355000E-04
					-1.85724000E-04	 4.33355000E-04	 0.00000000E+00	 0.00000000E+00	 0.00000000E+00	 0.00000000E+00	 3.66832922E-04	-1.85724000E-04	 0.00000000E+00	 4.33355000E-04
					-1.85724000E-04	 4.33355000E-04	 0.00000000E+00	 0.00000000E+00	 0.00000000E+00	 0.00000000E+00	 3.66832922E-04	-1.85724000E-04	 0.00000000E+00	 4.33355000E-04
					-1.85724000E-04	 4.33355000E-04	 0.00000000E+00	 0.00000000E+00	 0.00000000E+00	 0.00000000E+00	 3.66832922E-04	-1.85724000E-04	 0.00000000E+00	 4.33355000E-04
					-1.85724000E-04	 4.33355000E-04	 0.00000000E+00	 0.00000000E+00	 0.00000000E+00	 0.00000000E+00	 3.66832922E-04	-1.85724000E-04	 0.00000000E+00	 4.33355000E-04
					-1.85724000E-04	 4.33355000E-04	 0.00000000E+00	 0.00000000E+00	 0.00000000E+00	 0.00000000E+00	 3.66832922E-04	-1.85724000E-04	 0.00000000E+00	 4.33355000E-04
				</DataArray>
				<DataArray type="Float32" Name="RF" NumberOfComponents="3" ComponentName0="F1" ComponentName1="F2" ComponentName2="F3" format="ascii">
					 0.00000000E+00	 8.33333000E-02	 2.50000000E+00
					 0.00000000E+00	-3.33333000E-01	 0.00000000E+00
					 0.00000000E+00	 8.33333000E-02	-2.50000000E+00
					 0.00000000E+00	 8.33333000E-02	 2.50000000E+00
					 0.00000000E+00	-3.33333000E-01	 0.00000000E+00
					 0.00000000E+00	 8.33333000E-02	-2.50000000E+00
					 0.00000000E+00	-8.33333000E-02	 2.50000000E+00
					 0.00000000E+00	 3.33333000E-01	 0.00000000E+00
					 0.00000000E+00	-8.33333000E-02	-2.50000000E+00
					 0.00000000E+00	-8.33333000E-02	 2.50000000E+00
					 0.00000000E+00	 3.33333000E-01	 0.00000000E+00
					 0.00000000E+00	-8.33333000E-02	-2.50000000E+00
					 0.00000000E+00	 0.00000000E+00	-1.00000000E+01
					 0.00000000E+00	 0.00000000E+00	 1.00000000E+01
					 0.00000000E+00	 3.33333000E-01	-1.00000000E+01
					 0.00000000E+00	 3.33333000E-01	 1.00000000E+01
					 0.00000000E+00	 0.00000000E+00	-1.00000000E+01
					 0.00000000E+00	 0.00000000E+00	 1.00000000E+01
					 0.00000000E+00	-3.33333000E-01	-1.00000000E+01
					 0.00000000E+00	-3.33333000E-01	 1.00000000E+01
				</DataArray>
			</PointData>
		</Piece>
	</UnstructuredGrid>
</VTKFile>