    1C
    1UUSER                                                              
    1UDATE              01.august.2019                                  
    1UTIME              09:40:53                                        
    1UHOST                                                              
    1UPGM               CalculiX                                        
    1UVERSION           Version 2.15                             
    1UCOMPILETIME       Fri 15 Mar 11:57:46 CET 2019                    
    1UDIR                                                               
    1UDBN                                                               
    1UMAT    1EL                                                        
    1UMAT    2SI1                                                       
    2C                           720                                     1
 -1         1-7.50000E-01 1.29904E+00 0.00000E+00
 -1         2-6.10105E-01 1.37032E+00 0.00000E+00
 -1         3-6.10105E-01 1.37032E+00 5.00000E-02
 -1         4-7.50000E-01 1.29904E+00 5.00000E-02
 -1         5-7.00000E-01 1.21244E+00 0.00000E+00
 -1         6-5.69431E-01 1.27896E+00 0.00000E+00
 -1         7-5.69431E-01 1.27896E+00 5.00000E-02
 -1         8-7.00000E-01 1.21244E+00 5.00000E-02
 -1         9-6.80986E-01 1.33651E+00 0.00000E+00
 -1        10-6.10105E-01 1.37032E+00 2.50000E-02
 -1        11-6.80986E-01 1.33651E+00 5.00000E-02
 -1        12-7.50000E-01 1.29904E+00 2.50000E-02
 -1        13-7.25000E-01 1.25574E+00 0.00000E+00
 -1        14-5.89768E-01 1.32464E+00 0.00000E+00
 -1        15-5.89768E-01 1.32464E+00 5.00000E-02
 -1        16-7.25000E-01 1.25574E+00 5.00000E-02
 -1        17-6.35587E-01 1.24741E+00 0.00000E+00
 -1        18-5.69431E-01 1.27896E+00 2.50000E-02
 -1        19-6.35587E-01 1.24741E+00 5.00000E-02
 -1        20-7.00000E-01 1.21244E+00 2.50000E-02
 -1        21-6.10105E-01 1.37032E+00 1.00000E-01
 -1        22-7.50000E-01 1.29904E+00 1.00000E-01
 -1        23-5.69431E-01 1.27896E+00 1.00000E-01
 -1        24-7.00000E-01 1.21244E+00 1.00000E-01
 -1        25-6.10105E-01 1.37032E+00 7.50000E-02
 -1        26-6.80986E-01 1.33651E+00 1.00000E-01
 -1        27-7.50000E-01 1.29904E+00 7.50000E-02
 -1        28-5.89768E-01 1.32464E+00 1.00000E-01
 -1        29-7.25000E-01 1.25574E+00 1.00000E-01
 -1        30-5.69431E-01 1.27896E+00 7.50000E-02
 -1        31-6.35587E-01 1.24741E+00 1.00000E-01
 -1        32-7.00000E-01 1.21244E+00 7.50000E-02
 -1        33-6.50000E-01 1.12583E+00 0.00000E+00
 -1        34-5.28758E-01 1.18761E+00 0.00000E+00
 -1        35-5.28758E-01 1.18761E+00 5.00000E-02
 -1        36-6.50000E-01 1.12583E+00 5.00000E-02
 -1        37-6.75000E-01 1.16913E+00 0.00000E+00
 -1        38-5.49094E-01 1.23329E+00 0.00000E+00
 -1        39-5.49094E-01 1.23329E+00 5.00000E-02
 -1        40-6.75000E-01 1.16913E+00 5.00000E-02
 -1        41-5.90188E-01 1.15831E+00 0.00000E+00
 -1        42-5.28758E-01 1.18761E+00 2.50000E-02
 -1        43-5.90188E-01 1.15831E+00 5.00000E-02
 -1        44-6.50000E-01 1.12583E+00 2.50000E-02
 -1        45-5.28758E-01 1.18761E+00 1.00000E-01
 -1        46-6.50000E-01 1.12583E+00 1.00000E-01
 -1        47-5.49094E-01 1.23329E+00 1.00000E-01
 -1        48-6.75000E-01 1.16913E+00 1.00000E-01
 -1        49-5.28758E-01 1.18761E+00 7.50000E-02
 -1        50-5.90188E-01 1.15831E+00 1.00000E-01
 -1        51-6.50000E-01 1.12583E+00 7.50000E-02
 -1        52-6.00000E-01 1.03923E+00 0.00000E+00
 -1        53-4.88084E-01 1.09625E+00 0.00000E+00
 -1        54-4.88084E-01 1.09625E+00 5.00000E-02
 -1        55-6.00000E-01 1.03923E+00 5.00000E-02
 -1        56-6.25000E-01 1.08253E+00 0.00000E+00
 -1        57-5.08421E-01 1.14193E+00 0.00000E+00
 -1        58-5.08421E-01 1.14193E+00 5.00000E-02
 -1        59-6.25000E-01 1.08253E+00 5.00000E-02
 -1        60-5.44789E-01 1.06921E+00 0.00000E+00
 -1        61-4.88084E-01 1.09625E+00 2.50000E-02
 -1        62-5.44789E-01 1.06921E+00 5.00000E-02
 -1        63-6.00000E-01 1.03923E+00 2.50000E-02
 -1        64-4.88084E-01 1.09625E+00 1.00000E-01
 -1        65-6.00000E-01 1.03923E+00 1.00000E-01
 -1        66-5.08421E-01 1.14193E+00 1.00000E-01
 -1        67-6.25000E-01 1.08253E+00 1.00000E-01
 -1        68-4.88084E-01 1.09625E+00 7.50000E-02
 -1        69-5.44789E-01 1.06921E+00 1.00000E-01
 -1        70-6.00000E-01 1.03923E+00 7.50000E-02
 -1        71-5.50000E-01 9.52628E-01 0.00000E+00
 -1        72-4.47410E-01 1.00490E+00 0.00000E+00
 -1        73-4.47410E-01 1.00490E+00 5.00000E-02
 -1        74-5.50000E-01 9.52628E-01 5.00000E-02
 -1        75-5.75000E-01 9.95929E-01 0.00000E+00
 -1        76-4.67747E-01 1.05058E+00 0.00000E+00
 -1        77-4.67747E-01 1.05058E+00 5.00000E-02
 -1        78-5.75000E-01 9.95929E-01 5.00000E-02
 -1        79-4.99390E-01 9.80107E-01 0.00000E+00
 -1        80-4.47410E-01 1.00490E+00 2.50000E-02
 -1        81-4.99390E-01 9.80107E-01 5.00000E-02
 -1        82-5.50000E-01 9.52628E-01 2.50000E-02
 -1        83-4.47410E-01 1.00490E+00 1.00000E-01
 -1        84-5.50000E-01 9.52628E-01 1.00000E-01
 -1        85-4.67747E-01 1.05058E+00 1.00000E-01
 -1        86-5.75000E-01 9.95929E-01 1.00000E-01
 -1        87-4.47410E-01 1.00490E+00 7.50000E-02
 -1        88-4.99390E-01 9.80107E-01 1.00000E-01
 -1        89-5.50000E-01 9.52628E-01 7.50000E-02
 -1        90-5.00000E-01 8.66025E-01 0.00000E+00
 -1        91-4.06737E-01 9.13545E-01 0.00000E+00
 -1        92-4.06737E-01 9.13545E-01 5.00000E-02
 -1        93-5.00000E-01 8.66025E-01 5.00000E-02
 -1        94-5.25000E-01 9.09327E-01 0.00000E+00
 -1        95-4.27073E-01 9.59223E-01 0.00000E+00
 -1        96-4.27073E-01 9.59223E-01 5.00000E-02
 -1        97-5.25000E-01 9.09327E-01 5.00000E-02
 -1        98-4.53990E-01 8.91007E-01 0.00000E+00
 -1        99-4.06737E-01 9.13545E-01 2.50000E-02
 -1       100-4.53990E-01 8.91007E-01 5.00000E-02
 -1       101-5.00000E-01 8.66025E-01 2.50000E-02
 -1       102-4.06737E-01 9.13545E-01 1.00000E-01
 -1       103-5.00000E-01 8.66025E-01 1.00000E-01
 -1       104-4.27073E-01 9.59223E-01 1.00000E-01
 -1       105-5.25000E-01 9.09327E-01 1.00000E-01
 -1       106-4.06737E-01 9.13545E-01 7.50000E-02
 -1       107-4.53990E-01 8.91007E-01 1.00000E-01
 -1       108-5.00000E-01 8.66025E-01 7.50000E-02
 -1       109-4.63526E-01 1.42658E+00 0.00000E+00
 -1       110-4.63526E-01 1.42658E+00 5.00000E-02
 -1       111-4.32624E-01 1.33148E+00 0.00000E+00
 -1       112-4.32624E-01 1.33148E+00 5.00000E-02
 -1       113-5.37552E-01 1.40037E+00 0.00000E+00
 -1       114-4.63526E-01 1.42658E+00 2.50000E-02
 -1       115-5.37552E-01 1.40037E+00 5.00000E-02
 -1       116-4.48075E-01 1.37903E+00 0.00000E+00
 -1       117-4.48075E-01 1.37903E+00 5.00000E-02
 -1       118-5.01715E-01 1.30701E+00 0.00000E+00
 -1       119-4.32624E-01 1.33148E+00 2.50000E-02
 -1       120-5.01715E-01 1.30701E+00 5.00000E-02
 -1       121-4.63526E-01 1.42658E+00 1.00000E-01
 -1       122-4.32624E-01 1.33148E+00 1.00000E-01
 -1       123-4.63526E-01 1.42658E+00 7.50000E-02
 -1       124-5.37552E-01 1.40037E+00 1.00000E-01
 -1       125-4.48075E-01 1.37903E+00 1.00000E-01
 -1       126-4.32624E-01 1.33148E+00 7.50000E-02
 -1       127-5.01715E-01 1.30701E+00 1.00000E-01
 -1       128-4.01722E-01 1.23637E+00 0.00000E+00
 -1       129-4.01722E-01 1.23637E+00 5.00000E-02
 -1       130-4.17173E-01 1.28393E+00 0.00000E+00
 -1       131-4.17173E-01 1.28393E+00 5.00000E-02
 -1       132-4.65878E-01 1.21365E+00 0.00000E+00
 -1       133-4.01722E-01 1.23637E+00 2.50000E-02
 -1       134-4.65878E-01 1.21365E+00 5.00000E-02
 -1       135-4.01722E-01 1.23637E+00 1.00000E-01
 -1       136-4.17173E-01 1.28393E+00 1.00000E-01
 -1       137-4.01722E-01 1.23637E+00 7.50000E-02
 -1       138-4.65878E-01 1.21365E+00 1.00000E-01
 -1       139-3.70820E-01 1.14127E+00 0.00000E+00
 -1       140-3.70820E-01 1.14127E+00 5.00000E-02
 -1       141-3.86271E-01 1.18882E+00 0.00000E+00
 -1       142-3.86271E-01 1.18882E+00 5.00000E-02
 -1       143-4.30042E-01 1.12030E+00 0.00000E+00
 -1       144-3.70820E-01 1.14127E+00 2.50000E-02
 -1       145-4.30042E-01 1.12030E+00 5.00000E-02
 -1       146-3.70820E-01 1.14127E+00 1.00000E-01
 -1       147-3.86271E-01 1.18882E+00 1.00000E-01
 -1       148-3.70820E-01 1.14127E+00 7.50000E-02
 -1       149-4.30042E-01 1.12030E+00 1.00000E-01
 -1       150-3.39919E-01 1.04616E+00 0.00000E+00
 -1       151-3.39919E-01 1.04616E+00 5.00000E-02
 -1       152-3.55370E-01 1.09371E+00 0.00000E+00
 -1       153-3.55370E-01 1.09371E+00 5.00000E-02
 -1       154-3.94205E-01 1.02694E+00 0.00000E+00
 -1       155-3.39919E-01 1.04616E+00 2.50000E-02
 -1       156-3.94205E-01 1.02694E+00 5.00000E-02
 -1       157-3.39919E-01 1.04616E+00 1.00000E-01
 -1       158-3.55370E-01 1.09371E+00 1.00000E-01
 -1       159-3.39919E-01 1.04616E+00 7.50000E-02
 -1       160-3.94205E-01 1.02694E+00 1.00000E-01
 -1       161-3.09017E-01 9.51057E-01 0.00000E+00
 -1       162-3.09017E-01 9.51057E-01 5.00000E-02
 -1       163-3.24468E-01 9.98609E-01 0.00000E+00
 -1       164-3.24468E-01 9.98609E-01 5.00000E-02
 -1       165-3.58368E-01 9.33580E-01 0.00000E+00
 -1       166-3.09017E-01 9.51057E-01 2.50000E-02
 -1       167-3.58368E-01 9.33580E-01 5.00000E-02
 -1       168-3.09017E-01 9.51057E-01 1.00000E-01
 -1       169-3.24468E-01 9.98609E-01 1.00000E-01
 -1       170-3.09017E-01 9.51057E-01 7.50000E-02
 -1       171-3.58368E-01 9.33580E-01 1.00000E-01
 -1       172-3.11868E-01 1.46722E+00 0.00000E+00
 -1       173-3.11868E-01 1.46722E+00 5.00000E-02
 -1       174-2.91076E-01 1.36941E+00 0.00000E+00
 -1       175-2.91076E-01 1.36941E+00 5.00000E-02
 -1       176-3.88229E-01 1.44889E+00 0.00000E+00
 -1       177-3.11868E-01 1.46722E+00 2.50000E-02
 -1       178-3.88229E-01 1.44889E+00 5.00000E-02
 -1       179-3.01472E-01 1.41831E+00 0.00000E+00
 -1       180-3.01472E-01 1.41831E+00 5.00000E-02
 -1       181-3.62347E-01 1.35230E+00 0.00000E+00
 -1       182-2.91076E-01 1.36941E+00 2.50000E-02
 -1       183-3.62347E-01 1.35230E+00 5.00000E-02
 -1       184-3.11868E-01 1.46722E+00 1.00000E-01
 -1       185-2.91076E-01 1.36941E+00 1.00000E-01
 -1       186-3.11868E-01 1.46722E+00 7.50000E-02
 -1       187-3.88229E-01 1.44889E+00 1.00000E-01
 -1       188-3.01472E-01 1.41831E+00 1.00000E-01
 -1       189-2.91076E-01 1.36941E+00 7.50000E-02
 -1       190-3.62347E-01 1.35230E+00 1.00000E-01
 -1       191-2.70285E-01 1.27159E+00 0.00000E+00
 -1       192-2.70285E-01 1.27159E+00 5.00000E-02
 -1       193-2.80681E-01 1.32050E+00 0.00000E+00
 -1       194-2.80681E-01 1.32050E+00 5.00000E-02
 -1       195-3.36465E-01 1.25570E+00 0.00000E+00
 -1       196-2.70285E-01 1.27159E+00 2.50000E-02
 -1       197-3.36465E-01 1.25570E+00 5.00000E-02
 -1       198-2.70285E-01 1.27159E+00 1.00000E-01
 -1       199-2.80681E-01 1.32050E+00 1.00000E-01
 -1       200-2.70285E-01 1.27159E+00 7.50000E-02
 -1       201-3.36465E-01 1.25570E+00 1.00000E-01
 -1       202-2.49494E-01 1.17378E+00 0.00000E+00
 -1       203-2.49494E-01 1.17378E+00 5.00000E-02
 -1       204-2.59890E-01 1.22268E+00 0.00000E+00
 -1       205-2.59890E-01 1.22268E+00 5.00000E-02
 -1       206-3.10583E-01 1.15911E+00 0.00000E+00
 -1       207-2.49494E-01 1.17378E+00 2.50000E-02
 -1       208-3.10583E-01 1.15911E+00 5.00000E-02
 -1       209-2.49494E-01 1.17378E+00 1.00000E-01
 -1       210-2.59890E-01 1.22268E+00 1.00000E-01
 -1       211-2.49494E-01 1.17378E+00 7.50000E-02
 -1       212-3.10583E-01 1.15911E+00 1.00000E-01
 -1       213-2.28703E-01 1.07596E+00 0.00000E+00
 -1       214-2.28703E-01 1.07596E+00 5.00000E-02
 -1       215-2.39098E-01 1.12487E+00 0.00000E+00
 -1       216-2.39098E-01 1.12487E+00 5.00000E-02
 -1       217-2.84701E-01 1.06252E+00 0.00000E+00
 -1       218-2.28703E-01 1.07596E+00 2.50000E-02
 -1       219-2.84701E-01 1.06252E+00 5.00000E-02
 -1       220-2.28703E-01 1.07596E+00 1.00000E-01
 -1       221-2.39098E-01 1.12487E+00 1.00000E-01
 -1       222-2.28703E-01 1.07596E+00 7.50000E-02
 -1       223-2.84701E-01 1.06252E+00 1.00000E-01
 -1       224-2.07912E-01 9.78148E-01 0.00000E+00
 -1       225-2.07912E-01 9.78148E-01 5.00000E-02
 -1       226-2.18307E-01 1.02706E+00 0.00000E+00
 -1       227-2.18307E-01 1.02706E+00 5.00000E-02
 -1       228-2.58819E-01 9.65926E-01 0.00000E+00
 -1       229-2.07912E-01 9.78148E-01 2.50000E-02
 -1       230-2.58819E-01 9.65926E-01 5.00000E-02
 -1       231-2.07912E-01 9.78148E-01 1.00000E-01
 -1       232-2.18307E-01 1.02706E+00 1.00000E-01
 -1       233-2.07912E-01 9.78148E-01 7.50000E-02
 -1       234-2.58819E-01 9.65926E-01 1.00000E-01
 -1       235-1.56793E-01 1.49178E+00 0.00000E+00
 -1       236-1.56793E-01 1.49178E+00 5.00000E-02
 -1       237-1.46340E-01 1.39233E+00 0.00000E+00
 -1       238-1.46340E-01 1.39233E+00 5.00000E-02
 -1       239-2.34652E-01 1.48153E+00 0.00000E+00
 -1       240-1.56793E-01 1.49178E+00 2.50000E-02
 -1       241-2.34652E-01 1.48153E+00 5.00000E-02
 -1       242-1.51566E-01 1.44206E+00 0.00000E+00
 -1       243-1.51566E-01 1.44206E+00 5.00000E-02
 -1       244-2.19008E-01 1.38276E+00 0.00000E+00
 -1       245-1.46340E-01 1.39233E+00 2.50000E-02
 -1       246-2.19008E-01 1.38276E+00 5.00000E-02
 -1       247-1.56793E-01 1.49178E+00 1.00000E-01
 -1       248-1.46340E-01 1.39233E+00 1.00000E-01
 -1       249-1.56793E-01 1.49178E+00 7.50000E-02
 -1       250-2.34652E-01 1.48153E+00 1.00000E-01
 -1       251-1.51566E-01 1.44206E+00 1.00000E-01
 -1       252-1.46340E-01 1.39233E+00 7.50000E-02
 -1       253-2.19008E-01 1.38276E+00 1.00000E-01
 -1       254-1.35887E-01 1.29288E+00 0.00000E+00
 -1       255-1.35887E-01 1.29288E+00 5.00000E-02
 -1       256-1.41113E-01 1.34260E+00 0.00000E+00
 -1       257-1.41113E-01 1.34260E+00 5.00000E-02
 -1       258-2.03365E-01 1.28399E+00 0.00000E+00
 -1       259-1.35887E-01 1.29288E+00 2.50000E-02
 -1       260-2.03365E-01 1.28399E+00 5.00000E-02
 -1       261-1.35887E-01 1.29288E+00 1.00000E-01
 -1       262-1.41113E-01 1.34260E+00 1.00000E-01
 -1       263-1.35887E-01 1.29288E+00 7.50000E-02
 -1       264-2.03365E-01 1.28399E+00 1.00000E-01
 -1       265-1.25434E-01 1.19343E+00 0.00000E+00
 -1       266-1.25434E-01 1.19343E+00 5.00000E-02
 -1       267-1.30661E-01 1.24315E+00 0.00000E+00
 -1       268-1.30661E-01 1.24315E+00 5.00000E-02
 -1       269-1.87721E-01 1.18523E+00 0.00000E+00
 -1       270-1.25434E-01 1.19343E+00 2.50000E-02
 -1       271-1.87721E-01 1.18523E+00 5.00000E-02
 -1       272-1.25434E-01 1.19343E+00 1.00000E-01
 -1       273-1.30661E-01 1.24315E+00 1.00000E-01
 -1       274-1.25434E-01 1.19343E+00 7.50000E-02
 -1       275-1.87721E-01 1.18523E+00 1.00000E-01
 -1       276-1.14981E-01 1.09397E+00 0.00000E+00
 -1       277-1.14981E-01 1.09397E+00 5.00000E-02
 -1       278-1.20208E-01 1.14370E+00 0.00000E+00
 -1       279-1.20208E-01 1.14370E+00 5.00000E-02
 -1       280-1.72078E-01 1.08646E+00 0.00000E+00
 -1       281-1.14981E-01 1.09397E+00 2.50000E-02
 -1       282-1.72078E-01 1.08646E+00 5.00000E-02
 -1       283-1.14981E-01 1.09397E+00 1.00000E-01
 -1       284-1.20208E-01 1.14370E+00 1.00000E-01
 -1       285-1.14981E-01 1.09397E+00 7.50000E-02
 -1       286-1.72078E-01 1.08646E+00 1.00000E-01
 -1       287-1.04528E-01 9.94522E-01 0.00000E+00
 -1       288-1.04528E-01 9.94522E-01 5.00000E-02
 -1       289-1.09755E-01 1.04425E+00 0.00000E+00
 -1       290-1.09755E-01 1.04425E+00 5.00000E-02
 -1       291-1.56434E-01 9.87688E-01 0.00000E+00
 -1       292-1.04528E-01 9.94522E-01 2.50000E-02
 -1       293-1.56434E-01 9.87688E-01 5.00000E-02
 -1       294-1.04528E-01 9.94522E-01 1.00000E-01
 -1       295-1.09755E-01 1.04425E+00 1.00000E-01
 -1       296-1.04528E-01 9.94522E-01 7.50000E-02
 -1       297-1.56434E-01 9.87688E-01 1.00000E-01
 -1       298 9.18485E-17 1.50000E+00 0.00000E+00
 -1       299 9.18485E-17 1.50000E+00 5.00000E-02
 -1       300 8.57253E-17 1.40000E+00 0.00000E+00
 -1       301 8.57253E-17 1.40000E+00 5.00000E-02
 -1       302-7.85039E-02 1.49794E+00 0.00000E+00
 -1       303 9.18485E-17 1.50000E+00 2.50000E-02
 -1       304-7.85039E-02 1.49794E+00 5.00000E-02
 -1       305 8.87869E-17 1.45000E+00 0.00000E+00
 -1       306 8.87869E-17 1.45000E+00 5.00000E-02
 -1       307-7.32703E-02 1.39808E+00 0.00000E+00
 -1       308 8.57253E-17 1.40000E+00 2.50000E-02
 -1       309-7.32703E-02 1.39808E+00 5.00000E-02
 -1       310 9.18485E-17 1.50000E+00 1.00000E-01
 -1       311 8.57253E-17 1.40000E+00 1.00000E-01
 -1       312 9.18485E-17 1.50000E+00 7.50000E-02
 -1       313-7.85039E-02 1.49794E+00 1.00000E-01
 -1       314 8.87869E-17 1.45000E+00 1.00000E-01
 -1       315 8.57253E-17 1.40000E+00 7.50000E-02
 -1       316-7.32703E-02 1.39808E+00 1.00000E-01
 -1       317 7.96020E-17 1.30000E+00 0.00000E+00
 -1       318 7.96020E-17 1.30000E+00 5.00000E-02
 -1       319 8.26637E-17 1.35000E+00 0.00000E+00
 -1       320 8.26637E-17 1.35000E+00 5.00000E-02
 -1       321-6.80367E-02 1.29822E+00 0.00000E+00
 -1       322 7.96020E-17 1.30000E+00 2.50000E-02
 -1       323-6.80367E-02 1.29822E+00 5.00000E-02
 -1       324 7.96020E-17 1.30000E+00 1.00000E-01
 -1       325 8.26637E-17 1.35000E+00 1.00000E-01
 -1       326 7.96020E-17 1.30000E+00 7.50000E-02
 -1       327-6.80367E-02 1.29822E+00 1.00000E-01
 -1       328 7.34788E-17 1.20000E+00 0.00000E+00
 -1       329 7.34788E-17 1.20000E+00 5.00000E-02
 -1       330 7.65404E-17 1.25000E+00 0.00000E+00
 -1       331 7.65404E-17 1.25000E+00 5.00000E-02
 -1       332-6.28031E-02 1.19836E+00 0.00000E+00
 -1       333 7.34788E-17 1.20000E+00 2.50000E-02
 -1       334-6.28031E-02 1.19836E+00 5.00000E-02
 -1       335 7.34788E-17 1.20000E+00 1.00000E-01
 -1       336 7.65404E-17 1.25000E+00 1.00000E-01
 -1       337 7.34788E-17 1.20000E+00 7.50000E-02
 -1       338-6.28031E-02 1.19836E+00 1.00000E-01
 -1       339 6.73556E-17 1.10000E+00 0.00000E+00
 -1       340 6.73556E-17 1.10000E+00 5.00000E-02
 -1       341 7.04172E-17 1.15000E+00 0.00000E+00
 -1       342 7.04172E-17 1.15000E+00 5.00000E-02
 -1       343-5.75696E-02 1.09849E+00 0.00000E+00
 -1       344 6.73556E-17 1.10000E+00 2.50000E-02
 -1       345-5.75696E-02 1.09849E+00 5.00000E-02
 -1       346 6.73556E-17 1.10000E+00 1.00000E-01
 -1       347 7.04172E-17 1.15000E+00 1.00000E-01
 -1       348 6.73556E-17 1.10000E+00 7.50000E-02
 -1       349-5.75696E-02 1.09849E+00 1.00000E-01
 -1       350 6.12323E-17 1.00000E+00 0.00000E+00
 -1       351 6.12323E-17 1.00000E+00 5.00000E-02
 -1       352 6.42940E-17 1.05000E+00 0.00000E+00
 -1       353 6.42940E-17 1.05000E+00 5.00000E-02
 -1       354-5.23360E-02 9.98630E-01 0.00000E+00
 -1       355 6.12323E-17 1.00000E+00 2.50000E-02
 -1       356-5.23360E-02 9.98630E-01 5.00000E-02
 -1       357 6.12323E-17 1.00000E+00 1.00000E-01
 -1       358 6.42940E-17 1.05000E+00 1.00000E-01
 -1       359 6.12323E-17 1.00000E+00 7.50000E-02
 -1       360-5.23360E-02 9.98630E-01 1.00000E-01
 -1       361-1.00000E+00 1.73205E+00 0.00000E+00
 -1       362-8.13473E-01 1.82709E+00 0.00000E+00
 -1       363-8.13473E-01 1.82709E+00 5.00000E-02
 -1       364-1.00000E+00 1.73205E+00 5.00000E-02
 -1       365-9.50000E-01 1.64545E+00 0.00000E+00
 -1       366-7.72800E-01 1.73574E+00 0.00000E+00
 -1       367-7.72800E-01 1.73574E+00 5.00000E-02
 -1       368-9.50000E-01 1.64545E+00 5.00000E-02
 -1       369-9.07981E-01 1.78201E+00 0.00000E+00
 -1       370-8.13473E-01 1.82709E+00 2.50000E-02
 -1       371-9.07981E-01 1.78201E+00 5.00000E-02
 -1       372-1.00000E+00 1.73205E+00 2.50000E-02
 -1       373-9.75000E-01 1.68875E+00 0.00000E+00
 -1       374-7.93136E-01 1.78141E+00 0.00000E+00
 -1       375-7.93136E-01 1.78141E+00 5.00000E-02
 -1       376-9.75000E-01 1.68875E+00 5.00000E-02
 -1       377-8.62582E-01 1.69291E+00 0.00000E+00
 -1       378-7.72800E-01 1.73574E+00 2.50000E-02
 -1       379-8.62582E-01 1.69291E+00 5.00000E-02
 -1       380-9.50000E-01 1.64545E+00 2.50000E-02
 -1       381-8.13473E-01 1.82709E+00 1.00000E-01
 -1       382-1.00000E+00 1.73205E+00 1.00000E-01
 -1       383-7.72800E-01 1.73574E+00 1.00000E-01
 -1       384-9.50000E-01 1.64545E+00 1.00000E-01
 -1       385-8.13473E-01 1.82709E+00 7.50000E-02
 -1       386-9.07981E-01 1.78201E+00 1.00000E-01
 -1       387-1.00000E+00 1.73205E+00 7.50000E-02
 -1       388-7.93136E-01 1.78141E+00 1.00000E-01
 -1       389-9.75000E-01 1.68875E+00 1.00000E-01
 -1       390-7.72800E-01 1.73574E+00 7.50000E-02
 -1       391-8.62582E-01 1.69291E+00 1.00000E-01
 -1       392-9.50000E-01 1.64545E+00 7.50000E-02
 -1       393-9.00000E-01 1.55885E+00 0.00000E+00
 -1       394-7.32126E-01 1.64438E+00 0.00000E+00
 -1       395-7.32126E-01 1.64438E+00 5.00000E-02
 -1       396-9.00000E-01 1.55885E+00 5.00000E-02
 -1       397-9.25000E-01 1.60215E+00 0.00000E+00
 -1       398-7.52463E-01 1.69006E+00 0.00000E+00
 -1       399-7.52463E-01 1.69006E+00 5.00000E-02
 -1       400-9.25000E-01 1.60215E+00 5.00000E-02
 -1       401-8.17183E-01 1.60381E+00 0.00000E+00
 -1       402-7.32126E-01 1.64438E+00 2.50000E-02
 -1       403-8.17183E-01 1.60381E+00 5.00000E-02
 -1       404-9.00000E-01 1.55885E+00 2.50000E-02
 -1       405-7.32126E-01 1.64438E+00 1.00000E-01
 -1       406-9.00000E-01 1.55885E+00 1.00000E-01
 -1       407-7.52463E-01 1.69006E+00 1.00000E-01
 -1       408-9.25000E-01 1.60215E+00 1.00000E-01
 -1       409-7.32126E-01 1.64438E+00 7.50000E-02
 -1       410-8.17183E-01 1.60381E+00 1.00000E-01
 -1       411-9.00000E-01 1.55885E+00 7.50000E-02
 -1       412-8.50000E-01 1.47224E+00 0.00000E+00
 -1       413-6.91452E-01 1.55303E+00 0.00000E+00
 -1       414-6.91452E-01 1.55303E+00 5.00000E-02
 -1       415-8.50000E-01 1.47224E+00 5.00000E-02
 -1       416-8.75000E-01 1.51554E+00 0.00000E+00
 -1       417-7.11789E-01 1.59870E+00 0.00000E+00
 -1       418-7.11789E-01 1.59870E+00 5.00000E-02
 -1       419-8.75000E-01 1.51554E+00 5.00000E-02
 -1       420-7.71784E-01 1.51471E+00 0.00000E+00
 -1       421-6.91452E-01 1.55303E+00 2.50000E-02
 -1       422-7.71784E-01 1.51471E+00 5.00000E-02
 -1       423-8.50000E-01 1.47224E+00 2.50000E-02
 -1       424-6.91452E-01 1.55303E+00 1.00000E-01
 -1       425-8.50000E-01 1.47224E+00 1.00000E-01
 -1       426-7.11789E-01 1.59870E+00 1.00000E-01
 -1       427-8.75000E-01 1.51554E+00 1.00000E-01
 -1       428-6.91452E-01 1.55303E+00 7.50000E-02
 -1       429-7.71784E-01 1.51471E+00 1.00000E-01
 -1       430-8.50000E-01 1.47224E+00 7.50000E-02
 -1       431-8.00000E-01 1.38564E+00 0.00000E+00
 -1       432-6.50779E-01 1.46167E+00 0.00000E+00
 -1       433-6.50779E-01 1.46167E+00 5.00000E-02
 -1       434-8.00000E-01 1.38564E+00 5.00000E-02
 -1       435-8.25000E-01 1.42894E+00 0.00000E+00
 -1       436-6.71115E-01 1.50735E+00 0.00000E+00
 -1       437-6.71115E-01 1.50735E+00 5.00000E-02
 -1       438-8.25000E-01 1.42894E+00 5.00000E-02
 -1       439-7.26385E-01 1.42561E+00 0.00000E+00
 -1       440-6.50779E-01 1.46167E+00 2.50000E-02
 -1       441-7.26385E-01 1.42561E+00 5.00000E-02
 -1       442-8.00000E-01 1.38564E+00 2.50000E-02
 -1       443-6.50779E-01 1.46167E+00 1.00000E-01
 -1       444-8.00000E-01 1.38564E+00 1.00000E-01
 -1       445-6.71115E-01 1.50735E+00 1.00000E-01
 -1       446-8.25000E-01 1.42894E+00 1.00000E-01
 -1       447-6.50779E-01 1.46167E+00 7.50000E-02
 -1       448-7.26385E-01 1.42561E+00 1.00000E-01
 -1       449-8.00000E-01 1.38564E+00 7.50000E-02
 -1       450-7.50000E-01 1.29904E+00 0.00000E+00
 -1       451-6.10105E-01 1.37032E+00 0.00000E+00
 -1       452-6.10105E-01 1.37032E+00 5.00000E-02
 -1       453-7.50000E-01 1.29904E+00 5.00000E-02
 -1       454-7.75000E-01 1.34234E+00 0.00000E+00
 -1       455-6.30442E-01 1.41600E+00 0.00000E+00
 -1       456-6.30442E-01 1.41600E+00 5.00000E-02
 -1       457-7.75000E-01 1.34234E+00 5.00000E-02
 -1       458-6.80986E-01 1.33651E+00 0.00000E+00
 -1       459-6.10105E-01 1.37032E+00 2.50000E-02
 -1       460-6.80986E-01 1.33651E+00 5.00000E-02
 -1       461-7.50000E-01 1.29904E+00 2.50000E-02
 -1       462-6.10105E-01 1.37032E+00 1.00000E-01
 -1       463-7.50000E-01 1.29904E+00 1.00000E-01
 -1       464-6.30442E-01 1.41600E+00 1.00000E-01
 -1       465-7.75000E-01 1.34234E+00 1.00000E-01
 -1       466-6.10105E-01 1.37032E+00 7.50000E-02
 -1       467-6.80986E-01 1.33651E+00 1.00000E-01
 -1       468-7.50000E-01 1.29904E+00 7.50000E-02
 -1       469-6.18034E-01 1.90211E+00 0.00000E+00
 -1       470-6.18034E-01 1.90211E+00 5.00000E-02
 -1       471-5.87132E-01 1.80701E+00 0.00000E+00
 -1       472-5.87132E-01 1.80701E+00 5.00000E-02
 -1       473-7.16736E-01 1.86716E+00 0.00000E+00
 -1       474-6.18034E-01 1.90211E+00 2.50000E-02
 -1       475-7.16736E-01 1.86716E+00 5.00000E-02
 -1       476-6.02583E-01 1.85456E+00 0.00000E+00
 -1       477-6.02583E-01 1.85456E+00 5.00000E-02
 -1       478-6.80899E-01 1.77380E+00 0.00000E+00
 -1       479-5.87132E-01 1.80701E+00 2.50000E-02
 -1       480-6.80899E-01 1.77380E+00 5.00000E-02
 -1       481-6.18034E-01 1.90211E+00 1.00000E-01
 -1       482-5.87132E-01 1.80701E+00 1.00000E-01
 -1       483-6.18034E-01 1.90211E+00 7.50000E-02
 -1       484-7.16736E-01 1.86716E+00 1.00000E-01
 -1       485-6.02583E-01 1.85456E+00 1.00000E-01
 -1       486-5.87132E-01 1.80701E+00 7.50000E-02
 -1       487-6.80899E-01 1.77380E+00 1.00000E-01
 -1       488-5.56231E-01 1.71190E+00 0.00000E+00
 -1       489-5.56231E-01 1.71190E+00 5.00000E-02
 -1       490-5.71681E-01 1.75945E+00 0.00000E+00
 -1       491-5.71681E-01 1.75945E+00 5.00000E-02
 -1       492-6.45062E-01 1.68044E+00 0.00000E+00
 -1       493-5.56231E-01 1.71190E+00 2.50000E-02
 -1       494-6.45062E-01 1.68044E+00 5.00000E-02
 -1       495-5.56231E-01 1.71190E+00 1.00000E-01
 -1       496-5.71681E-01 1.75945E+00 1.00000E-01
 -1       497-5.56231E-01 1.71190E+00 7.50000E-02
 -1       498-6.45062E-01 1.68044E+00 1.00000E-01
 -1       499-5.25329E-01 1.61680E+00 0.00000E+00
 -1       500-5.25329E-01 1.61680E+00 5.00000E-02
 -1       501-5.40780E-01 1.66435E+00 0.00000E+00
 -1       502-5.40780E-01 1.66435E+00 5.00000E-02
 -1       503-6.09226E-01 1.58709E+00 0.00000E+00
 -1       504-5.25329E-01 1.61680E+00 2.50000E-02
 -1       505-6.09226E-01 1.58709E+00 5.00000E-02
 -1       506-5.25329E-01 1.61680E+00 1.00000E-01
 -1       507-5.40780E-01 1.66435E+00 1.00000E-01
 -1       508-5.25329E-01 1.61680E+00 7.50000E-02
 -1       509-6.09226E-01 1.58709E+00 1.00000E-01
 -1       510-4.94427E-01 1.52169E+00 0.00000E+00
 -1       511-4.94427E-01 1.52169E+00 5.00000E-02
 -1       512-5.09878E-01 1.56924E+00 0.00000E+00
 -1       513-5.09878E-01 1.56924E+00 5.00000E-02
 -1       514-5.73389E-01 1.49373E+00 0.00000E+00
 -1       515-4.94427E-01 1.52169E+00 2.50000E-02
 -1       516-5.73389E-01 1.49373E+00 5.00000E-02
 -1       517-4.94427E-01 1.52169E+00 1.00000E-01
 -1       518-5.09878E-01 1.56924E+00 1.00000E-01
 -1       519-4.94427E-01 1.52169E+00 7.50000E-02
 -1       520-5.73389E-01 1.49373E+00 1.00000E-01
 -1       521-4.63526E-01 1.42658E+00 0.00000E+00
 -1       522-4.63526E-01 1.42658E+00 5.00000E-02
 -1       523-4.78976E-01 1.47414E+00 0.00000E+00
 -1       524-4.78976E-01 1.47414E+00 5.00000E-02
 -1       525-5.37552E-01 1.40037E+00 0.00000E+00
 -1       526-4.63526E-01 1.42658E+00 2.50000E-02
 -1       527-5.37552E-01 1.40037E+00 5.00000E-02
 -1       528-4.63526E-01 1.42658E+00 1.00000E-01
 -1       529-4.78976E-01 1.47414E+00 1.00000E-01
 -1       530-4.63526E-01 1.42658E+00 7.50000E-02
 -1       531-5.37552E-01 1.40037E+00 1.00000E-01
 -1       532-4.15823E-01 1.95630E+00 0.00000E+00
 -1       533-4.15823E-01 1.95630E+00 5.00000E-02
 -1       534-3.95032E-01 1.85848E+00 0.00000E+00
 -1       535-3.95032E-01 1.85848E+00 5.00000E-02
 -1       536-5.17638E-01 1.93185E+00 0.00000E+00
 -1       537-4.15823E-01 1.95630E+00 2.50000E-02
 -1       538-5.17638E-01 1.93185E+00 5.00000E-02
 -1       539-4.05428E-01 1.90739E+00 0.00000E+00
 -1       540-4.05428E-01 1.90739E+00 5.00000E-02
 -1       541-4.91756E-01 1.83526E+00 0.00000E+00
 -1       542-3.95032E-01 1.85848E+00 2.50000E-02
 -1       543-4.91756E-01 1.83526E+00 5.00000E-02
 -1       544-4.15823E-01 1.95630E+00 1.00000E-01
 -1       545-3.95032E-01 1.85848E+00 1.00000E-01
 -1       546-4.15823E-01 1.95630E+00 7.50000E-02
 -1       547-5.17638E-01 1.93185E+00 1.00000E-01
 -1       548-4.05428E-01 1.90739E+00 1.00000E-01
 -1       549-3.95032E-01 1.85848E+00 7.50000E-02
 -1       550-4.91756E-01 1.83526E+00 1.00000E-01
 -1       551-3.74241E-01 1.76067E+00 0.00000E+00
 -1       552-3.74241E-01 1.76067E+00 5.00000E-02
 -1       553-3.84637E-01 1.80957E+00 0.00000E+00
 -1       554-3.84637E-01 1.80957E+00 5.00000E-02
 -1       555-4.65874E-01 1.73867E+00 0.00000E+00
 -1       556-3.74241E-01 1.76067E+00 2.50000E-02
 -1       557-4.65874E-01 1.73867E+00 5.00000E-02
 -1       558-3.74241E-01 1.76067E+00 1.00000E-01
 -1       559-3.84637E-01 1.80957E+00 1.00000E-01
 -1       560-3.74241E-01 1.76067E+00 7.50000E-02
 -1       561-4.65874E-01 1.73867E+00 1.00000E-01
 -1       562-3.53450E-01 1.66285E+00 0.00000E+00
 -1       563-3.53450E-01 1.66285E+00 5.00000E-02
 -1       564-3.63845E-01 1.71176E+00 0.00000E+00
 -1       565-3.63845E-01 1.71176E+00 5.00000E-02
 -1       566-4.39992E-01 1.64207E+00 0.00000E+00
 -1       567-3.53450E-01 1.66285E+00 2.50000E-02
 -1       568-4.39992E-01 1.64207E+00 5.00000E-02
 -1       569-3.53450E-01 1.66285E+00 1.00000E-01
 -1       570-3.63845E-01 1.71176E+00 1.00000E-01
 -1       571-3.53450E-01 1.66285E+00 7.50000E-02
 -1       572-4.39992E-01 1.64207E+00 1.00000E-01
 -1       573-3.32659E-01 1.56504E+00 0.00000E+00
 -1       574-3.32659E-01 1.56504E+00 5.00000E-02
 -1       575-3.43054E-01 1.61394E+00 0.00000E+00
 -1       576-3.43054E-01 1.61394E+00 5.00000E-02
 -1       577-4.14110E-01 1.54548E+00 0.00000E+00
 -1       578-3.32659E-01 1.56504E+00 2.50000E-02
 -1       579-4.14110E-01 1.54548E+00 5.00000E-02
 -1       580-3.32659E-01 1.56504E+00 1.00000E-01
 -1       581-3.43054E-01 1.61394E+00 1.00000E-01
 -1       582-3.32659E-01 1.56504E+00 7.50000E-02