# vtk DataFile Version 3.0

ASCII
DATASET UNSTRUCTURED_GRID

POINTS 20 double
	 1.00000000E+00	 0.00000000E+00	 0.00000000E+00
	 5.00000000E-01	 0.00000000E+00	 0.00000000E+00
	 7.50000000E-01	 0.00000000E+00	 0.00000000E+00
	 1.00000000E+00	 2.50000000E-01	 0.00000000E+00
	 1.00000000E+00	 5.00000000E-01	 0.00000000E+00
	 1.00000000E+00	 0.00000000E+00	 5.00000000E-01
	 1.00000000E+00	 0.00000000E+00	 1.00000000E+00
	 5.00000000E-01	 2.50000000E-01	 0.00000000E+00
	 5.00000000E-01	 5.00000000E-01	 0.00000000E+00
	 7.50000000E-01	 5.00000000E-01	 0.00000000E+00
	 5.00000000E-01	 0.00000000E+00	 5.00000000E-01
	 5.00000000E-01	 0.00000000E+00	 1.00000000E+00
	 7.50000000E-01	 0.00000000E+00	 1.00000000E+00
	 1.00000000E+00	 5.00000000E-01	 5.00000000E-01
	 1.00000000E+00	 2.50000000E-01	 1.00000000E+00
	 1.00000000E+00	 5.00000000E-01	 1.00000000E+00
	 5.00000000E-01	 5.00000000E-01	 5.00000000E-01
	 5.00000000E-01	 2.50000000E-01	 1.00000000E+00
	 5.00000000E-01	 5.00000000E-01	 1.00000000E+00
	 7.50000000E-01	 5.00000000E-01	 1.00000000E+00

CELLS 1 21
	20 1 0 4 8 11 6 15 18 2 3 9 7 12 14 19 17 10 5 13 16 

CELL_TYPES 1
	25

POINT_DATA 20
FIELD U 1
	U 3 20 double
		 0.00000000E+00	 0.00000000E+00	 0.00000000E+00
		 1.61612000E-03	 0.00000000E+00	 0.00000000E+00
		 8.06140000E-04	 6.91358000E-07	 0.00000000E+00
		-3.87838000E-04	-9.20540000E-04	 0.00000000E+00
		-7.82132000E-04	-1.83837000E-03	 0.00000000E+00
		-6.12282000E-04	-4.64290000E-04	 4.35784000E-03
		-1.23236000E-03	-9.31269000E-04	 8.72197000E-03
		 1.22126000E-03	-9.32051000E-04	 0.00000000E+00
		 8.20964000E-04	-1.86061000E-03	 0.00000000E+00
		 1.72804000E-05	-1.84840000E-03	 0.00000000E+00
		 9.92770000E-04	-4.73806000E-04	 4.38090000E-03
		 3.70741000E-04	-9.53507000E-04	 8.72197000E-03
		-4.28673000E-04	-9.43474000E-04	 8.72197000E-03
		-1.40416000E-03	-2.31808000E-03	 4.34107000E-03
		-1.63266000E-03	-1.85984000E-03	 8.72197000E-03
		-2.02752000E-03	-2.79189000E-03	 8.72197000E-03
		 2.00891000E-04	-2.32759000E-03	 4.36413000E-03
		-2.35569000E-05	-1.87134000E-03	 8.72197000E-03
		-4.11396000E-04	-2.79188000E-03	 8.72197000E-03
		-1.21754000E-03	-2.79258000E-03	 8.72197000E-03
FIELD S 1
	S 10 20 double
		 2.92997000E-02	-7.59684000E-01	 5.15275000E+02	-4.95338000E-01	 8.09372000E-01	 2.43080000E+00	 5.15660453E+02	-1.00462473E+00	 2.61510699E-01	 5.15287730E+02
		 9.89830000E-02	-2.09068000E-01	 5.18912000E+02	-5.90669000E-01	 1.31555000E+00	 1.86360000E+00	 5.18983160E+02	-6.74620128E-01	 5.54518075E-01	 5.18922017E+02
		 2.59039000E-01	-5.50372000E-01	 5.17224000E+02	-6.18088000E-01	 9.37111000E-01	 2.48103000E+00	 5.17391641E+02	-8.92245062E-01	 5.87320060E-01	 5.17237592E+02
		-2.53447000E-01	-4.76275000E-01	 5.13053000E+02	-3.55530000E-01	 2.50233000E-01	 1.11920000E+00	 5.13422109E+02	-7.38895319E-01	 6.61187749E-03	 5.13055561E+02
		-3.95143000E-01	-7.60099000E-01	 5.10613000E+02	-3.69905000E-01	-7.18689000E-01	 6.81282000E-01	 5.11193998E+02	-9.90209703E-01	-1.66952023E-01	 5.10614920E+02
		-4.08352000E-02	 2.18166000E-02	 5.14700000E+02	 2.53122000E-01	-7.25195000E-02	-3.87729000E-01	 5.14710152E+02	-2.64676577E-01	 2.45355648E-01	 5.14700302E+02
		-2.05343000E-01	-3.64157000E-01	 5.15010000E+02	-3.73756000E-01	 9.92274000E-01	 1.39348000E+00	 5.15303694E+02	-6.72118292E-01	 9.69428890E-02	 5.15015675E+02
		-1.17556000E-01	-9.15073000E-03	 5.17070000E+02	-4.06469000E-01	 1.35360000E+00	 1.19620000E+00	 5.17143306E+02	-4.79623491E-01	 3.46611644E-01	 5.17076305E+02
		-2.05378000E-01	-3.64152000E-01	 5.15010000E+02	-3.73739000E-01	 9.92260000E-01	 1.39339000E+00	 5.15303708E+02	-6.72112136E-01	 9.69072734E-02	 5.15015675E+02
		-1.02499000E-01	-6.31599000E-01	 5.12942000E+02	-4.48235000E-01	 1.11601000E-02	 1.38154000E+00	 5.13315418E+02	-8.88472609E-01	 1.50654195E-01	 5.12945720E+02
		-9.98596000E-02	 7.66507000E-02	 5.14341000E+02	 1.96231000E-01	-6.77859000E-01	-1.01474000E+00	 5.14357082E+02	-2.27226275E-01	 2.01121290E-01	 5.14343896E+02
		-3.95082000E-01	-7.60143000E-01	 5.10613000E+02	-3.69907000E-01	-7.18595000E-01	 6.81526000E-01	 5.11193990E+02	-9.90226073E-01	-1.66919040E-01	 5.10614920E+02
		-1.02472000E-01	-6.31724000E-01	 5.12942000E+02	-4.48256000E-01	 1.12126000E-02	 1.38176000E+00	 5.13315469E+02	-8.88578575E-01	 1.50660974E-01	 5.12945722E+02
		-9.98816000E-02	 7.65458000E-02	 5.14341000E+02	 1.96238000E-01	-6.77891000E-01	-1.01480000E+00	 5.14357146E+02	-2.27278974E-01	 2.01046768E-01	 5.14343896E+02
		-1.17523000E-01	-9.06405000E-03	 5.17070000E+02	-4.06494000E-01	 1.35346000E+00	 1.19606000E+00	 5.17143244E+02	-4.79590568E-01	 3.46699779E-01	 5.17076304E+02
		 9.91804000E-02	-2.08808000E-01	 5.18912000E+02	-5.90674000E-01	 1.31533000E+00	 1.86322000E+00	 5.18982925E+02	-6.74385101E-01	 5.54744285E-01	 5.18922013E+02
		-4.08833000E-02	 2.17487000E-02	 5.14700000E+02	 2.53072000E-01	-7.25970000E-02	-3.87543000E-01	 5.14710210E+02	-2.64683558E-01	 2.45246887E-01	 5.14700302E+02
		-2.53367000E-01	-4.76235000E-01	 5.13053000E+02	-3.55459000E-01	 2.50370000E-01	 1.11932000E+00	 5.13422050E+02	-7.38774025E-01	 6.60992727E-03	 5.13055562E+02
		 2.95593000E-02	-7.59427000E-01	 5.15275000E+02	-4.95194000E-01	 8.09540000E-01	 2.43075000E+00	 5.15660194E+02	-1.00425460E+00	 2.61657107E-01	 5.15287730E+02
		 2.59226000E-01	-5.50181000E-01	 5.17224000E+02	-6.18026000E-01	 9.37081000E-01	 2.48081000E+00	 5.17391449E+02	-8.92001786E-01	 5.87456997E-01	 5.17237590E+02
FIELD SDV 1
	SDV 60 20 double
		-2.19187000E-03	-4.09396000E-03	 6.28583000E-03	-1.12254000E-03	-1.44700000E-03	-1.52637000E-03	 6.97607000E+00	 2.63192000E+01	 0.00000000E+00	 0.00000000E+00	 0.00000000E+00	 0.00000000E+00	 0.00000000E+00	 5.83115000E+00	 0.00000000E+00	 6.05151000E+00	 0.00000000E+00	 0.00000000E+00	 6.16922000E+00	 0.00000000E+00	 0.00000000E+00	 3.50697000E+01	 0.00000000E+00	 4.69799000E+01	 2.84386000E+01	 8.29769000E+01	 0.00000000E+00	 0.00000000E+00	 0.00000000E+00	 0.00000000E+00	 0.00000000E+00	 2.41557000E+01	 0.00000000E+00	 2.49919000E+01	 0.00000000E+00	 0.00000000E+00	 2.32058000E+01	 0.00000000E+00	 0.00000000E+00	 7.25890000E+01	 0.00000000E+00	 9.41662000E+01	 1.84222000E-04	 8.28920000E-04	 0.00000000E+00	 0.00000000E+00	 0.00000000E+00	 0.00000000E+00	 0.00000000E+00	 1.52562000E-04	 0.00000000E+00	 1.58606000E-04	 0.00000000E+00	 0.00000000E+00	 3.33871000E-04	 0.00000000E+00	 0.00000000E+00	 3.38746000E-03	 0.00000000E+00	 9.19534000E-03
		-2.21804000E-03	-4.14349000E-03	 6.36152000E-03	-1.13499000E-03	-1.46623000E-03	-1.54511000E-03	 7.04817000E+00	 2.65086000E+01	 0.00000000E+00	 0.00000000E+00	 0.00000000E+00	 0.00000000E+00	 0.00000000E+00	 5.87846000E+00	 0.00000000E+00	 6.15412000E+00	 0.00000000E+00	 0.00000000E+00	 6.28605000E+00	 0.00000000E+00	 0.00000000E+00	 3.52640000E+01	 0.00000000E+00	 4.70463000E+01	 2.87028000E+01	 8.33732000E+01	 0.00000000E+00	 0.00000000E+00	 0.00000000E+00	 0.00000000E+00	 0.00000000E+00	 2.43366000E+01	 0.00000000E+00	 2.53774000E+01	 0.00000000E+00	 0.00000000E+00	 2.35654000E+01	 0.00000000E+00	 0.00000000E+00	 7.28266000E+01	 0.00000000E+00	 9.44408000E+01	 1.86238000E-04	 8.36508000E-04	 0.00000000E+00	 0.00000000E+00	 0.00000000E+00	 0.00000000E+00	 0.00000000E+00	 1.53853000E-04	 0.00000000E+00	 1.61436000E-04	 0.00000000E+00	 0.00000000E+00	 3.40758000E-04	 0.00000000E+00	 0.00000000E+00	 3.43069000E-03	 0.00000000E+00	 9.30438000E-03
		-2.20481000E-03	-4.11902000E-03	 6.32383000E-03	-1.12871000E-03	-1.45593000E-03	-1.53592000E-03	 7.01245000E+00	 2.64225000E+01	 0.00000000E+00	 0.00000000E+00	 0.00000000E+00	 0.00000000E+00	 0.00000000E+00	 5.86665000E+00	 0.00000000E+00	 6.09565000E+00	 0.00000000E+00	 0.00000000E+00	 6.20483000E+00	 0.00000000E+00	 0.00000000E+00	 3.51729000E+01	 0.00000000E+00	 4.70170000E+01	 2.85724000E+01	 8.31960000E+01	 0.00000000E+00	 0.00000000E+00	 0.00000000E+00	 0.00000000E+00	 0.00000000E+00	 2.42915000E+01	 0.00000000E+00	 2.51578000E+01	 0.00000000E+00	 0.00000000E+00	 2.33158000E+01	 0.00000000E+00	 0.00000000E+00	 7.27177000E+01	 0.00000000E+00	 9.43101000E+01	 1.85237000E-04	 8.33032000E-04	 0.00000000E+00	 0.00000000E+00	 0.00000000E+00	 0.00000000E+00	 0.00000000E+00	 1.53531000E-04	 0.00000000E+00	 1.59824000E-04	 0.00000000E+00	 0.00000000E+00	 3.35967000E-04	 0.00000000E+00	 0.00000000E+00	 3.40997000E-03	 0.00000000E+00	 9.24986000E-03
		-2.18604000E-03	-4.08269000E-03	 6.26873000E-03	-1.12129000E-03	-1.44578000E-03	-1.52171000E-03	 6.94565000E+00	 2.62149000E+01	 0.00000000E+00	 0.00000000E+00	 0.00000000E+00	 0.00000000E+00	 0.00000000E+00	 5.76190000E+00	 0.00000000E+00	 6.04920000E+00	 0.00000000E+00	 0.00000000E+00	 6.21400000E+00	 0.00000000E+00	 0.00000000E+00	 3.50120000E+01	 0.00000000E+00	 4.69739000E+01	 2.83278000E+01	 8.27545000E+01	 0.00000000E+00	 0.00000000E+00	 0.00000000E+00	 0.00000000E+00	 0.00000000E+00	 2.38910000E+01	 0.00000000E+00	 2.49825000E+01	 0.00000000E+00	 0.00000000E+00	 2.33481000E+01	 0.00000000E+00	 0.00000000E+00	 7.25201000E+01	 0.00000000E+00	 9.41227000E+01	 1.83368000E-04	 8.24811000E-04	 0.00000000E+00	 0.00000000E+00	 0.00000000E+00	 0.00000000E+00	 0.00000000E+00	 1.50670000E-04	 0.00000000E+00	 1.58545000E-04	 0.00000000E+00	 0.00000000E+00	 3.36473000E-04	 0.00000000E+00	 0.00000000E+00	 3.37360000E-03	 0.00000000E+00	 9.17494000E-03
		-2.17959000E-03	-4.07135000E-03	 6.25094000E-03	-1.11958000E-03	-1.44143000E-03	-1.51694000E-03	 6.91267000E+00	 2.61550000E+01	 0.00000000E+00	 0.00000000E+00	 0.00000000E+00	 0.00000000E+00	 0.00000000E+00	 5.75137000E+00	 0.00000000E+00	 6.02585000E+00	 0.00000000E+00	 0.00000000E+00	 6.17614000E+00	 0.00000000E+00	 0.00000000E+00	 3.49592000E+01	 0.00000000E+00	 4.69587000E+01	 2.82077000E+01	 8.26189000E+01	 0.00000000E+00	 0.00000000E+00	 0.00000000E+00	 0.00000000E+00	 0.00000000E+00	 2.38490000E+01	 0.00000000E+00	 2.48923000E+01	 0.00000000E+00	 0.00000000E+00	 2.32330000E+01	 0.00000000E+00	 0.00000000E+00	 7.24510000E+01	 0.00000000E+00	 9.40604000E+01	 1.82442000E-04	 8.22536000E-04	 0.00000000E+00	 0.00000000E+00	 0.00000000E+00	 0.00000000E+00	 0.00000000E+00	 1.50390000E-04	 0.00000000E+00	 1.57911000E-04	 0.00000000E+00	 0.00000000E+00	 3.34227000E-04	 0.00000000E+00	 0.00000000E+00	 3.36138000E-03	 0.00000000E+00	 9.15222000E-03
		-2.20153000E-03	-4.11148000E-03	 6.31301000E-03	-1.12883000E-03	-1.46076000E-03	-1.53117000E-03	 6.91746000E+00	 2.62822000E+01	 0.00000000E+00	 0.00000000E+00	 0.00000000E+00	 0.00000000E+00	 0.00000000E+00	 5.73616000E+00	 0.00000000E+00	 6.19141000E+00	 0.00000000E+00	 0.00000000E+00	 6.38151000E+00	 0.00000000E+00	 0.00000000E+00	 3.51066000E+01	 0.00000000E+00	 4.70136000E+01	 2.82229000E+01	 8.28911000E+01	 0.00000000E+00	 0.00000000E+00	 0.00000000E+00	 0.00000000E+00	 0.00000000E+00	 2.37912000E+01	 0.00000000E+00	 2.55173000E+01	 0.00000000E+00	 0.00000000E+00	 2.38641000E+01	 0.00000000E+00	 0.00000000E+00	 7.26342000E+01	 0.00000000E+00	 9.42905000E+01	 1.82586000E-04	 8.27571000E-04	 0.00000000E+00	 0.00000000E+00	 0.00000000E+00	 0.00000000E+00	 0.00000000E+00	 1.49973000E-04	 0.00000000E+00	 1.62466000E-04	 0.00000000E+00	 0.00000000E+00	 3.46348000E-04	 0.00000000E+00	 0.00000000E+00	 3.39475000E-03	 0.00000000E+00	 9.24106000E-03
		-2.20191000E-03	-4.11231000E-03	 6.31422000E-03	-1.13002000E-03	-1.45760000E-03	-1.53125000E-03	 6.94933000E+00	 2.63488000E+01	 0.00000000E+00	 0.00000000E+00	 0.00000000E+00	 0.00000000E+00	 0.00000000E+00	 5.80222000E+00	 0.00000000E+00	 6.16566000E+00	 0.00000000E+00	 0.00000000E+00	 6.28444000E+00	 0.00000000E+00	 0.00000000E+00	 3.51099000E+01	 0.00000000E+00	 4.70177000E+01	 2.83424000E+01	 8.30411000E+01	 0.00000000E+00	 0.00000000E+00	 0.00000000E+00	 0.00000000E+00	 0.00000000E+00	 2.40466000E+01	 0.00000000E+00	 2.54212000E+01	 0.00000000E+00	 0.00000000E+00	 2.35645000E+01	 0.00000000E+00	 0.00000000E+00	 7.26352000E+01	 0.00000000E+00	 9.42915000E+01	 1.83465000E-04	 8.30078000E-04	 0.00000000E+00	 0.00000000E+00	 0.00000000E+00	 0.00000000E+00	 0.00000000E+00	 1.51766000E-04	 0.00000000E+00	 1.61753000E-04	 0.00000000E+00	 0.00000000E+00	 3.40632000E-04	 0.00000000E+00	 0.00000000E+00	 3.39474000E-03	 0.00000000E+00	 9.24345000E-03
		-2.21033000E-03	-4.12791000E-03	 6.33823000E-03	-1.13271000E-03	-1.46346000E-03	-1.53818000E-03	 6.99965000E+00	 2.64080000E+01	 0.00000000E+00	 0.00000000E+00	 0.00000000E+00	 0.00000000E+00	 0.00000000E+00	 5.81289000E+00	 0.00000000E+00	 6.17187000E+00	 0.00000000E+00	 0.00000000E+00	 6.32737000E+00	 0.00000000E+00	 0.00000000E+00	 3.51846000E+01	 0.00000000E+00	 4.70367000E+01	 2.85260000E+01	 8.31667000E+01	 0.00000000E+00	 0.00000000E+00	 0.00000000E+00	 0.00000000E+00	 0.00000000E+00	 2.40875000E+01	 0.00000000E+00	 2.54448000E+01	 0.00000000E+00	 0.00000000E+00	 2.36950000E+01	 0.00000000E+00	 0.00000000E+00	 7.27309000E+01	 0.00000000E+00	 9.43754000E+01	 1.84877000E-04	 8.32438000E-04	 0.00000000E+00	 0.00000000E+00	 0.00000000E+00	 0.00000000E+00	 0.00000000E+00	 1.52057000E-04	 0.00000000E+00	 1.61923000E-04	 0.00000000E+00	 0.00000000E+00	 3.43177000E-04	 0.00000000E+00	 0.00000000E+00	 3.41183000E-03	 0.00000000E+00	 9.27499000E-03
		-2.20190000E-03	-4.11229000E-03	 6.31419000E-03	-1.13000000E-03	-1.45760000E-03	-1.53124000E-03	 6.94929000E+00	 2.63488000E+01	 0.00000000E+00	 0.00000000E+00	 0.00000000E+00	 0.00000000E+00	 0.00000000E+00	 5.80217000E+00	 0.00000000E+00	 6.16566000E+00	 0.00000000E+00	 0.00000000E+00	 6.28447000E+00	 0.00000000E+00	 0.00000000E+00	 3.51099000E+01	 0.00000000E+00	 4.70177000E+01	 2.83423000E+01	 8.30411000E+01	 0.00000000E+00	 0.00000000E+00	 0.00000000E+00	 0.00000000E+00	 0.00000000E+00	 2.40464000E+01	 0.00000000E+00	 2.54212000E+01	 0.00000000E+00	 0.00000000E+00	 2.35646000E+01	 0.00000000E+00	 0.00000000E+00	 7.26353000E+01	 0.00000000E+00	 9.42913000E+01	 1.83465000E-04	 8.30078000E-04	 0.00000000E+00	 0.00000000E+00	 0.00000000E+00	 0.00000000E+00	 0.00000000E+00	 1.51764000E-04	 0.00000000E+00	 1.61753000E-04	 0.00000000E+00	 0.00000000E+00	 3.40633000E-04	 0.00000000E+00	 0.00000000E+00	 3.39474000E-03	 0.00000000E+00	 9.24338000E-03
		-2.19057000E-03	-4.09212000E-03	 6.28269000E-03	-1.12474000E-03	-1.44888000E-03	-1.52428000E-03	 6.93121000E+00	 2.62590000E+01	 0.00000000E+00	 0.00000000E+00	 0.00000000E+00	 0.00000000E+00	 0.00000000E+00	 5.78634000E+00	 0.00000000E+00	 6.08866000E+00	 0.00000000E+00	 0.00000000E+00	 6.20785000E+00	 0.00000000E+00	 0.00000000E+00	 3.50405000E+01	 0.00000000E+00	 4.69919000E+01	 2.82763000E+01	 8.28484000E+01	 0.00000000E+00	 0.00000000E+00	 0.00000000E+00	 0.00000000E+00	 0.00000000E+00	 2.39848000E+01	 0.00000000E+00	 2.51302000E+01	 0.00000000E+00	 0.00000000E+00	 2.33296000E+01	 0.00000000E+00	 0.00000000E+00	 7.25530000E+01	 0.00000000E+00	 9.41824000E+01	 1.82958000E-04	 8.26560000E-04	 0.00000000E+00	 0.00000000E+00	 0.00000000E+00	 0.00000000E+00	 0.00000000E+00	 1.51337000E-04	 0.00000000E+00	 1.59637000E-04	 0.00000000E+00	 0.00000000E+00	 3.36108000E-04	 0.00000000E+00	 0.00000000E+00	 3.37898000E-03	 0.00000000E+00	 9.19783000E-03
		-2.20342000E-03	-4.11571000E-03	 6.31912000E-03	-1.12984000E-03	-1.46235000E-03	-1.53343000E-03	 6.93503000E+00	 2.62759000E+01	 0.00000000E+00	 0.00000000E+00	 0.00000000E+00	 0.00000000E+00	 0.00000000E+00	 5.73605000E+00	 0.00000000E+00	 6.16887000E+00	 0.00000000E+00	 0.00000000E+00	 6.38902000E+00	 0.00000000E+00	 0.00000000E+00	 3.51301000E+01	 0.00000000E+00	 4.70184000E+01	 2.82876000E+01	 8.28722000E+01	 0.00000000E+00	 0.00000000E+00	 0.00000000E+00	 0.00000000E+00	 0.00000000E+00	 2.37894000E+01	 0.00000000E+00	 2.54315000E+01	 0.00000000E+00	 0.00000000E+00	 2.38867000E+01	 0.00000000E+00	 0.00000000E+00	 7.26623000E+01	 0.00000000E+00	 9.43126000E+01	 1.83076000E-04	 8.27397000E-04	 0.00000000E+00	 0.00000000E+00	 0.00000000E+00	 0.00000000E+00	 0.00000000E+00	 1.49976000E-04	 0.00000000E+00	 1.61849000E-04	 0.00000000E+00	 0.00000000E+00	 3.46794000E-04	 0.00000000E+00	 0.00000000E+00	 3.39974000E-03	 0.00000000E+00	 9.24983000E-03
		-2.17960000E-03	-4.07136000E-03	 6.25095000E-03	-1.11961000E-03	-1.44144000E-03	-1.51693000E-03	 6.91271000E+00	 2.61550000E+01	 0.00000000E+00	 0.00000000E+00	 0.00000000E+00	 0.00000000E+00	 0.00000000E+00	 5.75147000E+00	 0.00000000E+00	 6.02585000E+00	 0.00000000E+00	 0.00000000E+00	 6.17610000E+00	 0.00000000E+00	 0.00000000E+00	 3.49590000E+01	 0.00000000E+00	 4.69587000E+01	 2.82078000E+01	 8.26189000E+01	 0.00000000E+00	 0.00000000E+00	 0.00000000E+00	 0.00000000E+00	 0.00000000E+00	 2.38494000E+01	 0.00000000E+00	 2.48924000E+01	 0.00000000E+00	 0.00000000E+00	 2.32329000E+01	 0.00000000E+00	 0.00000000E+00	 7.24508000E+01	 0.00000000E+00	 9.40605000E+01	 1.82443000E-04	 8.22536000E-04	 0.00000000E+00	 0.00000000E+00	 0.00000000E+00	 0.00000000E+00	 0.00000000E+00	 1.50393000E-04	 0.00000000E+00	 1.57911000E-04	 0.00000000E+00	 0.00000000E+00	 3.34224000E-04	 0.00000000E+00	 0.00000000E+00	 3.36134000E-03	 0.00000000E+00	 9.15228000E-03
		-2.19058000E-03	-4.09213000E-03	 6.28272000E-03	-1.12476000E-03	-1.44889000E-03	-1.52428000E-03	 6.93125000E+00	 2.62590000E+01	 0.00000000E+00	 0.00000000E+00	 0.00000000E+00	 0.00000000E+00	 0.00000000E+00	 5.78643000E+00	 0.00000000E+00	 6.08865000E+00	 0.00000000E+00	 0.00000000E+00	 6.20780000E+00	 0.00000000E+00	 0.00000000E+00	 3.50404000E+01	 0.00000000E+00	 4.69919000E+01	 2.82764000E+01	 8.28484000E+01	 0.00000000E+00	 0.00000000E+00	 0.00000000E+00	 0.00000000E+00	 0.00000000E+00	 2.39851000E+01	 0.00000000E+00	 2.51302000E+01	 0.00000000E+00	 0.00000000E+00	 2.33294000E+01	 0.00000000E+00	 0.00000000E+00	 7.25529000E+01	 0.00000000E+00	 9.41825000E+01	 1.82959000E-04	 8.26559000E-04	 0.00000000E+00	 0.00000000E+00	 0.00000000E+00	 0.00000000E+00	 0.00000000E+00	 1.51339000E-04	 0.00000000E+00	 1.59636000E-04	 0.00000000E+00	 0.00000000E+00	 3.36105000E-04	 0.00000000E+00	 0.00000000E+00	 3.37895000E-03	 0.00000000E+00	 9.19789000E-03
		-2.20342000E-03	-4.11571000E-03	 6.31913000E-03	-1.12983000E-03	-1.46235000E-03	-1.53344000E-03	 6.93502000E+00	 2.62759000E+01	 0.00000000E+00	 0.00000000E+00	 0.00000000E+00	 0.00000000E+00	 0.00000000E+00	 5.73601000E+00	 0.00000000E+00	 6.16886000E+00	 0.00000000E+00	 0.00000000E+00	 6.38902000E+00	 0.00000000E+00	 0.00000000E+00	 3.51302000E+01	 0.00000000E+00	 4.70184000E+01	 2.82876000E+01	 8.28722000E+01	 0.00000000E+00	 0.00000000E+00	 0.00000000E+00	 0.00000000E+00	 0.00000000E+00	 2.37893000E+01	 0.00000000E+00	 2.54314000E+01	 0.00000000E+00	 0.00000000E+00	 2.38867000E+01	 0.00000000E+00	 0.00000000E+00	 7.26624000E+01	 0.00000000E+00	 9.43126000E+01	 1.83076000E-04	 8.27397000E-04	 0.00000000E+00	 0.00000000E+00	 0.00000000E+00	 0.00000000E+00	 0.00000000E+00	 1.49975000E-04	 0.00000000E+00	 1.61849000E-04	 0.00000000E+00	 0.00000000E+00	 3.46794000E-04	 0.00000000E+00	 0.00000000E+00	 3.39976000E-03	 0.00000000E+00	 9.24982000E-03
		-2.21033000E-03	-4.12792000E-03	 6.33826000E-03	-1.13272000E-03	-1.46347000E-03	-1.53819000E-03	 6.99968000E+00	 2.64079000E+01	 0.00000000E+00	 0.00000000E+00	 0.00000000E+00	 0.00000000E+00	 0.00000000E+00	 5.81286000E+00	 0.00000000E+00	 6.17185000E+00	 0.00000000E+00	 0.00000000E+00	 6.32738000E+00	 0.00000000E+00	 0.00000000E+00	 3.51846000E+01	 0.00000000E+00	 4.70367000E+01	 2.85261000E+01	 8.31665000E+01	 0.00000000E+00	 0.00000000E+00	 0.00000000E+00	 0.00000000E+00	 0.00000000E+00	 2.40874000E+01	 0.00000000E+00	 2.54447000E+01	 0.00000000E+00	 0.00000000E+00	 2.36951000E+01	 0.00000000E+00	 0.00000000E+00	 7.27310000E+01	 0.00000000E+00	 9.43755000E+01	 1.84878000E-04	 8.32434000E-04	 0.00000000E+00	 0.00000000E+00	 0.00000000E+00	 0.00000000E+00	 0.00000000E+00	 1.52056000E-04	 0.00000000E+00	 1.61922000E-04	 0.00000000E+00	 0.00000000E+00	 3.43178000E-04	 0.00000000E+00	 0.00000000E+00	 3.41183000E-03	 0.00000000E+00	 9.27504000E-03
		-2.21804000E-03	-4.14350000E-03	 6.36154000E-03	-1.13499000E-03	-1.46624000E-03	-1.54512000E-03	 7.04817000E+00	 2.65084000E+01	 0.00000000E+00	 0.00000000E+00	 0.00000000E+00	 0.00000000E+00	 0.00000000E+00	 5.87835000E+00	 0.00000000E+00	 6.15410000E+00	 0.00000000E+00	 0.00000000E+00	 6.28610000E+00	 0.00000000E+00	 0.00000000E+00	 3.52641000E+01	 0.00000000E+00	 4.70464000E+01	 2.87028000E+01	 8.33729000E+01	 0.00000000E+00	 0.00000000E+00	 0.00000000E+00	 0.00000000E+00	 0.00000000E+00	 2.43362000E+01	 0.00000000E+00	 2.53773000E+01	 0.00000000E+00	 0.00000000E+00	 2.35656000E+01	 0.00000000E+00	 0.00000000E+00	 7.28267000E+01	 0.00000000E+00	 9.44408000E+01	 1.86238000E-04	 8.36502000E-04	 0.00000000E+00	 0.00000000E+00	 0.00000000E+00	 0.00000000E+00	 0.00000000E+00	 1.53850000E-04	 0.00000000E+00	 1.61436000E-04	 0.00000000E+00	 0.00000000E+00	 3.40761000E-04	 0.00000000E+00	 0.00000000E+00	 3.43071000E-03	 0.00000000E+00	 9.30440000E-03
		-2.20153000E-03	-4.11148000E-03	 6.31301000E-03	-1.12883000E-03	-1.46076000E-03	-1.53117000E-03	 6.91748000E+00	 2.62823000E+01	 0.00000000E+00	 0.00000000E+00	 0.00000000E+00	 0.00000000E+00	 0.00000000E+00	 5.73620000E+00	 0.00000000E+00	 6.19137000E+00	 0.00000000E+00	 0.00000000E+00	 6.38147000E+00	 0.00000000E+00	 0.00000000E+00	 3.51066000E+01	 0.00000000E+00	 4.70136000E+01	 2.82230000E+01	 8.28912000E+01	 0.00000000E+00	 0.00000000E+00	 0.00000000E+00	 0.00000000E+00	 0.00000000E+00	 2.37913000E+01	 0.00000000E+00	 2.55171000E+01	 0.00000000E+00	 0.00000000E+00	 2.38640000E+01	 0.00000000E+00	 0.00000000E+00	 7.26343000E+01	 0.00000000E+00	 9.42905000E+01	 1.82586000E-04	 8.27573000E-04	 0.00000000E+00	 0.00000000E+00	 0.00000000E+00	 0.00000000E+00	 0.00000000E+00	 1.49974000E-04	 0.00000000E+00	 1.62465000E-04	 0.00000000E+00	 0.00000000E+00	 3.46346000E-04	 0.00000000E+00	 0.00000000E+00	 3.39475000E-03	 0.00000000E+00	 9.24105000E-03
		-2.18605000E-03	-4.08270000E-03	 6.26876000E-03	-1.12131000E-03	-1.44578000E-03	-1.52170000E-03	 6.94568000E+00	 2.62149000E+01	 0.00000000E+00	 0.00000000E+00	 0.00000000E+00	 0.00000000E+00	 0.00000000E+00	 5.76196000E+00	 0.00000000E+00	 6.04924000E+00	 0.00000000E+00	 0.00000000E+00	 6.21400000E+00	 0.00000000E+00	 0.00000000E+00	 3.50119000E+01	 0.00000000E+00	 4.69739000E+01	 2.83279000E+01	 8.27545000E+01	 0.00000000E+00	 0.00000000E+00	 0.00000000E+00	 0.00000000E+00	 0.00000000E+00	 2.38913000E+01	 0.00000000E+00	 2.49826000E+01	 0.00000000E+00	 0.00000000E+00	 2.33481000E+01	 0.00000000E+00	 0.00000000E+00	 7.25200000E+01	 0.00000000E+00	 9.41228000E+01	 1.83369000E-04	 8.24812000E-04	 0.00000000E+00	 0.00000000E+00	 0.00000000E+00	 0.00000000E+00	 0.00000000E+00	 1.50672000E-04	 0.00000000E+00	 1.58547000E-04	 0.00000000E+00	 0.00000000E+00	 3.36473000E-04	 0.00000000E+00	 0.00000000E+00	 3.37357000E-03	 0.00000000E+00	 9.17500000E-03
		-2.19188000E-03	-4.09398000E-03	 6.28586000E-03	-1.12256000E-03	-1.44701000E-03	-1.52637000E-03	 6.97609000E+00	 2.63193000E+01	 0.00000000E+00	 0.00000000E+00	 0.00000000E+00	 0.00000000E+00	 0.00000000E+00	 5.83116000E+00	 0.00000000E+00	 6.05158000E+00	 0.00000000E+00	 0.00000000E+00	 6.16925000E+00	 0.00000000E+00	 0.00000000E+00	 3.50697000E+01	 0.00000000E+00	 4.69799000E+01	 2.84387000E+01	 8.29770000E+01	 0.00000000E+00	 0.00000000E+00	 0.00000000E+00	 0.00000000E+00	 0.00000000E+00	 2.41557000E+01	 0.00000000E+00	 2.49922000E+01	 0.00000000E+00	 0.00000000E+00	 2.32059000E+01	 0.00000000E+00	 0.00000000E+00	 7.25890000E+01	 0.00000000E+00	 9.41664000E+01	 1.84222000E-04	 8.28921000E-04	 0.00000000E+00	 0.00000000E+00	 0.00000000E+00	 0.00000000E+00	 0.00000000E+00	 1.52562000E-04	 0.00000000E+00	 1.58608000E-04	 0.00000000E+00	 0.00000000E+00	 3.33873000E-04	 0.00000000E+00	 0.00000000E+00	 3.38745000E-03	 0.00000000E+00	 9.19541000E-03
		-2.20481000E-03	-4.11904000E-03	 6.32385000E-03	-1.12872000E-03	-1.45594000E-03	-1.53592000E-03	 7.01246000E+00	 2.64224000E+01	 0.00000000E+00	 0.00000000E+00	 0.00000000E+00	 0.00000000E+00	 0.00000000E+00	 5.86660000E+00	 0.00000000E+00	 6.09568000E+00	 0.00000000E+00	 0.00000000E+00	 6.20487000E+00	 0.00000000E+00	 0.00000000E+00	 3.51729000E+01	 0.00000000E+00	 4.70170000E+01	 2.85724000E+01	 8.31958000E+01	 0.00000000E+00	 0.00000000E+00	 0.00000000E+00	 0.00000000E+00	 0.00000000E+00	 2.42913000E+01	 0.00000000E+00	 2.51579000E+01	 0.00000000E+00	 0.00000000E+00	 2.33159000E+01	 0.00000000E+00	 0.00000000E+00	 7.27177000E+01	 0.00000000E+00	 9.43102000E+01	 1.85238000E-04	 8.33029000E-04	 0.00000000E+00	 0.00000000E+00	 0.00000000E+00	 0.00000000E+00	 0.00000000E+00	 1.53530000E-04	 0.00000000E+00	 1.59824000E-04	 0.00000000E+00	 0.00000000E+00	 3.35970000E-04	 0.00000000E+00	 0.00000000E+00	 3.40998000E-03	 0.00000000E+00	 9.24991000E-03
