<?xml version="1.0"?>
<VTKFile type="UnstructuredGrid" version="0.1" byte_order="LittleEndian">
	<UnstructuredGrid>
		<Piece NumberOfPoints="20" NumberOfCells="1">
			<Points>
				<DataArray type="Float64" NumberOfComponents="3" format="ascii">
					 1.00000000E+00	 0.00000000E+00	 0.00000000E+00
					 5.00000000E-01	 0.00000000E+00	 0.00000000E+00
					 7.50000000E-01	 0.00000000E+00	 0.00000000E+00
					 1.00000000E+00	 2.50000000E-01	 0.00000000E+00
					 1.00000000E+00	 5.00000000E-01	 0.00000000E+00
					 1.00000000E+00	 0.00000000E+00	 5.00000000E-01
					 1.00000000E+00	 0.00000000E+00	 1.00000000E+00
					 5.00000000E-01	 2.50000000E-01	 0.00000000E+00
					 5.00000000E-01	 5.00000000E-01	 0.00000000E+00
					 7.50000000E-01	 5.00000000E-01	 0.00000000E+00
					 5.00000000E-01	 0.00000000E+00	 5.00000000E-01
					 5.00000000E-01	 0.00000000E+00	 1.00000000E+00
					 7.50000000E-01	 0.00000000E+00	 1.00000000E+00
					 1.00000000E+00	 5.00000000E-01	 5.00000000E-01
					 1.00000000E+00	 2.50000000E-01	 1.00000000E+00
					 1.00000000E+00	 5.00000000E-01	 1.00000000E+00
					 5.00000000E-01	 5.00000000E-01	 5.00000000E-01
					 5.00000000E-01	 2.50000000E-01	 1.00000000E+00
					 5.00000000E-01	 5.00000000E-01	 1.00000000E+00
					 7.50000000E-01	 5.00000000E-01	 1.00000000E+00

				</DataArray>
			</Points>
			<Cells>
				<DataArray type="Int32" Name="connectivity" format="ascii">
					1 0 4 8 11 6 15 18 2 3 9 7 12 14 19 17 10 5 13 16 
				</DataArray>
				<DataArray type="Int32" Name="offsets" format="ascii">
					20 
				</DataArray>
				<DataArray type="UInt8" Name="types" format="ascii">
					25 
				</DataArray>
			</Cells>
			<PointData>
				<DataArray type="Float32" Name="U" NumberOfComponents="3" ComponentName0="D1" ComponentName1="D2" ComponentName2="D3" format="ascii">
					 0.00000000E+00	 0.00000000E+00	 0.00000000E+00
					 1.26754000E-03	 0.00000000E+00	 0.00000000E+00
					 6.33850000E-04	-2.10363000E-07	 0.00000000E+00
					-2.23008000E-04	-6.16769000E-04	 0.00000000E+00
					-4.48482000E-04	-1.23665000E-03	 0.00000000E+00
					-1.92671000E-04	-4.71434000E-05	 3.39532000E-03
					-3.90790000E-04	-9.42115000E-05	 6.79980000E-03
					 1.04698000E-03	-6.16720000E-04	 0.00000000E+00
					 8.24243000E-04	-1.23684000E-03	 0.00000000E+00
					 1.88061000E-04	-1.23697000E-03	 0.00000000E+00
					 1.07711000E-03	-4.57378000E-05	 3.39636000E-03
					 8.81941000E-04	-9.43936000E-05	 6.79980000E-03
					 2.45395000E-04	-9.40773000E-05	 6.79980000E-03
					-6.43651000E-04	-1.28531000E-03	 3.40344000E-03
					-6.13530000E-04	-7.14341000E-04	 6.79980000E-03
					-8.34087000E-04	-1.33107000E-03	 6.79980000E-03
					 6.26129000E-04	-1.28391000E-03	 3.40448000E-03
					 6.56462000E-04	-7.14277000E-04	 6.79980000E-03
					 4.33452000E-04	-1.33105000E-03	 6.79980000E-03
					-2.00400000E-04	-1.33085000E-03	 6.79980000E-03
				</DataArray>
				<DataArray type="Float32" Name="S" NumberOfComponents="10" ComponentName0="xx" ComponentName1="yy" ComponentName2="zz" ComponentName3="xy" ComponentName4="yz" ComponentName5="zx" ComponentName6="Mises" ComponentName7="Min Principal" ComponentName8="Mid Principal" ComponentName9="Max Principal" format="ascii">
					 1.79556000E-01	 2.02815000E-02	 5.00614000E+02	-1.00593000E-01	-4.11417000E-01	 7.63579000E-01	 5.00516385E+02	-2.83847226E-02	 2.26718755E-01	 5.00615503E+02
					 2.07341000E-01	 1.57879000E-01	 5.02181000E+02	-1.57508000E-01	-2.80557000E-01	 3.34823000E-01	 5.01999036E+02	 2.31722229E-02	 3.41667539E-01	 5.02181380E+02
					 2.42793000E-01	 2.73396000E-02	 5.01446000E+02	-1.34522000E-01	-3.66850000E-01	 6.32675000E-01	 5.01312623E+02	-3.72805342E-02	 3.06345858E-01	 5.01447067E+02
					 1.15533000E-01	 2.02183000E-01	 5.00186000E+02	-7.06645000E-02	-2.68500000E-01	 4.61425000E-01	 5.00028018E+02	 7.58216449E-02	 2.41324330E-01	 5.00186570E+02
					 1.78522000E-01	 4.43112000E-02	 4.99726000E+02	-6.72862000E-02	-8.67767000E-02	 5.82453000E-01	 4.99615652E+02	 1.63461774E-02	 2.05792809E-01	 4.99726694E+02
					-8.30389000E-02	-1.56666000E-01	 5.00853000E+02	 6.34170000E-02	 1.52124000E-01	-1.11932000E-01	 5.00972975E+02	-1.93250466E-01	-4.65256260E-02	 5.00853071E+02
					 2.16270000E-01	 1.51399000E-01	 5.01103000E+02	-2.49665000E-02	 1.90719000E-01	 1.03508000E-01	 5.00919312E+02	 1.42811668E-01	 2.24763337E-01	 5.01103094E+02
					 1.50372000E-01	 3.22481000E-01	 5.01658000E+02	-7.85670000E-02	-6.58703000E-02	 9.01252000E-03	 5.01421627E+02	 1.19900705E-01	 3.52943478E-01	 5.01658009E+02
					 2.16123000E-01	 1.51507000E-01	 5.01103000E+02	-2.49287000E-02	 1.90672000E-01	 1.03319000E-01	 5.00919331E+02	 1.42916303E-01	 2.24619815E-01	 5.01103094E+02
					 2.48332000E-01	 3.46135000E-02	 5.00464000E+02	-5.20273000E-02	 3.05779000E-02	 4.30265000E-01	 5.00323127E+02	 2.25890050E-02	 2.59984536E-01	 5.00464372E+02
					-8.73600000E-02	-1.48483000E-01	 5.00955000E+02	 1.35309000E-02	 7.66448000E-02	-8.30068000E-02	 5.01072963E+02	-1.51361356E-01	-8.45071178E-02	 5.00955025E+02
					 1.78643000E-01	 4.42846000E-02	 4.99726000E+02	-6.73700000E-02	-8.65757000E-02	 5.82887000E-01	 4.99615606E+02	 1.62817131E-02	 2.05950730E-01	 4.99726695E+02
					 2.48472000E-01	 3.43738000E-02	 5.00464000E+02	-5.21196000E-02	 3.06899000E-02	 4.30692000E-01	 5.00323179E+02	 2.23279534E-02	 2.60145139E-01	 5.00464373E+02
					-8.73593000E-02	-1.48634000E-01	 5.00954000E+02	 1.35102000E-02	 7.64956000E-02	-8.31015000E-02	 5.01072038E+02	-1.51497455E-01	-8.45213050E-02	 5.00954025E+02
					 1.50434000E-01	 3.22555000E-01	 5.01658000E+02	-7.85876000E-02	-6.60690000E-02	 8.78726000E-03	 5.01421559E+02	 1.19950366E-01	 3.53029772E-01	 5.01658009E+02
					 2.07589000E-01	 1.58210000E-01	 5.02180000E+02	-1.57467000E-01	-2.80927000E-01	 3.34218000E-01	 5.01997746E+02	 2.35086704E-02	 3.41910483E-01	 5.02180380E+02
					-8.30639000E-02	-1.56822000E-01	 5.00853000E+02	 6.33548000E-02	 1.51953000E-01	-1.11567000E-01	 5.00973065E+02	-1.93319853E-01	-4.66369729E-02	 5.00853071E+02
					 1.15626000E-01	 2.02383000E-01	 5.00186000E+02	-7.06004000E-02	-2.68283000E-01	 4.61565000E-01	 5.00027871E+02	 7.59943028E-02	 2.41444647E-01	 5.00186570E+02
					 1.79856000E-01	 2.08742000E-02	 5.00614000E+02	-1.00337000E-01	-4.11218000E-01	 7.63363000E-01	 5.00515937E+02	-2.76468347E-02	 2.26874553E-01	 5.00615502E+02
					 2.43029000E-01	 2.76939000E-02	 5.01446000E+02	-1.34391000E-01	-3.66951000E-01	 6.32278000E-01	 5.01312326E+02	-3.68462381E-02	 3.06502716E-01	 5.01447066E+02
				</DataArray>
				<DataArray type="Float32" Name="SDV" NumberOfComponents="60" ComponentName0="1" ComponentName1="2" ComponentName2="3" ComponentName3="4" ComponentName4="5" ComponentName5="6" ComponentName6="7" ComponentName7="8" ComponentName8="9" ComponentName9="10" ComponentName10="11" ComponentName11="12" ComponentName12="13" ComponentName13="14" ComponentName14="15" ComponentName15="16" ComponentName16="17" ComponentName17="18" ComponentName18="19" ComponentName19="20" ComponentName20="21" ComponentName21="22" ComponentName22="23" ComponentName23="24" ComponentName24="25" ComponentName25="26" ComponentName26="27" ComponentName27="28" ComponentName28="29" ComponentName29="30" ComponentName30="31" ComponentName31="32" ComponentName32="33" ComponentName33="34" ComponentName34="35" ComponentName35="36" ComponentName36="37" ComponentName37="38" ComponentName38="39" ComponentName39="40" ComponentName40="41" ComponentName41="42" ComponentName42="43" ComponentName43="44" ComponentName44="45" ComponentName45="46" ComponentName46="47" ComponentName47="48" ComponentName48="49" ComponentName49="50" ComponentName50="51" ComponentName51="52" ComponentName52="53" ComponentName53="54" ComponentName54="55" ComponentName55="56" ComponentName56="57" ComponentName57="58" ComponentName58="59" ComponentName59="60" format="ascii">
					-1.54877000E-03	-2.86642000E-03	 4.41518000E-03	-7.80828000E-04	-9.95705000E-04	-1.06452000E-03	 5.17972000E+00	 2.08093000E+01	 0.00000000E+00	 0.00000000E+00	 0.00000000E+00	 0.00000000E+00	 0.00000000E+00	 4.08113000E+00	 0.00000000E+00	 4.41232000E+00	 0.00000000E+00	 0.00000000E+00	 3.99682000E+00	 0.00000000E+00	 0.00000000E+00	 2.83635000E+01	 0.00000000E+00	 4.27661000E+01	 2.15249000E+01	 6.95794000E+01	 0.00000000E+00	 0.00000000E+00	 0.00000000E+00	 0.00000000E+00	 0.00000000E+00	 1.72343000E+01	 0.00000000E+00	 1.85475000E+01	 0.00000000E+00	 0.00000000E+00	 1.57938000E+01	 0.00000000E+00	 0.00000000E+00	 6.44969000E+01	 0.00000000E+00	 8.55484000E+01	 1.35314000E-04	 6.28489000E-04	 0.00000000E+00	 0.00000000E+00	 0.00000000E+00	 0.00000000E+00	 0.00000000E+00	 1.05639000E-04	 0.00000000E+00	 1.14508000E-04	 0.00000000E+00	 0.00000000E+00	 2.11464000E-04	 0.00000000E+00	 0.00000000E+00	 2.36379000E-03	 0.00000000E+00	 6.43640000E-03
					-1.54694000E-03	-2.86586000E-03	 4.41280000E-03	-7.78858000E-04	-9.94000000E-04	-1.06524000E-03	 5.18398000E+00	 2.07859000E+01	 0.00000000E+00	 0.00000000E+00	 0.00000000E+00	 0.00000000E+00	 0.00000000E+00	 4.06686000E+00	 0.00000000E+00	 4.40035000E+00	 0.00000000E+00	 0.00000000E+00	 3.93657000E+00	 0.00000000E+00	 0.00000000E+00	 2.83750000E+01	 0.00000000E+00	 4.27179000E+01	 2.15375000E+01	 6.95068000E+01	 0.00000000E+00	 0.00000000E+00	 0.00000000E+00	 0.00000000E+00	 0.00000000E+00	 1.71774000E+01	 0.00000000E+00	 1.84953000E+01	 0.00000000E+00	 0.00000000E+00	 1.55788000E+01	 0.00000000E+00	 0.00000000E+00	 6.45066000E+01	 0.00000000E+00	 8.55141000E+01	 1.35445000E-04	 6.27800000E-04	 0.00000000E+00	 0.00000000E+00	 0.00000000E+00	 0.00000000E+00	 0.00000000E+00	 1.05258000E-04	 0.00000000E+00	 1.14206000E-04	 0.00000000E+00	 0.00000000E+00	 2.08133000E-04	 0.00000000E+00	 0.00000000E+00	 2.36852000E-03	 0.00000000E+00	 6.43039000E-03
					-1.54809000E-03	-2.86625000E-03	 4.41435000E-03	-7.79824000E-04	-9.95302000E-04	-1.06478000E-03	 5.17619000E+00	 2.07985000E+01	 0.00000000E+00	 0.00000000E+00	 0.00000000E+00	 0.00000000E+00	 0.00000000E+00	 4.07089000E+00	 0.00000000E+00	 4.41612000E+00	 0.00000000E+00	 0.00000000E+00	 3.98144000E+00	 0.00000000E+00	 0.00000000E+00	 2.83681000E+01	 0.00000000E+00	 4.27457000E+01	 2.15095000E+01	 6.95470000E+01	 0.00000000E+00	 0.00000000E+00	 0.00000000E+00	 0.00000000E+00	 0.00000000E+00	 1.71933000E+01	 0.00000000E+00	 1.85604000E+01	 0.00000000E+00	 0.00000000E+00	 1.57380000E+01	 0.00000000E+00	 0.00000000E+00	 6.45028000E+01	 0.00000000E+00	 8.55385000E+01	 1.35225000E-04	 6.28167000E-04	 0.00000000E+00	 0.00000000E+00	 0.00000000E+00	 0.00000000E+00	 0.00000000E+00	 1.05366000E-04	 0.00000000E+00	 1.14618000E-04	 0.00000000E+00	 0.00000000E+00	 2.10621000E-04	 0.00000000E+00	 0.00000000E+00	 2.36590000E-03	 0.00000000E+00	 6.43382000E-03
					-1.55591000E-03	-2.87839000E-03	 4.43431000E-03	-7.85770000E-04	-9.98854000E-04	-1.06765000E-03	 5.19606000E+00	 2.09331000E+01	 0.00000000E+00	 0.00000000E+00	 0.00000000E+00	 0.00000000E+00	 0.00000000E+00	 4.14244000E+00	 0.00000000E+00	 4.45474000E+00	 0.00000000E+00	 0.00000000E+00	 3.98330000E+00	 0.00000000E+00	 0.00000000E+00	 2.84159000E+01	 0.00000000E+00	 4.28383000E+01	 2.15911000E+01	 6.98938000E+01	 0.00000000E+00	 0.00000000E+00	 0.00000000E+00	 0.00000000E+00	 0.00000000E+00	 1.74805000E+01	 0.00000000E+00	 1.87149000E+01	 0.00000000E+00	 0.00000000E+00	 1.57502000E+01	 0.00000000E+00	 0.00000000E+00	 6.45685000E+01	 0.00000000E+00	 8.56680000E+01	 1.35746000E-04	 6.32872000E-04	 0.00000000E+00	 0.00000000E+00	 0.00000000E+00	 0.00000000E+00	 0.00000000E+00	 1.07269000E-04	 0.00000000E+00	 1.15648000E-04	 0.00000000E+00	 0.00000000E+00	 2.10684000E-04	 0.00000000E+00	 0.00000000E+00	 2.36921000E-03	 0.00000000E+00	 6.46673000E-03
					-1.56286000E-03	-2.88856000E-03	 4.45142000E-03	-7.90796000E-04	-1.00125000E-03	-1.06918000E-03	 5.19367000E+00	 2.10813000E+01	 0.00000000E+00	 0.00000000E+00	 0.00000000E+00	 0.00000000E+00	 0.00000000E+00	 4.23014000E+00	 0.00000000E+00	 4.51770000E+00	 0.00000000E+00	 0.00000000E+00	 3.97497000E+00	 0.00000000E+00	 0.00000000E+00	 2.84377000E+01	 0.00000000E+00	 4.29000000E+01	 2.15849000E+01	 7.02606000E+01	 0.00000000E+00	 0.00000000E+00	 0.00000000E+00	 0.00000000E+00	 0.00000000E+00	 1.78289000E+01	 0.00000000E+00	 1.89631000E+01	 0.00000000E+00	 0.00000000E+00	 1.57244000E+01	 0.00000000E+00	 0.00000000E+00	 6.45964000E+01	 0.00000000E+00	 8.57672000E+01	 1.35668000E-04	 6.38206000E-04	 0.00000000E+00	 0.00000000E+00	 0.00000000E+00	 0.00000000E+00	 0.00000000E+00	 1.09615000E-04	 0.00000000E+00	 1.17339000E-04	 0.00000000E+00	 0.00000000E+00	 2.10195000E-04	 0.00000000E+00	 0.00000000E+00	 2.37057000E-03	 0.00000000E+00	 6.49461000E-03
					-1.55596000E-03	-2.87713000E-03	 4.43309000E-03	-7.92432000E-04	-9.98715000E-04	-1.06293000E-03	 5.14643000E+00	 2.09547000E+01	 0.00000000E+00	 0.00000000E+00	 0.00000000E+00	 0.00000000E+00	 0.00000000E+00	 4.18180000E+00	 0.00000000E+00	 4.54360000E+00	 0.00000000E+00	 0.00000000E+00	 3.94325000E+00	 0.00000000E+00	 0.00000000E+00	 2.82731000E+01	 0.00000000E+00	 4.28350000E+01	 2.13982000E+01	 6.99357000E+01	 0.00000000E+00	 0.00000000E+00	 0.00000000E+00	 0.00000000E+00	 0.00000000E+00	 1.76366000E+01	 0.00000000E+00	 1.90602000E+01	 0.00000000E+00	 0.00000000E+00	 1.56080000E+01	 0.00000000E+00	 0.00000000E+00	 6.43852000E+01	 0.00000000E+00	 8.57037000E+01	 1.34402000E-04	 6.33770000E-04	 0.00000000E+00	 0.00000000E+00	 0.00000000E+00	 0.00000000E+00	 0.00000000E+00	 1.08323000E-04	 0.00000000E+00	 1.18054000E-04	 0.00000000E+00	 0.00000000E+00	 2.08463000E-04	 0.00000000E+00	 0.00000000E+00	 2.35076000E-03	 0.00000000E+00	 6.47905000E-03
					-1.56041000E-03	-2.88902000E-03	 4.44943000E-03	-7.88501000E-04	-1.00433000E-03	-1.07134000E-03	 5.17473000E+00	 2.09206000E+01	 0.00000000E+00	 0.00000000E+00	 0.00000000E+00	 0.00000000E+00	 0.00000000E+00	 4.11113000E+00	 0.00000000E+00	 4.50840000E+00	 0.00000000E+00	 0.00000000E+00	 4.02462000E+00	 0.00000000E+00	 0.00000000E+00	 2.84704000E+01	 0.00000000E+00	 4.28669000E+01	 2.15093000E+01	 6.98600000E+01	 0.00000000E+00	 0.00000000E+00	 0.00000000E+00	 0.00000000E+00	 0.00000000E+00	 1.73563000E+01	 0.00000000E+00	 1.89226000E+01	 0.00000000E+00	 0.00000000E+00	 1.58911000E+01	 0.00000000E+00	 0.00000000E+00	 6.46335000E+01	 0.00000000E+00	 8.57441000E+01	 1.35164000E-04	 6.32450000E-04	 0.00000000E+00	 0.00000000E+00	 0.00000000E+00	 0.00000000E+00	 0.00000000E+00	 1.06430000E-04	 0.00000000E+00	 1.17104000E-04	 0.00000000E+00	 0.00000000E+00	 2.13013000E-04	 0.00000000E+00	 0.00000000E+00	 2.37790000E-03	 0.00000000E+00	 6.49058000E-03
					-1.55378000E-03	-2.87833000E-03	 4.43211000E-03	-7.83621000E-04	-9.99529000E-04	-1.06907000E-03	 5.18860000E+00	 2.08414000E+01	 0.00000000E+00	 0.00000000E+00	 0.00000000E+00	 0.00000000E+00	 0.00000000E+00	 4.07647000E+00	 0.00000000E+00	 4.44443000E+00	 0.00000000E+00	 0.00000000E+00	 3.97843000E+00	 0.00000000E+00	 0.00000000E+00	 2.84379000E+01	 0.00000000E+00	 4.27977000E+01	 2.15591000E+01	 6.96574000E+01	 0.00000000E+00	 0.00000000E+00	 0.00000000E+00	 0.00000000E+00	 0.00000000E+00	 1.72179000E+01	 0.00000000E+00	 1.86697000E+01	 0.00000000E+00	 0.00000000E+00	 1.57275000E+01	 0.00000000E+00	 0.00000000E+00	 6.45919000E+01	 0.00000000E+00	 8.56391000E+01	 1.35556000E-04	 6.29670000E-04	 0.00000000E+00	 0.00000000E+00	 0.00000000E+00	 0.00000000E+00	 0.00000000E+00	 1.05506000E-04	 0.00000000E+00	 1.15388000E-04	 0.00000000E+00	 0.00000000E+00	 2.10451000E-04	 0.00000000E+00	 0.00000000E+00	 2.37522000E-03	 0.00000000E+00	 6.46165000E-03
					-1.56039000E-03	-2.88899000E-03	 4.44939000E-03	-7.88478000E-04	-1.00431000E-03	-1.07133000E-03	 5.17469000E+00	 2.09207000E+01	 0.00000000E+00	 0.00000000E+00	 0.00000000E+00	 0.00000000E+00	 0.00000000E+00	 4.11106000E+00	 0.00000000E+00	 4.50840000E+00	 0.00000000E+00	 0.00000000E+00	 4.02464000E+00	 0.00000000E+00	 0.00000000E+00	 2.84704000E+01	 0.00000000E+00	 4.28668000E+01	 2.15091000E+01	 6.98601000E+01	 0.00000000E+00	 0.00000000E+00	 0.00000000E+00	 0.00000000E+00	 0.00000000E+00	 1.73560000E+01	 0.00000000E+00	 1.89226000E+01	 0.00000000E+00	 0.00000000E+00	 1.58911000E+01	 0.00000000E+00	 0.00000000E+00	 6.46335000E+01	 0.00000000E+00	 8.57438000E+01	 1.35163000E-04	 6.32450000E-04	 0.00000000E+00	 0.00000000E+00	 0.00000000E+00	 0.00000000E+00	 0.00000000E+00	 1.06429000E-04	 0.00000000E+00	 1.17104000E-04	 0.00000000E+00	 0.00000000E+00	 2.13014000E-04	 0.00000000E+00	 0.00000000E+00	 2.37791000E-03	 0.00000000E+00	 6.49049000E-03
					-1.56186000E-03	-2.88889000E-03	 4.45075000E-03	-7.89619000E-04	-1.00325000E-03	-1.07015000E-03	 5.17846000E+00	 2.10016000E+01	 0.00000000E+00	 0.00000000E+00	 0.00000000E+00	 0.00000000E+00	 0.00000000E+00	 4.16698000E+00	 0.00000000E+00	 4.52291000E+00	 0.00000000E+00	 0.00000000E+00	 4.01481000E+00	 0.00000000E+00	 0.00000000E+00	 2.84529000E+01	 0.00000000E+00	 4.28871000E+01	 2.15251000E+01	 7.00639000E+01	 0.00000000E+00	 0.00000000E+00	 0.00000000E+00	 0.00000000E+00	 0.00000000E+00	 1.75782000E+01	 0.00000000E+00	 1.89820000E+01	 0.00000000E+00	 0.00000000E+00	 1.58600000E+01	 0.00000000E+00	 0.00000000E+00	 6.46160000E+01	 0.00000000E+00	 8.57627000E+01	 1.35259000E-04	 6.35337000E-04	 0.00000000E+00	 0.00000000E+00	 0.00000000E+00	 0.00000000E+00	 0.00000000E+00	 1.07925000E-04	 0.00000000E+00	 1.17485000E-04	 0.00000000E+00	 0.00000000E+00	 2.12443000E-04	 0.00000000E+00	 0.00000000E+00	 2.37398000E-03	 0.00000000E+00	 6.49298000E-03
					-1.55627000E-03	-2.87661000E-03	 4.43289000E-03	-7.92612000E-04	-9.96346000E-04	-1.06222000E-03	 5.15792000E+00	 2.10221000E+01	 0.00000000E+00	 0.00000000E+00	 0.00000000E+00	 0.00000000E+00	 0.00000000E+00	 4.23506000E+00	 0.00000000E+00	 4.54083000E+00	 0.00000000E+00	 0.00000000E+00	 3.88934000E+00	 0.00000000E+00	 0.00000000E+00	 2.82628000E+01	 0.00000000E+00	 4.28286000E+01	 2.14420000E+01	 7.00981000E+01	 0.00000000E+00	 0.00000000E+00	 0.00000000E+00	 0.00000000E+00	 0.00000000E+00	 1.78478000E+01	 0.00000000E+00	 1.90489000E+01	 0.00000000E+00	 0.00000000E+00	 1.54197000E+01	 0.00000000E+00	 0.00000000E+00	 6.43720000E+01	 0.00000000E+00	 8.56987000E+01	 1.34716000E-04	 6.36250000E-04	 0.00000000E+00	 0.00000000E+00	 0.00000000E+00	 0.00000000E+00	 0.00000000E+00	 1.09749000E-04	 0.00000000E+00	 1.17981000E-04	 0.00000000E+00	 0.00000000E+00	 2.05455000E-04	 0.00000000E+00	 0.00000000E+00	 2.34944000E-03	 0.00000000E+00	 6.47806000E-03
					-1.56287000E-03	-2.88857000E-03	 4.45144000E-03	-7.90825000E-04	-1.00126000E-03	-1.06918000E-03	 5.19371000E+00	 2.10813000E+01	 0.00000000E+00	 0.00000000E+00	 0.00000000E+00	 0.00000000E+00	 0.00000000E+00	 4.23024000E+00	 0.00000000E+00	 4.51770000E+00	 0.00000000E+00	 0.00000000E+00	 3.97494000E+00	 0.00000000E+00	 0.00000000E+00	 2.84374000E+01	 0.00000000E+00	 4.29001000E+01	 2.15851000E+01	 7.02606000E+01	 0.00000000E+00	 0.00000000E+00	 0.00000000E+00	 0.00000000E+00	 0.00000000E+00	 1.78293000E+01	 0.00000000E+00	 1.89632000E+01	 0.00000000E+00	 0.00000000E+00	 1.57242000E+01	 0.00000000E+00	 0.00000000E+00	 6.45960000E+01	 0.00000000E+00	 8.57675000E+01	 1.35670000E-04	 6.38205000E-04	 0.00000000E+00	 0.00000000E+00	 0.00000000E+00	 0.00000000E+00	 0.00000000E+00	 1.09618000E-04	 0.00000000E+00	 1.17339000E-04	 0.00000000E+00	 0.00000000E+00	 2.10194000E-04	 0.00000000E+00	 0.00000000E+00	 2.37052000E-03	 0.00000000E+00	 6.49469000E-03
					-1.56188000E-03	-2.88891000E-03	 4.45078000E-03	-7.89645000E-04	-1.00326000E-03	-1.07015000E-03	 5.17850000E+00	 2.10016000E+01	 0.00000000E+00	 0.00000000E+00	 0.00000000E+00	 0.00000000E+00	 0.00000000E+00	 4.16707000E+00	 0.00000000E+00	 4.52290000E+00	 0.00000000E+00	 0.00000000E+00	 4.01477000E+00	 0.00000000E+00	 0.00000000E+00	 2.84527000E+01	 0.00000000E+00	 4.28872000E+01	 2.15253000E+01	 7.00638000E+01	 0.00000000E+00	 0.00000000E+00	 0.00000000E+00	 0.00000000E+00	 0.00000000E+00	 1.75786000E+01	 0.00000000E+00	 1.89820000E+01	 0.00000000E+00	 0.00000000E+00	 1.58598000E+01	 0.00000000E+00	 0.00000000E+00	 6.46158000E+01	 0.00000000E+00	 8.57630000E+01	 1.35260000E-04	 6.35336000E-04	 0.00000000E+00	 0.00000000E+00	 0.00000000E+00	 0.00000000E+00	 0.00000000E+00	 1.07927000E-04	 0.00000000E+00	 1.17485000E-04	 0.00000000E+00	 0.00000000E+00	 2.12441000E-04	 0.00000000E+00	 0.00000000E+00	 2.37395000E-03	 0.00000000E+00	 6.49307000E-03
					-1.55627000E-03	-2.87662000E-03	 4.43289000E-03	-7.92601000E-04	-9.96345000E-04	-1.06223000E-03	 5.15790000E+00	 2.10221000E+01	 0.00000000E+00	 0.00000000E+00	 0.00000000E+00	 0.00000000E+00	 0.00000000E+00	 4.23502000E+00	 0.00000000E+00	 4.54081000E+00	 0.00000000E+00	 0.00000000E+00	 3.88934000E+00	 0.00000000E+00	 0.00000000E+00	 2.82630000E+01	 0.00000000E+00	 4.28286000E+01	 2.14420000E+01	 7.00981000E+01	 0.00000000E+00	 0.00000000E+00	 0.00000000E+00	 0.00000000E+00	 0.00000000E+00	 1.78476000E+01	 0.00000000E+00	 1.90488000E+01	 0.00000000E+00	 0.00000000E+00	 1.54197000E+01	 0.00000000E+00	 0.00000000E+00	 6.43722000E+01	 0.00000000E+00	 8.56987000E+01	 1.34715000E-04	 6.36251000E-04	 0.00000000E+00	 0.00000000E+00	 0.00000000E+00	 0.00000000E+00	 0.00000000E+00	 1.09748000E-04	 0.00000000E+00	 1.17981000E-04	 0.00000000E+00	 0.00000000E+00	 2.05455000E-04	 0.00000000E+00	 0.00000000E+00	 2.34947000E-03	 0.00000000E+00	 6.47804000E-03
					-1.55379000E-03	-2.87835000E-03	 4.43214000E-03	-7.83636000E-04	-9.99539000E-04	-1.06908000E-03	 5.18864000E+00	 2.08414000E+01	 0.00000000E+00	 0.00000000E+00	 0.00000000E+00	 0.00000000E+00	 0.00000000E+00	 4.07645000E+00	 0.00000000E+00	 4.44442000E+00	 0.00000000E+00	 0.00000000E+00	 3.97843000E+00	 0.00000000E+00	 0.00000000E+00	 2.84380000E+01	 0.00000000E+00	 4.27978000E+01	 2.15593000E+01	 6.96572000E+01	 0.00000000E+00	 0.00000000E+00	 0.00000000E+00	 0.00000000E+00	 0.00000000E+00	 1.72178000E+01	 0.00000000E+00	 1.86697000E+01	 0.00000000E+00	 0.00000000E+00	 1.57275000E+01	 0.00000000E+00	 0.00000000E+00	 6.45919000E+01	 0.00000000E+00	 8.56394000E+01	 1.35557000E-04	 6.29667000E-04	 0.00000000E+00	 0.00000000E+00	 0.00000000E+00	 0.00000000E+00	 0.00000000E+00	 1.05505000E-04	 0.00000000E+00	 1.15388000E-04	 0.00000000E+00	 0.00000000E+00	 2.10451000E-04	 0.00000000E+00	 0.00000000E+00	 2.37523000E-03	 0.00000000E+00	 6.46172000E-03
					-1.54695000E-03	-2.86588000E-03	 4.41283000E-03	-7.78863000E-04	-9.94010000E-04	-1.06525000E-03	 5.18399000E+00	 2.07858000E+01	 0.00000000E+00	 0.00000000E+00	 0.00000000E+00	 0.00000000E+00	 0.00000000E+00	 4.06677000E+00	 0.00000000E+00	 4.40034000E+00	 0.00000000E+00	 0.00000000E+00	 3.93659000E+00	 0.00000000E+00	 0.00000000E+00	 2.83751000E+01	 0.00000000E+00	 4.27179000E+01	 2.15375000E+01	 6.95066000E+01	 0.00000000E+00	 0.00000000E+00	 0.00000000E+00	 0.00000000E+00	 0.00000000E+00	 1.71770000E+01	 0.00000000E+00	 1.84952000E+01	 0.00000000E+00	 0.00000000E+00	 1.55789000E+01	 0.00000000E+00	 0.00000000E+00	 6.45067000E+01	 0.00000000E+00	 8.55143000E+01	 1.35445000E-04	 6.27796000E-04	 0.00000000E+00	 0.00000000E+00	 0.00000000E+00	 0.00000000E+00	 0.00000000E+00	 1.05255000E-04	 0.00000000E+00	 1.14206000E-04	 0.00000000E+00	 0.00000000E+00	 2.08134000E-04	 0.00000000E+00	 0.00000000E+00	 2.36854000E-03	 0.00000000E+00	 6.43043000E-03
					-1.55596000E-03	-2.87713000E-03	 4.43309000E-03	-7.92429000E-04	-9.98713000E-04	-1.06293000E-03	 5.14645000E+00	 2.09547000E+01	 0.00000000E+00	 0.00000000E+00	 0.00000000E+00	 0.00000000E+00	 0.00000000E+00	 4.18184000E+00	 0.00000000E+00	 4.54356000E+00	 0.00000000E+00	 0.00000000E+00	 3.94322000E+00	 0.00000000E+00	 0.00000000E+00	 2.82732000E+01	 0.00000000E+00	 4.28349000E+01	 2.13983000E+01	 6.99358000E+01	 0.00000000E+00	 0.00000000E+00	 0.00000000E+00	 0.00000000E+00	 0.00000000E+00	 1.76367000E+01	 0.00000000E+00	 1.90600000E+01	 0.00000000E+00	 0.00000000E+00	 1.56079000E+01	 0.00000000E+00	 0.00000000E+00	 6.43852000E+01	 0.00000000E+00	 8.57037000E+01	 1.34402000E-04	 6.33772000E-04	 0.00000000E+00	 0.00000000E+00	 0.00000000E+00	 0.00000000E+00	 0.00000000E+00	 1.08324000E-04	 0.00000000E+00	 1.18053000E-04	 0.00000000E+00	 0.00000000E+00	 2.08462000E-04	 0.00000000E+00	 0.00000000E+00	 2.35076000E-03	 0.00000000E+00	 6.47904000E-03
					-1.55592000E-03	-2.87841000E-03	 4.43433000E-03	-7.85796000E-04	-9.98863000E-04	-1.06765000E-03	 5.19611000E+00	 2.09331000E+01	 0.00000000E+00	 0.00000000E+00	 0.00000000E+00	 0.00000000E+00	 0.00000000E+00	 4.14250000E+00	 0.00000000E+00	 4.45478000E+00	 0.00000000E+00	 0.00000000E+00	 3.98330000E+00	 0.00000000E+00	 0.00000000E+00	 2.84157000E+01	 0.00000000E+00	 4.28384000E+01	 2.15913000E+01	 6.98938000E+01	 0.00000000E+00	 0.00000000E+00	 0.00000000E+00	 0.00000000E+00	 0.00000000E+00	 1.74807000E+01	 0.00000000E+00	 1.87150000E+01	 0.00000000E+00	 0.00000000E+00	 1.57502000E+01	 0.00000000E+00	 0.00000000E+00	 6.45682000E+01	 0.00000000E+00	 8.56683000E+01	 1.35747000E-04	 6.32872000E-04	 0.00000000E+00	 0.00000000E+00	 0.00000000E+00	 0.00000000E+00	 0.00000000E+00	 1.07271000E-04	 0.00000000E+00	 1.15649000E-04	 0.00000000E+00	 0.00000000E+00	 2.10684000E-04	 0.00000000E+00	 0.00000000E+00	 2.36918000E-03	 0.00000000E+00	 6.46681000E-03
					-1.54878000E-03	-2.86644000E-03	 4.41522000E-03	-7.80850000E-04	-9.95717000E-04	-1.06453000E-03	 5.17976000E+00	 2.08093000E+01	 0.00000000E+00	 0.00000000E+00	 0.00000000E+00	 0.00000000E+00	 0.00000000E+00	 4.08115000E+00	 0.00000000E+00	 4.41239000E+00	 0.00000000E+00	 0.00000000E+00	 3.99685000E+00	 0.00000000E+00	 0.00000000E+00	 2.83634000E+01	 0.00000000E+00	 4.27662000E+01	 2.15250000E+01	 6.95795000E+01	 0.00000000E+00	 0.00000000E+00	 0.00000000E+00	 0.00000000E+00	 0.00000000E+00	 1.72344000E+01	 0.00000000E+00	 1.85478000E+01	 0.00000000E+00	 0.00000000E+00	 1.57939000E+01	 0.00000000E+00	 0.00000000E+00	 6.44968000E+01	 0.00000000E+00	 8.55487000E+01	 1.35315000E-04	 6.28489000E-04	 0.00000000E+00	 0.00000000E+00	 0.00000000E+00	 0.00000000E+00	 0.00000000E+00	 1.05639000E-04	 0.00000000E+00	 1.14510000E-04	 0.00000000E+00	 0.00000000E+00	 2.11466000E-04	 0.00000000E+00	 0.00000000E+00	 2.36378000E-03	 0.00000000E+00	 6.43649000E-03
					-1.54810000E-03	-2.86627000E-03	 4.41438000E-03	-7.79838000E-04	-9.95313000E-04	-1.06478000E-03	 5.17622000E+00	 2.07985000E+01	 0.00000000E+00	 0.00000000E+00	 0.00000000E+00	 0.00000000E+00	 0.00000000E+00	 4.07085000E+00	 0.00000000E+00	 4.41614000E+00	 0.00000000E+00	 0.00000000E+00	 3.98147000E+00	 0.00000000E+00	 0.00000000E+00	 2.83681000E+01	 0.00000000E+00	 4.27458000E+01	 2.15096000E+01	 6.95469000E+01	 0.00000000E+00	 0.00000000E+00	 0.00000000E+00	 0.00000000E+00	 0.00000000E+00	 1.71931000E+01	 0.00000000E+00	 1.85605000E+01	 0.00000000E+00	 0.00000000E+00	 1.57381000E+01	 0.00000000E+00	 0.00000000E+00	 6.45028000E+01	 0.00000000E+00	 8.55387000E+01	 1.35226000E-04	 6.28165000E-04	 0.00000000E+00	 0.00000000E+00	 0.00000000E+00	 0.00000000E+00	 0.00000000E+00	 1.05365000E-04	 0.00000000E+00	 1.14619000E-04	 0.00000000E+00	 0.00000000E+00	 2.10622000E-04	 0.00000000E+00	 0.00000000E+00	 2.36590000E-03	 0.00000000E+00	 6.43389000E-03
				</DataArray>
			</PointData>
		</Piece>
	</UnstructuredGrid>
</VTKFile>