# vtk DataFile Version 3.0

ASCII
DATASET UNSTRUCTURED_GRID

POINTS 20 double
	 1.00000000E+00	 0.00000000E+00	 0.00000000E+00
	 5.00000000E-01	 0.00000000E+00	 0.00000000E+00
	 7.50000000E-01	 0.00000000E+00	 0.00000000E+00
	 1.00000000E+00	 2.50000000E-01	 0.00000000E+00
	 1.00000000E+00	 5.00000000E-01	 0.00000000E+00
	 1.00000000E+00	 0.00000000E+00	 5.00000000E-01
	 1.00000000E+00	 0.00000000E+00	 1.00000000E+00
	 5.00000000E-01	 2.50000000E-01	 0.00000000E+00
	 5.00000000E-01	 5.00000000E-01	 0.00000000E+00
	 7.50000000E-01	 5.00000000E-01	 0.00000000E+00
	 5.00000000E-01	 0.00000000E+00	 5.00000000E-01
	 5.00000000E-01	 0.00000000E+00	 1.00000000E+00
	 7.50000000E-01	 0.00000000E+00	 1.00000000E+00
	 1.00000000E+00	 5.00000000E-01	 5.00000000E-01
	 1.00000000E+00	 2.50000000E-01	 1.00000000E+00
	 1.00000000E+00	 5.00000000E-01	 1.00000000E+00
	 5.00000000E-01	 5.00000000E-01	 5.00000000E-01
	 5.00000000E-01	 2.50000000E-01	 1.00000000E+00
	 5.00000000E-01	 5.00000000E-01	 1.00000000E+00
	 7.50000000E-01	 5.00000000E-01	 1.00000000E+00

CELLS 1 21
	20 1 0 4 8 11 6 15 18 2 3 9 7 12 14 19 17 10 5 13 16 

CELL_TYPES 1
	25

POINT_DATA 20
FIELD U 1
	U 3 20 double
		 0.00000000E+00	 0.00000000E+00	 0.00000000E+00
		 3.42657000E-04	 0.00000000E+00	 0.00000000E+00
		 1.71503000E-04	-5.54650000E-07	 0.00000000E+00
		 1.00990000E-04	 4.82272000E-05	 0.00000000E+00
		 2.02488000E-04	 9.63200000E-05	 0.00000000E+00
		 5.01979000E-04	 6.41576000E-04	 8.50076000E-04
		 1.00560000E-03	 1.28303000E-03	 1.70250000E-03
		 4.45968000E-04	 4.91499000E-05	 0.00000000E+00
		 5.49755000E-04	 9.78845000E-05	 0.00000000E+00
		 3.76506000E-04	 9.64493000E-05	 0.00000000E+00
		 8.47210000E-04	 6.41472000E-04	 8.45484000E-04
		 1.35287000E-03	 1.28459000E-03	 1.70250000E-03
		 1.17885000E-03	 1.28446000E-03	 1.70250000E-03
		 7.08147000E-04	 7.39438000E-04	 8.57016000E-04
		 1.10939000E-03	 1.33176000E-03	 1.70250000E-03
		 1.21270000E-03	 1.38091000E-03	 1.70250000E-03
		 1.05338000E-03	 7.39334000E-04	 8.52424000E-04
		 1.45437000E-03	 1.33268000E-03	 1.70250000E-03
		 1.55536000E-03	 1.38091000E-03	 1.70250000E-03
		 1.38385000E-03	 1.38147000E-03	 1.70250000E-03
FIELD S 1
	S 10 20 double
		-3.06260000E-01	-1.24719000E-01	 3.30483000E+02	-5.74596000E-02	-2.62817000E-01	-8.56965000E-01	 3.30702186E+02	-3.25346245E-01	-1.08061539E-01	 3.30485429E+02
		-3.15537000E-01	-1.79832000E-01	 3.27439000E+02	-1.78011000E-03	-1.17304000E-01	 7.87533000E-02	 3.27686797E+02	-3.15578540E-01	-1.79851384E-01	 3.27439061E+02
		-3.79900000E-01	-1.17772000E-01	 3.28972000E+02	-1.12848000E-03	-1.23881000E-01	-4.91650000E-01	 3.29222086E+02	-3.80640487E-01	-1.17812068E-01	 3.28972781E+02
		-1.46948000E-01	-1.73730000E-01	 3.32568000E+02	-9.45578000E-02	-4.58159000E-01	-6.43492000E-01	 3.32731193E+02	-2.57612710E-01	-6.49401791E-02	 3.32569875E+02
		-5.68444000E-02	-1.33865000E-01	 3.34591000E+02	-5.92223000E-02	-6.10942000E-01	-5.80721000E-01	 3.34689561E+02	-1.67977921E-01	-2.48539228E-02	 3.34593122E+02
		 1.24478000E-01	 1.02523000E-01	 3.30892000E+02	 1.66442000E-02	 1.35404000E-01	 5.71722000E-02	 3.30778599E+02	 9.35365428E-02	 1.33399147E-01	 3.30892065E+02
		-1.25520000E-01	-1.55070000E-01	 3.31869000E+02	-6.04889000E-02	-5.16508000E-01	-4.38811000E-01	 3.32011388E+02	-2.03943424E-01	-7.80298138E-02	 3.31870383E+02
		-1.87202000E-01	-2.13683000E-01	 3.29689000E+02	-6.83109000E-02	-3.38789000E-01	-1.06246000E-01	 3.29890038E+02	-2.70352850E-01	-1.30914239E-01	 3.29689382E+02
		-1.25520000E-01	-1.55070000E-01	 3.31869000E+02	-6.04889000E-02	-5.16508000E-01	-4.38811000E-01	 3.32011388E+02	-2.03943424E-01	-7.80298138E-02	 3.31870383E+02
		-1.58396000E-01	-1.09604000E-01	 3.33239000E+02	-3.10510000E-02	-4.97492000E-01	-6.09849000E-01	 3.33375794E+02	-1.75250187E-01	-9.46076273E-02	 3.33240858E+02
		 1.44767000E-01	 6.70072000E-02	 3.30759000E+02	 4.41854000E-02	 1.52164000E-01	 4.45680000E-01	 3.30654135E+02	 4.70252337E-02	 1.64078103E-01	 3.30759671E+02
		-5.68444000E-02	-1.33865000E-01	 3.34591000E+02	-5.92223000E-02	-6.10942000E-01	-5.80721000E-01	 3.34689561E+02	-1.67977921E-01	-2.48539228E-02	 3.34593122E+02
		-1.58396000E-01	-1.09604000E-01	 3.33239000E+02	-3.10510000E-02	-4.97492000E-01	-6.09849000E-01	 3.33375794E+02	-1.75250187E-01	-9.46076273E-02	 3.33240858E+02
		 1.44767000E-01	 6.70072000E-02	 3.30759000E+02	 4.41854000E-02	 1.52164000E-01	 4.45680000E-01	 3.30654135E+02	 4.70252337E-02	 1.64078103E-01	 3.30759671E+02
		-1.87202000E-01	-2.13683000E-01	 3.29689000E+02	-6.83108000E-02	-3.38789000E-01	-1.06246000E-01	 3.29890038E+02	-2.70352752E-01	-1.30914337E-01	 3.29689382E+02
		-3.15537000E-01	-1.79832000E-01	 3.27439000E+02	-1.78004000E-03	-1.17304000E-01	 7.87533000E-02	 3.27686797E+02	-3.15578538E-01	-1.79851386E-01	 3.27439061E+02
		 1.24478000E-01	 1.02523000E-01	 3.30892000E+02	 1.66441000E-02	 1.35404000E-01	 5.71722000E-02	 3.30778599E+02	 9.35366262E-02	 1.33399064E-01	 3.30892065E+02
		-1.46948000E-01	-1.73730000E-01	 3.32568000E+02	-9.45578000E-02	-4.58159000E-01	-6.43492000E-01	 3.32731193E+02	-2.57612710E-01	-6.49401791E-02	 3.32569875E+02
		-3.06260000E-01	-1.24719000E-01	 3.30483000E+02	-5.74596000E-02	-2.62817000E-01	-8.56965000E-01	 3.30702186E+02	-3.25346245E-01	-1.08061539E-01	 3.30485429E+02
		-3.79900000E-01	-1.17772000E-01	 3.28972000E+02	-1.12845000E-03	-1.23881000E-01	-4.91650000E-01	 3.29222086E+02	-3.80640487E-01	-1.17812068E-01	 3.28972781E+02
FIELD SDV 1
	SDV 60 20 double
		-3.87650000E-05	-7.63852000E-05	 1.15150000E-04	-2.04953000E-05	-2.60633000E-05	-2.88953000E-05	 3.19768000E-02	 7.03868000E-01	 0.00000000E+00	 0.00000000E+00	 0.00000000E+00	 0.00000000E+00	 0.00000000E+00	 1.58832000E-02	 0.00000000E+00	 2.24920000E-02	 0.00000000E+00	 0.00000000E+00	 6.12778000E-02	 0.00000000E+00	 0.00000000E+00	 1.23485000E+00	 0.00000000E+00	 3.22494000E+00	 1.43787000E-01	 3.11594000E+00	 0.00000000E+00	 0.00000000E+00	 0.00000000E+00	 0.00000000E+00	 0.00000000E+00	 7.14475000E-02	 0.00000000E+00	 1.01160000E-01	 0.00000000E+00	 0.00000000E+00	 2.74914000E-01	 0.00000000E+00	 0.00000000E+00	 5.24027000E+00	 0.00000000E+00	 1.25946000E+01	 7.99738000E-07	 1.77512000E-05	 0.00000000E+00	 0.00000000E+00	 0.00000000E+00	 0.00000000E+00	 0.00000000E+00	 3.97157000E-07	 0.00000000E+00	 5.62458000E-07	 0.00000000E+00	 0.00000000E+00	 3.06762000E-06	 0.00000000E+00	 0.00000000E+00	 6.32847000E-05	 0.00000000E+00	 1.71948000E-04
		-3.62209000E-05	-7.14416000E-05	 1.07662000E-04	-1.93024000E-05	-2.41815000E-05	-2.69564000E-05	 2.83108000E-02	 6.68468000E-01	 0.00000000E+00	 0.00000000E+00	 0.00000000E+00	 0.00000000E+00	 0.00000000E+00	 1.52021000E-02	 0.00000000E+00	 1.89967000E-02	 0.00000000E+00	 0.00000000E+00	 4.89525000E-02	 0.00000000E+00	 0.00000000E+00	 1.15073000E+00	 0.00000000E+00	 3.03292000E+00	 1.27313000E-01	 2.96163000E+00	 0.00000000E+00	 0.00000000E+00	 0.00000000E+00	 0.00000000E+00	 0.00000000E+00	 6.83851000E-02	 0.00000000E+00	 8.54467000E-02	 0.00000000E+00	 0.00000000E+00	 2.19745000E-01	 0.00000000E+00	 0.00000000E+00	 4.90158000E+00	 0.00000000E+00	 1.19341000E+01	 7.08021000E-07	 1.68510000E-05	 0.00000000E+00	 0.00000000E+00	 0.00000000E+00	 0.00000000E+00	 0.00000000E+00	 3.80124000E-07	 0.00000000E+00	 4.75030000E-07	 0.00000000E+00	 0.00000000E+00	 2.45004000E-06	 0.00000000E+00	 0.00000000E+00	 5.88762000E-05	 0.00000000E+00	 1.61092000E-04
		-3.74866000E-05	-7.38778000E-05	 1.11364000E-04	-1.99011000E-05	-2.51265000E-05	-2.79045000E-05	 3.00240000E-02	 6.86024000E-01	 0.00000000E+00	 0.00000000E+00	 0.00000000E+00	 0.00000000E+00	 0.00000000E+00	 1.54211000E-02	 0.00000000E+00	 2.09754000E-02	 0.00000000E+00	 0.00000000E+00	 5.56954000E-02	 0.00000000E+00	 0.00000000E+00	 1.19147000E+00	 0.00000000E+00	 3.12826000E+00	 1.35011000E-01	 3.03817000E+00	 0.00000000E+00	 0.00000000E+00	 0.00000000E+00	 0.00000000E+00	 0.00000000E+00	 6.93699000E-02	 0.00000000E+00	 9.43423000E-02	 0.00000000E+00	 0.00000000E+00	 2.49933000E-01	 0.00000000E+00	 0.00000000E+00	 5.06577000E+00	 0.00000000E+00	 1.22627000E+01	 7.50881000E-07	 1.72974000E-05	 0.00000000E+00	 0.00000000E+00	 0.00000000E+00	 0.00000000E+00	 0.00000000E+00	 3.85601000E-07	 0.00000000E+00	 5.24522000E-07	 0.00000000E+00	 0.00000000E+00	 2.78788000E-06	 0.00000000E+00	 0.00000000E+00	 6.10102000E-05	 0.00000000E+00	 1.66476000E-04
		-4.03573000E-05	-7.93946000E-05	 1.19752000E-04	-2.10248000E-05	-2.70150000E-05	-3.01101000E-05	 3.51091000E-02	 7.37609000E-01	 0.00000000E+00	 0.00000000E+00	 0.00000000E+00	 0.00000000E+00	 0.00000000E+00	 1.77688000E-02	 0.00000000E+00	 2.39048000E-02	 0.00000000E+00	 0.00000000E+00	 6.45522000E-02	 0.00000000E+00	 0.00000000E+00	 1.29237000E+00	 0.00000000E+00	 3.33405000E+00	 1.57859000E-01	 3.26272000E+00	 0.00000000E+00	 0.00000000E+00	 0.00000000E+00	 0.00000000E+00	 0.00000000E+00	 7.99258000E-02	 0.00000000E+00	 1.07511000E-01	 0.00000000E+00	 0.00000000E+00	 2.89559000E-01	 0.00000000E+00	 0.00000000E+00	 5.47003000E+00	 0.00000000E+00	 1.29650000E+01	 8.78111000E-07	 1.86102000E-05	 0.00000000E+00	 0.00000000E+00	 0.00000000E+00	 0.00000000E+00	 0.00000000E+00	 4.44319000E-07	 0.00000000E+00	 5.97798000E-07	 0.00000000E+00	 0.00000000E+00	 3.23175000E-06	 0.00000000E+00	 0.00000000E+00	 6.63093000E-05	 0.00000000E+00	 1.78159000E-04
		-4.19595000E-05	-8.23905000E-05	 1.24350000E-04	-2.15098000E-05	-2.79817000E-05	-3.13281000E-05	 3.81862000E-02	 7.71611000E-01	 0.00000000E+00	 0.00000000E+00	 0.00000000E+00	 0.00000000E+00	 0.00000000E+00	 1.94475000E-02	 0.00000000E+00	 2.56560000E-02	 0.00000000E+00	 0.00000000E+00	 6.90619000E-02	 0.00000000E+00	 0.00000000E+00	 1.35081000E+00	 0.00000000E+00	 3.44126000E+00	 1.71683000E-01	 3.41052000E+00	 0.00000000E+00	 0.00000000E+00	 0.00000000E+00	 0.00000000E+00	 0.00000000E+00	 8.74735000E-02	 0.00000000E+00	 1.15382000E-01	 0.00000000E+00	 0.00000000E+00	 3.09728000E-01	 0.00000000E+00	 0.00000000E+00	 5.70303000E+00	 0.00000000E+00	 1.33280000E+01	 9.55107000E-07	 1.94761000E-05	 0.00000000E+00	 0.00000000E+00	 0.00000000E+00	 0.00000000E+00	 0.00000000E+00	 4.86307000E-07	 0.00000000E+00	 6.41606000E-07	 0.00000000E+00	 0.00000000E+00	 3.45779000E-06	 0.00000000E+00	 0.00000000E+00	 6.93845000E-05	 0.00000000E+00	 1.84272000E-04
		-3.84690000E-05	-7.55496000E-05	 1.14019000E-04	-2.01556000E-05	-2.55409000E-05	-2.85330000E-05	 3.16204000E-02	 7.17722000E-01	 0.00000000E+00	 0.00000000E+00	 0.00000000E+00	 0.00000000E+00	 0.00000000E+00	 1.78193000E-02	 0.00000000E+00	 2.25053000E-02	 0.00000000E+00	 0.00000000E+00	 5.54278000E-02	 0.00000000E+00	 0.00000000E+00	 1.22212000E+00	 0.00000000E+00	 3.18870000E+00	 1.42185000E-01	 3.17617000E+00	 0.00000000E+00	 0.00000000E+00	 0.00000000E+00	 0.00000000E+00	 0.00000000E+00	 8.01528000E-02	 0.00000000E+00	 1.01220000E-01	 0.00000000E+00	 0.00000000E+00	 2.48734000E-01	 0.00000000E+00	 0.00000000E+00	 5.18866000E+00	 0.00000000E+00	 1.24687000E+01	 7.90823000E-07	 1.81040000E-05	 0.00000000E+00	 0.00000000E+00	 0.00000000E+00	 0.00000000E+00	 0.00000000E+00	 4.45581000E-07	 0.00000000E+00	 5.62791000E-07	 0.00000000E+00	 0.00000000E+00	 2.77448000E-06	 0.00000000E+00	 0.00000000E+00	 6.26191000E-05	 0.00000000E+00	 1.69910000E-04
		-3.97517000E-05	-7.82513000E-05	 1.18003000E-04	-2.07040000E-05	-2.65697000E-05	-2.96824000E-05	 3.42601000E-02	 7.28816000E-01	 0.00000000E+00	 0.00000000E+00	 0.00000000E+00	 0.00000000E+00	 0.00000000E+00	 1.74797000E-02	 0.00000000E+00	 2.28283000E-02	 0.00000000E+00	 0.00000000E+00	 6.14900000E-02	 0.00000000E+00	 0.00000000E+00	 1.27514000E+00	 0.00000000E+00	 3.28824000E+00	 1.54046000E-01	 3.22453000E+00	 0.00000000E+00	 0.00000000E+00	 0.00000000E+00	 0.00000000E+00	 0.00000000E+00	 7.86262000E-02	 0.00000000E+00	 1.02672000E-01	 0.00000000E+00	 0.00000000E+00	 2.75866000E-01	 0.00000000E+00	 0.00000000E+00	 5.40155000E+00	 0.00000000E+00	 1.28102000E+01	 8.56867000E-07	 1.83861000E-05	 0.00000000E+00	 0.00000000E+00	 0.00000000E+00	 0.00000000E+00	 0.00000000E+00	 4.37088000E-07	 0.00000000E+00	 5.70869000E-07	 0.00000000E+00	 0.00000000E+00	 3.07824000E-06	 0.00000000E+00	 0.00000000E+00	 6.54013000E-05	 0.00000000E+00	 1.75545000E-04
		-3.79793000E-05	-7.48484000E-05	 1.12828000E-04	-2.00229000E-05	-2.53636000E-05	-2.83157000E-05	 3.13105000E-02	 6.98629000E-01	 0.00000000E+00	 0.00000000E+00	 0.00000000E+00	 0.00000000E+00	 0.00000000E+00	 1.64745000E-02	 0.00000000E+00	 2.07360000E-02	 0.00000000E+00	 0.00000000E+00	 5.45187000E-02	 0.00000000E+00	 0.00000000E+00	 1.21244000E+00	 0.00000000E+00	 3.16138000E+00	 1.40792000E-01	 3.09306000E+00	 0.00000000E+00	 0.00000000E+00	 0.00000000E+00	 0.00000000E+00	 0.00000000E+00	 7.41062000E-02	 0.00000000E+00	 9.32663000E-02	 0.00000000E+00	 0.00000000E+00	 2.44666000E-01	 0.00000000E+00	 0.00000000E+00	 5.14989000E+00	 0.00000000E+00	 1.23761000E+01	 7.83069000E-07	 1.76181000E-05	 0.00000000E+00	 0.00000000E+00	 0.00000000E+00	 0.00000000E+00	 0.00000000E+00	 4.11946000E-07	 0.00000000E+00	 5.18535000E-07	 0.00000000E+00	 0.00000000E+00	 2.72892000E-06	 0.00000000E+00	 0.00000000E+00	 6.21111000E-05	 0.00000000E+00	 1.68354000E-04
		-3.97517000E-05	-7.82513000E-05	 1.18003000E-04	-2.07040000E-05	-2.65697000E-05	-2.96824000E-05	 3.42601000E-02	 7.28816000E-01	 0.00000000E+00	 0.00000000E+00	 0.00000000E+00	 0.00000000E+00	 0.00000000E+00	 1.74797000E-02	 0.00000000E+00	 2.28283000E-02	 0.00000000E+00	 0.00000000E+00	 6.14900000E-02	 0.00000000E+00	 0.00000000E+00	 1.27514000E+00	 0.00000000E+00	 3.28824000E+00	 1.54046000E-01	 3.22453000E+00	 0.00000000E+00	 0.00000000E+00	 0.00000000E+00	 0.00000000E+00	 0.00000000E+00	 7.86262000E-02	 0.00000000E+00	 1.02672000E-01	 0.00000000E+00	 0.00000000E+00	 2.75866000E-01	 0.00000000E+00	 0.00000000E+00	 5.40155000E+00	 0.00000000E+00	 1.28102000E+01	 8.56867000E-07	 1.83861000E-05	 0.00000000E+00	 0.00000000E+00	 0.00000000E+00	 0.00000000E+00	 0.00000000E+00	 4.37088000E-07	 0.00000000E+00	 5.70869000E-07	 0.00000000E+00	 0.00000000E+00	 3.07824000E-06	 0.00000000E+00	 0.00000000E+00	 6.54013000E-05	 0.00000000E+00	 1.75545000E-04
		-4.08526000E-05	-8.02867000E-05	 1.21139000E-04	-2.11099000E-05	-2.72865000E-05	-3.04840000E-05	 3.60851000E-02	 7.49985000E-01	 0.00000000E+00	 0.00000000E+00	 0.00000000E+00	 0.00000000E+00	 0.00000000E+00	 1.83109000E-02	 0.00000000E+00	 2.45237000E-02	 0.00000000E+00	 0.00000000E+00	 6.61070000E-02	 0.00000000E+00	 0.00000000E+00	 1.31161000E+00	 0.00000000E+00	 3.36414000E+00	 1.62245000E-01	 3.31656000E+00	 0.00000000E+00	 0.00000000E+00	 0.00000000E+00	 0.00000000E+00	 0.00000000E+00	 8.23634000E-02	 0.00000000E+00	 1.10293000E-01	 0.00000000E+00	 0.00000000E+00	 2.96514000E-01	 0.00000000E+00	 0.00000000E+00	 5.54695000E+00	 0.00000000E+00	 1.30673000E+01	 9.02532000E-07	 1.89252000E-05	 0.00000000E+00	 0.00000000E+00	 0.00000000E+00	 0.00000000E+00	 0.00000000E+00	 4.57878000E-07	 0.00000000E+00	 6.13280000E-07	 0.00000000E+00	 0.00000000E+00	 3.30967000E-06	 0.00000000E+00	 0.00000000E+00	 6.73203000E-05	 0.00000000E+00	 1.79871000E-04
		-3.82710000E-05	-7.51037000E-05	 1.13375000E-04	-1.99608000E-05	-2.52891000E-05	-2.83674000E-05	 3.15529000E-02	 7.20782000E-01	 0.00000000E+00	 0.00000000E+00	 0.00000000E+00	 0.00000000E+00	 0.00000000E+00	 1.84229000E-02	 0.00000000E+00	 2.20244000E-02	 0.00000000E+00	 0.00000000E+00	 5.27604000E-02	 0.00000000E+00	 0.00000000E+00	 1.21706000E+00	 0.00000000E+00	 3.16855000E+00	 1.41881000E-01	 3.18948000E+00	 0.00000000E+00	 0.00000000E+00	 0.00000000E+00	 0.00000000E+00	 0.00000000E+00	 8.28669000E-02	 0.00000000E+00	 9.90578000E-02	 0.00000000E+00	 0.00000000E+00	 2.36795000E-01	 0.00000000E+00	 0.00000000E+00	 5.16839000E+00	 0.00000000E+00	 1.23999000E+01	 7.89134000E-07	 1.81819000E-05	 0.00000000E+00	 0.00000000E+00	 0.00000000E+00	 0.00000000E+00	 0.00000000E+00	 4.60680000E-07	 0.00000000E+00	 5.50762000E-07	 0.00000000E+00	 0.00000000E+00	 2.64082000E-06	 0.00000000E+00	 0.00000000E+00	 6.23535000E-05	 0.00000000E+00	 1.68765000E-04
		-4.19595000E-05	-8.23905000E-05	 1.24350000E-04	-2.15098000E-05	-2.79817000E-05	-3.13281000E-05	 3.81862000E-02	 7.71611000E-01	 0.00000000E+00	 0.00000000E+00	 0.00000000E+00	 0.00000000E+00	 0.00000000E+00	 1.94475000E-02	 0.00000000E+00	 2.56560000E-02	 0.00000000E+00	 0.00000000E+00	 6.90619000E-02	 0.00000000E+00	 0.00000000E+00	 1.35081000E+00	 0.00000000E+00	 3.44126000E+00	 1.71683000E-01	 3.41052000E+00	 0.00000000E+00	 0.00000000E+00	 0.00000000E+00	 0.00000000E+00	 0.00000000E+00	 8.74735000E-02	 0.00000000E+00	 1.15382000E-01	 0.00000000E+00	 0.00000000E+00	 3.09728000E-01	 0.00000000E+00	 0.00000000E+00	 5.70303000E+00	 0.00000000E+00	 1.33280000E+01	 9.55107000E-07	 1.94761000E-05	 0.00000000E+00	 0.00000000E+00	 0.00000000E+00	 0.00000000E+00	 0.00000000E+00	 4.86307000E-07	 0.00000000E+00	 6.41606000E-07	 0.00000000E+00	 0.00000000E+00	 3.45779000E-06	 0.00000000E+00	 0.00000000E+00	 6.93845000E-05	 0.00000000E+00	 1.84272000E-04
		-4.08526000E-05	-8.02867000E-05	 1.21139000E-04	-2.11099000E-05	-2.72865000E-05	-3.04840000E-05	 3.60851000E-02	 7.49985000E-01	 0.00000000E+00	 0.00000000E+00	 0.00000000E+00	 0.00000000E+00	 0.00000000E+00	 1.83109000E-02	 0.00000000E+00	 2.45237000E-02	 0.00000000E+00	 0.00000000E+00	 6.61070000E-02	 0.00000000E+00	 0.00000000E+00	 1.31161000E+00	 0.00000000E+00	 3.36414000E+00	 1.62245000E-01	 3.31656000E+00	 0.00000000E+00	 0.00000000E+00	 0.00000000E+00	 0.00000000E+00	 0.00000000E+00	 8.23634000E-02	 0.00000000E+00	 1.10293000E-01	 0.00000000E+00	 0.00000000E+00	 2.96514000E-01	 0.00000000E+00	 0.00000000E+00	 5.54695000E+00	 0.00000000E+00	 1.30673000E+01	 9.02532000E-07	 1.89252000E-05	 0.00000000E+00	 0.00000000E+00	 0.00000000E+00	 0.00000000E+00	 0.00000000E+00	 4.57878000E-07	 0.00000000E+00	 6.13280000E-07	 0.00000000E+00	 0.00000000E+00	 3.30967000E-06	 0.00000000E+00	 0.00000000E+00	 6.73203000E-05	 0.00000000E+00	 1.79871000E-04
		-3.82710000E-05	-7.51037000E-05	 1.13375000E-04	-1.99608000E-05	-2.52891000E-05	-2.83674000E-05	 3.15529000E-02	 7.20782000E-01	 0.00000000E+00	 0.00000000E+00	 0.00000000E+00	 0.00000000E+00	 0.00000000E+00	 1.84229000E-02	 0.00000000E+00	 2.20244000E-02	 0.00000000E+00	 0.00000000E+00	 5.27604000E-02	 0.00000000E+00	 0.00000000E+00	 1.21706000E+00	 0.00000000E+00	 3.16855000E+00	 1.41881000E-01	 3.18948000E+00	 0.00000000E+00	 0.00000000E+00	 0.00000000E+00	 0.00000000E+00	 0.00000000E+00	 8.28669000E-02	 0.00000000E+00	 9.90578000E-02	 0.00000000E+00	 0.00000000E+00	 2.36795000E-01	 0.00000000E+00	 0.00000000E+00	 5.16839000E+00	 0.00000000E+00	 1.23999000E+01	 7.89134000E-07	 1.81819000E-05	 0.00000000E+00	 0.00000000E+00	 0.00000000E+00	 0.00000000E+00	 0.00000000E+00	 4.60680000E-07	 0.00000000E+00	 5.50762000E-07	 0.00000000E+00	 0.00000000E+00	 2.64082000E-06	 0.00000000E+00	 0.00000000E+00	 6.23535000E-05	 0.00000000E+00	 1.68765000E-04
		-3.79793000E-05	-7.48484000E-05	 1.12828000E-04	-2.00229000E-05	-2.53636000E-05	-2.83157000E-05	 3.13105000E-02	 6.98629000E-01	 0.00000000E+00	 0.00000000E+00	 0.00000000E+00	 0.00000000E+00	 0.00000000E+00	 1.64745000E-02	 0.00000000E+00	 2.07360000E-02	 0.00000000E+00	 0.00000000E+00	 5.45187000E-02	 0.00000000E+00	 0.00000000E+00	 1.21244000E+00	 0.00000000E+00	 3.16138000E+00	 1.40792000E-01	 3.09306000E+00	 0.00000000E+00	 0.00000000E+00	 0.00000000E+00	 0.00000000E+00	 0.00000000E+00	 7.41062000E-02	 0.00000000E+00	 9.32663000E-02	 0.00000000E+00	 0.00000000E+00	 2.44666000E-01	 0.00000000E+00	 0.00000000E+00	 5.14989000E+00	 0.00000000E+00	 1.23761000E+01	 7.83069000E-07	 1.76181000E-05	 0.00000000E+00	 0.00000000E+00	 0.00000000E+00	 0.00000000E+00	 0.00000000E+00	 4.11946000E-07	 0.00000000E+00	 5.18535000E-07	 0.00000000E+00	 0.00000000E+00	 2.72892000E-06	 0.00000000E+00	 0.00000000E+00	 6.21111000E-05	 0.00000000E+00	 1.68354000E-04
		-3.62209000E-05	-7.14416000E-05	 1.07662000E-04	-1.93024000E-05	-2.41815000E-05	-2.69564000E-05	 2.83108000E-02	 6.68468000E-01	 0.00000000E+00	 0.00000000E+00	 0.00000000E+00	 0.00000000E+00	 0.00000000E+00	 1.52021000E-02	 0.00000000E+00	 1.89967000E-02	 0.00000000E+00	 0.00000000E+00	 4.89525000E-02	 0.00000000E+00	 0.00000000E+00	 1.15073000E+00	 0.00000000E+00	 3.03292000E+00	 1.27313000E-01	 2.96163000E+00	 0.00000000E+00	 0.00000000E+00	 0.00000000E+00	 0.00000000E+00	 0.00000000E+00	 6.83851000E-02	 0.00000000E+00	 8.54467000E-02	 0.00000000E+00	 0.00000000E+00	 2.19745000E-01	 0.00000000E+00	 0.00000000E+00	 4.90158000E+00	 0.00000000E+00	 1.19341000E+01	 7.08021000E-07	 1.68510000E-05	 0.00000000E+00	 0.00000000E+00	 0.00000000E+00	 0.00000000E+00	 0.00000000E+00	 3.80124000E-07	 0.00000000E+00	 4.75030000E-07	 0.00000000E+00	 0.00000000E+00	 2.45004000E-06	 0.00000000E+00	 0.00000000E+00	 5.88762000E-05	 0.00000000E+00	 1.61092000E-04
		-3.84690000E-05	-7.55496000E-05	 1.14019000E-04	-2.01556000E-05	-2.55409000E-05	-2.85330000E-05	 3.16204000E-02	 7.17722000E-01	 0.00000000E+00	 0.00000000E+00	 0.00000000E+00	 0.00000000E+00	 0.00000000E+00	 1.78193000E-02	 0.00000000E+00	 2.25053000E-02	 0.00000000E+00	 0.00000000E+00	 5.54278000E-02	 0.00000000E+00	 0.00000000E+00	 1.22212000E+00	 0.00000000E+00	 3.18870000E+00	 1.42185000E-01	 3.17617000E+00	 0.00000000E+00	 0.00000000E+00	 0.00000000E+00	 0.00000000E+00	 0.00000000E+00	 8.01528000E-02	 0.00000000E+00	 1.01220000E-01	 0.00000000E+00	 0.00000000E+00	 2.48734000E-01	 0.00000000E+00	 0.00000000E+00	 5.18866000E+00	 0.00000000E+00	 1.24687000E+01	 7.90823000E-07	 1.81040000E-05	 0.00000000E+00	 0.00000000E+00	 0.00000000E+00	 0.00000000E+00	 0.00000000E+00	 4.45581000E-07	 0.00000000E+00	 5.62791000E-07	 0.00000000E+00	 0.00000000E+00	 2.77448000E-06	 0.00000000E+00	 0.00000000E+00	 6.26191000E-05	 0.00000000E+00	 1.69910000E-04
		-4.03573000E-05	-7.93946000E-05	 1.19752000E-04	-2.10248000E-05	-2.70150000E-05	-3.01101000E-05	 3.51091000E-02	 7.37609000E-01	 0.00000000E+00	 0.00000000E+00	 0.00000000E+00	 0.00000000E+00	 0.00000000E+00	 1.77688000E-02	 0.00000000E+00	 2.39048000E-02	 0.00000000E+00	 0.00000000E+00	 6.45522000E-02	 0.00000000E+00	 0.00000000E+00	 1.29237000E+00	 0.00000000E+00	 3.33405000E+00	 1.57859000E-01	 3.26272000E+00	 0.00000000E+00	 0.00000000E+00	 0.00000000E+00	 0.00000000E+00	 0.00000000E+00	 7.99258000E-02	 0.00000000E+00	 1.07511000E-01	 0.00000000E+00	 0.00000000E+00	 2.89559000E-01	 0.00000000E+00	 0.00000000E+00	 5.47003000E+00	 0.00000000E+00	 1.29650000E+01	 8.78111000E-07	 1.86102000E-05	 0.00000000E+00	 0.00000000E+00	 0.00000000E+00	 0.00000000E+00	 0.00000000E+00	 4.44319000E-07	 0.00000000E+00	 5.97798000E-07	 0.00000000E+00	 0.00000000E+00	 3.23175000E-06	 0.00000000E+00	 0.00000000E+00	 6.63093000E-05	 0.00000000E+00	 1.78159000E-04
		-3.87650000E-05	-7.63852000E-05	 1.15150000E-04	-2.04953000E-05	-2.60633000E-05	-2.88953000E-05	 3.19768000E-02	 7.03868000E-01	 0.00000000E+00	 0.00000000E+00	 0.00000000E+00	 0.00000000E+00	 0.00000000E+00	 1.58832000E-02	 0.00000000E+00	 2.24920000E-02	 0.00000000E+00	 0.00000000E+00	 6.12778000E-02	 0.00000000E+00	 0.00000000E+00	 1.23485000E+00	 0.00000000E+00	 3.22494000E+00	 1.43787000E-01	 3.11594000E+00	 0.00000000E+00	 0.00000000E+00	 0.00000000E+00	 0.00000000E+00	 0.00000000E+00	 7.14475000E-02	 0.00000000E+00	 1.01160000E-01	 0.00000000E+00	 0.00000000E+00	 2.74914000E-01	 0.00000000E+00	 0.00000000E+00	 5.24027000E+00	 0.00000000E+00	 1.25946000E+01	 7.99738000E-07	 1.77512000E-05	 0.00000000E+00	 0.00000000E+00	 0.00000000E+00	 0.00000000E+00	 0.00000000E+00	 3.97157000E-07	 0.00000000E+00	 5.62458000E-07	 0.00000000E+00	 0.00000000E+00	 3.06762000E-06	 0.00000000E+00	 0.00000000E+00	 6.32847000E-05	 0.00000000E+00	 1.71948000E-04
		-3.74866000E-05	-7.38778000E-05	 1.11364000E-04	-1.99011000E-05	-2.51265000E-05	-2.79045000E-05	 3.00240000E-02	 6.86024000E-01	 0.00000000E+00	 0.00000000E+00	 0.00000000E+00	 0.00000000E+00	 0.00000000E+00	 1.54211000E-02	 0.00000000E+00	 2.09754000E-02	 0.00000000E+00	 0.00000000E+00	 5.56954000E-02	 0.00000000E+00	 0.00000000E+00	 1.19147000E+00	 0.00000000E+00	 3.12826000E+00	 1.35011000E-01	 3.03817000E+00	 0.00000000E+00	 0.00000000E+00	 0.00000000E+00	 0.00000000E+00	 0.00000000E+00	 6.93699000E-02	 0.00000000E+00	 9.43423000E-02	 0.00000000E+00	 0.00000000E+00	 2.49933000E-01	 0.00000000E+00	 0.00000000E+00	 5.06577000E+00	 0.00000000E+00	 1.22627000E+01	 7.50881000E-07	 1.72974000E-05	 0.00000000E+00	 0.00000000E+00	 0.00000000E+00	 0.00000000E+00	 0.00000000E+00	 3.85601000E-07	 0.00000000E+00	 5.24522000E-07	 0.00000000E+00	 0.00000000E+00	 2.78788000E-06	 0.00000000E+00	 0.00000000E+00	 6.10102000E-05	 0.00000000E+00	 1.66476000E-04
