# vtk DataFile Version 3.0

ASCII
DATASET UNSTRUCTURED_GRID

POINTS 12 double
	 1.00000000E+02	 0.00000000E+00	 0.00000000E+00
	 0.00000000E+00	 0.00000000E+00	 0.00000000E+00
	 0.00000000E+00	 1.00000000E+02	 0.00000000E+00
	 1.00000000E+02	 1.00000000E+02	 0.00000000E+00
	 2.00000000E+02	 1.00000000E+02	 0.00000000E+00
	 2.00000000E+02	 0.00000000E+00	 0.00000000E+00
	 1.00000000E+02	 0.00000000E+00	-1.00000000E+02
	 1.00000000E+02	 1.00000000E+02	-1.00000000E+02
	 0.00000000E+00	 1.00000000E+02	-1.00000000E+02
	 0.00000000E+00	 0.00000000E+00	-1.00000000E+02
	 2.00000000E+02	 0.00000000E+00	-1.00000000E+02
	 2.00000000E+02	 1.00000000E+02	-1.00000000E+02

CELLS 2 18
	8 5 0 3 4 10 6 7 11 
	8 0 1 2 3 6 9 8 7 

CELL_TYPES 2
	12
	12

POINT_DATA 12
FIELD DOR1 1
	DOR1 3 12 double
		 1.56015000E-04	 1.11501000E-04	-1.47749000E-04
		 0.00000000E+00	 0.00000000E+00	 0.00000000E+00
		 0.00000000E+00	 0.00000000E+00	 0.00000000E+00
		 1.56015000E-04	-1.11501000E-04	-1.47749000E-04
		 1.47234000E-03	-2.43016000E-04	 3.40015000E-02
		 1.47234000E-03	 2.43016000E-04	 3.40015000E-02
		-1.57446000E-04	-9.88225000E-05	-1.64990000E-04
		-1.57446000E-04	 9.88225000E-05	-1.64990000E-04
		 0.00000000E+00	 0.00000000E+00	 0.00000000E+00
		 0.00000000E+00	 0.00000000E+00	 0.00000000E+00
		-1.40776000E-03	-2.13360000E-04	 3.39646000E-02
		-1.40776000E-03	 2.13360000E-04	 3.39646000E-02
