# vtk DataFile Version 3.0

ASCII
DATASET UNSTRUCTURED_GRID

POINTS 12 double
	 1.00000000E+02	 0.00000000E+00	 0.00000000E+00
	 0.00000000E+00	 0.00000000E+00	 0.00000000E+00
	 0.00000000E+00	 1.00000000E+02	 0.00000000E+00
	 1.00000000E+02	 1.00000000E+02	 0.00000000E+00
	 2.00000000E+02	 1.00000000E+02	 0.00000000E+00
	 2.00000000E+02	 0.00000000E+00	 0.00000000E+00
	 1.00000000E+02	 0.00000000E+00	-1.00000000E+02
	 1.00000000E+02	 1.00000000E+02	-1.00000000E+02
	 0.00000000E+00	 1.00000000E+02	-1.00000000E+02
	 0.00000000E+00	 0.00000000E+00	-1.00000000E+02
	 2.00000000E+02	 0.00000000E+00	-1.00000000E+02
	 2.00000000E+02	 1.00000000E+02	-1.00000000E+02

CELLS 2 18
	8 5 0 3 4 10 6 7 11 
	8 0 1 2 3 6 9 8 7 

CELL_TYPES 2
	12
	12

POINT_DATA 12
FIELD SOR1 1
	SOR1 6 12 double
		 1.65837000E+00	 2.94726000E-01	-1.16655000E+00	 1.53760000E-01	 2.64335000E-01	 1.24852000E+00
		 7.82480000E-01	 2.45029000E-01	 2.45321000E-01	 1.41333000E-01	 3.54144000E-07	-1.87118000E-01
		 7.82480000E-01	 2.45029000E-01	 2.45321000E-01	-1.41333000E-01	-3.54142000E-07	-1.87118000E-01
		 1.65837000E+00	 2.94726000E-01	-1.16655000E+00	-1.53760000E-01	-2.64335000E-01	 1.24852000E+00
		 2.47122000E+00	 1.87100000E-01	-2.62237000E+00	-1.66501000E-01	-5.73967000E-01	-2.26742000E+00
		 2.47122000E+00	 1.87100000E-01	-2.62237000E+00	 1.66501000E-01	 5.73967000E-01	-2.26742000E+00
		-1.68734000E+00	-2.91103000E-01	 1.12384000E+00	-1.34991000E-01	 2.64335000E-01	 1.22708000E+00
		-1.68734000E+00	-2.91103000E-01	 1.12384000E+00	 1.34991000E-01	-2.64335000E-01	 1.22708000E+00
		-7.89655000E-01	-2.47290000E-01	-2.47549000E-01	 1.25276000E-01	-1.51748000E-06	-2.08955000E-01
		-7.89655000E-01	-2.47290000E-01	-2.47549000E-01	-1.25276000E-01	 1.51748000E-06	-2.08955000E-01
		-2.53551000E+00	-2.04671000E-01	 2.56530000E+00	-1.44994000E-01	 5.73967000E-01	-2.28852000E+00
		-2.53551000E+00	-2.04671000E-01	 2.56530000E+00	 1.44994000E-01	-5.73967000E-01	-2.28852000E+00
