# vtk DataFile Version 3.0

ASCII
DATASET UNSTRUCTURED_GRID

POINTS 1001 double
	 1.00000000E+01	-1.49699000E+01	 2.01445000E+02
	 7.50000000E+00	-1.74693000E+01	 2.01196000E+02
	 7.50000000E+00	-1.24616000E+01	 2.01583000E+02
	 1.00000000E+01	-1.03958000E+01	 2.01732000E+02
	 1.00000000E+01	-1.48958000E+01	 2.00447000E+02
	 7.50000000E+00	-1.73828000E+01	 2.00200000E+02
	 7.50000000E+00	-1.23999000E+01	 2.00585000E+02
	 1.00000000E+01	-1.03444000E+01	 2.00734000E+02
	 7.50000000E+00	-7.44523000E+00	 2.01843000E+02
	 1.00000000E+01	-5.81638000E+00	 2.01916000E+02
	 7.50000000E+00	-7.40838000E+00	 2.00844000E+02
	 1.00000000E+01	-5.78758000E+00	 2.00917000E+02
	 1.00000000E+01	-1.48217000E+01	 1.99450000E+02
	 7.50000000E+00	-1.72963000E+01	 1.99204000E+02
	 7.50000000E+00	-1.23382000E+01	 1.99587000E+02
	 1.00000000E+01	-1.02929000E+01	 1.99735000E+02
	 7.50000000E+00	-7.37152000E+00	 1.99845000E+02
	 1.00000000E+01	-5.75879000E+00	 1.99917000E+02
	 5.00000000E+00	-1.99687000E+01	 2.00948000E+02
	 5.00000000E+00	-1.45273000E+01	 2.01434000E+02
	 5.00000000E+00	-1.98698000E+01	 1.99953000E+02
	 5.00000000E+00	-1.44554000E+01	 2.00437000E+02
	 5.00000000E+00	-9.07409000E+00	 2.01770000E+02
	 5.00000000E+00	-9.02917000E+00	 2.00771000E+02
	 5.00000000E+00	-1.97710000E+01	 1.98958000E+02
	 5.00000000E+00	-1.43835000E+01	 1.99440000E+02
	 5.00000000E+00	-8.98425000E+00	 1.99772000E+02
	 2.50000000E+00	-2.24681000E+01	 2.00699000E+02
	 2.50000000E+00	-1.65931000E+01	 2.01285000E+02
	 2.50000000E+00	-2.23569000E+01	 1.99706000E+02
	 2.50000000E+00	-1.65110000E+01	 2.00289000E+02
	 2.50000000E+00	-1.07029000E+01	 2.01696000E+02
	 2.50000000E+00	-1.06500000E+01	 2.00698000E+02
	 2.50000000E+00	-2.22456000E+01	 1.98712000E+02
	 2.50000000E+00	-1.64288000E+01	 1.99292000E+02
	 2.50000000E+00	-1.05970000E+01	 1.99699000E+02
	 0.00000000E+00	-2.49675000E+01	 2.00451000E+02
	 0.00000000E+00	-1.86589000E+01	 2.01136000E+02
	 0.00000000E+00	-2.48439000E+01	 1.99459000E+02
	 8.88178000E-16	-1.85665000E+01	 2.00141000E+02
	 0.00000000E+00	-1.23318000E+01	 2.01623000E+02
	 0.00000000E+00	-1.22708000E+01	 2.00625000E+02
	 0.00000000E+00	-2.47203000E+01	 1.98466000E+02
	 0.00000000E+00	-1.84741000E+01	 1.99145000E+02
	 0.00000000E+00	-1.22097000E+01	 1.99627000E+02
	 1.00000000E+01	-5.22936000E+00	 5.97717000E+01
	 1.00000000E+01	-6.10091000E+00	 6.97336000E+01
	 1.00000000E+01	-4.88296000E+00	 6.98295000E+01
	 1.00000000E+01	-4.18540000E+00	 5.98538000E+01
	 7.50000000E+00	-5.22936000E+00	 5.97717000E+01
	 7.50000000E+00	-6.20949000E+00	 6.97232000E+01
	 7.50000000E+00	-4.99171000E+00	 6.98209000E+01
	 7.50000000E+00	-4.18540000E+00	 5.98538000E+01
	 1.00000000E+01	-3.66352000E+00	 6.99041000E+01
	 1.00000000E+01	-3.14016000E+00	 5.99178000E+01
	 7.50000000E+00	-3.77240000E+00	 6.98974000E+01
	 7.50000000E+00	-3.14016000E+00	 5.99178000E+01
	 5.00000000E+00	-5.22936000E+00	 5.97717000E+01
	 5.00000000E+00	-6.31807000E+00	 6.97127000E+01
	 5.00000000E+00	-5.10045000E+00	 6.98124000E+01
	 5.00000000E+00	-4.18540000E+00	 5.98538000E+01
	 5.00000000E+00	-3.88128000E+00	 6.98908000E+01
	 5.00000000E+00	-3.14016000E+00	 5.99178000E+01
	 2.50000000E+00	-5.22936000E+00	 5.97717000E+01
	 2.50000000E+00	-6.42665000E+00	 6.97023000E+01
	 2.50000000E+00	-5.20920000E+00	 6.98038000E+01
	 2.50000000E+00	-4.18540000E+00	 5.98538000E+01
	 2.50000000E+00	-3.99015000E+00	 6.98841000E+01
	 2.50000000E+00	-3.14016000E+00	 5.99178000E+01
	 0.00000000E+00	-5.22936000E+00	 5.97717000E+01
	 0.00000000E+00	-6.53523000E+00	 6.96918000E+01
	 0.00000000E+00	-5.31794000E+00	 6.97952000E+01
	 0.00000000E+00	-4.18540000E+00	 5.98538000E+01
	 0.00000000E+00	-4.09903000E+00	 6.98774000E+01
	 0.00000000E+00	-3.14016000E+00	 5.99178000E+01
	 1.00000000E+01	-6.97247000E+00	 7.96956000E+01
	 1.00000000E+01	-5.58052000E+00	 7.98051000E+01
	 7.50000000E+00	-7.18962000E+00	 7.96747000E+01
	 7.50000000E+00	-5.79801000E+00	 7.97880000E+01
	 1.00000000E+01	-4.18688000E+00	 7.98904000E+01
	 7.50000000E+00	-4.40464000E+00	 7.98770000E+01
	 5.00000000E+00	-7.40678000E+00	 7.96538000E+01
	 5.00000000E+00	-6.01550000E+00	 7.97709000E+01
	 5.00000000E+00	-4.62239000E+00	 7.98637000E+01
	 2.50000000E+00	-7.62394000E+00	 7.96328000E+01
	 2.50000000E+00	-6.23299000E+00	 7.97538000E+01
	 2.50000000E+00	-4.84015000E+00	 7.98504000E+01
	 0.00000000E+00	-7.84110000E+00	 7.96119000E+01
	 8.88178000E-16	-6.45048000E+00	 7.97367000E+01
	 0.00000000E+00	-5.05791000E+00	 7.98371000E+01
	 1.00000000E+01	-7.84402000E+00	 8.96575000E+01
	 1.00000000E+01	-6.27808000E+00	 8.97808000E+01
	 7.50000000E+00	-8.16976000E+00	 8.96262000E+01
	 7.50000000E+00	-6.60432000E+00	 8.97551000E+01
	 1.00000000E+01	-4.71024000E+00	 8.98767000E+01
	 7.50000000E+00	-5.03687000E+00	 8.98567000E+01
	 5.00000000E+00	-8.49549000E+00	 8.95948000E+01
	 5.00000000E+00	-6.93056000E+00	 8.97294000E+01
	 5.00000000E+00	-5.36351000E+00	 8.98367000E+01
	 2.50000000E+00	-8.82123000E+00	 8.95634000E+01
	 2.50000000E+00	-7.25679000E+00	 8.97037000E+01
	 2.50000000E+00	-5.69014000E+00	 8.98167000E+01
	 0.00000000E+00	-9.14697000E+00	 8.95321000E+01
	-8.88178000E-16	-7.58303000E+00	 8.96781000E+01
	 0.00000000E+00	-6.01678000E+00	 8.97967000E+01
	 1.00000000E+01	-8.71557000E+00	 9.96195000E+01
	 1.00000000E+01	-6.97565000E+00	 9.97564000E+01
	 7.50000000E+00	-9.14989000E+00	 9.95777000E+01
	 7.50000000E+00	-7.41063000E+00	 9.97222000E+01
	 1.00000000E+01	-5.23360000E+00	 9.98630000E+01
	 7.50000000E+00	-5.66911000E+00	 9.98363000E+01
	 5.00000000E+00	-9.58420000E+00	 9.95358000E+01
	 5.00000000E+00	-7.84561000E+00	 9.96879000E+01
	 5.00000000E+00	-6.10463000E+00	 9.98097000E+01
	 2.50000000E+00	-1.00185000E+01	 9.94940000E+01
	 2.50000000E+00	-8.28059000E+00	 9.96537000E+01
	 2.50000000E+00	-6.54014000E+00	 9.97830000E+01
	 0.00000000E+00	-1.04528000E+01	 9.94522000E+01
	 0.00000000E+00	-8.71557000E+00	 9.96195000E+01
	 0.00000000E+00	-6.97565000E+00	 9.97564000E+01
	 7.50000000E+00	-6.74063000E+00	 2.01868000E+02
	 1.00000000E+01	-5.11153000E+00	 2.01935000E+02
	 7.50000000E+00	-6.70726000E+00	 2.00868000E+02
	 1.00000000E+01	-5.08622000E+00	 2.00936000E+02
	 7.50000000E+00	-6.03594000E+00	 2.01890000E+02
	 1.00000000E+01	-4.40661000E+00	 2.01952000E+02
	 7.50000000E+00	-6.00606000E+00	 2.00891000E+02
	 1.00000000E+01	-4.38480000E+00	 2.00952000E+02
	 7.50000000E+00	-6.67389000E+00	 1.99869000E+02
	 1.00000000E+01	-5.06092000E+00	 1.99936000E+02
	 7.50000000E+00	-5.97617000E+00	 1.99891000E+02
	 1.00000000E+01	-4.36298000E+00	 1.99952000E+02
	 5.00000000E+00	-8.36973000E+00	 2.01800000E+02
	 5.00000000E+00	-8.32829000E+00	 2.00801000E+02
	 5.00000000E+00	-7.66527000E+00	 2.01828000E+02
	 5.00000000E+00	-7.62732000E+00	 2.00829000E+02
	 5.00000000E+00	-8.28686000E+00	 1.99802000E+02
	 5.00000000E+00	-7.58937000E+00	 1.99830000E+02
	 2.50000000E+00	-9.99883000E+00	 2.01733000E+02
	 2.50000000E+00	-9.94933000E+00	 2.00734000E+02
	 2.50000000E+00	-9.29459000E+00	 2.01766000E+02
	 2.50000000E+00	-9.24858000E+00	 2.00767000E+02
	 2.50000000E+00	-9.89983000E+00	 1.99735000E+02
	 2.50000000E+00	-9.20257000E+00	 1.99769000E+02
	 0.00000000E+00	-1.16279000E+01	 2.01665000E+02
	 0.00000000E+00	-1.15704000E+01	 2.00667000E+02
	 0.00000000E+00	-1.09239000E+01	 2.01704000E+02
	 0.00000000E+00	-1.08698000E+01	 2.00706000E+02
	 0.00000000E+00	-1.15128000E+01	 1.99668000E+02
	 0.00000000E+00	-1.08158000E+01	 1.99707000E+02
	 1.00000000E+01	-5.29925000E+00	 1.12370000E+02
	 1.00000000E+01	-4.44931000E+00	 1.12409000E+02
	 1.00000000E+01	-4.36194000E+00	 9.99048000E+01
	 7.50000000E+00	-5.88191000E+00	 1.12337000E+02
	 7.50000000E+00	-5.03220000E+00	 1.12380000E+02
	 7.50000000E+00	-4.79767000E+00	 9.98820000E+01
	 1.00000000E+01	-3.59908000E+00	 1.12441000E+02
	 1.00000000E+01	-3.48995000E+00	 9.99391000E+01
	 7.50000000E+00	-4.18215000E+00	 1.12416000E+02
	 7.50000000E+00	-3.92586000E+00	 9.99200000E+01
	 5.00000000E+00	-6.46458000E+00	 1.12305000E+02
	 5.00000000E+00	-5.61508000E+00	 1.12352000E+02
	 5.00000000E+00	-5.23340000E+00	 9.98591000E+01
	 5.00000000E+00	-4.76522000E+00	 1.12392000E+02
	 5.00000000E+00	-4.36177000E+00	 9.99010000E+01
	 2.50000000E+00	-7.04724000E+00	 1.12273000E+02
	 2.50000000E+00	-6.19797000E+00	 1.12324000E+02
	 2.50000000E+00	-5.66913000E+00	 9.98363000E+01
	 2.50000000E+00	-5.34830000E+00	 1.12368000E+02
	 2.50000000E+00	-4.79769000E+00	 9.98820000E+01
	 0.00000000E+00	-7.62991000E+00	 1.12240000E+02
	 0.00000000E+00	-6.78085000E+00	 1.12295000E+02
	 0.00000000E+00	-6.10486000E+00	 9.98135000E+01
	 0.00000000E+00	-5.93137000E+00	 1.12343000E+02
	 0.00000000E+00	-5.23360000E+00	 9.98630000E+01
	 1.00000000E+01	-5.36490000E+00	 1.24876000E+02
	 1.00000000E+01	-4.53668000E+00	 1.24913000E+02
	 7.50000000E+00	-6.09471000E+00	 1.24838000E+02
	 7.50000000E+00	-5.26672000E+00	 1.24879000E+02
	 1.00000000E+01	-3.70821000E+00	 1.24942000E+02
	 7.50000000E+00	-4.43844000E+00	 1.24913000E+02
	 5.00000000E+00	-6.82453000E+00	 1.24800000E+02
	 5.00000000E+00	-5.99676000E+00	 1.24845000E+02
	 5.00000000E+00	-5.16867000E+00	 1.24883000E+02
	 2.50000000E+00	-7.55435000E+00	 1.24762000E+02
	 2.50000000E+00	-6.72680000E+00	 1.24811000E+02
	 2.50000000E+00	-5.89891000E+00	 1.24854000E+02
	 0.00000000E+00	-8.28417000E+00	 1.24724000E+02
	 8.88178000E-16	-7.45684000E+00	 1.24777000E+02
	 0.00000000E+00	-6.62914000E+00	 1.24824000E+02
	 1.00000000E+01	-5.43055000E+00	 1.37383000E+02
	 1.00000000E+01	-4.62406000E+00	 1.37417000E+02
	 7.50000000E+00	-6.30752000E+00	 1.37339000E+02
	 7.50000000E+00	-5.50125000E+00	 1.37377000E+02
	 1.00000000E+01	-3.81734000E+00	 1.37444000E+02
	 7.50000000E+00	-4.69473000E+00	 1.37409000E+02
	 5.00000000E+00	-7.18448000E+00	 1.37296000E+02
	 5.00000000E+00	-6.37845000E+00	 1.37338000E+02
	 5.00000000E+00	-5.57212000E+00	 1.37374000E+02
	 2.50000000E+00	-8.06145000E+00	 1.37252000E+02
	 2.50000000E+00	-7.25564000E+00	 1.37298000E+02
	 2.50000000E+00	-6.44952000E+00	 1.37339000E+02
[...]
POINT_DATA 1001
FIELD SENFREQ 1
	SENFREQ 2 1001 double
		-1.87958000E+04	-3.22962000E-01
		-1.64785000E+04	-2.83146000E-01
		-2.09013000E+04	-3.59141000E-01
		-2.12829000E+04	-3.65699000E-01
		-2.98842000E+04	-5.13492000E-01
		-2.57125000E+04	-4.41811000E-01
		 0.00000000E+00	 0.00000000E+00
		-3.49415000E+04	-6.00389000E-01
		-1.82613000E+04	-3.13778000E-01
		-2.11097000E+04	-3.62722000E-01
		 0.00000000E+00	 0.00000000E+00
		-3.82913000E+04	-6.57948000E-01
		-1.94504000E+04	-3.34211000E-01
		-1.67269000E+04	-2.87414000E-01
		-2.10053000E+04	-3.60928000E-01
		-2.07355000E+04	-3.56293000E-01
		 2.51824000E+03	 4.32702000E-02
		-6.83722000E+03	-1.17482000E-01
		-1.22992000E+04	-2.11333000E-01
		-1.23985000E+04	-2.13040000E-01
		-2.17355000E+04	-3.73475000E-01
		 0.00000000E+00	 0.00000000E+00
		-8.55216000E+03	-1.46949000E-01
		 0.00000000E+00	 0.00000000E+00
		-1.24402000E+04	-2.13756000E-01
		-1.24290000E+04	-2.13564000E-01
		 4.78588000E+03	 8.22344000E-02
		-1.10225000E+04	-1.89396000E-01
		-6.98897000E+03	-1.20089000E-01
		-2.11655000E+04	-3.63680000E-01
		 0.00000000E+00	 0.00000000E+00
		-7.83126000E+02	-1.34562000E-02
		 0.00000000E+00	 0.00000000E+00
		-1.10700000E+04	-1.90213000E-01
		-6.91840000E+03	-1.18877000E-01
		 4.92674000E+03	 8.46548000E-02
		-1.09966000E+04	-1.88951000E-01
		-4.65036000E+03	-7.99058000E-02
		-1.54967000E+04	-2.66275000E-01
		 0.00000000E+00	 0.00000000E+00
		 3.57289000E+03	 6.13919000E-02
		 0.00000000E+00	 0.00000000E+00
		-1.10620000E+04	-1.90074000E-01
		-4.92821000E+03	-8.46801000E-02
		 5.60478000E+03	 9.63053000E-02
		 0.00000000E+00	 0.00000000E+00
		 0.00000000E+00	 0.00000000E+00
		 6.06346000E+00	 1.04187000E-04
		 5.90269000E+00	 1.01424000E-04
		 0.00000000E+00	 0.00000000E+00
		 0.00000000E+00	 0.00000000E+00
		 0.00000000E+00	 0.00000000E+00
		 3.91780000E+00	 6.73184000E-05
		 4.21719000E+00	 7.24627000E-05
		 5.99291000E-01	 1.02975000E-05
		 0.00000000E+00	 0.00000000E+00
		 1.52859000E+00	 2.62654000E-05
		 0.00000000E+00	 0.00000000E+00
		 0.00000000E+00	 0.00000000E+00
		 0.00000000E+00	 0.00000000E+00
		 2.35379000E+00	 4.04444000E-05
		 0.00000000E+00	 0.00000000E+00
		 1.14692000E+00	 1.97072000E-05
		 0.00000000E+00	 0.00000000E+00
		 0.00000000E+00	 0.00000000E+00
		 0.00000000E+00	 0.00000000E+00
		 3.98109000E+00	 6.84059000E-05
		 0.00000000E+00	 0.00000000E+00
		 1.07166000E+00	 1.84141000E-05
		 0.00000000E+00	 0.00000000E+00
		 0.00000000E+00	 0.00000000E+00
		 0.00000000E+00	 0.00000000E+00
		 6.08440000E+00	 1.04546000E-04
		 0.00000000E+00	 0.00000000E+00
		 1.06887000E+00	 1.83661000E-05
		 0.00000000E+00	 0.00000000E+00
		 1.84943000E+01	 3.17782000E-04
		 0.00000000E+00	 0.00000000E+00
		 0.00000000E+00	 0.00000000E+00
		 3.07992000E+01	 5.29215000E-04
		 0.00000000E+00	 0.00000000E+00
		 0.00000000E+00	 0.00000000E+00
		 0.00000000E+00	 0.00000000E+00
		 0.00000000E+00	 0.00000000E+00
		 0.00000000E+00	 0.00000000E+00
		 0.00000000E+00	 0.00000000E+00
		 0.00000000E+00	 0.00000000E+00
		 0.00000000E+00	 0.00000000E+00
		 0.00000000E+00	 0.00000000E+00
		 0.00000000E+00	 0.00000000E+00
		 0.00000000E+00	 0.00000000E+00
		 6.45308000E+02	 1.10881000E-02
		 0.00000000E+00	 0.00000000E+00
		 0.00000000E+00	 0.00000000E+00
		 3.56415000E+02	 6.12417000E-03
		 0.00000000E+00	 0.00000000E+00
		 0.00000000E+00	 0.00000000E+00
		 0.00000000E+00	 0.00000000E+00
		 0.00000000E+00	 0.00000000E+00
		 0.00000000E+00	 0.00000000E+00
		 0.00000000E+00	 0.00000000E+00
		 0.00000000E+00	 0.00000000E+00
		 0.00000000E+00	 0.00000000E+00
		 0.00000000E+00	 0.00000000E+00
		 0.00000000E+00	 0.00000000E+00
		 0.00000000E+00	 0.00000000E+00
		 1.84800000E+03	 3.17537000E-02
		 0.00000000E+00	 0.00000000E+00
		 3.18820000E+03	 5.47820000E-02
		 1.56237000E+04	 2.68458000E-01
		 3.04197000E+04	 5.22692000E-01
		 0.00000000E+00	 0.00000000E+00
		 2.12924000E+03	 3.65862000E-02
		 2.01407000E+04	 3.46071000E-01
		 0.00000000E+00	 0.00000000E+00
		 9.97366000E+02	 1.71375000E-02
		 1.10168000E+04	 1.89299000E-01
		 0.00000000E+00	 0.00000000E+00
		 3.04274000E+02	 5.22826000E-03
		 5.08500000E+03	 8.73742000E-02
		-1.77134000E+04	-3.04364000E-01
		-1.74674000E+04	-3.00138000E-01
		 0.00000000E+00	 0.00000000E+00
		-2.15681000E+04	-3.70599000E-01
		-2.81942000E+04	-4.84452000E-01
		-2.75340000E+04	-4.73109000E-01
		 0.00000000E+00	 0.00000000E+00
		-3.76935000E+04	-6.47676000E-01
		 0.00000000E+00	 0.00000000E+00
		-4.28381000E+04	-7.36074000E-01
		-3.24843000E+03	-5.58169000E-02
		-6.70088000E+03	-1.15139000E-01
		-6.57872000E+03	-1.13040000E-01
		 0.00000000E+00	 0.00000000E+00
		-1.34354000E+04	-2.30856000E-01
		 0.00000000E+00	 0.00000000E+00
		 0.00000000E+00	 0.00000000E+00
		 3.18651000E+03	 5.47528000E-02
		 3.45797000E+03	 5.94173000E-02
		 0.00000000E+00	 0.00000000E+00
		 3.01049000E+03	 5.17283000E-02
		 0.00000000E+00	 0.00000000E+00
		 0.00000000E+00	 0.00000000E+00
		 5.21846000E+03	 8.96673000E-02
		 9.81628000E+03	 1.68670000E-01
		 0.00000000E+00	 0.00000000E+00
		 1.47500000E+04	 2.53445000E-01
		 0.00000000E+00	 0.00000000E+00
		 0.00000000E+00	 0.00000000E+00
		 4.40487000E+03	 7.56875000E-02
		 1.56495000E+04	 2.68901000E-01
		 1.86811000E+04	 3.20992000E-01
		 1.10395000E+04	 1.89689000E-01
		 1.76041000E+04	 3.02485000E-01
		 0.00000000E+00	 0.00000000E+00
		 0.00000000E+00	 0.00000000E+00
		 9.69282000E+03	 1.66549000E-01
		 7.25892000E+03	 1.24728000E-01
		 1.43180000E+04	 2.46022000E-01
		 2.81027000E+04	 4.82880000E-01
		 1.26513000E+04	 2.17384000E-01
		 0.00000000E+00	 0.00000000E+00
		 0.00000000E+00	 0.00000000E+00
		 1.09619000E+04	 1.88356000E-01
		 1.98202000E+04	 3.40564000E-01
		 9.06792000E+03	 1.55812000E-01
		 0.00000000E+00	 0.00000000E+00
		 0.00000000E+00	 0.00000000E+00
		 8.33235000E+03	 1.43172000E-01
		 1.14565000E+04	 1.96854000E-01
		 6.54170000E+03	 1.12404000E-01
		 0.00000000E+00	 0.00000000E+00
		 0.00000000E+00	 0.00000000E+00
		 6.78593000E+03	 1.16601000E-01
		 5.65871000E+03	 9.72320000E-02
		 1.51005000E+04	 2.59467000E-01
		 1.09184000E+04	 1.87608000E-01
		 1.82037000E+04	 3.12789000E-01
		 0.00000000E+00	 0.00000000E+00
		 8.44529000E+03	 1.45113000E-01
		 1.42371000E+04	 2.44631000E-01
		 1.48548000E+04	 2.55246000E-01
		 0.00000000E+00	 0.00000000E+00
		 1.29632000E+04	 2.22743000E-01
		 1.29118000E+04	 2.21860000E-01
		 0.00000000E+00	 0.00000000E+00
		 1.19442000E+04	 2.05233000E-01
		 1.15978000E+04	 1.99282000E-01
		 0.00000000E+00	 0.00000000E+00
		 1.21796000E+04	 2.09279000E-01
		 1.28389000E+04	 2.20607000E-01
		 9.71986000E+03	 1.67014000E-01
		 1.73092000E+04	 2.97418000E-01
		 0.00000000E+00	 0.00000000E+00
		 7.45801000E+03	 1.28149000E-01
		 1.42625000E+04	 2.45069000E-01
		 1.52712000E+04	 2.62401000E-01
		 0.00000000E+00	 0.00000000E+00
		 1.43212000E+04	 2.46078000E-01
		 1.48622000E+04	 2.55372000E-01
		 0.00000000E+00	 0.00000000E+00
		 1.43667000E+04	 2.46859000E-01
		 1.46366000E+04	 2.51497000E-01
		 0.00000000E+00	 0.00000000E+00
		 1.58843000E+04	 2.72936000E-01
		 9.01358000E+03	 1.54878000E-01
		 4.10150000E+03	 7.04750000E-02
		 1.39256000E+04	 2.39279000E-01
		 0.00000000E+00	 0.00000000E+00
		 5.51360000E+03	 9.47386000E-02
		 1.19038000E+04	 2.04539000E-01
		 1.34015000E+04	 2.30274000E-01
		 0.00000000E+00	 0.00000000E+00
		 1.32042000E+04	 2.26884000E-01
		 1.44821000E+04	 2.48842000E-01
		 0.00000000E+00	 0.00000000E+00
		 1.43339000E+04	 2.46295000E-01
		 1.53524000E+04	 2.63796000E-01
		 0.00000000E+00	 0.00000000E+00
		 1.70282000E+04	 2.92591000E-01
		 2.12041000E+03	 3.64344000E-02
		-2.51118000E+03	-4.31489000E-02
		 7.21399000E+03	 1.23956000E-01
		 0.00000000E+00	 0.00000000E+00
		 1.78739000E+03	 3.07121000E-02
		 6.19743000E+03	 1.06489000E-01
		 8.67099000E+03	 1.48991000E-01
		 0.00000000E+00	 0.00000000E+00
		 8.95629000E+03	 1.53893000E-01
		 1.13917000E+04	 1.95740000E-01
		 0.00000000E+00	 0.00000000E+00
		 1.13185000E+04	 1.94483000E-01
		 1.33392000E+04	 2.29204000E-01
		 0.00000000E+00	 0.00000000E+00
		 1.50841000E+04	 2.59186000E-01
		-6.06249000E+03	-1.04170000E-01
		-1.40627000E+04	-2.41635000E-01
		-1.38299000E+03	-2.37635000E-02
		 0.00000000E+00	 0.00000000E+00
		-2.82085000E+03	-4.84699000E-02
		-1.50858000E+03	-2.59214000E-02
		 2.60007000E+03	 4.46763000E-02
		 0.00000000E+00	 0.00000000E+00
		 3.50817000E+03	 6.02799000E-02
		 7.00384000E+03	 1.20345000E-01
		 0.00000000E+00	 0.00000000E+00
		 7.59316000E+03	 1.30471000E-01
		 1.03762000E+04	 1.78291000E-01
		 0.00000000E+00	 0.00000000E+00
		 1.20792000E+04	 2.07553000E-01
		-1.91108000E+04	-3.28376000E-01
		-1.89523000E+04	-3.25651000E-01
		-1.35058000E+04	-2.32067000E-01
		 0.00000000E+00	 0.00000000E+00
		-9.55639000E+03	-1.64205000E-01
		-1.23498000E+04	-2.12203000E-01
		-7.30854000E+03	-1.25581000E-01
		 0.00000000E+00	 0.00000000E+00
		-5.20238000E+03	-8.93909000E-02
		-1.28437000E+03	-2.20690000E-02
		 0.00000000E+00	 0.00000000E+00
		-1.54904000E+01	-2.66166000E-04
		 2.77703000E+03	 4.77169000E-02
		 0.00000000E+00	 0.00000000E+00
		 5.31033000E+03	 9.12458000E-02
		 3.62125000E+00	 6.22229000E-05
		 4.32256000E-01	 7.42733000E-06
		 0.00000000E+00	 0.00000000E+00
		 8.29550000E-01	 1.42539000E-05
		 2.99274000E+00	 5.14234000E-05
		 6.55941000E-01	 1.12709000E-05
		 0.00000000E+00	 0.00000000E+00
		 7.68194000E-01	 1.31997000E-05
		 0.00000000E+00	 0.00000000E+00
		 7.49083000E-01	 1.28713000E-05
		 0.00000000E+00	 0.00000000E+00
		 8.26325000E-01	 1.41985000E-05
		 0.00000000E+00	 0.00000000E+00
		 1.05186000E+00	 1.80737000E-05
		 0.00000000E+00	 0.00000000E+00
		 1.03631000E+00	 1.78066000E-05
		 0.00000000E+00	 0.00000000E+00
		 1.40281000E+00	 2.41041000E-05
		 0.00000000E+00	 0.00000000E+00
		 1.05023000E+00	 1.80459000E-05
		 8.16981000E+01	 1.40380000E-03
		 0.00000000E+00	 0.00000000E+00
		 6.04510000E+01	 1.03871000E-03
		 0.00000000E+00	 0.00000000E+00
		 0.00000000E+00	 0.00000000E+00
		 0.00000000E+00	 0.00000000E+00
		 0.00000000E+00	 0.00000000E+00
		 0.00000000E+00	 0.00000000E+00
		 0.00000000E+00	 0.00000000E+00
		 0.00000000E+00	 0.00000000E+00
		 1.51277000E+03	 2.59936000E-02
		 0.00000000E+00	 0.00000000E+00
		 1.02764000E+03	 1.76577000E-02
		 0.00000000E+00	 0.00000000E+00
		 0.00000000E+00	 0.00000000E+00
		 0.00000000E+00	 0.00000000E+00
		 0.00000000E+00	 0.00000000E+00
		 0.00000000E+00	 0.00000000E+00
		 0.00000000E+00	 0.00000000E+00
		 0.00000000E+00	 0.00000000E+00
		-3.84112000E+04	-6.60009000E-01
		-3.67024000E+04	-6.30646000E-01
		 0.00000000E+00	 0.00000000E+00
		-5.81980000E+04	-1.00000000E+00
		-3.43085000E+04	-5.89513000E-01
		-3.28616000E+04	-5.64651000E-01
		-5.08363000E+04	-8.73505000E-01
		-2.49348000E+04	-4.28448000E-01
		-3.72219000E+04	-6.39573000E-01
		-3.61110000E+04	-6.20484000E-01
		-3.31154000E+04	-5.69013000E-01
		-3.24514000E+04	-5.57604000E-01
		-2.15030000E+04	-3.69480000E-01
		 0.00000000E+00	 0.00000000E+00
		-2.11794000E+04	-3.63920000E-01
		-3.25330000E+04	-5.59005000E-01
		-1.96271000E+04	-3.37248000E-01
		-2.01151000E+04	-3.45632000E-01
		-2.19069000E+03	-3.76420000E-02
		 0.00000000E+00	 0.00000000E+00
		-7.69105000E+03	-1.32153000E-01
		-1.76620000E+04	-3.03481000E-01
		 4.36617000E+02	 7.50226000E-03
		-5.92797000E+03	-1.01859000E-01
		 1.71392000E+04	 2.94499000E-01
		 0.00000000E+00	 0.00000000E+00
		 1.24680000E+04	 2.14234000E-01
		 1.31216000E+03	 2.25464000E-02
		 1.85481000E+04	 3.18707000E-01
		 1.60066000E+04	 2.75036000E-01
		 4.26668000E+00	 7.33132000E-05
		 6.52089000E-01	 1.12047000E-05
		 0.00000000E+00	 0.00000000E+00
		-6.39040000E-01	-1.09804000E-05
		 0.00000000E+00	 0.00000000E+00
		 0.00000000E+00	 0.00000000E+00
		 0.00000000E+00	 0.00000000E+00
		 0.00000000E+00	 0.00000000E+00
		 0.00000000E+00	 0.00000000E+00
		-6.42434000E-01	-1.10388000E-05
		 0.00000000E+00	 0.00000000E+00
		 0.00000000E+00	 0.00000000E+00
		 0.00000000E+00	 0.00000000E+00
		-1.99720000E+00	-3.43173000E-05
		 0.00000000E+00	 0.00000000E+00
		 0.00000000E+00	 0.00000000E+00
		 0.00000000E+00	 0.00000000E+00
		-3.87825000E+00	-6.66389000E-05
		 0.00000000E+00	 0.00000000E+00
		 0.00000000E+00	 0.00000000E+00
		 3.33184000E+01	 5.72501000E-04
		 0.00000000E+00	 0.00000000E+00
		 0.00000000E+00	 0.00000000E+00
		 0.00000000E+00	 0.00000000E+00
		 0.00000000E+00	 0.00000000E+00
		 0.00000000E+00	 0.00000000E+00
		 0.00000000E+00	 0.00000000E+00
		 0.00000000E+00	 0.00000000E+00
		 0.00000000E+00	 0.00000000E+00
		 0.00000000E+00	 0.00000000E+00
		 3.12176000E+02	 5.36403000E-03
		 0.00000000E+00	 0.00000000E+00
		 0.00000000E+00	 0.00000000E+00
		 0.00000000E+00	 0.00000000E+00
		 0.00000000E+00	 0.00000000E+00
		 0.00000000E+00	 0.00000000E+00
		 0.00000000E+00	 0.00000000E+00
		 0.00000000E+00	 0.00000000E+00
		 0.00000000E+00	 0.00000000E+00
		 0.00000000E+00	 0.00000000E+00
		 1.03471000E+03	 1.77792000E-02
		 2.18904000E+03	 3.76136000E-02
		 0.00000000E+00	 0.00000000E+00
		 0.00000000E+00	 0.00000000E+00
		 1.76764000E+03	 3.03728000E-02
		 0.00000000E+00	 0.00000000E+00
		 1.15715000E+03	 1.98829000E-02
		 0.00000000E+00	 0.00000000E+00
		 6.64377000E+02	 1.14158000E-02
		 0.00000000E+00	 0.00000000E+00
		 7.10573000E+03	 1.22096000E-01
		 2.37513000E+03	 4.08111000E-02
		 1.04953000E+04	 1.80337000E-01
		 1.40753000E+04	 2.41852000E-01
		-3.93005000E+03	-6.75290000E-02
		-5.56755000E+03	-9.56656000E-02
		 0.00000000E+00	 0.00000000E+00
		 0.00000000E+00	 0.00000000E+00
		 4.37459000E+03	 7.51673000E-02
		 4.70827000E+03	 8.09008000E-02
		 0.00000000E+00	 0.00000000E+00
		 0.00000000E+00	 0.00000000E+00
		 6.12331000E+03	 1.05215000E-01
		 1.89737000E+03	 3.26020000E-02
		 9.84252000E+03	 1.69121000E-01
		 1.17837000E+04	 2.02476000E-01
		 1.47823000E+04	 2.54001000E-01
		 1.29361000E+04	 2.22278000E-01
		-2.53819000E+03	-4.36129000E-02
		 4.38612000E+03	 7.53654000E-02
		-1.05601000E+04	-1.81451000E-01
		 0.00000000E+00	 0.00000000E+00
		 2.99091000E+03	 5.13919000E-02
		 0.00000000E+00	 0.00000000E+00
		-2.69895000E+03	-4.63752000E-02
		 4.57770000E+03	 7.86573000E-02
		 1.17373000E+04	 2.01678000E-01
		-7.18489000E+03	-1.23456000E-01
		-8.19474000E+02	-1.40808000E-02
		-1.59227000E+04	-2.73594000E-01
		 0.00000000E+00	 0.00000000E+00
		 2.08620000E+03	 3.58466000E-02
		 0.00000000E+00	 0.00000000E+00
		-7.21394000E+03	-1.23955000E-01
		-4.22933000E+02	-7.26714000E-03
		 7.38623000E+03	 1.26916000E-01
		 0.00000000E+00	 0.00000000E+00
		 0.00000000E+00	 0.00000000E+00
		 0.00000000E+00	 0.00000000E+00
		 6.51713000E+00	 1.11982000E-04
		 0.00000000E+00	 0.00000000E+00
		 5.52635000E-01	 9.49577000E-06
		 0.00000000E+00	 0.00000000E+00
		 0.00000000E+00	 0.00000000E+00
		 0.00000000E+00	 0.00000000E+00
		 6.05985000E+00	 1.04125000E-04
		 0.00000000E+00	 0.00000000E+00
		 4.68525000E-01	 8.05052000E-06
		 0.00000000E+00	 0.00000000E+00
		 0.00000000E+00	 0.00000000E+00
		 0.00000000E+00	 0.00000000E+00
		 5.22962000E+00	 8.98591000E-05
		 0.00000000E+00	 0.00000000E+00
		 5.43282000E-01	 9.33505000E-06
		 0.00000000E+00	 0.00000000E+00
		 0.00000000E+00	 0.00000000E+00
		 0.00000000E+00	 0.00000000E+00
		 4.01092000E+00	 6.89184000E-05
		 0.00000000E+00	 0.00000000E+00
		 7.56700000E-01	 1.30022000E-05
		 0.00000000E+00	 0.00000000E+00
		 0.00000000E+00	 0.00000000E+00
		 0.00000000E+00	 0.00000000E+00
		 0.00000000E+00	 0.00000000E+00
		 0.00000000E+00	 0.00000000E+00
		 0.00000000E+00	 0.00000000E+00
		 0.00000000E+00	 0.00000000E+00
		 0.00000000E+00	 0.00000000E+00
		 0.00000000E+00	 0.00000000E+00
		 0.00000000E+00	 0.00000000E+00
		 0.00000000E+00	 0.00000000E+00
		 0.00000000E+00	 0.00000000E+00
		 0.00000000E+00	 0.00000000E+00
		 0.00000000E+00	 0.00000000E+00
		 0.00000000E+00	 0.00000000E+00
		 0.00000000E+00	 0.00000000E+00
		 0.00000000E+00	 0.00000000E+00
		 0.00000000E+00	 0.00000000E+00
		 0.00000000E+00	 0.00000000E+00
		 0.00000000E+00	 0.00000000E+00
		 0.00000000E+00	 0.00000000E+00
		 0.00000000E+00	 0.00000000E+00
		 0.00000000E+00	 0.00000000E+00
		 0.00000000E+00	 0.00000000E+00
		 0.00000000E+00	 0.00000000E+00
		-1.76826000E+01	-3.03836000E-04
		 1.89868000E+03	 3.26246000E-02
		 0.00000000E+00	 0.00000000E+00
		 2.29852000E+01	 3.94947000E-04
		 1.67241000E+03	 2.87365000E-02
		 0.00000000E+00	 0.00000000E+00
		 3.88328000E+02	 6.67253000E-03
		 4.44860000E+03	 7.64390000E-02
		 0.00000000E+00	 0.00000000E+00
		 9.84836000E+02	 1.69222000E-02
		 9.77579000E+03	 1.67975000E-01
		 0.00000000E+00	 0.00000000E+00
		 0.00000000E+00	 0.00000000E+00
		 0.00000000E+00	 0.00000000E+00
		 0.00000000E+00	 0.00000000E+00
		 2.14336000E+03	 3.68287000E-02
		-2.42688000E+02	-4.17003000E-03
		 0.00000000E+00	 0.00000000E+00
		 0.00000000E+00	 0.00000000E+00
		 1.59020000E+04	 2.73239000E-01
		 1.31044000E+04	 2.25170000E-01
		 7.74281000E+03	 1.33042000E-01
		 3.67337000E+03	 6.31185000E-02
		 0.00000000E+00	 0.00000000E+00
		 0.00000000E+00	 0.00000000E+00
		 3.46180000E+03	 5.94831000E-02
		 0.00000000E+00	 0.00000000E+00
		 1.65489000E+04	 2.84355000E-01
		 1.20760000E+04	 2.07498000E-01
		 0.00000000E+00	 0.00000000E+00
		 0.00000000E+00	 0.00000000E+00
		 3.60986000E+03	 6.20271000E-02
		 0.00000000E+00	 0.00000000E+00
		 1.42241000E+04	 2.44409000E-01
		 1.44194000E+04	 2.47764000E-01
		 5.35036000E+03	 9.19338000E-02
		 0.00000000E+00	 0.00000000E+00
		 0.00000000E+00	 0.00000000E+00
		 5.89332000E+03	 1.01263000E-01
		 2.52767000E+03	 4.34323000E-02
		 5.04412000E+03	 8.66716000E-02
		 0.00000000E+00	 0.00000000E+00
		 0.00000000E+00	 0.00000000E+00
		 5.83410000E+03	 1.00246000E-01
		 1.65218000E+03	 2.83889000E-02
		 5.80860000E+03	 9.98075000E-02
		 0.00000000E+00	 0.00000000E+00
		 0.00000000E+00	 0.00000000E+00
		 6.50157000E+03	 1.11715000E-01
		 2.85249000E+03	 4.90135000E-02
		 7.30837000E+03	 1.25578000E-01
		 0.00000000E+00	 0.00000000E+00
		 0.00000000E+00	 0.00000000E+00
		 8.14788000E+03	 1.40003000E-01
		 6.53366000E+03	 1.12266000E-01
		 1.15448000E+04	 1.98371000E-01
		 0.00000000E+00	 0.00000000E+00
		 1.21398000E+04	 2.08595000E-01
		 1.12426000E+04	 1.93178000E-01
		 0.00000000E+00	 0.00000000E+00
		 1.23540000E+04	 2.12276000E-01
		 1.14059000E+04	 1.95984000E-01
		 0.00000000E+00	 0.00000000E+00
		 1.25470000E+04	 2.15592000E-01
		 1.15430000E+04	 1.98340000E-01
		 0.00000000E+00	 0.00000000E+00
		 1.34301000E+04	 2.30765000E-01
		 1.56071000E+04	 2.68172000E-01
		 0.00000000E+00	 0.00000000E+00
		 1.63343000E+04	 2.80668000E-01
		 1.54232000E+04	 2.65012000E-01
		 0.00000000E+00	 0.00000000E+00
		 1.65917000E+04	 2.85090000E-01
		 1.53605000E+04	 2.63935000E-01
		 0.00000000E+00	 0.00000000E+00
		 1.63438000E+04	 2.80831000E-01
		 1.47469000E+04	 2.53392000E-01
		 0.00000000E+00	 0.00000000E+00
		 1.67611000E+04	 2.88001000E-01
		 1.72120000E+04	 2.95749000E-01
		 0.00000000E+00	 0.00000000E+00
		 1.79743000E+04	 3.08847000E-01
		 1.71356000E+04	 2.94436000E-01
		 0.00000000E+00	 0.00000000E+00
		 1.82486000E+04	 3.13560000E-01
		 1.69313000E+04	 2.90925000E-01
		 0.00000000E+00	 0.00000000E+00
		 1.75810000E+04	 3.02090000E-01
		 1.57818000E+04	 2.71175000E-01
		 0.00000000E+00	 0.00000000E+00
		 1.75917000E+04	 3.02272000E-01
		 1.58619000E+04	 2.72551000E-01
		 0.00000000E+00	 0.00000000E+00
		 1.65530000E+04	 2.84426000E-01
		 1.59056000E+04	 2.73302000E-01
		 0.00000000E+00	 0.00000000E+00
		 1.68765000E+04	 2.89984000E-01
		 1.56253000E+04	 2.68484000E-01
		 0.00000000E+00	 0.00000000E+00
		 1.58892000E+04	 2.73020000E-01
		 1.40963000E+04	 2.42213000E-01
		 0.00000000E+00	 0.00000000E+00
		 1.54344000E+04	 2.65205000E-01
		 1.34625000E+04	 2.31322000E-01
		 0.00000000E+00	 0.00000000E+00
		 1.39684000E+04	 2.40016000E-01
		 1.38438000E+04	 2.37874000E-01
		 0.00000000E+00	 0.00000000E+00
		 1.43284000E+04	 2.46201000E-01
		 1.35325000E+04	 2.32525000E-01
		 0.00000000E+00	 0.00000000E+00
		 1.31985000E+04	 2.26786000E-01
		 1.18086000E+04	 2.02903000E-01
		 0.00000000E+00	 0.00000000E+00
		 1.23346000E+04	 2.11943000E-01
		 6.64565000E+03	 1.14190000E-01