# vtk DataFile Version 3.0

ASCII
DATASET UNSTRUCTURED_GRID

POINTS 1001 double
	 1.00000000E+01	-1.49699000E+01	 2.01445000E+02
	 7.50000000E+00	-1.74693000E+01	 2.01196000E+02
	 7.50000000E+00	-1.24616000E+01	 2.01583000E+02
	 1.00000000E+01	-1.03958000E+01	 2.01732000E+02
	 1.00000000E+01	-1.48958000E+01	 2.00447000E+02
	 7.50000000E+00	-1.73828000E+01	 2.00200000E+02
	 7.50000000E+00	-1.23999000E+01	 2.00585000E+02
	 1.00000000E+01	-1.03444000E+01	 2.00734000E+02
	 7.50000000E+00	-7.44523000E+00	 2.01843000E+02
	 1.00000000E+01	-5.81638000E+00	 2.01916000E+02
	 7.50000000E+00	-7.40838000E+00	 2.00844000E+02
	 1.00000000E+01	-5.78758000E+00	 2.00917000E+02
	 1.00000000E+01	-1.48217000E+01	 1.99450000E+02
	 7.50000000E+00	-1.72963000E+01	 1.99204000E+02
	 7.50000000E+00	-1.23382000E+01	 1.99587000E+02
	 1.00000000E+01	-1.02929000E+01	 1.99735000E+02
	 7.50000000E+00	-7.37152000E+00	 1.99845000E+02
	 1.00000000E+01	-5.75879000E+00	 1.99917000E+02
	 5.00000000E+00	-1.99687000E+01	 2.00948000E+02
	 5.00000000E+00	-1.45273000E+01	 2.01434000E+02
	 5.00000000E+00	-1.98698000E+01	 1.99953000E+02
	 5.00000000E+00	-1.44554000E+01	 2.00437000E+02
	 5.00000000E+00	-9.07409000E+00	 2.01770000E+02
	 5.00000000E+00	-9.02917000E+00	 2.00771000E+02
	 5.00000000E+00	-1.97710000E+01	 1.98958000E+02
	 5.00000000E+00	-1.43835000E+01	 1.99440000E+02
	 5.00000000E+00	-8.98425000E+00	 1.99772000E+02
	 2.50000000E+00	-2.24681000E+01	 2.00699000E+02
	 2.50000000E+00	-1.65931000E+01	 2.01285000E+02
	 2.50000000E+00	-2.23569000E+01	 1.99706000E+02
	 2.50000000E+00	-1.65110000E+01	 2.00289000E+02
	 2.50000000E+00	-1.07029000E+01	 2.01696000E+02
	 2.50000000E+00	-1.06500000E+01	 2.00698000E+02
	 2.50000000E+00	-2.22456000E+01	 1.98712000E+02
	 2.50000000E+00	-1.64288000E+01	 1.99292000E+02
	 2.50000000E+00	-1.05970000E+01	 1.99699000E+02
	 0.00000000E+00	-2.49675000E+01	 2.00451000E+02
	 0.00000000E+00	-1.86589000E+01	 2.01136000E+02
	 0.00000000E+00	-2.48439000E+01	 1.99459000E+02
	 8.88178000E-16	-1.85665000E+01	 2.00141000E+02
	 0.00000000E+00	-1.23318000E+01	 2.01623000E+02
	 0.00000000E+00	-1.22708000E+01	 2.00625000E+02
	 0.00000000E+00	-2.47203000E+01	 1.98466000E+02
	 0.00000000E+00	-1.84741000E+01	 1.99145000E+02
	 0.00000000E+00	-1.22097000E+01	 1.99627000E+02
	 1.00000000E+01	-5.22936000E+00	 5.97717000E+01
	 1.00000000E+01	-6.10091000E+00	 6.97336000E+01
	 1.00000000E+01	-4.88296000E+00	 6.98295000E+01
	 1.00000000E+01	-4.18540000E+00	 5.98538000E+01
	 7.50000000E+00	-5.22936000E+00	 5.97717000E+01
	 7.50000000E+00	-6.20949000E+00	 6.97232000E+01
	 7.50000000E+00	-4.99171000E+00	 6.98209000E+01
	 7.50000000E+00	-4.18540000E+00	 5.98538000E+01
	 1.00000000E+01	-3.66352000E+00	 6.99041000E+01
	 1.00000000E+01	-3.14016000E+00	 5.99178000E+01
	 7.50000000E+00	-3.77240000E+00	 6.98974000E+01
	 7.50000000E+00	-3.14016000E+00	 5.99178000E+01
	 5.00000000E+00	-5.22936000E+00	 5.97717000E+01
	 5.00000000E+00	-6.31807000E+00	 6.97127000E+01
	 5.00000000E+00	-5.10045000E+00	 6.98124000E+01
	 5.00000000E+00	-4.18540000E+00	 5.98538000E+01
	 5.00000000E+00	-3.88128000E+00	 6.98908000E+01
	 5.00000000E+00	-3.14016000E+00	 5.99178000E+01
	 2.50000000E+00	-5.22936000E+00	 5.97717000E+01
	 2.50000000E+00	-6.42665000E+00	 6.97023000E+01
	 2.50000000E+00	-5.20920000E+00	 6.98038000E+01
	 2.50000000E+00	-4.18540000E+00	 5.98538000E+01
	 2.50000000E+00	-3.99015000E+00	 6.98841000E+01
	 2.50000000E+00	-3.14016000E+00	 5.99178000E+01
	 0.00000000E+00	-5.22936000E+00	 5.97717000E+01
	 0.00000000E+00	-6.53523000E+00	 6.96918000E+01
	 0.00000000E+00	-5.31794000E+00	 6.97952000E+01
	 0.00000000E+00	-4.18540000E+00	 5.98538000E+01
	 0.00000000E+00	-4.09903000E+00	 6.98774000E+01
	 0.00000000E+00	-3.14016000E+00	 5.99178000E+01
	 1.00000000E+01	-6.97247000E+00	 7.96956000E+01
	 1.00000000E+01	-5.58052000E+00	 7.98051000E+01
	 7.50000000E+00	-7.18962000E+00	 7.96747000E+01
	 7.50000000E+00	-5.79801000E+00	 7.97880000E+01
	 1.00000000E+01	-4.18688000E+00	 7.98904000E+01
	 7.50000000E+00	-4.40464000E+00	 7.98770000E+01
	 5.00000000E+00	-7.40678000E+00	 7.96538000E+01
	 5.00000000E+00	-6.01550000E+00	 7.97709000E+01
	 5.00000000E+00	-4.62239000E+00	 7.98637000E+01
	 2.50000000E+00	-7.62394000E+00	 7.96328000E+01
	 2.50000000E+00	-6.23299000E+00	 7.97538000E+01
	 2.50000000E+00	-4.84015000E+00	 7.98504000E+01
	 0.00000000E+00	-7.84110000E+00	 7.96119000E+01
	 8.88178000E-16	-6.45048000E+00	 7.97367000E+01
	 0.00000000E+00	-5.05791000E+00	 7.98371000E+01
	 1.00000000E+01	-7.84402000E+00	 8.96575000E+01
	 1.00000000E+01	-6.27808000E+00	 8.97808000E+01
	 7.50000000E+00	-8.16976000E+00	 8.96262000E+01
	 7.50000000E+00	-6.60432000E+00	 8.97551000E+01
	 1.00000000E+01	-4.71024000E+00	 8.98767000E+01
	 7.50000000E+00	-5.03687000E+00	 8.98567000E+01
	 5.00000000E+00	-8.49549000E+00	 8.95948000E+01
	 5.00000000E+00	-6.93056000E+00	 8.97294000E+01
	 5.00000000E+00	-5.36351000E+00	 8.98367000E+01
	 2.50000000E+00	-8.82123000E+00	 8.95634000E+01
	 2.50000000E+00	-7.25679000E+00	 8.97037000E+01
	 2.50000000E+00	-5.69014000E+00	 8.98167000E+01
	 0.00000000E+00	-9.14697000E+00	 8.95321000E+01
	-8.88178000E-16	-7.58303000E+00	 8.96781000E+01
	 0.00000000E+00	-6.01678000E+00	 8.97967000E+01
	 1.00000000E+01	-8.71557000E+00	 9.96195000E+01
	 1.00000000E+01	-6.97565000E+00	 9.97564000E+01
	 7.50000000E+00	-9.14989000E+00	 9.95777000E+01
	 7.50000000E+00	-7.41063000E+00	 9.97222000E+01
	 1.00000000E+01	-5.23360000E+00	 9.98630000E+01
	 7.50000000E+00	-5.66911000E+00	 9.98363000E+01
	 5.00000000E+00	-9.58420000E+00	 9.95358000E+01
	 5.00000000E+00	-7.84561000E+00	 9.96879000E+01
	 5.00000000E+00	-6.10463000E+00	 9.98097000E+01
	 2.50000000E+00	-1.00185000E+01	 9.94940000E+01
	 2.50000000E+00	-8.28059000E+00	 9.96537000E+01
	 2.50000000E+00	-6.54014000E+00	 9.97830000E+01
	 0.00000000E+00	-1.04528000E+01	 9.94522000E+01
	 0.00000000E+00	-8.71557000E+00	 9.96195000E+01
	 0.00000000E+00	-6.97565000E+00	 9.97564000E+01
	 7.50000000E+00	-6.74063000E+00	 2.01868000E+02
	 1.00000000E+01	-5.11153000E+00	 2.01935000E+02
	 7.50000000E+00	-6.70726000E+00	 2.00868000E+02
	 1.00000000E+01	-5.08622000E+00	 2.00936000E+02
	 7.50000000E+00	-6.03594000E+00	 2.01890000E+02
	 1.00000000E+01	-4.40661000E+00	 2.01952000E+02
	 7.50000000E+00	-6.00606000E+00	 2.00891000E+02
	 1.00000000E+01	-4.38480000E+00	 2.00952000E+02
	 7.50000000E+00	-6.67389000E+00	 1.99869000E+02
	 1.00000000E+01	-5.06092000E+00	 1.99936000E+02
	 7.50000000E+00	-5.97617000E+00	 1.99891000E+02
	 1.00000000E+01	-4.36298000E+00	 1.99952000E+02
	 5.00000000E+00	-8.36973000E+00	 2.01800000E+02
	 5.00000000E+00	-8.32829000E+00	 2.00801000E+02
	 5.00000000E+00	-7.66527000E+00	 2.01828000E+02
	 5.00000000E+00	-7.62732000E+00	 2.00829000E+02
	 5.00000000E+00	-8.28686000E+00	 1.99802000E+02
	 5.00000000E+00	-7.58937000E+00	 1.99830000E+02
	 2.50000000E+00	-9.99883000E+00	 2.01733000E+02
	 2.50000000E+00	-9.94933000E+00	 2.00734000E+02
	 2.50000000E+00	-9.29459000E+00	 2.01766000E+02
	 2.50000000E+00	-9.24858000E+00	 2.00767000E+02
	 2.50000000E+00	-9.89983000E+00	 1.99735000E+02
	 2.50000000E+00	-9.20257000E+00	 1.99769000E+02
	 0.00000000E+00	-1.16279000E+01	 2.01665000E+02
	 0.00000000E+00	-1.15704000E+01	 2.00667000E+02
	 0.00000000E+00	-1.09239000E+01	 2.01704000E+02
	 0.00000000E+00	-1.08698000E+01	 2.00706000E+02
	 0.00000000E+00	-1.15128000E+01	 1.99668000E+02
	 0.00000000E+00	-1.08158000E+01	 1.99707000E+02
	 1.00000000E+01	-5.29925000E+00	 1.12370000E+02
	 1.00000000E+01	-4.44931000E+00	 1.12409000E+02
	 1.00000000E+01	-4.36194000E+00	 9.99048000E+01
	 7.50000000E+00	-5.88191000E+00	 1.12337000E+02
	 7.50000000E+00	-5.03220000E+00	 1.12380000E+02
	 7.50000000E+00	-4.79767000E+00	 9.98820000E+01
	 1.00000000E+01	-3.59908000E+00	 1.12441000E+02
	 1.00000000E+01	-3.48995000E+00	 9.99391000E+01
	 7.50000000E+00	-4.18215000E+00	 1.12416000E+02
	 7.50000000E+00	-3.92586000E+00	 9.99200000E+01
	 5.00000000E+00	-6.46458000E+00	 1.12305000E+02
	 5.00000000E+00	-5.61508000E+00	 1.12352000E+02
	 5.00000000E+00	-5.23340000E+00	 9.98591000E+01
	 5.00000000E+00	-4.76522000E+00	 1.12392000E+02
	 5.00000000E+00	-4.36177000E+00	 9.99010000E+01
	 2.50000000E+00	-7.04724000E+00	 1.12273000E+02
	 2.50000000E+00	-6.19797000E+00	 1.12324000E+02
	 2.50000000E+00	-5.66913000E+00	 9.98363000E+01
	 2.50000000E+00	-5.34830000E+00	 1.12368000E+02
	 2.50000000E+00	-4.79769000E+00	 9.98820000E+01
	 0.00000000E+00	-7.62991000E+00	 1.12240000E+02
	 0.00000000E+00	-6.78085000E+00	 1.12295000E+02
	 0.00000000E+00	-6.10486000E+00	 9.98135000E+01
	 0.00000000E+00	-5.93137000E+00	 1.12343000E+02
	 0.00000000E+00	-5.23360000E+00	 9.98630000E+01
	 1.00000000E+01	-5.36490000E+00	 1.24876000E+02
	 1.00000000E+01	-4.53668000E+00	 1.24913000E+02
	 7.50000000E+00	-6.09471000E+00	 1.24838000E+02
	 7.50000000E+00	-5.26672000E+00	 1.24879000E+02
	 1.00000000E+01	-3.70821000E+00	 1.24942000E+02
	 7.50000000E+00	-4.43844000E+00	 1.24913000E+02
	 5.00000000E+00	-6.82453000E+00	 1.24800000E+02
	 5.00000000E+00	-5.99676000E+00	 1.24845000E+02
	 5.00000000E+00	-5.16867000E+00	 1.24883000E+02
	 2.50000000E+00	-7.55435000E+00	 1.24762000E+02
	 2.50000000E+00	-6.72680000E+00	 1.24811000E+02
	 2.50000000E+00	-5.89891000E+00	 1.24854000E+02
	 0.00000000E+00	-8.28417000E+00	 1.24724000E+02
	 8.88178000E-16	-7.45684000E+00	 1.24777000E+02
	 0.00000000E+00	-6.62914000E+00	 1.24824000E+02
	 1.00000000E+01	-5.43055000E+00	 1.37383000E+02
	 1.00000000E+01	-4.62406000E+00	 1.37417000E+02
	 7.50000000E+00	-6.30752000E+00	 1.37339000E+02
	 7.50000000E+00	-5.50125000E+00	 1.37377000E+02
	 1.00000000E+01	-3.81734000E+00	 1.37444000E+02
	 7.50000000E+00	-4.69473000E+00	 1.37409000E+02
	 5.00000000E+00	-7.18448000E+00	 1.37296000E+02
	 5.00000000E+00	-6.37845000E+00	 1.37338000E+02
	 5.00000000E+00	-5.57212000E+00	 1.37374000E+02
	 2.50000000E+00	-8.06145000E+00	 1.37252000E+02
	 2.50000000E+00	-7.25564000E+00	 1.37298000E+02
	 2.50000000E+00	-6.44952000E+00	 1.37339000E+02
[...]
POINT_DATA 1001
FIELD SENFREQ 1
	SENFREQ 2 1001 double
		-3.39966000E+04	-2.91726000E-01
		-4.00953000E+04	-3.44060000E-01
		-5.43622000E+04	-4.66485000E-01
		-3.77693000E+04	-3.24100000E-01
		-5.11640000E+04	-4.39041000E-01
		-5.67456000E+04	-4.86936000E-01
		 0.00000000E+00	 0.00000000E+00
		-5.24652000E+04	-4.50206000E-01
		-5.16385000E+04	-4.43112000E-01
		-3.60511000E+04	-3.09356000E-01
		 0.00000000E+00	 0.00000000E+00
		-4.99915000E+04	-4.28979000E-01
		-3.36746000E+04	-2.88964000E-01
		-3.88062000E+04	-3.32998000E-01
		-5.17195000E+04	-4.43808000E-01
		-3.65865000E+04	-3.13950000E-01
		-2.94017000E+04	-2.52297000E-01
		-2.91185000E+04	-2.49867000E-01
		-4.08825000E+04	-3.50814000E-01
		-5.50783000E+04	-4.72629000E-01
		-5.77082000E+04	-4.95197000E-01
		 0.00000000E+00	 0.00000000E+00
		-5.21720000E+04	-4.47691000E-01
		 0.00000000E+00	 0.00000000E+00
		-3.92515000E+04	-3.36819000E-01
		-5.23844000E+04	-4.49513000E-01
		-2.82502000E+04	-2.42416000E-01
		-4.17320000E+04	-3.58104000E-01
		-5.59241000E+04	-4.79888000E-01
		-5.88135000E+04	-5.04681000E-01
		 0.00000000E+00	 0.00000000E+00
		-5.28289000E+04	-4.53327000E-01
		 0.00000000E+00	 0.00000000E+00
		-3.98399000E+04	-3.41868000E-01
		-5.31887000E+04	-4.56415000E-01
		-2.85509000E+04	-2.44997000E-01
		-4.35627000E+04	-3.73813000E-01
		-5.65902000E+04	-4.85603000E-01
		-4.62706000E+04	-3.97050000E-01
		 0.00000000E+00	 0.00000000E+00
		-5.34361000E+04	-4.58538000E-01
		 0.00000000E+00	 0.00000000E+00
		-4.19721000E+04	-3.60165000E-01
		-5.38209000E+04	-4.61839000E-01
		-2.86778000E+04	-2.46085000E-01
		 0.00000000E+00	 0.00000000E+00
		 0.00000000E+00	 0.00000000E+00
		 4.40222000E+03	 3.77756000E-02
		 6.24375000E+03	 5.35779000E-02
		 0.00000000E+00	 0.00000000E+00
		 0.00000000E+00	 0.00000000E+00
		 0.00000000E+00	 0.00000000E+00
		 3.79307000E+03	 3.25485000E-02
		 7.84777000E+02	 6.73421000E-03
		 3.33080000E+02	 2.85818000E-03
		 0.00000000E+00	 0.00000000E+00
		 4.02956000E+02	 3.45778000E-03
		 0.00000000E+00	 0.00000000E+00
		 0.00000000E+00	 0.00000000E+00
		 0.00000000E+00	 0.00000000E+00
		 8.84384000E+02	 7.58894000E-03
		 0.00000000E+00	 0.00000000E+00
		 5.94064000E+02	 5.09769000E-03
		 0.00000000E+00	 0.00000000E+00
		 0.00000000E+00	 0.00000000E+00
		 0.00000000E+00	 0.00000000E+00
		 1.41236000E+03	 1.21195000E-02
		 0.00000000E+00	 0.00000000E+00
		 9.78719000E+02	 8.39844000E-03
		 0.00000000E+00	 0.00000000E+00
		 0.00000000E+00	 0.00000000E+00
		 0.00000000E+00	 0.00000000E+00
		 1.63794000E+03	 1.40552000E-02
		 0.00000000E+00	 0.00000000E+00
		 1.16327000E+03	 9.98204000E-03
		 0.00000000E+00	 0.00000000E+00
		 3.98828000E+03	 3.42236000E-02
		 0.00000000E+00	 0.00000000E+00
		 0.00000000E+00	 0.00000000E+00
		 3.68770000E+03	 3.16443000E-02
		 0.00000000E+00	 0.00000000E+00
		 0.00000000E+00	 0.00000000E+00
		 0.00000000E+00	 0.00000000E+00
		 0.00000000E+00	 0.00000000E+00
		 0.00000000E+00	 0.00000000E+00
		 0.00000000E+00	 0.00000000E+00
		 0.00000000E+00	 0.00000000E+00
		 0.00000000E+00	 0.00000000E+00
		 0.00000000E+00	 0.00000000E+00
		 0.00000000E+00	 0.00000000E+00
		 0.00000000E+00	 0.00000000E+00
		 2.84648000E+04	 2.44257000E-01
		 0.00000000E+00	 0.00000000E+00
		 0.00000000E+00	 0.00000000E+00
		 1.24654000E+04	 1.06966000E-01
		 0.00000000E+00	 0.00000000E+00
		 0.00000000E+00	 0.00000000E+00
		 0.00000000E+00	 0.00000000E+00
		 0.00000000E+00	 0.00000000E+00
		 0.00000000E+00	 0.00000000E+00
		 0.00000000E+00	 0.00000000E+00
		 0.00000000E+00	 0.00000000E+00
		 0.00000000E+00	 0.00000000E+00
		 0.00000000E+00	 0.00000000E+00
		 0.00000000E+00	 0.00000000E+00
		 0.00000000E+00	 0.00000000E+00
		 2.89011000E+04	 2.48002000E-01
		 0.00000000E+00	 0.00000000E+00
		 2.22344000E+04	 1.90795000E-01
		 4.15994000E+04	 3.56967000E-01
		 3.71968000E+04	 3.19187000E-01
		 0.00000000E+00	 0.00000000E+00
		 1.01328000E+04	 8.69498000E-02
		 2.07094000E+04	 1.77708000E-01
		 0.00000000E+00	 0.00000000E+00
		 3.68167000E+03	 3.15926000E-02
		 1.14555000E+04	 9.82997000E-02
		 0.00000000E+00	 0.00000000E+00
		 2.75040000E+03	 2.36013000E-02
		 7.45481000E+03	 6.39700000E-02
		-5.00246000E+04	-4.29263000E-01
		-3.49794000E+04	-3.00160000E-01
		 0.00000000E+00	 0.00000000E+00
		-4.85028000E+04	-4.16205000E-01
		-4.88851000E+04	-4.19485000E-01
		-3.40405000E+04	-2.92103000E-01
		 0.00000000E+00	 0.00000000E+00
		-4.72404000E+04	-4.05372000E-01
		 0.00000000E+00	 0.00000000E+00
		-4.27419000E+04	-3.66771000E-01
		-2.85454000E+04	-2.44950000E-01
		-5.32420000E+03	-4.56872000E-02
		-5.04484000E+04	-4.32900000E-01
		 0.00000000E+00	 0.00000000E+00
		-4.94220000E+04	-4.24092000E-01
		 0.00000000E+00	 0.00000000E+00
		 0.00000000E+00	 0.00000000E+00
		-2.64030000E+04	-2.26566000E-01
		-5.10330000E+04	-4.37917000E-01
		 0.00000000E+00	 0.00000000E+00
		-5.01151000E+04	-4.30040000E-01
		 0.00000000E+00	 0.00000000E+00
		 0.00000000E+00	 0.00000000E+00
		-2.62912000E+04	-2.25606000E-01
		-5.16337000E+04	-4.43071000E-01
		 0.00000000E+00	 0.00000000E+00
		-5.08113000E+04	-4.36014000E-01
		 0.00000000E+00	 0.00000000E+00
		 0.00000000E+00	 0.00000000E+00
		-2.59848000E+04	-2.22976000E-01
		 7.21296000E+04	 6.18947000E-01
		 1.12634000E+05	 9.66519000E-01
		 8.36111000E+04	 7.17470000E-01
		 6.99093000E+04	 5.99895000E-01
		 0.00000000E+00	 0.00000000E+00
		 0.00000000E+00	 0.00000000E+00
		 6.72324000E+04	 5.76925000E-01
		 5.44733000E+04	 4.67438000E-01
		 8.52402000E+04	 7.31450000E-01
		 1.16536000E+05	 1.00000000E+00
		 4.61163000E+04	 3.95726000E-01
		 0.00000000E+00	 0.00000000E+00
		 0.00000000E+00	 0.00000000E+00
		 5.60044000E+04	 4.80576000E-01
		 7.62179000E+04	 6.54029000E-01
		 2.80708000E+04	 2.40876000E-01
		 0.00000000E+00	 0.00000000E+00
		 0.00000000E+00	 0.00000000E+00
		 3.37371000E+04	 2.89500000E-01
		 4.87094000E+04	 4.17977000E-01
		 1.58404000E+04	 1.35927000E-01
		 0.00000000E+00	 0.00000000E+00
		 0.00000000E+00	 0.00000000E+00
		 1.83574000E+04	 1.57526000E-01
		 2.94538000E+04	 2.52744000E-01
		 5.44266000E+04	 4.67037000E-01
		 7.39455000E+04	 6.34530000E-01
		 5.39604000E+04	 4.63037000E-01
		 0.00000000E+00	 0.00000000E+00
		 4.17261000E+04	 3.58054000E-01
		 5.36352000E+04	 4.60246000E-01
		 3.80580000E+04	 3.26578000E-01
		 0.00000000E+00	 0.00000000E+00
		 3.61364000E+04	 3.10089000E-01
		 2.50546000E+04	 2.14994000E-01
		 0.00000000E+00	 0.00000000E+00
		 2.22336000E+04	 1.90788000E-01
		 1.50329000E+04	 1.28998000E-01
		 0.00000000E+00	 0.00000000E+00
		 1.18585000E+04	 1.01759000E-01
		 3.49896000E+04	 3.00248000E-01
		 4.29236000E+04	 3.68329000E-01
		 3.48774000E+04	 2.99285000E-01
		 0.00000000E+00	 0.00000000E+00
		 2.08948000E+04	 1.79300000E-01
		 2.78386000E+04	 2.38884000E-01
		 2.53302000E+04	 2.17360000E-01
		 0.00000000E+00	 0.00000000E+00
		 1.85184000E+04	 1.58908000E-01
		 1.73423000E+04	 1.48815000E-01
		 0.00000000E+00	 0.00000000E+00
		 1.13129000E+04	 9.70768000E-02
		 1.07350000E+04	 9.21172000E-02
		 0.00000000E+00	 0.00000000E+00
		 5.84508000E+03	 5.01569000E-02
		 1.64944000E+04	 1.41539000E-01
		 1.73352000E+04	 1.48754000E-01
		 1.63240000E+04	 1.40077000E-01
		 0.00000000E+00	 0.00000000E+00
		 7.18237000E+03	 6.16322000E-02
		 9.20214000E+03	 7.89640000E-02
		 1.17201000E+04	 1.00570000E-01
		 0.00000000E+00	 0.00000000E+00
		 5.17882000E+03	 4.44397000E-02
		 7.63395000E+03	 6.55073000E-02
		 0.00000000E+00	 0.00000000E+00
		 2.10321000E+03	 1.80477000E-02
		 3.88210000E+03	 3.33125000E-02
		 0.00000000E+00	 0.00000000E+00
		-3.98522000E+02	-3.41973000E-03
		-2.29105000E+02	-1.96596000E-03
		-2.35422000E+03	-2.02017000E-02
		-1.33885000E+03	-1.14888000E-02
		 0.00000000E+00	 0.00000000E+00
		-2.42797000E+03	-2.08345000E-02
		-5.68805000E+03	-4.88094000E-02
		-2.88495000E+03	-2.47559000E-02
		 0.00000000E+00	 0.00000000E+00
		-6.86843000E+03	-5.89383000E-02
		-4.40882000E+03	-3.78323000E-02
		 0.00000000E+00	 0.00000000E+00
		-7.72039000E+03	-6.62490000E-02
		-6.03069000E+03	-5.17496000E-02
		 0.00000000E+00	 0.00000000E+00
		-8.48439000E+03	-7.28050000E-02
		-1.50752000E+04	-1.29361000E-01
		-1.84737000E+04	-1.58523000E-01
		-1.76405000E+04	-1.51374000E-01
		 0.00000000E+00	 0.00000000E+00
		-9.77959000E+03	-8.39191000E-02
		-1.91571000E+04	-1.64388000E-01
		-1.77911000E+04	-1.52666000E-01
		 0.00000000E+00	 0.00000000E+00
		-1.92108000E+04	-1.64848000E-01
		-1.80940000E+04	-1.55265000E-01
		 0.00000000E+00	 0.00000000E+00
		-1.92070000E+04	-1.64816000E-01
		-1.85010000E+04	-1.58758000E-01
		 0.00000000E+00	 0.00000000E+00
		-1.91750000E+04	-1.64542000E-01
		-2.86486000E+04	-2.45835000E-01
		-3.28554000E+04	-2.81934000E-01
		-3.29271000E+04	-2.82549000E-01
		 0.00000000E+00	 0.00000000E+00
		-1.61773000E+04	-1.38818000E-01
		-3.26634000E+04	-2.80286000E-01
		-3.28551000E+04	-2.81931000E-01
		 0.00000000E+00	 0.00000000E+00
		-3.26149000E+04	-2.79870000E-01
		-3.29363000E+04	-2.82628000E-01
		 0.00000000E+00	 0.00000000E+00
		-3.26144000E+04	-2.79865000E-01
		-3.29183000E+04	-2.82473000E-01
		 0.00000000E+00	 0.00000000E+00
		-3.24212000E+04	-2.78208000E-01
		 8.15831000E+02	 7.00068000E-03
		 3.30979000E+02	 2.84015000E-03
		 0.00000000E+00	 0.00000000E+00
		 4.11394000E+02	 3.53019000E-03
		 8.26380000E+02	 7.09120000E-03
		 3.31432000E+02	 2.84403000E-03
		 0.00000000E+00	 0.00000000E+00
		 4.21835000E+02	 3.61979000E-03
		 0.00000000E+00	 0.00000000E+00
		 5.86974000E+02	 5.03685000E-03
		 0.00000000E+00	 0.00000000E+00
		 6.01369000E+02	 5.16038000E-03
		 0.00000000E+00	 0.00000000E+00
		 1.14253000E+03	 9.80412000E-03
		 0.00000000E+00	 0.00000000E+00
		 9.96139000E+02	 8.54791000E-03
		 0.00000000E+00	 0.00000000E+00
		 1.75419000E+03	 1.50527000E-02
		 0.00000000E+00	 0.00000000E+00
		 1.27697000E+03	 1.09577000E-02
		 3.74378000E+03	 3.21255000E-02
		 0.00000000E+00	 0.00000000E+00
		 3.73987000E+03	 3.20920000E-02
		 0.00000000E+00	 0.00000000E+00
		 0.00000000E+00	 0.00000000E+00
		 0.00000000E+00	 0.00000000E+00
		 0.00000000E+00	 0.00000000E+00
		 0.00000000E+00	 0.00000000E+00
		 0.00000000E+00	 0.00000000E+00
		 0.00000000E+00	 0.00000000E+00
		 1.19888000E+04	 1.02877000E-01
		 0.00000000E+00	 0.00000000E+00
		 1.18118000E+04	 1.01358000E-01
		 0.00000000E+00	 0.00000000E+00
		 0.00000000E+00	 0.00000000E+00
		 0.00000000E+00	 0.00000000E+00
		 0.00000000E+00	 0.00000000E+00
		 0.00000000E+00	 0.00000000E+00
		 0.00000000E+00	 0.00000000E+00
		 0.00000000E+00	 0.00000000E+00
		-4.71332000E+04	-4.04452000E-01
		-3.26484000E+04	-2.80157000E-01
		 0.00000000E+00	 0.00000000E+00
		-4.53127000E+04	-3.88830000E-01
		-3.20939000E+04	-2.75399000E-01
		-2.39777000E+04	-2.05754000E-01
		-4.36591000E+04	-3.74641000E-01
		-1.65648000E+04	-1.42144000E-01
		-4.47494000E+04	-3.83997000E-01
		-3.16164000E+04	-2.71302000E-01
		-3.03841000E+04	-2.60727000E-01
		-2.30778000E+04	-1.98032000E-01
		-4.79146000E+04	-4.11158000E-01
		 0.00000000E+00	 0.00000000E+00
		-3.27637000E+04	-2.81147000E-01
		-4.47633000E+04	-3.84116000E-01
		-4.54800000E+04	-3.90266000E-01
		-3.11210000E+04	-2.67050000E-01
		-4.88363000E+04	-4.19067000E-01
		 0.00000000E+00	 0.00000000E+00
		-3.34435000E+04	-2.86980000E-01
		-4.60288000E+04	-3.94976000E-01
		-4.63292000E+04	-3.97553000E-01
		-3.20509000E+04	-2.75030000E-01
		-4.96291000E+04	-4.25869000E-01
		 0.00000000E+00	 0.00000000E+00
		-3.22887000E+04	-2.77071000E-01
		-3.64486000E+04	-3.12768000E-01
		-4.70327000E+04	-4.03590000E-01
		-3.07395000E+04	-2.63777000E-01
		 1.49853000E+03	 1.28589000E-02
		 6.65758000E+02	 5.71290000E-03
		 0.00000000E+00	 0.00000000E+00
		-4.56582000E+02	-3.91795000E-03
		 0.00000000E+00	 0.00000000E+00
		 0.00000000E+00	 0.00000000E+00
		 0.00000000E+00	 0.00000000E+00
		 0.00000000E+00	 0.00000000E+00
		 0.00000000E+00	 0.00000000E+00
		 1.47904000E+02	 1.26917000E-03
		 0.00000000E+00	 0.00000000E+00
		 0.00000000E+00	 0.00000000E+00
		 0.00000000E+00	 0.00000000E+00
		 5.23152000E+02	 4.48919000E-03
		 0.00000000E+00	 0.00000000E+00
		 0.00000000E+00	 0.00000000E+00
		 0.00000000E+00	 0.00000000E+00
		 9.96182000E+02	 8.54829000E-03
		 0.00000000E+00	 0.00000000E+00
		 0.00000000E+00	 0.00000000E+00
		 2.78392000E+03	 2.38890000E-02
		 0.00000000E+00	 0.00000000E+00
		 0.00000000E+00	 0.00000000E+00
		 0.00000000E+00	 0.00000000E+00
		 0.00000000E+00	 0.00000000E+00
		 0.00000000E+00	 0.00000000E+00
		 0.00000000E+00	 0.00000000E+00
		 0.00000000E+00	 0.00000000E+00
		 0.00000000E+00	 0.00000000E+00
		 0.00000000E+00	 0.00000000E+00
		 2.40400000E+04	 2.06288000E-01
		 0.00000000E+00	 0.00000000E+00
		 0.00000000E+00	 0.00000000E+00
		 0.00000000E+00	 0.00000000E+00
		 0.00000000E+00	 0.00000000E+00
		 0.00000000E+00	 0.00000000E+00
		 0.00000000E+00	 0.00000000E+00
		 0.00000000E+00	 0.00000000E+00
		 0.00000000E+00	 0.00000000E+00
		 0.00000000E+00	 0.00000000E+00
		 2.50891000E+04	 2.15291000E-01
		 4.50313000E+04	 3.86416000E-01
		 0.00000000E+00	 0.00000000E+00
		 0.00000000E+00	 0.00000000E+00
		 3.09784000E+04	 2.65827000E-01
		 0.00000000E+00	 0.00000000E+00
		 1.57320000E+04	 1.34997000E-01
		 0.00000000E+00	 0.00000000E+00
		 8.21087000E+03	 7.04578000E-02
		 0.00000000E+00	 0.00000000E+00
		-3.51874000E+04	-3.01944000E-01
		-3.82085000E+04	-3.27869000E-01
		-5.24522000E+04	-4.50095000E-01
		-5.23722000E+04	-4.49409000E-01
		-4.27407000E+04	-3.66760000E-01
		-5.56348000E+04	-4.77405000E-01
		 0.00000000E+00	 0.00000000E+00
		 0.00000000E+00	 0.00000000E+00
		-2.80326000E+04	-2.40549000E-01
		-2.74908000E+04	-2.35900000E-01
		 0.00000000E+00	 0.00000000E+00
		 0.00000000E+00	 0.00000000E+00
		-3.69071000E+04	-3.16702000E-01
		-3.99548000E+04	-3.42854000E-01
		-5.52070000E+04	-4.73733000E-01
		-5.51049000E+04	-4.72858000E-01
		-5.37522000E+04	-4.61250000E-01
		-5.40789000E+04	-4.64054000E-01
		-3.89315000E+04	-3.34073000E-01
		-5.28734000E+04	-4.53709000E-01
		-5.69212000E+04	-4.88444000E-01
		 0.00000000E+00	 0.00000000E+00
		-2.82836000E+04	-2.42703000E-01
		 0.00000000E+00	 0.00000000E+00
		-4.06803000E+04	-3.49080000E-01
		-5.56340000E+04	-4.77398000E-01
		-5.35753000E+04	-4.59732000E-01
		-3.98232000E+04	-3.41725000E-01
		-5.34316000E+04	-4.58499000E-01
		-5.83827000E+04	-5.00985000E-01
		 0.00000000E+00	 0.00000000E+00
		-2.86422000E+04	-2.45780000E-01
		 0.00000000E+00	 0.00000000E+00
		-4.14444000E+04	-3.55636000E-01
		-5.61968000E+04	-4.82227000E-01
		-5.35184000E+04	-4.59244000E-01
		 0.00000000E+00	 0.00000000E+00
		 0.00000000E+00	 0.00000000E+00
		 0.00000000E+00	 0.00000000E+00
		 1.12096000E+03	 9.61900000E-03
		 0.00000000E+00	 0.00000000E+00
		 6.70264000E+02	 5.75157000E-03
		 0.00000000E+00	 0.00000000E+00
		 0.00000000E+00	 0.00000000E+00
		 0.00000000E+00	 0.00000000E+00
		 7.72408000E+02	 6.62807000E-03
		 0.00000000E+00	 0.00000000E+00
		 5.79654000E+02	 4.97404000E-03
		 0.00000000E+00	 0.00000000E+00
		 0.00000000E+00	 0.00000000E+00
		 0.00000000E+00	 0.00000000E+00
		 7.21203000E+02	 6.18868000E-03
		 0.00000000E+00	 0.00000000E+00
		 4.95365000E+02	 4.25075000E-03
		 0.00000000E+00	 0.00000000E+00
		 0.00000000E+00	 0.00000000E+00
		 0.00000000E+00	 0.00000000E+00
		 6.08480000E+02	 5.22140000E-03
		 0.00000000E+00	 0.00000000E+00
		 4.28662000E+02	 3.67837000E-03
		 0.00000000E+00	 0.00000000E+00
		 0.00000000E+00	 0.00000000E+00
		 0.00000000E+00	 0.00000000E+00
		 0.00000000E+00	 0.00000000E+00
		 0.00000000E+00	 0.00000000E+00
		 0.00000000E+00	 0.00000000E+00
		 0.00000000E+00	 0.00000000E+00
		 0.00000000E+00	 0.00000000E+00
		 0.00000000E+00	 0.00000000E+00
		 0.00000000E+00	 0.00000000E+00
		 0.00000000E+00	 0.00000000E+00
		 0.00000000E+00	 0.00000000E+00
		 0.00000000E+00	 0.00000000E+00
		 0.00000000E+00	 0.00000000E+00
		 0.00000000E+00	 0.00000000E+00
		 0.00000000E+00	 0.00000000E+00
		 0.00000000E+00	 0.00000000E+00
		 0.00000000E+00	 0.00000000E+00
		 0.00000000E+00	 0.00000000E+00
		 0.00000000E+00	 0.00000000E+00
		 0.00000000E+00	 0.00000000E+00
		 0.00000000E+00	 0.00000000E+00
		 0.00000000E+00	 0.00000000E+00
		 0.00000000E+00	 0.00000000E+00
		 0.00000000E+00	 0.00000000E+00
		 2.51474000E+03	 2.15791000E-02
		 6.48585000E+03	 5.56554000E-02
		 0.00000000E+00	 0.00000000E+00
		 4.75884000E+03	 4.08358000E-02
		 8.81831000E+03	 7.56704000E-02
		 0.00000000E+00	 0.00000000E+00
		 8.06825000E+03	 6.92340000E-02
		 1.46858000E+04	 1.26020000E-01
		 0.00000000E+00	 0.00000000E+00
		 1.11163000E+04	 9.53892000E-02
		 2.49484000E+04	 2.14084000E-01
		 0.00000000E+00	 0.00000000E+00
		 0.00000000E+00	 0.00000000E+00
		 0.00000000E+00	 0.00000000E+00
		 0.00000000E+00	 0.00000000E+00
		-2.75548000E+04	-2.36449000E-01
		-2.76638000E+04	-2.37384000E-01
		 0.00000000E+00	 0.00000000E+00
		 0.00000000E+00	 0.00000000E+00
		-5.28562000E+04	-4.53562000E-01
		-5.33606000E+04	-4.57889000E-01
		-5.12736000E+04	-4.39981000E-01
		-5.16187000E+04	-4.42943000E-01
		 0.00000000E+00	 0.00000000E+00
		 0.00000000E+00	 0.00000000E+00
		-2.70361000E+04	-2.31998000E-01
		 0.00000000E+00	 0.00000000E+00
		-5.23591000E+04	-4.49296000E-01
		-5.10428000E+04	-4.38001000E-01
		 0.00000000E+00	 0.00000000E+00
		 0.00000000E+00	 0.00000000E+00
		-2.65196000E+04	-2.27566000E-01
		 0.00000000E+00	 0.00000000E+00
		-5.19764000E+04	-4.46012000E-01
		-5.09364000E+04	-4.37088000E-01
		 9.29663000E+03	 7.97748000E-02
		 0.00000000E+00	 0.00000000E+00
		 0.00000000E+00	 0.00000000E+00
		 8.85684000E+03	 7.60010000E-02
		 1.59743000E+04	 1.37076000E-01
		 7.59943000E+03	 6.52110000E-02
		 0.00000000E+00	 0.00000000E+00
		 0.00000000E+00	 0.00000000E+00
		 4.87374000E+03	 4.18218000E-02
		 7.90664000E+03	 6.78473000E-02
		 1.08972000E+04	 9.35093000E-02
		 0.00000000E+00	 0.00000000E+00
		 0.00000000E+00	 0.00000000E+00
		 6.61392000E+03	 5.67544000E-02
		 4.82299000E+03	 4.13863000E-02
		 1.95639000E+04	 1.67879000E-01
		 0.00000000E+00	 0.00000000E+00
		 0.00000000E+00	 0.00000000E+00
		 1.41539000E+04	 1.21456000E-01
		 7.02479000E+03	 6.02800000E-02
		 8.82287000E+03	 7.57095000E-02
		 0.00000000E+00	 0.00000000E+00
		 5.33485000E+03	 4.57786000E-02
		 6.52444000E+03	 5.59865000E-02
		 0.00000000E+00	 0.00000000E+00
		 2.88880000E+03	 2.47889000E-02
		 7.99549000E+03	 6.86097000E-02
		 0.00000000E+00	 0.00000000E+00
		 4.81229000E+03	 4.12945000E-02
		 1.36089000E+04	 1.16779000E-01
		 0.00000000E+00	 0.00000000E+00
		 1.09859000E+04	 9.42706000E-02
		 6.07400000E+03	 5.21213000E-02
		 0.00000000E+00	 0.00000000E+00
		 2.01227000E+03	 1.72673000E-02
		 3.77259000E+03	 3.23728000E-02
		 0.00000000E+00	 0.00000000E+00
		 5.74001000E+02	 4.92553000E-03
		 3.78991000E+03	 3.25214000E-02
		 0.00000000E+00	 0.00000000E+00
		 1.90072000E+03	 1.63101000E-02
		 6.51322000E+03	 5.58902000E-02
		 0.00000000E+00	 0.00000000E+00
		 5.86910000E+03	 5.03630000E-02
		 7.55961000E+02	 6.48693000E-03
		 0.00000000E+00	 0.00000000E+00
		-2.48373000E+03	-2.13130000E-02
		-1.09533000E+03	-9.39908000E-03
		 0.00000000E+00	 0.00000000E+00
		-3.30885000E+03	-2.83934000E-02
		-1.75326000E+03	-1.50448000E-02
		 0.00000000E+00	 0.00000000E+00
		-2.56936000E+03	-2.20478000E-02
		-8.20599000E+02	-7.04160000E-03
		 0.00000000E+00	 0.00000000E+00
		-3.62436000E+02	-3.11008000E-03
		-7.72986000E+03	-6.63303000E-02
		 0.00000000E+00	 0.00000000E+00
		-9.46870000E+03	-8.12513000E-02
		-8.86780000E+03	-7.60950000E-02
		 0.00000000E+00	 0.00000000E+00
		-9.90239000E+03	-8.49729000E-02
		-9.62425000E+03	-8.25862000E-02
		 0.00000000E+00	 0.00000000E+00
		-9.61042000E+03	-8.24675000E-02
		-9.60238000E+03	-8.23984000E-02
		 0.00000000E+00	 0.00000000E+00
		-8.64559000E+03	-7.41882000E-02
		-1.92355000E+04	-1.65061000E-01
		 0.00000000E+00	 0.00000000E+00
		-1.95705000E+04	-1.67935000E-01
		-1.97517000E+04	-1.69490000E-01
		 0.00000000E+00	 0.00000000E+00
		-1.97572000E+04	-1.69538000E-01
		-2.03565000E+04	-1.74680000E-01
		 0.00000000E+00	 0.00000000E+00
		-1.97463000E+04	-1.69444000E-01
		-2.06071000E+04	-1.76831000E-01
		 0.00000000E+00	 0.00000000E+00
		-1.94569000E+04	-1.66960000E-01
		-3.33153000E+04	-2.85880000E-01