# vtk DataFile Version 3.0

ASCII
DATASET UNSTRUCTURED_GRID

POINTS 1001 double
	 1.00000000E+01	-1.49699000E+01	 2.01445000E+02
	 7.50000000E+00	-1.74693000E+01	 2.01196000E+02
	 7.50000000E+00	-1.24616000E+01	 2.01583000E+02
	 1.00000000E+01	-1.03958000E+01	 2.01732000E+02
	 1.00000000E+01	-1.48958000E+01	 2.00447000E+02
	 7.50000000E+00	-1.73828000E+01	 2.00200000E+02
	 7.50000000E+00	-1.23999000E+01	 2.00585000E+02
	 1.00000000E+01	-1.03444000E+01	 2.00734000E+02
	 7.50000000E+00	-7.44523000E+00	 2.01843000E+02
	 1.00000000E+01	-5.81638000E+00	 2.01916000E+02
	 7.50000000E+00	-7.40838000E+00	 2.00844000E+02
	 1.00000000E+01	-5.78758000E+00	 2.00917000E+02
	 1.00000000E+01	-1.48217000E+01	 1.99450000E+02
	 7.50000000E+00	-1.72963000E+01	 1.99204000E+02
	 7.50000000E+00	-1.23382000E+01	 1.99587000E+02
	 1.00000000E+01	-1.02929000E+01	 1.99735000E+02
	 7.50000000E+00	-7.37152000E+00	 1.99845000E+02
	 1.00000000E+01	-5.75879000E+00	 1.99917000E+02
	 5.00000000E+00	-1.99687000E+01	 2.00948000E+02
	 5.00000000E+00	-1.45273000E+01	 2.01434000E+02
	 5.00000000E+00	-1.98698000E+01	 1.99953000E+02
	 5.00000000E+00	-1.44554000E+01	 2.00437000E+02
	 5.00000000E+00	-9.07409000E+00	 2.01770000E+02
	 5.00000000E+00	-9.02917000E+00	 2.00771000E+02
	 5.00000000E+00	-1.97710000E+01	 1.98958000E+02
	 5.00000000E+00	-1.43835000E+01	 1.99440000E+02
	 5.00000000E+00	-8.98425000E+00	 1.99772000E+02
	 2.50000000E+00	-2.24681000E+01	 2.00699000E+02
	 2.50000000E+00	-1.65931000E+01	 2.01285000E+02
	 2.50000000E+00	-2.23569000E+01	 1.99706000E+02
	 2.50000000E+00	-1.65110000E+01	 2.00289000E+02
	 2.50000000E+00	-1.07029000E+01	 2.01696000E+02
	 2.50000000E+00	-1.06500000E+01	 2.00698000E+02
	 2.50000000E+00	-2.22456000E+01	 1.98712000E+02
	 2.50000000E+00	-1.64288000E+01	 1.99292000E+02
	 2.50000000E+00	-1.05970000E+01	 1.99699000E+02
	 0.00000000E+00	-2.49675000E+01	 2.00451000E+02
	 0.00000000E+00	-1.86589000E+01	 2.01136000E+02
	 0.00000000E+00	-2.48439000E+01	 1.99459000E+02
	 8.88178000E-16	-1.85665000E+01	 2.00141000E+02
	 0.00000000E+00	-1.23318000E+01	 2.01623000E+02
	 0.00000000E+00	-1.22708000E+01	 2.00625000E+02
	 0.00000000E+00	-2.47203000E+01	 1.98466000E+02
	 0.00000000E+00	-1.84741000E+01	 1.99145000E+02
	 0.00000000E+00	-1.22097000E+01	 1.99627000E+02
	 1.00000000E+01	-5.22936000E+00	 5.97717000E+01
	 1.00000000E+01	-6.10091000E+00	 6.97336000E+01
	 1.00000000E+01	-4.88296000E+00	 6.98295000E+01
	 1.00000000E+01	-4.18540000E+00	 5.98538000E+01
	 7.50000000E+00	-5.22936000E+00	 5.97717000E+01
	 7.50000000E+00	-6.20949000E+00	 6.97232000E+01
	 7.50000000E+00	-4.99171000E+00	 6.98209000E+01
	 7.50000000E+00	-4.18540000E+00	 5.98538000E+01
	 1.00000000E+01	-3.66352000E+00	 6.99041000E+01
	 1.00000000E+01	-3.14016000E+00	 5.99178000E+01
	 7.50000000E+00	-3.77240000E+00	 6.98974000E+01
	 7.50000000E+00	-3.14016000E+00	 5.99178000E+01
	 5.00000000E+00	-5.22936000E+00	 5.97717000E+01
	 5.00000000E+00	-6.31807000E+00	 6.97127000E+01
	 5.00000000E+00	-5.10045000E+00	 6.98124000E+01
	 5.00000000E+00	-4.18540000E+00	 5.98538000E+01
	 5.00000000E+00	-3.88128000E+00	 6.98908000E+01
	 5.00000000E+00	-3.14016000E+00	 5.99178000E+01
	 2.50000000E+00	-5.22936000E+00	 5.97717000E+01
	 2.50000000E+00	-6.42665000E+00	 6.97023000E+01
	 2.50000000E+00	-5.20920000E+00	 6.98038000E+01
	 2.50000000E+00	-4.18540000E+00	 5.98538000E+01
	 2.50000000E+00	-3.99015000E+00	 6.98841000E+01
	 2.50000000E+00	-3.14016000E+00	 5.99178000E+01
	 0.00000000E+00	-5.22936000E+00	 5.97717000E+01
	 0.00000000E+00	-6.53523000E+00	 6.96918000E+01
	 0.00000000E+00	-5.31794000E+00	 6.97952000E+01
	 0.00000000E+00	-4.18540000E+00	 5.98538000E+01
	 0.00000000E+00	-4.09903000E+00	 6.98774000E+01
	 0.00000000E+00	-3.14016000E+00	 5.99178000E+01
	 1.00000000E+01	-6.97247000E+00	 7.96956000E+01
	 1.00000000E+01	-5.58052000E+00	 7.98051000E+01
	 7.50000000E+00	-7.18962000E+00	 7.96747000E+01
	 7.50000000E+00	-5.79801000E+00	 7.97880000E+01
	 1.00000000E+01	-4.18688000E+00	 7.98904000E+01
	 7.50000000E+00	-4.40464000E+00	 7.98770000E+01
	 5.00000000E+00	-7.40678000E+00	 7.96538000E+01
	 5.00000000E+00	-6.01550000E+00	 7.97709000E+01
	 5.00000000E+00	-4.62239000E+00	 7.98637000E+01
	 2.50000000E+00	-7.62394000E+00	 7.96328000E+01
	 2.50000000E+00	-6.23299000E+00	 7.97538000E+01
	 2.50000000E+00	-4.84015000E+00	 7.98504000E+01
	 0.00000000E+00	-7.84110000E+00	 7.96119000E+01
	 8.88178000E-16	-6.45048000E+00	 7.97367000E+01
	 0.00000000E+00	-5.05791000E+00	 7.98371000E+01
	 1.00000000E+01	-7.84402000E+00	 8.96575000E+01
	 1.00000000E+01	-6.27808000E+00	 8.97808000E+01
	 7.50000000E+00	-8.16976000E+00	 8.96262000E+01
	 7.50000000E+00	-6.60432000E+00	 8.97551000E+01
	 1.00000000E+01	-4.71024000E+00	 8.98767000E+01
	 7.50000000E+00	-5.03687000E+00	 8.98567000E+01
	 5.00000000E+00	-8.49549000E+00	 8.95948000E+01
	 5.00000000E+00	-6.93056000E+00	 8.97294000E+01
	 5.00000000E+00	-5.36351000E+00	 8.98367000E+01
	 2.50000000E+00	-8.82123000E+00	 8.95634000E+01
	 2.50000000E+00	-7.25679000E+00	 8.97037000E+01
	 2.50000000E+00	-5.69014000E+00	 8.98167000E+01
	 0.00000000E+00	-9.14697000E+00	 8.95321000E+01
	-8.88178000E-16	-7.58303000E+00	 8.96781000E+01
	 0.00000000E+00	-6.01678000E+00	 8.97967000E+01
	 1.00000000E+01	-8.71557000E+00	 9.96195000E+01
	 1.00000000E+01	-6.97565000E+00	 9.97564000E+01
	 7.50000000E+00	-9.14989000E+00	 9.95777000E+01
	 7.50000000E+00	-7.41063000E+00	 9.97222000E+01
	 1.00000000E+01	-5.23360000E+00	 9.98630000E+01
	 7.50000000E+00	-5.66911000E+00	 9.98363000E+01
	 5.00000000E+00	-9.58420000E+00	 9.95358000E+01
	 5.00000000E+00	-7.84561000E+00	 9.96879000E+01
	 5.00000000E+00	-6.10463000E+00	 9.98097000E+01
	 2.50000000E+00	-1.00185000E+01	 9.94940000E+01
	 2.50000000E+00	-8.28059000E+00	 9.96537000E+01
	 2.50000000E+00	-6.54014000E+00	 9.97830000E+01
	 0.00000000E+00	-1.04528000E+01	 9.94522000E+01
	 0.00000000E+00	-8.71557000E+00	 9.96195000E+01
	 0.00000000E+00	-6.97565000E+00	 9.97564000E+01
	 7.50000000E+00	-6.74063000E+00	 2.01868000E+02
	 1.00000000E+01	-5.11153000E+00	 2.01935000E+02
	 7.50000000E+00	-6.70726000E+00	 2.00868000E+02
	 1.00000000E+01	-5.08622000E+00	 2.00936000E+02
	 7.50000000E+00	-6.03594000E+00	 2.01890000E+02
	 1.00000000E+01	-4.40661000E+00	 2.01952000E+02
	 7.50000000E+00	-6.00606000E+00	 2.00891000E+02
	 1.00000000E+01	-4.38480000E+00	 2.00952000E+02
	 7.50000000E+00	-6.67389000E+00	 1.99869000E+02
	 1.00000000E+01	-5.06092000E+00	 1.99936000E+02
	 7.50000000E+00	-5.97617000E+00	 1.99891000E+02
	 1.00000000E+01	-4.36298000E+00	 1.99952000E+02
	 5.00000000E+00	-8.36973000E+00	 2.01800000E+02
	 5.00000000E+00	-8.32829000E+00	 2.00801000E+02
	 5.00000000E+00	-7.66527000E+00	 2.01828000E+02
	 5.00000000E+00	-7.62732000E+00	 2.00829000E+02
	 5.00000000E+00	-8.28686000E+00	 1.99802000E+02
	 5.00000000E+00	-7.58937000E+00	 1.99830000E+02
	 2.50000000E+00	-9.99883000E+00	 2.01733000E+02
	 2.50000000E+00	-9.94933000E+00	 2.00734000E+02
	 2.50000000E+00	-9.29459000E+00	 2.01766000E+02
	 2.50000000E+00	-9.24858000E+00	 2.00767000E+02
	 2.50000000E+00	-9.89983000E+00	 1.99735000E+02
	 2.50000000E+00	-9.20257000E+00	 1.99769000E+02
	 0.00000000E+00	-1.16279000E+01	 2.01665000E+02
	 0.00000000E+00	-1.15704000E+01	 2.00667000E+02
	 0.00000000E+00	-1.09239000E+01	 2.01704000E+02
	 0.00000000E+00	-1.08698000E+01	 2.00706000E+02
	 0.00000000E+00	-1.15128000E+01	 1.99668000E+02
	 0.00000000E+00	-1.08158000E+01	 1.99707000E+02
	 1.00000000E+01	-5.29925000E+00	 1.12370000E+02
	 1.00000000E+01	-4.44931000E+00	 1.12409000E+02
	 1.00000000E+01	-4.36194000E+00	 9.99048000E+01
	 7.50000000E+00	-5.88191000E+00	 1.12337000E+02
	 7.50000000E+00	-5.03220000E+00	 1.12380000E+02
	 7.50000000E+00	-4.79767000E+00	 9.98820000E+01
	 1.00000000E+01	-3.59908000E+00	 1.12441000E+02
	 1.00000000E+01	-3.48995000E+00	 9.99391000E+01
	 7.50000000E+00	-4.18215000E+00	 1.12416000E+02
	 7.50000000E+00	-3.92586000E+00	 9.99200000E+01
	 5.00000000E+00	-6.46458000E+00	 1.12305000E+02
	 5.00000000E+00	-5.61508000E+00	 1.12352000E+02
	 5.00000000E+00	-5.23340000E+00	 9.98591000E+01
	 5.00000000E+00	-4.76522000E+00	 1.12392000E+02
	 5.00000000E+00	-4.36177000E+00	 9.99010000E+01
	 2.50000000E+00	-7.04724000E+00	 1.12273000E+02
	 2.50000000E+00	-6.19797000E+00	 1.12324000E+02
	 2.50000000E+00	-5.66913000E+00	 9.98363000E+01
	 2.50000000E+00	-5.34830000E+00	 1.12368000E+02
	 2.50000000E+00	-4.79769000E+00	 9.98820000E+01
	 0.00000000E+00	-7.62991000E+00	 1.12240000E+02
	 0.00000000E+00	-6.78085000E+00	 1.12295000E+02
	 0.00000000E+00	-6.10486000E+00	 9.98135000E+01
	 0.00000000E+00	-5.93137000E+00	 1.12343000E+02
	 0.00000000E+00	-5.23360000E+00	 9.98630000E+01
	 1.00000000E+01	-5.36490000E+00	 1.24876000E+02
	 1.00000000E+01	-4.53668000E+00	 1.24913000E+02
	 7.50000000E+00	-6.09471000E+00	 1.24838000E+02
	 7.50000000E+00	-5.26672000E+00	 1.24879000E+02
	 1.00000000E+01	-3.70821000E+00	 1.24942000E+02
	 7.50000000E+00	-4.43844000E+00	 1.24913000E+02
	 5.00000000E+00	-6.82453000E+00	 1.24800000E+02
	 5.00000000E+00	-5.99676000E+00	 1.24845000E+02
	 5.00000000E+00	-5.16867000E+00	 1.24883000E+02
	 2.50000000E+00	-7.55435000E+00	 1.24762000E+02
	 2.50000000E+00	-6.72680000E+00	 1.24811000E+02
	 2.50000000E+00	-5.89891000E+00	 1.24854000E+02
	 0.00000000E+00	-8.28417000E+00	 1.24724000E+02
	 8.88178000E-16	-7.45684000E+00	 1.24777000E+02
	 0.00000000E+00	-6.62914000E+00	 1.24824000E+02
	 1.00000000E+01	-5.43055000E+00	 1.37383000E+02
	 1.00000000E+01	-4.62406000E+00	 1.37417000E+02
	 7.50000000E+00	-6.30752000E+00	 1.37339000E+02
	 7.50000000E+00	-5.50125000E+00	 1.37377000E+02
	 1.00000000E+01	-3.81734000E+00	 1.37444000E+02
	 7.50000000E+00	-4.69473000E+00	 1.37409000E+02
	 5.00000000E+00	-7.18448000E+00	 1.37296000E+02
	 5.00000000E+00	-6.37845000E+00	 1.37338000E+02
	 5.00000000E+00	-5.57212000E+00	 1.37374000E+02
	 2.50000000E+00	-8.06145000E+00	 1.37252000E+02
	 2.50000000E+00	-7.25564000E+00	 1.37298000E+02
	 2.50000000E+00	-6.44952000E+00	 1.37339000E+02
[...]
POINT_DATA 1001
FIELD SENFREQ 1
	SENFREQ 2 1001 double
		-1.67561000E+05	-1.78081000E-01
		-1.33155000E+05	-1.41515000E-01
		-1.29593000E+05	-1.37730000E-01
		-1.61568000E+05	-1.71711000E-01
		-2.64846000E+05	-2.81474000E-01
		-2.31257000E+05	-2.45776000E-01
		 0.00000000E+00	 0.00000000E+00
		-2.88579000E+05	-3.06697000E-01
		-1.70725000E+04	-1.81444000E-02
		-1.04331000E+05	-1.10881000E-01
		 0.00000000E+00	 0.00000000E+00
		-2.76621000E+05	-2.93988000E-01
		-1.64151000E+05	-1.74457000E-01
		-1.26789000E+05	-1.34749000E-01
		-1.08493000E+05	-1.15305000E-01
		-1.22032000E+05	-1.29694000E-01
		 3.79480000E+05	 4.03305000E-01
		 2.80011000E+05	 2.97591000E-01
		-8.58075000E+04	-9.11948000E-02
		-4.64204000E+04	-4.93348000E-02
		-2.02353000E+05	-2.15057000E-01
		 0.00000000E+00	 0.00000000E+00
		 6.21329000E+04	 6.60337000E-02
		 0.00000000E+00	 0.00000000E+00
		-8.55954000E+04	-9.09693000E-02
		-3.23906000E+04	-3.44241000E-02
		 2.88953000E+05	 3.07095000E-01
		-6.85274000E+04	-7.28298000E-02
		 1.55335000E+04	 1.65088000E-02
		-1.90578000E+05	-2.02543000E-01
		 0.00000000E+00	 0.00000000E+00
		 1.45925000E+05	 1.55086000E-01
		 0.00000000E+00	 0.00000000E+00
		-7.36495000E+04	-7.82734000E-02
		 2.40185000E+04	 2.55265000E-02
		 2.14533000E+05	 2.28002000E-01
		-5.98021000E+04	-6.35566000E-02
		 3.93660000E+04	 4.18375000E-02
		-9.87024000E+04	-1.04899000E-01
		 0.00000000E+00	 0.00000000E+00
		 1.87388000E+05	 1.99153000E-01
		 0.00000000E+00	 0.00000000E+00
		-6.85871000E+04	-7.28932000E-02
		 3.09584000E+04	 3.29020000E-02
		 2.08968000E+05	 2.22088000E-01
		 0.00000000E+00	 0.00000000E+00
		 0.00000000E+00	 0.00000000E+00
		 2.34923000E+02	 2.49672000E-04
		 2.29585000E+02	 2.43999000E-04
		 0.00000000E+00	 0.00000000E+00
		 0.00000000E+00	 0.00000000E+00
		 0.00000000E+00	 0.00000000E+00
		 3.73773000E+01	 3.97239000E-05
		 1.55907000E+02	 1.65695000E-04
		 1.90974000E+01	 2.02964000E-05
		 0.00000000E+00	 0.00000000E+00
		 4.63450000E+01	 4.92547000E-05
		 0.00000000E+00	 0.00000000E+00
		 0.00000000E+00	 0.00000000E+00
		 0.00000000E+00	 0.00000000E+00
		 1.66361000E+02	 1.76805000E-04
		 0.00000000E+00	 0.00000000E+00
		 4.36955000E+01	 4.64388000E-05
		 0.00000000E+00	 0.00000000E+00
		 0.00000000E+00	 0.00000000E+00
		 0.00000000E+00	 0.00000000E+00
		 3.18806000E+02	 3.38821000E-04
		 0.00000000E+00	 0.00000000E+00
		 6.12596000E+01	 6.51056000E-05
		 0.00000000E+00	 0.00000000E+00
		 0.00000000E+00	 0.00000000E+00
		 0.00000000E+00	 0.00000000E+00
		 5.09079000E+02	 5.41041000E-04
		 0.00000000E+00	 0.00000000E+00
		 7.01453000E+01	 7.45492000E-05
		 0.00000000E+00	 0.00000000E+00
		 4.59023000E+02	 4.87842000E-04
		 0.00000000E+00	 0.00000000E+00
		 0.00000000E+00	 0.00000000E+00
		 1.04161000E+03	 1.10700000E-03
		 0.00000000E+00	 0.00000000E+00
		 0.00000000E+00	 0.00000000E+00
		 0.00000000E+00	 0.00000000E+00
		 0.00000000E+00	 0.00000000E+00
		 0.00000000E+00	 0.00000000E+00
		 0.00000000E+00	 0.00000000E+00
		 0.00000000E+00	 0.00000000E+00
		 0.00000000E+00	 0.00000000E+00
		 0.00000000E+00	 0.00000000E+00
		 0.00000000E+00	 0.00000000E+00
		 0.00000000E+00	 0.00000000E+00
		 2.18093000E+04	 2.31786000E-02
		 0.00000000E+00	 0.00000000E+00
		 0.00000000E+00	 0.00000000E+00
		 9.60867000E+03	 1.02119000E-02
		 0.00000000E+00	 0.00000000E+00
		 0.00000000E+00	 0.00000000E+00
		 0.00000000E+00	 0.00000000E+00
		 0.00000000E+00	 0.00000000E+00
		 0.00000000E+00	 0.00000000E+00
		 0.00000000E+00	 0.00000000E+00
		 0.00000000E+00	 0.00000000E+00
		 0.00000000E+00	 0.00000000E+00
		 0.00000000E+00	 0.00000000E+00
		 0.00000000E+00	 0.00000000E+00
		 0.00000000E+00	 0.00000000E+00
		 5.98235000E+04	 6.35794000E-02
		 0.00000000E+00	 0.00000000E+00
		 1.00094000E+05	 1.06378000E-01
		 4.23616000E+05	 4.50212000E-01
		 8.16404000E+05	 8.67661000E-01
		 0.00000000E+00	 0.00000000E+00
		 6.46137000E+04	 6.86704000E-02
		 5.35645000E+05	 5.69274000E-01
		 0.00000000E+00	 0.00000000E+00
		 2.58509000E+04	 2.74738000E-02
		 2.89162000E+05	 3.07317000E-01
		 0.00000000E+00	 0.00000000E+00
		 2.60895000E+03	 2.77275000E-03
		 1.29627000E+05	 1.37765000E-01
		 5.29501000E+04	 5.62744000E-02
		 2.98664000E+04	 3.17415000E-02
		 0.00000000E+00	 0.00000000E+00
		 1.48282000E+05	 1.57591000E-01
		-1.48662000E+05	-1.57995000E-01
		-1.73159000E+05	-1.84031000E-01
		 0.00000000E+00	 0.00000000E+00
		-1.48775000E+05	-1.58115000E-01
		 0.00000000E+00	 0.00000000E+00
		-2.71620000E+05	-2.88673000E-01
		 3.57869000E+05	 3.80337000E-01
		-3.19328000E+04	-3.39376000E-02
		 1.53289000E+05	 1.62913000E-01
		 0.00000000E+00	 0.00000000E+00
		 2.95948000E+04	 3.14528000E-02
		 0.00000000E+00	 0.00000000E+00
		 0.00000000E+00	 0.00000000E+00
		 3.46126000E+05	 3.67857000E-01
		 2.82792000E+05	 3.00546000E-01
		 0.00000000E+00	 0.00000000E+00
		 3.16761000E+05	 3.36648000E-01
		 0.00000000E+00	 0.00000000E+00
		 0.00000000E+00	 0.00000000E+00
		 3.23985000E+05	 3.44326000E-01
		 3.65259000E+05	 3.88192000E-01
		 0.00000000E+00	 0.00000000E+00
		 5.26483000E+05	 5.59537000E-01
		 0.00000000E+00	 0.00000000E+00
		 0.00000000E+00	 0.00000000E+00
		 2.98416000E+05	 3.17152000E-01
		 1.21386000E+05	 1.29007000E-01
		 3.22540000E+05	 3.42790000E-01
		 2.75683000E+05	 2.92992000E-01
		 1.33578000E+05	 1.41964000E-01
		 0.00000000E+00	 0.00000000E+00
		 0.00000000E+00	 0.00000000E+00
		 7.37188000E+04	 7.83470000E-02
		 1.91842000E+05	 2.03887000E-01
		 9.37491000E+04	 9.96349000E-02
		 7.65490000E+05	 8.13549000E-01
		 1.08806000E+05	 1.15637000E-01
		 0.00000000E+00	 0.00000000E+00
		 0.00000000E+00	 0.00000000E+00
		 9.57853000E+04	 1.01799000E-01
		 5.41859000E+05	 5.75878000E-01
		 9.30027000E+04	 9.88417000E-02
		 0.00000000E+00	 0.00000000E+00
		 0.00000000E+00	 0.00000000E+00
		 9.72992000E+04	 1.03408000E-01
		 3.13937000E+05	 3.33647000E-01
		 7.92853000E+04	 8.42630000E-02
		 0.00000000E+00	 0.00000000E+00
		 0.00000000E+00	 0.00000000E+00
		 1.04602000E+05	 1.11169000E-01
		 1.57098000E+05	 1.66961000E-01
		-1.19425000E+05	-1.26923000E-01
		-1.39758000E+05	-1.48532000E-01
		-9.31896000E+04	-9.90403000E-02
		 0.00000000E+00	 0.00000000E+00
		-7.14801000E+04	-7.59678000E-02
		-9.72513000E+04	-1.03357000E-01
		-2.43385000E+04	-2.58666000E-02
		 0.00000000E+00	 0.00000000E+00
		-2.27549000E+04	-2.41835000E-02
		 3.16536000E+04	 3.36409000E-02
		 0.00000000E+00	 0.00000000E+00
		 3.75993000E+04	 3.99599000E-02
		 6.76317000E+04	 7.18779000E-02
		 0.00000000E+00	 0.00000000E+00
		 9.28636000E+04	 9.86938000E-02
		-2.73427000E+05	-2.90593000E-01
		-4.09207000E+05	-4.34899000E-01
		-2.24444000E+05	-2.38535000E-01
		 0.00000000E+00	 0.00000000E+00
		-1.68361000E+05	-1.78932000E-01
		-2.07514000E+05	-2.20542000E-01
		-1.24617000E+05	-1.32441000E-01
		 0.00000000E+00	 0.00000000E+00
		-1.18665000E+05	-1.26115000E-01
		-4.74353000E+04	-5.04134000E-02
		 0.00000000E+00	 0.00000000E+00
		-4.78787000E+04	-5.08847000E-02
		 4.13176000E+03	 4.39116000E-03
		 0.00000000E+00	 0.00000000E+00
		 8.77844000E+03	 9.32958000E-03
		-2.28064000E+05	-2.42383000E-01
		-4.88951000E+05	-5.19649000E-01
		-1.74735000E+05	-1.85705000E-01
		 0.00000000E+00	 0.00000000E+00
		-1.73136000E+05	-1.84006000E-01
		-1.89270000E+05	-2.01153000E-01
		-1.02537000E+05	-1.08974000E-01
		 0.00000000E+00	 0.00000000E+00
		-1.20977000E+05	-1.28572000E-01
		-4.87723000E+04	-5.18344000E-02
		 0.00000000E+00	 0.00000000E+00
		-6.77248000E+04	-7.19767000E-02
		-1.27412000E+04	-1.35411000E-02
		 0.00000000E+00	 0.00000000E+00
		-2.89615000E+04	-3.07798000E-02
		-2.37040000E+04	-2.51922000E-02
		-2.28944000E+05	-2.43318000E-01
		 2.03717000E+04	 2.16507000E-02
		 0.00000000E+00	 0.00000000E+00
		-7.29477000E+04	-7.75276000E-02
		-3.97512000E+04	-4.22469000E-02
		 3.13265000E+04	 3.32932000E-02
		 0.00000000E+00	 0.00000000E+00
		-1.03858000E+04	-1.10378000E-02
		 4.31562000E+04	 4.58657000E-02
		 0.00000000E+00	 0.00000000E+00
		 1.20706000E+04	 1.28284000E-02
		 4.94647000E+04	 5.25702000E-02
		 0.00000000E+00	 0.00000000E+00
		 3.52056000E+04	 3.74160000E-02
		 1.65050000E+05	 1.75413000E-01
		 9.89552000E+04	 1.05168000E-01
		 1.89190000E+05	 2.01068000E-01
		 0.00000000E+00	 0.00000000E+00
		 5.84608000E+04	 6.21312000E-02
		 1.24486000E+05	 1.32302000E-01
		 1.60485000E+05	 1.70561000E-01
		 0.00000000E+00	 0.00000000E+00
		 1.33091000E+05	 1.41447000E-01
		 1.51370000E+05	 1.60873000E-01
		 0.00000000E+00	 0.00000000E+00
		 1.38750000E+05	 1.47461000E-01
		 1.47676000E+05	 1.56947000E-01
		 0.00000000E+00	 0.00000000E+00
		 1.60582000E+05	 1.70664000E-01
		 5.60451000E+04	 5.95638000E-02
		 3.69527000E+05	 3.92727000E-01
		 9.44554000E+04	 1.00386000E-01
		 0.00000000E+00	 0.00000000E+00
		 5.37947000E+04	 5.71721000E-02
		 9.75256000E+04	 1.03649000E-01
		 7.71738000E+04	 8.20190000E-02
		 0.00000000E+00	 0.00000000E+00
		 1.10344000E+05	 1.17272000E-01
		 8.89022000E+04	 9.44838000E-02
		 0.00000000E+00	 0.00000000E+00
		 1.12837000E+05	 1.19922000E-01
		 9.08639000E+04	 9.65686000E-02
		 0.00000000E+00	 0.00000000E+00
		 1.54469000E+05	 1.64167000E-01
		 1.12759000E+02	 1.19839000E-04
		 1.51671000E+01	 1.61193000E-05
		 0.00000000E+00	 0.00000000E+00
		 2.69940000E+01	 2.86888000E-05
		 8.54168000E+01	 9.07796000E-05
		 2.44710000E+01	 2.60074000E-05
		 0.00000000E+00	 0.00000000E+00
		 2.87850000E+01	 3.05922000E-05
		 0.00000000E+00	 0.00000000E+00
		 3.51854000E+01	 3.73944000E-05
		 0.00000000E+00	 0.00000000E+00
		 4.34272000E+01	 4.61537000E-05
		 0.00000000E+00	 0.00000000E+00
		 7.02126000E+01	 7.46207000E-05
		 0.00000000E+00	 0.00000000E+00
		 7.10205000E+01	 7.54794000E-05
		 0.00000000E+00	 0.00000000E+00
		 1.00197000E+02	 1.06488000E-04
		 0.00000000E+00	 0.00000000E+00
		 7.97911000E+01	 8.48006000E-05
		 2.50749000E+03	 2.66492000E-03
		 0.00000000E+00	 0.00000000E+00
		 1.83369000E+03	 1.94881000E-03
		 0.00000000E+00	 0.00000000E+00
		 0.00000000E+00	 0.00000000E+00
		 0.00000000E+00	 0.00000000E+00
		 0.00000000E+00	 0.00000000E+00
		 0.00000000E+00	 0.00000000E+00
		 0.00000000E+00	 0.00000000E+00
		 0.00000000E+00	 0.00000000E+00
		 4.16558000E+04	 4.42711000E-02
		 0.00000000E+00	 0.00000000E+00
		 3.03042000E+04	 3.22068000E-02
		 0.00000000E+00	 0.00000000E+00
		 0.00000000E+00	 0.00000000E+00
		 0.00000000E+00	 0.00000000E+00
		 0.00000000E+00	 0.00000000E+00
		 0.00000000E+00	 0.00000000E+00
		 0.00000000E+00	 0.00000000E+00
		 0.00000000E+00	 0.00000000E+00
		-2.99744000E+05	-3.18563000E-01
		-3.09053000E+05	-3.28456000E-01
		 0.00000000E+00	 0.00000000E+00
		-5.04389000E+05	-5.36056000E-01
		-3.01277000E+05	-3.20192000E-01
		-2.93357000E+05	-3.11775000E-01
		-4.41468000E+05	-4.69185000E-01
		-2.11759000E+05	-2.25054000E-01
		-2.34311000E+05	-2.49022000E-01
		-2.58727000E+05	-2.74970000E-01
		-2.57892000E+05	-2.74083000E-01
		-2.60686000E+05	-2.77053000E-01
		-1.02726000E+05	-1.09176000E-01
		 0.00000000E+00	 0.00000000E+00
		-1.62705000E+05	-1.72920000E-01
		-2.70379000E+05	-2.87355000E-01
		-2.54088000E+04	-2.70041000E-02
		-1.24664000E+05	-1.32491000E-01
		 2.32986000E+05	 2.47614000E-01
		 0.00000000E+00	 0.00000000E+00
		 3.96568000E+04	 4.21466000E-02
		-1.23788000E+05	-1.31560000E-01
		 3.33642000E+05	 3.54589000E-01
		 9.80375000E+04	 1.04193000E-01
		 6.39691000E+05	 6.79853000E-01
		 0.00000000E+00	 0.00000000E+00
		 4.95163000E+05	 5.26251000E-01
		 2.04358000E+05	 2.17188000E-01
		 7.18704000E+05	 7.63827000E-01
		 6.19580000E+05	 6.58479000E-01
		 1.64353000E+02	 1.74672000E-04
		 2.28090000E+01	 2.42410000E-05
		 0.00000000E+00	 0.00000000E+00
		-7.85508000E+01	-8.34824000E-05
		 0.00000000E+00	 0.00000000E+00
		 0.00000000E+00	 0.00000000E+00
		 0.00000000E+00	 0.00000000E+00
		 0.00000000E+00	 0.00000000E+00
		 0.00000000E+00	 0.00000000E+00
		-8.92451000E+01	-9.48482000E-05
		 0.00000000E+00	 0.00000000E+00
		 0.00000000E+00	 0.00000000E+00
		 0.00000000E+00	 0.00000000E+00
		-1.91524000E+02	-2.03549000E-04
		 0.00000000E+00	 0.00000000E+00
		 0.00000000E+00	 0.00000000E+00
		 0.00000000E+00	 0.00000000E+00
		-3.47301000E+02	-3.69106000E-04
		 0.00000000E+00	 0.00000000E+00
		 0.00000000E+00	 0.00000000E+00
		 1.18525000E+03	 1.25966000E-03
		 0.00000000E+00	 0.00000000E+00
		 0.00000000E+00	 0.00000000E+00
		 0.00000000E+00	 0.00000000E+00
		 0.00000000E+00	 0.00000000E+00
		 0.00000000E+00	 0.00000000E+00
		 0.00000000E+00	 0.00000000E+00
		 0.00000000E+00	 0.00000000E+00
		 0.00000000E+00	 0.00000000E+00
		 0.00000000E+00	 0.00000000E+00
		 9.60034000E+03	 1.02031000E-02
		 0.00000000E+00	 0.00000000E+00
		 0.00000000E+00	 0.00000000E+00
		 0.00000000E+00	 0.00000000E+00
		 0.00000000E+00	 0.00000000E+00
		 0.00000000E+00	 0.00000000E+00
		 0.00000000E+00	 0.00000000E+00
		 0.00000000E+00	 0.00000000E+00
		 0.00000000E+00	 0.00000000E+00
		 0.00000000E+00	 0.00000000E+00
		 2.99460000E+04	 3.18261000E-02
		 6.78247000E+04	 7.20830000E-02
		 0.00000000E+00	 0.00000000E+00
		 0.00000000E+00	 0.00000000E+00
		 6.00506000E+04	 6.38208000E-02
		 0.00000000E+00	 0.00000000E+00
		 4.40500000E+04	 4.68156000E-02
		 0.00000000E+00	 0.00000000E+00
		 3.02217000E+04	 3.21191000E-02
		 0.00000000E+00	 0.00000000E+00
		 3.52044000E+05	 3.74146000E-01
		 1.87210000E+05	 1.98963000E-01
		 4.15382000E+05	 4.41461000E-01
		 6.01201000E+05	 6.38946000E-01
		 4.45536000E+04	 4.73508000E-02
		 1.80016000E+04	 1.91318000E-02
		 0.00000000E+00	 0.00000000E+00
		 0.00000000E+00	 0.00000000E+00
		 3.44558000E+05	 3.66190000E-01
		 3.97125000E+05	 4.22058000E-01
		 0.00000000E+00	 0.00000000E+00
		 0.00000000E+00	 0.00000000E+00
		 3.16671000E+05	 3.36553000E-01
		 1.71062000E+05	 1.81802000E-01
		 3.81117000E+05	 4.05045000E-01
		 5.05290000E+05	 5.37014000E-01
		 4.74300000E+05	 5.04078000E-01
		 4.96131000E+05	 5.27280000E-01
		 6.21927000E+04	 6.60973000E-02
		 2.20153000E+05	 2.33975000E-01
		-7.44760000E+04	-7.91518000E-02
		 0.00000000E+00	 0.00000000E+00
		 2.61242000E+05	 2.77643000E-01
		 0.00000000E+00	 0.00000000E+00
		 6.08924000E+04	 6.47154000E-02
		 2.21685000E+05	 2.35603000E-01
		 3.64119000E+05	 3.86979000E-01
		-2.06103000E+04	-2.19042000E-02
		 9.62199000E+04	 1.02261000E-01
		-1.21960000E+05	-1.29617000E-01
		 0.00000000E+00	 0.00000000E+00
		 2.04347000E+05	 2.17176000E-01
		 0.00000000E+00	 0.00000000E+00
		-1.45106000E+04	-1.54216000E-02
		 1.08035000E+05	 1.14817000E-01
		 2.50843000E+05	 2.66592000E-01
		 0.00000000E+00	 0.00000000E+00
		 0.00000000E+00	 0.00000000E+00
		 0.00000000E+00	 0.00000000E+00
		 5.44448000E+02	 5.78630000E-04
		 0.00000000E+00	 0.00000000E+00
		 3.66527000E+01	 3.89539000E-05
		 0.00000000E+00	 0.00000000E+00
		 0.00000000E+00	 0.00000000E+00
		 0.00000000E+00	 0.00000000E+00
		 4.99072000E+02	 5.30405000E-04
		 0.00000000E+00	 0.00000000E+00
		 3.78746000E+01	 4.02525000E-05
		 0.00000000E+00	 0.00000000E+00
		 0.00000000E+00	 0.00000000E+00
		 0.00000000E+00	 0.00000000E+00
		 4.18667000E+02	 4.44952000E-04
		 0.00000000E+00	 0.00000000E+00
		 4.30330000E+01	 4.57348000E-05
		 0.00000000E+00	 0.00000000E+00
		 0.00000000E+00	 0.00000000E+00
		 0.00000000E+00	 0.00000000E+00
		 3.07572000E+02	 3.26882000E-04
		 0.00000000E+00	 0.00000000E+00
		 5.15284000E+01	 5.47636000E-05
		 0.00000000E+00	 0.00000000E+00
		 0.00000000E+00	 0.00000000E+00
		 0.00000000E+00	 0.00000000E+00
		 0.00000000E+00	 0.00000000E+00
		 0.00000000E+00	 0.00000000E+00
		 0.00000000E+00	 0.00000000E+00
		 0.00000000E+00	 0.00000000E+00
		 0.00000000E+00	 0.00000000E+00
		 0.00000000E+00	 0.00000000E+00
		 0.00000000E+00	 0.00000000E+00
		 0.00000000E+00	 0.00000000E+00
		 0.00000000E+00	 0.00000000E+00
		 0.00000000E+00	 0.00000000E+00
		 0.00000000E+00	 0.00000000E+00
		 0.00000000E+00	 0.00000000E+00
		 0.00000000E+00	 0.00000000E+00
		 0.00000000E+00	 0.00000000E+00
		 0.00000000E+00	 0.00000000E+00
		 0.00000000E+00	 0.00000000E+00
		 0.00000000E+00	 0.00000000E+00
		 0.00000000E+00	 0.00000000E+00
		 0.00000000E+00	 0.00000000E+00
		 0.00000000E+00	 0.00000000E+00
		 0.00000000E+00	 0.00000000E+00
		 0.00000000E+00	 0.00000000E+00
		-6.86639000E+03	-7.29748000E-03
		 4.47857000E+04	 4.75975000E-02
		 0.00000000E+00	 0.00000000E+00
		-4.19812000E+03	-4.46169000E-03
		 3.86557000E+04	 4.10827000E-02
		 0.00000000E+00	 0.00000000E+00
		 8.71695000E+03	 9.26423000E-03
		 1.11468000E+05	 1.18466000E-01
		 0.00000000E+00	 0.00000000E+00
		 2.90351000E+04	 3.08580000E-02
		 2.52662000E+05	 2.68525000E-01
		 0.00000000E+00	 0.00000000E+00
		 0.00000000E+00	 0.00000000E+00
		 0.00000000E+00	 0.00000000E+00
		 0.00000000E+00	 0.00000000E+00
		 1.94462000E+05	 2.06670000E-01
		 1.85997000E+05	 1.97675000E-01
		 0.00000000E+00	 0.00000000E+00
		 0.00000000E+00	 0.00000000E+00
		 4.93162000E+05	 5.24124000E-01
		 4.71041000E+05	 5.00615000E-01
		 2.67370000E+05	 2.84156000E-01
		 2.03188000E+05	 2.15945000E-01
		 0.00000000E+00	 0.00000000E+00
		 0.00000000E+00	 0.00000000E+00
		 2.39323000E+05	 2.54348000E-01
		 0.00000000E+00	 0.00000000E+00
		 4.90668000E+05	 5.21474000E-01
		 3.73616000E+05	 3.97072000E-01
		 0.00000000E+00	 0.00000000E+00
		 0.00000000E+00	 0.00000000E+00
		 2.79985000E+05	 2.97563000E-01
		 0.00000000E+00	 0.00000000E+00
		 4.37830000E+05	 4.65319000E-01
		 4.57294000E+05	 4.86005000E-01
		 7.31350000E+04	 7.77266000E-02
		 0.00000000E+00	 0.00000000E+00
		 0.00000000E+00	 0.00000000E+00
		 1.06364000E+05	 1.13042000E-01
		 7.17572000E+04	 7.62624000E-02
		 7.06379000E+04	 7.50727000E-02
		 0.00000000E+00	 0.00000000E+00
		 0.00000000E+00	 0.00000000E+00
		 1.06471000E+05	 1.13156000E-01
		 4.83200000E+04	 5.13536000E-02
		 7.37604000E+04	 7.83913000E-02
		 0.00000000E+00	 0.00000000E+00
		 0.00000000E+00	 0.00000000E+00
		 1.03932000E+05	 1.10457000E-01
		 8.01052000E+04	 8.51345000E-02
		 7.87438000E+04	 8.36875000E-02
		 0.00000000E+00	 0.00000000E+00
		 0.00000000E+00	 0.00000000E+00
		 1.01625000E+05	 1.08005000E-01
		 1.74642000E+05	 1.85607000E-01
		 9.12845000E+04	 9.70156000E-02
		 0.00000000E+00	 0.00000000E+00
		 1.20284000E+05	 1.27835000E-01
		 9.47070000E+04	 1.00653000E-01
		 0.00000000E+00	 0.00000000E+00
		 1.26718000E+05	 1.34673000E-01
		 8.53582000E+04	 9.07173000E-02
		 0.00000000E+00	 0.00000000E+00
		 1.11056000E+05	 1.18029000E-01
		 6.06795000E+04	 6.44892000E-02
		 0.00000000E+00	 0.00000000E+00
		 7.93357000E+04	 8.43166000E-02
		 3.19084000E+04	 3.39117000E-02
		 0.00000000E+00	 0.00000000E+00
		 3.95215000E+04	 4.20028000E-02
		 3.93744000E+04	 4.18464000E-02
		 0.00000000E+00	 0.00000000E+00
		 4.74719000E+04	 5.04523000E-02
		 3.22634000E+04	 3.42890000E-02
		 0.00000000E+00	 0.00000000E+00
		 3.28123000E+04	 3.48724000E-02
		 8.17813000E+03	 8.69158000E-03
		 0.00000000E+00	 0.00000000E+00
		-4.10699000E+02	-4.36483000E-04
		 4.00666000E+03	 4.25821000E-03
		 0.00000000E+00	 0.00000000E+00
		-5.08749000E+03	-5.40690000E-03
		 8.00189000E+03	 8.50427000E-03
		 0.00000000E+00	 0.00000000E+00
		 3.28772000E+03	 3.49414000E-03
		 3.13891000E+03	 3.33598000E-03
		 0.00000000E+00	 0.00000000E+00
		-4.95841000E+03	-5.26971000E-03
		-1.50360000E+04	-1.59800000E-02
		 0.00000000E+00	 0.00000000E+00
		-2.69327000E+04	-2.86236000E-02
		 5.57809000E+04	 5.92830000E-02
		 0.00000000E+00	 0.00000000E+00
		 5.04902000E+04	 5.36601000E-02
		 5.24023000E+04	 5.56922000E-02
		 0.00000000E+00	 0.00000000E+00
		 5.73684000E+04	 6.09701000E-02
		 4.87939000E+04	 5.18573000E-02
		 0.00000000E+00	 0.00000000E+00
		 5.22288000E+04	 5.55079000E-02
		 3.58326000E+04	 3.80822000E-02
		 0.00000000E+00	 0.00000000E+00
		 4.34852000E+04	 4.62153000E-02
		 1.58286000E+05	 1.68224000E-01
		 0.00000000E+00	 0.00000000E+00
		 1.71464000E+05	 1.82229000E-01
		 1.53867000E+05	 1.63527000E-01
		 0.00000000E+00	 0.00000000E+00
		 1.74094000E+05	 1.85024000E-01
		 1.54339000E+05	 1.64029000E-01
		 0.00000000E+00	 0.00000000E+00
		 1.66995000E+05	 1.77479000E-01
		 1.50532000E+05	 1.59983000E-01
		 0.00000000E+00	 0.00000000E+00
		 1.68363000E+05	 1.78934000E-01
		 1.27105000E+05	 1.35085000E-01