    1C
    1UUSER                                                              
    1UDATE              01.august.2019                                  
    1UTIME              09:56:22                                        
    1UHOST                                                              
    1UPGM               CalculiX                                        
    1UVERSION           Version 2.15                             
    1UCOMPILETIME       Fri 15 Mar 11:57:46 CET 2019                    
    1UDIR                                                               
    1UDBN                                                               
    1UMAT    1EL                                                        
    2C                            60                                     1
 -1        16 1.00000E+00-2.50000E-02-7.45058E-09
 -1        17 1.00000E+00 7.45058E-09-7.45058E-09
 -1        18 1.00000E+00 2.50000E-02-7.45058E-09
 -1        19 9.75000E-01 7.45058E-09-7.45058E-09
 -1        20 1.00000E+00 7.45058E-09-7.45058E-09
 -1        21 1.02500E+00 7.45058E-09-7.45058E-09
 -1        22 1.00000E+00-5.00000E-02-2.50000E-02
 -1        23 1.00000E+00 5.00000E-02-2.50000E-02
 -1        24 1.00000E+00 5.00000E-02 2.50000E-02
 -1        25 1.00000E+00-5.00000E-02 2.50000E-02
 -1        26 1.00000E+00 7.45058E-09-2.50000E-02
 -1        27 1.00000E+00 5.00000E-02-7.45058E-09
 -1        28 1.00000E+00 7.45058E-09 2.50000E-02
 -1        29 1.00000E+00-5.00000E-02-7.45058E-09
 -1        46-7.45058E-09-2.50000E-02-7.45058E-09
 -1        47-7.45058E-09 7.45058E-09-7.45058E-09
 -1        48-7.45058E-09 2.50000E-02-7.45058E-09
 -1        49-7.45058E-09-2.50000E-02 1.00000E+00
 -1        50-7.45058E-09 7.45058E-09 1.00000E+00
 -1        51-7.45058E-09 2.50000E-02 1.00000E+00
 -1        52 1.00000E+00-2.50000E-02 1.00000E+00
 -1        53 1.00000E+00 7.45058E-09 1.00000E+00
 -1        54 1.00000E+00 2.50000E-02 1.00000E+00
 -1        55 9.75000E-01 7.45058E-09 1.00000E+00
 -1        56 1.00000E+00 7.45058E-09 1.00000E+00
 -1        57 1.02500E+00 7.45058E-09 1.00000E+00
 -1        66 5.00000E-01-2.50000E-02-7.45058E-09
 -1        68 5.00000E-01 2.50000E-02-7.45058E-09
 -1        69-7.45058E-09-2.50000E-02 5.00000E-01
 -1        71-7.45058E-09 2.50000E-02 5.00000E-01
 -1        72 5.00000E-01-2.50000E-02 1.00000E+00
 -1        74 5.00000E-01 2.50000E-02 1.00000E+00
 -1        75 1.00000E+00-2.50000E-02 5.00000E-01
 -1        77 1.00000E+00 2.50000E-02 5.00000E-01
 -1        78 9.75000E-01 7.45058E-09 5.00000E-01
 -1        80 1.02500E+00 7.45058E-09 5.00000E-01
 -1        89 9.75000E-01-1.00000E+00-7.45058E-09
 -1        90 1.00000E+00-1.00000E+00-7.45058E-09
 -1        91 1.02500E+00-1.00000E+00-7.45058E-09
 -1        92 9.75000E-01-1.00000E+00 1.00000E+00
 -1        93 1.00000E+00-1.00000E+00 1.00000E+00
 -1        94 1.02500E+00-1.00000E+00 1.00000E+00
 -1        95 9.75000E-01-5.00000E-01-7.45058E-09
 -1        97 1.02500E+00-5.00000E-01-7.45058E-09
 -1        98 9.75000E-01-5.00000E-01 1.00000E+00
 -1       100 1.02500E+00-5.00000E-01 1.00000E+00
 -1       101 9.75000E-01-1.00000E+00 5.00000E-01
 -1       103 1.02500E+00-1.00000E+00 5.00000E-01
 -1       104 2.00000E+00-5.00000E-02-2.50000E-02
 -1       105 2.00000E+00 5.00000E-02-2.50000E-02
 -1       106 2.00000E+00 5.00000E-02 2.50000E-02
 -1       107 2.00000E+00-5.00000E-02 2.50000E-02
 -1       108 2.00000E+00 7.45058E-09-2.50000E-02
 -1       109 2.00000E+00 5.00000E-02-7.45058E-09
 -1       110 2.00000E+00 7.45058E-09 2.50000E-02
 -1       111 2.00000E+00-5.00000E-02-7.45058E-09
 -1       112 1.50000E+00-5.00000E-02-2.50000E-02
 -1       113 1.50000E+00 5.00000E-02-2.50000E-02
 -1       114 1.50000E+00 5.00000E-02 2.50000E-02
 -1       115 1.50000E+00-5.00000E-02 2.50000E-02
 -3
    3C                             3                                     1
 -1         1    4    0    1
 -2        22       104       105        23        25       107       106        24       112       108
 -2       113        26        29       111       109        27       115       110       114        28
 -1         2    4    0    1
 -2        16        46        49        52        18        48        51        54        66        69
 -2        72        75        17        47        50        53        68        71        74        77
 -1         3    4    0    1
 -2        89        19        55        92        91        21        57        94        95        78
 -2        98       101        90        20        56        93        97        80       100       103
 -3
 9999
