# vtk DataFile Version 3.0

ASCII
DATASET UNSTRUCTURED_GRID

POINTS 3 double
	 0.00000000E+00	 0.00000000E+00	 0.00000000E+00
	 0.00000000E+00	 0.00000000E+00	 5.00000000E+00
	 0.00000000E+00	 0.00000000E+00	 1.00000000E+01

CELLS 1 4
	3 0 2 1 

CELL_TYPES 1
	21

POINT_DATA 3
FIELD U 1
	U 3 3 double
		 9.22015000E-02	 0.00000000E+00	 0.00000000E+00
		 2.81808000E-02	 0.00000000E+00	 0.00000000E+00
		 0.00000000E+00	 0.00000000E+00	 0.00000000E+00
FIELD S 1
	S 10 3 double
		-9.99960000E-01	 2.59896000E-09	 0.00000000E+00	 0.00000000E+00	 0.00000000E+00	 3.54644000E-05	 9.99960003E-01	-9.99960001E-01	 1.20024948E-09	 2.60747700E-09
		-9.99960000E-01	 2.52978000E-09	 0.00000000E+00	 0.00000000E+00	 1.27653000E-08	 4.99997000E+00	 8.71774168E+00	-5.52488597E+00	 2.52978000E-09	 4.52492597E+00
		-9.99960000E-01	 2.46059000E-09	 0.00000000E+00	 0.00000000E+00	 2.54213000E-08	 9.99990000E+00	 1.73491764E+01	-1.05123713E+01	 2.46059000E-09	 9.51241132E+00
