# vtk DataFile Version 3.0

ASCII
DATASET UNSTRUCTURED_GRID

POINTS 522 double
	 1.00000000E+00	 1.00000000E+00	 0.00000000E+00
	 1.00000000E+00	 5.00000000E-01	 0.00000000E+00
	 1.00000000E+00	 5.00000000E-01	 1.00000000E+00
	 1.00000000E+00	 1.00000000E+00	 1.00000000E+00
	 5.00000000E-01	 1.00000000E+00	 0.00000000E+00
	 5.00000000E-01	 5.00000000E-01	 0.00000000E+00
	 5.00000000E-01	 5.00000000E-01	 1.00000000E+00
	 5.00000000E-01	 1.00000000E+00	 1.00000000E+00
	 1.00000000E+00	 7.50000000E-01	 0.00000000E+00
	 1.00000000E+00	 5.00000000E-01	 5.00000000E-01
	 1.00000000E+00	 7.50000000E-01	 1.00000000E+00
	 1.00000000E+00	 1.00000000E+00	 5.00000000E-01
	 7.50000000E-01	 1.00000000E+00	 0.00000000E+00
	 7.50000000E-01	 5.00000000E-01	 0.00000000E+00
	 7.50000000E-01	 5.00000000E-01	 1.00000000E+00
	 7.50000000E-01	 1.00000000E+00	 1.00000000E+00
	 5.00000000E-01	 7.50000000E-01	 0.00000000E+00
	 5.00000000E-01	 5.00000000E-01	 5.00000000E-01
	 5.00000000E-01	 7.50000000E-01	 1.00000000E+00
	 5.00000000E-01	 1.00000000E+00	 5.00000000E-01
	 1.00000000E+00	 0.00000000E+00	 0.00000000E+00
	 1.00000000E+00	 0.00000000E+00	 1.00000000E+00
	 5.00000000E-01	 0.00000000E+00	 0.00000000E+00
	 5.00000000E-01	 0.00000000E+00	 1.00000000E+00
	 1.00000000E+00	 2.50000000E-01	 0.00000000E+00
	 1.00000000E+00	 0.00000000E+00	 5.00000000E-01
	 1.00000000E+00	 2.50000000E-01	 1.00000000E+00
	 7.50000000E-01	 0.00000000E+00	 0.00000000E+00
	 7.50000000E-01	 0.00000000E+00	 1.00000000E+00
	 5.00000000E-01	 2.50000000E-01	 0.00000000E+00
	 5.00000000E-01	 0.00000000E+00	 5.00000000E-01
	 5.00000000E-01	 2.50000000E-01	 1.00000000E+00
	 0.00000000E+00	 1.00000000E+00	 0.00000000E+00
	 0.00000000E+00	 5.00000000E-01	 0.00000000E+00
	 0.00000000E+00	 5.00000000E-01	 1.00000000E+00
	 0.00000000E+00	 1.00000000E+00	 1.00000000E+00
	 2.50000000E-01	 1.00000000E+00	 0.00000000E+00
	 2.50000000E-01	 5.00000000E-01	 0.00000000E+00
	 2.50000000E-01	 5.00000000E-01	 1.00000000E+00
	 2.50000000E-01	 1.00000000E+00	 1.00000000E+00
	 0.00000000E+00	 7.50000000E-01	 0.00000000E+00
	 0.00000000E+00	 5.00000000E-01	 5.00000000E-01
	 0.00000000E+00	 7.50000000E-01	 1.00000000E+00
	 0.00000000E+00	 1.00000000E+00	 5.00000000E-01
	 0.00000000E+00	 0.00000000E+00	 0.00000000E+00
	 0.00000000E+00	 0.00000000E+00	 1.00000000E+00
	 2.50000000E-01	 0.00000000E+00	 0.00000000E+00
	 2.50000000E-01	 0.00000000E+00	 1.00000000E+00
	 0.00000000E+00	 2.50000000E-01	 0.00000000E+00
	 0.00000000E+00	 0.00000000E+00	 5.00000000E-01
	 0.00000000E+00	 2.50000000E-01	 1.00000000E+00
	 1.00000000E+00	 5.00000000E-01	 2.00000000E+00
	 1.00000000E+00	 1.00000000E+00	 2.00000000E+00
	 5.00000000E-01	 5.00000000E-01	 2.00000000E+00
	 5.00000000E-01	 1.00000000E+00	 2.00000000E+00
	 1.00000000E+00	 5.00000000E-01	 1.50000000E+00
	 1.00000000E+00	 7.50000000E-01	 2.00000000E+00
	 1.00000000E+00	 1.00000000E+00	 1.50000000E+00
	 7.50000000E-01	 5.00000000E-01	 2.00000000E+00
	 7.50000000E-01	 1.00000000E+00	 2.00000000E+00
	 5.00000000E-01	 5.00000000E-01	 1.50000000E+00
	 5.00000000E-01	 7.50000000E-01	 2.00000000E+00
	 5.00000000E-01	 1.00000000E+00	 1.50000000E+00
	 1.00000000E+00	 0.00000000E+00	 2.00000000E+00
	 5.00000000E-01	 0.00000000E+00	 2.00000000E+00
	 1.00000000E+00	 0.00000000E+00	 1.50000000E+00
	 1.00000000E+00	 2.50000000E-01	 2.00000000E+00
	 7.50000000E-01	 0.00000000E+00	 2.00000000E+00
	 5.00000000E-01	 0.00000000E+00	 1.50000000E+00
	 5.00000000E-01	 2.50000000E-01	 2.00000000E+00
	 0.00000000E+00	 5.00000000E-01	 2.00000000E+00
	 0.00000000E+00	 1.00000000E+00	 2.00000000E+00
	 2.50000000E-01	 5.00000000E-01	 2.00000000E+00
	 2.50000000E-01	 1.00000000E+00	 2.00000000E+00
	 0.00000000E+00	 5.00000000E-01	 1.50000000E+00
	 0.00000000E+00	 7.50000000E-01	 2.00000000E+00
	 0.00000000E+00	 1.00000000E+00	 1.50000000E+00
	 0.00000000E+00	 0.00000000E+00	 2.00000000E+00
	 2.50000000E-01	 0.00000000E+00	 2.00000000E+00
	 0.00000000E+00	 0.00000000E+00	 1.50000000E+00
	 0.00000000E+00	 2.50000000E-01	 2.00000000E+00
	 1.00000000E+00	 5.00000000E-01	 3.00000000E+00
	 1.00000000E+00	 1.00000000E+00	 3.00000000E+00
	 5.00000000E-01	 5.00000000E-01	 3.00000000E+00
	 5.00000000E-01	 1.00000000E+00	 3.00000000E+00
	 1.00000000E+00	 5.00000000E-01	 2.50000000E+00
	 1.00000000E+00	 7.50000000E-01	 3.00000000E+00
	 1.00000000E+00	 1.00000000E+00	 2.50000000E+00
	 7.50000000E-01	 5.00000000E-01	 3.00000000E+00
	 7.50000000E-01	 1.00000000E+00	 3.00000000E+00
	 5.00000000E-01	 5.00000000E-01	 2.50000000E+00
	 5.00000000E-01	 7.50000000E-01	 3.00000000E+00
	 5.00000000E-01	 1.00000000E+00	 2.50000000E+00
	 1.00000000E+00	 0.00000000E+00	 3.00000000E+00
	 5.00000000E-01	 0.00000000E+00	 3.00000000E+00
	 1.00000000E+00	 0.00000000E+00	 2.50000000E+00
	 1.00000000E+00	 2.50000000E-01	 3.00000000E+00
	 7.50000000E-01	 0.00000000E+00	 3.00000000E+00
	 5.00000000E-01	 0.00000000E+00	 2.50000000E+00
	 5.00000000E-01	 2.50000000E-01	 3.00000000E+00
	 0.00000000E+00	 5.00000000E-01	 3.00000000E+00
	 0.00000000E+00	 1.00000000E+00	 3.00000000E+00
	 2.50000000E-01	 5.00000000E-01	 3.00000000E+00
	 2.50000000E-01	 1.00000000E+00	 3.00000000E+00
	 0.00000000E+00	 5.00000000E-01	 2.50000000E+00
	 0.00000000E+00	 7.50000000E-01	 3.00000000E+00
	 0.00000000E+00	 1.00000000E+00	 2.50000000E+00
	 0.00000000E+00	 0.00000000E+00	 3.00000000E+00
	 2.50000000E-01	 0.00000000E+00	 3.00000000E+00
	 0.00000000E+00	 0.00000000E+00	 2.50000000E+00
	 0.00000000E+00	 2.50000000E-01	 3.00000000E+00
	 1.00000000E+00	 5.00000000E-01	 4.00000000E+00
	 1.00000000E+00	 1.00000000E+00	 4.00000000E+00
	 5.00000000E-01	 5.00000000E-01	 4.00000000E+00
	 5.00000000E-01	 1.00000000E+00	 4.00000000E+00
	 1.00000000E+00	 5.00000000E-01	 3.50000000E+00
	 1.00000000E+00	 7.50000000E-01	 4.00000000E+00
	 1.00000000E+00	 1.00000000E+00	 3.50000000E+00
	 7.50000000E-01	 5.00000000E-01	 4.00000000E+00
	 7.50000000E-01	 1.00000000E+00	 4.00000000E+00
	 5.00000000E-01	 5.00000000E-01	 3.50000000E+00
	 5.00000000E-01	 7.50000000E-01	 4.00000000E+00
	 5.00000000E-01	 1.00000000E+00	 3.50000000E+00
	 1.00000000E+00	 0.00000000E+00	 4.00000000E+00
	 5.00000000E-01	 0.00000000E+00	 4.00000000E+00
	 1.00000000E+00	 0.00000000E+00	 3.50000000E+00
	 1.00000000E+00	 2.50000000E-01	 4.00000000E+00
	 7.50000000E-01	 0.00000000E+00	 4.00000000E+00
	 5.00000000E-01	 0.00000000E+00	 3.50000000E+00
	 5.00000000E-01	 2.50000000E-01	 4.00000000E+00
	 0.00000000E+00	 5.00000000E-01	 4.00000000E+00
	 0.00000000E+00	 1.00000000E+00	 4.00000000E+00
	 2.50000000E-01	 5.00000000E-01	 4.00000000E+00
	 2.50000000E-01	 1.00000000E+00	 4.00000000E+00
	 0.00000000E+00	 5.00000000E-01	 3.50000000E+00
	 0.00000000E+00	 7.50000000E-01	 4.00000000E+00
	 0.00000000E+00	 1.00000000E+00	 3.50000000E+00
	 0.00000000E+00	 0.00000000E+00	 4.00000000E+00
	 2.50000000E-01	 0.00000000E+00	 4.00000000E+00
	 0.00000000E+00	 0.00000000E+00	 3.50000000E+00
	 0.00000000E+00	 2.50000000E-01	 4.00000000E+00
	 1.00000000E+00	 5.00000000E-01	 5.00000000E+00
	 1.00000000E+00	 1.00000000E+00	 5.00000000E+00
	 5.00000000E-01	 5.00000000E-01	 5.00000000E+00
	 5.00000000E-01	 1.00000000E+00	 5.00000000E+00
	 1.00000000E+00	 5.00000000E-01	 4.50000000E+00
	 1.00000000E+00	 7.50000000E-01	 5.00000000E+00
	 1.00000000E+00	 1.00000000E+00	 4.50000000E+00
	 7.50000000E-01	 5.00000000E-01	 5.00000000E+00
	 7.50000000E-01	 1.00000000E+00	 5.00000000E+00
	 5.00000000E-01	 5.00000000E-01	 4.50000000E+00
	 5.00000000E-01	 7.50000000E-01	 5.00000000E+00
	 5.00000000E-01	 1.00000000E+00	 4.50000000E+00
	 1.00000000E+00	 0.00000000E+00	 5.00000000E+00
	 5.00000000E-01	 0.00000000E+00	 5.00000000E+00
	 1.00000000E+00	 0.00000000E+00	 4.50000000E+00
	 1.00000000E+00	 2.50000000E-01	 5.00000000E+00
	 7.50000000E-01	 0.00000000E+00	 5.00000000E+00
	 5.00000000E-01	 0.00000000E+00	 4.50000000E+00
	 5.00000000E-01	 2.50000000E-01	 5.00000000E+00
	 0.00000000E+00	 5.00000000E-01	 5.00000000E+00
	 0.00000000E+00	 1.00000000E+00	 5.00000000E+00
	 2.50000000E-01	 5.00000000E-01	 5.00000000E+00
	 2.50000000E-01	 1.00000000E+00	 5.00000000E+00
	 0.00000000E+00	 5.00000000E-01	 4.50000000E+00
	 0.00000000E+00	 7.50000000E-01	 5.00000000E+00
	 0.00000000E+00	 1.00000000E+00	 4.50000000E+00
	 0.00000000E+00	 0.00000000E+00	 5.00000000E+00
	 2.50000000E-01	 0.00000000E+00	 5.00000000E+00
	 0.00000000E+00	 0.00000000E+00	 4.50000000E+00
	 0.00000000E+00	 2.50000000E-01	 5.00000000E+00
	 1.00000000E+00	 5.00000000E-01	 6.00000000E+00
	 1.00000000E+00	 1.00000000E+00	 6.00000000E+00
	 5.00000000E-01	 5.00000000E-01	 6.00000000E+00
	 5.00000000E-01	 1.00000000E+00	 6.00000000E+00
	 1.00000000E+00	 5.00000000E-01	 5.50000000E+00
	 1.00000000E+00	 7.50000000E-01	 6.00000000E+00
	 1.00000000E+00	 1.00000000E+00	 5.50000000E+00
	 7.50000000E-01	 5.00000000E-01	 6.00000000E+00
	 7.50000000E-01	 1.00000000E+00	 6.00000000E+00
	 5.00000000E-01	 5.00000000E-01	 5.50000000E+00
	 5.00000000E-01	 7.50000000E-01	 6.00000000E+00
	 5.00000000E-01	 1.00000000E+00	 5.50000000E+00
	 1.00000000E+00	 0.00000000E+00	 6.00000000E+00
	 5.00000000E-01	 0.00000000E+00	 6.00000000E+00
	 1.00000000E+00	 0.00000000E+00	 5.50000000E+00
	 1.00000000E+00	 2.50000000E-01	 6.00000000E+00
	 7.50000000E-01	 0.00000000E+00	 6.00000000E+00
	 5.00000000E-01	 0.00000000E+00	 5.50000000E+00
	 5.00000000E-01	 2.50000000E-01	 6.00000000E+00
	 0.00000000E+00	 5.00000000E-01	 6.00000000E+00
	 0.00000000E+00	 1.00000000E+00	 6.00000000E+00
	 2.50000000E-01	 5.00000000E-01	 6.00000000E+00
	 2.50000000E-01	 1.00000000E+00	 6.00000000E+00
	 0.00000000E+00	 5.00000000E-01	 5.50000000E+00
	 0.00000000E+00	 7.50000000E-01	 6.00000000E+00
	 0.00000000E+00	 1.00000000E+00	 5.50000000E+00
	 0.00000000E+00	 0.00000000E+00	 6.00000000E+00
	 2.50000000E-01	 0.00000000E+00	 6.00000000E+00
	 0.00000000E+00	 0.00000000E+00	 5.50000000E+00
	 0.00000000E+00	 2.50000000E-01	 6.00000000E+00
	 1.00000000E+00	 5.00000000E-01	 7.00000000E+00
[...]
POINT_DATA 522
FIELD U 1
	U 3 522 double
		 1.05815000E-02	 1.05799000E-02	 0.00000000E+00
		 1.01207000E-02	 6.21117000E-03	 0.00000000E+00
		 1.19617000E-02	 6.21119000E-03	 8.74052000E-03
		 1.24216000E-02	 1.05832000E-02	 8.73799000E-03
		 5.75140000E-03	 1.15021000E-02	 0.00000000E+00
		 5.29089000E-03	 6.21116000E-03	 0.00000000E+00
		 7.13280000E-03	 6.21118000E-03	 1.05811000E-02
		 7.59256000E-03	 1.15036000E-02	 1.05788000E-02
		 1.02358000E-02	 8.39569000E-03	 0.00000000E+00
		 1.05814000E-02	 6.21118000E-03	 4.37055000E-03
		 1.20766000E-02	 8.39732000E-03	 8.74003000E-03
		 1.10419000E-02	 1.05811000E-02	 4.36916000E-03
		 8.28198000E-03	 1.10411000E-02	 0.00000000E+00
		 7.82127000E-03	 6.21116000E-03	 0.00000000E+00
		 9.66238000E-03	 6.21118000E-03	 9.66072000E-03
		 1.01223000E-02	 1.10435000E-02	 9.65819000E-03
		 5.40597000E-03	 8.85668000E-03	 0.00000000E+00
		 5.75144000E-03	 6.21116000E-03	 5.29110000E-03
		 7.24773000E-03	 8.85744000E-03	 1.05805000E-02
		 6.21173000E-03	 1.15028000E-02	 5.28989000E-03
		 1.05816000E-02	 1.84240000E-03	 0.00000000E+00
		 1.24216000E-02	 1.83917000E-03	 8.73803000E-03
		 5.75140000E-03	 9.20231000E-04	 0.00000000E+00
		 7.59256000E-03	 9.18796000E-04	 1.05789000E-02
		 1.02358000E-02	 4.02664000E-03	 0.00000000E+00
		 1.10420000E-02	 1.84122000E-03	 4.36918000E-03
		 1.20766000E-02	 4.02505000E-03	 8.74005000E-03
		 8.28199000E-03	 1.38117000E-03	 0.00000000E+00
		 1.01223000E-02	 1.37888000E-03	 9.65823000E-03
		 5.40597000E-03	 3.56564000E-03	 0.00000000E+00
		 6.21173000E-03	 9.19563000E-04	 5.28991000E-03
		 7.24773000E-03	 3.56492000E-03	 1.05806000E-02
		 0.00000000E+00	 1.24223000E-02	 0.00000000E+00
		-4.60344000E-04	 6.21116000E-03	 0.00000000E+00
		 1.38424000E-03	 6.21118000E-03	 1.24236000E-02
		 1.84393000E-03	 1.24224000E-02	 1.24216000E-02
		 2.99060000E-03	 1.19623000E-02	 0.00000000E+00
		 2.53026000E-03	 6.21116000E-03	 0.00000000E+00
		 4.37330000E-03	 6.21118000E-03	 1.15019000E-02
		 4.83295000E-03	 1.19631000E-02	 1.14999000E-02
		-3.45180000E-04	 9.31687000E-03	 0.00000000E+00
		 7.26556000E-07	 6.21116000E-03	 6.21261000E-03
		 1.49925000E-03	 9.31691000E-03	 1.24230000E-02
		 4.60861000E-04	 1.24225000E-02	 6.21159000E-03
		 0.00000000E+00	 0.00000000E+00	 0.00000000E+00
		 1.84393000E-03	 0.00000000E+00	 1.24216000E-02
		 2.99059000E-03	 4.59970000E-04	 0.00000000E+00
		 4.83295000E-03	 4.59290000E-04	 1.15000000E-02
		-3.45180000E-04	 3.10545000E-03	 0.00000000E+00
		 4.60861000E-04	-1.38795000E-07	 6.21161000E-03
		 1.49925000E-03	 3.10545000E-03	 1.24230000E-02
		 1.74751000E-02	 6.21126000E-03	 1.74778000E-02
		 1.79337000E-02	 1.05879000E-02	 1.74739000E-02
		 1.26528000E-02	 6.21124000E-03	 2.11526000E-02
		 1.31114000E-02	 1.15058000E-02	 2.11489000E-02
		 1.42606000E-02	 6.21122000E-03	 1.31108000E-02
		 1.75897000E-02	 8.39971000E-03	 1.74769000E-02
		 1.47197000E-02	 1.05860000E-02	 1.31074000E-02
		 1.51787000E-02	 6.21125000E-03	 1.93146000E-02
		 1.56374000E-02	 1.10469000E-02	 1.93107000E-02
		 9.43369000E-03	 6.21121000E-03	 1.58689000E-02
		 1.27675000E-02	 8.85859000E-03	 2.11517000E-02
		 9.89283000E-03	 1.15049000E-02	 1.58658000E-02
		 1.79338000E-02	 1.83460000E-03	 1.74740000E-02
		 1.31114000E-02	 9.16700000E-04	 2.11490000E-02
		 1.47197000E-02	 1.83636000E-03	 1.31075000E-02
		 1.75897000E-02	 4.02279000E-03	 1.74769000E-02
		 1.56374000E-02	 1.37556000E-03	 1.93108000E-02
		 9.89283000E-03	 9.17526000E-04	 1.58659000E-02
		 1.27675000E-02	 3.56389000E-03	 2.11517000E-02
		 6.91322000E-03	 6.21124000E-03	 2.48335000E-02
		 7.37187000E-03	 1.24224000E-02	 2.48299000E-02
		 9.89749000E-03	 6.21124000E-03	 2.29922000E-02
		 1.03561000E-02	 1.19642000E-02	 2.29886000E-02
		 3.68862000E-03	 6.21120000E-03	 1.86310000E-02
		 7.02798000E-03	 9.31699000E-03	 2.48325000E-02
		 4.14775000E-03	 1.24225000E-02	 1.86282000E-02
		 7.37187000E-03	 5.26162000E-08	 2.48299000E-02
		 1.03561000E-02	 4.58293000E-04	 2.29887000E-02
		 4.14775000E-03	-1.04192000E-07	 1.86282000E-02
		 7.02798000E-03	 3.10550000E-03	 2.48325000E-02
		 2.66494000E-02	 6.21138000E-03	 2.61942000E-02
		 2.71075000E-02	 1.05900000E-02	 2.61889000E-02
		 2.18422000E-02	 6.21136000E-03	 3.17006000E-02
		 2.23003000E-02	 1.15069000E-02	 3.16953000E-02
		 2.16049000E-02	 6.21131000E-03	 2.18396000E-02
		 2.67638000E-02	 8.40082000E-03	 2.61929000E-02
		 2.20632000E-02	 1.05891000E-02	 2.18350000E-02
		 2.43605000E-02	 6.21137000E-03	 2.89462000E-02
		 2.48187000E-02	 1.10485000E-02	 2.89409000E-02
		 1.67892000E-02	 6.21130000E-03	 2.64305000E-02
		 2.19567000E-02	 8.85921000E-03	 3.16992000E-02
		 1.72475000E-02	 1.15065000E-02	 2.64260000E-02
		 2.71075000E-02	 1.83274000E-03	 2.61890000E-02
		 2.23003000E-02	 9.15803000E-04	 3.16955000E-02
		 2.20633000E-02	 1.83344000E-03	 2.18352000E-02
		 2.67638000E-02	 4.02192000E-03	 2.61929000E-02
		 2.48187000E-02	 1.37418000E-03	 2.89410000E-02
		 1.72475000E-02	 9.16068000E-04	 2.64261000E-02
		 2.19567000E-02	 3.56351000E-03	 3.16993000E-02
		 1.61188000E-02	 6.21136000E-03	 3.72166000E-02
		 1.65769000E-02	 1.24226000E-02	 3.72114000E-02
		 1.90949000E-02	 6.21136000E-03	 3.44573000E-02
		 1.95529000E-02	 1.19648000E-02	 3.44522000E-02
		 1.10567000E-02	 6.21130000E-03	 3.10292000E-02
		 1.62334000E-02	 9.31710000E-03	 3.72153000E-02
		 1.15150000E-02	 1.24226000E-02	 3.10248000E-02
		 1.65769000E-02	 1.77315000E-07	 3.72116000E-02
		 1.95529000E-02	 4.57894000E-04	 3.44523000E-02
		 1.15150000E-02	-1.46334000E-08	 3.10249000E-02
		 1.62334000E-02	 3.10563000E-03	 3.72153000E-02
		 3.94813000E-02	 6.21156000E-03	 3.48733000E-02
		 3.99392000E-02	 1.05909000E-02	 3.48664000E-02
		 3.46968000E-02	 6.21154000E-03	 4.22099000E-02
		 3.51547000E-02	 1.15075000E-02	 4.22031000E-02
		 3.26083000E-02	 6.21146000E-03	 3.05393000E-02
		 3.95957000E-02	 8.40139000E-03	 3.48716000E-02
		 3.30663000E-02	 1.05906000E-02	 3.05333000E-02
		 3.72037000E-02	 6.21155000E-03	 3.85399000E-02
		 3.76616000E-02	 1.10493000E-02	 3.85331000E-02
		 2.78115000E-02	 6.21144000E-03	 3.69609000E-02
		 3.48112000E-02	 8.85960000E-03	 4.22082000E-02
		 2.82695000E-02	 1.15074000E-02	 3.69549000E-02
		 3.99392000E-02	 1.83212000E-03	 3.48667000E-02
		 3.51547000E-02	 9.15558000E-04	 4.22033000E-02
		 3.30663000E-02	 1.83227000E-03	 3.05334000E-02
		 3.95957000E-02	 4.02170000E-03	 3.48717000E-02
		 3.76616000E-02	 1.37374000E-03	 3.85333000E-02
		 2.82695000E-02	 9.15524000E-04	 3.69551000E-02
		 3.48112000E-02	 3.56348000E-03	 4.22083000E-02
		 2.89965000E-02	 6.21154000E-03	 4.95597000E-02
		 2.94544000E-02	 1.24227000E-02	 4.95529000E-02
		 3.19609000E-02	 6.21154000E-03	 4.58831000E-02
		 3.24188000E-02	 1.19652000E-02	 4.58763000E-02
		 2.20987000E-02	 6.21145000E-03	 4.33940000E-02
		 2.91111000E-02	 9.31728000E-03	 4.95580000E-02
		 2.25566000E-02	 1.24228000E-02	 4.33880000E-02
		 2.94544000E-02	 3.54742000E-07	 4.95531000E-02
		 3.24188000E-02	 4.57860000E-04	 4.58766000E-02
		 2.25566000E-02	 1.36682000E-07	 4.33882000E-02
		 2.91111000E-02	 3.10581000E-03	 4.95581000E-02
		 5.59693000E-02	 6.21180000E-03	 4.35001000E-02
		 5.64272000E-02	 1.05913000E-02	 4.34918000E-02
		 5.12146000E-02	 6.21178000E-03	 5.26664000E-02
		 5.16725000E-02	 1.15078000E-02	 5.26581000E-02
		 4.72684000E-02	 6.21167000E-03	 3.91942000E-02
		 5.60837000E-02	 8.40169000E-03	 4.34980000E-02
		 4.77263000E-02	 1.05913000E-02	 3.91866000E-02
		 5.37066000E-02	 6.21179000E-03	 4.80812000E-02
		 5.41645000E-02	 1.10496000E-02	 4.80728000E-02
		 4.24979000E-02	 6.21165000E-03	 4.74457000E-02
		 5.13291000E-02	 8.85986000E-03	 5.26643000E-02
		 4.29557000E-02	 1.15078000E-02	 4.74380000E-02
		 5.64272000E-02	 1.83225000E-03	 4.34921000E-02
		 5.16725000E-02	 9.15770000E-04	 5.26583000E-02
		 4.77263000E-02	 1.83202000E-03	 3.91868000E-02
		 5.60837000E-02	 4.02188000E-03	 4.34982000E-02
		 5.41645000E-02	 1.37391000E-03	 4.80731000E-02
		 4.29557000E-02	 9.15508000E-04	 4.74383000E-02
		 5.13291000E-02	 3.56370000E-03	 5.26645000E-02
		 4.55443000E-02	 6.21178000E-03	 6.18495000E-02
		 4.60022000E-02	 1.24230000E-02	 6.18410000E-02
		 4.84938000E-02	 6.21178000E-03	 5.72559000E-02
		 4.89516000E-02	 1.19655000E-02	 5.72475000E-02
		 3.68116000E-02	 6.21165000E-03	 5.57121000E-02
		 4.56589000E-02	 9.31752000E-03	 6.18473000E-02
		 3.72694000E-02	 1.24230000E-02	 5.57045000E-02
		 4.60022000E-02	 5.94589000E-07	 6.18413000E-02
		 4.89516000E-02	 4.58087000E-04	 5.72477000E-02
		 3.72694000E-02	 3.46032000E-07	 5.57047000E-02
		 4.56589000E-02	 3.10604000E-03	 6.18475000E-02
		 7.61128000E-02	 6.21210000E-03	 5.20597000E-02
		 7.65708000E-02	 1.05904000E-02	 5.20500000E-02
		 7.13955000E-02	 6.21208000E-03	 6.30559000E-02
		 7.18536000E-02	 1.15075000E-02	 6.30461000E-02
		 6.55841000E-02	 6.21194000E-03	 4.77894000E-02
		 7.62272000E-02	 8.40141000E-03	 5.20572000E-02
		 6.60420000E-02	 1.05911000E-02	 4.77803000E-02
		 7.38687000E-02	 6.21209000E-03	 5.75552000E-02
		 7.43269000E-02	 1.10490000E-02	 5.75454000E-02
		 6.08472000E-02	 6.21192000E-03	 5.78705000E-02
		 7.15100000E-02	 8.85985000E-03	 6.30534000E-02
		 6.13051000E-02	 1.15078000E-02	 5.78614000E-02
		 7.65709000E-02	 1.83369000E-03	 5.20503000E-02
		 7.18536000E-02	 9.16690000E-04	 6.30464000E-02
		 6.60421000E-02	 1.83273000E-03	 4.77806000E-02
		 7.62272000E-02	 4.02276000E-03	 5.20574000E-02
		 7.43269000E-02	 1.37511000E-03	 5.75458000E-02
		 6.13051000E-02	 9.16039000E-04	 5.78616000E-02
		 7.15100000E-02	 3.56431000E-03	 6.30536000E-02
		 6.57621000E-02	 6.21208000E-03	 7.40725000E-02
		 6.62203000E-02	 1.24233000E-02	 7.40626000E-02
		 6.86932000E-02	 6.21208000E-03	 6.85617000E-02
		 6.91512000E-02	 1.19655000E-02	 6.85518000E-02
		 5.51943000E-02	 6.21192000E-03	 6.79702000E-02
		 6.58768000E-02	 9.31782000E-03	 7.40700000E-02
		 5.56522000E-02	 1.24232000E-02	 6.79610000E-02
		 6.62203000E-02	 8.91574000E-07	 7.40629000E-02
		 6.91512000E-02	 4.58710000E-04	 6.85521000E-02
		 5.56522000E-02	 6.11647000E-07	 6.79613000E-02
		 6.58768000E-02	 3.10634000E-03	 7.40702000E-02
		 9.99123000E-02	 6.21246000E-03	 6.05353000E-02
		 1.00372000E-01	 1.05865000E-02	 6.05242000E-02
		 9.52415000E-02	 6.21244000E-03	 7.33630000E-02
		 9.57006000E-02	 1.15058000E-02	 7.33517000E-02
		 8.75554000E-02	 6.21227000E-03	 5.63091000E-02
		 1.00027000E-01	 8.39961000E-03	 6.05324000E-02
		 8.80139000E-02	 1.05890000E-02	 5.62989000E-02
		 9.76919000E-02	 6.21245000E-03	 6.69459000E-02
		 9.81511000E-02	 1.10463000E-02	 6.69348000E-02
		 8.28600000E-02	 6.21226000E-03	 6.82207000E-02
		 9.53563000E-02	 8.85922000E-03	 7.33602000E-02
		 8.33186000E-02	 1.15069000E-02	 6.82102000E-02
		 1.00372000E-01	 1.83841000E-03	 6.05246000E-02
		 9.57006000E-02	 9.19045000E-04	 7.33521000E-02
		 8.80139000E-02	 1.83544000E-03	 5.62992000E-02
		 1.00027000E-01	 4.02529000E-03	 6.05326000E-02
		 9.81511000E-02	 1.37861000E-03	 6.69352000E-02
		 8.33186000E-02	 9.17625000E-04	 6.82106000E-02
		 9.53563000E-02	 3.56567000E-03	 7.33604000E-02
		 8.96524000E-02	 6.21245000E-03	 8.62156000E-02
		 9.01115000E-02	 1.24236000E-02	 8.62040000E-02
		 9.25616000E-02	 6.21245000E-03	 7.97864000E-02
		 9.30206000E-02	 1.19648000E-02	 7.97748000E-02
		 7.72478000E-02	 6.21226000E-03	 8.01549000E-02
		 8.97673000E-02	 9.31818000E-03	 8.62127000E-02
		 7.77063000E-02	 1.24236000E-02	 8.01442000E-02
		 9.01115000E-02	 1.28557000E-06	 8.62044000E-02
		 9.30206000E-02	 4.60060000E-04	 7.97752000E-02
		 7.77063000E-02	 9.60400000E-07	 8.01445000E-02
		 8.97673000E-02	 3.10672000E-03	 8.62129000E-02
		 1.27379000E-01	 6.21287000E-03	 6.89066000E-02
		 1.27839000E-01	 1.05834000E-02	 6.88941000E-02
		 1.22760000E-01	 6.21286000E-03	 8.35732000E-02
		 1.23220000E-01	 1.15044000E-02	 8.35603000E-02
		 1.13186000E-01	 6.21266000E-03	 6.47343000E-02
		 1.27494000E-01	 8.39831000E-03	 6.89035000E-02
		 1.13646000E-01	 1.05848000E-02	 6.47223000E-02
		 1.25185000E-01	 6.21286000E-03	 7.62366000E-02
		 1.25645000E-01	 1.10439000E-02	 7.62239000E-02
		 1.08541000E-01	 6.21265000E-03	 7.84809000E-02
		 1.22875000E-01	 8.85868000E-03	 8.35700000E-02
		 1.09001000E-01	 1.15053000E-02	 7.84687000E-02
		 1.27839000E-01	 1.84231000E-03	 6.88945000E-02
		 1.23220000E-01	 9.21358000E-04	 8.35608000E-02
		 1.13646000E-01	 1.84049000E-03	 6.47227000E-02
		 1.27494000E-01	 4.02742000E-03	 6.89037000E-02
		 1.25645000E-01	 1.38176000E-03	 7.62243000E-02
		 1.09001000E-01	 9.19996000E-04	 7.84691000E-02
		 1.22875000E-01	 3.56703000E-03	 8.35702000E-02
		 1.17222000E-01	 6.21286000E-03	 9.82646000E-02
		 1.17682000E-01	 1.24239000E-02	 9.82518000E-02
		 1.20106000E-01	 6.21286000E-03	 9.09156000E-02
		 1.20566000E-01	 1.19642000E-02	 9.09028000E-02
		 1.02977000E-01	 6.21265000E-03	 9.22529000E-02
		 1.17337000E-01	 9.31853000E-03	 9.82614000E-02
		 1.03436000E-01	 1.24241000E-02	 9.22405000E-02
		 1.17682000E-01	 1.80121000E-06	 9.82522000E-02
		 1.20566000E-01	 4.61489000E-04	 9.09032000E-02
		 1.03436000E-01	 1.18108000E-06	 9.22409000E-02
		 1.17337000E-01	 3.10718000E-03	 9.82616000E-02
		 5.11822000E-04	 5.01383000E-04	 0.00000000E+00
		 3.82457000E-04	 5.01782000E-04	 0.00000000E+00
		 9.03604000E-04	 5.01363000E-04	 2.76968000E-06
		 1.04286000E-03	 5.01258000E-04	-1.41045000E-06
		 3.81436000E-04	 7.57336000E-04	 0.00000000E+00
		 2.53867000E-04	 5.02107000E-04	 0.00000000E+00
		 7.65011000E-04	 5.01690000E-04	 5.30232000E-04
		 9.03916000E-04	 7.79111000E-04	 5.22319000E-04
		 4.15103000E-04	 5.01474000E-04	 0.00000000E+00
		 5.12001000E-04	 5.01680000E-04	 1.28109000E-06
		 9.38529000E-04	 5.01313000E-04	 9.01312000E-07
		 6.44542000E-04	 5.01552000E-04	-1.23094000E-06
		 4.78428000E-04	 6.30043000E-04	 0.00000000E+00
		 3.49554000E-04	 5.01946000E-04	 0.00000000E+00
		 8.68954000E-04	 5.01527000E-04	 2.66670000E-04
		 1.00810000E-03	 6.40251000E-04	 2.62425000E-04
		 2.86575000E-04	 6.29416000E-04	 0.00000000E+00
		 3.80449000E-04	 5.02003000E-04	 2.61007000E-04
		 7.99852000E-04	 6.40369000E-04	 5.28722000E-04
		 5.11565000E-04	 7.65585000E-04	 2.55610000E-04
		 5.11129000E-04	 5.02102000E-04	 0.00000000E+00
		 1.04216000E-03	 5.01379000E-04	-2.27529000E-06
		 3.80754000E-04	 2.46978000E-04	 0.00000000E+00
		 9.03224000E-04	 2.24382000E-04	 5.21468000E-04
		 4.14775000E-04	 5.02066000E-04	 0.00000000E+00
		 6.43846000E-04	 5.01724000E-04	-1.65421000E-06
		 9.38199000E-04	 5.01386000E-04	 4.67278000E-07
		 4.77694000E-04	 3.73858000E-04	 0.00000000E+00
		 1.00735000E-03	 3.62815000E-04	 2.61562000E-04
		 2.86270000E-04	 3.74831000E-04	 0.00000000E+00
		 5.10879000E-04	 2.38528000E-04	 2.55196000E-04
		 7.99549000E-04	 3.63048000E-04	 5.28293000E-04
		 0.00000000E+00	 1.00522000E-03	 0.00000000E+00
		-1.23418000E-04	 5.02179000E-04	 0.00000000E+00
		 3.50573000E-04	 5.01736000E-04	 1.03710000E-03
		 4.88441000E-04	 1.05524000E-03	 1.02486000E-03
		 2.20246000E-04	 8.81954000E-04	 0.00000000E+00
		 9.45890000E-05	 5.02201000E-04	 0.00000000E+00
		 5.92292000E-04	 5.01780000E-04	 7.88819000E-04
		 7.30748000E-04	 9.17277000E-04	 7.76540000E-04
		-9.15558000E-05	 7.53719000E-04	 0.00000000E+00
		-9.81964000E-06	 5.02067000E-04	 5.09809000E-04
		 3.84966000E-04	 7.78399000E-04	 1.03633000E-03
		 1.17925000E-04	 1.02209000E-03	 5.01594000E-04
		 0.00000000E+00	 0.00000000E+00	 0.00000000E+00
		 4.88512000E-04	-5.07887000E-05	 1.02407000E-03
		 2.19731000E-04	 1.22860000E-04	 0.00000000E+00
		 7.30233000E-04	 8.67493000E-05	 7.75714000E-04
		-9.14204000E-05	 2.50950000E-04	 0.00000000E+00
		 1.17946000E-04	-1.70544000E-05	 5.01203000E-04
		 3.85161000E-04	 2.25423000E-04	 1.03593000E-03
		 2.53791000E-03	 5.00026000E-04	 3.47444000E-07
		 2.69157000E-03	 5.00086000E-04	-1.81706000E-06
		 2.38558000E-03	 5.00356000E-04	 1.11667000E-03
		 2.54000000E-03	 8.08345000E-04	 1.11237000E-03
		 1.57342000E-03	 5.00817000E-04	 1.40469000E-06
		 2.57629000E-03	 5.00137000E-04	-5.18615000E-07
		 1.72066000E-03	 5.00786000E-04	-2.10106000E-06
		 2.50048000E-03	 5.00192000E-04	 5.58598000E-04
		 2.65439000E-03	 6.53931000E-04	 5.56287000E-04
		 1.42679000E-03	 5.01148000E-04	 8.17237000E-04
		 2.42391000E-03	 6.54481000E-04	 1.11583000E-03
		 1.57471000E-03	 7.95514000E-04	 8.10038000E-04
		 2.69086000E-03	 4.99868000E-04	-3.65702000E-06
		 2.53929000E-03	 1.92496000E-04	 1.11053000E-03
		 1.71995000E-03	 5.00754000E-04	-3.44131000E-06
		 2.57595000E-03	 4.99884000E-04	-1.43936000E-06
		 2.65362000E-03	 3.46466000E-04	 5.54448000E-04
		 1.57400000E-03	 2.06902000E-04	 8.08708000E-04
		 2.42361000E-03	 3.46274000E-04	 1.11491000E-03
		 1.92269000E-03	 5.00371000E-04	 2.22562000E-03
		 2.07835000E-03	 1.11990000E-03	 2.21947000E-03
		 2.19373000E-03	 5.00441000E-04	 1.67309000E-03
		 2.34883000E-03	 9.63883000E-04	 1.66706000E-03
		 9.82739000E-04	 5.01174000E-04	 1.61808000E-03
		 1.96103000E-03	 8.10038000E-04	 2.22471000E-03
		 1.13184000E-03	 1.09435000E-03	 1.60715000E-03
		 2.07850000E-03	-1.18057000E-04	 2.21763000E-03
		 2.34832000E-03	 3.75237000E-05	 1.66523000E-03
		 1.13196000E-03	-9.09481000E-05	 1.60584000E-03
		 1.96129000E-03	 1.91100000E-04	 2.22380000E-03
		 5.39332000E-03	 4.97671000E-04	-4.36220000E-06
		 5.55319000E-03	 4.97621000E-04	-4.46697000E-06
		 5.23677000E-03	 4.98001000E-04	 1.73997000E-03
		 5.39692000E-03	 8.17557000E-04	 1.73901000E-03
		 3.80833000E-03	 4.98978000E-04	-1.80051000E-06
		 5.43332000E-03	 4.97690000E-04	-4.23659000E-06
		 3.96575000E-03	 4.98962000E-04	-2.80992000E-06
		 5.35502000E-03	 4.97837000E-04	 8.67718000E-04
		 5.51504000E-03	 6.57559000E-04	 8.67470000E-04
		 3.65319000E-03	 4.99309000E-04	 1.42551000E-03
		 5.27684000E-03	 6.57799000E-04	 1.74001000E-03
		 3.81102000E-03	 8.13819000E-04	 1.42335000E-03
		 5.55247000E-03	 4.97619000E-04	-7.34352000E-06
		 5.39620000E-03	 1.78576000E-04	 1.73613000E-03
		 3.96502000E-03	 4.98895000E-04	-5.16414000E-06
		 5.43298000E-03	 4.97621000E-04	-5.67518000E-06
		 5.51426000E-03	 3.38128000E-04	 8.64593000E-04
		 3.81031000E-03	 1.84928000E-04	 1.42100000E-03
		 5.27653000E-03	 3.38247000E-04	 1.73857000E-03
		 4.75949000E-03	 4.98008000E-04	 3.48188000E-03
		 4.91974000E-03	 1.13879000E-03	 3.48006000E-03
		 5.03815000E-03	 4.98082000E-04	 2.61151000E-03
		 5.19848000E-03	 9.78165000E-04	 2.60985000E-03
		 3.18270000E-03	 4.99320000E-04	 2.84783000E-03
		 4.79946000E-03	 8.18367000E-04	 3.48182000E-03
		 3.34094000E-03	 1.13051000E-03	 2.84445000E-03
		 4.91990000E-03	-1.41649000E-04	 3.47718000E-03
		 5.19797000E-03	 1.85349000E-05	 2.60697000E-03
		 3.34110000E-03	-1.30762000E-04	 2.84210000E-03
		 4.79973000E-03	 1.78054000E-04	 3.48038000E-03
		 9.52177000E-03	 4.94264000E-04	-1.29250000E-05
		 9.68396000E-03	 4.94232000E-04	-1.20798000E-05
		 9.36565000E-03	 4.94593000E-04	 2.37449000E-03
		 9.52798000E-03	 8.18590000E-04	 2.37505000E-03
		 7.29666000E-03	 4.96100000E-04	-8.01700000E-06
		 9.56237000E-03	 4.94284000E-04	-1.22946000E-05
		 7.45791000E-03	 4.96034000E-04	-7.60874000E-06
		 9.48425000E-03	 4.94430000E-04	 1.18061000E-03
		 9.64652000E-03	 6.56372000E-04	 1.18143000E-03
		 7.13988000E-03	 4.96430000E-04	 2.05660000E-03
		 9.40625000E-03	 6.56611000E-04	 2.37512000E-03
		 7.30131000E-03	 8.18446000E-04	 2.05652000E-03
		 9.68323000E-03	 4.94192000E-04	-1.60175000E-05
		 9.52726000E-03	 1.70729000E-04	 2.37111000E-03
		 7.45718000E-03	 4.96064000E-04	-1.10135000E-05
		 9.56203000E-03	 4.94213000E-04	-1.42639000E-05
		 9.64573000E-03	 3.32501000E-04	 1.17749000E-03
		 7.30060000E-03	 1.74545000E-04	 2.05312000E-03
		 9.40594000E-03	 3.32619000E-04	 2.37315000E-03
		 8.88502000E-03	 4.94592000E-04	 4.76219000E-03
		 9.04713000E-03	 1.14350000E-03	 4.76245000E-03
		 9.16596000E-03	 4.94672000E-04	 3.56844000E-03
		 9.32829000E-03	 9.81045000E-04	 3.56873000E-03
		 6.66083000E-03	 4.96433000E-04	 4.12044000E-03
		 8.92537000E-03	 8.18988000E-04	 4.76281000E-03
		 6.82216000E-03	 1.14156000E-03	 4.11993000E-03
		 9.04731000E-03	-1.53175000E-04	 4.75851000E-03