# vtk DataFile Version 3.0

ASCII
DATASET UNSTRUCTURED_GRID

POINTS 2407 double
	 1.12530000E+01	 9.50000000E+00	 0.00000000E+00
	 1.12530000E+01	 1.00250000E+01	 0.00000000E+00
	 1.12530000E+01	 1.05500000E+01	 0.00000000E+00
	 1.12530000E+01	 1.10750000E+01	 0.00000000E+00
	 1.12530000E+01	 1.16000000E+01	 0.00000000E+00
	 1.12530000E+01	 1.21250000E+01	 0.00000000E+00
	 1.12530000E+01	 1.26500000E+01	 0.00000000E+00
	 1.12530000E+01	 1.31750000E+01	 0.00000000E+00
	 1.12530000E+01	 1.37000000E+01	 0.00000000E+00
	 1.12530000E+01	 1.42250000E+01	 0.00000000E+00
	 1.12530000E+01	 1.47500000E+01	 0.00000000E+00
	 1.12530000E+01	 1.52750000E+01	 0.00000000E+00
	 1.12530000E+01	 1.58000000E+01	 0.00000000E+00
	 1.12530000E+01	 1.63250000E+01	 0.00000000E+00
	 1.12530000E+01	 1.68500000E+01	 0.00000000E+00
	 1.12530000E+01	 1.73750000E+01	 0.00000000E+00
	 1.12530000E+01	 1.79000000E+01	 0.00000000E+00
	 1.12530000E+01	 1.84250000E+01	 0.00000000E+00
	 1.12530000E+01	 1.89500000E+01	 0.00000000E+00
	 1.12530000E+01	 1.94750000E+01	 0.00000000E+00
	 1.12530000E+01	 2.00000000E+01	 0.00000000E+00
	 1.07530000E+01	 9.50000000E+00	 0.00000000E+00
	 1.07530000E+01	 1.05500000E+01	 0.00000000E+00
	 1.07530000E+01	 1.16000000E+01	 0.00000000E+00
	 1.07530000E+01	 1.26500000E+01	 0.00000000E+00
	 1.07530000E+01	 1.37000000E+01	 0.00000000E+00
	 1.07530000E+01	 1.47500000E+01	 0.00000000E+00
	 1.07530000E+01	 1.58000000E+01	 0.00000000E+00
	 1.07530000E+01	 1.68500000E+01	 0.00000000E+00
	 1.07530000E+01	 1.79000000E+01	 0.00000000E+00
	 1.07530000E+01	 1.89500000E+01	 0.00000000E+00
	 1.07530000E+01	 2.00000000E+01	 0.00000000E+00
	 1.02530000E+01	 9.50000000E+00	 0.00000000E+00
	 1.02530000E+01	 1.00250000E+01	 0.00000000E+00
	 1.02530000E+01	 1.05500000E+01	 0.00000000E+00
	 1.02530000E+01	 1.10750000E+01	 0.00000000E+00
	 1.02530000E+01	 1.16000000E+01	 0.00000000E+00
	 1.02530000E+01	 1.21250000E+01	 0.00000000E+00
	 1.02530000E+01	 1.26500000E+01	 0.00000000E+00
	 1.02530000E+01	 1.31750000E+01	 0.00000000E+00
	 1.02530000E+01	 1.37000000E+01	 0.00000000E+00
	 1.02530000E+01	 1.42250000E+01	 0.00000000E+00
	 1.02530000E+01	 1.47500000E+01	 0.00000000E+00
	 1.02530000E+01	 1.52750000E+01	 0.00000000E+00
	 1.02530000E+01	 1.58000000E+01	 0.00000000E+00
	 1.02530000E+01	 1.63250000E+01	 0.00000000E+00
	 1.02530000E+01	 1.68500000E+01	 0.00000000E+00
	 1.02530000E+01	 1.73750000E+01	 0.00000000E+00
	 1.02530000E+01	 1.79000000E+01	 0.00000000E+00
	 1.02530000E+01	 1.84250000E+01	 0.00000000E+00
	 1.02530000E+01	 1.89500000E+01	 0.00000000E+00
	 1.02530000E+01	 1.94750000E+01	 0.00000000E+00
	 1.02530000E+01	 2.00000000E+01	 0.00000000E+00
	 9.75300000E+00	 9.50000000E+00	 0.00000000E+00
	 9.75300000E+00	 1.05500000E+01	 0.00000000E+00
	 9.75300000E+00	 1.16000000E+01	 0.00000000E+00
	 9.75300000E+00	 1.26500000E+01	 0.00000000E+00
	 9.75300000E+00	 1.37000000E+01	 0.00000000E+00
	 9.75300000E+00	 1.47500000E+01	 0.00000000E+00
	 9.75300000E+00	 1.58000000E+01	 0.00000000E+00
	 9.75300000E+00	 1.68500000E+01	 0.00000000E+00
	 9.75300000E+00	 1.79000000E+01	 0.00000000E+00
	 9.75300000E+00	 1.89500000E+01	 0.00000000E+00
	 9.75300000E+00	 2.00000000E+01	 0.00000000E+00
	 9.25300000E+00	 9.50000000E+00	 0.00000000E+00
	 9.25300000E+00	 1.00250000E+01	 0.00000000E+00
	 9.25300000E+00	 1.05500000E+01	 0.00000000E+00
	 9.25300000E+00	 1.10750000E+01	 0.00000000E+00
	 9.25300000E+00	 1.16000000E+01	 0.00000000E+00
	 9.25300000E+00	 1.21250000E+01	 0.00000000E+00
	 9.25300000E+00	 1.26500000E+01	 0.00000000E+00
	 9.25300000E+00	 1.31750000E+01	 0.00000000E+00
	 9.25300000E+00	 1.37000000E+01	 0.00000000E+00
	 9.25300000E+00	 1.42250000E+01	 0.00000000E+00
	 9.25300000E+00	 1.47500000E+01	 0.00000000E+00
	 9.25300000E+00	 1.52750000E+01	 0.00000000E+00
	 9.25300000E+00	 1.58000000E+01	 0.00000000E+00
	 9.25300000E+00	 1.63250000E+01	 0.00000000E+00
	 9.25300000E+00	 1.68500000E+01	 0.00000000E+00
	 9.25300000E+00	 1.73750000E+01	 0.00000000E+00
	 9.25300000E+00	 1.79000000E+01	 0.00000000E+00
	 9.25300000E+00	 1.84250000E+01	 0.00000000E+00
	 9.25300000E+00	 1.89500000E+01	 0.00000000E+00
	 9.25300000E+00	 1.94750000E+01	 0.00000000E+00
	 9.25300000E+00	 2.00000000E+01	 0.00000000E+00
	 8.75300000E+00	 9.50000000E+00	 0.00000000E+00
	 8.75300000E+00	 1.05500000E+01	 0.00000000E+00
	 8.75300000E+00	 1.16000000E+01	 0.00000000E+00
	 8.75300000E+00	 1.26500000E+01	 0.00000000E+00
	 8.75300000E+00	 1.37000000E+01	 0.00000000E+00
	 8.75300000E+00	 1.47500000E+01	 0.00000000E+00
	 8.75300000E+00	 1.58000000E+01	 0.00000000E+00
	 8.75300000E+00	 1.68500000E+01	 0.00000000E+00
	 8.75300000E+00	 1.79000000E+01	 0.00000000E+00
	 8.75300000E+00	 1.89500000E+01	 0.00000000E+00
	 8.75300000E+00	 2.00000000E+01	 0.00000000E+00
	 8.25300000E+00	 9.50000000E+00	 0.00000000E+00
	 8.25300000E+00	 1.00250000E+01	 0.00000000E+00
	 8.25300000E+00	 1.05500000E+01	 0.00000000E+00
	 8.25300000E+00	 1.10750000E+01	 0.00000000E+00
	 8.25300000E+00	 1.16000000E+01	 0.00000000E+00
	 8.25300000E+00	 1.21250000E+01	 0.00000000E+00
	 8.25300000E+00	 1.26500000E+01	 0.00000000E+00
	 8.25300000E+00	 1.31750000E+01	 0.00000000E+00
	 8.25300000E+00	 1.37000000E+01	 0.00000000E+00
	 8.25300000E+00	 1.42250000E+01	 0.00000000E+00
	 8.25300000E+00	 1.47500000E+01	 0.00000000E+00
	 8.25300000E+00	 1.52750000E+01	 0.00000000E+00
	 8.25300000E+00	 1.58000000E+01	 0.00000000E+00
	 8.25300000E+00	 1.63250000E+01	 0.00000000E+00
	 8.25300000E+00	 1.68500000E+01	 0.00000000E+00
	 8.25300000E+00	 1.73750000E+01	 0.00000000E+00
	 8.25300000E+00	 1.79000000E+01	 0.00000000E+00
	 8.25300000E+00	 1.84250000E+01	 0.00000000E+00
	 8.25300000E+00	 1.89500000E+01	 0.00000000E+00
	 8.25300000E+00	 1.94750000E+01	 0.00000000E+00
	 8.25300000E+00	 2.00000000E+01	 0.00000000E+00
	 7.75300000E+00	 9.50000000E+00	 0.00000000E+00
	 7.75300000E+00	 1.05500000E+01	 0.00000000E+00
	 7.75300000E+00	 1.16000000E+01	 0.00000000E+00
	 7.75300000E+00	 1.26500000E+01	 0.00000000E+00
	 7.75300000E+00	 1.37000000E+01	 0.00000000E+00
	 7.75300000E+00	 1.47500000E+01	 0.00000000E+00
	 7.75300000E+00	 1.58000000E+01	 0.00000000E+00
	 7.75300000E+00	 1.68500000E+01	 0.00000000E+00
	 7.75300000E+00	 1.79000000E+01	 0.00000000E+00
	 7.75300000E+00	 1.89500000E+01	 0.00000000E+00
	 7.75300000E+00	 2.00000000E+01	 0.00000000E+00
	 7.25300000E+00	 9.50000000E+00	 0.00000000E+00
	 7.25300000E+00	 1.00250000E+01	 0.00000000E+00
	 7.25300000E+00	 1.05500000E+01	 0.00000000E+00
	 7.25300000E+00	 1.10750000E+01	 0.00000000E+00
	 7.25300000E+00	 1.16000000E+01	 0.00000000E+00
	 7.25300000E+00	 1.21250000E+01	 0.00000000E+00
	 7.25300000E+00	 1.26500000E+01	 0.00000000E+00
	 7.25300000E+00	 1.31750000E+01	 0.00000000E+00
	 7.25300000E+00	 1.37000000E+01	 0.00000000E+00
	 7.25300000E+00	 1.42250000E+01	 0.00000000E+00
	 7.25300000E+00	 1.47500000E+01	 0.00000000E+00
	 7.25300000E+00	 1.52750000E+01	 0.00000000E+00
	 7.25300000E+00	 1.58000000E+01	 0.00000000E+00
	 7.25300000E+00	 1.63250000E+01	 0.00000000E+00
	 7.25300000E+00	 1.68500000E+01	 0.00000000E+00
	 7.25300000E+00	 1.73750000E+01	 0.00000000E+00
	 7.25300000E+00	 1.79000000E+01	 0.00000000E+00
	 7.25300000E+00	 1.84250000E+01	 0.00000000E+00
	 7.25300000E+00	 1.89500000E+01	 0.00000000E+00
	 7.25300000E+00	 1.94750000E+01	 0.00000000E+00
	 7.25300000E+00	 2.00000000E+01	 0.00000000E+00
	 6.75300000E+00	 9.50000000E+00	 0.00000000E+00
	 6.75300000E+00	 1.05500000E+01	 0.00000000E+00
	 6.75300000E+00	 1.16000000E+01	 0.00000000E+00
	 6.75300000E+00	 1.26500000E+01	 0.00000000E+00
	 6.75300000E+00	 1.37000000E+01	 0.00000000E+00
	 6.75300000E+00	 1.47500000E+01	 0.00000000E+00
	 6.75300000E+00	 1.58000000E+01	 0.00000000E+00
	 6.75300000E+00	 1.68500000E+01	 0.00000000E+00
	 6.75300000E+00	 1.79000000E+01	 0.00000000E+00
	 6.75300000E+00	 1.89500000E+01	 0.00000000E+00
	 6.75300000E+00	 2.00000000E+01	 0.00000000E+00
	 6.25300000E+00	 9.50000000E+00	 0.00000000E+00
	 6.25300000E+00	 1.00250000E+01	 0.00000000E+00
	 6.25300000E+00	 1.05500000E+01	 0.00000000E+00
	 6.25300000E+00	 1.10750000E+01	 0.00000000E+00
	 6.25300000E+00	 1.16000000E+01	 0.00000000E+00
	 6.25300000E+00	 1.21250000E+01	 0.00000000E+00
	 6.25300000E+00	 1.26500000E+01	 0.00000000E+00
	 6.25300000E+00	 1.31750000E+01	 0.00000000E+00
	 6.25300000E+00	 1.37000000E+01	 0.00000000E+00
	 6.25300000E+00	 1.42250000E+01	 0.00000000E+00
	 6.25300000E+00	 1.47500000E+01	 0.00000000E+00
	 6.25300000E+00	 1.52750000E+01	 0.00000000E+00
	 6.25300000E+00	 1.58000000E+01	 0.00000000E+00
	 6.25300000E+00	 1.63250000E+01	 0.00000000E+00
	 6.25300000E+00	 1.68500000E+01	 0.00000000E+00
	 6.25300000E+00	 1.73750000E+01	 0.00000000E+00
	 6.25300000E+00	 1.79000000E+01	 0.00000000E+00
	 6.25300000E+00	 1.84250000E+01	 0.00000000E+00
	 6.25300000E+00	 1.89500000E+01	 0.00000000E+00
	 6.25300000E+00	 1.94750000E+01	 0.00000000E+00
	 6.25300000E+00	 2.00000000E+01	 0.00000000E+00
	 5.75300000E+00	 9.50000000E+00	 0.00000000E+00
	 5.75300000E+00	 1.05500000E+01	 0.00000000E+00
	 5.75300000E+00	 1.16000000E+01	 0.00000000E+00
	 5.75300000E+00	 1.26500000E+01	 0.00000000E+00
	 5.75300000E+00	 1.37000000E+01	 0.00000000E+00
	 5.75300000E+00	 1.47500000E+01	 0.00000000E+00
	 5.75300000E+00	 1.58000000E+01	 0.00000000E+00
	 5.75300000E+00	 1.68500000E+01	 0.00000000E+00
	 5.75300000E+00	 1.79000000E+01	 0.00000000E+00
	 5.75300000E+00	 1.89500000E+01	 0.00000000E+00
	 5.75300000E+00	 2.00000000E+01	 0.00000000E+00
	 5.25300000E+00	 9.50000000E+00	 0.00000000E+00
	 5.25300000E+00	 1.00250000E+01	 0.00000000E+00
	 5.25300000E+00	 1.05500000E+01	 0.00000000E+00
	 5.25300000E+00	 1.10750000E+01	 0.00000000E+00
	 5.25300000E+00	 1.16000000E+01	 0.00000000E+00
	 5.25300000E+00	 1.21250000E+01	 0.00000000E+00
	 5.25300000E+00	 1.26500000E+01	 0.00000000E+00
	 5.25300000E+00	 1.31750000E+01	 0.00000000E+00
	 5.25300000E+00	 1.37000000E+01	 0.00000000E+00
	 5.25300000E+00	 1.42250000E+01	 0.00000000E+00
[...]
POINT_DATA 2407
FIELD U 1
	U 3 2407 double
		-1.17278000E-05	 0.00000000E+00	 0.00000000E+00
		-9.18375000E-06	-3.26491000E-08	 0.00000000E+00
		-6.41787000E-06	 0.00000000E+00	 0.00000000E+00
		-3.63351000E-06	-2.12200000E-08	 0.00000000E+00
		-9.23251000E-07	 0.00000000E+00	 0.00000000E+00
		 1.64639000E-06	 2.94386000E-08	 0.00000000E+00
		 4.03844000E-06	 0.00000000E+00	 0.00000000E+00
		 6.22367000E-06	 7.26547000E-08	 0.00000000E+00
		 8.17235000E-06	 0.00000000E+00	 0.00000000E+00
		 9.92939000E-06	-2.35581000E-07	 0.00000000E+00
		 1.15296000E-05	-6.58932000E-07	 0.00000000E+00
		 1.30015000E-05	-1.28455000E-06	 0.00000000E+00
		 1.43913000E-05	-2.09627000E-06	 0.00000000E+00
		 1.57729000E-05	-3.15683000E-06	 0.00000000E+00
		 1.72342000E-05	-4.39017000E-06	 0.00000000E+00
		 1.86316000E-05	-5.47885000E-06	 0.00000000E+00
		 1.98018000E-05	-6.56996000E-06	 0.00000000E+00
		 2.15574000E-05	-9.42089000E-06	 0.00000000E+00
		 2.54528000E-05	-1.20165000E-05	 0.00000000E+00
		 2.61984000E-05	-8.82473000E-07	 0.00000000E+00
		 7.51777000E-06	 1.22460000E-05	 0.00000000E+00
		-1.20276000E-05	 2.28885000E-06	 0.00000000E+00
		-6.52988000E-06	 2.48125000E-06	 0.00000000E+00
		-9.25874000E-07	 2.51929000E-06	 0.00000000E+00
		 4.10772000E-06	 2.38982000E-06	 0.00000000E+00
		 8.23978000E-06	 1.94891000E-06	 0.00000000E+00
		 1.15179000E-05	 9.92589000E-07	 0.00000000E+00
		 1.43032000E-05	-6.19363000E-07	 0.00000000E+00
		 1.69947000E-05	-2.81634000E-06	 0.00000000E+00
		 1.98446000E-05	-5.76316000E-06	 0.00000000E+00
		 2.42442000E-05	-7.08686000E-06	 0.00000000E+00
		 1.67561000E-05	-2.17226000E-05	 0.00000000E+00
		-1.24013000E-05	 4.83534000E-06	 0.00000000E+00
		-9.55450000E-06	 4.94549000E-06	 0.00000000E+00
		-6.63686000E-06	 5.02226000E-06	 0.00000000E+00
		-3.72670000E-06	 5.09019000E-06	 0.00000000E+00
		-9.02978000E-07	 5.08775000E-06	 0.00000000E+00
		 1.73278000E-06	 5.01339000E-06	 0.00000000E+00
		 4.16544000E-06	 4.85715000E-06	 0.00000000E+00
		 6.34600000E-06	 4.57952000E-06	 0.00000000E+00
		 8.27173000E-06	 4.19528000E-06	 0.00000000E+00
		 9.97598000E-06	 3.66407000E-06	 0.00000000E+00
		 1.14983000E-05	 2.99975000E-06	 0.00000000E+00
		 1.28842000E-05	 2.18848000E-06	 0.00000000E+00
		 1.41949000E-05	 1.23191000E-06	 0.00000000E+00
		 1.54955000E-05	 9.58379000E-08	 0.00000000E+00
		 1.68278000E-05	-1.18249000E-06	 0.00000000E+00
		 1.81479000E-05	-2.38291000E-06	 0.00000000E+00
		 1.95690000E-05	-3.70797000E-06	 0.00000000E+00
		 2.14772000E-05	-6.79568000E-06	 0.00000000E+00
		 2.32995000E-05	-1.05703000E-05	 0.00000000E+00
		 2.24420000E-05	-4.23778000E-06	 0.00000000E+00
		 2.35164000E-05	 3.56765000E-06	 0.00000000E+00
		-1.28515000E-05	 7.57613000E-06	 0.00000000E+00
		-6.76192000E-06	 7.73942000E-06	 0.00000000E+00
		-8.58106000E-07	 7.79915000E-06	 0.00000000E+00
		 4.25227000E-06	 7.50599000E-06	 0.00000000E+00
		 8.31923000E-06	 6.69703000E-06	 0.00000000E+00
		 1.14682000E-05	 5.32168000E-06	 0.00000000E+00
		 1.40759000E-05	 3.36678000E-06	 0.00000000E+00
		 1.65630000E-05	 8.57986000E-07	 0.00000000E+00
		 1.92850000E-05	-2.50090000E-06	 0.00000000E+00
		 2.20529000E-05	-5.32879000E-06	 0.00000000E+00
		 2.45827000E-05	-1.83121000E-05	 0.00000000E+00
		-1.34187000E-05	 1.05196000E-05	 0.00000000E+00
		-1.01624000E-05	 1.05805000E-05	 0.00000000E+00
		-6.89473000E-06	 1.06665000E-05	 0.00000000E+00
		-3.72881000E-06	 1.07304000E-05	 0.00000000E+00
		-7.54816000E-07	 1.07349000E-05	 0.00000000E+00
		 1.96472000E-06	 1.06359000E-05	 0.00000000E+00
		 4.39812000E-06	 1.04036000E-05	 0.00000000E+00
		 6.53546000E-06	 1.00229000E-05	 0.00000000E+00
		 8.39934000E-06	 9.48319000E-06	 0.00000000E+00
		 1.00162000E-05	 8.78869000E-06	 0.00000000E+00
		 1.14433000E-05	 7.94051000E-06	 0.00000000E+00
		 1.27264000E-05	 6.94675000E-06	 0.00000000E+00
		 1.39283000E-05	 5.80685000E-06	 0.00000000E+00
		 1.51001000E-05	 4.49373000E-06	 0.00000000E+00
		 1.62824000E-05	 3.03110000E-06	 0.00000000E+00
		 1.75071000E-05	 1.64994000E-06	 0.00000000E+00
		 1.88164000E-05	 8.12701000E-08	 0.00000000E+00
		 2.01613000E-05	-3.29588000E-06	 0.00000000E+00
		 2.13366000E-05	-6.75125000E-06	 0.00000000E+00
		 2.28529000E-05	 8.80800000E-07	 0.00000000E+00
		 2.49216000E-05	 8.53280000E-06	 0.00000000E+00
		-1.41151000E-05	 1.37242000E-05	 0.00000000E+00
		-7.02289000E-06	 1.38709000E-05	 0.00000000E+00
		-5.77842000E-07	 1.39699000E-05	 0.00000000E+00
		 4.61753000E-06	 1.36101000E-05	 0.00000000E+00
		 8.51939000E-06	 1.25737000E-05	 0.00000000E+00
		 1.14208000E-05	 1.08533000E-05	 0.00000000E+00
		 1.37536000E-05	 8.51078000E-06	 0.00000000E+00
		 1.59611000E-05	 5.62811000E-06	 0.00000000E+00
		 1.83166000E-05	 1.94222000E-06	 0.00000000E+00
		 2.10910000E-05	-5.04331000E-07	 0.00000000E+00
		 2.50989000E-05	-1.36979000E-05	 0.00000000E+00
		-1.49404000E-05	 1.72771000E-05	 0.00000000E+00
		-1.09804000E-05	 1.73291000E-05	 0.00000000E+00
		-7.11476000E-06	 1.74421000E-05	 0.00000000E+00
		-3.52582000E-06	 1.75505000E-05	 0.00000000E+00
		-2.93995000E-07	 1.75862000E-05	 0.00000000E+00
		 2.51442000E-06	 1.74696000E-05	 0.00000000E+00
		 4.92515000E-06	 1.71761000E-05	 0.00000000E+00
		 6.96350000E-06	 1.66802000E-05	 0.00000000E+00
		 8.68434000E-06	 1.59869000E-05	 0.00000000E+00
		 1.01420000E-05	 1.51065000E-05	 0.00000000E+00
		 1.14005000E-05	 1.40532000E-05	 0.00000000E+00
		 1.25182000E-05	 1.28502000E-05	 0.00000000E+00
		 1.35563000E-05	 1.15016000E-05	 0.00000000E+00
		 1.45589000E-05	 9.98212000E-06	 0.00000000E+00
		 1.55809000E-05	 8.33070000E-06	 0.00000000E+00
		 1.66791000E-05	 6.81074000E-06	 0.00000000E+00
		 1.78910000E-05	 5.19758000E-06	 0.00000000E+00
		 1.91822000E-05	 1.82331000E-06	 0.00000000E+00
		 2.07240000E-05	-1.55879000E-06	 0.00000000E+00
		 2.26418000E-05	 6.10846000E-06	 0.00000000E+00
		 2.50802000E-05	 1.38155000E-05	 0.00000000E+00
		-1.59196000E-05	 2.12765000E-05	 0.00000000E+00
		-7.15711000E-06	 2.14792000E-05	 0.00000000E+00
		 1.03527000E-07	 2.16720000E-05	 0.00000000E+00
		 5.32239000E-06	 2.11598000E-05	 0.00000000E+00
		 8.88486000E-06	 1.97443000E-05	 0.00000000E+00
		 1.13740000E-05	 1.75429000E-05	 0.00000000E+00
		 1.33191000E-05	 1.47189000E-05	 0.00000000E+00
		 1.51845000E-05	 1.14399000E-05	 0.00000000E+00
		 1.73635000E-05	 7.51931000E-06	 0.00000000E+00
		 2.03857000E-05	 5.04333000E-06	 0.00000000E+00
		 2.49432000E-05	-8.60574000E-06	 0.00000000E+00
		-1.70463000E-05	 2.58506000E-05	 0.00000000E+00
		-1.19049000E-05	 2.59430000E-05	 0.00000000E+00
		-7.07233000E-06	 2.61382000E-05	 0.00000000E+00
		-2.84433000E-06	 2.63155000E-05	 0.00000000E+00
		 6.60598000E-07	 2.63443000E-05	 0.00000000E+00
		 3.50574000E-06	 2.61132000E-05	 0.00000000E+00
		 5.79384000E-06	 2.56144000E-05	 0.00000000E+00
		 7.62241000E-06	 2.48517000E-05	 0.00000000E+00
		 9.09958000E-06	 2.38530000E-05	 0.00000000E+00
		 1.03079000E-05	 2.26625000E-05	 0.00000000E+00
		 1.13246000E-05	 2.13001000E-05	 0.00000000E+00
		 1.22160000E-05	 1.98058000E-05	 0.00000000E+00
		 1.30456000E-05	 1.81872000E-05	 0.00000000E+00
		 1.38601000E-05	 1.64271000E-05	 0.00000000E+00
		 1.47244000E-05	 1.45755000E-05	 0.00000000E+00
		 1.57098000E-05	 1.29001000E-05	 0.00000000E+00
		 1.68569000E-05	 1.11580000E-05	 0.00000000E+00
		 1.81842000E-05	 7.68610000E-06	 0.00000000E+00
		 1.98333000E-05	 4.17475000E-06	 0.00000000E+00
		 2.19565000E-05	 1.18420000E-05	 0.00000000E+00
		 2.46184000E-05	 1.94693000E-05	 0.00000000E+00
		-1.84078000E-05	 3.12394000E-05	 0.00000000E+00
		-6.77550000E-06	 3.16098000E-05	 0.00000000E+00
		 1.37824000E-06	 3.17448000E-05	 0.00000000E+00
		 6.30858000E-06	 3.05798000E-05	 0.00000000E+00
		 9.29840000E-06	 2.83160000E-05	 0.00000000E+00
		 1.12311000E-05	 2.53140000E-05	 0.00000000E+00
		 1.27076000E-05	 2.18250000E-05	 0.00000000E+00
		 1.42225000E-05	 1.80469000E-05	 0.00000000E+00
		 1.62188000E-05	 1.37827000E-05	 0.00000000E+00
		 1.93242000E-05	 1.10525000E-05	 0.00000000E+00
		 2.41622000E-05	-3.12399000E-06	 0.00000000E+00
		-1.99809000E-05	 3.76652000E-05	 0.00000000E+00
		-1.26888000E-05	 3.78002000E-05	 0.00000000E+00
		-6.10815000E-06	 3.82912000E-05	 0.00000000E+00
		-1.37815000E-06	 3.83581000E-05	 0.00000000E+00
		 2.17870000E-06	 3.79697000E-05	 0.00000000E+00
		 4.83174000E-06	 3.72089000E-05	 0.00000000E+00
		 6.79809000E-06	 3.60615000E-05	 0.00000000E+00
		 8.29354000E-06	 3.46795000E-05	 0.00000000E+00
		 9.43842000E-06	 3.30948000E-05	 0.00000000E+00
		 1.03350000E-05	 3.13718000E-05	 0.00000000E+00
		 1.10667000E-05	 2.95323000E-05	 0.00000000E+00
		 1.17025000E-05	 2.76205000E-05	 0.00000000E+00
		 1.23056000E-05	 2.56413000E-05	 0.00000000E+00
		 1.29241000E-05	 2.35753000E-05	 0.00000000E+00
		 1.36280000E-05	 2.14662000E-05	 0.00000000E+00
		 1.44933000E-05	 1.95778000E-05	 0.00000000E+00
		 1.55715000E-05	 1.76582000E-05	 0.00000000E+00
		 1.68687000E-05	 1.39996000E-05	 0.00000000E+00
		 1.85387000E-05	 1.03051000E-05	 0.00000000E+00
		 2.07367000E-05	 1.79199000E-05	 0.00000000E+00
		 2.35147000E-05	 2.54721000E-05	 0.00000000E+00
		-2.28501000E-05	 4.59428000E-05	 0.00000000E+00
		-5.38801000E-06	 4.66677000E-05	 0.00000000E+00
		 3.02507000E-06	 4.51724000E-05	 0.00000000E+00
		 7.17841000E-06	 4.20284000E-05	 0.00000000E+00
		 9.46590000E-06	 3.81362000E-05	 0.00000000E+00
		 1.08024000E-05	 3.39126000E-05	 0.00000000E+00
		 1.18033000E-05	 2.95372000E-05	 0.00000000E+00
		 1.29643000E-05	 2.51358000E-05	 0.00000000E+00
		 1.47442000E-05	 2.04270000E-05	 0.00000000E+00
		 1.78054000E-05	 1.73485000E-05	 0.00000000E+00
		 2.27257000E-05	 2.62040000E-06	 0.00000000E+00
		-2.56269000E-05	 5.86557000E-05	 0.00000000E+00
		-1.16172000E-05	 5.80366000E-05	 0.00000000E+00
		-4.49502000E-06	 5.69883000E-05	 0.00000000E+00
		 3.43694000E-07	 5.53197000E-05	 0.00000000E+00
		 3.55269000E-06	 5.31456000E-05	 0.00000000E+00
		 5.77344000E-06	 5.07465000E-05	 0.00000000E+00
		 7.36453000E-06	 4.82877000E-05	 0.00000000E+00
		 8.51131000E-06	 4.58266000E-05	 0.00000000E+00
		 9.34031000E-06	 4.33355000E-05	 0.00000000E+00
		 9.94677000E-06	 4.08443000E-05	 0.00000000E+00
		 1.04166000E-05	 3.83679000E-05	 0.00000000E+00
		 1.08161000E-05	 3.59241000E-05	 0.00000000E+00
		 1.12077000E-05	 3.35047000E-05	 0.00000000E+00
		 1.16373000E-05	 3.10731000E-05	 0.00000000E+00
		 1.21779000E-05	 2.86615000E-05	 0.00000000E+00
		 1.29155000E-05	 2.65221000E-05	 0.00000000E+00
		 1.38968000E-05	 2.43854000E-05	 0.00000000E+00
		 1.51165000E-05	 2.05104000E-05	 0.00000000E+00
		 1.67381000E-05	 1.66052000E-05	 0.00000000E+00
		 1.89317000E-05	 2.41449000E-05	 0.00000000E+00
		 2.17277000E-05	 3.15938000E-05	 0.00000000E+00
		-2.54564000E-05	 7.72039000E-05	 0.00000000E+00
		-3.84613000E-06	 6.86616000E-05	 0.00000000E+00
		 3.51047000E-06	 6.12743000E-05	 0.00000000E+00
		 7.27246000E-06	 5.46842000E-05	 0.00000000E+00
		 9.01125000E-06	 4.85535000E-05	 0.00000000E+00
		 9.88732000E-06	 4.28208000E-05	 0.00000000E+00
		 1.04839000E-05	 3.74282000E-05	 0.00000000E+00
		 1.13088000E-05	 3.23439000E-05	 0.00000000E+00
		 1.28302000E-05	 2.71506000E-05	 0.00000000E+00
		 1.57579000E-05	 2.36888000E-05	 0.00000000E+00
		 2.05933000E-05	 8.42173000E-06	 0.00000000E+00
		-2.22754000E-05	 9.14909000E-05	 0.00000000E+00
		-1.19861000E-05	 8.55693000E-05	 0.00000000E+00
		-4.96536000E-06	 7.92751000E-05	 0.00000000E+00
		-2.22702000E-08	 7.37720000E-05	 0.00000000E+00
		 3.23258000E-06	 6.91141000E-05	 0.00000000E+00
		 5.39246000E-06	 6.48621000E-05	 0.00000000E+00
		 6.84479000E-06	 6.09088000E-05	 0.00000000E+00
		 7.83653000E-06	 5.71618000E-05	 0.00000000E+00
		 8.49303000E-06	 5.36498000E-05	 0.00000000E+00
		 8.92033000E-06	 5.03232000E-05	 0.00000000E+00
		 9.21126000E-06	 4.71661000E-05	 0.00000000E+00
		 9.43605000E-06	 4.41623000E-05	 0.00000000E+00
		 9.65679000E-06	 4.12913000E-05	 0.00000000E+00
		 9.91765000E-06	 3.84941000E-05	 0.00000000E+00
		 1.02973000E-05	 3.57848000E-05	 0.00000000E+00
		 1.08923000E-05	 3.33988000E-05	 0.00000000E+00
		 1.17490000E-05	 3.10481000E-05	 0.00000000E+00
		 1.28487000E-05	 2.69561000E-05	 0.00000000E+00
		 1.43712000E-05	 2.28407000E-05	 0.00000000E+00
		 1.65123000E-05	 3.02799000E-05	 0.00000000E+00
		 1.92475000E-05	 3.76143000E-05	 0.00000000E+00
		-1.92047000E-05	 9.64630000E-05	 0.00000000E+00
		-5.64241000E-06	 8.70683000E-05	 0.00000000E+00
		 2.53722000E-06	 7.60963000E-05	 0.00000000E+00
		 6.17571000E-06	 6.66360000E-05	 0.00000000E+00
		 7.77358000E-06	 5.84626000E-05	 0.00000000E+00
		 8.39335000E-06	 5.13050000E-05	 0.00000000E+00
		 8.70085000E-06	 4.49701000E-05	 0.00000000E+00
		 9.20825000E-06	 3.92883000E-05	 0.00000000E+00
		 1.04080000E-05	 3.36818000E-05	 0.00000000E+00
		 1.31333000E-05	 2.98519000E-05	 0.00000000E+00
		 1.77981000E-05	 1.40875000E-05	 0.00000000E+00
		-1.61390000E-05	 1.02251000E-04	 0.00000000E+00
		-1.10026000E-05	 9.78989000E-05	 0.00000000E+00
		-5.63831000E-06	 9.23528000E-05	 0.00000000E+00
		-1.49647000E-06	 8.72292000E-05	 0.00000000E+00
		 1.66449000E-06	 8.19013000E-05	 0.00000000E+00
		 3.85984000E-06	 7.66642000E-05	 0.00000000E+00
		 5.33273000E-06	 7.17624000E-05	 0.00000000E+00
		 6.29767000E-06	 6.71595000E-05	 0.00000000E+00
		 6.89891000E-06	 6.28689000E-05	 0.00000000E+00
		 7.25189000E-06	 5.88654000E-05	 0.00000000E+00
		 7.45024000E-06	 5.51443000E-05	 0.00000000E+00
		 7.56776000E-06	 5.16805000E-05	 0.00000000E+00
		 7.66320000E-06	 4.84468000E-05	 0.00000000E+00
		 7.77425000E-06	 4.53752000E-05	 0.00000000E+00
		 7.98124000E-06	 4.24588000E-05	 0.00000000E+00
		 8.40044000E-06	 3.99114000E-05	 0.00000000E+00
		 9.07457000E-06	 3.74178000E-05	 0.00000000E+00
		 9.98437000E-06	 3.31511000E-05	 0.00000000E+00
		 1.13809000E-05	 2.88496000E-05	 0.00000000E+00
		 1.34823000E-05	 3.61804000E-05	 0.00000000E+00
		 1.61467000E-05	 4.33643000E-05	 0.00000000E+00
		-1.36448000E-05	 1.04025000E-04	 0.00000000E+00
		-5.47439000E-06	 9.68310000E-05	 0.00000000E+00
		 9.54774000E-07	 8.64846000E-05	 0.00000000E+00
		 4.42117000E-06	 7.61343000E-05	 0.00000000E+00
		 5.91202000E-06	 6.67525000E-05	 0.00000000E+00
		 6.41256000E-06	 5.85945000E-05	 0.00000000E+00
		 6.53060000E-06	 5.15999000E-05	 0.00000000E+00
		 6.72542000E-06	 4.55975000E-05	 0.00000000E+00
		 7.43890000E-06	 3.98770000E-05	 0.00000000E+00
		 9.83846000E-06	 3.58222000E-05	 0.00000000E+00
		 1.45438000E-05	 1.96084000E-05	 0.00000000E+00
		-1.12465000E-05	 1.08147000E-04	 0.00000000E+00
		-8.11905000E-06	 1.04302000E-04	 0.00000000E+00
		-4.89555000E-06	 9.97412000E-05	 0.00000000E+00
		-1.96393000E-06	 9.51341000E-05	 0.00000000E+00
		 3.93788000E-07	 9.01439000E-05	 0.00000000E+00
		 2.20724000E-06	 8.49164000E-05	 0.00000000E+00
		 3.48554000E-06	 7.97264000E-05	 0.00000000E+00
		 4.32733000E-06	 7.47580000E-05	 0.00000000E+00
		 4.85387000E-06	 7.00569000E-05	 0.00000000E+00
		 5.15245000E-06	 6.56584000E-05	 0.00000000E+00
		 5.29820000E-06	 6.15846000E-05	 0.00000000E+00
		 5.35611000E-06	 5.78393000E-05	 0.00000000E+00
		 5.36948000E-06	 5.44076000E-05	 0.00000000E+00
		 5.35013000E-06	 5.12364000E-05	 0.00000000E+00
		 5.37265000E-06	 4.83103000E-05	 0.00000000E+00
		 5.55364000E-06	 4.58441000E-05	 0.00000000E+00
		 5.92459000E-06	 4.34380000E-05	 0.00000000E+00
		 6.39709000E-06	 3.92707000E-05	 0.00000000E+00
		 7.50109000E-06	 3.49041000E-05	 0.00000000E+00
		 9.81009000E-06	 4.20301000E-05	 0.00000000E+00
		 1.28599000E-05	 4.92062000E-05	 0.00000000E+00
		-8.84685000E-06	 1.08557000E-04	 0.00000000E+00
		-4.14425000E-06	 1.02316000E-04	 0.00000000E+00
		 2.62868000E-08	 9.28572000E-05	 0.00000000E+00
		 2.58108000E-06	 8.25704000E-05	 0.00000000E+00
		 3.76571000E-06	 7.27276000E-05	 0.00000000E+00
		 4.15058000E-06	 6.40475000E-05	 0.00000000E+00
		 4.16636000E-06	 5.67530000E-05	 0.00000000E+00
		 4.11566000E-06	 5.08626000E-05	 0.00000000E+00
		 4.08727000E-06	 4.58175000E-05	 0.00000000E+00
		 5.35635000E-06	 4.23201000E-05	 0.00000000E+00
		 1.15526000E-05	 2.57572000E-05	 0.00000000E+00
		-6.57055000E-06	 1.11600000E-04	 0.00000000E+00
		-4.93692000E-06	 1.08024000E-04	 0.00000000E+00
		-3.25261000E-06	 1.03752000E-04	 0.00000000E+00
		-1.64994000E-06	 9.95647000E-05	 0.00000000E+00
		-2.44476000E-07	 9.48779000E-05	 0.00000000E+00
		 8.76011000E-07	 8.98188000E-05	 0.00000000E+00
		 1.71592000E-06	 8.46634000E-05	 0.00000000E+00
		 2.28762000E-06	 7.96080000E-05	 0.00000000E+00
		 2.65556000E-06	 7.47464000E-05	 0.00000000E+00
		 2.86742000E-06	 7.01704000E-05	 0.00000000E+00
		 2.97097000E-06	 6.59338000E-05	 0.00000000E+00
		 3.00991000E-06	 6.20735000E-05	 0.00000000E+00
		 3.00246000E-06	 5.86019000E-05	 0.00000000E+00
		 2.91896000E-06	 5.54932000E-05	 0.00000000E+00
		 2.80486000E-06	 5.27970000E-05	 0.00000000E+00
		 2.83994000E-06	 5.08075000E-05	 0.00000000E+00
		 2.85576000E-06	 4.92187000E-05	 0.00000000E+00
		 2.14976000E-06	 4.60972000E-05	 0.00000000E+00
		 1.80087000E-06	 4.25774000E-05	 0.00000000E+00
		 5.08514000E-06	 5.03292000E-05	 0.00000000E+00
		 1.01696000E-05	 5.72014000E-05	 0.00000000E+00
		-4.30738000E-06	 1.10981000E-04	 0.00000000E+00
		-2.52376000E-06	 1.05104000E-04	 0.00000000E+00
		-5.40130000E-07	 9.61566000E-05	 0.00000000E+00
		 8.26350000E-07	 8.60584000E-05	 0.00000000E+00
		 1.52278000E-06	 7.60798000E-05	 0.00000000E+00
		 1.79815000E-06	 6.71823000E-05	 0.00000000E+00
		 1.83563000E-06	 5.98245000E-05	 0.00000000E+00
		 1.81177000E-06	 5.42967000E-05	 0.00000000E+00
		 1.55310000E-06	 5.07280000E-05	 0.00000000E+00
		-6.88238000E-08	 5.37179000E-05	 0.00000000E+00
		 1.63504000E-05	 4.34006000E-05	 0.00000000E+00
		-3.27654000E-06	 1.13017000E-04	 0.00000000E+00
		-3.53313000E-06	 1.09655000E-04	 0.00000000E+00
		-2.90639000E-06	 1.05521000E-04	 0.00000000E+00
		-2.25743000E-06	 1.01532000E-04	 0.00000000E+00
		-1.55507000E-06	 9.70640000E-05	 0.00000000E+00
		-9.20184000E-07	 9.20203000E-05	 0.00000000E+00
		-4.19028000E-07	 8.68182000E-05	 0.00000000E+00
		-4.79298000E-08	 8.17008000E-05	 0.00000000E+00
		 2.41030000E-07	 7.67497000E-05	 0.00000000E+00
		 4.46820000E-07	 7.20842000E-05	 0.00000000E+00
		 6.03660000E-07	 6.77623000E-05	 0.00000000E+00
		 7.65486000E-07	 6.38662000E-05	 0.00000000E+00
		 9.15711000E-07	 6.04264000E-05	 0.00000000E+00
		 8.70659000E-07	 5.73258000E-05	 0.00000000E+00
		 7.52740000E-07	 5.47391000E-05	 0.00000000E+00
		 1.23313000E-06	 5.34951000E-05	 0.00000000E+00
		 2.09544000E-06	 5.32253000E-05	 0.00000000E+00
		 1.13829000E-06	 4.94061000E-05	 0.00000000E+00
		-3.07158000E-06	 4.88828000E-05	 0.00000000E+00
		-3.99514000E-06	 8.92475000E-05	 0.00000000E+00
		 3.04008000E-05	 1.30385000E-04	 0.00000000E+00
		 9.74759000E-04	-4.32216000E-03	 0.00000000E+00
		 9.56248000E-04	-4.43437000E-03	 0.00000000E+00
		 9.39028000E-04	-4.54619000E-03	 0.00000000E+00
		 9.23830000E-04	-4.65704000E-03	 0.00000000E+00
		 9.11545000E-04	-4.76556000E-03	 0.00000000E+00
		 9.01296000E-04	-4.87060000E-03	 0.00000000E+00
		 8.93168000E-04	-4.97098000E-03	 0.00000000E+00
		 8.85649000E-04	-5.06554000E-03	 0.00000000E+00
		 8.78251000E-04	-5.15303000E-03	 0.00000000E+00
		 8.68823000E-04	-5.23211000E-03	 0.00000000E+00
		 8.56199000E-04	-5.30141000E-03	 0.00000000E+00
		 8.37234000E-04	-5.35918000E-03	 0.00000000E+00
		 8.09642000E-04	-5.40449000E-03	 0.00000000E+00
		 7.69057000E-04	-5.43528000E-03	 0.00000000E+00
		 7.11561000E-04	-5.45244000E-03	 0.00000000E+00
		 6.32700000E-04	-5.45500000E-03	 0.00000000E+00
		 5.28395000E-04	-5.44781000E-03	 0.00000000E+00
		 3.97970000E-04	-5.43422000E-03	 0.00000000E+00
		 2.44405000E-04	-5.42077000E-03	 0.00000000E+00
		 7.73286000E-05	-5.41483000E-03	 0.00000000E+00
		-8.93805000E-05	-5.41262000E-03	 0.00000000E+00
		 9.48183000E-04	-4.34012000E-03	 0.00000000E+00
		 9.11749000E-04	-4.56303000E-03	 0.00000000E+00
		 8.85571000E-04	-4.77991000E-03	 0.00000000E+00
		 8.70430000E-04	-4.98435000E-03	 0.00000000E+00
		 8.60548000E-04	-5.16948000E-03	 0.00000000E+00