# vtk DataFile Version 3.0

ASCII
DATASET UNSTRUCTURED_GRID

POINTS 68 double
	-1.25000000E+01	 2.50000000E+01	 0.00000000E+00
	-1.25000000E+01	-2.50000000E+01	 0.00000000E+00
	 1.25000000E+01	-2.50000000E+01	 0.00000000E+00
	 1.25000000E+01	 2.50000000E+01	 0.00000000E+00
	-1.25000000E+01	 0.00000000E+00	 0.00000000E+00
	 0.00000000E+00	-2.50000000E+01	 0.00000000E+00
	 1.25000000E+01	 0.00000000E+00	 0.00000000E+00
	 0.00000000E+00	 2.50000000E+01	 0.00000000E+00
	-1.25000000E+01	 2.50000000E+01	 1.00000000E+02
	-1.25000000E+01	-2.50000000E+01	 1.00000000E+02
	 1.25000000E+01	-2.50000000E+01	 1.00000000E+02
	 1.25000000E+01	 2.50000000E+01	 1.00000000E+02
	-1.25000000E+01	 2.50000000E+01	 2.00000000E+02
	-1.25000000E+01	-2.50000000E+01	 2.00000000E+02
	 1.25000000E+01	-2.50000000E+01	 2.00000000E+02
	 1.25000000E+01	 2.50000000E+01	 2.00000000E+02
	-1.25000000E+01	 0.00000000E+00	 2.00000000E+02
	 0.00000000E+00	-2.50000000E+01	 2.00000000E+02
	 1.25000000E+01	 0.00000000E+00	 2.00000000E+02
	 0.00000000E+00	 2.50000000E+01	 2.00000000E+02
	-1.25000000E+01	 2.50000000E+01	 3.00000000E+02
	-1.25000000E+01	-2.50000000E+01	 3.00000000E+02
	 1.25000000E+01	-2.50000000E+01	 3.00000000E+02
	 1.25000000E+01	 2.50000000E+01	 3.00000000E+02
	-1.25000000E+01	 2.50000000E+01	 4.00000000E+02
	-1.25000000E+01	-2.50000000E+01	 4.00000000E+02
	 1.25000000E+01	-2.50000000E+01	 4.00000000E+02
	 1.25000000E+01	 2.50000000E+01	 4.00000000E+02
	-1.25000000E+01	 0.00000000E+00	 4.00000000E+02
	 0.00000000E+00	-2.50000000E+01	 4.00000000E+02
	 1.25000000E+01	 0.00000000E+00	 4.00000000E+02
	 0.00000000E+00	 2.50000000E+01	 4.00000000E+02
	-1.25000000E+01	 2.50000000E+01	 5.00000000E+02
	-1.25000000E+01	-2.50000000E+01	 5.00000000E+02
	 1.25000000E+01	-2.50000000E+01	 5.00000000E+02
	 1.25000000E+01	 2.50000000E+01	 5.00000000E+02
	-1.25000000E+01	 2.50000000E+01	 6.00000000E+02
	-1.25000000E+01	-2.50000000E+01	 6.00000000E+02
	 1.25000000E+01	-2.50000000E+01	 6.00000000E+02
	 1.25000000E+01	 2.50000000E+01	 6.00000000E+02
	-1.25000000E+01	 0.00000000E+00	 6.00000000E+02
	 0.00000000E+00	-2.50000000E+01	 6.00000000E+02
	 1.25000000E+01	 0.00000000E+00	 6.00000000E+02
	 0.00000000E+00	 2.50000000E+01	 6.00000000E+02
	-1.25000000E+01	 2.50000000E+01	 7.00000000E+02
	-1.25000000E+01	-2.50000000E+01	 7.00000000E+02
	 1.25000000E+01	-2.50000000E+01	 7.00000000E+02
	 1.25000000E+01	 2.50000000E+01	 7.00000000E+02
	-1.25000000E+01	 2.50000000E+01	 8.00000000E+02
	-1.25000000E+01	-2.50000000E+01	 8.00000000E+02
	 1.25000000E+01	-2.50000000E+01	 8.00000000E+02
	 1.25000000E+01	 2.50000000E+01	 8.00000000E+02
	-1.25000000E+01	 0.00000000E+00	 8.00000000E+02
	 0.00000000E+00	-2.50000000E+01	 8.00000000E+02
	 1.25000000E+01	 0.00000000E+00	 8.00000000E+02
	 0.00000000E+00	 2.50000000E+01	 8.00000000E+02
	-1.25000000E+01	 2.50000000E+01	 9.00000000E+02
	-1.25000000E+01	-2.50000000E+01	 9.00000000E+02
	 1.25000000E+01	-2.50000000E+01	 9.00000000E+02
	 1.25000000E+01	 2.50000000E+01	 9.00000000E+02
	-1.25000000E+01	 2.50000000E+01	 1.00000000E+03
	-1.25000000E+01	-2.50000000E+01	 1.00000000E+03
	 1.25000000E+01	-2.50000000E+01	 1.00000000E+03
	 1.25000000E+01	 2.50000000E+01	 1.00000000E+03
	-1.25000000E+01	 0.00000000E+00	 1.00000000E+03
	 0.00000000E+00	-2.50000000E+01	 1.00000000E+03
	 1.25000000E+01	 0.00000000E+00	 1.00000000E+03
	 0.00000000E+00	 2.50000000E+01	 1.00000000E+03

CELLS 5 105
	20 0 12 13 1 3 15 14 2 8 16 9 4 11 18 10 6 7 19 17 5 
	20 12 24 25 13 15 27 26 14 20 28 21 16 23 30 22 18 19 31 29 17 
	20 24 36 37 25 27 39 38 26 32 40 33 28 35 42 34 30 31 43 41 29 
	20 36 48 49 37 39 51 50 38 44 52 45 40 47 54 46 42 43 55 53 41 
	20 48 60 61 49 51 63 62 50 56 64 57 52 59 66 58 54 55 67 65 53 

CELL_TYPES 5
	25
	25
	25
	25
	25

POINT_DATA 68
FIELD U 1
	U 3 68 double
		-5.37240000E-02	 1.29673000E-01	 0.00000000E+00
		-5.37240000E-02	-1.29673000E-01	 0.00000000E+00
		 5.37240000E-02	 3.34306000E-01	 0.00000000E+00
		 5.37240000E-02	-3.34306000E-01	 0.00000000E+00
		-5.37240000E-02	 0.00000000E+00	 0.00000000E+00
		 0.00000000E+00	 1.02317000E-01	 0.00000000E+00
		 5.37240000E-02	 0.00000000E+00	 0.00000000E+00
		 0.00000000E+00	-1.02317000E-01	 0.00000000E+00
		-1.66224000E+01	-4.57176000E-02	-1.76733000E+00
		-1.66224000E+01	 4.57176000E-02	-1.76733000E+00
		-1.66040000E+01	-1.07922000E-01	 4.14695000E+00
		-1.66040000E+01	 1.07922000E-01	 4.14695000E+00
		-3.43613000E+01	-2.00976000E-01	-2.35082000E-01
		-3.43613000E+01	 2.00976000E-01	-2.35082000E-01
		-3.41473000E+01	-4.57222000E-01	 4.77877000E-01
		-3.41473000E+01	 4.57222000E-01	 4.77877000E-01
		-3.40577000E+01	 0.00000000E+00	-1.87579000E-01
		-3.43349000E+01	-1.27274000E-01	 1.46134000E-01
		-3.38392000E+01	 0.00000000E+00	 5.19463000E-01
		-3.43349000E+01	 1.27274000E-01	 1.46134000E-01
		-1.96729000E+01	-6.35143000E-02	 2.01026000E+00
		-1.96729000E+01	 6.35143000E-02	 2.01026000E+00
		-1.96775000E+01	-1.92178000E-01	-4.81372000E+00
		-1.96775000E+01	 1.92178000E-01	-4.81372000E+00
		 1.25326000E+01	 8.27132000E-02	 2.32633000E+00
		 1.25326000E+01	-8.27132000E-02	 2.32633000E+00
		 1.25276000E+01	 2.15390000E-01	-5.44138000E+00
		 1.25276000E+01	-2.15390000E-01	-5.44138000E+00
		 1.23709000E+01	 0.00000000E+00	 2.24258000E+00
		 1.25721000E+01	 6.60799000E-02	-1.59659000E+00
		 1.23645000E+01	 0.00000000E+00	-5.52590000E+00
		 1.25721000E+01	-6.60799000E-02	-1.59659000E+00
		 2.97813000E+01	 1.51047000E-01	 1.43194000E-01
		 2.97813000E+01	-1.51047000E-01	 1.43194000E-01
		 2.96685000E+01	 3.88979000E-01	-3.76357000E-01
		 2.96685000E+01	-3.88979000E-01	-3.76357000E-01
		 1.61079000E+01	 1.11525000E-01	-2.17640000E+00
		 1.61079000E+01	-1.11525000E-01	-2.17640000E+00
		 1.60572000E+01	 3.00868000E-01	 5.06497000E+00
		 1.60572000E+01	-3.00868000E-01	 5.06497000E+00
		 1.58749000E+01	 0.00000000E+00	-2.10140000E+00
		 1.61458000E+01	 9.34656000E-02	 1.47917000E+00
		 1.58181000E+01	 0.00000000E+00	 5.14160000E+00
		 1.61458000E+01	-9.34656000E-02	 1.47917000E+00
		-1.58553000E+01	-7.77041000E-02	-2.06413000E+00
		-1.58553000E+01	 7.77041000E-02	-2.06413000E+00
		-1.58294000E+01	-2.29615000E-01	 4.83344000E+00
		-1.58294000E+01	 2.29615000E-01	 4.83344000E+00
		-2.94502000E+01	-2.84343000E-01	 5.11604000E-01
		-2.94502000E+01	 2.84343000E-01	 5.11604000E-01
		-2.92038000E+01	-5.96658000E-01	-1.22913000E+00
		-2.92038000E+01	 5.96658000E-01	-1.22913000E+00
		-2.89872000E+01	 0.00000000E+00	 5.08208000E-01
		-2.94509000E+01	-1.54428000E-01	-3.64613000E-01
		-2.87317000E+01	 0.00000000E+00	-1.22655000E+00
		-2.94509000E+01	 1.54428000E-01	-3.64613000E-01
		-3.17465000E+00	-1.07538000E-01	 3.00167000E+00
		-3.17465000E+00	 1.07538000E-01	 3.00167000E+00
		-3.10694000E+00	-3.25611000E-01	-7.18230000E+00
		-3.10694000E+00	 3.25611000E-01	-7.18230000E+00
		 4.52864000E+01	-3.85497000E-02	 3.80503000E+00
		 4.52864000E+01	 3.85497000E-02	 3.80503000E+00
		 4.53134000E+01	 6.46178000E-02	-9.03871000E+00
		 4.53134000E+01	-6.46178000E-02	-9.03871000E+00
		 4.52663000E+01	 0.00000000E+00	 3.75398000E+00
		 4.53119000E+01	 5.11944000E-02	-2.62872000E+00
		 4.52898000E+01	 0.00000000E+00	-9.10280000E+00
		 4.53119000E+01	-5.11944000E-02	-2.62872000E+00
