# vtk DataFile Version 3.0

ASCII
DATASET UNSTRUCTURED_GRID

POINTS 68 double
	-1.25000000E+01	 2.50000000E+01	 0.00000000E+00
	-1.25000000E+01	-2.50000000E+01	 0.00000000E+00
	 1.25000000E+01	-2.50000000E+01	 0.00000000E+00
	 1.25000000E+01	 2.50000000E+01	 0.00000000E+00
	-1.25000000E+01	 0.00000000E+00	 0.00000000E+00
	 0.00000000E+00	-2.50000000E+01	 0.00000000E+00
	 1.25000000E+01	 0.00000000E+00	 0.00000000E+00
	 0.00000000E+00	 2.50000000E+01	 0.00000000E+00
	-1.25000000E+01	 2.50000000E+01	 1.00000000E+02
	-1.25000000E+01	-2.50000000E+01	 1.00000000E+02
	 1.25000000E+01	-2.50000000E+01	 1.00000000E+02
	 1.25000000E+01	 2.50000000E+01	 1.00000000E+02
	-1.25000000E+01	 2.50000000E+01	 2.00000000E+02
	-1.25000000E+01	-2.50000000E+01	 2.00000000E+02
	 1.25000000E+01	-2.50000000E+01	 2.00000000E+02
	 1.25000000E+01	 2.50000000E+01	 2.00000000E+02
	-1.25000000E+01	 0.00000000E+00	 2.00000000E+02
	 0.00000000E+00	-2.50000000E+01	 2.00000000E+02
	 1.25000000E+01	 0.00000000E+00	 2.00000000E+02
	 0.00000000E+00	 2.50000000E+01	 2.00000000E+02
	-1.25000000E+01	 2.50000000E+01	 3.00000000E+02
	-1.25000000E+01	-2.50000000E+01	 3.00000000E+02
	 1.25000000E+01	-2.50000000E+01	 3.00000000E+02
	 1.25000000E+01	 2.50000000E+01	 3.00000000E+02
	-1.25000000E+01	 2.50000000E+01	 4.00000000E+02
	-1.25000000E+01	-2.50000000E+01	 4.00000000E+02
	 1.25000000E+01	-2.50000000E+01	 4.00000000E+02
	 1.25000000E+01	 2.50000000E+01	 4.00000000E+02
	-1.25000000E+01	 0.00000000E+00	 4.00000000E+02
	 0.00000000E+00	-2.50000000E+01	 4.00000000E+02
	 1.25000000E+01	 0.00000000E+00	 4.00000000E+02
	 0.00000000E+00	 2.50000000E+01	 4.00000000E+02
	-1.25000000E+01	 2.50000000E+01	 5.00000000E+02
	-1.25000000E+01	-2.50000000E+01	 5.00000000E+02
	 1.25000000E+01	-2.50000000E+01	 5.00000000E+02
	 1.25000000E+01	 2.50000000E+01	 5.00000000E+02
	-1.25000000E+01	 2.50000000E+01	 6.00000000E+02
	-1.25000000E+01	-2.50000000E+01	 6.00000000E+02
	 1.25000000E+01	-2.50000000E+01	 6.00000000E+02
	 1.25000000E+01	 2.50000000E+01	 6.00000000E+02
	-1.25000000E+01	 0.00000000E+00	 6.00000000E+02
	 0.00000000E+00	-2.50000000E+01	 6.00000000E+02
	 1.25000000E+01	 0.00000000E+00	 6.00000000E+02
	 0.00000000E+00	 2.50000000E+01	 6.00000000E+02
	-1.25000000E+01	 2.50000000E+01	 7.00000000E+02
	-1.25000000E+01	-2.50000000E+01	 7.00000000E+02
	 1.25000000E+01	-2.50000000E+01	 7.00000000E+02
	 1.25000000E+01	 2.50000000E+01	 7.00000000E+02
	-1.25000000E+01	 2.50000000E+01	 8.00000000E+02
	-1.25000000E+01	-2.50000000E+01	 8.00000000E+02
	 1.25000000E+01	-2.50000000E+01	 8.00000000E+02
	 1.25000000E+01	 2.50000000E+01	 8.00000000E+02
	-1.25000000E+01	 0.00000000E+00	 8.00000000E+02
	 0.00000000E+00	-2.50000000E+01	 8.00000000E+02
	 1.25000000E+01	 0.00000000E+00	 8.00000000E+02
	 0.00000000E+00	 2.50000000E+01	 8.00000000E+02
	-1.25000000E+01	 2.50000000E+01	 9.00000000E+02
	-1.25000000E+01	-2.50000000E+01	 9.00000000E+02
	 1.25000000E+01	-2.50000000E+01	 9.00000000E+02
	 1.25000000E+01	 2.50000000E+01	 9.00000000E+02
	-1.25000000E+01	 2.50000000E+01	 1.00000000E+03
	-1.25000000E+01	-2.50000000E+01	 1.00000000E+03
	 1.25000000E+01	-2.50000000E+01	 1.00000000E+03
	 1.25000000E+01	 2.50000000E+01	 1.00000000E+03
	-1.25000000E+01	 0.00000000E+00	 1.00000000E+03
	 0.00000000E+00	-2.50000000E+01	 1.00000000E+03
	 1.25000000E+01	 0.00000000E+00	 1.00000000E+03
	 0.00000000E+00	 2.50000000E+01	 1.00000000E+03

CELLS 5 105
	20 0 12 13 1 3 15 14 2 8 16 9 4 11 18 10 6 7 19 17 5 
	20 12 24 25 13 15 27 26 14 20 28 21 16 23 30 22 18 19 31 29 17 
	20 24 36 37 25 27 39 38 26 32 40 33 28 35 42 34 30 31 43 41 29 
	20 36 48 49 37 39 51 50 38 44 52 45 40 47 54 46 42 43 55 53 41 
	20 48 60 61 49 51 63 62 50 56 64 57 52 59 66 58 54 55 67 65 53 

CELL_TYPES 5
	25
	25
	25
	25
	25

POINT_DATA 68
FIELD U 1
	U 3 68 double
		-2.06503000E-04	 3.40442000E-03	 0.00000000E+00
		-2.06503000E-04	-3.40442000E-03	 0.00000000E+00
		 2.06503000E-04	 8.36327000E-03	 0.00000000E+00
		 2.06503000E-04	-8.36327000E-03	 0.00000000E+00
		-2.06503000E-04	 0.00000000E+00	 0.00000000E+00
		 0.00000000E+00	 2.47943000E-03	 0.00000000E+00
		 2.06503000E-04	 0.00000000E+00	 0.00000000E+00
		 0.00000000E+00	-2.47943000E-03	 0.00000000E+00
		-6.20866000E-01	 5.53308000E-03	-9.14766000E-02
		-6.20866000E-01	-5.53308000E-03	-9.14766000E-02
		-6.24030000E-01	 1.32814000E-02	 2.18179000E-01
		-6.24030000E-01	-1.32814000E-02	 2.18179000E-01
		-2.47540000E+00	 7.56283000E-03	-1.82075000E-01
		-2.47540000E+00	-7.56283000E-03	-1.82075000E-01
		-2.48112000E+00	 1.79694000E-02	 4.34376000E-01
		-2.48112000E+00	-1.79694000E-02	 4.34376000E-01
		-2.48976000E+00	 0.00000000E+00	-1.81691000E-01
		-2.47459000E+00	 5.18823000E-03	 1.26415000E-01
		-2.49554000E+00	 0.00000000E+00	 4.34541000E-01
		-2.47459000E+00	-5.18823000E-03	 1.26415000E-01
		-5.51366000E+00	 5.63195000E-03	-2.62404000E-01
		-5.51366000E+00	-5.63195000E-03	-2.62404000E-01
		-5.51794000E+00	 1.35092000E-02	 6.26453000E-01
		-5.51794000E+00	-1.35092000E-02	 6.26453000E-01
		-9.51126000E+00	 3.65472000E-03	-3.23508000E-01
		-9.51126000E+00	-3.65472000E-03	-3.23508000E-01
		-9.51334000E+00	 8.72788000E-03	 7.72753000E-01
		-9.51334000E+00	-8.72788000E-03	 7.72753000E-01
		-9.51710000E+00	 0.00000000E+00	-3.23254000E-01
		-9.51089000E+00	 2.54389000E-03	 2.24668000E-01
		-9.51914000E+00	 0.00000000E+00	 7.73181000E-01
		-9.51089000E+00	-2.54388000E-03	 2.24668000E-01
		-1.42202000E+01	 2.85496000E-03	-3.68681000E-01
		-1.42202000E+01	-2.85496000E-03	-3.68681000E-01
		-1.42222000E+01	 6.79015000E-03	 8.80621000E-01
		-1.42222000E+01	-6.79015000E-03	 8.80621000E-01
		-1.94576000E+01	 2.05037000E-03	-4.01485000E-01
		-1.94576000E+01	-2.05037000E-03	-4.01485000E-01
		-1.94588000E+01	 4.89338000E-03	 9.59004000E-01
		-1.94588000E+01	-4.89338000E-03	 9.59004000E-01
		-1.94611000E+01	 1.03361000E-09	-4.01252000E-01
		-1.94573000E+01	 1.42010000E-03	 2.78876000E-01
		-1.94624000E+01	 1.09274000E-09	 9.59215000E-01
		-1.94573000E+01	-1.42010000E-03	 2.78876000E-01
		-2.50589000E+01	 1.24341000E-03	-4.22835000E-01
		-2.50589000E+01	-1.24341000E-03	-4.22835000E-01
		-2.50599000E+01	 2.95823000E-03	 1.01009000E+00
		-2.50599000E+01	-2.95823000E-03	 1.01009000E+00
		-3.08822000E+01	 5.00208000E-04	-4.34238000E-01
		-3.08822000E+01	-5.00205000E-04	-4.34238000E-01
		-3.08823000E+01	 1.19959000E-03	 1.03745000E+00
		-3.08823000E+01	-1.19959000E-03	 1.03745000E+00
		-3.08830000E+01	 1.58227000E-09	-4.34103000E-01
		-3.08821000E+01	 3.51753000E-04	 3.01652000E-01
		-3.08830000E+01	 1.63952000E-09	 1.03762000E+00
		-3.08821000E+01	-3.51750000E-04	 3.01652000E-01
		-3.68039000E+01	 1.81952000E-04	-4.38545000E-01
		-3.68039000E+01	-1.81949000E-04	-4.38545000E-01
		-3.68041000E+01	 3.94381000E-04	 1.04782000E+00
		-3.68041000E+01	-3.94377000E-04	 1.04782000E+00
		-4.27590000E+01	-3.30411000E-05	-4.39210000E-01
		-4.27590000E+01	 3.30453000E-05	-4.39210000E-01
		-4.27587000E+01	-7.14087000E-05	 1.04949000E+00
		-4.27587000E+01	 7.14131000E-05	 1.04949000E+00
		-4.27589000E+01	 2.12611000E-09	-4.39206000E-01
		-4.27589000E+01	-1.73019000E-05	 3.05154000E-01
		-4.27586000E+01	 2.18364000E-09	 1.04949000E+00
		-4.27589000E+01	 1.73062000E-05	 3.05154000E-01
