<?xml version="1.0"?>
<VTKFile type="UnstructuredGrid" version="0.1" byte_order="LittleEndian">
	<UnstructuredGrid>
		<Piece NumberOfPoints="7506" NumberOfCells="7351">
			<Points>
				<DataArray type="Float64" NumberOfComponents="3" format="ascii">
					 1.00000000E+00	 0.00000000E+00	 0.00000000E+00
					 2.77960000E-01	 5.93990000E-02	 0.00000000E+00
					 9.97540000E-01	 3.45130000E-04	 0.00000000E+00
					 9.93910000E-01	 8.54240000E-04	 0.00000000E+00
					 9.88870000E-01	 1.56040000E-03	 0.00000000E+00
					 9.82560000E-01	 2.44060000E-03	 0.00000000E+00
					 9.75050000E-01	 3.48220000E-03	 0.00000000E+00
					 9.66340000E-01	 4.67810000E-03	 0.00000000E+00
					 9.56490000E-01	 6.01100000E-03	 0.00000000E+00
					 9.45550000E-01	 7.47110000E-03	 0.00000000E+00
					 9.33550000E-01	 9.05150000E-03	 0.00000000E+00
					 9.20540000E-01	 1.07390000E-02	 0.00000000E+00
					 9.06560000E-01	 1.25250000E-02	 0.00000000E+00
					 8.91660000E-01	 1.43960000E-02	 0.00000000E+00
					 8.75890000E-01	 1.63410000E-02	 0.00000000E+00
					 8.59270000E-01	 1.83510000E-02	 0.00000000E+00
					 8.41880000E-01	 2.04140000E-02	 0.00000000E+00
					 8.23770000E-01	 2.25180000E-02	 0.00000000E+00
					 8.04950000E-01	 2.46570000E-02	 0.00000000E+00
					 7.85510000E-01	 2.68160000E-02	 0.00000000E+00
					 7.65490000E-01	 2.89870000E-02	 0.00000000E+00
					 7.44910000E-01	 3.11620000E-02	 0.00000000E+00
					 7.23850000E-01	 3.33280000E-02	 0.00000000E+00
					 7.02350000E-01	 3.54780000E-02	 0.00000000E+00
					 6.80500000E-01	 3.75970000E-02	 0.00000000E+00
					 6.58310000E-01	 3.96780000E-02	 0.00000000E+00
					 6.35870000E-01	 4.17080000E-02	 0.00000000E+00
					 6.13100000E-01	 4.36890000E-02	 0.00000000E+00
					 5.90270000E-01	 4.55900000E-02	 0.00000000E+00
					 5.67270000E-01	 4.74180000E-02	 0.00000000E+00
					 5.44160000E-01	 4.91570000E-02	 0.00000000E+00
					 5.21040000E-01	 5.07940000E-02	 0.00000000E+00
					 4.97940000E-01	 5.23220000E-02	 0.00000000E+00
					 4.74890000E-01	 5.37290000E-02	 0.00000000E+00
					 4.51990000E-01	 5.50030000E-02	 0.00000000E+00
					 4.29270000E-01	 5.61350000E-02	 0.00000000E+00
					 4.06690000E-01	 5.71210000E-02	 0.00000000E+00
					 3.84290000E-01	 5.79460000E-02	 0.00000000E+00
					 3.62360000E-01	 5.85970000E-02	 0.00000000E+00
					 3.40640000E-01	 5.90880000E-02	 0.00000000E+00
					 3.19370000E-01	 5.93810000E-02	 0.00000000E+00
					 2.98420000E-01	 5.94520000E-02	 0.00000000E+00
					 3.16800000E-01	-5.94010000E-02	 0.00000000E+00
					 2.58320000E-01	 5.90860000E-02	 0.00000000E+00
					 2.39190000E-01	 5.86460000E-02	 0.00000000E+00
					 2.20600000E-01	 5.79880000E-02	 0.00000000E+00
					 2.02570000E-01	 5.71140000E-02	 0.00000000E+00
					 1.85140000E-01	 5.60450000E-02	 0.00000000E+00
					 1.68340000E-01	 5.47840000E-02	 0.00000000E+00
					 1.52180000E-01	 5.33300000E-02	 0.00000000E+00
					 1.36720000E-01	 5.16850000E-02	 0.00000000E+00
					 1.21950000E-01	 4.98510000E-02	 0.00000000E+00
					 1.07920000E-01	 4.78340000E-02	 0.00000000E+00
					 9.46390000E-02	 4.56400000E-02	 0.00000000E+00
					 8.21360000E-02	 4.32760000E-02	 0.00000000E+00
					 7.04300000E-02	 4.07450000E-02	 0.00000000E+00
					 5.95390000E-02	 3.80520000E-02	 0.00000000E+00
					 4.94870000E-02	 3.52090000E-02	 0.00000000E+00
					 4.02830000E-02	 3.22160000E-02	 0.00000000E+00
					 3.19590000E-02	 2.90750000E-02	 0.00000000E+00
					 2.45210000E-02	 2.57790000E-02	 0.00000000E+00
					 1.79890000E-02	 2.23480000E-02	 0.00000000E+00
					 1.23810000E-02	 1.87690000E-02	 0.00000000E+00
					 7.75450000E-03	 1.49850000E-02	 0.00000000E+00
					 4.14200000E-03	 1.09770000E-02	 0.00000000E+00
					 1.54070000E-03	 6.78890000E-03	 0.00000000E+00
					 1.09370000E-04	 2.42430000E-03	 0.00000000E+00
					 6.29740000E-05	-2.02650000E-03	 0.00000000E+00
					 1.35330000E-03	-6.39510000E-03	 0.00000000E+00
					 3.84770000E-03	-1.05820000E-02	 0.00000000E+00
					 7.36850000E-03	-1.46140000E-02	 0.00000000E+00
					 1.19130000E-02	-1.84300000E-02	 0.00000000E+00
					 1.74470000E-02	-2.20330000E-02	 0.00000000E+00
					 2.39030000E-02	-2.54790000E-02	 0.00000000E+00
					 3.12670000E-02	-2.87900000E-02	 0.00000000E+00
					 3.95190000E-02	-3.19480000E-02	 0.00000000E+00
					 4.86530000E-02	-3.49540000E-02	 0.00000000E+00
					 5.86330000E-02	-3.78110000E-02	 0.00000000E+00
					 6.94530000E-02	-4.05180000E-02	 0.00000000E+00
					 8.10920000E-02	-4.30640000E-02	 0.00000000E+00
					 9.35300000E-02	-4.54430000E-02	 0.00000000E+00
					 1.06750000E-01	-4.76520000E-02	 0.00000000E+00
					 1.20710000E-01	-4.96840000E-02	 0.00000000E+00
					 1.35420000E-01	-5.15340000E-02	 0.00000000E+00
					 1.50830000E-01	-5.31960000E-02	 0.00000000E+00
					 1.66920000E-01	-5.46690000E-02	 0.00000000E+00
					 1.83670000E-01	-5.59460000E-02	 0.00000000E+00
					 2.01050000E-01	-5.70270000E-02	 0.00000000E+00
					 2.19030000E-01	-5.79100000E-02	 0.00000000E+00
					 2.37570000E-01	-5.85980000E-02	 0.00000000E+00
					 2.56660000E-01	-5.90950000E-02	 0.00000000E+00
					 2.76250000E-01	-5.93840000E-02	 0.00000000E+00
					 2.96310000E-01	-5.94590000E-02	 0.00000000E+00
					 3.38470000E-01	-5.90940000E-02	 0.00000000E+00
					 3.61000000E-01	-5.86410000E-02	 0.00000000E+00
					 3.83900000E-01	-5.79640000E-02	 0.00000000E+00
					 4.07100000E-01	-5.71010000E-02	 0.00000000E+00
					 4.30580000E-01	-5.60740000E-02	 0.00000000E+00
					 4.54270000E-01	-5.48820000E-02	 0.00000000E+00
					 4.78130000E-01	-5.35380000E-02	 0.00000000E+00
					 5.02100000E-01	-5.20550000E-02	 0.00000000E+00
					 5.26140000E-01	-5.04420000E-02	 0.00000000E+00
					 5.50190000E-01	-4.87120000E-02	 0.00000000E+00
					 5.74190000E-01	-4.68770000E-02	 0.00000000E+00
					 5.98100000E-01	-4.49480000E-02	 0.00000000E+00
					 6.21850000E-01	-4.29370000E-02	 0.00000000E+00
					 6.45380000E-01	-4.08570000E-02	 0.00000000E+00
					 6.68640000E-01	-3.87180000E-02	 0.00000000E+00
					 6.91580000E-01	-3.65310000E-02	 0.00000000E+00
					 7.14120000E-01	-3.43090000E-02	 0.00000000E+00
					 7.36230000E-01	-3.20630000E-02	 0.00000000E+00
					 7.57830000E-01	-2.98030000E-02	 0.00000000E+00
					 7.78870000E-01	-2.75420000E-02	 0.00000000E+00
					 7.99300000E-01	-2.52900000E-02	 0.00000000E+00
					 8.19040000E-01	-2.30600000E-02	 0.00000000E+00
					 8.38060000E-01	-2.08620000E-02	 0.00000000E+00
					 8.56300000E-01	-1.87070000E-02	 0.00000000E+00
					 8.73680000E-01	-1.66100000E-02	 0.00000000E+00
					 8.90180000E-01	-1.45790000E-02	 0.00000000E+00
					 9.05740000E-01	-1.26290000E-02	 0.00000000E+00
					 9.20290000E-01	-1.07720000E-02	 0.00000000E+00
					 9.33770000E-01	-9.02170000E-03	 0.00000000E+00
					 9.46140000E-01	-7.39330000E-03	 0.00000000E+00
					 9.57340000E-01	-5.89610000E-03	 0.00000000E+00
					 9.67370000E-01	-4.53700000E-03	 0.00000000E+00
					 9.76000000E-01	-3.35090000E-03	 0.00000000E+00
					 9.83490000E-01	-2.31200000E-03	 0.00000000E+00
					 9.88490000E-01	-1.61350000E-03	 0.00000000E+00
					 9.92100000E-01	-1.10780000E-03	 0.00000000E+00
					 9.95080000E-01	-6.90490000E-04	 0.00000000E+00
					 9.97670000E-01	-3.26550000E-04	 0.00000000E+00
					-1.21830000E+01	 1.19710000E+00	 0.00000000E+00
					 1.32050000E+01	 1.01120000E+00	 0.00000000E+00
					-1.18690000E+01	-1.97400000E+00	 0.00000000E+00
					-1.10920000E+01	-5.09310000E+00	 0.00000000E+00
					-9.46580000E+00	-7.86620000E+00	 0.00000000E+00
					-7.13370000E+00	-1.00850000E+01	 0.00000000E+00
					-4.32700000E+00	-1.16590000E+01	 0.00000000E+00
					-1.21910000E+00	-1.24990000E+01	 0.00000000E+00
					 1.99950000E+00	-1.25280000E+01	 0.00000000E+00
					 5.12280000E+00	-1.17440000E+01	 0.00000000E+00
					 7.95860000E+00	-1.02190000E+01	 0.00000000E+00
					 1.03310000E+01	-8.04090000E+00	 0.00000000E+00
					 1.20080000E+01	-5.29720000E+00	 0.00000000E+00
					 1.28400000E+01	-2.19030000E+00	 0.00000000E+00
					 1.24700000E+01	 3.48480000E+00	 0.00000000E+00
					 1.09220000E+01	 6.62290000E+00	 0.00000000E+00
					 8.99020000E+00	 9.54850000E+00	 0.00000000E+00
					 6.25090000E+00	 1.17520000E+01	 0.00000000E+00
					 2.78530000E+00	 1.26400000E+01	 0.00000000E+00
					-7.34390000E-01	 1.26770000E+01	 0.00000000E+00
					-4.17130000E+00	 1.19380000E+01	 0.00000000E+00
					-7.25650000E+00	 1.02560000E+01	 0.00000000E+00
					-9.69560000E+00	 7.72920000E+00	 0.00000000E+00
					-1.12250000E+01	 4.57440000E+00	 0.00000000E+00
					 9.99150000E-01	-1.51520000E-03	 0.00000000E+00
					 9.97350000E-01	-2.43570000E-03	 0.00000000E+00
					 1.00070000E+00	-1.48290000E-03	 0.00000000E+00
					 9.99970000E-01	-3.38170000E-03	 0.00000000E+00
					 1.00190000E+00	-2.07850000E-04	 0.00000000E+00
					 1.00260000E+00	-2.42950000E-03	 0.00000000E+00
					 1.00100000E+00	 1.28670000E-03	 0.00000000E+00
					 1.00340000E+00	 1.82920000E-03	 0.00000000E+00
					 9.99250000E-01	 1.49750000E-03	 0.00000000E+00
					 1.00040000E+00	 3.21980000E-03	 0.00000000E+00
					 9.97430000E-01	 2.58540000E-03	 0.00000000E+00
					 1.00390000E+00	-5.94460000E-04	 0.00000000E+00
					 1.00530000E+00	-2.32150000E-03	 0.00000000E+00
					 1.00430000E+00	-4.67910000E-03	 0.00000000E+00
					 1.00200000E+00	-4.57570000E-03	 0.00000000E+00
					 1.00040000E+00	-6.18250000E-03	 0.00000000E+00
					 9.97530000E-01	-5.19250000E-03	 0.00000000E+00
					 1.00600000E+00	-3.83840000E-06	 0.00000000E+00
					 1.00800000E+00	-2.03600000E-03	 0.00000000E+00
					 1.00290000E+00	-6.50120000E-03	 0.00000000E+00
					 1.00680000E+00	-4.41430000E-03	 0.00000000E+00
					 9.98060000E-01	-8.58300000E-03	 0.00000000E+00
					 1.00170000E+00	-9.14400000E-03	 0.00000000E+00
					 9.94690000E-01	-3.55130000E-03	 0.00000000E+00
					 1.00620000E+00	-8.13490000E-03	 0.00000000E+00
					 1.00850000E+00	 5.08550000E-04	 0.00000000E+00
					 1.01110000E+00	-1.17030000E-03	 0.00000000E+00
					 1.00980000E+00	-4.98410000E-03	 0.00000000E+00
[...]
			<PointData>
				<DataArray type="Float32" Name="V3DF" NumberOfComponents="3" ComponentName0="V1" ComponentName1="V2" ComponentName2="V3" format="ascii">
					 1.15354000E+00	-5.23565000E-03	 0.00000000E+00
					 1.08940000E+00	 1.34559000E-02	 0.00000000E+00
					 1.22559000E+00	-1.65413000E-01	 0.00000000E+00
					 1.21362000E+00	-1.75376000E-01	 0.00000000E+00
					 1.21514000E+00	-1.69715000E-01	 0.00000000E+00
					 1.21469000E+00	-1.69034000E-01	 0.00000000E+00
					 1.21378000E+00	-1.67192000E-01	 0.00000000E+00
					 1.21303000E+00	-1.65221000E-01	 0.00000000E+00
					 1.21323000E+00	-1.62192000E-01	 0.00000000E+00
					 1.20969000E+00	-1.60003000E-01	 0.00000000E+00
					 1.20888000E+00	-1.57852000E-01	 0.00000000E+00
					 1.20593000E+00	-1.54861000E-01	 0.00000000E+00
					 1.20565000E+00	-1.52143000E-01	 0.00000000E+00
					 1.20294000E+00	-1.48479000E-01	 0.00000000E+00
					 1.19970000E+00	-1.46411000E-01	 0.00000000E+00
					 1.19807000E+00	-1.42196000E-01	 0.00000000E+00
					 1.19334000E+00	-1.40087000E-01	 0.00000000E+00
					 1.19483000E+00	-1.37093000E-01	 0.00000000E+00
					 1.19202000E+00	-1.32554000E-01	 0.00000000E+00
					 1.18671000E+00	-1.30051000E-01	 0.00000000E+00
					 1.18816000E+00	-1.27075000E-01	 0.00000000E+00
					 1.18600000E+00	-1.22289000E-01	 0.00000000E+00
					 1.18213000E+00	-1.20276000E-01	 0.00000000E+00
					 1.18139000E+00	-1.14942000E-01	 0.00000000E+00
					 1.17853000E+00	-1.12410000E-01	 0.00000000E+00
					 1.17535000E+00	-1.06811000E-01	 0.00000000E+00
					 1.17021000E+00	-1.03900000E-01	 0.00000000E+00
					 1.16788000E+00	-9.91157000E-02	 0.00000000E+00
					 1.16610000E+00	-9.49048000E-02	 0.00000000E+00
					 1.16441000E+00	-9.06611000E-02	 0.00000000E+00
					 1.15937000E+00	-8.17860000E-02	 0.00000000E+00
					 1.15183000E+00	-8.02902000E-02	 0.00000000E+00
					 1.14760000E+00	-7.20865000E-02	 0.00000000E+00
					 1.14646000E+00	-6.78647000E-02	 0.00000000E+00
					 1.13785000E+00	-5.92237000E-02	 0.00000000E+00
					 1.13830000E+00	-5.34323000E-02	 0.00000000E+00
					 1.12994000E+00	-4.25622000E-02	 0.00000000E+00
					 1.11769000E+00	-3.61598000E-02	 0.00000000E+00
					 1.11930000E+00	-3.16678000E-02	 0.00000000E+00
					 1.11120000E+00	-2.14548000E-02	 0.00000000E+00
					 1.10574000E+00	-5.81519000E-03	 0.00000000E+00
					 1.10168000E+00	-3.37985000E-03	 0.00000000E+00
					 1.10369000E+00	 7.65193000E-03	 0.00000000E+00
					 1.08807000E+00	 1.75303000E-02	 0.00000000E+00
					 1.06692000E+00	 2.98802000E-02	 0.00000000E+00
					 1.05797000E+00	 4.61138000E-02	 0.00000000E+00
					 1.04308000E+00	 5.55143000E-02	 0.00000000E+00
					 1.03205000E+00	 7.14661000E-02	 0.00000000E+00
					 1.02365000E+00	 8.50087000E-02	 0.00000000E+00
					 1.00526000E+00	 1.04045000E-01	 0.00000000E+00
					 9.98279000E-01	 1.11002000E-01	 0.00000000E+00
					 9.80227000E-01	 1.36559000E-01	 0.00000000E+00
					 9.51887000E-01	 1.50870000E-01	 0.00000000E+00
					 9.51565000E-01	 1.62664000E-01	 0.00000000E+00
					 9.12583000E-01	 1.90449000E-01	 0.00000000E+00
					 8.61659000E-01	 2.03514000E-01	 0.00000000E+00
					 8.51527000E-01	 2.21665000E-01	 0.00000000E+00
					 8.37137000E-01	 2.53629000E-01	 0.00000000E+00
					 8.01134000E-01	 2.77428000E-01	 0.00000000E+00
					 7.52447000E-01	 3.11206000E-01	 0.00000000E+00
					 6.90469000E-01	 3.30817000E-01	 0.00000000E+00
					 6.22226000E-01	 3.59888000E-01	 0.00000000E+00
					 5.26755000E-01	 3.90898000E-01	 0.00000000E+00
					 4.14806000E-01	 3.81058000E-01	 0.00000000E+00
					 2.30013000E-01	 3.50490000E-01	 0.00000000E+00
					 1.13611000E-01	 2.47400000E-01	 0.00000000E+00
					 2.43520000E-03	 4.16457000E-02	 0.00000000E+00
					 1.26362000E-02	-5.98722000E-02	 0.00000000E+00
					 1.12662000E-01	-2.54395000E-01	 0.00000000E+00
					 2.52372000E-01	-3.68204000E-01	 0.00000000E+00
					 4.12141000E-01	-4.02276000E-01	 0.00000000E+00
					 5.27415000E-01	-3.82053000E-01	 0.00000000E+00
					 6.38651000E-01	-3.63478000E-01	 0.00000000E+00
					 6.98900000E-01	-3.49279000E-01	 0.00000000E+00
					 7.84132000E-01	-3.00991000E-01	 0.00000000E+00
					 7.97242000E-01	-2.95239000E-01	 0.00000000E+00
					 8.46930000E-01	-2.48231000E-01	 0.00000000E+00
					 8.62540000E-01	-2.36945000E-01	 0.00000000E+00
					 9.08351000E-01	-2.04363000E-01	 0.00000000E+00
					 9.18853000E-01	-1.86227000E-01	 0.00000000E+00
					 9.45576000E-01	-1.69550000E-01	 0.00000000E+00
					 9.68480000E-01	-1.44809000E-01	 0.00000000E+00
					 9.82166000E-01	-1.33568000E-01	 0.00000000E+00
					 1.00742000E+00	-1.17479000E-01	 0.00000000E+00
					 1.01486000E+00	-9.70063000E-02	 0.00000000E+00
					 1.00697000E+00	-8.83505000E-02	 0.00000000E+00
					 1.03790000E+00	-7.53158000E-02	 0.00000000E+00
					 1.05239000E+00	-5.15534000E-02	 0.00000000E+00
					 1.05611000E+00	-4.72185000E-02	 0.00000000E+00
					 1.07341000E+00	-3.23360000E-02	 0.00000000E+00
					 1.07995000E+00	-2.26746000E-02	 0.00000000E+00
					 1.09676000E+00	-1.04569000E-02	 0.00000000E+00
					 1.10585000E+00	 5.86348000E-03	 0.00000000E+00
					 1.11571000E+00	 1.99220000E-02	 0.00000000E+00
					 1.12137000E+00	 3.02645000E-02	 0.00000000E+00
					 1.12385000E+00	 3.73950000E-02	 0.00000000E+00
					 1.13215000E+00	 4.60045000E-02	 0.00000000E+00
					 1.13781000E+00	 5.57818000E-02	 0.00000000E+00
					 1.14009000E+00	 6.22595000E-02	 0.00000000E+00
					 1.14700000E+00	 6.90702000E-02	 0.00000000E+00
					 1.15358000E+00	 7.57680000E-02	 0.00000000E+00
					 1.15589000E+00	 8.05327000E-02	 0.00000000E+00
					 1.15983000E+00	 8.58218000E-02	 0.00000000E+00
					 1.16352000E+00	 9.19481000E-02	 0.00000000E+00
					 1.16723000E+00	 9.72968000E-02	 0.00000000E+00
					 1.17073000E+00	 1.01678000E-01	 0.00000000E+00
					 1.17477000E+00	 1.06450000E-01	 0.00000000E+00
					 1.17830000E+00	 1.11358000E-01	 0.00000000E+00
					 1.18172000E+00	 1.14827000E-01	 0.00000000E+00
					 1.18295000E+00	 1.18628000E-01	 0.00000000E+00
					 1.18502000E+00	 1.21266000E-01	 0.00000000E+00
					 1.18840000E+00	 1.26473000E-01	 0.00000000E+00
					 1.19056000E+00	 1.29814000E-01	 0.00000000E+00
					 1.19680000E+00	 1.33273000E-01	 0.00000000E+00
					 1.19853000E+00	 1.39191000E-01	 0.00000000E+00
					 1.19421000E+00	 1.39094000E-01	 0.00000000E+00
					 1.19603000E+00	 1.42639000E-01	 0.00000000E+00
					 1.19946000E+00	 1.46714000E-01	 0.00000000E+00
					 1.20092000E+00	 1.49361000E-01	 0.00000000E+00
					 1.20274000E+00	 1.52098000E-01	 0.00000000E+00
					 1.20609000E+00	 1.55444000E-01	 0.00000000E+00
					 1.20701000E+00	 1.57872000E-01	 0.00000000E+00
					 1.20838000E+00	 1.60459000E-01	 0.00000000E+00
					 1.21003000E+00	 1.63136000E-01	 0.00000000E+00
					 1.21163000E+00	 1.65478000E-01	 0.00000000E+00
					 1.21249000E+00	 1.67264000E-01	 0.00000000E+00
					 1.21327000E+00	 1.68960000E-01	 0.00000000E+00
					 1.21356000E+00	 1.69743000E-01	 0.00000000E+00
					 1.21356000E+00	 1.69775000E-01	 0.00000000E+00
					 1.21342000E+00	 1.71827000E-01	 0.00000000E+00
					 1.22346000E+00	 1.69083000E-01	 0.00000000E+00
					 1.00000000E+00	 0.00000000E+00	 0.00000000E+00
					 9.98773000E-01	-3.20880000E-04	 0.00000000E+00
					 1.00000000E+00	 0.00000000E+00	 0.00000000E+00
					 1.00000000E+00	 0.00000000E+00	 0.00000000E+00
					 1.00000000E+00	 0.00000000E+00	 0.00000000E+00
					 1.00000000E+00	 0.00000000E+00	 0.00000000E+00
					 1.00000000E+00	 0.00000000E+00	 0.00000000E+00
					 1.00000000E+00	 0.00000000E+00	 0.00000000E+00
					 1.00000000E+00	 0.00000000E+00	 0.00000000E+00
					 1.00000000E+00	 0.00000000E+00	 0.00000000E+00
					 9.99964000E-01	 1.45467000E-05	 0.00000000E+00
					 1.00013000E+00	-1.17219000E-04	 0.00000000E+00
					 9.99926000E-01	 6.63484000E-04	 0.00000000E+00
					 9.98909000E-01	 4.31904000E-04	 0.00000000E+00
					 9.99468000E-01	-5.93515000E-04	 0.00000000E+00
					 1.00042000E+00	-7.66774000E-05	 0.00000000E+00
					 1.00002000E+00	-1.78005000E-05	 0.00000000E+00
					 1.00000000E+00	 0.00000000E+00	 0.00000000E+00
					 1.00000000E+00	 0.00000000E+00	 0.00000000E+00
					 1.00000000E+00	 0.00000000E+00	 0.00000000E+00
					 1.00000000E+00	 0.00000000E+00	 0.00000000E+00
					 1.00000000E+00	 0.00000000E+00	 0.00000000E+00
					 1.00000000E+00	 0.00000000E+00	 0.00000000E+00
					 1.00000000E+00	 0.00000000E+00	 0.00000000E+00
					 1.21939000E+00	 1.96270000E-01	 0.00000000E+00
					 1.21767000E+00	 1.66250000E-01	 0.00000000E+00
					 1.17149000E+00	 1.77777000E-01	 0.00000000E+00
					 1.21756000E+00	 1.66753000E-01	 0.00000000E+00
					 1.05613000E+00	 2.06032000E-02	 0.00000000E+00
					 1.14578000E+00	 1.03179000E-01	 0.00000000E+00
					 1.14228000E+00	-1.58960000E-01	 0.00000000E+00
					 1.07865000E+00	-3.04830000E-02	 0.00000000E+00
					 1.21874000E+00	-2.13307000E-01	 0.00000000E+00
					 1.21527000E+00	-1.61093000E-01	 0.00000000E+00
					 1.22454000E+00	-1.63871000E-01	 0.00000000E+00
					 1.03115000E+00	-2.88941000E-03	 0.00000000E+00
					 1.05281000E+00	-5.46053000E-03	 0.00000000E+00
					 1.19674000E+00	 1.33255000E-01	 0.00000000E+00
					 1.21314000E+00	 1.72300000E-01	 0.00000000E+00
					 1.21455000E+00	 1.75785000E-01	 0.00000000E+00
					 1.21323000E+00	 1.70584000E-01	 0.00000000E+00
					 1.03938000E+00	 2.57074000E-03	 0.00000000E+00
					 1.04854000E+00	-4.15477000E-02	 0.00000000E+00
					 1.21607000E+00	 1.71435000E-01	 0.00000000E+00
					 1.11484000E+00	 2.68146000E-02	 0.00000000E+00
					 1.21557000E+00	 1.70543000E-01	 0.00000000E+00
					 1.21715000E+00	 1.68162000E-01	 0.00000000E+00
					 1.21352000E+00	 1.69544000E-01	 0.00000000E+00
					 1.19836000E+00	 1.65873000E-01	 0.00000000E+00
					 1.04490000E+00	 1.09581000E-02	 0.00000000E+00
					 1.05076000E+00	-2.43572000E-02	 0.00000000E+00
					 1.06445000E+00	 1.92520000E-03	 0.00000000E+00
					 1.05809000E+00	 3.33295000E-02	 0.00000000E+00
					 1.02012000E+00	 2.42341000E-02	 0.00000000E+00
					 1.21435000E+00	-1.73043000E-01	 0.00000000E+00
					 1.21874000E+00	-1.83234000E-01	 0.00000000E+00
					 1.19603000E+00	-1.62383000E-01	 0.00000000E+00
					 1.14048000E+00	-7.66065000E-02	 0.00000000E+00
					 1.15022000E+00	-1.01002000E-01	 0.00000000E+00
					 1.21469000E+00	-1.69251000E-01	 0.00000000E+00
					 1.21994000E+00	-1.67341000E-01	 0.00000000E+00
					 1.21710000E+00	-1.69158000E-01	 0.00000000E+00
					 1.21389000E+00	 1.69423000E-01	 0.00000000E+00
					 1.21381000E+00	 1.70042000E-01	 0.00000000E+00
					 1.21373000E+00	 1.69068000E-01	 0.00000000E+00
					 1.21363000E+00	 1.69622000E-01	 0.00000000E+00
					 1.21339000E+00	 1.68823000E-01	 0.00000000E+00
					 1.21539000E+00	-1.69549000E-01	 0.00000000E+00
					 1.21515000E+00	-1.69262000E-01	 0.00000000E+00
					 1.21508000E+00	-1.68726000E-01	 0.00000000E+00
					 1.04035000E+00	-2.09584000E-02	 0.00000000E+00
					 1.21356000E+00	 1.68148000E-01	 0.00000000E+00
					 1.21758000E+00	 1.78080000E-01	 0.00000000E+00
					 1.21475000E+00	 1.68476000E-01	 0.00000000E+00
					 1.21351000E+00	 1.68975000E-01	 0.00000000E+00
					 1.13164000E+00	-6.35604000E-02	 0.00000000E+00
					 1.06783000E+00	 1.63419000E-02	 0.00000000E+00
					 1.21510000E+00	-1.70866000E-01	 0.00000000E+00
					 1.20686000E+00	-1.63840000E-01	 0.00000000E+00
					 1.21748000E+00	-1.75179000E-01	 0.00000000E+00
					 1.21302000E+00	 1.67778000E-01	 0.00000000E+00
					 6.51245000E-02	 9.38725000E-03	 0.00000000E+00
					 1.47714000E-01	 1.13883000E-01	 0.00000000E+00
					 1.76598000E-01	 3.30283000E-02	 0.00000000E+00
					 2.34539000E-01	 9.51966000E-02	 0.00000000E+00
					 2.17703000E-01	 1.71277000E-01	 0.00000000E+00
					 1.72550000E-01	-4.57497000E-02	 0.00000000E+00
					 2.40408000E-01	-1.34149000E-02	 0.00000000E+00
					 1.38116000E-01	-9.23052000E-02	 0.00000000E+00
					 2.36658000E-01	-1.13067000E-01	 0.00000000E+00
					 2.58905000E-01	-6.60663000E-02	 0.00000000E+00
					 2.06182000E-01	-1.76687000E-01	 0.00000000E+00
					 2.78928000E-01	-1.70775000E-01	 0.00000000E+00
					 2.93541000E-01	-1.04956000E-01	 0.00000000E+00
					 2.36523000E-01	-2.35586000E-01	 0.00000000E+00
					 2.83817000E-01	 1.44359000E-01	 0.00000000E+00
					 2.86714000E-01	 2.02946000E-01	 0.00000000E+00
					 2.24168000E-01	 2.47259000E-01	 0.00000000E+00
					 3.15917000E-01	 2.97882000E-01	 0.00000000E+00
					 2.49622000E-01	 4.20195000E-02	 0.00000000E+00
					 2.98175000E-01	 8.81507000E-02	 0.00000000E+00
					 3.24245000E-01	-2.98841000E-01	 0.00000000E+00
					 3.04630000E-01	-2.23926000E-01	 0.00000000E+00
					 3.70644000E-01	-2.59101000E-01	 0.00000000E+00
					 3.49219000E-01	-1.85562000E-01	 0.00000000E+00
					 3.15907000E-01	 1.65188000E-01	 0.00000000E+00
					 3.27767000E-01	 1.20311000E-01	 0.00000000E+00
					 3.12481000E-01	-5.05387000E-02	 0.00000000E+00
					 2.91546000E-01	 4.97521000E-03	 0.00000000E+00
					 3.24402000E-01	-1.34418000E-01	 0.00000000E+00
					 3.43594000E-01	-9.17780000E-02	 0.00000000E+00
					 4.22540000E-01	-3.23041000E-01	 0.00000000E+00
					 4.34150000E-01	-2.67782000E-01	 0.00000000E+00
					 4.04546000E-01	-2.15752000E-01	 0.00000000E+00
					 1.21279000E+00	 1.67251000E-01	 0.00000000E+00
					 3.09609000E-01	 4.69969000E-02	 0.00000000E+00
					 3.69224000E-01	 1.66105000E-01	 0.00000000E+00
					 3.34971000E-01	 2.17660000E-01	 0.00000000E+00
					 3.94862000E-01	-1.72637000E-01	 0.00000000E+00
					 3.43642000E-01	 7.79461000E-02	 0.00000000E+00
					 1.21261000E+00	 1.66478000E-01	 0.00000000E+00
					 1.21290000E+00	 1.67559000E-01	 0.00000000E+00
					 1.21221000E+00	 1.66224000E-01	 0.00000000E+00
					 3.49905000E-01	 2.68240000E-02	 0.00000000E+00
					 1.06662000E+00	 6.78892000E-03	 0.00000000E+00
					 1.04480000E+00	 7.34550000E-03	 0.00000000E+00
					 1.21344000E+00	 1.66505000E-01	 0.00000000E+00
					 4.83864000E-01	-3.14558000E-01	 0.00000000E+00
					 4.86168000E-01	-2.65055000E-01	 0.00000000E+00
					 3.69494000E-01	-5.40178000E-02	 0.00000000E+00
					 1.21605000E+00	 1.68747000E-01	 0.00000000E+00
					 1.21375000E+00	 1.67001000E-01	 0.00000000E+00
					 4.51812000E-01	-2.27672000E-01	 0.00000000E+00
					 1.21465000E+00	-1.68480000E-01	 0.00000000E+00
					 1.21486000E+00	-1.68795000E-01	 0.00000000E+00
					 1.21423000E+00	-1.67227000E-01	 0.00000000E+00
					 1.21412000E+00	-1.67035000E-01	 0.00000000E+00
					 1.21458000E+00	-1.67582000E-01	 0.00000000E+00
					 1.21579000E+00	-1.68824000E-01	 0.00000000E+00
					 1.21429000E+00	-1.67889000E-01	 0.00000000E+00
					 1.21366000E+00	-1.66060000E-01	 0.00000000E+00
					 1.11449000E+00	 7.10788000E-02	 0.00000000E+00
					 1.04919000E+00	-9.28664000E-03	 0.00000000E+00
					 3.76181000E-01	-1.37407000E-01	 0.00000000E+00
					 3.90884000E-01	-8.90826000E-02	 0.00000000E+00
					 1.21221000E+00	 1.70984000E-01	 0.00000000E+00
					 1.19942000E+00	 1.53647000E-01	 0.00000000E+00
					 3.73228000E-01	 1.07290000E-01	 0.00000000E+00
					 4.17969000E-01	 1.38455000E-01	 0.00000000E+00
					 3.81338000E-01	 2.76408000E-01	 0.00000000E+00
					 3.97608000E-01	 2.19836000E-01	 0.00000000E+00
					 4.40449000E-01	 2.63456000E-01	 0.00000000E+00
					 4.43860000E-01	 3.21671000E-01	 0.00000000E+00
					 4.93748000E-01	 3.06408000E-01	 0.00000000E+00
					 4.54839000E-01	 2.26033000E-01	 0.00000000E+00
					 4.92300000E-01	 2.61221000E-01	 0.00000000E+00
					 5.28546000E-01	-2.98148000E-01	 0.00000000E+00
					 5.31854000E-01	-2.62875000E-01	 0.00000000E+00
					 5.51235000E-01	-3.33980000E-01	 0.00000000E+00
					 5.84927000E-01	-3.21712000E-01	 0.00000000E+00
					 5.73508000E-01	-2.85708000E-01	 0.00000000E+00
					 4.94638000E-01	-2.32992000E-01	 0.00000000E+00
					 4.34223000E-01	-1.88939000E-01	 0.00000000E+00
					 4.20047000E-01	-1.47125000E-01	 0.00000000E+00
					 4.73693000E-01	-1.99172000E-01	 0.00000000E+00
					 4.97705000E-01	 2.26307000E-01	 0.00000000E+00
					 5.37599000E-01	 2.79307000E-01	 0.00000000E+00
					 5.64857000E-01	 3.25289000E-01	 0.00000000E+00
					 4.23686000E-01	 1.81698000E-01	 0.00000000E+00
					 4.63892000E-01	 1.90409000E-01	 0.00000000E+00
					 5.92439000E-01	 2.91291000E-01	 0.00000000E+00
					 6.18481000E-01	 3.16989000E-01	 0.00000000E+00
					 5.24365000E-01	 2.49766000E-01	 0.00000000E+00
					 3.85244000E-01	 6.33087000E-02	 0.00000000E+00
					 1.21128000E+00	 1.64282000E-01	 0.00000000E+00
					 1.21155000E+00	 1.64089000E-01	 0.00000000E+00
					 1.21216000E+00	 1.66106000E-01	 0.00000000E+00
					 1.21124000E+00	 1.64154000E-01	 0.00000000E+00
					 3.42155000E-01	-1.58644000E-02	 0.00000000E+00
					 3.88039000E-01	-1.60723000E-02	 0.00000000E+00
					 1.05629000E+00	 6.67807000E-03	 0.00000000E+00
					 1.05612000E+00	 4.84422000E-03	 0.00000000E+00
					 1.07065000E+00	-2.68877000E-02	 0.00000000E+00
					 1.04930000E+00	 1.18760000E-02	 0.00000000E+00
					 6.46318000E-01	 2.98998000E-01	 0.00000000E+00
					 5.68315000E-01	 2.65139000E-01	 0.00000000E+00
					 6.19190000E-01	 2.73092000E-01	 0.00000000E+00
					 1.21191000E+00	 1.64373000E-01	 0.00000000E+00
					 4.10794000E-01	-5.39998000E-02	 0.00000000E+00
					 1.21522000E+00	 1.71693000E-01	 0.00000000E+00
					 1.21399000E+00	-1.67329000E-01	 0.00000000E+00
					 1.21341000E+00	-1.65505000E-01	 0.00000000E+00
					 1.21214000E+00	-1.63830000E-01	 0.00000000E+00
					 1.21272000E+00	-1.64913000E-01	 0.00000000E+00
					 6.23112000E-01	-2.98198000E-01	 0.00000000E+00
					 6.05315000E-01	-2.76792000E-01	 0.00000000E+00
					 5.72536000E-01	-2.55830000E-01	 0.00000000E+00
					 5.31964000E-01	-2.36045000E-01	 0.00000000E+00
					 6.25883000E-01	-3.23142000E-01	 0.00000000E+00
					 6.83645000E-01	-3.03825000E-01	 0.00000000E+00
					 6.49323000E-01	-2.85528000E-01	 0.00000000E+00
					 4.12751000E-01	-1.15349000E-01	 0.00000000E+00
					 4.30178000E-01	-8.61893000E-02	 0.00000000E+00
					 1.21245000E+00	 1.65433000E-01	 0.00000000E+00
					 5.20579000E-01	-2.12630000E-01	 0.00000000E+00
					 6.70705000E-01	 2.74693000E-01	 0.00000000E+00
					 1.21215000E+00	 1.65579000E-01	 0.00000000E+00
					 4.25917000E-01	 9.84190000E-02	 0.00000000E+00
					 4.57162000E-01	 1.25177000E-01	 0.00000000E+00
					 4.57309000E-01	-1.61852000E-01	 0.00000000E+00
					 4.48518000E-01	-1.20613000E-01	 0.00000000E+00
					 5.51149000E-01	 2.36254000E-01	 0.00000000E+00
					 5.09577000E-01	 1.95728000E-01	 0.00000000E+00
					 4.94606000E-01	-1.75067000E-01	 0.00000000E+00
					 1.20954000E+00	 1.61870000E-01	 0.00000000E+00
					 1.21132000E+00	 1.64423000E-01	 0.00000000E+00
					 1.21070000E+00	 1.62728000E-01	 0.00000000E+00
					 1.21000000E+00	 1.61842000E-01	 0.00000000E+00
					 4.46069000E-01	 1.58984000E-01	 0.00000000E+00
					 4.82330000E-01	 1.63816000E-01	 0.00000000E+00
					 1.20910000E+00	 1.61518000E-01	 0.00000000E+00
					 5.89601000E-01	 2.49803000E-01	 0.00000000E+00
					 1.20907000E+00	 1.64102000E-01	 0.00000000E+00
					 4.01210000E-01	 2.77288000E-02	 0.00000000E+00
					 7.12711000E-01	-2.76371000E-01	 0.00000000E+00
					 6.78526000E-01	-2.56595000E-01	 0.00000000E+00
					 6.27233000E-01	-2.60692000E-01	 0.00000000E+00
					 5.75294000E-01	-2.27704000E-01	 0.00000000E+00
					 1.20918000E+00	 1.61648000E-01	 0.00000000E+00
					 4.34761000E-01	 6.03782000E-02	 0.00000000E+00
					 6.33215000E-01	 2.54452000E-01	 0.00000000E+00
					 6.83410000E-01	 2.54193000E-01	 0.00000000E+00
					 6.97933000E-01	 2.93274000E-01	 0.00000000E+00
					 7.18398000E-01	 2.65509000E-01	 0.00000000E+00
					 7.46368000E-01	 2.78568000E-01	 0.00000000E+00
					 1.21066000E+00	-1.61523000E-01	 0.00000000E+00
					 1.21161000E+00	-1.63207000E-01	 0.00000000E+00
					 1.21034000E+00	-1.60702000E-01	 0.00000000E+00
					 1.21322000E+00	-1.65062000E-01	 0.00000000E+00
					 1.21140000E+00	-1.62805000E-01	 0.00000000E+00
					 1.21022000E+00	-1.60486000E-01	 0.00000000E+00
					 4.30489000E-01	-4.85692000E-04	 0.00000000E+00
					 1.21374000E+00	-1.66227000E-01	 0.00000000E+00