<?xml version="1.0"?>
<VTKFile type="UnstructuredGrid" version="0.1" byte_order="LittleEndian">
	<UnstructuredGrid>
		<Piece NumberOfPoints="7506" NumberOfCells="7351">
			<Points>
				<DataArray type="Float64" NumberOfComponents="3" format="ascii">
					 1.00000000E+00	 0.00000000E+00	 0.00000000E+00
					 2.77960000E-01	 5.93990000E-02	 0.00000000E+00
					 9.97540000E-01	 3.45130000E-04	 0.00000000E+00
					 9.93910000E-01	 8.54240000E-04	 0.00000000E+00
					 9.88870000E-01	 1.56040000E-03	 0.00000000E+00
					 9.82560000E-01	 2.44060000E-03	 0.00000000E+00
					 9.75050000E-01	 3.48220000E-03	 0.00000000E+00
					 9.66340000E-01	 4.67810000E-03	 0.00000000E+00
					 9.56490000E-01	 6.01100000E-03	 0.00000000E+00
					 9.45550000E-01	 7.47110000E-03	 0.00000000E+00
					 9.33550000E-01	 9.05150000E-03	 0.00000000E+00
					 9.20540000E-01	 1.07390000E-02	 0.00000000E+00
					 9.06560000E-01	 1.25250000E-02	 0.00000000E+00
					 8.91660000E-01	 1.43960000E-02	 0.00000000E+00
					 8.75890000E-01	 1.63410000E-02	 0.00000000E+00
					 8.59270000E-01	 1.83510000E-02	 0.00000000E+00
					 8.41880000E-01	 2.04140000E-02	 0.00000000E+00
					 8.23770000E-01	 2.25180000E-02	 0.00000000E+00
					 8.04950000E-01	 2.46570000E-02	 0.00000000E+00
					 7.85510000E-01	 2.68160000E-02	 0.00000000E+00
					 7.65490000E-01	 2.89870000E-02	 0.00000000E+00
					 7.44910000E-01	 3.11620000E-02	 0.00000000E+00
					 7.23850000E-01	 3.33280000E-02	 0.00000000E+00
					 7.02350000E-01	 3.54780000E-02	 0.00000000E+00
					 6.80500000E-01	 3.75970000E-02	 0.00000000E+00
					 6.58310000E-01	 3.96780000E-02	 0.00000000E+00
					 6.35870000E-01	 4.17080000E-02	 0.00000000E+00
					 6.13100000E-01	 4.36890000E-02	 0.00000000E+00
					 5.90270000E-01	 4.55900000E-02	 0.00000000E+00
					 5.67270000E-01	 4.74180000E-02	 0.00000000E+00
					 5.44160000E-01	 4.91570000E-02	 0.00000000E+00
					 5.21040000E-01	 5.07940000E-02	 0.00000000E+00
					 4.97940000E-01	 5.23220000E-02	 0.00000000E+00
					 4.74890000E-01	 5.37290000E-02	 0.00000000E+00
					 4.51990000E-01	 5.50030000E-02	 0.00000000E+00
					 4.29270000E-01	 5.61350000E-02	 0.00000000E+00
					 4.06690000E-01	 5.71210000E-02	 0.00000000E+00
					 3.84290000E-01	 5.79460000E-02	 0.00000000E+00
					 3.62360000E-01	 5.85970000E-02	 0.00000000E+00
					 3.40640000E-01	 5.90880000E-02	 0.00000000E+00
					 3.19370000E-01	 5.93810000E-02	 0.00000000E+00
					 2.98420000E-01	 5.94520000E-02	 0.00000000E+00
					 3.16800000E-01	-5.94010000E-02	 0.00000000E+00
					 2.58320000E-01	 5.90860000E-02	 0.00000000E+00
					 2.39190000E-01	 5.86460000E-02	 0.00000000E+00
					 2.20600000E-01	 5.79880000E-02	 0.00000000E+00
					 2.02570000E-01	 5.71140000E-02	 0.00000000E+00
					 1.85140000E-01	 5.60450000E-02	 0.00000000E+00
					 1.68340000E-01	 5.47840000E-02	 0.00000000E+00
					 1.52180000E-01	 5.33300000E-02	 0.00000000E+00
					 1.36720000E-01	 5.16850000E-02	 0.00000000E+00
					 1.21950000E-01	 4.98510000E-02	 0.00000000E+00
					 1.07920000E-01	 4.78340000E-02	 0.00000000E+00
					 9.46390000E-02	 4.56400000E-02	 0.00000000E+00
					 8.21360000E-02	 4.32760000E-02	 0.00000000E+00
					 7.04300000E-02	 4.07450000E-02	 0.00000000E+00
					 5.95390000E-02	 3.80520000E-02	 0.00000000E+00
					 4.94870000E-02	 3.52090000E-02	 0.00000000E+00
					 4.02830000E-02	 3.22160000E-02	 0.00000000E+00
					 3.19590000E-02	 2.90750000E-02	 0.00000000E+00
					 2.45210000E-02	 2.57790000E-02	 0.00000000E+00
					 1.79890000E-02	 2.23480000E-02	 0.00000000E+00
					 1.23810000E-02	 1.87690000E-02	 0.00000000E+00
					 7.75450000E-03	 1.49850000E-02	 0.00000000E+00
					 4.14200000E-03	 1.09770000E-02	 0.00000000E+00
					 1.54070000E-03	 6.78890000E-03	 0.00000000E+00
					 1.09370000E-04	 2.42430000E-03	 0.00000000E+00
					 6.29740000E-05	-2.02650000E-03	 0.00000000E+00
					 1.35330000E-03	-6.39510000E-03	 0.00000000E+00
					 3.84770000E-03	-1.05820000E-02	 0.00000000E+00
					 7.36850000E-03	-1.46140000E-02	 0.00000000E+00
					 1.19130000E-02	-1.84300000E-02	 0.00000000E+00
					 1.74470000E-02	-2.20330000E-02	 0.00000000E+00
					 2.39030000E-02	-2.54790000E-02	 0.00000000E+00
					 3.12670000E-02	-2.87900000E-02	 0.00000000E+00
					 3.95190000E-02	-3.19480000E-02	 0.00000000E+00
					 4.86530000E-02	-3.49540000E-02	 0.00000000E+00
					 5.86330000E-02	-3.78110000E-02	 0.00000000E+00
					 6.94530000E-02	-4.05180000E-02	 0.00000000E+00
					 8.10920000E-02	-4.30640000E-02	 0.00000000E+00
					 9.35300000E-02	-4.54430000E-02	 0.00000000E+00
					 1.06750000E-01	-4.76520000E-02	 0.00000000E+00
					 1.20710000E-01	-4.96840000E-02	 0.00000000E+00
					 1.35420000E-01	-5.15340000E-02	 0.00000000E+00
					 1.50830000E-01	-5.31960000E-02	 0.00000000E+00
					 1.66920000E-01	-5.46690000E-02	 0.00000000E+00
					 1.83670000E-01	-5.59460000E-02	 0.00000000E+00
					 2.01050000E-01	-5.70270000E-02	 0.00000000E+00
					 2.19030000E-01	-5.79100000E-02	 0.00000000E+00
					 2.37570000E-01	-5.85980000E-02	 0.00000000E+00
					 2.56660000E-01	-5.90950000E-02	 0.00000000E+00
					 2.76250000E-01	-5.93840000E-02	 0.00000000E+00
					 2.96310000E-01	-5.94590000E-02	 0.00000000E+00
					 3.38470000E-01	-5.90940000E-02	 0.00000000E+00
					 3.61000000E-01	-5.86410000E-02	 0.00000000E+00
					 3.83900000E-01	-5.79640000E-02	 0.00000000E+00
					 4.07100000E-01	-5.71010000E-02	 0.00000000E+00
					 4.30580000E-01	-5.60740000E-02	 0.00000000E+00
					 4.54270000E-01	-5.48820000E-02	 0.00000000E+00
					 4.78130000E-01	-5.35380000E-02	 0.00000000E+00
					 5.02100000E-01	-5.20550000E-02	 0.00000000E+00
					 5.26140000E-01	-5.04420000E-02	 0.00000000E+00
					 5.50190000E-01	-4.87120000E-02	 0.00000000E+00
					 5.74190000E-01	-4.68770000E-02	 0.00000000E+00
					 5.98100000E-01	-4.49480000E-02	 0.00000000E+00
					 6.21850000E-01	-4.29370000E-02	 0.00000000E+00
					 6.45380000E-01	-4.08570000E-02	 0.00000000E+00
					 6.68640000E-01	-3.87180000E-02	 0.00000000E+00
					 6.91580000E-01	-3.65310000E-02	 0.00000000E+00
					 7.14120000E-01	-3.43090000E-02	 0.00000000E+00
					 7.36230000E-01	-3.20630000E-02	 0.00000000E+00
					 7.57830000E-01	-2.98030000E-02	 0.00000000E+00
					 7.78870000E-01	-2.75420000E-02	 0.00000000E+00
					 7.99300000E-01	-2.52900000E-02	 0.00000000E+00
					 8.19040000E-01	-2.30600000E-02	 0.00000000E+00
					 8.38060000E-01	-2.08620000E-02	 0.00000000E+00
					 8.56300000E-01	-1.87070000E-02	 0.00000000E+00
					 8.73680000E-01	-1.66100000E-02	 0.00000000E+00
					 8.90180000E-01	-1.45790000E-02	 0.00000000E+00
					 9.05740000E-01	-1.26290000E-02	 0.00000000E+00
					 9.20290000E-01	-1.07720000E-02	 0.00000000E+00
					 9.33770000E-01	-9.02170000E-03	 0.00000000E+00
					 9.46140000E-01	-7.39330000E-03	 0.00000000E+00
					 9.57340000E-01	-5.89610000E-03	 0.00000000E+00
					 9.67370000E-01	-4.53700000E-03	 0.00000000E+00
					 9.76000000E-01	-3.35090000E-03	 0.00000000E+00
					 9.83490000E-01	-2.31200000E-03	 0.00000000E+00
					 9.88490000E-01	-1.61350000E-03	 0.00000000E+00
					 9.92100000E-01	-1.10780000E-03	 0.00000000E+00
					 9.95080000E-01	-6.90490000E-04	 0.00000000E+00
					 9.97670000E-01	-3.26550000E-04	 0.00000000E+00
					-1.21830000E+01	 1.19710000E+00	 0.00000000E+00
					 1.32050000E+01	 1.01120000E+00	 0.00000000E+00
					-1.18690000E+01	-1.97400000E+00	 0.00000000E+00
					-1.10920000E+01	-5.09310000E+00	 0.00000000E+00
					-9.46580000E+00	-7.86620000E+00	 0.00000000E+00
					-7.13370000E+00	-1.00850000E+01	 0.00000000E+00
					-4.32700000E+00	-1.16590000E+01	 0.00000000E+00
					-1.21910000E+00	-1.24990000E+01	 0.00000000E+00
					 1.99950000E+00	-1.25280000E+01	 0.00000000E+00
					 5.12280000E+00	-1.17440000E+01	 0.00000000E+00
					 7.95860000E+00	-1.02190000E+01	 0.00000000E+00
					 1.03310000E+01	-8.04090000E+00	 0.00000000E+00
					 1.20080000E+01	-5.29720000E+00	 0.00000000E+00
					 1.28400000E+01	-2.19030000E+00	 0.00000000E+00
					 1.24700000E+01	 3.48480000E+00	 0.00000000E+00
					 1.09220000E+01	 6.62290000E+00	 0.00000000E+00
					 8.99020000E+00	 9.54850000E+00	 0.00000000E+00
					 6.25090000E+00	 1.17520000E+01	 0.00000000E+00
					 2.78530000E+00	 1.26400000E+01	 0.00000000E+00
					-7.34390000E-01	 1.26770000E+01	 0.00000000E+00
					-4.17130000E+00	 1.19380000E+01	 0.00000000E+00
					-7.25650000E+00	 1.02560000E+01	 0.00000000E+00
					-9.69560000E+00	 7.72920000E+00	 0.00000000E+00
					-1.12250000E+01	 4.57440000E+00	 0.00000000E+00
					 9.99150000E-01	-1.51520000E-03	 0.00000000E+00
					 9.97350000E-01	-2.43570000E-03	 0.00000000E+00
					 1.00070000E+00	-1.48290000E-03	 0.00000000E+00
					 9.99970000E-01	-3.38170000E-03	 0.00000000E+00
					 1.00190000E+00	-2.07850000E-04	 0.00000000E+00
					 1.00260000E+00	-2.42950000E-03	 0.00000000E+00
					 1.00100000E+00	 1.28670000E-03	 0.00000000E+00
					 1.00340000E+00	 1.82920000E-03	 0.00000000E+00
					 9.99250000E-01	 1.49750000E-03	 0.00000000E+00
					 1.00040000E+00	 3.21980000E-03	 0.00000000E+00
					 9.97430000E-01	 2.58540000E-03	 0.00000000E+00
					 1.00390000E+00	-5.94460000E-04	 0.00000000E+00
					 1.00530000E+00	-2.32150000E-03	 0.00000000E+00
					 1.00430000E+00	-4.67910000E-03	 0.00000000E+00
					 1.00200000E+00	-4.57570000E-03	 0.00000000E+00
					 1.00040000E+00	-6.18250000E-03	 0.00000000E+00
					 9.97530000E-01	-5.19250000E-03	 0.00000000E+00
					 1.00600000E+00	-3.83840000E-06	 0.00000000E+00
					 1.00800000E+00	-2.03600000E-03	 0.00000000E+00
					 1.00290000E+00	-6.50120000E-03	 0.00000000E+00
					 1.00680000E+00	-4.41430000E-03	 0.00000000E+00
					 9.98060000E-01	-8.58300000E-03	 0.00000000E+00
					 1.00170000E+00	-9.14400000E-03	 0.00000000E+00
					 9.94690000E-01	-3.55130000E-03	 0.00000000E+00
					 1.00620000E+00	-8.13490000E-03	 0.00000000E+00
					 1.00850000E+00	 5.08550000E-04	 0.00000000E+00
					 1.01110000E+00	-1.17030000E-03	 0.00000000E+00
					 1.00980000E+00	-4.98410000E-03	 0.00000000E+00
[...]
			<PointData>
				<DataArray type="Float32" Name="V3DF" NumberOfComponents="3" ComponentName0="V1" ComponentName1="V2" ComponentName2="V3" format="ascii">
					 0.00000000E+00	 0.00000000E+00	 0.00000000E+00
					 0.00000000E+00	 0.00000000E+00	 0.00000000E+00
					 0.00000000E+00	 0.00000000E+00	 0.00000000E+00
					 0.00000000E+00	 0.00000000E+00	 0.00000000E+00
					 0.00000000E+00	 0.00000000E+00	 0.00000000E+00
					 0.00000000E+00	 0.00000000E+00	 0.00000000E+00
					 0.00000000E+00	 0.00000000E+00	 0.00000000E+00
					 0.00000000E+00	 0.00000000E+00	 0.00000000E+00
					 0.00000000E+00	 0.00000000E+00	 0.00000000E+00
					 0.00000000E+00	 0.00000000E+00	 0.00000000E+00
					 0.00000000E+00	 0.00000000E+00	 0.00000000E+00
					 0.00000000E+00	 0.00000000E+00	 0.00000000E+00
					 0.00000000E+00	 0.00000000E+00	 0.00000000E+00
					 0.00000000E+00	 0.00000000E+00	 0.00000000E+00
					 0.00000000E+00	 0.00000000E+00	 0.00000000E+00
					 0.00000000E+00	 0.00000000E+00	 0.00000000E+00
					 0.00000000E+00	 0.00000000E+00	 0.00000000E+00
					 0.00000000E+00	 0.00000000E+00	 0.00000000E+00
					 0.00000000E+00	 0.00000000E+00	 0.00000000E+00
					 0.00000000E+00	 0.00000000E+00	 0.00000000E+00
					 0.00000000E+00	 0.00000000E+00	 0.00000000E+00
					 0.00000000E+00	 0.00000000E+00	 0.00000000E+00
					 0.00000000E+00	 0.00000000E+00	 0.00000000E+00
					 0.00000000E+00	 0.00000000E+00	 0.00000000E+00
					 0.00000000E+00	 0.00000000E+00	 0.00000000E+00
					 0.00000000E+00	 0.00000000E+00	 0.00000000E+00
					 0.00000000E+00	 0.00000000E+00	 0.00000000E+00
					 0.00000000E+00	 0.00000000E+00	 0.00000000E+00
					 0.00000000E+00	 0.00000000E+00	 0.00000000E+00
					 0.00000000E+00	 0.00000000E+00	 0.00000000E+00
					 0.00000000E+00	 0.00000000E+00	 0.00000000E+00
					 0.00000000E+00	 0.00000000E+00	 0.00000000E+00
					 0.00000000E+00	 0.00000000E+00	 0.00000000E+00
					 0.00000000E+00	 0.00000000E+00	 0.00000000E+00
					 0.00000000E+00	 0.00000000E+00	 0.00000000E+00
					 0.00000000E+00	 0.00000000E+00	 0.00000000E+00
					 0.00000000E+00	 0.00000000E+00	 0.00000000E+00
					 0.00000000E+00	 0.00000000E+00	 0.00000000E+00
					 0.00000000E+00	 0.00000000E+00	 0.00000000E+00
					 0.00000000E+00	 0.00000000E+00	 0.00000000E+00
					 0.00000000E+00	 0.00000000E+00	 0.00000000E+00
					 0.00000000E+00	 0.00000000E+00	 0.00000000E+00
					 0.00000000E+00	 0.00000000E+00	 0.00000000E+00
					 0.00000000E+00	 0.00000000E+00	 0.00000000E+00
					 0.00000000E+00	 0.00000000E+00	 0.00000000E+00
					 0.00000000E+00	 0.00000000E+00	 0.00000000E+00
					 0.00000000E+00	 0.00000000E+00	 0.00000000E+00
					 0.00000000E+00	 0.00000000E+00	 0.00000000E+00
					 0.00000000E+00	 0.00000000E+00	 0.00000000E+00
					 0.00000000E+00	 0.00000000E+00	 0.00000000E+00
					 0.00000000E+00	 0.00000000E+00	 0.00000000E+00
					 0.00000000E+00	 0.00000000E+00	 0.00000000E+00
					 0.00000000E+00	 0.00000000E+00	 0.00000000E+00
					 0.00000000E+00	 0.00000000E+00	 0.00000000E+00
					 0.00000000E+00	 0.00000000E+00	 0.00000000E+00
					 0.00000000E+00	 0.00000000E+00	 0.00000000E+00
					 0.00000000E+00	 0.00000000E+00	 0.00000000E+00
					 0.00000000E+00	 0.00000000E+00	 0.00000000E+00
					 0.00000000E+00	 0.00000000E+00	 0.00000000E+00
					 0.00000000E+00	 0.00000000E+00	 0.00000000E+00
					 0.00000000E+00	 0.00000000E+00	 0.00000000E+00
					 0.00000000E+00	 0.00000000E+00	 0.00000000E+00
					 0.00000000E+00	 0.00000000E+00	 0.00000000E+00
					 0.00000000E+00	 0.00000000E+00	 0.00000000E+00
					 0.00000000E+00	 0.00000000E+00	 0.00000000E+00
					 0.00000000E+00	 0.00000000E+00	 0.00000000E+00
					 0.00000000E+00	 0.00000000E+00	 0.00000000E+00
					 0.00000000E+00	 0.00000000E+00	 0.00000000E+00
					 0.00000000E+00	 0.00000000E+00	 0.00000000E+00
					 0.00000000E+00	 0.00000000E+00	 0.00000000E+00
					 0.00000000E+00	 0.00000000E+00	 0.00000000E+00
					 0.00000000E+00	 0.00000000E+00	 0.00000000E+00
					 0.00000000E+00	 0.00000000E+00	 0.00000000E+00
					 0.00000000E+00	 0.00000000E+00	 0.00000000E+00
					 0.00000000E+00	 0.00000000E+00	 0.00000000E+00
					 0.00000000E+00	 0.00000000E+00	 0.00000000E+00
					 0.00000000E+00	 0.00000000E+00	 0.00000000E+00
					 0.00000000E+00	 0.00000000E+00	 0.00000000E+00
					 0.00000000E+00	 0.00000000E+00	 0.00000000E+00
					 0.00000000E+00	 0.00000000E+00	 0.00000000E+00
					 0.00000000E+00	 0.00000000E+00	 0.00000000E+00
					 0.00000000E+00	 0.00000000E+00	 0.00000000E+00
					 0.00000000E+00	 0.00000000E+00	 0.00000000E+00
					 0.00000000E+00	 0.00000000E+00	 0.00000000E+00
					 0.00000000E+00	 0.00000000E+00	 0.00000000E+00
					 0.00000000E+00	 0.00000000E+00	 0.00000000E+00
					 0.00000000E+00	 0.00000000E+00	 0.00000000E+00
					 0.00000000E+00	 0.00000000E+00	 0.00000000E+00
					 0.00000000E+00	 0.00000000E+00	 0.00000000E+00
					 0.00000000E+00	 0.00000000E+00	 0.00000000E+00
					 0.00000000E+00	 0.00000000E+00	 0.00000000E+00
					 0.00000000E+00	 0.00000000E+00	 0.00000000E+00
					 0.00000000E+00	 0.00000000E+00	 0.00000000E+00
					 0.00000000E+00	 0.00000000E+00	 0.00000000E+00
					 0.00000000E+00	 0.00000000E+00	 0.00000000E+00
					 0.00000000E+00	 0.00000000E+00	 0.00000000E+00
					 0.00000000E+00	 0.00000000E+00	 0.00000000E+00
					 0.00000000E+00	 0.00000000E+00	 0.00000000E+00
					 0.00000000E+00	 0.00000000E+00	 0.00000000E+00
					 0.00000000E+00	 0.00000000E+00	 0.00000000E+00
					 0.00000000E+00	 0.00000000E+00	 0.00000000E+00
					 0.00000000E+00	 0.00000000E+00	 0.00000000E+00
					 0.00000000E+00	 0.00000000E+00	 0.00000000E+00
					 0.00000000E+00	 0.00000000E+00	 0.00000000E+00
					 0.00000000E+00	 0.00000000E+00	 0.00000000E+00
					 0.00000000E+00	 0.00000000E+00	 0.00000000E+00
					 0.00000000E+00	 0.00000000E+00	 0.00000000E+00
					 0.00000000E+00	 0.00000000E+00	 0.00000000E+00
					 0.00000000E+00	 0.00000000E+00	 0.00000000E+00
					 0.00000000E+00	 0.00000000E+00	 0.00000000E+00
					 0.00000000E+00	 0.00000000E+00	 0.00000000E+00
					 0.00000000E+00	 0.00000000E+00	 0.00000000E+00
					 0.00000000E+00	 0.00000000E+00	 0.00000000E+00
					 0.00000000E+00	 0.00000000E+00	 0.00000000E+00
					 0.00000000E+00	 0.00000000E+00	 0.00000000E+00
					 0.00000000E+00	 0.00000000E+00	 0.00000000E+00
					 0.00000000E+00	 0.00000000E+00	 0.00000000E+00
					 0.00000000E+00	 0.00000000E+00	 0.00000000E+00
					 0.00000000E+00	 0.00000000E+00	 0.00000000E+00
					 0.00000000E+00	 0.00000000E+00	 0.00000000E+00
					 0.00000000E+00	 0.00000000E+00	 0.00000000E+00
					 0.00000000E+00	 0.00000000E+00	 0.00000000E+00
					 0.00000000E+00	 0.00000000E+00	 0.00000000E+00
					 0.00000000E+00	 0.00000000E+00	 0.00000000E+00
					 0.00000000E+00	 0.00000000E+00	 0.00000000E+00
					 0.00000000E+00	 0.00000000E+00	 0.00000000E+00
					 0.00000000E+00	 0.00000000E+00	 0.00000000E+00
					 0.00000000E+00	 0.00000000E+00	 0.00000000E+00
					 0.00000000E+00	 0.00000000E+00	 0.00000000E+00
					 0.00000000E+00	 0.00000000E+00	 0.00000000E+00
					 0.00000000E+00	 0.00000000E+00	 0.00000000E+00
					 9.92546000E-01	 1.21869000E-01	 0.00000000E+00
					 9.92546000E-01	 1.21869000E-01	 0.00000000E+00
					 9.92546000E-01	 1.21869000E-01	 0.00000000E+00
					 9.92546000E-01	 1.21869000E-01	 0.00000000E+00
					 9.92546000E-01	 1.21869000E-01	 0.00000000E+00
					 9.92546000E-01	 1.21869000E-01	 0.00000000E+00
					 9.92546000E-01	 1.21869000E-01	 0.00000000E+00
					 9.92546000E-01	 1.21869000E-01	 0.00000000E+00
					 9.92546000E-01	 1.21869000E-01	 0.00000000E+00
					 9.92546000E-01	 1.21869000E-01	 0.00000000E+00
					 9.92546000E-01	 1.21869000E-01	 0.00000000E+00
					 9.92546000E-01	 1.21869000E-01	 0.00000000E+00
					 9.92546000E-01	 1.21869000E-01	 0.00000000E+00
					 9.92546000E-01	 1.21869000E-01	 0.00000000E+00
					 9.92546000E-01	 1.21869000E-01	 0.00000000E+00
					 9.92546000E-01	 1.21869000E-01	 0.00000000E+00
					 9.92546000E-01	 1.21869000E-01	 0.00000000E+00
					 9.92546000E-01	 1.21869000E-01	 0.00000000E+00
					 9.92546000E-01	 1.21869000E-01	 0.00000000E+00
					 9.92546000E-01	 1.21869000E-01	 0.00000000E+00
					 9.92546000E-01	 1.21869000E-01	 0.00000000E+00
					 9.92546000E-01	 1.21869000E-01	 0.00000000E+00
					 9.92546000E-01	 1.21869000E-01	 0.00000000E+00
					 9.92546000E-01	 1.21869000E-01	 0.00000000E+00
					-2.51124000E+59	 9.07461000E+58	 0.00000000E+00
					-2.10634000E+83	 4.41663000E+82	 0.00000000E+00
					 1.16392000E+66	 7.00899000E+65	 0.00000000E+00
					-4.55480000E+58	 1.37795000E+58	 0.00000000E+00
					 2.90364000E+85	-1.00396000E+85	 0.00000000E+00
					-7.05983000E+85	 2.44100000E+85	 0.00000000E+00
					-1.28924000E+88	 1.06258000E+88	 0.00000000E+00
					 2.17038000E+88	-1.78880000E+88	 0.00000000E+00
					 7.76672000E+65	-8.40830000E+64	 0.00000000E+00
					 2.83951000E+88	-2.34030000E+88	 0.00000000E+00
					 4.03941000E+58	 6.02661000E+57	 0.00000000E+00
					-8.48751000E+85	 2.93463000E+85	 0.00000000E+00
					-8.44825000E+85	 2.92106000E+85	 0.00000000E+00
					 3.21147000E+85	-1.14001000E+85	 0.00000000E+00
					 1.50926000E+84	-4.04165000E+83	 0.00000000E+00
					-9.02051000E+57	 1.81116000E+57	 0.00000000E+00
					 1.74090000E+58	-5.64056000E+57	 0.00000000E+00
					 3.00860000E+85	-1.04130000E+85	 0.00000000E+00
					 7.54859000E+79	 4.17602000E+79	 0.00000000E+00
					-5.10225000E+84	 1.36634000E+84	 0.00000000E+00
					 2.30915000E+84	-6.18404000E+83	 0.00000000E+00
					 9.89348000E+56	-2.32894000E+56	 0.00000000E+00
					 2.15110000E+84	-5.76045000E+83	 0.00000000E+00
					 2.46300000E+94	-8.32076000E+93	 0.00000000E+00
					-4.18883000E+84	 1.12173000E+84	 0.00000000E+00
					-3.79662000E+79	-2.09794000E+79	 0.00000000E+00
					 1.10562000E+80	 6.12181000E+79	 0.00000000E+00
					 1.10050000E+80	 6.08978000E+79	 0.00000000E+00
					 2.07504000E+82	 1.63715000E+82	 0.00000000E+00
					 1.24872000E+78	 7.24967000E+77	 0.00000000E+00
					-9.36130000E+62	 1.80847000E+63	 0.00000000E+00
					-1.45023000E+88	 1.19527000E+88	 0.00000000E+00
					 3.16214000E+88	-2.60621000E+88	 0.00000000E+00
					-1.49859000E+88	 1.23513000E+88	 0.00000000E+00
					-6.13708000E+81	-4.84198000E+81	 0.00000000E+00
					-3.85416000E+60	 2.55098000E+59	 0.00000000E+00
					-8.56650000E+62	 1.65474000E+63	 0.00000000E+00
					 2.04176000E+60	-1.11760000E+59	 0.00000000E+00
					 3.70341000E+82	-2.31562000E+84	 0.00000000E+00
					-1.97704000E+54	 4.18913000E+53	 0.00000000E+00
					 4.53405000E+53	-2.44664000E+52	 0.00000000E+00
					-9.51595000E+94	 3.21478000E+94	 0.00000000E+00
					 3.06749000E+94	-1.03629000E+94	 0.00000000E+00
					-2.23076000E+61	 1.21498000E+60	 0.00000000E+00
					-1.35984000E+61	 7.52175000E+59	 0.00000000E+00
					-1.09862000E+61	 5.81200000E+59	 0.00000000E+00
					-4.96287000E+79	-2.74627000E+79	 0.00000000E+00
					-7.76380000E+54	 1.05262000E+54	 0.00000000E+00
					-9.08089000E+82	 5.67798000E+84	 0.00000000E+00
					-1.05886000E+83	 6.62070000E+84	 0.00000000E+00
					-3.09657000E+53	 8.06844000E+52	 0.00000000E+00
					-1.19476000E+60	-6.99616000E+59	 0.00000000E+00
					 6.01850000E+68	-1.19648000E+69	 0.00000000E+00
					 2.83220000E+57	 1.83039000E+57	 0.00000000E+00
					 4.25178000E+59	 2.45918000E+59	 0.00000000E+00
					 4.30354000E+58	 2.48349000E+58	 0.00000000E+00
					 1.36604000E+55	-1.51284000E+54	 0.00000000E+00
					 7.79888000E+78	 1.17231000E+79	 0.00000000E+00
					-2.21949000E+78	-3.33628000E+78	 0.00000000E+00
					-1.30458000E+51	 2.72458000E+51	 0.00000000E+00
					 4.64227000E+74	 7.53196000E+73	 0.00000000E+00
					-1.88300000E+74	-3.05513000E+73	 0.00000000E+00
					-1.51471000E+52	-3.73394000E+52	 0.00000000E+00
					-4.29306000E+77	-6.70894000E+76	 0.00000000E+00
					-2.12796000E+78	-3.19870000E+78	 0.00000000E+00
					-1.89435000E+75	-2.61694000E+74	 0.00000000E+00
					 1.96452000E+77	 3.06845000E+76	 0.00000000E+00
					 9.12080000E+74	 1.26213000E+74	 0.00000000E+00
					-1.18211000E+85	-7.26109000E+85	 0.00000000E+00
					-2.16869000E+75	-2.99593000E+74	 0.00000000E+00
					 3.37074000E+85	 2.07048000E+86	 0.00000000E+00
					 4.82645000E+74	 7.83080000E+73	 0.00000000E+00
					 1.60261000E+54	 1.39555000E+53	 0.00000000E+00
					-2.14466000E+55	-1.77490000E+54	 0.00000000E+00
					-5.70146000E+57	 5.54043000E+60	 0.00000000E+00
					 1.74264000E+77	 2.72317000E+76	 0.00000000E+00
					 4.91218000E+74	 7.96988000E+73	 0.00000000E+00
					 3.38975000E+85	 2.08216000E+86	 0.00000000E+00
					 4.06983000E+85	 2.49989000E+86	 0.00000000E+00
					 9.94680000E+85	 1.98057000E+85	 0.00000000E+00
					-4.05763000E+85	-3.76225000E+85	 0.00000000E+00
					-4.21002000E+51	-6.82248000E+50	 0.00000000E+00
					-2.01796000E+74	-3.27409000E+73	 0.00000000E+00
					-4.22670000E+77	-6.60523000E+76	 0.00000000E+00
					-5.16058000E+77	-8.06464000E+76	 0.00000000E+00
					 1.07689000E+75	 1.48766000E+74	 0.00000000E+00
					-1.51328000E+78	 8.13735000E+77	 0.00000000E+00
					-4.63075000E+85	-4.29364000E+85	 0.00000000E+00
					 1.15501000E+86	 1.07093000E+86	 0.00000000E+00
					 1.17564000E+86	 1.09005000E+86	 0.00000000E+00
					-1.31030000E+52	 1.29272000E+51	 0.00000000E+00
					 4.77523000E+53	-6.52072000E+53	 0.00000000E+00
					 4.79007000E+50	-2.70354000E+51	 0.00000000E+00
					-2.03823000E+62	-4.62171000E+62	 0.00000000E+00
					-1.14095000E+54	 5.45521000E+54	 0.00000000E+00
					 1.26487000E+61	 4.32433000E+59	 0.00000000E+00
					 3.28897000E+55	-3.17904000E+54	 0.00000000E+00
					-7.53858000E+54	 7.80778000E+53	 0.00000000E+00
					 3.25978000E+55	-3.15108000E+54	 0.00000000E+00
					 1.56081000E+67	-1.47273000E+68	 0.00000000E+00
					-6.73803000E+77	-3.91188000E+77	 0.00000000E+00
					-1.43408000E+66	 1.56108000E+65	 0.00000000E+00
					-4.45759000E+52	 4.71316000E+51	 0.00000000E+00
					-1.42333000E+54	-1.35154000E+54	 0.00000000E+00
					 3.94071000E+54	 3.13210000E+54	 0.00000000E+00
					 4.06612000E+78	-2.18647000E+78	 0.00000000E+00
					-1.12470000E+83	 6.71353000E+84	 0.00000000E+00
					 4.52997000E+82	-2.83244000E+84	 0.00000000E+00
					-4.84124000E+85	-4.48881000E+85	 0.00000000E+00
					 4.45985000E+60	-2.35154000E+59	 0.00000000E+00
					 2.93785000E+58	-4.45926000E+58	 0.00000000E+00
					-2.18531000E+61	-1.17141000E+61	 0.00000000E+00
					 5.74913000E+61	 3.08298000E+61	 0.00000000E+00
					-4.53334000E+89	-2.54634000E+89	 0.00000000E+00
					-6.88671000E+57	-3.92970000E+57	 0.00000000E+00
					 9.17673000E+89	 5.15449000E+89	 0.00000000E+00
					 6.20490000E+61	 3.32336000E+61	 0.00000000E+00
					 1.18201000E+64	 1.14830000E+64	 0.00000000E+00
					-1.30763000E+66	 1.42343000E+65	 0.00000000E+00
					 1.48075000E+55	-7.67329000E+54	 0.00000000E+00
					 3.89835000E+78	-2.09626000E+78	 0.00000000E+00
					 4.53134000E+82	-2.83330000E+84	 0.00000000E+00
					 1.11816000E+82	-4.15493000E+81	 0.00000000E+00
					-3.24350000E+61	-1.24061000E+60	 0.00000000E+00
					 1.42383000E+61	 4.86812000E+59	 0.00000000E+00
					 4.90110000E+62	 1.09876000E+63	 0.00000000E+00
					 3.16792000E+72	 5.05616000E+72	 0.00000000E+00
					 2.95171000E+75	-8.33978000E+74	 0.00000000E+00
					 1.24026000E+63	-1.11285000E+64	 0.00000000E+00
					-3.25778000E+63	 2.34618000E+64	 0.00000000E+00
					-8.13423000E+75	 2.28264000E+75	 0.00000000E+00
					-7.07455000E+75	 1.99885000E+75	 0.00000000E+00
					-1.08718000E+51	 5.17375000E+50	 0.00000000E+00
					-6.04399000E+53	-1.60362000E+53	 0.00000000E+00
					-9.93170000E+49	-2.68514000E+50	 0.00000000E+00
					-2.70671000E+50	 2.46170000E+50	 0.00000000E+00
					-8.10755000E+50	 3.75750000E+50	 0.00000000E+00
					 6.36862000E+53	-1.91069000E+54	 0.00000000E+00
					 2.84671000E+54	 4.38933000E+54	 0.00000000E+00
					 7.43107000E+54	 2.92040000E+53	 0.00000000E+00
					 2.53013000E+54	-1.44176000E+54	 0.00000000E+00
					-7.78661000E+75	 2.20638000E+75	 0.00000000E+00
					 1.37309000E+63	-9.89881000E+63	 0.00000000E+00
					-2.94359000E+60	 9.64192000E+60	 0.00000000E+00
					-7.96148000E+72	-1.27069000E+73	 0.00000000E+00
					 3.30104000E+75	-9.48430000E+74	 0.00000000E+00
					-2.97232000E+60	 9.69574000E+60	 0.00000000E+00
					 1.37184000E+60	-4.46191000E+60	 0.00000000E+00
					 3.34049000E+75	-9.43824000E+74	 0.00000000E+00
					-3.71956000E+61	-8.43792000E+59	 0.00000000E+00
					 2.66248000E+78	 3.45197000E+78	 0.00000000E+00
					-1.30257000E+78	-1.28751000E+78	 0.00000000E+00
					 1.53969000E+66	 5.98320000E+65	 0.00000000E+00
					-1.03935000E+78	-1.42724000E+78	 0.00000000E+00
					 2.47633000E+77	 3.86985000E+76	 0.00000000E+00
					-1.56821000E+78	 8.43272000E+77	 0.00000000E+00
					 2.60906000E+69	 2.18593000E+68	 0.00000000E+00
					-2.45163000E+72	-7.14129000E+72	 0.00000000E+00
					-2.11957000E+59	-1.22006000E+59	 0.00000000E+00
					 1.08786000E+72	 3.16879000E+72	 0.00000000E+00
					-2.97640000E+55	-8.88799000E+56	 0.00000000E+00
					 3.52158000E+61	-1.14756000E+61	 0.00000000E+00
					 4.53287000E+56	-2.14127000E+57	 0.00000000E+00
					 9.72042000E+76	-7.37702000E+76	 0.00000000E+00
					 4.53094000E+78	-2.43642000E+78	 0.00000000E+00
					 1.39737000E+82	-5.19245000E+81	 0.00000000E+00
					 1.13910000E+90	 6.39821000E+89	 0.00000000E+00
					-5.72721000E+79	-2.73594000E+79	 0.00000000E+00
					 1.57370000E+80	 7.51768000E+79	 0.00000000E+00
					-1.52215000E+63	 7.03240000E+63	 0.00000000E+00
					-5.43626000E+49	 2.63479000E+48	 0.00000000E+00
					 2.18167000E+50	-6.33206000E+49	 0.00000000E+00
					-4.22141000E+50	-4.78520000E+48	 0.00000000E+00
					-1.98843000E+53	 1.35632000E+53	 0.00000000E+00
					 9.74734000E+49	-2.69735000E+49	 0.00000000E+00
					 4.17600000E+48	-2.05906000E+50	 0.00000000E+00
					 5.13038000E+48	-5.92886000E+48	 0.00000000E+00
					 6.00489000E+60	-6.44863000E+60	 0.00000000E+00
					 1.65645000E+94	-7.80357000E+93	 0.00000000E+00
					-1.07187000E+50	 1.03267000E+49	 0.00000000E+00
					 9.47306000E+52	 4.11247000E+53	 0.00000000E+00
					-2.50288000E+56	 1.77727000E+56	 0.00000000E+00
					-1.49452000E+64	-3.13195000E+66	 0.00000000E+00
					 3.80955000E+90	-1.16053000E+89	 0.00000000E+00
					-8.36126000E+90	 2.54715000E+89	 0.00000000E+00
					 2.08343000E+54	-4.52626000E+54	 0.00000000E+00
					-3.87239000E+94	 1.82429000E+94	 0.00000000E+00
					-1.81122000E+63	 5.24425000E+63	 0.00000000E+00
					-1.82580000E+63	 5.76469000E+63	 0.00000000E+00
					-1.15775000E+54	-1.82022000E+54	 0.00000000E+00
					-3.75342000E+88	 1.52004000E+88	 0.00000000E+00
					-6.03922000E+66	-2.14063000E+66	 0.00000000E+00
					-3.41728000E+88	 1.38391000E+88	 0.00000000E+00
					 9.41112000E+88	-3.81127000E+88	 0.00000000E+00
					 3.84815000E+72	 6.14184000E+72	 0.00000000E+00
					-2.60999000E+81	 1.41466000E+80	 0.00000000E+00
					 2.62978000E+78	 4.15357000E+78	 0.00000000E+00
					 3.07090000E+57	-1.78159000E+57	 0.00000000E+00
					 1.39208000E+82	-5.17277000E+81	 0.00000000E+00
					 1.84637000E+70	-4.91238000E+70	 0.00000000E+00
					-3.66065000E+52	-1.28914000E+54	 0.00000000E+00
					-1.10617000E+49	 1.42687000E+48	 0.00000000E+00
					-3.12124000E+83	-6.13845000E+83	 0.00000000E+00
					 0.00000000E+00	 0.00000000E+00	 0.00000000E+00
					-2.57265000E+77	 1.95244000E+77	 0.00000000E+00
					-4.75352000E+70	 1.26621000E+71	 0.00000000E+00
					 4.87722000E+70	-2.00571000E+71	 0.00000000E+00
					-1.21743000E+71	 5.00659000E+71	 0.00000000E+00
					-9.30990000E+55	 1.02636000E+57	 0.00000000E+00
					 6.91457000E+56	 6.38112000E+56	 0.00000000E+00
					 1.68123000E+53	-1.58216000E+54	 0.00000000E+00
					 1.50860000E+122	-3.95250000E+122	 0.00000000E+00
					 1.38975000E+80	 6.63895000E+79	 0.00000000E+00
					-5.99960000E+121	 1.59450000E+122	 0.00000000E+00
					-2.73151000E+55	-9.13482000E+54	 0.00000000E+00
					 3.20269000E+73	 5.43592000E+73	 0.00000000E+00
					-3.58570000E+114	 5.81300000E+114	 0.00000000E+00
					-7.58607000E+60	 3.87698000E+60	 0.00000000E+00
					-4.38275000E+89	-2.46175000E+89	 0.00000000E+00