<?xml version="1.0"?>
<VTKFile type="UnstructuredGrid" version="0.1" byte_order="LittleEndian">
	<UnstructuredGrid>
		<Piece NumberOfPoints="7506" NumberOfCells="7351">
			<Points>
				<DataArray type="Float64" NumberOfComponents="3" format="ascii">
					 1.00000000E+00	 0.00000000E+00	 0.00000000E+00
					 2.77960000E-01	 5.93990000E-02	 0.00000000E+00
					 9.97540000E-01	 3.45130000E-04	 0.00000000E+00
					 9.93910000E-01	 8.54240000E-04	 0.00000000E+00
					 9.88870000E-01	 1.56040000E-03	 0.00000000E+00
					 9.82560000E-01	 2.44060000E-03	 0.00000000E+00
					 9.75050000E-01	 3.48220000E-03	 0.00000000E+00
					 9.66340000E-01	 4.67810000E-03	 0.00000000E+00
					 9.56490000E-01	 6.01100000E-03	 0.00000000E+00
					 9.45550000E-01	 7.47110000E-03	 0.00000000E+00
					 9.33550000E-01	 9.05150000E-03	 0.00000000E+00
					 9.20540000E-01	 1.07390000E-02	 0.00000000E+00
					 9.06560000E-01	 1.25250000E-02	 0.00000000E+00
					 8.91660000E-01	 1.43960000E-02	 0.00000000E+00
					 8.75890000E-01	 1.63410000E-02	 0.00000000E+00
					 8.59270000E-01	 1.83510000E-02	 0.00000000E+00
					 8.41880000E-01	 2.04140000E-02	 0.00000000E+00
					 8.23770000E-01	 2.25180000E-02	 0.00000000E+00
					 8.04950000E-01	 2.46570000E-02	 0.00000000E+00
					 7.85510000E-01	 2.68160000E-02	 0.00000000E+00
					 7.65490000E-01	 2.89870000E-02	 0.00000000E+00
					 7.44910000E-01	 3.11620000E-02	 0.00000000E+00
					 7.23850000E-01	 3.33280000E-02	 0.00000000E+00
					 7.02350000E-01	 3.54780000E-02	 0.00000000E+00
					 6.80500000E-01	 3.75970000E-02	 0.00000000E+00
					 6.58310000E-01	 3.96780000E-02	 0.00000000E+00
					 6.35870000E-01	 4.17080000E-02	 0.00000000E+00
					 6.13100000E-01	 4.36890000E-02	 0.00000000E+00
					 5.90270000E-01	 4.55900000E-02	 0.00000000E+00
					 5.67270000E-01	 4.74180000E-02	 0.00000000E+00
					 5.44160000E-01	 4.91570000E-02	 0.00000000E+00
					 5.21040000E-01	 5.07940000E-02	 0.00000000E+00
					 4.97940000E-01	 5.23220000E-02	 0.00000000E+00
					 4.74890000E-01	 5.37290000E-02	 0.00000000E+00
					 4.51990000E-01	 5.50030000E-02	 0.00000000E+00
					 4.29270000E-01	 5.61350000E-02	 0.00000000E+00
					 4.06690000E-01	 5.71210000E-02	 0.00000000E+00
					 3.84290000E-01	 5.79460000E-02	 0.00000000E+00
					 3.62360000E-01	 5.85970000E-02	 0.00000000E+00
					 3.40640000E-01	 5.90880000E-02	 0.00000000E+00
					 3.19370000E-01	 5.93810000E-02	 0.00000000E+00
					 2.98420000E-01	 5.94520000E-02	 0.00000000E+00
					 3.16800000E-01	-5.94010000E-02	 0.00000000E+00
					 2.58320000E-01	 5.90860000E-02	 0.00000000E+00
					 2.39190000E-01	 5.86460000E-02	 0.00000000E+00
					 2.20600000E-01	 5.79880000E-02	 0.00000000E+00
					 2.02570000E-01	 5.71140000E-02	 0.00000000E+00
					 1.85140000E-01	 5.60450000E-02	 0.00000000E+00
					 1.68340000E-01	 5.47840000E-02	 0.00000000E+00
					 1.52180000E-01	 5.33300000E-02	 0.00000000E+00
					 1.36720000E-01	 5.16850000E-02	 0.00000000E+00
					 1.21950000E-01	 4.98510000E-02	 0.00000000E+00
					 1.07920000E-01	 4.78340000E-02	 0.00000000E+00
					 9.46390000E-02	 4.56400000E-02	 0.00000000E+00
					 8.21360000E-02	 4.32760000E-02	 0.00000000E+00
					 7.04300000E-02	 4.07450000E-02	 0.00000000E+00
					 5.95390000E-02	 3.80520000E-02	 0.00000000E+00
					 4.94870000E-02	 3.52090000E-02	 0.00000000E+00
					 4.02830000E-02	 3.22160000E-02	 0.00000000E+00
					 3.19590000E-02	 2.90750000E-02	 0.00000000E+00
					 2.45210000E-02	 2.57790000E-02	 0.00000000E+00
					 1.79890000E-02	 2.23480000E-02	 0.00000000E+00
					 1.23810000E-02	 1.87690000E-02	 0.00000000E+00
					 7.75450000E-03	 1.49850000E-02	 0.00000000E+00
					 4.14200000E-03	 1.09770000E-02	 0.00000000E+00
					 1.54070000E-03	 6.78890000E-03	 0.00000000E+00
					 1.09370000E-04	 2.42430000E-03	 0.00000000E+00
					 6.29740000E-05	-2.02650000E-03	 0.00000000E+00
					 1.35330000E-03	-6.39510000E-03	 0.00000000E+00
					 3.84770000E-03	-1.05820000E-02	 0.00000000E+00
					 7.36850000E-03	-1.46140000E-02	 0.00000000E+00
					 1.19130000E-02	-1.84300000E-02	 0.00000000E+00
					 1.74470000E-02	-2.20330000E-02	 0.00000000E+00
					 2.39030000E-02	-2.54790000E-02	 0.00000000E+00
					 3.12670000E-02	-2.87900000E-02	 0.00000000E+00
					 3.95190000E-02	-3.19480000E-02	 0.00000000E+00
					 4.86530000E-02	-3.49540000E-02	 0.00000000E+00
					 5.86330000E-02	-3.78110000E-02	 0.00000000E+00
					 6.94530000E-02	-4.05180000E-02	 0.00000000E+00
					 8.10920000E-02	-4.30640000E-02	 0.00000000E+00
					 9.35300000E-02	-4.54430000E-02	 0.00000000E+00
					 1.06750000E-01	-4.76520000E-02	 0.00000000E+00
					 1.20710000E-01	-4.96840000E-02	 0.00000000E+00
					 1.35420000E-01	-5.15340000E-02	 0.00000000E+00
					 1.50830000E-01	-5.31960000E-02	 0.00000000E+00
					 1.66920000E-01	-5.46690000E-02	 0.00000000E+00
					 1.83670000E-01	-5.59460000E-02	 0.00000000E+00
					 2.01050000E-01	-5.70270000E-02	 0.00000000E+00
					 2.19030000E-01	-5.79100000E-02	 0.00000000E+00
					 2.37570000E-01	-5.85980000E-02	 0.00000000E+00
					 2.56660000E-01	-5.90950000E-02	 0.00000000E+00
					 2.76250000E-01	-5.93840000E-02	 0.00000000E+00
					 2.96310000E-01	-5.94590000E-02	 0.00000000E+00
					 3.38470000E-01	-5.90940000E-02	 0.00000000E+00
					 3.61000000E-01	-5.86410000E-02	 0.00000000E+00
					 3.83900000E-01	-5.79640000E-02	 0.00000000E+00
					 4.07100000E-01	-5.71010000E-02	 0.00000000E+00
					 4.30580000E-01	-5.60740000E-02	 0.00000000E+00
					 4.54270000E-01	-5.48820000E-02	 0.00000000E+00
					 4.78130000E-01	-5.35380000E-02	 0.00000000E+00
					 5.02100000E-01	-5.20550000E-02	 0.00000000E+00
					 5.26140000E-01	-5.04420000E-02	 0.00000000E+00
					 5.50190000E-01	-4.87120000E-02	 0.00000000E+00
					 5.74190000E-01	-4.68770000E-02	 0.00000000E+00
					 5.98100000E-01	-4.49480000E-02	 0.00000000E+00
					 6.21850000E-01	-4.29370000E-02	 0.00000000E+00
					 6.45380000E-01	-4.08570000E-02	 0.00000000E+00
					 6.68640000E-01	-3.87180000E-02	 0.00000000E+00
					 6.91580000E-01	-3.65310000E-02	 0.00000000E+00
					 7.14120000E-01	-3.43090000E-02	 0.00000000E+00
					 7.36230000E-01	-3.20630000E-02	 0.00000000E+00
					 7.57830000E-01	-2.98030000E-02	 0.00000000E+00
					 7.78870000E-01	-2.75420000E-02	 0.00000000E+00
					 7.99300000E-01	-2.52900000E-02	 0.00000000E+00
					 8.19040000E-01	-2.30600000E-02	 0.00000000E+00
					 8.38060000E-01	-2.08620000E-02	 0.00000000E+00
					 8.56300000E-01	-1.87070000E-02	 0.00000000E+00
					 8.73680000E-01	-1.66100000E-02	 0.00000000E+00
					 8.90180000E-01	-1.45790000E-02	 0.00000000E+00
					 9.05740000E-01	-1.26290000E-02	 0.00000000E+00
					 9.20290000E-01	-1.07720000E-02	 0.00000000E+00
					 9.33770000E-01	-9.02170000E-03	 0.00000000E+00
					 9.46140000E-01	-7.39330000E-03	 0.00000000E+00
					 9.57340000E-01	-5.89610000E-03	 0.00000000E+00
					 9.67370000E-01	-4.53700000E-03	 0.00000000E+00
					 9.76000000E-01	-3.35090000E-03	 0.00000000E+00
					 9.83490000E-01	-2.31200000E-03	 0.00000000E+00
					 9.88490000E-01	-1.61350000E-03	 0.00000000E+00
					 9.92100000E-01	-1.10780000E-03	 0.00000000E+00
					 9.95080000E-01	-6.90490000E-04	 0.00000000E+00
					 9.97670000E-01	-3.26550000E-04	 0.00000000E+00
					-1.21830000E+01	 1.19710000E+00	 0.00000000E+00
					 1.32050000E+01	 1.01120000E+00	 0.00000000E+00
					-1.18690000E+01	-1.97400000E+00	 0.00000000E+00
					-1.10920000E+01	-5.09310000E+00	 0.00000000E+00
					-9.46580000E+00	-7.86620000E+00	 0.00000000E+00
					-7.13370000E+00	-1.00850000E+01	 0.00000000E+00
					-4.32700000E+00	-1.16590000E+01	 0.00000000E+00
					-1.21910000E+00	-1.24990000E+01	 0.00000000E+00
					 1.99950000E+00	-1.25280000E+01	 0.00000000E+00
					 5.12280000E+00	-1.17440000E+01	 0.00000000E+00
					 7.95860000E+00	-1.02190000E+01	 0.00000000E+00
					 1.03310000E+01	-8.04090000E+00	 0.00000000E+00
					 1.20080000E+01	-5.29720000E+00	 0.00000000E+00
					 1.28400000E+01	-2.19030000E+00	 0.00000000E+00
					 1.24700000E+01	 3.48480000E+00	 0.00000000E+00
					 1.09220000E+01	 6.62290000E+00	 0.00000000E+00
					 8.99020000E+00	 9.54850000E+00	 0.00000000E+00
					 6.25090000E+00	 1.17520000E+01	 0.00000000E+00
					 2.78530000E+00	 1.26400000E+01	 0.00000000E+00
					-7.34390000E-01	 1.26770000E+01	 0.00000000E+00
					-4.17130000E+00	 1.19380000E+01	 0.00000000E+00
					-7.25650000E+00	 1.02560000E+01	 0.00000000E+00
					-9.69560000E+00	 7.72920000E+00	 0.00000000E+00
					-1.12250000E+01	 4.57440000E+00	 0.00000000E+00
					 9.99150000E-01	-1.51520000E-03	 0.00000000E+00
					 9.97350000E-01	-2.43570000E-03	 0.00000000E+00
					 1.00070000E+00	-1.48290000E-03	 0.00000000E+00
					 9.99970000E-01	-3.38170000E-03	 0.00000000E+00
					 1.00190000E+00	-2.07850000E-04	 0.00000000E+00
					 1.00260000E+00	-2.42950000E-03	 0.00000000E+00
					 1.00100000E+00	 1.28670000E-03	 0.00000000E+00
					 1.00340000E+00	 1.82920000E-03	 0.00000000E+00
					 9.99250000E-01	 1.49750000E-03	 0.00000000E+00
					 1.00040000E+00	 3.21980000E-03	 0.00000000E+00
					 9.97430000E-01	 2.58540000E-03	 0.00000000E+00
					 1.00390000E+00	-5.94460000E-04	 0.00000000E+00
					 1.00530000E+00	-2.32150000E-03	 0.00000000E+00
					 1.00430000E+00	-4.67910000E-03	 0.00000000E+00
					 1.00200000E+00	-4.57570000E-03	 0.00000000E+00
					 1.00040000E+00	-6.18250000E-03	 0.00000000E+00
					 9.97530000E-01	-5.19250000E-03	 0.00000000E+00
					 1.00600000E+00	-3.83840000E-06	 0.00000000E+00
					 1.00800000E+00	-2.03600000E-03	 0.00000000E+00
					 1.00290000E+00	-6.50120000E-03	 0.00000000E+00
					 1.00680000E+00	-4.41430000E-03	 0.00000000E+00
					 9.98060000E-01	-8.58300000E-03	 0.00000000E+00
					 1.00170000E+00	-9.14400000E-03	 0.00000000E+00
					 9.94690000E-01	-3.55130000E-03	 0.00000000E+00
					 1.00620000E+00	-8.13490000E-03	 0.00000000E+00
					 1.00850000E+00	 5.08550000E-04	 0.00000000E+00
					 1.01110000E+00	-1.17030000E-03	 0.00000000E+00
					 1.00980000E+00	-4.98410000E-03	 0.00000000E+00
[...]
			<PointData>
				<DataArray type="Float32" Name="V3DF" NumberOfComponents="3" ComponentName0="V1" ComponentName1="V2" ComponentName2="V3" format="ascii">
					 0.00000000E+00	 0.00000000E+00	 0.00000000E+00
					 0.00000000E+00	 0.00000000E+00	 0.00000000E+00
					 0.00000000E+00	 0.00000000E+00	 0.00000000E+00
					 0.00000000E+00	 0.00000000E+00	 0.00000000E+00
					 0.00000000E+00	 0.00000000E+00	 0.00000000E+00
					 0.00000000E+00	 0.00000000E+00	 0.00000000E+00
					 0.00000000E+00	 0.00000000E+00	 0.00000000E+00
					 0.00000000E+00	 0.00000000E+00	 0.00000000E+00
					 0.00000000E+00	 0.00000000E+00	 0.00000000E+00
					 0.00000000E+00	 0.00000000E+00	 0.00000000E+00
					 0.00000000E+00	 0.00000000E+00	 0.00000000E+00
					 0.00000000E+00	 0.00000000E+00	 0.00000000E+00
					 0.00000000E+00	 0.00000000E+00	 0.00000000E+00
					 0.00000000E+00	 0.00000000E+00	 0.00000000E+00
					 0.00000000E+00	 0.00000000E+00	 0.00000000E+00
					 0.00000000E+00	 0.00000000E+00	 0.00000000E+00
					 0.00000000E+00	 0.00000000E+00	 0.00000000E+00
					 0.00000000E+00	 0.00000000E+00	 0.00000000E+00
					 0.00000000E+00	 0.00000000E+00	 0.00000000E+00
					 0.00000000E+00	 0.00000000E+00	 0.00000000E+00
					 0.00000000E+00	 0.00000000E+00	 0.00000000E+00
					 0.00000000E+00	 0.00000000E+00	 0.00000000E+00
					 0.00000000E+00	 0.00000000E+00	 0.00000000E+00
					 0.00000000E+00	 0.00000000E+00	 0.00000000E+00
					 0.00000000E+00	 0.00000000E+00	 0.00000000E+00
					 0.00000000E+00	 0.00000000E+00	 0.00000000E+00
					 0.00000000E+00	 0.00000000E+00	 0.00000000E+00
					 0.00000000E+00	 0.00000000E+00	 0.00000000E+00
					 0.00000000E+00	 0.00000000E+00	 0.00000000E+00
					 0.00000000E+00	 0.00000000E+00	 0.00000000E+00
					 0.00000000E+00	 0.00000000E+00	 0.00000000E+00
					 0.00000000E+00	 0.00000000E+00	 0.00000000E+00
					 0.00000000E+00	 0.00000000E+00	 0.00000000E+00
					 0.00000000E+00	 0.00000000E+00	 0.00000000E+00
					 0.00000000E+00	 0.00000000E+00	 0.00000000E+00
					 0.00000000E+00	 0.00000000E+00	 0.00000000E+00
					 0.00000000E+00	 0.00000000E+00	 0.00000000E+00
					 0.00000000E+00	 0.00000000E+00	 0.00000000E+00
					 0.00000000E+00	 0.00000000E+00	 0.00000000E+00
					 0.00000000E+00	 0.00000000E+00	 0.00000000E+00
					 0.00000000E+00	 0.00000000E+00	 0.00000000E+00
					 0.00000000E+00	 0.00000000E+00	 0.00000000E+00
					 0.00000000E+00	 0.00000000E+00	 0.00000000E+00
					 0.00000000E+00	 0.00000000E+00	 0.00000000E+00
					 0.00000000E+00	 0.00000000E+00	 0.00000000E+00
					 0.00000000E+00	 0.00000000E+00	 0.00000000E+00
					 0.00000000E+00	 0.00000000E+00	 0.00000000E+00
					 0.00000000E+00	 0.00000000E+00	 0.00000000E+00
					 0.00000000E+00	 0.00000000E+00	 0.00000000E+00
					 0.00000000E+00	 0.00000000E+00	 0.00000000E+00
					 0.00000000E+00	 0.00000000E+00	 0.00000000E+00
					 0.00000000E+00	 0.00000000E+00	 0.00000000E+00
					 0.00000000E+00	 0.00000000E+00	 0.00000000E+00
					 0.00000000E+00	 0.00000000E+00	 0.00000000E+00
					 0.00000000E+00	 0.00000000E+00	 0.00000000E+00
					 0.00000000E+00	 0.00000000E+00	 0.00000000E+00
					 0.00000000E+00	 0.00000000E+00	 0.00000000E+00
					 0.00000000E+00	 0.00000000E+00	 0.00000000E+00
					 0.00000000E+00	 0.00000000E+00	 0.00000000E+00
					 0.00000000E+00	 0.00000000E+00	 0.00000000E+00
					 0.00000000E+00	 0.00000000E+00	 0.00000000E+00
					 0.00000000E+00	 0.00000000E+00	 0.00000000E+00
					 0.00000000E+00	 0.00000000E+00	 0.00000000E+00
					 0.00000000E+00	 0.00000000E+00	 0.00000000E+00
					 0.00000000E+00	 0.00000000E+00	 0.00000000E+00
					 0.00000000E+00	 0.00000000E+00	 0.00000000E+00
					 0.00000000E+00	 0.00000000E+00	 0.00000000E+00
					 0.00000000E+00	 0.00000000E+00	 0.00000000E+00
					 0.00000000E+00	 0.00000000E+00	 0.00000000E+00
					 0.00000000E+00	 0.00000000E+00	 0.00000000E+00
					 0.00000000E+00	 0.00000000E+00	 0.00000000E+00
					 0.00000000E+00	 0.00000000E+00	 0.00000000E+00
					 0.00000000E+00	 0.00000000E+00	 0.00000000E+00
					 0.00000000E+00	 0.00000000E+00	 0.00000000E+00
					 0.00000000E+00	 0.00000000E+00	 0.00000000E+00
					 0.00000000E+00	 0.00000000E+00	 0.00000000E+00
					 0.00000000E+00	 0.00000000E+00	 0.00000000E+00
					 0.00000000E+00	 0.00000000E+00	 0.00000000E+00
					 0.00000000E+00	 0.00000000E+00	 0.00000000E+00
					 0.00000000E+00	 0.00000000E+00	 0.00000000E+00
					 0.00000000E+00	 0.00000000E+00	 0.00000000E+00
					 0.00000000E+00	 0.00000000E+00	 0.00000000E+00
					 0.00000000E+00	 0.00000000E+00	 0.00000000E+00
					 0.00000000E+00	 0.00000000E+00	 0.00000000E+00
					 0.00000000E+00	 0.00000000E+00	 0.00000000E+00
					 0.00000000E+00	 0.00000000E+00	 0.00000000E+00
					 0.00000000E+00	 0.00000000E+00	 0.00000000E+00
					 0.00000000E+00	 0.00000000E+00	 0.00000000E+00
					 0.00000000E+00	 0.00000000E+00	 0.00000000E+00
					 0.00000000E+00	 0.00000000E+00	 0.00000000E+00
					 0.00000000E+00	 0.00000000E+00	 0.00000000E+00
					 0.00000000E+00	 0.00000000E+00	 0.00000000E+00
					 0.00000000E+00	 0.00000000E+00	 0.00000000E+00
					 0.00000000E+00	 0.00000000E+00	 0.00000000E+00
					 0.00000000E+00	 0.00000000E+00	 0.00000000E+00
					 0.00000000E+00	 0.00000000E+00	 0.00000000E+00
					 0.00000000E+00	 0.00000000E+00	 0.00000000E+00
					 0.00000000E+00	 0.00000000E+00	 0.00000000E+00
					 0.00000000E+00	 0.00000000E+00	 0.00000000E+00
					 0.00000000E+00	 0.00000000E+00	 0.00000000E+00
					 0.00000000E+00	 0.00000000E+00	 0.00000000E+00
					 0.00000000E+00	 0.00000000E+00	 0.00000000E+00
					 0.00000000E+00	 0.00000000E+00	 0.00000000E+00
					 0.00000000E+00	 0.00000000E+00	 0.00000000E+00
					 0.00000000E+00	 0.00000000E+00	 0.00000000E+00
					 0.00000000E+00	 0.00000000E+00	 0.00000000E+00
					 0.00000000E+00	 0.00000000E+00	 0.00000000E+00
					 0.00000000E+00	 0.00000000E+00	 0.00000000E+00
					 0.00000000E+00	 0.00000000E+00	 0.00000000E+00
					 0.00000000E+00	 0.00000000E+00	 0.00000000E+00
					 0.00000000E+00	 0.00000000E+00	 0.00000000E+00
					 0.00000000E+00	 0.00000000E+00	 0.00000000E+00
					 0.00000000E+00	 0.00000000E+00	 0.00000000E+00
					 0.00000000E+00	 0.00000000E+00	 0.00000000E+00
					 0.00000000E+00	 0.00000000E+00	 0.00000000E+00
					 0.00000000E+00	 0.00000000E+00	 0.00000000E+00
					 0.00000000E+00	 0.00000000E+00	 0.00000000E+00
					 0.00000000E+00	 0.00000000E+00	 0.00000000E+00
					 0.00000000E+00	 0.00000000E+00	 0.00000000E+00
					 0.00000000E+00	 0.00000000E+00	 0.00000000E+00
					 0.00000000E+00	 0.00000000E+00	 0.00000000E+00
					 0.00000000E+00	 0.00000000E+00	 0.00000000E+00
					 0.00000000E+00	 0.00000000E+00	 0.00000000E+00
					 0.00000000E+00	 0.00000000E+00	 0.00000000E+00
					 0.00000000E+00	 0.00000000E+00	 0.00000000E+00
					 0.00000000E+00	 0.00000000E+00	 0.00000000E+00
					 0.00000000E+00	 0.00000000E+00	 0.00000000E+00
					 0.00000000E+00	 0.00000000E+00	 0.00000000E+00
					 0.00000000E+00	 0.00000000E+00	 0.00000000E+00
					 0.00000000E+00	 0.00000000E+00	 0.00000000E+00
					 0.00000000E+00	 0.00000000E+00	 0.00000000E+00
					 9.99762000E-01	 2.18149000E-02	 0.00000000E+00
					-1.90650000E+130	-9.48900000E+129	 0.00000000E+00
					 9.99762000E-01	 2.18149000E-02	 0.00000000E+00
					 9.99762000E-01	 2.18149000E-02	 0.00000000E+00
					 9.99762000E-01	 2.18149000E-02	 0.00000000E+00
					 9.99762000E-01	 2.18149000E-02	 0.00000000E+00
					 9.99762000E-01	 2.18149000E-02	 0.00000000E+00
					 9.99762000E-01	 2.18149000E-02	 0.00000000E+00
					 9.99762000E-01	 2.18149000E-02	 0.00000000E+00
					 9.99762000E-01	 2.18149000E-02	 0.00000000E+00
					 1.14130000E+16	-7.87826000E+15	 0.00000000E+00
					-2.25614000E+30	 1.27622000E+30	 0.00000000E+00
					-7.45150000E+120	 8.75980000E+120	 0.00000000E+00
					-7.21630000E+129	 2.28950000E+130	 0.00000000E+00
					-7.78080000E+123	-6.35390000E+123	 0.00000000E+00
					-4.00740000E+126	-4.16050000E+128	 0.00000000E+00
					-3.74010000E+115	-2.96830000E+115	 0.00000000E+00
					 9.99762000E-01	 2.18149000E-02	 0.00000000E+00
					 9.99762000E-01	 2.18149000E-02	 0.00000000E+00
					 9.99762000E-01	 2.18149000E-02	 0.00000000E+00
					 9.99762000E-01	 2.18149000E-02	 0.00000000E+00
					 9.99762000E-01	 2.18149000E-02	 0.00000000E+00
					 9.99762000E-01	 2.18149000E-02	 0.00000000E+00
					 9.99762000E-01	 2.18149000E-02	 0.00000000E+00
					 1.99978000E+48	-5.99782000E+46	 0.00000000E+00
					-7.24987000E+48	 2.17441000E+47	 0.00000000E+00
					-2.32185000E+29	 1.09745000E+27	 0.00000000E+00
					-4.81629000E+29	-4.24679000E+27	 0.00000000E+00
					-8.31085000E+28	-2.41612000E+28	 0.00000000E+00
					 4.10257000E+29	 2.01842000E+29	 0.00000000E+00
					 1.33641000E+26	-1.43658000E+26	 0.00000000E+00
					 5.49351000E+31	 7.32394000E+30	 0.00000000E+00
					 1.23809000E+45	 2.93475000E+44	 0.00000000E+00
					-1.70970000E+26	-2.85456000E+26	 0.00000000E+00
					-5.21606000E+45	-1.23641000E+45	 0.00000000E+00
					 6.15999000E+29	 1.06141000E+29	 0.00000000E+00
					-7.54658000E+29	 2.64571000E+29	 0.00000000E+00
					-9.13698000E+30	 9.73026000E+30	 0.00000000E+00
					 2.06896000E+30	-7.06996000E+30	 0.00000000E+00
					-6.03281000E+30	-1.58544000E+30	 0.00000000E+00
					-1.00367000E+30	-4.56294000E+28	 0.00000000E+00
					-2.30133000E+32	 6.46670000E+32	 0.00000000E+00
					 2.85751000E+32	-5.62812000E+31	 0.00000000E+00
					-2.44201000E+31	 3.55441000E+31	 0.00000000E+00
					-2.64264000E+32	-1.00944000E+33	 0.00000000E+00
					 3.88855000E+30	-1.49424000E+30	 0.00000000E+00
					-7.24308000E+50	-2.93118000E+50	 0.00000000E+00
					 2.40685000E+48	-7.21871000E+46	 0.00000000E+00
					 1.45262000E+51	 5.87856000E+50	 0.00000000E+00
					 8.99007000E+32	-1.97266000E+33	 0.00000000E+00
					-1.35417000E+47	 2.49391000E+47	 0.00000000E+00
					-8.75416000E+42	 8.59543000E+42	 0.00000000E+00
					-5.15548000E+33	-1.12477000E+34	 0.00000000E+00
					 1.31931000E+34	 2.15298000E+34	 0.00000000E+00
					 4.45899000E+25	-3.00733000E+25	 0.00000000E+00
					 9.17588000E+26	 5.36762000E+27	 0.00000000E+00
					 7.33296000E+31	 1.00561000E+31	 0.00000000E+00
					-9.27349000E+31	 1.03304000E+32	 0.00000000E+00
					 9.89575000E+33	 1.94968000E+34	 0.00000000E+00
					 1.08942000E+45	 5.34526000E+45	 0.00000000E+00
					-6.91369000E+27	-4.03213000E+28	 0.00000000E+00
					-2.13596000E+25	 4.24534000E+26	 0.00000000E+00
					-4.52412000E+27	 1.17238000E+28	 0.00000000E+00
					-3.28059000E+32	-1.51289000E+32	 0.00000000E+00
					 2.30132000E+32	 6.80148000E+31	 0.00000000E+00
					 5.30372000E+54	 4.93215000E+52	 0.00000000E+00
					 8.02158000E+62	 1.62496000E+63	 0.00000000E+00
					 3.28267000E+45	-2.22555000E+46	 0.00000000E+00
					-7.25889000E+28	 4.91882000E+29	 0.00000000E+00
					-7.85387000E+44	 5.32468000E+45	 0.00000000E+00
					 3.95901000E+47	-7.29092000E+47	 0.00000000E+00
					 2.56422000E+30	-2.13247000E+30	 0.00000000E+00
					 1.87302000E+51	 7.57986000E+50	 0.00000000E+00
					-1.76336000E+43	-2.23525000E+43	 0.00000000E+00
					 4.15414000E+33	-1.60802000E+32	 0.00000000E+00
					 1.86869000E+34	 3.29936000E+34	 0.00000000E+00
					-7.03345000E+33	-1.12311000E+34	 0.00000000E+00
					-5.91328000E+33	-1.06728000E+34	 0.00000000E+00
					-4.74551000E+32	 4.74050000E+32	 0.00000000E+00
					 1.08219000E+27	 6.01093000E+27	 0.00000000E+00
					 1.35921000E+34	 2.43251000E+34	 0.00000000E+00
					 8.93295000E-02	 4.01380000E-02	 0.00000000E+00
					 1.32278000E-01	 1.88955000E-01	 0.00000000E+00
					 2.01895000E-01	 7.98741000E-02	 0.00000000E+00
					 2.57126000E-01	 1.77244000E-01	 0.00000000E+00
					 2.37700000E-01	 2.84784000E-01	 0.00000000E+00
					 1.97621000E-01	-3.50686000E-02	 0.00000000E+00
					 2.83320000E-01	 1.13368000E-02	 0.00000000E+00
					 1.18434000E-01	-1.12702000E-01	 0.00000000E+00
					 2.38254000E-01	-1.33459000E-01	 0.00000000E+00
					 2.83521000E-01	-6.05087000E-02	 0.00000000E+00
					 1.90511000E-01	-2.08963000E-01	 0.00000000E+00
					 2.99735000E-01	-2.27902000E-01	 0.00000000E+00
					 3.21404000E-01	-1.23831000E-01	 0.00000000E+00
					 2.32510000E-01	-3.04133000E-01	 0.00000000E+00
					 3.19030000E-01	 2.37244000E-01	 0.00000000E+00
					 3.24552000E-01	 3.38205000E-01	 0.00000000E+00
					 2.36568000E-01	 3.45927000E-01	 0.00000000E+00
					 3.48980000E-01	 4.09873000E-01	 0.00000000E+00
					 2.98093000E-01	 8.97072000E-02	 0.00000000E+00
					 3.40197000E-01	 1.55203000E-01	 0.00000000E+00
					 3.45931000E-01	-3.68299000E-01	 0.00000000E+00
					 3.40628000E-01	-3.18425000E-01	 0.00000000E+00
					 4.27724000E-01	-3.66732000E-01	 0.00000000E+00
					 4.05911000E-01	-2.57186000E-01	 0.00000000E+00
					 3.82110000E-01	 2.77576000E-01	 0.00000000E+00
					 3.94010000E-01	 2.09338000E-01	 0.00000000E+00
					 3.57241000E-01	-4.24667000E-02	 0.00000000E+00
					 3.50719000E-01	 3.83000000E-02	 0.00000000E+00
					 3.77400000E-01	-1.78175000E-01	 0.00000000E+00
					 4.03904000E-01	-1.13314000E-01	 0.00000000E+00
					 4.58739000E-01	-3.96740000E-01	 0.00000000E+00
					 5.30120000E-01	-3.93260000E-01	 0.00000000E+00
					 4.82537000E-01	-3.03458000E-01	 0.00000000E+00
					-3.25522000E+63	-6.59421000E+63	 0.00000000E+00
					 3.63356000E-01	 9.46243000E-02	 0.00000000E+00
					 4.54252000E-01	 2.75237000E-01	 0.00000000E+00
					 4.22783000E-01	 3.69523000E-01	 0.00000000E+00
					 4.72140000E-01	-2.38552000E-01	 0.00000000E+00
					 4.08063000E-01	 1.38277000E-01	 0.00000000E+00
					-3.61628000E+34	-6.44635000E+34	 0.00000000E+00
					 1.28670000E+43	-3.56036000E+43	 0.00000000E+00
					-3.56120000E+34	-6.32743000E+34	 0.00000000E+00
					 4.15235000E-01	 7.03602000E-02	 0.00000000E+00
					 3.73248000E+47	-6.87394000E+47	 0.00000000E+00
					-1.78788000E+47	 3.29305000E+47	 0.00000000E+00
					-1.77666000E+30	-7.76720000E+28	 0.00000000E+00
					 5.73521000E-01	-4.06564000E-01	 0.00000000E+00
					 5.97091000E-01	-3.81188000E-01	 0.00000000E+00
					 4.43069000E-01	-5.15901000E-02	 0.00000000E+00
					 0.00000000E+00	 0.00000000E+00	 0.00000000E+00
					 0.00000000E+00	 0.00000000E+00	 0.00000000E+00
					 5.50402000E-01	-3.23174000E-01	 0.00000000E+00
					-3.81741000E+29	 2.58718000E+30	 0.00000000E+00
					-3.02485000E+42	-2.33682000E+43	 0.00000000E+00
					 1.69622000E+40	-1.46184000E+41	 0.00000000E+00
					 8.30540000E+42	 6.41624000E+43	 0.00000000E+00
					 8.25267000E+42	 6.37551000E+43	 0.00000000E+00
					 7.66371000E+25	 5.35133000E+26	 0.00000000E+00
					-6.41501000E+25	-3.01171000E+26	 0.00000000E+00
					 9.50765000E+42	 7.34503000E+43	 0.00000000E+00
					-8.17219000E+50	-3.30717000E+50	 0.00000000E+00
					-1.33295000E+49	-9.00036000E+47	 0.00000000E+00
					 4.45240000E-01	-1.84353000E-01	 0.00000000E+00
					 4.70143000E-01	-1.19307000E-01	 0.00000000E+00
					 0.00000000E+00	 0.00000000E+00	 0.00000000E+00
					 0.00000000E+00	 0.00000000E+00	 0.00000000E+00
					 4.55773000E-01	 1.91005000E-01	 0.00000000E+00
					 5.20508000E-01	 2.36036000E-01	 0.00000000E+00
					 4.96701000E-01	 4.31065000E-01	 0.00000000E+00
					 5.07193000E-01	 3.64220000E-01	 0.00000000E+00
					 5.78587000E-01	 4.33904000E-01	 0.00000000E+00
					 4.94525000E-01	 4.36610000E-01	 0.00000000E+00
					 6.34222000E-01	 4.46118000E-01	 0.00000000E+00
					 5.77612000E-01	 3.66834000E-01	 0.00000000E+00
					 6.34597000E-01	 4.18823000E-01	 0.00000000E+00
					 6.47546000E-01	-4.25620000E-01	 0.00000000E+00
					 6.56499000E-01	-3.77481000E-01	 0.00000000E+00
					 5.38242000E-01	-3.65168000E-01	 0.00000000E+00
					 6.49861000E-01	-3.95506000E-01	 0.00000000E+00
					 7.04682000E-01	-4.10189000E-01	 0.00000000E+00
					 6.12505000E-01	-3.30637000E-01	 0.00000000E+00
					 5.26079000E-01	-2.64668000E-01	 0.00000000E+00
					 5.11121000E-01	-2.08321000E-01	 0.00000000E+00
					 5.88675000E-01	-2.85942000E-01	 0.00000000E+00
					 6.39959000E-01	 3.68744000E-01	 0.00000000E+00
					 6.97262000E-01	 4.47538000E-01	 0.00000000E+00
					 6.42089000E-01	 4.64897000E-01	 0.00000000E+00
					 5.35143000E-01	 2.97923000E-01	 0.00000000E+00
					 5.96397000E-01	 3.14933000E-01	 0.00000000E+00
					 7.71221000E-01	 4.68672000E-01	 0.00000000E+00
					 6.37734000E-01	 3.80906000E-01	 0.00000000E+00
					 6.78272000E-01	 4.06151000E-01	 0.00000000E+00
					 4.69986000E-01	 1.23096000E-01	 0.00000000E+00
					-1.53381000E+38	-3.39883000E+38	 0.00000000E+00
					-3.88656000E+39	-1.92418000E+38	 0.00000000E+00
					-3.19941000E+43	 9.00023000E+43	 0.00000000E+00
					 1.51839000E+34	 2.70401000E+34	 0.00000000E+00
					 4.09786000E-01	 7.96442000E-03	 0.00000000E+00
					 4.73397000E-01	 1.14363000E-02	 0.00000000E+00
					 4.80307000E+47	-8.84584000E+47	 0.00000000E+00
					-1.70163000E+49	-2.12263000E+48	 0.00000000E+00
					 6.36695000E+44	-1.19021000E+45	 0.00000000E+00
					-1.75261000E+45	 3.27626000E+45	 0.00000000E+00
					 7.90858000E-01	 4.00066000E-01	 0.00000000E+00
					 7.35756000E-01	 4.26806000E-01	 0.00000000E+00
					 8.04183000E-01	 4.32374000E-01	 0.00000000E+00
					-1.55659000E+38	-3.44948000E+38	 0.00000000E+00
					 5.24026000E-01	-6.33867000E-02	 0.00000000E+00
					 0.00000000E+00	 0.00000000E+00	 0.00000000E+00
					-3.62598000E+42	-2.80121000E+43	 0.00000000E+00
					-3.65234000E+42	-2.82158000E+43	 0.00000000E+00
					 1.03595000E+25	 1.89609000E+26	 0.00000000E+00
					 9.63918000E+48	-5.06053000E+48	 0.00000000E+00
					 7.33550000E-01	-4.20318000E-01	 0.00000000E+00
					 7.52719000E-01	-4.00426000E-01	 0.00000000E+00
					 7.13932000E-01	-3.67867000E-01	 0.00000000E+00
					 6.68678000E-01	-3.36463000E-01	 0.00000000E+00
					 5.84884000E-01	-3.38110000E-01	 0.00000000E+00
					 7.04767000E-01	-3.58384000E-01	 0.00000000E+00
					 8.15906000E-01	-4.16134000E-01	 0.00000000E+00
					 5.03661000E-01	-1.63407000E-01	 0.00000000E+00
					 5.37798000E-01	-1.35214000E-01	 0.00000000E+00
					-1.97225000E+42	-1.27070000E+43	 0.00000000E+00
					 6.53639000E-01	-3.04819000E-01	 0.00000000E+00
					 8.60702000E-01	 4.32952000E-01	 0.00000000E+00
					 9.87361000E+62	 2.00013000E+63	 0.00000000E+00
					 5.31829000E-01	 1.76533000E-01	 0.00000000E+00
					 5.83581000E-01	 2.17483000E-01	 0.00000000E+00
					 5.69926000E-01	-2.34309000E-01	 0.00000000E+00
					 5.55577000E-01	-1.70206000E-01	 0.00000000E+00
					 7.18324000E-01	 3.84874000E-01	 0.00000000E+00
					 6.64083000E-01	 3.38441000E-01	 0.00000000E+00
					 6.26535000E-01	-2.53189000E-01	 0.00000000E+00
					 2.96122000E+41	 1.26358000E+40	 0.00000000E+00
					 1.60773000E+43	-4.44868000E+43	 0.00000000E+00
					-3.96001000E+44	 5.40628000E+43	 0.00000000E+00
					 1.08034000E+29	 9.57083000E+28	 0.00000000E+00
					 5.68294000E-01	 2.64805000E-01	 0.00000000E+00
					 6.24079000E-01	 2.73516000E-01	 0.00000000E+00
					-7.08786000E+41	-2.36876000E+40	 0.00000000E+00
					 7.77388000E-01	 3.97522000E-01	 0.00000000E+00
					 0.00000000E+00	 0.00000000E+00	 0.00000000E+00
					 4.82230000E-01	 6.57827000E-02	 0.00000000E+00
					 8.16940000E-01	-3.54532000E-01	 0.00000000E+00
					 8.44692000E-01	-3.81414000E-01	 0.00000000E+00
					 7.81330000E-01	-3.73433000E-01	 0.00000000E+00
					 7.24498000E-01	-3.28744000E-01	 0.00000000E+00
					 3.11995000E+41	 8.79035000E+39	 0.00000000E+00
					 5.28158000E-01	 1.14384000E-01	 0.00000000E+00
					 8.36885000E-01	 4.13025000E-01	 0.00000000E+00
					 9.03737000E-01	 4.15218000E-01	 0.00000000E+00
					 7.25092000E-01	 3.92384000E-01	 0.00000000E+00
					 9.04781000E-01	 4.17059000E-01	 0.00000000E+00
					 6.85981000E-01	 2.76466000E-01	 0.00000000E+00
					-8.10627000E+30	 3.11434000E+30	 0.00000000E+00
					-1.86938000E+42	 3.70772000E+43	 0.00000000E+00
					 1.56000000E+43	-2.50205000E+42	 0.00000000E+00
					 4.38332000E+42	-8.69384000E+43	 0.00000000E+00
					 5.17817000E+42	-1.02703000E+44	 0.00000000E+00
					-1.46932000E+41	 3.05826000E+41	 0.00000000E+00
					 5.12428000E-01	 2.22271000E-02	 0.00000000E+00
					-2.47696000E+49	 1.30040000E+49	 0.00000000E+00