# vtk DataFile Version 3.0

ASCII
DATASET UNSTRUCTURED_GRID

POINTS 7506 double
	 1.00000000E+00	 0.00000000E+00	 0.00000000E+00
	 2.77960000E-01	 5.93990000E-02	 0.00000000E+00
	 9.97540000E-01	 3.45130000E-04	 0.00000000E+00
	 9.93910000E-01	 8.54240000E-04	 0.00000000E+00
	 9.88870000E-01	 1.56040000E-03	 0.00000000E+00
	 9.82560000E-01	 2.44060000E-03	 0.00000000E+00
	 9.75050000E-01	 3.48220000E-03	 0.00000000E+00
	 9.66340000E-01	 4.67810000E-03	 0.00000000E+00
	 9.56490000E-01	 6.01100000E-03	 0.00000000E+00
	 9.45550000E-01	 7.47110000E-03	 0.00000000E+00
	 9.33550000E-01	 9.05150000E-03	 0.00000000E+00
	 9.20540000E-01	 1.07390000E-02	 0.00000000E+00
	 9.06560000E-01	 1.25250000E-02	 0.00000000E+00
	 8.91660000E-01	 1.43960000E-02	 0.00000000E+00
	 8.75890000E-01	 1.63410000E-02	 0.00000000E+00
	 8.59270000E-01	 1.83510000E-02	 0.00000000E+00
	 8.41880000E-01	 2.04140000E-02	 0.00000000E+00
	 8.23770000E-01	 2.25180000E-02	 0.00000000E+00
	 8.04950000E-01	 2.46570000E-02	 0.00000000E+00
	 7.85510000E-01	 2.68160000E-02	 0.00000000E+00
	 7.65490000E-01	 2.89870000E-02	 0.00000000E+00
	 7.44910000E-01	 3.11620000E-02	 0.00000000E+00
	 7.23850000E-01	 3.33280000E-02	 0.00000000E+00
	 7.02350000E-01	 3.54780000E-02	 0.00000000E+00
	 6.80500000E-01	 3.75970000E-02	 0.00000000E+00
	 6.58310000E-01	 3.96780000E-02	 0.00000000E+00
	 6.35870000E-01	 4.17080000E-02	 0.00000000E+00
	 6.13100000E-01	 4.36890000E-02	 0.00000000E+00
	 5.90270000E-01	 4.55900000E-02	 0.00000000E+00
	 5.67270000E-01	 4.74180000E-02	 0.00000000E+00
	 5.44160000E-01	 4.91570000E-02	 0.00000000E+00
	 5.21040000E-01	 5.07940000E-02	 0.00000000E+00
	 4.97940000E-01	 5.23220000E-02	 0.00000000E+00
	 4.74890000E-01	 5.37290000E-02	 0.00000000E+00
	 4.51990000E-01	 5.50030000E-02	 0.00000000E+00
	 4.29270000E-01	 5.61350000E-02	 0.00000000E+00
	 4.06690000E-01	 5.71210000E-02	 0.00000000E+00
	 3.84290000E-01	 5.79460000E-02	 0.00000000E+00
	 3.62360000E-01	 5.85970000E-02	 0.00000000E+00
	 3.40640000E-01	 5.90880000E-02	 0.00000000E+00
	 3.19370000E-01	 5.93810000E-02	 0.00000000E+00
	 2.98420000E-01	 5.94520000E-02	 0.00000000E+00
	 3.16800000E-01	-5.94010000E-02	 0.00000000E+00
	 2.58320000E-01	 5.90860000E-02	 0.00000000E+00
	 2.39190000E-01	 5.86460000E-02	 0.00000000E+00
	 2.20600000E-01	 5.79880000E-02	 0.00000000E+00
	 2.02570000E-01	 5.71140000E-02	 0.00000000E+00
	 1.85140000E-01	 5.60450000E-02	 0.00000000E+00
	 1.68340000E-01	 5.47840000E-02	 0.00000000E+00
	 1.52180000E-01	 5.33300000E-02	 0.00000000E+00
	 1.36720000E-01	 5.16850000E-02	 0.00000000E+00
	 1.21950000E-01	 4.98510000E-02	 0.00000000E+00
	 1.07920000E-01	 4.78340000E-02	 0.00000000E+00
	 9.46390000E-02	 4.56400000E-02	 0.00000000E+00
	 8.21360000E-02	 4.32760000E-02	 0.00000000E+00
	 7.04300000E-02	 4.07450000E-02	 0.00000000E+00
	 5.95390000E-02	 3.80520000E-02	 0.00000000E+00
	 4.94870000E-02	 3.52090000E-02	 0.00000000E+00
	 4.02830000E-02	 3.22160000E-02	 0.00000000E+00
	 3.19590000E-02	 2.90750000E-02	 0.00000000E+00
	 2.45210000E-02	 2.57790000E-02	 0.00000000E+00
	 1.79890000E-02	 2.23480000E-02	 0.00000000E+00
	 1.23810000E-02	 1.87690000E-02	 0.00000000E+00
	 7.75450000E-03	 1.49850000E-02	 0.00000000E+00
	 4.14200000E-03	 1.09770000E-02	 0.00000000E+00
	 1.54070000E-03	 6.78890000E-03	 0.00000000E+00
	 1.09370000E-04	 2.42430000E-03	 0.00000000E+00
	 6.29740000E-05	-2.02650000E-03	 0.00000000E+00
	 1.35330000E-03	-6.39510000E-03	 0.00000000E+00
	 3.84770000E-03	-1.05820000E-02	 0.00000000E+00
	 7.36850000E-03	-1.46140000E-02	 0.00000000E+00
	 1.19130000E-02	-1.84300000E-02	 0.00000000E+00
	 1.74470000E-02	-2.20330000E-02	 0.00000000E+00
	 2.39030000E-02	-2.54790000E-02	 0.00000000E+00
	 3.12670000E-02	-2.87900000E-02	 0.00000000E+00
	 3.95190000E-02	-3.19480000E-02	 0.00000000E+00
	 4.86530000E-02	-3.49540000E-02	 0.00000000E+00
	 5.86330000E-02	-3.78110000E-02	 0.00000000E+00
	 6.94530000E-02	-4.05180000E-02	 0.00000000E+00
	 8.10920000E-02	-4.30640000E-02	 0.00000000E+00
	 9.35300000E-02	-4.54430000E-02	 0.00000000E+00
	 1.06750000E-01	-4.76520000E-02	 0.00000000E+00
	 1.20710000E-01	-4.96840000E-02	 0.00000000E+00
	 1.35420000E-01	-5.15340000E-02	 0.00000000E+00
	 1.50830000E-01	-5.31960000E-02	 0.00000000E+00
	 1.66920000E-01	-5.46690000E-02	 0.00000000E+00
	 1.83670000E-01	-5.59460000E-02	 0.00000000E+00
	 2.01050000E-01	-5.70270000E-02	 0.00000000E+00
	 2.19030000E-01	-5.79100000E-02	 0.00000000E+00
	 2.37570000E-01	-5.85980000E-02	 0.00000000E+00
	 2.56660000E-01	-5.90950000E-02	 0.00000000E+00
	 2.76250000E-01	-5.93840000E-02	 0.00000000E+00
	 2.96310000E-01	-5.94590000E-02	 0.00000000E+00
	 3.38470000E-01	-5.90940000E-02	 0.00000000E+00
	 3.61000000E-01	-5.86410000E-02	 0.00000000E+00
	 3.83900000E-01	-5.79640000E-02	 0.00000000E+00
	 4.07100000E-01	-5.71010000E-02	 0.00000000E+00
	 4.30580000E-01	-5.60740000E-02	 0.00000000E+00
	 4.54270000E-01	-5.48820000E-02	 0.00000000E+00
	 4.78130000E-01	-5.35380000E-02	 0.00000000E+00
	 5.02100000E-01	-5.20550000E-02	 0.00000000E+00
	 5.26140000E-01	-5.04420000E-02	 0.00000000E+00
	 5.50190000E-01	-4.87120000E-02	 0.00000000E+00
	 5.74190000E-01	-4.68770000E-02	 0.00000000E+00
	 5.98100000E-01	-4.49480000E-02	 0.00000000E+00
	 6.21850000E-01	-4.29370000E-02	 0.00000000E+00
	 6.45380000E-01	-4.08570000E-02	 0.00000000E+00
	 6.68640000E-01	-3.87180000E-02	 0.00000000E+00
	 6.91580000E-01	-3.65310000E-02	 0.00000000E+00
	 7.14120000E-01	-3.43090000E-02	 0.00000000E+00
	 7.36230000E-01	-3.20630000E-02	 0.00000000E+00
	 7.57830000E-01	-2.98030000E-02	 0.00000000E+00
	 7.78870000E-01	-2.75420000E-02	 0.00000000E+00
	 7.99300000E-01	-2.52900000E-02	 0.00000000E+00
	 8.19040000E-01	-2.30600000E-02	 0.00000000E+00
	 8.38060000E-01	-2.08620000E-02	 0.00000000E+00
	 8.56300000E-01	-1.87070000E-02	 0.00000000E+00
	 8.73680000E-01	-1.66100000E-02	 0.00000000E+00
	 8.90180000E-01	-1.45790000E-02	 0.00000000E+00
	 9.05740000E-01	-1.26290000E-02	 0.00000000E+00
	 9.20290000E-01	-1.07720000E-02	 0.00000000E+00
	 9.33770000E-01	-9.02170000E-03	 0.00000000E+00
	 9.46140000E-01	-7.39330000E-03	 0.00000000E+00
	 9.57340000E-01	-5.89610000E-03	 0.00000000E+00
	 9.67370000E-01	-4.53700000E-03	 0.00000000E+00
	 9.76000000E-01	-3.35090000E-03	 0.00000000E+00
	 9.83490000E-01	-2.31200000E-03	 0.00000000E+00
	 9.88490000E-01	-1.61350000E-03	 0.00000000E+00
	 9.92100000E-01	-1.10780000E-03	 0.00000000E+00
	 9.95080000E-01	-6.90490000E-04	 0.00000000E+00
	 9.97670000E-01	-3.26550000E-04	 0.00000000E+00
	-1.21830000E+01	 1.19710000E+00	 0.00000000E+00
	 1.32050000E+01	 1.01120000E+00	 0.00000000E+00
	-1.18690000E+01	-1.97400000E+00	 0.00000000E+00
	-1.10920000E+01	-5.09310000E+00	 0.00000000E+00
	-9.46580000E+00	-7.86620000E+00	 0.00000000E+00
	-7.13370000E+00	-1.00850000E+01	 0.00000000E+00
	-4.32700000E+00	-1.16590000E+01	 0.00000000E+00
	-1.21910000E+00	-1.24990000E+01	 0.00000000E+00
	 1.99950000E+00	-1.25280000E+01	 0.00000000E+00
	 5.12280000E+00	-1.17440000E+01	 0.00000000E+00
	 7.95860000E+00	-1.02190000E+01	 0.00000000E+00
	 1.03310000E+01	-8.04090000E+00	 0.00000000E+00
	 1.20080000E+01	-5.29720000E+00	 0.00000000E+00
	 1.28400000E+01	-2.19030000E+00	 0.00000000E+00
	 1.24700000E+01	 3.48480000E+00	 0.00000000E+00
	 1.09220000E+01	 6.62290000E+00	 0.00000000E+00
	 8.99020000E+00	 9.54850000E+00	 0.00000000E+00
	 6.25090000E+00	 1.17520000E+01	 0.00000000E+00
	 2.78530000E+00	 1.26400000E+01	 0.00000000E+00
	-7.34390000E-01	 1.26770000E+01	 0.00000000E+00
	-4.17130000E+00	 1.19380000E+01	 0.00000000E+00
	-7.25650000E+00	 1.02560000E+01	 0.00000000E+00
	-9.69560000E+00	 7.72920000E+00	 0.00000000E+00
	-1.12250000E+01	 4.57440000E+00	 0.00000000E+00
	 9.99150000E-01	-1.51520000E-03	 0.00000000E+00
	 9.97350000E-01	-2.43570000E-03	 0.00000000E+00
	 1.00070000E+00	-1.48290000E-03	 0.00000000E+00
	 9.99970000E-01	-3.38170000E-03	 0.00000000E+00
	 1.00190000E+00	-2.07850000E-04	 0.00000000E+00
	 1.00260000E+00	-2.42950000E-03	 0.00000000E+00
	 1.00100000E+00	 1.28670000E-03	 0.00000000E+00
	 1.00340000E+00	 1.82920000E-03	 0.00000000E+00
	 9.99250000E-01	 1.49750000E-03	 0.00000000E+00
	 1.00040000E+00	 3.21980000E-03	 0.00000000E+00
	 9.97430000E-01	 2.58540000E-03	 0.00000000E+00
	 1.00390000E+00	-5.94460000E-04	 0.00000000E+00
	 1.00530000E+00	-2.32150000E-03	 0.00000000E+00
	 1.00430000E+00	-4.67910000E-03	 0.00000000E+00
	 1.00200000E+00	-4.57570000E-03	 0.00000000E+00
	 1.00040000E+00	-6.18250000E-03	 0.00000000E+00
	 9.97530000E-01	-5.19250000E-03	 0.00000000E+00
	 1.00600000E+00	-3.83840000E-06	 0.00000000E+00
	 1.00800000E+00	-2.03600000E-03	 0.00000000E+00
	 1.00290000E+00	-6.50120000E-03	 0.00000000E+00
	 1.00680000E+00	-4.41430000E-03	 0.00000000E+00
	 9.98060000E-01	-8.58300000E-03	 0.00000000E+00
	 1.00170000E+00	-9.14400000E-03	 0.00000000E+00
	 9.94690000E-01	-3.55130000E-03	 0.00000000E+00
	 1.00620000E+00	-8.13490000E-03	 0.00000000E+00
	 1.00850000E+00	 5.08550000E-04	 0.00000000E+00
	 1.01110000E+00	-1.17030000E-03	 0.00000000E+00
	 1.00980000E+00	-4.98410000E-03	 0.00000000E+00
	 1.00650000E+00	 2.46280000E-03	 0.00000000E+00
	 1.01010000E+00	 3.16320000E-03	 0.00000000E+00
	 9.98290000E-01	 4.89250000E-03	 0.00000000E+00
	 1.00050000E+00	 5.68880000E-03	 0.00000000E+00
	 1.00300000E+00	 4.56580000E-03	 0.00000000E+00
	 1.00480000E+00	 3.61970000E-03	 0.00000000E+00
	 1.00610000E+00	 5.37940000E-03	 0.00000000E+00
	 9.95360000E-01	 4.68470000E-03	 0.00000000E+00
	 1.00270000E+00	 7.34620000E-03	 0.00000000E+00
	 9.98060000E-01	 8.22290000E-03	 0.00000000E+00
	 9.99110000E-01	-1.26500000E-02	 0.00000000E+00
	 9.94620000E-01	-7.09540000E-03	 0.00000000E+00
	 9.94930000E-01	-1.13440000E-02	 0.00000000E+00
	 9.91350000E-01	-4.78290000E-03	 0.00000000E+00
	 9.87060000E-01	-6.16880000E-03	 0.00000000E+00
	 9.91840000E-01	 4.09990000E-03	 0.00000000E+00
	 9.92860000E-01	 7.45460000E-03	 0.00000000E+00
	 9.88400000E-01	 6.07150000E-03	 0.00000000E+00
	 1.01450000E+00	-4.67010000E-03	 0.00000000E+00
[...]
POINT_DATA 7506
FIELD V3DF 1
	V3DF 3 7506 double
		 6.00357000E-01	 4.33466000E-03	 0.00000000E+00
		 1.38934000E+00	 1.85137000E-02	 0.00000000E+00
		 6.33972000E-01	-9.17825000E-02	 0.00000000E+00
		 6.67468000E-01	-9.16080000E-02	 0.00000000E+00
		 7.00093000E-01	-1.01768000E-01	 0.00000000E+00
		 7.13814000E-01	-9.89052000E-02	 0.00000000E+00
		 7.32907000E-01	-1.01821000E-01	 0.00000000E+00
		 7.52951000E-01	-1.04876000E-01	 0.00000000E+00
		 7.71760000E-01	-1.04779000E-01	 0.00000000E+00
		 7.88168000E-01	-1.02624000E-01	 0.00000000E+00
		 7.96686000E-01	-1.04179000E-01	 0.00000000E+00
		 8.08055000E-01	-1.04487000E-01	 0.00000000E+00
		 8.23672000E-01	-1.05918000E-01	 0.00000000E+00
		 8.39228000E-01	-1.05147000E-01	 0.00000000E+00
		 8.52930000E-01	-1.03224000E-01	 0.00000000E+00
		 8.63966000E-01	-1.02454000E-01	 0.00000000E+00
		 8.72185000E-01	-1.03113000E-01	 0.00000000E+00
		 8.57978000E-01	-1.14946000E-01	 0.00000000E+00
		 8.61054000E-01	-3.45678000E-02	 0.00000000E+00
		 1.07124000E+00	-1.88128000E-01	 0.00000000E+00
		 1.51746000E+00	-1.48061000E-01	 0.00000000E+00
		 1.45258000E+00	-1.50885000E-01	 0.00000000E+00
		 1.45108000E+00	-1.45600000E-01	 0.00000000E+00
		 1.45048000E+00	-1.41905000E-01	 0.00000000E+00
		 1.45097000E+00	-1.39674000E-01	 0.00000000E+00
		 1.45043000E+00	-1.31872000E-01	 0.00000000E+00
		 1.44626000E+00	-1.27537000E-01	 0.00000000E+00
		 1.44563000E+00	-1.22644000E-01	 0.00000000E+00
		 1.44426000E+00	-1.16937000E-01	 0.00000000E+00
		 1.44296000E+00	-1.10550000E-01	 0.00000000E+00
		 1.44382000E+00	-1.05492000E-01	 0.00000000E+00
		 1.44137000E+00	-9.87929000E-02	 0.00000000E+00
		 1.43628000E+00	-8.99768000E-02	 0.00000000E+00
		 1.43634000E+00	-8.39479000E-02	 0.00000000E+00
		 1.43010000E+00	-7.46055000E-02	 0.00000000E+00
		 1.43352000E+00	-6.71132000E-02	 0.00000000E+00
		 1.42727000E+00	-5.40442000E-02	 0.00000000E+00
		 1.41525000E+00	-4.56153000E-02	 0.00000000E+00
		 1.42029000E+00	-3.98436000E-02	 0.00000000E+00
		 1.41120000E+00	-2.67973000E-02	 0.00000000E+00
		 1.40511000E+00	-7.04569000E-03	 0.00000000E+00
		 1.40130000E+00	-3.82171000E-03	 0.00000000E+00
		 1.33626000E+00	 7.64168000E-03	 0.00000000E+00
		 1.39493000E+00	 2.22538000E-02	 0.00000000E+00
		 1.37708000E+00	 3.93679000E-02	 0.00000000E+00
		 1.36676000E+00	 6.02694000E-02	 0.00000000E+00
		 1.34828000E+00	 7.14066000E-02	 0.00000000E+00
		 1.33047000E+00	 9.23993000E-02	 0.00000000E+00
		 1.32261000E+00	 1.09934000E-01	 0.00000000E+00
		 1.29980000E+00	 1.33859000E-01	 0.00000000E+00
		 1.29110000E+00	 1.44858000E-01	 0.00000000E+00
		 1.27186000E+00	 1.76889000E-01	 0.00000000E+00
		 1.24258000E+00	 1.95718000E-01	 0.00000000E+00
		 1.23933000E+00	 2.14486000E-01	 0.00000000E+00
		 1.19366000E+00	 2.47663000E-01	 0.00000000E+00
		 1.12920000E+00	 2.66893000E-01	 0.00000000E+00
		 1.12245000E+00	 2.91215000E-01	 0.00000000E+00
		 1.10506000E+00	 3.37628000E-01	 0.00000000E+00
		 1.05785000E+00	 3.68534000E-01	 0.00000000E+00
		 1.00294000E+00	 4.12974000E-01	 0.00000000E+00
		 9.18084000E-01	 4.46036000E-01	 0.00000000E+00
		 8.42605000E-01	 4.85922000E-01	 0.00000000E+00
		 7.14589000E-01	 5.32966000E-01	 0.00000000E+00
		 5.62688000E-01	 5.31038000E-01	 0.00000000E+00
		 3.35078000E-01	 5.01635000E-01	 0.00000000E+00
		 1.76282000E-01	 3.85947000E-01	 0.00000000E+00
		 3.87621000E-03	 1.48749000E-01	 0.00000000E+00
		 1.14115000E-02	-5.59972000E-03	 0.00000000E+00
		 1.10841000E-01	-2.50740000E-01	 0.00000000E+00
		 2.92647000E-01	-4.37809000E-01	 0.00000000E+00
		 4.98097000E-01	-4.84542000E-01	 0.00000000E+00
		 6.42033000E-01	-4.69118000E-01	 0.00000000E+00
		 7.82171000E-01	-4.45171000E-01	 0.00000000E+00
		 8.61835000E-01	-4.30436000E-01	 0.00000000E+00
		 9.57051000E-01	-3.67724000E-01	 0.00000000E+00
		 9.86384000E-01	-3.61747000E-01	 0.00000000E+00
		 1.04814000E+00	-3.09456000E-01	 0.00000000E+00
		 1.06089000E+00	-2.90920000E-01	 0.00000000E+00
		 1.10911000E+00	-2.51179000E-01	 0.00000000E+00
		 1.13503000E+00	-2.29636000E-01	 0.00000000E+00
		 1.16837000E+00	-2.07636000E-01	 0.00000000E+00
		 1.19201000E+00	-1.80816000E-01	 0.00000000E+00
		 1.20811000E+00	-1.63992000E-01	 0.00000000E+00
		 1.23342000E+00	-1.43890000E-01	 0.00000000E+00
		 1.23959000E+00	-1.20059000E-01	 0.00000000E+00
		 1.23666000E+00	-1.07921000E-01	 0.00000000E+00
		 1.27368000E+00	-9.18587000E-02	 0.00000000E+00
		 1.28884000E+00	-6.29583000E-02	 0.00000000E+00
		 1.29598000E+00	-5.78038000E-02	 0.00000000E+00
		 1.32032000E+00	-3.99196000E-02	 0.00000000E+00
		 1.32457000E+00	-2.76954000E-02	 0.00000000E+00
		 1.33920000E+00	-1.25799000E-02	 0.00000000E+00
		 1.34263000E+00	 5.16963000E-03	 0.00000000E+00
		 1.34811000E+00	 2.52373000E-02	 0.00000000E+00
		 1.35377000E+00	 3.50098000E-02	 0.00000000E+00
		 1.36069000E+00	 4.53604000E-02	 0.00000000E+00
		 1.36842000E+00	 5.59064000E-02	 0.00000000E+00
		 1.37561000E+00	 6.70255000E-02	 0.00000000E+00
		 1.37940000E+00	 7.43696000E-02	 0.00000000E+00
		 1.38546000E+00	 8.18278000E-02	 0.00000000E+00
		 1.38819000E+00	 9.15327000E-02	 0.00000000E+00
		 1.38529000E+00	 9.56141000E-02	 0.00000000E+00
		 1.38896000E+00	 1.02889000E-01	 0.00000000E+00
		 1.39161000E+00	 1.08713000E-01	 0.00000000E+00
		 1.39347000E+00	 1.16379000E-01	 0.00000000E+00
		 1.39237000E+00	 1.20261000E-01	 0.00000000E+00
		 1.39514000E+00	 1.25455000E-01	 0.00000000E+00
		 1.39221000E+00	 1.31684000E-01	 0.00000000E+00
		 1.37379000E+00	 1.38543000E-01	 0.00000000E+00
		 1.28812000E+00	 1.15332000E-01	 0.00000000E+00
		 9.89705000E-01	 5.38811000E-02	 0.00000000E+00
		 8.69767000E-01	 1.08225000E-01	 0.00000000E+00
		 9.50699000E-01	 1.11647000E-01	 0.00000000E+00
		 9.38644000E-01	 1.01247000E-01	 0.00000000E+00
		 9.30769000E-01	 1.08303000E-01	 0.00000000E+00
		 9.24817000E-01	 1.06570000E-01	 0.00000000E+00
		 9.17161000E-01	 1.09555000E-01	 0.00000000E+00
		 9.04904000E-01	 1.09230000E-01	 0.00000000E+00
		 8.93686000E-01	 1.11138000E-01	 0.00000000E+00
		 8.82179000E-01	 1.10358000E-01	 0.00000000E+00
		 8.72917000E-01	 1.11128000E-01	 0.00000000E+00
		 8.63307000E-01	 1.11679000E-01	 0.00000000E+00
		 8.42717000E-01	 1.09991000E-01	 0.00000000E+00
		 8.19699000E-01	 1.11567000E-01	 0.00000000E+00
		 8.06246000E-01	 1.06309000E-01	 0.00000000E+00
		 7.98773000E-01	 1.10660000E-01	 0.00000000E+00
		 7.78653000E-01	 1.07378000E-01	 0.00000000E+00
		 7.61424000E-01	 1.06118000E-01	 0.00000000E+00
		 7.42384000E-01	 1.03336000E-01	 0.00000000E+00
		 7.17981000E-01	 1.00492000E-01	 0.00000000E+00
		 6.81804000E-01	 9.32588000E-02	 0.00000000E+00
		 9.99848000E-01	 1.74524000E-02	 0.00000000E+00
		 9.98773000E-01	 1.90603000E-02	 0.00000000E+00
		 9.99848000E-01	 1.74524000E-02	 0.00000000E+00
		 9.99848000E-01	 1.74524000E-02	 0.00000000E+00
		 9.99848000E-01	 1.74524000E-02	 0.00000000E+00
		 9.99848000E-01	 1.74524000E-02	 0.00000000E+00
		 9.99848000E-01	 1.74524000E-02	 0.00000000E+00
		 9.99848000E-01	 1.74524000E-02	 0.00000000E+00
		 9.99848000E-01	 1.74524000E-02	 0.00000000E+00
		 9.99848000E-01	 1.74524000E-02	 0.00000000E+00
		 1.00032000E+00	 1.68042000E-02	 0.00000000E+00
		 1.00107000E+00	 1.72692000E-02	 0.00000000E+00
		 1.00092000E+00	 1.81647000E-02	 0.00000000E+00
		 1.00081000E+00	 1.89359000E-02	 0.00000000E+00
		 9.98180000E-01	 1.76497000E-02	 0.00000000E+00
		 9.98339000E-01	 1.56807000E-02	 0.00000000E+00
		 1.00024000E+00	 1.66182000E-02	 0.00000000E+00
		 9.99848000E-01	 1.74524000E-02	 0.00000000E+00
		 9.99848000E-01	 1.74524000E-02	 0.00000000E+00
		 9.99848000E-01	 1.74524000E-02	 0.00000000E+00
		 9.99848000E-01	 1.74524000E-02	 0.00000000E+00
		 9.99848000E-01	 1.74524000E-02	 0.00000000E+00
		 9.99848000E-01	 1.74524000E-02	 0.00000000E+00
		 9.99848000E-01	 1.74524000E-02	 0.00000000E+00
		 6.85594000E-01	 7.42363000E-02	 0.00000000E+00
		 7.17001000E-01	 8.34944000E-02	 0.00000000E+00
		 6.72076000E-01	 5.34163000E-02	 0.00000000E+00
		 7.10053000E-01	 5.41072000E-02	 0.00000000E+00
		 6.40027000E-01	 1.31714000E-02	 0.00000000E+00
		 7.28996000E-01	 2.19578000E-02	 0.00000000E+00
		 5.89434000E-01	-3.39706000E-02	 0.00000000E+00
		 6.50998000E-01	-5.60860000E-03	 0.00000000E+00
		 6.07106000E-01	-6.97855000E-02	 0.00000000E+00
		 6.45947000E-01	-3.62963000E-02	 0.00000000E+00
		 6.48931000E-01	-7.67365000E-02	 0.00000000E+00
		 7.04997000E-01	 1.13389000E-02	 0.00000000E+00
		 7.45976000E-01	 2.09322000E-02	 0.00000000E+00
		 7.36645000E-01	 3.20140000E-02	 0.00000000E+00
		 7.19758000E-01	 3.78073000E-02	 0.00000000E+00
		 7.26464000E-01	 5.60317000E-02	 0.00000000E+00
		 7.26749000E-01	 7.31589000E-02	 0.00000000E+00
		 7.00710000E-01	 1.03072000E-02	 0.00000000E+00
		 7.51169000E-01	 1.80663000E-02	 0.00000000E+00
		 7.32432000E-01	 4.29968000E-02	 0.00000000E+00
		 7.49667000E-01	 2.50773000E-02	 0.00000000E+00
		 7.46768000E-01	 6.68230000E-02	 0.00000000E+00
		 7.52202000E-01	 4.98924000E-02	 0.00000000E+00
		 7.38589000E-01	 9.05602000E-02	 0.00000000E+00
		 7.56480000E-01	 3.31342000E-02	 0.00000000E+00
		 7.05940000E-01	 8.84490000E-03	 0.00000000E+00
		 7.48888000E-01	 1.24191000E-02	 0.00000000E+00
		 7.63885000E-01	 1.85850000E-02	 0.00000000E+00
		 6.79525000E-01	-9.33302000E-03	 0.00000000E+00
		 6.94613000E-01	-8.85858000E-04	 0.00000000E+00
		 6.68277000E-01	-5.89806000E-02	 0.00000000E+00
		 6.62511000E-01	-4.90049000E-02	 0.00000000E+00
		 6.66587000E-01	-1.85481000E-02	 0.00000000E+00
		 6.76645000E-01	-1.00674000E-02	 0.00000000E+00
		 6.82258000E-01	-1.37815000E-02	 0.00000000E+00
		 6.72633000E-01	-7.36211000E-02	 0.00000000E+00
		 6.79758000E-01	-3.18429000E-02	 0.00000000E+00
		 6.84840000E-01	-5.48007000E-02	 0.00000000E+00
		 7.69116000E-01	 6.26423000E-02	 0.00000000E+00
		 7.47709000E-01	 8.24412000E-02	 0.00000000E+00
		 7.68314000E-01	 7.58385000E-02	 0.00000000E+00
		 7.55601000E-01	 9.51206000E-02	 0.00000000E+00
		 7.73153000E-01	 9.88385000E-02	 0.00000000E+00
		 6.83374000E-01	-8.67394000E-02	 0.00000000E+00
		 6.95163000E-01	-7.45655000E-02	 0.00000000E+00
		 7.03454000E-01	-8.82967000E-02	 0.00000000E+00
		 7.79389000E-01	 1.48992000E-02	 0.00000000E+00
		 7.84219000E-01	 7.10902000E-02	 0.00000000E+00
		 7.71801000E-01	 4.81525000E-02	 0.00000000E+00
		 7.83777000E-01	 5.83230000E-02	 0.00000000E+00
		 7.68317000E-01	 8.85896000E-02	 0.00000000E+00
		 7.03309000E-01	-1.66324000E-02	 0.00000000E+00
		 7.15756000E-01	-7.69454000E-03	 0.00000000E+00
		 7.06303000E-01	-2.30955000E-02	 0.00000000E+00
		 7.33838000E-01	-2.18384000E-02	 0.00000000E+00
		 7.15103000E-01	-3.85086000E-02	 0.00000000E+00
		 7.86913000E-01	 8.29455000E-02	 0.00000000E+00
		 1.06165000E-01	 5.69770000E-02	 0.00000000E+00
		 1.95043000E-01	 2.08436000E-01	 0.00000000E+00
		 2.41718000E-01	 8.40148000E-02	 0.00000000E+00
		 3.01508000E-01	 1.60093000E-01	 0.00000000E+00
		 2.85227000E-01	 2.65260000E-01	 0.00000000E+00
		 2.20878000E-01	-1.58691000E-02	 0.00000000E+00
		 3.13949000E-01	 2.13349000E-02	 0.00000000E+00
		 1.59360000E-01	-7.67172000E-02	 0.00000000E+00
		 3.07319000E-01	-1.02547000E-01	 0.00000000E+00
		 3.36644000E-01	-4.68834000E-02	 0.00000000E+00
		 2.62048000E-01	-1.85468000E-01	 0.00000000E+00
		 3.43843000E-01	-1.79161000E-01	 0.00000000E+00
		 3.70303000E-01	-9.44600000E-02	 0.00000000E+00
		 2.84894000E-01	-2.60751000E-01	 0.00000000E+00
		 3.70988000E-01	 2.25374000E-01	 0.00000000E+00
		 3.83944000E-01	 3.01990000E-01	 0.00000000E+00
		 3.08096000E-01	 3.68317000E-01	 0.00000000E+00
		 4.30230000E-01	 4.24863000E-01	 0.00000000E+00
		 3.24778000E-01	 8.89631000E-02	 0.00000000E+00
		 3.87718000E-01	 1.49101000E-01	 0.00000000E+00
		 3.91417000E-01	-3.45724000E-01	 0.00000000E+00
		 3.78457000E-01	-2.48968000E-01	 0.00000000E+00
		 4.58117000E-01	-2.96267000E-01	 0.00000000E+00
		 4.37425000E-01	-2.02806000E-01	 0.00000000E+00
		 4.21276000E-01	 2.50888000E-01	 0.00000000E+00
		 4.31595000E-01	 1.91325000E-01	 0.00000000E+00
		 4.00091000E-01	-2.88862000E-02	 0.00000000E+00
		 3.77331000E-01	 3.88920000E-02	 0.00000000E+00
		 4.14417000E-01	-1.35632000E-01	 0.00000000E+00
		 4.40301000E-01	-8.38317000E-02	 0.00000000E+00
		 5.14496000E-01	-3.79223000E-01	 0.00000000E+00
		 5.36192000E-01	-3.08782000E-01	 0.00000000E+00
		 5.03908000E-01	-2.41249000E-01	 0.00000000E+00
		 7.91249000E-01	 1.01310000E-01	 0.00000000E+00
		 4.00392000E-01	 9.47680000E-02	 0.00000000E+00
		 4.84778000E-01	 2.47549000E-01	 0.00000000E+00
		 4.51366000E-01	 3.18794000E-01	 0.00000000E+00
		 4.95941000E-01	-1.86674000E-01	 0.00000000E+00
		 4.47380000E-01	 1.32663000E-01	 0.00000000E+00
		 7.97188000E-01	 7.76264000E-02	 0.00000000E+00
		 7.86403000E-01	 9.31674000E-02	 0.00000000E+00
		 8.02252000E-01	 8.80524000E-02	 0.00000000E+00
		 4.50901000E-01	 6.60678000E-02	 0.00000000E+00
		 7.37753000E-01	 7.58558000E-03	 0.00000000E+00
		 7.37632000E-01	 3.08522000E-03	 0.00000000E+00
		 7.93998000E-01	 6.68625000E-02	 0.00000000E+00
		 5.94102000E-01	-3.73239000E-01	 0.00000000E+00
		 6.01850000E-01	-3.07248000E-01	 0.00000000E+00
		 4.74626000E-01	-3.71721000E-02	 0.00000000E+00
		 7.87710000E-01	 4.65260000E-02	 0.00000000E+00
		 7.94695000E-01	 5.55929000E-02	 0.00000000E+00
		 5.63043000E-01	-2.58041000E-01	 0.00000000E+00
		 7.22730000E-01	-7.88942000E-02	 0.00000000E+00
		 7.19739000E-01	-6.77601000E-02	 0.00000000E+00
		 7.34178000E-01	-8.48298000E-02	 0.00000000E+00
		 7.40900000E-01	-7.32148000E-02	 0.00000000E+00
		 7.38829000E-01	-6.13273000E-02	 0.00000000E+00
		 7.18151000E-01	-5.49027000E-02	 0.00000000E+00
		 7.36775000E-01	-4.39577000E-02	 0.00000000E+00
		 7.62819000E-01	-6.87259000E-02	 0.00000000E+00
		 7.79609000E-01	 2.66696000E-02	 0.00000000E+00
		 7.97898000E-01	 2.03989000E-02	 0.00000000E+00
		 4.75457000E-01	-1.42318000E-01	 0.00000000E+00
		 4.98956000E-01	-8.31605000E-02	 0.00000000E+00
		 7.79287000E-01	 3.83648000E-02	 0.00000000E+00
		 7.94226000E-01	 3.33657000E-02	 0.00000000E+00
		 4.84989000E-01	 1.68993000E-01	 0.00000000E+00
		 5.49387000E-01	 2.09760000E-01	 0.00000000E+00
		 5.16415000E-01	 3.93323000E-01	 0.00000000E+00
		 5.31061000E-01	 3.16284000E-01	 0.00000000E+00
		 5.91473000E-01	 3.69650000E-01	 0.00000000E+00
		 6.01354000E-01	 4.51657000E-01	 0.00000000E+00
		 6.67073000E-01	 4.24567000E-01	 0.00000000E+00
		 6.06985000E-01	 3.22196000E-01	 0.00000000E+00
		 6.59693000E-01	 3.66118000E-01	 0.00000000E+00
		 6.51101000E-01	-3.50789000E-01	 0.00000000E+00
		 6.58260000E-01	-3.05522000E-01	 0.00000000E+00
		 6.75174000E-01	-4.02918000E-01	 0.00000000E+00
		 7.17311000E-01	-3.84206000E-01	 0.00000000E+00
		 7.07401000E-01	-3.36483000E-01	 0.00000000E+00
		 6.16499000E-01	-2.65876000E-01	 0.00000000E+00
		 5.44518000E-01	-2.08477000E-01	 0.00000000E+00
		 5.29680000E-01	-1.55473000E-01	 0.00000000E+00
		 5.94276000E-01	-2.22533000E-01	 0.00000000E+00
		 6.63209000E-01	 3.18708000E-01	 0.00000000E+00
		 7.22396000E-01	 3.84991000E-01	 0.00000000E+00
		 7.64213000E-01	 4.46432000E-01	 0.00000000E+00
		 5.62880000E-01	 2.64559000E-01	 0.00000000E+00
		 6.15095000E-01	 2.73784000E-01	 0.00000000E+00
		 7.95840000E-01	 3.96000000E-01	 0.00000000E+00
		 8.30968000E-01	 4.32429000E-01	 0.00000000E+00
		 7.02125000E-01	 3.47839000E-01	 0.00000000E+00
		 4.98136000E-01	 1.11407000E-01	 0.00000000E+00
		 8.08332000E-01	 8.30758000E-02	 0.00000000E+00
		 8.04909000E-01	 7.36432000E-02	 0.00000000E+00
		 8.04569000E-01	 9.63674000E-02	 0.00000000E+00
		 8.16011000E-01	 9.20802000E-02	 0.00000000E+00
		 4.40937000E-01	 1.21779000E-02	 0.00000000E+00
		 4.98016000E-01	 8.67842000E-03	 0.00000000E+00
		 7.77552000E-01	 1.34881000E-02	 0.00000000E+00
		 7.72141000E-01	 7.93628000E-03	 0.00000000E+00
		 7.45007000E-01	-1.03587000E-02	 0.00000000E+00
		 7.49620000E-01	-2.45430000E-03	 0.00000000E+00
		 8.63299000E-01	 4.02538000E-01	 0.00000000E+00
		 7.60672000E-01	 3.65311000E-01	 0.00000000E+00
		 8.28522000E-01	 3.72679000E-01	 0.00000000E+00
		 8.04562000E-01	 6.34380000E-02	 0.00000000E+00
		 5.26787000E-01	-3.94441000E-02	 0.00000000E+00
		 7.99279000E-01	 4.43411000E-02	 0.00000000E+00
		 7.61853000E-01	-5.60679000E-02	 0.00000000E+00
		 7.59379000E-01	-7.90509000E-02	 0.00000000E+00
		 7.84405000E-01	-7.39012000E-02	 0.00000000E+00
		 7.83411000E-01	-6.31822000E-02	 0.00000000E+00
		 7.66827000E-01	-3.54330000E-01	 0.00000000E+00
		 7.48111000E-01	-3.23706000E-01	 0.00000000E+00
		 7.12995000E-01	-2.97492000E-01	 0.00000000E+00
		 6.66799000E-01	-2.71036000E-01	 0.00000000E+00
		 7.70398000E-01	-3.90801000E-01	 0.00000000E+00
		 8.39392000E-01	-3.65031000E-01	 0.00000000E+00
		 8.00969000E-01	-3.35939000E-01	 0.00000000E+00
		 5.24647000E-01	-1.15399000E-01	 0.00000000E+00
		 5.46858000E-01	-8.01772000E-02	 0.00000000E+00
		 8.06541000E-01	 5.31287000E-02	 0.00000000E+00
		 6.56284000E-01	-2.40808000E-01	 0.00000000E+00
		 8.93456000E-01	 3.69653000E-01	 0.00000000E+00
		 8.09510000E-01	 1.03238000E-01	 0.00000000E+00
		 5.54745000E-01	 1.55787000E-01	 0.00000000E+00
		 5.98028000E-01	 1.89219000E-01	 0.00000000E+00
		 5.78065000E-01	-1.75677000E-01	 0.00000000E+00
		 5.67168000E-01	-1.23726000E-01	 0.00000000E+00
		 7.32729000E-01	 3.27322000E-01	 0.00000000E+00
		 6.73448000E-01	 2.77388000E-01	 0.00000000E+00
		 6.29237000E-01	-1.93883000E-01	 0.00000000E+00
		 8.19650000E-01	 8.78404000E-02	 0.00000000E+00
		 8.19559000E-01	 9.82108000E-02	 0.00000000E+00
		 8.27543000E-01	 1.03241000E-01	 0.00000000E+00
		 8.26793000E-01	 9.48448000E-02	 0.00000000E+00
		 5.87497000E-01	 2.33995000E-01	 0.00000000E+00
		 6.33377000E-01	 2.37241000E-01	 0.00000000E+00
		 8.17088000E-01	 7.91316000E-02	 0.00000000E+00
		 7.87129000E-01	 3.43573000E-01	 0.00000000E+00
		 8.06819000E-01	 3.50947000E-02	 0.00000000E+00
		 5.15975000E-01	 6.31495000E-02	 0.00000000E+00
		 8.69457000E-01	-3.30735000E-01	 0.00000000E+00
		 8.41691000E-01	-3.04574000E-01	 0.00000000E+00
		 7.83094000E-01	-3.04898000E-01	 0.00000000E+00
		 7.25561000E-01	-2.62128000E-01	 0.00000000E+00
		 8.16162000E-01	 7.02889000E-02	 0.00000000E+00
		 5.61661000E-01	 1.05196000E-01	 0.00000000E+00
		 8.41666000E-01	 3.45169000E-01	 0.00000000E+00
		 9.08938000E-01	 3.42801000E-01	 0.00000000E+00
		 9.33019000E-01	 3.95420000E-01	 0.00000000E+00
		 9.58672000E-01	 3.55461000E-01	 0.00000000E+00
		 9.92477000E-01	 3.74097000E-01	 0.00000000E+00
		 8.05264000E-01	-6.98273000E-02	 0.00000000E+00
		 7.82876000E-01	-8.23097000E-02	 0.00000000E+00
		 8.04625000E-01	-7.91444000E-02	 0.00000000E+00
		 7.60246000E-01	-8.66403000E-02	 0.00000000E+00
		 7.80981000E-01	-8.89954000E-02	 0.00000000E+00
		 8.01107000E-01	-8.55313000E-02	 0.00000000E+00
		 5.51967000E-01	 2.57783000E-02	 0.00000000E+00
		 7.82737000E-01	-5.09694000E-02	 0.00000000E+00
		 7.63664000E-01	-4.51366000E-02	 0.00000000E+00
		 7.53080000E-01	-3.39995000E-02	 0.00000000E+00
		 7.61670000E-01	-2.37400000E-02	 0.00000000E+00
		 7.82835000E-01	-3.62553000E-02	 0.00000000E+00
		 7.56512000E-01	-9.54001000E-02	 0.00000000E+00
		 7.78704000E-01	-9.48583000E-02	 0.00000000E+00
		 8.02225000E-01	-9.05539000E-02	 0.00000000E+00
		 7.38119000E-01	-9.44817000E-02	 0.00000000E+00
		 5.76777000E-01	-4.38346000E-02	 0.00000000E+00
		 8.17551000E-01	 6.13871000E-02	 0.00000000E+00
		 1.04132000E+00	 3.37434000E-01	 0.00000000E+00
		 9.76905000E-01	 3.30946000E-01	 0.00000000E+00
		 8.04178000E-01	-5.92380000E-02	 0.00000000E+00
		 6.76236000E-01	-2.10181000E-01	 0.00000000E+00
		 8.02247000E-01	 1.46953000E-02	 0.00000000E+00
		 8.15191000E-01	 2.06241000E-02	 0.00000000E+00
		 8.16261000E-01	 1.31467000E-02	 0.00000000E+00
		 7.78063000E-01	 4.13509000E-03	 0.00000000E+00
		 7.89678000E-01	 3.11906000E-01	 0.00000000E+00
		 8.31301000E-01	 9.17639000E-02	 0.00000000E+00
		 8.30347000E-01	 8.43281000E-02	 0.00000000E+00
		 8.87312000E-01	-3.01703000E-01	 0.00000000E+00
		 8.73938000E-01	-2.90326000E-01	 0.00000000E+00
		 8.28429000E-01	-2.79116000E-01	 0.00000000E+00
		 6.78237000E-01	 2.35747000E-01	 0.00000000E+00