# vtk DataFile Version 3.0

ASCII
DATASET UNSTRUCTURED_GRID

POINTS 7818 double
	 4.00000000E+00	 1.00000000E+00	 0.00000000E+00
	 3.90000000E+00	 1.00000000E+00	 0.00000000E+00
	 3.90000000E+00	 1.00000000E+00	 1.00000000E+00
	 4.00000000E+00	 1.00000000E+00	 1.00000000E+00
	 4.00000000E+00	 1.10000000E+00	 0.00000000E+00
	 3.90000000E+00	 1.10000000E+00	 0.00000000E+00
	 3.90000000E+00	 1.10000000E+00	 1.00000000E+00
	 4.00000000E+00	 1.10000000E+00	 1.00000000E+00
	 4.00000000E+00	 1.20000000E+00	 0.00000000E+00
	 3.90000000E+00	 1.20000000E+00	 0.00000000E+00
	 3.90000000E+00	 1.20000000E+00	 1.00000000E+00
	 4.00000000E+00	 1.20000000E+00	 1.00000000E+00
	 4.00000000E+00	 1.30000000E+00	 0.00000000E+00
	 3.90000000E+00	 1.30000000E+00	 0.00000000E+00
	 3.90000000E+00	 1.30000000E+00	 1.00000000E+00
	 4.00000000E+00	 1.30000000E+00	 1.00000000E+00
	 4.00000000E+00	 1.40000000E+00	 0.00000000E+00
	 3.90000000E+00	 1.40000000E+00	 0.00000000E+00
	 3.90000000E+00	 1.40000000E+00	 1.00000000E+00
	 4.00000000E+00	 1.40000000E+00	 1.00000000E+00
	 4.00000000E+00	 1.50000000E+00	 0.00000000E+00
	 3.90000000E+00	 1.50000000E+00	 0.00000000E+00
	 3.90000000E+00	 1.50000000E+00	 1.00000000E+00
	 4.00000000E+00	 1.50000000E+00	 1.00000000E+00
	 4.00000000E+00	 1.60000000E+00	 0.00000000E+00
	 3.90000000E+00	 1.60000000E+00	 0.00000000E+00
	 3.90000000E+00	 1.60000000E+00	 1.00000000E+00
	 4.00000000E+00	 1.60000000E+00	 1.00000000E+00
	 4.00000000E+00	 1.70000000E+00	 0.00000000E+00
	 3.90000000E+00	 1.70000000E+00	 0.00000000E+00
	 3.90000000E+00	 1.70000000E+00	 1.00000000E+00
	 4.00000000E+00	 1.70000000E+00	 1.00000000E+00
	 4.00000000E+00	 1.80000000E+00	 0.00000000E+00
	 3.90000000E+00	 1.80000000E+00	 0.00000000E+00
	 3.90000000E+00	 1.80000000E+00	 1.00000000E+00
	 4.00000000E+00	 1.80000000E+00	 1.00000000E+00
	 4.00000000E+00	 1.90000000E+00	 0.00000000E+00
	 3.90000000E+00	 1.90000000E+00	 0.00000000E+00
	 3.90000000E+00	 1.90000000E+00	 1.00000000E+00
	 4.00000000E+00	 1.90000000E+00	 1.00000000E+00
	 4.00000000E+00	 2.00000000E+00	 0.00000000E+00
	 3.90000000E+00	 2.00000000E+00	 0.00000000E+00
	 3.90000000E+00	 2.00000000E+00	 1.00000000E+00
	 4.00000000E+00	 2.00000000E+00	 1.00000000E+00
	 4.00000000E+00	 2.10000000E+00	 0.00000000E+00
	 3.90000000E+00	 2.10000000E+00	 0.00000000E+00
	 3.90000000E+00	 2.10000000E+00	 1.00000000E+00
	 4.00000000E+00	 2.10000000E+00	 1.00000000E+00
	 4.00000000E+00	 2.20000000E+00	 0.00000000E+00
	 3.90000000E+00	 2.20000000E+00	 0.00000000E+00
	 3.90000000E+00	 2.20000000E+00	 1.00000000E+00
	 4.00000000E+00	 2.20000000E+00	 1.00000000E+00
	 4.00000000E+00	 2.30000000E+00	 0.00000000E+00
	 3.90000000E+00	 2.30000000E+00	 0.00000000E+00
	 3.90000000E+00	 2.30000000E+00	 1.00000000E+00
	 4.00000000E+00	 2.30000000E+00	 1.00000000E+00
	 4.00000000E+00	 2.40000000E+00	 0.00000000E+00
	 3.90000000E+00	 2.40000000E+00	 0.00000000E+00
	 3.90000000E+00	 2.40000000E+00	 1.00000000E+00
	 4.00000000E+00	 2.40000000E+00	 1.00000000E+00
	 4.00000000E+00	 2.50000000E+00	 0.00000000E+00
	 3.90000000E+00	 2.50000000E+00	 0.00000000E+00
	 3.90000000E+00	 2.50000000E+00	 1.00000000E+00
	 4.00000000E+00	 2.50000000E+00	 1.00000000E+00
	 4.00000000E+00	 2.60000000E+00	 0.00000000E+00
	 3.90000000E+00	 2.60000000E+00	 0.00000000E+00
	 3.90000000E+00	 2.60000000E+00	 1.00000000E+00
	 4.00000000E+00	 2.60000000E+00	 1.00000000E+00
	 4.00000000E+00	 2.70000000E+00	 0.00000000E+00
	 3.90000000E+00	 2.70000000E+00	 0.00000000E+00
	 3.90000000E+00	 2.70000000E+00	 1.00000000E+00
	 4.00000000E+00	 2.70000000E+00	 1.00000000E+00
	 4.00000000E+00	 2.80000000E+00	 0.00000000E+00
	 3.90000000E+00	 2.80000000E+00	 0.00000000E+00
	 3.90000000E+00	 2.80000000E+00	 1.00000000E+00
	 4.00000000E+00	 2.80000000E+00	 1.00000000E+00
	 4.00000000E+00	 2.90000000E+00	 0.00000000E+00
	 3.90000000E+00	 2.90000000E+00	 0.00000000E+00
	 3.90000000E+00	 2.90000000E+00	 1.00000000E+00
	 4.00000000E+00	 2.90000000E+00	 1.00000000E+00
	 4.00000000E+00	 3.00000000E+00	 0.00000000E+00
	 3.90000000E+00	 3.00000000E+00	 0.00000000E+00
	 3.90000000E+00	 3.00000000E+00	 1.00000000E+00
	 4.00000000E+00	 3.00000000E+00	 1.00000000E+00
	 3.80000000E+00	 1.00000000E+00	 0.00000000E+00
	 3.80000000E+00	 1.00000000E+00	 1.00000000E+00
	 3.80000000E+00	 1.10000000E+00	 0.00000000E+00
	 3.80000000E+00	 1.10000000E+00	 1.00000000E+00
	 3.80000000E+00	 1.20000000E+00	 0.00000000E+00
	 3.80000000E+00	 1.20000000E+00	 1.00000000E+00
	 3.80000000E+00	 1.30000000E+00	 0.00000000E+00
	 3.80000000E+00	 1.30000000E+00	 1.00000000E+00
	 3.80000000E+00	 1.40000000E+00	 0.00000000E+00
	 3.80000000E+00	 1.40000000E+00	 1.00000000E+00
	 3.80000000E+00	 1.50000000E+00	 0.00000000E+00
	 3.80000000E+00	 1.50000000E+00	 1.00000000E+00
	 3.80000000E+00	 1.60000000E+00	 0.00000000E+00
	 3.80000000E+00	 1.60000000E+00	 1.00000000E+00
	 3.80000000E+00	 1.70000000E+00	 0.00000000E+00
	 3.80000000E+00	 1.70000000E+00	 1.00000000E+00
	 3.80000000E+00	 1.80000000E+00	 0.00000000E+00
	 3.80000000E+00	 1.80000000E+00	 1.00000000E+00
	 3.80000000E+00	 1.90000000E+00	 0.00000000E+00
	 3.80000000E+00	 1.90000000E+00	 1.00000000E+00
	 3.80000000E+00	 2.00000000E+00	 0.00000000E+00
	 3.80000000E+00	 2.00000000E+00	 1.00000000E+00
	 3.80000000E+00	 2.10000000E+00	 0.00000000E+00
	 3.80000000E+00	 2.10000000E+00	 1.00000000E+00
	 3.80000000E+00	 2.20000000E+00	 0.00000000E+00
	 3.80000000E+00	 2.20000000E+00	 1.00000000E+00
	 3.80000000E+00	 2.30000000E+00	 0.00000000E+00
	 3.80000000E+00	 2.30000000E+00	 1.00000000E+00
	 3.80000000E+00	 2.40000000E+00	 0.00000000E+00
	 3.80000000E+00	 2.40000000E+00	 1.00000000E+00
	 3.80000000E+00	 2.50000000E+00	 0.00000000E+00
	 3.80000000E+00	 2.50000000E+00	 1.00000000E+00
	 3.80000000E+00	 2.60000000E+00	 0.00000000E+00
	 3.80000000E+00	 2.60000000E+00	 1.00000000E+00
	 3.80000000E+00	 2.70000000E+00	 0.00000000E+00
	 3.80000000E+00	 2.70000000E+00	 1.00000000E+00
	 3.80000000E+00	 2.80000000E+00	 0.00000000E+00
	 3.80000000E+00	 2.80000000E+00	 1.00000000E+00
	 3.80000000E+00	 2.90000000E+00	 0.00000000E+00
	 3.80000000E+00	 2.90000000E+00	 1.00000000E+00
	 3.80000000E+00	 3.00000000E+00	 0.00000000E+00
	 3.80000000E+00	 3.00000000E+00	 1.00000000E+00
	 3.70000000E+00	 1.00000000E+00	 0.00000000E+00
	 3.70000000E+00	 1.00000000E+00	 1.00000000E+00
	 3.70000000E+00	 1.10000000E+00	 0.00000000E+00
	 3.70000000E+00	 1.10000000E+00	 1.00000000E+00
	 3.70000000E+00	 1.20000000E+00	 0.00000000E+00
	 3.70000000E+00	 1.20000000E+00	 1.00000000E+00
	 3.70000000E+00	 1.30000000E+00	 0.00000000E+00
	 3.70000000E+00	 1.30000000E+00	 1.00000000E+00
	 3.70000000E+00	 1.40000000E+00	 0.00000000E+00
	 3.70000000E+00	 1.40000000E+00	 1.00000000E+00
	 3.70000000E+00	 1.50000000E+00	 0.00000000E+00
	 3.70000000E+00	 1.50000000E+00	 1.00000000E+00
	 3.70000000E+00	 1.60000000E+00	 0.00000000E+00
	 3.70000000E+00	 1.60000000E+00	 1.00000000E+00
	 3.70000000E+00	 1.70000000E+00	 0.00000000E+00
	 3.70000000E+00	 1.70000000E+00	 1.00000000E+00
	 3.70000000E+00	 1.80000000E+00	 0.00000000E+00
	 3.70000000E+00	 1.80000000E+00	 1.00000000E+00
	 3.70000000E+00	 1.90000000E+00	 0.00000000E+00
	 3.70000000E+00	 1.90000000E+00	 1.00000000E+00
	 3.70000000E+00	 2.00000000E+00	 0.00000000E+00
	 3.70000000E+00	 2.00000000E+00	 1.00000000E+00
	 3.70000000E+00	 2.10000000E+00	 0.00000000E+00
	 3.70000000E+00	 2.10000000E+00	 1.00000000E+00
	 3.70000000E+00	 2.20000000E+00	 0.00000000E+00
	 3.70000000E+00	 2.20000000E+00	 1.00000000E+00
	 3.70000000E+00	 2.30000000E+00	 0.00000000E+00
	 3.70000000E+00	 2.30000000E+00	 1.00000000E+00
	 3.70000000E+00	 2.40000000E+00	 0.00000000E+00
	 3.70000000E+00	 2.40000000E+00	 1.00000000E+00
	 3.70000000E+00	 2.50000000E+00	 0.00000000E+00
	 3.70000000E+00	 2.50000000E+00	 1.00000000E+00
	 3.70000000E+00	 2.60000000E+00	 0.00000000E+00
	 3.70000000E+00	 2.60000000E+00	 1.00000000E+00
	 3.70000000E+00	 2.70000000E+00	 0.00000000E+00
	 3.70000000E+00	 2.70000000E+00	 1.00000000E+00
	 3.70000000E+00	 2.80000000E+00	 0.00000000E+00
	 3.70000000E+00	 2.80000000E+00	 1.00000000E+00
	 3.70000000E+00	 2.90000000E+00	 0.00000000E+00
	 3.70000000E+00	 2.90000000E+00	 1.00000000E+00
	 3.70000000E+00	 3.00000000E+00	 0.00000000E+00
	 3.70000000E+00	 3.00000000E+00	 1.00000000E+00
	 3.60000000E+00	 1.00000000E+00	 0.00000000E+00
	 3.60000000E+00	 1.00000000E+00	 1.00000000E+00
	 3.60000000E+00	 1.10000000E+00	 0.00000000E+00
	 3.60000000E+00	 1.10000000E+00	 1.00000000E+00
	 3.60000000E+00	 1.20000000E+00	 0.00000000E+00
	 3.60000000E+00	 1.20000000E+00	 1.00000000E+00
	 3.60000000E+00	 1.30000000E+00	 0.00000000E+00
	 3.60000000E+00	 1.30000000E+00	 1.00000000E+00
	 3.60000000E+00	 1.40000000E+00	 0.00000000E+00
	 3.60000000E+00	 1.40000000E+00	 1.00000000E+00
	 3.60000000E+00	 1.50000000E+00	 0.00000000E+00
	 3.60000000E+00	 1.50000000E+00	 1.00000000E+00
	 3.60000000E+00	 1.60000000E+00	 0.00000000E+00
	 3.60000000E+00	 1.60000000E+00	 1.00000000E+00
	 3.60000000E+00	 1.70000000E+00	 0.00000000E+00
	 3.60000000E+00	 1.70000000E+00	 1.00000000E+00
	 3.60000000E+00	 1.80000000E+00	 0.00000000E+00
	 3.60000000E+00	 1.80000000E+00	 1.00000000E+00
	 3.60000000E+00	 1.90000000E+00	 0.00000000E+00
	 3.60000000E+00	 1.90000000E+00	 1.00000000E+00
	 3.60000000E+00	 2.00000000E+00	 0.00000000E+00
	 3.60000000E+00	 2.00000000E+00	 1.00000000E+00
	 3.60000000E+00	 2.10000000E+00	 0.00000000E+00
	 3.60000000E+00	 2.10000000E+00	 1.00000000E+00
	 3.60000000E+00	 2.20000000E+00	 0.00000000E+00
	 3.60000000E+00	 2.20000000E+00	 1.00000000E+00
	 3.60000000E+00	 2.30000000E+00	 0.00000000E+00
	 3.60000000E+00	 2.30000000E+00	 1.00000000E+00
	 3.60000000E+00	 2.40000000E+00	 0.00000000E+00
	 3.60000000E+00	 2.40000000E+00	 1.00000000E+00
	 3.60000000E+00	 2.50000000E+00	 0.00000000E+00
	 3.60000000E+00	 2.50000000E+00	 1.00000000E+00
	 3.60000000E+00	 2.60000000E+00	 0.00000000E+00
	 3.60000000E+00	 2.60000000E+00	 1.00000000E+00
[...]
POINT_DATA 7818
FIELD V3DF 1
	V3DF 3 7818 double
		 0.00000000E+00	 0.00000000E+00	 0.00000000E+00
		 0.00000000E+00	 0.00000000E+00	 0.00000000E+00
		 0.00000000E+00	 0.00000000E+00	 0.00000000E+00
		 0.00000000E+00	 0.00000000E+00	 0.00000000E+00
		 5.10973000E-01	-3.59908000E-02	 0.00000000E+00
		 4.99471000E-01	-1.70599000E-02	 0.00000000E+00
		 4.99471000E-01	-1.70599000E-02	 0.00000000E+00
		 5.10973000E-01	-3.59908000E-02	 0.00000000E+00
		 9.04573000E-01	-3.69838000E-02	 0.00000000E+00
		 8.98609000E-01	-2.39911000E-02	 0.00000000E+00
		 8.98609000E-01	-2.39911000E-02	 0.00000000E+00
		 9.04573000E-01	-3.69838000E-02	 0.00000000E+00
		 1.23664000E+00	-4.12298000E-02	 0.00000000E+00
		 1.23065000E+00	-3.26100000E-02	 0.00000000E+00
		 1.23065000E+00	-3.26100000E-02	 0.00000000E+00
		 1.23664000E+00	-4.12298000E-02	 0.00000000E+00
		 1.51570000E+00	-4.51444000E-02	 0.00000000E+00
		 1.51091000E+00	-3.83140000E-02	 0.00000000E+00
		 1.51091000E+00	-3.83140000E-02	 0.00000000E+00
		 1.51570000E+00	-4.51444000E-02	 0.00000000E+00
		 1.74769000E+00	-4.86945000E-02	 0.00000000E+00
		 1.74414000E+00	-4.28981000E-02	 0.00000000E+00
		 1.74414000E+00	-4.28981000E-02	 0.00000000E+00
		 1.74769000E+00	-4.86945000E-02	 0.00000000E+00
		 1.93470000E+00	-5.14647000E-02	 0.00000000E+00
		 1.93220000E+00	-4.61162000E-02	 0.00000000E+00
		 1.93220000E+00	-4.61162000E-02	 0.00000000E+00
		 1.93470000E+00	-5.14647000E-02	 0.00000000E+00
		 2.07675000E+00	-5.30055000E-02	 0.00000000E+00
		 2.07543000E+00	-4.80508000E-02	 0.00000000E+00
		 2.07543000E+00	-4.80508000E-02	 0.00000000E+00
		 2.07675000E+00	-5.30055000E-02	 0.00000000E+00
		 2.17391000E+00	-5.29570000E-02	 0.00000000E+00
		 2.17407000E+00	-4.89396000E-02	 0.00000000E+00
		 2.17407000E+00	-4.89396000E-02	 0.00000000E+00
		 2.17391000E+00	-5.29570000E-02	 0.00000000E+00
		 2.22493000E+00	-5.21757000E-02	 0.00000000E+00
		 2.22625000E+00	-4.82028000E-02	 0.00000000E+00
		 2.22625000E+00	-4.82028000E-02	 0.00000000E+00
		 2.22493000E+00	-5.21757000E-02	 0.00000000E+00
		 2.23177000E+00	-5.03361000E-02	 0.00000000E+00
		 2.23388000E+00	-4.67686000E-02	 0.00000000E+00
		 2.23388000E+00	-4.67686000E-02	 0.00000000E+00
		 2.23177000E+00	-5.03361000E-02	 0.00000000E+00
		 2.19609000E+00	-4.77044000E-02	 0.00000000E+00
		 2.19885000E+00	-4.47148000E-02	 0.00000000E+00
		 2.19885000E+00	-4.47148000E-02	 0.00000000E+00
		 2.19609000E+00	-4.77044000E-02	 0.00000000E+00
		 2.11529000E+00	-4.40475000E-02	 0.00000000E+00
		 2.11903000E+00	-4.13925000E-02	 0.00000000E+00
		 2.11903000E+00	-4.13925000E-02	 0.00000000E+00
		 2.11529000E+00	-4.40475000E-02	 0.00000000E+00
		 1.98998000E+00	-3.96186000E-02	 0.00000000E+00
		 1.99467000E+00	-3.72744000E-02	 0.00000000E+00
		 1.99467000E+00	-3.72744000E-02	 0.00000000E+00
		 1.98998000E+00	-3.96186000E-02	 0.00000000E+00
		 1.82073000E+00	-3.42585000E-02	 0.00000000E+00
		 1.82623000E+00	-3.22903000E-02	 0.00000000E+00
		 1.82623000E+00	-3.22903000E-02	 0.00000000E+00
		 1.82073000E+00	-3.42585000E-02	 0.00000000E+00
		 1.60811000E+00	-2.81479000E-02	 0.00000000E+00
		 1.61427000E+00	-2.65771000E-02	 0.00000000E+00
		 1.61427000E+00	-2.65771000E-02	 0.00000000E+00
		 1.60811000E+00	-2.81479000E-02	 0.00000000E+00
		 1.35337000E+00	-2.14247000E-02	 0.00000000E+00
		 1.35998000E+00	-2.02748000E-02	 0.00000000E+00
		 1.35998000E+00	-2.02748000E-02	 0.00000000E+00
		 1.35337000E+00	-2.14247000E-02	 0.00000000E+00
		 1.05908000E+00	-1.44272000E-02	 0.00000000E+00
		 1.06571000E+00	-1.36931000E-02	 0.00000000E+00
		 1.06571000E+00	-1.36931000E-02	 0.00000000E+00
		 1.05908000E+00	-1.44272000E-02	 0.00000000E+00
		 7.30111000E-01	-7.65363000E-03	 0.00000000E+00
		 7.35987000E-01	-7.29277000E-03	 0.00000000E+00
		 7.35987000E-01	-7.29277000E-03	 0.00000000E+00
		 7.30111000E-01	-7.65363000E-03	 0.00000000E+00
		 3.74298000E-01	-2.28653000E-03	 0.00000000E+00
		 3.78161000E-01	-2.19458000E-03	 0.00000000E+00
		 3.78161000E-01	-2.19458000E-03	 0.00000000E+00
		 3.74298000E-01	-2.28653000E-03	 0.00000000E+00
		 0.00000000E+00	 0.00000000E+00	 0.00000000E+00
		 0.00000000E+00	 0.00000000E+00	 0.00000000E+00
		 0.00000000E+00	 0.00000000E+00	 0.00000000E+00
		 0.00000000E+00	 0.00000000E+00	 0.00000000E+00
		 0.00000000E+00	 0.00000000E+00	 0.00000000E+00
		 0.00000000E+00	 0.00000000E+00	 0.00000000E+00
		 4.90839000E-01	-7.75016000E-03	 0.00000000E+00
		 4.90839000E-01	-7.75016000E-03	 0.00000000E+00
		 8.88914000E-01	-1.77705000E-02	 0.00000000E+00
		 8.88914000E-01	-1.77705000E-02	 0.00000000E+00
		 1.22300000E+00	-2.68081000E-02	 0.00000000E+00
		 1.22300000E+00	-2.68081000E-02	 0.00000000E+00
		 1.50526000E+00	-3.32071000E-02	 0.00000000E+00
		 1.50526000E+00	-3.32071000E-02	 0.00000000E+00
		 1.74019000E+00	-3.83337000E-02	 0.00000000E+00
		 1.74019000E+00	-3.83337000E-02	 0.00000000E+00
		 1.92972000E+00	-4.17884000E-02	 0.00000000E+00
		 1.92972000E+00	-4.17884000E-02	 0.00000000E+00
		 2.07404000E+00	-4.39220000E-02	 0.00000000E+00
		 2.07404000E+00	-4.39220000E-02	 0.00000000E+00
		 2.17375000E+00	-4.49701000E-02	 0.00000000E+00
		 2.17375000E+00	-4.49701000E-02	 0.00000000E+00
		 2.22680000E+00	-4.50404000E-02	 0.00000000E+00
		 2.22680000E+00	-4.50404000E-02	 0.00000000E+00
		 2.23545000E+00	-4.37983000E-02	 0.00000000E+00
		 2.23545000E+00	-4.37983000E-02	 0.00000000E+00
		 2.20167000E+00	-4.14966000E-02	 0.00000000E+00
		 2.20167000E+00	-4.14966000E-02	 0.00000000E+00
		 2.12266000E+00	-3.86717000E-02	 0.00000000E+00
		 2.12266000E+00	-3.86717000E-02	 0.00000000E+00
		 1.99905000E+00	-3.48994000E-02	 0.00000000E+00
		 1.99905000E+00	-3.48994000E-02	 0.00000000E+00
		 1.83138000E+00	-3.02887000E-02	 0.00000000E+00
		 1.83138000E+00	-3.02887000E-02	 0.00000000E+00
		 1.62007000E+00	-2.49748000E-02	 0.00000000E+00
		 1.62007000E+00	-2.49748000E-02	 0.00000000E+00
		 1.36622000E+00	-1.91001000E-02	 0.00000000E+00
		 1.36622000E+00	-1.91001000E-02	 0.00000000E+00
		 1.07199000E+00	-1.29374000E-02	 0.00000000E+00
		 1.07199000E+00	-1.29374000E-02	 0.00000000E+00
		 7.41584000E-01	-6.91601000E-03	 0.00000000E+00
		 7.41584000E-01	-6.91601000E-03	 0.00000000E+00
		 3.81862000E-01	-2.09515000E-03	 0.00000000E+00
		 3.81862000E-01	-2.09515000E-03	 0.00000000E+00
		 0.00000000E+00	 0.00000000E+00	 0.00000000E+00
		 0.00000000E+00	 0.00000000E+00	 0.00000000E+00
		 0.00000000E+00	 0.00000000E+00	 0.00000000E+00
		 0.00000000E+00	 0.00000000E+00	 0.00000000E+00
		 4.81605000E-01	-5.79799000E-03	 0.00000000E+00
		 4.81605000E-01	-5.79799000E-03	 0.00000000E+00
		 8.79880000E-01	-1.41397000E-02	 0.00000000E+00
		 8.79880000E-01	-1.41397000E-02	 0.00000000E+00
		 1.21568000E+00	-2.21464000E-02	 0.00000000E+00
		 1.21568000E+00	-2.21464000E-02	 0.00000000E+00
		 1.49946000E+00	-2.84966000E-02	 0.00000000E+00
		 1.49946000E+00	-2.84966000E-02	 0.00000000E+00
		 1.73562000E+00	-3.34227000E-02	 0.00000000E+00
		 1.73562000E+00	-3.34227000E-02	 0.00000000E+00
		 1.92634000E+00	-3.72095000E-02	 0.00000000E+00
		 1.92634000E+00	-3.72095000E-02	 0.00000000E+00
		 2.07214000E+00	-3.99034000E-02	 0.00000000E+00
		 2.07214000E+00	-3.99034000E-02	 0.00000000E+00
		 2.17311000E+00	-4.11433000E-02	 0.00000000E+00
		 2.17311000E+00	-4.11433000E-02	 0.00000000E+00
		 2.22739000E+00	-4.13867000E-02	 0.00000000E+00
		 2.22739000E+00	-4.13867000E-02	 0.00000000E+00
		 2.23732000E+00	-4.01621000E-02	 0.00000000E+00
		 2.23732000E+00	-4.01621000E-02	 0.00000000E+00
		 2.20391000E+00	-3.85526000E-02	 0.00000000E+00
		 2.20391000E+00	-3.85526000E-02	 0.00000000E+00
		 2.12554000E+00	-3.62371000E-02	 0.00000000E+00
		 2.12554000E+00	-3.62371000E-02	 0.00000000E+00
		 2.00308000E+00	-3.25446000E-02	 0.00000000E+00
		 2.00308000E+00	-3.25446000E-02	 0.00000000E+00
		 1.83614000E+00	-2.83643000E-02	 0.00000000E+00
		 1.83614000E+00	-2.83643000E-02	 0.00000000E+00
		 1.62547000E+00	-2.34073000E-02	 0.00000000E+00
		 1.62547000E+00	-2.34073000E-02	 0.00000000E+00
		 1.37204000E+00	-1.79400000E-02	 0.00000000E+00
		 1.37204000E+00	-1.79400000E-02	 0.00000000E+00
		 1.07788000E+00	-1.21859000E-02	 0.00000000E+00
		 1.07788000E+00	-1.21859000E-02	 0.00000000E+00
		 7.46853000E-01	-6.53601000E-03	 0.00000000E+00
		 7.46853000E-01	-6.53601000E-03	 0.00000000E+00
		 3.85366000E-01	-1.99323000E-03	 0.00000000E+00
		 3.85366000E-01	-1.99323000E-03	 0.00000000E+00
		 0.00000000E+00	 0.00000000E+00	 0.00000000E+00
		 0.00000000E+00	 0.00000000E+00	 0.00000000E+00
		 0.00000000E+00	 0.00000000E+00	 0.00000000E+00
		 0.00000000E+00	 0.00000000E+00	 0.00000000E+00
		 4.75355000E-01	-4.18001000E-03	 0.00000000E+00
		 4.75355000E-01	-4.18001000E-03	 0.00000000E+00
		 8.72206000E-01	-1.13591000E-02	 0.00000000E+00
		 8.72206000E-01	-1.13591000E-02	 0.00000000E+00
		 1.20873000E+00	-1.87688000E-02	 0.00000000E+00
		 1.20873000E+00	-1.87688000E-02	 0.00000000E+00
		 1.49384000E+00	-2.49296000E-02	 0.00000000E+00
		 1.49384000E+00	-2.49296000E-02	 0.00000000E+00
		 1.73148000E+00	-2.99606000E-02	 0.00000000E+00
		 1.73148000E+00	-2.99606000E-02	 0.00000000E+00
		 1.92336000E+00	-3.36025000E-02	 0.00000000E+00
		 1.92336000E+00	-3.36025000E-02	 0.00000000E+00
		 2.07019000E+00	-3.61146000E-02	 0.00000000E+00
		 2.07019000E+00	-3.61146000E-02	 0.00000000E+00
		 2.17227000E+00	-3.76130000E-02	 0.00000000E+00
		 2.17227000E+00	-3.76130000E-02	 0.00000000E+00
		 2.22765000E+00	-3.79660000E-02	 0.00000000E+00
		 2.22765000E+00	-3.79660000E-02	 0.00000000E+00
		 2.23820000E+00	-3.74652000E-02	 0.00000000E+00
		 2.23820000E+00	-3.74652000E-02	 0.00000000E+00
		 2.20583000E+00	-3.59669000E-02	 0.00000000E+00
		 2.20583000E+00	-3.59669000E-02	 0.00000000E+00
		 2.12882000E+00	-3.33778000E-02	 0.00000000E+00
		 2.12882000E+00	-3.33778000E-02	 0.00000000E+00
		 2.00692000E+00	-3.02355000E-02	 0.00000000E+00
		 2.00692000E+00	-3.02355000E-02	 0.00000000E+00
		 1.84052000E+00	-2.64552000E-02	 0.00000000E+00
		 1.84052000E+00	-2.64552000E-02	 0.00000000E+00
		 1.63048000E+00	-2.18632000E-02	 0.00000000E+00
		 1.63048000E+00	-2.18632000E-02	 0.00000000E+00
		 1.37746000E+00	-1.67805000E-02	 0.00000000E+00
		 1.37746000E+00	-1.67805000E-02	 0.00000000E+00
		 1.08338000E+00	-1.14343000E-02	 0.00000000E+00
		 1.08338000E+00	-1.14343000E-02	 0.00000000E+00
		 7.51798000E-01	-6.15118000E-03	 0.00000000E+00
		 7.51798000E-01	-6.15118000E-03	 0.00000000E+00
		 3.88672000E-01	-1.88731000E-03	 0.00000000E+00
		 3.88672000E-01	-1.88731000E-03	 0.00000000E+00
		 0.00000000E+00	 0.00000000E+00	 0.00000000E+00
		 0.00000000E+00	 0.00000000E+00	 0.00000000E+00
		 0.00000000E+00	 0.00000000E+00	 0.00000000E+00
		 0.00000000E+00	 0.00000000E+00	 0.00000000E+00
		 4.69753000E-01	-3.42324000E-03	 0.00000000E+00
		 4.69753000E-01	-3.42324000E-03	 0.00000000E+00
		 8.65265000E-01	-9.58678000E-03	 0.00000000E+00
		 8.65265000E-01	-9.58678000E-03	 0.00000000E+00
		 1.20228000E+00	-1.61209000E-02	 0.00000000E+00
		 1.20228000E+00	-1.61209000E-02	 0.00000000E+00
		 1.48833000E+00	-2.17826000E-02	 0.00000000E+00
		 1.48833000E+00	-2.17826000E-02	 0.00000000E+00
		 1.72702000E+00	-2.64661000E-02	 0.00000000E+00
		 1.72702000E+00	-2.64661000E-02	 0.00000000E+00
		 1.92009000E+00	-3.01233000E-02	 0.00000000E+00
		 1.92009000E+00	-3.01233000E-02	 0.00000000E+00
		 2.06815000E+00	-3.27559000E-02	 0.00000000E+00
		 2.06815000E+00	-3.27559000E-02	 0.00000000E+00
		 2.17127000E+00	-3.42727000E-02	 0.00000000E+00
		 2.17127000E+00	-3.42727000E-02	 0.00000000E+00
		 2.22764000E+00	-3.47850000E-02	 0.00000000E+00
		 2.22764000E+00	-3.47850000E-02	 0.00000000E+00
		 2.23922000E+00	-3.44007000E-02	 0.00000000E+00
		 2.23922000E+00	-3.44007000E-02	 0.00000000E+00
		 2.20781000E+00	-3.30023000E-02	 0.00000000E+00
		 2.20781000E+00	-3.30023000E-02	 0.00000000E+00
		 2.13121000E+00	-3.09778000E-02	 0.00000000E+00
		 2.13121000E+00	-3.09778000E-02	 0.00000000E+00
		 2.00998000E+00	-2.81707000E-02	 0.00000000E+00
		 2.00998000E+00	-2.81707000E-02	 0.00000000E+00
		 1.84458000E+00	-2.45353000E-02	 0.00000000E+00
		 1.84458000E+00	-2.45353000E-02	 0.00000000E+00
		 1.63509000E+00	-2.03882000E-02	 0.00000000E+00
		 1.63509000E+00	-2.03882000E-02	 0.00000000E+00
		 1.38250000E+00	-1.56464000E-02	 0.00000000E+00
		 1.38250000E+00	-1.56464000E-02	 0.00000000E+00
		 1.08849000E+00	-1.06953000E-02	 0.00000000E+00
		 1.08849000E+00	-1.06953000E-02	 0.00000000E+00
		 7.56420000E-01	-5.77079000E-03	 0.00000000E+00
		 7.56420000E-01	-5.77079000E-03	 0.00000000E+00
		 3.91779000E-01	-1.78047000E-03	 0.00000000E+00
		 3.91779000E-01	-1.78047000E-03	 0.00000000E+00
		 0.00000000E+00	 0.00000000E+00	 0.00000000E+00
		 0.00000000E+00	 0.00000000E+00	 0.00000000E+00
		 0.00000000E+00	 0.00000000E+00	 0.00000000E+00
		 0.00000000E+00	 0.00000000E+00	 0.00000000E+00
		 4.65201000E-01	-2.85701000E-03	 0.00000000E+00
		 4.65201000E-01	-2.85701000E-03	 0.00000000E+00
		 8.59351000E-01	-8.19785000E-03	 0.00000000E+00
		 8.59351000E-01	-8.19785000E-03	 0.00000000E+00
		 1.19655000E+00	-1.40699000E-02	 0.00000000E+00
		 1.19655000E+00	-1.40699000E-02	 0.00000000E+00
		 1.48341000E+00	-1.92957000E-02	 0.00000000E+00
		 1.48341000E+00	-1.92957000E-02	 0.00000000E+00
		 1.72314000E+00	-2.37204000E-02	 0.00000000E+00
		 1.72314000E+00	-2.37204000E-02	 0.00000000E+00
		 1.91711000E+00	-2.70948000E-02	 0.00000000E+00
		 1.91711000E+00	-2.70948000E-02	 0.00000000E+00
		 2.06609000E+00	-2.95784000E-02	 0.00000000E+00
		 2.06609000E+00	-2.95784000E-02	 0.00000000E+00
		 2.17019000E+00	-3.11852000E-02	 0.00000000E+00
		 2.17019000E+00	-3.11852000E-02	 0.00000000E+00
		 2.22754000E+00	-3.17727000E-02	 0.00000000E+00
		 2.22754000E+00	-3.17727000E-02	 0.00000000E+00
		 2.24001000E+00	-3.15033000E-02	 0.00000000E+00
		 2.24001000E+00	-3.15033000E-02	 0.00000000E+00
		 2.20936000E+00	-3.02672000E-02	 0.00000000E+00
		 2.20936000E+00	-3.02672000E-02	 0.00000000E+00
		 2.13362000E+00	-2.84252000E-02	 0.00000000E+00
		 2.13362000E+00	-2.84252000E-02	 0.00000000E+00
		 2.01329000E+00	-2.58366000E-02	 0.00000000E+00
		 2.01329000E+00	-2.58366000E-02	 0.00000000E+00
		 1.84841000E+00	-2.26359000E-02	 0.00000000E+00
		 1.84841000E+00	-2.26359000E-02	 0.00000000E+00
		 1.63933000E+00	-1.89518000E-02	 0.00000000E+00
		 1.63933000E+00	-1.89518000E-02	 0.00000000E+00
		 1.38716000E+00	-1.45503000E-02	 0.00000000E+00
		 1.38716000E+00	-1.45503000E-02	 0.00000000E+00
		 1.09325000E+00	-9.96463000E-03	 0.00000000E+00
		 1.09325000E+00	-9.96463000E-03	 0.00000000E+00
		 7.60729000E-01	-5.39543000E-03	 0.00000000E+00
		 7.60729000E-01	-5.39543000E-03	 0.00000000E+00
		 3.94689000E-01	-1.67190000E-03	 0.00000000E+00
		 3.94689000E-01	-1.67190000E-03	 0.00000000E+00
		 0.00000000E+00	 0.00000000E+00	 0.00000000E+00
		 0.00000000E+00	 0.00000000E+00	 0.00000000E+00
		 0.00000000E+00	 0.00000000E+00	 0.00000000E+00
		 0.00000000E+00	 0.00000000E+00	 0.00000000E+00
		 4.61171000E-01	-2.44295000E-03	 0.00000000E+00
		 4.61171000E-01	-2.44295000E-03	 0.00000000E+00
		 8.54007000E-01	-7.13791000E-03	 0.00000000E+00
		 8.54007000E-01	-7.13791000E-03	 0.00000000E+00
		 1.19124000E+00	-1.23745000E-02	 0.00000000E+00
		 1.19124000E+00	-1.23745000E-02	 0.00000000E+00
		 1.47870000E+00	-1.71275000E-02	 0.00000000E+00
		 1.47870000E+00	-1.71275000E-02	 0.00000000E+00
		 1.71924000E+00	-2.11975000E-02	 0.00000000E+00
		 1.71924000E+00	-2.11975000E-02	 0.00000000E+00
		 1.91418000E+00	-2.44322000E-02	 0.00000000E+00
		 1.91418000E+00	-2.44322000E-02	 0.00000000E+00
		 2.06412000E+00	-2.68386000E-02	 0.00000000E+00
		 2.06412000E+00	-2.68386000E-02	 0.00000000E+00
		 2.16909000E+00	-2.83607000E-02	 0.00000000E+00
		 2.16909000E+00	-2.83607000E-02	 0.00000000E+00
		 2.22737000E+00	-2.90035000E-02	 0.00000000E+00
		 2.22737000E+00	-2.90035000E-02	 0.00000000E+00
		 2.24075000E+00	-2.88074000E-02	 0.00000000E+00
		 2.24075000E+00	-2.88074000E-02	 0.00000000E+00
		 2.21095000E+00	-2.76026000E-02	 0.00000000E+00
		 2.21095000E+00	-2.76026000E-02	 0.00000000E+00
		 2.13582000E+00	-2.60516000E-02	 0.00000000E+00
		 2.13582000E+00	-2.60516000E-02	 0.00000000E+00
		 2.01566000E+00	-2.40834000E-02	 0.00000000E+00
		 2.01566000E+00	-2.40834000E-02	 0.00000000E+00
		 1.85148000E+00	-2.10718000E-02	 0.00000000E+00
		 1.85148000E+00	-2.10718000E-02	 0.00000000E+00
		 1.64329000E+00	-1.75162000E-02	 0.00000000E+00
		 1.64329000E+00	-1.75162000E-02	 0.00000000E+00
		 1.39146000E+00	-1.35228000E-02	 0.00000000E+00
		 1.39146000E+00	-1.35228000E-02	 0.00000000E+00
		 1.09766000E+00	-9.25909000E-03	 0.00000000E+00
		 1.09766000E+00	-9.25909000E-03	 0.00000000E+00
		 7.64733000E-01	-5.03085000E-03	 0.00000000E+00
		 7.64733000E-01	-5.03085000E-03	 0.00000000E+00
		 3.97405000E-01	-1.56532000E-03	 0.00000000E+00
		 3.97405000E-01	-1.56532000E-03	 0.00000000E+00
		 0.00000000E+00	 0.00000000E+00	 0.00000000E+00
		 0.00000000E+00	 0.00000000E+00	 0.00000000E+00
		 0.00000000E+00	 0.00000000E+00	 0.00000000E+00
		 0.00000000E+00	 0.00000000E+00	 0.00000000E+00
		 4.57698000E-01	-2.13251000E-03	 0.00000000E+00
		 4.57698000E-01	-2.13251000E-03	 0.00000000E+00
		 8.49340000E-01	-6.29260000E-03	 0.00000000E+00
		 8.49340000E-01	-6.29260000E-03	 0.00000000E+00
		 1.18656000E+00	-1.10019000E-02	 0.00000000E+00
		 1.18656000E+00	-1.10019000E-02	 0.00000000E+00
		 1.47454000E+00	-1.53251000E-02	 0.00000000E+00
		 1.47454000E+00	-1.53251000E-02	 0.00000000E+00
		 1.71582000E+00	-1.90715000E-02	 0.00000000E+00
		 1.71582000E+00	-1.90715000E-02	 0.00000000E+00
		 1.91147000E+00	-2.20018000E-02	 0.00000000E+00
		 1.91147000E+00	-2.20018000E-02	 0.00000000E+00
		 2.06218000E+00	-2.42558000E-02	 0.00000000E+00
		 2.06218000E+00	-2.42558000E-02	 0.00000000E+00
		 2.16797000E+00	-2.58036000E-02	 0.00000000E+00
		 2.16797000E+00	-2.58036000E-02	 0.00000000E+00
		 2.22711000E+00	-2.65066000E-02	 0.00000000E+00
		 2.22711000E+00	-2.65066000E-02	 0.00000000E+00
		 2.24132000E+00	-2.63740000E-02	 0.00000000E+00
		 2.24132000E+00	-2.63740000E-02	 0.00000000E+00
		 2.21184000E+00	-2.56849000E-02	 0.00000000E+00
		 2.21184000E+00	-2.56849000E-02	 0.00000000E+00
		 2.13737000E+00	-2.43558000E-02	 0.00000000E+00
		 2.13737000E+00	-2.43558000E-02	 0.00000000E+00
		 2.01834000E+00	-2.21540000E-02	 0.00000000E+00
		 2.01834000E+00	-2.21540000E-02	 0.00000000E+00
		 1.85479000E+00	-1.93318000E-02	 0.00000000E+00
		 1.85479000E+00	-1.93318000E-02	 0.00000000E+00
		 1.64692000E+00	-1.61003000E-02	 0.00000000E+00
		 1.64692000E+00	-1.61003000E-02	 0.00000000E+00
		 1.39540000E+00	-1.24851000E-02	 0.00000000E+00
		 1.39540000E+00	-1.24851000E-02	 0.00000000E+00
		 1.10172000E+00	-8.57114000E-03	 0.00000000E+00
		 1.10172000E+00	-8.57114000E-03	 0.00000000E+00
		 7.68442000E-01	-4.66894000E-03	 0.00000000E+00
		 7.68442000E-01	-4.66894000E-03	 0.00000000E+00
		 3.99931000E-01	-1.45738000E-03	 0.00000000E+00
		 3.99931000E-01	-1.45738000E-03	 0.00000000E+00
		 0.00000000E+00	 0.00000000E+00	 0.00000000E+00
		 0.00000000E+00	 0.00000000E+00	 0.00000000E+00
		 0.00000000E+00	 0.00000000E+00	 0.00000000E+00
		 0.00000000E+00	 0.00000000E+00	 0.00000000E+00
		 4.54589000E-01	-1.87349000E-03	 0.00000000E+00
		 4.54589000E-01	-1.87349000E-03	 0.00000000E+00
		 8.45105000E-01	-5.58963000E-03	 0.00000000E+00
		 8.45105000E-01	-5.58963000E-03	 0.00000000E+00
		 1.18224000E+00	-9.82607000E-03	 0.00000000E+00
		 1.18224000E+00	-9.82607000E-03	 0.00000000E+00
		 1.47063000E+00	-1.37685000E-02	 0.00000000E+00
		 1.47063000E+00	-1.37685000E-02	 0.00000000E+00
		 1.71261000E+00	-1.72168000E-02	 0.00000000E+00
		 1.71261000E+00	-1.72168000E-02	 0.00000000E+00
		 1.90903000E+00	-1.99374000E-02	 0.00000000E+00
		 1.90903000E+00	-1.99374000E-02	 0.00000000E+00
		 2.06041000E+00	-2.20194000E-02	 0.00000000E+00
		 2.06041000E+00	-2.20194000E-02	 0.00000000E+00
		 2.16685000E+00	-2.34664000E-02	 0.00000000E+00
		 2.16685000E+00	-2.34664000E-02	 0.00000000E+00
		 2.22677000E+00	-2.41882000E-02	 0.00000000E+00
		 2.22677000E+00	-2.41882000E-02	 0.00000000E+00
		 2.24170000E+00	-2.41394000E-02	 0.00000000E+00