    1C
    1C
    1UUSER
    1UDATE              25.january.2020     
    1UTIME              13:40:45
    1UHOST
    1UPGM               CalculiX
    1UDIR
    1UDBN
    2C                                                                   1
 -1         1 2.00000E+00 1.00000E+00 0.00000E+00
 -1         2 2.10000E+00 1.00000E+00 0.00000E+00
 -1         3 2.10000E+00 1.00000E+00 1.00000E-01
 -1         4 2.00000E+00 1.00000E+00 1.00000E-01
 -1         5 2.00000E+00 9.00000E-01 0.00000E+00
 -1         6 2.10000E+00 9.00000E-01-1.38778E-17
 -1         7 2.10000E+00 9.00000E-01 1.00000E-01
 -1         8 2.00000E+00 9.00000E-01 1.00000E-01
 -1         9 2.00000E+00 8.00000E-01 0.00000E+00
 -1        10 2.10000E+00 8.00000E-01-6.93889E-18
 -1        11 2.10000E+00 8.00000E-01 1.00000E-01
 -1        12 2.00000E+00 8.00000E-01 1.00000E-01
 -1        13 2.00000E+00 7.00000E-01 0.00000E+00
 -1        14 2.10000E+00 7.00000E-01 6.93889E-18
 -1        15 2.10000E+00 7.00000E-01 1.00000E-01
 -1        16 2.00000E+00 7.00000E-01 1.00000E-01
 -1        17 2.00000E+00 6.00000E-01 0.00000E+00
 -1        18 2.10000E+00 6.00000E-01 0.00000E+00
 -1        19 2.10000E+00 6.00000E-01 1.00000E-01
 -1        20 2.00000E+00 6.00000E-01 1.00000E-01
 -1        21 2.00000E+00 5.00000E-01 0.00000E+00
 -1        22 2.10000E+00 5.00000E-01 0.00000E+00
 -1        23 2.10000E+00 5.00000E-01 1.00000E-01
 -1        24 2.00000E+00 5.00000E-01 1.00000E-01
 -1        25 2.00000E+00 4.00000E-01 0.00000E+00
 -1        26 2.10000E+00 4.00000E-01-6.93889E-18
 -1        27 2.10000E+00 4.00000E-01 1.00000E-01
 -1        28 2.00000E+00 4.00000E-01 1.00000E-01
 -1        29 2.00000E+00 3.00000E-01 0.00000E+00
 -1        30 2.10000E+00 3.00000E-01 2.08167E-17
 -1        31 2.10000E+00 3.00000E-01 1.00000E-01
 -1        32 2.00000E+00 3.00000E-01 1.00000E-01
 -1        33 2.00000E+00 2.00000E-01 0.00000E+00
 -1        34 2.10000E+00 2.00000E-01-6.93889E-18
 -1        35 2.10000E+00 2.00000E-01 1.00000E-01
 -1        36 2.00000E+00 2.00000E-01 1.00000E-01
 -1        37 2.00000E+00 1.00000E-01 0.00000E+00
 -1        38 2.10000E+00 1.00000E-01-6.93889E-18
 -1        39 2.10000E+00 1.00000E-01 1.00000E-01
 -1        40 2.00000E+00 1.00000E-01 1.00000E-01
 -1        41 2.00000E+00 0.00000E+00 0.00000E+00
 -1        42 2.10000E+00 0.00000E+00 0.00000E+00
 -1        43 2.10000E+00 0.00000E+00 1.00000E-01
 -1        44 2.00000E+00 0.00000E+00 1.00000E-01
 -1        45 2.20000E+00 1.00000E+00 0.00000E+00
 -1        46 2.20000E+00 1.00000E+00 1.00000E-01
 -1        47 2.20000E+00 9.00000E-01 6.93889E-18
 -1        48 2.20000E+00 9.00000E-01 1.00000E-01
 -1        49 2.20000E+00 8.00000E-01 1.38778E-17
 -1        50 2.20000E+00 8.00000E-01 1.00000E-01
 -1        51 2.20000E+00 7.00000E-01-6.93889E-18
 -1        52 2.20000E+00 7.00000E-01 1.00000E-01
 -1        53 2.20000E+00 6.00000E-01 6.93889E-18
 -1        54 2.20000E+00 6.00000E-01 1.00000E-01
 -1        55 2.20000E+00 5.00000E-01-1.38778E-17
 -1        56 2.20000E+00 5.00000E-01 1.00000E-01
 -1        57 2.20000E+00 4.00000E-01-2.08167E-17
 -1        58 2.20000E+00 4.00000E-01 1.00000E-01
 -1        59 2.20000E+00 3.00000E-01 1.38778E-17
 -1        60 2.20000E+00 3.00000E-01 1.00000E-01
 -1        61 2.20000E+00 2.00000E-01-6.93889E-18
 -1        62 2.20000E+00 2.00000E-01 1.00000E-01
 -1        63 2.20000E+00 1.00000E-01 0.00000E+00
 -1        64 2.20000E+00 1.00000E-01 1.00000E-01
 -1        65 2.20000E+00 0.00000E+00 0.00000E+00
 -1        66 2.20000E+00 0.00000E+00 1.00000E-01
 -1        67 2.30000E+00 1.00000E+00 0.00000E+00
 -1        68 2.30000E+00 1.00000E+00 1.00000E-01
 -1        69 2.30000E+00 9.00000E-01 0.00000E+00
 -1        70 2.30000E+00 9.00000E-01 1.00000E-01
 -1        71 2.30000E+00 8.00000E-01-2.08167E-17
 -1        72 2.30000E+00 8.00000E-01 1.00000E-01
 -1        73 2.30000E+00 7.00000E-01-2.08167E-17
 -1        74 2.30000E+00 7.00000E-01 1.00000E-01
 -1        75 2.30000E+00 6.00000E-01-6.93889E-18
 -1        76 2.30000E+00 6.00000E-01 1.00000E-01
 -1        77 2.30000E+00 5.00000E-01-6.93889E-18
 -1        78 2.30000E+00 5.00000E-01 1.00000E-01
 -1        79 2.30000E+00 4.00000E-01-6.93889E-18
 -1        80 2.30000E+00 4.00000E-01 1.00000E-01
 -1        81 2.30000E+00 3.00000E-01 0.00000E+00
 -1        82 2.30000E+00 3.00000E-01 1.00000E-01
 -1        83 2.30000E+00 2.00000E-01-6.93889E-18
 -1        84 2.30000E+00 2.00000E-01 1.00000E-01
 -1        85 2.30000E+00 1.00000E-01 6.93889E-18
 -1        86 2.30000E+00 1.00000E-01 1.00000E-01
 -1        87 2.30000E+00 0.00000E+00 0.00000E+00
 -1        88 2.30000E+00 0.00000E+00 1.00000E-01
 -1        89 2.40000E+00 1.00000E+00 0.00000E+00
 -1        90 2.40000E+00 1.00000E+00 1.00000E-01
 -1        91 2.40000E+00 9.00000E-01 0.00000E+00
 -1        92 2.40000E+00 9.00000E-01 1.00000E-01
 -1        93 2.40000E+00 8.00000E-01 6.93889E-18
 -1        94 2.40000E+00 8.00000E-01 1.00000E-01
 -1        95 2.40000E+00 7.00000E-01-1.38778E-17
 -1        96 2.40000E+00 7.00000E-01 1.00000E-01
 -1        97 2.40000E+00 6.00000E-01 6.93889E-18
 -1        98 2.40000E+00 6.00000E-01 1.00000E-01
 -1        99 2.40000E+00 5.00000E-01-6.93889E-18
 -1       100 2.40000E+00 5.00000E-01 1.00000E-01
 -1       101 2.40000E+00 4.00000E-01-1.38778E-17
 -1       102 2.40000E+00 4.00000E-01 1.00000E-01
 -1       103 2.40000E+00 3.00000E-01 2.08167E-17
 -1       104 2.40000E+00 3.00000E-01 1.00000E-01
 -1       105 2.40000E+00 2.00000E-01-6.93889E-18
 -1       106 2.40000E+00 2.00000E-01 1.00000E-01
 -1       107 2.40000E+00 1.00000E-01-1.38778E-17
 -1       108 2.40000E+00 1.00000E-01 1.00000E-01
 -1       109 2.40000E+00 0.00000E+00 0.00000E+00
 -1       110 2.40000E+00 0.00000E+00 1.00000E-01
 -1       111 2.50000E+00 1.00000E+00 0.00000E+00
 -1       112 2.50000E+00 1.00000E+00 1.00000E-01
 -1       113 2.50000E+00 9.00000E-01-1.38778E-17
 -1       114 2.50000E+00 9.00000E-01 1.00000E-01
 -1       115 2.50000E+00 8.00000E-01 6.93889E-18
 -1       116 2.50000E+00 8.00000E-01 1.00000E-01
 -1       117 2.50000E+00 7.00000E-01-6.93889E-18
 -1       118 2.50000E+00 7.00000E-01 1.00000E-01
 -1       119 2.50000E+00 6.00000E-01 6.93889E-18
 -1       120 2.50000E+00 6.00000E-01 1.00000E-01
 -1       121 2.50000E+00 5.00000E-01 0.00000E+00
 -1       122 2.50000E+00 5.00000E-01 1.00000E-01
 -1       123 2.50000E+00 4.00000E-01 0.00000E+00
 -1       124 2.50000E+00 4.00000E-01 1.00000E-01
 -1       125 2.50000E+00 3.00000E-01 6.93889E-18
 -1       126 2.50000E+00 3.00000E-01 1.00000E-01
 -1       127 2.50000E+00 2.00000E-01 6.93889E-18
 -1       128 2.50000E+00 2.00000E-01 1.00000E-01
 -1       129 2.50000E+00 1.00000E-01-6.93889E-18
 -1       130 2.50000E+00 1.00000E-01 1.00000E-01
 -1       131 2.50000E+00 0.00000E+00 0.00000E+00
 -1       132 2.50000E+00 0.00000E+00 1.00000E-01
 -1       133 2.60000E+00 1.00000E+00 0.00000E+00
 -1       134 2.60000E+00 1.00000E+00 1.00000E-01
 -1       135 2.60000E+00 9.00000E-01-1.38778E-17
 -1       136 2.60000E+00 9.00000E-01 1.00000E-01
 -1       137 2.60000E+00 8.00000E-01-6.93889E-18
 -1       138 2.60000E+00 8.00000E-01 1.00000E-01
 -1       139 2.60000E+00 7.00000E-01-1.38778E-17
 -1       140 2.60000E+00 7.00000E-01 1.00000E-01
 -1       141 2.60000E+00 6.00000E-01-1.38778E-17
 -1       142 2.60000E+00 6.00000E-01 1.00000E-01
 -1       143 2.60000E+00 5.00000E-01-6.93889E-18
 -1       144 2.60000E+00 5.00000E-01 1.00000E-01
 -1       145 2.60000E+00 4.00000E-01-6.93889E-18
 -1       146 2.60000E+00 4.00000E-01 1.00000E-01
 -1       147 2.60000E+00 3.00000E-01 2.08167E-17
 -1       148 2.60000E+00 3.00000E-01 1.00000E-01
 -1       149 2.60000E+00 2.00000E-01-6.93889E-18
 -1       150 2.60000E+00 2.00000E-01 1.00000E-01
 -1       151 2.60000E+00 1.00000E-01-2.77556E-17
 -1       152 2.60000E+00 1.00000E-01 1.00000E-01
 -1       153 2.60000E+00 0.00000E+00 0.00000E+00
 -1       154 2.60000E+00 0.00000E+00 1.00000E-01
 -1       155 2.70000E+00 1.00000E+00 0.00000E+00
 -1       156 2.70000E+00 1.00000E+00 1.00000E-01
 -1       157 2.70000E+00 9.00000E-01 6.93889E-18
 -1       158 2.70000E+00 9.00000E-01 1.00000E-01
 -1       159 2.70000E+00 8.00000E-01 0.00000E+00
 -1       160 2.70000E+00 8.00000E-01 1.00000E-01
 -1       161 2.70000E+00 7.00000E-01 0.00000E+00
 -1       162 2.70000E+00 7.00000E-01 1.00000E-01
 -1       163 2.70000E+00 6.00000E-01 2.08167E-17
 -1       164 2.70000E+00 6.00000E-01 1.00000E-01
 -1       165 2.70000E+00 5.00000E-01-6.93889E-18
 -1       166 2.70000E+00 5.00000E-01 1.00000E-01
 -1       167 2.70000E+00 4.00000E-01-1.38778E-17
 -1       168 2.70000E+00 4.00000E-01 1.00000E-01
 -1       169 2.70000E+00 3.00000E-01 1.38778E-17
 -1       170 2.70000E+00 3.00000E-01 1.00000E-01
 -1       171 2.70000E+00 2.00000E-01-6.93889E-18
 -1       172 2.70000E+00 2.00000E-01 1.00000E-01
 -1       173 2.70000E+00 1.00000E-01 2.08167E-17
 -1       174 2.70000E+00 1.00000E-01 1.00000E-01
 -1       175 2.70000E+00 0.00000E+00 0.00000E+00
 -1       176 2.70000E+00 0.00000E+00 1.00000E-01
 -1       177 2.80000E+00 1.00000E+00 0.00000E+00
 -1       178 2.80000E+00 1.00000E+00 1.00000E-01
 -1       179 2.80000E+00 9.00000E-01 6.93889E-18
 -1       180 2.80000E+00 9.00000E-01 1.00000E-01
 -1       181 2.80000E+00 8.00000E-01 6.93889E-18
 -1       182 2.80000E+00 8.00000E-01 1.00000E-01
 -1       183 2.80000E+00 7.00000E-01-1.38778E-17
 -1       184 2.80000E+00 7.00000E-01 1.00000E-01
 -1       185 2.80000E+00 6.00000E-01 6.93889E-18
 -1       186 2.80000E+00 6.00000E-01 1.00000E-01
 -1       187 2.80000E+00 5.00000E-01 6.93889E-18
 -1       188 2.80000E+00 5.00000E-01 1.00000E-01
 -1       189 2.80000E+00 4.00000E-01 6.93889E-18
 -1       190 2.80000E+00 4.00000E-01 1.00000E-01
 -1       191 2.80000E+00 3.00000E-01 6.93889E-18
 -1       192 2.80000E+00 3.00000E-01 1.00000E-01
 -1       193 2.80000E+00 2.00000E-01 6.93889E-18
 -1       194 2.80000E+00 2.00000E-01 1.00000E-01
 -1       195 2.80000E+00 1.00000E-01 0.00000E+00
 -1       196 2.80000E+00 1.00000E-01 1.00000E-01
 -1       197 2.80000E+00 0.00000E+00 0.00000E+00
 -1       198 2.80000E+00 0.00000E+00 1.00000E-01
 -1       199 2.90000E+00 1.00000E+00 0.00000E+00
 -1       200 2.90000E+00 1.00000E+00 1.00000E-01
 -1       201 2.90000E+00 9.00000E-01 1.38778E-17
 -1       202 2.90000E+00 9.00000E-01 1.00000E-01
 -1       203 2.90000E+00 8.00000E-01 6.93889E-18
 -1       204 2.90000E+00 8.00000E-01 1.00000E-01
 -1       205 2.90000E+00 7.00000E-01 0.00000E+00
 -1       206 2.90000E+00 7.00000E-01 1.00000E-01
 -1       207 2.90000E+00 6.00000E-01 6.93889E-18
 -1       208 2.90000E+00 6.00000E-01 1.00000E-01
 -1       209 2.90000E+00 5.00000E-01 6.93889E-18
 -1       210 2.90000E+00 5.00000E-01 1.00000E-01
 -1       211 2.90000E+00 4.00000E-01-2.08167E-17
 -1       212 2.90000E+00 4.00000E-01 1.00000E-01
 -1       213 2.90000E+00 3.00000E-01 6.93889E-18
 -1       214 2.90000E+00 3.00000E-01 1.00000E-01
 -1       215 2.90000E+00 2.00000E-01 0.00000E+00
 -1       216 2.90000E+00 2.00000E-01 1.00000E-01
 -1       217 2.90000E+00 1.00000E-01-1.38778E-17
 -1       218 2.90000E+00 1.00000E-01 1.00000E-01
 -1       219 2.90000E+00 0.00000E+00 0.00000E+00
 -1       220 2.90000E+00 0.00000E+00 1.00000E-01
 -1       221 3.00000E+00 1.00000E+00 0.00000E+00
 -1       222 3.00000E+00 1.00000E+00 1.00000E-01
 -1       223 3.00000E+00 9.00000E-01 0.00000E+00
 -1       224 3.00000E+00 9.00000E-01 1.00000E-01
 -1       225 3.00000E+00 8.00000E-01 0.00000E+00
 -1       226 3.00000E+00 8.00000E-01 1.00000E-01
 -1       227 3.00000E+00 7.00000E-01 0.00000E+00
 -1       228 3.00000E+00 7.00000E-01 1.00000E-01
 -1       229 3.00000E+00 6.00000E-01 0.00000E+00
 -1       230 3.00000E+00 6.00000E-01 1.00000E-01
 -1       231 3.00000E+00 5.00000E-01 0.00000E+00
 -1       232 3.00000E+00 5.00000E-01 1.00000E-01
 -1       233 3.00000E+00 4.00000E-01 0.00000E+00
 -1       234 3.00000E+00 4.00000E-01 1.00000E-01
 -1       235 3.00000E+00 3.00000E-01 0.00000E+00
 -1       236 3.00000E+00 3.00000E-01 1.00000E-01
 -1       237 3.00000E+00 2.00000E-01 0.00000E+00
 -1       238 3.00000E+00 2.00000E-01 1.00000E-01
 -1       239 3.00000E+00 1.00000E-01 0.00000E+00
 -1       240 3.00000E+00 1.00000E-01 1.00000E-01
 -1       241 3.00000E+00 0.00000E+00 0.00000E+00
 -1       242 3.00000E+00 0.00000E+00 1.00000E-01
 -1       243 1.00000E+00 1.00000E+00 0.00000E+00
 -1       244 1.10000E+00 1.00000E+00 0.00000E+00
 -1       245 1.10000E+00 1.00000E+00 1.00000E-01
 -1       246 1.00000E+00 1.00000E+00 1.00000E-01
 -1       247 1.00000E+00 9.00000E-01 0.00000E+00
 -1       248 1.09962E+00 9.03570E-01-1.38778E-17
 -1       249 1.09962E+00 9.03570E-01 1.00000E-01
 -1       250 1.00000E+00 9.00000E-01 1.00000E-01
 -1       251 1.00000E+00 8.00000E-01 0.00000E+00
 -1       252 1.09924E+00 8.07140E-01-6.93889E-18
 -1       253 1.09924E+00 8.07140E-01 1.00000E-01
 -1       254 1.00000E+00 8.00000E-01 1.00000E-01
 -1       255 1.00000E+00 7.00000E-01 0.00000E+00
 -1       256 1.09886E+00 7.10710E-01 6.93889E-18
 -1       257 1.09886E+00 7.10710E-01 1.00000E-01
 -1       258 1.00000E+00 7.00000E-01 1.00000E-01
 -1       259 1.00000E+00 6.00000E-01 0.00000E+00
 -1       260 1.09848E+00 6.14280E-01 0.00000E+00
 -1       261 1.09848E+00 6.14280E-01 1.00000E-01
 -1       262 1.00000E+00 6.00000E-01 1.00000E-01
 -1       263 1.00000E+00 5.00000E-01 0.00000E+00
 -1       264 1.09810E+00 5.17850E-01 0.00000E+00
 -1       265 1.09810E+00 5.17850E-01 1.00000E-01
 -1       266 1.00000E+00 5.00000E-01 1.00000E-01
 -1       267 1.00000E+00 4.00000E-01 0.00000E+00
 -1       268 1.09773E+00 4.21420E-01-6.93889E-18
 -1       269 1.09773E+00 4.21420E-01 1.00000E-01
 -1       270 1.00000E+00 4.00000E-01 1.00000E-01
 -1       271 1.00000E+00 3.00000E-01 0.00000E+00
 -1       272 1.09735E+00 3.24990E-01 2.08167E-17
 -1       273 1.09735E+00 3.24990E-01 1.00000E-01
 -1       274 1.00000E+00 3.00000E-01 1.00000E-01
 -1       275 1.00000E+00 2.00000E-01 0.00000E+00
 -1       276 1.09697E+00 2.28560E-01-6.93889E-18
 -1       277 1.09697E+00 2.28560E-01 1.00000E-01
 -1       278 1.00000E+00 2.00000E-01 1.00000E-01
 -1       279 1.00000E+00 1.00000E-01 0.00000E+00
 -1       280 1.09659E+00 1.32129E-01-6.93889E-18
 -1       281 1.09659E+00 1.32129E-01 1.00000E-01
 -1       282 1.00000E+00 1.00000E-01 1.00000E-01
 -1       283 1.00000E+00 0.00000E+00 0.00000E+00
 -1       284 1.09621E+00 3.56994E-02 0.00000E+00
 -1       285 1.09621E+00 3.56994E-02 1.00000E-01
 -1       286 1.00000E+00 0.00000E+00 1.00000E-01
 -1       287 1.20000E+00 1.00000E+00 0.00000E+00
 -1       288 1.20000E+00 1.00000E+00 1.00000E-01
 -1       289 1.19949E+00 9.06370E-01 6.93889E-18
 -1       290 1.19949E+00 9.06370E-01 1.00000E-01
 -1       291 1.19899E+00 8.12740E-01 1.38778E-17
 -1       292 1.19899E+00 8.12740E-01 1.00000E-01
 -1       293 1.19848E+00 7.19110E-01-6.93889E-18
 -1       294 1.19848E+00 7.19110E-01 1.00000E-01
 -1       295 1.19797E+00 6.25480E-01 6.93889E-18
 -1       296 1.19797E+00 6.25480E-01 1.00000E-01
 -1       297 1.19747E+00 5.31849E-01-1.38778E-17
 -1       298 1.19747E+00 5.31849E-01 1.00000E-01
 -1       299 1.19696E+00 4.38219E-01-2.08167E-17
 -1       300 1.19696E+00 4.38219E-01 1.00000E-01
 -1       301 1.19645E+00 3.44589E-01 1.38778E-17
 -1       302 1.19645E+00 3.44589E-01 1.00000E-01
 -1       303 1.19595E+00 2.50959E-01-6.93889E-18
 -1       304 1.19595E+00 2.50959E-01 1.00000E-01
 -1       305 1.19544E+00 1.57329E-01 0.00000E+00
 -1       306 1.19544E+00 1.57329E-01 1.00000E-01
 -1       307 1.19493E+00 6.36990E-02 0.00000E+00
 -1       308 1.19493E+00 6.36990E-02 1.00000E-01
 -1       309 1.30000E+00 1.00000E+00 0.00000E+00
 -1       310 1.30000E+00 1.00000E+00 1.00000E-01
 -1       311 1.29956E+00 9.08382E-01 0.00000E+00
 -1       312 1.29956E+00 9.08382E-01 1.00000E-01
 -1       313 1.29911E+00 8.16765E-01-2.08167E-17
 -1       314 1.29911E+00 8.16765E-01 1.00000E-01
 -1       315 1.29867E+00 7.25147E-01-2.08167E-17
 -1       316 1.29867E+00 7.25147E-01 1.00000E-01
 -1       317 1.29822E+00 6.33530E-01-6.93889E-18
 -1       318 1.29822E+00 6.33530E-01 1.00000E-01
 -1       319 1.29778E+00 5.41912E-01-6.93889E-18
 -1       320 1.29778E+00 5.41912E-01 1.00000E-01
 -1       321 1.29734E+00 4.50295E-01-1.38778E-17
 -1       322 1.29734E+00 4.50295E-01 1.00000E-01
 -1       323 1.29689E+00 3.58677E-01 2.08167E-17
 -1       324 1.29689E+00 3.58677E-01 1.00000E-01
 -1       325 1.29645E+00 2.67059E-01-1.38778E-17
 -1       326 1.29645E+00 2.67059E-01 1.00000E-01
 -1       327 1.29600E+00 1.75442E-01-1.38778E-17
 -1       328 1.29600E+00 1.75442E-01 1.00000E-01
 -1       329 1.29556E+00 8.38242E-02 0.00000E+00
 -1       330 1.29556E+00 8.38242E-02 1.00000E-01
 -1       331 1.40000E+00 1.00000E+00 0.00000E+00
 -1       332 1.40000E+00 1.00000E+00 1.00000E-01
 -1       333 1.39975E+00 9.09595E-01 0.00000E+00
 -1       334 1.39975E+00 9.09595E-01 1.00000E-01
 -1       335 1.39949E+00 8.19190E-01 6.93889E-18
 -1       336 1.39949E+00 8.19190E-01 1.00000E-01
 -1       337 1.39924E+00 7.28785E-01-1.38778E-17
 -1       338 1.39924E+00 7.28785E-01 1.00000E-01
 -1       339 1.39898E+00 6.38380E-01 6.93889E-18
 -1       340 1.39898E+00 6.38380E-01 1.00000E-01
 -1       341 1.39873E+00 5.47975E-01-6.93889E-18
 -1       342 1.39873E+00 5.47975E-01 1.00000E-01
 -1       343 1.39848E+00 4.57570E-01-1.38778E-17
 -1       344 1.39848E+00 4.57570E-01 1.00000E-01
 -1       345 1.39822E+00 3.67165E-01 2.08167E-17
 -1       346 1.39822E+00 3.67165E-01 1.00000E-01
 -1       347 1.39797E+00 2.76760E-01-6.93889E-18
 -1       348 1.39797E+00 2.76760E-01 1.00000E-01
 -1       349 1.39771E+00 1.86355E-01-1.38778E-17
 -1       350 1.39771E+00 1.86355E-01 1.00000E-01
 -1       351 1.39746E+00 9.59497E-02 0.00000E+00
 -1       352 1.39746E+00 9.59497E-02 1.00000E-01
 -1       353 1.50000E+00 1.00000E+00 0.00000E+00
 -1       354 1.50000E+00 1.00000E+00 1.00000E-01
 -1       355 1.50000E+00 9.10000E-01-1.38778E-17
 -1       356 1.50000E+00 9.10000E-01 1.00000E-01
 -1       357 1.50000E+00 8.20000E-01-1.38778E-17
 -1       358 1.50000E+00 8.20000E-01 1.00000E-01
 -1       359 1.50000E+00 7.30000E-01-6.93889E-18
 -1       360 1.50000E+00 7.30000E-01 1.00000E-01
 -1       361 1.50000E+00 6.40000E-01 6.93889E-18
 -1       362 1.50000E+00 6.40000E-01 1.00000E-01
 -1       363 1.50000E+00 5.50000E-01 6.93889E-18
 -1       364 1.50000E+00 5.50000E-01 1.00000E-01
 -1       365 1.50000E+00 4.60000E-01-1.38778E-17
 -1       366 1.50000E+00 4.60000E-01 1.00000E-01
 -1       367 1.50000E+00 3.70000E-01-1.38778E-17
 -1       368 1.50000E+00 3.70000E-01 1.00000E-01
 -1       369 1.50000E+00 2.80000E-01-6.93889E-18
 -1       370 1.50000E+00 2.80000E-01 1.00000E-01
 -1       371 1.50000E+00 1.90000E-01 0.00000E+00
 -1       372 1.50000E+00 1.90000E-01 1.00000E-01
 -1       373 1.50000E+00 1.00000E-01 0.00000E+00
 -1       374 1.50000E+00 1.00000E-01 1.00000E-01
 -1       375 1.60000E+00 1.00000E+00 0.00000E+00
 -1       376 1.60000E+00 1.00000E+00 1.00000E-01
 -1       377 1.60025E+00 9.09595E-01-1.38778E-17
 -1       378 1.60025E+00 9.09595E-01 1.00000E-01
 -1       379 1.60051E+00 8.19190E-01-6.93889E-18
 -1       380 1.60051E+00 8.19190E-01 1.00000E-01
 -1       381 1.60076E+00 7.28785E-01 6.93889E-18
 -1       382 1.60076E+00 7.28785E-01 1.00000E-01
 -1       383 1.60102E+00 6.38380E-01 1.38778E-17
 -1       384 1.60102E+00 6.38380E-01 1.00000E-01
 -1       385 1.60127E+00 5.47975E-01 0.00000E+00
 -1       386 1.60127E+00 5.47975E-01 1.00000E-01
 -1       387 1.60152E+00 4.57570E-01 6.93889E-18
 -1       388 1.60152E+00 4.57570E-01 1.00000E-01
 -1       389 1.60178E+00 3.67165E-01-6.93889E-18
 -1       390 1.60178E+00 3.67165E-01 1.00000E-01
 -1       391 1.60203E+00 2.76760E-01 6.93889E-18
 -1       392 1.60203E+00 2.76760E-01 1.00000E-01
 -1       393 1.60229E+00 1.86355E-01-6.93889E-18
 -1       394 1.60229E+00 1.86355E-01 1.00000E-01
 -1       395 1.60254E+00 9.59497E-02 0.00000E+00
 -1       396 1.60254E+00 9.59497E-02 1.00000E-01
 -1       397 1.70000E+00 1.00000E+00 0.00000E+00
 -1       398 1.70000E+00 1.00000E+00 1.00000E-01
 -1       399 1.70044E+00 9.08382E-01 6.93889E-18
 -1       400 1.70044E+00 9.08382E-01 1.00000E-01
 -1       401 1.70089E+00 8.16765E-01-1.38778E-17
 -1       402 1.70089E+00 8.16765E-01 1.00000E-01
 -1       403 1.70133E+00 7.25147E-01-6.93889E-18
 -1       404 1.70133E+00 7.25147E-01 1.00000E-01
 -1       405 1.70178E+00 6.33530E-01 6.93889E-18
 -1       406 1.70178E+00 6.33530E-01 1.00000E-01
 -1       407 1.70222E+00 5.41912E-01-6.93889E-18
 -1       408 1.70222E+00 5.41912E-01 1.00000E-01
 -1       409 1.70266E+00 4.50295E-01 0.00000E+00
 -1       410 1.70266E+00 4.50295E-01 1.00000E-01
 -1       411 1.70311E+00 3.58677E-01 6.93889E-18
 -1       412 1.70311E+00 3.58677E-01 1.00000E-01
 -1       413 1.70355E+00 2.67059E-01-6.93889E-18
 -1       414 1.70355E+00 2.67059E-01 1.00000E-01
 -1       415 1.70400E+00 1.75442E-01 0.00000E+00
 -1       416 1.70400E+00 1.75442E-01 1.00000E-01
 -1       417 1.70444E+00 8.38242E-02 0.00000E+00
 -1       418 1.70444E+00 8.38242E-02 1.00000E-01
 -1       419 1.80000E+00 1.00000E+00 0.00000E+00
 -1       420 1.80000E+00 1.00000E+00 1.00000E-01
 -1       421 1.80051E+00 9.06370E-01 6.93889E-18
 -1       422 1.80051E+00 9.06370E-01 1.00000E-01
 -1       423 1.80101E+00 8.12740E-01 6.93889E-18
 -1       424 1.80101E+00 8.12740E-01 1.00000E-01
 -1       425 1.80152E+00 7.19110E-01-1.38778E-17
 -1       426 1.80152E+00 7.19110E-01 1.00000E-01
 -1       427 1.80203E+00 6.25480E-01 6.93889E-18
 -1       428 1.80203E+00 6.25480E-01 1.00000E-01
 -1       429 1.80253E+00 5.31849E-01 2.08167E-17
 -1       430 1.80253E+00 5.31849E-01 1.00000E-01
 -1       431 1.80304E+00 4.38219E-01 6.93889E-18
 -1       432 1.80304E+00 4.38219E-01 1.00000E-01
 -1       433 1.80355E+00 3.44589E-01-6.93889E-18
 -1       434 1.80355E+00 3.44589E-01 1.00000E-01
 -1       435 1.80405E+00 2.50959E-01 0.00000E+00
 -1       436 1.80405E+00 2.50959E-01 1.00000E-01
 -1       437 1.80456E+00 1.57329E-01 1.38778E-17
 -1       438 1.80456E+00 1.57329E-01 1.00000E-01
 -1       439 1.80507E+00 6.36990E-02 0.00000E+00
 -1       440 1.80507E+00 6.36990E-02 1.00000E-01
 -1       441 1.90000E+00 1.00000E+00 0.00000E+00
 -1       442 1.90000E+00 1.00000E+00 1.00000E-01
 -1       443 1.90038E+00 9.03570E-01 6.93889E-18
 -1       444 1.90038E+00 9.03570E-01 1.00000E-01
 -1       445 1.90076E+00 8.07140E-01 1.38778E-17
 -1       446 1.90076E+00 8.07140E-01 1.00000E-01
 -1       447 1.90114E+00 7.10710E-01-1.38778E-17
 -1       448 1.90114E+00 7.10710E-01 1.00000E-01
 -1       449 1.90152E+00 6.14280E-01 6.93889E-18
 -1       450 1.90152E+00 6.14280E-01 1.00000E-01
 -1       451 1.90190E+00 5.17850E-01 1.38778E-17
 -1       452 1.90190E+00 5.17850E-01 1.00000E-01
 -1       453 1.90227E+00 4.21420E-01-1.38778E-17
 -1       454 1.90227E+00 4.21420E-01 1.00000E-01
 -1       455 1.90265E+00 3.24990E-01 6.93889E-18
 -1       456 1.90265E+00 3.24990E-01 1.00000E-01
 -1       457 1.90303E+00 2.28560E-01-1.38778E-17
 -1       458 1.90303E+00 2.28560E-01 1.00000E-01
 -1       459 1.90341E+00 1.32129E-01 6.93889E-18
 -1       460 1.90341E+00 1.32129E-01 1.00000E-01
 -1       461 1.90379E+00 3.56994E-02 0.00000E+00
 -1       462 1.90379E+00 3.56994E-02 1.00000E-01
 -1       463 0.00000E+00 1.00000E+00 0.00000E+00
 -1       464 1.00000E-01 1.00000E+00 0.00000E+00
 -1       465 1.00000E-01 1.00000E+00 1.00000E-01
 -1       466 0.00000E+00 1.00000E+00 1.00000E-01
 -1       467 0.00000E+00 9.00000E-01 0.00000E+00
 -1       468 1.00000E-01 9.00000E-01-6.93889E-18
 -1       469 1.00000E-01 9.00000E-01 1.00000E-01
 -1       470 0.00000E+00 9.00000E-01 1.00000E-01
 -1       471 0.00000E+00 8.00000E-01 0.00000E+00
 -1       472 1.00000E-01 8.00000E-01-2.08167E-17
 -1       473 1.00000E-01 8.00000E-01 1.00000E-01
 -1       474 0.00000E+00 8.00000E-01 1.00000E-01
 -1       475 0.00000E+00 7.00000E-01 0.00000E+00
 -1       476 1.00000E-01 7.00000E-01 6.93889E-18
 -1       477 1.00000E-01 7.00000E-01 1.00000E-01
 -1       478 0.00000E+00 7.00000E-01 1.00000E-01
 -1       479 0.00000E+00 6.00000E-01 0.00000E+00
 -1       480 1.00000E-01 6.00000E-01-6.93889E-18
 -1       481 1.00000E-01 6.00000E-01 1.00000E-01
 -1       482 0.00000E+00 6.00000E-01 1.00000E-01
 -1       483 0.00000E+00 5.00000E-01 0.00000E+00
 -1       484 1.00000E-01 5.00000E-01 0.00000E+00
 -1       485 1.00000E-01 5.00000E-01 1.00000E-01
 -1       486 0.00000E+00 5.00000E-01 1.00000E-01
 -1       487 0.00000E+00 4.00000E-01 0.00000E+00
 -1       488 1.00000E-01 4.00000E-01-6.93889E-18
 -1       489 1.00000E-01 4.00000E-01 1.00000E-01
 -1       490 0.00000E+00 4.00000E-01 1.00000E-01
 -1       491 0.00000E+00 3.00000E-01 0.00000E+00
 -1       492 1.00000E-01 3.00000E-01 0.00000E+00
 -1       493 1.00000E-01 3.00000E-01 1.00000E-01
 -1       494 0.00000E+00 3.00000E-01 1.00000E-01
 -1       495 0.00000E+00 2.00000E-01 0.00000E+00
 -1       496 1.00000E-01 2.00000E-01 6.93889E-18
 -1       497 1.00000E-01 2.00000E-01 1.00000E-01
 -1       498 0.00000E+00 2.00000E-01 1.00000E-01
 -1       499 0.00000E+00 1.00000E-01 0.00000E+00
 -1       500 1.00000E-01 1.00000E-01-1.38778E-17
 -1       501 1.00000E-01 1.00000E-01 1.00000E-01
 -1       502 0.00000E+00 1.00000E-01 1.00000E-01
 -1       503 0.00000E+00 0.00000E+00 0.00000E+00
 -1       504 1.00000E-01 0.00000E+00 0.00000E+00
 -1       505 1.00000E-01 0.00000E+00 1.00000E-01
 -1       506 0.00000E+00 0.00000E+00 1.00000E-01
 -1       507 2.00000E-01 1.00000E+00 0.00000E+00
 -1       508 2.00000E-01 1.00000E+00 1.00000E-01
 -1       509 2.00000E-01 9.00000E-01 1.38778E-17
 -1       510 2.00000E-01 9.00000E-01 1.00000E-01
 -1       511 2.00000E-01 8.00000E-01 1.38778E-17
 -1       512 2.00000E-01 8.00000E-01 1.00000E-01
 -1       513 2.00000E-01 7.00000E-01-1.38778E-17
 -1       514 2.00000E-01 7.00000E-01 1.00000E-01
 -1       515 2.00000E-01 6.00000E-01 2.08167E-17
 -1       516 2.00000E-01 6.00000E-01 1.00000E-01
 -1       517 2.00000E-01 5.00000E-01-6.93889E-18
 -1       518 2.00000E-01 5.00000E-01 1.00000E-01
 -1       519 2.00000E-01 4.00000E-01-2.08167E-17
 -1       520 2.00000E-01 4.00000E-01 1.00000E-01
 -1       521 2.00000E-01 3.00000E-01 0.00000E+00
 -1       522 2.00000E-01 3.00000E-01 1.00000E-01
 -1       523 2.00000E-01 2.00000E-01 1.38778E-17
 -1       524 2.00000E-01 2.00000E-01 1.00000E-01
 -1       525 2.00000E-01 1.00000E-01 1.38778E-17
 -1       526 2.00000E-01 1.00000E-01 1.00000E-01
 -1       527 2.00000E-01 0.00000E+00 0.00000E+00
 -1       528 2.00000E-01 0.00000E+00 1.00000E-01
 -1       529 3.00000E-01 1.00000E+00 0.00000E+00
 -1       530 3.00000E-01 1.00000E+00 1.00000E-01
 -1       531 3.00000E-01 9.00000E-01 1.38778E-17
 -1       532 3.00000E-01 9.00000E-01 1.00000E-01
 -1       533 3.00000E-01 8.00000E-01 6.93889E-18
 -1       534 3.00000E-01 8.00000E-01 1.00000E-01
 -1       535 3.00000E-01 7.00000E-01-2.08167E-17
 -1       536 3.00000E-01 7.00000E-01 1.00000E-01
 -1       537 3.00000E-01 6.00000E-01-1.38778E-17
 -1       538 3.00000E-01 6.00000E-01 1.00000E-01
 -1       539 3.00000E-01 5.00000E-01-6.93889E-18
 -1       540 3.00000E-01 5.00000E-01 1.00000E-01
 -1       541 3.00000E-01 4.00000E-01-1.38778E-17
 -1       542 3.00000E-01 4.00000E-01 1.00000E-01
 -1       543 3.00000E-01 3.00000E-01-2.08167E-17
 -1       544 3.00000E-01 3.00000E-01 1.00000E-01
 -1       545 3.00000E-01 2.00000E-01-6.93889E-18
 -1       546 3.00000E-01 2.00000E-01 1.00000E-01
 -1       547 3.00000E-01 1.00000E-01 6.93889E-18
 -1       548 3.00000E-01 1.00000E-01 1.00000E-01
 -1       549 3.00000E-01 0.00000E+00 0.00000E+00
 -1       550 3.00000E-01 0.00000E+00 1.00000E-01
 -1       551 4.00000E-01 1.00000E+00 0.00000E+00
 -1       552 4.00000E-01 1.00000E+00 1.00000E-01
 -1       553 4.00000E-01 9.00000E-01-6.93889E-18
 -1       554 4.00000E-01 9.00000E-01 1.00000E-01
 -1       555 4.00000E-01 8.00000E-01-6.93889E-18
 -1       556 4.00000E-01 8.00000E-01 1.00000E-01
 -1       557 4.00000E-01 7.00000E-01-2.08167E-17
 -1       558 4.00000E-01 7.00000E-01 1.00000E-01
 -1       559 4.00000E-01 6.00000E-01-6.93889E-18
 -1       560 4.00000E-01 6.00000E-01 1.00000E-01
 -1       561 4.00000E-01 5.00000E-01-6.93889E-18
 -1       562 4.00000E-01 5.00000E-01 1.00000E-01
 -1       563 4.00000E-01 4.00000E-01-1.38778E-17
 -1       564 4.00000E-01 4.00000E-01 1.00000E-01
 -1       565 4.00000E-01 3.00000E-01-2.08167E-17
 -1       566 4.00000E-01 3.00000E-01 1.00000E-01
 -1       567 4.00000E-01 2.00000E-01-1.38778E-17
 -1       568 4.00000E-01 2.00000E-01 1.00000E-01
 -1       569 4.00000E-01 1.00000E-01-1.38778E-17
 -1       570 4.00000E-01 1.00000E-01 1.00000E-01
 -1       571 4.00000E-01 0.00000E+00 0.00000E+00
 -1       572 4.00000E-01 0.00000E+00 1.00000E-01
 -1       573 5.00000E-01 1.00000E+00 0.00000E+00
 -1       574 5.00000E-01 1.00000E+00 1.00000E-01
 -1       575 5.00000E-01 9.00000E-01-6.93889E-18
 -1       576 5.00000E-01 9.00000E-01 1.00000E-01
 -1       577 5.00000E-01 8.00000E-01-6.93889E-18
 -1       578 5.00000E-01 8.00000E-01 1.00000E-01
 -1       579 5.00000E-01 7.00000E-01-6.93889E-18
 -1       580 5.00000E-01 7.00000E-01 1.00000E-01
 -1       581 5.00000E-01 6.00000E-01 6.93889E-18
 -1       582 5.00000E-01 6.00000E-01 1.00000E-01
 -1       583 5.00000E-01 5.00000E-01 6.93889E-18
 -1       584 5.00000E-01 5.00000E-01 1.00000E-01
 -1       585 5.00000E-01 4.00000E-01-1.38778E-17
 -1       586 5.00000E-01 4.00000E-01 1.00000E-01
 -1       587 5.00000E-01 3.00000E-01 1.38778E-17
 -1       588 5.00000E-01 3.00000E-01 1.00000E-01
 -1       589 5.00000E-01 2.00000E-01 6.93889E-18
 -1       590 5.00000E-01 2.00000E-01 1.00000E-01
 -1       591 5.00000E-01 1.00000E-01-6.93889E-18
 -1       592 5.00000E-01 1.00000E-01 1.00000E-01
 -1       593 5.00000E-01 0.00000E+00 0.00000E+00
 -1       594 5.00000E-01 0.00000E+00 1.00000E-01
 -1       595 6.00000E-01 1.00000E+00 0.00000E+00