<?xml version="1.0"?>
<VTKFile type="UnstructuredGrid" version="0.1" byte_order="LittleEndian">
	<UnstructuredGrid>
		<Piece NumberOfPoints="400" NumberOfCells="99">
			<Points>
				<DataArray type="Float64" NumberOfComponents="3" format="ascii">
					 0.00000000E+00	 0.00000000E+00	 1.00000000E-01
					 0.00000000E+00	 0.00000000E+00	 0.00000000E+00
					 0.00000000E+00	 4.67197000E-04	 0.00000000E+00
					 0.00000000E+00	 4.67197000E-04	 1.00000000E-01
					 1.00000000E-01	 0.00000000E+00	 1.00000000E-01
					 1.00000000E-01	 0.00000000E+00	 0.00000000E+00
					 1.00000000E-01	 4.67197000E-04	 0.00000000E+00
					 1.00000000E-01	 4.67197000E-04	 1.00000000E-01
					 0.00000000E+00	 9.56821000E-04	 0.00000000E+00
					 0.00000000E+00	 9.56821000E-04	 1.00000000E-01
					 1.00000000E-01	 9.56821000E-04	 0.00000000E+00
					 1.00000000E-01	 9.56821000E-04	 1.00000000E-01
					 0.00000000E+00	 1.46995000E-03	 0.00000000E+00
					 0.00000000E+00	 1.46995000E-03	 1.00000000E-01
					 1.00000000E-01	 1.46995000E-03	 0.00000000E+00
					 1.00000000E-01	 1.46995000E-03	 1.00000000E-01
					 0.00000000E+00	 2.00771000E-03	 0.00000000E+00
					 0.00000000E+00	 2.00771000E-03	 1.00000000E-01
					 1.00000000E-01	 2.00771000E-03	 0.00000000E+00
					 1.00000000E-01	 2.00771000E-03	 1.00000000E-01
					 0.00000000E+00	 2.57129000E-03	 0.00000000E+00
					 0.00000000E+00	 2.57129000E-03	 1.00000000E-01
					 1.00000000E-01	 2.57129000E-03	 0.00000000E+00
					 1.00000000E-01	 2.57129000E-03	 1.00000000E-01
					 0.00000000E+00	 3.16192000E-03	 0.00000000E+00
					 0.00000000E+00	 3.16192000E-03	 1.00000000E-01
					 1.00000000E-01	 3.16192000E-03	 0.00000000E+00
					 1.00000000E-01	 3.16192000E-03	 1.00000000E-01
					 0.00000000E+00	 3.78091000E-03	 0.00000000E+00
					 0.00000000E+00	 3.78091000E-03	 1.00000000E-01
					 1.00000000E-01	 3.78091000E-03	 0.00000000E+00
					 1.00000000E-01	 3.78091000E-03	 1.00000000E-01
					 0.00000000E+00	 4.42961000E-03	 0.00000000E+00
					 0.00000000E+00	 4.42961000E-03	 1.00000000E-01
					 1.00000000E-01	 4.42961000E-03	 0.00000000E+00
					 1.00000000E-01	 4.42961000E-03	 1.00000000E-01
					 0.00000000E+00	 5.10946000E-03	 0.00000000E+00
					 0.00000000E+00	 5.10946000E-03	 1.00000000E-01
					 1.00000000E-01	 5.10946000E-03	 0.00000000E+00
					 1.00000000E-01	 5.10946000E-03	 1.00000000E-01
					 0.00000000E+00	 5.82194000E-03	 0.00000000E+00
					 0.00000000E+00	 5.82194000E-03	 1.00000000E-01
					 1.00000000E-01	 5.82194000E-03	 0.00000000E+00
					 1.00000000E-01	 5.82194000E-03	 1.00000000E-01
					 0.00000000E+00	 6.56862000E-03	 0.00000000E+00
					 0.00000000E+00	 6.56862000E-03	 1.00000000E-01
					 1.00000000E-01	 6.56862000E-03	 0.00000000E+00
					 1.00000000E-01	 6.56862000E-03	 1.00000000E-01
					 0.00000000E+00	 7.35115000E-03	 0.00000000E+00
					 0.00000000E+00	 7.35115000E-03	 1.00000000E-01
					 1.00000000E-01	 7.35115000E-03	 0.00000000E+00
					 1.00000000E-01	 7.35115000E-03	 1.00000000E-01
					 0.00000000E+00	 8.17124000E-03	 0.00000000E+00
					 0.00000000E+00	 8.17124000E-03	 1.00000000E-01
					 1.00000000E-01	 8.17124000E-03	 0.00000000E+00
					 1.00000000E-01	 8.17124000E-03	 1.00000000E-01
					 0.00000000E+00	 9.03070000E-03	 0.00000000E+00
					 0.00000000E+00	 9.03070000E-03	 1.00000000E-01
					 1.00000000E-01	 9.03070000E-03	 0.00000000E+00
					 1.00000000E-01	 9.03070000E-03	 1.00000000E-01
					 0.00000000E+00	 9.93142000E-03	 0.00000000E+00
					 0.00000000E+00	 9.93142000E-03	 1.00000000E-01
					 1.00000000E-01	 9.93142000E-03	 0.00000000E+00
					 1.00000000E-01	 9.93142000E-03	 1.00000000E-01
					 0.00000000E+00	 1.08754000E-02	 0.00000000E+00
					 0.00000000E+00	 1.08754000E-02	 1.00000000E-01
					 1.00000000E-01	 1.08754000E-02	 0.00000000E+00
					 1.00000000E-01	 1.08754000E-02	 1.00000000E-01
					 0.00000000E+00	 1.18647000E-02	 0.00000000E+00
					 0.00000000E+00	 1.18647000E-02	 1.00000000E-01
					 1.00000000E-01	 1.18647000E-02	 0.00000000E+00
					 1.00000000E-01	 1.18647000E-02	 1.00000000E-01
					 0.00000000E+00	 1.29014000E-02	 0.00000000E+00
					 0.00000000E+00	 1.29014000E-02	 1.00000000E-01
					 1.00000000E-01	 1.29014000E-02	 0.00000000E+00
					 1.00000000E-01	 1.29014000E-02	 1.00000000E-01
					 0.00000000E+00	 1.39880000E-02	 0.00000000E+00
					 0.00000000E+00	 1.39880000E-02	 1.00000000E-01
					 1.00000000E-01	 1.39880000E-02	 0.00000000E+00
					 1.00000000E-01	 1.39880000E-02	 1.00000000E-01
					 0.00000000E+00	 1.51267000E-02	 0.00000000E+00
					 0.00000000E+00	 1.51267000E-02	 1.00000000E-01
					 1.00000000E-01	 1.51267000E-02	 0.00000000E+00
					 1.00000000E-01	 1.51267000E-02	 1.00000000E-01
					 0.00000000E+00	 1.63200000E-02	 0.00000000E+00
					 0.00000000E+00	 1.63200000E-02	 1.00000000E-01
					 1.00000000E-01	 1.63200000E-02	 0.00000000E+00
					 1.00000000E-01	 1.63200000E-02	 1.00000000E-01
					 0.00000000E+00	 1.75707000E-02	 0.00000000E+00
					 0.00000000E+00	 1.75707000E-02	 1.00000000E-01
					 1.00000000E-01	 1.75707000E-02	 0.00000000E+00
					 1.00000000E-01	 1.75707000E-02	 1.00000000E-01
					 0.00000000E+00	 1.88814000E-02	 0.00000000E+00
					 0.00000000E+00	 1.88814000E-02	 1.00000000E-01
					 1.00000000E-01	 1.88814000E-02	 0.00000000E+00
					 1.00000000E-01	 1.88814000E-02	 1.00000000E-01
					 0.00000000E+00	 2.02550000E-02	 0.00000000E+00
					 0.00000000E+00	 2.02550000E-02	 1.00000000E-01
					 1.00000000E-01	 2.02550000E-02	 0.00000000E+00
					 1.00000000E-01	 2.02550000E-02	 1.00000000E-01
					 0.00000000E+00	 2.16945000E-02	 0.00000000E+00
					 0.00000000E+00	 2.16945000E-02	 1.00000000E-01
					 1.00000000E-01	 2.16945000E-02	 0.00000000E+00
					 1.00000000E-01	 2.16945000E-02	 1.00000000E-01
					 0.00000000E+00	 2.32032000E-02	 0.00000000E+00
					 0.00000000E+00	 2.32032000E-02	 1.00000000E-01
					 1.00000000E-01	 2.32032000E-02	 0.00000000E+00
					 1.00000000E-01	 2.32032000E-02	 1.00000000E-01
					 0.00000000E+00	 2.47843000E-02	 0.00000000E+00
					 0.00000000E+00	 2.47843000E-02	 1.00000000E-01
					 1.00000000E-01	 2.47843000E-02	 0.00000000E+00
					 1.00000000E-01	 2.47843000E-02	 1.00000000E-01
					 0.00000000E+00	 2.64412000E-02	 0.00000000E+00
					 0.00000000E+00	 2.64412000E-02	 1.00000000E-01
					 1.00000000E-01	 2.64412000E-02	 0.00000000E+00
					 1.00000000E-01	 2.64412000E-02	 1.00000000E-01
					 0.00000000E+00	 2.81778000E-02	 0.00000000E+00
					 0.00000000E+00	 2.81778000E-02	 1.00000000E-01
					 1.00000000E-01	 2.81778000E-02	 0.00000000E+00
					 1.00000000E-01	 2.81778000E-02	 1.00000000E-01
					 0.00000000E+00	 2.99977000E-02	 0.00000000E+00
					 0.00000000E+00	 2.99977000E-02	 1.00000000E-01
					 1.00000000E-01	 2.99977000E-02	 0.00000000E+00
					 1.00000000E-01	 2.99977000E-02	 1.00000000E-01
					 0.00000000E+00	 3.19049000E-02	 0.00000000E+00
					 0.00000000E+00	 3.19049000E-02	 1.00000000E-01
					 1.00000000E-01	 3.19049000E-02	 0.00000000E+00
					 1.00000000E-01	 3.19049000E-02	 1.00000000E-01
					 0.00000000E+00	 3.39037000E-02	 0.00000000E+00
					 0.00000000E+00	 3.39037000E-02	 1.00000000E-01
					 1.00000000E-01	 3.39037000E-02	 0.00000000E+00
					 1.00000000E-01	 3.39037000E-02	 1.00000000E-01
					 0.00000000E+00	 3.59985000E-02	 0.00000000E+00
					 0.00000000E+00	 3.59985000E-02	 1.00000000E-01
					 1.00000000E-01	 3.59985000E-02	 0.00000000E+00
					 1.00000000E-01	 3.59985000E-02	 1.00000000E-01
					 0.00000000E+00	 3.81938000E-02	 0.00000000E+00
					 0.00000000E+00	 3.81938000E-02	 1.00000000E-01
					 1.00000000E-01	 3.81938000E-02	 0.00000000E+00
					 1.00000000E-01	 3.81938000E-02	 1.00000000E-01
					 0.00000000E+00	 4.04945000E-02	 0.00000000E+00
					 0.00000000E+00	 4.04945000E-02	 1.00000000E-01
					 1.00000000E-01	 4.04945000E-02	 0.00000000E+00
					 1.00000000E-01	 4.04945000E-02	 1.00000000E-01
					 0.00000000E+00	 4.29057000E-02	 0.00000000E+00
					 0.00000000E+00	 4.29057000E-02	 1.00000000E-01
					 1.00000000E-01	 4.29057000E-02	 0.00000000E+00
					 1.00000000E-01	 4.29057000E-02	 1.00000000E-01
					 0.00000000E+00	 4.54326000E-02	 0.00000000E+00
					 0.00000000E+00	 4.54326000E-02	 1.00000000E-01
					 1.00000000E-01	 4.54326000E-02	 0.00000000E+00
					 1.00000000E-01	 4.54326000E-02	 1.00000000E-01
					 0.00000000E+00	 4.80808000E-02	 0.00000000E+00
					 0.00000000E+00	 4.80808000E-02	 1.00000000E-01
					 1.00000000E-01	 4.80808000E-02	 0.00000000E+00
					 1.00000000E-01	 4.80808000E-02	 1.00000000E-01
					 0.00000000E+00	 5.08562000E-02	 0.00000000E+00
					 0.00000000E+00	 5.08562000E-02	 1.00000000E-01
					 1.00000000E-01	 5.08562000E-02	 0.00000000E+00
					 1.00000000E-01	 5.08562000E-02	 1.00000000E-01
					 0.00000000E+00	 5.37648000E-02	 0.00000000E+00
					 0.00000000E+00	 5.37648000E-02	 1.00000000E-01
					 1.00000000E-01	 5.37648000E-02	 0.00000000E+00
					 1.00000000E-01	 5.37648000E-02	 1.00000000E-01
					 0.00000000E+00	 5.68130000E-02	 0.00000000E+00
					 0.00000000E+00	 5.68130000E-02	 1.00000000E-01
					 1.00000000E-01	 5.68130000E-02	 0.00000000E+00
					 1.00000000E-01	 5.68130000E-02	 1.00000000E-01
					 0.00000000E+00	 6.00075000E-02	 0.00000000E+00
					 0.00000000E+00	 6.00075000E-02	 1.00000000E-01
					 1.00000000E-01	 6.00075000E-02	 0.00000000E+00
					 1.00000000E-01	 6.00075000E-02	 1.00000000E-01
					 0.00000000E+00	 6.33554000E-02	 0.00000000E+00
					 0.00000000E+00	 6.33554000E-02	 1.00000000E-01
					 1.00000000E-01	 6.33554000E-02	 0.00000000E+00
					 1.00000000E-01	 6.33554000E-02	 1.00000000E-01
					 0.00000000E+00	 6.68640000E-02	 0.00000000E+00
					 0.00000000E+00	 6.68640000E-02	 1.00000000E-01
					 1.00000000E-01	 6.68640000E-02	 0.00000000E+00
					 1.00000000E-01	 6.68640000E-02	 1.00000000E-01
					 0.00000000E+00	 7.05411000E-02	 0.00000000E+00
					 0.00000000E+00	 7.05411000E-02	 1.00000000E-01
					 1.00000000E-01	 7.05411000E-02	 0.00000000E+00
					 1.00000000E-01	 7.05411000E-02	 1.00000000E-01
[...]
			<PointData>
				<DataArray type="Float32" Name="V3DF" NumberOfComponents="3" ComponentName0="V1" ComponentName1="V2" ComponentName2="V3" format="ascii">
					 1.00000000E+00	 0.00000000E+00	 0.00000000E+00
					 1.00000000E+00	 0.00000000E+00	 0.00000000E+00
					 9.99552000E-01	 8.31706000E-08	 0.00000000E+00
					 9.99552000E-01	 8.31706000E-08	 0.00000000E+00
					 1.00000000E+00	 0.00000000E+00	 0.00000000E+00
					 1.00000000E+00	 0.00000000E+00	 0.00000000E+00
					 9.99552000E-01	 8.31706000E-08	 0.00000000E+00
					 9.99552000E-01	 8.31706000E-08	 0.00000000E+00
					 9.99083000E-01	 1.37986000E-07	 0.00000000E+00
					 9.99083000E-01	 1.37986000E-07	 0.00000000E+00
					 9.99083000E-01	 1.37986000E-07	 0.00000000E+00
					 9.99083000E-01	 1.37986000E-07	 0.00000000E+00
					 9.98592000E-01	 2.11973000E-07	 0.00000000E+00
					 9.98592000E-01	 2.11973000E-07	 0.00000000E+00
					 9.98592000E-01	 2.11973000E-07	 0.00000000E+00
					 9.98592000E-01	 2.11973000E-07	 0.00000000E+00
					 9.98076000E-01	 2.86162000E-07	 0.00000000E+00
					 9.98076000E-01	 2.86162000E-07	 0.00000000E+00
					 9.98076000E-01	 2.86162000E-07	 0.00000000E+00
					 9.98076000E-01	 2.86162000E-07	 0.00000000E+00
					 9.97536000E-01	 3.63228000E-07	 0.00000000E+00
					 9.97536000E-01	 3.63228000E-07	 0.00000000E+00
					 9.97536000E-01	 3.63228000E-07	 0.00000000E+00
					 9.97536000E-01	 3.63228000E-07	 0.00000000E+00
					 9.96970000E-01	 4.43531000E-07	 0.00000000E+00
					 9.96970000E-01	 4.43531000E-07	 0.00000000E+00
					 9.96970000E-01	 4.43531000E-07	 0.00000000E+00
					 9.96970000E-01	 4.43531000E-07	 0.00000000E+00
					 9.96376000E-01	 5.27063000E-07	 0.00000000E+00
					 9.96376000E-01	 5.27063000E-07	 0.00000000E+00
					 9.96376000E-01	 5.27063000E-07	 0.00000000E+00
					 9.96376000E-01	 5.27063000E-07	 0.00000000E+00
					 9.95754000E-01	 6.13874000E-07	 0.00000000E+00
					 9.95754000E-01	 6.13874000E-07	 0.00000000E+00
					 9.95754000E-01	 6.13874000E-07	 0.00000000E+00
					 9.95754000E-01	 6.13874000E-07	 0.00000000E+00
					 9.95101000E-01	 7.03963000E-07	 0.00000000E+00
					 9.95101000E-01	 7.03963000E-07	 0.00000000E+00
					 9.95101000E-01	 7.03963000E-07	 0.00000000E+00
					 9.95101000E-01	 7.03963000E-07	 0.00000000E+00
					 9.94417000E-01	 7.97400000E-07	 0.00000000E+00
					 9.94417000E-01	 7.97400000E-07	 0.00000000E+00
					 9.94417000E-01	 7.97400000E-07	 0.00000000E+00
					 9.94417000E-01	 7.97400000E-07	 0.00000000E+00
					 9.93699000E-01	 8.94650000E-07	 0.00000000E+00
					 9.93699000E-01	 8.94650000E-07	 0.00000000E+00
					 9.93699000E-01	 8.94650000E-07	 0.00000000E+00
					 9.93699000E-01	 8.94650000E-07	 0.00000000E+00
					 9.92947000E-01	 9.94509000E-07	 0.00000000E+00
					 9.92947000E-01	 9.94509000E-07	 0.00000000E+00
					 9.92947000E-01	 9.94509000E-07	 0.00000000E+00
					 9.92947000E-01	 9.94509000E-07	 0.00000000E+00
					 9.92158000E-01	 1.09720000E-06	 0.00000000E+00
					 9.92158000E-01	 1.09720000E-06	 0.00000000E+00
					 9.92158000E-01	 1.09720000E-06	 0.00000000E+00
					 9.92158000E-01	 1.09720000E-06	 0.00000000E+00
					 9.91331000E-01	 1.20426000E-06	 0.00000000E+00
					 9.91331000E-01	 1.20426000E-06	 0.00000000E+00
					 9.91331000E-01	 1.20426000E-06	 0.00000000E+00
					 9.91331000E-01	 1.20426000E-06	 0.00000000E+00
					 9.90463000E-01	 1.31379000E-06	 0.00000000E+00
					 9.90463000E-01	 1.31379000E-06	 0.00000000E+00
					 9.90463000E-01	 1.31379000E-06	 0.00000000E+00
					 9.90463000E-01	 1.31379000E-06	 0.00000000E+00
					 9.89553000E-01	 1.42595000E-06	 0.00000000E+00
					 9.89553000E-01	 1.42595000E-06	 0.00000000E+00
					 9.89553000E-01	 1.42595000E-06	 0.00000000E+00
					 9.89553000E-01	 1.42595000E-06	 0.00000000E+00
					 9.88598000E-01	 1.54205000E-06	 0.00000000E+00
					 9.88598000E-01	 1.54205000E-06	 0.00000000E+00
					 9.88598000E-01	 1.54205000E-06	 0.00000000E+00
					 9.88598000E-01	 1.54205000E-06	 0.00000000E+00
					 9.87597000E-01	 1.66157000E-06	 0.00000000E+00
					 9.87597000E-01	 1.66157000E-06	 0.00000000E+00
					 9.87597000E-01	 1.66157000E-06	 0.00000000E+00
					 9.87597000E-01	 1.66157000E-06	 0.00000000E+00
					 9.86548000E-01	 1.78441000E-06	 0.00000000E+00
					 9.86548000E-01	 1.78441000E-06	 0.00000000E+00
					 9.86548000E-01	 1.78441000E-06	 0.00000000E+00
					 9.86548000E-01	 1.78441000E-06	 0.00000000E+00
					 9.85447000E-01	 1.91061000E-06	 0.00000000E+00
					 9.85447000E-01	 1.91061000E-06	 0.00000000E+00
					 9.85447000E-01	 1.91061000E-06	 0.00000000E+00
					 9.85447000E-01	 1.91061000E-06	 0.00000000E+00
					 9.84292000E-01	 2.04016000E-06	 0.00000000E+00
					 9.84292000E-01	 2.04016000E-06	 0.00000000E+00
					 9.84292000E-01	 2.04016000E-06	 0.00000000E+00
					 9.84292000E-01	 2.04016000E-06	 0.00000000E+00
					 9.83081000E-01	 2.17295000E-06	 0.00000000E+00
					 9.83081000E-01	 2.17295000E-06	 0.00000000E+00
					 9.83081000E-01	 2.17295000E-06	 0.00000000E+00
					 9.83081000E-01	 2.17295000E-06	 0.00000000E+00
					 9.81811000E-01	 2.30906000E-06	 0.00000000E+00
					 9.81811000E-01	 2.30906000E-06	 0.00000000E+00
					 9.81811000E-01	 2.30906000E-06	 0.00000000E+00
					 9.81811000E-01	 2.30906000E-06	 0.00000000E+00
					 9.80478000E-01	 2.44953000E-06	 0.00000000E+00
					 9.80478000E-01	 2.44953000E-06	 0.00000000E+00
					 9.80478000E-01	 2.44953000E-06	 0.00000000E+00
					 9.80478000E-01	 2.44953000E-06	 0.00000000E+00
					 9.79081000E-01	 2.59134000E-06	 0.00000000E+00
					 9.79081000E-01	 2.59134000E-06	 0.00000000E+00
					 9.79081000E-01	 2.59134000E-06	 0.00000000E+00
					 9.79081000E-01	 2.59134000E-06	 0.00000000E+00
					 9.77616000E-01	 2.73476000E-06	 0.00000000E+00
					 9.77616000E-01	 2.73476000E-06	 0.00000000E+00
					 9.77616000E-01	 2.73476000E-06	 0.00000000E+00
					 9.77616000E-01	 2.73476000E-06	 0.00000000E+00
					 9.76078000E-01	 2.88364000E-06	 0.00000000E+00
					 9.76078000E-01	 2.88364000E-06	 0.00000000E+00
					 9.76078000E-01	 2.88364000E-06	 0.00000000E+00
					 9.76078000E-01	 2.88364000E-06	 0.00000000E+00
					 9.74465000E-01	 3.03324000E-06	 0.00000000E+00
					 9.74465000E-01	 3.03324000E-06	 0.00000000E+00
					 9.74465000E-01	 3.03324000E-06	 0.00000000E+00
					 9.74465000E-01	 3.03324000E-06	 0.00000000E+00
					 9.72773000E-01	 3.18365000E-06	 0.00000000E+00
					 9.72773000E-01	 3.18365000E-06	 0.00000000E+00
					 9.72773000E-01	 3.18365000E-06	 0.00000000E+00
					 9.72773000E-01	 3.18365000E-06	 0.00000000E+00
					 9.70998000E-01	 3.33823000E-06	 0.00000000E+00
					 9.70998000E-01	 3.33823000E-06	 0.00000000E+00
					 9.70998000E-01	 3.33823000E-06	 0.00000000E+00
					 9.70998000E-01	 3.33823000E-06	 0.00000000E+00
					 9.69137000E-01	 3.49551000E-06	 0.00000000E+00
					 9.69137000E-01	 3.49551000E-06	 0.00000000E+00
					 9.69137000E-01	 3.49551000E-06	 0.00000000E+00
					 9.69137000E-01	 3.49551000E-06	 0.00000000E+00
					 9.67185000E-01	 3.65519000E-06	 0.00000000E+00
					 9.67185000E-01	 3.65519000E-06	 0.00000000E+00
					 9.67185000E-01	 3.65519000E-06	 0.00000000E+00
					 9.67185000E-01	 3.65519000E-06	 0.00000000E+00
					 9.65137000E-01	 3.81729000E-06	 0.00000000E+00
					 9.65137000E-01	 3.81729000E-06	 0.00000000E+00
					 9.65137000E-01	 3.81729000E-06	 0.00000000E+00
					 9.65137000E-01	 3.81729000E-06	 0.00000000E+00
					 9.62989000E-01	 3.98169000E-06	 0.00000000E+00
					 9.62989000E-01	 3.98169000E-06	 0.00000000E+00
					 9.62989000E-01	 3.98169000E-06	 0.00000000E+00
					 9.62989000E-01	 3.98169000E-06	 0.00000000E+00
					 9.60737000E-01	 4.14813000E-06	 0.00000000E+00
					 9.60737000E-01	 4.14813000E-06	 0.00000000E+00
					 9.60737000E-01	 4.14813000E-06	 0.00000000E+00
					 9.60737000E-01	 4.14813000E-06	 0.00000000E+00
					 9.58375000E-01	 4.31665000E-06	 0.00000000E+00
					 9.58375000E-01	 4.31665000E-06	 0.00000000E+00
					 9.58375000E-01	 4.31665000E-06	 0.00000000E+00
					 9.58375000E-01	 4.31665000E-06	 0.00000000E+00
					 9.55897000E-01	 4.48901000E-06	 0.00000000E+00
					 9.55897000E-01	 4.48901000E-06	 0.00000000E+00
					 9.55897000E-01	 4.48901000E-06	 0.00000000E+00
					 9.55897000E-01	 4.48901000E-06	 0.00000000E+00
					 9.53298000E-01	 4.65983000E-06	 0.00000000E+00
					 9.53298000E-01	 4.65983000E-06	 0.00000000E+00
					 9.53298000E-01	 4.65983000E-06	 0.00000000E+00
					 9.53298000E-01	 4.65983000E-06	 0.00000000E+00
					 9.50572000E-01	 4.82938000E-06	 0.00000000E+00
					 9.50572000E-01	 4.82938000E-06	 0.00000000E+00
					 9.50572000E-01	 4.82938000E-06	 0.00000000E+00
					 9.50572000E-01	 4.82938000E-06	 0.00000000E+00
					 9.47712000E-01	 5.00443000E-06	 0.00000000E+00
					 9.47712000E-01	 5.00443000E-06	 0.00000000E+00
					 9.47712000E-01	 5.00443000E-06	 0.00000000E+00
					 9.47712000E-01	 5.00443000E-06	 0.00000000E+00
					 9.44713000E-01	 5.17663000E-06	 0.00000000E+00
					 9.44713000E-01	 5.17663000E-06	 0.00000000E+00
					 9.44713000E-01	 5.17663000E-06	 0.00000000E+00
					 9.44713000E-01	 5.17663000E-06	 0.00000000E+00
					 9.41567000E-01	 5.34594000E-06	 0.00000000E+00
					 9.41567000E-01	 5.34594000E-06	 0.00000000E+00
					 9.41567000E-01	 5.34594000E-06	 0.00000000E+00
					 9.41567000E-01	 5.34594000E-06	 0.00000000E+00
					 9.38267000E-01	 5.51829000E-06	 0.00000000E+00
					 9.38267000E-01	 5.51829000E-06	 0.00000000E+00
					 9.38267000E-01	 5.51829000E-06	 0.00000000E+00
					 9.38267000E-01	 5.51829000E-06	 0.00000000E+00
					 9.34807000E-01	 5.69100000E-06	 0.00000000E+00
					 9.34807000E-01	 5.69100000E-06	 0.00000000E+00
					 9.34807000E-01	 5.69100000E-06	 0.00000000E+00
					 9.34807000E-01	 5.69100000E-06	 0.00000000E+00
					 9.31178000E-01	 5.86347000E-06	 0.00000000E+00
					 9.31178000E-01	 5.86347000E-06	 0.00000000E+00
					 9.31178000E-01	 5.86347000E-06	 0.00000000E+00
					 9.31178000E-01	 5.86347000E-06	 0.00000000E+00
					 9.27373000E-01	 6.03566000E-06	 0.00000000E+00
					 9.27373000E-01	 6.03566000E-06	 0.00000000E+00
					 9.27373000E-01	 6.03566000E-06	 0.00000000E+00
					 9.27373000E-01	 6.03566000E-06	 0.00000000E+00
					 9.23382000E-01	 6.20731000E-06	 0.00000000E+00
					 9.23382000E-01	 6.20731000E-06	 0.00000000E+00
					 9.23382000E-01	 6.20731000E-06	 0.00000000E+00
					 9.23382000E-01	 6.20731000E-06	 0.00000000E+00
					 9.19196000E-01	 6.37792000E-06	 0.00000000E+00
					 9.19196000E-01	 6.37792000E-06	 0.00000000E+00
					 9.19196000E-01	 6.37792000E-06	 0.00000000E+00
					 9.19196000E-01	 6.37792000E-06	 0.00000000E+00
					 9.14807000E-01	 6.54746000E-06	 0.00000000E+00
					 9.14807000E-01	 6.54746000E-06	 0.00000000E+00
					 9.14807000E-01	 6.54746000E-06	 0.00000000E+00
					 9.14807000E-01	 6.54746000E-06	 0.00000000E+00
					 9.10204000E-01	 6.71838000E-06	 0.00000000E+00
					 9.10204000E-01	 6.71838000E-06	 0.00000000E+00
					 9.10204000E-01	 6.71838000E-06	 0.00000000E+00
					 9.10204000E-01	 6.71838000E-06	 0.00000000E+00
					 9.05378000E-01	 6.88282000E-06	 0.00000000E+00
					 9.05378000E-01	 6.88282000E-06	 0.00000000E+00
					 9.05378000E-01	 6.88282000E-06	 0.00000000E+00
					 9.05378000E-01	 6.88282000E-06	 0.00000000E+00
					 9.00316000E-01	 7.04086000E-06	 0.00000000E+00
					 9.00316000E-01	 7.04086000E-06	 0.00000000E+00
					 9.00316000E-01	 7.04086000E-06	 0.00000000E+00
					 9.00316000E-01	 7.04086000E-06	 0.00000000E+00
					 8.95007000E-01	 7.20234000E-06	 0.00000000E+00
					 8.95007000E-01	 7.20234000E-06	 0.00000000E+00
					 8.95007000E-01	 7.20234000E-06	 0.00000000E+00
					 8.95007000E-01	 7.20234000E-06	 0.00000000E+00
					 8.89439000E-01	 7.35511000E-06	 0.00000000E+00
					 8.89439000E-01	 7.35511000E-06	 0.00000000E+00
					 8.89439000E-01	 7.35511000E-06	 0.00000000E+00
					 8.89439000E-01	 7.35511000E-06	 0.00000000E+00
					 8.83601000E-01	 7.49890000E-06	 0.00000000E+00
					 8.83601000E-01	 7.49890000E-06	 0.00000000E+00
					 8.83601000E-01	 7.49890000E-06	 0.00000000E+00
					 8.83601000E-01	 7.49890000E-06	 0.00000000E+00
					 8.77480000E-01	 7.64232000E-06	 0.00000000E+00
					 8.77480000E-01	 7.64232000E-06	 0.00000000E+00
					 8.77480000E-01	 7.64232000E-06	 0.00000000E+00
					 8.77480000E-01	 7.64232000E-06	 0.00000000E+00
					 8.71061000E-01	 7.78136000E-06	 0.00000000E+00
					 8.71061000E-01	 7.78136000E-06	 0.00000000E+00
					 8.71061000E-01	 7.78136000E-06	 0.00000000E+00
					 8.71061000E-01	 7.78136000E-06	 0.00000000E+00
					 8.64331000E-01	 7.91506000E-06	 0.00000000E+00
					 8.64331000E-01	 7.91506000E-06	 0.00000000E+00
					 8.64331000E-01	 7.91506000E-06	 0.00000000E+00
					 8.64331000E-01	 7.91506000E-06	 0.00000000E+00
					 8.57274000E-01	 8.04324000E-06	 0.00000000E+00
					 8.57274000E-01	 8.04324000E-06	 0.00000000E+00
					 8.57274000E-01	 8.04324000E-06	 0.00000000E+00
					 8.57274000E-01	 8.04324000E-06	 0.00000000E+00
					 8.49875000E-01	 8.16543000E-06	 0.00000000E+00
					 8.49875000E-01	 8.16543000E-06	 0.00000000E+00
					 8.49875000E-01	 8.16543000E-06	 0.00000000E+00
					 8.49875000E-01	 8.16543000E-06	 0.00000000E+00
					 8.42117000E-01	 8.28087000E-06	 0.00000000E+00
					 8.42117000E-01	 8.28087000E-06	 0.00000000E+00
					 8.42117000E-01	 8.28087000E-06	 0.00000000E+00
					 8.42117000E-01	 8.28087000E-06	 0.00000000E+00
					 8.33983000E-01	 8.38934000E-06	 0.00000000E+00
					 8.33983000E-01	 8.38934000E-06	 0.00000000E+00
					 8.33983000E-01	 8.38934000E-06	 0.00000000E+00
					 8.33983000E-01	 8.38934000E-06	 0.00000000E+00
					 8.25455000E-01	 8.49372000E-06	 0.00000000E+00
					 8.25455000E-01	 8.49372000E-06	 0.00000000E+00
					 8.25455000E-01	 8.49372000E-06	 0.00000000E+00
					 8.25455000E-01	 8.49372000E-06	 0.00000000E+00
					 8.16514000E-01	 8.58423000E-06	 0.00000000E+00
					 8.16514000E-01	 8.58423000E-06	 0.00000000E+00
					 8.16514000E-01	 8.58423000E-06	 0.00000000E+00
					 8.16514000E-01	 8.58423000E-06	 0.00000000E+00
					 8.07140000E-01	 8.66057000E-06	 0.00000000E+00
					 8.07140000E-01	 8.66057000E-06	 0.00000000E+00
					 8.07140000E-01	 8.66057000E-06	 0.00000000E+00
					 8.07140000E-01	 8.66057000E-06	 0.00000000E+00
					 7.97310000E-01	 8.73479000E-06	 0.00000000E+00
					 7.97310000E-01	 8.73479000E-06	 0.00000000E+00
					 7.97310000E-01	 8.73479000E-06	 0.00000000E+00
					 7.97310000E-01	 8.73479000E-06	 0.00000000E+00
					 7.87004000E-01	 8.79190000E-06	 0.00000000E+00
					 7.87004000E-01	 8.79190000E-06	 0.00000000E+00
					 7.87004000E-01	 8.79190000E-06	 0.00000000E+00
					 7.87004000E-01	 8.79190000E-06	 0.00000000E+00
					 7.76200000E-01	 8.83124000E-06	 0.00000000E+00
					 7.76200000E-01	 8.83124000E-06	 0.00000000E+00
					 7.76200000E-01	 8.83124000E-06	 0.00000000E+00
					 7.76200000E-01	 8.83124000E-06	 0.00000000E+00
					 7.64874000E-01	 8.86338000E-06	 0.00000000E+00
					 7.64874000E-01	 8.86338000E-06	 0.00000000E+00
					 7.64874000E-01	 8.86338000E-06	 0.00000000E+00
					 7.64874000E-01	 8.86338000E-06	 0.00000000E+00
					 7.52999000E-01	 8.88317000E-06	 0.00000000E+00
					 7.52999000E-01	 8.88317000E-06	 0.00000000E+00
					 7.52999000E-01	 8.88317000E-06	 0.00000000E+00
					 7.52999000E-01	 8.88317000E-06	 0.00000000E+00
					 7.40552000E-01	 8.88925000E-06	 0.00000000E+00
					 7.40552000E-01	 8.88925000E-06	 0.00000000E+00
					 7.40552000E-01	 8.88925000E-06	 0.00000000E+00
					 7.40552000E-01	 8.88925000E-06	 0.00000000E+00
					 7.27502000E-01	 8.88126000E-06	 0.00000000E+00
					 7.27502000E-01	 8.88126000E-06	 0.00000000E+00
					 7.27502000E-01	 8.88126000E-06	 0.00000000E+00
					 7.27502000E-01	 8.88126000E-06	 0.00000000E+00
					 7.13823000E-01	 8.85846000E-06	 0.00000000E+00
					 7.13823000E-01	 8.85846000E-06	 0.00000000E+00
					 7.13823000E-01	 8.85846000E-06	 0.00000000E+00
					 7.13823000E-01	 8.85846000E-06	 0.00000000E+00
					 6.99483000E-01	 8.81981000E-06	 0.00000000E+00
					 6.99483000E-01	 8.81981000E-06	 0.00000000E+00
					 6.99483000E-01	 8.81981000E-06	 0.00000000E+00
					 6.99483000E-01	 8.81981000E-06	 0.00000000E+00
					 6.84451000E-01	 8.76482000E-06	 0.00000000E+00
					 6.84451000E-01	 8.76482000E-06	 0.00000000E+00
					 6.84451000E-01	 8.76482000E-06	 0.00000000E+00
					 6.84451000E-01	 8.76482000E-06	 0.00000000E+00
					 6.68694000E-01	 8.69600000E-06	 0.00000000E+00
					 6.68694000E-01	 8.69600000E-06	 0.00000000E+00
					 6.68694000E-01	 8.69600000E-06	 0.00000000E+00
					 6.68694000E-01	 8.69600000E-06	 0.00000000E+00
					 6.52177000E-01	 8.60367000E-06	 0.00000000E+00
					 6.52177000E-01	 8.60367000E-06	 0.00000000E+00
					 6.52177000E-01	 8.60367000E-06	 0.00000000E+00
					 6.52177000E-01	 8.60367000E-06	 0.00000000E+00
					 6.34863000E-01	 8.48685000E-06	 0.00000000E+00
					 6.34863000E-01	 8.48685000E-06	 0.00000000E+00
					 6.34863000E-01	 8.48685000E-06	 0.00000000E+00
					 6.34863000E-01	 8.48685000E-06	 0.00000000E+00
					 6.16713000E-01	 8.35732000E-06	 0.00000000E+00
					 6.16713000E-01	 8.35732000E-06	 0.00000000E+00
					 6.16713000E-01	 8.35732000E-06	 0.00000000E+00
					 6.16713000E-01	 8.35732000E-06	 0.00000000E+00
					 5.97687000E-01	 8.20029000E-06	 0.00000000E+00
					 5.97687000E-01	 8.20029000E-06	 0.00000000E+00
					 5.97687000E-01	 8.20029000E-06	 0.00000000E+00
					 5.97687000E-01	 8.20029000E-06	 0.00000000E+00
					 5.77745000E-01	 8.01462000E-06	 0.00000000E+00
					 5.77745000E-01	 8.01462000E-06	 0.00000000E+00
					 5.77745000E-01	 8.01462000E-06	 0.00000000E+00
					 5.77745000E-01	 8.01462000E-06	 0.00000000E+00
					 5.56842000E-01	 7.81065000E-06	 0.00000000E+00
					 5.56842000E-01	 7.81065000E-06	 0.00000000E+00
					 5.56842000E-01	 7.81065000E-06	 0.00000000E+00
					 5.56842000E-01	 7.81065000E-06	 0.00000000E+00
					 5.34932000E-01	 7.58306000E-06	 0.00000000E+00
					 5.34932000E-01	 7.58306000E-06	 0.00000000E+00
					 5.34932000E-01	 7.58306000E-06	 0.00000000E+00
					 5.34932000E-01	 7.58306000E-06	 0.00000000E+00
					 5.11968000E-01	 7.33036000E-06	 0.00000000E+00
					 5.11968000E-01	 7.33036000E-06	 0.00000000E+00
					 5.11968000E-01	 7.33036000E-06	 0.00000000E+00
					 5.11968000E-01	 7.33036000E-06	 0.00000000E+00
					 4.87898000E-01	 7.05206000E-06	 0.00000000E+00
					 4.87898000E-01	 7.05206000E-06	 0.00000000E+00
					 4.87898000E-01	 7.05206000E-06	 0.00000000E+00
					 4.87898000E-01	 7.05206000E-06	 0.00000000E+00
					 4.62669000E-01	 6.74738000E-06	 0.00000000E+00
					 4.62669000E-01	 6.74738000E-06	 0.00000000E+00
					 4.62669000E-01	 6.74738000E-06	 0.00000000E+00
					 4.62669000E-01	 6.74738000E-06	 0.00000000E+00
					 4.36227000E-01	 6.41534000E-06	 0.00000000E+00
					 4.36227000E-01	 6.41534000E-06	 0.00000000E+00
					 4.36227000E-01	 6.41534000E-06	 0.00000000E+00
					 4.36227000E-01	 6.41534000E-06	 0.00000000E+00
					 4.08513000E-01	 6.05532000E-06	 0.00000000E+00
					 4.08513000E-01	 6.05532000E-06	 0.00000000E+00
					 4.08513000E-01	 6.05532000E-06	 0.00000000E+00
					 4.08513000E-01	 6.05532000E-06	 0.00000000E+00
					 3.79466000E-01	 5.66846000E-06	 0.00000000E+00
					 3.79466000E-01	 5.66846000E-06	 0.00000000E+00
					 3.79466000E-01	 5.66846000E-06	 0.00000000E+00
					 3.79466000E-01	 5.66846000E-06	 0.00000000E+00
					 3.49023000E-01	 5.24958000E-06	 0.00000000E+00
					 3.49023000E-01	 5.24958000E-06	 0.00000000E+00
					 3.49023000E-01	 5.24958000E-06	 0.00000000E+00
					 3.49023000E-01	 5.24958000E-06	 0.00000000E+00
					 3.17115000E-01	 4.79736000E-06	 0.00000000E+00
					 3.17115000E-01	 4.79736000E-06	 0.00000000E+00
					 3.17115000E-01	 4.79736000E-06	 0.00000000E+00
					 3.17115000E-01	 4.79736000E-06	 0.00000000E+00
					 2.83673000E-01	 4.31870000E-06	 0.00000000E+00
					 2.83673000E-01	 4.31870000E-06	 0.00000000E+00
					 2.83673000E-01	 4.31870000E-06	 0.00000000E+00
					 2.83673000E-01	 4.31870000E-06	 0.00000000E+00
					 2.48624000E-01	 3.80614000E-06	 0.00000000E+00
					 2.48624000E-01	 3.80614000E-06	 0.00000000E+00