<?xml version="1.0"?>
<VTKFile type="UnstructuredGrid" version="0.1" byte_order="LittleEndian">
	<UnstructuredGrid>
		<Piece NumberOfPoints="7376" NumberOfCells="3520">
			<Points>
				<DataArray type="Float64" NumberOfComponents="3" format="ascii">
					 0.00000000E+00	-2.50000000E+00	-5.55112000E-17
					 0.00000000E+00	-2.24955000E+00	-5.55112000E-17
					 0.00000000E+00	-2.24955000E+00	 1.00000000E+00
					 0.00000000E+00	-2.50000000E+00	 1.00000000E+00
					 1.25000000E-01	-2.50000000E+00	-5.55112000E-17
					 1.11805000E-01	-2.24950000E+00	-1.11022000E-16
					 1.11805000E-01	-2.24950000E+00	 1.00000000E+00
					 1.25000000E-01	-2.50000000E+00	 1.00000000E+00
					 2.50000000E-01	-2.50000000E+00	-5.55112000E-17
					 2.23606000E-01	-2.24935000E+00	-1.11022000E-16
					 2.23606000E-01	-2.24935000E+00	 1.00000000E+00
					 2.50000000E-01	-2.50000000E+00	 1.00000000E+00
					 3.75000000E-01	-2.50000000E+00	-5.55112000E-17
					 3.35399000E-01	-2.24911000E+00	 5.55112000E-17
					 3.35399000E-01	-2.24911000E+00	 1.00000000E+00
					 3.75000000E-01	-2.50000000E+00	 1.00000000E+00
					 5.00000000E-01	-2.50000000E+00	-5.55112000E-17
					 4.47181000E-01	-2.24878000E+00	-1.11022000E-16
					 4.47181000E-01	-2.24878000E+00	 1.00000000E+00
					 5.00000000E-01	-2.50000000E+00	 1.00000000E+00
					 6.25000000E-01	-2.50000000E+00	-5.55112000E-17
					 5.58948000E-01	-2.24834000E+00	-5.55112000E-17
					 5.58948000E-01	-2.24834000E+00	 1.00000000E+00
					 6.25000000E-01	-2.50000000E+00	 1.00000000E+00
					 7.50000000E-01	-2.50000000E+00	-5.55112000E-17
					 6.70696000E-01	-2.24782000E+00	-1.11022000E-16
					 6.70696000E-01	-2.24782000E+00	 1.00000000E+00
					 7.50000000E-01	-2.50000000E+00	 1.00000000E+00
					 8.75000000E-01	-2.50000000E+00	-5.55112000E-17
					 7.82422000E-01	-2.24720000E+00	-1.11022000E-16
					 7.82422000E-01	-2.24720000E+00	 1.00000000E+00
					 8.75000000E-01	-2.50000000E+00	 1.00000000E+00
					 1.00000000E+00	-2.50000000E+00	-5.55112000E-17
					 8.94121000E-01	-2.24648000E+00	-5.55112000E-17
					 8.94121000E-01	-2.24648000E+00	 1.00000000E+00
					 1.00000000E+00	-2.50000000E+00	 1.00000000E+00
					 1.12500000E+00	-2.50000000E+00	-5.55112000E-17
					 1.00579000E+00	-2.24568000E+00	-5.55112000E-17
					 1.00579000E+00	-2.24568000E+00	 1.00000000E+00
					 1.12500000E+00	-2.50000000E+00	 1.00000000E+00
					 1.25000000E+00	-2.50000000E+00	-5.55112000E-17
					 1.11743000E+00	-2.24478000E+00	-1.11022000E-16
					 1.11743000E+00	-2.24478000E+00	 1.00000000E+00
					 1.25000000E+00	-2.50000000E+00	 1.00000000E+00
					 1.37500000E+00	-2.50000000E+00	-5.55112000E-17
					 1.22903000E+00	-2.24380000E+00	-5.55112000E-17
					 1.22903000E+00	-2.24380000E+00	 1.00000000E+00
					 1.37500000E+00	-2.50000000E+00	 1.00000000E+00
					 1.50000000E+00	-2.50000000E+00	-5.55112000E-17
					 1.34059000E+00	-2.24272000E+00	-2.22045000E-16
					 1.34059000E+00	-2.24272000E+00	 1.00000000E+00
					 1.50000000E+00	-2.50000000E+00	 1.00000000E+00
					 1.62500000E+00	-2.50000000E+00	-5.55112000E-17
					 1.45210000E+00	-2.24156000E+00	-5.55112000E-17
					 1.45210000E+00	-2.24156000E+00	 1.00000000E+00
					 1.62500000E+00	-2.50000000E+00	 1.00000000E+00
					 1.75000000E+00	-2.50000000E+00	-5.55112000E-17
					 1.56357000E+00	-2.24032000E+00	-5.55112000E-17
					 1.56357000E+00	-2.24032000E+00	 1.00000000E+00
					 1.75000000E+00	-2.50000000E+00	 1.00000000E+00
					 1.87500000E+00	-2.50000000E+00	-5.55112000E-17
					 1.67499000E+00	-2.23899000E+00	-1.11022000E-16
					 1.67499000E+00	-2.23899000E+00	 1.00000000E+00
					 1.87500000E+00	-2.50000000E+00	 1.00000000E+00
					 2.00000000E+00	-2.50000000E+00	-5.55112000E-17
					 1.78635000E+00	-2.23759000E+00	-1.11022000E-16
					 1.78635000E+00	-2.23759000E+00	 1.00000000E+00
					 2.00000000E+00	-2.50000000E+00	 1.00000000E+00
					 2.12500000E+00	-2.50000000E+00	-5.55112000E-17
					 1.89766000E+00	-2.23610000E+00	-2.22045000E-16
					 1.89766000E+00	-2.23610000E+00	 1.00000000E+00
					 2.12500000E+00	-2.50000000E+00	 1.00000000E+00
					 2.25000000E+00	-2.50000000E+00	-5.55112000E-17
					 2.00890000E+00	-2.23454000E+00	-1.11022000E-16
					 2.00890000E+00	-2.23454000E+00	 1.00000000E+00
					 2.25000000E+00	-2.50000000E+00	 1.00000000E+00
					 2.37500000E+00	-2.50000000E+00	-5.55112000E-17
					 2.12009000E+00	-2.23291000E+00	 5.55112000E-17
					 2.12009000E+00	-2.23291000E+00	 1.00000000E+00
					 2.37500000E+00	-2.50000000E+00	 1.00000000E+00
					 2.50000000E+00	-2.50000000E+00	-5.55112000E-17
					 2.23121000E+00	-2.23121000E+00	-5.55112000E-17
					 2.23121000E+00	-2.23121000E+00	 1.00000000E+00
					 2.50000000E+00	-2.50000000E+00	 1.00000000E+00
					 0.00000000E+00	-2.02768000E+00	-5.55112000E-17
					 0.00000000E+00	-2.02768000E+00	 1.00000000E+00
					 1.00116000E-01	-2.02759000E+00	-1.11022000E-16
					 1.00116000E-01	-2.02759000E+00	 1.00000000E+00
					 2.00224000E-01	-2.02731000E+00	-5.55112000E-17
					 2.00224000E-01	-2.02731000E+00	 1.00000000E+00
					 3.00318000E-01	-2.02686000E+00	-5.55112000E-17
					 3.00318000E-01	-2.02686000E+00	 1.00000000E+00
					 4.00391000E-01	-2.02622000E+00	-5.55112000E-17
					 4.00391000E-01	-2.02622000E+00	 1.00000000E+00
					 5.00435000E-01	-2.02541000E+00	-5.55112000E-17
					 5.00435000E-01	-2.02541000E+00	 1.00000000E+00
					 6.00444000E-01	-2.02442000E+00	-5.55112000E-17
					 6.00444000E-01	-2.02442000E+00	 1.00000000E+00
					 7.00410000E-01	-2.02324000E+00	-5.55112000E-17
					 7.00410000E-01	-2.02324000E+00	 1.00000000E+00
					 8.00327000E-01	-2.02190000E+00	-5.55112000E-17
					 8.00327000E-01	-2.02190000E+00	 1.00000000E+00
					 9.00188000E-01	-2.02038000E+00	-5.55112000E-17
					 9.00188000E-01	-2.02038000E+00	 1.00000000E+00
					 9.99986000E-01	-2.01869000E+00	-5.55112000E-17
					 9.99986000E-01	-2.01869000E+00	 1.00000000E+00
					 1.09971000E+00	-2.01683000E+00	-1.11022000E-16
					 1.09971000E+00	-2.01683000E+00	 1.00000000E+00
					 1.19937000E+00	-2.01481000E+00	-1.11022000E-16
					 1.19937000E+00	-2.01481000E+00	 1.00000000E+00
					 1.29893000E+00	-2.01262000E+00	-1.11022000E-16
					 1.29893000E+00	-2.01262000E+00	 1.00000000E+00
					 1.39841000E+00	-2.01028000E+00	 1.11022000E-16
					 1.39841000E+00	-2.01028000E+00	 1.00000000E+00
					 1.49780000E+00	-2.00778000E+00	-5.55112000E-17
					 1.49780000E+00	-2.00778000E+00	 1.00000000E+00
					 1.59708000E+00	-2.00513000E+00	-1.11022000E-16
					 1.59708000E+00	-2.00513000E+00	 1.00000000E+00
					 1.69626000E+00	-2.00233000E+00	-5.55112000E-17
					 1.69626000E+00	-2.00233000E+00	 1.00000000E+00
					 1.79532000E+00	-1.99939000E+00	-5.55112000E-17
					 1.79532000E+00	-1.99939000E+00	 1.00000000E+00
					 1.89427000E+00	-1.99631000E+00	-1.11022000E-16
					 1.89427000E+00	-1.99631000E+00	 1.00000000E+00
					 1.99309000E+00	-1.99309000E+00	-5.55112000E-17
					 1.99309000E+00	-1.99309000E+00	 1.00000000E+00
					 0.00000000E+00	-1.83113000E+00	-5.55112000E-17
					 0.00000000E+00	-1.83113000E+00	 1.00000000E+00
					 8.97605000E-02	-1.83100000E+00	-5.55112000E-17
					 8.97605000E-02	-1.83100000E+00	 1.00000000E+00
					 1.79511000E-01	-1.83062000E+00	-5.55112000E-17
					 1.79511000E-01	-1.83062000E+00	 1.00000000E+00
					 2.69241000E-01	-1.82997000E+00	-1.11022000E-16
					 2.69241000E-01	-1.82997000E+00	 1.00000000E+00
					 3.58941000E-01	-1.82907000E+00	-1.11022000E-16
					 3.58941000E-01	-1.82907000E+00	 1.00000000E+00
					 4.48601000E-01	-1.82792000E+00	-5.55112000E-17
					 4.48601000E-01	-1.82792000E+00	 1.00000000E+00
					 5.38210000E-01	-1.82651000E+00	-2.22045000E-16
					 5.38210000E-01	-1.82651000E+00	 1.00000000E+00
					 6.27759000E-01	-1.82485000E+00	-5.55112000E-17
					 6.27759000E-01	-1.82485000E+00	 1.00000000E+00
					 7.17238000E-01	-1.82295000E+00	-5.55112000E-17
					 7.17238000E-01	-1.82295000E+00	 1.00000000E+00
					 8.06638000E-01	-1.82080000E+00	-5.55112000E-17
					 8.06638000E-01	-1.82080000E+00	 1.00000000E+00
					 8.95948000E-01	-1.81840000E+00	-5.55112000E-17
					 8.95948000E-01	-1.81840000E+00	 1.00000000E+00
					 9.85159000E-01	-1.81577000E+00	 5.55112000E-17
					 9.85159000E-01	-1.81577000E+00	 1.00000000E+00
					 1.07426000E+00	-1.81291000E+00	-2.22045000E-16
					 1.07426000E+00	-1.81291000E+00	 1.00000000E+00
					 1.16325000E+00	-1.80981000E+00	 5.55112000E-17
					 1.16325000E+00	-1.80981000E+00	 1.00000000E+00
					 1.25211000E+00	-1.80649000E+00	-1.11022000E-16
					 1.25211000E+00	-1.80649000E+00	 1.00000000E+00
					 1.34084000E+00	-1.80295000E+00	-1.11022000E-16
					 1.34084000E+00	-1.80295000E+00	 1.00000000E+00
					 1.42942000E+00	-1.79920000E+00	-1.11022000E-16
					 1.42942000E+00	-1.79920000E+00	 1.00000000E+00
					 1.51785000E+00	-1.79523000E+00	-5.55112000E-17
					 1.51785000E+00	-1.79523000E+00	 1.00000000E+00
					 1.60612000E+00	-1.79107000E+00	-2.22045000E-16
					 1.60612000E+00	-1.79107000E+00	 1.00000000E+00
					 1.69423000E+00	-1.78671000E+00	-5.55112000E-17
					 1.69423000E+00	-1.78671000E+00	 1.00000000E+00
					 1.78216000E+00	-1.78216000E+00	-5.55112000E-17
					 1.78216000E+00	-1.78216000E+00	 1.00000000E+00
					 0.00000000E+00	-1.65702000E+00	-5.55112000E-17
					 0.00000000E+00	-1.65702000E+00	 1.00000000E+00
					 8.05873000E-02	-1.65686000E+00	-5.55112000E-17
					 8.05873000E-02	-1.65686000E+00	 1.00000000E+00
					 1.61162000E-01	-1.65637000E+00	-5.55112000E-17
					 1.61162000E-01	-1.65637000E+00	 1.00000000E+00
					 2.41711000E-01	-1.65556000E+00	-5.55112000E-17
					 2.41711000E-01	-1.65556000E+00	 1.00000000E+00
					 3.22222000E-01	-1.65442000E+00	-5.55112000E-17
					 3.22222000E-01	-1.65442000E+00	 1.00000000E+00
					 4.02682000E-01	-1.65297000E+00	 5.55112000E-17
					 4.02682000E-01	-1.65297000E+00	 1.00000000E+00
					 4.83079000E-01	-1.65120000E+00	-5.55112000E-17
					 4.83079000E-01	-1.65120000E+00	 1.00000000E+00
					 5.63400000E-01	-1.64911000E+00	-1.11022000E-16
[...]
			<PointData>
				<DataArray type="Float32" Name="V3DF" NumberOfComponents="3" ComponentName0="V1" ComponentName1="V2" ComponentName2="V3" format="ascii">
					 1.00004000E+00	 6.50152000E-05	 0.00000000E+00
					 1.00021000E+00	 1.67672000E-04	 0.00000000E+00
					 1.00021000E+00	 1.67672000E-04	 0.00000000E+00
					 1.00004000E+00	 6.50152000E-05	 0.00000000E+00
					 1.00005000E+00	 6.52760000E-05	 0.00000000E+00
					 9.99668000E-01	-7.36481000E-04	 0.00000000E+00
					 9.99668000E-01	-7.36481000E-04	 0.00000000E+00
					 1.00005000E+00	 6.52760000E-05	 0.00000000E+00
					 9.99886000E-01	-2.08807000E-04	 0.00000000E+00
					 9.96680000E-01	-4.62831000E-03	 0.00000000E+00
					 9.96680000E-01	-4.62831000E-03	 0.00000000E+00
					 9.99886000E-01	-2.08807000E-04	 0.00000000E+00
					 9.98905000E-01	-1.59352000E-03	 0.00000000E+00
					 9.87621000E-01	-1.53737000E-02	 0.00000000E+00
					 9.87621000E-01	-1.53737000E-02	 0.00000000E+00
					 9.98905000E-01	-1.59352000E-03	 0.00000000E+00
					 9.95300000E-01	-6.15556000E-03	 0.00000000E+00
					 9.68778000E-01	-3.69135000E-02	 0.00000000E+00
					 9.68778000E-01	-3.69135000E-02	 0.00000000E+00
					 9.95300000E-01	-6.15556000E-03	 0.00000000E+00
					 9.86055000E-01	-1.72137000E-02	 0.00000000E+00
					 9.39495000E-01	-7.01566000E-02	 0.00000000E+00
					 9.39495000E-01	-7.01566000E-02	 0.00000000E+00
					 9.86055000E-01	-1.72137000E-02	 0.00000000E+00
					 9.68774000E-01	-3.75181000E-02	 0.00000000E+00
					 9.03442000E-01	-1.11558000E-01	 0.00000000E+00
					 9.03442000E-01	-1.11558000E-01	 0.00000000E+00
					 9.68774000E-01	-3.75181000E-02	 0.00000000E+00
					 9.44179000E-01	-6.67326000E-02	 0.00000000E+00
					 8.66976000E-01	-1.54535000E-01	 0.00000000E+00
					 8.66976000E-01	-1.54535000E-01	 0.00000000E+00
					 9.44179000E-01	-6.67326000E-02	 0.00000000E+00
					 9.16144000E-01	-1.01208000E-01	 0.00000000E+00
					 8.36271000E-01	-1.92317000E-01	 0.00000000E+00
					 8.36271000E-01	-1.92317000E-01	 0.00000000E+00
					 9.16144000E-01	-1.01208000E-01	 0.00000000E+00
					 8.89318000E-01	-1.36110000E-01	 0.00000000E+00
					 8.14995000E-01	-2.20475000E-01	 0.00000000E+00
					 8.14995000E-01	-2.20475000E-01	 0.00000000E+00
					 8.89318000E-01	-1.36110000E-01	 0.00000000E+00
					 8.67093000E-01	-1.67389000E-01	 0.00000000E+00
					 8.03724000E-01	-2.37736000E-01	 0.00000000E+00
					 8.03724000E-01	-2.37736000E-01	 0.00000000E+00
					 8.67093000E-01	-1.67389000E-01	 0.00000000E+00
					 8.51048000E-01	-1.92560000E-01	 0.00000000E+00
					 8.00904000E-01	-2.45158000E-01	 0.00000000E+00
					 8.00904000E-01	-2.45158000E-01	 0.00000000E+00
					 8.51048000E-01	-1.92560000E-01	 0.00000000E+00
					 8.41248000E-01	-2.10691000E-01	 0.00000000E+00
					 8.04179000E-01	-2.44840000E-01	 0.00000000E+00
					 8.04179000E-01	-2.44840000E-01	 0.00000000E+00
					 8.41248000E-01	-2.10691000E-01	 0.00000000E+00
					 8.36825000E-01	-2.22017000E-01	 0.00000000E+00
					 8.11302000E-01	-2.38984000E-01	 0.00000000E+00
					 8.11302000E-01	-2.38984000E-01	 0.00000000E+00
					 8.36825000E-01	-2.22017000E-01	 0.00000000E+00
					 8.36550000E-01	-2.27426000E-01	 0.00000000E+00
					 8.20519000E-01	-2.29445000E-01	 0.00000000E+00
					 8.20519000E-01	-2.29445000E-01	 0.00000000E+00
					 8.36550000E-01	-2.27426000E-01	 0.00000000E+00
					 8.39218000E-01	-2.28029000E-01	 0.00000000E+00
					 8.30634000E-01	-2.17622000E-01	 0.00000000E+00
					 8.30634000E-01	-2.17622000E-01	 0.00000000E+00
					 8.39218000E-01	-2.28029000E-01	 0.00000000E+00
					 8.43830000E-01	-2.24907000E-01	 0.00000000E+00
					 8.40905000E-01	-2.04492000E-01	 0.00000000E+00
					 8.40905000E-01	-2.04492000E-01	 0.00000000E+00
					 8.43830000E-01	-2.24907000E-01	 0.00000000E+00
					 8.49640000E-01	-2.18973000E-01	 0.00000000E+00
					 8.50965000E-01	-1.90668000E-01	 0.00000000E+00
					 8.50965000E-01	-1.90668000E-01	 0.00000000E+00
					 8.49640000E-01	-2.18973000E-01	 0.00000000E+00
					 8.55925000E-01	-2.11056000E-01	 0.00000000E+00
					 8.60462000E-01	-1.76694000E-01	 0.00000000E+00
					 8.60462000E-01	-1.76694000E-01	 0.00000000E+00
					 8.55925000E-01	-2.11056000E-01	 0.00000000E+00
					 8.62612000E-01	-2.01359000E-01	 0.00000000E+00
					 8.70284000E-01	-1.62119000E-01	 0.00000000E+00
					 8.70284000E-01	-1.62119000E-01	 0.00000000E+00
					 8.62612000E-01	-2.01359000E-01	 0.00000000E+00
					 8.73503000E-01	-1.81528000E-01	 0.00000000E+00
					 8.78679000E-01	-1.45261000E-01	 0.00000000E+00
					 8.78679000E-01	-1.45261000E-01	 0.00000000E+00
					 8.73503000E-01	-1.81528000E-01	 0.00000000E+00
					 9.97819000E-01	-3.37589000E-03	 0.00000000E+00
					 9.97819000E-01	-3.37589000E-03	 0.00000000E+00
					 9.89093000E-01	-1.33851000E-02	 0.00000000E+00
					 9.89093000E-01	-1.33851000E-02	 0.00000000E+00
					 9.69380000E-01	-3.48976000E-02	 0.00000000E+00
					 9.69380000E-01	-3.48976000E-02	 0.00000000E+00
					 9.37345000E-01	-6.96511000E-02	 0.00000000E+00
					 9.37345000E-01	-6.96511000E-02	 0.00000000E+00
					 8.96975000E-01	-1.14286000E-01	 0.00000000E+00
					 8.96975000E-01	-1.14286000E-01	 0.00000000E+00
					 8.55915000E-01	-1.61389000E-01	 0.00000000E+00
					 8.55915000E-01	-1.61389000E-01	 0.00000000E+00
					 8.21773000E-01	-2.02781000E-01	 0.00000000E+00
					 8.21773000E-01	-2.02781000E-01	 0.00000000E+00
					 7.98806000E-01	-2.32982000E-01	 0.00000000E+00
					 7.98806000E-01	-2.32982000E-01	 0.00000000E+00
					 7.87159000E-01	-2.50474000E-01	 0.00000000E+00
					 7.87159000E-01	-2.50474000E-01	 0.00000000E+00
					 7.84450000E-01	-2.56668000E-01	 0.00000000E+00
					 7.84450000E-01	-2.56668000E-01	 0.00000000E+00
					 7.87678000E-01	-2.54252000E-01	 0.00000000E+00
					 7.87678000E-01	-2.54252000E-01	 0.00000000E+00
					 7.94305000E-01	-2.46034000E-01	 0.00000000E+00
					 7.94305000E-01	-2.46034000E-01	 0.00000000E+00
					 8.02581000E-01	-2.34362000E-01	 0.00000000E+00
					 8.02581000E-01	-2.34362000E-01	 0.00000000E+00
					 8.11447000E-01	-2.20936000E-01	 0.00000000E+00
					 8.11447000E-01	-2.20936000E-01	 0.00000000E+00
					 8.20336000E-01	-2.06862000E-01	 0.00000000E+00
					 8.20336000E-01	-2.06862000E-01	 0.00000000E+00
					 8.28978000E-01	-1.92784000E-01	 0.00000000E+00
					 8.28978000E-01	-1.92784000E-01	 0.00000000E+00
					 8.37275000E-01	-1.79033000E-01	 0.00000000E+00
					 8.37275000E-01	-1.79033000E-01	 0.00000000E+00
					 8.45257000E-01	-1.65700000E-01	 0.00000000E+00
					 8.45257000E-01	-1.65700000E-01	 0.00000000E+00
					 8.52863000E-01	-1.52905000E-01	 0.00000000E+00
					 8.52863000E-01	-1.52905000E-01	 0.00000000E+00
					 8.61292000E-01	-1.40006000E-01	 0.00000000E+00
					 8.61292000E-01	-1.40006000E-01	 0.00000000E+00
					 8.69202000E-01	-1.23876000E-01	 0.00000000E+00
					 8.69202000E-01	-1.23876000E-01	 0.00000000E+00
					 9.70960000E-01	-3.15349000E-02	 0.00000000E+00
					 9.70960000E-01	-3.15349000E-02	 0.00000000E+00
					 9.36566000E-01	-6.61390000E-02	 0.00000000E+00
					 9.36566000E-01	-6.61390000E-02	 0.00000000E+00
					 8.92023000E-01	-1.11715000E-01	 0.00000000E+00
					 8.92023000E-01	-1.11715000E-01	 0.00000000E+00
					 8.45792000E-01	-1.60772000E-01	 0.00000000E+00
					 8.45792000E-01	-1.60772000E-01	 0.00000000E+00
					 8.06597000E-01	-2.04705000E-01	 0.00000000E+00
					 8.06597000E-01	-2.04705000E-01	 0.00000000E+00
					 7.79514000E-01	-2.37561000E-01	 0.00000000E+00
					 7.79514000E-01	-2.37561000E-01	 0.00000000E+00
					 7.64936000E-01	-2.57583000E-01	 0.00000000E+00
					 7.64936000E-01	-2.57583000E-01	 0.00000000E+00
					 7.60366000E-01	-2.66129000E-01	 0.00000000E+00
					 7.60366000E-01	-2.66129000E-01	 0.00000000E+00
					 7.62586000E-01	-2.65892000E-01	 0.00000000E+00
					 7.62586000E-01	-2.65892000E-01	 0.00000000E+00
					 7.68860000E-01	-2.59647000E-01	 0.00000000E+00
					 7.68860000E-01	-2.59647000E-01	 0.00000000E+00
					 7.77266000E-01	-2.49651000E-01	 0.00000000E+00
					 7.77266000E-01	-2.49651000E-01	 0.00000000E+00
					 7.86605000E-01	-2.37491000E-01	 0.00000000E+00
					 7.86605000E-01	-2.37491000E-01	 0.00000000E+00
					 7.96193000E-01	-2.24176000E-01	 0.00000000E+00
					 7.96193000E-01	-2.24176000E-01	 0.00000000E+00
					 8.05661000E-01	-2.10304000E-01	 0.00000000E+00
					 8.05661000E-01	-2.10304000E-01	 0.00000000E+00
					 8.14823000E-01	-1.96222000E-01	 0.00000000E+00
					 8.14823000E-01	-1.96222000E-01	 0.00000000E+00
					 8.23597000E-01	-1.82128000E-01	 0.00000000E+00
					 8.23597000E-01	-1.82128000E-01	 0.00000000E+00
					 8.31961000E-01	-1.68135000E-01	 0.00000000E+00
					 8.31961000E-01	-1.68135000E-01	 0.00000000E+00
					 8.39966000E-01	-1.54275000E-01	 0.00000000E+00
					 8.39966000E-01	-1.54275000E-01	 0.00000000E+00
					 8.47568000E-01	-1.40661000E-01	 0.00000000E+00
					 8.47568000E-01	-1.40661000E-01	 0.00000000E+00
					 8.55897000E-01	-1.26900000E-01	 0.00000000E+00
					 8.55897000E-01	-1.26900000E-01	 0.00000000E+00
					 8.63104000E-01	-1.09294000E-01	 0.00000000E+00
					 8.63104000E-01	-1.09294000E-01	 0.00000000E+00
					 8.85987000E-01	-1.10148000E-01	 0.00000000E+00
					 8.85987000E-01	-1.10148000E-01	 0.00000000E+00
					 8.33995000E-01	-1.61178000E-01	 0.00000000E+00
					 8.33995000E-01	-1.61178000E-01	 0.00000000E+00
					 7.89259000E-01	-2.07677000E-01	 0.00000000E+00
					 7.89259000E-01	-2.07677000E-01	 0.00000000E+00
					 7.57782000E-01	-2.43219000E-01	 0.00000000E+00
					 7.57782000E-01	-2.43219000E-01	 0.00000000E+00
					 7.40239000E-01	-2.65700000E-01	 0.00000000E+00
					 7.40239000E-01	-2.65700000E-01	 0.00000000E+00
					 7.33972000E-01	-2.76286000E-01	 0.00000000E+00
					 7.33972000E-01	-2.76286000E-01	 0.00000000E+00
					 7.35473000E-01	-2.77566000E-01	 0.00000000E+00
					 7.35473000E-01	-2.77566000E-01	 0.00000000E+00
					 7.41721000E-01	-2.72285000E-01	 0.00000000E+00
					 7.41721000E-01	-2.72285000E-01	 0.00000000E+00
					 7.50557000E-01	-2.62739000E-01	 0.00000000E+00
					 7.50557000E-01	-2.62739000E-01	 0.00000000E+00
					 7.60597000E-01	-2.50599000E-01	 0.00000000E+00
					 7.60597000E-01	-2.50599000E-01	 0.00000000E+00
					 7.71019000E-01	-2.36976000E-01	 0.00000000E+00
					 7.71019000E-01	-2.36976000E-01	 0.00000000E+00
					 7.81361000E-01	-2.22573000E-01	 0.00000000E+00
					 7.81361000E-01	-2.22573000E-01	 0.00000000E+00
					 7.91375000E-01	-2.07825000E-01	 0.00000000E+00
					 7.91375000E-01	-2.07825000E-01	 0.00000000E+00
					 8.00936000E-01	-1.93003000E-01	 0.00000000E+00
					 8.00936000E-01	-1.93003000E-01	 0.00000000E+00
					 8.09991000E-01	-1.78279000E-01	 0.00000000E+00
					 8.09991000E-01	-1.78279000E-01	 0.00000000E+00
					 8.18533000E-01	-1.63763000E-01	 0.00000000E+00
					 8.18533000E-01	-1.63763000E-01	 0.00000000E+00
					 8.26585000E-01	-1.49518000E-01	 0.00000000E+00
					 8.26585000E-01	-1.49518000E-01	 0.00000000E+00
					 8.34224000E-01	-1.35544000E-01	 0.00000000E+00
					 8.34224000E-01	-1.35544000E-01	 0.00000000E+00
					 8.41454000E-01	-1.21900000E-01	 0.00000000E+00
					 8.41454000E-01	-1.21900000E-01	 0.00000000E+00
					 8.49323000E-01	-1.08365000E-01	 0.00000000E+00
					 8.49323000E-01	-1.08365000E-01	 0.00000000E+00
					 8.55866000E-01	-9.09637000E-02	 0.00000000E+00
					 8.55866000E-01	-9.09637000E-02	 0.00000000E+00
					 7.69731000E-01	-2.11428000E-01	 0.00000000E+00
					 7.69731000E-01	-2.11428000E-01	 0.00000000E+00
					 7.34082000E-01	-2.48982000E-01	 0.00000000E+00
					 7.34082000E-01	-2.48982000E-01	 0.00000000E+00
					 7.13854000E-01	-2.73307000E-01	 0.00000000E+00
					 7.13854000E-01	-2.73307000E-01	 0.00000000E+00
					 7.06085000E-01	-2.85465000E-01	 0.00000000E+00
					 7.06085000E-01	-2.85465000E-01	 0.00000000E+00
					 7.06920000E-01	-2.87973000E-01	 0.00000000E+00
					 7.06920000E-01	-2.87973000E-01	 0.00000000E+00
					 7.13068000E-01	-2.83547000E-01	 0.00000000E+00
					 7.13068000E-01	-2.83547000E-01	 0.00000000E+00
					 7.22170000E-01	-2.74511000E-01	 0.00000000E+00
					 7.22170000E-01	-2.74511000E-01	 0.00000000E+00
					 7.32703000E-01	-2.62604000E-01	 0.00000000E+00
					 7.32703000E-01	-2.62604000E-01	 0.00000000E+00
					 7.43753000E-01	-2.49010000E-01	 0.00000000E+00
					 7.43753000E-01	-2.49010000E-01	 0.00000000E+00
					 7.54797000E-01	-2.34491000E-01	 0.00000000E+00
					 7.54797000E-01	-2.34491000E-01	 0.00000000E+00
					 7.65554000E-01	-2.19523000E-01	 0.00000000E+00
					 7.65554000E-01	-2.19523000E-01	 0.00000000E+00
					 7.75876000E-01	-2.04403000E-01	 0.00000000E+00
					 7.75876000E-01	-2.04403000E-01	 0.00000000E+00
					 7.85694000E-01	-1.89315000E-01	 0.00000000E+00
					 7.85694000E-01	-1.89315000E-01	 0.00000000E+00
					 7.94982000E-01	-1.74378000E-01	 0.00000000E+00
					 7.94982000E-01	-1.74378000E-01	 0.00000000E+00
					 8.03742000E-01	-1.59668000E-01	 0.00000000E+00
					 8.03742000E-01	-1.59668000E-01	 0.00000000E+00
					 8.11994000E-01	-1.45228000E-01	 0.00000000E+00
					 8.11994000E-01	-1.45228000E-01	 0.00000000E+00
					 8.19779000E-01	-1.31077000E-01	 0.00000000E+00
					 8.19779000E-01	-1.31077000E-01	 0.00000000E+00
					 8.27177000E-01	-1.17186000E-01	 0.00000000E+00
					 8.27177000E-01	-1.17186000E-01	 0.00000000E+00
					 8.34223000E-01	-1.03568000E-01	 0.00000000E+00
					 8.34223000E-01	-1.03568000E-01	 0.00000000E+00
					 8.41889000E-01	-9.01493000E-02	 0.00000000E+00
					 8.41889000E-01	-9.01493000E-02	 0.00000000E+00
					 8.48209000E-01	-7.24689000E-02	 0.00000000E+00
					 8.48209000E-01	-7.24689000E-02	 0.00000000E+00
					 6.85297000E-01	-2.81036000E-01	 0.00000000E+00
					 6.85297000E-01	-2.81036000E-01	 0.00000000E+00
					 6.76520000E-01	-2.94127000E-01	 0.00000000E+00
					 6.76520000E-01	-2.94127000E-01	 0.00000000E+00
					 6.76961000E-01	-2.97477000E-01	 0.00000000E+00
					 6.76961000E-01	-2.97477000E-01	 0.00000000E+00
					 6.83097000E-01	-2.93742000E-01	 0.00000000E+00
					 6.83097000E-01	-2.93742000E-01	 0.00000000E+00
					 6.92438000E-01	-2.85216000E-01	 0.00000000E+00
					 6.92438000E-01	-2.85216000E-01	 0.00000000E+00
					 7.03379000E-01	-2.73642000E-01	 0.00000000E+00
					 7.03379000E-01	-2.73642000E-01	 0.00000000E+00
					 7.14955000E-01	-2.60223000E-01	 0.00000000E+00
					 7.14955000E-01	-2.60223000E-01	 0.00000000E+00
					 7.26613000E-01	-2.45744000E-01	 0.00000000E+00
					 7.26613000E-01	-2.45744000E-01	 0.00000000E+00
					 7.38051000E-01	-2.30695000E-01	 0.00000000E+00
					 7.38051000E-01	-2.30695000E-01	 0.00000000E+00
					 7.49106000E-01	-2.15380000E-01	 0.00000000E+00
					 7.49106000E-01	-2.15380000E-01	 0.00000000E+00
					 7.59697000E-01	-1.99994000E-01	 0.00000000E+00
					 7.59697000E-01	-1.99994000E-01	 0.00000000E+00
					 7.69783000E-01	-1.84660000E-01	 0.00000000E+00
					 7.69783000E-01	-1.84660000E-01	 0.00000000E+00
					 7.79350000E-01	-1.69466000E-01	 0.00000000E+00
					 7.79350000E-01	-1.69466000E-01	 0.00000000E+00
					 7.88397000E-01	-1.54473000E-01	 0.00000000E+00
					 7.88397000E-01	-1.54473000E-01	 0.00000000E+00
					 7.96936000E-01	-1.39726000E-01	 0.00000000E+00
					 7.96936000E-01	-1.39726000E-01	 0.00000000E+00
					 8.04990000E-01	-1.25252000E-01	 0.00000000E+00
					 8.04990000E-01	-1.25252000E-01	 0.00000000E+00
					 8.12596000E-01	-1.11064000E-01	 0.00000000E+00
					 8.12596000E-01	-1.11064000E-01	 0.00000000E+00
					 8.19831000E-01	-9.71320000E-02	 0.00000000E+00
					 8.19831000E-01	-9.71320000E-02	 0.00000000E+00
					 8.26757000E-01	-8.34407000E-02	 0.00000000E+00
					 8.26757000E-01	-8.34407000E-02	 0.00000000E+00
					 8.34204000E-01	-7.00782000E-02	 0.00000000E+00
					 8.34204000E-01	-7.00782000E-02	 0.00000000E+00
					 8.40546000E-01	-5.23117000E-02	 0.00000000E+00
					 8.40546000E-01	-5.23117000E-02	 0.00000000E+00
					 6.45661000E-01	-3.05826000E-01	 0.00000000E+00
					 6.45661000E-01	-3.05826000E-01	 0.00000000E+00
					 6.51994000E-01	-3.02367000E-01	 0.00000000E+00
					 6.51994000E-01	-3.02367000E-01	 0.00000000E+00
					 6.61589000E-01	-2.94166000E-01	 0.00000000E+00
					 6.61589000E-01	-2.94166000E-01	 0.00000000E+00
					 6.72843000E-01	-2.82913000E-01	 0.00000000E+00
					 6.72843000E-01	-2.82913000E-01	 0.00000000E+00
					 6.84802000E-01	-2.69784000E-01	 0.00000000E+00
					 6.84802000E-01	-2.69784000E-01	 0.00000000E+00
					 6.96924000E-01	-2.55543000E-01	 0.00000000E+00
					 6.96924000E-01	-2.55543000E-01	 0.00000000E+00
					 7.08914000E-01	-2.40665000E-01	 0.00000000E+00
					 7.08914000E-01	-2.40665000E-01	 0.00000000E+00
					 7.20614000E-01	-2.25441000E-01	 0.00000000E+00
					 7.20614000E-01	-2.25441000E-01	 0.00000000E+00
					 7.31936000E-01	-2.10050000E-01	 0.00000000E+00
					 7.31936000E-01	-2.10050000E-01	 0.00000000E+00
					 7.42830000E-01	-1.94610000E-01	 0.00000000E+00
					 7.42830000E-01	-1.94610000E-01	 0.00000000E+00
					 7.53265000E-01	-1.79205000E-01	 0.00000000E+00
					 7.53265000E-01	-1.79205000E-01	 0.00000000E+00
					 7.63222000E-01	-1.63899000E-01	 0.00000000E+00
					 7.63222000E-01	-1.63899000E-01	 0.00000000E+00
					 7.72692000E-01	-1.48745000E-01	 0.00000000E+00
					 7.72692000E-01	-1.48745000E-01	 0.00000000E+00
					 7.81671000E-01	-1.33786000E-01	 0.00000000E+00
					 7.81671000E-01	-1.33786000E-01	 0.00000000E+00
					 7.90167000E-01	-1.19057000E-01	 0.00000000E+00
					 7.90167000E-01	-1.19057000E-01	 0.00000000E+00
					 7.98195000E-01	-1.04584000E-01	 0.00000000E+00
					 7.98195000E-01	-1.04584000E-01	 0.00000000E+00
					 8.05791000E-01	-9.03741000E-02	 0.00000000E+00
					 8.05791000E-01	-9.03741000E-02	 0.00000000E+00
					 8.13024000E-01	-7.63997000E-02	 0.00000000E+00
					 8.13024000E-01	-7.63997000E-02	 0.00000000E+00
					 8.19995000E-01	-6.26057000E-02	 0.00000000E+00
					 8.19995000E-01	-6.26057000E-02	 0.00000000E+00
					 8.27373000E-01	-4.92075000E-02	 0.00000000E+00
					 8.27373000E-01	-4.92075000E-02	 0.00000000E+00
					 8.34105000E-01	-3.12657000E-02	 0.00000000E+00
					 8.34105000E-01	-3.12657000E-02	 0.00000000E+00
					 6.29630000E-01	-3.00512000E-01	 0.00000000E+00
					 6.29630000E-01	-3.00512000E-01	 0.00000000E+00
					 6.41100000E-01	-2.89528000E-01	 0.00000000E+00
					 6.41100000E-01	-2.89528000E-01	 0.00000000E+00
					 6.53277000E-01	-2.76814000E-01	 0.00000000E+00
					 6.53277000E-01	-2.76814000E-01	 0.00000000E+00
					 6.65690000E-01	-2.63069000E-01	 0.00000000E+00
					 6.65690000E-01	-2.63069000E-01	 0.00000000E+00
					 6.78090000E-01	-2.48706000E-01	 0.00000000E+00
					 6.78090000E-01	-2.48706000E-01	 0.00000000E+00
					 6.90344000E-01	-2.33964000E-01	 0.00000000E+00
					 6.90344000E-01	-2.33964000E-01	 0.00000000E+00
					 7.02370000E-01	-2.18981000E-01	 0.00000000E+00
					 7.02370000E-01	-2.18981000E-01	 0.00000000E+00
					 7.14111000E-01	-2.03840000E-01	 0.00000000E+00
					 7.14111000E-01	-2.03840000E-01	 0.00000000E+00
					 7.25517000E-01	-1.88604000E-01	 0.00000000E+00
					 7.25517000E-01	-1.88604000E-01	 0.00000000E+00
					 7.36543000E-01	-1.73326000E-01	 0.00000000E+00
					 7.36543000E-01	-1.73326000E-01	 0.00000000E+00
					 7.47151000E-01	-1.58056000E-01	 0.00000000E+00
					 7.47151000E-01	-1.58056000E-01	 0.00000000E+00
					 7.57309000E-01	-1.42844000E-01	 0.00000000E+00
					 7.57309000E-01	-1.42844000E-01	 0.00000000E+00
					 7.66993000E-01	-1.27737000E-01	 0.00000000E+00
					 7.66993000E-01	-1.27737000E-01	 0.00000000E+00
					 7.76191000E-01	-1.12779000E-01	 0.00000000E+00
					 7.76191000E-01	-1.12779000E-01	 0.00000000E+00
					 7.84899000E-01	-9.80084000E-02	 0.00000000E+00
					 7.84899000E-01	-9.80084000E-02	 0.00000000E+00
					 7.93128000E-01	-8.34524000E-02	 0.00000000E+00
					 7.93128000E-01	-8.34524000E-02	 0.00000000E+00
					 8.00909000E-01	-6.91229000E-02	 0.00000000E+00
					 8.00909000E-01	-6.91229000E-02	 0.00000000E+00
					 8.08306000E-01	-5.50007000E-02	 0.00000000E+00
					 8.08306000E-01	-5.50007000E-02	 0.00000000E+00
					 8.15463000E-01	-4.09919000E-02	 0.00000000E+00
					 8.15463000E-01	-4.09919000E-02	 0.00000000E+00