<?xml version="1.0"?>
<VTKFile type="UnstructuredGrid" version="0.1" byte_order="LittleEndian">
	<UnstructuredGrid>
		<Piece NumberOfPoints="4750" NumberOfCells="4584">
			<Points>
				<DataArray type="Float64" NumberOfComponents="3" format="ascii">
					 0.00000000E+00	 0.00000000E+00	 0.00000000E+00
					 2.43900000E-02	 0.00000000E+00	 0.00000000E+00
					 1.85600000E-02	 1.89200000E-02	 0.00000000E+00
					 0.00000000E+00	 2.43900000E-02	 0.00000000E+00
					 4.87800000E-02	 0.00000000E+00	 0.00000000E+00
					 3.76900000E-02	 1.59400000E-02	 0.00000000E+00
					 3.65900000E-02	 3.65900000E-02	 0.00000000E+00
					 1.26300000E-02	 3.65900000E-02	 0.00000000E+00
					 0.00000000E+00	 4.87800000E-02	 0.00000000E+00
					 7.31700000E-02	 0.00000000E+00	 0.00000000E+00
					 6.01500000E-02	 2.42100000E-02	 0.00000000E+00
					 5.28400000E-02	 4.87900000E-02	 0.00000000E+00
					 2.46100000E-02	 4.87700000E-02	 0.00000000E+00
					 1.23100000E-02	 6.06700000E-02	 0.00000000E+00
					 0.00000000E+00	 7.31700000E-02	 0.00000000E+00
					 9.75600000E-02	 0.00000000E+00	 0.00000000E+00
					 8.87400000E-02	 2.06800000E-02	 0.00000000E+00
					 8.23600000E-02	 4.71000000E-02	 0.00000000E+00
					 6.64100000E-02	 6.80300000E-02	 0.00000000E+00
					 4.69500000E-02	 6.80500000E-02	 0.00000000E+00
					 2.87600000E-02	 6.53500000E-02	 0.00000000E+00
					 2.09600000E-02	 8.56400000E-02	 0.00000000E+00
					 0.00000000E+00	 9.75600000E-02	 0.00000000E+00
					 1.21950000E-01	 0.00000000E+00	 0.00000000E+00
					 1.10070000E-01	 1.69900000E-02	 0.00000000E+00
					 1.07800000E-01	 3.66900000E-02	 0.00000000E+00
					 8.94600000E-02	 7.22900000E-02	 0.00000000E+00
					 1.06130000E-01	 5.94200000E-02	 0.00000000E+00
					 5.11500000E-02	 8.69000000E-02	 0.00000000E+00
					 7.53500000E-02	 8.49100000E-02	 0.00000000E+00
					 3.64900000E-02	 1.05020000E-01	 0.00000000E+00
					 1.82000000E-02	 1.11460000E-01	 0.00000000E+00
					 0.00000000E+00	 1.21950000E-01	 0.00000000E+00
					 1.46340000E-01	 0.00000000E+00	 0.00000000E+00
					 1.34270000E-01	 2.75900000E-02	 0.00000000E+00
					 1.23010000E-01	 4.98100000E-02	 0.00000000E+00
					 1.09030000E-01	 8.12700000E-02	 0.00000000E+00
					 9.34000000E-02	 9.39300000E-02	 0.00000000E+00
					 1.25120000E-01	 6.93500000E-02	 0.00000000E+00
					 7.57600000E-02	 1.03320000E-01	 0.00000000E+00
					 5.67800000E-02	 1.16300000E-01	 0.00000000E+00
					 3.53500000E-02	 1.24790000E-01	 0.00000000E+00
					 1.65000000E-02	 1.34150000E-01	 0.00000000E+00
					 0.00000000E+00	 1.46340000E-01	 0.00000000E+00
					 1.70730000E-01	 0.00000000E+00	 0.00000000E+00
					 1.59650000E-01	 1.88000000E-02	 0.00000000E+00
					 1.62470000E-01	 4.40200000E-02	 0.00000000E+00
					 1.40360000E-01	 5.69000000E-02	 0.00000000E+00
					 1.26860000E-01	 8.93300000E-02	 0.00000000E+00
					 1.12200000E-01	 1.03660000E-01	 0.00000000E+00
					 9.70800000E-02	 1.18480000E-01	 0.00000000E+00
					 1.42360000E-01	 8.13600000E-02	 0.00000000E+00
					 7.91500000E-02	 1.20060000E-01	 0.00000000E+00
					 6.77100000E-02	 1.33240000E-01	 0.00000000E+00
					 5.17100000E-02	 1.41340000E-01	 0.00000000E+00
					 3.24200000E-02	 1.41670000E-01	 0.00000000E+00
					 1.97600000E-02	 1.58730000E-01	 0.00000000E+00
					 0.00000000E+00	 1.70730000E-01	 0.00000000E+00
					 1.95120000E-01	 0.00000000E+00	 0.00000000E+00
					 1.84430000E-01	 2.24000000E-02	 0.00000000E+00
					 1.91170000E-01	 5.02600000E-02	 0.00000000E+00
					 1.54910000E-01	 6.92800000E-02	 0.00000000E+00
					 1.72560000E-01	 6.47800000E-02	 0.00000000E+00
					 1.32610000E-01	 1.08150000E-01	 0.00000000E+00
					 1.47220000E-01	 9.80600000E-02	 0.00000000E+00
					 1.12640000E-01	 1.31260000E-01	 0.00000000E+00
					 8.83800000E-02	 1.34860000E-01	 0.00000000E+00
					 1.65540000E-01	 8.48800000E-02	 0.00000000E+00
					 7.29900000E-02	 1.49870000E-01	 0.00000000E+00
					 3.93000000E-02	 1.57470000E-01	 0.00000000E+00
					 5.71700000E-02	 1.66350000E-01	 0.00000000E+00
					 3.52300000E-02	 1.79600000E-01	 0.00000000E+00
					 1.48500000E-02	 1.81180000E-01	 0.00000000E+00
					 0.00000000E+00	 1.95120000E-01	 0.00000000E+00
					 2.19510000E-01	 0.00000000E+00	 0.00000000E+00
					 2.07320000E-01	 1.23400000E-02	 0.00000000E+00
					 2.04520000E-01	 3.16000000E-02	 0.00000000E+00
					 1.89030000E-01	 7.53700000E-02	 0.00000000E+00
					 2.13860000E-01	 6.62200000E-02	 0.00000000E+00
					 2.12220000E-01	 4.77400000E-02	 0.00000000E+00
					 1.51330000E-01	 1.18670000E-01	 0.00000000E+00
					 1.34930000E-01	 1.27700000E-01	 0.00000000E+00
					 1.65390000E-01	 1.05440000E-01	 0.00000000E+00
					 1.28460000E-01	 1.45240000E-01	 0.00000000E+00
					 9.52200000E-02	 1.56200000E-01	 0.00000000E+00
					 1.12420000E-01	 1.55690000E-01	 0.00000000E+00
					 1.87300000E-01	 9.98900000E-02	 0.00000000E+00
					 7.77100000E-02	 1.67330000E-01	 0.00000000E+00
					 5.27000000E-02	 1.85700000E-01	 0.00000000E+00
					 7.04700000E-02	 1.83350000E-01	 0.00000000E+00
					 4.32700000E-02	 2.06260000E-01	 0.00000000E+00
					 1.94300000E-02	 2.01690000E-01	 0.00000000E+00
					 0.00000000E+00	 2.19510000E-01	 0.00000000E+00
					 2.43900000E-01	 0.00000000E+00	 0.00000000E+00
					 2.27900000E-01	 2.57700000E-02	 0.00000000E+00
					 2.06350000E-01	 8.59500000E-02	 0.00000000E+00
					 2.30440000E-01	 5.19600000E-02	 0.00000000E+00
					 2.29770000E-01	 8.50300000E-02	 0.00000000E+00
					 2.38630000E-01	 6.70800000E-02	 0.00000000E+00
					 1.75880000E-01	 1.25600000E-01	 0.00000000E+00
					 1.52230000E-01	 1.46830000E-01	 0.00000000E+00
					 1.30090000E-01	 1.64700000E-01	 0.00000000E+00
					 1.09890000E-01	 1.73530000E-01	 0.00000000E+00
					 9.27200000E-02	 1.80880000E-01	 0.00000000E+00
					 2.11800000E-01	 1.03250000E-01	 0.00000000E+00
					 1.98510000E-01	 1.17950000E-01	 0.00000000E+00
					 6.16900000E-02	 2.00430000E-01	 0.00000000E+00
					 8.07400000E-02	 1.99480000E-01	 0.00000000E+00
					 2.36000000E-02	 2.28410000E-01	 0.00000000E+00
					 4.58300000E-02	 2.28360000E-01	 0.00000000E+00
					 6.57900000E-02	 2.19250000E-01	 0.00000000E+00
					 0.00000000E+00	 2.43900000E-01	 0.00000000E+00
					 2.68290000E-01	 0.00000000E+00	 0.00000000E+00
					 2.53700000E-01	 1.90500000E-02	 0.00000000E+00
					 2.51330000E-01	 4.43000000E-02	 0.00000000E+00
					 2.31950000E-01	 1.06320000E-01	 0.00000000E+00
					 2.55990000E-01	 7.07500000E-02	 0.00000000E+00
					 2.50950000E-01	 9.54600000E-02	 0.00000000E+00
					 1.78890000E-01	 1.51150000E-01	 0.00000000E+00
					 1.98870000E-01	 1.37650000E-01	 0.00000000E+00
					 1.52430000E-01	 1.78080000E-01	 0.00000000E+00
					 1.66310000E-01	 1.62940000E-01	 0.00000000E+00
					 1.25910000E-01	 1.87920000E-01	 0.00000000E+00
					 1.03040000E-01	 1.95500000E-01	 0.00000000E+00
					 2.18770000E-01	 1.23210000E-01	 0.00000000E+00
					 9.07000000E-02	 2.17480000E-01	 0.00000000E+00
					 3.77700000E-02	 2.45000000E-01	 0.00000000E+00
					 1.95200000E-02	 2.54030000E-01	 0.00000000E+00
					 5.88000000E-02	 2.42780000E-01	 0.00000000E+00
					 7.98200000E-02	 2.39560000E-01	 0.00000000E+00
					 0.00000000E+00	 2.68290000E-01	 0.00000000E+00
					 2.92680000E-01	 0.00000000E+00	 0.00000000E+00
					 2.77100000E-01	 2.51700000E-02	 0.00000000E+00
					 2.75170000E-01	 5.12000000E-02	 0.00000000E+00
					 2.48500000E-01	 1.24490000E-01	 0.00000000E+00
					 2.77510000E-01	 6.82700000E-02	 0.00000000E+00
					 2.68870000E-01	 8.40300000E-02	 0.00000000E+00
					 2.70850000E-01	 1.02600000E-01	 0.00000000E+00
					 1.81700000E-01	 1.75700000E-01	 0.00000000E+00
					 1.98340000E-01	 1.57870000E-01	 0.00000000E+00
					 2.22990000E-01	 1.49600000E-01	 0.00000000E+00
					 1.68990000E-01	 2.06400000E-01	 0.00000000E+00
					 1.41800000E-01	 2.01320000E-01	 0.00000000E+00
					 1.18350000E-01	 2.13520000E-01	 0.00000000E+00
					 9.69400000E-02	 2.36560000E-01	 0.00000000E+00
					 5.17900000E-02	 2.59990000E-01	 0.00000000E+00
					 3.48100000E-02	 2.61820000E-01	 0.00000000E+00
					 2.09700000E-02	 2.76780000E-01	 0.00000000E+00
					 7.18200000E-02	 2.64520000E-01	 0.00000000E+00
					 9.49400000E-02	 2.56680000E-01	 0.00000000E+00
					 0.00000000E+00	 2.92680000E-01	 0.00000000E+00
					 3.17070000E-01	 0.00000000E+00	 0.00000000E+00
					 3.04430000E-01	 2.17500000E-02	 0.00000000E+00
					 2.93550000E-01	 4.04900000E-02	 0.00000000E+00
					 2.94610000E-01	 5.99500000E-02	 0.00000000E+00
					 2.78460000E-01	 1.25020000E-01	 0.00000000E+00
					 2.50810000E-01	 1.54440000E-01	 0.00000000E+00
					 2.63190000E-01	 1.39190000E-01	 0.00000000E+00
					 2.88930000E-01	 8.32400000E-02	 0.00000000E+00
					 2.89400000E-01	 1.03340000E-01	 0.00000000E+00
					 1.97460000E-01	 1.97440000E-01	 0.00000000E+00
					 2.09260000E-01	 1.75270000E-01	 0.00000000E+00
					 2.36090000E-01	 1.73800000E-01	 0.00000000E+00
					 1.43350000E-01	 2.20680000E-01	 0.00000000E+00
					 1.60950000E-01	 2.26060000E-01	 0.00000000E+00
					 1.93310000E-01	 2.16940000E-01	 0.00000000E+00
					 1.80680000E-01	 2.34250000E-01	 0.00000000E+00
					 1.26740000E-01	 2.34740000E-01	 0.00000000E+00
					 1.13550000E-01	 2.47850000E-01	 0.00000000E+00
					 4.83000000E-02	 2.82500000E-01	 0.00000000E+00
					 2.32200000E-02	 3.01340000E-01	 0.00000000E+00
					 8.41700000E-02	 2.87890000E-01	 0.00000000E+00
					 6.80600000E-02	 2.81450000E-01	 0.00000000E+00
					 9.50000000E-02	 2.73780000E-01	 0.00000000E+00
					 1.12350000E-01	 2.77730000E-01	 0.00000000E+00
					 0.00000000E+00	 3.17070000E-01	 0.00000000E+00
					 3.41460000E-01	 0.00000000E+00	 0.00000000E+00
					 3.29310000E-01	 2.07600000E-02	 0.00000000E+00
					 3.16450000E-01	 4.43900000E-02	 0.00000000E+00
					 3.15830000E-01	 7.24200000E-02	 0.00000000E+00
					 2.97970000E-01	 1.40170000E-01	 0.00000000E+00
					 3.03890000E-01	 1.12810000E-01	 0.00000000E+00
					 2.74990000E-01	 1.52810000E-01	 0.00000000E+00
[...]
			<PointData>
				<DataArray type="Float32" Name="V3DF" NumberOfComponents="3" ComponentName0="V1" ComponentName1="V2" ComponentName2="V3" format="ascii">
					 0.00000000E+00	 0.00000000E+00	 0.00000000E+00
					 0.00000000E+00	 0.00000000E+00	 0.00000000E+00
					-1.43825000E-04	 1.58219000E-04	 0.00000000E+00
					 0.00000000E+00	 0.00000000E+00	 0.00000000E+00
					 0.00000000E+00	 0.00000000E+00	 0.00000000E+00
					-3.07591000E-04	 1.48598000E-04	 0.00000000E+00
					-2.31357000E-04	 2.62402000E-04	 0.00000000E+00
					-8.14997000E-05	 2.94766000E-04	 0.00000000E+00
					 0.00000000E+00	 0.00000000E+00	 0.00000000E+00
					 0.00000000E+00	 0.00000000E+00	 0.00000000E+00
					-3.96611000E-04	-4.32103000E-05	 0.00000000E+00
					 1.83362000E-04	-1.32287000E-04	 0.00000000E+00
					-4.45318000E-05	 3.90219000E-04	 0.00000000E+00
					-5.51624000E-05	 3.98713000E-04	 0.00000000E+00
					 0.00000000E+00	 0.00000000E+00	 0.00000000E+00
					 0.00000000E+00	 0.00000000E+00	 0.00000000E+00
					-3.63328000E-05	-3.45330000E-04	 0.00000000E+00
					 1.12486000E-03	-1.26208000E-03	 0.00000000E+00
					 1.34900000E-03	-1.40359000E-03	 0.00000000E+00
					 4.38275000E-04	-3.26867000E-04	 0.00000000E+00
					 1.26978000E-04	 1.47445000E-04	 0.00000000E+00
					 2.26217000E-04	 2.09716000E-04	 0.00000000E+00
					 0.00000000E+00	 0.00000000E+00	 0.00000000E+00
					 0.00000000E+00	 0.00000000E+00	 0.00000000E+00
					 5.28004000E-04	-4.44115000E-04	 0.00000000E+00
					 2.13384000E-03	-1.42871000E-03	 0.00000000E+00
					 3.73717000E-03	-3.99012000E-03	 0.00000000E+00
					 4.37342000E-03	-3.85483000E-03	 0.00000000E+00
					 1.21878000E-03	-1.58041000E-03	 0.00000000E+00
					 3.23925000E-03	-3.75769000E-03	 0.00000000E+00
					 9.53822000E-04	-1.32964000E-03	 0.00000000E+00
					 2.21217000E-04	-2.24861000E-04	 0.00000000E+00
					 0.00000000E+00	 0.00000000E+00	 0.00000000E+00
					 0.00000000E+00	 0.00000000E+00	 0.00000000E+00
					 3.55832000E-03	-1.77147000E-03	 0.00000000E+00
					 5.43313000E-03	-3.79927000E-03	 0.00000000E+00
					 7.57842000E-03	-7.44892000E-03	 0.00000000E+00
					 6.54796000E-03	-7.45289000E-03	 0.00000000E+00
					 8.84861000E-03	-7.39779000E-03	 0.00000000E+00
					 4.54468000E-03	-6.22906000E-03	 0.00000000E+00
					 2.77348000E-03	-4.67288000E-03	 0.00000000E+00
					 1.38178000E-03	-2.49108000E-03	 0.00000000E+00
					 4.02193000E-04	-9.11433000E-04	 0.00000000E+00
					 0.00000000E+00	 0.00000000E+00	 0.00000000E+00
					 0.00000000E+00	 0.00000000E+00	 0.00000000E+00
					 4.28074000E-03	-1.18189000E-03	 0.00000000E+00
					 1.15023000E-02	-4.49938000E-03	 0.00000000E+00
					 9.54479000E-03	-6.34142000E-03	 0.00000000E+00
					 1.26211000E-02	-1.20830000E-02	 0.00000000E+00
					 1.09937000E-02	-1.26299000E-02	 0.00000000E+00
					 9.09516000E-03	-1.23073000E-02	 0.00000000E+00
					 1.50122000E-02	-1.22962000E-02	 0.00000000E+00
					 6.00003000E-03	-9.23242000E-03	 0.00000000E+00
					 5.28741000E-03	-9.08771000E-03	 0.00000000E+00
					 3.33192000E-03	-6.75241000E-03	 0.00000000E+00
					 1.38579000E-03	-3.27400000E-03	 0.00000000E+00
					 4.09096000E-04	-2.48947000E-03	 0.00000000E+00
					 0.00000000E+00	 0.00000000E+00	 0.00000000E+00
					 0.00000000E+00	 0.00000000E+00	 0.00000000E+00
					 8.17742000E-03	-2.27154000E-03	 0.00000000E+00
					 2.09407000E-02	-8.99495000E-03	 0.00000000E+00
					 1.56149000E-02	-1.05559000E-02	 0.00000000E+00
					 1.98981000E-02	-1.11088000E-02	 0.00000000E+00
					 1.70420000E-02	-1.83780000E-02	 0.00000000E+00
					 1.99239000E-02	-1.82816000E-02	 0.00000000E+00
					 1.44452000E-02	-1.94977000E-02	 0.00000000E+00
					 9.17346000E-03	-1.40229000E-02	 0.00000000E+00
					 2.34969000E-02	-1.72881000E-02	 0.00000000E+00
					 7.10005000E-03	-1.30653000E-02	 0.00000000E+00
					 1.97666000E-03	-6.07573000E-03	 0.00000000E+00
					 4.46976000E-03	-1.17748000E-02	 0.00000000E+00
					 1.77453000E-03	-7.46410000E-03	 0.00000000E+00
					 3.46047000E-04	-2.52495000E-03	 0.00000000E+00
					 0.00000000E+00	 0.00000000E+00	 0.00000000E+00
					 0.00000000E+00	 0.00000000E+00	 0.00000000E+00
					 7.36692000E-03	-1.08252000E-03	 0.00000000E+00
					 1.60614000E-02	-4.09046000E-03	 0.00000000E+00
					 2.88727000E-02	-1.69787000E-02	 0.00000000E+00
					 3.55064000E-02	-1.62769000E-02	 0.00000000E+00
					 2.58080000E-02	-9.04604000E-03	 0.00000000E+00
					 2.60131000E-02	-2.69061000E-02	 0.00000000E+00
					 2.15931000E-02	-2.60057000E-02	 0.00000000E+00
					 2.87360000E-02	-2.52346000E-02	 0.00000000E+00
					 2.18456000E-02	-2.96994000E-02	 0.00000000E+00
					 1.28978000E-02	-2.11898000E-02	 0.00000000E+00
					 1.80956000E-02	-2.71405000E-02	 0.00000000E+00
					 3.60730000E-02	-2.66524000E-02	 0.00000000E+00
					 9.03893000E-03	-1.84239000E-02	 0.00000000E+00
					 4.46706000E-03	-1.36512000E-02	 0.00000000E+00
					 8.04002000E-03	-1.98872000E-02	 0.00000000E+00
					 3.40580000E-03	-1.35531000E-02	 0.00000000E+00
					 9.70958000E-04	-4.92242000E-03	 0.00000000E+00
					 0.00000000E+00	 0.00000000E+00	 0.00000000E+00
					 0.00000000E+00	 0.00000000E+00	 0.00000000E+00
					 1.88654000E-02	-3.48329000E-03	 0.00000000E+00
					 3.99282000E-02	-2.36091000E-02	 0.00000000E+00
					 3.42009000E-02	-1.12274000E-02	 0.00000000E+00
					 5.14582000E-02	-2.55171000E-02	 0.00000000E+00
					 4.52744000E-02	-1.81430000E-02	 0.00000000E+00
					 3.75187000E-02	-3.65353000E-02	 0.00000000E+00
					 3.09236000E-02	-3.81354000E-02	 0.00000000E+00
					 2.54405000E-02	-3.68472000E-02	 0.00000000E+00
					 1.85797000E-02	-3.22614000E-02	 0.00000000E+00
					 1.34972000E-02	-2.71401000E-02	 0.00000000E+00
					 4.87356000E-02	-3.29451000E-02	 0.00000000E+00
					 4.68605000E-02	-3.74500000E-02	 0.00000000E+00
					 6.62806000E-03	-2.00465000E-02	 0.00000000E+00
					 1.13318000E-02	-2.78890000E-02	 0.00000000E+00
					 1.05966000E-03	-8.35155000E-03	 0.00000000E+00
					 4.13977000E-03	-1.82061000E-02	 0.00000000E+00
					 8.16556000E-03	-2.60815000E-02	 0.00000000E+00
					 0.00000000E+00	 0.00000000E+00	 0.00000000E+00
					 0.00000000E+00	 0.00000000E+00	 0.00000000E+00
					 1.89863000E-02	-2.35722000E-03	 0.00000000E+00
					 3.86077000E-02	-9.70753000E-03	 0.00000000E+00
					 6.13640000E-02	-3.84784000E-02	 0.00000000E+00
					 5.57911000E-02	-2.33420000E-02	 0.00000000E+00
					 6.77075000E-02	-3.53155000E-02	 0.00000000E+00
					 4.34427000E-02	-4.97899000E-02	 0.00000000E+00
					 5.24805000E-02	-4.81689000E-02	 0.00000000E+00
					 3.61945000E-02	-5.19027000E-02	 0.00000000E+00
					 3.93197000E-02	-5.11475000E-02	 0.00000000E+00
					 2.54993000E-02	-4.36142000E-02	 0.00000000E+00
					 1.81653000E-02	-3.70025000E-02	 0.00000000E+00
					 5.95992000E-02	-4.56934000E-02	 0.00000000E+00
					 1.49630000E-02	-3.77426000E-02	 0.00000000E+00
					 3.02526000E-03	-1.71625000E-02	 0.00000000E+00
					 8.31112000E-04	-8.44785000E-03	 0.00000000E+00
					 6.84276000E-03	-2.78829000E-02	 0.00000000E+00
					 1.19580000E-02	-3.88471000E-02	 0.00000000E+00
					 0.00000000E+00	 0.00000000E+00	 0.00000000E+00
					 0.00000000E+00	 0.00000000E+00	 0.00000000E+00
					 3.02693000E-02	-4.76394000E-03	 0.00000000E+00
					 5.33557000E-02	-1.44999000E-02	 0.00000000E+00
					 7.77886000E-02	-5.22726000E-02	 0.00000000E+00
					 6.69462000E-02	-2.33887000E-02	 0.00000000E+00
					 7.14209000E-02	-3.20568000E-02	 0.00000000E+00
					 8.20450000E-02	-4.35097000E-02	 0.00000000E+00
					 4.93593000E-02	-6.39997000E-02	 0.00000000E+00
					 5.56122000E-02	-5.97090000E-02	 0.00000000E+00
					 7.02079000E-02	-6.16236000E-02	 0.00000000E+00
					 4.83404000E-02	-7.37762000E-02	 0.00000000E+00
					 3.39967000E-02	-5.74533000E-02	 0.00000000E+00
					 2.42406000E-02	-5.04181000E-02	 0.00000000E+00
					 1.83253000E-02	-4.83262000E-02	 0.00000000E+00
					 4.99414000E-03	-2.76506000E-02	 0.00000000E+00
					 2.35437000E-03	-1.82377000E-02	 0.00000000E+00
					 1.38644000E-03	-1.15063000E-02	 0.00000000E+00
					 1.09913000E-02	-4.18166000E-02	 0.00000000E+00
					 1.73973000E-02	-5.32863000E-02	 0.00000000E+00
					 0.00000000E+00	 0.00000000E+00	 0.00000000E+00
					 0.00000000E+00	 0.00000000E+00	 0.00000000E+00
					 3.45011000E-02	-3.97664000E-03	 0.00000000E+00
					 5.24707000E-02	-1.02081000E-02	 0.00000000E+00
					 7.06029000E-02	-1.91379000E-02	 0.00000000E+00
					 9.81737000E-02	-5.79601000E-02	 0.00000000E+00
					 8.91631000E-02	-7.31070000E-02	 0.00000000E+00
					 9.22940000E-02	-6.49038000E-02	 0.00000000E+00
					 8.30075000E-02	-3.18151000E-02	 0.00000000E+00
					 9.34543000E-02	-4.49334000E-02	 0.00000000E+00
					 6.24592000E-02	-8.29957000E-02	 0.00000000E+00
					 6.62712000E-02	-7.41102000E-02	 0.00000000E+00
					 8.30059000E-02	-8.12543000E-02	 0.00000000E+00
					 3.63367000E-02	-6.67308000E-02	 0.00000000E+00
					 4.70001000E-02	-8.07768000E-02	 0.00000000E+00
					 6.38651000E-02	-9.30674000E-02	 0.00000000E+00
					 5.95854000E-02	-9.75341000E-02	 0.00000000E+00
					 2.87471000E-02	-6.28005000E-02	 0.00000000E+00
					 2.32066000E-02	-6.20633000E-02	 0.00000000E+00
					 5.52214000E-03	-3.03286000E-02	 0.00000000E+00
					 2.01268000E-03	-1.56362000E-02	 0.00000000E+00
					 1.52787000E-02	-5.65037000E-02	 0.00000000E+00
					 1.06559000E-02	-4.35609000E-02	 0.00000000E+00
					 1.76692000E-02	-5.86677000E-02	 0.00000000E+00
					 2.45506000E-02	-7.26774000E-02	 0.00000000E+00
					 0.00000000E+00	 0.00000000E+00	 0.00000000E+00
					 0.00000000E+00	 0.00000000E+00	 0.00000000E+00
					 3.94020000E-02	-3.31533000E-03	 0.00000000E+00
					 6.66231000E-02	-1.22195000E-02	 0.00000000E+00
					 9.16650000E-02	-2.73860000E-02	 0.00000000E+00
					 1.17086000E-01	-7.12686000E-02	 0.00000000E+00
					 1.08927000E-01	-5.30524000E-02	 0.00000000E+00
					 1.05307000E-01	-7.70810000E-02	 0.00000000E+00
					 1.01290000E-01	-8.40494000E-02	 0.00000000E+00
					 9.83777000E-02	-9.12743000E-02	 0.00000000E+00
					 9.83939000E-02	-3.93948000E-02	 0.00000000E+00
					 7.69041000E-02	-1.01414000E-01	 0.00000000E+00
					 7.71106000E-02	-9.22317000E-02	 0.00000000E+00
					 8.79635000E-02	-9.43567000E-02	 0.00000000E+00
					 3.75225000E-02	-7.79057000E-02	 0.00000000E+00
					 4.82052000E-02	-9.14646000E-02	 0.00000000E+00
					 7.53017000E-02	-1.11109000E-01	 0.00000000E+00
					 7.41463000E-02	-1.24494000E-01	 0.00000000E+00
					 5.64176000E-02	-1.08113000E-01	 0.00000000E+00
					 3.24212000E-02	-7.53311000E-02	 0.00000000E+00
					 3.35975000E-02	-8.46741000E-02	 0.00000000E+00
					 5.94614000E-03	-3.41729000E-02	 0.00000000E+00
					 1.11791000E-02	-5.05652000E-02	 0.00000000E+00
					 1.81021000E-03	-1.95565000E-02	 0.00000000E+00
					 1.98005000E-02	-6.95602000E-02	 0.00000000E+00
					 3.83383000E-02	-1.01357000E-01	 0.00000000E+00
					 2.82458000E-02	-8.83004000E-02	 0.00000000E+00
					 0.00000000E+00	 0.00000000E+00	 0.00000000E+00
					 4.36518000E-02	-3.32908000E-03	 0.00000000E+00
					 0.00000000E+00	 0.00000000E+00	 0.00000000E+00
					 7.09001000E-02	-8.91546000E-03	 0.00000000E+00
					 8.91336000E-02	-1.78122000E-02	 0.00000000E+00
					 1.11643000E-01	-2.80587000E-02	 0.00000000E+00
					 1.12454000E-01	-4.10019000E-02	 0.00000000E+00
					 1.23453000E-01	-6.35911000E-02	 0.00000000E+00
					 1.40452000E-01	-8.26040000E-02	 0.00000000E+00
					 1.24534000E-01	-8.86884000E-02	 0.00000000E+00
					 1.29189000E-01	-5.49580000E-02	 0.00000000E+00
					 1.14461000E-01	-9.57416000E-02	 0.00000000E+00
					 1.00988000E-01	-1.04340000E-01	 0.00000000E+00
					 1.15253000E-01	-1.07859000E-01	 0.00000000E+00
					 8.99356000E-02	-1.17507000E-01	 0.00000000E+00
					 8.90684000E-02	-1.05860000E-01	 0.00000000E+00
					 4.21723000E-02	-9.16217000E-02	 0.00000000E+00
					 8.75953000E-02	-1.27516000E-01	 0.00000000E+00
					 6.51057000E-02	-1.32300000E-01	 0.00000000E+00
					 8.29785000E-02	-1.47246000E-01	 0.00000000E+00
					 9.39117000E-02	-1.43873000E-01	 0.00000000E+00
					 4.77879000E-02	-1.07620000E-01	 0.00000000E+00
					 4.52732000E-03	-3.91930000E-02	 0.00000000E+00
					 8.69734000E-03	-5.03422000E-02	 0.00000000E+00
					 1.49356000E-02	-6.76944000E-02	 0.00000000E+00
					 1.81971000E-03	-2.54752000E-02	 0.00000000E+00
					 2.40582000E-02	-9.03851000E-02	 0.00000000E+00
					 4.37679000E-02	-1.21043000E-01	 0.00000000E+00
					 5.25390000E-02	-1.25427000E-01	 0.00000000E+00
					 3.47081000E-02	-1.05435000E-01	 0.00000000E+00
					 0.00000000E+00	 0.00000000E+00	 0.00000000E+00
					 5.04355000E-02	-3.29040000E-03	 0.00000000E+00
					 7.97792000E-02	-1.04385000E-02	 0.00000000E+00
					 0.00000000E+00	 0.00000000E+00	 0.00000000E+00
					 9.63553000E-02	-1.61101000E-02	 0.00000000E+00
					 1.34592000E-01	-3.19550000E-02	 0.00000000E+00
					 1.15963000E-01	-2.27997000E-02	 0.00000000E+00
					 1.30081000E-01	-4.05523000E-02	 0.00000000E+00
					 1.37670000E-01	-6.65125000E-02	 0.00000000E+00
					 1.42435000E-01	-1.04334000E-01	 0.00000000E+00
					 1.62502000E-01	-7.78723000E-02	 0.00000000E+00
					 1.68101000E-01	-9.47057000E-02	 0.00000000E+00
					 1.56197000E-01	-1.00438000E-01	 0.00000000E+00
					 1.28250000E-01	-1.01411000E-01	 0.00000000E+00
					 1.44453000E-01	-5.29269000E-02	 0.00000000E+00
					 1.48714000E-01	-6.57158000E-02	 0.00000000E+00
					 1.32085000E-01	-1.15414000E-01	 0.00000000E+00
					 1.13241000E-01	-1.19163000E-01	 0.00000000E+00
					 1.01815000E-01	-1.20475000E-01	 0.00000000E+00
					 1.28785000E-01	-1.30997000E-01	 0.00000000E+00
					 1.05545000E-01	-1.37249000E-01	 0.00000000E+00
					 6.65361000E-02	-1.50111000E-01	 0.00000000E+00
					 7.59106000E-02	-1.56372000E-01	 0.00000000E+00
					 8.83507000E-02	-1.65946000E-01	 0.00000000E+00
					 9.94892000E-02	-1.63484000E-01	 0.00000000E+00
					 1.12238000E-01	-1.57553000E-01	 0.00000000E+00
					 9.39450000E-03	-6.23762000E-02	 0.00000000E+00
					 5.60863000E-03	-4.81290000E-02	 0.00000000E+00
					 1.63227000E-02	-7.86414000E-02	 0.00000000E+00
					 1.17105000E-03	-2.48995000E-02	 0.00000000E+00
					 4.27782000E-03	-4.64160000E-02	 0.00000000E+00
					 3.46842000E-02	-1.16535000E-01	 0.00000000E+00
					 2.82281000E-02	-1.09720000E-01	 0.00000000E+00
					 1.97894000E-02	-9.34556000E-02	 0.00000000E+00
					 4.32911000E-02	-1.33488000E-01	 0.00000000E+00
					 5.41764000E-02	-1.42380000E-01	 0.00000000E+00
					 0.00000000E+00	 0.00000000E+00	 0.00000000E+00
					 8.78108000E-02	-8.44119000E-03	 0.00000000E+00
					 6.46113000E-02	-2.63958000E-03	 0.00000000E+00
					 1.15308000E-01	-1.86478000E-02	 0.00000000E+00
					 0.00000000E+00	 0.00000000E+00	 0.00000000E+00
					 1.57295000E-01	-3.94928000E-02	 0.00000000E+00
					 1.42263000E-01	-2.89564000E-02	 0.00000000E+00
					 1.50133000E-01	-4.57854000E-02	 0.00000000E+00
					 1.50494000E-01	-1.22029000E-01	 0.00000000E+00
					 1.61908000E-01	-1.18009000E-01	 0.00000000E+00
					 1.75364000E-01	-6.71596000E-02	 0.00000000E+00
					 1.86932000E-01	-7.93461000E-02	 0.00000000E+00
					 1.85760000E-01	-9.29792000E-02	 0.00000000E+00
					 1.60038000E-01	-5.96748000E-02	 0.00000000E+00
					 1.85399000E-01	-1.10196000E-01	 0.00000000E+00
					 1.72279000E-01	-1.10609000E-01	 0.00000000E+00
					 1.48145000E-01	-1.34882000E-01	 0.00000000E+00
					 1.16693000E-01	-1.34722000E-01	 0.00000000E+00
					 1.41957000E-01	-1.48461000E-01	 0.00000000E+00
					 1.26683000E-01	-1.49813000E-01	 0.00000000E+00
					 8.26106000E-02	-1.75436000E-01	 0.00000000E+00
					 6.56089000E-02	-1.66832000E-01	 0.00000000E+00
					 1.00561000E-01	-1.81490000E-01	 0.00000000E+00
					 1.16036000E-01	-1.77902000E-01	 0.00000000E+00
					 1.31356000E-01	-1.71693000E-01	 0.00000000E+00
					 9.40714000E-03	-6.99946000E-02	 0.00000000E+00
					 1.26396000E-02	-7.81110000E-02	 0.00000000E+00
					 4.60962000E-04	-2.67389000E-02	 0.00000000E+00
					 3.13959000E-03	-4.90978000E-02	 0.00000000E+00
					 7.52186000E-03	-6.76631000E-02	 0.00000000E+00
					 3.57592000E-02	-1.32671000E-01	 0.00000000E+00
					 2.48306000E-02	-1.13900000E-01	 0.00000000E+00
					 1.53125000E-02	-9.26554000E-02	 0.00000000E+00
					 4.87128000E-02	-1.51815000E-01	 0.00000000E+00
					 0.00000000E+00	 0.00000000E+00	 0.00000000E+00
					 2.19617000E-04	-1.89880000E-02	 0.00000000E+00
					 1.12132000E-01	-1.13018000E-02	 0.00000000E+00
					 1.02223000E-01	-6.45539000E-03	 0.00000000E+00
					 5.28734000E-02	-1.61189000E-03	 0.00000000E+00
					 1.38591000E-01	-2.06590000E-02	 0.00000000E+00
					 0.00000000E+00	 0.00000000E+00	 0.00000000E+00
					 1.77384000E-01	-4.65427000E-02	 0.00000000E+00
					 1.61365000E-01	-3.08116000E-02	 0.00000000E+00
					 1.69227000E-01	-5.29153000E-02	 0.00000000E+00
					 1.64857000E-01	-1.34251000E-01	 0.00000000E+00
					 1.80759000E-01	-1.27506000E-01	 0.00000000E+00
					 1.90133000E-01	-6.51294000E-02	 0.00000000E+00
					 2.04438000E-01	-8.65181000E-02	 0.00000000E+00
					 2.02034000E-01	-1.05911000E-01	 0.00000000E+00
					 1.96481000E-01	-1.22144000E-01	 0.00000000E+00
					 1.61980000E-01	-1.53078000E-01	 0.00000000E+00
					 1.46809000E-01	-1.64621000E-01	 0.00000000E+00
					 9.93978000E-02	-2.00990000E-01	 0.00000000E+00
					 7.98263000E-02	-1.91168000E-01	 0.00000000E+00
					 6.71520000E-02	-1.84548000E-01	 0.00000000E+00
					 5.51954000E-02	-1.71491000E-01	 0.00000000E+00
					 1.17237000E-01	-1.97503000E-01	 0.00000000E+00
					 1.33715000E-01	-1.90997000E-01	 0.00000000E+00
					 1.49931000E-01	-1.84025000E-01	 0.00000000E+00
					 1.26210000E-02	-9.34921000E-02	 0.00000000E+00
					 1.83769000E-03	-4.09803000E-02	 0.00000000E+00
					 7.39121000E-03	-7.91046000E-02	 0.00000000E+00
					 4.62319000E-03	-6.40685000E-02	 0.00000000E+00
					 3.06971000E-02	-1.36125000E-01	 0.00000000E+00
					 4.20207000E-02	-1.58000000E-01	 0.00000000E+00
					 2.02079000E-02	-1.16184000E-01	 0.00000000E+00
					 0.00000000E+00	 0.00000000E+00	 0.00000000E+00
					 1.01612000E-03	-2.09040000E-02	 0.00000000E+00
					 1.45651000E-01	-1.70610000E-02	 0.00000000E+00
					 7.44578000E-02	-2.49186000E-03	 0.00000000E+00
					 1.32394000E-01	-1.02885000E-02	 0.00000000E+00
					 0.00000000E+00	 0.00000000E+00	 0.00000000E+00
					 1.84773000E-01	-4.02783000E-02	 0.00000000E+00
					 1.97584000E-01	-5.42148000E-02	 0.00000000E+00
					 1.72216000E-01	-2.81983000E-02	 0.00000000E+00
					 1.81654000E-01	-1.46635000E-01	 0.00000000E+00
					 2.00581000E-01	-1.40415000E-01	 0.00000000E+00
					 2.10475000E-01	-6.95018000E-02	 0.00000000E+00
					 2.20940000E-01	-1.04557000E-01	 0.00000000E+00
					 2.24914000E-01	-8.56761000E-02	 0.00000000E+00
					 2.12327000E-01	-1.22535000E-01	 0.00000000E+00
					 1.77786000E-01	-1.62084000E-01	 0.00000000E+00
					 1.64810000E-01	-1.73597000E-01	 0.00000000E+00
					 8.65325000E-02	-2.11347000E-01	 0.00000000E+00
					 9.94667000E-02	-2.24786000E-01	 0.00000000E+00
					 1.16773000E-01	-2.16670000E-01	 0.00000000E+00
					 7.20559000E-02	-2.06095000E-01	 0.00000000E+00
					 6.04418000E-02	-1.89955000E-01	 0.00000000E+00
					 4.89181000E-02	-1.83577000E-01	 0.00000000E+00
					 1.33883000E-01	-2.09178000E-01	 0.00000000E+00
					 1.50090000E-01	-2.00982000E-01	 0.00000000E+00
					 1.68422000E-01	-1.92283000E-01	 0.00000000E+00
					 1.69415000E-02	-1.22001000E-01	 0.00000000E+00
					 1.18111000E-02	-1.05111000E-01	 0.00000000E+00
					 3.61284000E-03	-6.29969000E-02	 0.00000000E+00
					 1.85128000E-03	-4.12795000E-02	 0.00000000E+00
					 6.63270000E-03	-8.88313000E-02	 0.00000000E+00
					 3.35471000E-02	-1.55394000E-01	 0.00000000E+00
					 2.42077000E-02	-1.39441000E-01	 0.00000000E+00
					 3.99963000E-02	-1.78038000E-01	 0.00000000E+00
					 0.00000000E+00	 0.00000000E+00	 0.00000000E+00
					 3.40525000E-04	-2.70085000E-02	 0.00000000E+00
					 1.72940000E-01	-2.03863000E-02	 0.00000000E+00
					 5.96355000E-02	-7.51108000E-04	 0.00000000E+00
					 1.19596000E-01	-3.88703000E-03	 0.00000000E+00
					 1.56789000E-01	-1.19054000E-02	 0.00000000E+00