# vtk DataFile Version 3.0

ASCII
DATASET UNSTRUCTURED_GRID

POINTS 5000 double
	 7.60000000E-04	-1.41280000E-01	 7.37529000E-17
	-1.58078000E-02	-1.34833000E-01	 1.62685000E-16
	-1.58078000E-02	-1.34833000E-01	 1.00000000E+00
	 7.60000000E-04	-1.41280000E-01	 1.00000000E+00
	 9.95665000E-03	-1.15339000E-01	 7.37529000E-17
	-3.82815000E-03	-1.09995000E-01	 1.62685000E-16
	-3.82815000E-03	-1.09995000E-01	 1.00000000E+00
	 9.95665000E-03	-1.15339000E-01	 1.00000000E+00
	 1.71611000E-02	-9.50175000E-02	 7.37529000E-17
	 5.55721000E-03	-9.05381000E-02	 7.37529000E-17
	 5.55721000E-03	-9.05381000E-02	 1.00000000E+00
	 1.71611000E-02	-9.50175000E-02	 1.00000000E+00
	 2.28050000E-02	-7.90979000E-02	 7.37529000E-17
	 1.29100000E-02	-7.52960000E-02	 7.37529000E-17
	 1.29100000E-02	-7.52960000E-02	 1.00000000E+00
	 2.28050000E-02	-7.90979000E-02	 1.00000000E+00
	 2.72263000E-02	-6.66268000E-02	 7.37529000E-17
	 1.86702000E-02	-6.33558000E-02	 7.37529000E-17
	 1.86702000E-02	-6.33558000E-02	 1.00000000E+00
	 2.72263000E-02	-6.66268000E-02	 1.00000000E+00
	 3.06898000E-02	-5.68572000E-02	 7.37529000E-17
	 2.31828000E-02	-5.40022000E-02	-1.51788000E-17
	 2.31828000E-02	-5.40022000E-02	 1.00000000E+00
	 3.06898000E-02	-5.68572000E-02	 1.00000000E+00
	 3.34031000E-02	-4.92039000E-02	 7.37529000E-17
	 2.67181000E-02	-4.66747000E-02	-1.51788000E-17
	 2.67181000E-02	-4.66747000E-02	 1.00000000E+00
	 3.34031000E-02	-4.92039000E-02	 1.00000000E+00
	 3.55286000E-02	-4.32084000E-02	 7.37529000E-17
	 2.94875000E-02	-4.09346000E-02	-1.51788000E-17
	 2.94875000E-02	-4.09346000E-02	 1.00000000E+00
	 3.55286000E-02	-4.32084000E-02	 1.00000000E+00
	 3.71937000E-02	-3.85117000E-02	 7.37529000E-17
	 3.16571000E-02	-3.64379000E-02	-1.51788000E-17
	 3.16571000E-02	-3.64379000E-02	 1.00000000E+00
	 3.71937000E-02	-3.85117000E-02	 1.00000000E+00
	 3.84982000E-02	-3.48323000E-02	 7.37529000E-17
	 3.33568000E-02	-3.29153000E-02	-1.51788000E-17
	 3.33568000E-02	-3.29153000E-02	 1.00000000E+00
	 3.84982000E-02	-3.48323000E-02	 1.00000000E+00
	 3.95200000E-02	-3.19500000E-02	 7.37529000E-17
	 3.46883000E-02	-3.01557000E-02	-1.51788000E-17
	 3.46883000E-02	-3.01557000E-02	 1.00000000E+00
	 3.95200000E-02	-3.19500000E-02	 1.00000000E+00
	-3.18876000E-02	-1.27251000E-01	-1.51788000E-17
	-3.18876000E-02	-1.27251000E-01	 1.00000000E+00
	-1.72287000E-02	-1.03751000E-01	-1.51788000E-17
	-1.72287000E-02	-1.03751000E-01	 1.00000000E+00
	-5.74356000E-03	-8.53431000E-02	-1.51788000E-17
	-5.74356000E-03	-8.53431000E-02	 1.00000000E+00
	 3.25470000E-03	-7.09231000E-02	 7.37529000E-17
	 3.25470000E-03	-7.09231000E-02	 1.00000000E+00
	 1.03044000E-02	-5.96271000E-02	 7.37529000E-17
	 1.03044000E-02	-5.96271000E-02	 1.00000000E+00
	 1.58274000E-02	-5.07783000E-02	 7.37529000E-17
	 1.58274000E-02	-5.07783000E-02	 1.00000000E+00
	 2.01542000E-02	-4.38465000E-02	 7.37529000E-17
	 2.01542000E-02	-4.38465000E-02	 1.00000000E+00
	 2.35439000E-02	-3.84163000E-02	 7.37529000E-17
	 2.35439000E-02	-3.84163000E-02	 1.00000000E+00
	 2.61994000E-02	-3.41625000E-02	 7.37529000E-17
	 2.61994000E-02	-3.41625000E-02	 1.00000000E+00
	 2.82797000E-02	-3.08302000E-02	 7.37529000E-17
	 2.82797000E-02	-3.08302000E-02	 1.00000000E+00
	 2.99095000E-02	-2.82197000E-02	 7.37529000E-17
	 2.99095000E-02	-2.82197000E-02	 1.00000000E+00
	-4.72978000E-02	-1.18385000E-01	 7.37529000E-17
	-4.72978000E-02	-1.18385000E-01	 1.00000000E+00
	-3.00998000E-02	-9.64864000E-02	 7.37529000E-17
	-3.00998000E-02	-9.64864000E-02	 1.00000000E+00
	-1.66250000E-02	-7.93333000E-02	 7.37529000E-17
	-1.66250000E-02	-7.93333000E-02	 1.00000000E+00
	-6.06774000E-03	-6.58969000E-02	 7.37529000E-17
	-6.06774000E-03	-6.58969000E-02	 1.00000000E+00
	 2.20348000E-03	-5.53719000E-02	 7.37529000E-17
	 2.20348000E-03	-5.53719000E-02	 1.00000000E+00
	 8.68351000E-03	-4.71272000E-02	 7.37529000E-17
	 8.68351000E-03	-4.71272000E-02	 1.00000000E+00
	 1.37602000E-02	-4.06687000E-02	 7.37529000E-17
	 1.37602000E-02	-4.06687000E-02	 1.00000000E+00
	 1.77373000E-02	-3.56094000E-02	 7.37529000E-17
	 1.77373000E-02	-3.56094000E-02	 1.00000000E+00
	 2.08530000E-02	-3.16462000E-02	 7.37529000E-17
	 2.08530000E-02	-3.16462000E-02	 1.00000000E+00
	 2.32939000E-02	-2.85415000E-02	 7.37529000E-17
	 2.32939000E-02	-2.85415000E-02	 1.00000000E+00
	 2.52061000E-02	-2.61094000E-02	 7.37529000E-17
	 2.52061000E-02	-2.61094000E-02	 1.00000000E+00
	-6.17852000E-02	-1.08077000E-01	 7.37529000E-17
	-6.17852000E-02	-1.08077000E-01	 1.00000000E+00
	-4.22431000E-02	-8.80724000E-02	 7.37529000E-17
	-4.22431000E-02	-8.80724000E-02	 1.00000000E+00
	-2.69316000E-02	-7.24038000E-02	 7.37529000E-17
	-2.69316000E-02	-7.24038000E-02	 1.00000000E+00
	-1.49353000E-02	-6.01311000E-02	-1.51788000E-17
	-1.49353000E-02	-6.01311000E-02	 1.00000000E+00
	-5.53668000E-03	-5.05178000E-02	-1.51788000E-17
	-5.53668000E-03	-5.05178000E-02	 1.00000000E+00
	 1.82660000E-03	-4.29877000E-02	-1.51788000E-17
	 1.82660000E-03	-4.29877000E-02	 1.00000000E+00
	 7.59522000E-03	-3.70891000E-02	-1.51788000E-17
	 7.59522000E-03	-3.70891000E-02	 1.00000000E+00
	 1.21145000E-02	-3.24685000E-02	-1.51788000E-17
	 1.21145000E-02	-3.24685000E-02	 1.00000000E+00
	 1.56549000E-02	-2.88489000E-02	-1.51788000E-17
	 1.56549000E-02	-2.88489000E-02	 1.00000000E+00
	 1.84285000E-02	-2.60135000E-02	-1.51788000E-17
	 1.84285000E-02	-2.60135000E-02	 1.00000000E+00
	 2.06013000E-02	-2.37924000E-02	-1.51788000E-17
	 2.06013000E-02	-2.37924000E-02	 1.00000000E+00
	-7.50584000E-02	-9.62410000E-02	-1.51788000E-17
	-7.50584000E-02	-9.62410000E-02	 1.00000000E+00
	-5.34295000E-02	-7.84360000E-02	-1.51788000E-17
	-5.34295000E-02	-7.84360000E-02	 1.00000000E+00
	-3.64832000E-02	-6.44917000E-02	-1.51788000E-17
	-3.64832000E-02	-6.44917000E-02	 1.00000000E+00
	-2.32063000E-02	-5.35703000E-02	-1.51788000E-17
	-2.32063000E-02	-5.35703000E-02	 1.00000000E+00
	-1.28044000E-02	-4.50161000E-02	-1.51788000E-17
	-1.28044000E-02	-4.50161000E-02	 1.00000000E+00
	-4.65513000E-03	-3.83158000E-02	-1.51788000E-17
	-4.65513000E-03	-3.83158000E-02	 1.00000000E+00
	 1.72919000E-03	-3.30674000E-02	-1.51788000E-17
	 1.72919000E-03	-3.30674000E-02	 1.00000000E+00
	 6.73077000E-03	-2.89563000E-02	-1.51788000E-17
	 6.73077000E-03	-2.89563000E-02	 1.00000000E+00
	 1.06491000E-02	-2.57359000E-02	-1.51788000E-17
	 1.06491000E-02	-2.57359000E-02	 1.00000000E+00
	 1.37186000E-02	-2.32132000E-02	-1.51788000E-17
	 1.37186000E-02	-2.32132000E-02	 1.00000000E+00
	 1.61234000E-02	-2.12371000E-02	-1.51788000E-17
	 1.61234000E-02	-2.12371000E-02	 1.00000000E+00
	-8.68546000E-02	-8.29271000E-02	 7.37529000E-17
	-8.68546000E-02	-8.29271000E-02	 1.00000000E+00
	-6.34434000E-02	-6.76002000E-02	 7.37529000E-17
	-6.34434000E-02	-6.76002000E-02	 1.00000000E+00
	-4.51013000E-02	-5.55980000E-02	 7.37529000E-17
	-4.51013000E-02	-5.55980000E-02	 1.00000000E+00
	-3.07311000E-02	-4.61986000E-02	-1.51788000E-17
	-3.07311000E-02	-4.61986000E-02	 1.00000000E+00
	-1.94729000E-02	-3.88369000E-02	-1.51788000E-17
	-1.94729000E-02	-3.88369000E-02	 1.00000000E+00
	-1.06529000E-02	-3.30710000E-02	-1.51788000E-17
	-1.06529000E-02	-3.30710000E-02	 1.00000000E+00
	-3.74315000E-03	-2.85547000E-02	-1.51788000E-17
	-3.74315000E-03	-2.85547000E-02	 1.00000000E+00
	 1.66999000E-03	-2.50171000E-02	-1.51788000E-17
	 1.66999000E-03	-2.50171000E-02	 1.00000000E+00
	 5.91067000E-03	-2.22461000E-02	-1.51788000E-17
	 5.91067000E-03	-2.22461000E-02	 1.00000000E+00
	 9.23281000E-03	-2.00755000E-02	-1.51788000E-17
	 9.23281000E-03	-2.00755000E-02	 1.00000000E+00
	 1.18354000E-02	-1.83752000E-02	-1.51788000E-17
	 1.18354000E-02	-1.83752000E-02	 1.00000000E+00
	-9.69463000E-02	-6.82662000E-02	 7.37529000E-17
	-9.69463000E-02	-6.82662000E-02	 1.00000000E+00
	-7.20812000E-02	-5.56367000E-02	 7.37529000E-17
	-7.20812000E-02	-5.56367000E-02	 1.00000000E+00
	-5.26008000E-02	-4.57478000E-02	 7.37529000E-17
	-5.26008000E-02	-4.57478000E-02	 1.00000000E+00
	-3.73391000E-02	-3.80040000E-02	-1.51788000E-17
	-3.73391000E-02	-3.80040000E-02	 1.00000000E+00
	-2.53829000E-02	-3.19395000E-02	-1.51788000E-17
	-2.53829000E-02	-3.19395000E-02	 1.00000000E+00
	-1.60162000E-02	-2.71898000E-02	-1.51788000E-17
	-1.60162000E-02	-2.71898000E-02	 1.00000000E+00
	-8.67824000E-03	-2.34697000E-02	-1.51788000E-17
	-8.67824000E-03	-2.34697000E-02	 1.00000000E+00
	-2.92971000E-03	-2.05559000E-02	-1.51788000E-17
	-2.92971000E-03	-2.05559000E-02	 1.00000000E+00
	 1.57367000E-03	-1.82735000E-02	-1.51788000E-17
	 1.57367000E-03	-1.82735000E-02	 1.00000000E+00
	 5.10158000E-03	-1.64857000E-02	-1.51788000E-17
	 5.10158000E-03	-1.64857000E-02	 1.00000000E+00
	 7.86532000E-03	-1.50852000E-02	-1.51788000E-17
	 7.86532000E-03	-1.50852000E-02	 1.00000000E+00
	-1.05114000E-01	-5.24503000E-02	 7.37529000E-17
	-1.05114000E-01	-5.24503000E-02	 1.00000000E+00
	-7.91348000E-02	-4.26726000E-02	 7.37529000E-17
	-7.91348000E-02	-4.26726000E-02	 1.00000000E+00
	-5.87826000E-02	-3.50173000E-02	 7.37529000E-17
	-5.87826000E-02	-3.50173000E-02	 1.00000000E+00
	-4.28386000E-02	-2.90231000E-02	 7.37529000E-17
	-4.28386000E-02	-2.90231000E-02	 1.00000000E+00
	-3.03480000E-02	-2.43290000E-02	 7.37529000E-17
	-3.03480000E-02	-2.43290000E-02	 1.00000000E+00
	-2.05628000E-02	-2.06528000E-02	 7.37529000E-17
	-2.05628000E-02	-2.06528000E-02	 1.00000000E+00
	-1.28972000E-02	-1.77735000E-02	 7.37529000E-17
	-1.28972000E-02	-1.77735000E-02	 1.00000000E+00
	-6.89209000E-03	-1.55184000E-02	 7.37529000E-17
	-6.89209000E-03	-1.55184000E-02	 1.00000000E+00
	-2.18772000E-03	-1.37519000E-02	 7.37529000E-17
	-2.18772000E-03	-1.37519000E-02	 1.00000000E+00
	 1.49763000E-03	-1.23683000E-02	 7.37529000E-17
	 1.49763000E-03	-1.23683000E-02	 1.00000000E+00
	 4.38468000E-03	-1.12845000E-02	 7.37529000E-17
	 4.38468000E-03	-1.12845000E-02	 1.00000000E+00
	-1.11138000E-01	-3.56985000E-02	-1.51788000E-17
	-1.11138000E-01	-3.56985000E-02	 1.00000000E+00
	-8.43878000E-02	-2.88646000E-02	-1.51788000E-17
	-8.43878000E-02	-2.88646000E-02	 1.00000000E+00
[...]
POINT_DATA 5000
FIELD V3DF 1
	V3DF 3 5000 double
		 8.86696000E-01	-2.29469000E-01	 0.00000000E+00
		 7.92231000E-01	-2.00466000E-01	 0.00000000E+00
		 7.92231000E-01	-2.00466000E-01	 0.00000000E+00
		 8.86696000E-01	-2.29469000E-01	 0.00000000E+00
		 8.81935000E-01	-2.63885000E-01	 0.00000000E+00
		 7.67493000E-01	-2.32009000E-01	 0.00000000E+00
		 7.67493000E-01	-2.32009000E-01	 0.00000000E+00
		 8.81935000E-01	-2.63885000E-01	 0.00000000E+00
		 8.73584000E-01	-2.96273000E-01	 0.00000000E+00
		 7.43154000E-01	-2.63287000E-01	 0.00000000E+00
		 7.43154000E-01	-2.63287000E-01	 0.00000000E+00
		 8.73584000E-01	-2.96273000E-01	 0.00000000E+00
		 8.68019000E-01	-3.23500000E-01	 0.00000000E+00
		 7.24917000E-01	-2.91296000E-01	 0.00000000E+00
		 7.24917000E-01	-2.91296000E-01	 0.00000000E+00
		 8.68019000E-01	-3.23500000E-01	 0.00000000E+00
		 8.67185000E-01	-3.38284000E-01	 0.00000000E+00
		 7.17472000E-01	-3.07133000E-01	 0.00000000E+00
		 7.17472000E-01	-3.07133000E-01	 0.00000000E+00
		 8.67185000E-01	-3.38284000E-01	 0.00000000E+00
		 8.71060000E-01	-3.54109000E-01	 0.00000000E+00
		 7.25801000E-01	-3.23933000E-01	 0.00000000E+00
		 7.25801000E-01	-3.23933000E-01	 0.00000000E+00
		 8.71060000E-01	-3.54109000E-01	 0.00000000E+00
		 8.70537000E-01	-3.56510000E-01	 0.00000000E+00
		 7.43828000E-01	-3.37080000E-01	 0.00000000E+00
		 7.43828000E-01	-3.37080000E-01	 0.00000000E+00
		 8.70537000E-01	-3.56510000E-01	 0.00000000E+00
		 8.31384000E-01	-3.19762000E-01	 0.00000000E+00
		 7.33258000E-01	-3.19125000E-01	 0.00000000E+00
		 7.33258000E-01	-3.19125000E-01	 0.00000000E+00
		 8.31384000E-01	-3.19762000E-01	 0.00000000E+00
		 6.84249000E-01	-2.41649000E-01	 0.00000000E+00
		 6.11362000E-01	-2.48307000E-01	 0.00000000E+00
		 6.11362000E-01	-2.48307000E-01	 0.00000000E+00
		 6.84249000E-01	-2.41649000E-01	 0.00000000E+00
		 4.01553000E-01	-1.28521000E-01	 0.00000000E+00
		 3.53409000E-01	-1.30017000E-01	 0.00000000E+00
		 3.53409000E-01	-1.30017000E-01	 0.00000000E+00
		 4.01553000E-01	-1.28521000E-01	 0.00000000E+00
		 0.00000000E+00	 0.00000000E+00	 0.00000000E+00
		 0.00000000E+00	 0.00000000E+00	 0.00000000E+00
		 0.00000000E+00	 0.00000000E+00	 0.00000000E+00
		 0.00000000E+00	 0.00000000E+00	 0.00000000E+00
		 7.80715000E-01	-1.69887000E-01	 0.00000000E+00
		 7.80715000E-01	-1.69887000E-01	 0.00000000E+00
		 7.55492000E-01	-1.99676000E-01	 0.00000000E+00
		 7.55492000E-01	-1.99676000E-01	 0.00000000E+00
		 7.31173000E-01	-2.30343000E-01	 0.00000000E+00
		 7.31173000E-01	-2.30343000E-01	 0.00000000E+00
		 7.12770000E-01	-2.64373000E-01	 0.00000000E+00
		 7.12770000E-01	-2.64373000E-01	 0.00000000E+00
		 7.05182000E-01	-2.97911000E-01	 0.00000000E+00
		 7.05182000E-01	-2.97911000E-01	 0.00000000E+00
		 7.11326000E-01	-3.27395000E-01	 0.00000000E+00
		 7.11326000E-01	-3.27395000E-01	 0.00000000E+00
		 7.26847000E-01	-3.53811000E-01	 0.00000000E+00
		 7.26847000E-01	-3.53811000E-01	 0.00000000E+00
		 7.14747000E-01	-3.60204000E-01	 0.00000000E+00
		 7.14747000E-01	-3.60204000E-01	 0.00000000E+00
		 5.97148000E-01	-2.92384000E-01	 0.00000000E+00
		 5.97148000E-01	-2.92384000E-01	 0.00000000E+00
		 3.42705000E-01	-1.51337000E-01	 0.00000000E+00
		 3.42705000E-01	-1.51337000E-01	 0.00000000E+00
		 0.00000000E+00	 0.00000000E+00	 0.00000000E+00
		 0.00000000E+00	 0.00000000E+00	 0.00000000E+00
		 7.57114000E-01	-1.55218000E-01	 0.00000000E+00
		 7.57114000E-01	-1.55218000E-01	 0.00000000E+00
		 7.27994000E-01	-1.83854000E-01	 0.00000000E+00
		 7.27994000E-01	-1.83854000E-01	 0.00000000E+00
		 6.99734000E-01	-2.14197000E-01	 0.00000000E+00
		 6.99734000E-01	-2.14197000E-01	 0.00000000E+00
		 6.76319000E-01	-2.49695000E-01	 0.00000000E+00
		 6.76319000E-01	-2.49695000E-01	 0.00000000E+00
		 6.63928000E-01	-2.86073000E-01	 0.00000000E+00
		 6.63928000E-01	-2.86073000E-01	 0.00000000E+00
		 6.63832000E-01	-3.24637000E-01	 0.00000000E+00
		 6.63832000E-01	-3.24637000E-01	 0.00000000E+00
		 6.76926000E-01	-3.61137000E-01	 0.00000000E+00
		 6.76926000E-01	-3.61137000E-01	 0.00000000E+00
		 6.79356000E-01	-3.81479000E-01	 0.00000000E+00
		 6.79356000E-01	-3.81479000E-01	 0.00000000E+00
		 5.91051000E-01	-3.28184000E-01	 0.00000000E+00
		 5.91051000E-01	-3.28184000E-01	 0.00000000E+00
		 3.55559000E-01	-1.77244000E-01	 0.00000000E+00
		 3.55559000E-01	-1.77244000E-01	 0.00000000E+00
		 0.00000000E+00	 0.00000000E+00	 0.00000000E+00
		 0.00000000E+00	 0.00000000E+00	 0.00000000E+00
		 7.42603000E-01	-1.29538000E-01	 0.00000000E+00
		 7.42603000E-01	-1.29538000E-01	 0.00000000E+00
		 7.09014000E-01	-1.55668000E-01	 0.00000000E+00
		 7.09014000E-01	-1.55668000E-01	 0.00000000E+00
		 6.75974000E-01	-1.84117000E-01	 0.00000000E+00
		 6.75974000E-01	-1.84117000E-01	 0.00000000E+00
		 6.45218000E-01	-2.20367000E-01	 0.00000000E+00
		 6.45218000E-01	-2.20367000E-01	 0.00000000E+00
		 6.24418000E-01	-2.60439000E-01	 0.00000000E+00
		 6.24418000E-01	-2.60439000E-01	 0.00000000E+00
		 6.14995000E-01	-3.05519000E-01	 0.00000000E+00
		 6.14995000E-01	-3.05519000E-01	 0.00000000E+00
		 6.20362000E-01	-3.53838000E-01	 0.00000000E+00
		 6.20362000E-01	-3.53838000E-01	 0.00000000E+00
		 6.25685000E-01	-3.89413000E-01	 0.00000000E+00
		 6.25685000E-01	-3.89413000E-01	 0.00000000E+00
		 5.63262000E-01	-3.55562000E-01	 0.00000000E+00
		 5.63262000E-01	-3.55562000E-01	 0.00000000E+00
		 3.55569000E-01	-2.04059000E-01	 0.00000000E+00
		 3.55569000E-01	-2.04059000E-01	 0.00000000E+00
		 0.00000000E+00	 0.00000000E+00	 0.00000000E+00
		 0.00000000E+00	 0.00000000E+00	 0.00000000E+00
		 7.30303000E-01	-1.09613000E-01	 0.00000000E+00
		 7.30303000E-01	-1.09613000E-01	 0.00000000E+00
		 6.93393000E-01	-1.33183000E-01	 0.00000000E+00
		 6.93393000E-01	-1.33183000E-01	 0.00000000E+00
		 6.56206000E-01	-1.58624000E-01	 0.00000000E+00
		 6.56206000E-01	-1.58624000E-01	 0.00000000E+00
		 6.17788000E-01	-1.92446000E-01	 0.00000000E+00
		 6.17788000E-01	-1.92446000E-01	 0.00000000E+00
		 5.86693000E-01	-2.32177000E-01	 0.00000000E+00
		 5.86693000E-01	-2.32177000E-01	 0.00000000E+00
		 5.64703000E-01	-2.78345000E-01	 0.00000000E+00
		 5.64703000E-01	-2.78345000E-01	 0.00000000E+00
		 5.57545000E-01	-3.32563000E-01	 0.00000000E+00
		 5.57545000E-01	-3.32563000E-01	 0.00000000E+00
		 5.60873000E-01	-3.85516000E-01	 0.00000000E+00
		 5.60873000E-01	-3.85516000E-01	 0.00000000E+00
		 5.21989000E-01	-3.80714000E-01	 0.00000000E+00
		 5.21989000E-01	-3.80714000E-01	 0.00000000E+00
		 3.50769000E-01	-2.38625000E-01	 0.00000000E+00
		 3.50769000E-01	-2.38625000E-01	 0.00000000E+00
		 0.00000000E+00	 0.00000000E+00	 0.00000000E+00
		 0.00000000E+00	 0.00000000E+00	 0.00000000E+00
		 7.21598000E-01	-8.78003000E-02	 0.00000000E+00
		 7.21598000E-01	-8.78003000E-02	 0.00000000E+00
		 6.81606000E-01	-1.07953000E-01	 0.00000000E+00
		 6.81606000E-01	-1.07953000E-01	 0.00000000E+00
		 6.41687000E-01	-1.29562000E-01	 0.00000000E+00
		 6.41687000E-01	-1.29562000E-01	 0.00000000E+00
		 5.96838000E-01	-1.59526000E-01	 0.00000000E+00
		 5.96838000E-01	-1.59526000E-01	 0.00000000E+00
		 5.55680000E-01	-1.96263000E-01	 0.00000000E+00
		 5.55680000E-01	-1.96263000E-01	 0.00000000E+00
		 5.20489000E-01	-2.41592000E-01	 0.00000000E+00
		 5.20489000E-01	-2.41592000E-01	 0.00000000E+00
		 4.96401000E-01	-2.95848000E-01	 0.00000000E+00
		 4.96401000E-01	-2.95848000E-01	 0.00000000E+00
		 4.86227000E-01	-3.59192000E-01	 0.00000000E+00
		 4.86227000E-01	-3.59192000E-01	 0.00000000E+00
		 4.58553000E-01	-3.87207000E-01	 0.00000000E+00
		 4.58553000E-01	-3.87207000E-01	 0.00000000E+00
		 3.29243000E-01	-2.74996000E-01	 0.00000000E+00
		 3.29243000E-01	-2.74996000E-01	 0.00000000E+00
		 0.00000000E+00	 0.00000000E+00	 0.00000000E+00
		 0.00000000E+00	 0.00000000E+00	 0.00000000E+00
		 7.17030000E-01	-6.89534000E-02	 0.00000000E+00
		 7.17030000E-01	-6.89534000E-02	 0.00000000E+00
		 6.74388000E-01	-8.44314000E-02	 0.00000000E+00
		 6.74388000E-01	-8.44314000E-02	 0.00000000E+00
		 6.32402000E-01	-1.01302000E-01	 0.00000000E+00
		 6.32402000E-01	-1.01302000E-01	 0.00000000E+00
		 5.82070000E-01	-1.25312000E-01	 0.00000000E+00
		 5.82070000E-01	-1.25312000E-01	 0.00000000E+00
		 5.31617000E-01	-1.56169000E-01	 0.00000000E+00
		 5.31617000E-01	-1.56169000E-01	 0.00000000E+00
		 4.83943000E-01	-1.95862000E-01	 0.00000000E+00
		 4.83943000E-01	-1.95862000E-01	 0.00000000E+00
		 4.41981000E-01	-2.46722000E-01	 0.00000000E+00
		 4.41981000E-01	-2.46722000E-01	 0.00000000E+00
		 4.11407000E-01	-3.10535000E-01	 0.00000000E+00
		 4.11407000E-01	-3.10535000E-01	 0.00000000E+00
		 3.78112000E-01	-3.63746000E-01	 0.00000000E+00
		 3.78112000E-01	-3.63746000E-01	 0.00000000E+00
		 2.85014000E-01	-2.98983000E-01	 0.00000000E+00
		 2.85014000E-01	-2.98983000E-01	 0.00000000E+00
		 0.00000000E+00	 0.00000000E+00	 0.00000000E+00
		 0.00000000E+00	 0.00000000E+00	 0.00000000E+00
		 7.14292000E-01	-5.07535000E-02	 0.00000000E+00
		 7.14292000E-01	-5.07535000E-02	 0.00000000E+00
		 6.70164000E-01	-6.18255000E-02	 0.00000000E+00
		 6.70164000E-01	-6.18255000E-02	 0.00000000E+00
		 6.26709000E-01	-7.36949000E-02	 0.00000000E+00
		 6.26709000E-01	-7.36949000E-02	 0.00000000E+00
		 5.73125000E-01	-9.08954000E-02	 0.00000000E+00
		 5.73125000E-01	-9.08954000E-02	 0.00000000E+00
		 5.16735000E-01	-1.13739000E-01	 0.00000000E+00
		 5.16735000E-01	-1.13739000E-01	 0.00000000E+00
		 4.59150000E-01	-1.43799000E-01	 0.00000000E+00
		 4.59150000E-01	-1.43799000E-01	 0.00000000E+00
		 3.99864000E-01	-1.83918000E-01	 0.00000000E+00
		 3.99864000E-01	-1.83918000E-01	 0.00000000E+00
		 3.45105000E-01	-2.38855000E-01	 0.00000000E+00
		 3.45105000E-01	-2.38855000E-01	 0.00000000E+00
		 2.92044000E-01	-3.02289000E-01	 0.00000000E+00
		 2.92044000E-01	-3.02289000E-01	 0.00000000E+00
		 2.16254000E-01	-2.90286000E-01	 0.00000000E+00
		 2.16254000E-01	-2.90286000E-01	 0.00000000E+00
		 0.00000000E+00	 0.00000000E+00	 0.00000000E+00
		 0.00000000E+00	 0.00000000E+00	 0.00000000E+00
		 7.12641000E-01	-3.36114000E-02	 0.00000000E+00
		 7.12641000E-01	-3.36114000E-02	 0.00000000E+00
		 6.67313000E-01	-4.07499000E-02	 0.00000000E+00
		 6.67313000E-01	-4.07499000E-02	 0.00000000E+00
		 6.23212000E-01	-4.79641000E-02	 0.00000000E+00
		 6.23212000E-01	-4.79641000E-02	 0.00000000E+00
		 5.68448000E-01	-5.83939000E-02	 0.00000000E+00
		 5.68448000E-01	-5.83939000E-02	 0.00000000E+00
		 5.09079000E-01	-7.19661000E-02	 0.00000000E+00
		 5.09079000E-01	-7.19661000E-02	 0.00000000E+00
		 4.45617000E-01	-8.97068000E-02	 0.00000000E+00
		 4.45617000E-01	-8.97068000E-02	 0.00000000E+00
		 3.75952000E-01	-1.13973000E-01	 0.00000000E+00
		 3.75952000E-01	-1.13973000E-01	 0.00000000E+00
		 3.03398000E-01	-1.49889000E-01	 0.00000000E+00
		 3.03398000E-01	-1.49889000E-01	 0.00000000E+00
		 2.26820000E-01	-2.00969000E-01	 0.00000000E+00
		 2.26820000E-01	-2.00969000E-01	 0.00000000E+00
		 1.39266000E-01	-2.22807000E-01	 0.00000000E+00
		 1.39266000E-01	-2.22807000E-01	 0.00000000E+00
		 0.00000000E+00	 0.00000000E+00	 0.00000000E+00
		 0.00000000E+00	 0.00000000E+00	 0.00000000E+00
		 7.11764000E-01	-1.68929000E-02	 0.00000000E+00
		 7.11764000E-01	-1.68929000E-02	 0.00000000E+00
		 6.65595000E-01	-2.01125000E-02	 0.00000000E+00
		 6.65595000E-01	-2.01125000E-02	 0.00000000E+00
		 6.20983000E-01	-2.30518000E-02	 0.00000000E+00
		 6.20983000E-01	-2.30518000E-02	 0.00000000E+00
		 5.64897000E-01	-2.70842000E-02	 0.00000000E+00
		 5.64897000E-01	-2.70842000E-02	 0.00000000E+00
		 5.02943000E-01	-3.18906000E-02	 0.00000000E+00
		 5.02943000E-01	-3.18906000E-02	 0.00000000E+00
		 4.36056000E-01	-3.75522000E-02	 0.00000000E+00
		 4.36056000E-01	-3.75522000E-02	 0.00000000E+00
		 3.61992000E-01	-4.47866000E-02	 0.00000000E+00
		 3.61992000E-01	-4.47866000E-02	 0.00000000E+00
		 2.80396000E-01	-5.58304000E-02	 0.00000000E+00
		 2.80396000E-01	-5.58304000E-02	 0.00000000E+00
		 1.85409000E-01	-7.20235000E-02	 0.00000000E+00
		 1.85409000E-01	-7.20235000E-02	 0.00000000E+00
		 7.78207000E-02	-7.82039000E-02	 0.00000000E+00
		 7.78207000E-02	-7.82039000E-02	 0.00000000E+00
		 0.00000000E+00	 0.00000000E+00	 0.00000000E+00
		 0.00000000E+00	 0.00000000E+00	 0.00000000E+00
		 9.60442000E-01	-3.69151000E-02	 0.00000000E+00
		 9.55949000E-01	-3.13086000E-02	 0.00000000E+00
		 9.55949000E-01	-3.13086000E-02	 0.00000000E+00
		 9.60442000E-01	-3.69151000E-02	 0.00000000E+00
		 9.49173000E-01	-4.81078000E-02	 0.00000000E+00
		 9.41952000E-01	-4.10708000E-02	 0.00000000E+00
		 9.41952000E-01	-4.10708000E-02	 0.00000000E+00
		 9.49173000E-01	-4.81078000E-02	 0.00000000E+00
		 9.38779000E-01	-6.04958000E-02	 0.00000000E+00
		 9.28107000E-01	-5.27236000E-02	 0.00000000E+00
		 9.28107000E-01	-5.27236000E-02	 0.00000000E+00
		 9.38779000E-01	-6.04958000E-02	 0.00000000E+00
		 9.28816000E-01	-7.28876000E-02	 0.00000000E+00
		 9.16200000E-01	-6.39202000E-02	 0.00000000E+00
		 9.16200000E-01	-6.39202000E-02	 0.00000000E+00
		 9.28816000E-01	-7.28876000E-02	 0.00000000E+00
		 9.16360000E-01	-8.82522000E-02	 0.00000000E+00
		 9.01005000E-01	-7.75943000E-02	 0.00000000E+00
		 9.01005000E-01	-7.75943000E-02	 0.00000000E+00
		 9.16360000E-01	-8.82522000E-02	 0.00000000E+00
		 9.04975000E-01	-1.06693000E-01	 0.00000000E+00
		 8.83951000E-01	-9.32943000E-02	 0.00000000E+00
		 8.83951000E-01	-9.32943000E-02	 0.00000000E+00
		 9.04975000E-01	-1.06693000E-01	 0.00000000E+00
		 8.94017000E-01	-1.27474000E-01	 0.00000000E+00
		 8.64825000E-01	-1.11501000E-01	 0.00000000E+00
		 8.64825000E-01	-1.11501000E-01	 0.00000000E+00
		 8.94017000E-01	-1.27474000E-01	 0.00000000E+00
		 8.87214000E-01	-1.49854000E-01	 0.00000000E+00
		 8.46161000E-01	-1.32408000E-01	 0.00000000E+00
		 8.46161000E-01	-1.32408000E-01	 0.00000000E+00
		 8.87214000E-01	-1.49854000E-01	 0.00000000E+00
		 8.85600000E-01	-1.75061000E-01	 0.00000000E+00
		 8.27773000E-01	-1.54912000E-01	 0.00000000E+00
		 8.27773000E-01	-1.54912000E-01	 0.00000000E+00
		 8.85600000E-01	-1.75061000E-01	 0.00000000E+00
		 8.86672000E-01	-2.02425000E-01	 0.00000000E+00
		 8.09595000E-01	-1.77521000E-01	 0.00000000E+00
		 8.09595000E-01	-1.77521000E-01	 0.00000000E+00
		 8.86672000E-01	-2.02425000E-01	 0.00000000E+00
		 9.53126000E-01	-2.55472000E-02	 0.00000000E+00
		 9.53126000E-01	-2.55472000E-02	 0.00000000E+00
		 9.38312000E-01	-3.39177000E-02	 0.00000000E+00
		 9.38312000E-01	-3.39177000E-02	 0.00000000E+00
		 9.21182000E-01	-4.46746000E-02	 0.00000000E+00
		 9.21182000E-01	-4.46746000E-02	 0.00000000E+00
		 9.06940000E-01	-5.47336000E-02	 0.00000000E+00
		 9.06940000E-01	-5.47336000E-02	 0.00000000E+00
		 8.91298000E-01	-6.66703000E-02	 0.00000000E+00
		 8.91298000E-01	-6.66703000E-02	 0.00000000E+00
		 8.73783000E-01	-8.07326000E-02	 0.00000000E+00
		 8.73783000E-01	-8.07326000E-02	 0.00000000E+00
		 8.54860000E-01	-9.60125000E-02	 0.00000000E+00
		 8.54860000E-01	-9.60125000E-02	 0.00000000E+00
		 8.36041000E-01	-1.11661000E-01	 0.00000000E+00
		 8.36041000E-01	-1.11661000E-01	 0.00000000E+00
		 8.16451000E-01	-1.29663000E-01	 0.00000000E+00
		 8.16451000E-01	-1.29663000E-01	 0.00000000E+00
		 7.97668000E-01	-1.49162000E-01	 0.00000000E+00
		 7.97668000E-01	-1.49162000E-01	 0.00000000E+00
		 9.51829000E-01	-2.08464000E-02	 0.00000000E+00
		 9.51829000E-01	-2.08464000E-02	 0.00000000E+00
		 9.37685000E-01	-2.81140000E-02	 0.00000000E+00
		 9.37685000E-01	-2.81140000E-02	 0.00000000E+00
		 9.18630000E-01	-3.74521000E-02	 0.00000000E+00
		 9.18630000E-01	-3.74521000E-02	 0.00000000E+00
		 9.01464000E-01	-4.60402000E-02	 0.00000000E+00
		 9.01464000E-01	-4.60402000E-02	 0.00000000E+00
		 8.83566000E-01	-5.63972000E-02	 0.00000000E+00
		 8.83566000E-01	-5.63972000E-02	 0.00000000E+00
		 8.63932000E-01	-6.86189000E-02	 0.00000000E+00
		 8.63932000E-01	-6.86189000E-02	 0.00000000E+00
		 8.42805000E-01	-8.29356000E-02	 0.00000000E+00
		 8.42805000E-01	-8.29356000E-02	 0.00000000E+00
		 8.21227000E-01	-9.89482000E-02	 0.00000000E+00
		 8.21227000E-01	-9.89482000E-02	 0.00000000E+00
		 7.98582000E-01	-1.16871000E-01	 0.00000000E+00
		 7.98582000E-01	-1.16871000E-01	 0.00000000E+00
		 7.77143000E-01	-1.35365000E-01	 0.00000000E+00
		 7.77143000E-01	-1.35365000E-01	 0.00000000E+00
		 9.51002000E-01	-1.69319000E-02	 0.00000000E+00
		 9.51002000E-01	-1.69319000E-02	 0.00000000E+00
		 9.37213000E-01	-2.29765000E-02	 0.00000000E+00
		 9.37213000E-01	-2.29765000E-02	 0.00000000E+00
		 9.17879000E-01	-3.09104000E-02	 0.00000000E+00
		 9.17879000E-01	-3.09104000E-02	 0.00000000E+00
		 8.99656000E-01	-3.82757000E-02	 0.00000000E+00
		 8.99656000E-01	-3.82757000E-02	 0.00000000E+00
		 8.80184000E-01	-4.67268000E-02	 0.00000000E+00
		 8.80184000E-01	-4.67268000E-02	 0.00000000E+00
		 8.58899000E-01	-5.66935000E-02	 0.00000000E+00
		 8.58899000E-01	-5.66935000E-02	 0.00000000E+00
		 8.35891000E-01	-6.85134000E-02	 0.00000000E+00
		 8.35891000E-01	-6.85134000E-02	 0.00000000E+00
		 8.12478000E-01	-8.17162000E-02	 0.00000000E+00
		 8.12478000E-01	-8.17162000E-02	 0.00000000E+00
		 7.88363000E-01	-9.65203000E-02	 0.00000000E+00
		 7.88363000E-01	-9.65203000E-02	 0.00000000E+00
		 7.65463000E-01	-1.12021000E-01	 0.00000000E+00
		 7.65463000E-01	-1.12021000E-01	 0.00000000E+00
		 9.50687000E-01	-1.37392000E-02	 0.00000000E+00
		 9.50687000E-01	-1.37392000E-02	 0.00000000E+00
		 9.37236000E-01	-1.85183000E-02	 0.00000000E+00
		 9.37236000E-01	-1.85183000E-02	 0.00000000E+00
		 9.17621000E-01	-2.51586000E-02	 0.00000000E+00
		 9.17621000E-01	-2.51586000E-02	 0.00000000E+00
		 8.98779000E-01	-3.14396000E-02	 0.00000000E+00
		 8.98779000E-01	-3.14396000E-02	 0.00000000E+00
		 8.78919000E-01	-3.84816000E-02	 0.00000000E+00
		 8.78919000E-01	-3.84816000E-02	 0.00000000E+00
		 8.56832000E-01	-4.67799000E-02	 0.00000000E+00
		 8.56832000E-01	-4.67799000E-02	 0.00000000E+00
		 8.32395000E-01	-5.67305000E-02	 0.00000000E+00
		 8.32395000E-01	-5.67305000E-02	 0.00000000E+00
		 8.07069000E-01	-6.79222000E-02	 0.00000000E+00
		 8.07069000E-01	-6.79222000E-02	 0.00000000E+00
		 7.80758000E-01	-8.06274000E-02	 0.00000000E+00
		 7.80758000E-01	-8.06274000E-02	 0.00000000E+00
		 7.55658000E-01	-9.39279000E-02	 0.00000000E+00
		 7.55658000E-01	-9.39279000E-02	 0.00000000E+00
		 9.50625000E-01	-1.09145000E-02	 0.00000000E+00
		 9.50625000E-01	-1.09145000E-02	 0.00000000E+00
		 9.37710000E-01	-1.45999000E-02	 0.00000000E+00
		 9.37710000E-01	-1.45999000E-02	 0.00000000E+00
		 9.18024000E-01	-1.99061000E-02	 0.00000000E+00
		 9.18024000E-01	-1.99061000E-02	 0.00000000E+00
		 8.98517000E-01	-2.51382000E-02	 0.00000000E+00
		 8.98517000E-01	-2.51382000E-02	 0.00000000E+00
		 8.78137000E-01	-3.10097000E-02	 0.00000000E+00
		 8.78137000E-01	-3.10097000E-02	 0.00000000E+00
		 8.55695000E-01	-3.77209000E-02	 0.00000000E+00
		 8.55695000E-01	-3.77209000E-02	 0.00000000E+00
		 8.30850000E-01	-4.55835000E-02	 0.00000000E+00
		 8.30850000E-01	-4.55835000E-02	 0.00000000E+00
		 8.04562000E-01	-5.42351000E-02	 0.00000000E+00
		 8.04562000E-01	-5.42351000E-02	 0.00000000E+00
		 7.76676000E-01	-6.40851000E-02	 0.00000000E+00
		 7.76676000E-01	-6.40851000E-02	 0.00000000E+00
		 7.49785000E-01	-7.46165000E-02	 0.00000000E+00
		 7.49785000E-01	-7.46165000E-02	 0.00000000E+00
		 9.50755000E-01	-8.39775000E-03	 0.00000000E+00
		 9.50755000E-01	-8.39775000E-03	 0.00000000E+00
		 9.38345000E-01	-1.11524000E-02	 0.00000000E+00
		 9.38345000E-01	-1.11524000E-02	 0.00000000E+00
		 9.18756000E-01	-1.52550000E-02	 0.00000000E+00
		 9.18756000E-01	-1.52550000E-02	 0.00000000E+00
		 8.98816000E-01	-1.93895000E-02	 0.00000000E+00
		 8.98816000E-01	-1.93895000E-02	 0.00000000E+00
		 8.78036000E-01	-2.40290000E-02	 0.00000000E+00
		 8.78036000E-01	-2.40290000E-02	 0.00000000E+00
		 8.55260000E-01	-2.93561000E-02	 0.00000000E+00
		 8.55260000E-01	-2.93561000E-02	 0.00000000E+00
		 8.29938000E-01	-3.56515000E-02	 0.00000000E+00
		 8.29938000E-01	-3.56515000E-02	 0.00000000E+00
		 8.03089000E-01	-4.26461000E-02	 0.00000000E+00
		 8.03089000E-01	-4.26461000E-02	 0.00000000E+00
		 7.74659000E-01	-5.04379000E-02	 0.00000000E+00