    1C
    1C
    1UUSER
    1UDATE              25.january.2020     
    1UTIME              12:23:32
    1UHOST
    1UPGM               CalculiX
    1UDIR
    1UDBN
    2C                                                                   1
 -1         1 1.00000E+00 0.00000E+00 0.00000E+00
 -1         2 2.77960E-01 5.93990E-02 0.00000E+00
 -1         3 9.97540E-01 3.45130E-04 0.00000E+00
 -1         4 9.93910E-01 8.54240E-04 0.00000E+00
 -1         5 9.88870E-01 1.56040E-03 0.00000E+00
 -1         6 9.82560E-01 2.44060E-03 0.00000E+00
 -1         7 9.75050E-01 3.48220E-03 0.00000E+00
 -1         8 9.66340E-01 4.67810E-03 0.00000E+00
 -1         9 9.56490E-01 6.01100E-03 0.00000E+00
 -1        10 9.45550E-01 7.47110E-03 0.00000E+00
 -1        11 9.33550E-01 9.05150E-03 0.00000E+00
 -1        12 9.20540E-01 1.07390E-02 0.00000E+00
 -1        13 9.06560E-01 1.25250E-02 0.00000E+00
 -1        14 8.91660E-01 1.43960E-02 0.00000E+00
 -1        15 8.75890E-01 1.63410E-02 0.00000E+00
 -1        16 8.59270E-01 1.83510E-02 0.00000E+00
 -1        17 8.41880E-01 2.04140E-02 0.00000E+00
 -1        18 8.23770E-01 2.25180E-02 0.00000E+00
 -1        19 8.04950E-01 2.46570E-02 0.00000E+00
 -1        20 7.85510E-01 2.68160E-02 0.00000E+00
 -1        21 7.65490E-01 2.89870E-02 0.00000E+00
 -1        22 7.44910E-01 3.11620E-02 0.00000E+00
 -1        23 7.23850E-01 3.33280E-02 0.00000E+00
 -1        24 7.02350E-01 3.54780E-02 0.00000E+00
 -1        25 6.80500E-01 3.75970E-02 0.00000E+00
 -1        26 6.58310E-01 3.96780E-02 0.00000E+00
 -1        27 6.35870E-01 4.17080E-02 0.00000E+00
 -1        28 6.13100E-01 4.36890E-02 0.00000E+00
 -1        29 5.90270E-01 4.55900E-02 0.00000E+00
 -1        30 5.67270E-01 4.74180E-02 0.00000E+00
 -1        31 5.44160E-01 4.91570E-02 0.00000E+00
 -1        32 5.21040E-01 5.07940E-02 0.00000E+00
 -1        33 4.97940E-01 5.23220E-02 0.00000E+00
 -1        34 4.74890E-01 5.37290E-02 0.00000E+00
 -1        35 4.51990E-01 5.50030E-02 0.00000E+00
 -1        36 4.29270E-01 5.61350E-02 0.00000E+00
 -1        37 4.06690E-01 5.71210E-02 0.00000E+00
 -1        38 3.84290E-01 5.79460E-02 0.00000E+00
 -1        39 3.62360E-01 5.85970E-02 0.00000E+00
 -1        40 3.40640E-01 5.90880E-02 0.00000E+00
 -1        41 3.19370E-01 5.93810E-02 0.00000E+00
 -1        42 2.98420E-01 5.94520E-02 0.00000E+00
 -1        43 3.16800E-01-5.94010E-02 0.00000E+00
 -1        44 2.58320E-01 5.90860E-02 0.00000E+00
 -1        45 2.39190E-01 5.86460E-02 0.00000E+00
 -1        46 2.20600E-01 5.79880E-02 0.00000E+00
 -1        47 2.02570E-01 5.71140E-02 0.00000E+00
 -1        48 1.85140E-01 5.60450E-02 0.00000E+00
 -1        49 1.68340E-01 5.47840E-02 0.00000E+00
 -1        50 1.52180E-01 5.33300E-02 0.00000E+00
 -1        51 1.36720E-01 5.16850E-02 0.00000E+00
 -1        52 1.21950E-01 4.98510E-02 0.00000E+00
 -1        53 1.07920E-01 4.78340E-02 0.00000E+00
 -1        54 9.46390E-02 4.56400E-02 0.00000E+00
 -1        55 8.21360E-02 4.32760E-02 0.00000E+00
 -1        56 7.04300E-02 4.07450E-02 0.00000E+00
 -1        57 5.95390E-02 3.80520E-02 0.00000E+00
 -1        58 4.94870E-02 3.52090E-02 0.00000E+00
 -1        59 4.02830E-02 3.22160E-02 0.00000E+00
 -1        60 3.19590E-02 2.90750E-02 0.00000E+00
 -1        61 2.45210E-02 2.57790E-02 0.00000E+00
 -1        62 1.79890E-02 2.23480E-02 0.00000E+00
 -1        63 1.23810E-02 1.87690E-02 0.00000E+00
 -1        64 7.75450E-03 1.49850E-02 0.00000E+00
 -1        65 4.14200E-03 1.09770E-02 0.00000E+00
 -1        66 1.54070E-03 6.78890E-03 0.00000E+00
 -1        67 1.09370E-04 2.42430E-03 0.00000E+00
 -1        68 6.29740E-05-2.02650E-03 0.00000E+00
 -1        69 1.35330E-03-6.39510E-03 0.00000E+00
 -1        70 3.84770E-03-1.05820E-02 0.00000E+00
 -1        71 7.36850E-03-1.46140E-02 0.00000E+00
 -1        72 1.19130E-02-1.84300E-02 0.00000E+00
 -1        73 1.74470E-02-2.20330E-02 0.00000E+00
 -1        74 2.39030E-02-2.54790E-02 0.00000E+00
 -1        75 3.12670E-02-2.87900E-02 0.00000E+00
 -1        76 3.95190E-02-3.19480E-02 0.00000E+00
 -1        77 4.86530E-02-3.49540E-02 0.00000E+00
 -1        78 5.86330E-02-3.78110E-02 0.00000E+00
 -1        79 6.94530E-02-4.05180E-02 0.00000E+00
 -1        80 8.10920E-02-4.30640E-02 0.00000E+00
 -1        81 9.35300E-02-4.54430E-02 0.00000E+00
 -1        82 1.06750E-01-4.76520E-02 0.00000E+00
 -1        83 1.20710E-01-4.96840E-02 0.00000E+00
 -1        84 1.35420E-01-5.15340E-02 0.00000E+00
 -1        85 1.50830E-01-5.31960E-02 0.00000E+00
 -1        86 1.66920E-01-5.46690E-02 0.00000E+00
 -1        87 1.83670E-01-5.59460E-02 0.00000E+00
 -1        88 2.01050E-01-5.70270E-02 0.00000E+00
 -1        89 2.19030E-01-5.79100E-02 0.00000E+00
 -1        90 2.37570E-01-5.85980E-02 0.00000E+00
 -1        91 2.56660E-01-5.90950E-02 0.00000E+00
 -1        92 2.76250E-01-5.93840E-02 0.00000E+00
 -1        93 2.96310E-01-5.94590E-02 0.00000E+00
 -1        94 3.38470E-01-5.90940E-02 0.00000E+00
 -1        95 3.61000E-01-5.86410E-02 0.00000E+00
 -1        96 3.83900E-01-5.79640E-02 0.00000E+00
 -1        97 4.07100E-01-5.71010E-02 0.00000E+00
 -1        98 4.30580E-01-5.60740E-02 0.00000E+00
 -1        99 4.54270E-01-5.48820E-02 0.00000E+00
 -1       100 4.78130E-01-5.35380E-02 0.00000E+00
 -1       101 5.02100E-01-5.20550E-02 0.00000E+00
 -1       102 5.26140E-01-5.04420E-02 0.00000E+00
 -1       103 5.50190E-01-4.87120E-02 0.00000E+00
 -1       104 5.74190E-01-4.68770E-02 0.00000E+00
 -1       105 5.98100E-01-4.49480E-02 0.00000E+00
 -1       106 6.21850E-01-4.29370E-02 0.00000E+00
 -1       107 6.45380E-01-4.08570E-02 0.00000E+00
 -1       108 6.68640E-01-3.87180E-02 0.00000E+00
 -1       109 6.91580E-01-3.65310E-02 0.00000E+00
 -1       110 7.14120E-01-3.43090E-02 0.00000E+00
 -1       111 7.36230E-01-3.20630E-02 0.00000E+00
 -1       112 7.57830E-01-2.98030E-02 0.00000E+00
 -1       113 7.78870E-01-2.75420E-02 0.00000E+00
 -1       114 7.99300E-01-2.52900E-02 0.00000E+00
 -1       115 8.19040E-01-2.30600E-02 0.00000E+00
 -1       116 8.38060E-01-2.08620E-02 0.00000E+00
 -1       117 8.56300E-01-1.87070E-02 0.00000E+00
 -1       118 8.73680E-01-1.66100E-02 0.00000E+00
 -1       119 8.90180E-01-1.45790E-02 0.00000E+00
 -1       120 9.05740E-01-1.26290E-02 0.00000E+00
 -1       121 9.20290E-01-1.07720E-02 0.00000E+00
 -1       122 9.33770E-01-9.02170E-03 0.00000E+00
 -1       123 9.46140E-01-7.39330E-03 0.00000E+00
 -1       124 9.57340E-01-5.89610E-03 0.00000E+00
 -1       125 9.67370E-01-4.53700E-03 0.00000E+00
 -1       126 9.76000E-01-3.35090E-03 0.00000E+00
 -1       127 9.83490E-01-2.31200E-03 0.00000E+00
 -1       128 9.88490E-01-1.61350E-03 0.00000E+00
 -1       129 9.92100E-01-1.10780E-03 0.00000E+00
 -1       130 9.95080E-01-6.90490E-04 0.00000E+00
 -1       131 9.97670E-01-3.26550E-04 0.00000E+00
 -1       132-1.21830E+01 1.19710E+00 0.00000E+00
 -1       133 1.32050E+01 1.01120E+00 0.00000E+00
 -1       134-1.18690E+01-1.97400E+00 0.00000E+00
 -1       135-1.10920E+01-5.09310E+00 0.00000E+00
 -1       136-9.46580E+00-7.86620E+00 0.00000E+00
 -1       137-7.13370E+00-1.00850E+01 0.00000E+00
 -1       138-4.32700E+00-1.16590E+01 0.00000E+00
 -1       139-1.21910E+00-1.24990E+01 0.00000E+00
 -1       140 1.99950E+00-1.25280E+01 0.00000E+00
 -1       141 5.12280E+00-1.17440E+01 0.00000E+00
 -1       142 7.95860E+00-1.02190E+01 0.00000E+00
 -1       143 1.03310E+01-8.04090E+00 0.00000E+00
 -1       144 1.20080E+01-5.29720E+00 0.00000E+00
 -1       145 1.28400E+01-2.19030E+00 0.00000E+00
 -1       146 1.24700E+01 3.48480E+00 0.00000E+00
 -1       147 1.09220E+01 6.62290E+00 0.00000E+00
 -1       148 8.99020E+00 9.54850E+00 0.00000E+00
 -1       149 6.25090E+00 1.17520E+01 0.00000E+00
 -1       150 2.78530E+00 1.26400E+01 0.00000E+00
 -1       151-7.34390E-01 1.26770E+01 0.00000E+00
 -1       152-4.17130E+00 1.19380E+01 0.00000E+00
 -1       153-7.25650E+00 1.02560E+01 0.00000E+00
 -1       154-9.69560E+00 7.72920E+00 0.00000E+00
 -1       155-1.12250E+01 4.57440E+00 0.00000E+00
 -1       156 9.99150E-01-1.51520E-03 0.00000E+00
 -1       157 9.97350E-01-2.43570E-03 0.00000E+00
 -1       158 1.00070E+00-1.48290E-03 0.00000E+00
 -1       159 9.99970E-01-3.38170E-03 0.00000E+00
 -1       160 1.00190E+00-2.07850E-04 0.00000E+00
 -1       161 1.00260E+00-2.42950E-03 0.00000E+00
 -1       162 1.00100E+00 1.28670E-03 0.00000E+00
 -1       163 1.00340E+00 1.82920E-03 0.00000E+00
 -1       164 9.99250E-01 1.49750E-03 0.00000E+00
 -1       165 1.00040E+00 3.21980E-03 0.00000E+00
 -1       166 9.97430E-01 2.58540E-03 0.00000E+00
 -1       167 1.00390E+00-5.94460E-04 0.00000E+00
 -1       168 1.00530E+00-2.32150E-03 0.00000E+00
 -1       169 1.00430E+00-4.67910E-03 0.00000E+00
 -1       170 1.00200E+00-4.57570E-03 0.00000E+00
 -1       171 1.00040E+00-6.18250E-03 0.00000E+00
 -1       172 9.97530E-01-5.19250E-03 0.00000E+00
 -1       173 1.00600E+00-3.83840E-06 0.00000E+00
 -1       174 1.00800E+00-2.03600E-03 0.00000E+00
 -1       175 1.00290E+00-6.50120E-03 0.00000E+00
 -1       176 1.00680E+00-4.41430E-03 0.00000E+00
 -1       177 9.98060E-01-8.58300E-03 0.00000E+00
 -1       178 1.00170E+00-9.14400E-03 0.00000E+00
 -1       179 9.94690E-01-3.55130E-03 0.00000E+00
 -1       180 1.00620E+00-8.13490E-03 0.00000E+00
 -1       181 1.00850E+00 5.08550E-04 0.00000E+00
 -1       182 1.01110E+00-1.17030E-03 0.00000E+00
 -1       183 1.00980E+00-4.98410E-03 0.00000E+00
 -1       184 1.00650E+00 2.46280E-03 0.00000E+00
 -1       185 1.01010E+00 3.16320E-03 0.00000E+00
 -1       186 9.98290E-01 4.89250E-03 0.00000E+00
 -1       187 1.00050E+00 5.68880E-03 0.00000E+00
 -1       188 1.00300E+00 4.56580E-03 0.00000E+00
 -1       189 1.00480E+00 3.61970E-03 0.00000E+00
 -1       190 1.00610E+00 5.37940E-03 0.00000E+00
 -1       191 9.95360E-01 4.68470E-03 0.00000E+00
 -1       192 1.00270E+00 7.34620E-03 0.00000E+00
 -1       193 9.98060E-01 8.22290E-03 0.00000E+00
 -1       194 9.99110E-01-1.26500E-02 0.00000E+00
 -1       195 9.94620E-01-7.09540E-03 0.00000E+00
 -1       196 9.94930E-01-1.13440E-02 0.00000E+00
 -1       197 9.91350E-01-4.78290E-03 0.00000E+00
 -1       198 9.87060E-01-6.16880E-03 0.00000E+00
 -1       199 9.91840E-01 4.09990E-03 0.00000E+00
 -1       200 9.92860E-01 7.45460E-03 0.00000E+00
 -1       201 9.88400E-01 6.07150E-03 0.00000E+00
 -1       202 1.01450E+00-4.67010E-03 0.00000E+00
 -1       203 9.95620E-01-1.63810E-02 0.00000E+00
 -1       204 1.00360E+00-1.30810E-02 0.00000E+00
 -1       205 1.00060E+00-1.76550E-02 0.00000E+00
 -1       206 9.90930E-01-9.16160E-03 0.00000E+00
 -1       207 1.00920E+00 7.28120E-03 0.00000E+00
 -1       208 1.01380E+00 6.44590E-03 0.00000E+00
 -1       209 1.00610E+00 8.75450E-03 0.00000E+00
 -1       210 1.00940E+00 1.23810E-02 0.00000E+00
 -1       211 1.00280E+00 1.10790E-02 0.00000E+00
 -1       212 9.90910E-01-1.42590E-02 0.00000E+00
 -1       213-3.11580E-03 3.42120E-05 0.00000E+00
 -1       214-3.06430E-03 4.21120E-03 0.00000E+00
 -1       215-6.74480E-03 1.76040E-03 0.00000E+00
 -1       216-6.98490E-03 5.95840E-03 0.00000E+00
 -1       217-3.16270E-03 8.30100E-03 0.00000E+00
 -1       218-6.34230E-03-2.26730E-03 0.00000E+00
 -1       219-1.02290E-02-9.25430E-04 0.00000E+00
 -1       220-2.76960E-03-4.01150E-03 0.00000E+00
 -1       221-5.97830E-03-6.16310E-03 0.00000E+00
 -1       222-9.21230E-03-4.44570E-03 0.00000E+00
 -1       223-2.62580E-03-7.52240E-03 0.00000E+00
 -1       224-5.30910E-03-1.07210E-02 0.00000E+00
 -1       225-9.68320E-03-8.25570E-03 0.00000E+00
 -1       226-4.79280E-04-1.05390E-02 0.00000E+00
 -1       227-7.12020E-03 1.01590E-02 0.00000E+00
 -1       228-3.30520E-03 1.22180E-02 0.00000E+00
 -1       229 4.53240E-05 1.04400E-02 0.00000E+00
 -1       230 1.10670E-03 1.39320E-02 0.00000E+00
 -1       231-1.06840E-02 3.40410E-03 0.00000E+00
 -1       232-1.10170E-02 7.82240E-03 0.00000E+00
 -1       233 2.01680E-03-1.43120E-02 0.00000E+00
 -1       234-2.23590E-03-1.39340E-02 0.00000E+00
 -1       235-9.49710E-04-1.79300E-02 0.00000E+00
 -1       236-6.40690E-03-1.64670E-02 0.00000E+00
 -1       237-6.89660E-03 1.39980E-02 0.00000E+00
 -1       238-1.10240E-02 1.26630E-02 0.00000E+00
 -1       239-1.37210E-02-4.82080E-03 0.00000E+00
 -1       240-1.45730E-02 8.00530E-04 0.00000E+00
 -1       241-9.71280E-03-1.26760E-02 0.00000E+00
 -1       242-1.41300E-02-1.08620E-02 0.00000E+00
 -1       243 4.63070E-03-1.85170E-02 0.00000E+00
 -1       244 9.92560E-04-2.27970E-02 0.00000E+00
 -1       245-4.47130E-03-2.19770E-02 0.00000E+00
 -1       246 9.81520E-01-7.83200E-03 0.00000E+00
 -1       247-1.43560E-02 5.14110E-03 0.00000E+00
 -1       248-9.27580E-03 1.84280E-02 0.00000E+00
 -1       249-3.42930E-03 1.64590E-02 0.00000E+00
 -1       250-9.21290E-03-2.11850E-02 0.00000E+00
 -1       251-1.56250E-02 9.58990E-03 0.00000E+00
 -1       252 9.91180E-01-2.01760E-02 0.00000E+00
 -1       253 9.86310E-01-1.13900E-02 0.00000E+00
 -1       254 9.85980E-01-1.72560E-02 0.00000E+00
 -1       255-1.96300E-02 4.10420E-03 0.00000E+00
 -1       256 1.01510E+00 8.41770E-04 0.00000E+00
 -1       257 1.02020E+00 3.87920E-03 0.00000E+00
 -1       258 9.96660E-01-2.23400E-02 0.00000E+00
 -1       259 6.72740E-03-2.33030E-02 0.00000E+00
 -1       260 3.07520E-03-2.80320E-02 0.00000E+00
 -1       261-1.93600E-02-7.74410E-03 0.00000E+00
 -1       262 1.00620E+00-1.80010E-02 0.00000E+00
 -1       263 1.00270E+00-2.36890E-02 0.00000E+00
 -1       264-2.61370E-03-2.74790E-02 0.00000E+00
 -1       265 9.89860E-01 1.01320E-02 0.00000E+00
 -1       266 9.93970E-01 1.16450E-02 0.00000E+00
 -1       267 9.84640E-01 1.08150E-02 0.00000E+00
 -1       268 9.89810E-01 1.47570E-02 0.00000E+00
 -1       269 9.95300E-01 1.65270E-02 0.00000E+00
 -1       270 9.98380E-01 1.28630E-02 0.00000E+00
 -1       271 1.00200E+00 1.66790E-02 0.00000E+00
 -1       272 9.90780E-01 2.09320E-02 0.00000E+00
 -1       273 1.01180E+00-9.62740E-03 0.00000E+00
 -1       274 1.01870E+00-1.03490E-02 0.00000E+00
 -1       275-1.29790E-02-1.71880E-02 0.00000E+00
 -1       276-1.91080E-02-1.45240E-02 0.00000E+00
 -1       277 1.00820E+00-1.30770E-02 0.00000E+00
 -1       278 1.01300E+00-1.66790E-02 0.00000E+00
 -1       279-1.57860E-02 1.59000E-02 0.00000E+00
 -1       280-1.49430E-02 2.29930E-02 0.00000E+00
 -1       281 1.61090E-03 1.84950E-02 0.00000E+00
 -1       282-3.46650E-03 2.16860E-02 0.00000E+00
 -1       283 1.96360E-03 2.37090E-02 0.00000E+00
 -1       284 6.19580E-03 2.01730E-02 0.00000E+00
 -1       285 7.43800E-03 2.48530E-02 0.00000E+00
 -1       286-2.67220E-03 2.76660E-02 0.00000E+00
 -1       287 3.07890E-03 2.92820E-02 0.00000E+00
 -1       288 8.61680E-03-2.83600E-02 0.00000E+00
 -1       289 5.60900E-03-3.34410E-02 0.00000E+00
 -1       290 1.16920E-02-2.40330E-02 0.00000E+00
 -1       291 1.40590E-02-2.82280E-02 0.00000E+00
 -1       292 1.12380E-02-3.34390E-02 0.00000E+00
 -1       293-1.46650E-04-3.32500E-02 0.00000E+00
 -1       294-8.29970E-03-2.64370E-02 0.00000E+00
 -1       295-1.38450E-02-2.40480E-02 0.00000E+00
 -1       296-6.36870E-03-3.28340E-02 0.00000E+00
 -1       297-8.97280E-04 3.39480E-02 0.00000E+00
 -1       298 8.50590E-03 3.07240E-02 0.00000E+00
 -1       299 1.29830E-02 2.62310E-02 0.00000E+00
 -1       300-8.58370E-03 2.52660E-02 0.00000E+00
 -1       301-7.52550E-03 3.18610E-02 0.00000E+00
 -1       302 1.40020E-02 3.23630E-02 0.00000E+00
 -1       303 1.79040E-02 2.80450E-02 0.00000E+00
 -1       304 4.56260E-03 3.44010E-02 0.00000E+00
 -1       305-2.15390E-02 1.18710E-02 0.00000E+00
 -1       306 9.85750E-01-2.39250E-02 0.00000E+00
 -1       307 9.91670E-01-2.69990E-02 0.00000E+00
 -1       308 9.80920E-01-1.38020E-02 0.00000E+00
 -1       309 9.80300E-01-2.01380E-02 0.00000E+00
 -1       310-1.85270E-02-2.09520E-03 0.00000E+00
 -1       311-2.50690E-02-2.60650E-03 0.00000E+00
 -1       312 1.02020E+00-2.86960E-03 0.00000E+00
 -1       313 1.02700E+00-3.54040E-04 0.00000E+00
 -1       314 1.01830E+00 1.10020E-02 0.00000E+00
 -1       315 1.02680E+00 8.10860E-03 0.00000E+00
 -1       316 2.01990E-02 3.33090E-02 0.00000E+00
 -1       317 9.31410E-03 3.66820E-02 0.00000E+00
 -1       318 1.54400E-02 3.85800E-02 0.00000E+00
 -1       319 9.98050E-01-2.93050E-02 0.00000E+00
 -1       320-2.52400E-02-1.12600E-02 0.00000E+00
 -1       321 1.00940E+00-2.40780E-02 0.00000E+00
 -1       322 9.97320E-01 2.21660E-02 0.00000E+00
 -1       323 9.84690E-01 1.84180E-02 0.00000E+00
 -1       324 9.85440E-01 2.57690E-02 0.00000E+00
 -1       325 9.92560E-01 2.78360E-02 0.00000E+00
 -1       326 1.68320E-02-3.32220E-02 0.00000E+00
 -1       327 1.41730E-02-3.80480E-02 0.00000E+00
 -1       328 8.66960E-03-3.92790E-02 0.00000E+00
 -1       329 2.95450E-03-3.85310E-02 0.00000E+00
 -1       330 1.90150E-02-2.82510E-02 0.00000E+00
 -1       331 2.29870E-02-3.22150E-02 0.00000E+00
 -1       332 1.98400E-02-3.88250E-02 0.00000E+00
 -1       333-1.82840E-02-2.05440E-02 0.00000E+00
 -1       334-2.43770E-02-1.91330E-02 0.00000E+00
 -1       335 1.00510E+00-3.08320E-02 0.00000E+00
 -1       336-2.87790E-03-3.96440E-02 0.00000E+00
 -1       337 2.23720E-02 4.03020E-02 0.00000E+00
 -1       338 9.75070E-01-1.01630E-02 0.00000E+00
 -1       339-2.18150E-02 1.99440E-02 0.00000E+00
 -1       340-2.05770E-02 2.93380E-02 0.00000E+00
 -1       341-1.32400E-02-3.12400E-02 0.00000E+00
 -1       342-2.11000E-02-2.74970E-02 0.00000E+00
 -1       343 3.27230E-03 4.07700E-02 0.00000E+00
 -1       344-5.74600E-03 3.92930E-02 0.00000E+00
 -1       345-1.07340E-02-3.91690E-02 0.00000E+00
 -1       346 9.79230E-01-2.73840E-02 0.00000E+00
 -1       347 9.75750E-01-1.63030E-02 0.00000E+00
 -1       348 9.68560E-01-1.52490E-02 0.00000E+00
 -1       349 9.73580E-01-2.22710E-02 0.00000E+00
 -1       350-1.31560E-02 2.90450E-02 0.00000E+00
 -1       351-1.36220E-02 3.58220E-02 0.00000E+00
 -1       352 9.85610E-01-3.15680E-02 0.00000E+00
 -1       353 1.05010E-02 4.24680E-02 0.00000E+00
 -1       354 1.01670E+00-2.38780E-02 0.00000E+00
 -1       355-2.73490E-02 6.37260E-03 0.00000E+00
 -1       356 2.72180E-02-3.83060E-02 0.00000E+00
 -1       357 2.34120E-02-4.55100E-02 0.00000E+00
 -1       358 1.46710E-02-4.50710E-02 0.00000E+00
 -1       359 4.05880E-03-4.70770E-02 0.00000E+00
 -1       360 9.92400E-01-3.46320E-02 0.00000E+00
 -1       361-2.86650E-02 1.52170E-02 0.00000E+00
 -1       362 1.65200E-02 4.56490E-02 0.00000E+00
 -1       363 2.46710E-02 4.79090E-02 0.00000E+00
 -1       364 2.72310E-02 3.43320E-02 0.00000E+00
 -1       365 3.04530E-02 4.16040E-02 0.00000E+00
 -1       366 3.41590E-02 3.58220E-02 0.00000E+00
 -1       367 9.86690E-01 3.38630E-02 0.00000E+00
 -1       368 9.79070E-01 2.27010E-02 0.00000E+00
 -1       369 9.79070E-01 3.05110E-02 0.00000E+00
 -1       370 9.78770E-01 1.52660E-02 0.00000E+00
 -1       371 9.72850E-01 1.93980E-02 0.00000E+00
 -1       372 9.73620E-01 2.63820E-02 0.00000E+00
 -1       373-3.36970E-02 6.78650E-05 0.00000E+00
 -1       374 1.00030E+00 2.83860E-02 0.00000E+00
 -1       375 1.00330E+00 2.25470E-02 0.00000E+00
 -1       376 1.00780E+00 1.92380E-02 0.00000E+00
 -1       377 1.01490E+00 1.85280E-02 0.00000E+00
 -1       378 1.00940E+00 2.63690E-02 0.00000E+00
 -1       379 9.72910E-01 1.12250E-02 0.00000E+00
 -1       380 9.65850E-01 1.56010E-02 0.00000E+00
 -1       381 9.66920E-01 2.46350E-02 0.00000E+00
 -1       382 9.78760E-01 8.67730E-03 0.00000E+00
 -1       383-3.18790E-02-1.55400E-02 0.00000E+00
 -1       384 9.99560E-01-3.72060E-02 0.00000E+00
 -1       385 4.11760E-02 4.17660E-02 0.00000E+00
 -1       386 3.35160E-02 4.93890E-02 0.00000E+00
 -1       387 9.95210E-01 3.57060E-02 0.00000E+00
 -1       388-6.62190E-03-4.72620E-02 0.00000E+00
 -1       389 1.02510E+00-7.06090E-03 0.00000E+00
 -1       390 1.02600E+00-1.42650E-02 0.00000E+00
 -1       391 1.03380E+00-7.80920E-03 0.00000E+00
 -1       392 1.03580E+00 3.25200E-03 0.00000E+00
 -1       393 8.04190E-03 4.99460E-02 0.00000E+00
 -1       394 9.71480E-01-3.02690E-02 0.00000E+00
 -1       395 9.78210E-01-3.58740E-02 0.00000E+00
 -1       396 3.09970E-02-4.55530E-02 0.00000E+00
 -1       397 2.73990E-02-5.15770E-02 0.00000E+00
 -1       398 2.03860E-02-5.28330E-02 0.00000E+00
 -1       399-1.24300E-02 4.53180E-02 0.00000E+00
 -1       400 1.01980E+00-1.76830E-02 0.00000E+00
 -1       401 1.02460E+00-2.32100E-02 0.00000E+00
 -1       402 1.01300E+00-3.12270E-02 0.00000E+00
 -1       403 1.02450E+00 1.71320E-02 0.00000E+00
 -1       404 1.03510E+00 1.40870E-02 0.00000E+00
 -1       405 3.48520E-02-3.83360E-02 0.00000E+00
 -1       406 3.85580E-02-4.58210E-02 0.00000E+00
 -1       407 3.43350E-02-5.30380E-02 0.00000E+00
 -1       408 2.76970E-02-6.00890E-02 0.00000E+00
 -1       409 1.00810E+00-3.92130E-02 0.00000E+00
 -1       410-1.92820E-02-3.73250E-02 0.00000E+00
 -1       411-2.85510E-02-3.43230E-02 0.00000E+00
 -1       412 1.80420E-02 5.41170E-02 0.00000E+00
 -1       413 2.73690E-02 5.63850E-02 0.00000E+00
 -1       414-1.61580E-02-4.66450E-02 0.00000E+00
 -1       415-2.90040E-02 2.44150E-02 0.00000E+00
 -1       416-2.87340E-02 3.32780E-02 0.00000E+00
 -1       417 9.85980E-01-4.02390E-02 0.00000E+00
 -1       418 4.16440E-02-3.92400E-02 0.00000E+00
 -1       419 4.66280E-02-4.50150E-02 0.00000E+00
 -1       420 4.28780E-02-5.32690E-02 0.00000E+00
 -1       421 3.81670E-02-6.11530E-02 0.00000E+00
 -1       422 3.64650E-02 5.78010E-02 0.00000E+00
 -1       423 9.70220E-01 3.41770E-02 0.00000E+00
 -1       424 9.79300E-01 3.97780E-02 0.00000E+00
 -1       425 9.58810E-01 2.11710E-02 0.00000E+00
 -1       426 9.60110E-01 3.06690E-02 0.00000E+00
 -1       427-3.12270E-02-7.64810E-03 0.00000E+00
 -1       428-3.99920E-02-8.69080E-03 0.00000E+00
 -1       429-3.53810E-02 9.58540E-03 0.00000E+00
 -1       430-4.29300E-02 3.47750E-03 0.00000E+00
 -1       431 9.88610E-01 4.32810E-02 0.00000E+00
 -1       432 1.01980E+00 2.59780E-02 0.00000E+00
 -1       433 1.01470E+00 3.49010E-02 0.00000E+00
 -1       434 9.93400E-01-4.20900E-02 0.00000E+00
 -1       435 9.69220E-01-3.93770E-02 0.00000E+00
 -1       436 9.65800E-01-2.39550E-02 0.00000E+00
 -1       437 9.62480E-01-3.20270E-02 0.00000E+00
 -1       438 9.58390E-01-2.50120E-02 0.00000E+00
 -1       439 9.60350E-01-1.80020E-02 0.00000E+00
 -1       440-2.60800E-03 4.77990E-02 0.00000E+00
 -1       441 2.29720E-04 5.73340E-02 0.00000E+00
 -1       442-3.66240E-02 1.90520E-02 0.00000E+00
 -1       443 1.23670E-02-5.30070E-02 0.00000E+00
 -1       444 9.57370E-01 1.20800E-02 0.00000E+00
 -1       445 9.51200E-01 1.73300E-02 0.00000E+00
 -1       446 9.51330E-01 2.62030E-02 0.00000E+00
 -1       447 1.02060E+00-3.01980E-02 0.00000E+00
 -1       448 1.00460E+00 3.58730E-02 0.00000E+00
 -1       449 1.66430E-02-6.08180E-02 0.00000E+00
 -1       450-1.13330E-02-5.61920E-02 0.00000E+00
 -1       451-3.04460E-02-2.48060E-02 0.00000E+00
 -1       452-3.96990E-02-2.10940E-02 0.00000E+00
 -1       453 2.07580E-02 6.38130E-02 0.00000E+00
 -1       454 5.19600E-02-5.27400E-02 0.00000E+00
 -1       455 4.72810E-02-6.12810E-02 0.00000E+00
 -1       456 4.26770E-02-6.84740E-02 0.00000E+00
 -1       457 9.77550E-01-4.57150E-02 0.00000E+00
 -1       458 1.00020E+00-4.68320E-02 0.00000E+00
 -1       459 3.06580E-02 6.57400E-02 0.00000E+00
 -1       460 4.04870E-02 6.68070E-02 0.00000E+00
 -1       461 4.13900E-02 5.10190E-02 0.00000E+00
 -1       462 4.57330E-02 5.81440E-02 0.00000E+00
 -1       463 5.06860E-02 4.81790E-02 0.00000E+00
 -1       464 9.98780E-01 4.50120E-02 0.00000E+00
 -1       465-2.19120E-02 4.02660E-02 0.00000E+00
 -1       466-2.11090E-02 5.50810E-02 0.00000E+00
 -1       467 9.61820E-01-1.12960E-02 0.00000E+00
 -1       468 9.55530E-01-1.24410E-02 0.00000E+00
 -1       469 9.52250E-01-1.91940E-02 0.00000E+00
 -1       470 5.62080E-02-4.38010E-02 0.00000E+00
 -1       471 6.20230E-02-5.16210E-02 0.00000E+00
 -1       472 5.68110E-02-6.11890E-02 0.00000E+00
 -1       473 5.11890E-02-7.02130E-02 0.00000E+00
 -1       474 1.02390E+00 3.38060E-02 0.00000E+00
 -1       475 9.70470E-01 4.58100E-02 0.00000E+00
 -1       476 1.03010E+00-3.33470E-02 0.00000E+00
 -1       477 9.51280E-01-3.08050E-02 0.00000E+00
 -1       478 9.42040E-01-2.04440E-02 0.00000E+00
 -1       479 9.51980E-01 3.66400E-02 0.00000E+00
 -1       480 5.57030E-02 5.81020E-02 0.00000E+00
 -1       481 6.18690E-02 4.92180E-02 0.00000E+00
 -1       482 5.05310E-02 6.72680E-02 0.00000E+00
 -1       483 9.58650E-01-4.14970E-02 0.00000E+00
 -1       484 9.88380E-01-5.09730E-02 0.00000E+00
 -1       485-2.64500E-02-4.45600E-02 0.00000E+00
 -1       486-3.75240E-02-4.01930E-02 0.00000E+00
 -1       487 9.80270E-01 5.08870E-02 0.00000E+00
 -1       488 9.43040E-01 1.95230E-02 0.00000E+00
 -1       489 9.42800E-01 3.14520E-02 0.00000E+00
 -1       490 9.43200E-01 4.29250E-02 0.00000E+00
 -1       491 1.04550E+00-3.44200E-03 0.00000E+00
 -1       492-3.72690E-02 2.95800E-02 0.00000E+00
 -1       493-3.46020E-02 4.30420E-02 0.00000E+00
 -1       494 1.04660E+00 8.88260E-03 0.00000E+00
 -1       495 3.37650E-02-6.99390E-02 0.00000E+00
 -1       496 6.55160E-02 5.83870E-02 0.00000E+00
 -1       497 7.00810E-02 5.12930E-02 0.00000E+00
 -1       498 6.08570E-02 6.72810E-02 0.00000E+00
 -1       499 7.15040E-02 6.61750E-02 0.00000E+00
 -1       500 9.66790E-01-4.98420E-02 0.00000E+00
 -1       501 6.37830E-03-5.87360E-02 0.00000E+00
 -1       502-5.17580E-02-4.27630E-03 0.00000E+00
 -1       503 9.91440E-01 5.42650E-02 0.00000E+00
 -1       504 1.01830E+00-3.88530E-02 0.00000E+00
 -1       505 1.01170E+00-4.97450E-02 0.00000E+00
 -1       506 2.40540E-02 7.44480E-02 0.00000E+00
 -1       507 1.06200E-02 6.08440E-02 0.00000E+00
 -1       508 1.32660E-02 7.17160E-02 0.00000E+00
 -1       509-8.91410E-03 5.38080E-02 0.00000E+00
 -1       510-8.42980E-03 6.34380E-02 0.00000E+00
 -1       511 1.07270E-02-6.95540E-02 0.00000E+00
 -1       512 6.68210E-02-6.03550E-02 0.00000E+00
 -1       513 6.17500E-02-7.03770E-02 0.00000E+00
 -1       514 5.60260E-02-8.03950E-02 0.00000E+00
 -1       515-4.29930E-02 1.31020E-02 0.00000E+00
 -1       516-4.63380E-02 2.22630E-02 0.00000E+00
 -1       517 7.39060E-02 5.76210E-02 0.00000E+00
 -1       518 7.91210E-02 5.00880E-02 0.00000E+00
 -1       519 3.46980E-02 7.60230E-02 0.00000E+00
 -1       520 9.38700E-01-3.29250E-02 0.00000E+00
 -1       521 9.30400E-01-2.24800E-02 0.00000E+00
 -1       522 1.03180E+00 2.63150E-02 0.00000E+00
 -1       523 1.04510E+00 2.18100E-02 0.00000E+00
 -1       524 1.03400E+00-1.99690E-02 0.00000E+00
 -1       525 7.12260E-02-5.08040E-02 0.00000E+00
 -1       526 7.69940E-02-5.82030E-02 0.00000E+00
 -1       527 7.23870E-02-6.95330E-02 0.00000E+00
 -1       528 6.76040E-02-7.98540E-02 0.00000E+00
 -1       529 4.52450E-02 7.67470E-02 0.00000E+00
 -1       530 5.58800E-02 7.69580E-02 0.00000E+00
 -1       531 6.69180E-02 7.66190E-02 0.00000E+00
 -1       532-2.28020E-02-5.53780E-02 0.00000E+00
 -1       533-3.51600E-02-5.27940E-02 0.00000E+00
 -1       534 9.76230E-01-5.70240E-02 0.00000E+00
 -1       535 9.61370E-01 4.08170E-02 0.00000E+00
 -1       536 9.53060E-01 4.72180E-02 0.00000E+00
 -1       537 9.61970E-01 5.01970E-02 0.00000E+00
 -1       538 1.02090E+00 4.31820E-02 0.00000E+00
 -1       539 1.00980E+00 4.50140E-02 0.00000E+00
 -1       540 9.33840E-01 2.51370E-02 0.00000E+00
 -1       541 9.33630E-01 3.77370E-02 0.00000E+00
 -1       542 9.33900E-01 4.94890E-02 0.00000E+00
 -1       543-1.70570E-02-6.66160E-02 0.00000E+00
 -1       544-2.19280E-03-5.51160E-02 0.00000E+00
 -1       545-2.90470E-03-6.65020E-02 0.00000E+00
 -1       546 8.39100E-02 6.13980E-02 0.00000E+00
 -1       547 9.55020E-01-5.27150E-02 0.00000E+00
 -1       548 9.69100E-01 5.87200E-02 0.00000E+00
 -1       549-5.36770E-02 1.06790E-02 0.00000E+00
 -1       550-3.72150E-02-3.03700E-02 0.00000E+00
 -1       551-5.01040E-02-3.04820E-02 0.00000E+00
 -1       552 4.25120E-02-7.89870E-02 0.00000E+00
 -1       553 2.25120E-02-6.99710E-02 0.00000E+00
 -1       554 5.01400E-02 4.08240E-02 0.00000E+00
 -1       555 2.87710E-02-7.99760E-02 0.00000E+00
 -1       556 9.46850E-01-4.30220E-02 0.00000E+00
 -1       557 9.34760E-01-4.48540E-02 0.00000E+00
 -1       558 9.27080E-01-3.49940E-02 0.00000E+00
 -1       559 9.20760E-01-2.59840E-02 0.00000E+00
 -1       560 7.87420E-02 7.52900E-02 0.00000E+00
 -1       561 9.82250E-01 6.33610E-02 0.00000E+00
 -1       562 9.99760E-01-6.10770E-02 0.00000E+00
 -1       563 8.30510E-02-6.83600E-02 0.00000E+00
 -1       564 7.82980E-02-7.91650E-02 0.00000E+00
 -1       565 7.35960E-02-8.80770E-02 0.00000E+00
 -1       566 1.00360E+00 5.59230E-02 0.00000E+00
 -1       567 2.80350E-02 8.62390E-02 0.00000E+00
 -1       568 1.61280E-02 8.38520E-02 0.00000E+00
 -1       569 2.63880E-03 6.78740E-02 0.00000E+00
 -1       570 4.42790E-03 7.95240E-02 0.00000E+00
 -1       571 9.64040E-01-6.17550E-02 0.00000E+00
 -1       572 3.97580E-02 8.71980E-02 0.00000E+00
 -1       573 5.09250E-02 8.70780E-02 0.00000E+00
 -1       574 8.76190E-02-5.65440E-02 0.00000E+00
 -1       575 9.37700E-02-6.71860E-02 0.00000E+00
 -1       576 8.91840E-02-7.86880E-02 0.00000E+00
 -1       577 8.34580E-02-8.92690E-02 0.00000E+00
 -1       578 9.44090E-01 5.41440E-02 0.00000E+00
 -1       579 9.55390E-01 5.80660E-02 0.00000E+00
 -1       580 9.24460E-01 3.18300E-02 0.00000E+00
 -1       581 9.23870E-01 4.43790E-02 0.00000E+00
 -1       582 9.24350E-01 5.67690E-02 0.00000E+00
 -1       583-4.83210E-02-4.77780E-02 0.00000E+00
 -1       584 9.25650E-01 2.03140E-02 0.00000E+00
 -1       585 9.15870E-01 2.41600E-02 0.00000E+00
 -1       586 9.14090E-01 3.79780E-02 0.00000E+00
 -1       587 9.13380E-01 5.08090E-02 0.00000E+00
 -1       588 6.18220E-02 8.70550E-02 0.00000E+00
 -1       589 7.34490E-02 8.69890E-02 0.00000E+00
 -1       590 8.58170E-02 8.62660E-02 0.00000E+00
 -1       591-4.80950E-02 3.52420E-02 0.00000E+00
 -1       592 9.15680E-01-3.63720E-02 0.00000E+00
 -1       593 9.10550E-01-2.47940E-02 0.00000E+00
 -1       594 1.03200E+00 3.95790E-02 0.00000E+00
 -1       595 9.72850E-02-5.63810E-02 0.00000E+00