# vtk DataFile Version 3.0

ASCII
DATASET UNSTRUCTURED_GRID

POINTS 9922 double
	 2.00000000E+00	 1.00000000E+00	 0.00000000E+00
	 2.02500000E+00	 1.00000000E+00	 0.00000000E+00
	 2.02500000E+00	 1.00000000E+00	 1.00000000E-01
	 2.00000000E+00	 1.00000000E+00	 1.00000000E-01
	 2.00000000E+00	 9.75000000E-01	 0.00000000E+00
	 2.02500000E+00	 9.75000000E-01	-1.38778000E-17
	 2.02500000E+00	 9.75000000E-01	 1.00000000E-01
	 2.00000000E+00	 9.75000000E-01	 1.00000000E-01
	 2.00000000E+00	 9.50000000E-01	 0.00000000E+00
	 2.02500000E+00	 9.50000000E-01	-6.93889000E-18
	 2.02500000E+00	 9.50000000E-01	 1.00000000E-01
	 2.00000000E+00	 9.50000000E-01	 1.00000000E-01
	 2.00000000E+00	 9.25000000E-01	 0.00000000E+00
	 2.02500000E+00	 9.25000000E-01	-2.08167000E-17
	 2.02500000E+00	 9.25000000E-01	 1.00000000E-01
	 2.00000000E+00	 9.25000000E-01	 1.00000000E-01
	 2.00000000E+00	 9.00000000E-01	 0.00000000E+00
	 2.02500000E+00	 9.00000000E-01	 6.93889000E-18
	 2.02500000E+00	 9.00000000E-01	 1.00000000E-01
	 2.00000000E+00	 9.00000000E-01	 1.00000000E-01
	 2.00000000E+00	 8.75000000E-01	 0.00000000E+00
	 2.02500000E+00	 8.75000000E-01	-6.93889000E-18
	 2.02500000E+00	 8.75000000E-01	 1.00000000E-01
	 2.00000000E+00	 8.75000000E-01	 1.00000000E-01
	 2.00000000E+00	 8.50000000E-01	 0.00000000E+00
	 2.02500000E+00	 8.50000000E-01	 6.93889000E-18
	 2.02500000E+00	 8.50000000E-01	 1.00000000E-01
	 2.00000000E+00	 8.50000000E-01	 1.00000000E-01
	 2.00000000E+00	 8.25000000E-01	 0.00000000E+00
	 2.02500000E+00	 8.25000000E-01	 6.93889000E-18
	 2.02500000E+00	 8.25000000E-01	 1.00000000E-01
	 2.00000000E+00	 8.25000000E-01	 1.00000000E-01
	 2.00000000E+00	 8.00000000E-01	 0.00000000E+00
	 2.02500000E+00	 8.00000000E-01	-2.08167000E-17
	 2.02500000E+00	 8.00000000E-01	 1.00000000E-01
	 2.00000000E+00	 8.00000000E-01	 1.00000000E-01
	 2.00000000E+00	 7.75000000E-01	 0.00000000E+00
	 2.02500000E+00	 7.75000000E-01	-1.38778000E-17
	 2.02500000E+00	 7.75000000E-01	 1.00000000E-01
	 2.00000000E+00	 7.75000000E-01	 1.00000000E-01
	 2.00000000E+00	 7.50000000E-01	 0.00000000E+00
	 2.02500000E+00	 7.50000000E-01	-6.93889000E-18
	 2.02500000E+00	 7.50000000E-01	 1.00000000E-01
	 2.00000000E+00	 7.50000000E-01	 1.00000000E-01
	 2.00000000E+00	 7.25000000E-01	 0.00000000E+00
	 2.02500000E+00	 7.25000000E-01	 1.38778000E-17
	 2.02500000E+00	 7.25000000E-01	 1.00000000E-01
	 2.00000000E+00	 7.25000000E-01	 1.00000000E-01
	 2.00000000E+00	 7.00000000E-01	 0.00000000E+00
	 2.02500000E+00	 7.00000000E-01	-2.08167000E-17
	 2.02500000E+00	 7.00000000E-01	 1.00000000E-01
	 2.00000000E+00	 7.00000000E-01	 1.00000000E-01
	 2.00000000E+00	 6.75000000E-01	 0.00000000E+00
	 2.02500000E+00	 6.75000000E-01	-6.93889000E-18
	 2.02500000E+00	 6.75000000E-01	 1.00000000E-01
	 2.00000000E+00	 6.75000000E-01	 1.00000000E-01
	 2.00000000E+00	 6.50000000E-01	 0.00000000E+00
	 2.02500000E+00	 6.50000000E-01	 0.00000000E+00
	 2.02500000E+00	 6.50000000E-01	 1.00000000E-01
	 2.00000000E+00	 6.50000000E-01	 1.00000000E-01
	 2.00000000E+00	 6.25000000E-01	 0.00000000E+00
	 2.02500000E+00	 6.25000000E-01	 2.08167000E-17
	 2.02500000E+00	 6.25000000E-01	 1.00000000E-01
	 2.00000000E+00	 6.25000000E-01	 1.00000000E-01
	 2.00000000E+00	 6.00000000E-01	 0.00000000E+00
	 2.02500000E+00	 6.00000000E-01	-6.93889000E-18
	 2.02500000E+00	 6.00000000E-01	 1.00000000E-01
	 2.00000000E+00	 6.00000000E-01	 1.00000000E-01
	 2.00000000E+00	 5.75000000E-01	 0.00000000E+00
	 2.02500000E+00	 5.75000000E-01	 6.93889000E-18
	 2.02500000E+00	 5.75000000E-01	 1.00000000E-01
	 2.00000000E+00	 5.75000000E-01	 1.00000000E-01
	 2.00000000E+00	 5.50000000E-01	 0.00000000E+00
	 2.02500000E+00	 5.50000000E-01	 6.93889000E-18
	 2.02500000E+00	 5.50000000E-01	 1.00000000E-01
	 2.00000000E+00	 5.50000000E-01	 1.00000000E-01
	 2.00000000E+00	 5.25000000E-01	 0.00000000E+00
	 2.02500000E+00	 5.25000000E-01	 6.93889000E-18
	 2.02500000E+00	 5.25000000E-01	 1.00000000E-01
	 2.00000000E+00	 5.25000000E-01	 1.00000000E-01
	 2.00000000E+00	 5.00000000E-01	 0.00000000E+00
	 2.02500000E+00	 5.00000000E-01	 0.00000000E+00
	 2.02500000E+00	 5.00000000E-01	 1.00000000E-01
	 2.00000000E+00	 5.00000000E-01	 1.00000000E-01
	 2.00000000E+00	 4.75000000E-01	 0.00000000E+00
	 2.02500000E+00	 4.75000000E-01	 6.93889000E-18
	 2.02500000E+00	 4.75000000E-01	 1.00000000E-01
	 2.00000000E+00	 4.75000000E-01	 1.00000000E-01
	 2.00000000E+00	 4.50000000E-01	 0.00000000E+00
	 2.02500000E+00	 4.50000000E-01	 6.93889000E-18
	 2.02500000E+00	 4.50000000E-01	 1.00000000E-01
	 2.00000000E+00	 4.50000000E-01	 1.00000000E-01
	 2.00000000E+00	 4.25000000E-01	 0.00000000E+00
	 2.02500000E+00	 4.25000000E-01	 1.38778000E-17
	 2.02500000E+00	 4.25000000E-01	 1.00000000E-01
	 2.00000000E+00	 4.25000000E-01	 1.00000000E-01
	 2.00000000E+00	 4.00000000E-01	 0.00000000E+00
	 2.02500000E+00	 4.00000000E-01	-6.93889000E-18
	 2.02500000E+00	 4.00000000E-01	 1.00000000E-01
	 2.00000000E+00	 4.00000000E-01	 1.00000000E-01
	 2.00000000E+00	 3.75000000E-01	 0.00000000E+00
	 2.02500000E+00	 3.75000000E-01	 6.93889000E-18
	 2.02500000E+00	 3.75000000E-01	 1.00000000E-01
	 2.00000000E+00	 3.75000000E-01	 1.00000000E-01
	 2.00000000E+00	 3.50000000E-01	 0.00000000E+00
	 2.02500000E+00	 3.50000000E-01	 0.00000000E+00
	 2.02500000E+00	 3.50000000E-01	 1.00000000E-01
	 2.00000000E+00	 3.50000000E-01	 1.00000000E-01
	 2.00000000E+00	 3.25000000E-01	 0.00000000E+00
	 2.02500000E+00	 3.25000000E-01	-2.08167000E-17
	 2.02500000E+00	 3.25000000E-01	 1.00000000E-01
	 2.00000000E+00	 3.25000000E-01	 1.00000000E-01
	 2.00000000E+00	 3.00000000E-01	 0.00000000E+00
	 2.02500000E+00	 3.00000000E-01	-6.93889000E-18
	 2.02500000E+00	 3.00000000E-01	 1.00000000E-01
	 2.00000000E+00	 3.00000000E-01	 1.00000000E-01
	 2.00000000E+00	 2.75000000E-01	 0.00000000E+00
	 2.02500000E+00	 2.75000000E-01	 1.38778000E-17
	 2.02500000E+00	 2.75000000E-01	 1.00000000E-01
	 2.00000000E+00	 2.75000000E-01	 1.00000000E-01
	 2.00000000E+00	 2.50000000E-01	 0.00000000E+00
	 2.02500000E+00	 2.50000000E-01	 6.93889000E-18
	 2.02500000E+00	 2.50000000E-01	 1.00000000E-01
	 2.00000000E+00	 2.50000000E-01	 1.00000000E-01
	 2.00000000E+00	 2.25000000E-01	 0.00000000E+00
	 2.02500000E+00	 2.25000000E-01	-6.93889000E-18
	 2.02500000E+00	 2.25000000E-01	 1.00000000E-01
	 2.00000000E+00	 2.25000000E-01	 1.00000000E-01
	 2.00000000E+00	 2.00000000E-01	 0.00000000E+00
	 2.02500000E+00	 2.00000000E-01	 0.00000000E+00
	 2.02500000E+00	 2.00000000E-01	 1.00000000E-01
	 2.00000000E+00	 2.00000000E-01	 1.00000000E-01
	 2.00000000E+00	 1.75000000E-01	 0.00000000E+00
	 2.02500000E+00	 1.75000000E-01	 6.93889000E-18
	 2.02500000E+00	 1.75000000E-01	 1.00000000E-01
	 2.00000000E+00	 1.75000000E-01	 1.00000000E-01
	 2.00000000E+00	 1.50000000E-01	 0.00000000E+00
	 2.02500000E+00	 1.50000000E-01	 0.00000000E+00
	 2.02500000E+00	 1.50000000E-01	 1.00000000E-01
	 2.00000000E+00	 1.50000000E-01	 1.00000000E-01
	 2.00000000E+00	 1.25000000E-01	 0.00000000E+00
	 2.02500000E+00	 1.25000000E-01	 0.00000000E+00
	 2.02500000E+00	 1.25000000E-01	 1.00000000E-01
	 2.00000000E+00	 1.25000000E-01	 1.00000000E-01
	 2.00000000E+00	 1.00000000E-01	 0.00000000E+00
	 2.02500000E+00	 1.00000000E-01	 6.93889000E-18
	 2.02500000E+00	 1.00000000E-01	 1.00000000E-01
	 2.00000000E+00	 1.00000000E-01	 1.00000000E-01
	 2.00000000E+00	 7.50000000E-02	 0.00000000E+00
	 2.02500000E+00	 7.50000000E-02	-1.38778000E-17
	 2.02500000E+00	 7.50000000E-02	 1.00000000E-01
	 2.00000000E+00	 7.50000000E-02	 1.00000000E-01
	 2.00000000E+00	 5.00000000E-02	 0.00000000E+00
	 2.02500000E+00	 5.00000000E-02	 2.08167000E-17
	 2.02500000E+00	 5.00000000E-02	 1.00000000E-01
	 2.00000000E+00	 5.00000000E-02	 1.00000000E-01
	 2.00000000E+00	 2.50000000E-02	 0.00000000E+00
	 2.02500000E+00	 2.50000000E-02	 0.00000000E+00
	 2.02500000E+00	 2.50000000E-02	 1.00000000E-01
	 2.00000000E+00	 2.50000000E-02	 1.00000000E-01
	 2.00000000E+00	 0.00000000E+00	 0.00000000E+00
	 2.02500000E+00	 0.00000000E+00	 0.00000000E+00
	 2.02500000E+00	 0.00000000E+00	 1.00000000E-01
	 2.00000000E+00	 0.00000000E+00	 1.00000000E-01
	 2.05000000E+00	 1.00000000E+00	 0.00000000E+00
	 2.05000000E+00	 1.00000000E+00	 1.00000000E-01
	 2.05000000E+00	 9.75000000E-01	-6.93889000E-18
	 2.05000000E+00	 9.75000000E-01	 1.00000000E-01
	 2.05000000E+00	 9.50000000E-01	 6.93889000E-18
	 2.05000000E+00	 9.50000000E-01	 1.00000000E-01
	 2.05000000E+00	 9.25000000E-01	-6.93889000E-18
	 2.05000000E+00	 9.25000000E-01	 1.00000000E-01
	 2.05000000E+00	 9.00000000E-01	 1.38778000E-17
	 2.05000000E+00	 9.00000000E-01	 1.00000000E-01
	 2.05000000E+00	 8.75000000E-01	 0.00000000E+00
	 2.05000000E+00	 8.75000000E-01	 1.00000000E-01
	 2.05000000E+00	 8.50000000E-01	-6.93889000E-18
	 2.05000000E+00	 8.50000000E-01	 1.00000000E-01
	 2.05000000E+00	 8.25000000E-01	 6.93889000E-18
	 2.05000000E+00	 8.25000000E-01	 1.00000000E-01
	 2.05000000E+00	 8.00000000E-01	-1.38778000E-17
	 2.05000000E+00	 8.00000000E-01	 1.00000000E-01
	 2.05000000E+00	 7.75000000E-01	-2.08167000E-17
	 2.05000000E+00	 7.75000000E-01	 1.00000000E-01
	 2.05000000E+00	 7.50000000E-01	-2.08167000E-17
	 2.05000000E+00	 7.50000000E-01	 1.00000000E-01
	 2.05000000E+00	 7.25000000E-01	 6.93889000E-18
	 2.05000000E+00	 7.25000000E-01	 1.00000000E-01
	 2.05000000E+00	 7.00000000E-01	-6.93889000E-18
	 2.05000000E+00	 7.00000000E-01	 1.00000000E-01
	 2.05000000E+00	 6.75000000E-01	-6.93889000E-18
	 2.05000000E+00	 6.75000000E-01	 1.00000000E-01
	 2.05000000E+00	 6.50000000E-01	-2.08167000E-17
	 2.05000000E+00	 6.50000000E-01	 1.00000000E-01
	 2.05000000E+00	 6.25000000E-01	 6.93889000E-18
	 2.05000000E+00	 6.25000000E-01	 1.00000000E-01
	 2.05000000E+00	 6.00000000E-01	 6.93889000E-18
	 2.05000000E+00	 6.00000000E-01	 1.00000000E-01
	 2.05000000E+00	 5.75000000E-01	-6.93889000E-18
	 2.05000000E+00	 5.75000000E-01	 1.00000000E-01
	 2.05000000E+00	 5.50000000E-01	 6.93889000E-18
	 2.05000000E+00	 5.50000000E-01	 1.00000000E-01
[...]
POINT_DATA 9922
FIELD V3DF 1
	V3DF 3 9922 double
		 1.06051000E+00	-1.06071000E-08	 0.00000000E+00
		 1.05763000E+00	 5.93046000E-07	 0.00000000E+00
		 1.05763000E+00	 5.93046000E-07	 0.00000000E+00
		 1.06051000E+00	-1.06071000E-08	 0.00000000E+00
		 1.06058000E+00	-2.04950000E-03	 0.00000000E+00
		 1.05770000E+00	-2.02134000E-03	 0.00000000E+00
		 1.05770000E+00	-2.02134000E-03	 0.00000000E+00
		 1.06058000E+00	-2.04950000E-03	 0.00000000E+00
		 1.06060000E+00	-4.12249000E-03	 0.00000000E+00
		 1.05771000E+00	-4.07653000E-03	 0.00000000E+00
		 1.05771000E+00	-4.07653000E-03	 0.00000000E+00
		 1.06060000E+00	-4.12249000E-03	 0.00000000E+00
		 1.06062000E+00	-6.19650000E-03	 0.00000000E+00
		 1.05770000E+00	-6.11979000E-03	 0.00000000E+00
		 1.05770000E+00	-6.11979000E-03	 0.00000000E+00
		 1.06062000E+00	-6.19650000E-03	 0.00000000E+00
		 1.06065000E+00	-8.28615000E-03	 0.00000000E+00
		 1.05770000E+00	-8.18535000E-03	 0.00000000E+00
		 1.05770000E+00	-8.18535000E-03	 0.00000000E+00
		 1.06065000E+00	-8.28615000E-03	 0.00000000E+00
		 1.06068000E+00	-1.04355000E-02	 0.00000000E+00
		 1.05767000E+00	-1.03016000E-02	 0.00000000E+00
		 1.05767000E+00	-1.03016000E-02	 0.00000000E+00
		 1.06068000E+00	-1.04355000E-02	 0.00000000E+00
		 1.06070000E+00	-1.25898000E-02	 0.00000000E+00
		 1.05764000E+00	-1.24218000E-02	 0.00000000E+00
		 1.05764000E+00	-1.24218000E-02	 0.00000000E+00
		 1.06070000E+00	-1.25898000E-02	 0.00000000E+00
		 1.06072000E+00	-1.48268000E-02	 0.00000000E+00
		 1.05758000E+00	-1.46183000E-02	 0.00000000E+00
		 1.05758000E+00	-1.46183000E-02	 0.00000000E+00
		 1.06072000E+00	-1.48268000E-02	 0.00000000E+00
		 1.06072000E+00	-1.70918000E-02	 0.00000000E+00
		 1.05750000E+00	-1.68366000E-02	 0.00000000E+00
		 1.05750000E+00	-1.68366000E-02	 0.00000000E+00
		 1.06072000E+00	-1.70918000E-02	 0.00000000E+00
		 1.06069000E+00	-1.94460000E-02	 0.00000000E+00
		 1.05737000E+00	-1.91371000E-02	 0.00000000E+00
		 1.05737000E+00	-1.91371000E-02	 0.00000000E+00
		 1.06069000E+00	-1.94460000E-02	 0.00000000E+00
		 1.06063000E+00	-2.18581000E-02	 0.00000000E+00
		 1.05720000E+00	-2.14861000E-02	 0.00000000E+00
		 1.05720000E+00	-2.14861000E-02	 0.00000000E+00
		 1.06063000E+00	-2.18581000E-02	 0.00000000E+00
		 1.06052000E+00	-2.43671000E-02	 0.00000000E+00
		 1.05697000E+00	-2.39224000E-02	 0.00000000E+00
		 1.05697000E+00	-2.39224000E-02	 0.00000000E+00
		 1.06052000E+00	-2.43671000E-02	 0.00000000E+00
		 1.06034000E+00	-2.69619000E-02	 0.00000000E+00
		 1.05665000E+00	-2.64321000E-02	 0.00000000E+00
		 1.05665000E+00	-2.64321000E-02	 0.00000000E+00
		 1.06034000E+00	-2.69619000E-02	 0.00000000E+00
		 1.06009000E+00	-2.96666000E-02	 0.00000000E+00
		 1.05625000E+00	-2.90383000E-02	 0.00000000E+00
		 1.05625000E+00	-2.90383000E-02	 0.00000000E+00
		 1.06009000E+00	-2.96666000E-02	 0.00000000E+00
		 1.05975000E+00	-3.24823000E-02	 0.00000000E+00
		 1.05574000E+00	-3.17395000E-02	 0.00000000E+00
		 1.05574000E+00	-3.17395000E-02	 0.00000000E+00
		 1.05975000E+00	-3.24823000E-02	 0.00000000E+00
		 1.05929000E+00	-3.54256000E-02	 0.00000000E+00
		 1.05509000E+00	-3.45501000E-02	 0.00000000E+00
		 1.05509000E+00	-3.45501000E-02	 0.00000000E+00
		 1.05929000E+00	-3.54256000E-02	 0.00000000E+00
		 1.05869000E+00	-3.85038000E-02	 0.00000000E+00
		 1.05429000E+00	-3.74745000E-02	 0.00000000E+00
		 1.05429000E+00	-3.74745000E-02	 0.00000000E+00
		 1.05869000E+00	-3.85038000E-02	 0.00000000E+00
		 1.05793000E+00	-4.17306000E-02	 0.00000000E+00
		 1.05331000E+00	-4.05232000E-02	 0.00000000E+00
		 1.05331000E+00	-4.05232000E-02	 0.00000000E+00
		 1.05793000E+00	-4.17306000E-02	 0.00000000E+00
		 1.05696000E+00	-4.51164000E-02	 0.00000000E+00
		 1.05211000E+00	-4.37029000E-02	 0.00000000E+00
		 1.05211000E+00	-4.37029000E-02	 0.00000000E+00
		 1.05696000E+00	-4.51164000E-02	 0.00000000E+00
		 1.05577000E+00	-4.86738000E-02	 0.00000000E+00
		 1.05066000E+00	-4.70219000E-02	 0.00000000E+00
		 1.05066000E+00	-4.70219000E-02	 0.00000000E+00
		 1.05577000E+00	-4.86738000E-02	 0.00000000E+00
		 1.05430000E+00	-5.24149000E-02	 0.00000000E+00
		 1.04891000E+00	-5.04871000E-02	 0.00000000E+00
		 1.04891000E+00	-5.04871000E-02	 0.00000000E+00
		 1.05430000E+00	-5.24149000E-02	 0.00000000E+00
		 1.05251000E+00	-5.63522000E-02	 0.00000000E+00
		 1.04683000E+00	-5.41050000E-02	 0.00000000E+00
		 1.04683000E+00	-5.41050000E-02	 0.00000000E+00
		 1.05251000E+00	-5.63522000E-02	 0.00000000E+00
		 1.05034000E+00	-6.04984000E-02	 0.00000000E+00
		 1.04434000E+00	-5.78811000E-02	 0.00000000E+00
		 1.04434000E+00	-5.78811000E-02	 0.00000000E+00
		 1.05034000E+00	-6.04984000E-02	 0.00000000E+00
		 1.04773000E+00	-6.48658000E-02	 0.00000000E+00
		 1.04139000E+00	-6.18189000E-02	 0.00000000E+00
		 1.04139000E+00	-6.18189000E-02	 0.00000000E+00
		 1.04773000E+00	-6.48658000E-02	 0.00000000E+00
		 1.04460000E+00	-6.94676000E-02	 0.00000000E+00
		 1.03789000E+00	-6.59211000E-02	 0.00000000E+00
		 1.03789000E+00	-6.59211000E-02	 0.00000000E+00
		 1.04460000E+00	-6.94676000E-02	 0.00000000E+00
		 1.04087000E+00	-7.43144000E-02	 0.00000000E+00
		 1.03377000E+00	-7.01850000E-02	 0.00000000E+00
		 1.03377000E+00	-7.01850000E-02	 0.00000000E+00
		 1.04087000E+00	-7.43144000E-02	 0.00000000E+00
		 1.03642000E+00	-7.94200000E-02	 0.00000000E+00
		 1.02891000E+00	-7.46082000E-02	 0.00000000E+00
		 1.02891000E+00	-7.46082000E-02	 0.00000000E+00
		 1.03642000E+00	-7.94200000E-02	 0.00000000E+00
		 1.03112000E+00	-8.47893000E-02	 0.00000000E+00
		 1.02318000E+00	-7.91749000E-02	 0.00000000E+00
		 1.02318000E+00	-7.91749000E-02	 0.00000000E+00
		 1.03112000E+00	-8.47893000E-02	 0.00000000E+00
		 1.02483000E+00	-9.04382000E-02	 0.00000000E+00
		 1.01643000E+00	-8.38734000E-02	 0.00000000E+00
		 1.01643000E+00	-8.38734000E-02	 0.00000000E+00
		 1.02483000E+00	-9.04382000E-02	 0.00000000E+00
		 1.01733000E+00	-9.63556000E-02	 0.00000000E+00
		 1.00846000E+00	-8.86582000E-02	 0.00000000E+00
		 1.00846000E+00	-8.86582000E-02	 0.00000000E+00
		 1.01733000E+00	-9.63556000E-02	 0.00000000E+00
		 1.00838000E+00	-1.02564000E-01	 0.00000000E+00
		 9.99035000E-01	-9.35002000E-02	 0.00000000E+00
		 9.99035000E-01	-9.35002000E-02	 0.00000000E+00
		 1.00838000E+00	-1.02564000E-01	 0.00000000E+00
		 9.97665000E-01	-1.09009000E-01	 0.00000000E+00
		 9.87840000E-01	-9.82827000E-02	 0.00000000E+00
		 9.87840000E-01	-9.82827000E-02	 0.00000000E+00
		 9.97665000E-01	-1.09009000E-01	 0.00000000E+00
		 9.84757000E-01	-1.15736000E-01	 0.00000000E+00
		 9.74475000E-01	-1.02939000E-01	 0.00000000E+00
		 9.74475000E-01	-1.02939000E-01	 0.00000000E+00
		 9.84757000E-01	-1.15736000E-01	 0.00000000E+00
		 9.69082000E-01	-1.22577000E-01	 0.00000000E+00
		 9.58394000E-01	-1.07170000E-01	 0.00000000E+00
		 9.58394000E-01	-1.07170000E-01	 0.00000000E+00
		 9.69082000E-01	-1.22577000E-01	 0.00000000E+00
		 9.49834000E-01	-1.29640000E-01	 0.00000000E+00
		 9.38875000E-01	-1.10783000E-01	 0.00000000E+00
		 9.38875000E-01	-1.10783000E-01	 0.00000000E+00
		 9.49834000E-01	-1.29640000E-01	 0.00000000E+00
		 9.25808000E-01	-1.36452000E-01	 0.00000000E+00
		 9.14815000E-01	-1.13006000E-01	 0.00000000E+00
		 9.14815000E-01	-1.13006000E-01	 0.00000000E+00
		 9.25808000E-01	-1.36452000E-01	 0.00000000E+00
		 8.95215000E-01	-1.43194000E-01	 0.00000000E+00
		 8.84856000E-01	-1.12888000E-01	 0.00000000E+00
		 8.84856000E-01	-1.12888000E-01	 0.00000000E+00
		 8.95215000E-01	-1.43194000E-01	 0.00000000E+00
		 8.54753000E-01	-1.48660000E-01	 0.00000000E+00
		 8.46306000E-01	-1.08891000E-01	 0.00000000E+00
		 8.46306000E-01	-1.08891000E-01	 0.00000000E+00
		 8.54753000E-01	-1.48660000E-01	 0.00000000E+00
		 8.00203000E-01	-1.51012000E-01	 0.00000000E+00
		 7.97256000E-01	-9.33281000E-02	 0.00000000E+00
		 7.97256000E-01	-9.33281000E-02	 0.00000000E+00
		 8.00203000E-01	-1.51012000E-01	 0.00000000E+00
		 7.18128000E-01	-1.51870000E-01	 0.00000000E+00
		 7.32429000E-01	-7.14163000E-02	 0.00000000E+00
		 7.32429000E-01	-7.14163000E-02	 0.00000000E+00
		 7.18128000E-01	-1.51870000E-01	 0.00000000E+00
		 5.90735000E-01	-1.28504000E-01	 0.00000000E+00
		 6.48203000E-01	 1.58103000E-02	 0.00000000E+00
		 6.48203000E-01	 1.58103000E-02	 0.00000000E+00
		 5.90735000E-01	-1.28504000E-01	 0.00000000E+00
		 1.05478000E+00	 3.33992000E-07	 0.00000000E+00
		 1.05478000E+00	 3.33992000E-07	 0.00000000E+00
		 1.05485000E+00	-1.98662000E-03	 0.00000000E+00
		 1.05485000E+00	-1.98662000E-03	 0.00000000E+00
		 1.05485000E+00	-4.01514000E-03	 0.00000000E+00
		 1.05485000E+00	-4.01514000E-03	 0.00000000E+00
		 1.05482000E+00	-6.01886000E-03	 0.00000000E+00
		 1.05482000E+00	-6.01886000E-03	 0.00000000E+00
		 1.05478000E+00	-8.05222000E-03	 0.00000000E+00
		 1.05478000E+00	-8.05222000E-03	 0.00000000E+00
		 1.05471000E+00	-1.01257000E-02	 0.00000000E+00
		 1.05471000E+00	-1.01257000E-02	 0.00000000E+00
		 1.05463000E+00	-1.22038000E-02	 0.00000000E+00
		 1.05463000E+00	-1.22038000E-02	 0.00000000E+00
		 1.05450000E+00	-1.43499000E-02	 0.00000000E+00
		 1.05450000E+00	-1.43499000E-02	 0.00000000E+00
		 1.05435000E+00	-1.65129000E-02	 0.00000000E+00
		 1.05435000E+00	-1.65129000E-02	 0.00000000E+00
		 1.05414000E+00	-1.87500000E-02	 0.00000000E+00
		 1.05414000E+00	-1.87500000E-02	 0.00000000E+00
		 1.05386000E+00	-2.10267000E-02	 0.00000000E+00
		 1.05386000E+00	-2.10267000E-02	 0.00000000E+00
		 1.05352000E+00	-2.33805000E-02	 0.00000000E+00
		 1.05352000E+00	-2.33805000E-02	 0.00000000E+00
		 1.05309000E+00	-2.57954000E-02	 0.00000000E+00
		 1.05309000E+00	-2.57954000E-02	 0.00000000E+00
		 1.05255000E+00	-2.82932000E-02	 0.00000000E+00
		 1.05255000E+00	-2.82932000E-02	 0.00000000E+00
		 1.05189000E+00	-3.08698000E-02	 0.00000000E+00
		 1.05189000E+00	-3.08698000E-02	 0.00000000E+00
		 1.05109000E+00	-3.35375000E-02	 0.00000000E+00
		 1.05109000E+00	-3.35375000E-02	 0.00000000E+00
		 1.05012000E+00	-3.62979000E-02	 0.00000000E+00
		 1.05012000E+00	-3.62979000E-02	 0.00000000E+00
		 1.04895000E+00	-3.91584000E-02	 0.00000000E+00
		 1.04895000E+00	-3.91584000E-02	 0.00000000E+00
		 1.04756000E+00	-4.21220000E-02	 0.00000000E+00
		 1.04756000E+00	-4.21220000E-02	 0.00000000E+00
		 1.04590000E+00	-4.51929000E-02	 0.00000000E+00
		 1.04590000E+00	-4.51929000E-02	 0.00000000E+00
		 1.04394000E+00	-4.83730000E-02	 0.00000000E+00
		 1.04394000E+00	-4.83730000E-02	 0.00000000E+00
		 1.04162000E+00	-5.16631000E-02	 0.00000000E+00
		 1.04162000E+00	-5.16631000E-02	 0.00000000E+00
		 1.03889000E+00	-5.50618000E-02	 0.00000000E+00
		 1.03889000E+00	-5.50618000E-02	 0.00000000E+00
		 1.03569000E+00	-5.85645000E-02	 0.00000000E+00
		 1.03569000E+00	-5.85645000E-02	 0.00000000E+00
		 1.03195000E+00	-6.21640000E-02	 0.00000000E+00
		 1.03195000E+00	-6.21640000E-02	 0.00000000E+00
		 1.02758000E+00	-6.58456000E-02	 0.00000000E+00
		 1.02758000E+00	-6.58456000E-02	 0.00000000E+00
		 1.02247000E+00	-6.95922000E-02	 0.00000000E+00
		 1.02247000E+00	-6.95922000E-02	 0.00000000E+00
		 1.01652000E+00	-7.33692000E-02	 0.00000000E+00
		 1.01652000E+00	-7.33692000E-02	 0.00000000E+00
		 1.00957000E+00	-7.71417000E-02	 0.00000000E+00
		 1.00957000E+00	-7.71417000E-02	 0.00000000E+00
		 1.00145000E+00	-8.08341000E-02	 0.00000000E+00
		 1.00145000E+00	-8.08341000E-02	 0.00000000E+00
		 9.91953000E-01	-8.43777000E-02	 0.00000000E+00
		 9.91953000E-01	-8.43777000E-02	 0.00000000E+00
		 9.80811000E-01	-8.76049000E-02	 0.00000000E+00
		 9.80811000E-01	-8.76049000E-02	 0.00000000E+00
		 9.67700000E-01	-9.03739000E-02	 0.00000000E+00
		 9.67700000E-01	-9.03739000E-02	 0.00000000E+00
		 9.52194000E-01	-9.23066000E-02	 0.00000000E+00
		 9.52194000E-01	-9.23066000E-02	 0.00000000E+00
		 9.33802000E-01	-9.30491000E-02	 0.00000000E+00
		 9.33802000E-01	-9.30491000E-02	 0.00000000E+00
		 9.11802000E-01	-9.18053000E-02	 0.00000000E+00
		 9.11802000E-01	-9.18053000E-02	 0.00000000E+00
		 8.85636000E-01	-8.73080000E-02	 0.00000000E+00
		 8.85636000E-01	-8.73080000E-02	 0.00000000E+00
		 8.54299000E-01	-7.87637000E-02	 0.00000000E+00
		 8.54299000E-01	-7.87637000E-02	 0.00000000E+00
		 8.17673000E-01	-6.13658000E-02	 0.00000000E+00
		 8.17673000E-01	-6.13658000E-02	 0.00000000E+00
		 7.81275000E-01	-3.53493000E-02	 0.00000000E+00
		 7.81275000E-01	-3.53493000E-02	 0.00000000E+00
		 7.53401000E-01	 7.38371000E-03	 0.00000000E+00
		 7.53401000E-01	 7.38371000E-03	 0.00000000E+00
		 1.05200000E+00	 3.11762000E-07	 0.00000000E+00
		 1.05200000E+00	 3.11762000E-07	 0.00000000E+00
		 1.05206000E+00	-1.94310000E-03	 0.00000000E+00
		 1.05206000E+00	-1.94310000E-03	 0.00000000E+00
		 1.05205000E+00	-3.93518000E-03	 0.00000000E+00
		 1.05205000E+00	-3.93518000E-03	 0.00000000E+00
		 1.05199000E+00	-5.89041000E-03	 0.00000000E+00
		 1.05199000E+00	-5.89041000E-03	 0.00000000E+00
		 1.05193000E+00	-7.88197000E-03	 0.00000000E+00
		 1.05193000E+00	-7.88197000E-03	 0.00000000E+00
		 1.05182000E+00	-9.90301000E-03	 0.00000000E+00
		 1.05182000E+00	-9.90301000E-03	 0.00000000E+00
		 1.05168000E+00	-1.19294000E-02	 0.00000000E+00
		 1.05168000E+00	-1.19294000E-02	 0.00000000E+00
		 1.05150000E+00	-1.40151000E-02	 0.00000000E+00
		 1.05150000E+00	-1.40151000E-02	 0.00000000E+00
		 1.05128000E+00	-1.61131000E-02	 0.00000000E+00
		 1.05128000E+00	-1.61131000E-02	 0.00000000E+00
		 1.05099000E+00	-1.82765000E-02	 0.00000000E+00
		 1.05099000E+00	-1.82765000E-02	 0.00000000E+00
		 1.05064000E+00	-2.04709000E-02	 0.00000000E+00
		 1.05064000E+00	-2.04709000E-02	 0.00000000E+00
		 1.05020000E+00	-2.27318000E-02	 0.00000000E+00
		 1.05020000E+00	-2.27318000E-02	 0.00000000E+00
		 1.04966000E+00	-2.50416000E-02	 0.00000000E+00
		 1.04966000E+00	-2.50416000E-02	 0.00000000E+00
		 1.04902000E+00	-2.74206000E-02	 0.00000000E+00
		 1.04902000E+00	-2.74206000E-02	 0.00000000E+00
		 1.04824000E+00	-2.98622000E-02	 0.00000000E+00
		 1.04824000E+00	-2.98622000E-02	 0.00000000E+00
		 1.04731000E+00	-3.23769000E-02	 0.00000000E+00
		 1.04731000E+00	-3.23769000E-02	 0.00000000E+00
		 1.04620000E+00	-3.49634000E-02	 0.00000000E+00
		 1.04620000E+00	-3.49634000E-02	 0.00000000E+00
		 1.04489000E+00	-3.76263000E-02	 0.00000000E+00
		 1.04489000E+00	-3.76263000E-02	 0.00000000E+00
		 1.04335000E+00	-4.03653000E-02	 0.00000000E+00
		 1.04335000E+00	-4.03653000E-02	 0.00000000E+00
		 1.04153000E+00	-4.31806000E-02	 0.00000000E+00
		 1.04153000E+00	-4.31806000E-02	 0.00000000E+00
		 1.03941000E+00	-4.60698000E-02	 0.00000000E+00
		 1.03941000E+00	-4.60698000E-02	 0.00000000E+00
		 1.03694000E+00	-4.90284000E-02	 0.00000000E+00
		 1.03694000E+00	-4.90284000E-02	 0.00000000E+00
		 1.03406000E+00	-5.20492000E-02	 0.00000000E+00
		 1.03406000E+00	-5.20492000E-02	 0.00000000E+00
		 1.03072000E+00	-5.51204000E-02	 0.00000000E+00
		 1.03072000E+00	-5.51204000E-02	 0.00000000E+00
		 1.02684000E+00	-5.82267000E-02	 0.00000000E+00
		 1.02684000E+00	-5.82267000E-02	 0.00000000E+00
		 1.02236000E+00	-6.13435000E-02	 0.00000000E+00
		 1.02236000E+00	-6.13435000E-02	 0.00000000E+00
		 1.01718000E+00	-6.44422000E-02	 0.00000000E+00
		 1.01718000E+00	-6.44422000E-02	 0.00000000E+00
		 1.01120000E+00	-6.74745000E-02	 0.00000000E+00
		 1.01120000E+00	-6.74745000E-02	 0.00000000E+00
		 1.00429000E+00	-7.03891000E-02	 0.00000000E+00
		 1.00429000E+00	-7.03891000E-02	 0.00000000E+00
		 9.96318000E-01	-7.30912000E-02	 0.00000000E+00
		 9.96318000E-01	-7.30912000E-02	 0.00000000E+00
		 9.87113000E-01	-7.54894000E-02	 0.00000000E+00
		 9.87113000E-01	-7.54894000E-02	 0.00000000E+00
		 9.76476000E-01	-7.73944000E-02	 0.00000000E+00
		 9.76476000E-01	-7.73944000E-02	 0.00000000E+00
		 9.64184000E-01	-7.86361000E-02	 0.00000000E+00
		 9.64184000E-01	-7.86361000E-02	 0.00000000E+00
		 9.49960000E-01	-7.88430000E-02	 0.00000000E+00
		 9.49960000E-01	-7.88430000E-02	 0.00000000E+00
		 9.33562000E-01	-7.76478000E-02	 0.00000000E+00
		 9.33562000E-01	-7.76478000E-02	 0.00000000E+00
		 9.14637000E-01	-7.44624000E-02	 0.00000000E+00
		 9.14637000E-01	-7.44624000E-02	 0.00000000E+00
		 8.93130000E-01	-6.82663000E-02	 0.00000000E+00
		 8.93130000E-01	-6.82663000E-02	 0.00000000E+00
		 8.69123000E-01	-5.87962000E-02	 0.00000000E+00
		 8.69123000E-01	-5.87962000E-02	 0.00000000E+00
		 8.42200000E-01	-4.44947000E-02	 0.00000000E+00
		 8.42200000E-01	-4.44947000E-02	 0.00000000E+00
		 8.18106000E-01	-2.28383000E-02	 0.00000000E+00
		 8.18106000E-01	-2.28383000E-02	 0.00000000E+00
		 8.02541000E-01	 1.77854000E-03	 0.00000000E+00
		 8.02541000E-01	 1.77854000E-03	 0.00000000E+00
		 1.04927000E+00	 3.88310000E-07	 0.00000000E+00
		 1.04927000E+00	 3.88310000E-07	 0.00000000E+00
		 1.04934000E+00	-1.89159000E-03	 0.00000000E+00
		 1.04934000E+00	-1.89159000E-03	 0.00000000E+00
		 1.04931000E+00	-3.83860000E-03	 0.00000000E+00
		 1.04931000E+00	-3.83860000E-03	 0.00000000E+00
		 1.04923000E+00	-5.73760000E-03	 0.00000000E+00
		 1.04923000E+00	-5.73760000E-03	 0.00000000E+00
		 1.04914000E+00	-7.67902000E-03	 0.00000000E+00
		 1.04914000E+00	-7.67902000E-03	 0.00000000E+00
		 1.04900000E+00	-9.63943000E-03	 0.00000000E+00
		 1.04900000E+00	-9.63943000E-03	 0.00000000E+00
		 1.04882000E+00	-1.16059000E-02	 0.00000000E+00
		 1.04882000E+00	-1.16059000E-02	 0.00000000E+00
		 1.04860000E+00	-1.36230000E-02	 0.00000000E+00
		 1.04860000E+00	-1.36230000E-02	 0.00000000E+00
		 1.04831000E+00	-1.56478000E-02	 0.00000000E+00
		 1.04831000E+00	-1.56478000E-02	 0.00000000E+00
		 1.04796000E+00	-1.77294000E-02	 0.00000000E+00
		 1.04796000E+00	-1.77294000E-02	 0.00000000E+00
		 1.04754000E+00	-1.98334000E-02	 0.00000000E+00
		 1.04754000E+00	-1.98334000E-02	 0.00000000E+00
		 1.04702000E+00	-2.19934000E-02	 0.00000000E+00
		 1.04702000E+00	-2.19934000E-02	 0.00000000E+00
		 1.04640000E+00	-2.41906000E-02	 0.00000000E+00
		 1.04640000E+00	-2.41906000E-02	 0.00000000E+00
		 1.04566000E+00	-2.64434000E-02	 0.00000000E+00
		 1.04566000E+00	-2.64434000E-02	 0.00000000E+00
		 1.04479000E+00	-2.87433000E-02	 0.00000000E+00
		 1.04479000E+00	-2.87433000E-02	 0.00000000E+00
		 1.04376000E+00	-3.10988000E-02	 0.00000000E+00
		 1.04376000E+00	-3.10988000E-02	 0.00000000E+00
		 1.04255000E+00	-3.35062000E-02	 0.00000000E+00
		 1.04255000E+00	-3.35062000E-02	 0.00000000E+00
		 1.04113000E+00	-3.59676000E-02	 0.00000000E+00
		 1.04113000E+00	-3.59676000E-02	 0.00000000E+00
		 1.03948000E+00	-3.84795000E-02	 0.00000000E+00
		 1.03948000E+00	-3.84795000E-02	 0.00000000E+00
		 1.03756000E+00	-4.10389000E-02	 0.00000000E+00
		 1.03756000E+00	-4.10389000E-02	 0.00000000E+00
		 1.03534000E+00	-4.36396000E-02	 0.00000000E+00
		 1.03534000E+00	-4.36396000E-02	 0.00000000E+00
		 1.03277000E+00	-4.62728000E-02	 0.00000000E+00
		 1.03277000E+00	-4.62728000E-02	 0.00000000E+00
		 1.02981000E+00	-4.89265000E-02	 0.00000000E+00
		 1.02981000E+00	-4.89265000E-02	 0.00000000E+00
		 1.02640000E+00	-5.15834000E-02	 0.00000000E+00
		 1.02640000E+00	-5.15834000E-02	 0.00000000E+00
		 1.02249000E+00	-5.42221000E-02	 0.00000000E+00
		 1.02249000E+00	-5.42221000E-02	 0.00000000E+00
		 1.01801000E+00	-5.68111000E-02	 0.00000000E+00
		 1.01801000E+00	-5.68111000E-02	 0.00000000E+00
		 1.01288000E+00	-5.93141000E-02	 0.00000000E+00
		 1.01288000E+00	-5.93141000E-02	 0.00000000E+00
		 1.00701000E+00	-6.16748000E-02	 0.00000000E+00
		 1.00701000E+00	-6.16748000E-02	 0.00000000E+00
		 1.00032000E+00	-6.38336000E-02	 0.00000000E+00
		 1.00032000E+00	-6.38336000E-02	 0.00000000E+00
		 9.92694000E-01	-6.56883000E-02	 0.00000000E+00
		 9.92694000E-01	-6.56883000E-02	 0.00000000E+00
		 9.84007000E-01	-6.71421000E-02	 0.00000000E+00
		 9.84007000E-01	-6.71421000E-02	 0.00000000E+00
		 9.74125000E-01	-6.80099000E-02	 0.00000000E+00
		 9.74125000E-01	-6.80099000E-02	 0.00000000E+00
		 9.62918000E-01	-6.81303000E-02	 0.00000000E+00
		 9.62918000E-01	-6.81303000E-02	 0.00000000E+00
		 9.50227000E-01	-6.71910000E-02	 0.00000000E+00
		 9.50227000E-01	-6.71910000E-02	 0.00000000E+00
		 9.35968000E-01	-6.48873000E-02	 0.00000000E+00
		 9.35968000E-01	-6.48873000E-02	 0.00000000E+00
		 9.20007000E-01	-6.08427000E-02	 0.00000000E+00