<?xml version="1.0"?>
<VTKFile type="UnstructuredGrid" version="0.1" byte_order="LittleEndian">
	<UnstructuredGrid>
		<Piece NumberOfPoints="682" NumberOfCells="300">
			<Points>
				<DataArray type="Float64" NumberOfComponents="3" format="ascii">
					 2.00000000E+00	 1.00000000E+00	 0.00000000E+00
					 2.10000000E+00	 1.00000000E+00	 0.00000000E+00
					 2.10000000E+00	 1.00000000E+00	 1.00000000E-01
					 2.00000000E+00	 1.00000000E+00	 1.00000000E-01
					 2.00000000E+00	 9.00000000E-01	 0.00000000E+00
					 2.10000000E+00	 9.00000000E-01	-1.38778000E-17
					 2.10000000E+00	 9.00000000E-01	 1.00000000E-01
					 2.00000000E+00	 9.00000000E-01	 1.00000000E-01
					 2.00000000E+00	 8.00000000E-01	 0.00000000E+00
					 2.10000000E+00	 8.00000000E-01	-6.93889000E-18
					 2.10000000E+00	 8.00000000E-01	 1.00000000E-01
					 2.00000000E+00	 8.00000000E-01	 1.00000000E-01
					 2.00000000E+00	 7.00000000E-01	 0.00000000E+00
					 2.10000000E+00	 7.00000000E-01	 6.93889000E-18
					 2.10000000E+00	 7.00000000E-01	 1.00000000E-01
					 2.00000000E+00	 7.00000000E-01	 1.00000000E-01
					 2.00000000E+00	 6.00000000E-01	 0.00000000E+00
					 2.10000000E+00	 6.00000000E-01	 0.00000000E+00
					 2.10000000E+00	 6.00000000E-01	 1.00000000E-01
					 2.00000000E+00	 6.00000000E-01	 1.00000000E-01
					 2.00000000E+00	 5.00000000E-01	 0.00000000E+00
					 2.10000000E+00	 5.00000000E-01	 0.00000000E+00
					 2.10000000E+00	 5.00000000E-01	 1.00000000E-01
					 2.00000000E+00	 5.00000000E-01	 1.00000000E-01
					 2.00000000E+00	 4.00000000E-01	 0.00000000E+00
					 2.10000000E+00	 4.00000000E-01	-6.93889000E-18
					 2.10000000E+00	 4.00000000E-01	 1.00000000E-01
					 2.00000000E+00	 4.00000000E-01	 1.00000000E-01
					 2.00000000E+00	 3.00000000E-01	 0.00000000E+00
					 2.10000000E+00	 3.00000000E-01	 2.08167000E-17
					 2.10000000E+00	 3.00000000E-01	 1.00000000E-01
					 2.00000000E+00	 3.00000000E-01	 1.00000000E-01
					 2.00000000E+00	 2.00000000E-01	 0.00000000E+00
					 2.10000000E+00	 2.00000000E-01	-6.93889000E-18
					 2.10000000E+00	 2.00000000E-01	 1.00000000E-01
					 2.00000000E+00	 2.00000000E-01	 1.00000000E-01
					 2.00000000E+00	 1.00000000E-01	 0.00000000E+00
					 2.10000000E+00	 1.00000000E-01	-6.93889000E-18
					 2.10000000E+00	 1.00000000E-01	 1.00000000E-01
					 2.00000000E+00	 1.00000000E-01	 1.00000000E-01
					 2.00000000E+00	 0.00000000E+00	 0.00000000E+00
					 2.10000000E+00	 0.00000000E+00	 0.00000000E+00
					 2.10000000E+00	 0.00000000E+00	 1.00000000E-01
					 2.00000000E+00	 0.00000000E+00	 1.00000000E-01
					 2.20000000E+00	 1.00000000E+00	 0.00000000E+00
					 2.20000000E+00	 1.00000000E+00	 1.00000000E-01
					 2.20000000E+00	 9.00000000E-01	 6.93889000E-18
					 2.20000000E+00	 9.00000000E-01	 1.00000000E-01
					 2.20000000E+00	 8.00000000E-01	 1.38778000E-17
					 2.20000000E+00	 8.00000000E-01	 1.00000000E-01
					 2.20000000E+00	 7.00000000E-01	-6.93889000E-18
					 2.20000000E+00	 7.00000000E-01	 1.00000000E-01
					 2.20000000E+00	 6.00000000E-01	 6.93889000E-18
					 2.20000000E+00	 6.00000000E-01	 1.00000000E-01
					 2.20000000E+00	 5.00000000E-01	-1.38778000E-17
					 2.20000000E+00	 5.00000000E-01	 1.00000000E-01
					 2.20000000E+00	 4.00000000E-01	-2.08167000E-17
					 2.20000000E+00	 4.00000000E-01	 1.00000000E-01
					 2.20000000E+00	 3.00000000E-01	 1.38778000E-17
					 2.20000000E+00	 3.00000000E-01	 1.00000000E-01
					 2.20000000E+00	 2.00000000E-01	-6.93889000E-18
					 2.20000000E+00	 2.00000000E-01	 1.00000000E-01
					 2.20000000E+00	 1.00000000E-01	 0.00000000E+00
					 2.20000000E+00	 1.00000000E-01	 1.00000000E-01
					 2.20000000E+00	 0.00000000E+00	 0.00000000E+00
					 2.20000000E+00	 0.00000000E+00	 1.00000000E-01
					 2.30000000E+00	 1.00000000E+00	 0.00000000E+00
					 2.30000000E+00	 1.00000000E+00	 1.00000000E-01
					 2.30000000E+00	 9.00000000E-01	 0.00000000E+00
					 2.30000000E+00	 9.00000000E-01	 1.00000000E-01
					 2.30000000E+00	 8.00000000E-01	-2.08167000E-17
					 2.30000000E+00	 8.00000000E-01	 1.00000000E-01
					 2.30000000E+00	 7.00000000E-01	-2.08167000E-17
					 2.30000000E+00	 7.00000000E-01	 1.00000000E-01
					 2.30000000E+00	 6.00000000E-01	-6.93889000E-18
					 2.30000000E+00	 6.00000000E-01	 1.00000000E-01
					 2.30000000E+00	 5.00000000E-01	-6.93889000E-18
					 2.30000000E+00	 5.00000000E-01	 1.00000000E-01
					 2.30000000E+00	 4.00000000E-01	-6.93889000E-18
					 2.30000000E+00	 4.00000000E-01	 1.00000000E-01
					 2.30000000E+00	 3.00000000E-01	 0.00000000E+00
					 2.30000000E+00	 3.00000000E-01	 1.00000000E-01
					 2.30000000E+00	 2.00000000E-01	-6.93889000E-18
					 2.30000000E+00	 2.00000000E-01	 1.00000000E-01
					 2.30000000E+00	 1.00000000E-01	 6.93889000E-18
					 2.30000000E+00	 1.00000000E-01	 1.00000000E-01
					 2.30000000E+00	 0.00000000E+00	 0.00000000E+00
					 2.30000000E+00	 0.00000000E+00	 1.00000000E-01
					 2.40000000E+00	 1.00000000E+00	 0.00000000E+00
					 2.40000000E+00	 1.00000000E+00	 1.00000000E-01
					 2.40000000E+00	 9.00000000E-01	 0.00000000E+00
					 2.40000000E+00	 9.00000000E-01	 1.00000000E-01
					 2.40000000E+00	 8.00000000E-01	 6.93889000E-18
					 2.40000000E+00	 8.00000000E-01	 1.00000000E-01
					 2.40000000E+00	 7.00000000E-01	-1.38778000E-17
					 2.40000000E+00	 7.00000000E-01	 1.00000000E-01
					 2.40000000E+00	 6.00000000E-01	 6.93889000E-18
					 2.40000000E+00	 6.00000000E-01	 1.00000000E-01
					 2.40000000E+00	 5.00000000E-01	-6.93889000E-18
					 2.40000000E+00	 5.00000000E-01	 1.00000000E-01
					 2.40000000E+00	 4.00000000E-01	-1.38778000E-17
					 2.40000000E+00	 4.00000000E-01	 1.00000000E-01
					 2.40000000E+00	 3.00000000E-01	 2.08167000E-17
					 2.40000000E+00	 3.00000000E-01	 1.00000000E-01
					 2.40000000E+00	 2.00000000E-01	-6.93889000E-18
					 2.40000000E+00	 2.00000000E-01	 1.00000000E-01
					 2.40000000E+00	 1.00000000E-01	-1.38778000E-17
					 2.40000000E+00	 1.00000000E-01	 1.00000000E-01
					 2.40000000E+00	 0.00000000E+00	 0.00000000E+00
					 2.40000000E+00	 0.00000000E+00	 1.00000000E-01
					 2.50000000E+00	 1.00000000E+00	 0.00000000E+00
					 2.50000000E+00	 1.00000000E+00	 1.00000000E-01
					 2.50000000E+00	 9.00000000E-01	-1.38778000E-17
					 2.50000000E+00	 9.00000000E-01	 1.00000000E-01
					 2.50000000E+00	 8.00000000E-01	 6.93889000E-18
					 2.50000000E+00	 8.00000000E-01	 1.00000000E-01
					 2.50000000E+00	 7.00000000E-01	-6.93889000E-18
					 2.50000000E+00	 7.00000000E-01	 1.00000000E-01
					 2.50000000E+00	 6.00000000E-01	 6.93889000E-18
					 2.50000000E+00	 6.00000000E-01	 1.00000000E-01
					 2.50000000E+00	 5.00000000E-01	 0.00000000E+00
					 2.50000000E+00	 5.00000000E-01	 1.00000000E-01
					 2.50000000E+00	 4.00000000E-01	 0.00000000E+00
					 2.50000000E+00	 4.00000000E-01	 1.00000000E-01
					 2.50000000E+00	 3.00000000E-01	 6.93889000E-18
					 2.50000000E+00	 3.00000000E-01	 1.00000000E-01
					 2.50000000E+00	 2.00000000E-01	 6.93889000E-18
					 2.50000000E+00	 2.00000000E-01	 1.00000000E-01
					 2.50000000E+00	 1.00000000E-01	-6.93889000E-18
					 2.50000000E+00	 1.00000000E-01	 1.00000000E-01
					 2.50000000E+00	 0.00000000E+00	 0.00000000E+00
					 2.50000000E+00	 0.00000000E+00	 1.00000000E-01
					 2.60000000E+00	 1.00000000E+00	 0.00000000E+00
					 2.60000000E+00	 1.00000000E+00	 1.00000000E-01
					 2.60000000E+00	 9.00000000E-01	-1.38778000E-17
					 2.60000000E+00	 9.00000000E-01	 1.00000000E-01
					 2.60000000E+00	 8.00000000E-01	-6.93889000E-18
					 2.60000000E+00	 8.00000000E-01	 1.00000000E-01
					 2.60000000E+00	 7.00000000E-01	-1.38778000E-17
					 2.60000000E+00	 7.00000000E-01	 1.00000000E-01
					 2.60000000E+00	 6.00000000E-01	-1.38778000E-17
					 2.60000000E+00	 6.00000000E-01	 1.00000000E-01
					 2.60000000E+00	 5.00000000E-01	-6.93889000E-18
					 2.60000000E+00	 5.00000000E-01	 1.00000000E-01
					 2.60000000E+00	 4.00000000E-01	-6.93889000E-18
					 2.60000000E+00	 4.00000000E-01	 1.00000000E-01
					 2.60000000E+00	 3.00000000E-01	 2.08167000E-17
					 2.60000000E+00	 3.00000000E-01	 1.00000000E-01
					 2.60000000E+00	 2.00000000E-01	-6.93889000E-18
					 2.60000000E+00	 2.00000000E-01	 1.00000000E-01
					 2.60000000E+00	 1.00000000E-01	-2.77556000E-17
					 2.60000000E+00	 1.00000000E-01	 1.00000000E-01
					 2.60000000E+00	 0.00000000E+00	 0.00000000E+00
					 2.60000000E+00	 0.00000000E+00	 1.00000000E-01
					 2.70000000E+00	 1.00000000E+00	 0.00000000E+00
					 2.70000000E+00	 1.00000000E+00	 1.00000000E-01
					 2.70000000E+00	 9.00000000E-01	 6.93889000E-18
					 2.70000000E+00	 9.00000000E-01	 1.00000000E-01
					 2.70000000E+00	 8.00000000E-01	 0.00000000E+00
					 2.70000000E+00	 8.00000000E-01	 1.00000000E-01
					 2.70000000E+00	 7.00000000E-01	 0.00000000E+00
					 2.70000000E+00	 7.00000000E-01	 1.00000000E-01
					 2.70000000E+00	 6.00000000E-01	 2.08167000E-17
					 2.70000000E+00	 6.00000000E-01	 1.00000000E-01
					 2.70000000E+00	 5.00000000E-01	-6.93889000E-18
					 2.70000000E+00	 5.00000000E-01	 1.00000000E-01
					 2.70000000E+00	 4.00000000E-01	-1.38778000E-17
					 2.70000000E+00	 4.00000000E-01	 1.00000000E-01
					 2.70000000E+00	 3.00000000E-01	 1.38778000E-17
					 2.70000000E+00	 3.00000000E-01	 1.00000000E-01
					 2.70000000E+00	 2.00000000E-01	-6.93889000E-18
					 2.70000000E+00	 2.00000000E-01	 1.00000000E-01
					 2.70000000E+00	 1.00000000E-01	 2.08167000E-17
					 2.70000000E+00	 1.00000000E-01	 1.00000000E-01
					 2.70000000E+00	 0.00000000E+00	 0.00000000E+00
					 2.70000000E+00	 0.00000000E+00	 1.00000000E-01
					 2.80000000E+00	 1.00000000E+00	 0.00000000E+00
					 2.80000000E+00	 1.00000000E+00	 1.00000000E-01
					 2.80000000E+00	 9.00000000E-01	 6.93889000E-18
					 2.80000000E+00	 9.00000000E-01	 1.00000000E-01
					 2.80000000E+00	 8.00000000E-01	 6.93889000E-18
					 2.80000000E+00	 8.00000000E-01	 1.00000000E-01
					 2.80000000E+00	 7.00000000E-01	-1.38778000E-17
					 2.80000000E+00	 7.00000000E-01	 1.00000000E-01
[...]
			<PointData>
				<DataArray type="Float32" Name="V3DF" NumberOfComponents="3" ComponentName0="V1" ComponentName1="V2" ComponentName2="V3" format="ascii">
					 1.63902000E+00	-2.35364000E-03	 0.00000000E+00
					 1.69899000E+00	-2.74076000E-03	 0.00000000E+00
					 1.69899000E+00	-2.74076000E-03	 0.00000000E+00
					 1.63902000E+00	-2.35364000E-03	 0.00000000E+00
					 1.64156000E+00	-2.89818000E-02	 0.00000000E+00
					 1.70123000E+00	-3.60957000E-02	 0.00000000E+00
					 1.70123000E+00	-3.60957000E-02	 0.00000000E+00
					 1.64156000E+00	-2.89818000E-02	 0.00000000E+00
					 1.65167000E+00	-5.37864000E-02	 0.00000000E+00
					 1.71068000E+00	-6.76847000E-02	 0.00000000E+00
					 1.71068000E+00	-6.76847000E-02	 0.00000000E+00
					 1.65167000E+00	-5.37864000E-02	 0.00000000E+00
					 1.67184000E+00	-8.78958000E-02	 0.00000000E+00
					 1.72954000E+00	-1.10072000E-01	 0.00000000E+00
					 1.72954000E+00	-1.10072000E-01	 0.00000000E+00
					 1.67184000E+00	-8.78958000E-02	 0.00000000E+00
					 1.69915000E+00	-1.24837000E-01	 0.00000000E+00
					 1.75501000E+00	-1.53892000E-01	 0.00000000E+00
					 1.75501000E+00	-1.53892000E-01	 0.00000000E+00
					 1.69915000E+00	-1.24837000E-01	 0.00000000E+00
					 1.73602000E+00	-1.70555000E-01	 0.00000000E+00
					 1.78853000E+00	-2.12312000E-01	 0.00000000E+00
					 1.78853000E+00	-2.12312000E-01	 0.00000000E+00
					 1.73602000E+00	-1.70555000E-01	 0.00000000E+00
					 1.78700000E+00	-2.35736000E-01	 0.00000000E+00
					 1.83171000E+00	-2.82556000E-01	 0.00000000E+00
					 1.83171000E+00	-2.82556000E-01	 0.00000000E+00
					 1.78700000E+00	-2.35736000E-01	 0.00000000E+00
					 1.84842000E+00	-3.15807000E-01	 0.00000000E+00
					 1.85979000E+00	-3.62408000E-01	 0.00000000E+00
					 1.85979000E+00	-3.62408000E-01	 0.00000000E+00
					 1.84842000E+00	-3.15807000E-01	 0.00000000E+00
					 1.89668000E+00	-4.05019000E-01	 0.00000000E+00
					 1.84752000E+00	-3.62116000E-01	 0.00000000E+00
					 1.84752000E+00	-3.62116000E-01	 0.00000000E+00
					 1.89668000E+00	-4.05019000E-01	 0.00000000E+00
					 1.79262000E+00	-5.50894000E-01	 0.00000000E+00
					 1.60365000E+00	-3.08163000E-01	 0.00000000E+00
					 1.60365000E+00	-3.08163000E-01	 0.00000000E+00
					 1.79262000E+00	-5.50894000E-01	 0.00000000E+00
					 1.55897000E+00	-4.43626000E-01	 0.00000000E+00
					 1.19228000E+00	-3.53985000E-02	 0.00000000E+00
					 1.19228000E+00	-3.53985000E-02	 0.00000000E+00
					 1.55897000E+00	-4.43626000E-01	 0.00000000E+00
					 1.75635000E+00	-2.97385000E-03	 0.00000000E+00
					 1.75635000E+00	-2.97385000E-03	 0.00000000E+00
					 1.75838000E+00	-4.30816000E-02	 0.00000000E+00
					 1.75838000E+00	-4.30816000E-02	 0.00000000E+00
					 1.76725000E+00	-8.12274000E-02	 0.00000000E+00
					 1.76725000E+00	-8.12274000E-02	 0.00000000E+00
					 1.78518000E+00	-1.30872000E-01	 0.00000000E+00
					 1.78518000E+00	-1.30872000E-01	 0.00000000E+00
					 1.80865000E+00	-1.83776000E-01	 0.00000000E+00
					 1.80865000E+00	-1.83776000E-01	 0.00000000E+00
					 1.83512000E+00	-2.46505000E-01	 0.00000000E+00
					 1.83512000E+00	-2.46505000E-01	 0.00000000E+00
					 1.85246000E+00	-3.04153000E-01	 0.00000000E+00
					 1.85246000E+00	-3.04153000E-01	 0.00000000E+00
					 1.82714000E+00	-3.21980000E-01	 0.00000000E+00
					 1.82714000E+00	-3.21980000E-01	 0.00000000E+00
					 1.66923000E+00	-2.01216000E-01	 0.00000000E+00
					 1.66923000E+00	-2.01216000E-01	 0.00000000E+00
					 1.41158000E+00	 3.55291000E-02	 0.00000000E+00
					 1.41158000E+00	 3.55291000E-02	 0.00000000E+00
					 1.15966000E+00	 9.65057000E-02	 0.00000000E+00
					 1.15966000E+00	 9.65057000E-02	 0.00000000E+00
					 1.81099000E+00	-3.37892000E-03	 0.00000000E+00
					 1.81099000E+00	-3.37892000E-03	 0.00000000E+00
					 1.81286000E+00	-4.93674000E-02	 0.00000000E+00
					 1.81286000E+00	-4.93674000E-02	 0.00000000E+00
					 1.82117000E+00	-9.41619000E-02	 0.00000000E+00
					 1.82117000E+00	-9.41619000E-02	 0.00000000E+00
					 1.83671000E+00	-1.50821000E-01	 0.00000000E+00
					 1.83671000E+00	-1.50821000E-01	 0.00000000E+00
					 1.85457000E+00	-2.05987000E-01	 0.00000000E+00
					 1.85457000E+00	-2.05987000E-01	 0.00000000E+00
					 1.86272000E+00	-2.55785000E-01	 0.00000000E+00
					 1.86272000E+00	-2.55785000E-01	 0.00000000E+00
					 1.83839000E+00	-2.61448000E-01	 0.00000000E+00
					 1.83839000E+00	-2.61448000E-01	 0.00000000E+00
					 1.71425000E+00	-1.85345000E-01	 0.00000000E+00
					 1.71425000E+00	-1.85345000E-01	 0.00000000E+00
					 1.49889000E+00	-3.72339000E-02	 0.00000000E+00
					 1.49889000E+00	-3.72339000E-02	 0.00000000E+00
					 1.37258000E+00	 9.69235000E-02	 0.00000000E+00
					 1.37258000E+00	 9.69235000E-02	 0.00000000E+00
					 1.32671000E+00	 4.63263000E-02	 0.00000000E+00
					 1.32671000E+00	 4.63263000E-02	 0.00000000E+00
					 1.86381000E+00	-3.76107000E-03	 0.00000000E+00
					 1.86381000E+00	-3.76107000E-03	 0.00000000E+00
					 1.86465000E+00	-5.55396000E-02	 0.00000000E+00
					 1.86465000E+00	-5.55396000E-02	 0.00000000E+00
					 1.87070000E+00	-1.05198000E-01	 0.00000000E+00
					 1.87070000E+00	-1.05198000E-01	 0.00000000E+00
					 1.88241000E+00	-1.63844000E-01	 0.00000000E+00
					 1.88241000E+00	-1.63844000E-01	 0.00000000E+00
					 1.88339000E+00	-2.07627000E-01	 0.00000000E+00
					 1.88339000E+00	-2.07627000E-01	 0.00000000E+00
					 1.85222000E+00	-2.22830000E-01	 0.00000000E+00
					 1.85222000E+00	-2.22830000E-01	 0.00000000E+00
					 1.75388000E+00	-1.56496000E-01	 0.00000000E+00
					 1.75388000E+00	-1.56496000E-01	 0.00000000E+00
					 1.59781000E+00	-2.57060000E-02	 0.00000000E+00
					 1.59781000E+00	-2.57060000E-02	 0.00000000E+00
					 1.48199000E+00	 4.17248000E-02	 0.00000000E+00
					 1.48199000E+00	 4.17248000E-02	 0.00000000E+00
					 1.43151000E+00	 3.08505000E-02	 0.00000000E+00
					 1.43151000E+00	 3.08505000E-02	 0.00000000E+00
					 1.38755000E+00	-2.93864000E-03	 0.00000000E+00
					 1.38755000E+00	-2.93864000E-03	 0.00000000E+00
					 1.91119000E+00	-3.88078000E-03	 0.00000000E+00
					 1.91119000E+00	-3.88078000E-03	 0.00000000E+00
					 1.91115000E+00	-5.88849000E-02	 0.00000000E+00
					 1.91115000E+00	-5.88849000E-02	 0.00000000E+00
					 1.91652000E+00	-1.09387000E-01	 0.00000000E+00
					 1.91652000E+00	-1.09387000E-01	 0.00000000E+00
					 1.91401000E+00	-1.58587000E-01	 0.00000000E+00
					 1.91401000E+00	-1.58587000E-01	 0.00000000E+00
					 1.88404000E+00	-1.74792000E-01	 0.00000000E+00
					 1.88404000E+00	-1.74792000E-01	 0.00000000E+00
					 1.79623000E+00	-1.28747000E-01	 0.00000000E+00
					 1.79623000E+00	-1.28747000E-01	 0.00000000E+00
					 1.65685000E+00	-1.96135000E-02	 0.00000000E+00
					 1.65685000E+00	-1.96135000E-02	 0.00000000E+00
					 1.57043000E+00	 6.80371000E-02	 0.00000000E+00
					 1.57043000E+00	 6.80371000E-02	 0.00000000E+00
					 1.54215000E+00	 5.15498000E-02	 0.00000000E+00
					 1.54215000E+00	 5.15498000E-02	 0.00000000E+00
					 1.48713000E+00	-2.05393000E-02	 0.00000000E+00
					 1.48713000E+00	-2.05393000E-02	 0.00000000E+00
					 1.41155000E+00	-2.36577000E-02	 0.00000000E+00
					 1.41155000E+00	-2.36577000E-02	 0.00000000E+00
					 1.96638000E+00	-4.49164000E-03	 0.00000000E+00
					 1.96638000E+00	-4.49164000E-03	 0.00000000E+00
					 1.96006000E+00	-5.81717000E-02	 0.00000000E+00
					 1.96006000E+00	-5.81717000E-02	 0.00000000E+00
					 1.94712000E+00	-1.06799000E-01	 0.00000000E+00
					 1.94712000E+00	-1.06799000E-01	 0.00000000E+00
					 1.90536000E+00	-1.29194000E-01	 0.00000000E+00
					 1.90536000E+00	-1.29194000E-01	 0.00000000E+00
					 1.82605000E+00	-8.91324000E-02	 0.00000000E+00
					 1.82605000E+00	-8.91324000E-02	 0.00000000E+00
					 1.71154000E+00	-5.41669000E-03	 0.00000000E+00
					 1.71154000E+00	-5.41669000E-03	 0.00000000E+00
					 1.61263000E+00	 7.27192000E-02	 0.00000000E+00
					 1.61263000E+00	 7.27192000E-02	 0.00000000E+00
					 1.58560000E+00	 7.78898000E-02	 0.00000000E+00
					 1.58560000E+00	 7.78898000E-02	 0.00000000E+00
					 1.59126000E+00	 2.55411000E-02	 0.00000000E+00
					 1.59126000E+00	 2.55411000E-02	 0.00000000E+00
					 1.53186000E+00	-1.63262000E-02	 0.00000000E+00
					 1.53186000E+00	-1.63262000E-02	 0.00000000E+00
					 1.42371000E+00	-8.00233000E-03	 0.00000000E+00
					 1.42371000E+00	-8.00233000E-03	 0.00000000E+00
					 1.99473000E+00	-1.71997000E-03	 0.00000000E+00
					 1.99473000E+00	-1.71997000E-03	 0.00000000E+00
					 1.98343000E+00	-3.47600000E-02	 0.00000000E+00
					 1.98343000E+00	-3.47600000E-02	 0.00000000E+00
					 1.95582000E+00	-5.97925000E-02	 0.00000000E+00
					 1.95582000E+00	-5.97925000E-02	 0.00000000E+00
					 1.88933000E+00	-4.60613000E-02	 0.00000000E+00
					 1.88933000E+00	-4.60613000E-02	 0.00000000E+00
					 1.77658000E+00	 2.23587000E-02	 0.00000000E+00
					 1.77658000E+00	 2.23587000E-02	 0.00000000E+00
					 1.67861000E+00	 9.02072000E-02	 0.00000000E+00
					 1.67861000E+00	 9.02072000E-02	 0.00000000E+00
					 1.65151000E+00	 9.39542000E-02	 0.00000000E+00
					 1.65151000E+00	 9.39542000E-02	 0.00000000E+00
					 1.66075000E+00	 4.95893000E-02	 0.00000000E+00
					 1.66075000E+00	 4.95893000E-02	 0.00000000E+00
					 1.65915000E+00	 1.28286000E-02	 0.00000000E+00
					 1.65915000E+00	 1.28286000E-02	 0.00000000E+00
					 1.59251000E+00	 1.69287000E-03	 0.00000000E+00
					 1.59251000E+00	 1.69287000E-03	 0.00000000E+00
					 1.48869000E+00	 2.30126000E-03	 0.00000000E+00
					 1.48869000E+00	 2.30126000E-03	 0.00000000E+00
					 2.00087000E+00	-7.15052000E-03	 0.00000000E+00
					 2.00087000E+00	-7.15052000E-03	 0.00000000E+00
					 1.98260000E+00	-1.88553000E-02	 0.00000000E+00
					 1.98260000E+00	-1.88553000E-02	 0.00000000E+00
					 1.91157000E+00	-1.38530000E-02	 0.00000000E+00
					 1.91157000E+00	-1.38530000E-02	 0.00000000E+00
					 1.80142000E+00	 4.39229000E-02	 0.00000000E+00
					 1.80142000E+00	 4.39229000E-02	 0.00000000E+00
					 1.71962000E+00	 1.14999000E-01	 0.00000000E+00
					 1.71962000E+00	 1.14999000E-01	 0.00000000E+00
					 1.67694000E+00	 1.33622000E-01	 0.00000000E+00
					 1.67694000E+00	 1.33622000E-01	 0.00000000E+00
					 1.68432000E+00	 8.76111000E-02	 0.00000000E+00
					 1.68432000E+00	 8.76111000E-02	 0.00000000E+00
					 1.70158000E+00	 3.16095000E-02	 0.00000000E+00
					 1.70158000E+00	 3.16095000E-02	 0.00000000E+00
					 1.68458000E+00	 9.88522000E-03	 0.00000000E+00
					 1.68458000E+00	 9.88522000E-03	 0.00000000E+00
					 1.61664000E+00	 1.41752000E-02	 0.00000000E+00
					 1.61664000E+00	 1.41752000E-02	 0.00000000E+00
					 1.52895000E+00	 7.60768000E-03	 0.00000000E+00
					 1.52895000E+00	 7.60768000E-03	 0.00000000E+00
					 1.91129000E+00	 9.97609000E-03	 0.00000000E+00
					 1.91129000E+00	 9.97609000E-03	 0.00000000E+00
					 1.90330000E+00	 6.71929000E-02	 0.00000000E+00
					 1.90330000E+00	 6.71929000E-02	 0.00000000E+00
					 1.85368000E+00	 9.77470000E-02	 0.00000000E+00
					 1.85368000E+00	 9.77470000E-02	 0.00000000E+00
					 1.78552000E+00	 1.48590000E-01	 0.00000000E+00
					 1.78552000E+00	 1.48590000E-01	 0.00000000E+00
					 1.76546000E+00	 1.58126000E-01	 0.00000000E+00
					 1.76546000E+00	 1.58126000E-01	 0.00000000E+00
					 1.76631000E+00	 1.20263000E-01	 0.00000000E+00
					 1.76631000E+00	 1.20263000E-01	 0.00000000E+00
					 1.77159000E+00	 7.17680000E-02	 0.00000000E+00
					 1.77159000E+00	 7.17680000E-02	 0.00000000E+00
					 1.77378000E+00	 3.99459000E-02	 0.00000000E+00
					 1.77378000E+00	 3.99459000E-02	 0.00000000E+00
					 1.75506000E+00	 2.05057000E-02	 0.00000000E+00
					 1.75506000E+00	 2.05057000E-02	 0.00000000E+00
					 1.69609000E+00	 8.47475000E-03	 0.00000000E+00
					 1.69609000E+00	 8.47475000E-03	 0.00000000E+00
					 1.61719000E+00	 5.36699000E-05	 0.00000000E+00
					 1.61719000E+00	 5.36699000E-05	 0.00000000E+00
					 1.84429000E+00	 9.14979000E-02	 0.00000000E+00
					 1.84429000E+00	 9.14979000E-02	 0.00000000E+00
					 1.84601000E+00	 1.15461000E-01	 0.00000000E+00
					 1.84601000E+00	 1.15461000E-01	 0.00000000E+00
					 1.84593000E+00	 1.65331000E-01	 0.00000000E+00
					 1.84593000E+00	 1.65331000E-01	 0.00000000E+00
					 1.84200000E+00	 1.85261000E-01	 0.00000000E+00
					 1.84200000E+00	 1.85261000E-01	 0.00000000E+00
					 1.83869000E+00	 1.53435000E-01	 0.00000000E+00
					 1.83869000E+00	 1.53435000E-01	 0.00000000E+00
					 1.83827000E+00	 1.05545000E-01	 0.00000000E+00
					 1.83827000E+00	 1.05545000E-01	 0.00000000E+00
					 1.83858000E+00	 7.06987000E-02	 0.00000000E+00
					 1.83858000E+00	 7.06987000E-02	 0.00000000E+00
					 1.83330000E+00	 4.83943000E-02	 0.00000000E+00
					 1.83330000E+00	 4.83943000E-02	 0.00000000E+00
					 1.81321000E+00	 2.57530000E-02	 0.00000000E+00
					 1.81321000E+00	 2.57530000E-02	 0.00000000E+00
					 1.76312000E+00	 6.04124000E-03	 0.00000000E+00
					 1.76312000E+00	 6.04124000E-03	 0.00000000E+00
					 1.72828000E+00	-5.27129000E-04	 0.00000000E+00
					 1.72828000E+00	-5.27129000E-04	 0.00000000E+00
					 1.07606000E+00	 7.55369000E-04	 0.00000000E+00
					 1.10628000E+00	 8.84957000E-04	 0.00000000E+00
					 1.10628000E+00	 8.84957000E-04	 0.00000000E+00
					 1.07606000E+00	 7.55369000E-04	 0.00000000E+00
					 1.07512000E+00	 1.37536000E-02	 0.00000000E+00
					 1.10542000E+00	 1.60911000E-02	 0.00000000E+00
					 1.10542000E+00	 1.60911000E-02	 0.00000000E+00
					 1.07512000E+00	 1.37536000E-02	 0.00000000E+00
					 1.07195000E+00	 2.61060000E-02	 0.00000000E+00
					 1.10272000E+00	 3.09649000E-02	 0.00000000E+00
					 1.10272000E+00	 3.09649000E-02	 0.00000000E+00
					 1.07195000E+00	 2.61060000E-02	 0.00000000E+00
					 1.06550000E+00	 4.02788000E-02	 0.00000000E+00
					 1.09738000E+00	 4.84205000E-02	 0.00000000E+00
					 1.09738000E+00	 4.84205000E-02	 0.00000000E+00
					 1.06550000E+00	 4.02788000E-02	 0.00000000E+00
					 1.05585000E+00	 5.34301000E-02	 0.00000000E+00
					 1.08924000E+00	 6.57859000E-02	 0.00000000E+00
					 1.08924000E+00	 6.57859000E-02	 0.00000000E+00
					 1.05585000E+00	 5.34301000E-02	 0.00000000E+00
					 1.04144000E+00	 6.78189000E-02	 0.00000000E+00
					 1.07644000E+00	 8.61872000E-02	 0.00000000E+00
					 1.07644000E+00	 8.61872000E-02	 0.00000000E+00
					 1.04144000E+00	 6.78189000E-02	 0.00000000E+00
					 1.02028000E+00	 8.04052000E-02	 0.00000000E+00
					 1.05755000E+00	 1.09233000E-01	 0.00000000E+00
					 1.05755000E+00	 1.09233000E-01	 0.00000000E+00
					 1.02028000E+00	 8.04052000E-02	 0.00000000E+00
					 9.88791000E-01	 9.17718000E-02	 0.00000000E+00
					 1.02626000E+00	 1.35132000E-01	 0.00000000E+00
					 1.02626000E+00	 1.35132000E-01	 0.00000000E+00
					 9.88791000E-01	 9.17718000E-02	 0.00000000E+00
					 9.47117000E-01	 1.02874000E-01	 0.00000000E+00
					 9.80426000E-01	 1.76302000E-01	 0.00000000E+00
					 9.80426000E-01	 1.76302000E-01	 0.00000000E+00
					 9.47117000E-01	 1.02874000E-01	 0.00000000E+00
					 8.66323000E-01	 1.04626000E-01	 0.00000000E+00
					 9.17364000E-01	 2.18320000E-01	 0.00000000E+00
					 9.17364000E-01	 2.18320000E-01	 0.00000000E+00
					 8.66323000E-01	 1.04626000E-01	 0.00000000E+00
					 7.38808000E-01	 1.28462000E-01	 0.00000000E+00
					 8.29638000E-01	 2.91810000E-01	 0.00000000E+00
					 8.29638000E-01	 2.91810000E-01	 0.00000000E+00
					 7.38808000E-01	 1.28462000E-01	 0.00000000E+00
					 1.14523000E+00	 9.47050000E-04	 0.00000000E+00
					 1.14523000E+00	 9.47050000E-04	 0.00000000E+00
					 1.14486000E+00	 1.73991000E-02	 0.00000000E+00
					 1.14486000E+00	 1.73991000E-02	 0.00000000E+00
					 1.14355000E+00	 3.39441000E-02	 0.00000000E+00
					 1.14355000E+00	 3.39441000E-02	 0.00000000E+00
					 1.14119000E+00	 5.33708000E-02	 0.00000000E+00
					 1.14119000E+00	 5.33708000E-02	 0.00000000E+00
					 1.13761000E+00	 7.35655000E-02	 0.00000000E+00
					 1.13761000E+00	 7.35655000E-02	 0.00000000E+00
					 1.13156000E+00	 9.76230000E-02	 0.00000000E+00
					 1.13156000E+00	 9.76230000E-02	 0.00000000E+00
					 1.12336000E+00	 1.26780000E-01	 0.00000000E+00
					 1.12336000E+00	 1.26780000E-01	 0.00000000E+00
					 1.11147000E+00	 1.61772000E-01	 0.00000000E+00
					 1.11147000E+00	 1.61772000E-01	 0.00000000E+00
					 1.09245000E+00	 2.04602000E-01	 0.00000000E+00
					 1.09245000E+00	 2.04602000E-01	 0.00000000E+00
					 1.07863000E+00	 2.49318000E-01	 0.00000000E+00
					 1.07863000E+00	 2.49318000E-01	 0.00000000E+00
					 1.07603000E+00	 2.76986000E-01	 0.00000000E+00
					 1.07603000E+00	 2.76986000E-01	 0.00000000E+00
					 1.19310000E+00	 7.88070000E-04	 0.00000000E+00
					 1.19310000E+00	 7.88070000E-04	 0.00000000E+00
					 1.19352000E+00	 1.65438000E-02	 0.00000000E+00
					 1.19352000E+00	 1.65438000E-02	 0.00000000E+00
					 1.19458000E+00	 3.28465000E-02	 0.00000000E+00
					 1.19458000E+00	 3.28465000E-02	 0.00000000E+00
					 1.19724000E+00	 5.12609000E-02	 0.00000000E+00
					 1.19724000E+00	 5.12609000E-02	 0.00000000E+00
					 1.20137000E+00	 7.02341000E-02	 0.00000000E+00
					 1.20137000E+00	 7.02341000E-02	 0.00000000E+00
					 1.20734000E+00	 9.17960000E-02	 0.00000000E+00
					 1.20734000E+00	 9.17960000E-02	 0.00000000E+00
					 1.21712000E+00	 1.15937000E-01	 0.00000000E+00
					 1.21712000E+00	 1.15937000E-01	 0.00000000E+00
					 1.23336000E+00	 1.41693000E-01	 0.00000000E+00
					 1.23336000E+00	 1.41693000E-01	 0.00000000E+00
					 1.25478000E+00	 1.67322000E-01	 0.00000000E+00
					 1.25478000E+00	 1.67322000E-01	 0.00000000E+00
					 1.29190000E+00	 1.94603000E-01	 0.00000000E+00
					 1.29190000E+00	 1.94603000E-01	 0.00000000E+00
					 1.34040000E+00	 2.15767000E-01	 0.00000000E+00
					 1.34040000E+00	 2.15767000E-01	 0.00000000E+00
					 1.24881000E+00	 4.24357000E-04	 0.00000000E+00
					 1.24881000E+00	 4.24357000E-04	 0.00000000E+00
					 1.25011000E+00	 1.41315000E-02	 0.00000000E+00
					 1.25011000E+00	 1.41315000E-02	 0.00000000E+00
					 1.25396000E+00	 2.90691000E-02	 0.00000000E+00
					 1.25396000E+00	 2.90691000E-02	 0.00000000E+00
					 1.26234000E+00	 4.44025000E-02	 0.00000000E+00
					 1.26234000E+00	 4.44025000E-02	 0.00000000E+00
					 1.27476000E+00	 5.97398000E-02	 0.00000000E+00
					 1.27476000E+00	 5.97398000E-02	 0.00000000E+00
					 1.29280000E+00	 7.54844000E-02	 0.00000000E+00
					 1.29280000E+00	 7.54844000E-02	 0.00000000E+00
					 1.31831000E+00	 9.03856000E-02	 0.00000000E+00
					 1.31831000E+00	 9.03856000E-02	 0.00000000E+00
					 1.35412000E+00	 1.03210000E-01	 0.00000000E+00
					 1.35412000E+00	 1.03210000E-01	 0.00000000E+00
					 1.39579000E+00	 1.09084000E-01	 0.00000000E+00
					 1.39579000E+00	 1.09084000E-01	 0.00000000E+00
					 1.45028000E+00	 1.20568000E-01	 0.00000000E+00
					 1.45028000E+00	 1.20568000E-01	 0.00000000E+00
					 1.51573000E+00	 1.22890000E-01	 0.00000000E+00
					 1.51573000E+00	 1.22890000E-01	 0.00000000E+00
					 1.31088000E+00	-1.01160000E-04	 0.00000000E+00
					 1.31088000E+00	-1.01160000E-04	 0.00000000E+00
					 1.31299000E+00	 9.23202000E-03	 0.00000000E+00
					 1.31299000E+00	 9.23202000E-03	 0.00000000E+00
					 1.31947000E+00	 2.01840000E-02	 0.00000000E+00
					 1.31947000E+00	 2.01840000E-02	 0.00000000E+00
					 1.33280000E+00	 2.92833000E-02	 0.00000000E+00
					 1.33280000E+00	 2.92833000E-02	 0.00000000E+00
					 1.35162000E+00	 3.76631000E-02	 0.00000000E+00
					 1.35162000E+00	 3.76631000E-02	 0.00000000E+00
					 1.37790000E+00	 4.43808000E-02	 0.00000000E+00
					 1.37790000E+00	 4.43808000E-02	 0.00000000E+00
					 1.41210000E+00	 4.80286000E-02	 0.00000000E+00
					 1.41210000E+00	 4.80286000E-02	 0.00000000E+00
					 1.45681000E+00	 4.97769000E-02	 0.00000000E+00
					 1.45681000E+00	 4.97769000E-02	 0.00000000E+00
					 1.50445000E+00	 4.07445000E-02	 0.00000000E+00
					 1.50445000E+00	 4.07445000E-02	 0.00000000E+00
					 1.57050000E+00	 4.16601000E-02	 0.00000000E+00
					 1.57050000E+00	 4.16601000E-02	 0.00000000E+00
					 1.65329000E+00	 1.07354000E-02	 0.00000000E+00
					 1.65329000E+00	 1.07354000E-02	 0.00000000E+00