    1C
    1C
    1UUSER
    1UDATE              25.january.2020     
    1UTIME              13:50:03
    1UHOST
    1UPGM               CalculiX
    1UDIR
    1UDBN
    2C                                                                   1
 -1         1 0.00000E+00-2.50000E+00-5.55112E-17
 -1         2 0.00000E+00-2.24955E+00-5.55112E-17
 -1         3 0.00000E+00-2.24955E+00 1.00000E+00
 -1         4 0.00000E+00-2.50000E+00 1.00000E+00
 -1         5 1.25000E-01-2.50000E+00-5.55112E-17
 -1         6 1.11805E-01-2.24950E+00-1.11022E-16
 -1         7 1.11805E-01-2.24950E+00 1.00000E+00
 -1         8 1.25000E-01-2.50000E+00 1.00000E+00
 -1         9 2.50000E-01-2.50000E+00-5.55112E-17
 -1        10 2.23606E-01-2.24935E+00-1.11022E-16
 -1        11 2.23606E-01-2.24935E+00 1.00000E+00
 -1        12 2.50000E-01-2.50000E+00 1.00000E+00
 -1        13 3.75000E-01-2.50000E+00-5.55112E-17
 -1        14 3.35399E-01-2.24911E+00 5.55112E-17
 -1        15 3.35399E-01-2.24911E+00 1.00000E+00
 -1        16 3.75000E-01-2.50000E+00 1.00000E+00
 -1        17 5.00000E-01-2.50000E+00-5.55112E-17
 -1        18 4.47181E-01-2.24878E+00-1.11022E-16
 -1        19 4.47181E-01-2.24878E+00 1.00000E+00
 -1        20 5.00000E-01-2.50000E+00 1.00000E+00
 -1        21 6.25000E-01-2.50000E+00-5.55112E-17
 -1        22 5.58948E-01-2.24834E+00-5.55112E-17
 -1        23 5.58948E-01-2.24834E+00 1.00000E+00
 -1        24 6.25000E-01-2.50000E+00 1.00000E+00
 -1        25 7.50000E-01-2.50000E+00-5.55112E-17
 -1        26 6.70696E-01-2.24782E+00-1.11022E-16
 -1        27 6.70696E-01-2.24782E+00 1.00000E+00
 -1        28 7.50000E-01-2.50000E+00 1.00000E+00
 -1        29 8.75000E-01-2.50000E+00-5.55112E-17
 -1        30 7.82422E-01-2.24720E+00-1.11022E-16
 -1        31 7.82422E-01-2.24720E+00 1.00000E+00
 -1        32 8.75000E-01-2.50000E+00 1.00000E+00
 -1        33 1.00000E+00-2.50000E+00-5.55112E-17
 -1        34 8.94121E-01-2.24648E+00-5.55112E-17
 -1        35 8.94121E-01-2.24648E+00 1.00000E+00
 -1        36 1.00000E+00-2.50000E+00 1.00000E+00
 -1        37 1.12500E+00-2.50000E+00-5.55112E-17
 -1        38 1.00579E+00-2.24568E+00-5.55112E-17
 -1        39 1.00579E+00-2.24568E+00 1.00000E+00
 -1        40 1.12500E+00-2.50000E+00 1.00000E+00
 -1        41 1.25000E+00-2.50000E+00-5.55112E-17
 -1        42 1.11743E+00-2.24478E+00-1.11022E-16
 -1        43 1.11743E+00-2.24478E+00 1.00000E+00
 -1        44 1.25000E+00-2.50000E+00 1.00000E+00
 -1        45 1.37500E+00-2.50000E+00-5.55112E-17
 -1        46 1.22903E+00-2.24380E+00-5.55112E-17
 -1        47 1.22903E+00-2.24380E+00 1.00000E+00
 -1        48 1.37500E+00-2.50000E+00 1.00000E+00
 -1        49 1.50000E+00-2.50000E+00-5.55112E-17
 -1        50 1.34059E+00-2.24272E+00-2.22045E-16
 -1        51 1.34059E+00-2.24272E+00 1.00000E+00
 -1        52 1.50000E+00-2.50000E+00 1.00000E+00
 -1        53 1.62500E+00-2.50000E+00-5.55112E-17
 -1        54 1.45210E+00-2.24156E+00-5.55112E-17
 -1        55 1.45210E+00-2.24156E+00 1.00000E+00
 -1        56 1.62500E+00-2.50000E+00 1.00000E+00
 -1        57 1.75000E+00-2.50000E+00-5.55112E-17
 -1        58 1.56357E+00-2.24032E+00-5.55112E-17
 -1        59 1.56357E+00-2.24032E+00 1.00000E+00
 -1        60 1.75000E+00-2.50000E+00 1.00000E+00
 -1        61 1.87500E+00-2.50000E+00-5.55112E-17
 -1        62 1.67499E+00-2.23899E+00-1.11022E-16
 -1        63 1.67499E+00-2.23899E+00 1.00000E+00
 -1        64 1.87500E+00-2.50000E+00 1.00000E+00
 -1        65 2.00000E+00-2.50000E+00-5.55112E-17
 -1        66 1.78635E+00-2.23759E+00-1.11022E-16
 -1        67 1.78635E+00-2.23759E+00 1.00000E+00
 -1        68 2.00000E+00-2.50000E+00 1.00000E+00
 -1        69 2.12500E+00-2.50000E+00-5.55112E-17
 -1        70 1.89766E+00-2.23610E+00-2.22045E-16
 -1        71 1.89766E+00-2.23610E+00 1.00000E+00
 -1        72 2.12500E+00-2.50000E+00 1.00000E+00
 -1        73 2.25000E+00-2.50000E+00-5.55112E-17
 -1        74 2.00890E+00-2.23454E+00-1.11022E-16
 -1        75 2.00890E+00-2.23454E+00 1.00000E+00
 -1        76 2.25000E+00-2.50000E+00 1.00000E+00
 -1        77 2.37500E+00-2.50000E+00-5.55112E-17
 -1        78 2.12009E+00-2.23291E+00 5.55112E-17
 -1        79 2.12009E+00-2.23291E+00 1.00000E+00
 -1        80 2.37500E+00-2.50000E+00 1.00000E+00
 -1        81 2.50000E+00-2.50000E+00-5.55112E-17
 -1        82 2.23121E+00-2.23121E+00-5.55112E-17
 -1        83 2.23121E+00-2.23121E+00 1.00000E+00
 -1        84 2.50000E+00-2.50000E+00 1.00000E+00
 -1        85 0.00000E+00-2.02768E+00-5.55112E-17
 -1        86 0.00000E+00-2.02768E+00 1.00000E+00
 -1        87 1.00116E-01-2.02759E+00-1.11022E-16
 -1        88 1.00116E-01-2.02759E+00 1.00000E+00
 -1        89 2.00224E-01-2.02731E+00-5.55112E-17
 -1        90 2.00224E-01-2.02731E+00 1.00000E+00
 -1        91 3.00318E-01-2.02686E+00-5.55112E-17
 -1        92 3.00318E-01-2.02686E+00 1.00000E+00
 -1        93 4.00391E-01-2.02622E+00-5.55112E-17
 -1        94 4.00391E-01-2.02622E+00 1.00000E+00
 -1        95 5.00435E-01-2.02541E+00-5.55112E-17
 -1        96 5.00435E-01-2.02541E+00 1.00000E+00
 -1        97 6.00444E-01-2.02442E+00-5.55112E-17
 -1        98 6.00444E-01-2.02442E+00 1.00000E+00
 -1        99 7.00410E-01-2.02324E+00-5.55112E-17
 -1       100 7.00410E-01-2.02324E+00 1.00000E+00
 -1       101 8.00327E-01-2.02190E+00-5.55112E-17
 -1       102 8.00327E-01-2.02190E+00 1.00000E+00
 -1       103 9.00188E-01-2.02038E+00-5.55112E-17
 -1       104 9.00188E-01-2.02038E+00 1.00000E+00
 -1       105 9.99986E-01-2.01869E+00-5.55112E-17
 -1       106 9.99986E-01-2.01869E+00 1.00000E+00
 -1       107 1.09971E+00-2.01683E+00-1.11022E-16
 -1       108 1.09971E+00-2.01683E+00 1.00000E+00
 -1       109 1.19937E+00-2.01481E+00-1.11022E-16
 -1       110 1.19937E+00-2.01481E+00 1.00000E+00
 -1       111 1.29893E+00-2.01262E+00-1.11022E-16
 -1       112 1.29893E+00-2.01262E+00 1.00000E+00
 -1       113 1.39841E+00-2.01028E+00 1.11022E-16
 -1       114 1.39841E+00-2.01028E+00 1.00000E+00
 -1       115 1.49780E+00-2.00778E+00-5.55112E-17
 -1       116 1.49780E+00-2.00778E+00 1.00000E+00
 -1       117 1.59708E+00-2.00513E+00-1.11022E-16
 -1       118 1.59708E+00-2.00513E+00 1.00000E+00
 -1       119 1.69626E+00-2.00233E+00-5.55112E-17
 -1       120 1.69626E+00-2.00233E+00 1.00000E+00
 -1       121 1.79532E+00-1.99939E+00-5.55112E-17
 -1       122 1.79532E+00-1.99939E+00 1.00000E+00
 -1       123 1.89427E+00-1.99631E+00-1.11022E-16
 -1       124 1.89427E+00-1.99631E+00 1.00000E+00
 -1       125 1.99309E+00-1.99309E+00-5.55112E-17
 -1       126 1.99309E+00-1.99309E+00 1.00000E+00
 -1       127 0.00000E+00-1.83113E+00-5.55112E-17
 -1       128 0.00000E+00-1.83113E+00 1.00000E+00
 -1       129 8.97605E-02-1.83100E+00-5.55112E-17
 -1       130 8.97605E-02-1.83100E+00 1.00000E+00
 -1       131 1.79511E-01-1.83062E+00-5.55112E-17
 -1       132 1.79511E-01-1.83062E+00 1.00000E+00
 -1       133 2.69241E-01-1.82997E+00-1.11022E-16
 -1       134 2.69241E-01-1.82997E+00 1.00000E+00
 -1       135 3.58941E-01-1.82907E+00-1.11022E-16
 -1       136 3.58941E-01-1.82907E+00 1.00000E+00
 -1       137 4.48601E-01-1.82792E+00-5.55112E-17
 -1       138 4.48601E-01-1.82792E+00 1.00000E+00
 -1       139 5.38210E-01-1.82651E+00-2.22045E-16
 -1       140 5.38210E-01-1.82651E+00 1.00000E+00
 -1       141 6.27759E-01-1.82485E+00-5.55112E-17
 -1       142 6.27759E-01-1.82485E+00 1.00000E+00
 -1       143 7.17238E-01-1.82295E+00-5.55112E-17
 -1       144 7.17238E-01-1.82295E+00 1.00000E+00
 -1       145 8.06638E-01-1.82080E+00-5.55112E-17
 -1       146 8.06638E-01-1.82080E+00 1.00000E+00
 -1       147 8.95948E-01-1.81840E+00-5.55112E-17
 -1       148 8.95948E-01-1.81840E+00 1.00000E+00
 -1       149 9.85159E-01-1.81577E+00 5.55112E-17
 -1       150 9.85159E-01-1.81577E+00 1.00000E+00
 -1       151 1.07426E+00-1.81291E+00-2.22045E-16
 -1       152 1.07426E+00-1.81291E+00 1.00000E+00
 -1       153 1.16325E+00-1.80981E+00 5.55112E-17
 -1       154 1.16325E+00-1.80981E+00 1.00000E+00
 -1       155 1.25211E+00-1.80649E+00-1.11022E-16
 -1       156 1.25211E+00-1.80649E+00 1.00000E+00
 -1       157 1.34084E+00-1.80295E+00-1.11022E-16
 -1       158 1.34084E+00-1.80295E+00 1.00000E+00
 -1       159 1.42942E+00-1.79920E+00-1.11022E-16
 -1       160 1.42942E+00-1.79920E+00 1.00000E+00
 -1       161 1.51785E+00-1.79523E+00-5.55112E-17
 -1       162 1.51785E+00-1.79523E+00 1.00000E+00
 -1       163 1.60612E+00-1.79107E+00-2.22045E-16
 -1       164 1.60612E+00-1.79107E+00 1.00000E+00
 -1       165 1.69423E+00-1.78671E+00-5.55112E-17
 -1       166 1.69423E+00-1.78671E+00 1.00000E+00
 -1       167 1.78216E+00-1.78216E+00-5.55112E-17
 -1       168 1.78216E+00-1.78216E+00 1.00000E+00
 -1       169 0.00000E+00-1.65702E+00-5.55112E-17
 -1       170 0.00000E+00-1.65702E+00 1.00000E+00
 -1       171 8.05873E-02-1.65686E+00-5.55112E-17
 -1       172 8.05873E-02-1.65686E+00 1.00000E+00
 -1       173 1.61162E-01-1.65637E+00-5.55112E-17
 -1       174 1.61162E-01-1.65637E+00 1.00000E+00
 -1       175 2.41711E-01-1.65556E+00-5.55112E-17
 -1       176 2.41711E-01-1.65556E+00 1.00000E+00
 -1       177 3.22222E-01-1.65442E+00-5.55112E-17
 -1       178 3.22222E-01-1.65442E+00 1.00000E+00
 -1       179 4.02682E-01-1.65297E+00 5.55112E-17
 -1       180 4.02682E-01-1.65297E+00 1.00000E+00
 -1       181 4.83079E-01-1.65120E+00-5.55112E-17
 -1       182 4.83079E-01-1.65120E+00 1.00000E+00
 -1       183 5.63400E-01-1.64911E+00-1.11022E-16
 -1       184 5.63400E-01-1.64911E+00 1.00000E+00
 -1       185 6.43632E-01-1.64670E+00-5.55112E-17
 -1       186 6.43632E-01-1.64670E+00 1.00000E+00
 -1       187 7.23765E-01-1.64399E+00-5.55112E-17
 -1       188 7.23765E-01-1.64399E+00 1.00000E+00
 -1       189 8.03784E-01-1.64098E+00-5.55112E-17
 -1       190 8.03784E-01-1.64098E+00 1.00000E+00
 -1       191 8.83680E-01-1.63766E+00-5.55112E-17
 -1       192 8.83680E-01-1.63766E+00 1.00000E+00
 -1       193 9.63439E-01-1.63405E+00-5.55112E-17
 -1       194 9.63439E-01-1.63405E+00 1.00000E+00
 -1       195 1.04305E+00-1.63015E+00-5.55112E-17
 -1       196 1.04305E+00-1.63015E+00 1.00000E+00
 -1       197 1.12250E+00-1.62596E+00-5.55112E-17
 -1       198 1.12250E+00-1.62596E+00 1.00000E+00
 -1       199 1.20179E+00-1.62150E+00-5.55112E-17
 -1       200 1.20179E+00-1.62150E+00 1.00000E+00
 -1       201 1.28089E+00-1.61677E+00-5.55112E-17
 -1       202 1.28089E+00-1.61677E+00 1.00000E+00
 -1       203 1.35980E+00-1.61177E+00-5.55112E-17
 -1       204 1.35980E+00-1.61177E+00 1.00000E+00
 -1       205 1.43851E+00-1.60653E+00 1.11022E-16
 -1       206 1.43851E+00-1.60653E+00 1.00000E+00
 -1       207 1.51701E+00-1.60103E+00-5.55112E-17
 -1       208 1.51701E+00-1.60103E+00 1.00000E+00
 -1       209 1.59529E+00-1.59529E+00-5.55112E-17
 -1       210 1.59529E+00-1.59529E+00 1.00000E+00
 -1       211 0.00000E+00-1.50278E+00-5.55112E-17
 -1       212 0.00000E+00-1.50278E+00 1.00000E+00
 -1       213 7.24611E-02-1.50259E+00-5.55112E-17
 -1       214 7.24611E-02-1.50259E+00 1.00000E+00
 -1       215 1.44907E-01-1.50201E+00-5.55112E-17
 -1       216 1.44907E-01-1.50201E+00 1.00000E+00
 -1       217 2.17323E-01-1.50105E+00-1.11022E-16
 -1       218 2.17323E-01-1.50105E+00 1.00000E+00
 -1       219 2.89694E-01-1.49971E+00-1.11022E-16
 -1       220 2.89694E-01-1.49971E+00 1.00000E+00
 -1       221 3.62004E-01-1.49799E+00-2.22045E-16
 -1       222 3.62004E-01-1.49799E+00 1.00000E+00
 -1       223 4.34240E-01-1.49589E+00-2.22045E-16
 -1       224 4.34240E-01-1.49589E+00 1.00000E+00
 -1       225 5.06386E-01-1.49342E+00-2.22045E-16
 -1       226 5.06386E-01-1.49342E+00 1.00000E+00
 -1       227 5.78427E-01-1.49058E+00-1.11022E-16
 -1       228 5.78427E-01-1.49058E+00 1.00000E+00
 -1       229 6.50350E-01-1.48737E+00-5.55112E-17
 -1       230 6.50350E-01-1.48737E+00 1.00000E+00
 -1       231 7.22140E-01-1.48380E+00-5.55112E-17
 -1       232 7.22140E-01-1.48380E+00 1.00000E+00
 -1       233 7.93783E-01-1.47988E+00-5.55112E-17
 -1       234 7.93783E-01-1.47988E+00 1.00000E+00
 -1       235 8.65264E-01-1.47560E+00-5.55112E-17
 -1       236 8.65264E-01-1.47560E+00 1.00000E+00
 -1       237 9.36572E-01-1.47099E+00 1.11022E-16
 -1       238 9.36572E-01-1.47099E+00 1.00000E+00
 -1       239 1.00769E+00-1.46604E+00-1.11022E-16
 -1       240 1.00769E+00-1.46604E+00 1.00000E+00
 -1       241 1.07861E+00-1.46076E+00-5.55112E-17
 -1       242 1.07861E+00-1.46076E+00 1.00000E+00
 -1       243 1.14931E+00-1.45516E+00 5.55112E-17
 -1       244 1.14931E+00-1.45516E+00 1.00000E+00
 -1       245 1.21979E+00-1.44926E+00 1.11022E-16
 -1       246 1.21979E+00-1.44926E+00 1.00000E+00
 -1       247 1.29003E+00-1.44304E+00-5.55112E-17
 -1       248 1.29003E+00-1.44304E+00 1.00000E+00
 -1       249 1.36003E+00-1.43654E+00-1.11022E-16
 -1       250 1.36003E+00-1.43654E+00 1.00000E+00
 -1       251 1.42976E+00-1.42976E+00-5.55112E-17
 -1       252 1.42976E+00-1.42976E+00 1.00000E+00
 -1       253 0.00000E+00-1.36614E+00-5.55112E-17
 -1       254 0.00000E+00-1.36614E+00 1.00000E+00
 -1       255 6.52624E-02-1.36592E+00-5.55112E-17
 -1       256 6.52624E-02-1.36592E+00 1.00000E+00
 -1       257 1.30508E-01-1.36527E+00-5.55112E-17
 -1       258 1.30508E-01-1.36527E+00 1.00000E+00
 -1       259 1.95719E-01-1.36418E+00-5.55112E-17
 -1       260 1.95719E-01-1.36418E+00 1.00000E+00
 -1       261 2.60878E-01-1.36265E+00 5.55112E-17
 -1       262 2.60878E-01-1.36265E+00 1.00000E+00
 -1       263 3.25969E-01-1.36069E+00-5.55112E-17
 -1       264 3.25969E-01-1.36069E+00 1.00000E+00
 -1       265 3.90975E-01-1.35831E+00 5.55112E-17
 -1       266 3.90975E-01-1.35831E+00 1.00000E+00
 -1       267 4.55879E-01-1.35550E+00-5.55112E-17
 -1       268 4.55879E-01-1.35550E+00 1.00000E+00
 -1       269 5.20665E-01-1.35227E+00-5.55112E-17
 -1       270 5.20665E-01-1.35227E+00 1.00000E+00
 -1       271 5.85315E-01-1.34862E+00 5.55112E-17
 -1       272 5.85315E-01-1.34862E+00 1.00000E+00
 -1       273 6.49814E-01-1.34456E+00 5.55112E-17
 -1       274 6.49814E-01-1.34456E+00 1.00000E+00
 -1       275 7.14146E-01-1.34010E+00 1.11022E-16
 -1       276 7.14146E-01-1.34010E+00 1.00000E+00
 -1       277 7.78294E-01-1.33524E+00 5.55112E-17
 -1       278 7.78294E-01-1.33524E+00 1.00000E+00
 -1       279 8.42245E-01-1.33000E+00-1.11022E-16
 -1       280 8.42245E-01-1.33000E+00 1.00000E+00
 -1       281 9.05982E-01-1.32437E+00 5.55112E-17
 -1       282 9.05982E-01-1.32437E+00 1.00000E+00
 -1       283 9.69490E-01-1.31837E+00 5.55112E-17
 -1       284 9.69490E-01-1.31837E+00 1.00000E+00
 -1       285 1.03276E+00-1.31200E+00 5.55112E-17
 -1       286 1.03276E+00-1.31200E+00 1.00000E+00
 -1       287 1.09576E+00-1.30528E+00 5.55112E-17
 -1       288 1.09576E+00-1.30528E+00 1.00000E+00
 -1       289 1.15850E+00-1.29822E+00-1.11022E-16
 -1       290 1.15850E+00-1.29822E+00 1.00000E+00
 -1       291 1.22096E+00-1.29083E+00-2.22045E-16
 -1       292 1.22096E+00-1.29083E+00 1.00000E+00
 -1       293 1.28311E+00-1.28311E+00-5.55112E-17
 -1       294 1.28311E+00-1.28311E+00 1.00000E+00
 -1       295 0.00000E+00-1.24510E+00-5.55112E-17
 -1       296 0.00000E+00-1.24510E+00 1.00000E+00
 -1       297 5.88852E-02-1.24486E+00-5.55112E-17
 -1       298 5.88852E-02-1.24486E+00 1.00000E+00
 -1       299 1.17752E-01-1.24413E+00 1.11022E-16
 -1       300 1.17752E-01-1.24413E+00 1.00000E+00
 -1       301 1.76580E-01-1.24292E+00-5.55112E-17
 -1       302 1.76580E-01-1.24292E+00 1.00000E+00
 -1       303 2.35351E-01-1.24124E+00-5.55112E-17
 -1       304 2.35351E-01-1.24124E+00 1.00000E+00
 -1       305 2.94047E-01-1.23907E+00-5.55112E-17
 -1       306 2.94047E-01-1.23907E+00 1.00000E+00
 -1       307 3.52649E-01-1.23643E+00 5.55112E-17
 -1       308 3.52649E-01-1.23643E+00 1.00000E+00
 -1       309 4.11137E-01-1.23332E+00 5.55112E-17
 -1       310 4.11137E-01-1.23332E+00 1.00000E+00
 -1       311 4.69494E-01-1.22974E+00 5.55112E-17
 -1       312 4.69494E-01-1.22974E+00 1.00000E+00
 -1       313 5.27702E-01-1.22571E+00 5.55112E-17
 -1       314 5.27702E-01-1.22571E+00 1.00000E+00
 -1       315 5.85742E-01-1.22122E+00-1.11022E-16
 -1       316 5.85742E-01-1.22122E+00 1.00000E+00
 -1       317 6.43598E-01-1.21628E+00-5.55112E-17
 -1       318 6.43598E-01-1.21628E+00 1.00000E+00
 -1       319 7.01251E-01-1.21090E+00-5.55112E-17
 -1       320 7.01251E-01-1.21090E+00 1.00000E+00
 -1       321 7.58684E-01-1.20510E+00 5.55112E-17
 -1       322 7.58684E-01-1.20510E+00 1.00000E+00
 -1       323 8.15880E-01-1.19887E+00 1.11022E-16
 -1       324 8.15880E-01-1.19887E+00 1.00000E+00
 -1       325 8.72825E-01-1.19223E+00 1.11022E-16
 -1       326 8.72825E-01-1.19223E+00 1.00000E+00
 -1       327 9.29500E-01-1.18518E+00 1.11022E-16
 -1       328 9.29500E-01-1.18518E+00 1.00000E+00
 -1       329 9.85891E-01-1.17775E+00 1.11022E-16
 -1       330 9.85891E-01-1.17775E+00 1.00000E+00
 -1       331 1.04198E+00-1.16993E+00 1.11022E-16
 -1       332 1.04198E+00-1.16993E+00 1.00000E+00
 -1       333 1.09776E+00-1.16175E+00 5.55112E-17
 -1       334 1.09776E+00-1.16175E+00 1.00000E+00
 -1       335 1.15321E+00-1.15321E+00-5.55112E-17
 -1       336 1.15321E+00-1.15321E+00 1.00000E+00
 -1       337 0.00000E+00-1.13787E+00-5.55112E-17
 -1       338 0.00000E+00-1.13787E+00 1.00000E+00
 -1       339 5.32360E-02-1.13761E+00-5.55112E-17
 -1       340 5.32360E-02-1.13761E+00 1.00000E+00
 -1       341 1.06451E-01-1.13682E+00-2.22045E-16
 -1       342 1.06451E-01-1.13682E+00 1.00000E+00
 -1       343 1.59625E-01-1.13551E+00-5.55112E-17
 -1       344 1.59625E-01-1.13551E+00 1.00000E+00
 -1       345 2.12738E-01-1.13368E+00-5.55112E-17
 -1       346 2.12738E-01-1.13368E+00 1.00000E+00
 -1       347 2.65768E-01-1.13133E+00-1.11022E-16
 -1       348 2.65768E-01-1.13133E+00 1.00000E+00
 -1       349 3.18696E-01-1.12846E+00-1.11022E-16
 -1       350 3.18696E-01-1.12846E+00 1.00000E+00
 -1       351 3.71502E-01-1.12509E+00-5.55112E-17
 -1       352 3.71502E-01-1.12509E+00 1.00000E+00
 -1       353 4.24164E-01-1.12120E+00-5.55112E-17
 -1       354 4.24164E-01-1.12120E+00 1.00000E+00
 -1       355 4.76665E-01-1.11682E+00-5.55112E-17
 -1       356 4.76665E-01-1.11682E+00 1.00000E+00
 -1       357 5.28984E-01-1.11195E+00-5.55112E-17
 -1       358 5.28984E-01-1.11195E+00 1.00000E+00
 -1       359 5.81102E-01-1.10659E+00-5.55112E-17
 -1       360 5.81102E-01-1.10659E+00 1.00000E+00
 -1       361 6.33000E-01-1.10075E+00-5.55112E-17
 -1       362 6.33000E-01-1.10075E+00 1.00000E+00
 -1       363 6.84660E-01-1.09445E+00-5.55112E-17
 -1       364 6.84660E-01-1.09445E+00 1.00000E+00
 -1       365 7.36063E-01-1.08769E+00-5.55112E-17
 -1       366 7.36063E-01-1.08769E+00 1.00000E+00
 -1       367 7.87192E-01-1.08048E+00-5.55112E-17
 -1       368 7.87192E-01-1.08048E+00 1.00000E+00
 -1       369 8.38029E-01-1.07283E+00 1.11022E-16
 -1       370 8.38029E-01-1.07283E+00 1.00000E+00
 -1       371 8.88558E-01-1.06476E+00 1.11022E-16
 -1       372 8.88558E-01-1.06476E+00 1.00000E+00
 -1       373 9.38761E-01-1.05628E+00 1.11022E-16
 -1       374 9.38761E-01-1.05628E+00 1.00000E+00
 -1       375 9.88624E-01-1.04740E+00 1.11022E-16
 -1       376 9.88624E-01-1.04740E+00 1.00000E+00
 -1       377 1.03813E+00-1.03813E+00-5.55112E-17
 -1       378 1.03813E+00-1.03813E+00 1.00000E+00
 -1       379 0.00000E+00-1.04288E+00-5.55112E-17
 -1       380 0.00000E+00-1.04288E+00 1.00000E+00
 -1       381 4.82315E-02-1.04260E+00 5.55112E-17
 -1       382 4.82315E-02-1.04260E+00 1.00000E+00
 -1       383 9.64409E-02-1.04176E+00-1.11022E-16
 -1       384 9.64409E-02-1.04176E+00 1.00000E+00
 -1       385 1.44606E-01-1.04036E+00 1.11022E-16
 -1       386 1.44606E-01-1.04036E+00 1.00000E+00
 -1       387 1.92706E-01-1.03840E+00-5.55112E-17
 -1       388 1.92706E-01-1.03840E+00 1.00000E+00
 -1       389 2.40717E-01-1.03588E+00-1.11022E-16
 -1       390 2.40717E-01-1.03588E+00 1.00000E+00
 -1       391 2.88619E-01-1.03282E+00-1.11022E-16
 -1       392 2.88619E-01-1.03282E+00 1.00000E+00
 -1       393 3.36390E-01-1.02920E+00-5.55112E-17
 -1       394 3.36390E-01-1.02920E+00 1.00000E+00
 -1       395 3.84008E-01-1.02505E+00 1.11022E-16
 -1       396 3.84008E-01-1.02505E+00 1.00000E+00
 -1       397 4.31453E-01-1.02037E+00-1.11022E-16
 -1       398 4.31453E-01-1.02037E+00 1.00000E+00
 -1       399 4.78703E-01-1.01515E+00 5.55112E-17
 -1       400 4.78703E-01-1.01515E+00 1.00000E+00
 -1       401 5.25739E-01-1.00942E+00-5.55112E-17
 -1       402 5.25739E-01-1.00942E+00 1.00000E+00
 -1       403 5.72539E-01-1.00318E+00-2.22045E-16
 -1       404 5.72539E-01-1.00318E+00 1.00000E+00
 -1       405 6.19084E-01-9.96434E-01-1.11022E-16
 -1       406 6.19084E-01-9.96434E-01 1.00000E+00
 -1       407 6.65355E-01-9.89200E-01-2.22045E-16
 -1       408 6.65355E-01-9.89200E-01 1.00000E+00
 -1       409 7.11333E-01-9.81488E-01-2.22045E-16
 -1       410 7.11333E-01-9.81488E-01 1.00000E+00
 -1       411 7.56998E-01-9.73309E-01-5.55112E-17
 -1       412 7.56998E-01-9.73309E-01 1.00000E+00
 -1       413 8.02333E-01-9.64676E-01-5.55112E-17
 -1       414 8.02333E-01-9.64676E-01 1.00000E+00
 -1       415 8.47321E-01-9.55601E-01-5.55112E-17
 -1       416 8.47321E-01-9.55601E-01 1.00000E+00
 -1       417 8.91944E-01-9.46099E-01 1.11022E-16
 -1       418 8.91944E-01-9.46099E-01 1.00000E+00
 -1       419 9.36185E-01-9.36185E-01-5.55112E-17
 -1       420 9.36185E-01-9.36185E-01 1.00000E+00
 -1       421 0.00000E+00-9.58735E-01-5.55112E-17
 -1       422 0.00000E+00-9.58735E-01 1.00000E+00
 -1       423 4.37981E-02-9.58437E-01 5.55112E-17
 -1       424 4.37981E-02-9.58437E-01 1.00000E+00
 -1       425 8.75729E-02-9.57547E-01-1.11022E-16
 -1       426 8.75729E-02-9.57547E-01 1.00000E+00
 -1       427 1.31301E-01-9.56063E-01-1.11022E-16
 -1       428 1.31301E-01-9.56063E-01 1.00000E+00
 -1       429 1.74960E-01-9.53990E-01 5.55112E-17
 -1       430 1.74960E-01-9.53990E-01 1.00000E+00
 -1       431 2.18525E-01-9.51330E-01 5.55112E-17
 -1       432 2.18525E-01-9.51330E-01 1.00000E+00
 -1       433 2.61975E-01-9.48087E-01 1.11022E-16
 -1       434 2.61975E-01-9.48087E-01 1.00000E+00
 -1       435 3.05285E-01-9.44267E-01 5.55112E-17
 -1       436 3.05285E-01-9.44267E-01 1.00000E+00
 -1       437 3.48435E-01-9.39875E-01-1.11022E-16
 -1       438 3.48435E-01-9.39875E-01 1.00000E+00
 -1       439 3.91401E-01-9.34917E-01-1.11022E-16
 -1       440 3.91401E-01-9.34917E-01 1.00000E+00
 -1       441 4.34161E-01-9.29403E-01-1.11022E-16
 -1       442 4.34161E-01-9.29403E-01 1.00000E+00
 -1       443 4.76695E-01-9.23339E-01-5.55112E-17
 -1       444 4.76695E-01-9.23339E-01 1.00000E+00
 -1       445 5.18979E-01-9.16736E-01-5.55112E-17
 -1       446 5.18979E-01-9.16736E-01 1.00000E+00
 -1       447 5.60993E-01-9.09604E-01-1.11022E-16
 -1       448 5.60993E-01-9.09604E-01 1.00000E+00
 -1       449 6.02718E-01-9.01953E-01-2.22045E-16
 -1       450 6.02718E-01-9.01953E-01 1.00000E+00
 -1       451 6.44132E-01-8.93795E-01 5.55112E-17
 -1       452 6.44132E-01-8.93795E-01 1.00000E+00
 -1       453 6.85216E-01-8.85144E-01 5.55112E-17
 -1       454 6.85216E-01-8.85144E-01 1.00000E+00
 -1       455 7.25950E-01-8.76012E-01 5.55112E-17
 -1       456 7.25950E-01-8.76012E-01 1.00000E+00
 -1       457 7.66317E-01-8.66413E-01 5.55112E-17
 -1       458 7.66317E-01-8.66413E-01 1.00000E+00
 -1       459 8.06298E-01-8.56362E-01 5.55112E-17
 -1       460 8.06298E-01-8.56362E-01 1.00000E+00
 -1       461 8.45876E-01-8.45876E-01-5.55112E-17
 -1       462 8.45876E-01-8.45876E-01 1.00000E+00
 -1       463 0.00000E+00-8.84191E-01-5.55112E-17
 -1       464 0.00000E+00-8.84191E-01 1.00000E+00
 -1       465 3.98708E-02-8.83879E-01-5.55112E-17
 -1       466 3.98708E-02-8.83879E-01 1.00000E+00
 -1       467 7.97172E-02-8.82945E-01-2.22045E-16
 -1       468 7.97172E-02-8.82945E-01 1.00000E+00
 -1       469 1.19515E-01-8.81390E-01 5.55112E-17
 -1       470 1.19515E-01-8.81390E-01 1.00000E+00
 -1       471 1.59239E-01-8.79217E-01-5.55112E-17
 -1       472 1.59239E-01-8.79217E-01 1.00000E+00
 -1       473 1.98866E-01-8.76428E-01-5.55112E-17
 -1       474 1.98866E-01-8.76428E-01 1.00000E+00
 -1       475 2.38371E-01-8.73029E-01-5.55112E-17
 -1       476 2.38371E-01-8.73029E-01 1.00000E+00
 -1       477 2.77731E-01-8.69024E-01-5.55112E-17
 -1       478 2.77731E-01-8.69024E-01 1.00000E+00
 -1       479 3.16922E-01-8.64419E-01-5.55112E-17
 -1       480 3.16922E-01-8.64419E-01 1.00000E+00
 -1       481 3.55920E-01-8.59222E-01 5.55112E-17
 -1       482 3.55920E-01-8.59222E-01 1.00000E+00
 -1       483 3.94703E-01-8.53440E-01-5.55112E-17
 -1       484 3.94703E-01-8.53440E-01 1.00000E+00
 -1       485 4.33248E-01-8.47084E-01 1.11022E-16
 -1       486 4.33248E-01-8.47084E-01 1.00000E+00
 -1       487 4.71532E-01-8.40161E-01-5.55112E-17
 -1       488 4.71532E-01-8.40161E-01 1.00000E+00
 -1       489 5.09533E-01-8.32684E-01 5.55112E-17
 -1       490 5.09533E-01-8.32684E-01 1.00000E+00
 -1       491 5.47229E-01-8.24663E-01-1.11022E-16
 -1       492 5.47229E-01-8.24663E-01 1.00000E+00
 -1       493 5.84600E-01-8.16111E-01-1.11022E-16
 -1       494 5.84600E-01-8.16111E-01 1.00000E+00
 -1       495 6.21626E-01-8.07041E-01-5.55112E-17
 -1       496 6.21626E-01-8.07041E-01 1.00000E+00
 -1       497 6.58285E-01-7.97467E-01-5.55112E-17
 -1       498 6.58285E-01-7.97467E-01 1.00000E+00
 -1       499 6.94558E-01-7.87404E-01-5.55112E-17
 -1       500 6.94558E-01-7.87404E-01 1.00000E+00
 -1       501 7.30427E-01-7.76867E-01 5.55112E-17
 -1       502 7.30427E-01-7.76867E-01 1.00000E+00
 -1       503 7.65873E-01-7.65873E-01-5.55112E-17
 -1       504 7.65873E-01-7.65873E-01 1.00000E+00
 -1       505 0.00000E+00-8.18155E-01-5.55112E-17
 -1       506 0.00000E+00-8.18155E-01 1.00000E+00
 -1       507 3.63917E-02-8.17831E-01-1.11022E-16
 -1       508 3.63917E-02-8.17831E-01 1.00000E+00
 -1       509 7.27580E-02-8.16859E-01-2.22045E-16
 -1       510 7.27580E-02-8.16859E-01 1.00000E+00
 -1       511 1.09073E-01-8.15240E-01-5.55112E-17
 -1       512 1.09073E-01-8.15240E-01 1.00000E+00
 -1       513 1.45313E-01-8.12978E-01-2.22045E-16
 -1       514 1.45313E-01-8.12978E-01 1.00000E+00
 -1       515 1.81450E-01-8.10075E-01-1.11022E-16
 -1       516 1.81450E-01-8.10075E-01 1.00000E+00
 -1       517 2.17462E-01-8.06537E-01-5.55112E-17
 -1       518 2.17462E-01-8.06537E-01 1.00000E+00
 -1       519 2.53322E-01-8.02368E-01-2.22045E-16
 -1       520 2.53322E-01-8.02368E-01 1.00000E+00
 -1       521 2.89006E-01-7.97575E-01-1.11022E-16
 -1       522 2.89006E-01-7.97575E-01 1.00000E+00
 -1       523 3.24489E-01-7.92166E-01-1.11022E-16
 -1       524 3.24489E-01-7.92166E-01 1.00000E+00
 -1       525 3.59749E-01-7.86148E-01-1.11022E-16
 -1       526 3.59749E-01-7.86148E-01 1.00000E+00
 -1       527 3.94760E-01-7.79531E-01-5.55112E-17
 -1       528 3.94760E-01-7.79531E-01 1.00000E+00
 -1       529 4.29500E-01-7.72326E-01-1.11022E-16
 -1       530 4.29500E-01-7.72326E-01 1.00000E+00
 -1       531 4.63945E-01-7.64543E-01-5.55112E-17
 -1       532 4.63945E-01-7.64543E-01 1.00000E+00
 -1       533 4.98074E-01-7.56194E-01-1.11022E-16
 -1       534 4.98074E-01-7.56194E-01 1.00000E+00
 -1       535 5.31864E-01-7.47293E-01-5.55112E-17
 -1       536 5.31864E-01-7.47293E-01 1.00000E+00
 -1       537 5.65294E-01-7.37852E-01 5.55112E-17
 -1       538 5.65294E-01-7.37852E-01 1.00000E+00
 -1       539 5.98342E-01-7.27887E-01 5.55112E-17
 -1       540 5.98342E-01-7.27887E-01 1.00000E+00
 -1       541 6.30990E-01-7.17413E-01-5.55112E-17
 -1       542 6.30990E-01-7.17413E-01 1.00000E+00
 -1       543 6.63216E-01-7.06445E-01-5.55112E-17
 -1       544 6.63216E-01-7.06445E-01 1.00000E+00
 -1       545 6.95002E-01-6.95002E-01-5.55112E-17
 -1       546 6.95002E-01-6.95002E-01 1.00000E+00
 -1       547 0.00000E+00-7.59656E-01-5.55112E-17
 -1       548 0.00000E+00-7.59656E-01 1.00000E+00
 -1       549 3.33097E-02-7.59321E-01-1.11022E-16
 -1       550 3.33097E-02-7.59321E-01 1.00000E+00
 -1       551 6.65931E-02-7.58315E-01 5.55112E-17
 -1       552 6.65931E-02-7.58315E-01 1.00000E+00
 -1       553 9.98238E-02-7.56640E-01-5.55112E-17
 -1       554 9.98238E-02-7.56640E-01 1.00000E+00
 -1       555 1.32976E-01-7.54299E-01-5.55112E-17
 -1       556 1.32976E-01-7.54299E-01 1.00000E+00
 -1       557 1.66023E-01-7.51295E-01-5.55112E-17
 -1       558 1.66023E-01-7.51295E-01 1.00000E+00
 -1       559 1.98939E-01-7.47634E-01 5.55112E-17
 -1       560 1.98939E-01-7.47634E-01 1.00000E+00
 -1       561 2.31698E-01-7.43320E-01-1.11022E-16
 -1       562 2.31698E-01-7.43320E-01 1.00000E+00
 -1       563 2.64276E-01-7.38360E-01 1.11022E-16
 -1       564 2.64276E-01-7.38360E-01 1.00000E+00
 -1       565 2.96646E-01-7.32763E-01-5.55112E-17
 -1       566 2.96646E-01-7.32763E-01 1.00000E+00
 -1       567 3.28783E-01-7.26536E-01-1.11022E-16
 -1       568 3.28783E-01-7.26536E-01 1.00000E+00
 -1       569 3.60665E-01-7.19689E-01-1.11022E-16
 -1       570 3.60665E-01-7.19689E-01 1.00000E+00
 -1       571 3.92265E-01-7.12233E-01-5.55112E-17
 -1       572 3.92265E-01-7.12233E-01 1.00000E+00
 -1       573 4.23561E-01-7.04179E-01 5.55112E-17
 -1       574 4.23561E-01-7.04179E-01 1.00000E+00
 -1       575 4.54529E-01-6.95540E-01-5.55112E-17
 -1       576 4.54529E-01-6.95540E-01 1.00000E+00
 -1       577 4.85146E-01-6.86329E-01-5.55112E-17
 -1       578 4.85146E-01-6.86329E-01 1.00000E+00
 -1       579 5.15391E-01-6.76560E-01 5.55112E-17
 -1       580 5.15391E-01-6.76560E-01 1.00000E+00
 -1       581 5.45241E-01-6.66248E-01-1.11022E-16
 -1       582 5.45241E-01-6.66248E-01 1.00000E+00
 -1       583 5.74676E-01-6.55410E-01-1.11022E-16
 -1       584 5.74676E-01-6.55410E-01 1.00000E+00
 -1       585 6.03676E-01-6.44061E-01-2.22045E-16
 -1       586 6.03676E-01-6.44061E-01 1.00000E+00
 -1       587 6.32220E-01-6.32220E-01-5.55112E-17
 -1       588 6.32220E-01-6.32220E-01 1.00000E+00
 -1       589 0.00000E+00-7.07834E-01-5.55112E-17
 -1       590 0.00000E+00-7.07834E-01 1.00000E+00
 -1       591 3.05794E-02-7.07488E-01-5.55112E-17
 -1       592 3.05794E-02-7.07488E-01 1.00000E+00
 -1       593 6.11318E-02-7.06453E-01-5.55112E-17
 -1       594 6.11318E-02-7.06453E-01 1.00000E+00
 -1       595 9.16299E-02-7.04728E-01-5.55112E-17