# vtk DataFile Version 3.0

ASCII
DATASET UNSTRUCTURED_GRID

POINTS 13122 double
	 5.00000000E-01	 5.00000000E-01	 0.00000000E+00
	 5.00000000E-01	 4.87500000E-01	 0.00000000E+00
	 5.00000000E-01	 4.87500000E-01	 1.00000000E+00
	 5.00000000E-01	 5.00000000E-01	 1.00000000E+00
	 4.87500000E-01	 5.00000000E-01	 0.00000000E+00
	 4.87500000E-01	 4.87500000E-01	 0.00000000E+00
	 4.87500000E-01	 4.87500000E-01	 1.00000000E+00
	 4.87500000E-01	 5.00000000E-01	 1.00000000E+00
	 4.75000000E-01	 5.00000000E-01	 0.00000000E+00
	 4.75000000E-01	 4.87500000E-01	 0.00000000E+00
	 4.75000000E-01	 4.87500000E-01	 1.00000000E+00
	 4.75000000E-01	 5.00000000E-01	 1.00000000E+00
	 4.62500000E-01	 5.00000000E-01	 0.00000000E+00
	 4.62500000E-01	 4.87500000E-01	 0.00000000E+00
	 4.62500000E-01	 4.87500000E-01	 1.00000000E+00
	 4.62500000E-01	 5.00000000E-01	 1.00000000E+00
	 4.50000000E-01	 5.00000000E-01	 0.00000000E+00
	 4.50000000E-01	 4.87500000E-01	 0.00000000E+00
	 4.50000000E-01	 4.87500000E-01	 1.00000000E+00
	 4.50000000E-01	 5.00000000E-01	 1.00000000E+00
	 4.37500000E-01	 5.00000000E-01	 0.00000000E+00
	 4.37500000E-01	 4.87500000E-01	 0.00000000E+00
	 4.37500000E-01	 4.87500000E-01	 1.00000000E+00
	 4.37500000E-01	 5.00000000E-01	 1.00000000E+00
	 4.25000000E-01	 5.00000000E-01	 0.00000000E+00
	 4.25000000E-01	 4.87500000E-01	 0.00000000E+00
	 4.25000000E-01	 4.87500000E-01	 1.00000000E+00
	 4.25000000E-01	 5.00000000E-01	 1.00000000E+00
	 4.12500000E-01	 5.00000000E-01	 0.00000000E+00
	 4.12500000E-01	 4.87500000E-01	 0.00000000E+00
	 4.12500000E-01	 4.87500000E-01	 1.00000000E+00
	 4.12500000E-01	 5.00000000E-01	 1.00000000E+00
	 4.00000000E-01	 5.00000000E-01	 0.00000000E+00
	 4.00000000E-01	 4.87500000E-01	 0.00000000E+00
	 4.00000000E-01	 4.87500000E-01	 1.00000000E+00
	 4.00000000E-01	 5.00000000E-01	 1.00000000E+00
	 3.87500000E-01	 5.00000000E-01	 0.00000000E+00
	 3.87500000E-01	 4.87500000E-01	 0.00000000E+00
	 3.87500000E-01	 4.87500000E-01	 1.00000000E+00
	 3.87500000E-01	 5.00000000E-01	 1.00000000E+00
	 3.75000000E-01	 5.00000000E-01	 0.00000000E+00
	 3.75000000E-01	 4.87500000E-01	 0.00000000E+00
	 3.75000000E-01	 4.87500000E-01	 1.00000000E+00
	 3.75000000E-01	 5.00000000E-01	 1.00000000E+00
	 3.62500000E-01	 5.00000000E-01	 0.00000000E+00
	 3.62500000E-01	 4.87500000E-01	 0.00000000E+00
	 3.62500000E-01	 4.87500000E-01	 1.00000000E+00
	 3.62500000E-01	 5.00000000E-01	 1.00000000E+00
	 3.50000000E-01	 5.00000000E-01	 0.00000000E+00
	 3.50000000E-01	 4.87500000E-01	 0.00000000E+00
	 3.50000000E-01	 4.87500000E-01	 1.00000000E+00
	 3.50000000E-01	 5.00000000E-01	 1.00000000E+00
	 3.37500000E-01	 5.00000000E-01	 0.00000000E+00
	 3.37500000E-01	 4.87500000E-01	 0.00000000E+00
	 3.37500000E-01	 4.87500000E-01	 1.00000000E+00
	 3.37500000E-01	 5.00000000E-01	 1.00000000E+00
	 3.25000000E-01	 5.00000000E-01	 0.00000000E+00
	 3.25000000E-01	 4.87500000E-01	 0.00000000E+00
	 3.25000000E-01	 4.87500000E-01	 1.00000000E+00
	 3.25000000E-01	 5.00000000E-01	 1.00000000E+00
	 3.12500000E-01	 5.00000000E-01	 0.00000000E+00
	 3.12500000E-01	 4.87500000E-01	 0.00000000E+00
	 3.12500000E-01	 4.87500000E-01	 1.00000000E+00
	 3.12500000E-01	 5.00000000E-01	 1.00000000E+00
	 3.00000000E-01	 5.00000000E-01	 0.00000000E+00
	 3.00000000E-01	 4.87500000E-01	 0.00000000E+00
	 3.00000000E-01	 4.87500000E-01	 1.00000000E+00
	 3.00000000E-01	 5.00000000E-01	 1.00000000E+00
	 2.87500000E-01	 5.00000000E-01	 0.00000000E+00
	 2.87500000E-01	 4.87500000E-01	 0.00000000E+00
	 2.87500000E-01	 4.87500000E-01	 1.00000000E+00
	 2.87500000E-01	 5.00000000E-01	 1.00000000E+00
	 2.75000000E-01	 5.00000000E-01	 0.00000000E+00
	 2.75000000E-01	 4.87500000E-01	 0.00000000E+00
	 2.75000000E-01	 4.87500000E-01	 1.00000000E+00
	 2.75000000E-01	 5.00000000E-01	 1.00000000E+00
	 2.62500000E-01	 5.00000000E-01	 0.00000000E+00
	 2.62500000E-01	 4.87500000E-01	 0.00000000E+00
	 2.62500000E-01	 4.87500000E-01	 1.00000000E+00
	 2.62500000E-01	 5.00000000E-01	 1.00000000E+00
	 2.50000000E-01	 5.00000000E-01	 0.00000000E+00
	 2.50000000E-01	 4.87500000E-01	 0.00000000E+00
	 2.50000000E-01	 4.87500000E-01	 1.00000000E+00
	 2.50000000E-01	 5.00000000E-01	 1.00000000E+00
	 2.37500000E-01	 5.00000000E-01	 0.00000000E+00
	 2.37500000E-01	 4.87500000E-01	 0.00000000E+00
	 2.37500000E-01	 4.87500000E-01	 1.00000000E+00
	 2.37500000E-01	 5.00000000E-01	 1.00000000E+00
	 2.25000000E-01	 5.00000000E-01	 0.00000000E+00
	 2.25000000E-01	 4.87500000E-01	 0.00000000E+00
	 2.25000000E-01	 4.87500000E-01	 1.00000000E+00
	 2.25000000E-01	 5.00000000E-01	 1.00000000E+00
	 2.12500000E-01	 5.00000000E-01	 0.00000000E+00
	 2.12500000E-01	 4.87500000E-01	 0.00000000E+00
	 2.12500000E-01	 4.87500000E-01	 1.00000000E+00
	 2.12500000E-01	 5.00000000E-01	 1.00000000E+00
	 2.00000000E-01	 5.00000000E-01	 0.00000000E+00
	 2.00000000E-01	 4.87500000E-01	 0.00000000E+00
	 2.00000000E-01	 4.87500000E-01	 1.00000000E+00
	 2.00000000E-01	 5.00000000E-01	 1.00000000E+00
	 1.87500000E-01	 5.00000000E-01	 0.00000000E+00
	 1.87500000E-01	 4.87500000E-01	 0.00000000E+00
	 1.87500000E-01	 4.87500000E-01	 1.00000000E+00
	 1.87500000E-01	 5.00000000E-01	 1.00000000E+00
	 1.75000000E-01	 5.00000000E-01	 0.00000000E+00
	 1.75000000E-01	 4.87500000E-01	 0.00000000E+00
	 1.75000000E-01	 4.87500000E-01	 1.00000000E+00
	 1.75000000E-01	 5.00000000E-01	 1.00000000E+00
	 1.62500000E-01	 5.00000000E-01	 0.00000000E+00
	 1.62500000E-01	 4.87500000E-01	 0.00000000E+00
	 1.62500000E-01	 4.87500000E-01	 1.00000000E+00
	 1.62500000E-01	 5.00000000E-01	 1.00000000E+00
	 1.50000000E-01	 5.00000000E-01	 0.00000000E+00
	 1.50000000E-01	 4.87500000E-01	 0.00000000E+00
	 1.50000000E-01	 4.87500000E-01	 1.00000000E+00
	 1.50000000E-01	 5.00000000E-01	 1.00000000E+00
	 1.37500000E-01	 5.00000000E-01	 0.00000000E+00
	 1.37500000E-01	 4.87500000E-01	 0.00000000E+00
	 1.37500000E-01	 4.87500000E-01	 1.00000000E+00
	 1.37500000E-01	 5.00000000E-01	 1.00000000E+00
	 1.25000000E-01	 5.00000000E-01	 0.00000000E+00
	 1.25000000E-01	 4.87500000E-01	 0.00000000E+00
	 1.25000000E-01	 4.87500000E-01	 1.00000000E+00
	 1.25000000E-01	 5.00000000E-01	 1.00000000E+00
	 1.12500000E-01	 5.00000000E-01	 0.00000000E+00
	 1.12500000E-01	 4.87500000E-01	 0.00000000E+00
	 1.12500000E-01	 4.87500000E-01	 1.00000000E+00
	 1.12500000E-01	 5.00000000E-01	 1.00000000E+00
	 1.00000000E-01	 5.00000000E-01	 0.00000000E+00
	 1.00000000E-01	 4.87500000E-01	 0.00000000E+00
	 1.00000000E-01	 4.87500000E-01	 1.00000000E+00
	 1.00000000E-01	 5.00000000E-01	 1.00000000E+00
	 8.75000000E-02	 5.00000000E-01	 0.00000000E+00
	 8.75000000E-02	 4.87500000E-01	 0.00000000E+00
	 8.75000000E-02	 4.87500000E-01	 1.00000000E+00
	 8.75000000E-02	 5.00000000E-01	 1.00000000E+00
	 7.50000000E-02	 5.00000000E-01	 0.00000000E+00
	 7.50000000E-02	 4.87500000E-01	 0.00000000E+00
	 7.50000000E-02	 4.87500000E-01	 1.00000000E+00
	 7.50000000E-02	 5.00000000E-01	 1.00000000E+00
	 6.25000000E-02	 5.00000000E-01	 0.00000000E+00
	 6.25000000E-02	 4.87500000E-01	 0.00000000E+00
	 6.25000000E-02	 4.87500000E-01	 1.00000000E+00
	 6.25000000E-02	 5.00000000E-01	 1.00000000E+00
	 5.00000000E-02	 5.00000000E-01	 0.00000000E+00
	 5.00000000E-02	 4.87500000E-01	 0.00000000E+00
	 5.00000000E-02	 4.87500000E-01	 1.00000000E+00
	 5.00000000E-02	 5.00000000E-01	 1.00000000E+00
	 3.75000000E-02	 5.00000000E-01	 0.00000000E+00
	 3.75000000E-02	 4.87500000E-01	 0.00000000E+00
	 3.75000000E-02	 4.87500000E-01	 1.00000000E+00
	 3.75000000E-02	 5.00000000E-01	 1.00000000E+00
	 2.50000000E-02	 5.00000000E-01	 0.00000000E+00
	 2.50000000E-02	 4.87500000E-01	 0.00000000E+00
	 2.50000000E-02	 4.87500000E-01	 1.00000000E+00
	 2.50000000E-02	 5.00000000E-01	 1.00000000E+00
	 1.25000000E-02	 5.00000000E-01	 0.00000000E+00
	 1.25000000E-02	 4.87500000E-01	 0.00000000E+00
	 1.25000000E-02	 4.87500000E-01	 1.00000000E+00
	 1.25000000E-02	 5.00000000E-01	 1.00000000E+00
	 0.00000000E+00	 5.00000000E-01	 0.00000000E+00
	 0.00000000E+00	 4.87500000E-01	 0.00000000E+00
	 0.00000000E+00	 4.87500000E-01	 1.00000000E+00
	 0.00000000E+00	 5.00000000E-01	 1.00000000E+00
	 5.00000000E-01	 4.75000000E-01	 0.00000000E+00
	 5.00000000E-01	 4.75000000E-01	 1.00000000E+00
	 4.87500000E-01	 4.75000000E-01	 0.00000000E+00
	 4.87500000E-01	 4.75000000E-01	 1.00000000E+00
	 4.75000000E-01	 4.75000000E-01	 0.00000000E+00
	 4.75000000E-01	 4.75000000E-01	 1.00000000E+00
	 4.62500000E-01	 4.75000000E-01	 0.00000000E+00
	 4.62500000E-01	 4.75000000E-01	 1.00000000E+00
	 4.50000000E-01	 4.75000000E-01	 0.00000000E+00
	 4.50000000E-01	 4.75000000E-01	 1.00000000E+00
	 4.37500000E-01	 4.75000000E-01	 0.00000000E+00
	 4.37500000E-01	 4.75000000E-01	 1.00000000E+00
	 4.25000000E-01	 4.75000000E-01	 0.00000000E+00
	 4.25000000E-01	 4.75000000E-01	 1.00000000E+00
	 4.12500000E-01	 4.75000000E-01	 0.00000000E+00
	 4.12500000E-01	 4.75000000E-01	 1.00000000E+00
	 4.00000000E-01	 4.75000000E-01	 0.00000000E+00
	 4.00000000E-01	 4.75000000E-01	 1.00000000E+00
	 3.87500000E-01	 4.75000000E-01	 0.00000000E+00
	 3.87500000E-01	 4.75000000E-01	 1.00000000E+00
	 3.75000000E-01	 4.75000000E-01	 0.00000000E+00
	 3.75000000E-01	 4.75000000E-01	 1.00000000E+00
	 3.62500000E-01	 4.75000000E-01	 0.00000000E+00
	 3.62500000E-01	 4.75000000E-01	 1.00000000E+00
	 3.50000000E-01	 4.75000000E-01	 0.00000000E+00
	 3.50000000E-01	 4.75000000E-01	 1.00000000E+00
	 3.37500000E-01	 4.75000000E-01	 0.00000000E+00
	 3.37500000E-01	 4.75000000E-01	 1.00000000E+00
	 3.25000000E-01	 4.75000000E-01	 0.00000000E+00
	 3.25000000E-01	 4.75000000E-01	 1.00000000E+00
	 3.12500000E-01	 4.75000000E-01	 0.00000000E+00
	 3.12500000E-01	 4.75000000E-01	 1.00000000E+00
	 3.00000000E-01	 4.75000000E-01	 0.00000000E+00
	 3.00000000E-01	 4.75000000E-01	 1.00000000E+00
	 2.87500000E-01	 4.75000000E-01	 0.00000000E+00
	 2.87500000E-01	 4.75000000E-01	 1.00000000E+00
	 2.75000000E-01	 4.75000000E-01	 0.00000000E+00
	 2.75000000E-01	 4.75000000E-01	 1.00000000E+00
[...]
POINT_DATA 13122
FIELD V3DF 1
	V3DF 3 13122 double
		 5.20660000E-02	-1.13866000E-01	 0.00000000E+00
		 6.73934000E-02	-1.12863000E-01	 0.00000000E+00
		 6.73934000E-02	-1.12863000E-01	 0.00000000E+00
		 5.20660000E-02	-1.13866000E-01	 0.00000000E+00
		 5.10211000E-02	-1.28542000E-01	 0.00000000E+00
		 6.64029000E-02	-1.27539000E-01	 0.00000000E+00
		 6.64029000E-02	-1.27539000E-01	 0.00000000E+00
		 5.10211000E-02	-1.28542000E-01	 0.00000000E+00
		 4.99901000E-02	-1.43354000E-01	 0.00000000E+00
		 6.54030000E-02	-1.42342000E-01	 0.00000000E+00
		 6.54030000E-02	-1.42342000E-01	 0.00000000E+00
		 4.99901000E-02	-1.43354000E-01	 0.00000000E+00
		 4.89430000E-02	-1.58344000E-01	 0.00000000E+00
		 6.43743000E-02	-1.57282000E-01	 0.00000000E+00
		 6.43743000E-02	-1.57282000E-01	 0.00000000E+00
		 4.89430000E-02	-1.58344000E-01	 0.00000000E+00
		 4.78313000E-02	-1.73513000E-01	 0.00000000E+00
		 6.32711000E-02	-1.72341000E-01	 0.00000000E+00
		 6.32711000E-02	-1.72341000E-01	 0.00000000E+00
		 4.78313000E-02	-1.73513000E-01	 0.00000000E+00
		 4.66633000E-02	-1.88818000E-01	 0.00000000E+00
		 6.20806000E-02	-1.87448000E-01	 0.00000000E+00
		 6.20806000E-02	-1.87448000E-01	 0.00000000E+00
		 4.66633000E-02	-1.88818000E-01	 0.00000000E+00
		 4.51257000E-02	-2.04131000E-01	 0.00000000E+00
		 6.07305000E-02	-2.02590000E-01	 0.00000000E+00
		 6.07305000E-02	-2.02590000E-01	 0.00000000E+00
		 4.51257000E-02	-2.04131000E-01	 0.00000000E+00
		 4.36442000E-02	-2.19207000E-01	 0.00000000E+00
		 5.92583000E-02	-2.17683000E-01	 0.00000000E+00
		 5.92583000E-02	-2.17683000E-01	 0.00000000E+00
		 4.36442000E-02	-2.19207000E-01	 0.00000000E+00
		 4.24136000E-02	-2.33956000E-01	 0.00000000E+00
		 5.76854000E-02	-2.32522000E-01	 0.00000000E+00
		 5.76854000E-02	-2.32522000E-01	 0.00000000E+00
		 4.24136000E-02	-2.33956000E-01	 0.00000000E+00
		 4.13919000E-02	-2.48211000E-01	 0.00000000E+00
		 5.57300000E-02	-2.46836000E-01	 0.00000000E+00
		 5.57300000E-02	-2.46836000E-01	 0.00000000E+00
		 4.13919000E-02	-2.48211000E-01	 0.00000000E+00
		 4.02286000E-02	-2.61658000E-01	 0.00000000E+00
		 5.36660000E-02	-2.60210000E-01	 0.00000000E+00
		 5.36660000E-02	-2.60210000E-01	 0.00000000E+00
		 4.02286000E-02	-2.61658000E-01	 0.00000000E+00
		 3.82240000E-02	-2.74417000E-01	 0.00000000E+00
		 5.19843000E-02	-2.72357000E-01	 0.00000000E+00
		 5.19843000E-02	-2.72357000E-01	 0.00000000E+00
		 3.82240000E-02	-2.74417000E-01	 0.00000000E+00
		 3.50838000E-02	-2.86687000E-01	 0.00000000E+00
		 5.00535000E-02	-2.83552000E-01	 0.00000000E+00
		 5.00535000E-02	-2.83552000E-01	 0.00000000E+00
		 3.50838000E-02	-2.86687000E-01	 0.00000000E+00
		 3.15530000E-02	-2.97755000E-01	 0.00000000E+00
		 4.67011000E-02	-2.94178000E-01	 0.00000000E+00
		 4.67011000E-02	-2.94178000E-01	 0.00000000E+00
		 3.15530000E-02	-2.97755000E-01	 0.00000000E+00
		 2.84593000E-02	-3.06793000E-01	 0.00000000E+00
		 4.28803000E-02	-3.03461000E-01	 0.00000000E+00
		 4.28803000E-02	-3.03461000E-01	 0.00000000E+00
		 2.84593000E-02	-3.06793000E-01	 0.00000000E+00
		 2.53746000E-02	-3.13625000E-01	 0.00000000E+00
		 3.94916000E-02	-3.10345000E-01	 0.00000000E+00
		 3.94916000E-02	-3.10345000E-01	 0.00000000E+00
		 2.53746000E-02	-3.13625000E-01	 0.00000000E+00
		 2.22226000E-02	-3.18176000E-01	 0.00000000E+00
		 3.59035000E-02	-3.14787000E-01	 0.00000000E+00
		 3.59035000E-02	-3.14787000E-01	 0.00000000E+00
		 2.22226000E-02	-3.18176000E-01	 0.00000000E+00
		 1.90308000E-02	-3.20374000E-01	 0.00000000E+00
		 3.22332000E-02	-3.16931000E-01	 0.00000000E+00
		 3.22332000E-02	-3.16931000E-01	 0.00000000E+00
		 1.90308000E-02	-3.20374000E-01	 0.00000000E+00
		 1.58465000E-02	-3.20186000E-01	 0.00000000E+00
		 2.85354000E-02	-3.16757000E-01	 0.00000000E+00
		 2.85354000E-02	-3.16757000E-01	 0.00000000E+00
		 1.58465000E-02	-3.20186000E-01	 0.00000000E+00
		 1.27159000E-02	-3.17519000E-01	 0.00000000E+00
		 2.48318000E-02	-3.14171000E-01	 0.00000000E+00
		 2.48318000E-02	-3.14171000E-01	 0.00000000E+00
		 1.27159000E-02	-3.17519000E-01	 0.00000000E+00
		 9.73498000E-03	-3.12346000E-01	 0.00000000E+00
		 2.12536000E-02	-3.09148000E-01	 0.00000000E+00
		 2.12536000E-02	-3.09148000E-01	 0.00000000E+00
		 9.73498000E-03	-3.12346000E-01	 0.00000000E+00
		 6.96156000E-03	-3.04824000E-01	 0.00000000E+00
		 1.78321000E-02	-3.01843000E-01	 0.00000000E+00
		 1.78321000E-02	-3.01843000E-01	 0.00000000E+00
		 6.96156000E-03	-3.04824000E-01	 0.00000000E+00
		 4.39312000E-03	-2.95199000E-01	 0.00000000E+00
		 1.46168000E-02	-2.92477000E-01	 0.00000000E+00
		 1.46168000E-02	-2.92477000E-01	 0.00000000E+00
		 4.39312000E-03	-2.95199000E-01	 0.00000000E+00
		 2.20858000E-03	-2.83746000E-01	 0.00000000E+00
		 1.16822000E-02	-2.81273000E-01	 0.00000000E+00
		 1.16822000E-02	-2.81273000E-01	 0.00000000E+00
		 2.20858000E-03	-2.83746000E-01	 0.00000000E+00
		 3.57330000E-04	-2.70554000E-01	 0.00000000E+00
		 9.01937000E-03	-2.68437000E-01	 0.00000000E+00
		 9.01937000E-03	-2.68437000E-01	 0.00000000E+00
		 3.57330000E-04	-2.70554000E-01	 0.00000000E+00
		-9.58487000E-04	-2.55756000E-01	 0.00000000E+00
		 6.69386000E-03	-2.54223000E-01	 0.00000000E+00
		 6.69386000E-03	-2.54223000E-01	 0.00000000E+00
		-9.58487000E-04	-2.55756000E-01	 0.00000000E+00
		-1.57560000E-03	-2.39848000E-01	 0.00000000E+00
		 4.97442000E-03	-2.38920000E-01	 0.00000000E+00
		 4.97442000E-03	-2.38920000E-01	 0.00000000E+00
		-1.57560000E-03	-2.39848000E-01	 0.00000000E+00
		-1.83564000E-03	-2.23342000E-01	 0.00000000E+00
		 3.79773000E-03	-2.22854000E-01	 0.00000000E+00
		 3.79773000E-03	-2.22854000E-01	 0.00000000E+00
		-1.83564000E-03	-2.23342000E-01	 0.00000000E+00
		-1.88681000E-03	-2.06560000E-01	 0.00000000E+00
		 2.96079000E-03	-2.06341000E-01	 0.00000000E+00
		 2.96079000E-03	-2.06341000E-01	 0.00000000E+00
		-1.88681000E-03	-2.06560000E-01	 0.00000000E+00
		-1.77197000E-03	-1.89741000E-01	 0.00000000E+00
		 2.39336000E-03	-1.89647000E-01	 0.00000000E+00
		 2.39336000E-03	-1.89647000E-01	 0.00000000E+00
		-1.77197000E-03	-1.89741000E-01	 0.00000000E+00
		-1.59097000E-03	-1.72984000E-01	 0.00000000E+00
		 1.98819000E-03	-1.72949000E-01	 0.00000000E+00
		 1.98819000E-03	-1.72949000E-01	 0.00000000E+00
		-1.59097000E-03	-1.72984000E-01	 0.00000000E+00
		-1.42691000E-03	-1.56332000E-01	 0.00000000E+00
		 1.74972000E-03	-1.56348000E-01	 0.00000000E+00
		 1.74972000E-03	-1.56348000E-01	 0.00000000E+00
		-1.42691000E-03	-1.56332000E-01	 0.00000000E+00
		-1.17328000E-03	-1.39818000E-01	 0.00000000E+00
		 1.59130000E-03	-1.39868000E-01	 0.00000000E+00
		 1.59130000E-03	-1.39868000E-01	 0.00000000E+00
		-1.17328000E-03	-1.39818000E-01	 0.00000000E+00
		-8.60801000E-04	-1.23382000E-01	 0.00000000E+00
		 1.41211000E-03	-1.23439000E-01	 0.00000000E+00
		 1.41211000E-03	-1.23439000E-01	 0.00000000E+00
		-8.60801000E-04	-1.23382000E-01	 0.00000000E+00
		-5.40087000E-04	-1.06927000E-01	 0.00000000E+00
		 1.24727000E-03	-1.06971000E-01	 0.00000000E+00
		 1.24727000E-03	-1.06971000E-01	 0.00000000E+00
		-5.40087000E-04	-1.06927000E-01	 0.00000000E+00
		-2.56896000E-04	-9.03585000E-02	 0.00000000E+00
		 1.06198000E-03	-9.03627000E-02	 0.00000000E+00
		 1.06198000E-03	-9.03627000E-02	 0.00000000E+00
		-2.56896000E-04	-9.03585000E-02	 0.00000000E+00
		-4.93439000E-05	-7.35404000E-02	 0.00000000E+00
		 8.43975000E-04	-7.34884000E-02	 0.00000000E+00
		 8.43975000E-04	-7.34884000E-02	 0.00000000E+00
		-4.93439000E-05	-7.35404000E-02	 0.00000000E+00
		 6.43060000E-05	-5.63046000E-02	 0.00000000E+00
		 5.91640000E-04	-5.61984000E-02	 0.00000000E+00
		 5.91640000E-04	-5.61984000E-02	 0.00000000E+00
		 6.43060000E-05	-5.63046000E-02	 0.00000000E+00
		 8.26338000E-05	-3.84607000E-02	 0.00000000E+00
		 3.25225000E-04	-3.83260000E-02	 0.00000000E+00
		 3.25225000E-04	-3.83260000E-02	 0.00000000E+00
		 8.26338000E-05	-3.84607000E-02	 0.00000000E+00
		 4.85026000E-05	-1.98008000E-02	 0.00000000E+00
		 1.07949000E-04	-1.96882000E-02	 0.00000000E+00
		 1.07949000E-04	-1.96882000E-02	 0.00000000E+00
		 4.85026000E-05	-1.98008000E-02	 0.00000000E+00
		 0.00000000E+00	 0.00000000E+00	 0.00000000E+00
		 0.00000000E+00	 0.00000000E+00	 0.00000000E+00
		 0.00000000E+00	 0.00000000E+00	 0.00000000E+00
		 0.00000000E+00	 0.00000000E+00	 0.00000000E+00
		 8.27790000E-02	-1.11901000E-01	 0.00000000E+00
		 8.27790000E-02	-1.11901000E-01	 0.00000000E+00
		 8.18263000E-02	-1.26563000E-01	 0.00000000E+00
		 8.18263000E-02	-1.26563000E-01	 0.00000000E+00
		 8.08464000E-02	-1.41338000E-01	 0.00000000E+00
		 8.08464000E-02	-1.41338000E-01	 0.00000000E+00
		 7.98204000E-02	-1.56224000E-01	 0.00000000E+00
		 7.98204000E-02	-1.56224000E-01	 0.00000000E+00
		 7.87134000E-02	-1.71197000E-01	 0.00000000E+00
		 7.87134000E-02	-1.71197000E-01	 0.00000000E+00
		 7.75052000E-02	-1.86201000E-01	 0.00000000E+00
		 7.75052000E-02	-1.86201000E-01	 0.00000000E+00
		 7.61536000E-02	-2.01194000E-01	 0.00000000E+00
		 7.61536000E-02	-2.01194000E-01	 0.00000000E+00
		 7.46139000E-02	-2.16066000E-01	 0.00000000E+00
		 7.46139000E-02	-2.16066000E-01	 0.00000000E+00
		 7.28548000E-02	-2.30595000E-01	 0.00000000E+00
		 7.28548000E-02	-2.30595000E-01	 0.00000000E+00
		 7.08476000E-02	-2.44632000E-01	 0.00000000E+00
		 7.08476000E-02	-2.44632000E-01	 0.00000000E+00
		 6.85136000E-02	-2.58028000E-01	 0.00000000E+00
		 6.85136000E-02	-2.58028000E-01	 0.00000000E+00
		 6.59081000E-02	-2.70401000E-01	 0.00000000E+00
		 6.59081000E-02	-2.70401000E-01	 0.00000000E+00
		 6.35928000E-02	-2.81213000E-01	 0.00000000E+00
		 6.35928000E-02	-2.81213000E-01	 0.00000000E+00
		 6.11764000E-02	-2.90792000E-01	 0.00000000E+00
		 6.11764000E-02	-2.90792000E-01	 0.00000000E+00
		 5.74388000E-02	-2.99636000E-01	 0.00000000E+00
		 5.74388000E-02	-2.99636000E-01	 0.00000000E+00
		 5.32921000E-02	-3.06578000E-01	 0.00000000E+00
		 5.32921000E-02	-3.06578000E-01	 0.00000000E+00
		 4.92776000E-02	-3.10904000E-01	 0.00000000E+00
		 4.92776000E-02	-3.10904000E-01	 0.00000000E+00
		 4.50735000E-02	-3.12982000E-01	 0.00000000E+00
		 4.50735000E-02	-3.12982000E-01	 0.00000000E+00
		 4.08614000E-02	-3.12795000E-01	 0.00000000E+00
		 4.08614000E-02	-3.12795000E-01	 0.00000000E+00
		 3.65955000E-02	-3.10248000E-01	 0.00000000E+00
		 3.65955000E-02	-3.10248000E-01	 0.00000000E+00
		 3.24373000E-02	-3.05337000E-01	 0.00000000E+00
		 3.24373000E-02	-3.05337000E-01	 0.00000000E+00
		 2.83976000E-02	-2.98212000E-01	 0.00000000E+00
		 2.83976000E-02	-2.98212000E-01	 0.00000000E+00
		 2.45577000E-02	-2.89072000E-01	 0.00000000E+00
		 2.45577000E-02	-2.89072000E-01	 0.00000000E+00
		 2.09670000E-02	-2.78119000E-01	 0.00000000E+00
		 2.09670000E-02	-2.78119000E-01	 0.00000000E+00
		 1.76746000E-02	-2.65578000E-01	 0.00000000E+00
		 1.76746000E-02	-2.65578000E-01	 0.00000000E+00
		 1.47310000E-02	-2.51759000E-01	 0.00000000E+00
		 1.47310000E-02	-2.51759000E-01	 0.00000000E+00
		 1.22138000E-02	-2.36935000E-01	 0.00000000E+00
		 1.22138000E-02	-2.36935000E-01	 0.00000000E+00
		 1.00477000E-02	-2.21331000E-01	 0.00000000E+00
		 1.00477000E-02	-2.21331000E-01	 0.00000000E+00
		 8.25114000E-03	-2.05209000E-01	 0.00000000E+00
		 8.25114000E-03	-2.05209000E-01	 0.00000000E+00
		 6.88777000E-03	-1.88818000E-01	 0.00000000E+00
		 6.88777000E-03	-1.88818000E-01	 0.00000000E+00
		 5.81334000E-03	-1.72345000E-01	 0.00000000E+00
		 5.81334000E-03	-1.72345000E-01	 0.00000000E+00
		 4.93879000E-03	-1.55888000E-01	 0.00000000E+00
		 4.93879000E-03	-1.55888000E-01	 0.00000000E+00
		 4.19518000E-03	-1.39463000E-01	 0.00000000E+00
		 4.19518000E-03	-1.39463000E-01	 0.00000000E+00
		 3.51786000E-03	-1.23047000E-01	 0.00000000E+00
		 3.51786000E-03	-1.23047000E-01	 0.00000000E+00
		 2.88192000E-03	-1.06579000E-01	 0.00000000E+00
		 2.88192000E-03	-1.06579000E-01	 0.00000000E+00
		 2.26135000E-03	-8.99612000E-02	 0.00000000E+00
		 2.26135000E-03	-8.99612000E-02	 0.00000000E+00
		 1.65243000E-03	-7.30762000E-02	 0.00000000E+00
		 1.65243000E-03	-7.30762000E-02	 0.00000000E+00
		 1.06933000E-03	-5.57953000E-02	 0.00000000E+00
		 1.06933000E-03	-5.57953000E-02	 0.00000000E+00
		 5.45055000E-04	-3.79751000E-02	 0.00000000E+00
		 5.45055000E-04	-3.79751000E-02	 0.00000000E+00
		 1.59102000E-04	-1.94597000E-02	 0.00000000E+00
		 1.59102000E-04	-1.94597000E-02	 0.00000000E+00
		 0.00000000E+00	 0.00000000E+00	 0.00000000E+00
		 0.00000000E+00	 0.00000000E+00	 0.00000000E+00
		 9.82106000E-02	-1.10972000E-01	 0.00000000E+00
		 9.82106000E-02	-1.10972000E-01	 0.00000000E+00
		 9.72758000E-02	-1.25606000E-01	 0.00000000E+00
		 9.72758000E-02	-1.25606000E-01	 0.00000000E+00
		 9.62969000E-02	-1.40336000E-01	 0.00000000E+00
		 9.62969000E-02	-1.40336000E-01	 0.00000000E+00
		 9.52541000E-02	-1.55152000E-01	 0.00000000E+00
		 9.52541000E-02	-1.55152000E-01	 0.00000000E+00
		 9.41172000E-02	-1.70027000E-01	 0.00000000E+00
		 9.41172000E-02	-1.70027000E-01	 0.00000000E+00
		 9.28605000E-02	-1.84906000E-01	 0.00000000E+00
		 9.28605000E-02	-1.84906000E-01	 0.00000000E+00
		 9.14452000E-02	-1.99729000E-01	 0.00000000E+00
		 9.14452000E-02	-1.99729000E-01	 0.00000000E+00
		 8.98160000E-02	-2.14374000E-01	 0.00000000E+00
		 8.98160000E-02	-2.14374000E-01	 0.00000000E+00
		 8.79361000E-02	-2.28647000E-01	 0.00000000E+00
		 8.79361000E-02	-2.28647000E-01	 0.00000000E+00
		 8.57923000E-02	-2.42383000E-01	 0.00000000E+00
		 8.57923000E-02	-2.42383000E-01	 0.00000000E+00
		 8.33552000E-02	-2.55457000E-01	 0.00000000E+00
		 8.33552000E-02	-2.55457000E-01	 0.00000000E+00
		 8.07047000E-02	-2.67670000E-01	 0.00000000E+00
		 8.07047000E-02	-2.67670000E-01	 0.00000000E+00
		 7.74300000E-02	-2.78620000E-01	 0.00000000E+00
		 7.74300000E-02	-2.78620000E-01	 0.00000000E+00
		 7.46634000E-02	-2.87776000E-01	 0.00000000E+00
		 7.46634000E-02	-2.87776000E-01	 0.00000000E+00
		 7.12469000E-02	-2.95710000E-01	 0.00000000E+00
		 7.12469000E-02	-2.95710000E-01	 0.00000000E+00
		 6.66129000E-02	-3.02281000E-01	 0.00000000E+00
		 6.66129000E-02	-3.02281000E-01	 0.00000000E+00
		 6.21734000E-02	-3.06501000E-01	 0.00000000E+00
		 6.21734000E-02	-3.06501000E-01	 0.00000000E+00
		 5.75052000E-02	-3.08502000E-01	 0.00000000E+00
		 5.75052000E-02	-3.08502000E-01	 0.00000000E+00
		 5.27670000E-02	-3.08298000E-01	 0.00000000E+00
		 5.27670000E-02	-3.08298000E-01	 0.00000000E+00
		 4.79496000E-02	-3.05754000E-01	 0.00000000E+00
		 4.79496000E-02	-3.05754000E-01	 0.00000000E+00
		 4.32187000E-02	-3.00932000E-01	 0.00000000E+00
		 4.32187000E-02	-3.00932000E-01	 0.00000000E+00
		 3.85780000E-02	-2.93965000E-01	 0.00000000E+00
		 3.85780000E-02	-2.93965000E-01	 0.00000000E+00
		 3.41217000E-02	-2.85040000E-01	 0.00000000E+00
		 3.41217000E-02	-2.85040000E-01	 0.00000000E+00
		 2.99003000E-02	-2.74362000E-01	 0.00000000E+00
		 2.99003000E-02	-2.74362000E-01	 0.00000000E+00
		 2.59741000E-02	-2.62156000E-01	 0.00000000E+00
		 2.59741000E-02	-2.62156000E-01	 0.00000000E+00
		 2.23876000E-02	-2.48696000E-01	 0.00000000E+00
		 2.23876000E-02	-2.48696000E-01	 0.00000000E+00
		 1.91769000E-02	-2.34221000E-01	 0.00000000E+00
		 1.91769000E-02	-2.34221000E-01	 0.00000000E+00
		 1.63483000E-02	-2.18971000E-01	 0.00000000E+00
		 1.63483000E-02	-2.18971000E-01	 0.00000000E+00
		 1.39006000E-02	-2.03228000E-01	 0.00000000E+00
		 1.39006000E-02	-2.03228000E-01	 0.00000000E+00
		 1.18116000E-02	-1.87198000E-01	 0.00000000E+00
		 1.18116000E-02	-1.87198000E-01	 0.00000000E+00
		 1.00167000E-02	-1.71005000E-01	 0.00000000E+00
		 1.00167000E-02	-1.71005000E-01	 0.00000000E+00
		 8.45677000E-03	-1.54742000E-01	 0.00000000E+00
		 8.45677000E-03	-1.54742000E-01	 0.00000000E+00
		 7.06990000E-03	-1.38446000E-01	 0.00000000E+00
		 7.06990000E-03	-1.38446000E-01	 0.00000000E+00
		 5.80462000E-03	-1.22113000E-01	 0.00000000E+00
		 5.80462000E-03	-1.22113000E-01	 0.00000000E+00
		 4.62810000E-03	-1.05697000E-01	 0.00000000E+00
		 4.62810000E-03	-1.05697000E-01	 0.00000000E+00
		 3.52147000E-03	-8.91196000E-02	 0.00000000E+00
		 3.52147000E-03	-8.91196000E-02	 0.00000000E+00
		 2.48836000E-03	-7.22847000E-02	 0.00000000E+00
		 2.48836000E-03	-7.22847000E-02	 0.00000000E+00
		 1.55457000E-03	-5.50864000E-02	 0.00000000E+00
		 1.55457000E-03	-5.50864000E-02	 0.00000000E+00
		 7.64545000E-04	-3.74077000E-02	 0.00000000E+00
		 7.64545000E-04	-3.74077000E-02	 0.00000000E+00
		 2.12139000E-04	-1.91182000E-02	 0.00000000E+00
		 2.12139000E-04	-1.91182000E-02	 0.00000000E+00
		 0.00000000E+00	 0.00000000E+00	 0.00000000E+00
		 0.00000000E+00	 0.00000000E+00	 0.00000000E+00
		 1.13658000E-01	-1.10060000E-01	 0.00000000E+00
		 1.13658000E-01	-1.10060000E-01	 0.00000000E+00
		 1.12719000E-01	-1.24649000E-01	 0.00000000E+00
		 1.12719000E-01	-1.24649000E-01	 0.00000000E+00
		 1.11718000E-01	-1.39316000E-01	 0.00000000E+00
		 1.11718000E-01	-1.39316000E-01	 0.00000000E+00
		 1.10634000E-01	-1.54045000E-01	 0.00000000E+00
		 1.10634000E-01	-1.54045000E-01	 0.00000000E+00
		 1.09437000E-01	-1.68802000E-01	 0.00000000E+00
		 1.09437000E-01	-1.68802000E-01	 0.00000000E+00
		 1.08096000E-01	-1.83531000E-01	 0.00000000E+00
		 1.08096000E-01	-1.83531000E-01	 0.00000000E+00
		 1.06571000E-01	-1.98157000E-01	 0.00000000E+00
		 1.06571000E-01	-1.98157000E-01	 0.00000000E+00
		 1.04811000E-01	-2.12560000E-01	 0.00000000E+00
		 1.04811000E-01	-2.12560000E-01	 0.00000000E+00
		 1.02782000E-01	-2.26574000E-01	 0.00000000E+00
		 1.02782000E-01	-2.26574000E-01	 0.00000000E+00
		 1.00470000E-01	-2.40038000E-01	 0.00000000E+00
		 1.00470000E-01	-2.40038000E-01	 0.00000000E+00
		 9.78393000E-02	-2.52797000E-01	 0.00000000E+00
		 9.78393000E-02	-2.52797000E-01	 0.00000000E+00
		 9.49031000E-02	-2.64630000E-01	 0.00000000E+00
		 9.49031000E-02	-2.64630000E-01	 0.00000000E+00
		 9.15248000E-02	-2.75308000E-01	 0.00000000E+00
		 9.15248000E-02	-2.75308000E-01	 0.00000000E+00
		 8.79316000E-02	-2.84316000E-01	 0.00000000E+00
		 8.79316000E-02	-2.84316000E-01	 0.00000000E+00
		 8.39604000E-02	-2.91684000E-01	 0.00000000E+00
		 8.39604000E-02	-2.91684000E-01	 0.00000000E+00
		 7.93361000E-02	-2.97683000E-01	 0.00000000E+00
		 7.93361000E-02	-2.97683000E-01	 0.00000000E+00
		 7.44864000E-02	-3.01681000E-01	 0.00000000E+00
		 7.44864000E-02	-3.01681000E-01	 0.00000000E+00
		 6.94138000E-02	-3.03545000E-01	 0.00000000E+00
		 6.94138000E-02	-3.03545000E-01	 0.00000000E+00
		 6.41308000E-02	-3.03281000E-01	 0.00000000E+00
		 6.41308000E-02	-3.03281000E-01	 0.00000000E+00
		 5.88214000E-02	-3.00704000E-01	 0.00000000E+00
		 5.88214000E-02	-3.00704000E-01	 0.00000000E+00
		 5.35262000E-02	-2.95950000E-01	 0.00000000E+00
		 5.35262000E-02	-2.95950000E-01	 0.00000000E+00
		 4.83084000E-02	-2.89119000E-01	 0.00000000E+00
		 4.83084000E-02	-2.89119000E-01	 0.00000000E+00
		 4.32556000E-02	-2.80394000E-01	 0.00000000E+00
		 4.32556000E-02	-2.80394000E-01	 0.00000000E+00
		 3.84252000E-02	-2.69974000E-01	 0.00000000E+00
		 3.84252000E-02	-2.69974000E-01	 0.00000000E+00
		 3.38794000E-02	-2.58084000E-01	 0.00000000E+00
		 3.38794000E-02	-2.58084000E-01	 0.00000000E+00
		 2.96622000E-02	-2.44973000E-01	 0.00000000E+00
		 2.96622000E-02	-2.44973000E-01	 0.00000000E+00
		 2.58022000E-02	-2.30871000E-01	 0.00000000E+00
		 2.58022000E-02	-2.30871000E-01	 0.00000000E+00
		 2.23193000E-02	-2.16010000E-01	 0.00000000E+00
		 2.23193000E-02	-2.16010000E-01	 0.00000000E+00
		 1.92122000E-02	-2.00631000E-01	 0.00000000E+00
		 1.92122000E-02	-2.00631000E-01	 0.00000000E+00
		 1.64515000E-02	-1.84918000E-01	 0.00000000E+00
		 1.64515000E-02	-1.84918000E-01	 0.00000000E+00
		 1.39927000E-02	-1.68993000E-01	 0.00000000E+00
		 1.39927000E-02	-1.68993000E-01	 0.00000000E+00
		 1.17893000E-02	-1.52946000E-01	 0.00000000E+00
		 1.17893000E-02	-1.52946000E-01	 0.00000000E+00
		 9.79238000E-03	-1.36819000E-01	 0.00000000E+00
		 9.79238000E-03	-1.36819000E-01	 0.00000000E+00
		 7.96072000E-03	-1.20616000E-01	 0.00000000E+00
		 7.96072000E-03	-1.20616000E-01	 0.00000000E+00
		 6.26588000E-03	-1.04305000E-01	 0.00000000E+00
		 6.26588000E-03	-1.04305000E-01	 0.00000000E+00