    1C
    1C
    1UUSER
    1UDATE              25.january.2020     
    1UTIME              13:59:48
    1UHOST
    1UPGM               CalculiX
    1UDIR
    1UDBN
    2C                                                                   1
 -1         1 0.00000E+00 0.00000E+00 0.00000E+00
 -1         2 2.43900E-02 0.00000E+00 0.00000E+00
 -1         3 1.85600E-02 1.89200E-02 0.00000E+00
 -1         4 0.00000E+00 2.43900E-02 0.00000E+00
 -1         5 4.87800E-02 0.00000E+00 0.00000E+00
 -1         6 3.76900E-02 1.59400E-02 0.00000E+00
 -1         7 3.65900E-02 3.65900E-02 0.00000E+00
 -1         8 1.26300E-02 3.65900E-02 0.00000E+00
 -1         9 0.00000E+00 4.87800E-02 0.00000E+00
 -1        10 7.31700E-02 0.00000E+00 0.00000E+00
 -1        11 6.01500E-02 2.42100E-02 0.00000E+00
 -1        12 5.28400E-02 4.87900E-02 0.00000E+00
 -1        13 2.46100E-02 4.87700E-02 0.00000E+00
 -1        14 1.23100E-02 6.06700E-02 0.00000E+00
 -1        15 0.00000E+00 7.31700E-02 0.00000E+00
 -1        16 9.75600E-02 0.00000E+00 0.00000E+00
 -1        17 8.87400E-02 2.06800E-02 0.00000E+00
 -1        18 8.23600E-02 4.71000E-02 0.00000E+00
 -1        19 6.64100E-02 6.80300E-02 0.00000E+00
 -1        20 4.69500E-02 6.80500E-02 0.00000E+00
 -1        21 2.87600E-02 6.53500E-02 0.00000E+00
 -1        22 2.09600E-02 8.56400E-02 0.00000E+00
 -1        23 0.00000E+00 9.75600E-02 0.00000E+00
 -1        24 1.21950E-01 0.00000E+00 0.00000E+00
 -1        25 1.10070E-01 1.69900E-02 0.00000E+00
 -1        26 1.07800E-01 3.66900E-02 0.00000E+00
 -1        27 8.94600E-02 7.22900E-02 0.00000E+00
 -1        28 1.06130E-01 5.94200E-02 0.00000E+00
 -1        29 5.11500E-02 8.69000E-02 0.00000E+00
 -1        30 7.53500E-02 8.49100E-02 0.00000E+00
 -1        31 3.64900E-02 1.05020E-01 0.00000E+00
 -1        32 1.82000E-02 1.11460E-01 0.00000E+00
 -1        33 0.00000E+00 1.21950E-01 0.00000E+00
 -1        34 1.46340E-01 0.00000E+00 0.00000E+00
 -1        35 1.34270E-01 2.75900E-02 0.00000E+00
 -1        36 1.23010E-01 4.98100E-02 0.00000E+00
 -1        37 1.09030E-01 8.12700E-02 0.00000E+00
 -1        38 9.34000E-02 9.39300E-02 0.00000E+00
 -1        39 1.25120E-01 6.93500E-02 0.00000E+00
 -1        40 7.57600E-02 1.03320E-01 0.00000E+00
 -1        41 5.67800E-02 1.16300E-01 0.00000E+00
 -1        42 3.53500E-02 1.24790E-01 0.00000E+00
 -1        43 1.65000E-02 1.34150E-01 0.00000E+00
 -1        44 0.00000E+00 1.46340E-01 0.00000E+00
 -1        45 1.70730E-01 0.00000E+00 0.00000E+00
 -1        46 1.59650E-01 1.88000E-02 0.00000E+00
 -1        47 1.62470E-01 4.40200E-02 0.00000E+00
 -1        48 1.40360E-01 5.69000E-02 0.00000E+00
 -1        49 1.26860E-01 8.93300E-02 0.00000E+00
 -1        50 1.12200E-01 1.03660E-01 0.00000E+00
 -1        51 9.70800E-02 1.18480E-01 0.00000E+00
 -1        52 1.42360E-01 8.13600E-02 0.00000E+00
 -1        53 7.91500E-02 1.20060E-01 0.00000E+00
 -1        54 6.77100E-02 1.33240E-01 0.00000E+00
 -1        55 5.17100E-02 1.41340E-01 0.00000E+00
 -1        56 3.24200E-02 1.41670E-01 0.00000E+00
 -1        57 1.97600E-02 1.58730E-01 0.00000E+00
 -1        58 0.00000E+00 1.70730E-01 0.00000E+00
 -1        59 1.95120E-01 0.00000E+00 0.00000E+00
 -1        60 1.84430E-01 2.24000E-02 0.00000E+00
 -1        61 1.91170E-01 5.02600E-02 0.00000E+00
 -1        62 1.54910E-01 6.92800E-02 0.00000E+00
 -1        63 1.72560E-01 6.47800E-02 0.00000E+00
 -1        64 1.32610E-01 1.08150E-01 0.00000E+00
 -1        65 1.47220E-01 9.80600E-02 0.00000E+00
 -1        66 1.12640E-01 1.31260E-01 0.00000E+00
 -1        67 8.83800E-02 1.34860E-01 0.00000E+00
 -1        68 1.65540E-01 8.48800E-02 0.00000E+00
 -1        69 7.29900E-02 1.49870E-01 0.00000E+00
 -1        70 3.93000E-02 1.57470E-01 0.00000E+00
 -1        71 5.71700E-02 1.66350E-01 0.00000E+00
 -1        72 3.52300E-02 1.79600E-01 0.00000E+00
 -1        73 1.48500E-02 1.81180E-01 0.00000E+00
 -1        74 0.00000E+00 1.95120E-01 0.00000E+00
 -1        75 2.19510E-01 0.00000E+00 0.00000E+00
 -1        76 2.07320E-01 1.23400E-02 0.00000E+00
 -1        77 2.04520E-01 3.16000E-02 0.00000E+00
 -1        78 1.89030E-01 7.53700E-02 0.00000E+00
 -1        79 2.13860E-01 6.62200E-02 0.00000E+00
 -1        80 2.12220E-01 4.77400E-02 0.00000E+00
 -1        81 1.51330E-01 1.18670E-01 0.00000E+00
 -1        82 1.34930E-01 1.27700E-01 0.00000E+00
 -1        83 1.65390E-01 1.05440E-01 0.00000E+00
 -1        84 1.28460E-01 1.45240E-01 0.00000E+00
 -1        85 9.52200E-02 1.56200E-01 0.00000E+00
 -1        86 1.12420E-01 1.55690E-01 0.00000E+00
 -1        87 1.87300E-01 9.98900E-02 0.00000E+00
 -1        88 7.77100E-02 1.67330E-01 0.00000E+00
 -1        89 5.27000E-02 1.85700E-01 0.00000E+00
 -1        90 7.04700E-02 1.83350E-01 0.00000E+00
 -1        91 4.32700E-02 2.06260E-01 0.00000E+00
 -1        92 1.94300E-02 2.01690E-01 0.00000E+00
 -1        93 0.00000E+00 2.19510E-01 0.00000E+00
 -1        94 2.43900E-01 0.00000E+00 0.00000E+00
 -1        95 2.27900E-01 2.57700E-02 0.00000E+00
 -1        96 2.06350E-01 8.59500E-02 0.00000E+00
 -1        97 2.30440E-01 5.19600E-02 0.00000E+00
 -1        98 2.29770E-01 8.50300E-02 0.00000E+00
 -1        99 2.38630E-01 6.70800E-02 0.00000E+00
 -1       100 1.75880E-01 1.25600E-01 0.00000E+00
 -1       101 1.52230E-01 1.46830E-01 0.00000E+00
 -1       102 1.30090E-01 1.64700E-01 0.00000E+00
 -1       103 1.09890E-01 1.73530E-01 0.00000E+00
 -1       104 9.27200E-02 1.80880E-01 0.00000E+00
 -1       105 2.11800E-01 1.03250E-01 0.00000E+00
 -1       106 1.98510E-01 1.17950E-01 0.00000E+00
 -1       107 6.16900E-02 2.00430E-01 0.00000E+00
 -1       108 8.07400E-02 1.99480E-01 0.00000E+00
 -1       109 2.36000E-02 2.28410E-01 0.00000E+00
 -1       110 4.58300E-02 2.28360E-01 0.00000E+00
 -1       111 6.57900E-02 2.19250E-01 0.00000E+00
 -1       112 0.00000E+00 2.43900E-01 0.00000E+00
 -1       113 2.68290E-01 0.00000E+00 0.00000E+00
 -1       114 2.53700E-01 1.90500E-02 0.00000E+00
 -1       115 2.51330E-01 4.43000E-02 0.00000E+00
 -1       116 2.31950E-01 1.06320E-01 0.00000E+00
 -1       117 2.55990E-01 7.07500E-02 0.00000E+00
 -1       118 2.50950E-01 9.54600E-02 0.00000E+00
 -1       119 1.78890E-01 1.51150E-01 0.00000E+00
 -1       120 1.98870E-01 1.37650E-01 0.00000E+00
 -1       121 1.52430E-01 1.78080E-01 0.00000E+00
 -1       122 1.66310E-01 1.62940E-01 0.00000E+00
 -1       123 1.25910E-01 1.87920E-01 0.00000E+00
 -1       124 1.03040E-01 1.95500E-01 0.00000E+00
 -1       125 2.18770E-01 1.23210E-01 0.00000E+00
 -1       126 9.07000E-02 2.17480E-01 0.00000E+00
 -1       127 3.77700E-02 2.45000E-01 0.00000E+00
 -1       128 1.95200E-02 2.54030E-01 0.00000E+00
 -1       129 5.88000E-02 2.42780E-01 0.00000E+00
 -1       130 7.98200E-02 2.39560E-01 0.00000E+00
 -1       131 0.00000E+00 2.68290E-01 0.00000E+00
 -1       132 2.92680E-01 0.00000E+00 0.00000E+00
 -1       133 2.77100E-01 2.51700E-02 0.00000E+00
 -1       134 2.75170E-01 5.12000E-02 0.00000E+00
 -1       135 2.48500E-01 1.24490E-01 0.00000E+00
 -1       136 2.77510E-01 6.82700E-02 0.00000E+00
 -1       137 2.68870E-01 8.40300E-02 0.00000E+00
 -1       138 2.70850E-01 1.02600E-01 0.00000E+00
 -1       139 1.81700E-01 1.75700E-01 0.00000E+00
 -1       140 1.98340E-01 1.57870E-01 0.00000E+00
 -1       141 2.22990E-01 1.49600E-01 0.00000E+00
 -1       142 1.68990E-01 2.06400E-01 0.00000E+00
 -1       143 1.41800E-01 2.01320E-01 0.00000E+00
 -1       144 1.18350E-01 2.13520E-01 0.00000E+00
 -1       145 9.69400E-02 2.36560E-01 0.00000E+00
 -1       146 5.17900E-02 2.59990E-01 0.00000E+00
 -1       147 3.48100E-02 2.61820E-01 0.00000E+00
 -1       148 2.09700E-02 2.76780E-01 0.00000E+00
 -1       149 7.18200E-02 2.64520E-01 0.00000E+00
 -1       150 9.49400E-02 2.56680E-01 0.00000E+00
 -1       151 0.00000E+00 2.92680E-01 0.00000E+00
 -1       152 3.17070E-01 0.00000E+00 0.00000E+00
 -1       153 3.04430E-01 2.17500E-02 0.00000E+00
 -1       154 2.93550E-01 4.04900E-02 0.00000E+00
 -1       155 2.94610E-01 5.99500E-02 0.00000E+00
 -1       156 2.78460E-01 1.25020E-01 0.00000E+00
 -1       157 2.50810E-01 1.54440E-01 0.00000E+00
 -1       158 2.63190E-01 1.39190E-01 0.00000E+00
 -1       159 2.88930E-01 8.32400E-02 0.00000E+00
 -1       160 2.89400E-01 1.03340E-01 0.00000E+00
 -1       161 1.97460E-01 1.97440E-01 0.00000E+00
 -1       162 2.09260E-01 1.75270E-01 0.00000E+00
 -1       163 2.36090E-01 1.73800E-01 0.00000E+00
 -1       164 1.43350E-01 2.20680E-01 0.00000E+00
 -1       165 1.60950E-01 2.26060E-01 0.00000E+00
 -1       166 1.93310E-01 2.16940E-01 0.00000E+00
 -1       167 1.80680E-01 2.34250E-01 0.00000E+00
 -1       168 1.26740E-01 2.34740E-01 0.00000E+00
 -1       169 1.13550E-01 2.47850E-01 0.00000E+00
 -1       170 4.83000E-02 2.82500E-01 0.00000E+00
 -1       171 2.32200E-02 3.01340E-01 0.00000E+00
 -1       172 8.41700E-02 2.87890E-01 0.00000E+00
 -1       173 6.80600E-02 2.81450E-01 0.00000E+00
 -1       174 9.50000E-02 2.73780E-01 0.00000E+00
 -1       175 1.12350E-01 2.77730E-01 0.00000E+00
 -1       176 0.00000E+00 3.17070E-01 0.00000E+00
 -1       177 3.41460E-01 0.00000E+00 0.00000E+00
 -1       178 3.29310E-01 2.07600E-02 0.00000E+00
 -1       179 3.16450E-01 4.43900E-02 0.00000E+00
 -1       180 3.15830E-01 7.24200E-02 0.00000E+00
 -1       181 2.97970E-01 1.40170E-01 0.00000E+00
 -1       182 3.03890E-01 1.12810E-01 0.00000E+00
 -1       183 2.74990E-01 1.52810E-01 0.00000E+00
 -1       184 2.63390E-01 1.66110E-01 0.00000E+00
 -1       185 2.52480E-01 1.79700E-01 0.00000E+00
 -1       186 3.04780E-01 9.32000E-02 0.00000E+00
 -1       187 2.12440E-01 2.13070E-01 0.00000E+00
 -1       188 2.18800E-01 1.96990E-01 0.00000E+00
 -1       189 2.34890E-01 1.90950E-01 0.00000E+00
 -1       190 1.43140E-01 2.41290E-01 0.00000E+00
 -1       191 1.61410E-01 2.43660E-01 0.00000E+00
 -1       192 2.06070E-01 2.32010E-01 0.00000E+00
 -1       193 2.01230E-01 2.56140E-01 0.00000E+00
 -1       194 1.72640E-01 2.58590E-01 0.00000E+00
 -1       195 1.31040E-01 2.54170E-01 0.00000E+00
 -1       196 1.30030E-01 2.72560E-01 0.00000E+00
 -1       197 4.60500E-02 3.11810E-01 0.00000E+00
 -1       198 6.99100E-02 3.01700E-01 0.00000E+00
 -1       199 2.41300E-02 3.26910E-01 0.00000E+00
 -1       200 9.63800E-02 3.02740E-01 0.00000E+00
 -1       201 1.38110E-01 2.92640E-01 0.00000E+00
 -1       202 1.18100E-01 3.01500E-01 0.00000E+00
 -1       203 0.00000E+00 3.41460E-01 0.00000E+00
 -1       204 3.53790E-01 1.96600E-02 0.00000E+00
 -1       205 3.65850E-01 0.00000E+00 0.00000E+00
 -1       206 3.42280E-01 3.88700E-02 0.00000E+00
 -1       207 3.34620E-01 5.68600E-02 0.00000E+00
 -1       208 3.44910E-01 7.54100E-02 0.00000E+00
 -1       209 3.25750E-01 9.44000E-02 0.00000E+00
 -1       210 3.12330E-01 1.28070E-01 0.00000E+00
 -1       211 3.22570E-01 1.56210E-01 0.00000E+00
 -1       212 2.95370E-01 1.65940E-01 0.00000E+00
 -1       213 3.35880E-01 1.15150E-01 0.00000E+00
 -1       214 2.75310E-01 1.78440E-01 0.00000E+00
 -1       215 2.50960E-01 1.97060E-01 0.00000E+00
 -1       216 2.69560E-01 1.96540E-01 0.00000E+00
 -1       217 2.27060E-01 2.26930E-01 0.00000E+00
 -1       218 2.31960E-01 2.08100E-01 0.00000E+00
 -1       219 1.49260E-01 2.57850E-01 0.00000E+00
 -1       220 2.21130E-01 2.43990E-01 0.00000E+00
 -1       221 1.86140E-01 2.82740E-01 0.00000E+00
 -1       222 2.12720E-01 2.80120E-01 0.00000E+00
 -1       223 2.27710E-01 2.61930E-01 0.00000E+00
 -1       224 1.57130E-01 2.76900E-01 0.00000E+00
 -1       225 4.74500E-02 3.35510E-01 0.00000E+00
 -1       226 6.35400E-02 3.22670E-01 0.00000E+00
 -1       227 8.36200E-02 3.22230E-01 0.00000E+00
 -1       228 2.81600E-02 3.54120E-01 0.00000E+00
 -1       229 1.10220E-01 3.25200E-01 0.00000E+00
 -1       230 1.50320E-01 3.12070E-01 0.00000E+00
 -1       231 1.65000E-01 2.98880E-01 0.00000E+00
 -1       232 1.33410E-01 3.09400E-01 0.00000E+00
 -1       233 0.00000E+00 3.65850E-01 0.00000E+00
 -1       234 3.77880E-01 1.99300E-02 0.00000E+00
 -1       235 3.65880E-01 3.83700E-02 0.00000E+00
 -1       236 3.90240E-01 0.00000E+00 0.00000E+00
 -1       237 3.53660E-01 5.32200E-02 0.00000E+00
 -1       238 3.72380E-01 8.48000E-02 0.00000E+00
 -1       239 3.62900E-01 6.84200E-02 0.00000E+00
 -1       240 3.49190E-01 9.76500E-02 0.00000E+00
 -1       241 3.29380E-01 1.31750E-01 0.00000E+00
 -1       242 3.09680E-01 1.84750E-01 0.00000E+00
 -1       243 3.56660E-01 1.47440E-01 0.00000E+00
 -1       244 3.47490E-01 1.72180E-01 0.00000E+00
 -1       245 3.31220E-01 1.77540E-01 0.00000E+00
 -1       246 2.91670E-01 1.83260E-01 0.00000E+00
 -1       247 3.54390E-01 1.15070E-01 0.00000E+00
 -1       248 3.46830E-01 1.32460E-01 0.00000E+00
 -1       249 2.90340E-01 2.01060E-01 0.00000E+00
 -1       250 2.61640E-01 2.13380E-01 0.00000E+00
 -1       251 2.45930E-01 2.20210E-01 0.00000E+00
 -1       252 2.77810E-01 2.22320E-01 0.00000E+00
 -1       253 2.43580E-01 2.42940E-01 0.00000E+00
 -1       254 1.88780E-01 3.08290E-01 0.00000E+00
 -1       255 2.04780E-01 3.01290E-01 0.00000E+00
 -1       256 2.21290E-01 2.96370E-01 0.00000E+00
 -1       257 2.34820E-01 2.82870E-01 0.00000E+00
 -1       258 2.51800E-01 2.66100E-01 0.00000E+00
 -1       259 7.06800E-02 3.42090E-01 0.00000E+00
 -1       260 5.32600E-02 3.54550E-01 0.00000E+00
 -1       261 9.20400E-02 3.37840E-01 0.00000E+00
 -1       262 2.46700E-02 3.80630E-01 0.00000E+00
 -1       263 4.81500E-02 3.73750E-01 0.00000E+00
 -1       264 1.35250E-01 3.28870E-01 0.00000E+00
 -1       265 1.21340E-01 3.44200E-01 0.00000E+00
 -1       266 1.00960E-01 3.53660E-01 0.00000E+00
 -1       267 1.52650E-01 3.30790E-01 0.00000E+00
 -1       268 1.69050E-01 3.20790E-01 0.00000E+00
 -1       269 0.00000E+00 3.90240E-01 0.00000E+00
 -1       270 3.87030E-01 3.82300E-02 0.00000E+00
 -1       271 4.04440E-01 2.32100E-02 0.00000E+00
 -1       272 3.80650E-01 6.02700E-02 0.00000E+00
 -1       273 4.14630E-01 0.00000E+00 0.00000E+00
 -1       274 3.89510E-01 9.84500E-02 0.00000E+00
 -1       275 3.91820E-01 8.03200E-02 0.00000E+00
 -1       276 3.70310E-01 1.06360E-01 0.00000E+00
 -1       277 3.10140E-01 2.06400E-01 0.00000E+00
 -1       278 3.27050E-01 1.98680E-01 0.00000E+00
 -1       279 3.81420E-01 1.37110E-01 0.00000E+00
 -1       280 3.84550E-01 1.55380E-01 0.00000E+00
 -1       281 3.71310E-01 1.70670E-01 0.00000E+00
 -1       282 3.69770E-01 1.23760E-01 0.00000E+00
 -1       283 3.59540E-01 1.90880E-01 0.00000E+00
 -1       284 3.42370E-01 1.90780E-01 0.00000E+00
 -1       285 3.01000E-01 2.22460E-01 0.00000E+00
 -1       286 2.60400E-01 2.32850E-01 0.00000E+00
 -1       287 2.91260E-01 2.39960E-01 0.00000E+00
 -1       288 2.70660E-01 2.48110E-01 0.00000E+00
 -1       289 2.14220E-01 3.16130E-01 0.00000E+00
 -1       290 1.90920E-01 3.32430E-01 0.00000E+00
 -1       291 2.38320E-01 3.03970E-01 0.00000E+00
 -1       292 2.57070E-01 2.88700E-01 0.00000E+00
 -1       293 2.75390E-01 2.73450E-01 0.00000E+00
 -1       294 7.18700E-02 3.67310E-01 0.00000E+00
 -1       295 8.34900E-02 3.54160E-01 0.00000E+00
 -1       296 2.48700E-02 4.01450E-01 0.00000E+00
 -1       297 4.68500E-02 3.98350E-01 0.00000E+00
 -1       298 6.56400E-02 3.87020E-01 0.00000E+00
 -1       299 1.41540E-01 3.50140E-01 0.00000E+00
 -1       300 1.17740E-01 3.62370E-01 0.00000E+00
 -1       301 9.34400E-02 3.69460E-01 0.00000E+00
 -1       302 1.66620E-01 3.42270E-01 0.00000E+00
 -1       303 0.00000E+00 4.14630E-01 0.00000E+00
 -1       304 1.75000E-02 4.16900E-01 0.00000E+00
 -1       305 4.05480E-01 4.92200E-02 0.00000E+00
 -1       306 4.28040E-01 3.81800E-02 0.00000E+00
 -1       307 4.27600E-01 1.69200E-02 0.00000E+00
 -1       308 4.05760E-01 6.95200E-02 0.00000E+00
 -1       309 4.39020E-01 0.00000E+00 0.00000E+00
 -1       310 4.05200E-01 1.12360E-01 0.00000E+00
 -1       311 4.10820E-01 8.85800E-02 0.00000E+00
 -1       312 3.86660E-01 1.18420E-01 0.00000E+00
 -1       313 3.22820E-01 2.19840E-01 0.00000E+00
 -1       314 3.46220E-01 2.11220E-01 0.00000E+00
 -1       315 3.99690E-01 1.38410E-01 0.00000E+00
 -1       316 3.98070E-01 1.68160E-01 0.00000E+00
 -1       317 3.81300E-01 1.91240E-01 0.00000E+00
 -1       318 3.67700E-01 2.07860E-01 0.00000E+00
 -1       319 3.13810E-01 2.43610E-01 0.00000E+00
 -1       320 2.94390E-01 2.59140E-01 0.00000E+00
 -1       321 2.40090E-01 3.30270E-01 0.00000E+00
 -1       322 2.15340E-01 3.40320E-01 0.00000E+00
 -1       323 1.99820E-01 3.48170E-01 0.00000E+00
 -1       324 1.81790E-01 3.51680E-01 0.00000E+00
 -1       325 2.61320E-01 3.11190E-01 0.00000E+00
 -1       326 2.79670E-01 2.95950E-01 0.00000E+00
 -1       327 2.98640E-01 2.81900E-01 0.00000E+00
 -1       328 8.92600E-02 3.89680E-01 0.00000E+00
 -1       329 3.61300E-02 4.21060E-01 0.00000E+00
 -1       330 7.22400E-02 4.05920E-01 0.00000E+00
 -1       331 5.72300E-02 4.18410E-01 0.00000E+00
 -1       332 1.35780E-01 3.74450E-01 0.00000E+00
 -1       333 1.60300E-01 3.67970E-01 0.00000E+00
 -1       334 1.13370E-01 3.82320E-01 0.00000E+00
 -1       335 0.00000E+00 4.39020E-01 0.00000E+00
 -1       336 1.73200E-02 4.34740E-01 0.00000E+00
 -1       337 4.26490E-01 6.59900E-02 0.00000E+00
 -1       338 4.51860E-01 2.31900E-02 0.00000E+00
 -1       339 4.50970E-01 5.11500E-02 0.00000E+00
 -1       340 4.63410E-01 0.00000E+00 0.00000E+00
 -1       341 4.25360E-01 1.05900E-01 0.00000E+00
 -1       342 4.21610E-01 1.27370E-01 0.00000E+00
 -1       343 4.31960E-01 8.77700E-02 0.00000E+00
 -1       344 3.38720E-01 2.36680E-01 0.00000E+00
 -1       345 3.65360E-01 2.30400E-01 0.00000E+00
 -1       346 4.20850E-01 1.50980E-01 0.00000E+00
 -1       347 4.05770E-01 1.96360E-01 0.00000E+00
 -1       348 4.22990E-01 1.76100E-01 0.00000E+00
 -1       349 3.85440E-01 2.13520E-01 0.00000E+00
 -1       350 3.32130E-01 2.54820E-01 0.00000E+00
 -1       351 3.16590E-01 2.67640E-01 0.00000E+00
 -1       352 2.31530E-01 3.52810E-01 0.00000E+00
 -1       353 2.51900E-01 3.54930E-01 0.00000E+00
 -1       354 2.67190E-01 3.34630E-01 0.00000E+00
 -1       355 2.14250E-01 3.64630E-01 0.00000E+00
 -1       356 1.93440E-01 3.65880E-01 0.00000E+00
 -1       357 1.79100E-01 3.75430E-01 0.00000E+00
 -1       358 2.83990E-01 3.17460E-01 0.00000E+00
 -1       359 3.01170E-01 3.03270E-01 0.00000E+00
 -1       360 3.22190E-01 2.91160E-01 0.00000E+00
 -1       361 1.12460E-01 4.02760E-01 0.00000E+00
 -1       362 9.66800E-02 4.12370E-01 0.00000E+00
 -1       363 5.39000E-02 4.36630E-01 0.00000E+00
 -1       364 3.52100E-02 4.40960E-01 0.00000E+00
 -1       365 7.78200E-02 4.29590E-01 0.00000E+00
 -1       366 1.48520E-01 3.87290E-01 0.00000E+00
 -1       367 1.31240E-01 3.94550E-01 0.00000E+00
 -1       368 1.67640E-01 3.93950E-01 0.00000E+00
 -1       369 0.00000E+00 4.63410E-01 0.00000E+00
 -1       370 2.20000E-02 4.55360E-01 0.00000E+00
 -1       371 4.52540E-01 7.83200E-02 0.00000E+00
 -1       372 4.76170E-01 1.68400E-02 0.00000E+00
 -1       373 4.77250E-01 4.00400E-02 0.00000E+00
 -1       374 4.69260E-01 6.23600E-02 0.00000E+00
 -1       375 4.87800E-01 0.00000E+00 0.00000E+00
 -1       376 4.45600E-01 1.02130E-01 0.00000E+00
 -1       377 4.38070E-01 1.18730E-01 0.00000E+00
 -1       378 4.40750E-01 1.38500E-01 0.00000E+00
 -1       379 3.52630E-01 2.53910E-01 0.00000E+00
 -1       380 3.79290E-01 2.54650E-01 0.00000E+00
 -1       381 3.87560E-01 2.33200E-01 0.00000E+00
 -1       382 4.42530E-01 1.62430E-01 0.00000E+00
 -1       383 4.04800E-01 2.22310E-01 0.00000E+00
 -1       384 4.21190E-01 2.11770E-01 0.00000E+00
 -1       385 4.26360E-01 1.93670E-01 0.00000E+00
 -1       386 4.43710E-01 1.86370E-01 0.00000E+00
 -1       387 3.38910E-01 2.72270E-01 0.00000E+00
 -1       388 2.36140E-01 3.74120E-01 0.00000E+00
 -1       389 2.61410E-01 3.81680E-01 0.00000E+00
 -1       390 2.76190E-01 3.57690E-01 0.00000E+00
 -1       391 2.89830E-01 3.38600E-01 0.00000E+00
 -1       392 2.18090E-01 3.91880E-01 0.00000E+00
 -1       393 2.05420E-01 3.79210E-01 0.00000E+00
 -1       394 1.95180E-01 3.98010E-01 0.00000E+00
 -1       395 3.04240E-01 3.22910E-01 0.00000E+00
 -1       396 3.17560E-01 3.11110E-01 0.00000E+00
 -1       397 3.46640E-01 2.90750E-01 0.00000E+00
 -1       398 3.35030E-01 3.09260E-01 0.00000E+00
 -1       399 1.29790E-01 4.15140E-01 0.00000E+00
 -1       400 1.14270E-01 4.22330E-01 0.00000E+00
 -1       401 9.88100E-02 4.29650E-01 0.00000E+00
 -1       402 7.02500E-02 4.53140E-01 0.00000E+00
 -1       403 4.69700E-02 4.56470E-01 0.00000E+00
 -1       404 9.56600E-02 4.50800E-01 0.00000E+00
 -1       405 1.47300E-01 4.05300E-01 0.00000E+00
 -1       406 1.79980E-01 4.07780E-01 0.00000E+00
 -1       407 1.62640E-01 4.15630E-01 0.00000E+00
 -1       408 0.00000E+00 4.87800E-01 0.00000E+00
 -1       409 1.70500E-02 4.76430E-01 0.00000E+00
 -1       410 3.74300E-02 4.76310E-01 0.00000E+00
 -1       411 4.66890E-01 9.95900E-02 0.00000E+00
 -1       412 4.77030E-01 8.01400E-02 0.00000E+00
 -1       413 5.00370E-01 2.13500E-02 0.00000E+00
 -1       414 4.88490E-01 6.21600E-02 0.00000E+00
 -1       415 5.03450E-01 4.60800E-02 0.00000E+00
 -1       416 5.12200E-01 0.00000E+00 0.00000E+00
 -1       417 4.58930E-01 1.22430E-01 0.00000E+00
 -1       418 4.62500E-01 1.49030E-01 0.00000E+00
 -1       419 3.61390E-01 2.73860E-01 0.00000E+00
 -1       420 4.02910E-01 2.45150E-01 0.00000E+00
 -1       421 3.99410E-01 2.65190E-01 0.00000E+00
 -1       422 3.84440E-01 2.81230E-01 0.00000E+00
 -1       423 4.64380E-01 1.74760E-01 0.00000E+00
 -1       424 4.26600E-01 2.34950E-01 0.00000E+00
 -1       425 4.42430E-01 2.11580E-01 0.00000E+00
 -1       426 4.63600E-01 1.99690E-01 0.00000E+00
 -1       427 2.40070E-01 3.99570E-01 0.00000E+00
 -1       428 2.87750E-01 3.78950E-01 0.00000E+00
 -1       429 2.78810E-01 4.00680E-01 0.00000E+00
 -1       430 2.59790E-01 4.06050E-01 0.00000E+00
 -1       431 2.99250E-01 3.58000E-01 0.00000E+00
 -1       432 3.08130E-01 3.40930E-01 0.00000E+00
 -1       433 2.19670E-01 4.15820E-01 0.00000E+00
 -1       434 1.95740E-01 4.21650E-01 0.00000E+00
 -1       435 3.24430E-01 3.30020E-01 0.00000E+00
 -1       436 3.56080E-01 3.07420E-01 0.00000E+00
 -1       437 3.65820E-01 2.90970E-01 0.00000E+00
 -1       438 3.44220E-01 3.23680E-01 0.00000E+00
 -1       439 1.21930E-01 4.38610E-01 0.00000E+00
 -1       440 1.43810E-01 4.25210E-01 0.00000E+00
 -1       441 8.29900E-02 4.68390E-01 0.00000E+00
 -1       442 6.30100E-02 4.76430E-01 0.00000E+00
 -1       443 1.15780E-01 4.61640E-01 0.00000E+00
 -1       444 1.01000E-01 4.74550E-01 0.00000E+00
 -1       445 1.76880E-01 4.27350E-01 0.00000E+00
 -1       446 1.59290E-01 4.34120E-01 0.00000E+00
 -1       447 0.00000E+00 5.12200E-01 0.00000E+00
 -1       448 2.58100E-02 4.99240E-01 0.00000E+00
 -1       449 4.92500E-02 4.93330E-01 0.00000E+00
 -1       450 4.88290E-01 9.90600E-02 0.00000E+00
 -1       451 4.79310E-01 1.15350E-01 0.00000E+00
 -1       452 4.97900E-01 8.04900E-02 0.00000E+00
 -1       453 5.22940E-01 3.26600E-02 0.00000E+00
 -1       454 5.22590E-01 1.45800E-02 0.00000E+00
 -1       455 5.06700E-01 6.46700E-02 0.00000E+00
 -1       456 5.25600E-01 5.61100E-02 0.00000E+00
 -1       457 5.36590E-01 0.00000E+00 0.00000E+00
 -1       458 4.82000E-01 1.35510E-01 0.00000E+00
 -1       459 4.87300E-01 1.61830E-01 0.00000E+00
 -1       460 4.19490E-01 2.60890E-01 0.00000E+00
 -1       461 4.10460E-01 2.84720E-01 0.00000E+00
 -1       462 3.79310E-01 3.02940E-01 0.00000E+00
 -1       463 3.95430E-01 2.96240E-01 0.00000E+00
 -1       464 4.87010E-01 1.90840E-01 0.00000E+00
 -1       465 4.42710E-01 2.57580E-01 0.00000E+00
 -1       466 4.52700E-01 2.35990E-01 0.00000E+00
 -1       467 4.63120E-01 2.19640E-01 0.00000E+00
 -1       468 4.81420E-01 2.14860E-01 0.00000E+00
 -1       469 2.46440E-01 4.25100E-01 0.00000E+00
 -1       470 3.11310E-01 3.78290E-01 0.00000E+00
 -1       471 3.00330E-01 3.98840E-01 0.00000E+00
 -1       472 2.72470E-01 4.22790E-01 0.00000E+00
 -1       473 2.90950E-01 4.15960E-01 0.00000E+00
 -1       474 3.23100E-01 3.55750E-01 0.00000E+00
 -1       475 2.12650E-01 4.41490E-01 0.00000E+00
 -1       476 2.29120E-01 4.32670E-01 0.00000E+00
 -1       477 1.90090E-01 4.39490E-01 0.00000E+00
 -1       478 3.40760E-01 3.44400E-01 0.00000E+00
 -1       479 3.64920E-01 3.27350E-01 0.00000E+00
 -1       480 1.35080E-01 4.61730E-01 0.00000E+00
 -1       481 1.41880E-01 4.42470E-01 0.00000E+00
 -1       482 8.46300E-02 4.87030E-01 0.00000E+00
 -1       483 6.85500E-02 4.99710E-01 0.00000E+00
 -1       484 1.23710E-01 4.82760E-01 0.00000E+00
 -1       485 1.03220E-01 4.96670E-01 0.00000E+00
 -1       486 1.72790E-01 4.45440E-01 0.00000E+00
 -1       487 1.98100E-02 5.24290E-01 0.00000E+00
 -1       488 0.00000E+00 5.36590E-01 0.00000E+00
 -1       489 5.14700E-02 5.14980E-01 0.00000E+00
 -1       490 3.43200E-02 5.14990E-01 0.00000E+00
 -1       491 5.00760E-01 1.20090E-01 0.00000E+00
 -1       492 5.09430E-01 9.85500E-02 0.00000E+00
 -1       493 5.18040E-01 7.84900E-02 0.00000E+00
 -1       494 5.40850E-01 1.88700E-02 0.00000E+00
 -1       495 5.43400E-01 3.98900E-02 0.00000E+00
 -1       496 5.37990E-01 7.33400E-02 0.00000E+00
 -1       497 5.47000E-01 5.84400E-02 0.00000E+00
 -1       498 5.60980E-01 0.00000E+00 0.00000E+00
 -1       499 5.03930E-01 1.44090E-01 0.00000E+00
 -1       500 5.04130E-01 1.77640E-01 0.00000E+00
 -1       501 5.07520E-01 1.60780E-01 0.00000E+00
 -1       502 4.34200E-01 2.79620E-01 0.00000E+00
 -1       503 4.11640E-01 3.12040E-01 0.00000E+00
 -1       504 4.28140E-01 2.98500E-01 0.00000E+00
 -1       505 3.88720E-01 3.17840E-01 0.00000E+00
 -1       506 4.98870E-01 2.10280E-01 0.00000E+00
 -1       507 5.10750E-01 1.95880E-01 0.00000E+00
 -1       508 4.66190E-01 2.56590E-01 0.00000E+00
 -1       509 4.56930E-01 2.77760E-01 0.00000E+00
 -1       510 4.75440E-01 2.36100E-01 0.00000E+00
 -1       511 5.00540E-01 2.32440E-01 0.00000E+00
 -1       512 2.66240E-01 4.48680E-01 0.00000E+00
 -1       513 2.37730E-01 4.48270E-01 0.00000E+00
 -1       514 3.34240E-01 3.78980E-01 0.00000E+00
 -1       515 3.23080E-01 3.99480E-01 0.00000E+00
 -1       516 3.10020E-01 4.19610E-01 0.00000E+00
 -1       517 2.93110E-01 4.37870E-01 0.00000E+00
 -1       518 3.44160E-01 3.62500E-01 0.00000E+00
 -1       519 1.92070E-01 4.61500E-01 0.00000E+00
 -1       520 2.22140E-01 4.70480E-01 0.00000E+00
 -1       521 3.65700E-01 3.54660E-01 0.00000E+00
 -1       522 3.82450E-01 3.38100E-01 0.00000E+00
 -1       523 1.45470E-01 4.79190E-01 0.00000E+00
 -1       524 1.61690E-01 4.65710E-01 0.00000E+00
 -1       525 8.66700E-02 5.05280E-01 0.00000E+00
 -1       526 7.57200E-02 5.20630E-01 0.00000E+00
 -1       527 1.22080E-01 5.08280E-01 0.00000E+00
 -1       528 1.42290E-01 4.97150E-01 0.00000E+00
 -1       529 1.00830E-01 5.22160E-01 0.00000E+00
 -1       530 3.93000E-02 5.31970E-01 0.00000E+00
 -1       531 2.27700E-02 5.46580E-01 0.00000E+00
 -1       532 0.00000E+00 5.60980E-01 0.00000E+00
 -1       533 6.10000E-02 5.37100E-01 0.00000E+00
 -1       534 5.21960E-01 1.33150E-01 0.00000E+00
 -1       535 5.20420E-01 1.14900E-01 0.00000E+00
 -1       536 5.31650E-01 9.80900E-02 0.00000E+00
 -1       537 5.57840E-01 2.59300E-02 0.00000E+00
 -1       538 5.65900E-01 4.70100E-02 0.00000E+00
 -1       539 5.61320E-01 7.50400E-02 0.00000E+00
 -1       540 5.47630E-01 8.95600E-02 0.00000E+00
 -1       541 5.85370E-01 0.00000E+00 0.00000E+00
 -1       542 5.76630E-01 2.25900E-02 0.00000E+00
 -1       543 5.25700E-01 1.52920E-01 0.00000E+00
 -1       544 5.29520E-01 1.78510E-01 0.00000E+00
 -1       545 4.47490E-01 2.98260E-01 0.00000E+00
 -1       546 4.20420E-01 3.33050E-01 0.00000E+00
 -1       547 4.36740E-01 3.19270E-01 0.00000E+00
 -1       548 4.01460E-01 3.34990E-01 0.00000E+00
 -1       549 5.17240E-01 2.15710E-01 0.00000E+00
 -1       550 5.28440E-01 2.01870E-01 0.00000E+00
 -1       551 4.89630E-01 2.56010E-01 0.00000E+00
 -1       552 4.79370E-01 2.76430E-01 0.00000E+00
 -1       553 4.70970E-01 2.99330E-01 0.00000E+00
 -1       554 5.26290E-01 2.35630E-01 0.00000E+00
 -1       555 5.16240E-01 2.57290E-01 0.00000E+00
 -1       556 2.75800E-01 4.77260E-01 0.00000E+00
 -1       557 2.88430E-01 4.58760E-01 0.00000E+00
 -1       558 2.49720E-01 4.70680E-01 0.00000E+00
 -1       559 3.46740E-01 3.99490E-01 0.00000E+00
 -1       560 3.57030E-01 3.78950E-01 0.00000E+00
 -1       561 3.35310E-01 4.23220E-01 0.00000E+00
 -1       562 3.17080E-01 4.42550E-01 0.00000E+00
 -1       563 3.06520E-01 4.56450E-01 0.00000E+00
 -1       564 1.81270E-01 4.81040E-01 0.00000E+00
 -1       565 2.02800E-01 4.87080E-01 0.00000E+00
 -1       566 2.38150E-01 4.88790E-01 0.00000E+00
 -1       567 2.21780E-01 4.95500E-01 0.00000E+00
 -1       568 3.82250E-01 3.79790E-01 0.00000E+00
 -1       569 3.91460E-01 3.55670E-01 0.00000E+00
 -1       570 1.63050E-01 4.88630E-01 0.00000E+00
 -1       571 8.44800E-02 5.42360E-01 0.00000E+00
 -1       572 1.36790E-01 5.17600E-01 0.00000E+00
 -1       573 1.24400E-01 5.32170E-01 0.00000E+00
 -1       574 1.61910E-01 5.06420E-01 0.00000E+00
 -1       575 1.08250E-01 5.48650E-01 0.00000E+00
 -1       576 4.61900E-02 5.53270E-01 0.00000E+00
 -1       577 3.11700E-02 5.72530E-01 0.00000E+00
 -1       578 0.00000E+00 5.85370E-01 0.00000E+00
 -1       579 1.72000E-02 5.83980E-01 0.00000E+00
 -1       580 6.87800E-02 5.59300E-01 0.00000E+00
 -1       581 5.41970E-01 1.42290E-01 0.00000E+00
 -1       582 5.39320E-01 1.24510E-01 0.00000E+00
 -1       583 5.48700E-01 1.07280E-01 0.00000E+00
 -1       584 5.84430E-01 6.52400E-02 0.00000E+00
 -1       585 5.90700E-01 4.19100E-02 0.00000E+00
 -1       586 5.64990E-01 1.00830E-01 0.00000E+00
 -1       587 5.81150E-01 8.99000E-02 0.00000E+00
 -1       588 6.09760E-01 0.00000E+00 0.00000E+00
 -1       589 5.98770E-01 2.02500E-02 0.00000E+00
 -1       590 5.49520E-01 1.58740E-01 0.00000E+00
 -1       591 5.63870E-01 1.80110E-01 0.00000E+00
 -1       592 5.48300E-01 1.99880E-01 0.00000E+00
 -1       593 4.58020E-01 3.15600E-01 0.00000E+00
 -1       594 4.36980E-01 3.44400E-01 0.00000E+00
 -1       595 4.15360E-01 3.55000E-01 0.00000E+00