    1C
    1C
    1UUSER
    1UDATE              25.january.2020     
    1UTIME              13:52:38
    1UHOST
    1UPGM               CalculiX
    1UDIR
    1UDBN
    2C                                                                   1
 -1         1 5.00000E-01 5.00000E-01 0.00000E+00
 -1         2 5.00000E-01 4.87500E-01 0.00000E+00
 -1         3 5.00000E-01 4.87500E-01 1.00000E+00
 -1         4 5.00000E-01 5.00000E-01 1.00000E+00
 -1         5 4.87500E-01 5.00000E-01 0.00000E+00
 -1         6 4.87500E-01 4.87500E-01 0.00000E+00
 -1         7 4.87500E-01 4.87500E-01 1.00000E+00
 -1         8 4.87500E-01 5.00000E-01 1.00000E+00
 -1         9 4.75000E-01 5.00000E-01 0.00000E+00
 -1        10 4.75000E-01 4.87500E-01 0.00000E+00
 -1        11 4.75000E-01 4.87500E-01 1.00000E+00
 -1        12 4.75000E-01 5.00000E-01 1.00000E+00
 -1        13 4.62500E-01 5.00000E-01 0.00000E+00
 -1        14 4.62500E-01 4.87500E-01 0.00000E+00
 -1        15 4.62500E-01 4.87500E-01 1.00000E+00
 -1        16 4.62500E-01 5.00000E-01 1.00000E+00
 -1        17 4.50000E-01 5.00000E-01 0.00000E+00
 -1        18 4.50000E-01 4.87500E-01 0.00000E+00
 -1        19 4.50000E-01 4.87500E-01 1.00000E+00
 -1        20 4.50000E-01 5.00000E-01 1.00000E+00
 -1        21 4.37500E-01 5.00000E-01 0.00000E+00
 -1        22 4.37500E-01 4.87500E-01 0.00000E+00
 -1        23 4.37500E-01 4.87500E-01 1.00000E+00
 -1        24 4.37500E-01 5.00000E-01 1.00000E+00
 -1        25 4.25000E-01 5.00000E-01 0.00000E+00
 -1        26 4.25000E-01 4.87500E-01 0.00000E+00
 -1        27 4.25000E-01 4.87500E-01 1.00000E+00
 -1        28 4.25000E-01 5.00000E-01 1.00000E+00
 -1        29 4.12500E-01 5.00000E-01 0.00000E+00
 -1        30 4.12500E-01 4.87500E-01 0.00000E+00
 -1        31 4.12500E-01 4.87500E-01 1.00000E+00
 -1        32 4.12500E-01 5.00000E-01 1.00000E+00
 -1        33 4.00000E-01 5.00000E-01 0.00000E+00
 -1        34 4.00000E-01 4.87500E-01 0.00000E+00
 -1        35 4.00000E-01 4.87500E-01 1.00000E+00
 -1        36 4.00000E-01 5.00000E-01 1.00000E+00
 -1        37 3.87500E-01 5.00000E-01 0.00000E+00
 -1        38 3.87500E-01 4.87500E-01 0.00000E+00
 -1        39 3.87500E-01 4.87500E-01 1.00000E+00
 -1        40 3.87500E-01 5.00000E-01 1.00000E+00
 -1        41 3.75000E-01 5.00000E-01 0.00000E+00
 -1        42 3.75000E-01 4.87500E-01 0.00000E+00
 -1        43 3.75000E-01 4.87500E-01 1.00000E+00
 -1        44 3.75000E-01 5.00000E-01 1.00000E+00
 -1        45 3.62500E-01 5.00000E-01 0.00000E+00
 -1        46 3.62500E-01 4.87500E-01 0.00000E+00
 -1        47 3.62500E-01 4.87500E-01 1.00000E+00
 -1        48 3.62500E-01 5.00000E-01 1.00000E+00
 -1        49 3.50000E-01 5.00000E-01 0.00000E+00
 -1        50 3.50000E-01 4.87500E-01 0.00000E+00
 -1        51 3.50000E-01 4.87500E-01 1.00000E+00
 -1        52 3.50000E-01 5.00000E-01 1.00000E+00
 -1        53 3.37500E-01 5.00000E-01 0.00000E+00
 -1        54 3.37500E-01 4.87500E-01 0.00000E+00
 -1        55 3.37500E-01 4.87500E-01 1.00000E+00
 -1        56 3.37500E-01 5.00000E-01 1.00000E+00
 -1        57 3.25000E-01 5.00000E-01 0.00000E+00
 -1        58 3.25000E-01 4.87500E-01 0.00000E+00
 -1        59 3.25000E-01 4.87500E-01 1.00000E+00
 -1        60 3.25000E-01 5.00000E-01 1.00000E+00
 -1        61 3.12500E-01 5.00000E-01 0.00000E+00
 -1        62 3.12500E-01 4.87500E-01 0.00000E+00
 -1        63 3.12500E-01 4.87500E-01 1.00000E+00
 -1        64 3.12500E-01 5.00000E-01 1.00000E+00
 -1        65 3.00000E-01 5.00000E-01 0.00000E+00
 -1        66 3.00000E-01 4.87500E-01 0.00000E+00
 -1        67 3.00000E-01 4.87500E-01 1.00000E+00
 -1        68 3.00000E-01 5.00000E-01 1.00000E+00
 -1        69 2.87500E-01 5.00000E-01 0.00000E+00
 -1        70 2.87500E-01 4.87500E-01 0.00000E+00
 -1        71 2.87500E-01 4.87500E-01 1.00000E+00
 -1        72 2.87500E-01 5.00000E-01 1.00000E+00
 -1        73 2.75000E-01 5.00000E-01 0.00000E+00
 -1        74 2.75000E-01 4.87500E-01 0.00000E+00
 -1        75 2.75000E-01 4.87500E-01 1.00000E+00
 -1        76 2.75000E-01 5.00000E-01 1.00000E+00
 -1        77 2.62500E-01 5.00000E-01 0.00000E+00
 -1        78 2.62500E-01 4.87500E-01 0.00000E+00
 -1        79 2.62500E-01 4.87500E-01 1.00000E+00
 -1        80 2.62500E-01 5.00000E-01 1.00000E+00
 -1        81 2.50000E-01 5.00000E-01 0.00000E+00
 -1        82 2.50000E-01 4.87500E-01 0.00000E+00
 -1        83 2.50000E-01 4.87500E-01 1.00000E+00
 -1        84 2.50000E-01 5.00000E-01 1.00000E+00
 -1        85 2.37500E-01 5.00000E-01 0.00000E+00
 -1        86 2.37500E-01 4.87500E-01 0.00000E+00
 -1        87 2.37500E-01 4.87500E-01 1.00000E+00
 -1        88 2.37500E-01 5.00000E-01 1.00000E+00
 -1        89 2.25000E-01 5.00000E-01 0.00000E+00
 -1        90 2.25000E-01 4.87500E-01 0.00000E+00
 -1        91 2.25000E-01 4.87500E-01 1.00000E+00
 -1        92 2.25000E-01 5.00000E-01 1.00000E+00
 -1        93 2.12500E-01 5.00000E-01 0.00000E+00
 -1        94 2.12500E-01 4.87500E-01 0.00000E+00
 -1        95 2.12500E-01 4.87500E-01 1.00000E+00
 -1        96 2.12500E-01 5.00000E-01 1.00000E+00
 -1        97 2.00000E-01 5.00000E-01 0.00000E+00
 -1        98 2.00000E-01 4.87500E-01 0.00000E+00
 -1        99 2.00000E-01 4.87500E-01 1.00000E+00
 -1       100 2.00000E-01 5.00000E-01 1.00000E+00
 -1       101 1.87500E-01 5.00000E-01 0.00000E+00
 -1       102 1.87500E-01 4.87500E-01 0.00000E+00
 -1       103 1.87500E-01 4.87500E-01 1.00000E+00
 -1       104 1.87500E-01 5.00000E-01 1.00000E+00
 -1       105 1.75000E-01 5.00000E-01 0.00000E+00
 -1       106 1.75000E-01 4.87500E-01 0.00000E+00
 -1       107 1.75000E-01 4.87500E-01 1.00000E+00
 -1       108 1.75000E-01 5.00000E-01 1.00000E+00
 -1       109 1.62500E-01 5.00000E-01 0.00000E+00
 -1       110 1.62500E-01 4.87500E-01 0.00000E+00
 -1       111 1.62500E-01 4.87500E-01 1.00000E+00
 -1       112 1.62500E-01 5.00000E-01 1.00000E+00
 -1       113 1.50000E-01 5.00000E-01 0.00000E+00
 -1       114 1.50000E-01 4.87500E-01 0.00000E+00
 -1       115 1.50000E-01 4.87500E-01 1.00000E+00
 -1       116 1.50000E-01 5.00000E-01 1.00000E+00
 -1       117 1.37500E-01 5.00000E-01 0.00000E+00
 -1       118 1.37500E-01 4.87500E-01 0.00000E+00
 -1       119 1.37500E-01 4.87500E-01 1.00000E+00
 -1       120 1.37500E-01 5.00000E-01 1.00000E+00
 -1       121 1.25000E-01 5.00000E-01 0.00000E+00
 -1       122 1.25000E-01 4.87500E-01 0.00000E+00
 -1       123 1.25000E-01 4.87500E-01 1.00000E+00
 -1       124 1.25000E-01 5.00000E-01 1.00000E+00
 -1       125 1.12500E-01 5.00000E-01 0.00000E+00
 -1       126 1.12500E-01 4.87500E-01 0.00000E+00
 -1       127 1.12500E-01 4.87500E-01 1.00000E+00
 -1       128 1.12500E-01 5.00000E-01 1.00000E+00
 -1       129 1.00000E-01 5.00000E-01 0.00000E+00
 -1       130 1.00000E-01 4.87500E-01 0.00000E+00
 -1       131 1.00000E-01 4.87500E-01 1.00000E+00
 -1       132 1.00000E-01 5.00000E-01 1.00000E+00
 -1       133 8.75000E-02 5.00000E-01 0.00000E+00
 -1       134 8.75000E-02 4.87500E-01 0.00000E+00
 -1       135 8.75000E-02 4.87500E-01 1.00000E+00
 -1       136 8.75000E-02 5.00000E-01 1.00000E+00
 -1       137 7.50000E-02 5.00000E-01 0.00000E+00
 -1       138 7.50000E-02 4.87500E-01 0.00000E+00
 -1       139 7.50000E-02 4.87500E-01 1.00000E+00
 -1       140 7.50000E-02 5.00000E-01 1.00000E+00
 -1       141 6.25000E-02 5.00000E-01 0.00000E+00
 -1       142 6.25000E-02 4.87500E-01 0.00000E+00
 -1       143 6.25000E-02 4.87500E-01 1.00000E+00
 -1       144 6.25000E-02 5.00000E-01 1.00000E+00
 -1       145 5.00000E-02 5.00000E-01 0.00000E+00
 -1       146 5.00000E-02 4.87500E-01 0.00000E+00
 -1       147 5.00000E-02 4.87500E-01 1.00000E+00
 -1       148 5.00000E-02 5.00000E-01 1.00000E+00
 -1       149 3.75000E-02 5.00000E-01 0.00000E+00
 -1       150 3.75000E-02 4.87500E-01 0.00000E+00
 -1       151 3.75000E-02 4.87500E-01 1.00000E+00
 -1       152 3.75000E-02 5.00000E-01 1.00000E+00
 -1       153 2.50000E-02 5.00000E-01 0.00000E+00
 -1       154 2.50000E-02 4.87500E-01 0.00000E+00
 -1       155 2.50000E-02 4.87500E-01 1.00000E+00
 -1       156 2.50000E-02 5.00000E-01 1.00000E+00
 -1       157 1.25000E-02 5.00000E-01 0.00000E+00
 -1       158 1.25000E-02 4.87500E-01 0.00000E+00
 -1       159 1.25000E-02 4.87500E-01 1.00000E+00
 -1       160 1.25000E-02 5.00000E-01 1.00000E+00
 -1       161 0.00000E+00 5.00000E-01 0.00000E+00
 -1       162 0.00000E+00 4.87500E-01 0.00000E+00
 -1       163 0.00000E+00 4.87500E-01 1.00000E+00
 -1       164 0.00000E+00 5.00000E-01 1.00000E+00
 -1       165 5.00000E-01 4.75000E-01 0.00000E+00
 -1       166 5.00000E-01 4.75000E-01 1.00000E+00
 -1       167 4.87500E-01 4.75000E-01 0.00000E+00
 -1       168 4.87500E-01 4.75000E-01 1.00000E+00
 -1       169 4.75000E-01 4.75000E-01 0.00000E+00
 -1       170 4.75000E-01 4.75000E-01 1.00000E+00
 -1       171 4.62500E-01 4.75000E-01 0.00000E+00
 -1       172 4.62500E-01 4.75000E-01 1.00000E+00
 -1       173 4.50000E-01 4.75000E-01 0.00000E+00
 -1       174 4.50000E-01 4.75000E-01 1.00000E+00
 -1       175 4.37500E-01 4.75000E-01 0.00000E+00
 -1       176 4.37500E-01 4.75000E-01 1.00000E+00
 -1       177 4.25000E-01 4.75000E-01 0.00000E+00
 -1       178 4.25000E-01 4.75000E-01 1.00000E+00
 -1       179 4.12500E-01 4.75000E-01 0.00000E+00
 -1       180 4.12500E-01 4.75000E-01 1.00000E+00
 -1       181 4.00000E-01 4.75000E-01 0.00000E+00
 -1       182 4.00000E-01 4.75000E-01 1.00000E+00
 -1       183 3.87500E-01 4.75000E-01 0.00000E+00
 -1       184 3.87500E-01 4.75000E-01 1.00000E+00
 -1       185 3.75000E-01 4.75000E-01 0.00000E+00
 -1       186 3.75000E-01 4.75000E-01 1.00000E+00
 -1       187 3.62500E-01 4.75000E-01 0.00000E+00
 -1       188 3.62500E-01 4.75000E-01 1.00000E+00
 -1       189 3.50000E-01 4.75000E-01 0.00000E+00
 -1       190 3.50000E-01 4.75000E-01 1.00000E+00
 -1       191 3.37500E-01 4.75000E-01 0.00000E+00
 -1       192 3.37500E-01 4.75000E-01 1.00000E+00
 -1       193 3.25000E-01 4.75000E-01 0.00000E+00
 -1       194 3.25000E-01 4.75000E-01 1.00000E+00
 -1       195 3.12500E-01 4.75000E-01 0.00000E+00
 -1       196 3.12500E-01 4.75000E-01 1.00000E+00
 -1       197 3.00000E-01 4.75000E-01 0.00000E+00
 -1       198 3.00000E-01 4.75000E-01 1.00000E+00
 -1       199 2.87500E-01 4.75000E-01 0.00000E+00
 -1       200 2.87500E-01 4.75000E-01 1.00000E+00
 -1       201 2.75000E-01 4.75000E-01 0.00000E+00
 -1       202 2.75000E-01 4.75000E-01 1.00000E+00
 -1       203 2.62500E-01 4.75000E-01 0.00000E+00
 -1       204 2.62500E-01 4.75000E-01 1.00000E+00
 -1       205 2.50000E-01 4.75000E-01 0.00000E+00
 -1       206 2.50000E-01 4.75000E-01 1.00000E+00
 -1       207 2.37500E-01 4.75000E-01 0.00000E+00
 -1       208 2.37500E-01 4.75000E-01 1.00000E+00
 -1       209 2.25000E-01 4.75000E-01 0.00000E+00
 -1       210 2.25000E-01 4.75000E-01 1.00000E+00
 -1       211 2.12500E-01 4.75000E-01 0.00000E+00
 -1       212 2.12500E-01 4.75000E-01 1.00000E+00
 -1       213 2.00000E-01 4.75000E-01 0.00000E+00
 -1       214 2.00000E-01 4.75000E-01 1.00000E+00
 -1       215 1.87500E-01 4.75000E-01 0.00000E+00
 -1       216 1.87500E-01 4.75000E-01 1.00000E+00
 -1       217 1.75000E-01 4.75000E-01 0.00000E+00
 -1       218 1.75000E-01 4.75000E-01 1.00000E+00
 -1       219 1.62500E-01 4.75000E-01 0.00000E+00
 -1       220 1.62500E-01 4.75000E-01 1.00000E+00
 -1       221 1.50000E-01 4.75000E-01 0.00000E+00
 -1       222 1.50000E-01 4.75000E-01 1.00000E+00
 -1       223 1.37500E-01 4.75000E-01 0.00000E+00
 -1       224 1.37500E-01 4.75000E-01 1.00000E+00
 -1       225 1.25000E-01 4.75000E-01 0.00000E+00
 -1       226 1.25000E-01 4.75000E-01 1.00000E+00
 -1       227 1.12500E-01 4.75000E-01 0.00000E+00
 -1       228 1.12500E-01 4.75000E-01 1.00000E+00
 -1       229 1.00000E-01 4.75000E-01 0.00000E+00
 -1       230 1.00000E-01 4.75000E-01 1.00000E+00
 -1       231 8.75000E-02 4.75000E-01 0.00000E+00
 -1       232 8.75000E-02 4.75000E-01 1.00000E+00
 -1       233 7.50000E-02 4.75000E-01 0.00000E+00
 -1       234 7.50000E-02 4.75000E-01 1.00000E+00
 -1       235 6.25000E-02 4.75000E-01 0.00000E+00
 -1       236 6.25000E-02 4.75000E-01 1.00000E+00
 -1       237 5.00000E-02 4.75000E-01 0.00000E+00
 -1       238 5.00000E-02 4.75000E-01 1.00000E+00
 -1       239 3.75000E-02 4.75000E-01 0.00000E+00
 -1       240 3.75000E-02 4.75000E-01 1.00000E+00
 -1       241 2.50000E-02 4.75000E-01 0.00000E+00
 -1       242 2.50000E-02 4.75000E-01 1.00000E+00
 -1       243 1.25000E-02 4.75000E-01 0.00000E+00
 -1       244 1.25000E-02 4.75000E-01 1.00000E+00
 -1       245 0.00000E+00 4.75000E-01 0.00000E+00
 -1       246 0.00000E+00 4.75000E-01 1.00000E+00
 -1       247 5.00000E-01 4.62500E-01 0.00000E+00
 -1       248 5.00000E-01 4.62500E-01 1.00000E+00
 -1       249 4.87500E-01 4.62500E-01 0.00000E+00
 -1       250 4.87500E-01 4.62500E-01 1.00000E+00
 -1       251 4.75000E-01 4.62500E-01 0.00000E+00
 -1       252 4.75000E-01 4.62500E-01 1.00000E+00
 -1       253 4.62500E-01 4.62500E-01 0.00000E+00
 -1       254 4.62500E-01 4.62500E-01 1.00000E+00
 -1       255 4.50000E-01 4.62500E-01 0.00000E+00
 -1       256 4.50000E-01 4.62500E-01 1.00000E+00
 -1       257 4.37500E-01 4.62500E-01 0.00000E+00
 -1       258 4.37500E-01 4.62500E-01 1.00000E+00
 -1       259 4.25000E-01 4.62500E-01 0.00000E+00
 -1       260 4.25000E-01 4.62500E-01 1.00000E+00
 -1       261 4.12500E-01 4.62500E-01 0.00000E+00
 -1       262 4.12500E-01 4.62500E-01 1.00000E+00
 -1       263 4.00000E-01 4.62500E-01 0.00000E+00
 -1       264 4.00000E-01 4.62500E-01 1.00000E+00
 -1       265 3.87500E-01 4.62500E-01 0.00000E+00
 -1       266 3.87500E-01 4.62500E-01 1.00000E+00
 -1       267 3.75000E-01 4.62500E-01 0.00000E+00
 -1       268 3.75000E-01 4.62500E-01 1.00000E+00
 -1       269 3.62500E-01 4.62500E-01 0.00000E+00
 -1       270 3.62500E-01 4.62500E-01 1.00000E+00
 -1       271 3.50000E-01 4.62500E-01 0.00000E+00
 -1       272 3.50000E-01 4.62500E-01 1.00000E+00
 -1       273 3.37500E-01 4.62500E-01 0.00000E+00
 -1       274 3.37500E-01 4.62500E-01 1.00000E+00
 -1       275 3.25000E-01 4.62500E-01 0.00000E+00
 -1       276 3.25000E-01 4.62500E-01 1.00000E+00
 -1       277 3.12500E-01 4.62500E-01 0.00000E+00
 -1       278 3.12500E-01 4.62500E-01 1.00000E+00
 -1       279 3.00000E-01 4.62500E-01 0.00000E+00
 -1       280 3.00000E-01 4.62500E-01 1.00000E+00
 -1       281 2.87500E-01 4.62500E-01 0.00000E+00
 -1       282 2.87500E-01 4.62500E-01 1.00000E+00
 -1       283 2.75000E-01 4.62500E-01 0.00000E+00
 -1       284 2.75000E-01 4.62500E-01 1.00000E+00
 -1       285 2.62500E-01 4.62500E-01 0.00000E+00
 -1       286 2.62500E-01 4.62500E-01 1.00000E+00
 -1       287 2.50000E-01 4.62500E-01 0.00000E+00
 -1       288 2.50000E-01 4.62500E-01 1.00000E+00
 -1       289 2.37500E-01 4.62500E-01 0.00000E+00
 -1       290 2.37500E-01 4.62500E-01 1.00000E+00
 -1       291 2.25000E-01 4.62500E-01 0.00000E+00
 -1       292 2.25000E-01 4.62500E-01 1.00000E+00
 -1       293 2.12500E-01 4.62500E-01 0.00000E+00
 -1       294 2.12500E-01 4.62500E-01 1.00000E+00
 -1       295 2.00000E-01 4.62500E-01 0.00000E+00
 -1       296 2.00000E-01 4.62500E-01 1.00000E+00
 -1       297 1.87500E-01 4.62500E-01 0.00000E+00
 -1       298 1.87500E-01 4.62500E-01 1.00000E+00
 -1       299 1.75000E-01 4.62500E-01 0.00000E+00
 -1       300 1.75000E-01 4.62500E-01 1.00000E+00
 -1       301 1.62500E-01 4.62500E-01 0.00000E+00
 -1       302 1.62500E-01 4.62500E-01 1.00000E+00
 -1       303 1.50000E-01 4.62500E-01 0.00000E+00
 -1       304 1.50000E-01 4.62500E-01 1.00000E+00
 -1       305 1.37500E-01 4.62500E-01 0.00000E+00
 -1       306 1.37500E-01 4.62500E-01 1.00000E+00
 -1       307 1.25000E-01 4.62500E-01 0.00000E+00
 -1       308 1.25000E-01 4.62500E-01 1.00000E+00
 -1       309 1.12500E-01 4.62500E-01 0.00000E+00
 -1       310 1.12500E-01 4.62500E-01 1.00000E+00
 -1       311 1.00000E-01 4.62500E-01 0.00000E+00
 -1       312 1.00000E-01 4.62500E-01 1.00000E+00
 -1       313 8.75000E-02 4.62500E-01 0.00000E+00
 -1       314 8.75000E-02 4.62500E-01 1.00000E+00
 -1       315 7.50000E-02 4.62500E-01 0.00000E+00
 -1       316 7.50000E-02 4.62500E-01 1.00000E+00
 -1       317 6.25000E-02 4.62500E-01 0.00000E+00
 -1       318 6.25000E-02 4.62500E-01 1.00000E+00
 -1       319 5.00000E-02 4.62500E-01 0.00000E+00
 -1       320 5.00000E-02 4.62500E-01 1.00000E+00
 -1       321 3.75000E-02 4.62500E-01 0.00000E+00
 -1       322 3.75000E-02 4.62500E-01 1.00000E+00
 -1       323 2.50000E-02 4.62500E-01 0.00000E+00
 -1       324 2.50000E-02 4.62500E-01 1.00000E+00
 -1       325 1.25000E-02 4.62500E-01 0.00000E+00
 -1       326 1.25000E-02 4.62500E-01 1.00000E+00
 -1       327 0.00000E+00 4.62500E-01 0.00000E+00
 -1       328 0.00000E+00 4.62500E-01 1.00000E+00
 -1       329 5.00000E-01 4.50000E-01 0.00000E+00
 -1       330 5.00000E-01 4.50000E-01 1.00000E+00
 -1       331 4.87500E-01 4.50000E-01 0.00000E+00
 -1       332 4.87500E-01 4.50000E-01 1.00000E+00
 -1       333 4.75000E-01 4.50000E-01 0.00000E+00
 -1       334 4.75000E-01 4.50000E-01 1.00000E+00
 -1       335 4.62500E-01 4.50000E-01 0.00000E+00
 -1       336 4.62500E-01 4.50000E-01 1.00000E+00
 -1       337 4.50000E-01 4.50000E-01 0.00000E+00
 -1       338 4.50000E-01 4.50000E-01 1.00000E+00
 -1       339 4.37500E-01 4.50000E-01 0.00000E+00
 -1       340 4.37500E-01 4.50000E-01 1.00000E+00
 -1       341 4.25000E-01 4.50000E-01 0.00000E+00
 -1       342 4.25000E-01 4.50000E-01 1.00000E+00
 -1       343 4.12500E-01 4.50000E-01 0.00000E+00
 -1       344 4.12500E-01 4.50000E-01 1.00000E+00
 -1       345 4.00000E-01 4.50000E-01 0.00000E+00
 -1       346 4.00000E-01 4.50000E-01 1.00000E+00
 -1       347 3.87500E-01 4.50000E-01 0.00000E+00
 -1       348 3.87500E-01 4.50000E-01 1.00000E+00
 -1       349 3.75000E-01 4.50000E-01 0.00000E+00
 -1       350 3.75000E-01 4.50000E-01 1.00000E+00
 -1       351 3.62500E-01 4.50000E-01 0.00000E+00
 -1       352 3.62500E-01 4.50000E-01 1.00000E+00
 -1       353 3.50000E-01 4.50000E-01 0.00000E+00
 -1       354 3.50000E-01 4.50000E-01 1.00000E+00
 -1       355 3.37500E-01 4.50000E-01 0.00000E+00
 -1       356 3.37500E-01 4.50000E-01 1.00000E+00
 -1       357 3.25000E-01 4.50000E-01 0.00000E+00
 -1       358 3.25000E-01 4.50000E-01 1.00000E+00
 -1       359 3.12500E-01 4.50000E-01 0.00000E+00
 -1       360 3.12500E-01 4.50000E-01 1.00000E+00
 -1       361 3.00000E-01 4.50000E-01 0.00000E+00
 -1       362 3.00000E-01 4.50000E-01 1.00000E+00
 -1       363 2.87500E-01 4.50000E-01 0.00000E+00
 -1       364 2.87500E-01 4.50000E-01 1.00000E+00
 -1       365 2.75000E-01 4.50000E-01 0.00000E+00
 -1       366 2.75000E-01 4.50000E-01 1.00000E+00
 -1       367 2.62500E-01 4.50000E-01 0.00000E+00
 -1       368 2.62500E-01 4.50000E-01 1.00000E+00
 -1       369 2.50000E-01 4.50000E-01 0.00000E+00
 -1       370 2.50000E-01 4.50000E-01 1.00000E+00
 -1       371 2.37500E-01 4.50000E-01 0.00000E+00
 -1       372 2.37500E-01 4.50000E-01 1.00000E+00
 -1       373 2.25000E-01 4.50000E-01 0.00000E+00
 -1       374 2.25000E-01 4.50000E-01 1.00000E+00
 -1       375 2.12500E-01 4.50000E-01 0.00000E+00
 -1       376 2.12500E-01 4.50000E-01 1.00000E+00
 -1       377 2.00000E-01 4.50000E-01 0.00000E+00
 -1       378 2.00000E-01 4.50000E-01 1.00000E+00
 -1       379 1.87500E-01 4.50000E-01 0.00000E+00
 -1       380 1.87500E-01 4.50000E-01 1.00000E+00
 -1       381 1.75000E-01 4.50000E-01 0.00000E+00
 -1       382 1.75000E-01 4.50000E-01 1.00000E+00
 -1       383 1.62500E-01 4.50000E-01 0.00000E+00
 -1       384 1.62500E-01 4.50000E-01 1.00000E+00
 -1       385 1.50000E-01 4.50000E-01 0.00000E+00
 -1       386 1.50000E-01 4.50000E-01 1.00000E+00
 -1       387 1.37500E-01 4.50000E-01 0.00000E+00
 -1       388 1.37500E-01 4.50000E-01 1.00000E+00
 -1       389 1.25000E-01 4.50000E-01 0.00000E+00
 -1       390 1.25000E-01 4.50000E-01 1.00000E+00
 -1       391 1.12500E-01 4.50000E-01 0.00000E+00
 -1       392 1.12500E-01 4.50000E-01 1.00000E+00
 -1       393 1.00000E-01 4.50000E-01 0.00000E+00
 -1       394 1.00000E-01 4.50000E-01 1.00000E+00
 -1       395 8.75000E-02 4.50000E-01 0.00000E+00
 -1       396 8.75000E-02 4.50000E-01 1.00000E+00
 -1       397 7.50000E-02 4.50000E-01 0.00000E+00
 -1       398 7.50000E-02 4.50000E-01 1.00000E+00
 -1       399 6.25000E-02 4.50000E-01 0.00000E+00
 -1       400 6.25000E-02 4.50000E-01 1.00000E+00
 -1       401 5.00000E-02 4.50000E-01 0.00000E+00
 -1       402 5.00000E-02 4.50000E-01 1.00000E+00
 -1       403 3.75000E-02 4.50000E-01 0.00000E+00
 -1       404 3.75000E-02 4.50000E-01 1.00000E+00
 -1       405 2.50000E-02 4.50000E-01 0.00000E+00
 -1       406 2.50000E-02 4.50000E-01 1.00000E+00
 -1       407 1.25000E-02 4.50000E-01 0.00000E+00
 -1       408 1.25000E-02 4.50000E-01 1.00000E+00
 -1       409 0.00000E+00 4.50000E-01 0.00000E+00
 -1       410 0.00000E+00 4.50000E-01 1.00000E+00
 -1       411 5.00000E-01 4.37500E-01 0.00000E+00
 -1       412 5.00000E-01 4.37500E-01 1.00000E+00
 -1       413 4.87500E-01 4.37500E-01 0.00000E+00
 -1       414 4.87500E-01 4.37500E-01 1.00000E+00
 -1       415 4.75000E-01 4.37500E-01 0.00000E+00
 -1       416 4.75000E-01 4.37500E-01 1.00000E+00
 -1       417 4.62500E-01 4.37500E-01 0.00000E+00
 -1       418 4.62500E-01 4.37500E-01 1.00000E+00
 -1       419 4.50000E-01 4.37500E-01 0.00000E+00
 -1       420 4.50000E-01 4.37500E-01 1.00000E+00
 -1       421 4.37500E-01 4.37500E-01 0.00000E+00
 -1       422 4.37500E-01 4.37500E-01 1.00000E+00
 -1       423 4.25000E-01 4.37500E-01 0.00000E+00
 -1       424 4.25000E-01 4.37500E-01 1.00000E+00
 -1       425 4.12500E-01 4.37500E-01 0.00000E+00
 -1       426 4.12500E-01 4.37500E-01 1.00000E+00
 -1       427 4.00000E-01 4.37500E-01 0.00000E+00
 -1       428 4.00000E-01 4.37500E-01 1.00000E+00
 -1       429 3.87500E-01 4.37500E-01 0.00000E+00
 -1       430 3.87500E-01 4.37500E-01 1.00000E+00
 -1       431 3.75000E-01 4.37500E-01 0.00000E+00
 -1       432 3.75000E-01 4.37500E-01 1.00000E+00
 -1       433 3.62500E-01 4.37500E-01 0.00000E+00
 -1       434 3.62500E-01 4.37500E-01 1.00000E+00
 -1       435 3.50000E-01 4.37500E-01 0.00000E+00
 -1       436 3.50000E-01 4.37500E-01 1.00000E+00
 -1       437 3.37500E-01 4.37500E-01 0.00000E+00
 -1       438 3.37500E-01 4.37500E-01 1.00000E+00
 -1       439 3.25000E-01 4.37500E-01 0.00000E+00
 -1       440 3.25000E-01 4.37500E-01 1.00000E+00
 -1       441 3.12500E-01 4.37500E-01 0.00000E+00
 -1       442 3.12500E-01 4.37500E-01 1.00000E+00
 -1       443 3.00000E-01 4.37500E-01 0.00000E+00
 -1       444 3.00000E-01 4.37500E-01 1.00000E+00
 -1       445 2.87500E-01 4.37500E-01 0.00000E+00
 -1       446 2.87500E-01 4.37500E-01 1.00000E+00
 -1       447 2.75000E-01 4.37500E-01 0.00000E+00
 -1       448 2.75000E-01 4.37500E-01 1.00000E+00
 -1       449 2.62500E-01 4.37500E-01 0.00000E+00
 -1       450 2.62500E-01 4.37500E-01 1.00000E+00
 -1       451 2.50000E-01 4.37500E-01 0.00000E+00
 -1       452 2.50000E-01 4.37500E-01 1.00000E+00
 -1       453 2.37500E-01 4.37500E-01 0.00000E+00
 -1       454 2.37500E-01 4.37500E-01 1.00000E+00
 -1       455 2.25000E-01 4.37500E-01 0.00000E+00
 -1       456 2.25000E-01 4.37500E-01 1.00000E+00
 -1       457 2.12500E-01 4.37500E-01 0.00000E+00
 -1       458 2.12500E-01 4.37500E-01 1.00000E+00
 -1       459 2.00000E-01 4.37500E-01 0.00000E+00
 -1       460 2.00000E-01 4.37500E-01 1.00000E+00
 -1       461 1.87500E-01 4.37500E-01 0.00000E+00
 -1       462 1.87500E-01 4.37500E-01 1.00000E+00
 -1       463 1.75000E-01 4.37500E-01 0.00000E+00
 -1       464 1.75000E-01 4.37500E-01 1.00000E+00
 -1       465 1.62500E-01 4.37500E-01 0.00000E+00
 -1       466 1.62500E-01 4.37500E-01 1.00000E+00
 -1       467 1.50000E-01 4.37500E-01 0.00000E+00
 -1       468 1.50000E-01 4.37500E-01 1.00000E+00
 -1       469 1.37500E-01 4.37500E-01 0.00000E+00
 -1       470 1.37500E-01 4.37500E-01 1.00000E+00
 -1       471 1.25000E-01 4.37500E-01 0.00000E+00
 -1       472 1.25000E-01 4.37500E-01 1.00000E+00
 -1       473 1.12500E-01 4.37500E-01 0.00000E+00
 -1       474 1.12500E-01 4.37500E-01 1.00000E+00
 -1       475 1.00000E-01 4.37500E-01 0.00000E+00
 -1       476 1.00000E-01 4.37500E-01 1.00000E+00
 -1       477 8.75000E-02 4.37500E-01 0.00000E+00
 -1       478 8.75000E-02 4.37500E-01 1.00000E+00
 -1       479 7.50000E-02 4.37500E-01 0.00000E+00
 -1       480 7.50000E-02 4.37500E-01 1.00000E+00
 -1       481 6.25000E-02 4.37500E-01 0.00000E+00
 -1       482 6.25000E-02 4.37500E-01 1.00000E+00
 -1       483 5.00000E-02 4.37500E-01 0.00000E+00
 -1       484 5.00000E-02 4.37500E-01 1.00000E+00
 -1       485 3.75000E-02 4.37500E-01 0.00000E+00
 -1       486 3.75000E-02 4.37500E-01 1.00000E+00
 -1       487 2.50000E-02 4.37500E-01 0.00000E+00
 -1       488 2.50000E-02 4.37500E-01 1.00000E+00
 -1       489 1.25000E-02 4.37500E-01 0.00000E+00
 -1       490 1.25000E-02 4.37500E-01 1.00000E+00
 -1       491 0.00000E+00 4.37500E-01 0.00000E+00
 -1       492 0.00000E+00 4.37500E-01 1.00000E+00
 -1       493 5.00000E-01 4.25000E-01 0.00000E+00
 -1       494 5.00000E-01 4.25000E-01 1.00000E+00
 -1       495 4.87500E-01 4.25000E-01 0.00000E+00
 -1       496 4.87500E-01 4.25000E-01 1.00000E+00
 -1       497 4.75000E-01 4.25000E-01 0.00000E+00
 -1       498 4.75000E-01 4.25000E-01 1.00000E+00
 -1       499 4.62500E-01 4.25000E-01 0.00000E+00
 -1       500 4.62500E-01 4.25000E-01 1.00000E+00
 -1       501 4.50000E-01 4.25000E-01 0.00000E+00
 -1       502 4.50000E-01 4.25000E-01 1.00000E+00
 -1       503 4.37500E-01 4.25000E-01 0.00000E+00
 -1       504 4.37500E-01 4.25000E-01 1.00000E+00
 -1       505 4.25000E-01 4.25000E-01 0.00000E+00
 -1       506 4.25000E-01 4.25000E-01 1.00000E+00
 -1       507 4.12500E-01 4.25000E-01 0.00000E+00
 -1       508 4.12500E-01 4.25000E-01 1.00000E+00
 -1       509 4.00000E-01 4.25000E-01 0.00000E+00
 -1       510 4.00000E-01 4.25000E-01 1.00000E+00
 -1       511 3.87500E-01 4.25000E-01 0.00000E+00
 -1       512 3.87500E-01 4.25000E-01 1.00000E+00
 -1       513 3.75000E-01 4.25000E-01 0.00000E+00
 -1       514 3.75000E-01 4.25000E-01 1.00000E+00
 -1       515 3.62500E-01 4.25000E-01 0.00000E+00
 -1       516 3.62500E-01 4.25000E-01 1.00000E+00
 -1       517 3.50000E-01 4.25000E-01 0.00000E+00
 -1       518 3.50000E-01 4.25000E-01 1.00000E+00
 -1       519 3.37500E-01 4.25000E-01 0.00000E+00
 -1       520 3.37500E-01 4.25000E-01 1.00000E+00
 -1       521 3.25000E-01 4.25000E-01 0.00000E+00
 -1       522 3.25000E-01 4.25000E-01 1.00000E+00
 -1       523 3.12500E-01 4.25000E-01 0.00000E+00
 -1       524 3.12500E-01 4.25000E-01 1.00000E+00
 -1       525 3.00000E-01 4.25000E-01 0.00000E+00
 -1       526 3.00000E-01 4.25000E-01 1.00000E+00
 -1       527 2.87500E-01 4.25000E-01 0.00000E+00
 -1       528 2.87500E-01 4.25000E-01 1.00000E+00
 -1       529 2.75000E-01 4.25000E-01 0.00000E+00
 -1       530 2.75000E-01 4.25000E-01 1.00000E+00
 -1       531 2.62500E-01 4.25000E-01 0.00000E+00
 -1       532 2.62500E-01 4.25000E-01 1.00000E+00
 -1       533 2.50000E-01 4.25000E-01 0.00000E+00
 -1       534 2.50000E-01 4.25000E-01 1.00000E+00
 -1       535 2.37500E-01 4.25000E-01 0.00000E+00
 -1       536 2.37500E-01 4.25000E-01 1.00000E+00
 -1       537 2.25000E-01 4.25000E-01 0.00000E+00
 -1       538 2.25000E-01 4.25000E-01 1.00000E+00
 -1       539 2.12500E-01 4.25000E-01 0.00000E+00
 -1       540 2.12500E-01 4.25000E-01 1.00000E+00
 -1       541 2.00000E-01 4.25000E-01 0.00000E+00
 -1       542 2.00000E-01 4.25000E-01 1.00000E+00
 -1       543 1.87500E-01 4.25000E-01 0.00000E+00
 -1       544 1.87500E-01 4.25000E-01 1.00000E+00
 -1       545 1.75000E-01 4.25000E-01 0.00000E+00
 -1       546 1.75000E-01 4.25000E-01 1.00000E+00
 -1       547 1.62500E-01 4.25000E-01 0.00000E+00
 -1       548 1.62500E-01 4.25000E-01 1.00000E+00
 -1       549 1.50000E-01 4.25000E-01 0.00000E+00
 -1       550 1.50000E-01 4.25000E-01 1.00000E+00
 -1       551 1.37500E-01 4.25000E-01 0.00000E+00
 -1       552 1.37500E-01 4.25000E-01 1.00000E+00
 -1       553 1.25000E-01 4.25000E-01 0.00000E+00
 -1       554 1.25000E-01 4.25000E-01 1.00000E+00
 -1       555 1.12500E-01 4.25000E-01 0.00000E+00
 -1       556 1.12500E-01 4.25000E-01 1.00000E+00
 -1       557 1.00000E-01 4.25000E-01 0.00000E+00
 -1       558 1.00000E-01 4.25000E-01 1.00000E+00
 -1       559 8.75000E-02 4.25000E-01 0.00000E+00
 -1       560 8.75000E-02 4.25000E-01 1.00000E+00
 -1       561 7.50000E-02 4.25000E-01 0.00000E+00
 -1       562 7.50000E-02 4.25000E-01 1.00000E+00
 -1       563 6.25000E-02 4.25000E-01 0.00000E+00
 -1       564 6.25000E-02 4.25000E-01 1.00000E+00
 -1       565 5.00000E-02 4.25000E-01 0.00000E+00
 -1       566 5.00000E-02 4.25000E-01 1.00000E+00
 -1       567 3.75000E-02 4.25000E-01 0.00000E+00
 -1       568 3.75000E-02 4.25000E-01 1.00000E+00
 -1       569 2.50000E-02 4.25000E-01 0.00000E+00
 -1       570 2.50000E-02 4.25000E-01 1.00000E+00
 -1       571 1.25000E-02 4.25000E-01 0.00000E+00
 -1       572 1.25000E-02 4.25000E-01 1.00000E+00
 -1       573 0.00000E+00 4.25000E-01 0.00000E+00
 -1       574 0.00000E+00 4.25000E-01 1.00000E+00
 -1       575 5.00000E-01 4.12500E-01 0.00000E+00
 -1       576 5.00000E-01 4.12500E-01 1.00000E+00
 -1       577 4.87500E-01 4.12500E-01 0.00000E+00
 -1       578 4.87500E-01 4.12500E-01 1.00000E+00
 -1       579 4.75000E-01 4.12500E-01 0.00000E+00
 -1       580 4.75000E-01 4.12500E-01 1.00000E+00
 -1       581 4.62500E-01 4.12500E-01 0.00000E+00
 -1       582 4.62500E-01 4.12500E-01 1.00000E+00
 -1       583 4.50000E-01 4.12500E-01 0.00000E+00
 -1       584 4.50000E-01 4.12500E-01 1.00000E+00
 -1       585 4.37500E-01 4.12500E-01 0.00000E+00
 -1       586 4.37500E-01 4.12500E-01 1.00000E+00
 -1       587 4.25000E-01 4.12500E-01 0.00000E+00
 -1       588 4.25000E-01 4.12500E-01 1.00000E+00
 -1       589 4.12500E-01 4.12500E-01 0.00000E+00
 -1       590 4.12500E-01 4.12500E-01 1.00000E+00
 -1       591 4.00000E-01 4.12500E-01 0.00000E+00
 -1       592 4.00000E-01 4.12500E-01 1.00000E+00
 -1       593 3.87500E-01 4.12500E-01 0.00000E+00
 -1       594 3.87500E-01 4.12500E-01 1.00000E+00
 -1       595 3.75000E-01 4.12500E-01 0.00000E+00