    1C
    1C
    1UUSER
    1UDATE              25.january.2020     
    1UTIME              14:05:22
    1UHOST
    1UPGM               CalculiX
    1UDIR
    1UDBN
    2C                                                                   1
 -1         1 7.60000E-04-1.41280E-01 7.37529E-17
 -1         2-1.58078E-02-1.34833E-01 1.62685E-16
 -1         3-1.58078E-02-1.34833E-01 1.00000E+00
 -1         4 7.60000E-04-1.41280E-01 1.00000E+00
 -1         5 9.95665E-03-1.15339E-01 7.37529E-17
 -1         6-3.82815E-03-1.09995E-01 1.62685E-16
 -1         7-3.82815E-03-1.09995E-01 1.00000E+00
 -1         8 9.95665E-03-1.15339E-01 1.00000E+00
 -1         9 1.71611E-02-9.50175E-02 7.37529E-17
 -1        10 5.55721E-03-9.05381E-02 7.37529E-17
 -1        11 5.55721E-03-9.05381E-02 1.00000E+00
 -1        12 1.71611E-02-9.50175E-02 1.00000E+00
 -1        13 2.28050E-02-7.90979E-02 7.37529E-17
 -1        14 1.29100E-02-7.52960E-02 7.37529E-17
 -1        15 1.29100E-02-7.52960E-02 1.00000E+00
 -1        16 2.28050E-02-7.90979E-02 1.00000E+00
 -1        17 2.72263E-02-6.66268E-02 7.37529E-17
 -1        18 1.86702E-02-6.33558E-02 7.37529E-17
 -1        19 1.86702E-02-6.33558E-02 1.00000E+00
 -1        20 2.72263E-02-6.66268E-02 1.00000E+00
 -1        21 3.06898E-02-5.68572E-02 7.37529E-17
 -1        22 2.31828E-02-5.40022E-02-1.51788E-17
 -1        23 2.31828E-02-5.40022E-02 1.00000E+00
 -1        24 3.06898E-02-5.68572E-02 1.00000E+00
 -1        25 3.34031E-02-4.92039E-02 7.37529E-17
 -1        26 2.67181E-02-4.66747E-02-1.51788E-17
 -1        27 2.67181E-02-4.66747E-02 1.00000E+00
 -1        28 3.34031E-02-4.92039E-02 1.00000E+00
 -1        29 3.55286E-02-4.32084E-02 7.37529E-17
 -1        30 2.94875E-02-4.09346E-02-1.51788E-17
 -1        31 2.94875E-02-4.09346E-02 1.00000E+00
 -1        32 3.55286E-02-4.32084E-02 1.00000E+00
 -1        33 3.71937E-02-3.85117E-02 7.37529E-17
 -1        34 3.16571E-02-3.64379E-02-1.51788E-17
 -1        35 3.16571E-02-3.64379E-02 1.00000E+00
 -1        36 3.71937E-02-3.85117E-02 1.00000E+00
 -1        37 3.84982E-02-3.48323E-02 7.37529E-17
 -1        38 3.33568E-02-3.29153E-02-1.51788E-17
 -1        39 3.33568E-02-3.29153E-02 1.00000E+00
 -1        40 3.84982E-02-3.48323E-02 1.00000E+00
 -1        41 3.95200E-02-3.19500E-02 7.37529E-17
 -1        42 3.46883E-02-3.01557E-02-1.51788E-17
 -1        43 3.46883E-02-3.01557E-02 1.00000E+00
 -1        44 3.95200E-02-3.19500E-02 1.00000E+00
 -1        45-3.18876E-02-1.27251E-01-1.51788E-17
 -1        46-3.18876E-02-1.27251E-01 1.00000E+00
 -1        47-1.72287E-02-1.03751E-01-1.51788E-17
 -1        48-1.72287E-02-1.03751E-01 1.00000E+00
 -1        49-5.74356E-03-8.53431E-02-1.51788E-17
 -1        50-5.74356E-03-8.53431E-02 1.00000E+00
 -1        51 3.25470E-03-7.09231E-02 7.37529E-17
 -1        52 3.25470E-03-7.09231E-02 1.00000E+00
 -1        53 1.03044E-02-5.96271E-02 7.37529E-17
 -1        54 1.03044E-02-5.96271E-02 1.00000E+00
 -1        55 1.58274E-02-5.07783E-02 7.37529E-17
 -1        56 1.58274E-02-5.07783E-02 1.00000E+00
 -1        57 2.01542E-02-4.38465E-02 7.37529E-17
 -1        58 2.01542E-02-4.38465E-02 1.00000E+00
 -1        59 2.35439E-02-3.84163E-02 7.37529E-17
 -1        60 2.35439E-02-3.84163E-02 1.00000E+00
 -1        61 2.61994E-02-3.41625E-02 7.37529E-17
 -1        62 2.61994E-02-3.41625E-02 1.00000E+00
 -1        63 2.82797E-02-3.08302E-02 7.37529E-17
 -1        64 2.82797E-02-3.08302E-02 1.00000E+00
 -1        65 2.99095E-02-2.82197E-02 7.37529E-17
 -1        66 2.99095E-02-2.82197E-02 1.00000E+00
 -1        67-4.72978E-02-1.18385E-01 7.37529E-17
 -1        68-4.72978E-02-1.18385E-01 1.00000E+00
 -1        69-3.00998E-02-9.64864E-02 7.37529E-17
 -1        70-3.00998E-02-9.64864E-02 1.00000E+00
 -1        71-1.66250E-02-7.93333E-02 7.37529E-17
 -1        72-1.66250E-02-7.93333E-02 1.00000E+00
 -1        73-6.06774E-03-6.58969E-02 7.37529E-17
 -1        74-6.06774E-03-6.58969E-02 1.00000E+00
 -1        75 2.20348E-03-5.53719E-02 7.37529E-17
 -1        76 2.20348E-03-5.53719E-02 1.00000E+00
 -1        77 8.68351E-03-4.71272E-02 7.37529E-17
 -1        78 8.68351E-03-4.71272E-02 1.00000E+00
 -1        79 1.37602E-02-4.06687E-02 7.37529E-17
 -1        80 1.37602E-02-4.06687E-02 1.00000E+00
 -1        81 1.77373E-02-3.56094E-02 7.37529E-17
 -1        82 1.77373E-02-3.56094E-02 1.00000E+00
 -1        83 2.08530E-02-3.16462E-02 7.37529E-17
 -1        84 2.08530E-02-3.16462E-02 1.00000E+00
 -1        85 2.32939E-02-2.85415E-02 7.37529E-17
 -1        86 2.32939E-02-2.85415E-02 1.00000E+00
 -1        87 2.52061E-02-2.61094E-02 7.37529E-17
 -1        88 2.52061E-02-2.61094E-02 1.00000E+00
 -1        89-6.17852E-02-1.08077E-01 7.37529E-17
 -1        90-6.17852E-02-1.08077E-01 1.00000E+00
 -1        91-4.22431E-02-8.80724E-02 7.37529E-17
 -1        92-4.22431E-02-8.80724E-02 1.00000E+00
 -1        93-2.69316E-02-7.24038E-02 7.37529E-17
 -1        94-2.69316E-02-7.24038E-02 1.00000E+00
 -1        95-1.49353E-02-6.01311E-02-1.51788E-17
 -1        96-1.49353E-02-6.01311E-02 1.00000E+00
 -1        97-5.53668E-03-5.05178E-02-1.51788E-17
 -1        98-5.53668E-03-5.05178E-02 1.00000E+00
 -1        99 1.82660E-03-4.29877E-02-1.51788E-17
 -1       100 1.82660E-03-4.29877E-02 1.00000E+00
 -1       101 7.59522E-03-3.70891E-02-1.51788E-17
 -1       102 7.59522E-03-3.70891E-02 1.00000E+00
 -1       103 1.21145E-02-3.24685E-02-1.51788E-17
 -1       104 1.21145E-02-3.24685E-02 1.00000E+00
 -1       105 1.56549E-02-2.88489E-02-1.51788E-17
 -1       106 1.56549E-02-2.88489E-02 1.00000E+00
 -1       107 1.84285E-02-2.60135E-02-1.51788E-17
 -1       108 1.84285E-02-2.60135E-02 1.00000E+00
 -1       109 2.06013E-02-2.37924E-02-1.51788E-17
 -1       110 2.06013E-02-2.37924E-02 1.00000E+00
 -1       111-7.50584E-02-9.62410E-02-1.51788E-17
 -1       112-7.50584E-02-9.62410E-02 1.00000E+00
 -1       113-5.34295E-02-7.84360E-02-1.51788E-17
 -1       114-5.34295E-02-7.84360E-02 1.00000E+00
 -1       115-3.64832E-02-6.44917E-02-1.51788E-17
 -1       116-3.64832E-02-6.44917E-02 1.00000E+00
 -1       117-2.32063E-02-5.35703E-02-1.51788E-17
 -1       118-2.32063E-02-5.35703E-02 1.00000E+00
 -1       119-1.28044E-02-4.50161E-02-1.51788E-17
 -1       120-1.28044E-02-4.50161E-02 1.00000E+00
 -1       121-4.65513E-03-3.83158E-02-1.51788E-17
 -1       122-4.65513E-03-3.83158E-02 1.00000E+00
 -1       123 1.72919E-03-3.30674E-02-1.51788E-17
 -1       124 1.72919E-03-3.30674E-02 1.00000E+00
 -1       125 6.73077E-03-2.89563E-02-1.51788E-17
 -1       126 6.73077E-03-2.89563E-02 1.00000E+00
 -1       127 1.06491E-02-2.57359E-02-1.51788E-17
 -1       128 1.06491E-02-2.57359E-02 1.00000E+00
 -1       129 1.37186E-02-2.32132E-02-1.51788E-17
 -1       130 1.37186E-02-2.32132E-02 1.00000E+00
 -1       131 1.61234E-02-2.12371E-02-1.51788E-17
 -1       132 1.61234E-02-2.12371E-02 1.00000E+00
 -1       133-8.68546E-02-8.29271E-02 7.37529E-17
 -1       134-8.68546E-02-8.29271E-02 1.00000E+00
 -1       135-6.34434E-02-6.76002E-02 7.37529E-17
 -1       136-6.34434E-02-6.76002E-02 1.00000E+00
 -1       137-4.51013E-02-5.55980E-02 7.37529E-17
 -1       138-4.51013E-02-5.55980E-02 1.00000E+00
 -1       139-3.07311E-02-4.61986E-02-1.51788E-17
 -1       140-3.07311E-02-4.61986E-02 1.00000E+00
 -1       141-1.94729E-02-3.88369E-02-1.51788E-17
 -1       142-1.94729E-02-3.88369E-02 1.00000E+00
 -1       143-1.06529E-02-3.30710E-02-1.51788E-17
 -1       144-1.06529E-02-3.30710E-02 1.00000E+00
 -1       145-3.74315E-03-2.85547E-02-1.51788E-17
 -1       146-3.74315E-03-2.85547E-02 1.00000E+00
 -1       147 1.66999E-03-2.50171E-02-1.51788E-17
 -1       148 1.66999E-03-2.50171E-02 1.00000E+00
 -1       149 5.91067E-03-2.22461E-02-1.51788E-17
 -1       150 5.91067E-03-2.22461E-02 1.00000E+00
 -1       151 9.23281E-03-2.00755E-02-1.51788E-17
 -1       152 9.23281E-03-2.00755E-02 1.00000E+00
 -1       153 1.18354E-02-1.83752E-02-1.51788E-17
 -1       154 1.18354E-02-1.83752E-02 1.00000E+00
 -1       155-9.69463E-02-6.82662E-02 7.37529E-17
 -1       156-9.69463E-02-6.82662E-02 1.00000E+00
 -1       157-7.20812E-02-5.56367E-02 7.37529E-17
 -1       158-7.20812E-02-5.56367E-02 1.00000E+00
 -1       159-5.26008E-02-4.57478E-02 7.37529E-17
 -1       160-5.26008E-02-4.57478E-02 1.00000E+00
 -1       161-3.73391E-02-3.80040E-02-1.51788E-17
 -1       162-3.73391E-02-3.80040E-02 1.00000E+00
 -1       163-2.53829E-02-3.19395E-02-1.51788E-17
 -1       164-2.53829E-02-3.19395E-02 1.00000E+00
 -1       165-1.60162E-02-2.71898E-02-1.51788E-17
 -1       166-1.60162E-02-2.71898E-02 1.00000E+00
 -1       167-8.67824E-03-2.34697E-02-1.51788E-17
 -1       168-8.67824E-03-2.34697E-02 1.00000E+00
 -1       169-2.92971E-03-2.05559E-02-1.51788E-17
 -1       170-2.92971E-03-2.05559E-02 1.00000E+00
 -1       171 1.57367E-03-1.82735E-02-1.51788E-17
 -1       172 1.57367E-03-1.82735E-02 1.00000E+00
 -1       173 5.10158E-03-1.64857E-02-1.51788E-17
 -1       174 5.10158E-03-1.64857E-02 1.00000E+00
 -1       175 7.86532E-03-1.50852E-02-1.51788E-17
 -1       176 7.86532E-03-1.50852E-02 1.00000E+00
 -1       177-1.05114E-01-5.24503E-02 7.37529E-17
 -1       178-1.05114E-01-5.24503E-02 1.00000E+00
 -1       179-7.91348E-02-4.26726E-02 7.37529E-17
 -1       180-7.91348E-02-4.26726E-02 1.00000E+00
 -1       181-5.87826E-02-3.50173E-02 7.37529E-17
 -1       182-5.87826E-02-3.50173E-02 1.00000E+00
 -1       183-4.28386E-02-2.90231E-02 7.37529E-17
 -1       184-4.28386E-02-2.90231E-02 1.00000E+00
 -1       185-3.03480E-02-2.43290E-02 7.37529E-17
 -1       186-3.03480E-02-2.43290E-02 1.00000E+00
 -1       187-2.05628E-02-2.06528E-02 7.37529E-17
 -1       188-2.05628E-02-2.06528E-02 1.00000E+00
 -1       189-1.28972E-02-1.77735E-02 7.37529E-17
 -1       190-1.28972E-02-1.77735E-02 1.00000E+00
 -1       191-6.89209E-03-1.55184E-02 7.37529E-17
 -1       192-6.89209E-03-1.55184E-02 1.00000E+00
 -1       193-2.18772E-03-1.37519E-02 7.37529E-17
 -1       194-2.18772E-03-1.37519E-02 1.00000E+00
 -1       195 1.49763E-03-1.23683E-02 7.37529E-17
 -1       196 1.49763E-03-1.23683E-02 1.00000E+00
 -1       197 4.38468E-03-1.12845E-02 7.37529E-17
 -1       198 4.38468E-03-1.12845E-02 1.00000E+00
 -1       199-1.11138E-01-3.56985E-02-1.51788E-17
 -1       200-1.11138E-01-3.56985E-02 1.00000E+00
 -1       201-8.43878E-02-2.88646E-02-1.51788E-17
 -1       202-8.43878E-02-2.88646E-02 1.00000E+00
 -1       203-6.34320E-02-2.35156E-02-1.51788E-17
 -1       204-6.34320E-02-2.35156E-02 1.00000E+00
 -1       205-4.70154E-02-1.93280E-02-1.51788E-17
 -1       206-4.70154E-02-1.93280E-02 1.00000E+00
 -1       207-3.41549E-02-1.60493E-02-1.51788E-17
 -1       208-3.41549E-02-1.60493E-02 1.00000E+00
 -1       209-2.40801E-02-1.34818E-02-1.51788E-17
 -1       210-2.40801E-02-1.34818E-02 1.00000E+00
 -1       211-1.61877E-02-1.14712E-02-1.51788E-17
 -1       212-1.61877E-02-1.14712E-02 1.00000E+00
 -1       213-1.00049E-02-9.89645E-03-1.51788E-17
 -1       214-1.00049E-02-9.89645E-03 1.00000E+00
 -1       215-5.16136E-03-8.66308E-03-1.51788E-17
 -1       216-5.16136E-03-8.66308E-03 1.00000E+00
 -1       217-1.36704E-03-7.69704E-03-1.51788E-17
 -1       218-1.36704E-03-7.69704E-03 1.00000E+00
 -1       219 1.60537E-03-6.94034E-03-1.51788E-17
 -1       220 1.60537E-03-6.94034E-03 1.00000E+00
 -1       221-1.14800E-01-1.82300E-02 7.37529E-17
 -1       222-1.14800E-01-1.82300E-02 1.00000E+00
 -1       223-8.75470E-02-1.43862E-02 7.37529E-17
 -1       224-8.75470E-02-1.43862E-02 1.00000E+00
 -1       225-6.61975E-02-1.13750E-02 7.37529E-17
 -1       226-6.61975E-02-1.13750E-02 1.00000E+00
 -1       227-4.94727E-02-9.01615E-03 7.37529E-17
 -1       228-4.94727E-02-9.01615E-03 1.00000E+00
 -1       229-3.63708E-02-7.16825E-03 7.37529E-17
 -1       230-3.63708E-02-7.16825E-03 1.00000E+00
 -1       231-2.61070E-02-5.72063E-03 7.37529E-17
 -1       232-2.61070E-02-5.72063E-03 1.00000E+00
 -1       233-1.80666E-02-4.58660E-03 7.37529E-17
 -1       234-1.80666E-02-4.58660E-03 1.00000E+00
 -1       235-1.17679E-02-3.69822E-03 7.37529E-17
 -1       236-1.17679E-02-3.69822E-03 1.00000E+00
 -1       237-6.83355E-03-3.00228E-03 7.37529E-17
 -1       238-6.83355E-03-3.00228E-03 1.00000E+00
 -1       239-2.96811E-03-2.45709E-03 7.37529E-17
 -1       240-2.96811E-03-2.45709E-03 1.00000E+00
 -1       241 6.00000E-05-2.03000E-03 7.37529E-17
 -1       242 6.00000E-05-2.03000E-03 1.00000E+00
 -1       243-2.94640E-01-9.74470E-01 7.37529E-17
 -1       244-4.00050E-01-9.31183E-01 7.37529E-17
 -1       245-4.00050E-01-9.31183E-01 1.00000E+00
 -1       246-2.94640E-01-9.74470E-01 1.00000E+00
 -1       247-2.24550E-01-7.76778E-01 7.37529E-17
 -1       248-3.08887E-01-7.42228E-01 7.37529E-17
 -1       249-3.08887E-01-7.42228E-01 1.00000E+00
 -1       250-2.24550E-01-7.76778E-01 1.00000E+00
 -1       251-1.69643E-01-6.21909E-01 7.37529E-17
 -1       252-2.37468E-01-5.94206E-01 7.37529E-17
 -1       253-2.37468E-01-5.94206E-01 1.00000E+00
 -1       254-1.69643E-01-6.21909E-01 1.00000E+00
 -1       255-1.26629E-01-5.00588E-01 7.37529E-17
 -1       256-1.81519E-01-4.78249E-01 1.62685E-16
 -1       257-1.81519E-01-4.78249E-01 1.00000E+00
 -1       258-1.26629E-01-5.00588E-01 1.00000E+00
 -1       259-9.29337E-02-4.05548E-01 7.37529E-17
 -1       260-1.37688E-01-3.87411E-01 1.62685E-16
 -1       261-1.37688E-01-3.87411E-01 1.00000E+00
 -1       262-9.29337E-02-4.05548E-01 1.00000E+00
 -1       263-6.65371E-02-3.31095E-01 7.37529E-17
 -1       264-1.03351E-01-3.16251E-01 1.62685E-16
 -1       265-1.03351E-01-3.16251E-01 1.00000E+00
 -1       266-6.65371E-02-3.31095E-01 1.00000E+00
 -1       267-4.58584E-02-2.72770E-01 7.37529E-17
 -1       268-7.64517E-02-2.60506E-01 1.62685E-16
 -1       269-7.64517E-02-2.60506E-01 1.00000E+00
 -1       270-4.58584E-02-2.72770E-01 1.00000E+00
 -1       271-2.96592E-02-2.27079E-01 7.37529E-17
 -1       272-5.53790E-02-2.16836E-01 1.62685E-16
 -1       273-5.53790E-02-2.16836E-01 1.00000E+00
 -1       274-2.96592E-02-2.27079E-01 1.00000E+00
 -1       275-1.69690E-02-1.91286E-01 7.37529E-17
 -1       276-3.88709E-02-1.82626E-01 1.62685E-16
 -1       277-3.88709E-02-1.82626E-01 1.00000E+00
 -1       278-1.69690E-02-1.91286E-01 1.00000E+00
 -1       279-7.02778E-03-1.63246E-01 7.37529E-17
 -1       280-2.59387E-02-1.55827E-01 1.62685E-16
 -1       281-2.59387E-02-1.55827E-01 1.00000E+00
 -1       282-7.02778E-03-1.63246E-01 1.00000E+00
 -1       283-5.00536E-01-8.77429E-01 7.37529E-17
 -1       284-5.00536E-01-8.77429E-01 1.00000E+00
 -1       285-3.89350E-01-6.99426E-01 7.37529E-17
 -1       286-3.89350E-01-6.99426E-01 1.00000E+00
 -1       287-3.02244E-01-5.59984E-01 7.37529E-17
 -1       288-3.02244E-01-5.59984E-01 1.00000E+00
 -1       289-2.34004E-01-4.50750E-01-1.51788E-17
 -1       290-2.34004E-01-4.50750E-01 1.00000E+00
 -1       291-1.80544E-01-3.65180E-01-1.51788E-17
 -1       292-1.80544E-01-3.65180E-01 1.00000E+00
 -1       293-1.38664E-01-2.98147E-01-1.51788E-17
 -1       294-1.38664E-01-2.98147E-01 1.00000E+00
 -1       295-1.05855E-01-2.45635E-01-1.51788E-17
 -1       296-1.05855E-01-2.45635E-01 1.00000E+00
 -1       297-8.01528E-02-2.04498E-01-1.51788E-17
 -1       298-8.01528E-02-2.04498E-01 1.00000E+00
 -1       299-6.00178E-02-1.72272E-01-1.51788E-17
 -1       300-6.00178E-02-1.72272E-01 1.00000E+00
 -1       301-4.42444E-02-1.47027E-01-1.51788E-17
 -1       302-4.42444E-02-1.47027E-01 1.00000E+00
 -1       303-5.94806E-01-8.13355E-01 2.51589E-16
 -1       304-5.94806E-01-8.13355E-01 1.00000E+00
 -1       305-4.64910E-01-6.48447E-01 2.51589E-16
 -1       306-4.64910E-01-6.48447E-01 1.00000E+00
 -1       307-3.63146E-01-5.19267E-01 1.62685E-16
 -1       308-3.63146E-01-5.19267E-01 1.00000E+00
 -1       309-2.83424E-01-4.18072E-01 1.62685E-16
 -1       310-2.83424E-01-4.18072E-01 1.00000E+00
 -1       311-2.20969E-01-3.38799E-01 1.62685E-16
 -1       312-2.20969E-01-3.38799E-01 1.00000E+00
 -1       313-1.72041E-01-2.76700E-01 7.37529E-17
 -1       314-1.72041E-01-2.76700E-01 1.00000E+00
 -1       315-1.33712E-01-2.28053E-01 7.37529E-17
 -1       316-1.33712E-01-2.28053E-01 1.00000E+00
 -1       317-1.03684E-01-1.89945E-01 7.37529E-17
 -1       318-1.03684E-01-1.89945E-01 1.00000E+00
 -1       319-8.01614E-02-1.60092E-01 7.37529E-17
 -1       320-8.01614E-02-1.60092E-01 1.00000E+00
 -1       321-6.17337E-02-1.36705E-01 7.37529E-17
 -1       322-6.17337E-02-1.36705E-01 1.00000E+00
 -1       323-6.81596E-01-7.39414E-01 7.37529E-17
 -1       324-6.81596E-01-7.39414E-01 1.00000E+00
 -1       325-5.34544E-01-5.89603E-01 7.37529E-17
 -1       326-5.34544E-01-5.89603E-01 1.00000E+00
 -1       327-4.19340E-01-4.72250E-01 7.37529E-17
 -1       328-4.19340E-01-4.72250E-01 1.00000E+00
 -1       329-3.29090E-01-3.80321E-01 7.37529E-17
 -1       330-3.29090E-01-3.80321E-01 1.00000E+00
 -1       331-2.58387E-01-3.08307E-01 7.37529E-17
 -1       332-2.58387E-01-3.08307E-01 1.00000E+00
 -1       333-2.02999E-01-2.51894E-01 7.37529E-17
 -1       334-2.02999E-01-2.51894E-01 1.00000E+00
 -1       335-1.59608E-01-2.07702E-01 7.37529E-17
 -1       336-1.59608E-01-2.07702E-01 1.00000E+00
 -1       337-1.25617E-01-1.73084E-01 7.37529E-17
 -1       338-1.25617E-01-1.73084E-01 1.00000E+00
 -1       339-9.89878E-02-1.45964E-01 7.37529E-17
 -1       340-9.89878E-02-1.45964E-01 1.00000E+00
 -1       341-7.81272E-02-1.24720E-01 7.37529E-17
 -1       342-7.81272E-02-1.24720E-01 1.00000E+00
 -1       343-7.59768E-01-6.56373E-01 1.62685E-16
 -1       344-7.59768E-01-6.56373E-01 1.00000E+00
 -1       345-5.97314E-01-5.23457E-01 1.62685E-16
 -1       346-5.97314E-01-5.23457E-01 1.00000E+00
 -1       347-4.70048E-01-4.19339E-01 7.37529E-17
 -1       348-4.70048E-01-4.19339E-01 1.00000E+00
 -1       349-3.70347E-01-3.37778E-01 7.37529E-17
 -1       350-3.70347E-01-3.37778E-01 1.00000E+00
 -1       351-2.92242E-01-2.73886E-01 7.37529E-17
 -1       352-2.92242E-01-2.73886E-01 1.00000E+00
 -1       353-2.31055E-01-2.23836E-01-1.51788E-17
 -1       354-2.31055E-01-2.23836E-01 1.00000E+00
 -1       355-1.83122E-01-1.84629E-01-1.51788E-17
 -1       356-1.83122E-01-1.84629E-01 1.00000E+00
 -1       357-1.45572E-01-1.53915E-01-1.51788E-17
 -1       358-1.45572E-01-1.53915E-01 1.00000E+00
 -1       359-1.16155E-01-1.29855E-01-1.51788E-17
 -1       360-1.16155E-01-1.29855E-01 1.00000E+00
 -1       361-9.31110E-02-1.11006E-01-1.51788E-17
 -1       362-9.31110E-02-1.11006E-01 1.00000E+00
 -1       363-8.28298E-01-5.65166E-01 2.51589E-16
 -1       364-8.28298E-01-5.65166E-01 1.00000E+00
 -1       365-6.52380E-01-4.50733E-01 2.51589E-16
 -1       366-6.52380E-01-4.50733E-01 1.00000E+00
 -1       367-5.14567E-01-3.61094E-01 1.62685E-16
 -1       368-5.14567E-01-3.61094E-01 1.00000E+00
 -1       369-4.06605E-01-2.90875E-01 1.62685E-16
 -1       370-4.06605E-01-2.90875E-01 1.00000E+00
 -1       371-3.22029E-01-2.35869E-01 1.62685E-16
 -1       372-3.22029E-01-2.35869E-01 1.00000E+00
 -1       373-2.55773E-01-1.92779E-01 7.37529E-17
 -1       374-2.55773E-01-1.92779E-01 1.00000E+00
 -1       375-2.03870E-01-1.59023E-01 7.37529E-17
 -1       376-2.03870E-01-1.59023E-01 1.00000E+00
 -1       377-1.63209E-01-1.32581E-01 7.37529E-17
 -1       378-1.63209E-01-1.32581E-01 1.00000E+00
 -1       379-1.31356E-01-1.11866E-01 7.37529E-17
 -1       380-1.31356E-01-1.11866E-01 1.00000E+00
 -1       381-1.06402E-01-9.56390E-02 7.37529E-17
 -1       382-1.06402E-01-9.56390E-02 1.00000E+00
 -1       383-8.86314E-01-4.66870E-01 7.37529E-17
 -1       384-8.86314E-01-4.66870E-01 1.00000E+00
 -1       385-6.99023E-01-3.72282E-01 7.37529E-17
 -1       386-6.99023E-01-3.72282E-01 1.00000E+00
 -1       387-5.52302E-01-2.98189E-01 7.37529E-17
 -1       388-5.52302E-01-2.98189E-01 1.00000E+00
 -1       389-4.37362E-01-2.40148E-01 7.37529E-17
 -1       390-4.37362E-01-2.40148E-01 1.00000E+00
 -1       391-3.47319E-01-1.94681E-01 7.37529E-17
 -1       392-3.47319E-01-1.94681E-01 1.00000E+00
 -1       393-2.76782E-01-1.59065E-01 7.37529E-17
 -1       394-2.76782E-01-1.59065E-01 1.00000E+00
 -1       395-2.21523E-01-1.31164E-01 7.37529E-17
 -1       396-2.21523E-01-1.31164E-01 1.00000E+00
 -1       397-1.78235E-01-1.09308E-01 7.37529E-17
 -1       398-1.78235E-01-1.09308E-01 1.00000E+00
 -1       399-1.44323E-01-9.21860E-02 7.37529E-17
 -1       400-1.44323E-01-9.21860E-02 1.00000E+00
 -1       401-1.17757E-01-7.87733E-02 7.37529E-17
 -1       402-1.17757E-01-7.87733E-02 1.00000E+00
 -1       403-9.33098E-01-3.62706E-01-1.51788E-17
 -1       404-9.33098E-01-3.62706E-01 1.00000E+00
 -1       405-7.36642E-01-2.89087E-01-1.51788E-17
 -1       406-7.36642E-01-2.89087E-01 1.00000E+00
 -1       407-5.82741E-01-2.31417E-01-1.51788E-17
 -1       408-5.82741E-01-2.31417E-01 1.00000E+00
 -1       409-4.62178E-01-1.86241E-01 7.37529E-17
 -1       410-4.62178E-01-1.86241E-01 1.00000E+00
 -1       411-3.67731E-01-1.50851E-01 7.37529E-17
 -1       412-3.67731E-01-1.50851E-01 1.00000E+00
 -1       413-2.93743E-01-1.23128E-01 7.37529E-17
 -1       414-2.93743E-01-1.23128E-01 1.00000E+00
 -1       415-2.35783E-01-1.01410E-01 7.37529E-17
 -1       416-2.35783E-01-1.01410E-01 1.00000E+00
 -1       417-1.90377E-01-8.43973E-02 7.37529E-17
 -1       418-1.90377E-01-8.43973E-02 1.00000E+00
 -1       419-1.54807E-01-7.10697E-02 7.37529E-17
 -1       420-1.54807E-01-7.10697E-02 1.00000E+00
 -1       421-1.26942E-01-6.06292E-02 7.37529E-17
 -1       422-1.26942E-01-6.06292E-02 1.00000E+00
 -1       423-9.67942E-01-2.53903E-01-1.04083E-16
 -1       424-9.67942E-01-2.53903E-01 1.00000E+00
 -1       425-7.64644E-01-2.02138E-01-1.04083E-16
 -1       426-7.64644E-01-2.02138E-01 1.00000E+00
 -1       427-6.05385E-01-1.61583E-01-1.04083E-16
 -1       428-6.05385E-01-1.61583E-01 1.00000E+00
 -1       429-4.80625E-01-1.29810E-01-1.51788E-17
 -1       430-4.80625E-01-1.29810E-01 1.00000E+00
 -1       431-3.82892E-01-1.04919E-01-1.51788E-17
 -1       432-3.82892E-01-1.04919E-01 1.00000E+00
 -1       433-3.06329E-01-8.54181E-02-1.51788E-17
 -1       434-3.06329E-01-8.54181E-02 1.00000E+00
 -1       435-2.46352E-01-7.01412E-02-1.51788E-17
 -1       436-2.46352E-01-7.01412E-02 1.00000E+00
 -1       437-1.99367E-01-5.81731E-02-1.51788E-17
 -1       438-1.99367E-01-5.81731E-02 1.00000E+00
 -1       439-1.62560E-01-4.87974E-02-1.51788E-17
 -1       440-1.62560E-01-4.87974E-02 1.00000E+00
 -1       441-1.33726E-01-4.14525E-02-1.51788E-17
 -1       442-1.33726E-01-4.14525E-02 1.00000E+00
 -1       443-9.90140E-01-1.41690E-01 7.37529E-17
 -1       444-9.90140E-01-1.41690E-01 1.00000E+00
 -1       445-7.82447E-01-1.12396E-01 7.37529E-17
 -1       446-7.82447E-01-1.12396E-01 1.00000E+00
 -1       447-6.19744E-01-8.94484E-02 7.37529E-17
 -1       448-6.19744E-01-8.94484E-02 1.00000E+00
 -1       449-4.92285E-01-7.14714E-02 7.37529E-17
 -1       450-4.92285E-01-7.14714E-02 1.00000E+00
 -1       451-3.92437E-01-5.73885E-02 7.37529E-17
 -1       452-3.92437E-01-5.73885E-02 1.00000E+00
 -1       453-3.14217E-01-4.63563E-02 7.37529E-17
 -1       454-3.14217E-01-4.63563E-02 1.00000E+00
 -1       455-2.52941E-01-3.77138E-02 7.37529E-17
 -1       456-2.52941E-01-3.77138E-02 1.00000E+00
 -1       457-2.04939E-01-3.09435E-02 7.37529E-17
 -1       458-2.04939E-01-3.09435E-02 1.00000E+00
 -1       459-1.67335E-01-2.56397E-02 7.37529E-17
 -1       460-1.67335E-01-2.56397E-02 1.00000E+00
 -1       461-1.37877E-01-2.14848E-02 7.37529E-17
 -1       462-1.37877E-01-2.14848E-02 1.00000E+00
 -1       463-1.98039E+01-2.79527E+00 7.37529E-17
 -1       464-1.53399E+01-2.16565E+00 7.37529E-17
 -1       465-1.53399E+01-2.16565E+00 1.00000E+00
 -1       466-1.98039E+01-2.79527E+00 1.00000E+00
 -1       467-1.93824E+01-4.94356E+00 7.37529E-17
 -1       468-1.50132E+01-3.83088E+00 7.37529E-17
 -1       469-1.50132E+01-3.83088E+00 1.00000E+00
 -1       470-1.93824E+01-4.94356E+00 1.00000E+00
 -1       471-1.87259E+01-7.02974E+00 1.62685E-16
 -1       472-1.45042E+01-5.44785E+00 1.62685E-16
 -1       473-1.45042E+01-5.44785E+00 1.00000E+00
 -1       474-1.87259E+01-7.02974E+00 1.00000E+00
 -1       475-1.78463E+01-9.03090E+00 7.37529E-17
 -1       476-1.38222E+01-6.99888E+00 7.37529E-17
 -1       477-1.38222E+01-6.99888E+00 1.00000E+00
 -1       478-1.78463E+01-9.03090E+00 1.00000E+00
 -1       479-1.67557E+01-1.09241E+01 1.62685E-16
 -1       480-1.29766E+01-8.46619E+00 1.62685E-16
 -1       481-1.29766E+01-8.46619E+00 1.00000E+00
 -1       482-1.67557E+01-1.09241E+01 1.00000E+00
 -1       483-1.54663E+01-1.26865E+01 7.37529E-17
 -1       484-1.19769E+01-9.83208E+00 7.37529E-17
 -1       485-1.19769E+01-9.83208E+00 1.00000E+00
 -1       486-1.54663E+01-1.26865E+01 1.00000E+00
 -1       487-1.39928E+01-1.42973E+01-1.51788E-17
 -1       488-1.08345E+01-1.10804E+01-1.51788E-17
 -1       489-1.08345E+01-1.10804E+01 1.00000E+00
 -1       490-1.39928E+01-1.42973E+01 1.00000E+00
 -1       491-1.23533E+01-1.57379E+01-1.51788E-17
 -1       492-9.56342E+00-1.21967E+01 7.37529E-17
 -1       493-9.56342E+00-1.21967E+01 1.00000E+00
 -1       494-1.23533E+01-1.57379E+01 1.00000E+00
 -1       495-1.05676E+01-1.69913E+01-1.51788E-17
 -1       496-8.17899E+00-1.31679E+01-1.51788E-17
 -1       497-8.17899E+00-1.31679E+01 1.00000E+00
 -1       498-1.05676E+01-1.69913E+01 1.00000E+00
 -1       499-8.65682E+00-1.80434E+01-1.51788E-17
 -1       500-6.69776E+00-1.39831E+01-1.51788E-17
 -1       501-6.69776E+00-1.39831E+01 1.00000E+00
 -1       502-8.65682E+00-1.80434E+01 1.00000E+00
 -1       503-6.64365E+00-1.88823E+01 7.37529E-17
 -1       504-5.13721E+00-1.46333E+01 7.37529E-17
 -1       505-5.13721E+00-1.46333E+01 1.00000E+00
 -1       506-6.64365E+00-1.88823E+01 1.00000E+00
 -1       507-1.18429E+01-1.67242E+00 7.37529E-17
 -1       508-1.18429E+01-1.67242E+00 1.00000E+00
 -1       509-1.15904E+01-2.95921E+00-1.51788E-17
 -1       510-1.15904E+01-2.95921E+00 1.00000E+00
 -1       511-1.11969E+01-4.20863E+00 7.37529E-17
 -1       512-1.11969E+01-4.20863E+00 1.00000E+00
 -1       513-1.06698E+01-5.40703E+00 7.37529E-17
 -1       514-1.06698E+01-5.40703E+00 1.00000E+00
 -1       515-1.00161E+01-6.54072E+00 1.62685E-16
 -1       516-1.00161E+01-6.54072E+00 1.00000E+00
 -1       517-9.24332E+00-7.59597E+00 7.37529E-17
 -1       518-9.24332E+00-7.59597E+00 1.00000E+00
 -1       519-8.36029E+00-8.56028E+00-1.51788E-17
 -1       520-8.36029E+00-8.56028E+00 1.00000E+00
 -1       521-7.37783E+00-9.42257E+00 7.37529E-17
 -1       522-7.37783E+00-9.42257E+00 1.00000E+00
 -1       523-6.30781E+00-1.01728E+01-1.51788E-17
 -1       524-6.30781E+00-1.01728E+01 1.00000E+00
 -1       525-5.16305E+00-1.08024E+01-1.51788E-17
 -1       526-5.16305E+00-1.08024E+01 1.00000E+00
 -1       527-3.95709E+00-1.13047E+01 7.37529E-17
 -1       528-3.95709E+00-1.13047E+01 1.00000E+00
 -1       529-9.10346E+00-1.28603E+00 7.37529E-17
 -1       530-9.10346E+00-1.28603E+00 1.00000E+00
 -1       531-8.90905E+00-2.27635E+00-1.51788E-17
 -1       532-8.90905E+00-2.27635E+00 1.00000E+00
 -1       533-8.60613E+00-3.23784E+00 7.37529E-17
 -1       534-8.60613E+00-3.23784E+00 1.00000E+00
 -1       535-8.20023E+00-4.16002E+00 7.37529E-17
 -1       536-8.20023E+00-4.16002E+00 1.00000E+00
 -1       537-7.69694E+00-5.03235E+00 2.51589E-16
 -1       538-7.69694E+00-5.03235E+00 1.00000E+00
 -1       539-7.10190E+00-5.84425E+00 1.62685E-16
 -1       540-7.10190E+00-5.84425E+00 1.00000E+00
 -1       541-6.42204E+00-6.58612E+00 7.37529E-17
 -1       542-6.42204E+00-6.58612E+00 1.00000E+00
 -1       543-5.66566E+00-7.24941E+00 1.62685E-16
 -1       544-5.66566E+00-7.24941E+00 1.00000E+00
 -1       545-4.84195E+00-7.82641E+00 7.37529E-17
 -1       546-4.84195E+00-7.82641E+00 1.00000E+00
 -1       547-3.96078E+00-8.31070E+00 7.37529E-17
 -1       548-3.96078E+00-8.31070E+00 1.00000E+00
 -1       549-3.03261E+00-8.69711E+00 7.37529E-17
 -1       550-3.03261E+00-8.69711E+00 1.00000E+00
 -1       551-6.95741E+00-9.83341E-01 7.37529E-17
 -1       552-6.95741E+00-9.83341E-01 1.00000E+00
 -1       553-6.80855E+00-1.74140E+00-1.51788E-17
 -1       554-6.80855E+00-1.74140E+00 1.00000E+00
 -1       555-6.57653E+00-2.47734E+00 7.37529E-17
 -1       556-6.57653E+00-2.47734E+00 1.00000E+00
 -1       557-6.26563E+00-3.18314E+00 7.37529E-17
 -1       558-6.26563E+00-3.18314E+00 1.00000E+00
 -1       559-5.88012E+00-3.85073E+00 2.51589E-16
 -1       560-5.88012E+00-3.85073E+00 1.00000E+00
 -1       561-5.42435E+00-4.47200E+00 1.62685E-16
 -1       562-5.42435E+00-4.47200E+00 1.00000E+00
 -1       563-4.90364E+00-5.03960E+00 7.37529E-17
 -1       564-4.90364E+00-5.03960E+00 1.00000E+00
 -1       565-4.32438E+00-5.54700E+00 1.62685E-16
 -1       566-4.32438E+00-5.54700E+00 1.00000E+00
 -1       567-3.69361E+00-5.98833E+00 7.37529E-17
 -1       568-3.69361E+00-5.98833E+00 1.00000E+00
 -1       569-3.01894E+00-6.35874E+00 7.37529E-17
 -1       570-3.01894E+00-6.35874E+00 1.00000E+00
 -1       571-2.30839E+00-6.65440E+00 7.37529E-17
 -1       572-2.30839E+00-6.65440E+00 1.00000E+00
 -1       573-5.27623E+00-7.46220E-01 7.37529E-17
 -1       574-5.27623E+00-7.46220E-01 1.00000E+00
 -1       575-5.16305E+00-1.32233E+00-1.04083E-16
 -1       576-5.16305E+00-1.32233E+00 1.00000E+00
 -1       577-4.98659E+00-1.88158E+00-1.51788E-17
 -1       578-4.98659E+00-1.88158E+00 1.00000E+00
 -1       579-4.75010E+00-2.41788E+00 7.37529E-17
 -1       580-4.75010E+00-2.41788E+00 1.00000E+00
 -1       581-4.45686E+00-2.92507E+00 2.51589E-16
 -1       582-4.45686E+00-2.92507E+00 1.00000E+00
 -1       583-4.11019E+00-3.39701E+00 1.62685E-16
 -1       584-4.11019E+00-3.39701E+00 1.00000E+00
 -1       585-3.71415E+00-3.82809E+00 7.37529E-17
 -1       586-3.71415E+00-3.82809E+00 1.00000E+00
 -1       587-3.27364E+00-4.21337E+00 1.62685E-16
 -1       588-3.27364E+00-4.21337E+00 1.00000E+00
 -1       589-2.79402E+00-4.54842E+00 7.37529E-17
 -1       590-2.79402E+00-4.54842E+00 1.00000E+00
 -1       591-2.28111E+00-4.82962E+00 7.37529E-17
 -1       592-2.28111E+00-4.82962E+00 1.00000E+00
 -1       593-1.74105E+00-5.05417E+00 7.37529E-17
 -1       594-1.74105E+00-5.05417E+00 1.00000E+00
 -1       595-3.95923E+00-5.60464E-01 7.37529E-17