<?xml version="1.0"?>
<VTKFile type="UnstructuredGrid" version="0.1" byte_order="LittleEndian">
	<UnstructuredGrid>
		<Piece NumberOfPoints="5974" NumberOfCells="5658">
			<Points>
				<DataArray type="Float64" NumberOfComponents="3" format="ascii">
					 0.00000000E+00	 4.00000000E-01	 0.00000000E+00
					 0.00000000E+00	 3.75000000E-01	 0.00000000E+00
					 2.23880000E-02	 3.84754000E-01	 0.00000000E+00
					 0.00000000E+00	 3.50000000E-01	 0.00000000E+00
					 0.00000000E+00	 3.25000000E-01	 0.00000000E+00
					 2.74437000E-02	 3.35932000E-01	 0.00000000E+00
					 2.22690000E-02	 4.12110000E-01	 0.00000000E+00
					 4.51665000E-02	 3.97063000E-01	 0.00000000E+00
					 4.61707000E-02	 7.76605000E-02	 0.00000000E+00
					 2.52378000E-02	 6.31311000E-02	 0.00000000E+00
					 5.52489000E-02	 4.95238000E-02	 0.00000000E+00
					 0.00000000E+00	 2.50000000E-02	 0.00000000E+00
					 0.00000000E+00	 0.00000000E+00	 0.00000000E+00
					 3.00000000E-02	 0.00000000E+00	 0.00000000E+00
					 8.71190000E-02	 4.72763000E-02	 0.00000000E+00
					 7.64630000E-02	 2.40018000E-02	 0.00000000E+00
					 1.16750000E-01	 2.58452000E-02	 0.00000000E+00
					 4.96784000E-02	 2.17993000E-02	 0.00000000E+00
					 5.21692000E-02	 1.06917000E-01	 0.00000000E+00
					 2.45848000E-02	 9.04270000E-02	 0.00000000E+00
					 4.47537000E-02	 1.35935000E-01	 0.00000000E+00
					 2.42017000E-02	 1.19098000E-01	 0.00000000E+00
					 1.43907000E-01	 7.52165000E-02	 0.00000000E+00
					 1.83481000E-01	 8.90893000E-02	 0.00000000E+00
					 1.42670000E-01	 1.08377000E-01	 0.00000000E+00
					 0.00000000E+00	 1.00000000E-01	 0.00000000E+00
					 2.27159000E-01	 3.33904000E-02	 0.00000000E+00
					 2.40000000E-01	 0.00000000E+00	 0.00000000E+00
					 2.63932000E-01	 2.34782000E-02	 0.00000000E+00
					 7.81539000E-02	 7.78330000E-02	 0.00000000E+00
					 4.14302000E-01	 9.08931000E-01	 0.00000000E+00
					 4.03378000E-01	 9.42446000E-01	 0.00000000E+00
					 3.77021000E-01	 9.19574000E-01	 0.00000000E+00
					 3.42889000E-01	 1.14029000E-01	 0.00000000E+00
					 3.45702000E-01	 6.26676000E-02	 0.00000000E+00
					 3.79418000E-01	 7.84023000E-02	 0.00000000E+00
					 9.45796000E-02	 2.42889000E-01	 0.00000000E+00
					 6.27093000E-02	 2.56590000E-01	 0.00000000E+00
					 6.09608000E-02	 2.20417000E-01	 0.00000000E+00
					 8.44445000E-02	 1.75678000E-01	 0.00000000E+00
					 1.00684000E-01	 1.41661000E-01	 0.00000000E+00
					 1.13659000E-01	 1.67979000E-01	 0.00000000E+00
					 0.00000000E+00	 2.50000000E-01	 0.00000000E+00
					 0.00000000E+00	 2.25000000E-01	 0.00000000E+00
					 2.95519000E-02	 2.36852000E-01	 0.00000000E+00
					 1.12351000E-01	 6.08201000E-02	 0.00000000E+00
					 1.12302000E-01	 9.14504000E-02	 0.00000000E+00
					 4.06455000E-01	 2.68652000E-02	 0.00000000E+00
					 4.26980000E-01	 5.17644000E-02	 0.00000000E+00
					 3.98100000E-01	 5.27237000E-02	 0.00000000E+00
					 7.01646000E-02	 1.37864000E-01	 0.00000000E+00
					 2.09970000E-01	 2.71429000E-01	 0.00000000E+00
					 2.05237000E-01	 2.96590000E-01	 0.00000000E+00
					 1.81023000E-01	 2.77061000E-01	 0.00000000E+00
					 3.30000000E-01	 0.00000000E+00	 0.00000000E+00
					 3.60000000E-01	 0.00000000E+00	 0.00000000E+00
					 3.45981000E-01	 2.74429000E-02	 0.00000000E+00
					 3.97473000E-02	 3.11866000E-01	 0.00000000E+00
					 1.86019000E-02	 3.13022000E-01	 0.00000000E+00
					 5.83156000E-01	 7.11097000E-01	 0.00000000E+00
					 6.09231000E-01	 7.33350000E-01	 0.00000000E+00
					 5.78616000E-01	 7.55585000E-01	 0.00000000E+00
					 0.00000000E+00	 5.00000000E-01	 0.00000000E+00
					 0.00000000E+00	 4.75000000E-01	 0.00000000E+00
					 1.92276000E-02	 4.75676000E-01	 0.00000000E+00
					 2.55227000E-01	 5.82331000E-02	 0.00000000E+00
					 0.00000000E+00	 5.50000000E-01	 0.00000000E+00
					 0.00000000E+00	 5.25000000E-01	 0.00000000E+00
					 1.86430000E-02	 5.35060000E-01	 0.00000000E+00
					 4.80000000E-01	 1.00000000E+00	 0.00000000E+00
					 4.50000000E-01	 1.00000000E+00	 0.00000000E+00
					 4.78674000E-01	 9.74293000E-01	 0.00000000E+00
					 1.31684000E-01	 3.54089000E-01	 0.00000000E+00
					 1.33664000E-01	 3.91950000E-01	 0.00000000E+00
					 1.11192000E-01	 3.81922000E-01	 0.00000000E+00
					 1.80693000E-01	 7.42671000E-01	 0.00000000E+00
					 2.09249000E-01	 7.21551000E-01	 0.00000000E+00
					 2.10356000E-01	 7.54622000E-01	 0.00000000E+00
					 5.45066000E-01	 7.30454000E-01	 0.00000000E+00
					 5.51125000E-01	 7.01377000E-01	 0.00000000E+00
					 3.17855000E-01	 3.03008000E-01	 0.00000000E+00
					 2.96382000E-01	 2.85729000E-01	 0.00000000E+00
					 3.23570000E-01	 2.75590000E-01	 0.00000000E+00
					 3.90000000E-01	 1.00000000E+00	 0.00000000E+00
					 3.60000000E-01	 1.00000000E+00	 0.00000000E+00
					 3.94777000E-01	 9.76799000E-01	 0.00000000E+00
					 0.00000000E+00	 3.00000000E-01	 0.00000000E+00
					 4.04486000E-01	 8.49322000E-01	 0.00000000E+00
					 4.30984000E-01	 8.08900000E-01	 0.00000000E+00
					 4.51419000E-01	 8.40416000E-01	 0.00000000E+00
					 5.70000000E-01	 0.00000000E+00	 0.00000000E+00
					 6.00000000E-01	 0.00000000E+00	 0.00000000E+00
					 6.00000000E-01	 2.50000000E-02	 0.00000000E+00
					 5.40000000E-01	 0.00000000E+00	 0.00000000E+00
					 5.50585000E-01	 2.20484000E-02	 0.00000000E+00
					 5.14001000E-01	 4.85181000E-02	 0.00000000E+00
					 5.24421000E-01	 2.41546000E-02	 0.00000000E+00
					 5.45257000E-01	 5.04273000E-02	 0.00000000E+00
					 4.56847000E-01	 3.90616000E-02	 0.00000000E+00
					 4.50000000E-01	 0.00000000E+00	 0.00000000E+00
					 4.88754000E-01	 2.53631000E-02	 0.00000000E+00
					 6.00000000E-01	 5.00000000E-02	 0.00000000E+00
					 6.00000000E-01	 7.50000000E-02	 0.00000000E+00
					 5.75385000E-01	 6.42312000E-02	 0.00000000E+00
					 4.80000000E-01	 0.00000000E+00	 0.00000000E+00
					 5.10000000E-01	 0.00000000E+00	 0.00000000E+00
					 4.07206000E-01	 9.99269000E-02	 0.00000000E+00
					 4.08121000E-01	 7.23970000E-02	 0.00000000E+00
					 4.32946000E-01	 8.48607000E-02	 0.00000000E+00
					 4.86901000E-01	 6.59299000E-02	 0.00000000E+00
					 5.24725000E-01	 8.10396000E-02	 0.00000000E+00
					 3.28636000E-01	 2.14023000E-01	 0.00000000E+00
					 3.27186000E-01	 2.45230000E-01	 0.00000000E+00
					 3.01145000E-01	 2.25885000E-01	 0.00000000E+00
					 5.54766000E-01	 7.93152000E-02	 0.00000000E+00
					 5.49315000E-01	 1.07708000E-01	 0.00000000E+00
					 5.78187000E-01	 9.63800000E-02	 0.00000000E+00
					 5.47460000E-01	 1.48645000E-01	 0.00000000E+00
					 5.78985000E-01	 1.42566000E-01	 0.00000000E+00
					 5.77184000E-01	 1.64487000E-01	 0.00000000E+00
					 3.90000000E-01	 0.00000000E+00	 0.00000000E+00
					 4.20000000E-01	 0.00000000E+00	 0.00000000E+00
					 5.20966000E-01	 1.18458000E-01	 0.00000000E+00
					 2.97000000E+00	 2.00000000E-01	 0.00000000E+00
					 3.00000000E+00	 2.00000000E-01	 0.00000000E+00
					 3.00000000E+00	 2.25000000E-01	 0.00000000E+00
					 2.94000000E+00	 2.00000000E-01	 0.00000000E+00
					 2.95055000E+00	 2.22012000E-01	 0.00000000E+00
					 3.00000000E+00	 2.50000000E-01	 0.00000000E+00
					 2.97369000E+00	 2.35239000E-01	 0.00000000E+00
					 2.91000000E+00	 2.00000000E-01	 0.00000000E+00
					 2.92354000E+00	 2.24076000E-01	 0.00000000E+00
					 2.88284000E+00	 2.26096000E-01	 0.00000000E+00
					 2.94695000E+00	 3.07091000E-01	 0.00000000E+00
					 2.91199000E+00	 3.09897000E-01	 0.00000000E+00
					 2.92162000E+00	 2.77670000E-01	 0.00000000E+00
					 2.94479000E+00	 2.49587000E-01	 0.00000000E+00
					 3.00000000E+00	 2.75000000E-01	 0.00000000E+00
					 3.00000000E+00	 3.00000000E-01	 0.00000000E+00
					 2.97533000E+00	 2.90382000E-01	 0.00000000E+00
					 2.88000000E+00	 2.00000000E-01	 0.00000000E+00
					 2.95391000E+00	 2.77742000E-01	 0.00000000E+00
					 2.97479000E+00	 2.63154000E-01	 0.00000000E+00
					 2.91280000E+00	 2.47323000E-01	 0.00000000E+00
					 2.88747000E+00	 2.61017000E-01	 0.00000000E+00
					 3.00000000E+00	 3.75000000E-01	 0.00000000E+00
					 3.00000000E+00	 4.00000000E-01	 0.00000000E+00
					 2.97233000E+00	 3.85117000E-01	 0.00000000E+00
					 2.89403000E+00	 3.57018000E-01	 0.00000000E+00
					 2.86851000E+00	 3.65648000E-01	 0.00000000E+00
					 2.86925000E+00	 3.36217000E-01	 0.00000000E+00
					 3.00000000E+00	 6.00000000E-01	 0.00000000E+00
					 3.00000000E+00	 6.25000000E-01	 0.00000000E+00
					 2.97056000E+00	 6.10462000E-01	 0.00000000E+00
					 2.92495000E+00	 3.40343000E-01	 0.00000000E+00
					 2.89778000E+00	 3.30944000E-01	 0.00000000E+00
					 2.84041000E+00	 3.24440000E-01	 0.00000000E+00
					 2.86031000E+00	 3.06508000E-01	 0.00000000E+00
					 2.96136000E+00	 4.70005000E-01	 0.00000000E+00
					 3.00000000E+00	 4.75000000E-01	 0.00000000E+00
					 2.97053000E+00	 4.99937000E-01	 0.00000000E+00
					 2.85876000E+00	 2.49404000E-01	 0.00000000E+00
					 2.82000000E+00	 2.00000000E-01	 0.00000000E+00
					 2.85000000E+00	 2.00000000E-01	 0.00000000E+00
					 2.83918000E+00	 2.27112000E-01	 0.00000000E+00
					 2.83789000E+00	 3.56722000E-01	 0.00000000E+00
					 2.95515000E+00	 3.36200000E-01	 0.00000000E+00
					 8.80000000E-01	 7.33333000E-01	 0.00000000E+00
					 8.50000000E-01	 7.33333000E-01	 0.00000000E+00
					 8.64444000E-01	 7.03704000E-01	 0.00000000E+00
					 2.74266000E+00	 4.21873000E-01	 0.00000000E+00
					 2.77125000E+00	 4.27455000E-01	 0.00000000E+00
					 2.76085000E+00	 4.60887000E-01	 0.00000000E+00
					 2.79000000E+00	 2.00000000E-01	 0.00000000E+00
					 2.79811000E+00	 2.31850000E-01	 0.00000000E+00
					 2.76214000E+00	 2.19366000E-01	 0.00000000E+00
					 2.67478000E+00	 2.67442000E-01	 0.00000000E+00
					 2.63482000E+00	 2.40326000E-01	 0.00000000E+00
					 2.66933000E+00	 2.25100000E-01	 0.00000000E+00
					 2.85677000E+00	 2.76668000E-01	 0.00000000E+00
					 3.00000000E+00	 5.25000000E-01	 0.00000000E+00
					 3.00000000E+00	 5.50000000E-01	 0.00000000E+00
					 2.97598000E+00	 5.54504000E-01	 0.00000000E+00
[...]
			<PointData>
				<DataArray type="Float32" Name="V3DF" NumberOfComponents="3" ComponentName0="V1" ComponentName1="V2" ComponentName2="V3" format="ascii">
					 3.00000000E+00	 0.00000000E+00	 0.00000000E+00
					 3.00000000E+00	 0.00000000E+00	 0.00000000E+00
					 3.00000000E+00	-5.21339000E-17	-9.32976000E-18
					 3.00000000E+00	 0.00000000E+00	 0.00000000E+00
					 3.00000000E+00	 0.00000000E+00	 0.00000000E+00
					 3.00000000E+00	-1.54854000E-15	 5.37231000E-17
					 3.00000000E+00	 4.95967000E-17	-1.88587000E-17
					 3.00000000E+00	-4.47455000E-16	-1.57533000E-17
					 3.00000000E+00	-1.29329000E-13	-6.89440000E-18
					 3.00000000E+00	-2.92209000E-13	 1.03248000E-17
					 3.00000000E+00	-2.92538000E-13	 4.07669000E-18
					 3.00000000E+00	 0.00000000E+00	 0.00000000E+00
					 3.00000000E+00	 0.00000000E+00	 0.00000000E+00
					 3.00000000E+00	-3.14341000E-12	-1.19188000E-17
					 3.00000000E+00	-5.19290000E-11	-2.75883000E-19
					 3.00000000E+00	 6.44936000E-12	 2.44026000E-17
					 3.00000000E+00	 6.77646000E-09	 9.40210000E-18
					 3.00000000E+00	 6.56436000E-12	 1.66307000E-17
					 3.00000000E+00	-1.03640000E-12	 1.70073000E-18
					 3.00000000E+00	 2.60394000E-13	-1.65552000E-17
					 3.00000000E+00	 1.11441000E-13	-4.97241000E-17
					 3.00000000E+00	-4.55953000E-14	-1.99078000E-18
					 3.00000000E+00	 1.90190000E-08	 1.55002000E-18
					 3.00000000E+00	-1.36750000E-06	 1.58877000E-17
					 3.00000000E+00	-1.57942000E-08	 3.32999000E-18
					 3.00000000E+00	 0.00000000E+00	 0.00000000E+00
					 3.00006000E+00	-2.95583000E-06	 6.06834000E-18
					 2.99990000E+00	 3.69719000E-04	-2.41477000E-17
					 3.00036000E+00	-1.03474000E-03	-1.03807000E-17
					 3.00000000E+00	 3.46609000E-11	-4.17556000E-17
					 3.00000000E+00	-7.85061000E-11	-1.67450000E-17
					 3.00000000E+00	-2.80076000E-11	-3.39161000E-16
					 3.00000000E+00	-3.13393000E-11	-6.60933000E-17
					 2.50949000E+00	 2.19653000E-01	-1.12365000E-16
					 1.67072000E+00	 1.31459000E-01	 2.54521000E-16
					 4.10538000E-01	 2.96451000E-01	 1.07490000E-15
					 3.00000000E+00	-1.34563000E-12	 1.68679000E-17
					 3.00000000E+00	 1.85912000E-14	-3.70427000E-17
					 3.00000000E+00	-1.38224000E-13	-4.76002000E-17
					 3.00000000E+00	-4.58721000E-12	 2.47806000E-18
					 3.00000000E+00	 9.12267000E-11	 4.76509000E-18
					 3.00000000E+00	-1.77081000E-10	-1.07443000E-17
					 3.00000000E+00	 0.00000000E+00	 0.00000000E+00
					 3.00000000E+00	 0.00000000E+00	 0.00000000E+00
					 3.00000000E+00	-1.07749000E-14	 2.05494000E-18
					 3.00000000E+00	 1.31595000E-09	-7.12566000E-18
					 3.00000000E+00	-4.90126000E-10	-4.39431000E-18
					 9.10770000E-01	-3.97706000E-03	 1.48611000E-15
					 1.95276000E-01	-7.02593000E-03	-3.66636000E-15
					 2.01659000E-01	-4.87633000E-02	-2.33875000E-15
					 3.00000000E+00	 2.52719000E-12	-3.30684000E-17
					 3.00000000E+00	-6.95536000E-08	-8.55145000E-17
					 3.00000000E+00	 4.49389000E-10	-1.93841000E-16
					 3.00000000E+00	-4.46745000E-09	-7.32149000E-17
					 2.89601000E+00	-2.20995000E-02	 1.94843000E-16
					 1.32823000E+00	-2.82409000E-01	 1.16893000E-16
					 1.91445000E+00	-4.12820000E-01	 1.35936000E-16
					 3.00000000E+00	-1.54161000E-14	-4.33930000E-17
					 3.00000000E+00	-4.17210000E-16	-3.68370000E-17
					 3.00178000E+00	-2.11220000E-03	 1.41791000E-16
					 2.99816000E+00	 9.99649000E-04	 2.19120000E-16
					 3.00005000E+00	-1.49218000E-04	-1.00513000E-16
					 3.00000000E+00	 0.00000000E+00	 0.00000000E+00
					 3.00000000E+00	 0.00000000E+00	 0.00000000E+00
					 3.00000000E+00	 1.96686000E-16	-9.16454000E-17
					 3.00069000E+00	-8.42100000E-05	 1.45119000E-18
					 3.00000000E+00	 0.00000000E+00	 0.00000000E+00
					 3.00000000E+00	 0.00000000E+00	 0.00000000E+00
					 3.00000000E+00	-1.68121000E-16	-3.00078000E-17
					 3.00000000E+00	-1.52996000E-10	 2.48451000E-17
					 3.00000000E+00	-5.89313000E-11	 2.95297000E-17
					 3.00000000E+00	 6.69273000E-10	-1.34430000E-16
					 3.00000000E+00	 7.93399000E-12	 8.99326000E-17
					 3.00000000E+00	 8.70000000E-13	-5.51490000E-17
					 3.00000000E+00	-3.86384000E-13	 3.86303000E-17
					 3.00000000E+00	-7.73678000E-16	-1.32867000E-16
					 3.00000000E+00	-1.34032000E-14	-8.48185000E-17
					 3.00000000E+00	-2.98560000E-15	-9.45296000E-17
					 3.00005000E+00	-3.99983000E-05	-9.34699000E-17
					 3.00002000E+00	 5.02855000E-05	 2.42939000E-16
					 3.00034000E+00	-1.92618000E-04	-1.33936000E-16
					 3.00008000E+00	-4.75641000E-05	-1.63066000E-16
					 3.00132000E+00	-1.26945000E-03	-1.11696000E-16
					 3.00000000E+00	-5.59505000E-12	 7.76128000E-17
					 3.00000000E+00	-3.86019000E-12	 1.87624000E-16
					 3.00000000E+00	 4.53217000E-12	-1.82544000E-17
					 3.00000000E+00	 0.00000000E+00	 0.00000000E+00
					 3.00000000E+00	-2.48201000E-09	-7.14691000E-17
					 3.00000000E+00	-4.77877000E-08	 8.34433000E-17
					 3.00000000E+00	-2.71000000E-08	 1.11559000E-16
					 1.32232000E+00	-2.30325000E-02	 1.29518000E-15
					 1.04817000E+00	 8.41449000E-01	-4.17917000E-15
					-5.76293000E-02	 1.19756000E+00	-2.82090000E-15
					 5.73287000E-01	-1.18205000E-02	 2.67944000E-16
					 3.83735000E-01	 1.52335000E-01	 1.99236000E-15
					 4.44104000E-01	 1.88126000E-01	-2.57290000E-15
					 5.40368000E-01	 1.00356000E-01	 4.57330000E-16
					 2.63448000E-01	 2.78612000E-01	 1.03215000E-15
					 7.13980000E-01	 1.09336000E-01	 1.95350000E-16
					 9.63173000E-01	 4.09428000E-02	-6.68712000E-16
					 7.27562000E-01	 7.71206000E-02	-1.87697000E-16
					-1.48857000E-02	 4.23058000E-01	-2.56012000E-15
					 1.45238000E-04	 5.50206000E-01	-2.05079000E-15
					 9.53439000E-02	 4.55275000E-01	-3.04351000E-16
					 8.02885000E-01	-2.10808000E-02	 4.44152000E-16
					 7.25744000E-01	-6.98901000E-03	 2.35207000E-16
					 5.38584000E-01	 4.43709000E-01	-2.38221000E-15
					-1.37959000E-01	 8.78884000E-02	-5.09860000E-15
					-1.14354000E-01	-1.92328000E-02	-2.60075000E-15
					 2.57455000E-01	 7.75875000E-02	-3.77636000E-15
					 1.98587000E-01	 3.42281000E-01	 2.07992000E-15
					 3.00681000E+00	-4.89991000E-03	 4.97140000E-17
					 3.00262000E+00	-1.95521000E-03	-7.78696000E-17
					 3.00039000E+00	-2.33258000E-04	 3.67424000E-17
					 1.44920000E-01	 4.28436000E-01	 1.83565000E-15
					 7.24380000E-02	 4.51528000E-01	 2.28634000E-15
					 3.63868000E-02	 5.72351000E-01	-1.08001000E-15
					 3.01534000E-02	 3.65464000E-01	 3.77226000E-15
					 3.48871000E-02	 6.38880000E-01	-1.44969000E-15
					 9.13927000E-02	 7.02629000E-01	-2.69111000E-15
					 9.17621000E-01	 2.50599000E-02	 3.58051000E-17
					 1.05407000E+00	 4.49747000E-04	-2.24073000E-16
					-6.68427000E-02	 8.66785000E-02	-3.44627000E-15
					 1.21341000E+00	-8.21613000E-03	-2.45382000E-15
					 1.21874000E+00	 2.09292000E-03	-4.09514000E-15
					 1.25672000E+00	-4.03980000E-03	-1.07643000E-15
					 1.16855000E+00	 2.46102000E-03	-2.24605000E-15
					 1.24198000E+00	-1.35669000E-02	-4.75269000E-15
					 1.34682000E+00	-1.92511000E-03	 1.20219000E-15
					 1.29391000E+00	-9.90679000E-03	-7.42445000E-16
					 1.16414000E+00	 2.96375000E-03	 3.29241000E-15
					 1.22852000E+00	-4.06239000E-03	-3.04360000E-15
					 1.21026000E+00	-4.35185000E-03	-1.82250000E-15
					 1.57850000E+00	-1.02430000E-02	 5.46961000E-16
					 1.57418000E+00	-1.64993000E-02	 1.06577000E-15
					 1.42706000E+00	-1.57624000E-02	 2.87893000E-15
					 1.33588000E+00	-1.09122000E-02	-1.48483000E-15
					 1.44067000E+00	-2.02991000E-03	 3.27184000E-16
					 1.55287000E+00	-2.87025000E-03	 2.16358000E-16
					 1.50151000E+00	-6.42097000E-03	-3.79672000E-16
					 1.16928000E+00	-2.25561000E-04	-2.36677000E-15
					 1.44054000E+00	-9.74489000E-03	 1.25328000E-15
					 1.39326000E+00	-5.74830000E-03	 6.92596000E-16
					 1.32551000E+00	-1.48715000E-02	 1.15228000E-15
					 1.34366000E+00	-2.03095000E-02	 8.73163000E-16
					 1.85443000E+00	 9.34838000E-03	-4.31887000E-16
					 1.90159000E+00	 1.36893000E-02	-6.72438000E-16
					 1.85708000E+00	 3.81352000E-03	-1.44561000E-15
					 1.78451000E+00	-1.08153000E-02	-5.63893000E-16
					 1.78720000E+00	-9.71166000E-03	 3.24962000E-16
					 1.68718000E+00	-1.84877000E-02	 7.56707000E-16
					 2.22837000E+00	 1.09143000E-01	-1.60081000E-16
					 2.26129000E+00	 1.23495000E-01	-7.42936000E-17
					 2.22844000E+00	 1.06674000E-01	-7.35543000E-16
					 1.73527000E+00	-1.20978000E-02	 7.03386000E-16
					 1.67543000E+00	-1.65790000E-02	 1.73777000E-15
					 1.62794000E+00	-2.26206000E-02	-8.23985000E-17
					 1.54677000E+00	-2.69832000E-02	 2.12249000E-15
					 2.03119000E+00	 3.55067000E-02	 8.81550000E-16
					 2.04265000E+00	 4.79762000E-02	 7.63961000E-16
					 2.08549000E+00	 5.42292000E-02	-3.98326000E-16
					 1.28947000E+00	-2.04504000E-02	-2.16738000E-16
					 1.13040000E+00	 2.46726000E-03	-1.43690000E-15
					 1.14766000E+00	 3.51720000E-03	-4.89845000E-15
					 1.17689000E+00	-1.26112000E-03	-7.41223000E-16
					 1.76965000E+00	-9.89058000E-03	 6.02688000E-16
					 1.72087000E+00	-9.31215000E-03	 1.90806000E-15
					 2.05764000E+00	 8.89262000E-01	 3.53886000E-17
					 2.02691000E+00	 9.21029000E-01	 1.39225000E-16
					 2.04214000E+00	 8.76678000E-01	 1.99496000E-16
					 1.89473000E+00	-2.29047000E-02	 2.69940000E-16
					 1.89752000E+00	-1.34594000E-02	 1.50476000E-15
					 1.96673000E+00	-4.77622000E-03	 9.75929000E-16
					 1.10372000E+00	-1.38870000E-03	-5.22278000E-15
					 1.16129000E+00	-1.21708000E-02	-2.36148000E-15
					 1.08672000E+00	-1.17532000E-02	-2.36944000E-15
					 1.25765000E+00	-5.14184000E-02	 1.29082000E-15
					 1.05521000E+00	-3.81522000E-02	 1.49147000E-15
					 1.01621000E+00	-2.88876000E-02	-2.32221000E-15
					 1.40160000E+00	-2.72325000E-02	-3.78512000E-16
					 2.13944000E+00	 7.54529000E-02	-2.69452000E-17
					 2.17076000E+00	 8.90778000E-02	-1.41527000E-15
					 2.16694000E+00	 8.45183000E-02	-9.62582000E-16
					 1.84316000E+00	 2.18881000E-03	 2.20261000E-16
					 1.81700000E+00	-3.16010000E-03	 7.00039000E-16
					 1.35582000E+00	-5.88457000E-02	 1.72805000E-15
					 1.24331000E+00	-5.72393000E-02	-6.72288000E-16
					 9.81723000E-01	-1.34223000E-02	-6.05071000E-15
					 1.10865000E+00	-4.26631000E-02	-5.48154000E-16
					 1.56761000E+00	-5.57872000E-02	 2.51388000E-15
					 1.44787000E+00	-5.23118000E-02	 9.02451000E-16
					 1.91192000E+00	-8.79359000E-02	-1.03019000E-15
					 1.91885000E+00	-7.72258000E-02	 3.31011000E-16
					 1.97460000E+00	-8.21147000E-02	-7.76903000E-16
					 2.73083000E+00	 3.17612000E-04	 4.36864000E-16
					 2.75340000E+00	-1.28219000E-02	-6.90152000E-16
					 2.65974000E+00	 6.55346000E-03	-6.89205000E-16
					 2.60978000E+00	 3.98610000E-02	 1.87313000E-16
					 2.53319000E+00	 4.35945000E-02	 2.56856000E-16
					 2.50907000E+00	 3.69717000E-02	-7.01693000E-18
					 2.51967000E+00	 4.60415000E-03	-9.48627000E-16
					 2.61025000E+00	 3.24297000E-03	 1.84757000E-18
					 2.33543000E+00	 1.46177000E-01	 5.09776000E-16
					 2.39764000E+00	 1.02614000E-01	-4.54919000E-16
					 2.48613000E+00	 8.43390000E-02	-2.85389000E-16
					 2.67323000E+00	 9.05810000E-03	-3.64757000E-16
					 2.53026000E+00	 8.54460000E-02	-1.53035000E-16
					 2.69006000E+00	 7.32261000E-03	 2.22017000E-16
					 2.27978000E+00	 1.38318000E-01	 1.70218000E-16
					 2.29203000E+00	 1.52807000E-01	 6.50534000E-16
					 2.26639000E+00	 1.36820000E-01	 1.92649000E-16
					 2.78791000E+00	-2.03165000E-02	-3.20341000E-16
					 2.29642000E+00	 2.18298000E-01	-1.27570000E-16
					 2.30092000E+00	 1.80527000E-01	-5.04340000E-16
					 2.30953000E+00	 1.79331000E-01	-2.25026000E-16
					 2.58475000E+00	-1.39573000E-01	-3.66335000E-16
					 2.57858000E+00	-1.90391000E-01	-1.21868000E-16
					 2.58665000E+00	-1.52336000E-01	 6.44492000E-16
					 2.45589000E+00	 1.45610000E-01	-5.72103000E-17
					 2.51605000E+00	 1.10626000E-01	 6.63687000E-17
					 2.56992000E+00	 8.91501000E-02	 1.94138000E-16
					 2.59806000E+00	-9.90279000E-02	-5.91324000E-16
					 2.58748000E+00	-1.45067000E-01	-3.23111000E-16
					 2.59294000E+00	-1.11856000E-01	-4.03375000E-16
					 2.25012000E+00	 2.73155000E-02	 1.69074000E-16
					 2.19030000E+00	 2.77093000E-02	-5.74272000E-16
					 2.25705000E+00	 4.96722000E-02	 3.96565000E-16
					 2.64291000E+00	 5.54556000E-02	-9.59307000E-16
					 2.60243000E+00	-1.21740000E-02	 4.73980000E-16
					 2.59275000E+00	 1.04418000E-03	-2.69292000E-16
					 2.60072000E+00	-5.06526000E-02	 1.78701000E-16
					 2.59056000E+00	-1.47725000E-01	-2.04086000E-16
					 2.58543000E+00	-1.89328000E-01	-1.79404000E-16
					 2.65849000E+00	 4.31063000E-02	-2.07949000E-16
					 2.54296000E+00	 2.30180000E-02	-7.95672000E-16
					 2.55834000E+00	-4.06808000E-02	-1.69544000E-15
					 2.49128000E+00	 7.21063000E-03	-8.54842000E-16
					 2.57794000E+00	 2.04961000E-02	 1.73475000E-16
					 2.31249000E+00	 3.71775000E-02	-6.88830000E-18
					 2.27544000E+00	 1.90097000E-02	 6.56902000E-16
					 2.30733000E+00	 1.64332000E-01	 1.31051000E-15
					 2.27810000E+00	 1.47112000E-01	 1.02488000E-15
					 2.40551000E+00	 1.55996000E-01	-1.07763000E-15
					 2.38341000E+00	 1.71768000E-01	-9.63021000E-16
					 2.07404000E+00	 3.49308000E-03	 2.60011000E-16
					 2.12090000E+00	 1.21298000E-02	-6.50282000E-16
					 2.07582000E+00	-2.49408000E-03	-4.49312000E-17
					 1.50529000E+00	-2.87305000E-02	 1.02849000E-15
					 1.63533000E+00	-2.25741000E-02	 1.39165000E-15
					 1.49212000E+00	-3.06743000E-02	-1.20440000E-15
					 2.13065000E+00	 6.66596000E-02	-1.70696000E-15
					 2.25855000E+00	 1.26691000E-01	 2.57640000E-16
					 1.96735000E+00	-8.87845000E-03	-2.53268000E-16
					 1.06827000E+00	 2.92594000E-03	 5.60687000E-16
					 1.92810000E+00	 7.58616000E-01	-2.13694000E-16
					 1.95541000E+00	 7.27927000E-01	-2.77694000E-16
					 1.95674000E+00	 7.71611000E-01	 1.56311000E-16
					 1.76008000E+00	 8.63401000E-01	 3.90244000E-16
					 1.76381000E+00	 9.10031000E-01	 3.66056000E-16
					 1.70768000E+00	 8.99533000E-01	 1.62212000E-16
					 2.20029000E+00	 7.11728000E-01	 1.96469000E-16
					 2.59672000E+00	 3.49169000E-01	 1.07413000E-16
					 2.06062000E+00	 8.19644000E-01	 2.40585000E-16
					 1.85957000E+00	-1.21603000E-02	-5.37139000E-16
					 1.85961000E+00	 1.09608000E-03	 8.80235000E-16
					 1.90676000E+00	-4.04441000E-04	-1.17046000E-15
					 3.00000000E+00	-8.57800000E-06	 1.23363000E-16
					 3.00000000E+00	 4.28527000E-06	-6.95156000E-17
					 1.47885000E+00	 9.37572000E-01	 2.13654000E-16
					 1.59968000E+00	 8.94944000E-01	-3.67635000E-16
					 1.57006000E+00	 9.31230000E-01	 5.59243000E-16
					 2.43701000E+00	 4.64647000E-01	 6.64051000E-16
					 2.29673000E+00	 5.75221000E-01	-7.07295000E-18
					 1.95299000E+00	 9.09423000E-01	-2.09435000E-16
					 1.35546000E+00	 1.03534000E+00	-9.33664000E-17
					 1.52563000E+00	 9.84709000E-01	-2.26984000E-16
					 3.00000000E+00	-5.54925000E-08	-1.23099000E-16
					 3.00000000E+00	-2.23753000E-09	-8.97425000E-17
					 3.00000000E+00	-5.03265000E-10	-1.36471000E-16
					 1.75440000E+00	-3.50673000E-02	-2.64480000E-17
					 1.74435000E+00	-4.38272000E-02	 1.99244000E-17
					 1.62482000E+00	-4.24249000E-02	-7.77476000E-17
					 1.75230000E+00	 5.49738000E-01	-3.55317000E-17
					 1.63922000E+00	 7.15339000E-01	 1.20245000E-17
					 1.69903000E+00	 4.94811000E-01	-2.22087000E-16
					 1.86642000E+00	 9.78634000E-01	-2.29204000E-17
					 2.24212000E+00	 6.48003000E-01	 1.97926000E-17
					 1.76224000E+00	 1.01352000E+00	 6.11952000E-16
					 2.10611000E+00	 8.27460000E-01	 3.23487000E-16
					 2.08420000E+00	 8.57569000E-01	 2.46538000E-16
					 2.08817000E+00	 8.11707000E-01	 2.02945000E-16
					 1.91779000E+00	 4.85108000E-01	 5.09335000E-16
					 1.91334000E+00	 4.63515000E-01	 3.47457000E-16
					 1.97715000E+00	 5.08116000E-01	 3.41595000E-16
					 2.58766000E+00	-5.44581000E-04	 5.36202000E-16
					 2.28694000E+00	 2.28713000E-01	-9.26164000E-16
					 2.29365000E+00	 2.04399000E-01	-1.03615000E-15
					 2.28513000E+00	 2.10618000E-01	-1.21122000E-15
					 1.99713000E+00	 6.55046000E-01	-1.13966000E-16
					 2.00233000E+00	 6.42533000E-01	-2.38295000E-16
					 2.02038000E+00	 6.64842000E-01	 3.62137000E-16
					 2.76944000E+00	-2.93367000E-02	 7.96428000E-17
					 2.31628000E+00	 1.83351000E-01	 6.18250000E-16
					 2.28870000E+00	 1.72825000E-01	 5.06912000E-16
					 1.92621000E+00	-6.75585000E-02	 1.16621000E-15
					 1.98004000E+00	-7.03274000E-02	-1.64253000E-15
					 2.32477000E+00	-8.63859000E-02	 1.40857000E-15
					 2.24559000E+00	-3.83952000E-03	 1.06614000E-15
					 2.31793000E+00	-3.36016000E-02	 9.88561000E-16
					 2.07747000E+00	-9.71699000E-02	 4.94470000E-16
					 2.07971000E+00	-7.86558000E-02	-1.52469000E-15
					 2.13800000E+00	-1.07523000E-01	-1.03913000E-15
					 2.14886000E+00	 6.17234000E-01	 9.56009000E-17
					 2.16058000E+00	 6.54068000E-01	 4.56257000E-17
					 2.14554000E+00	 6.31384000E-01	 1.67554000E-16
					 2.08345000E+00	-6.41198000E-02	-1.06272000E-15
					 2.13350000E+00	-5.39386000E-02	-6.17790000E-16
					 2.13396000E+00	-7.68836000E-02	-1.93776000E-16
					 2.25760000E+00	-9.00663000E-02	 5.86024000E-16
					 2.25108000E+00	-5.67477000E-02	 8.88248000E-16
					 2.32484000E+00	-1.45201000E-01	 5.90864000E-17
					 2.35983000E+00	 1.09464000E-01	 1.04142000E-15
					 2.34645000E+00	 1.24893000E-01	 1.17433000E-15
					 2.41397000E+00	 1.10222000E-01	 9.35119000E-16
					 2.03118000E+00	-7.43396000E-02	-7.33399000E-16
					 2.33037000E+00	-4.78668000E-01	-2.01951000E-16
					 2.32408000E+00	-5.00220000E-01	 1.98689000E-16
					 2.27559000E+00	-4.63608000E-01	-1.37656000E-16
					 2.26912000E+00	-1.39874000E-01	 8.02053000E-16
					 2.28654000E+00	-1.98385000E-01	 5.69505000E-16
					 2.19588000E+00	-9.48490000E-02	-4.90901000E-16
					 2.18526000E+00	-3.10234000E-01	 2.73208000E-16
					 2.26528000E+00	-3.71619000E-01	 9.44035000E-16
					 2.27255000E+00	-4.21484000E-01	-1.60251000E-17
					 2.19016000E+00	-5.52171000E-02	 2.43880000E-16
					 2.27453000E+00	-4.97639000E-01	-4.78503000E-16
					 2.23972000E+00	-2.55993000E-01	-8.60363000E-17
					 2.32793000E+00	-3.69496000E-01	 6.66468000E-16
					 2.25404000E+00	-3.15522000E-01	-5.58684000E-16
					 2.31512000E+00	-5.15932000E-01	-1.17881000E-15
					 2.26990000E+00	-5.24069000E-01	-6.67312000E-17
					 2.33285000E+00	-4.13976000E-01	 4.80001000E-16
					 2.33347000E+00	-4.50222000E-01	 2.14154000E-16
					 2.30382000E+00	-5.26782000E-01	-1.09732000E-15
					 2.26201000E+00	-5.43733000E-01	 3.37064000E-16
					 2.14605000E+00	-1.47288000E-01	-7.36241000E-16
					 2.29045000E+00	-5.33602000E-01	-2.46975000E-16
					 2.25124000E+00	-5.57584000E-01	 4.90399000E-16
					 2.27525000E+00	-5.37062000E-01	 1.71061000E-16
					 2.23796000E+00	-5.66530000E-01	-1.26454000E-15
					 2.17139000E+00	-2.51412000E-01	-6.30901000E-16
					 2.25841000E+00	-5.37677000E-01	-1.08733000E-15
					 2.22249000E+00	-5.71342000E-01	 7.16402000E-17
					 2.11265000E+00	-3.03210000E-01	 1.30086000E-16
					 2.10011000E+00	-2.47242000E-01	-7.12885000E-16
					 2.19761000E+00	-3.68537000E-01	-6.11650000E-16
					 2.24009000E+00	-5.35835000E-01	 2.06713000E-16
					 2.20510000E+00	-5.72637000E-01	 4.83464000E-16
					 2.20697000E+00	-4.22822000E-01	-3.96896000E-16
					 2.22039000E+00	-5.31823000E-01	-1.15469000E-15
					 2.18601000E+00	-5.70888000E-01	-2.50478000E-16
					 2.19941000E+00	-5.25845000E-01	 2.96360000E-16
					 2.16537000E+00	-5.66443000E-01	 2.63633000E-16
					 2.17719000E+00	-5.18050000E-01	-8.67146000E-16
					 2.14326000E+00	-5.59549000E-01	-9.56208000E-17
					 2.21241000E+00	-4.70588000E-01	 2.09786000E-16
					 2.15374000E+00	-5.08542000E-01	-1.26962000E-16
					 2.11973000E+00	-5.50376000E-01	-3.07369000E-16
					 2.21377000E+00	-5.10588000E-01	 4.31127000E-16
					 2.12905000E+00	-4.97400000E-01	-5.25233000E-16
					 2.09477000E+00	-5.39039000E-01	-1.58513000E-16
					 2.21099000E+00	-5.42542000E-01	 5.11555000E-17
					 2.10308000E+00	-4.84694000E-01	 1.18715000E-16
					 2.06834000E+00	-5.25622000E-01	 1.93246000E-16