    1C
    1C
    1UUSER
    1UDATE              25.january.2020     
    1UTIME              14:32:17
    1UHOST
    1UPGM               CalculiX
    1UDIR
    1UDBN
    2C                                                                   1
 -1         1 0.00000E+00 4.00000E-01 0.00000E+00
 -1         2 0.00000E+00 3.75000E-01 0.00000E+00
 -1         3 2.23880E-02 3.84754E-01 0.00000E+00
 -1         4 0.00000E+00 3.50000E-01 0.00000E+00
 -1         5 0.00000E+00 3.25000E-01 0.00000E+00
 -1         6 2.74437E-02 3.35932E-01 0.00000E+00
 -1         7 2.22690E-02 4.12110E-01 0.00000E+00
 -1         8 4.51665E-02 3.97063E-01 0.00000E+00
 -1         9 4.61707E-02 7.76605E-02 0.00000E+00
 -1        10 2.52378E-02 6.31311E-02 0.00000E+00
 -1        11 5.52489E-02 4.95238E-02 0.00000E+00
 -1        12 0.00000E+00 2.50000E-02 0.00000E+00
 -1        13 0.00000E+00 0.00000E+00 0.00000E+00
 -1        14 3.00000E-02 0.00000E+00 0.00000E+00
 -1        15 8.71190E-02 4.72763E-02 0.00000E+00
 -1        16 7.64630E-02 2.40018E-02 0.00000E+00
 -1        17 1.16750E-01 2.58452E-02 0.00000E+00
 -1        18 4.96784E-02 2.17993E-02 0.00000E+00
 -1        19 5.21692E-02 1.06917E-01 0.00000E+00
 -1        20 2.45848E-02 9.04270E-02 0.00000E+00
 -1        21 4.47537E-02 1.35935E-01 0.00000E+00
 -1        22 2.42017E-02 1.19098E-01 0.00000E+00
 -1        23 1.43907E-01 7.52165E-02 0.00000E+00
 -1        24 1.83481E-01 8.90893E-02 0.00000E+00
 -1        25 1.42670E-01 1.08377E-01 0.00000E+00
 -1        26 0.00000E+00 1.00000E-01 0.00000E+00
 -1        27 2.27159E-01 3.33904E-02 0.00000E+00
 -1        28 2.40000E-01 0.00000E+00 0.00000E+00
 -1        29 2.63932E-01 2.34782E-02 0.00000E+00
 -1        30 7.81539E-02 7.78330E-02 0.00000E+00
 -1        31 4.14302E-01 9.08931E-01 0.00000E+00
 -1        32 4.03378E-01 9.42446E-01 0.00000E+00
 -1        33 3.77021E-01 9.19574E-01 0.00000E+00
 -1        34 3.42889E-01 1.14029E-01 0.00000E+00
 -1        35 3.45702E-01 6.26676E-02 0.00000E+00
 -1        36 3.79418E-01 7.84023E-02 0.00000E+00
 -1        37 9.45796E-02 2.42889E-01 0.00000E+00
 -1        38 6.27093E-02 2.56590E-01 0.00000E+00
 -1        39 6.09608E-02 2.20417E-01 0.00000E+00
 -1        40 8.44445E-02 1.75678E-01 0.00000E+00
 -1        41 1.00684E-01 1.41661E-01 0.00000E+00
 -1        42 1.13659E-01 1.67979E-01 0.00000E+00
 -1        43 0.00000E+00 2.50000E-01 0.00000E+00
 -1        44 0.00000E+00 2.25000E-01 0.00000E+00
 -1        45 2.95519E-02 2.36852E-01 0.00000E+00
 -1        46 1.12351E-01 6.08201E-02 0.00000E+00
 -1        47 1.12302E-01 9.14504E-02 0.00000E+00
 -1        48 4.06455E-01 2.68652E-02 0.00000E+00
 -1        49 4.26980E-01 5.17644E-02 0.00000E+00
 -1        50 3.98100E-01 5.27237E-02 0.00000E+00
 -1        51 7.01646E-02 1.37864E-01 0.00000E+00
 -1        52 2.09970E-01 2.71429E-01 0.00000E+00
 -1        53 2.05237E-01 2.96590E-01 0.00000E+00
 -1        54 1.81023E-01 2.77061E-01 0.00000E+00
 -1        55 3.30000E-01 0.00000E+00 0.00000E+00
 -1        56 3.60000E-01 0.00000E+00 0.00000E+00
 -1        57 3.45981E-01 2.74429E-02 0.00000E+00
 -1        58 3.97473E-02 3.11866E-01 0.00000E+00
 -1        59 1.86019E-02 3.13022E-01 0.00000E+00
 -1        60 5.83156E-01 7.11097E-01 0.00000E+00
 -1        61 6.09231E-01 7.33350E-01 0.00000E+00
 -1        62 5.78616E-01 7.55585E-01 0.00000E+00
 -1        63 0.00000E+00 5.00000E-01 0.00000E+00
 -1        64 0.00000E+00 4.75000E-01 0.00000E+00
 -1        65 1.92276E-02 4.75676E-01 0.00000E+00
 -1        66 2.55227E-01 5.82331E-02 0.00000E+00
 -1        67 0.00000E+00 5.50000E-01 0.00000E+00
 -1        68 0.00000E+00 5.25000E-01 0.00000E+00
 -1        69 1.86430E-02 5.35060E-01 0.00000E+00
 -1        70 4.80000E-01 1.00000E+00 0.00000E+00
 -1        71 4.50000E-01 1.00000E+00 0.00000E+00
 -1        72 4.78674E-01 9.74293E-01 0.00000E+00
 -1        73 1.31684E-01 3.54089E-01 0.00000E+00
 -1        74 1.33664E-01 3.91950E-01 0.00000E+00
 -1        75 1.11192E-01 3.81922E-01 0.00000E+00
 -1        76 1.80693E-01 7.42671E-01 0.00000E+00
 -1        77 2.09249E-01 7.21551E-01 0.00000E+00
 -1        78 2.10356E-01 7.54622E-01 0.00000E+00
 -1        79 5.45066E-01 7.30454E-01 0.00000E+00
 -1        80 5.51125E-01 7.01377E-01 0.00000E+00
 -1        81 3.17855E-01 3.03008E-01 0.00000E+00
 -1        82 2.96382E-01 2.85729E-01 0.00000E+00
 -1        83 3.23570E-01 2.75590E-01 0.00000E+00
 -1        84 3.90000E-01 1.00000E+00 0.00000E+00
 -1        85 3.60000E-01 1.00000E+00 0.00000E+00
 -1        86 3.94777E-01 9.76799E-01 0.00000E+00
 -1        87 0.00000E+00 3.00000E-01 0.00000E+00
 -1        88 4.04486E-01 8.49322E-01 0.00000E+00
 -1        89 4.30984E-01 8.08900E-01 0.00000E+00
 -1        90 4.51419E-01 8.40416E-01 0.00000E+00
 -1        91 5.70000E-01 0.00000E+00 0.00000E+00
 -1        92 6.00000E-01 0.00000E+00 0.00000E+00
 -1        93 6.00000E-01 2.50000E-02 0.00000E+00
 -1        94 5.40000E-01 0.00000E+00 0.00000E+00
 -1        95 5.50585E-01 2.20484E-02 0.00000E+00
 -1        96 5.14001E-01 4.85181E-02 0.00000E+00
 -1        97 5.24421E-01 2.41546E-02 0.00000E+00
 -1        98 5.45257E-01 5.04273E-02 0.00000E+00
 -1        99 4.56847E-01 3.90616E-02 0.00000E+00
 -1       100 4.50000E-01 0.00000E+00 0.00000E+00
 -1       101 4.88754E-01 2.53631E-02 0.00000E+00
 -1       102 6.00000E-01 5.00000E-02 0.00000E+00
 -1       103 6.00000E-01 7.50000E-02 0.00000E+00
 -1       104 5.75385E-01 6.42312E-02 0.00000E+00
 -1       105 4.80000E-01 0.00000E+00 0.00000E+00
 -1       106 5.10000E-01 0.00000E+00 0.00000E+00
 -1       107 4.07206E-01 9.99269E-02 0.00000E+00
 -1       108 4.08121E-01 7.23970E-02 0.00000E+00
 -1       109 4.32946E-01 8.48607E-02 0.00000E+00
 -1       110 4.86901E-01 6.59299E-02 0.00000E+00
 -1       111 5.24725E-01 8.10396E-02 0.00000E+00
 -1       112 3.28636E-01 2.14023E-01 0.00000E+00
 -1       113 3.27186E-01 2.45230E-01 0.00000E+00
 -1       114 3.01145E-01 2.25885E-01 0.00000E+00
 -1       115 5.54766E-01 7.93152E-02 0.00000E+00
 -1       116 5.49315E-01 1.07708E-01 0.00000E+00
 -1       117 5.78187E-01 9.63800E-02 0.00000E+00
 -1       118 5.47460E-01 1.48645E-01 0.00000E+00
 -1       119 5.78985E-01 1.42566E-01 0.00000E+00
 -1       120 5.77184E-01 1.64487E-01 0.00000E+00
 -1       121 3.90000E-01 0.00000E+00 0.00000E+00
 -1       122 4.20000E-01 0.00000E+00 0.00000E+00
 -1       123 5.20966E-01 1.18458E-01 0.00000E+00
 -1       124 2.97000E+00 2.00000E-01 0.00000E+00
 -1       125 3.00000E+00 2.00000E-01 0.00000E+00
 -1       126 3.00000E+00 2.25000E-01 0.00000E+00
 -1       127 2.94000E+00 2.00000E-01 0.00000E+00
 -1       128 2.95055E+00 2.22012E-01 0.00000E+00
 -1       129 3.00000E+00 2.50000E-01 0.00000E+00
 -1       130 2.97369E+00 2.35239E-01 0.00000E+00
 -1       131 2.91000E+00 2.00000E-01 0.00000E+00
 -1       132 2.92354E+00 2.24076E-01 0.00000E+00
 -1       133 2.88284E+00 2.26096E-01 0.00000E+00
 -1       134 2.94695E+00 3.07091E-01 0.00000E+00
 -1       135 2.91199E+00 3.09897E-01 0.00000E+00
 -1       136 2.92162E+00 2.77670E-01 0.00000E+00
 -1       137 2.94479E+00 2.49587E-01 0.00000E+00
 -1       138 3.00000E+00 2.75000E-01 0.00000E+00
 -1       139 3.00000E+00 3.00000E-01 0.00000E+00
 -1       140 2.97533E+00 2.90382E-01 0.00000E+00
 -1       141 2.88000E+00 2.00000E-01 0.00000E+00
 -1       142 2.95391E+00 2.77742E-01 0.00000E+00
 -1       143 2.97479E+00 2.63154E-01 0.00000E+00
 -1       144 2.91280E+00 2.47323E-01 0.00000E+00
 -1       145 2.88747E+00 2.61017E-01 0.00000E+00
 -1       146 3.00000E+00 3.75000E-01 0.00000E+00
 -1       147 3.00000E+00 4.00000E-01 0.00000E+00
 -1       148 2.97233E+00 3.85117E-01 0.00000E+00
 -1       149 2.89403E+00 3.57018E-01 0.00000E+00
 -1       150 2.86851E+00 3.65648E-01 0.00000E+00
 -1       151 2.86925E+00 3.36217E-01 0.00000E+00
 -1       152 3.00000E+00 6.00000E-01 0.00000E+00
 -1       153 3.00000E+00 6.25000E-01 0.00000E+00
 -1       154 2.97056E+00 6.10462E-01 0.00000E+00
 -1       155 2.92495E+00 3.40343E-01 0.00000E+00
 -1       156 2.89778E+00 3.30944E-01 0.00000E+00
 -1       157 2.84041E+00 3.24440E-01 0.00000E+00
 -1       158 2.86031E+00 3.06508E-01 0.00000E+00
 -1       159 2.96136E+00 4.70005E-01 0.00000E+00
 -1       160 3.00000E+00 4.75000E-01 0.00000E+00
 -1       161 2.97053E+00 4.99937E-01 0.00000E+00
 -1       162 2.85876E+00 2.49404E-01 0.00000E+00
 -1       163 2.82000E+00 2.00000E-01 0.00000E+00
 -1       164 2.85000E+00 2.00000E-01 0.00000E+00
 -1       165 2.83918E+00 2.27112E-01 0.00000E+00
 -1       166 2.83789E+00 3.56722E-01 0.00000E+00
 -1       167 2.95515E+00 3.36200E-01 0.00000E+00
 -1       168 8.80000E-01 7.33333E-01 0.00000E+00
 -1       169 8.50000E-01 7.33333E-01 0.00000E+00
 -1       170 8.64444E-01 7.03704E-01 0.00000E+00
 -1       171 2.74266E+00 4.21873E-01 0.00000E+00
 -1       172 2.77125E+00 4.27455E-01 0.00000E+00
 -1       173 2.76085E+00 4.60887E-01 0.00000E+00
 -1       174 2.79000E+00 2.00000E-01 0.00000E+00
 -1       175 2.79811E+00 2.31850E-01 0.00000E+00
 -1       176 2.76214E+00 2.19366E-01 0.00000E+00
 -1       177 2.67478E+00 2.67442E-01 0.00000E+00
 -1       178 2.63482E+00 2.40326E-01 0.00000E+00
 -1       179 2.66933E+00 2.25100E-01 0.00000E+00
 -1       180 2.85677E+00 2.76668E-01 0.00000E+00
 -1       181 3.00000E+00 5.25000E-01 0.00000E+00
 -1       182 3.00000E+00 5.50000E-01 0.00000E+00
 -1       183 2.97598E+00 5.54504E-01 0.00000E+00
 -1       184 2.91746E+00 3.80999E-01 0.00000E+00
 -1       185 2.94820E+00 3.64531E-01 0.00000E+00
 -1       186 2.64193E+00 2.85285E-01 0.00000E+00
 -1       187 2.60991E+00 2.67969E-01 0.00000E+00
 -1       188 2.70000E+00 2.00000E-01 0.00000E+00
 -1       189 2.69733E+00 2.40971E-01 0.00000E+00
 -1       190 2.64642E+00 3.25767E-01 0.00000E+00
 -1       191 2.66879E+00 3.03298E-01 0.00000E+00
 -1       192 2.45000E+00 4.66667E-01 0.00000E+00
 -1       193 2.48001E+00 4.66667E-01 0.00000E+00
 -1       194 2.46556E+00 4.96296E-01 0.00000E+00
 -1       195 2.92349E+00 9.75985E-01 0.00000E+00
 -1       196 2.91279E+00 9.52715E-01 0.00000E+00
 -1       197 2.94470E+00 9.50485E-01 0.00000E+00
 -1       198 2.95369E+00 9.22356E-01 0.00000E+00
 -1       199 2.97474E+00 9.36876E-01 0.00000E+00
 -1       200 3.00000E+00 9.75000E-01 0.00000E+00
 -1       201 3.00000E+00 1.00000E+00 0.00000E+00
 -1       202 2.97000E+00 1.00000E+00 0.00000E+00
 -1       203 3.00000E+00 9.00000E-01 0.00000E+00
 -1       204 3.00000E+00 9.25000E-01 0.00000E+00
 -1       205 2.97536E+00 9.09693E-01 0.00000E+00
 -1       206 2.95032E+00 9.78200E-01 0.00000E+00
 -1       207 2.94720E+00 8.93077E-01 0.00000E+00
 -1       208 2.92162E+00 9.22403E-01 0.00000E+00
 -1       209 3.00000E+00 6.50000E-01 0.00000E+00
 -1       210 3.00000E+00 6.75000E-01 0.00000E+00
 -1       211 2.98476E+00 6.54316E-01 0.00000E+00
 -1       212 2.88291E+00 9.73908E-01 0.00000E+00
 -1       213 3.00000E+00 8.50000E-01 0.00000E+00
 -1       214 3.00000E+00 8.75000E-01 0.00000E+00
 -1       215 2.97890E+00 8.49583E-01 0.00000E+00
 -1       216 2.64227E+00 9.14633E-01 0.00000E+00
 -1       217 2.64393E+00 8.74354E-01 0.00000E+00
 -1       218 2.66759E+00 8.96677E-01 0.00000E+00
 -1       219 2.91759E+00 8.20206E-01 0.00000E+00
 -1       220 2.92513E+00 8.59911E-01 0.00000E+00
 -1       221 2.89412E+00 8.43299E-01 0.00000E+00
 -1       222 2.58140E+00 9.41033E-01 0.00000E+00
 -1       223 2.59051E+00 9.14465E-01 0.00000E+00
 -1       224 2.61244E+00 9.32929E-01 0.00000E+00
 -1       225 2.69148E+00 6.40953E-01 0.00000E+00
 -1       226 2.71117E+00 5.99837E-01 0.00000E+00
 -1       227 2.73179E+00 6.44475E-01 0.00000E+00
 -1       228 2.89768E+00 8.69150E-01 0.00000E+00
 -1       229 2.64000E+00 1.00000E+00 0.00000E+00
 -1       230 2.61000E+00 1.00000E+00 0.00000E+00
 -1       231 2.60486E+00 9.71779E-01 0.00000E+00
 -1       232 2.56394E+00 9.12661E-01 0.00000E+00
 -1       233 2.58207E+00 8.87014E-01 0.00000E+00
 -1       234 2.91199E+00 8.90198E-01 0.00000E+00
 -1       235 2.81936E+00 8.06248E-01 0.00000E+00
 -1       236 2.78940E+00 8.16511E-01 0.00000E+00
 -1       237 2.79250E+00 7.87478E-01 0.00000E+00
 -1       238 2.97360E+00 9.64747E-01 0.00000E+00
 -1       239 2.70304E+00 6.91591E-01 0.00000E+00
 -1       240 2.66728E+00 6.71822E-01 0.00000E+00
 -1       241 3.00000E+00 7.00000E-01 0.00000E+00
 -1       242 2.97141E+00 6.77790E-01 0.00000E+00
 -1       243 2.90553E+00 7.91531E-01 0.00000E+00
 -1       244 2.92613E+00 7.92685E-01 0.00000E+00
 -1       245 2.74586E+00 5.04214E-01 0.00000E+00
 -1       246 2.73323E+00 5.54555E-01 0.00000E+00
 -1       247 2.70939E+00 5.11053E-01 0.00000E+00
 -1       248 2.79382E+00 3.05959E-01 0.00000E+00
 -1       249 2.78214E+00 3.30877E-01 0.00000E+00
 -1       250 2.76551E+00 3.02317E-01 0.00000E+00
 -1       251 2.95920E+00 5.28443E-01 0.00000E+00
 -1       252 2.95547E+00 6.44078E-01 0.00000E+00
 -1       253 2.72563E+00 4.64879E-01 0.00000E+00
 -1       254 2.76000E+00 2.00000E-01 0.00000E+00
 -1       255 8.16667E-01 5.55556E-01 0.00000E+00
 -1       256 8.46667E-01 5.55556E-01 0.00000E+00
 -1       257 8.32222E-01 5.85185E-01 0.00000E+00
 -1       258 7.11087E-01 5.25880E-01 0.00000E+00
 -1       259 6.96555E-01 5.55318E-01 0.00000E+00
 -1       260 6.81072E-01 5.25854E-01 0.00000E+00
 -1       261 7.29998E-01 7.33334E-01 0.00000E+00
 -1       262 6.99974E-01 7.33342E-01 0.00000E+00
 -1       263 7.14382E-01 7.03714E-01 0.00000E+00
 -1       264 2.81895E+00 3.93658E-01 0.00000E+00
 -1       265 2.85482E+00 3.92782E-01 0.00000E+00
 -1       266 2.84138E+00 4.24788E-01 0.00000E+00
 -1       267 5.02688E-01 7.40978E-01 0.00000E+00
 -1       268 5.33563E-01 7.65659E-01 0.00000E+00
 -1       269 6.09891E-01 4.66682E-01 0.00000E+00
 -1       270 6.48262E-01 4.66754E-01 0.00000E+00
 -1       271 6.32815E-01 4.97352E-01 0.00000E+00
 -1       272 6.84070E-01 7.03838E-01 0.00000E+00
 -1       273 6.67557E-01 6.74513E-01 0.00000E+00
 -1       274 6.98293E-01 6.74101E-01 0.00000E+00
 -1       275 5.71482E-01 4.80350E-01 0.00000E+00
 -1       276 5.97812E-01 5.02935E-01 0.00000E+00
 -1       277 2.48953E-01 4.54284E-01 0.00000E+00
 -1       278 2.21676E-01 4.66375E-01 0.00000E+00
 -1       279 2.24538E-01 4.39894E-01 0.00000E+00
 -1       280 2.73808E+00 3.66995E-01 0.00000E+00
 -1       281 2.70120E+00 3.65921E-01 0.00000E+00
 -1       282 2.71693E+00 3.33300E-01 0.00000E+00
 -1       283 6.76362E-01 2.88929E-01 0.00000E+00
 -1       284 6.44660E-01 2.89700E-01 0.00000E+00
 -1       285 6.59296E-01 2.59871E-01 0.00000E+00
 -1       286 6.81137E-01 6.44164E-01 0.00000E+00
 -1       287 6.48394E-01 6.46103E-01 0.00000E+00
 -1       288 6.58909E-01 6.10941E-01 0.00000E+00
 -1       289 9.40000E-01 7.33333E-01 0.00000E+00
 -1       290 9.10000E-01 7.33333E-01 0.00000E+00
 -1       291 9.24444E-01 7.03704E-01 0.00000E+00
 -1       292 1.13000E+00 4.66667E-01 0.00000E+00
 -1       293 1.16000E+00 4.66667E-01 0.00000E+00
 -1       294 1.14556E+00 4.96296E-01 0.00000E+00
 -1       295 2.58000E+00 1.00000E+00 0.00000E+00
 -1       296 3.00000E+00 8.00000E-01 0.00000E+00
 -1       297 2.97297E+00 8.15072E-01 0.00000E+00
 -1       298 2.98123E+00 7.91858E-01 0.00000E+00
 -1       299 9.66667E-01 5.55556E-01 0.00000E+00
 -1       300 9.96667E-01 5.55556E-01 0.00000E+00
 -1       301 9.82222E-01 5.85185E-01 0.00000E+00
 -1       302 2.88751E+00 9.39000E-01 0.00000E+00
 -1       303 3.00000E+00 7.25000E-01 0.00000E+00
 -1       304 2.98288E+00 7.26217E-01 0.00000E+00
 -1       305 2.51004E+00 4.66665E-01 0.00000E+00
 -1       306 2.49557E+00 4.96291E-01 0.00000E+00
 -1       307 2.61276E+00 6.96744E-01 0.00000E+00
 -1       308 2.63217E+00 6.60492E-01 0.00000E+00
 -1       309 2.64541E+00 6.94424E-01 0.00000E+00
 -1       310 2.43667E+00 5.55555E-01 0.00000E+00
 -1       311 2.46667E+00 5.55554E-01 0.00000E+00
 -1       312 2.45222E+00 5.85184E-01 0.00000E+00
 -1       313 1.21000E+00 7.33333E-01 0.00000E+00
 -1       314 1.18000E+00 7.33333E-01 0.00000E+00
 -1       315 1.19444E+00 7.03704E-01 0.00000E+00
 -1       316 2.49668E+00 5.55533E-01 0.00000E+00
 -1       317 2.51261E+00 5.85023E-01 0.00000E+00
 -1       318 2.48229E+00 5.85166E-01 0.00000E+00
 -1       319 2.54521E+00 6.46248E-01 0.00000E+00
 -1       320 2.57710E+00 6.53302E-01 0.00000E+00
 -1       321 2.55996E+00 6.77070E-01 0.00000E+00
 -1       322 2.81791E+00 7.16217E-01 0.00000E+00
 -1       323 2.84818E+00 7.20660E-01 0.00000E+00
 -1       324 2.82902E+00 7.46768E-01 0.00000E+00
 -1       325 2.48111E+00 5.25920E-01 0.00000E+00
 -1       326 2.30333E+00 6.44444E-01 0.00000E+00
 -1       327 2.27333E+00 6.44444E-01 0.00000E+00
 -1       328 2.28778E+00 6.14815E-01 0.00000E+00
 -1       329 2.51358E+00 6.44654E-01 0.00000E+00
 -1       330 2.48336E+00 6.44474E-01 0.00000E+00
 -1       331 2.49792E+00 6.14850E-01 0.00000E+00
 -1       332 2.33222E+00 5.85185E-01 0.00000E+00
 -1       333 2.34778E+00 6.14815E-01 0.00000E+00
 -1       334 2.31778E+00 6.14815E-01 0.00000E+00
 -1       335 2.52952E+00 6.15110E-01 0.00000E+00
 -1       336 2.25778E+00 6.14815E-01 0.00000E+00
 -1       337 2.40778E+00 6.14815E-01 0.00000E+00
 -1       338 2.39333E+00 6.44445E-01 0.00000E+00
 -1       339 2.37778E+00 6.14815E-01 0.00000E+00
 -1       340 2.24333E+00 6.44444E-01 0.00000E+00
 -1       341 2.22778E+00 6.14815E-01 0.00000E+00
 -1       342 2.36333E+00 6.44444E-01 0.00000E+00
 -1       343 2.33333E+00 6.44444E-01 0.00000E+00
 -1       344 2.21333E+00 6.44444E-01 0.00000E+00
 -1       345 2.19778E+00 6.14815E-01 0.00000E+00
 -1       346 2.42222E+00 5.85185E-01 0.00000E+00
 -1       347 2.18333E+00 6.44444E-01 0.00000E+00
 -1       348 2.16778E+00 6.14815E-01 0.00000E+00
 -1       349 2.15333E+00 6.44444E-01 0.00000E+00
 -1       350 2.13778E+00 6.14815E-01 0.00000E+00
 -1       351 2.36222E+00 5.85185E-01 0.00000E+00
 -1       352 2.12333E+00 6.44444E-01 0.00000E+00
 -1       353 2.10778E+00 6.14815E-01 0.00000E+00
 -1       354 2.28667E+00 5.55556E-01 0.00000E+00
 -1       355 2.31667E+00 5.55556E-01 0.00000E+00
 -1       356 2.30222E+00 5.85185E-01 0.00000E+00
 -1       357 2.09333E+00 6.44444E-01 0.00000E+00
 -1       358 2.07778E+00 6.14815E-01 0.00000E+00
 -1       359 2.27222E+00 5.85185E-01 0.00000E+00
 -1       360 2.06333E+00 6.44444E-01 0.00000E+00
 -1       361 2.04778E+00 6.14815E-01 0.00000E+00
 -1       362 2.03333E+00 6.44444E-01 0.00000E+00
 -1       363 2.01778E+00 6.14815E-01 0.00000E+00
 -1       364 2.00333E+00 6.44444E-01 0.00000E+00
 -1       365 1.98778E+00 6.14815E-01 0.00000E+00
 -1       366 2.24222E+00 5.85185E-01 0.00000E+00
 -1       367 1.97333E+00 6.44444E-01 0.00000E+00
 -1       368 1.95778E+00 6.14815E-01 0.00000E+00
 -1       369 2.21222E+00 5.85185E-01 0.00000E+00
 -1       370 1.94333E+00 6.44444E-01 0.00000E+00
 -1       371 1.92778E+00 6.14815E-01 0.00000E+00
 -1       372 2.18222E+00 5.85185E-01 0.00000E+00
 -1       373 1.91333E+00 6.44444E-01 0.00000E+00
 -1       374 1.89778E+00 6.14815E-01 0.00000E+00
 -1       375 2.15222E+00 5.85185E-01 0.00000E+00
 -1       376 1.88333E+00 6.44444E-01 0.00000E+00
 -1       377 1.86778E+00 6.14815E-01 0.00000E+00
 -1       378 2.12222E+00 5.85185E-01 0.00000E+00
 -1       379 1.85333E+00 6.44444E-01 0.00000E+00
 -1       380 1.83778E+00 6.14815E-01 0.00000E+00
 -1       381 2.09222E+00 5.85185E-01 0.00000E+00
 -1       382 1.82333E+00 6.44444E-01 0.00000E+00
 -1       383 1.80778E+00 6.14815E-01 0.00000E+00
 -1       384 2.06222E+00 5.85185E-01 0.00000E+00
 -1       385 1.79333E+00 6.44444E-01 0.00000E+00
 -1       386 1.77778E+00 6.14815E-01 0.00000E+00
 -1       387 2.03222E+00 5.85185E-01 0.00000E+00
 -1       388 1.76333E+00 6.44444E-01 0.00000E+00
 -1       389 1.74778E+00 6.14815E-01 0.00000E+00
 -1       390 2.00222E+00 5.85185E-01 0.00000E+00
 -1       391 1.73333E+00 6.44444E-01 0.00000E+00
 -1       392 1.71778E+00 6.14815E-01 0.00000E+00
 -1       393 1.97222E+00 5.85185E-01 0.00000E+00
 -1       394 1.70333E+00 6.44444E-01 0.00000E+00
 -1       395 1.68778E+00 6.14815E-01 0.00000E+00
 -1       396 1.94222E+00 5.85185E-01 0.00000E+00
 -1       397 1.67333E+00 6.44444E-01 0.00000E+00
 -1       398 1.65778E+00 6.14815E-01 0.00000E+00
 -1       399 1.91222E+00 5.85185E-01 0.00000E+00
 -1       400 1.64333E+00 6.44444E-01 0.00000E+00
 -1       401 1.62778E+00 6.14815E-01 0.00000E+00
 -1       402 1.88222E+00 5.85185E-01 0.00000E+00
 -1       403 1.61333E+00 6.44444E-01 0.00000E+00
 -1       404 1.59778E+00 6.14815E-01 0.00000E+00
 -1       405 1.85222E+00 5.85185E-01 0.00000E+00
 -1       406 1.58333E+00 6.44444E-01 0.00000E+00
 -1       407 1.56778E+00 6.14815E-01 0.00000E+00
 -1       408 1.82222E+00 5.85185E-01 0.00000E+00
 -1       409 1.55333E+00 6.44444E-01 0.00000E+00
 -1       410 1.53778E+00 6.14815E-01 0.00000E+00
 -1       411 1.79222E+00 5.85185E-01 0.00000E+00
 -1       412 1.52333E+00 6.44444E-01 0.00000E+00
 -1       413 1.50778E+00 6.14815E-01 0.00000E+00
 -1       414 1.76222E+00 5.85185E-01 0.00000E+00
 -1       415 1.49333E+00 6.44444E-01 0.00000E+00
 -1       416 1.47778E+00 6.14815E-01 0.00000E+00
 -1       417 1.73222E+00 5.85185E-01 0.00000E+00
 -1       418 1.46333E+00 6.44444E-01 0.00000E+00
 -1       419 1.44778E+00 6.14815E-01 0.00000E+00
 -1       420 1.70222E+00 5.85185E-01 0.00000E+00
 -1       421 1.38667E+00 5.55556E-01 0.00000E+00
 -1       422 1.35667E+00 5.55556E-01 0.00000E+00
 -1       423 1.37111E+00 5.25926E-01 0.00000E+00
 -1       424 1.67222E+00 5.85185E-01 0.00000E+00
 -1       425 1.40111E+00 5.25926E-01 0.00000E+00
 -1       426 1.38556E+00 4.96296E-01 0.00000E+00
 -1       427 1.64222E+00 5.85185E-01 0.00000E+00
 -1       428 1.31333E+00 6.44444E-01 0.00000E+00
 -1       429 1.28333E+00 6.44444E-01 0.00000E+00
 -1       430 1.29778E+00 6.14815E-01 0.00000E+00
 -1       431 1.61222E+00 5.85185E-01 0.00000E+00
 -1       432 1.34333E+00 6.44444E-01 0.00000E+00
 -1       433 1.32889E+00 6.74074E-01 0.00000E+00
 -1       434 1.58222E+00 5.85185E-01 0.00000E+00
 -1       435 1.22444E+00 7.03704E-01 0.00000E+00
 -1       436 1.20889E+00 6.74074E-01 0.00000E+00
 -1       437 1.23889E+00 6.74074E-01 0.00000E+00
 -1       438 1.55222E+00 5.85185E-01 0.00000E+00
 -1       439 1.10333E+00 6.44444E-01 0.00000E+00
 -1       440 1.13333E+00 6.44444E-01 0.00000E+00
 -1       441 1.11889E+00 6.74074E-01 0.00000E+00
 -1       442 1.52222E+00 5.85185E-01 0.00000E+00
 -1       443 1.05667E+00 5.55556E-01 0.00000E+00
 -1       444 1.02667E+00 5.55556E-01 0.00000E+00
 -1       445 1.04111E+00 5.25926E-01 0.00000E+00
 -1       446 1.37000E+00 4.66667E-01 0.00000E+00
 -1       447 1.40000E+00 4.66667E-01 0.00000E+00
 -1       448 1.19000E+00 4.66667E-01 0.00000E+00
 -1       449 1.17556E+00 4.96296E-01 0.00000E+00
 -1       450 1.35556E+00 4.96296E-01 0.00000E+00
 -1       451 1.20667E+00 5.55556E-01 0.00000E+00
 -1       452 1.17667E+00 5.55556E-01 0.00000E+00
 -1       453 1.19111E+00 5.25926E-01 0.00000E+00
 -1       454 1.22333E+00 6.44444E-01 0.00000E+00
 -1       455 1.19333E+00 6.44444E-01 0.00000E+00
 -1       456 1.20778E+00 6.14815E-01 0.00000E+00
 -1       457 9.84444E-01 7.03704E-01 0.00000E+00
 -1       458 9.54444E-01 7.03704E-01 0.00000E+00
 -1       459 9.68889E-01 6.74074E-01 0.00000E+00
 -1       460 1.23667E+00 5.55556E-01 0.00000E+00
 -1       461 1.22222E+00 5.85185E-01 0.00000E+00
 -1       462 1.16444E+00 7.03704E-01 0.00000E+00
 -1       463 1.13444E+00 7.03704E-01 0.00000E+00
 -1       464 1.14889E+00 6.74074E-01 0.00000E+00
 -1       465 1.02778E+00 6.14815E-01 0.00000E+00
 -1       466 9.97778E-01 6.14815E-01 0.00000E+00
 -1       467 1.01222E+00 5.85185E-01 0.00000E+00
 -1       468 1.07444E+00 7.03704E-01 0.00000E+00
 -1       469 1.05889E+00 6.74074E-01 0.00000E+00
 -1       470 1.08889E+00 6.74074E-01 0.00000E+00
 -1       471 1.07000E+00 4.66667E-01 0.00000E+00
 -1       472 1.10000E+00 4.66667E-01 0.00000E+00
 -1       473 1.08556E+00 4.96296E-01 0.00000E+00
 -1       474 1.04333E+00 6.44444E-01 0.00000E+00
 -1       475 1.07333E+00 6.44444E-01 0.00000E+00
 -1       476 1.03000E+00 7.33333E-01 0.00000E+00
 -1       477 1.00000E+00 7.33333E-01 0.00000E+00
 -1       478 1.01444E+00 7.03704E-01 0.00000E+00
 -1       479 1.04444E+00 7.03704E-01 0.00000E+00
 -1       480 1.08778E+00 6.14815E-01 0.00000E+00
 -1       481 9.83333E-01 6.44444E-01 0.00000E+00
 -1       482 1.01333E+00 6.44444E-01 0.00000E+00
 -1       483 9.98889E-01 6.74074E-01 0.00000E+00
 -1       484 7.40000E-01 4.66667E-01 0.00000E+00
 -1       485 7.70000E-01 4.66667E-01 0.00000E+00
 -1       486 7.55555E-01 4.96296E-01 0.00000E+00
 -1       487 9.06667E-01 5.55556E-01 0.00000E+00
 -1       488 8.76667E-01 5.55556E-01 0.00000E+00
 -1       489 8.91111E-01 5.25926E-01 0.00000E+00
 -1       490 7.44433E-01 7.03705E-01 0.00000E+00
 -1       491 5.77473E-01 8.22885E-01 0.00000E+00
 -1       492 5.34976E-01 8.26723E-01 0.00000E+00
 -1       493 5.56802E-01 7.93502E-01 0.00000E+00
 -1       494 2.13964E-01 6.49265E-01 0.00000E+00
 -1       495 2.09876E-01 6.82821E-01 0.00000E+00
 -1       496 1.94622E-01 6.57199E-01 0.00000E+00
 -1       497 1.01000E+00 4.66667E-01 0.00000E+00
 -1       498 1.04000E+00 4.66667E-01 0.00000E+00
 -1       499 1.02556E+00 4.96296E-01 0.00000E+00
 -1       500 8.62222E-01 5.85185E-01 0.00000E+00
 -1       501 8.20000E-01 7.33333E-01 0.00000E+00
 -1       502 8.34444E-01 7.03704E-01 0.00000E+00
 -1       503 8.33333E-01 6.44444E-01 0.00000E+00
 -1       504 8.03333E-01 6.44444E-01 0.00000E+00
 -1       505 8.17778E-01 6.14815E-01 0.00000E+00
 -1       506 6.64958E-01 4.96408E-01 0.00000E+00
 -1       507 6.51019E-01 5.26325E-01 0.00000E+00
 -1       508 7.25549E-01 4.96293E-01 0.00000E+00
 -1       509 7.41098E-01 5.25914E-01 0.00000E+00
 -1       510 7.12917E-01 6.44343E-01 0.00000E+00
 -1       511 7.43244E-01 6.44418E-01 0.00000E+00
 -1       512 7.28783E-01 6.74062E-01 0.00000E+00
 -1       513 7.87775E-01 6.14814E-01 0.00000E+00
 -1       514 8.02221E-01 5.85185E-01 0.00000E+00
 -1       515 3.02119E-01 1.95847E-01 0.00000E+00
 -1       516 6.18354E-01 8.22154E-01 0.00000E+00
 -1       517 6.54506E-01 8.22177E-01 0.00000E+00
 -1       518 6.36376E-01 8.51851E-01 0.00000E+00
 -1       519 4.71488E-01 8.66592E-01 0.00000E+00
 -1       520 5.13306E-01 8.62080E-01 0.00000E+00
 -1       521 4.90391E-01 8.89487E-01 0.00000E+00
 -1       522 0.00000E+00 1.00000E+00 0.00000E+00
 -1       523 0.00000E+00 9.75000E-01 0.00000E+00
 -1       524 3.00000E-02 1.00000E+00 0.00000E+00
 -1       525 6.08398E-02 8.79754E-01 0.00000E+00
 -1       526 3.71231E-02 9.11166E-01 0.00000E+00
 -1       527 2.78651E-02 8.80407E-01 0.00000E+00
 -1       528 8.47778E-01 6.14815E-01 0.00000E+00
 -1       529 2.33115E-01 3.87078E-01 0.00000E+00
 -1       530 2.02900E-01 3.77872E-01 0.00000E+00
 -1       531 2.23030E-01 3.50910E-01 0.00000E+00
 -1       532 2.63959E-02 3.52531E-02 0.00000E+00
 -1       533 4.34250E-01 9.65861E-01 0.00000E+00
 -1       534 1.15315E-01 1.19120E-01 0.00000E+00
 -1       535 7.71008E-02 5.11992E-01 0.00000E+00
 -1       536 6.91099E-02 4.73250E-01 0.00000E+00
 -1       537 9.58976E-02 4.84091E-01 0.00000E+00
 -1       538 2.39836E-02 2.00473E-01 0.00000E+00
 -1       539 0.00000E+00 1.75000E-01 0.00000E+00
 -1       540 2.48063E-02 1.56529E-01 0.00000E+00
 -1       541 3.65803E-01 9.55397E-01 0.00000E+00
 -1       542 2.10000E-01 1.00000E+00 0.00000E+00
 -1       543 1.80000E-01 1.00000E+00 0.00000E+00
 -1       544 1.92528E-01 9.71327E-01 0.00000E+00
 -1       545 0.00000E+00 6.50000E-01 0.00000E+00
 -1       546 0.00000E+00 6.25000E-01 0.00000E+00
 -1       547 3.17707E-02 6.31574E-01 0.00000E+00
 -1       548 5.10000E-01 1.00000E+00 0.00000E+00
 -1       549 2.46661E-01 9.22431E-01 0.00000E+00
 -1       550 2.46752E-01 8.87211E-01 0.00000E+00
 -1       551 2.79953E-01 9.02703E-01 0.00000E+00
 -1       552 2.12850E-01 9.40796E-01 0.00000E+00
 -1       553 2.19372E-01 9.05395E-01 0.00000E+00
 -1       554 2.39096E-01 7.34688E-01 0.00000E+00
 -1       555 2.36682E-01 7.72156E-01 0.00000E+00
 -1       556 2.47823E-01 4.86260E-01 0.00000E+00
 -1       557 2.15213E-01 4.95881E-01 0.00000E+00
 -1       558 1.45882E-01 8.48523E-01 0.00000E+00
 -1       559 1.16254E-01 8.61720E-01 0.00000E+00
 -1       560 1.20652E-01 8.28944E-01 0.00000E+00
 -1       561 2.82713E-02 9.44152E-01 0.00000E+00
 -1       562 6.31636E-02 9.41673E-01 0.00000E+00
 -1       563 8.08885E-02 5.51440E-01 0.00000E+00
 -1       564 4.59649E-02 5.32115E-01 0.00000E+00
 -1       565 3.00000E-01 1.00000E+00 0.00000E+00
 -1       566 2.70000E-01 1.00000E+00 0.00000E+00
 -1       567 2.70776E-01 9.77103E-01 0.00000E+00
 -1       568 6.73298E-02 7.82623E-01 0.00000E+00
 -1       569 9.82139E-02 7.84562E-01 0.00000E+00
 -1       570 8.04072E-02 8.07355E-01 0.00000E+00
 -1       571 9.27574E-02 8.81843E-01 0.00000E+00
 -1       572 1.17049E-01 8.88480E-01 0.00000E+00
 -1       573 4.50368E-02 7.69804E-01 0.00000E+00
 -1       574 3.51013E-02 7.93281E-01 0.00000E+00
 -1       575 1.96444E-02 7.72758E-01 0.00000E+00
 -1       576 8.36466E-02 8.42341E-01 0.00000E+00
 -1       577 4.52255E-02 8.53473E-01 0.00000E+00
 -1       578 1.44944E-01 7.28152E-01 0.00000E+00
 -1       579 1.53158E-01 7.65556E-01 0.00000E+00
 -1       580 0.00000E+00 9.00000E-01 0.00000E+00
 -1       581 0.00000E+00 8.75000E-01 0.00000E+00
 -1       582 1.40905E-01 8.80178E-01 0.00000E+00
 -1       583 0.00000E+00 9.25000E-01 0.00000E+00
 -1       584 9.00000E-02 1.00000E+00 0.00000E+00
 -1       585 6.00000E-02 1.00000E+00 0.00000E+00
 -1       586 7.80183E-02 9.73229E-01 0.00000E+00
 -1       587 0.00000E+00 9.50000E-01 0.00000E+00
 -1       588 1.03536E-01 9.09693E-01 0.00000E+00
 -1       589 1.16400E-01 9.37124E-01 0.00000E+00
 -1       590 8.94165E-02 9.30278E-01 0.00000E+00
 -1       591 2.12791E-02 9.67873E-01 0.00000E+00
 -1       592 4.67898E-02 9.71154E-01 0.00000E+00
 -1       593 5.21567E-01 7.07469E-01 0.00000E+00
 -1       594 3.30000E-01 1.00000E+00 0.00000E+00
 -1       595 3.27999E-01 9.68178E-01 0.00000E+00