    1C
    1UUSER                                                              
    1UDATE              25.january.2020                                 
    1UTIME              14:45:15                                        
    1UHOST                                                              
    1UPGM               CalculiX                                        
    1UVERSION           Version 2.16                             
    1UCOMPILETIME       Tue  7 Jan 19:57:43 CET 2020                    
    1UDIR                                                               
    1UDBN                                                               
    1UMAT    1EL                                                        
    2C                            13                                     1
 -1         1 2.00000E+00-7.45058E-09 1.22465E-16
 -1         2 2.00000E+00 1.00000E+00 1.22465E-16
 -1         3 1.00000E+00 1.00000E+00 6.12323E-17
 -1         4 1.00000E+00-7.45058E-09 6.12323E-17
 -1         5 2.00000E+00 5.00000E-01 1.22465E-16
 -1         6 1.50000E+00 1.00000E+00 9.18485E-17
 -1         7 1.00000E+00 5.00000E-01 6.12323E-17
 -1         8 1.50000E+00-7.45058E-09 9.18485E-17
 -1         9 3.00000E+00-7.45058E-09 1.83697E-16
 -1        10 3.00000E+00 1.00000E+00 1.83697E-16
 -1        11 3.00000E+00 5.00000E-01 1.83697E-16
 -1        12 2.50000E+00 1.00000E+00 1.53081E-16
 -1        13 2.50000E+00-7.45058E-09 1.53081E-16
 -3
    3C                             2                                     1
 -1         1   10    0    1
 -2         1         2         3         4         5         6         7         8
 -1         2   10    0    1
 -2         9        10         2         1        11        12         5        13
 -3
 9999
