    1C
    1UUSER                                                              
    1UDATE              25.january.2020                                 
    1UTIME              14:45:15                                        
    1UHOST                                                              
    1UPGM               CalculiX                                        
    1UVERSION           Version 2.16                             
    1UCOMPILETIME       Tue  7 Jan 19:57:43 CET 2020                    
    1UDIR                                                               
    1UDBN                                                               
    1UMAT    1EL                                                        
    2C                            53                                     1
 -1         1 1.05000E+00 0.00000E+00 6.42940E-17
 -1         2 1.05000E+00 3.00000E-01 6.42940E-17
 -1         3 1.00000E+00 3.00000E-01 6.12323E-17
 -1         4 1.00000E+00 0.00000E+00 6.12323E-17
 -1         5 1.05000E+00 1.50000E-01 6.42940E-17
 -1         6 1.02500E+00 3.00000E-01 6.27631E-17
 -1         7 1.00000E+00 1.50000E-01 6.12323E-17
 -1         8 1.02500E+00 0.00000E+00 6.27631E-17
 -1         9 1.05000E+00 6.00000E-01 6.42940E-17
 -1        10 1.00000E+00 6.00000E-01 6.12323E-17
 -1        11 1.05000E+00 4.50000E-01 6.42940E-17
 -1        12 1.02500E+00 6.00000E-01 6.27631E-17
 -1        13 1.00000E+00 4.50000E-01 6.12323E-17
 -1        14 1.05000E+00 9.00000E-01 6.42940E-17
 -1        15 1.00000E+00 9.00000E-01 6.12323E-17
 -1        16 1.05000E+00 7.50000E-01 6.42940E-17
 -1        17 1.02500E+00 9.00000E-01 6.27631E-17
 -1        18 1.00000E+00 7.50000E-01 6.12323E-17
 -1        19 1.05000E+00 1.20000E+00 6.42940E-17
 -1        20 1.00000E+00 1.20000E+00 6.12323E-17
 -1        21 1.05000E+00 1.05000E+00 6.42940E-17
 -1        22 1.02500E+00 1.20000E+00 6.27631E-17
 -1        23 1.00000E+00 1.05000E+00 6.12323E-17
 -1        24 1.05000E+00 1.50000E+00 6.42940E-17
 -1        25 1.00000E+00 1.50000E+00 6.12323E-17
 -1        26 1.05000E+00 1.35000E+00 6.42940E-17
 -1        27 1.02500E+00 1.50000E+00 6.27631E-17
 -1        28 1.00000E+00 1.35000E+00 6.12323E-17
 -1        29 1.05000E+00 1.80000E+00 6.42940E-17
 -1        30 1.00000E+00 1.80000E+00 6.12323E-17
 -1        31 1.05000E+00 1.65000E+00 6.42940E-17
 -1        32 1.02500E+00 1.80000E+00 6.27631E-17
 -1        33 1.00000E+00 1.65000E+00 6.12323E-17
 -1        34 1.05000E+00 2.10000E+00 6.42940E-17
 -1        35 1.00000E+00 2.10000E+00 6.12323E-17
 -1        36 1.05000E+00 1.95000E+00 6.42940E-17
 -1        37 1.02500E+00 2.10000E+00 6.27631E-17
 -1        38 1.00000E+00 1.95000E+00 6.12323E-17
 -1        39 1.05000E+00 2.40000E+00 6.42940E-17
 -1        40 1.00000E+00 2.40000E+00 6.12323E-17
 -1        41 1.05000E+00 2.25000E+00 6.42940E-17
 -1        42 1.02500E+00 2.40000E+00 6.27631E-17
 -1        43 1.00000E+00 2.25000E+00 6.12323E-17
 -1        44 1.05000E+00 2.70000E+00 6.42940E-17
 -1        45 1.00000E+00 2.70000E+00 6.12323E-17
 -1        46 1.05000E+00 2.55000E+00 6.42940E-17
 -1        47 1.02500E+00 2.70000E+00 6.27631E-17
 -1        48 1.00000E+00 2.55000E+00 6.12323E-17
 -1        49 1.05000E+00 3.00000E+00 6.42940E-17
 -1        50 1.00000E+00 3.00000E+00 6.12323E-17
 -1        51 1.05000E+00 2.85000E+00 6.42940E-17
 -1        52 1.02500E+00 3.00000E+00 6.27631E-17
 -1        53 1.00000E+00 2.85000E+00 6.12323E-17
 -3
    3C                            10                                     1
 -1         1   10    0    1
 -2         1         2         3         4         5         6         7         8
 -1         2   10    0    1
 -2         2         9        10         3        11        12        13         6
 -1         3   10    0    1
 -2         9        14        15        10        16        17        18        12
 -1         4   10    0    1
 -2        14        19        20        15        21        22        23        17
 -1         5   10    0    1
 -2        19        24        25        20        26        27        28        22
 -1         6   10    0    1
 -2        24        29        30        25        31        32        33        27
 -1         7   10    0    1
 -2        29        34        35        30        36        37        38        32
 -1         8   10    0    1
 -2        34        39        40        35        41        42        43        37
 -1         9   10    0    1
 -2        39        44        45        40        46        47        48        42
 -1        10   10    0    1
 -2        44        49        50        45        51        52        53        47
 -3
 9999
