<?xml version="1.0"?>
<VTKFile type="UnstructuredGrid" version="0.1" byte_order="LittleEndian">
	<UnstructuredGrid>
		<Piece NumberOfPoints="81" NumberOfCells="32">
			<Points>
				<DataArray type="Float64" NumberOfComponents="3" format="ascii">
					 0.00000000E+00	 0.00000000E+00	 0.00000000E+00
					 1.00000000E+00	 0.00000000E+00	 0.00000000E+00
					 1.00000000E+00	 1.00000000E+00	 0.00000000E+00
					 0.00000000E+00	 1.00000000E+00	 0.00000000E+00
					 0.00000000E+00	 0.00000000E+00	 8.00000000E+00
					 1.00000000E+00	 0.00000000E+00	 8.00000000E+00
					 1.00000000E+00	 1.00000000E+00	 8.00000000E+00
					 0.00000000E+00	 1.00000000E+00	 8.00000000E+00
					 5.00000000E-01	 0.00000000E+00	 0.00000000E+00
					 1.00000000E+00	 5.00000000E-01	 0.00000000E+00
					 5.00000000E-01	 1.00000000E+00	 0.00000000E+00
					 0.00000000E+00	 5.00000000E-01	 0.00000000E+00
					 5.00000000E-01	 0.00000000E+00	 8.00000000E+00
					 1.00000000E+00	 5.00000000E-01	 8.00000000E+00
					 5.00000000E-01	 1.00000000E+00	 8.00000000E+00
					 0.00000000E+00	 5.00000000E-01	 8.00000000E+00
					 1.00000000E+00	 0.00000000E+00	 1.00000000E+00
					 1.00000000E+00	 0.00000000E+00	 2.00000000E+00
					 1.00000000E+00	 0.00000000E+00	 3.00000000E+00
					 1.00000000E+00	 0.00000000E+00	 4.00000000E+00
					 1.00000000E+00	 0.00000000E+00	 5.00000000E+00
					 1.00000000E+00	 0.00000000E+00	 6.00000000E+00
					 1.00000000E+00	 0.00000000E+00	 7.00000000E+00
					 0.00000000E+00	 0.00000000E+00	 7.00000000E+00
					 0.00000000E+00	 0.00000000E+00	 6.00000000E+00
					 0.00000000E+00	 0.00000000E+00	 5.00000000E+00
					 0.00000000E+00	 0.00000000E+00	 4.00000000E+00
					 0.00000000E+00	 0.00000000E+00	 3.00000000E+00
					 0.00000000E+00	 0.00000000E+00	 2.00000000E+00
					 0.00000000E+00	 0.00000000E+00	 1.00000000E+00
					 1.00000000E+00	 1.00000000E+00	 1.00000000E+00
					 1.00000000E+00	 1.00000000E+00	 2.00000000E+00
					 1.00000000E+00	 1.00000000E+00	 3.00000000E+00
					 1.00000000E+00	 1.00000000E+00	 4.00000000E+00
					 1.00000000E+00	 1.00000000E+00	 5.00000000E+00
					 1.00000000E+00	 1.00000000E+00	 6.00000000E+00
					 1.00000000E+00	 1.00000000E+00	 7.00000000E+00
					 0.00000000E+00	 1.00000000E+00	 1.00000000E+00
					 0.00000000E+00	 1.00000000E+00	 2.00000000E+00
					 0.00000000E+00	 1.00000000E+00	 3.00000000E+00
					 0.00000000E+00	 1.00000000E+00	 4.00000000E+00
					 0.00000000E+00	 1.00000000E+00	 5.00000000E+00
					 0.00000000E+00	 1.00000000E+00	 6.00000000E+00
					 0.00000000E+00	 1.00000000E+00	 7.00000000E+00
					 5.00000000E-01	 5.00000000E-01	 0.00000000E+00
					 5.00000000E-01	 5.00000000E-01	 8.00000000E+00
					 5.00000000E-01	 0.00000000E+00	 1.00000000E+00
					 5.00000000E-01	 0.00000000E+00	 2.00000000E+00
					 5.00000000E-01	 0.00000000E+00	 3.00000000E+00
					 5.00000000E-01	 0.00000000E+00	 4.00000000E+00
					 5.00000000E-01	 0.00000000E+00	 5.00000000E+00
					 5.00000000E-01	 0.00000000E+00	 6.00000000E+00
					 5.00000000E-01	 0.00000000E+00	 7.00000000E+00
					 1.00000000E+00	 5.00000000E-01	 1.00000000E+00
					 1.00000000E+00	 5.00000000E-01	 2.00000000E+00
					 1.00000000E+00	 5.00000000E-01	 3.00000000E+00
					 1.00000000E+00	 5.00000000E-01	 4.00000000E+00
					 1.00000000E+00	 5.00000000E-01	 5.00000000E+00
					 1.00000000E+00	 5.00000000E-01	 6.00000000E+00
					 1.00000000E+00	 5.00000000E-01	 7.00000000E+00
					 5.00000000E-01	 1.00000000E+00	 1.00000000E+00
					 5.00000000E-01	 1.00000000E+00	 2.00000000E+00
					 5.00000000E-01	 1.00000000E+00	 3.00000000E+00
					 5.00000000E-01	 1.00000000E+00	 4.00000000E+00
					 5.00000000E-01	 1.00000000E+00	 5.00000000E+00
					 5.00000000E-01	 1.00000000E+00	 6.00000000E+00
					 5.00000000E-01	 1.00000000E+00	 7.00000000E+00
					 0.00000000E+00	 5.00000000E-01	 1.00000000E+00
					 0.00000000E+00	 5.00000000E-01	 2.00000000E+00
					 0.00000000E+00	 5.00000000E-01	 3.00000000E+00
					 0.00000000E+00	 5.00000000E-01	 4.00000000E+00
					 0.00000000E+00	 5.00000000E-01	 5.00000000E+00
					 0.00000000E+00	 5.00000000E-01	 6.00000000E+00
					 0.00000000E+00	 5.00000000E-01	 7.00000000E+00
					 5.00000000E-01	 5.00000000E-01	 1.00000000E+00
					 5.00000000E-01	 5.00000000E-01	 2.00000000E+00
					 5.00000000E-01	 5.00000000E-01	 3.00000000E+00
					 5.00000000E-01	 5.00000000E-01	 4.00000000E+00
					 5.00000000E-01	 5.00000000E-01	 5.00000000E+00
					 5.00000000E-01	 5.00000000E-01	 6.00000000E+00
					 5.00000000E-01	 5.00000000E-01	 7.00000000E+00

				</DataArray>
			</Points>
			<Cells>
				<DataArray type="Int32" Name="connectivity" format="ascii">
					0 8 44 11 29 46 74 67 8 1 9 44 46 16 53 74 11 44 10 3 67 74 60 37 44 9 2 10 74 53 30 60 29 46 74 67 28 47 75 68 46 16 53 74 47 17 54 75 67 74 60 37 68 75 61 38 74 53 30 60 75 54 31 61 28 47 75 68 27 48 76 69 47 17 54 75 48 18 55 76 68 75 61 38 69 76 62 39 75 54 31 61 76 55 32 62 27 48 76 69 26 49 77 70 48 18 55 76 49 19 56 77 69 76 62 39 70 77 63 40 76 55 32 62 77 56 33 63 26 49 77 70 25 50 78 71 49 19 56 77 50 20 57 78 70 77 63 40 71 78 64 41 77 56 33 63 78 57 34 64 25 50 78 71 24 51 79 72 50 20 57 78 51 21 58 79 71 78 64 41 72 79 65 42 78 57 34 64 79 58 35 65 24 51 79 72 23 52 80 73 51 21 58 79 52 22 59 80 72 79 65 42 73 80 66 43 79 58 35 65 80 59 36 66 23 52 80 73 4 12 45 15 52 22 59 80 12 5 13 45 73 80 66 43 15 45 14 7 80 59 36 66 45 13 6 14 
				</DataArray>
				<DataArray type="Int32" Name="offsets" format="ascii">
					8 16 24 32 40 48 56 64 72 80 88 96 104 112 120 128 136 144 152 160 168 176 184 192 200 208 216 224 232 240 248 256 
				</DataArray>
				<DataArray type="UInt8" Name="types" format="ascii">
					12 12 12 12 12 12 12 12 12 12 12 12 12 12 12 12 12 12 12 12 12 12 12 12 12 12 12 12 12 12 12 12 
				</DataArray>
			</Cells>
			<PointData>
				<DataArray type="Float32" Name="U" NumberOfComponents="3" ComponentName0="D1" ComponentName1="D2" ComponentName2="D3" format="ascii">
					 0.00000000E+00	 0.00000000E+00	 0.00000000E+00
					 0.00000000E+00	 0.00000000E+00	 0.00000000E+00
					 0.00000000E+00	 0.00000000E+00	 0.00000000E+00
					 0.00000000E+00	 0.00000000E+00	 0.00000000E+00
					-1.06670000E+03	-6.49562000E+03	-4.22626000E+02
					-3.15886000E+03	-7.14378000E+03	-2.22701000E+02
					-1.06670000E+03	-6.49562000E+03	 4.22626000E+02
					-3.15886000E+03	-7.14378000E+03	 2.22701000E+02
					 0.00000000E+00	 0.00000000E+00	 0.00000000E+00
					 0.00000000E+00	 0.00000000E+00	 0.00000000E+00
					 0.00000000E+00	 0.00000000E+00	 0.00000000E+00
					 0.00000000E+00	 0.00000000E+00	 0.00000000E+00
					-2.26231000E+03	-5.95603000E+03	-1.86428000E+02
					-1.84521000E+03	-7.30236000E+03	 5.77562000E+01
					-2.26231000E+03	-5.95603000E+03	 1.86428000E+02
					-1.84521000E+03	-7.30236000E+03	-5.77562000E+01
					-1.33816000E+03	-4.36069000E+03	-4.00079000E+02
					-2.05998000E+03	-5.73132000E+03	 2.30045000E+02
					-7.46420000E+02	-2.06709000E+03	 8.61414000E+02
					 1.27863000E+03	 3.52046000E+03	 7.33539000E+02
					 2.13770000E+03	 5.86606000E+03	-7.12631000E+01
					 1.02845000E+03	 2.79628000E+03	-7.81136000E+02
					-1.00829000E+03	-2.86286000E+03	-8.32207000E+02
					-7.39799000E+02	-2.77968000E+03	-1.57931000E+03
					 6.69717000E+02	 2.68514000E+03	-1.48239000E+03
					 1.42895000E+03	 5.64649000E+03	-1.35238000E+02
					 8.62770000E+02	 3.39163000E+03	 1.39206000E+03
					-5.11859000E+02	-1.99443000E+03	 1.63473000E+03
					-1.43082000E+03	-5.53641000E+03	 4.36563000E+02
					-1.36649000E+03	-4.36947000E+03	-7.59244000E+02
					-1.36649000E+03	-4.36947000E+03	 7.59244000E+02
					-1.43082000E+03	-5.53641000E+03	-4.36563000E+02
					-5.11859000E+02	-1.99443000E+03	-1.63473000E+03
					 8.62770000E+02	 3.39163000E+03	-1.39206000E+03
					 1.42895000E+03	 5.64649000E+03	 1.35238000E+02
					 6.69717000E+02	 2.68514000E+03	 1.48239000E+03
					-7.39799000E+02	-2.77968000E+03	 1.57931000E+03
					-1.33816000E+03	-4.36069000E+03	 4.00079000E+02
					-2.05998000E+03	-5.73132000E+03	-2.30045000E+02
					-7.46420000E+02	-2.06709000E+03	-8.61414000E+02
					 1.27863000E+03	 3.52046000E+03	-7.33539000E+02
					 2.13770000E+03	 5.86606000E+03	 7.12631000E+01
					 1.02845000E+03	 2.79628000E+03	 7.81136000E+02
					-1.00829000E+03	-2.86286000E+03	 8.32207000E+02
					 0.00000000E+00	 0.00000000E+00	 0.00000000E+00
					-1.64451000E+03	-5.30822000E+03	 0.00000000E+00
					-1.32939000E+03	-4.30958000E+03	-5.92048000E+02
					-1.80214000E+03	-5.50659000E+03	 3.20306000E+02
					-6.44760000E+02	-1.96870000E+03	 1.27825000E+03
					 1.10102000E+03	 3.34785000E+03	 1.08176000E+03
					 1.83821000E+03	 5.59547000E+03	-8.10372000E+01
					 8.61932000E+02	 2.62969000E+03	-1.26172000E+03
					-8.26455000E+02	-2.69035000E+03	-9.74303000E+02
					-1.33513000E+03	-4.29106000E+03	 1.83419000E+02
					-1.70597000E+03	-5.81701000E+03	-9.92323000E+01
					-6.09912000E+02	-2.08118000E+03	-3.96008000E+02
					 1.03718000E+03	 3.55392000E+03	-3.35135000E+02
					 1.73350000E+03	 5.93344000E+03	 2.51057000E+01
					 8.14690000E+02	 2.78218000E+03	 3.90888000E+02
					-8.33485000E+02	-2.66766000E+03	 3.01844000E+02
					-1.32939000E+03	-4.30958000E+03	 5.92048000E+02
					-1.80214000E+03	-5.50659000E+03	-3.20306000E+02
					-6.44760000E+02	-1.96870000E+03	-1.27825000E+03
					 1.10102000E+03	 3.34785000E+03	-1.08176000E+03
					 1.83821000E+03	 5.59547000E+03	 8.10372000E+01
					 8.61932000E+02	 2.62969000E+03	 1.26172000E+03
					-8.26455000E+02	-2.69035000E+03	 9.74303000E+02
					-1.33513000E+03	-4.29106000E+03	-1.83419000E+02
					-1.70597000E+03	-5.81701000E+03	 9.92323000E+01
					-6.09912000E+02	-2.08118000E+03	 3.96008000E+02
					 1.03718000E+03	 3.55392000E+03	 3.35135000E+02
					 1.73350000E+03	 5.93344000E+03	-2.51057000E+01
					 8.14690000E+02	 2.78218000E+03	-3.90888000E+02
					-8.33485000E+02	-2.66766000E+03	-3.01844000E+02
					-1.31239000E+03	-4.23617000E+03	 0.00000000E+00
					-1.76418000E+03	-5.69448000E+03	 0.00000000E+00
					-6.26508000E+02	-2.02226000E+03	 0.00000000E+00
					 1.07085000E+03	 3.45653000E+03	 0.00000000E+00
					 1.77453000E+03	 5.72789000E+03	 0.00000000E+00
					 8.78766000E+02	 2.83651000E+03	 0.00000000E+00
					-9.79259000E+02	-3.16089000E+03	 0.00000000E+00
				</DataArray>
			</PointData>
		</Piece>
	</UnstructuredGrid>
</VTKFile>