<?xml version="1.0"?>
<VTKFile type="UnstructuredGrid" version="0.1" byte_order="LittleEndian">
	<UnstructuredGrid>
		<Piece NumberOfPoints="261" NumberOfCells="32">
			<Points>
				<DataArray type="Float64" NumberOfComponents="3" format="ascii">
					 0.00000000E+00	 0.00000000E+00	 0.00000000E+00
					 1.00000000E+00	 0.00000000E+00	 0.00000000E+00
					 1.00000000E+00	 1.50000000E+00	 0.00000000E+00
					 0.00000000E+00	 1.50000000E+00	 0.00000000E+00
					 0.00000000E+00	 0.00000000E+00	 8.00000000E+00
					 1.00000000E+00	 0.00000000E+00	 8.00000000E+00
					 1.00000000E+00	 1.50000000E+00	 8.00000000E+00
					 0.00000000E+00	 1.50000000E+00	 8.00000000E+00
					 2.50000000E-01	 0.00000000E+00	 0.00000000E+00
					 5.00000000E-01	 0.00000000E+00	 0.00000000E+00
					 7.50000000E-01	 0.00000000E+00	 0.00000000E+00
					 1.00000000E+00	 3.75000000E-01	 0.00000000E+00
					 1.00000000E+00	 7.50000000E-01	 0.00000000E+00
					 1.00000000E+00	 1.12500000E+00	 0.00000000E+00
					 7.50000000E-01	 1.50000000E+00	 0.00000000E+00
					 5.00000000E-01	 1.50000000E+00	 0.00000000E+00
					 2.50000000E-01	 1.50000000E+00	 0.00000000E+00
					 0.00000000E+00	 1.12500000E+00	 0.00000000E+00
					 0.00000000E+00	 7.50000000E-01	 0.00000000E+00
					 0.00000000E+00	 3.75000000E-01	 0.00000000E+00
					 2.50000000E-01	 0.00000000E+00	 8.00000000E+00
					 5.00000000E-01	 0.00000000E+00	 8.00000000E+00
					 7.50000000E-01	 0.00000000E+00	 8.00000000E+00
					 1.00000000E+00	 3.75000000E-01	 8.00000000E+00
					 1.00000000E+00	 7.50000000E-01	 8.00000000E+00
					 1.00000000E+00	 1.12500000E+00	 8.00000000E+00
					 7.50000000E-01	 1.50000000E+00	 8.00000000E+00
					 5.00000000E-01	 1.50000000E+00	 8.00000000E+00
					 2.50000000E-01	 1.50000000E+00	 8.00000000E+00
					 0.00000000E+00	 1.12500000E+00	 8.00000000E+00
					 0.00000000E+00	 7.50000000E-01	 8.00000000E+00
					 0.00000000E+00	 3.75000000E-01	 8.00000000E+00
					 1.00000000E+00	 0.00000000E+00	 5.00000000E-01
					 1.00000000E+00	 0.00000000E+00	 1.00000000E+00
					 1.00000000E+00	 0.00000000E+00	 1.50000000E+00
					 1.00000000E+00	 0.00000000E+00	 2.00000000E+00
					 1.00000000E+00	 0.00000000E+00	 2.50000000E+00
					 1.00000000E+00	 0.00000000E+00	 3.00000000E+00
					 1.00000000E+00	 0.00000000E+00	 3.50000000E+00
					 1.00000000E+00	 0.00000000E+00	 4.00000000E+00
					 1.00000000E+00	 0.00000000E+00	 4.50000000E+00
					 1.00000000E+00	 0.00000000E+00	 5.00000000E+00
					 1.00000000E+00	 0.00000000E+00	 5.50000000E+00
					 1.00000000E+00	 0.00000000E+00	 6.00000000E+00
					 1.00000000E+00	 0.00000000E+00	 6.50000000E+00
					 1.00000000E+00	 0.00000000E+00	 7.00000000E+00
					 1.00000000E+00	 0.00000000E+00	 7.50000000E+00
					 0.00000000E+00	 0.00000000E+00	 7.50000000E+00
					 0.00000000E+00	 0.00000000E+00	 7.00000000E+00
					 0.00000000E+00	 0.00000000E+00	 6.50000000E+00
					 0.00000000E+00	 0.00000000E+00	 6.00000000E+00
					 0.00000000E+00	 0.00000000E+00	 5.50000000E+00
					 0.00000000E+00	 0.00000000E+00	 5.00000000E+00
					 0.00000000E+00	 0.00000000E+00	 4.50000000E+00
					 0.00000000E+00	 0.00000000E+00	 4.00000000E+00
					 0.00000000E+00	 0.00000000E+00	 3.50000000E+00
					 0.00000000E+00	 0.00000000E+00	 3.00000000E+00
					 0.00000000E+00	 0.00000000E+00	 2.50000000E+00
					 0.00000000E+00	 0.00000000E+00	 2.00000000E+00
					 0.00000000E+00	 0.00000000E+00	 1.50000000E+00
					 0.00000000E+00	 0.00000000E+00	 1.00000000E+00
					 0.00000000E+00	 0.00000000E+00	 5.00000000E-01
					 1.00000000E+00	 1.50000000E+00	 5.00000000E-01
					 1.00000000E+00	 1.50000000E+00	 1.00000000E+00
					 1.00000000E+00	 1.50000000E+00	 1.50000000E+00
					 1.00000000E+00	 1.50000000E+00	 2.00000000E+00
					 1.00000000E+00	 1.50000000E+00	 2.50000000E+00
					 1.00000000E+00	 1.50000000E+00	 3.00000000E+00
					 1.00000000E+00	 1.50000000E+00	 3.50000000E+00
					 1.00000000E+00	 1.50000000E+00	 4.00000000E+00
					 1.00000000E+00	 1.50000000E+00	 4.50000000E+00
					 1.00000000E+00	 1.50000000E+00	 5.00000000E+00
					 1.00000000E+00	 1.50000000E+00	 5.50000000E+00
					 1.00000000E+00	 1.50000000E+00	 6.00000000E+00
					 1.00000000E+00	 1.50000000E+00	 6.50000000E+00
					 1.00000000E+00	 1.50000000E+00	 7.00000000E+00
					 1.00000000E+00	 1.50000000E+00	 7.50000000E+00
					 0.00000000E+00	 1.50000000E+00	 5.00000000E-01
					 0.00000000E+00	 1.50000000E+00	 1.00000000E+00
					 0.00000000E+00	 1.50000000E+00	 1.50000000E+00
					 0.00000000E+00	 1.50000000E+00	 2.00000000E+00
					 0.00000000E+00	 1.50000000E+00	 2.50000000E+00
					 0.00000000E+00	 1.50000000E+00	 3.00000000E+00
					 0.00000000E+00	 1.50000000E+00	 3.50000000E+00
					 0.00000000E+00	 1.50000000E+00	 4.00000000E+00
					 0.00000000E+00	 1.50000000E+00	 4.50000000E+00
					 0.00000000E+00	 1.50000000E+00	 5.00000000E+00
					 0.00000000E+00	 1.50000000E+00	 5.50000000E+00
					 0.00000000E+00	 1.50000000E+00	 6.00000000E+00
					 0.00000000E+00	 1.50000000E+00	 6.50000000E+00
					 0.00000000E+00	 1.50000000E+00	 7.00000000E+00
					 0.00000000E+00	 1.50000000E+00	 7.50000000E+00
					 5.00000000E-01	 3.75000000E-01	 0.00000000E+00
					 2.50000000E-01	 7.50000000E-01	 0.00000000E+00
					 5.00000000E-01	 7.50000000E-01	 0.00000000E+00
					 7.50000000E-01	 7.50000000E-01	 0.00000000E+00
					 5.00000000E-01	 1.12500000E+00	 0.00000000E+00
					 5.00000000E-01	 3.75000000E-01	 8.00000000E+00
					 2.50000000E-01	 7.50000000E-01	 8.00000000E+00
					 5.00000000E-01	 7.50000000E-01	 8.00000000E+00
					 7.50000000E-01	 7.50000000E-01	 8.00000000E+00
					 5.00000000E-01	 1.12500000E+00	 8.00000000E+00
					 5.00000000E-01	 0.00000000E+00	 5.00000000E-01
					 2.50000000E-01	 0.00000000E+00	 1.00000000E+00
					 5.00000000E-01	 0.00000000E+00	 1.00000000E+00
					 7.50000000E-01	 0.00000000E+00	 1.00000000E+00
					 5.00000000E-01	 0.00000000E+00	 1.50000000E+00
					 2.50000000E-01	 0.00000000E+00	 2.00000000E+00
					 5.00000000E-01	 0.00000000E+00	 2.00000000E+00
					 7.50000000E-01	 0.00000000E+00	 2.00000000E+00
					 5.00000000E-01	 0.00000000E+00	 2.50000000E+00
					 2.50000000E-01	 0.00000000E+00	 3.00000000E+00
					 5.00000000E-01	 0.00000000E+00	 3.00000000E+00
					 7.50000000E-01	 0.00000000E+00	 3.00000000E+00
					 5.00000000E-01	 0.00000000E+00	 3.50000000E+00
					 2.50000000E-01	 0.00000000E+00	 4.00000000E+00
					 5.00000000E-01	 0.00000000E+00	 4.00000000E+00
					 7.50000000E-01	 0.00000000E+00	 4.00000000E+00
					 5.00000000E-01	 0.00000000E+00	 4.50000000E+00
					 2.50000000E-01	 0.00000000E+00	 5.00000000E+00
					 5.00000000E-01	 0.00000000E+00	 5.00000000E+00
					 7.50000000E-01	 0.00000000E+00	 5.00000000E+00
					 5.00000000E-01	 0.00000000E+00	 5.50000000E+00
					 2.50000000E-01	 0.00000000E+00	 6.00000000E+00
					 5.00000000E-01	 0.00000000E+00	 6.00000000E+00
					 7.50000000E-01	 0.00000000E+00	 6.00000000E+00
					 5.00000000E-01	 0.00000000E+00	 6.50000000E+00
					 2.50000000E-01	 0.00000000E+00	 7.00000000E+00
					 5.00000000E-01	 0.00000000E+00	 7.00000000E+00
					 7.50000000E-01	 0.00000000E+00	 7.00000000E+00
					 5.00000000E-01	 0.00000000E+00	 7.50000000E+00
					 1.00000000E+00	 7.50000000E-01	 5.00000000E-01
					 1.00000000E+00	 3.75000000E-01	 1.00000000E+00
					 1.00000000E+00	 7.50000000E-01	 1.00000000E+00
					 1.00000000E+00	 1.12500000E+00	 1.00000000E+00
					 1.00000000E+00	 7.50000000E-01	 1.50000000E+00
					 1.00000000E+00	 3.75000000E-01	 2.00000000E+00
					 1.00000000E+00	 7.50000000E-01	 2.00000000E+00
					 1.00000000E+00	 1.12500000E+00	 2.00000000E+00
					 1.00000000E+00	 7.50000000E-01	 2.50000000E+00
					 1.00000000E+00	 3.75000000E-01	 3.00000000E+00
					 1.00000000E+00	 7.50000000E-01	 3.00000000E+00
					 1.00000000E+00	 1.12500000E+00	 3.00000000E+00
					 1.00000000E+00	 7.50000000E-01	 3.50000000E+00
					 1.00000000E+00	 3.75000000E-01	 4.00000000E+00
					 1.00000000E+00	 7.50000000E-01	 4.00000000E+00
					 1.00000000E+00	 1.12500000E+00	 4.00000000E+00
					 1.00000000E+00	 7.50000000E-01	 4.50000000E+00
					 1.00000000E+00	 3.75000000E-01	 5.00000000E+00
					 1.00000000E+00	 7.50000000E-01	 5.00000000E+00
					 1.00000000E+00	 1.12500000E+00	 5.00000000E+00
					 1.00000000E+00	 7.50000000E-01	 5.50000000E+00
					 1.00000000E+00	 3.75000000E-01	 6.00000000E+00
					 1.00000000E+00	 7.50000000E-01	 6.00000000E+00
					 1.00000000E+00	 1.12500000E+00	 6.00000000E+00
					 1.00000000E+00	 7.50000000E-01	 6.50000000E+00
					 1.00000000E+00	 3.75000000E-01	 7.00000000E+00
					 1.00000000E+00	 7.50000000E-01	 7.00000000E+00
					 1.00000000E+00	 1.12500000E+00	 7.00000000E+00
					 1.00000000E+00	 7.50000000E-01	 7.50000000E+00
					 5.00000000E-01	 1.50000000E+00	 5.00000000E-01
					 7.50000000E-01	 1.50000000E+00	 1.00000000E+00
					 5.00000000E-01	 1.50000000E+00	 1.00000000E+00
					 2.50000000E-01	 1.50000000E+00	 1.00000000E+00
					 5.00000000E-01	 1.50000000E+00	 1.50000000E+00
					 7.50000000E-01	 1.50000000E+00	 2.00000000E+00
					 5.00000000E-01	 1.50000000E+00	 2.00000000E+00
					 2.50000000E-01	 1.50000000E+00	 2.00000000E+00
					 5.00000000E-01	 1.50000000E+00	 2.50000000E+00
					 7.50000000E-01	 1.50000000E+00	 3.00000000E+00
					 5.00000000E-01	 1.50000000E+00	 3.00000000E+00
					 2.50000000E-01	 1.50000000E+00	 3.00000000E+00
					 5.00000000E-01	 1.50000000E+00	 3.50000000E+00
					 7.50000000E-01	 1.50000000E+00	 4.00000000E+00
					 5.00000000E-01	 1.50000000E+00	 4.00000000E+00
					 2.50000000E-01	 1.50000000E+00	 4.00000000E+00
					 5.00000000E-01	 1.50000000E+00	 4.50000000E+00
					 7.50000000E-01	 1.50000000E+00	 5.00000000E+00
					 5.00000000E-01	 1.50000000E+00	 5.00000000E+00
					 2.50000000E-01	 1.50000000E+00	 5.00000000E+00
					 5.00000000E-01	 1.50000000E+00	 5.50000000E+00
					 7.50000000E-01	 1.50000000E+00	 6.00000000E+00
					 5.00000000E-01	 1.50000000E+00	 6.00000000E+00
					 2.50000000E-01	 1.50000000E+00	 6.00000000E+00
					 5.00000000E-01	 1.50000000E+00	 6.50000000E+00
					 7.50000000E-01	 1.50000000E+00	 7.00000000E+00
					 5.00000000E-01	 1.50000000E+00	 7.00000000E+00
					 2.50000000E-01	 1.50000000E+00	 7.00000000E+00
					 5.00000000E-01	 1.50000000E+00	 7.50000000E+00
					 0.00000000E+00	 7.50000000E-01	 5.00000000E-01
					 0.00000000E+00	 1.12500000E+00	 1.00000000E+00
					 0.00000000E+00	 7.50000000E-01	 1.00000000E+00
					 0.00000000E+00	 3.75000000E-01	 1.00000000E+00
					 0.00000000E+00	 7.50000000E-01	 1.50000000E+00
					 0.00000000E+00	 1.12500000E+00	 2.00000000E+00
					 0.00000000E+00	 7.50000000E-01	 2.00000000E+00
					 0.00000000E+00	 3.75000000E-01	 2.00000000E+00
					 0.00000000E+00	 7.50000000E-01	 2.50000000E+00
					 0.00000000E+00	 1.12500000E+00	 3.00000000E+00
					 0.00000000E+00	 7.50000000E-01	 3.00000000E+00
					 0.00000000E+00	 3.75000000E-01	 3.00000000E+00
					 0.00000000E+00	 7.50000000E-01	 3.50000000E+00
					 0.00000000E+00	 1.12500000E+00	 4.00000000E+00
					 0.00000000E+00	 7.50000000E-01	 4.00000000E+00
					 0.00000000E+00	 3.75000000E-01	 4.00000000E+00
					 0.00000000E+00	 7.50000000E-01	 4.50000000E+00
					 0.00000000E+00	 1.12500000E+00	 5.00000000E+00
					 0.00000000E+00	 7.50000000E-01	 5.00000000E+00
					 0.00000000E+00	 3.75000000E-01	 5.00000000E+00
					 0.00000000E+00	 7.50000000E-01	 5.50000000E+00
					 0.00000000E+00	 1.12500000E+00	 6.00000000E+00
					 0.00000000E+00	 7.50000000E-01	 6.00000000E+00
					 0.00000000E+00	 3.75000000E-01	 6.00000000E+00
					 0.00000000E+00	 7.50000000E-01	 6.50000000E+00
					 0.00000000E+00	 1.12500000E+00	 7.00000000E+00
					 0.00000000E+00	 7.50000000E-01	 7.00000000E+00
					 0.00000000E+00	 3.75000000E-01	 7.00000000E+00
					 0.00000000E+00	 7.50000000E-01	 7.50000000E+00
					 5.00000000E-01	 7.50000000E-01	 5.00000000E-01
					 5.00000000E-01	 3.75000000E-01	 1.00000000E+00
					 2.50000000E-01	 7.50000000E-01	 1.00000000E+00
					 5.00000000E-01	 7.50000000E-01	 1.00000000E+00
					 7.50000000E-01	 7.50000000E-01	 1.00000000E+00
					 5.00000000E-01	 1.12500000E+00	 1.00000000E+00
					 5.00000000E-01	 7.50000000E-01	 1.50000000E+00
					 5.00000000E-01	 3.75000000E-01	 2.00000000E+00
					 2.50000000E-01	 7.50000000E-01	 2.00000000E+00
					 5.00000000E-01	 7.50000000E-01	 2.00000000E+00
					 7.50000000E-01	 7.50000000E-01	 2.00000000E+00
					 5.00000000E-01	 1.12500000E+00	 2.00000000E+00
					 5.00000000E-01	 7.50000000E-01	 2.50000000E+00
					 5.00000000E-01	 3.75000000E-01	 3.00000000E+00
					 2.50000000E-01	 7.50000000E-01	 3.00000000E+00
					 5.00000000E-01	 7.50000000E-01	 3.00000000E+00
					 7.50000000E-01	 7.50000000E-01	 3.00000000E+00
					 5.00000000E-01	 1.12500000E+00	 3.00000000E+00
					 5.00000000E-01	 7.50000000E-01	 3.50000000E+00
					 5.00000000E-01	 3.75000000E-01	 4.00000000E+00
					 2.50000000E-01	 7.50000000E-01	 4.00000000E+00
					 5.00000000E-01	 7.50000000E-01	 4.00000000E+00
					 7.50000000E-01	 7.50000000E-01	 4.00000000E+00
					 5.00000000E-01	 1.12500000E+00	 4.00000000E+00
					 5.00000000E-01	 7.50000000E-01	 4.50000000E+00
					 5.00000000E-01	 3.75000000E-01	 5.00000000E+00
					 2.50000000E-01	 7.50000000E-01	 5.00000000E+00
					 5.00000000E-01	 7.50000000E-01	 5.00000000E+00
					 7.50000000E-01	 7.50000000E-01	 5.00000000E+00
					 5.00000000E-01	 1.12500000E+00	 5.00000000E+00
					 5.00000000E-01	 7.50000000E-01	 5.50000000E+00
					 5.00000000E-01	 3.75000000E-01	 6.00000000E+00
					 2.50000000E-01	 7.50000000E-01	 6.00000000E+00
					 5.00000000E-01	 7.50000000E-01	 6.00000000E+00
					 7.50000000E-01	 7.50000000E-01	 6.00000000E+00
					 5.00000000E-01	 1.12500000E+00	 6.00000000E+00
					 5.00000000E-01	 7.50000000E-01	 6.50000000E+00
					 5.00000000E-01	 3.75000000E-01	 7.00000000E+00
					 2.50000000E-01	 7.50000000E-01	 7.00000000E+00
					 5.00000000E-01	 7.50000000E-01	 7.00000000E+00
					 7.50000000E-01	 7.50000000E-01	 7.00000000E+00
					 5.00000000E-01	 1.12500000E+00	 7.00000000E+00
					 5.00000000E-01	 7.50000000E-01	 7.50000000E+00

				</DataArray>
			</Points>
			<Cells>
				<DataArray type="Int32" Name="connectivity" format="ascii">
					0 9 94 18 60 104 221 191 8 92 93 19 103 219 220 192 61 102 218 189 9 1 12 94 104 33 133 221 10 11 95 92 105 132 222 219 102 32 131 218 18 94 15 3 191 221 162 78 93 96 16 17 220 223 163 190 189 218 160 77 94 12 2 15 221 133 63 162 95 13 14 96 222 134 161 223 218 131 62 160 60 104 221 191 58 108 227 195 103 219 220 192 107 225 226 196 59 106 224 193 104 33 133 221 108 35 137 227 105 132 222 219 109 136 228 225 106 34 135 224 191 221 162 78 195 227 166 80 220 223 163 190 226 229 167 194 193 224 164 79 221 133 63 162 227 137 65 166 222 134 161 223 228 138 165 229 224 135 64 164 58 108 227 195 56 112 233 199 107 225 226 196 111 231 232 200 57 110 230 197 108 35 137 227 112 37 141 233 109 136 228 225 113 140 234 231 110 36 139 230 195 227 166 80 199 233 170 82 226 229 167 194 232 235 171 198 197 230 168 81 227 137 65 166 233 141 67 170 228 138 165 229 234 142 169 235 230 139 66 168 56 112 233 199 54 116 239 203 111 231 232 200 115 237 238 204 55 114 236 201 112 37 141 233 116 39 145 239 113 140 234 231 117 144 240 237 114 38 143 236 199 233 170 82 203 239 174 84 232 235 171 198 238 241 175 202 201 236 172 83 233 141 67 170 239 145 69 174 234 142 169 235 240 146 173 241 236 143 68 172 54 116 239 203 52 120 245 207 115 237 238 204 119 243 244 208 53 118 242 205 116 39 145 239 120 41 149 245 117 144 240 237 121 148 246 243 118 40 147 242 203 239 174 84 207 245 178 86 238 241 175 202 244 247 179 206 205 242 176 85 239 145 69 174 245 149 71 178 240 146 173 241 246 150 177 247 242 147 70 176 52 120 245 207 50 124 251 211 119 243 244 208 123 249 250 212 51 122 248 209 120 41 149 245 124 43 153 251 121 148 246 243 125 152 252 249 122 42 151 248 207 245 178 86 211 251 182 88 244 247 179 206 250 253 183 210 209 248 180 87 245 149 71 178 251 153 73 182 246 150 177 247 252 154 181 253 248 151 72 180 50 124 251 211 48 128 257 215 123 249 250 212 127 255 256 216 49 126 254 213 124 43 153 251 128 45 157 257 125 152 252 249 129 156 258 255 126 44 155 254 211 251 182 88 215 257 186 90 250 253 183 210 256 259 187 214 213 254 184 89 251 153 73 182 257 157 75 186 252 154 181 253 258 158 185 259 254 155 74 184 48 128 257 215 4 21 99 30 127 255 256 216 20 97 98 31 47 130 260 217 128 45 157 257 21 5 24 99 129 156 258 255 22 23 100 97 130 46 159 260 215 257 186 90 30 99 27 7 256 259 187 214 98 101 28 29 217 260 188 91 257 157 75 186 99 24 6 27 258 158 185 259 100 25 26 101 260 159 76 188 
				</DataArray>
				<DataArray type="Int32" Name="offsets" format="ascii">
					20 40 60 80 100 120 140 160 180 200 220 240 260 280 300 320 340 360 380 400 420 440 460 480 500 520 540 560 580 600 620 640 
				</DataArray>
				<DataArray type="UInt8" Name="types" format="ascii">
					25 25 25 25 25 25 25 25 25 25 25 25 25 25 25 25 25 25 25 25 25 25 25 25 25 25 25 25 25 25 25 25 
				</DataArray>
			</Cells>
			<PointData>
				<DataArray type="Float32" Name="U" NumberOfComponents="3" ComponentName0="D1" ComponentName1="D2" ComponentName2="D3" format="ascii">
					 0.00000000E+00	 0.00000000E+00	 0.00000000E+00
					 0.00000000E+00	 0.00000000E+00	 0.00000000E+00
					 0.00000000E+00	 0.00000000E+00	 0.00000000E+00
					 0.00000000E+00	 0.00000000E+00	 0.00000000E+00
					 6.50937000E+03	 8.56376000E-02	 5.55963000E+02
					 6.50937000E+03	-8.56376000E-02	-5.55963000E+02
					 6.50937000E+03	 8.56376000E-02	-5.55963000E+02
					 6.50937000E+03	-8.56376000E-02	 5.55963000E+02
					 0.00000000E+00	 0.00000000E+00	 0.00000000E+00
					 0.00000000E+00	 0.00000000E+00	 0.00000000E+00
					 0.00000000E+00	 0.00000000E+00	 0.00000000E+00
					 0.00000000E+00	 0.00000000E+00	 0.00000000E+00
					 0.00000000E+00	 0.00000000E+00	 0.00000000E+00
					 0.00000000E+00	 0.00000000E+00	 0.00000000E+00
					 0.00000000E+00	 0.00000000E+00	 0.00000000E+00
					 0.00000000E+00	 0.00000000E+00	 0.00000000E+00
					 0.00000000E+00	 0.00000000E+00	 0.00000000E+00
					 0.00000000E+00	 0.00000000E+00	 0.00000000E+00
					 0.00000000E+00	 0.00000000E+00	 0.00000000E+00
					 0.00000000E+00	 0.00000000E+00	 0.00000000E+00
					 6.50936000E+03	 2.58666000E-02	 2.77952000E+02
					 6.50931000E+03	 1.13664000E-09	 0.00000000E+00
					 6.50936000E+03	-2.58666000E-02	-2.77952000E+02
					 6.50948000E+03	-7.76070000E-02	-5.56058000E+02
					 6.50959000E+03	 1.02204000E-09	-5.56109000E+02
					 6.50948000E+03	 7.76070000E-02	-5.56058000E+02
					 6.50936000E+03	 2.58666000E-02	-2.77952000E+02
					 6.50931000E+03	 1.13528000E-09	 0.00000000E+00
					 6.50936000E+03	-2.58666000E-02	 2.77952000E+02
					 6.50948000E+03	-7.76070000E-02	 5.56058000E+02
					 6.50959000E+03	 1.24419000E-09	 5.56109000E+02
					 6.50948000E+03	 7.76070000E-02	 5.56058000E+02
					 4.33237000E+01	-3.13398000E+01	-7.84601000E+01
					 1.57954000E+02	-2.95062000E+01	-1.56649000E+02
					 3.61356000E+02	-3.00866000E+01	-2.27101000E+02
					 6.26022000E+02	-2.61792000E+01	-2.90133000E+02
					 9.53975000E+02	-2.32576000E+01	-3.45065000E+02
					 1.33068000E+03	-1.99051000E+01	-3.93347000E+02
					 1.75309000E+03	-1.68961000E+01	-4.34150000E+02
					 2.21170000E+03	-1.38129000E+01	-4.68184000E+02
					 2.70107000E+03	-1.10084000E+01	-4.95563000E+02
					 3.21392000E+03	-8.39152000E+00	-5.16979000E+02
					 3.74484000E+03	-6.08036000E+00	-5.32823000E+02
					 4.28833000E+03	-4.06017000E+00	-5.43853000E+02
					 4.83984000E+03	-2.41732000E+00	-5.50746000E+02
					 5.39563000E+03	-1.17232000E+00	-5.54434000E+02
					 5.95269000E+03	-4.21470000E-01	-5.55814000E+02
					 5.95269000E+03	 4.21470000E-01	 5.55814000E+02
					 5.39563000E+03	 1.17232000E+00	 5.54434000E+02
					 4.83984000E+03	 2.41732000E+00	 5.50746000E+02
					 4.28833000E+03	 4.06017000E+00	 5.43853000E+02
					 3.74484000E+03	 6.08036000E+00	 5.32823000E+02
					 3.21392000E+03	 8.39152000E+00	 5.16979000E+02
					 2.70107000E+03	 1.10084000E+01	 4.95563000E+02
					 2.21170000E+03	 1.38129000E+01	 4.68184000E+02
					 1.75309000E+03	 1.68961000E+01	 4.34150000E+02
					 1.33068000E+03	 1.99051000E+01	 3.93347000E+02
					 9.53975000E+02	 2.32576000E+01	 3.45065000E+02
					 6.26022000E+02	 2.61792000E+01	 2.90133000E+02
					 3.61356000E+02	 3.00866000E+01	 2.27101000E+02
					 1.57954000E+02	 2.95062000E+01	 1.56649000E+02
					 4.33237000E+01	 3.13398000E+01	 7.84601000E+01
					 4.33237000E+01	 3.13398000E+01	-7.84601000E+01
					 1.57954000E+02	 2.95062000E+01	-1.56649000E+02
					 3.61356000E+02	 3.00866000E+01	-2.27101000E+02
					 6.26022000E+02	 2.61792000E+01	-2.90133000E+02
					 9.53975000E+02	 2.32576000E+01	-3.45065000E+02
					 1.33068000E+03	 1.99051000E+01	-3.93347000E+02
					 1.75309000E+03	 1.68961000E+01	-4.34150000E+02
					 2.21170000E+03	 1.38129000E+01	-4.68184000E+02
					 2.70107000E+03	 1.10084000E+01	-4.95563000E+02
					 3.21392000E+03	 8.39152000E+00	-5.16979000E+02
					 3.74484000E+03	 6.08036000E+00	-5.32823000E+02
					 4.28833000E+03	 4.06017000E+00	-5.43853000E+02
					 4.83984000E+03	 2.41732000E+00	-5.50746000E+02
					 5.39563000E+03	 1.17232000E+00	-5.54434000E+02
					 5.95269000E+03	 4.21470000E-01	-5.55814000E+02
					 4.33237000E+01	-3.13398000E+01	 7.84601000E+01
					 1.57954000E+02	-2.95062000E+01	 1.56649000E+02
					 3.61356000E+02	-3.00866000E+01	 2.27101000E+02
					 6.26022000E+02	-2.61792000E+01	 2.90133000E+02
					 9.53975000E+02	-2.32576000E+01	 3.45065000E+02
					 1.33068000E+03	-1.99051000E+01	 3.93347000E+02
					 1.75309000E+03	-1.68961000E+01	 4.34150000E+02
					 2.21170000E+03	-1.38129000E+01	 4.68184000E+02
					 2.70107000E+03	-1.10084000E+01	 4.95563000E+02
					 3.21392000E+03	-8.39152000E+00	 5.16979000E+02
					 3.74484000E+03	-6.08036000E+00	 5.32823000E+02
					 4.28833000E+03	-4.06017000E+00	 5.43853000E+02
					 4.83984000E+03	-2.41732000E+00	 5.50746000E+02
					 5.39563000E+03	-1.17232000E+00	 5.54434000E+02
					 5.95269000E+03	-4.21470000E-01	 5.55814000E+02
					 0.00000000E+00	 0.00000000E+00	 0.00000000E+00
					 0.00000000E+00	 0.00000000E+00	 0.00000000E+00
					 0.00000000E+00	 0.00000000E+00	 0.00000000E+00
					 0.00000000E+00	 0.00000000E+00	 0.00000000E+00
					 0.00000000E+00	 0.00000000E+00	 0.00000000E+00
					 6.50942000E+03	 1.13073000E-09	 0.00000000E+00
					 6.50961000E+03	 1.18416000E-09	 2.78042000E+02
					 6.50958000E+03	 1.13369000E-09	 0.00000000E+00
					 6.50961000E+03	 1.07616000E-09	-2.78042000E+02
					 6.50942000E+03	 1.13846000E-09	 0.00000000E+00
					 2.63519000E+01	 0.00000000E+00	 0.00000000E+00
					 1.51698000E+02	 1.50721000E+01	 7.76001000E+01
					 1.52860000E+02	 0.00000000E+00	 0.00000000E+00
					 1.51698000E+02	-1.50721000E+01	-7.76001000E+01
					 3.49578000E+02	 0.00000000E+00	 0.00000000E+00
					 6.20937000E+02	 1.30230000E+01	 1.43555000E+02
					 6.19797000E+02	 0.00000000E+00	 0.00000000E+00
					 6.20937000E+02	-1.30230000E+01	-1.43555000E+02
					 9.45468000E+02	 0.00000000E+00	 0.00000000E+00
					 1.32608000E+03	 9.97032000E+00	 1.95458000E+02
					 1.32495000E+03	 0.00000000E+00	 0.00000000E+00
					 1.32608000E+03	-9.97032000E+00	-1.95458000E+02
					 1.74722000E+03	 0.00000000E+00	 0.00000000E+00
					 2.20845000E+03	 6.89829000E+00	 2.32917000E+02
					 2.20745000E+03	 0.00000000E+00	 0.00000000E+00
					 2.20845000E+03	-6.89829000E+00	-2.32917000E+02
					 2.69728000E+03	 0.00000000E+00	 0.00000000E+00
					 3.21189000E+03	 4.19293000E+00	 2.57522000E+02
					 3.21124000E+03	 0.00000000E+00	 0.00000000E+00
					 3.21189000E+03	-4.19293000E+00	-2.57522000E+02
					 3.74277000E+03	 0.00000000E+00	 0.00000000E+00
					 4.28736000E+03	 2.02335000E+00	 2.71199000E+02
					 4.28701000E+03	 0.00000000E+00	 0.00000000E+00
					 4.28736000E+03	-2.02335000E+00	-2.71199000E+02
					 4.83900000E+03	 0.00000000E+00	 0.00000000E+00
					 5.39536000E+03	 5.81268000E-01	 2.76821000E+02
					 5.39522000E+03	 0.00000000E+00	 0.00000000E+00
					 5.39536000E+03	-5.81268000E-01	-2.76821000E+02
					 5.95255000E+03	 1.01613000E-09	 0.00000000E+00
					 6.19922000E+01	 0.00000000E+00	-7.71509000E+01
					 1.76750000E+02	-1.39396000E+01	-1.56808000E+02
					 1.81304000E+02	 0.00000000E+00	-1.58421000E+02
					 1.76750000E+02	 1.39396000E+01	-1.56808000E+02
					 3.83338000E+02	 0.00000000E+00	-2.27341000E+02
					 6.40826000E+02	-1.32347000E+01	-2.91193000E+02
					 6.46211000E+02	 0.00000000E+00	-2.90367000E+02
					 6.40826000E+02	 1.32347000E+01	-2.91193000E+02
					 9.71260000E+02	 0.00000000E+00	-3.45441000E+02
					 1.34206000E+03	-9.91481000E+00	-3.94059000E+02
					 1.34582000E+03	 0.00000000E+00	-3.93770000E+02
					 1.34206000E+03	 9.91481000E+00	-3.94059000E+02
					 1.76573000E+03	 0.00000000E+00	-4.34508000E+02
					 2.21950000E+03	-6.92552000E+00	-4.68930000E+02
					 2.22216000E+03	 0.00000000E+00	-4.68508000E+02
					 2.21950000E+03	 6.92552000E+00	-4.68930000E+02
					 2.70933000E+03	 0.00000000E+00	-4.95881000E+02
					 3.21867000E+03	-4.20669000E+00	-5.17578000E+02
					 3.22028000E+03	 0.00000000E+00	-5.17264000E+02
					 3.21867000E+03	 4.20669000E+00	-5.17578000E+02
					 3.74944000E+03	 0.00000000E+00	-5.33076000E+02
					 4.29063000E+03	-2.04852000E+00	-5.44309000E+02
					 4.29144000E+03	 0.00000000E+00	-5.44061000E+02
					 4.29063000E+03	 2.04852000E+00	-5.44309000E+02
					 4.84171000E+03	 0.00000000E+00	-5.50917000E+02
					 5.39631000E+03	-6.09428000E-01	-5.54680000E+02
					 5.39659000E+03	 0.00000000E+00	-5.54550000E+02
					 5.39631000E+03	 6.09428000E-01	-5.54680000E+02
					 5.95307000E+03	 0.00000000E+00	-5.55902000E+02
					 2.63519000E+01	 0.00000000E+00	 0.00000000E+00
					 1.51698000E+02	 1.50721000E+01	-7.76001000E+01
					 1.52860000E+02	 0.00000000E+00	 0.00000000E+00
					 1.51698000E+02	-1.50721000E+01	 7.76001000E+01
					 3.49578000E+02	 0.00000000E+00	 0.00000000E+00
					 6.20937000E+02	 1.30230000E+01	-1.43555000E+02
					 6.19797000E+02	 0.00000000E+00	 0.00000000E+00
					 6.20937000E+02	-1.30230000E+01	 1.43555000E+02
					 9.45468000E+02	 0.00000000E+00	 0.00000000E+00
					 1.32608000E+03	 9.97032000E+00	-1.95458000E+02
					 1.32495000E+03	 0.00000000E+00	 0.00000000E+00
					 1.32608000E+03	-9.97032000E+00	 1.95458000E+02
					 1.74722000E+03	 0.00000000E+00	 0.00000000E+00
					 2.20845000E+03	 6.89829000E+00	-2.32917000E+02
					 2.20745000E+03	 0.00000000E+00	 0.00000000E+00
					 2.20845000E+03	-6.89829000E+00	 2.32917000E+02
					 2.69728000E+03	 0.00000000E+00	 0.00000000E+00
					 3.21189000E+03	 4.19293000E+00	-2.57522000E+02
					 3.21124000E+03	 0.00000000E+00	 0.00000000E+00
					 3.21189000E+03	-4.19293000E+00	 2.57522000E+02
					 3.74277000E+03	 0.00000000E+00	 0.00000000E+00
					 4.28736000E+03	 2.02335000E+00	-2.71199000E+02
					 4.28701000E+03	 0.00000000E+00	 0.00000000E+00
					 4.28736000E+03	-2.02335000E+00	 2.71199000E+02
					 4.83900000E+03	 0.00000000E+00	 0.00000000E+00
					 5.39536000E+03	 5.81268000E-01	-2.76821000E+02
					 5.39522000E+03	 0.00000000E+00	 0.00000000E+00
					 5.39536000E+03	-5.81268000E-01	 2.76821000E+02
					 5.95255000E+03	 1.01863000E-09	 0.00000000E+00
					 6.19922000E+01	 0.00000000E+00	 7.71509000E+01
					 1.76750000E+02	-1.39396000E+01	 1.56808000E+02
					 1.81304000E+02	 0.00000000E+00	 1.58421000E+02
					 1.76750000E+02	 1.39396000E+01	 1.56808000E+02
					 3.83338000E+02	 0.00000000E+00	 2.27341000E+02
					 6.40826000E+02	-1.32347000E+01	 2.91193000E+02
					 6.46211000E+02	 0.00000000E+00	 2.90367000E+02
					 6.40826000E+02	 1.32347000E+01	 2.91193000E+02
					 9.71260000E+02	 0.00000000E+00	 3.45441000E+02
					 1.34206000E+03	-9.91481000E+00	 3.94059000E+02
					 1.34582000E+03	 0.00000000E+00	 3.93770000E+02
					 1.34206000E+03	 9.91481000E+00	 3.94059000E+02
					 1.76573000E+03	 0.00000000E+00	 4.34508000E+02
					 2.21950000E+03	-6.92552000E+00	 4.68930000E+02
					 2.22216000E+03	 0.00000000E+00	 4.68508000E+02
					 2.21950000E+03	 6.92552000E+00	 4.68930000E+02
					 2.70933000E+03	 0.00000000E+00	 4.95881000E+02
					 3.21867000E+03	-4.20669000E+00	 5.17578000E+02
					 3.22028000E+03	 0.00000000E+00	 5.17264000E+02
					 3.21867000E+03	 4.20669000E+00	 5.17578000E+02
					 3.74944000E+03	 0.00000000E+00	 5.33076000E+02
					 4.29063000E+03	-2.04852000E+00	 5.44309000E+02
					 4.29144000E+03	 0.00000000E+00	 5.44061000E+02
					 4.29063000E+03	 2.04852000E+00	 5.44309000E+02
					 4.84171000E+03	 0.00000000E+00	 5.50917000E+02
					 5.39631000E+03	-6.09428000E-01	 5.54680000E+02
					 5.39659000E+03	 1.01784000E-09	 5.54550000E+02
					 5.39631000E+03	 6.09428000E-01	 5.54680000E+02
					 5.95307000E+03	 1.13346000E-09	 5.55902000E+02
					 4.48405000E+01	 0.00000000E+00	 0.00000000E+00
					 1.71510000E+02	 0.00000000E+00	 0.00000000E+00
					 1.74143000E+02	 0.00000000E+00	 7.77107000E+01
					 1.74961000E+02	 0.00000000E+00	 0.00000000E+00
					 1.74143000E+02	 0.00000000E+00	-7.77107000E+01
					 1.71510000E+02	 0.00000000E+00	 0.00000000E+00
					 3.71327000E+02	 0.00000000E+00	 0.00000000E+00
					 6.34256000E+02	 0.00000000E+00	 0.00000000E+00
					 6.40942000E+02	 0.00000000E+00	 1.44367000E+02
					 6.39498000E+02	 0.00000000E+00	 0.00000000E+00
					 6.40942000E+02	 0.00000000E+00	-1.44367000E+02
					 6.34256000E+02	 0.00000000E+00	 0.00000000E+00
					 9.63012000E+02	 0.00000000E+00	 0.00000000E+00
					 1.33624000E+03	 0.00000000E+00	 0.00000000E+00
					 1.34109000E+03	 0.00000000E+00	 1.96089000E+02
					 1.33985000E+03	 0.00000000E+00	 0.00000000E+00
					 1.34109000E+03	 0.00000000E+00	-1.96089000E+02
					 1.33624000E+03	 0.00000000E+00	 0.00000000E+00
					 1.75992000E+03	 0.00000000E+00	 0.00000000E+00
					 2.21521000E+03	 0.00000000E+00	 0.00000000E+00
					 2.21889000E+03	 0.00000000E+00	 2.33521000E+02
					 2.21784000E+03	 0.00000000E+00	 0.00000000E+00
					 2.21889000E+03	 0.00000000E+00	-2.33521000E+02
					 2.21521000E+03	 0.00000000E+00	 0.00000000E+00