# vtk DataFile Version 3.0

ASCII
DATASET UNSTRUCTURED_GRID

POINTS 81 double
	 0.00000000E+00	 0.00000000E+00	 0.00000000E+00
	 1.00000000E+00	 0.00000000E+00	 0.00000000E+00
	 1.00000000E+00	 1.00000000E+00	 0.00000000E+00
	 0.00000000E+00	 1.00000000E+00	 0.00000000E+00
	 0.00000000E+00	 0.00000000E+00	 8.00000000E+00
	 1.00000000E+00	 0.00000000E+00	 8.00000000E+00
	 1.00000000E+00	 1.00000000E+00	 8.00000000E+00
	 0.00000000E+00	 1.00000000E+00	 8.00000000E+00
	 5.00000000E-01	 0.00000000E+00	 0.00000000E+00
	 1.00000000E+00	 5.00000000E-01	 0.00000000E+00
	 5.00000000E-01	 1.00000000E+00	 0.00000000E+00
	 0.00000000E+00	 5.00000000E-01	 0.00000000E+00
	 5.00000000E-01	 0.00000000E+00	 8.00000000E+00
	 1.00000000E+00	 5.00000000E-01	 8.00000000E+00
	 5.00000000E-01	 1.00000000E+00	 8.00000000E+00
	 0.00000000E+00	 5.00000000E-01	 8.00000000E+00
	 1.00000000E+00	 0.00000000E+00	 1.00000000E+00
	 1.00000000E+00	 0.00000000E+00	 2.00000000E+00
	 1.00000000E+00	 0.00000000E+00	 3.00000000E+00
	 1.00000000E+00	 0.00000000E+00	 4.00000000E+00
	 1.00000000E+00	 0.00000000E+00	 5.00000000E+00
	 1.00000000E+00	 0.00000000E+00	 6.00000000E+00
	 1.00000000E+00	 0.00000000E+00	 7.00000000E+00
	 0.00000000E+00	 0.00000000E+00	 7.00000000E+00
	 0.00000000E+00	 0.00000000E+00	 6.00000000E+00
	 0.00000000E+00	 0.00000000E+00	 5.00000000E+00
	 0.00000000E+00	 0.00000000E+00	 4.00000000E+00
	 0.00000000E+00	 0.00000000E+00	 3.00000000E+00
	 0.00000000E+00	 0.00000000E+00	 2.00000000E+00
	 0.00000000E+00	 0.00000000E+00	 1.00000000E+00
	 1.00000000E+00	 1.00000000E+00	 1.00000000E+00
	 1.00000000E+00	 1.00000000E+00	 2.00000000E+00
	 1.00000000E+00	 1.00000000E+00	 3.00000000E+00
	 1.00000000E+00	 1.00000000E+00	 4.00000000E+00
	 1.00000000E+00	 1.00000000E+00	 5.00000000E+00
	 1.00000000E+00	 1.00000000E+00	 6.00000000E+00
	 1.00000000E+00	 1.00000000E+00	 7.00000000E+00
	 0.00000000E+00	 1.00000000E+00	 1.00000000E+00
	 0.00000000E+00	 1.00000000E+00	 2.00000000E+00
	 0.00000000E+00	 1.00000000E+00	 3.00000000E+00
	 0.00000000E+00	 1.00000000E+00	 4.00000000E+00
	 0.00000000E+00	 1.00000000E+00	 5.00000000E+00
	 0.00000000E+00	 1.00000000E+00	 6.00000000E+00
	 0.00000000E+00	 1.00000000E+00	 7.00000000E+00
	 5.00000000E-01	 5.00000000E-01	 0.00000000E+00
	 5.00000000E-01	 5.00000000E-01	 8.00000000E+00
	 5.00000000E-01	 0.00000000E+00	 1.00000000E+00
	 5.00000000E-01	 0.00000000E+00	 2.00000000E+00
	 5.00000000E-01	 0.00000000E+00	 3.00000000E+00
	 5.00000000E-01	 0.00000000E+00	 4.00000000E+00
	 5.00000000E-01	 0.00000000E+00	 5.00000000E+00
	 5.00000000E-01	 0.00000000E+00	 6.00000000E+00
	 5.00000000E-01	 0.00000000E+00	 7.00000000E+00
	 1.00000000E+00	 5.00000000E-01	 1.00000000E+00
	 1.00000000E+00	 5.00000000E-01	 2.00000000E+00
	 1.00000000E+00	 5.00000000E-01	 3.00000000E+00
	 1.00000000E+00	 5.00000000E-01	 4.00000000E+00
	 1.00000000E+00	 5.00000000E-01	 5.00000000E+00
	 1.00000000E+00	 5.00000000E-01	 6.00000000E+00
	 1.00000000E+00	 5.00000000E-01	 7.00000000E+00
	 5.00000000E-01	 1.00000000E+00	 1.00000000E+00
	 5.00000000E-01	 1.00000000E+00	 2.00000000E+00
	 5.00000000E-01	 1.00000000E+00	 3.00000000E+00
	 5.00000000E-01	 1.00000000E+00	 4.00000000E+00
	 5.00000000E-01	 1.00000000E+00	 5.00000000E+00
	 5.00000000E-01	 1.00000000E+00	 6.00000000E+00
	 5.00000000E-01	 1.00000000E+00	 7.00000000E+00
	 0.00000000E+00	 5.00000000E-01	 1.00000000E+00
	 0.00000000E+00	 5.00000000E-01	 2.00000000E+00
	 0.00000000E+00	 5.00000000E-01	 3.00000000E+00
	 0.00000000E+00	 5.00000000E-01	 4.00000000E+00
	 0.00000000E+00	 5.00000000E-01	 5.00000000E+00
	 0.00000000E+00	 5.00000000E-01	 6.00000000E+00
	 0.00000000E+00	 5.00000000E-01	 7.00000000E+00
	 5.00000000E-01	 5.00000000E-01	 1.00000000E+00
	 5.00000000E-01	 5.00000000E-01	 2.00000000E+00
	 5.00000000E-01	 5.00000000E-01	 3.00000000E+00
	 5.00000000E-01	 5.00000000E-01	 4.00000000E+00
	 5.00000000E-01	 5.00000000E-01	 5.00000000E+00
	 5.00000000E-01	 5.00000000E-01	 6.00000000E+00
	 5.00000000E-01	 5.00000000E-01	 7.00000000E+00

CELLS 32 288
	8 0 8 44 11 29 46 74 67 
	8 8 1 9 44 46 16 53 74 
	8 11 44 10 3 67 74 60 37 
	8 44 9 2 10 74 53 30 60 
	8 29 46 74 67 28 47 75 68 
	8 46 16 53 74 47 17 54 75 
	8 67 74 60 37 68 75 61 38 
	8 74 53 30 60 75 54 31 61 
	8 28 47 75 68 27 48 76 69 
	8 47 17 54 75 48 18 55 76 
	8 68 75 61 38 69 76 62 39 
	8 75 54 31 61 76 55 32 62 
	8 27 48 76 69 26 49 77 70 
	8 48 18 55 76 49 19 56 77 
	8 69 76 62 39 70 77 63 40 
	8 76 55 32 62 77 56 33 63 
	8 26 49 77 70 25 50 78 71 
	8 49 19 56 77 50 20 57 78 
	8 70 77 63 40 71 78 64 41 
	8 77 56 33 63 78 57 34 64 
	8 25 50 78 71 24 51 79 72 
	8 50 20 57 78 51 21 58 79 
	8 71 78 64 41 72 79 65 42 
	8 78 57 34 64 79 58 35 65 
	8 24 51 79 72 23 52 80 73 
	8 51 21 58 79 52 22 59 80 
	8 72 79 65 42 73 80 66 43 
	8 79 58 35 65 80 59 36 66 
	8 23 52 80 73 4 12 45 15 
	8 52 22 59 80 12 5 13 45 
	8 73 80 66 43 15 45 14 7 
	8 80 59 36 66 45 13 6 14 

CELL_TYPES 32
	12
	12
	12
	12
	12
	12
	12
	12
	12
	12
	12
	12
	12
	12
	12
	12
	12
	12
	12
	12
	12
	12
	12
	12
	12
	12
	12
	12
	12
	12
	12
	12

POINT_DATA 81
FIELD U 1
	U 3 81 double
		 0.00000000E+00	 0.00000000E+00	 0.00000000E+00
		 0.00000000E+00	 0.00000000E+00	 0.00000000E+00
		 0.00000000E+00	 0.00000000E+00	 0.00000000E+00
		 0.00000000E+00	 0.00000000E+00	 0.00000000E+00
		-7.14378000E+03	 3.15886000E+03	-2.22701000E+02
		-6.49562000E+03	 1.06670000E+03	 4.22626000E+02
		-7.14378000E+03	 3.15886000E+03	 2.22701000E+02
		-6.49562000E+03	 1.06670000E+03	-4.22626000E+02
		 0.00000000E+00	 0.00000000E+00	 0.00000000E+00
		 0.00000000E+00	 0.00000000E+00	 0.00000000E+00
		 0.00000000E+00	 0.00000000E+00	 0.00000000E+00
		 0.00000000E+00	 0.00000000E+00	 0.00000000E+00
		-7.30236000E+03	 1.84521000E+03	 5.77562000E+01
		-5.95603000E+03	 2.26231000E+03	 1.86428000E+02
		-7.30236000E+03	 1.84521000E+03	-5.77562000E+01
		-5.95603000E+03	 2.26231000E+03	-1.86428000E+02
		-4.36947000E+03	 1.36649000E+03	 7.59244000E+02
		-5.53641000E+03	 1.43082000E+03	-4.36563000E+02
		-1.99443000E+03	 5.11859000E+02	-1.63473000E+03
		 3.39163000E+03	-8.62770000E+02	-1.39206000E+03
		 5.64649000E+03	-1.42895000E+03	 1.35238000E+02
		 2.68514000E+03	-6.69717000E+02	 1.48239000E+03
		-2.77968000E+03	 7.39799000E+02	 1.57931000E+03
		-2.86286000E+03	 1.00829000E+03	-8.32207000E+02
		 2.79628000E+03	-1.02845000E+03	-7.81136000E+02
		 5.86606000E+03	-2.13770000E+03	-7.12631000E+01
		 3.52046000E+03	-1.27863000E+03	 7.33539000E+02
		-2.06709000E+03	 7.46420000E+02	 8.61414000E+02
		-5.73132000E+03	 2.05998000E+03	 2.30045000E+02
		-4.36069000E+03	 1.33816000E+03	-4.00079000E+02
		-4.36069000E+03	 1.33816000E+03	 4.00079000E+02
		-5.73132000E+03	 2.05998000E+03	-2.30045000E+02
		-2.06709000E+03	 7.46420000E+02	-8.61414000E+02
		 3.52046000E+03	-1.27863000E+03	-7.33539000E+02
		 5.86606000E+03	-2.13770000E+03	 7.12631000E+01
		 2.79628000E+03	-1.02845000E+03	 7.81136000E+02
		-2.86286000E+03	 1.00829000E+03	 8.32207000E+02
		-4.36947000E+03	 1.36649000E+03	-7.59244000E+02
		-5.53641000E+03	 1.43082000E+03	 4.36563000E+02
		-1.99443000E+03	 5.11859000E+02	 1.63473000E+03
		 3.39163000E+03	-8.62770000E+02	 1.39206000E+03
		 5.64649000E+03	-1.42895000E+03	-1.35238000E+02
		 2.68514000E+03	-6.69717000E+02	-1.48239000E+03
		-2.77968000E+03	 7.39799000E+02	-1.57931000E+03
		 0.00000000E+00	 0.00000000E+00	 0.00000000E+00
		-5.30822000E+03	 1.64451000E+03	 0.00000000E+00
		-4.29106000E+03	 1.33513000E+03	 1.83419000E+02
		-5.81701000E+03	 1.70597000E+03	-9.92323000E+01
		-2.08118000E+03	 6.09912000E+02	-3.96008000E+02
		 3.55392000E+03	-1.03718000E+03	-3.35135000E+02
		 5.93344000E+03	-1.73350000E+03	 2.51057000E+01
		 2.78218000E+03	-8.14690000E+02	 3.90888000E+02
		-2.66766000E+03	 8.33485000E+02	 3.01844000E+02
		-4.30958000E+03	 1.32939000E+03	 5.92048000E+02
		-5.50659000E+03	 1.80214000E+03	-3.20306000E+02
		-1.96870000E+03	 6.44760000E+02	-1.27825000E+03
		 3.34785000E+03	-1.10102000E+03	-1.08176000E+03
		 5.59547000E+03	-1.83821000E+03	 8.10372000E+01
		 2.62969000E+03	-8.61932000E+02	 1.26172000E+03
		-2.69035000E+03	 8.26455000E+02	 9.74303000E+02
		-4.29106000E+03	 1.33513000E+03	-1.83419000E+02
		-5.81701000E+03	 1.70597000E+03	 9.92323000E+01
		-2.08118000E+03	 6.09912000E+02	 3.96008000E+02
		 3.55392000E+03	-1.03718000E+03	 3.35135000E+02
		 5.93344000E+03	-1.73350000E+03	-2.51057000E+01
		 2.78218000E+03	-8.14690000E+02	-3.90888000E+02
		-2.66766000E+03	 8.33485000E+02	-3.01844000E+02
		-4.30958000E+03	 1.32939000E+03	-5.92048000E+02
		-5.50659000E+03	 1.80214000E+03	 3.20306000E+02
		-1.96870000E+03	 6.44760000E+02	 1.27825000E+03
		 3.34785000E+03	-1.10102000E+03	 1.08176000E+03
		 5.59547000E+03	-1.83821000E+03	-8.10372000E+01
		 2.62969000E+03	-8.61932000E+02	-1.26172000E+03
		-2.69035000E+03	 8.26455000E+02	-9.74303000E+02
		-4.23617000E+03	 1.31239000E+03	 0.00000000E+00
		-5.69448000E+03	 1.76418000E+03	 0.00000000E+00
		-2.02226000E+03	 6.26508000E+02	 0.00000000E+00
		 3.45653000E+03	-1.07085000E+03	 0.00000000E+00
		 5.72789000E+03	-1.77453000E+03	 0.00000000E+00
		 2.83651000E+03	-8.78766000E+02	 0.00000000E+00
		-3.16089000E+03	 9.79259000E+02	 0.00000000E+00
