<?xml version="1.0"?>
<VTKFile type="UnstructuredGrid" version="0.1" byte_order="LittleEndian">
	<UnstructuredGrid>
		<Piece NumberOfPoints="261" NumberOfCells="32">
			<Points>
				<DataArray type="Float64" NumberOfComponents="3" format="ascii">
					 0.00000000E+00	 0.00000000E+00	 0.00000000E+00
					 1.00000000E+00	 0.00000000E+00	 0.00000000E+00
					 1.00000000E+00	 1.50000000E+00	 0.00000000E+00
					 0.00000000E+00	 1.50000000E+00	 0.00000000E+00
					 0.00000000E+00	 0.00000000E+00	 8.00000000E+00
					 1.00000000E+00	 0.00000000E+00	 8.00000000E+00
					 1.00000000E+00	 1.50000000E+00	 8.00000000E+00
					 0.00000000E+00	 1.50000000E+00	 8.00000000E+00
					 2.50000000E-01	 0.00000000E+00	 0.00000000E+00
					 5.00000000E-01	 0.00000000E+00	 0.00000000E+00
					 7.50000000E-01	 0.00000000E+00	 0.00000000E+00
					 1.00000000E+00	 3.75000000E-01	 0.00000000E+00
					 1.00000000E+00	 7.50000000E-01	 0.00000000E+00
					 1.00000000E+00	 1.12500000E+00	 0.00000000E+00
					 7.50000000E-01	 1.50000000E+00	 0.00000000E+00
					 5.00000000E-01	 1.50000000E+00	 0.00000000E+00
					 2.50000000E-01	 1.50000000E+00	 0.00000000E+00
					 0.00000000E+00	 1.12500000E+00	 0.00000000E+00
					 0.00000000E+00	 7.50000000E-01	 0.00000000E+00
					 0.00000000E+00	 3.75000000E-01	 0.00000000E+00
					 2.50000000E-01	 0.00000000E+00	 8.00000000E+00
					 5.00000000E-01	 0.00000000E+00	 8.00000000E+00
					 7.50000000E-01	 0.00000000E+00	 8.00000000E+00
					 1.00000000E+00	 3.75000000E-01	 8.00000000E+00
					 1.00000000E+00	 7.50000000E-01	 8.00000000E+00
					 1.00000000E+00	 1.12500000E+00	 8.00000000E+00
					 7.50000000E-01	 1.50000000E+00	 8.00000000E+00
					 5.00000000E-01	 1.50000000E+00	 8.00000000E+00
					 2.50000000E-01	 1.50000000E+00	 8.00000000E+00
					 0.00000000E+00	 1.12500000E+00	 8.00000000E+00
					 0.00000000E+00	 7.50000000E-01	 8.00000000E+00
					 0.00000000E+00	 3.75000000E-01	 8.00000000E+00
					 1.00000000E+00	 0.00000000E+00	 5.00000000E-01
					 1.00000000E+00	 0.00000000E+00	 1.00000000E+00
					 1.00000000E+00	 0.00000000E+00	 1.50000000E+00
					 1.00000000E+00	 0.00000000E+00	 2.00000000E+00
					 1.00000000E+00	 0.00000000E+00	 2.50000000E+00
					 1.00000000E+00	 0.00000000E+00	 3.00000000E+00
					 1.00000000E+00	 0.00000000E+00	 3.50000000E+00
					 1.00000000E+00	 0.00000000E+00	 4.00000000E+00
					 1.00000000E+00	 0.00000000E+00	 4.50000000E+00
					 1.00000000E+00	 0.00000000E+00	 5.00000000E+00
					 1.00000000E+00	 0.00000000E+00	 5.50000000E+00
					 1.00000000E+00	 0.00000000E+00	 6.00000000E+00
					 1.00000000E+00	 0.00000000E+00	 6.50000000E+00
					 1.00000000E+00	 0.00000000E+00	 7.00000000E+00
					 1.00000000E+00	 0.00000000E+00	 7.50000000E+00
					 0.00000000E+00	 0.00000000E+00	 7.50000000E+00
					 0.00000000E+00	 0.00000000E+00	 7.00000000E+00
					 0.00000000E+00	 0.00000000E+00	 6.50000000E+00
					 0.00000000E+00	 0.00000000E+00	 6.00000000E+00
					 0.00000000E+00	 0.00000000E+00	 5.50000000E+00
					 0.00000000E+00	 0.00000000E+00	 5.00000000E+00
					 0.00000000E+00	 0.00000000E+00	 4.50000000E+00
					 0.00000000E+00	 0.00000000E+00	 4.00000000E+00
					 0.00000000E+00	 0.00000000E+00	 3.50000000E+00
					 0.00000000E+00	 0.00000000E+00	 3.00000000E+00
					 0.00000000E+00	 0.00000000E+00	 2.50000000E+00
					 0.00000000E+00	 0.00000000E+00	 2.00000000E+00
					 0.00000000E+00	 0.00000000E+00	 1.50000000E+00
					 0.00000000E+00	 0.00000000E+00	 1.00000000E+00
					 0.00000000E+00	 0.00000000E+00	 5.00000000E-01
					 1.00000000E+00	 1.50000000E+00	 5.00000000E-01
					 1.00000000E+00	 1.50000000E+00	 1.00000000E+00
					 1.00000000E+00	 1.50000000E+00	 1.50000000E+00
					 1.00000000E+00	 1.50000000E+00	 2.00000000E+00
					 1.00000000E+00	 1.50000000E+00	 2.50000000E+00
					 1.00000000E+00	 1.50000000E+00	 3.00000000E+00
					 1.00000000E+00	 1.50000000E+00	 3.50000000E+00
					 1.00000000E+00	 1.50000000E+00	 4.00000000E+00
					 1.00000000E+00	 1.50000000E+00	 4.50000000E+00
					 1.00000000E+00	 1.50000000E+00	 5.00000000E+00
					 1.00000000E+00	 1.50000000E+00	 5.50000000E+00
					 1.00000000E+00	 1.50000000E+00	 6.00000000E+00
					 1.00000000E+00	 1.50000000E+00	 6.50000000E+00
					 1.00000000E+00	 1.50000000E+00	 7.00000000E+00
					 1.00000000E+00	 1.50000000E+00	 7.50000000E+00
					 0.00000000E+00	 1.50000000E+00	 5.00000000E-01
					 0.00000000E+00	 1.50000000E+00	 1.00000000E+00
					 0.00000000E+00	 1.50000000E+00	 1.50000000E+00
					 0.00000000E+00	 1.50000000E+00	 2.00000000E+00
					 0.00000000E+00	 1.50000000E+00	 2.50000000E+00
					 0.00000000E+00	 1.50000000E+00	 3.00000000E+00
					 0.00000000E+00	 1.50000000E+00	 3.50000000E+00
					 0.00000000E+00	 1.50000000E+00	 4.00000000E+00
					 0.00000000E+00	 1.50000000E+00	 4.50000000E+00
					 0.00000000E+00	 1.50000000E+00	 5.00000000E+00
					 0.00000000E+00	 1.50000000E+00	 5.50000000E+00
					 0.00000000E+00	 1.50000000E+00	 6.00000000E+00
					 0.00000000E+00	 1.50000000E+00	 6.50000000E+00
					 0.00000000E+00	 1.50000000E+00	 7.00000000E+00
					 0.00000000E+00	 1.50000000E+00	 7.50000000E+00
					 5.00000000E-01	 3.75000000E-01	 0.00000000E+00
					 2.50000000E-01	 7.50000000E-01	 0.00000000E+00
					 5.00000000E-01	 7.50000000E-01	 0.00000000E+00
					 7.50000000E-01	 7.50000000E-01	 0.00000000E+00
					 5.00000000E-01	 1.12500000E+00	 0.00000000E+00
					 5.00000000E-01	 3.75000000E-01	 8.00000000E+00
					 2.50000000E-01	 7.50000000E-01	 8.00000000E+00
					 5.00000000E-01	 7.50000000E-01	 8.00000000E+00
					 7.50000000E-01	 7.50000000E-01	 8.00000000E+00
					 5.00000000E-01	 1.12500000E+00	 8.00000000E+00
					 5.00000000E-01	 0.00000000E+00	 5.00000000E-01
					 2.50000000E-01	 0.00000000E+00	 1.00000000E+00
					 5.00000000E-01	 0.00000000E+00	 1.00000000E+00
					 7.50000000E-01	 0.00000000E+00	 1.00000000E+00
					 5.00000000E-01	 0.00000000E+00	 1.50000000E+00
					 2.50000000E-01	 0.00000000E+00	 2.00000000E+00
					 5.00000000E-01	 0.00000000E+00	 2.00000000E+00
					 7.50000000E-01	 0.00000000E+00	 2.00000000E+00
					 5.00000000E-01	 0.00000000E+00	 2.50000000E+00
					 2.50000000E-01	 0.00000000E+00	 3.00000000E+00
					 5.00000000E-01	 0.00000000E+00	 3.00000000E+00
					 7.50000000E-01	 0.00000000E+00	 3.00000000E+00
					 5.00000000E-01	 0.00000000E+00	 3.50000000E+00
					 2.50000000E-01	 0.00000000E+00	 4.00000000E+00
					 5.00000000E-01	 0.00000000E+00	 4.00000000E+00
					 7.50000000E-01	 0.00000000E+00	 4.00000000E+00
					 5.00000000E-01	 0.00000000E+00	 4.50000000E+00
					 2.50000000E-01	 0.00000000E+00	 5.00000000E+00
					 5.00000000E-01	 0.00000000E+00	 5.00000000E+00
					 7.50000000E-01	 0.00000000E+00	 5.00000000E+00
					 5.00000000E-01	 0.00000000E+00	 5.50000000E+00
					 2.50000000E-01	 0.00000000E+00	 6.00000000E+00
					 5.00000000E-01	 0.00000000E+00	 6.00000000E+00
					 7.50000000E-01	 0.00000000E+00	 6.00000000E+00
					 5.00000000E-01	 0.00000000E+00	 6.50000000E+00
					 2.50000000E-01	 0.00000000E+00	 7.00000000E+00
					 5.00000000E-01	 0.00000000E+00	 7.00000000E+00
					 7.50000000E-01	 0.00000000E+00	 7.00000000E+00
					 5.00000000E-01	 0.00000000E+00	 7.50000000E+00
					 1.00000000E+00	 7.50000000E-01	 5.00000000E-01
					 1.00000000E+00	 3.75000000E-01	 1.00000000E+00
					 1.00000000E+00	 7.50000000E-01	 1.00000000E+00
					 1.00000000E+00	 1.12500000E+00	 1.00000000E+00
					 1.00000000E+00	 7.50000000E-01	 1.50000000E+00
					 1.00000000E+00	 3.75000000E-01	 2.00000000E+00
					 1.00000000E+00	 7.50000000E-01	 2.00000000E+00
					 1.00000000E+00	 1.12500000E+00	 2.00000000E+00
					 1.00000000E+00	 7.50000000E-01	 2.50000000E+00
					 1.00000000E+00	 3.75000000E-01	 3.00000000E+00
					 1.00000000E+00	 7.50000000E-01	 3.00000000E+00
					 1.00000000E+00	 1.12500000E+00	 3.00000000E+00
					 1.00000000E+00	 7.50000000E-01	 3.50000000E+00
					 1.00000000E+00	 3.75000000E-01	 4.00000000E+00
					 1.00000000E+00	 7.50000000E-01	 4.00000000E+00
					 1.00000000E+00	 1.12500000E+00	 4.00000000E+00
					 1.00000000E+00	 7.50000000E-01	 4.50000000E+00
					 1.00000000E+00	 3.75000000E-01	 5.00000000E+00
					 1.00000000E+00	 7.50000000E-01	 5.00000000E+00
					 1.00000000E+00	 1.12500000E+00	 5.00000000E+00
					 1.00000000E+00	 7.50000000E-01	 5.50000000E+00
					 1.00000000E+00	 3.75000000E-01	 6.00000000E+00
					 1.00000000E+00	 7.50000000E-01	 6.00000000E+00
					 1.00000000E+00	 1.12500000E+00	 6.00000000E+00
					 1.00000000E+00	 7.50000000E-01	 6.50000000E+00
					 1.00000000E+00	 3.75000000E-01	 7.00000000E+00
					 1.00000000E+00	 7.50000000E-01	 7.00000000E+00
					 1.00000000E+00	 1.12500000E+00	 7.00000000E+00
					 1.00000000E+00	 7.50000000E-01	 7.50000000E+00
					 5.00000000E-01	 1.50000000E+00	 5.00000000E-01
					 7.50000000E-01	 1.50000000E+00	 1.00000000E+00
					 5.00000000E-01	 1.50000000E+00	 1.00000000E+00
					 2.50000000E-01	 1.50000000E+00	 1.00000000E+00
					 5.00000000E-01	 1.50000000E+00	 1.50000000E+00
					 7.50000000E-01	 1.50000000E+00	 2.00000000E+00
					 5.00000000E-01	 1.50000000E+00	 2.00000000E+00
					 2.50000000E-01	 1.50000000E+00	 2.00000000E+00
					 5.00000000E-01	 1.50000000E+00	 2.50000000E+00
					 7.50000000E-01	 1.50000000E+00	 3.00000000E+00
					 5.00000000E-01	 1.50000000E+00	 3.00000000E+00
					 2.50000000E-01	 1.50000000E+00	 3.00000000E+00
					 5.00000000E-01	 1.50000000E+00	 3.50000000E+00
					 7.50000000E-01	 1.50000000E+00	 4.00000000E+00
					 5.00000000E-01	 1.50000000E+00	 4.00000000E+00
					 2.50000000E-01	 1.50000000E+00	 4.00000000E+00
					 5.00000000E-01	 1.50000000E+00	 4.50000000E+00
					 7.50000000E-01	 1.50000000E+00	 5.00000000E+00
					 5.00000000E-01	 1.50000000E+00	 5.00000000E+00
					 2.50000000E-01	 1.50000000E+00	 5.00000000E+00
					 5.00000000E-01	 1.50000000E+00	 5.50000000E+00
					 7.50000000E-01	 1.50000000E+00	 6.00000000E+00
					 5.00000000E-01	 1.50000000E+00	 6.00000000E+00
					 2.50000000E-01	 1.50000000E+00	 6.00000000E+00
					 5.00000000E-01	 1.50000000E+00	 6.50000000E+00
					 7.50000000E-01	 1.50000000E+00	 7.00000000E+00
					 5.00000000E-01	 1.50000000E+00	 7.00000000E+00
					 2.50000000E-01	 1.50000000E+00	 7.00000000E+00
					 5.00000000E-01	 1.50000000E+00	 7.50000000E+00
					 0.00000000E+00	 7.50000000E-01	 5.00000000E-01
					 0.00000000E+00	 1.12500000E+00	 1.00000000E+00
					 0.00000000E+00	 7.50000000E-01	 1.00000000E+00
					 0.00000000E+00	 3.75000000E-01	 1.00000000E+00
					 0.00000000E+00	 7.50000000E-01	 1.50000000E+00
					 0.00000000E+00	 1.12500000E+00	 2.00000000E+00
					 0.00000000E+00	 7.50000000E-01	 2.00000000E+00
					 0.00000000E+00	 3.75000000E-01	 2.00000000E+00
					 0.00000000E+00	 7.50000000E-01	 2.50000000E+00
					 0.00000000E+00	 1.12500000E+00	 3.00000000E+00
					 0.00000000E+00	 7.50000000E-01	 3.00000000E+00
					 0.00000000E+00	 3.75000000E-01	 3.00000000E+00
					 0.00000000E+00	 7.50000000E-01	 3.50000000E+00
					 0.00000000E+00	 1.12500000E+00	 4.00000000E+00
					 0.00000000E+00	 7.50000000E-01	 4.00000000E+00
					 0.00000000E+00	 3.75000000E-01	 4.00000000E+00
					 0.00000000E+00	 7.50000000E-01	 4.50000000E+00
					 0.00000000E+00	 1.12500000E+00	 5.00000000E+00
					 0.00000000E+00	 7.50000000E-01	 5.00000000E+00
					 0.00000000E+00	 3.75000000E-01	 5.00000000E+00
					 0.00000000E+00	 7.50000000E-01	 5.50000000E+00
					 0.00000000E+00	 1.12500000E+00	 6.00000000E+00
					 0.00000000E+00	 7.50000000E-01	 6.00000000E+00
					 0.00000000E+00	 3.75000000E-01	 6.00000000E+00
					 0.00000000E+00	 7.50000000E-01	 6.50000000E+00
					 0.00000000E+00	 1.12500000E+00	 7.00000000E+00
					 0.00000000E+00	 7.50000000E-01	 7.00000000E+00
					 0.00000000E+00	 3.75000000E-01	 7.00000000E+00
					 0.00000000E+00	 7.50000000E-01	 7.50000000E+00
					 5.00000000E-01	 7.50000000E-01	 5.00000000E-01
					 5.00000000E-01	 3.75000000E-01	 1.00000000E+00
					 2.50000000E-01	 7.50000000E-01	 1.00000000E+00
					 5.00000000E-01	 7.50000000E-01	 1.00000000E+00
					 7.50000000E-01	 7.50000000E-01	 1.00000000E+00
					 5.00000000E-01	 1.12500000E+00	 1.00000000E+00
					 5.00000000E-01	 7.50000000E-01	 1.50000000E+00
					 5.00000000E-01	 3.75000000E-01	 2.00000000E+00
					 2.50000000E-01	 7.50000000E-01	 2.00000000E+00
					 5.00000000E-01	 7.50000000E-01	 2.00000000E+00
					 7.50000000E-01	 7.50000000E-01	 2.00000000E+00
					 5.00000000E-01	 1.12500000E+00	 2.00000000E+00
					 5.00000000E-01	 7.50000000E-01	 2.50000000E+00
					 5.00000000E-01	 3.75000000E-01	 3.00000000E+00
					 2.50000000E-01	 7.50000000E-01	 3.00000000E+00
					 5.00000000E-01	 7.50000000E-01	 3.00000000E+00
					 7.50000000E-01	 7.50000000E-01	 3.00000000E+00
					 5.00000000E-01	 1.12500000E+00	 3.00000000E+00
					 5.00000000E-01	 7.50000000E-01	 3.50000000E+00
					 5.00000000E-01	 3.75000000E-01	 4.00000000E+00
					 2.50000000E-01	 7.50000000E-01	 4.00000000E+00
					 5.00000000E-01	 7.50000000E-01	 4.00000000E+00
					 7.50000000E-01	 7.50000000E-01	 4.00000000E+00
					 5.00000000E-01	 1.12500000E+00	 4.00000000E+00
					 5.00000000E-01	 7.50000000E-01	 4.50000000E+00
					 5.00000000E-01	 3.75000000E-01	 5.00000000E+00
					 2.50000000E-01	 7.50000000E-01	 5.00000000E+00
					 5.00000000E-01	 7.50000000E-01	 5.00000000E+00
					 7.50000000E-01	 7.50000000E-01	 5.00000000E+00
					 5.00000000E-01	 1.12500000E+00	 5.00000000E+00
					 5.00000000E-01	 7.50000000E-01	 5.50000000E+00
					 5.00000000E-01	 3.75000000E-01	 6.00000000E+00
					 2.50000000E-01	 7.50000000E-01	 6.00000000E+00
					 5.00000000E-01	 7.50000000E-01	 6.00000000E+00
					 7.50000000E-01	 7.50000000E-01	 6.00000000E+00
					 5.00000000E-01	 1.12500000E+00	 6.00000000E+00
					 5.00000000E-01	 7.50000000E-01	 6.50000000E+00
					 5.00000000E-01	 3.75000000E-01	 7.00000000E+00
					 2.50000000E-01	 7.50000000E-01	 7.00000000E+00
					 5.00000000E-01	 7.50000000E-01	 7.00000000E+00
					 7.50000000E-01	 7.50000000E-01	 7.00000000E+00
					 5.00000000E-01	 1.12500000E+00	 7.00000000E+00
					 5.00000000E-01	 7.50000000E-01	 7.50000000E+00

				</DataArray>
			</Points>
			<Cells>
				<DataArray type="Int32" Name="connectivity" format="ascii">
					0 9 94 18 60 104 221 191 8 92 93 19 103 219 220 192 61 102 218 189 9 1 12 94 104 33 133 221 10 11 95 92 105 132 222 219 102 32 131 218 18 94 15 3 191 221 162 78 93 96 16 17 220 223 163 190 189 218 160 77 94 12 2 15 221 133 63 162 95 13 14 96 222 134 161 223 218 131 62 160 60 104 221 191 58 108 227 195 103 219 220 192 107 225 226 196 59 106 224 193 104 33 133 221 108 35 137 227 105 132 222 219 109 136 228 225 106 34 135 224 191 221 162 78 195 227 166 80 220 223 163 190 226 229 167 194 193 224 164 79 221 133 63 162 227 137 65 166 222 134 161 223 228 138 165 229 224 135 64 164 58 108 227 195 56 112 233 199 107 225 226 196 111 231 232 200 57 110 230 197 108 35 137 227 112 37 141 233 109 136 228 225 113 140 234 231 110 36 139 230 195 227 166 80 199 233 170 82 226 229 167 194 232 235 171 198 197 230 168 81 227 137 65 166 233 141 67 170 228 138 165 229 234 142 169 235 230 139 66 168 56 112 233 199 54 116 239 203 111 231 232 200 115 237 238 204 55 114 236 201 112 37 141 233 116 39 145 239 113 140 234 231 117 144 240 237 114 38 143 236 199 233 170 82 203 239 174 84 232 235 171 198 238 241 175 202 201 236 172 83 233 141 67 170 239 145 69 174 234 142 169 235 240 146 173 241 236 143 68 172 54 116 239 203 52 120 245 207 115 237 238 204 119 243 244 208 53 118 242 205 116 39 145 239 120 41 149 245 117 144 240 237 121 148 246 243 118 40 147 242 203 239 174 84 207 245 178 86 238 241 175 202 244 247 179 206 205 242 176 85 239 145 69 174 245 149 71 178 240 146 173 241 246 150 177 247 242 147 70 176 52 120 245 207 50 124 251 211 119 243 244 208 123 249 250 212 51 122 248 209 120 41 149 245 124 43 153 251 121 148 246 243 125 152 252 249 122 42 151 248 207 245 178 86 211 251 182 88 244 247 179 206 250 253 183 210 209 248 180 87 245 149 71 178 251 153 73 182 246 150 177 247 252 154 181 253 248 151 72 180 50 124 251 211 48 128 257 215 123 249 250 212 127 255 256 216 49 126 254 213 124 43 153 251 128 45 157 257 125 152 252 249 129 156 258 255 126 44 155 254 211 251 182 88 215 257 186 90 250 253 183 210 256 259 187 214 213 254 184 89 251 153 73 182 257 157 75 186 252 154 181 253 258 158 185 259 254 155 74 184 48 128 257 215 4 21 99 30 127 255 256 216 20 97 98 31 47 130 260 217 128 45 157 257 21 5 24 99 129 156 258 255 22 23 100 97 130 46 159 260 215 257 186 90 30 99 27 7 256 259 187 214 98 101 28 29 217 260 188 91 257 157 75 186 99 24 6 27 258 158 185 259 100 25 26 101 260 159 76 188 
				</DataArray>
				<DataArray type="Int32" Name="offsets" format="ascii">
					20 40 60 80 100 120 140 160 180 200 220 240 260 280 300 320 340 360 380 400 420 440 460 480 500 520 540 560 580 600 620 640 
				</DataArray>
				<DataArray type="UInt8" Name="types" format="ascii">
					25 25 25 25 25 25 25 25 25 25 25 25 25 25 25 25 25 25 25 25 25 25 25 25 25 25 25 25 25 25 25 25 
				</DataArray>
			</Cells>
			<PointData>
				<DataArray type="Float32" Name="U" NumberOfComponents="3" ComponentName0="D1" ComponentName1="D2" ComponentName2="D3" format="ascii">
					 0.00000000E+00	 0.00000000E+00	 0.00000000E+00
					 0.00000000E+00	 0.00000000E+00	 0.00000000E+00
					 0.00000000E+00	 0.00000000E+00	 0.00000000E+00
					 0.00000000E+00	 0.00000000E+00	 0.00000000E+00
					-5.92839000E+03	-6.98589000E+02	-3.25441000E+03
					-5.92839000E+03	 6.98589000E+02	 3.25441000E+03
					-5.15915000E+03	 5.65305000E+02	 3.25115000E+03
					-5.15915000E+03	-5.65305000E+02	-3.25115000E+03
					 0.00000000E+00	 0.00000000E+00	 0.00000000E+00
					 0.00000000E+00	 0.00000000E+00	 0.00000000E+00
					 0.00000000E+00	 0.00000000E+00	 0.00000000E+00
					 0.00000000E+00	 0.00000000E+00	 0.00000000E+00
					 0.00000000E+00	 0.00000000E+00	 0.00000000E+00
					 0.00000000E+00	 0.00000000E+00	 0.00000000E+00
					 0.00000000E+00	 0.00000000E+00	 0.00000000E+00
					 0.00000000E+00	 0.00000000E+00	 0.00000000E+00
					 0.00000000E+00	 0.00000000E+00	 0.00000000E+00
					 0.00000000E+00	 0.00000000E+00	 0.00000000E+00
					 0.00000000E+00	 0.00000000E+00	 0.00000000E+00
					 0.00000000E+00	 0.00000000E+00	 0.00000000E+00
					-5.90512000E+03	-3.27565000E+02	-1.58541000E+03
					-5.86444000E+03	 0.00000000E+00	 0.00000000E+00
					-5.90512000E+03	 3.27565000E+02	 1.58541000E+03
					-5.81197000E+03	 7.04629000E+02	 3.30646000E+03
					-5.67224000E+03	 6.53962000E+02	 3.31387000E+03
					-5.43008000E+03	 5.95061000E+02	 3.31337000E+03
					-5.14681000E+03	 2.83244000E+02	 1.58325000E+03
					-5.11772000E+03	 0.00000000E+00	 0.00000000E+00
					-5.14681000E+03	-2.83244000E+02	-1.58325000E+03
					-5.43008000E+03	-5.95061000E+02	-3.31337000E+03
					-5.67224000E+03	-6.53962000E+02	-3.31387000E+03
					-5.81197000E+03	-7.04629000E+02	-3.30646000E+03
					 1.59939000E+03	-3.28204000E+02	-8.67083000E+02
					 3.39605000E+03	 3.15788000E+00	-8.65118000E+02
					 4.44150000E+03	 2.14120000E+02	 5.16966000E+01
					 3.71982000E+03	 3.56804000E+02	 1.19437000E+03
					 1.52726000E+03	 3.13796000E+02	 1.93687000E+03
					-1.28432000E+03	 1.35756000E+02	 1.97222000E+03
					-3.43013000E+03	-1.29507000E+02	 1.15548000E+03
					-4.04894000E+03	-3.37825000E+02	-1.03098000E+02
					-2.75663000E+03	-3.82133000E+02	-1.29287000E+03
					-1.99498000E+02	-2.09624000E+02	-1.92984000E+03
					 2.51352000E+03	 1.58620000E+02	-1.63430000E+03
					 4.11413000E+03	 5.64377000E+02	-5.83414000E+02
					 3.74880000E+03	 8.62360000E+02	 8.84746000E+02
					 1.40762000E+03	 9.46993000E+02	 2.25043000E+03
					-2.15922000E+03	 8.36843000E+02	 3.02068000E+03
					-2.15922000E+03	-8.36843000E+02	-3.02068000E+03
					 1.40762000E+03	-9.46993000E+02	-2.25043000E+03
					 3.74880000E+03	-8.62360000E+02	-8.84746000E+02
					 4.11413000E+03	-5.64377000E+02	 5.83414000E+02
					 2.51352000E+03	-1.58620000E+02	 1.63430000E+03
					-1.99498000E+02	 2.09624000E+02	 1.92984000E+03
					-2.75663000E+03	 3.82133000E+02	 1.29287000E+03
					-4.04894000E+03	 3.37825000E+02	 1.03098000E+02
					-3.43013000E+03	 1.29507000E+02	-1.15548000E+03
					-1.28432000E+03	-1.35756000E+02	-1.97222000E+03
					 1.52726000E+03	-3.13796000E+02	-1.93687000E+03
					 3.71982000E+03	-3.56804000E+02	-1.19437000E+03
					 4.44150000E+03	-2.14120000E+02	-5.16966000E+01
					 3.39605000E+03	-3.15788000E+00	 8.65118000E+02
					 1.59939000E+03	 3.28204000E+02	 8.67083000E+02
					 2.01586000E+03	 1.38380000E+00	-1.13166000E+03
					 4.26420000E+03	-6.45615000E+02	-1.02984000E+03
					 5.56287000E+03	-8.22817000E+02	 1.25857000E+02
					 4.67468000E+03	-5.90097000E+02	 1.49416000E+03
					 2.02291000E+03	-3.81943000E+00	 2.30223000E+03
					-1.40156000E+03	 5.92434000E+02	 2.20244000E+03
					-4.10990000E+03	 9.22818000E+02	 1.15610000E+03
					-5.06580000E+03	 8.49293000E+02	-3.12142000E+02
					-3.84548000E+03	 4.29033000E+02	-1.57050000E+03
					-1.10701000E+03	-1.33744000E+02	-2.11177000E+03
					 1.95261000E+03	-5.48200000E+02	-1.62520000E+03
					 3.94566000E+03	-6.59767000E+02	-3.85864000E+02
					 3.94795000E+03	-4.31909000E+02	 1.15884000E+03
					 1.90131000E+03	-4.08939000E+00	 2.47319000E+03
					-1.48434000E+03	 3.64349000E+02	 3.12091000E+03
					 2.01586000E+03	-1.38380000E+00	 1.13166000E+03
					 4.26420000E+03	 6.45615000E+02	 1.02984000E+03
					 5.56287000E+03	 8.22817000E+02	-1.25857000E+02
					 4.67468000E+03	 5.90097000E+02	-1.49416000E+03
					 2.02291000E+03	 3.81943000E+00	-2.30223000E+03
					-1.40156000E+03	-5.92434000E+02	-2.20244000E+03
					-4.10990000E+03	-9.22818000E+02	-1.15610000E+03
					-5.06580000E+03	-8.49293000E+02	 3.12142000E+02
					-3.84548000E+03	-4.29033000E+02	 1.57050000E+03
					-1.10701000E+03	 1.33744000E+02	 2.11177000E+03
					 1.95261000E+03	 5.48200000E+02	 1.62520000E+03
					 3.94566000E+03	 6.59767000E+02	 3.85864000E+02
					 3.94795000E+03	 4.31909000E+02	-1.15884000E+03
					 1.90131000E+03	 4.08939000E+00	-2.47319000E+03
					-1.48434000E+03	-3.64349000E+02	-3.12091000E+03
					 0.00000000E+00	 0.00000000E+00	 0.00000000E+00
					 0.00000000E+00	 0.00000000E+00	 0.00000000E+00
					 0.00000000E+00	 0.00000000E+00	 0.00000000E+00
					 0.00000000E+00	 0.00000000E+00	 0.00000000E+00
					 0.00000000E+00	 0.00000000E+00	 0.00000000E+00
					-5.76854000E+03	 0.00000000E+00	 0.00000000E+00
					-5.68137000E+03	-3.22731000E+02	-1.63197000E+03
					-5.67136000E+03	 0.00000000E+00	 0.00000000E+00
					-5.68137000E+03	 3.22731000E+02	 1.63197000E+03
					-5.37645000E+03	 0.00000000E+00	 0.00000000E+00
					 1.49138000E+03	 0.00000000E+00	 0.00000000E+00
					 3.50622000E+03	-1.22507000E+01	 2.63184000E+02
					 3.59554000E+03	 0.00000000E+00	 0.00000000E+00
					 3.50622000E+03	 1.22507000E+01	-2.63184000E+02
					 4.53208000E+03	 0.00000000E+00	 0.00000000E+00
					 3.87578000E+03	-1.83355000E+02	-5.34106000E+02
					 3.92466000E+03	 0.00000000E+00	 0.00000000E+00
					 3.87578000E+03	 1.83355000E+02	 5.34106000E+02
					 1.56633000E+03	 0.00000000E+00	 0.00000000E+00
					-1.33490000E+03	-4.42645000E+01	-8.69144000E+02
					-1.34012000E+03	 0.00000000E+00	 0.00000000E+00
					-1.33490000E+03	 4.42645000E+01	 8.69144000E+02
					-3.58360000E+03	 0.00000000E+00	 0.00000000E+00
					-4.20828000E+03	 1.72160000E+02	 2.20971000E+01
					-4.24645000E+03	 0.00000000E+00	 0.00000000E+00
					-4.20828000E+03	-1.72160000E+02	-2.20971000E+01
					-2.87931000E+03	 0.00000000E+00	 0.00000000E+00
					-2.10677000E+02	 7.06009000E+01	 8.13196000E+02
					-2.11540000E+02	 0.00000000E+00	 0.00000000E+00
					-2.10677000E+02	-7.06009000E+01	-8.13196000E+02
					 2.60969000E+03	 0.00000000E+00	 0.00000000E+00
					 4.29013000E+03	-2.98413000E+02	 2.46697000E+02
					 4.33706000E+03	 0.00000000E+00	 0.00000000E+00
					 4.29013000E+03	 2.98413000E+02	-2.46697000E+02
					 3.93782000E+03	 0.00000000E+00	 0.00000000E+00
					 1.54624000E+03	-4.46998000E+02	-1.01667000E+03
					 1.59715000E+03	 0.00000000E+00	 0.00000000E+00
					 1.54624000E+03	 4.46998000E+02	 1.01667000E+03
					-2.10045000E+03	 0.00000000E+00	 0.00000000E+00
					 1.85275000E+03	-2.05980000E+02	-1.01854000E+03
					 3.47350000E+03	-1.50129000E+02	-9.60407000E+02
					 3.64397000E+03	-3.12212000E+02	-9.93253000E+02
					 3.93055000E+03	-4.91135000E+02	-1.15589000E+03
					 4.62599000E+03	-2.81143000E+02	 8.14569000E+01
					 3.66482000E+03	 1.12881000E+02	 1.27476000E+03
					 3.86414000E+03	-1.14600000E+02	 1.35173000E+03
					 4.16976000E+03	-3.28147000E+02	 1.51010000E+03
					 1.64441000E+03	 1.63350000E+02	 2.15172000E+03
					-1.18128000E+03	 2.58105000E+02	 2.05210000E+03
					-1.18845000E+03	 3.71306000E+02	 2.11240000E+03
					-1.25556000E+03	 5.02442000E+02	 2.31257000E+03
					-3.39294000E+03	 3.90358000E+02	 1.17879000E+03
					-3.94207000E+03	-4.17820000E+01	-1.88795000E+02
					-4.12085000E+03	 2.54159000E+02	-2.11049000E+02
					-4.47532000E+03	 5.42762000E+02	-2.48650000E+02
					-2.99164000E+03	 5.57040000E+00	-1.45873000E+03
					-3.94466000E+02	-2.09764000E+02	-2.04585000E+03
					-6.12608000E+02	-1.85560000E+02	-2.05302000E+03
					-8.45057000E+02	-1.89385000E+02	-2.20327000E+03
					 1.97486000E+03	-2.07828000E+02	-1.66657000E+03
					 3.70375000E+03	 2.49059000E+02	-5.33864000E+02
					 3.57507000E+03	-5.58290000E+01	-5.00365000E+02
					 3.63317000E+03	-3.67680000E+02	-5.17069000E+02
					 3.35025000E+03	 2.18824000E+02	 1.03024000E+03
					 1.24565000E+03	 7.32219000E+02	 2.38857000E+03
					 1.27876000E+03	 4.79748000E+02	 2.37816000E+03
					 1.49061000E+03	 2.47372000E+02	 2.45698000E+03
					-2.03098000E+03	 6.10518000E+02	 3.10620000E+03
					 1.89990000E+03	 0.00000000E+00	 0.00000000E+00
					 4.39087000E+03	-3.04330000E+02	-2.66328000E+02
					 4.48819000E+03	 0.00000000E+00	 0.00000000E+00
					 4.39087000E+03	 3.04330000E+02	 2.66328000E+02
					 5.63636000E+03	 0.00000000E+00	 0.00000000E+00
					 4.84390000E+03	-3.00566000E+02	 6.29999000E+02
					 4.88314000E+03	 0.00000000E+00	 0.00000000E+00
					 4.84390000E+03	 3.00566000E+02	-6.29999000E+02
					 2.05524000E+03	 0.00000000E+00	 0.00000000E+00
					-1.45188000E+03	 2.60889000E+02	 9.01369000E+02
					-1.45086000E+03	 0.00000000E+00	 0.00000000E+00
					-1.45188000E+03	-2.60889000E+02	-9.01369000E+02
					-4.25662000E+03	 0.00000000E+00	 0.00000000E+00
					-5.23116000E+03	 4.22252000E+02	-1.45433000E+02
					-5.25858000E+03	 0.00000000E+00	 0.00000000E+00
					-5.23116000E+03	-4.22252000E+02	 1.45433000E+02
					-3.96153000E+03	 0.00000000E+00	 0.00000000E+00
					-1.12107000E+03	-2.33726000E+01	-8.63907000E+02
					-1.11859000E+03	 0.00000000E+00	 0.00000000E+00
					-1.12107000E+03	 2.33726000E+01	 8.63907000E+02
					 2.04819000E+03	 0.00000000E+00	 0.00000000E+00
					 4.12113000E+03	-3.06979000E+02	-1.06841000E+02
					 4.16290000E+03	 0.00000000E+00	 0.00000000E+00
					 4.12113000E+03	 3.06979000E+02	 1.06841000E+02
					 4.13666000E+03	 0.00000000E+00	 0.00000000E+00
					 2.04007000E+03	-2.64746000E+01	 1.14595000E+03
					 2.08667000E+03	 0.00000000E+00	 0.00000000E+00
					 2.04007000E+03	 2.64746000E+01	-1.14595000E+03
					-1.43265000E+03	 0.00000000E+00	 0.00000000E+00
					 1.85275000E+03	 2.05980000E+02	 1.01854000E+03
					 3.93055000E+03	 4.91135000E+02	 1.15589000E+03
					 3.64397000E+03	 3.12212000E+02	 9.93253000E+02
					 3.47350000E+03	 1.50129000E+02	 9.60407000E+02
					 4.62599000E+03	 2.81143000E+02	-8.14569000E+01
					 4.16976000E+03	 3.28147000E+02	-1.51010000E+03
					 3.86414000E+03	 1.14600000E+02	-1.35173000E+03
					 3.66482000E+03	-1.12881000E+02	-1.27476000E+03
					 1.64441000E+03	-1.63350000E+02	-2.15172000E+03
					-1.25556000E+03	-5.02442000E+02	-2.31257000E+03
					-1.18845000E+03	-3.71306000E+02	-2.11240000E+03
					-1.18128000E+03	-2.58105000E+02	-2.05210000E+03
					-3.39294000E+03	-3.90358000E+02	-1.17879000E+03
					-4.47532000E+03	-5.42762000E+02	 2.48650000E+02
					-4.12085000E+03	-2.54159000E+02	 2.11049000E+02
					-3.94207000E+03	 4.17820000E+01	 1.88795000E+02
					-2.99164000E+03	-5.57040000E+00	 1.45873000E+03
					-8.45057000E+02	 1.89385000E+02	 2.20327000E+03
					-6.12608000E+02	 1.85560000E+02	 2.05302000E+03
					-3.94466000E+02	 2.09764000E+02	 2.04585000E+03
					 1.97486000E+03	 2.07828000E+02	 1.66657000E+03
					 3.63317000E+03	 3.67680000E+02	 5.17069000E+02
					 3.57507000E+03	 5.58290000E+01	 5.00365000E+02
					 3.70375000E+03	-2.49059000E+02	 5.33864000E+02
					 3.35025000E+03	-2.18824000E+02	-1.03024000E+03
					 1.49061000E+03	-2.47372000E+02	-2.45698000E+03
					 1.27876000E+03	-4.79748000E+02	-2.37816000E+03
					 1.24565000E+03	-7.32219000E+02	-2.38857000E+03
					-2.03098000E+03	-6.10518000E+02	-3.10620000E+03
					 1.71340000E+03	 0.00000000E+00	 0.00000000E+00
					 3.68227000E+03	 0.00000000E+00	 0.00000000E+00
					 3.76379000E+03	 1.39793000E+02	 3.45650000E+02
					 3.86057000E+03	 0.00000000E+00	 0.00000000E+00
					 3.76379000E+03	-1.39793000E+02	-3.45650000E+02
					 4.15495000E+03	 0.00000000E+00	 0.00000000E+00
					 4.74379000E+03	 0.00000000E+00	 0.00000000E+00
					 3.86668000E+03	 0.00000000E+00	 0.00000000E+00
					 4.04042000E+03	 4.21327000E+01	-6.15992000E+02
					 4.08715000E+03	 0.00000000E+00	 0.00000000E+00
					 4.04042000E+03	-4.21327000E+01	 6.15992000E+02
					 4.38978000E+03	 0.00000000E+00	 0.00000000E+00
					 1.69496000E+03	 0.00000000E+00	 0.00000000E+00
					-1.23725000E+03	 0.00000000E+00	 0.00000000E+00
					-1.24601000E+03	-1.62777000E+02	-9.58392000E+02
					-1.25158000E+03	 0.00000000E+00	 0.00000000E+00
					-1.24601000E+03	 1.62777000E+02	 9.58392000E+02
					-1.31257000E+03	 0.00000000E+00	 0.00000000E+00
					-3.56973000E+03	 0.00000000E+00	 0.00000000E+00
					-4.14014000E+03	 0.00000000E+00	 0.00000000E+00
					-4.29953000E+03	-1.13920000E+02	 9.09730000E+01
					-4.33952000E+03	 0.00000000E+00	 0.00000000E+00
					-4.29953000E+03	 1.13920000E+02	-9.09730000E+01
					-4.68335000E+03	 0.00000000E+00	 0.00000000E+00