<?xml version="1.0"?>
<VTKFile type="UnstructuredGrid" version="0.1" byte_order="LittleEndian">
	<UnstructuredGrid>
		<Piece NumberOfPoints="261" NumberOfCells="32">
			<Points>
				<DataArray type="Float64" NumberOfComponents="3" format="ascii">
					 0.00000000E+00	 0.00000000E+00	 0.00000000E+00
					 1.00000000E+00	 0.00000000E+00	 0.00000000E+00
					 1.00000000E+00	 1.00000000E+00	 0.00000000E+00
					 0.00000000E+00	 1.00000000E+00	 0.00000000E+00
					 0.00000000E+00	 0.00000000E+00	 8.00000000E+00
					 1.00000000E+00	 0.00000000E+00	 8.00000000E+00
					 1.00000000E+00	 1.00000000E+00	 8.00000000E+00
					 0.00000000E+00	 1.00000000E+00	 8.00000000E+00
					 2.50000000E-01	 0.00000000E+00	 0.00000000E+00
					 5.00000000E-01	 0.00000000E+00	 0.00000000E+00
					 7.50000000E-01	 0.00000000E+00	 0.00000000E+00
					 1.00000000E+00	 2.50000000E-01	 0.00000000E+00
					 1.00000000E+00	 5.00000000E-01	 0.00000000E+00
					 1.00000000E+00	 7.50000000E-01	 0.00000000E+00
					 7.50000000E-01	 1.00000000E+00	 0.00000000E+00
					 5.00000000E-01	 1.00000000E+00	 0.00000000E+00
					 2.50000000E-01	 1.00000000E+00	 0.00000000E+00
					 0.00000000E+00	 7.50000000E-01	 0.00000000E+00
					 0.00000000E+00	 5.00000000E-01	 0.00000000E+00
					 0.00000000E+00	 2.50000000E-01	 0.00000000E+00
					 2.50000000E-01	 0.00000000E+00	 8.00000000E+00
					 5.00000000E-01	 0.00000000E+00	 8.00000000E+00
					 7.50000000E-01	 0.00000000E+00	 8.00000000E+00
					 1.00000000E+00	 2.50000000E-01	 8.00000000E+00
					 1.00000000E+00	 5.00000000E-01	 8.00000000E+00
					 1.00000000E+00	 7.50000000E-01	 8.00000000E+00
					 7.50000000E-01	 1.00000000E+00	 8.00000000E+00
					 5.00000000E-01	 1.00000000E+00	 8.00000000E+00
					 2.50000000E-01	 1.00000000E+00	 8.00000000E+00
					 0.00000000E+00	 7.50000000E-01	 8.00000000E+00
					 0.00000000E+00	 5.00000000E-01	 8.00000000E+00
					 0.00000000E+00	 2.50000000E-01	 8.00000000E+00
					 1.00000000E+00	 0.00000000E+00	 5.00000000E-01
					 1.00000000E+00	 0.00000000E+00	 1.00000000E+00
					 1.00000000E+00	 0.00000000E+00	 1.50000000E+00
					 1.00000000E+00	 0.00000000E+00	 2.00000000E+00
					 1.00000000E+00	 0.00000000E+00	 2.50000000E+00
					 1.00000000E+00	 0.00000000E+00	 3.00000000E+00
					 1.00000000E+00	 0.00000000E+00	 3.50000000E+00
					 1.00000000E+00	 0.00000000E+00	 4.00000000E+00
					 1.00000000E+00	 0.00000000E+00	 4.50000000E+00
					 1.00000000E+00	 0.00000000E+00	 5.00000000E+00
					 1.00000000E+00	 0.00000000E+00	 5.50000000E+00
					 1.00000000E+00	 0.00000000E+00	 6.00000000E+00
					 1.00000000E+00	 0.00000000E+00	 6.50000000E+00
					 1.00000000E+00	 0.00000000E+00	 7.00000000E+00
					 1.00000000E+00	 0.00000000E+00	 7.50000000E+00
					 0.00000000E+00	 0.00000000E+00	 7.50000000E+00
					 0.00000000E+00	 0.00000000E+00	 7.00000000E+00
					 0.00000000E+00	 0.00000000E+00	 6.50000000E+00
					 0.00000000E+00	 0.00000000E+00	 6.00000000E+00
					 0.00000000E+00	 0.00000000E+00	 5.50000000E+00
					 0.00000000E+00	 0.00000000E+00	 5.00000000E+00
					 0.00000000E+00	 0.00000000E+00	 4.50000000E+00
					 0.00000000E+00	 0.00000000E+00	 4.00000000E+00
					 0.00000000E+00	 0.00000000E+00	 3.50000000E+00
					 0.00000000E+00	 0.00000000E+00	 3.00000000E+00
					 0.00000000E+00	 0.00000000E+00	 2.50000000E+00
					 0.00000000E+00	 0.00000000E+00	 2.00000000E+00
					 0.00000000E+00	 0.00000000E+00	 1.50000000E+00
					 0.00000000E+00	 0.00000000E+00	 1.00000000E+00
					 0.00000000E+00	 0.00000000E+00	 5.00000000E-01
					 1.00000000E+00	 1.00000000E+00	 5.00000000E-01
					 1.00000000E+00	 1.00000000E+00	 1.00000000E+00
					 1.00000000E+00	 1.00000000E+00	 1.50000000E+00
					 1.00000000E+00	 1.00000000E+00	 2.00000000E+00
					 1.00000000E+00	 1.00000000E+00	 2.50000000E+00
					 1.00000000E+00	 1.00000000E+00	 3.00000000E+00
					 1.00000000E+00	 1.00000000E+00	 3.50000000E+00
					 1.00000000E+00	 1.00000000E+00	 4.00000000E+00
					 1.00000000E+00	 1.00000000E+00	 4.50000000E+00
					 1.00000000E+00	 1.00000000E+00	 5.00000000E+00
					 1.00000000E+00	 1.00000000E+00	 5.50000000E+00
					 1.00000000E+00	 1.00000000E+00	 6.00000000E+00
					 1.00000000E+00	 1.00000000E+00	 6.50000000E+00
					 1.00000000E+00	 1.00000000E+00	 7.00000000E+00
					 1.00000000E+00	 1.00000000E+00	 7.50000000E+00
					 0.00000000E+00	 1.00000000E+00	 5.00000000E-01
					 0.00000000E+00	 1.00000000E+00	 1.00000000E+00
					 0.00000000E+00	 1.00000000E+00	 1.50000000E+00
					 0.00000000E+00	 1.00000000E+00	 2.00000000E+00
					 0.00000000E+00	 1.00000000E+00	 2.50000000E+00
					 0.00000000E+00	 1.00000000E+00	 3.00000000E+00
					 0.00000000E+00	 1.00000000E+00	 3.50000000E+00
					 0.00000000E+00	 1.00000000E+00	 4.00000000E+00
					 0.00000000E+00	 1.00000000E+00	 4.50000000E+00
					 0.00000000E+00	 1.00000000E+00	 5.00000000E+00
					 0.00000000E+00	 1.00000000E+00	 5.50000000E+00
					 0.00000000E+00	 1.00000000E+00	 6.00000000E+00
					 0.00000000E+00	 1.00000000E+00	 6.50000000E+00
					 0.00000000E+00	 1.00000000E+00	 7.00000000E+00
					 0.00000000E+00	 1.00000000E+00	 7.50000000E+00
					 5.00000000E-01	 2.50000000E-01	 0.00000000E+00
					 2.50000000E-01	 5.00000000E-01	 0.00000000E+00
					 5.00000000E-01	 5.00000000E-01	 0.00000000E+00
					 7.50000000E-01	 5.00000000E-01	 0.00000000E+00
					 5.00000000E-01	 7.50000000E-01	 0.00000000E+00
					 5.00000000E-01	 2.50000000E-01	 8.00000000E+00
					 2.50000000E-01	 5.00000000E-01	 8.00000000E+00
					 5.00000000E-01	 5.00000000E-01	 8.00000000E+00
					 7.50000000E-01	 5.00000000E-01	 8.00000000E+00
					 5.00000000E-01	 7.50000000E-01	 8.00000000E+00
					 5.00000000E-01	 0.00000000E+00	 5.00000000E-01
					 2.50000000E-01	 0.00000000E+00	 1.00000000E+00
					 5.00000000E-01	 0.00000000E+00	 1.00000000E+00
					 7.50000000E-01	 0.00000000E+00	 1.00000000E+00
					 5.00000000E-01	 0.00000000E+00	 1.50000000E+00
					 2.50000000E-01	 0.00000000E+00	 2.00000000E+00
					 5.00000000E-01	 0.00000000E+00	 2.00000000E+00
					 7.50000000E-01	 0.00000000E+00	 2.00000000E+00
					 5.00000000E-01	 0.00000000E+00	 2.50000000E+00
					 2.50000000E-01	 0.00000000E+00	 3.00000000E+00
					 5.00000000E-01	 0.00000000E+00	 3.00000000E+00
					 7.50000000E-01	 0.00000000E+00	 3.00000000E+00
					 5.00000000E-01	 0.00000000E+00	 3.50000000E+00
					 2.50000000E-01	 0.00000000E+00	 4.00000000E+00
					 5.00000000E-01	 0.00000000E+00	 4.00000000E+00
					 7.50000000E-01	 0.00000000E+00	 4.00000000E+00
					 5.00000000E-01	 0.00000000E+00	 4.50000000E+00
					 2.50000000E-01	 0.00000000E+00	 5.00000000E+00
					 5.00000000E-01	 0.00000000E+00	 5.00000000E+00
					 7.50000000E-01	 0.00000000E+00	 5.00000000E+00
					 5.00000000E-01	 0.00000000E+00	 5.50000000E+00
					 2.50000000E-01	 0.00000000E+00	 6.00000000E+00
					 5.00000000E-01	 0.00000000E+00	 6.00000000E+00
					 7.50000000E-01	 0.00000000E+00	 6.00000000E+00
					 5.00000000E-01	 0.00000000E+00	 6.50000000E+00
					 2.50000000E-01	 0.00000000E+00	 7.00000000E+00
					 5.00000000E-01	 0.00000000E+00	 7.00000000E+00
					 7.50000000E-01	 0.00000000E+00	 7.00000000E+00
					 5.00000000E-01	 0.00000000E+00	 7.50000000E+00
					 1.00000000E+00	 5.00000000E-01	 5.00000000E-01
					 1.00000000E+00	 2.50000000E-01	 1.00000000E+00
					 1.00000000E+00	 5.00000000E-01	 1.00000000E+00
					 1.00000000E+00	 7.50000000E-01	 1.00000000E+00
					 1.00000000E+00	 5.00000000E-01	 1.50000000E+00
					 1.00000000E+00	 2.50000000E-01	 2.00000000E+00
					 1.00000000E+00	 5.00000000E-01	 2.00000000E+00
					 1.00000000E+00	 7.50000000E-01	 2.00000000E+00
					 1.00000000E+00	 5.00000000E-01	 2.50000000E+00
					 1.00000000E+00	 2.50000000E-01	 3.00000000E+00
					 1.00000000E+00	 5.00000000E-01	 3.00000000E+00
					 1.00000000E+00	 7.50000000E-01	 3.00000000E+00
					 1.00000000E+00	 5.00000000E-01	 3.50000000E+00
					 1.00000000E+00	 2.50000000E-01	 4.00000000E+00
					 1.00000000E+00	 5.00000000E-01	 4.00000000E+00
					 1.00000000E+00	 7.50000000E-01	 4.00000000E+00
					 1.00000000E+00	 5.00000000E-01	 4.50000000E+00
					 1.00000000E+00	 2.50000000E-01	 5.00000000E+00
					 1.00000000E+00	 5.00000000E-01	 5.00000000E+00
					 1.00000000E+00	 7.50000000E-01	 5.00000000E+00
					 1.00000000E+00	 5.00000000E-01	 5.50000000E+00
					 1.00000000E+00	 2.50000000E-01	 6.00000000E+00
					 1.00000000E+00	 5.00000000E-01	 6.00000000E+00
					 1.00000000E+00	 7.50000000E-01	 6.00000000E+00
					 1.00000000E+00	 5.00000000E-01	 6.50000000E+00
					 1.00000000E+00	 2.50000000E-01	 7.00000000E+00
					 1.00000000E+00	 5.00000000E-01	 7.00000000E+00
					 1.00000000E+00	 7.50000000E-01	 7.00000000E+00
					 1.00000000E+00	 5.00000000E-01	 7.50000000E+00
					 5.00000000E-01	 1.00000000E+00	 5.00000000E-01
					 7.50000000E-01	 1.00000000E+00	 1.00000000E+00
					 5.00000000E-01	 1.00000000E+00	 1.00000000E+00
					 2.50000000E-01	 1.00000000E+00	 1.00000000E+00
					 5.00000000E-01	 1.00000000E+00	 1.50000000E+00
					 7.50000000E-01	 1.00000000E+00	 2.00000000E+00
					 5.00000000E-01	 1.00000000E+00	 2.00000000E+00
					 2.50000000E-01	 1.00000000E+00	 2.00000000E+00
					 5.00000000E-01	 1.00000000E+00	 2.50000000E+00
					 7.50000000E-01	 1.00000000E+00	 3.00000000E+00
					 5.00000000E-01	 1.00000000E+00	 3.00000000E+00
					 2.50000000E-01	 1.00000000E+00	 3.00000000E+00
					 5.00000000E-01	 1.00000000E+00	 3.50000000E+00
					 7.50000000E-01	 1.00000000E+00	 4.00000000E+00
					 5.00000000E-01	 1.00000000E+00	 4.00000000E+00
					 2.50000000E-01	 1.00000000E+00	 4.00000000E+00
					 5.00000000E-01	 1.00000000E+00	 4.50000000E+00
					 7.50000000E-01	 1.00000000E+00	 5.00000000E+00
					 5.00000000E-01	 1.00000000E+00	 5.00000000E+00
					 2.50000000E-01	 1.00000000E+00	 5.00000000E+00
					 5.00000000E-01	 1.00000000E+00	 5.50000000E+00
					 7.50000000E-01	 1.00000000E+00	 6.00000000E+00
					 5.00000000E-01	 1.00000000E+00	 6.00000000E+00
					 2.50000000E-01	 1.00000000E+00	 6.00000000E+00
					 5.00000000E-01	 1.00000000E+00	 6.50000000E+00
					 7.50000000E-01	 1.00000000E+00	 7.00000000E+00
					 5.00000000E-01	 1.00000000E+00	 7.00000000E+00
					 2.50000000E-01	 1.00000000E+00	 7.00000000E+00
					 5.00000000E-01	 1.00000000E+00	 7.50000000E+00
					 0.00000000E+00	 5.00000000E-01	 5.00000000E-01
					 0.00000000E+00	 7.50000000E-01	 1.00000000E+00
					 0.00000000E+00	 5.00000000E-01	 1.00000000E+00
					 0.00000000E+00	 2.50000000E-01	 1.00000000E+00
					 0.00000000E+00	 5.00000000E-01	 1.50000000E+00
					 0.00000000E+00	 7.50000000E-01	 2.00000000E+00
					 0.00000000E+00	 5.00000000E-01	 2.00000000E+00
					 0.00000000E+00	 2.50000000E-01	 2.00000000E+00
					 0.00000000E+00	 5.00000000E-01	 2.50000000E+00
					 0.00000000E+00	 7.50000000E-01	 3.00000000E+00
					 0.00000000E+00	 5.00000000E-01	 3.00000000E+00
					 0.00000000E+00	 2.50000000E-01	 3.00000000E+00
					 0.00000000E+00	 5.00000000E-01	 3.50000000E+00
					 0.00000000E+00	 7.50000000E-01	 4.00000000E+00
					 0.00000000E+00	 5.00000000E-01	 4.00000000E+00
					 0.00000000E+00	 2.50000000E-01	 4.00000000E+00
					 0.00000000E+00	 5.00000000E-01	 4.50000000E+00
					 0.00000000E+00	 7.50000000E-01	 5.00000000E+00
					 0.00000000E+00	 5.00000000E-01	 5.00000000E+00
					 0.00000000E+00	 2.50000000E-01	 5.00000000E+00
					 0.00000000E+00	 5.00000000E-01	 5.50000000E+00
					 0.00000000E+00	 7.50000000E-01	 6.00000000E+00
					 0.00000000E+00	 5.00000000E-01	 6.00000000E+00
					 0.00000000E+00	 2.50000000E-01	 6.00000000E+00
					 0.00000000E+00	 5.00000000E-01	 6.50000000E+00
					 0.00000000E+00	 7.50000000E-01	 7.00000000E+00
					 0.00000000E+00	 5.00000000E-01	 7.00000000E+00
					 0.00000000E+00	 2.50000000E-01	 7.00000000E+00
					 0.00000000E+00	 5.00000000E-01	 7.50000000E+00
					 5.00000000E-01	 5.00000000E-01	 5.00000000E-01
					 5.00000000E-01	 2.50000000E-01	 1.00000000E+00
					 2.50000000E-01	 5.00000000E-01	 1.00000000E+00
					 5.00000000E-01	 5.00000000E-01	 1.00000000E+00
					 7.50000000E-01	 5.00000000E-01	 1.00000000E+00
					 5.00000000E-01	 7.50000000E-01	 1.00000000E+00
					 5.00000000E-01	 5.00000000E-01	 1.50000000E+00
					 5.00000000E-01	 2.50000000E-01	 2.00000000E+00
					 2.50000000E-01	 5.00000000E-01	 2.00000000E+00
					 5.00000000E-01	 5.00000000E-01	 2.00000000E+00
					 7.50000000E-01	 5.00000000E-01	 2.00000000E+00
					 5.00000000E-01	 7.50000000E-01	 2.00000000E+00
					 5.00000000E-01	 5.00000000E-01	 2.50000000E+00
					 5.00000000E-01	 2.50000000E-01	 3.00000000E+00
					 2.50000000E-01	 5.00000000E-01	 3.00000000E+00
					 5.00000000E-01	 5.00000000E-01	 3.00000000E+00
					 7.50000000E-01	 5.00000000E-01	 3.00000000E+00
					 5.00000000E-01	 7.50000000E-01	 3.00000000E+00
					 5.00000000E-01	 5.00000000E-01	 3.50000000E+00
					 5.00000000E-01	 2.50000000E-01	 4.00000000E+00
					 2.50000000E-01	 5.00000000E-01	 4.00000000E+00
					 5.00000000E-01	 5.00000000E-01	 4.00000000E+00
					 7.50000000E-01	 5.00000000E-01	 4.00000000E+00
					 5.00000000E-01	 7.50000000E-01	 4.00000000E+00
					 5.00000000E-01	 5.00000000E-01	 4.50000000E+00
					 5.00000000E-01	 2.50000000E-01	 5.00000000E+00
					 2.50000000E-01	 5.00000000E-01	 5.00000000E+00
					 5.00000000E-01	 5.00000000E-01	 5.00000000E+00
					 7.50000000E-01	 5.00000000E-01	 5.00000000E+00
					 5.00000000E-01	 7.50000000E-01	 5.00000000E+00
					 5.00000000E-01	 5.00000000E-01	 5.50000000E+00
					 5.00000000E-01	 2.50000000E-01	 6.00000000E+00
					 2.50000000E-01	 5.00000000E-01	 6.00000000E+00
					 5.00000000E-01	 5.00000000E-01	 6.00000000E+00
					 7.50000000E-01	 5.00000000E-01	 6.00000000E+00
					 5.00000000E-01	 7.50000000E-01	 6.00000000E+00
					 5.00000000E-01	 5.00000000E-01	 6.50000000E+00
					 5.00000000E-01	 2.50000000E-01	 7.00000000E+00
					 2.50000000E-01	 5.00000000E-01	 7.00000000E+00
					 5.00000000E-01	 5.00000000E-01	 7.00000000E+00
					 7.50000000E-01	 5.00000000E-01	 7.00000000E+00
					 5.00000000E-01	 7.50000000E-01	 7.00000000E+00
					 5.00000000E-01	 5.00000000E-01	 7.50000000E+00

				</DataArray>
			</Points>
			<Cells>
				<DataArray type="Int32" Name="connectivity" format="ascii">
					0 9 94 18 60 104 221 191 8 92 93 19 103 219 220 192 61 102 218 189 9 1 12 94 104 33 133 221 10 11 95 92 105 132 222 219 102 32 131 218 18 94 15 3 191 221 162 78 93 96 16 17 220 223 163 190 189 218 160 77 94 12 2 15 221 133 63 162 95 13 14 96 222 134 161 223 218 131 62 160 60 104 221 191 58 108 227 195 103 219 220 192 107 225 226 196 59 106 224 193 104 33 133 221 108 35 137 227 105 132 222 219 109 136 228 225 106 34 135 224 191 221 162 78 195 227 166 80 220 223 163 190 226 229 167 194 193 224 164 79 221 133 63 162 227 137 65 166 222 134 161 223 228 138 165 229 224 135 64 164 58 108 227 195 56 112 233 199 107 225 226 196 111 231 232 200 57 110 230 197 108 35 137 227 112 37 141 233 109 136 228 225 113 140 234 231 110 36 139 230 195 227 166 80 199 233 170 82 226 229 167 194 232 235 171 198 197 230 168 81 227 137 65 166 233 141 67 170 228 138 165 229 234 142 169 235 230 139 66 168 56 112 233 199 54 116 239 203 111 231 232 200 115 237 238 204 55 114 236 201 112 37 141 233 116 39 145 239 113 140 234 231 117 144 240 237 114 38 143 236 199 233 170 82 203 239 174 84 232 235 171 198 238 241 175 202 201 236 172 83 233 141 67 170 239 145 69 174 234 142 169 235 240 146 173 241 236 143 68 172 54 116 239 203 52 120 245 207 115 237 238 204 119 243 244 208 53 118 242 205 116 39 145 239 120 41 149 245 117 144 240 237 121 148 246 243 118 40 147 242 203 239 174 84 207 245 178 86 238 241 175 202 244 247 179 206 205 242 176 85 239 145 69 174 245 149 71 178 240 146 173 241 246 150 177 247 242 147 70 176 52 120 245 207 50 124 251 211 119 243 244 208 123 249 250 212 51 122 248 209 120 41 149 245 124 43 153 251 121 148 246 243 125 152 252 249 122 42 151 248 207 245 178 86 211 251 182 88 244 247 179 206 250 253 183 210 209 248 180 87 245 149 71 178 251 153 73 182 246 150 177 247 252 154 181 253 248 151 72 180 50 124 251 211 48 128 257 215 123 249 250 212 127 255 256 216 49 126 254 213 124 43 153 251 128 45 157 257 125 152 252 249 129 156 258 255 126 44 155 254 211 251 182 88 215 257 186 90 250 253 183 210 256 259 187 214 213 254 184 89 251 153 73 182 257 157 75 186 252 154 181 253 258 158 185 259 254 155 74 184 48 128 257 215 4 21 99 30 127 255 256 216 20 97 98 31 47 130 260 217 128 45 157 257 21 5 24 99 129 156 258 255 22 23 100 97 130 46 159 260 215 257 186 90 30 99 27 7 256 259 187 214 98 101 28 29 217 260 188 91 257 157 75 186 99 24 6 27 258 158 185 259 100 25 26 101 260 159 76 188 
				</DataArray>
				<DataArray type="Int32" Name="offsets" format="ascii">
					20 40 60 80 100 120 140 160 180 200 220 240 260 280 300 320 340 360 380 400 420 440 460 480 500 520 540 560 580 600 620 640 
				</DataArray>
				<DataArray type="UInt8" Name="types" format="ascii">
					25 25 25 25 25 25 25 25 25 25 25 25 25 25 25 25 25 25 25 25 25 25 25 25 25 25 25 25 25 25 25 25 
				</DataArray>
			</Cells>
			<PointData>
				<DataArray type="Float32" Name="U" NumberOfComponents="3" ComponentName0="D1" ComponentName1="D2" ComponentName2="D3" format="ascii">
					 0.00000000E+00	 0.00000000E+00	 0.00000000E+00
					 0.00000000E+00	 0.00000000E+00	 0.00000000E+00
					 0.00000000E+00	 0.00000000E+00	 0.00000000E+00
					 0.00000000E+00	 0.00000000E+00	 0.00000000E+00
					 2.21381000E-05	 6.97423000E-02	 6.04959000E-03
					-5.36109000E-05	 6.97229000E-02	 6.05028000E-03
					 4.12309000E-05	 6.96416000E-02	-6.75831000E-03
					-3.46679000E-05	 6.96602000E-02	-6.75924000E-03
					 0.00000000E+00	 0.00000000E+00	 0.00000000E+00
					 0.00000000E+00	 0.00000000E+00	 0.00000000E+00
					 0.00000000E+00	 0.00000000E+00	 0.00000000E+00
					 0.00000000E+00	 0.00000000E+00	 0.00000000E+00
					 0.00000000E+00	 0.00000000E+00	 0.00000000E+00
					 0.00000000E+00	 0.00000000E+00	 0.00000000E+00
					 0.00000000E+00	 0.00000000E+00	 0.00000000E+00
					 0.00000000E+00	 0.00000000E+00	 0.00000000E+00
					 0.00000000E+00	 0.00000000E+00	 0.00000000E+00
					 0.00000000E+00	 0.00000000E+00	 0.00000000E+00
					 0.00000000E+00	 0.00000000E+00	 0.00000000E+00
					 0.00000000E+00	 0.00000000E+00	 0.00000000E+00
					 1.40703000E-05	 6.97704000E-02	 6.05537000E-03
					-1.57171000E-05	 6.97146000E-02	 6.05822000E-03
					-4.55466000E-05	 6.97606000E-02	 6.05559000E-03
					-1.29934000E-05	 6.96840000E-02	 2.83311000E-03
					-6.07699000E-06	 6.96298000E-02	-3.52948000E-04
					 5.60291000E-07	 6.96437000E-02	-3.53920000E-03
					 3.31864000E-05	 6.96792000E-02	-6.76419000E-03
					 3.29225000E-06	 6.96327000E-02	-6.76658000E-03
					-2.66195000E-05	 6.96883000E-02	-6.76461000E-03
					-3.70995000E-06	 6.96628000E-02	-3.54077000E-03
					-6.55618000E-06	 6.96494000E-02	-3.54408000E-04
					-9.08819000E-06	 6.97035000E-02	 2.83207000E-03
					-2.76355000E-04	 5.40668000E-04	 8.43085000E-04
					-1.84117000E-04	 1.82440000E-03	 1.64106000E-03
					-2.02340000E-04	 3.95556000E-03	 2.33794000E-03
					-1.71249000E-04	 6.65925000E-03	 2.94650000E-03
					-1.61878000E-04	 9.97621000E-03	 3.47772000E-03
					-1.43845000E-04	 1.37735000E-02	 3.95189000E-03
					-1.31703000E-04	 1.80414000E-02	 4.36618000E-03
					-1.17602000E-04	 2.27068000E-02	 4.72870000E-03
					-1.06997000E-04	 2.77243000E-02	 5.04026000E-03
					-9.78894000E-05	 3.30624000E-02	 5.31639000E-03
					-8.90533000E-05	 3.86723000E-02	 5.55565000E-03
					-7.49791000E-05	 4.45679000E-02	 5.76071000E-03
					-6.41076000E-05	 5.06533000E-02	 5.90415000E-03
					-4.34099000E-05	 5.69486000E-02	 6.01670000E-03
					-5.69661000E-05	 6.32766000E-02	 6.06298000E-03
					 2.65919000E-05	 6.32955000E-02	 6.06193000E-03
					 1.44286000E-05	 5.69676000E-02	 6.01552000E-03
					 3.66562000E-05	 5.06717000E-02	 5.90301000E-03
					 4.90967000E-05	 4.45856000E-02	 5.75944000E-03
					 6.45203000E-05	 3.86898000E-02	 5.55439000E-03
					 7.43742000E-05	 3.30797000E-02	 5.31514000E-03
					 8.46233000E-05	 2.77415000E-02	 5.03906000E-03
					 9.69771000E-05	 2.27233000E-02	 4.72754000E-03
					 1.13618000E-04	 1.80563000E-02	 4.36513000E-03
					 1.28867000E-04	 1.37862000E-02	 3.95099000E-03
					 1.50142000E-04	 9.98643000E-03	 3.47700000E-03
					 1.62520000E-04	 6.66701000E-03	 2.94596000E-03
					 1.96306000E-04	 3.96106000E-03	 2.33756000E-03
					 1.80471000E-04	 1.82781000E-03	 1.64082000E-03
					 2.74752000E-04	 5.42184000E-04	 8.42974000E-04
					 2.76595000E-04	 5.38491000E-04	-8.44406000E-04
					 1.83643000E-04	 1.81817000E-03	-1.64634000E-03
					 2.01695000E-04	 3.94407000E-03	-2.35225000E-03
					 1.70153000E-04	 6.64095000E-03	-2.97523000E-03
					 1.60201000E-04	 9.95120000E-03	-3.52781000E-03
					 1.41396000E-04	 1.37411000E-02	-4.03014000E-03
					 1.28382000E-04	 1.80018000E-02	-4.48009000E-03
					 1.13266000E-04	 2.26602000E-02	-4.88537000E-03
					 1.01605000E-04	 2.76710000E-02	-5.24643000E-03
					 9.13986000E-05	 3.30027000E-02	-5.57867000E-03
					 8.14557000E-05	 3.86066000E-02	-5.88001000E-03
					 6.61888000E-05	 4.44968000E-02	-6.15371000E-03
					 5.42287000E-05	 5.05778000E-02	-6.37006000E-03
					 3.22276000E-05	 5.68699000E-02	-6.56081000E-03
					 4.53866000E-05	 6.31944000E-02	-6.68757000E-03
					-2.75087000E-04	 5.40084000E-04	-8.44513000E-04
					-1.80402000E-04	 1.82164000E-03	-1.64658000E-03
					-1.96643000E-04	 3.94965000E-03	-2.35264000E-03
					-1.63234000E-04	 6.64881000E-03	-2.97577000E-03
					-1.51404000E-04	 9.96152000E-03	-3.52853000E-03
					-1.30822000E-04	 1.37539000E-02	-4.03103000E-03
					-1.16480000E-04	 1.80168000E-02	-4.48115000E-03
					-1.00831000E-04	 2.26767000E-02	-4.88653000E-03
					-8.94815000E-05	 2.76883000E-02	-5.24769000E-03
					-8.03232000E-05	 3.30200000E-02	-5.58000000E-03
					-7.17000000E-05	 3.86238000E-02	-5.88134000E-03
					-5.73335000E-05	 4.45140000E-02	-6.15502000E-03
					-4.59217000E-05	 5.05960000E-02	-6.37153000E-03
					-2.43030000E-05	 5.68882000E-02	-6.56212000E-03
					-3.77773000E-05	 6.32140000E-02	-6.68878000E-03
					 0.00000000E+00	 0.00000000E+00	 0.00000000E+00
					 0.00000000E+00	 0.00000000E+00	 0.00000000E+00
					 0.00000000E+00	 0.00000000E+00	 0.00000000E+00
					 0.00000000E+00	 0.00000000E+00	 0.00000000E+00
					 0.00000000E+00	 0.00000000E+00	 0.00000000E+00
					-1.09993000E-05	 6.98462000E-02	 2.87010000E-03
					-6.28633000E-06	 6.97658000E-02	-3.54453000E-04
					-6.30497000E-06	 6.99989000E-02	-3.54758000E-04
					-6.33321000E-06	 6.97560000E-02	-3.53700000E-04
					-1.49826000E-06	 6.98047000E-02	-3.57999000E-03
					-8.31587000E-07	 6.58961000E-04	 8.21279000E-04
					 8.82906000E-05	 1.91803000E-03	 1.65518000E-03
					-1.82345000E-06	 1.93639000E-03	 1.66637000E-03
					-9.19275000E-05	 1.91632000E-03	 1.65495000E-03
					-3.00413000E-06	 4.05248000E-03	 2.33941000E-03
					 7.90852000E-05	 6.72956000E-03	 2.95223000E-03
					-4.35180000E-06	 6.75369000E-03	 2.95322000E-03
					-8.77962000E-05	 6.72567000E-03	 2.95216000E-03
					-5.86373000E-06	 1.00577000E-02	 3.48017000E-03
					 6.06545000E-05	 1.38352000E-02	 3.95470000E-03
					-7.46616000E-06	 1.38485000E-02	 3.95446000E-03
					-7.56037000E-05	 1.38288000E-02	 3.95476000E-03
					-9.01049000E-06	 1.81114000E-02	 4.36866000E-03
					 4.33769000E-05	 2.27566000E-02	 4.73001000E-03
					-1.02791000E-05	 2.27633000E-02	 4.72910000E-03
					-6.39705000E-05	 2.27484000E-02	 4.73042000E-03
					-1.11708000E-05	 2.77849000E-02	 5.04260000E-03
					 3.11682000E-05	 3.30995000E-02	 5.31547000E-03
					-1.17422000E-05	 3.30988000E-02	 5.31411000E-03
					-5.46642000E-05	 3.30908000E-02	 5.31614000E-03
					-1.23079000E-05	 3.87308000E-02	 5.55833000E-03
					 1.85208000E-05	 4.45912000E-02	 5.75757000E-03
					-1.29679000E-05	 4.45762000E-02	 5.75186000E-03
					-4.44307000E-05	 4.45823000E-02	 5.75815000E-03
					-1.38170000E-05	 5.07073000E-02	 5.91786000E-03
					-1.39406000E-06	 5.69331000E-02	 6.01090000E-03
					-1.45015000E-05	 5.69075000E-02	 6.00470000E-03
					-2.75960000E-05	 5.69235000E-02	 6.01136000E-03
					-1.52681000E-05	 6.33654000E-02	 6.06956000E-03
					 2.31579000E-07	 3.71443000E-04	-4.96043000E-07
					-9.28913000E-05	 1.76179000E-03	 8.03159000E-04
					 6.62696000E-08	 1.77429000E-03	-2.31774000E-06
					 9.27787000E-05	 1.75868000E-03	-8.07979000E-04
					-1.19064000E-07	 3.82896000E-03	-6.49013000E-06
					-8.56819000E-05	 6.60660000E-03	 1.45533000E-03
					-4.23721000E-07	 6.59174000E-03	-1.39093000E-05
					 8.47287000E-05	 6.59758000E-03	-1.48329000E-03
					-7.50743000E-07	 9.87846000E-03	-2.43989000E-05
					-7.25491000E-05	 1.37173000E-02	 1.94849000E-03
					-1.13579000E-06	 1.36970000E-02	-3.86067000E-05
					 7.01980000E-05	 1.37012000E-02	-2.02594000E-03
					-1.59862000E-06	 1.79587000E-02	-5.63592000E-05
					-5.98564000E-05	 2.26548000E-02	 2.31832000E-03
					-2.11345000E-06	 2.26290000E-02	-7.77775000E-05
					 5.55834000E-05	 2.26316000E-02	-2.47415000E-03
					-2.65354000E-06	 2.76512000E-02	-1.02588000E-04
					-5.06213000E-05	 3.30092000E-02	 2.58837000E-03
					-3.17157000E-06	 3.29782000E-02	-1.30535000E-04
					 4.42151000E-05	 3.29794000E-02	-2.84983000E-03
					-3.74254000E-06	 3.86113000E-02	-1.61809000E-04
					-3.90716000E-05	 4.45156000E-02	 2.77441000E-03
					-4.21483000E-06	 4.44783000E-02	-1.95794000E-04
					 3.04762000E-05	 4.44802000E-02	-3.16642000E-03
					-4.82639000E-06	 5.06037000E-02	-2.32820000E-04
					-2.67213000E-05	 5.68744000E-02	 2.86636000E-03
					-5.10922000E-06	 5.68135000E-02	-2.71105000E-04
					 1.61418000E-05	 5.68352000E-02	-3.40974000E-03
					-6.12598000E-06	 6.32970000E-02	-3.12420000E-04
					 8.08002000E-07	 6.56864000E-04	-8.23086000E-04
					 9.17004000E-05	 1.90986000E-03	-1.66106000E-03
					 1.63559000E-06	 1.93002000E-03	-1.67284000E-03
					-8.84417000E-05	 1.91161000E-03	-1.66154000E-03
					 2.53688000E-06	 4.04081000E-03	-2.35507000E-03
					 8.68365000E-05	 6.70730000E-03	-2.98201000E-03
					 3.46942000E-06	 6.73541000E-03	-2.98366000E-03
					-7.99010000E-05	 6.71123000E-03	-2.98263000E-03
					 4.41700000E-06	 1.00326000E-02	-3.53209000E-03
					 7.33230000E-05	 1.37963000E-02	-4.03431000E-03
					 5.28987000E-06	 1.38161000E-02	-4.03472000E-03
					-6.27390000E-05	 1.38027000E-02	-4.03514000E-03
					 5.93747000E-06	 1.80717000E-02	-4.48474000E-03
					 5.97828000E-05	 2.27017000E-02	-4.88841000E-03
					 6.20884000E-06	 2.27166000E-02	-4.88787000E-03
					-4.73480000E-05	 2.27099000E-02	-4.88916000E-03
					 6.04766000E-06	 2.77316000E-02	-5.25110000E-03
					 4.83338000E-05	 3.30311000E-02	-5.57959000E-03
					 5.55009000E-06	 3.30390000E-02	-5.57826000E-03
					-3.72451000E-05	 3.30397000E-02	-5.58020000E-03
					 4.91120000E-06	 3.86650000E-02	-5.88506000E-03
					 3.58181000E-05	 4.45111000E-02	-6.15192000E-03
					 4.47392000E-06	 4.45049000E-02	-6.14598000E-03
					-2.69160000E-05	 4.45197000E-02	-6.15265000E-03
					 4.19242000E-06	 5.06311000E-02	-6.38639000E-03
					 1.67197000E-05	 5.68444000E-02	-6.55586000E-03
					 4.03490000E-06	 5.68283000E-02	-6.54939000E-03
					-8.72878000E-06	 5.68536000E-02	-6.55664000E-03
					 3.73741000E-06	 6.32834000E-02	-6.69624000E-03
					-2.97023000E-07	 3.73081000E-04	-6.05739000E-07
					-9.12680000E-05	 1.76214000E-03	-8.07868000E-04
					-2.86245000E-07	 1.77775000E-03	-2.56365000E-06
					 9.09468000E-05	 1.76522000E-03	 8.02563000E-04
					-3.93876000E-07	 3.83449000E-03	-6.87682000E-06
					-8.17390000E-05	 6.60543000E-03	-1.48349000E-03
					-5.02416000E-07	 6.59957000E-03	-1.44553000E-05
					 8.08484000E-05	 6.61439000E-03	 1.45444000E-03
					-7.46662000E-07	 9.88873000E-03	-2.51190000E-05
					-6.60299000E-05	 1.37140000E-02	-2.02646000E-03
					-1.08637000E-06	 1.37098000E-02	-3.95055000E-05
					 6.39440000E-05	 1.37300000E-02	 1.94720000E-03
					-1.51496000E-06	 1.79737000E-02	-5.74141000E-05
					-5.14218000E-05	 2.26481000E-02	-2.47515000E-03
					-1.98080000E-06	 2.26456000E-02	-7.89408000E-05
					 4.74983000E-05	 2.26713000E-02	 2.31699000E-03
					-2.49032000E-06	 2.76683000E-02	-1.03832000E-04
					-4.17765000E-05	 3.29968000E-02	-2.85121000E-03
					-3.01361000E-06	 3.29956000E-02	-1.31861000E-04
					 3.57845000E-05	 3.30265000E-02	 2.58712000E-03
					-3.56875000E-06	 3.86285000E-02	-1.63186000E-04
					-3.02546000E-05	 4.44976000E-02	-3.16766000E-03
					-4.18378000E-06	 4.44960000E-02	-1.97077000E-04
					 2.19625000E-05	 4.45333000E-02	 2.77304000E-03
					-4.61927000E-06	 5.06218000E-02	-2.34157000E-04
					-1.74974000E-05	 5.68539000E-02	-3.41091000E-03
					-5.42624000E-06	 5.68326000E-02	-2.72422000E-04
					 7.02213000E-06	 5.68935000E-02	 2.86516000E-03
					-5.47153000E-06	 6.33159000E-02	-3.13705000E-04
					-2.00735000E-08	 4.88054000E-04	-7.75786000E-07
					-9.67117000E-07	 1.86854000E-03	 8.15460000E-04
					-2.03948000E-07	 1.86469000E-03	-2.81236000E-06
					-1.03784000E-07	 1.87814000E-03	-2.83858000E-06
					-3.43744000E-09	 1.86296000E-03	-2.68826000E-06
					 7.63519000E-07	 1.86532000E-03	-8.21404000E-04
					-2.43766000E-07	 3.92972000E-03	-7.18341000E-06
					-2.40607000E-06	 6.69865000E-03	 1.46062000E-03
					-4.80842000E-07	 6.65913000E-03	-1.47318000E-05
					-4.54199000E-07	 6.68072000E-03	-1.47211000E-05
					-4.30750000E-07	 6.65522000E-03	-1.44571000E-05
					 1.50474000E-06	 6.68959000E-03	-1.49023000E-03
					-7.34754000E-07	 9.96133000E-03	-2.53277000E-05
					-4.28652000E-06	 1.37931000E-02	 1.95072000E-03
					-1.09398000E-06	 1.37597000E-02	-3.97059000E-05
					-1.10238000E-06	 1.37736000E-02	-3.96253000E-05
					-1.11255000E-06	 1.37533000E-02	-3.92597000E-05
					 2.09048000E-06	 1.37769000E-02	-2.03020000E-03
					-1.54511000E-06	 1.80261000E-02	-5.74254000E-05
					-6.16907000E-06	 2.27170000E-02	 2.31947000E-03
					-2.01662000E-06	 2.26843000E-02	-7.90733000E-05
					-2.04851000E-06	 2.26972000E-02	-7.89445000E-05
					-2.07728000E-06	 2.26760000E-02	-7.84950000E-05
					 2.07882000E-06	 2.26938000E-02	-2.47752000E-03