<?xml version="1.0"?>
<VTKFile type="UnstructuredGrid" version="0.1" byte_order="LittleEndian">
	<UnstructuredGrid>
		<Piece NumberOfPoints="90" NumberOfCells="32">
			<Points>
				<DataArray type="Float64" NumberOfComponents="3" format="ascii">
					 0.00000000E+00	 0.00000000E+00	 0.00000000E+00
					 1.00000000E+00	 0.00000000E+00	 0.00000000E+00
					 1.00000000E+00	 1.00000000E+00	 0.00000000E+00
					 0.00000000E+00	 1.00000000E+00	 0.00000000E+00
					 0.00000000E+00	 0.00000000E+00	 8.00000000E+00
					 1.00000000E+00	 0.00000000E+00	 8.00000000E+00
					 1.00000000E+00	 1.00000000E+00	 8.00000000E+00
					 0.00000000E+00	 1.00000000E+00	 8.00000000E+00
					 5.00000000E-01	 0.00000000E+00	 0.00000000E+00
					 1.00000000E+00	 5.00000000E-01	 0.00000000E+00
					 5.00000000E-01	 1.00000000E+00	 0.00000000E+00
					 0.00000000E+00	 5.00000000E-01	 0.00000000E+00
					 5.00000000E-01	 0.00000000E+00	 8.00000000E+00
					 1.00000000E+00	 5.00000000E-01	 8.00000000E+00
					 5.00000000E-01	 1.00000000E+00	 8.00000000E+00
					 0.00000000E+00	 5.00000000E-01	 8.00000000E+00
					 1.00000000E+00	 0.00000000E+00	 1.00000000E+00
					 1.00000000E+00	 0.00000000E+00	 2.00000000E+00
					 1.00000000E+00	 0.00000000E+00	 3.00000000E+00
					 1.00000000E+00	 0.00000000E+00	 4.00000000E+00
					 1.00000000E+00	 0.00000000E+00	 5.00000000E+00
					 1.00000000E+00	 0.00000000E+00	 6.00000000E+00
					 1.00000000E+00	 0.00000000E+00	 7.00000000E+00
					 0.00000000E+00	 0.00000000E+00	 7.00000000E+00
					 0.00000000E+00	 0.00000000E+00	 6.00000000E+00
					 0.00000000E+00	 0.00000000E+00	 5.00000000E+00
					 0.00000000E+00	 0.00000000E+00	 4.00000000E+00
					 0.00000000E+00	 0.00000000E+00	 3.00000000E+00
					 0.00000000E+00	 0.00000000E+00	 2.00000000E+00
					 0.00000000E+00	 0.00000000E+00	 1.00000000E+00
					 1.00000000E+00	 1.00000000E+00	 1.00000000E+00
					 1.00000000E+00	 1.00000000E+00	 2.00000000E+00
					 1.00000000E+00	 1.00000000E+00	 3.00000000E+00
					 1.00000000E+00	 1.00000000E+00	 4.00000000E+00
					 1.00000000E+00	 1.00000000E+00	 5.00000000E+00
					 1.00000000E+00	 1.00000000E+00	 6.00000000E+00
					 1.00000000E+00	 1.00000000E+00	 7.00000000E+00
					 0.00000000E+00	 1.00000000E+00	 1.00000000E+00
					 0.00000000E+00	 1.00000000E+00	 2.00000000E+00
					 0.00000000E+00	 1.00000000E+00	 3.00000000E+00
					 0.00000000E+00	 1.00000000E+00	 4.00000000E+00
					 0.00000000E+00	 1.00000000E+00	 5.00000000E+00
					 0.00000000E+00	 1.00000000E+00	 6.00000000E+00
					 0.00000000E+00	 1.00000000E+00	 7.00000000E+00
					 5.00000000E-01	 5.00000000E-01	 0.00000000E+00
					 5.00000000E-01	 5.00000000E-01	 8.00000000E+00
					 5.00000000E-01	 0.00000000E+00	 1.00000000E+00
					 5.00000000E-01	 0.00000000E+00	 2.00000000E+00
					 5.00000000E-01	 0.00000000E+00	 3.00000000E+00
					 5.00000000E-01	 0.00000000E+00	 4.00000000E+00
					 5.00000000E-01	 0.00000000E+00	 5.00000000E+00
					 5.00000000E-01	 0.00000000E+00	 6.00000000E+00
					 5.00000000E-01	 0.00000000E+00	 7.00000000E+00
					 1.00000000E+00	 5.00000000E-01	 1.00000000E+00
					 1.00000000E+00	 5.00000000E-01	 2.00000000E+00
					 1.00000000E+00	 5.00000000E-01	 3.00000000E+00
					 1.00000000E+00	 5.00000000E-01	 4.00000000E+00
					 1.00000000E+00	 5.00000000E-01	 5.00000000E+00
					 1.00000000E+00	 5.00000000E-01	 6.00000000E+00
					 1.00000000E+00	 5.00000000E-01	 7.00000000E+00
					 5.00000000E-01	 1.00000000E+00	 1.00000000E+00
					 5.00000000E-01	 1.00000000E+00	 2.00000000E+00
					 5.00000000E-01	 1.00000000E+00	 3.00000000E+00
					 5.00000000E-01	 1.00000000E+00	 4.00000000E+00
					 5.00000000E-01	 1.00000000E+00	 5.00000000E+00
					 5.00000000E-01	 1.00000000E+00	 6.00000000E+00
					 5.00000000E-01	 1.00000000E+00	 7.00000000E+00
					 0.00000000E+00	 5.00000000E-01	 1.00000000E+00
					 0.00000000E+00	 5.00000000E-01	 2.00000000E+00
					 0.00000000E+00	 5.00000000E-01	 3.00000000E+00
					 0.00000000E+00	 5.00000000E-01	 4.00000000E+00
					 0.00000000E+00	 5.00000000E-01	 5.00000000E+00
					 0.00000000E+00	 5.00000000E-01	 6.00000000E+00
					 0.00000000E+00	 5.00000000E-01	 7.00000000E+00
					 5.00000000E-01	 5.00000000E-01	 1.00000000E+00
					 5.00000000E-01	 5.00000000E-01	 2.00000000E+00
					 5.00000000E-01	 5.00000000E-01	 3.00000000E+00
					 5.00000000E-01	 5.00000000E-01	 4.00000000E+00
					 5.00000000E-01	 5.00000000E-01	 5.00000000E+00
					 5.00000000E-01	 5.00000000E-01	 6.00000000E+00
					 5.00000000E-01	 5.00000000E-01	 7.00000000E+00
					 1.00000000E+00	 0.00000000E+00	 4.00000000E+00
					 0.00000000E+00	 0.00000000E+00	 4.00000000E+00
					 1.00000000E+00	 1.00000000E+00	 4.00000000E+00
					 0.00000000E+00	 1.00000000E+00	 4.00000000E+00
					 5.00000000E-01	 0.00000000E+00	 4.00000000E+00
					 1.00000000E+00	 5.00000000E-01	 4.00000000E+00
					 5.00000000E-01	 1.00000000E+00	 4.00000000E+00
					 0.00000000E+00	 5.00000000E-01	 4.00000000E+00
					 5.00000000E-01	 5.00000000E-01	 4.00000000E+00

				</DataArray>
			</Points>
			<Cells>
				<DataArray type="Int32" Name="connectivity" format="ascii">
					0 8 44 11 29 46 74 67 8 1 9 44 46 16 53 74 11 44 10 3 67 74 60 37 44 9 2 10 74 53 30 60 29 46 74 67 28 47 75 68 46 16 53 74 47 17 54 75 67 74 60 37 68 75 61 38 74 53 30 60 75 54 31 61 28 47 75 68 27 48 76 69 47 17 54 75 48 18 55 76 68 75 61 38 69 76 62 39 75 54 31 61 76 55 32 62 27 48 76 69 26 49 77 70 48 18 55 76 49 19 56 77 69 76 62 39 70 77 63 40 76 55 32 62 77 56 33 63 82 85 89 88 25 50 78 71 85 81 86 89 50 20 57 78 88 89 87 84 71 78 64 41 89 86 83 87 78 57 34 64 25 50 78 71 24 51 79 72 50 20 57 78 51 21 58 79 71 78 64 41 72 79 65 42 78 57 34 64 79 58 35 65 24 51 79 72 23 52 80 73 51 21 58 79 52 22 59 80 72 79 65 42 73 80 66 43 79 58 35 65 80 59 36 66 23 52 80 73 4 12 45 15 52 22 59 80 12 5 13 45 73 80 66 43 15 45 14 7 80 59 36 66 45 13 6 14 
				</DataArray>
				<DataArray type="Int32" Name="offsets" format="ascii">
					8 16 24 32 40 48 56 64 72 80 88 96 104 112 120 128 136 144 152 160 168 176 184 192 200 208 216 224 232 240 248 256 
				</DataArray>
				<DataArray type="UInt8" Name="types" format="ascii">
					12 12 12 12 12 12 12 12 12 12 12 12 12 12 12 12 12 12 12 12 12 12 12 12 12 12 12 12 12 12 12 12 
				</DataArray>
			</Cells>
			<PointData>
				<DataArray type="Float32" Name="U" NumberOfComponents="3" ComponentName0="D1" ComponentName1="D2" ComponentName2="D3" format="ascii">
					 0.00000000E+00	 0.00000000E+00	 0.00000000E+00
					 0.00000000E+00	 0.00000000E+00	 0.00000000E+00
					 0.00000000E+00	 0.00000000E+00	 0.00000000E+00
					 0.00000000E+00	 0.00000000E+00	 0.00000000E+00
					-5.43982000E+03	 6.16383000E+03	 4.04617000E+01
					-3.76546000E+03	 4.75182000E+03	 4.75995000E+02
					-5.43982000E+03	 6.16383000E+03	-4.04617000E+01
					-3.76546000E+03	 4.75182000E+03	-4.75995000E+02
					 0.00000000E+00	 0.00000000E+00	 0.00000000E+00
					 0.00000000E+00	 0.00000000E+00	 0.00000000E+00
					 0.00000000E+00	 0.00000000E+00	 0.00000000E+00
					 0.00000000E+00	 0.00000000E+00	 0.00000000E+00
					-4.92839000E+03	 4.76663000E+03	 1.49199000E+02
					-4.01975000E+03	 5.84410000E+03	 1.25821000E+02
					-4.92839000E+03	 4.76663000E+03	-1.49199000E+02
					-4.01975000E+03	 5.84410000E+03	-1.25821000E+02
					-2.95734000E+03	 3.50294000E+03	 8.55120000E+02
					-3.55056000E+03	 4.29649000E+03	-4.91692000E+02
					-1.27671000E+03	 1.54607000E+03	-1.84117000E+03
					 2.16609000E+03	-2.62555000E+03	-1.56785000E+03
					 3.60132000E+03	-4.36759000E+03	 1.52316000E+02
					 1.70617000E+03	-2.07234000E+03	 1.66958000E+03
					-1.79665000E+03	 2.16727000E+03	 1.77874000E+03
					-2.01152000E+03	 2.34847000E+03	 1.51201000E+02
					 1.99326000E+03	-2.31445000E+03	 1.41922000E+02
					 4.16853000E+03	-4.84593000E+03	 1.29476000E+01
					 2.49890000E+03	-2.90621000E+03	-1.33274000E+02
					-1.46443000E+03	 1.70438000E+03	-1.56508000E+02
					-4.05407000E+03	 4.72111000E+03	-4.17960000E+01
					-2.93467000E+03	 3.48383000E+03	 7.26891000E+01
					-2.93467000E+03	 3.48383000E+03	-7.26891000E+01
					-4.05407000E+03	 4.72111000E+03	 4.17960000E+01
					-1.46443000E+03	 1.70438000E+03	 1.56508000E+02
					 2.49890000E+03	-2.90621000E+03	 1.33274000E+02
					 4.16853000E+03	-4.84593000E+03	-1.29476000E+01
					 1.99326000E+03	-2.31445000E+03	-1.41922000E+02
					-2.01152000E+03	 2.34847000E+03	-1.51201000E+02
					-2.95734000E+03	 3.50294000E+03	-8.55120000E+02
					-3.55056000E+03	 4.29649000E+03	 4.91692000E+02
					-1.27671000E+03	 1.54607000E+03	 1.84117000E+03
					 2.16609000E+03	-2.62555000E+03	 1.56785000E+03
					 3.60132000E+03	-4.36759000E+03	-1.52316000E+02
					 1.70617000E+03	-2.07234000E+03	-1.66958000E+03
					-1.79665000E+03	 2.16727000E+03	-1.77874000E+03
					 0.00000000E+00	 0.00000000E+00	 0.00000000E+00
					-3.58254000E+03	 4.24818000E+03	 0.00000000E+00
					-2.89605000E+03	 3.44897000E+03	 4.73817000E+02
					-3.92592000E+03	 4.40694000E+03	-2.56341000E+02
					-1.40459000E+03	 1.57555000E+03	-1.02299000E+03
					 2.39855000E+03	-2.67929000E+03	-8.65736000E+02
					 4.00450000E+03	-4.47807000E+03	 6.48543000E+01
					 1.87770000E+03	-2.10454000E+03	 1.00976000E+03
					-1.80042000E+03	 2.15310000E+03	 7.79737000E+02
					-2.90855000E+03	 3.43414000E+03	 3.99575000E+02
					-3.71642000E+03	 4.65537000E+03	-2.16175000E+02
					-1.32868000E+03	 1.66557000E+03	-8.62696000E+02
					 2.25947000E+03	-2.84421000E+03	-7.30084000E+02
					 3.77640000E+03	-4.74855000E+03	 5.46923000E+01
					 1.77478000E+03	-2.22658000E+03	 8.51540000E+02
					-1.81573000E+03	 2.13494000E+03	 6.57560000E+02
					-2.89605000E+03	 3.44897000E+03	-4.73817000E+02
					-3.92592000E+03	 4.40694000E+03	 2.56341000E+02
					-1.40459000E+03	 1.57555000E+03	 1.02299000E+03
					 2.39855000E+03	-2.67929000E+03	 8.65736000E+02
					 4.00450000E+03	-4.47807000E+03	-6.48543000E+01
					 1.87770000E+03	-2.10454000E+03	-1.00976000E+03
					-1.80042000E+03	 2.15310000E+03	-7.79737000E+02
					-2.90855000E+03	 3.43414000E+03	-3.99575000E+02
					-3.71642000E+03	 4.65537000E+03	 2.16175000E+02
					-1.32868000E+03	 1.66557000E+03	 8.62696000E+02
					 2.25947000E+03	-2.84421000E+03	 7.30084000E+02
					 3.77640000E+03	-4.74855000E+03	-5.46923000E+01
					 1.77478000E+03	-2.22658000E+03	-8.51540000E+02
					-1.81573000E+03	 2.13494000E+03	-6.57560000E+02
					-2.85901000E+03	 3.39022000E+03	 0.00000000E+00
					-3.84323000E+03	 4.55731000E+03	 0.00000000E+00
					-1.36483000E+03	 1.61842000E+03	 0.00000000E+00
					 2.33283000E+03	-2.76627000E+03	 0.00000000E+00
					 3.86577000E+03	-4.58405000E+03	 0.00000000E+00
					 1.91437000E+03	-2.27007000E+03	 0.00000000E+00
					-2.13329000E+03	 2.52967000E+03	 0.00000000E+00
					 2.16609000E+03	-2.62555000E+03	-1.56785000E+03
					 2.49890000E+03	-2.90621000E+03	-1.33274000E+02
					 2.49890000E+03	-2.90621000E+03	 1.33274000E+02
					 2.16609000E+03	-2.62555000E+03	 1.56785000E+03
					 2.39855000E+03	-2.67929000E+03	-8.65736000E+02
					 2.25947000E+03	-2.84421000E+03	-7.30084000E+02
					 2.39855000E+03	-2.67929000E+03	 8.65736000E+02
					 2.25947000E+03	-2.84421000E+03	 7.30084000E+02
					 2.33283000E+03	-2.76627000E+03	 0.00000000E+00
				</DataArray>
			</PointData>
		</Piece>
	</UnstructuredGrid>
</VTKFile>