# vtk DataFile Version 3.0

ASCII
DATASET UNSTRUCTURED_GRID

POINTS 261 double
	 0.00000000E+00	 0.00000000E+00	 0.00000000E+00
	 1.00000000E+00	 0.00000000E+00	 0.00000000E+00
	 1.00000000E+00	 1.00000000E+00	 0.00000000E+00
	 0.00000000E+00	 1.00000000E+00	 0.00000000E+00
	 0.00000000E+00	 0.00000000E+00	 8.00000000E+00
	 1.00000000E+00	 0.00000000E+00	 8.00000000E+00
	 1.00000000E+00	 1.00000000E+00	 8.00000000E+00
	 0.00000000E+00	 1.00000000E+00	 8.00000000E+00
	 2.50000000E-01	 0.00000000E+00	 0.00000000E+00
	 5.00000000E-01	 0.00000000E+00	 0.00000000E+00
	 7.50000000E-01	 0.00000000E+00	 0.00000000E+00
	 1.00000000E+00	 2.50000000E-01	 0.00000000E+00
	 1.00000000E+00	 5.00000000E-01	 0.00000000E+00
	 1.00000000E+00	 7.50000000E-01	 0.00000000E+00
	 7.50000000E-01	 1.00000000E+00	 0.00000000E+00
	 5.00000000E-01	 1.00000000E+00	 0.00000000E+00
	 2.50000000E-01	 1.00000000E+00	 0.00000000E+00
	 0.00000000E+00	 7.50000000E-01	 0.00000000E+00
	 0.00000000E+00	 5.00000000E-01	 0.00000000E+00
	 0.00000000E+00	 2.50000000E-01	 0.00000000E+00
	 2.50000000E-01	 0.00000000E+00	 8.00000000E+00
	 5.00000000E-01	 0.00000000E+00	 8.00000000E+00
	 7.50000000E-01	 0.00000000E+00	 8.00000000E+00
	 1.00000000E+00	 2.50000000E-01	 8.00000000E+00
	 1.00000000E+00	 5.00000000E-01	 8.00000000E+00
	 1.00000000E+00	 7.50000000E-01	 8.00000000E+00
	 7.50000000E-01	 1.00000000E+00	 8.00000000E+00
	 5.00000000E-01	 1.00000000E+00	 8.00000000E+00
	 2.50000000E-01	 1.00000000E+00	 8.00000000E+00
	 0.00000000E+00	 7.50000000E-01	 8.00000000E+00
	 0.00000000E+00	 5.00000000E-01	 8.00000000E+00
	 0.00000000E+00	 2.50000000E-01	 8.00000000E+00
	 1.00000000E+00	 0.00000000E+00	 5.00000000E-01
	 1.00000000E+00	 0.00000000E+00	 1.00000000E+00
	 1.00000000E+00	 0.00000000E+00	 1.50000000E+00
	 1.00000000E+00	 0.00000000E+00	 2.00000000E+00
	 1.00000000E+00	 0.00000000E+00	 2.50000000E+00
	 1.00000000E+00	 0.00000000E+00	 3.00000000E+00
	 1.00000000E+00	 0.00000000E+00	 3.50000000E+00
	 1.00000000E+00	 0.00000000E+00	 4.00000000E+00
	 1.00000000E+00	 0.00000000E+00	 4.50000000E+00
	 1.00000000E+00	 0.00000000E+00	 5.00000000E+00
	 1.00000000E+00	 0.00000000E+00	 5.50000000E+00
	 1.00000000E+00	 0.00000000E+00	 6.00000000E+00
	 1.00000000E+00	 0.00000000E+00	 6.50000000E+00
	 1.00000000E+00	 0.00000000E+00	 7.00000000E+00
	 1.00000000E+00	 0.00000000E+00	 7.50000000E+00
	 0.00000000E+00	 0.00000000E+00	 7.50000000E+00
	 0.00000000E+00	 0.00000000E+00	 7.00000000E+00
	 0.00000000E+00	 0.00000000E+00	 6.50000000E+00
	 0.00000000E+00	 0.00000000E+00	 6.00000000E+00
	 0.00000000E+00	 0.00000000E+00	 5.50000000E+00
	 0.00000000E+00	 0.00000000E+00	 5.00000000E+00
	 0.00000000E+00	 0.00000000E+00	 4.50000000E+00
	 0.00000000E+00	 0.00000000E+00	 4.00000000E+00
	 0.00000000E+00	 0.00000000E+00	 3.50000000E+00
	 0.00000000E+00	 0.00000000E+00	 3.00000000E+00
	 0.00000000E+00	 0.00000000E+00	 2.50000000E+00
	 0.00000000E+00	 0.00000000E+00	 2.00000000E+00
	 0.00000000E+00	 0.00000000E+00	 1.50000000E+00
	 0.00000000E+00	 0.00000000E+00	 1.00000000E+00
	 0.00000000E+00	 0.00000000E+00	 5.00000000E-01
	 1.00000000E+00	 1.00000000E+00	 5.00000000E-01
	 1.00000000E+00	 1.00000000E+00	 1.00000000E+00
	 1.00000000E+00	 1.00000000E+00	 1.50000000E+00
	 1.00000000E+00	 1.00000000E+00	 2.00000000E+00
	 1.00000000E+00	 1.00000000E+00	 2.50000000E+00
	 1.00000000E+00	 1.00000000E+00	 3.00000000E+00
	 1.00000000E+00	 1.00000000E+00	 3.50000000E+00
	 1.00000000E+00	 1.00000000E+00	 4.00000000E+00
	 1.00000000E+00	 1.00000000E+00	 4.50000000E+00
	 1.00000000E+00	 1.00000000E+00	 5.00000000E+00
	 1.00000000E+00	 1.00000000E+00	 5.50000000E+00
	 1.00000000E+00	 1.00000000E+00	 6.00000000E+00
	 1.00000000E+00	 1.00000000E+00	 6.50000000E+00
	 1.00000000E+00	 1.00000000E+00	 7.00000000E+00
	 1.00000000E+00	 1.00000000E+00	 7.50000000E+00
	 0.00000000E+00	 1.00000000E+00	 5.00000000E-01
	 0.00000000E+00	 1.00000000E+00	 1.00000000E+00
	 0.00000000E+00	 1.00000000E+00	 1.50000000E+00
	 0.00000000E+00	 1.00000000E+00	 2.00000000E+00
	 0.00000000E+00	 1.00000000E+00	 2.50000000E+00
	 0.00000000E+00	 1.00000000E+00	 3.00000000E+00
	 0.00000000E+00	 1.00000000E+00	 3.50000000E+00
	 0.00000000E+00	 1.00000000E+00	 4.00000000E+00
	 0.00000000E+00	 1.00000000E+00	 4.50000000E+00
	 0.00000000E+00	 1.00000000E+00	 5.00000000E+00
	 0.00000000E+00	 1.00000000E+00	 5.50000000E+00
	 0.00000000E+00	 1.00000000E+00	 6.00000000E+00
	 0.00000000E+00	 1.00000000E+00	 6.50000000E+00
	 0.00000000E+00	 1.00000000E+00	 7.00000000E+00
	 0.00000000E+00	 1.00000000E+00	 7.50000000E+00
	 5.00000000E-01	 2.50000000E-01	 0.00000000E+00
	 2.50000000E-01	 5.00000000E-01	 0.00000000E+00
	 5.00000000E-01	 5.00000000E-01	 0.00000000E+00
	 7.50000000E-01	 5.00000000E-01	 0.00000000E+00
	 5.00000000E-01	 7.50000000E-01	 0.00000000E+00
	 5.00000000E-01	 2.50000000E-01	 8.00000000E+00
	 2.50000000E-01	 5.00000000E-01	 8.00000000E+00
	 5.00000000E-01	 5.00000000E-01	 8.00000000E+00
	 7.50000000E-01	 5.00000000E-01	 8.00000000E+00
	 5.00000000E-01	 7.50000000E-01	 8.00000000E+00
	 5.00000000E-01	 0.00000000E+00	 5.00000000E-01
	 2.50000000E-01	 0.00000000E+00	 1.00000000E+00
	 5.00000000E-01	 0.00000000E+00	 1.00000000E+00
	 7.50000000E-01	 0.00000000E+00	 1.00000000E+00
	 5.00000000E-01	 0.00000000E+00	 1.50000000E+00
	 2.50000000E-01	 0.00000000E+00	 2.00000000E+00
	 5.00000000E-01	 0.00000000E+00	 2.00000000E+00
	 7.50000000E-01	 0.00000000E+00	 2.00000000E+00
	 5.00000000E-01	 0.00000000E+00	 2.50000000E+00
	 2.50000000E-01	 0.00000000E+00	 3.00000000E+00
	 5.00000000E-01	 0.00000000E+00	 3.00000000E+00
	 7.50000000E-01	 0.00000000E+00	 3.00000000E+00
	 5.00000000E-01	 0.00000000E+00	 3.50000000E+00
	 2.50000000E-01	 0.00000000E+00	 4.00000000E+00
	 5.00000000E-01	 0.00000000E+00	 4.00000000E+00
	 7.50000000E-01	 0.00000000E+00	 4.00000000E+00
	 5.00000000E-01	 0.00000000E+00	 4.50000000E+00
	 2.50000000E-01	 0.00000000E+00	 5.00000000E+00
	 5.00000000E-01	 0.00000000E+00	 5.00000000E+00
	 7.50000000E-01	 0.00000000E+00	 5.00000000E+00
	 5.00000000E-01	 0.00000000E+00	 5.50000000E+00
	 2.50000000E-01	 0.00000000E+00	 6.00000000E+00
	 5.00000000E-01	 0.00000000E+00	 6.00000000E+00
	 7.50000000E-01	 0.00000000E+00	 6.00000000E+00
	 5.00000000E-01	 0.00000000E+00	 6.50000000E+00
	 2.50000000E-01	 0.00000000E+00	 7.00000000E+00
	 5.00000000E-01	 0.00000000E+00	 7.00000000E+00
	 7.50000000E-01	 0.00000000E+00	 7.00000000E+00
	 5.00000000E-01	 0.00000000E+00	 7.50000000E+00
	 1.00000000E+00	 5.00000000E-01	 5.00000000E-01
	 1.00000000E+00	 2.50000000E-01	 1.00000000E+00
	 1.00000000E+00	 5.00000000E-01	 1.00000000E+00
	 1.00000000E+00	 7.50000000E-01	 1.00000000E+00
	 1.00000000E+00	 5.00000000E-01	 1.50000000E+00
	 1.00000000E+00	 2.50000000E-01	 2.00000000E+00
	 1.00000000E+00	 5.00000000E-01	 2.00000000E+00
	 1.00000000E+00	 7.50000000E-01	 2.00000000E+00
	 1.00000000E+00	 5.00000000E-01	 2.50000000E+00
	 1.00000000E+00	 2.50000000E-01	 3.00000000E+00
	 1.00000000E+00	 5.00000000E-01	 3.00000000E+00
	 1.00000000E+00	 7.50000000E-01	 3.00000000E+00
	 1.00000000E+00	 5.00000000E-01	 3.50000000E+00
	 1.00000000E+00	 2.50000000E-01	 4.00000000E+00
	 1.00000000E+00	 5.00000000E-01	 4.00000000E+00
	 1.00000000E+00	 7.50000000E-01	 4.00000000E+00
	 1.00000000E+00	 5.00000000E-01	 4.50000000E+00
	 1.00000000E+00	 2.50000000E-01	 5.00000000E+00
	 1.00000000E+00	 5.00000000E-01	 5.00000000E+00
	 1.00000000E+00	 7.50000000E-01	 5.00000000E+00
	 1.00000000E+00	 5.00000000E-01	 5.50000000E+00
	 1.00000000E+00	 2.50000000E-01	 6.00000000E+00
	 1.00000000E+00	 5.00000000E-01	 6.00000000E+00
	 1.00000000E+00	 7.50000000E-01	 6.00000000E+00
	 1.00000000E+00	 5.00000000E-01	 6.50000000E+00
	 1.00000000E+00	 2.50000000E-01	 7.00000000E+00
	 1.00000000E+00	 5.00000000E-01	 7.00000000E+00
	 1.00000000E+00	 7.50000000E-01	 7.00000000E+00
	 1.00000000E+00	 5.00000000E-01	 7.50000000E+00
	 5.00000000E-01	 1.00000000E+00	 5.00000000E-01
	 7.50000000E-01	 1.00000000E+00	 1.00000000E+00
	 5.00000000E-01	 1.00000000E+00	 1.00000000E+00
	 2.50000000E-01	 1.00000000E+00	 1.00000000E+00
	 5.00000000E-01	 1.00000000E+00	 1.50000000E+00
	 7.50000000E-01	 1.00000000E+00	 2.00000000E+00
	 5.00000000E-01	 1.00000000E+00	 2.00000000E+00
	 2.50000000E-01	 1.00000000E+00	 2.00000000E+00
	 5.00000000E-01	 1.00000000E+00	 2.50000000E+00
	 7.50000000E-01	 1.00000000E+00	 3.00000000E+00
	 5.00000000E-01	 1.00000000E+00	 3.00000000E+00
	 2.50000000E-01	 1.00000000E+00	 3.00000000E+00
	 5.00000000E-01	 1.00000000E+00	 3.50000000E+00
	 7.50000000E-01	 1.00000000E+00	 4.00000000E+00
	 5.00000000E-01	 1.00000000E+00	 4.00000000E+00
	 2.50000000E-01	 1.00000000E+00	 4.00000000E+00
	 5.00000000E-01	 1.00000000E+00	 4.50000000E+00
	 7.50000000E-01	 1.00000000E+00	 5.00000000E+00
	 5.00000000E-01	 1.00000000E+00	 5.00000000E+00
	 2.50000000E-01	 1.00000000E+00	 5.00000000E+00
	 5.00000000E-01	 1.00000000E+00	 5.50000000E+00
	 7.50000000E-01	 1.00000000E+00	 6.00000000E+00
	 5.00000000E-01	 1.00000000E+00	 6.00000000E+00
	 2.50000000E-01	 1.00000000E+00	 6.00000000E+00
	 5.00000000E-01	 1.00000000E+00	 6.50000000E+00
	 7.50000000E-01	 1.00000000E+00	 7.00000000E+00
	 5.00000000E-01	 1.00000000E+00	 7.00000000E+00
	 2.50000000E-01	 1.00000000E+00	 7.00000000E+00
	 5.00000000E-01	 1.00000000E+00	 7.50000000E+00
	 0.00000000E+00	 5.00000000E-01	 5.00000000E-01
	 0.00000000E+00	 7.50000000E-01	 1.00000000E+00
	 0.00000000E+00	 5.00000000E-01	 1.00000000E+00
	 0.00000000E+00	 2.50000000E-01	 1.00000000E+00
	 0.00000000E+00	 5.00000000E-01	 1.50000000E+00
	 0.00000000E+00	 7.50000000E-01	 2.00000000E+00
	 0.00000000E+00	 5.00000000E-01	 2.00000000E+00
	 0.00000000E+00	 2.50000000E-01	 2.00000000E+00
	 0.00000000E+00	 5.00000000E-01	 2.50000000E+00
	 0.00000000E+00	 7.50000000E-01	 3.00000000E+00
	 0.00000000E+00	 5.00000000E-01	 3.00000000E+00
	 0.00000000E+00	 2.50000000E-01	 3.00000000E+00
	 0.00000000E+00	 5.00000000E-01	 3.50000000E+00
	 0.00000000E+00	 7.50000000E-01	 4.00000000E+00
	 0.00000000E+00	 5.00000000E-01	 4.00000000E+00
	 0.00000000E+00	 2.50000000E-01	 4.00000000E+00
	 0.00000000E+00	 5.00000000E-01	 4.50000000E+00
	 0.00000000E+00	 7.50000000E-01	 5.00000000E+00
	 0.00000000E+00	 5.00000000E-01	 5.00000000E+00
	 0.00000000E+00	 2.50000000E-01	 5.00000000E+00
	 0.00000000E+00	 5.00000000E-01	 5.50000000E+00
	 0.00000000E+00	 7.50000000E-01	 6.00000000E+00
	 0.00000000E+00	 5.00000000E-01	 6.00000000E+00
	 0.00000000E+00	 2.50000000E-01	 6.00000000E+00
	 0.00000000E+00	 5.00000000E-01	 6.50000000E+00
	 0.00000000E+00	 7.50000000E-01	 7.00000000E+00
	 0.00000000E+00	 5.00000000E-01	 7.00000000E+00
	 0.00000000E+00	 2.50000000E-01	 7.00000000E+00
	 0.00000000E+00	 5.00000000E-01	 7.50000000E+00
	 5.00000000E-01	 5.00000000E-01	 5.00000000E-01
	 5.00000000E-01	 2.50000000E-01	 1.00000000E+00
	 2.50000000E-01	 5.00000000E-01	 1.00000000E+00
	 5.00000000E-01	 5.00000000E-01	 1.00000000E+00
	 7.50000000E-01	 5.00000000E-01	 1.00000000E+00
	 5.00000000E-01	 7.50000000E-01	 1.00000000E+00
	 5.00000000E-01	 5.00000000E-01	 1.50000000E+00
	 5.00000000E-01	 2.50000000E-01	 2.00000000E+00
	 2.50000000E-01	 5.00000000E-01	 2.00000000E+00
	 5.00000000E-01	 5.00000000E-01	 2.00000000E+00
	 7.50000000E-01	 5.00000000E-01	 2.00000000E+00
	 5.00000000E-01	 7.50000000E-01	 2.00000000E+00
	 5.00000000E-01	 5.00000000E-01	 2.50000000E+00
	 5.00000000E-01	 2.50000000E-01	 3.00000000E+00
	 2.50000000E-01	 5.00000000E-01	 3.00000000E+00
	 5.00000000E-01	 5.00000000E-01	 3.00000000E+00
	 7.50000000E-01	 5.00000000E-01	 3.00000000E+00
	 5.00000000E-01	 7.50000000E-01	 3.00000000E+00
	 5.00000000E-01	 5.00000000E-01	 3.50000000E+00
	 5.00000000E-01	 2.50000000E-01	 4.00000000E+00
	 2.50000000E-01	 5.00000000E-01	 4.00000000E+00
	 5.00000000E-01	 5.00000000E-01	 4.00000000E+00
	 7.50000000E-01	 5.00000000E-01	 4.00000000E+00
	 5.00000000E-01	 7.50000000E-01	 4.00000000E+00
	 5.00000000E-01	 5.00000000E-01	 4.50000000E+00
	 5.00000000E-01	 2.50000000E-01	 5.00000000E+00
	 2.50000000E-01	 5.00000000E-01	 5.00000000E+00
	 5.00000000E-01	 5.00000000E-01	 5.00000000E+00
	 7.50000000E-01	 5.00000000E-01	 5.00000000E+00
	 5.00000000E-01	 7.50000000E-01	 5.00000000E+00
	 5.00000000E-01	 5.00000000E-01	 5.50000000E+00
	 5.00000000E-01	 2.50000000E-01	 6.00000000E+00
	 2.50000000E-01	 5.00000000E-01	 6.00000000E+00
	 5.00000000E-01	 5.00000000E-01	 6.00000000E+00
	 7.50000000E-01	 5.00000000E-01	 6.00000000E+00
	 5.00000000E-01	 7.50000000E-01	 6.00000000E+00
	 5.00000000E-01	 5.00000000E-01	 6.50000000E+00
	 5.00000000E-01	 2.50000000E-01	 7.00000000E+00
	 2.50000000E-01	 5.00000000E-01	 7.00000000E+00
	 5.00000000E-01	 5.00000000E-01	 7.00000000E+00
	 7.50000000E-01	 5.00000000E-01	 7.00000000E+00
	 5.00000000E-01	 7.50000000E-01	 7.00000000E+00
	 5.00000000E-01	 5.00000000E-01	 7.50000000E+00

CELLS 32 672
	20 0 9 94 18 60 104 221 191 8 92 93 19 103 219 220 192 61 102 218 189 
	20 9 1 12 94 104 33 133 221 10 11 95 92 105 132 222 219 102 32 131 218 
	20 18 94 15 3 191 221 162 78 93 96 16 17 220 223 163 190 189 218 160 77 
	20 94 12 2 15 221 133 63 162 95 13 14 96 222 134 161 223 218 131 62 160 
	20 60 104 221 191 58 108 227 195 103 219 220 192 107 225 226 196 59 106 224 193 
	20 104 33 133 221 108 35 137 227 105 132 222 219 109 136 228 225 106 34 135 224 
	20 191 221 162 78 195 227 166 80 220 223 163 190 226 229 167 194 193 224 164 79 
	20 221 133 63 162 227 137 65 166 222 134 161 223 228 138 165 229 224 135 64 164 
	20 58 108 227 195 56 112 233 199 107 225 226 196 111 231 232 200 57 110 230 197 
	20 108 35 137 227 112 37 141 233 109 136 228 225 113 140 234 231 110 36 139 230 
	20 195 227 166 80 199 233 170 82 226 229 167 194 232 235 171 198 197 230 168 81 
	20 227 137 65 166 233 141 67 170 228 138 165 229 234 142 169 235 230 139 66 168 
	20 56 112 233 199 54 116 239 203 111 231 232 200 115 237 238 204 55 114 236 201 
	20 112 37 141 233 116 39 145 239 113 140 234 231 117 144 240 237 114 38 143 236 
	20 199 233 170 82 203 239 174 84 232 235 171 198 238 241 175 202 201 236 172 83 
	20 233 141 67 170 239 145 69 174 234 142 169 235 240 146 173 241 236 143 68 172 
	20 54 116 239 203 52 120 245 207 115 237 238 204 119 243 244 208 53 118 242 205 
	20 116 39 145 239 120 41 149 245 117 144 240 237 121 148 246 243 118 40 147 242 
	20 203 239 174 84 207 245 178 86 238 241 175 202 244 247 179 206 205 242 176 85 
	20 239 145 69 174 245 149 71 178 240 146 173 241 246 150 177 247 242 147 70 176 
	20 52 120 245 207 50 124 251 211 119 243 244 208 123 249 250 212 51 122 248 209 
	20 120 41 149 245 124 43 153 251 121 148 246 243 125 152 252 249 122 42 151 248 
	20 207 245 178 86 211 251 182 88 244 247 179 206 250 253 183 210 209 248 180 87 
	20 245 149 71 178 251 153 73 182 246 150 177 247 252 154 181 253 248 151 72 180 
	20 50 124 251 211 48 128 257 215 123 249 250 212 127 255 256 216 49 126 254 213 
	20 124 43 153 251 128 45 157 257 125 152 252 249 129 156 258 255 126 44 155 254 
	20 211 251 182 88 215 257 186 90 250 253 183 210 256 259 187 214 213 254 184 89 
	20 251 153 73 182 257 157 75 186 252 154 181 253 258 158 185 259 254 155 74 184 
	20 48 128 257 215 4 21 99 30 127 255 256 216 20 97 98 31 47 130 260 217 
	20 128 45 157 257 21 5 24 99 129 156 258 255 22 23 100 97 130 46 159 260 
	20 215 257 186 90 30 99 27 7 256 259 187 214 98 101 28 29 217 260 188 91 
	20 257 157 75 186 99 24 6 27 258 158 185 259 100 25 26 101 260 159 76 188 

CELL_TYPES 32
	25
	25
	25
	25
	25
	25
	25
	25
	25
	25
	25
	25
	25
	25
	25
	25
	25
	25
	25
	25
	25
	25
	25
	25
	25
	25
	25
	25
	25
	25
	25
	25

POINT_DATA 261
FIELD U 1
	U 3 261 double
		 0.00000000E+00	 0.00000000E+00	 0.00000000E+00
		 0.00000000E+00	 0.00000000E+00	 0.00000000E+00
		 0.00000000E+00	 0.00000000E+00	 0.00000000E+00
		 0.00000000E+00	 0.00000000E+00	 0.00000000E+00
		-3.40521000E-04	 8.73465000E-01	 2.41140000E-02
		 3.40521000E-04	 8.73465000E-01	 2.41140000E-02
		-4.66103000E-04	 8.60226000E-01	-1.37262000E-01
		 4.66103000E-04	 8.60226000E-01	-1.37262000E-01
		 0.00000000E+00	 0.00000000E+00	 0.00000000E+00
		 0.00000000E+00	 0.00000000E+00	 0.00000000E+00
		 0.00000000E+00	 0.00000000E+00	 0.00000000E+00
		 0.00000000E+00	 0.00000000E+00	 0.00000000E+00
		 0.00000000E+00	 0.00000000E+00	 0.00000000E+00
		 0.00000000E+00	 0.00000000E+00	 0.00000000E+00
		 0.00000000E+00	 0.00000000E+00	 0.00000000E+00
		 0.00000000E+00	 0.00000000E+00	 0.00000000E+00
		 0.00000000E+00	 0.00000000E+00	 0.00000000E+00
		 0.00000000E+00	 0.00000000E+00	 0.00000000E+00
		 0.00000000E+00	 0.00000000E+00	 0.00000000E+00
		 0.00000000E+00	 0.00000000E+00	 0.00000000E+00
		-1.58117000E-04	 8.72573000E-01	 2.40640000E-02
		 0.00000000E+00	 8.72445000E-01	 2.38978000E-02
		 1.58117000E-04	 8.72573000E-01	 2.40640000E-02
		-4.14537000E-05	 8.69435000E-01	-1.64986000E-02
		-1.62019000E-05	 8.65733000E-01	-5.65268000E-02
		-4.35536000E-05	 8.62912000E-01	-9.66673000E-02
		-2.10380000E-04	 8.59402000E-01	-1.37168000E-01
		 0.00000000E+00	 8.59380000E-01	-1.37009000E-01
		 2.10380000E-04	 8.59402000E-01	-1.37168000E-01
		 4.35536000E-05	 8.62912000E-01	-9.66673000E-02
		 1.62019000E-05	 8.65733000E-01	-5.65268000E-02
		 4.14537000E-05	 8.69435000E-01	-1.64986000E-02
		-3.04104000E-03	 5.46756000E-03	 9.09498000E-03
		-2.23919000E-03	 1.94577000E-02	 1.80412000E-02
		-2.51706000E-03	 4.36616000E-02	 2.60642000E-02
		-2.22296000E-03	 7.55559000E-02	 3.30061000E-02
		-2.11300000E-03	 1.15622000E-01	 3.86775000E-02
		-1.89409000E-03	 1.62401000E-01	 4.31895000E-02
		-1.72408000E-03	 2.15707000E-01	 4.64054000E-02
		-1.52669000E-03	 2.74603000E-01	 4.83774000E-02
		-1.34333000E-03	 3.38561000E-01	 4.90737000E-02
		-1.15919000E-03	 4.06884000E-01	 4.85698000E-02
		-9.49281000E-04	 4.78906000E-01	 4.69072000E-02
		-7.67294000E-04	 5.54103000E-01	 4.41556000E-02
		-5.97093000E-04	 6.31462000E-01	 4.03718000E-02
		-5.05163000E-04	 7.10905000E-01	 3.56491000E-02
		-3.08743000E-05	 7.91363000E-01	 3.02044000E-02
		 3.08743000E-05	 7.91363000E-01	 3.02044000E-02
		 5.05163000E-04	 7.10905000E-01	 3.56491000E-02
		 5.97093000E-04	 6.31462000E-01	 4.03718000E-02
		 7.67294000E-04	 5.54103000E-01	 4.41556000E-02
		 9.49281000E-04	 4.78906000E-01	 4.69072000E-02
		 1.15919000E-03	 4.06884000E-01	 4.85698000E-02
		 1.34333000E-03	 3.38561000E-01	 4.90737000E-02
		 1.52669000E-03	 2.74603000E-01	 4.83774000E-02
		 1.72408000E-03	 2.15707000E-01	 4.64054000E-02
		 1.89409000E-03	 1.62401000E-01	 4.31895000E-02
		 2.11300000E-03	 1.15622000E-01	 3.86775000E-02
		 2.22296000E-03	 7.55559000E-02	 3.30061000E-02
		 2.51706000E-03	 4.36616000E-02	 2.60642000E-02
		 2.23919000E-03	 1.94577000E-02	 1.80412000E-02
		 3.04104000E-03	 5.46756000E-03	 9.09498000E-03
		 3.09043000E-03	 5.22737000E-03	-9.29877000E-03
		 2.22656000E-03	 1.86889000E-02	-1.87870000E-02
		 2.52566000E-03	 4.21439000E-02	-2.80518000E-02
		 2.22443000E-03	 7.30157000E-02	-3.70652000E-02
		 2.11280000E-03	 1.11994000E-01	-4.59143000E-02
		 1.88681000E-03	 1.57539000E-01	-5.47378000E-02
		 1.71795000E-03	 2.09604000E-01	-6.35373000E-02
		 1.51517000E-03	 2.67249000E-01	-7.23283000E-02
		 1.33079000E-03	 3.30023000E-01	-8.10721000E-02
		 1.14223000E-03	 3.97236000E-01	-8.97712000E-02
		 9.34645000E-04	 4.68275000E-01	-9.83465000E-02
		 7.42068000E-04	 5.42613000E-01	-1.06785000E-01
		 5.79801000E-04	 6.19313000E-01	-1.14900000E-01
		 4.59365000E-04	 6.98232000E-01	-1.22756000E-01
		 4.43001000E-05	 7.78436000E-01	-1.30142000E-01
		-3.09043000E-03	 5.22737000E-03	-9.29877000E-03
		-2.22656000E-03	 1.86889000E-02	-1.87870000E-02
		-2.52566000E-03	 4.21439000E-02	-2.80518000E-02
		-2.22443000E-03	 7.30157000E-02	-3.70652000E-02
		-2.11280000E-03	 1.11994000E-01	-4.59143000E-02
		-1.88681000E-03	 1.57539000E-01	-5.47378000E-02
		-1.71795000E-03	 2.09604000E-01	-6.35373000E-02
		-1.51517000E-03	 2.67249000E-01	-7.23283000E-02
		-1.33079000E-03	 3.30023000E-01	-8.10721000E-02
		-1.14223000E-03	 3.97236000E-01	-8.97712000E-02
		-9.34645000E-04	 4.68275000E-01	-9.83465000E-02
		-7.42068000E-04	 5.42613000E-01	-1.06785000E-01
		-5.79801000E-04	 6.19313000E-01	-1.14900000E-01
		-4.59365000E-04	 6.98232000E-01	-1.22756000E-01
		-4.43001000E-05	 7.78436000E-01	-1.30142000E-01
		 0.00000000E+00	 0.00000000E+00	 0.00000000E+00
		 0.00000000E+00	 0.00000000E+00	 0.00000000E+00
		 0.00000000E+00	 0.00000000E+00	 0.00000000E+00
		 0.00000000E+00	 0.00000000E+00	 0.00000000E+00
		 0.00000000E+00	 0.00000000E+00	 0.00000000E+00
		 0.00000000E+00	 8.68959000E-01	-1.64133000E-02
		 9.47865000E-06	 8.65681000E-01	-5.65429000E-02
		 0.00000000E+00	 8.65530000E-01	-5.65377000E-02
		-9.47865000E-06	 8.65681000E-01	-5.65429000E-02
		 0.00000000E+00	 8.62455000E-01	-9.66807000E-02
		 0.00000000E+00	 6.78027000E-03	 8.81127000E-03
		 1.10199000E-03	 2.05510000E-02	 1.81157000E-02
		 0.00000000E+00	 2.07885000E-02	 1.82342000E-02
		-1.10199000E-03	 2.05510000E-02	 1.81157000E-02
		 0.00000000E+00	 4.48709000E-02	 2.60024000E-02
		 1.10903000E-03	 7.64237000E-02	 3.30049000E-02
		 0.00000000E+00	 7.67551000E-02	 3.29918000E-02
		-1.10903000E-03	 7.64237000E-02	 3.30049000E-02
		 0.00000000E+00	 1.16658000E-01	 3.86219000E-02
		 9.44075000E-04	 1.63141000E-01	 4.31616000E-02
		 0.00000000E+00	 1.63380000E-01	 4.31388000E-02
		-9.44075000E-04	 1.63141000E-01	 4.31616000E-02
		 0.00000000E+00	 2.16562000E-01	 4.63496000E-02
		 7.62138000E-04	 2.75176000E-01	 4.83496000E-02
		 0.00000000E+00	 2.75368000E-01	 4.83226000E-02
		-7.62138000E-04	 2.75176000E-01	 4.83496000E-02
		 0.00000000E+00	 3.39234000E-01	 4.90252000E-02
		 5.78373000E-04	 4.07317000E-01	 4.85547000E-02
		 0.00000000E+00	 4.07443000E-01	 4.85322000E-02
		-5.78373000E-04	 4.07317000E-01	 4.85547000E-02
		 0.00000000E+00	 4.79391000E-01	 4.68748000E-02
		 3.84964000E-04	 5.54327000E-01	 4.41549000E-02
		 0.00000000E+00	 5.54409000E-01	 4.41400000E-02
		-3.84964000E-04	 5.54327000E-01	 4.41549000E-02
		 0.00000000E+00	 6.31816000E-01	 4.03605000E-02
		 2.45378000E-04	 7.11101000E-01	 3.56905000E-02
		 0.00000000E+00	 7.10996000E-01	 3.56993000E-02
		-2.45378000E-04	 7.11101000E-01	 3.56905000E-02
		 0.00000000E+00	 7.91468000E-01	 3.01870000E-02
		 4.24643000E-05	 3.46148000E-03	-8.57176000E-05
		-1.10697000E-03	 1.85102000E-02	 8.77962000E-03
		 3.69019000E-05	 1.84304000E-02	-3.33264000E-04
		 1.14628000E-03	 1.81191000E-02	-9.46936000E-03
		 3.54557000E-05	 4.14380000E-02	-9.05446000E-04
		-1.09394000E-03	 7.42418000E-02	 1.54350000E-02
		 2.58103000E-05	 7.34573000E-02	-1.95784000E-03
		 1.12472000E-03	 7.29841000E-02	-1.93737000E-02
		 1.91069000E-05	 1.12675000E-01	-3.51453000E-03
		-9.38527000E-04	 1.60516000E-01	 1.86771000E-02
		 1.50343000E-05	 1.59136000E-01	-5.68564000E-03
		 9.53055000E-04	 1.58101000E-01	-3.00896000E-02
		 1.04245000E-05	 2.11772000E-01	-8.46242000E-03
		-7.59877000E-04	 2.72202000E-01	 1.81686000E-02
		 6.10045000E-06	 2.70200000E-01	-1.18814000E-02
		 7.62142000E-04	 2.68548000E-01	-4.19769000E-02
		 1.65567000E-06	 3.33631000E-01	-1.59078000E-02
		-5.76398000E-04	 4.04028000E-01	 1.39500000E-02
		-8.81572000E-07	 4.01479000E-01	-2.05143000E-02
		 5.68302000E-04	 3.99230000E-01	-5.50228000E-02
		-4.05069000E-06	 4.73134000E-01	-2.56507000E-02
		-3.98731000E-04	 5.50864000E-01	 6.36201000E-03
		-4.67119000E-06	 5.47861000E-01	-3.12370000E-02
		 3.81302000E-04	 5.45153000E-01	-6.88892000E-02
		-1.04007000E-05	 6.25203000E-01	-3.72325000E-02
		-2.08081000E-04	 7.07542000E-01	-3.97000000E-03
		-1.01881000E-05	 7.04237000E-01	-4.34889000E-02
		 1.76759000E-04	 7.01226000E-01	-8.30380000E-02
		-2.80972000E-06	 7.84862000E-01	-4.99822000E-02
		 0.00000000E+00	 6.54262000E-03	-9.05256000E-03
		 1.10873000E-03	 1.97538000E-02	-1.89499000E-02
		 0.00000000E+00	 2.00020000E-02	-1.91002000E-02
		-1.10873000E-03	 1.97538000E-02	-1.89499000E-02
		 0.00000000E+00	 4.33261000E-02	-2.81268000E-02
		 1.11489000E-03	 7.38686000E-02	-3.71968000E-02
		 0.00000000E+00	 7.42105000E-02	-3.72317000E-02
		-1.11489000E-03	 7.38686000E-02	-3.71968000E-02
		 0.00000000E+00	 1.13011000E-01	-4.60389000E-02
		 9.45157000E-04	 1.58262000E-01	-5.48570000E-02
		 0.00000000E+00	 1.58508000E-01	-5.48832000E-02
		-9.45157000E-04	 1.58262000E-01	-5.48570000E-02
		 0.00000000E+00	 2.10443000E-01	-6.36738000E-02
		 7.59129000E-04	 2.67807000E-01	-7.24431000E-02
		 0.00000000E+00	 2.68003000E-01	-7.24629000E-02
		-7.59129000E-04	 2.67807000E-01	-7.24431000E-02
		 0.00000000E+00	 3.30681000E-01	-8.12023000E-02
		 5.71405000E-04	 3.97654000E-01	-8.98748000E-02
		 0.00000000E+00	 3.97784000E-01	-8.98889000E-02
		-5.71405000E-04	 3.97654000E-01	-8.98748000E-02
		 0.00000000E+00	 4.68744000E-01	-9.84595000E-02
		 3.73230000E-04	 5.42828000E-01	-1.06862000E-01
		 0.00000000E+00	 5.42917000E-01	-1.06867000E-01
		-3.73230000E-04	 5.42828000E-01	-1.06862000E-01
		 0.00000000E+00	 6.19646000E-01	-1.14996000E-01
		 2.22060000E-04	 6.98423000E-01	-1.22823000E-01
		 0.00000000E+00	 6.98327000E-01	-1.22818000E-01
		-2.22060000E-04	 6.98423000E-01	-1.22823000E-01
		 0.00000000E+00	 7.78517000E-01	-1.30195000E-01
		-4.24643000E-05	 3.46148000E-03	-8.57176000E-05
		-1.14628000E-03	 1.81191000E-02	-9.46936000E-03
		-3.69019000E-05	 1.84304000E-02	-3.33264000E-04
		 1.10697000E-03	 1.85102000E-02	 8.77962000E-03
		-3.54557000E-05	 4.14380000E-02	-9.05446000E-04
		-1.12472000E-03	 7.29841000E-02	-1.93737000E-02
		-2.58103000E-05	 7.34573000E-02	-1.95784000E-03
		 1.09394000E-03	 7.42418000E-02	 1.54350000E-02
		-1.91069000E-05	 1.12675000E-01	-3.51453000E-03
		-9.53055000E-04	 1.58101000E-01	-3.00896000E-02
		-1.50343000E-05	 1.59136000E-01	-5.68564000E-03
		 9.38527000E-04	 1.60516000E-01	 1.86771000E-02
		-1.04245000E-05	 2.11772000E-01	-8.46242000E-03
		-7.62142000E-04	 2.68548000E-01	-4.19769000E-02
		-6.10045000E-06	 2.70200000E-01	-1.18814000E-02
		 7.59877000E-04	 2.72202000E-01	 1.81686000E-02
		-1.65567000E-06	 3.33631000E-01	-1.59078000E-02
		-5.68302000E-04	 3.99230000E-01	-5.50228000E-02
		 8.81572000E-07	 4.01479000E-01	-2.05143000E-02
		 5.76398000E-04	 4.04028000E-01	 1.39500000E-02
		 4.05069000E-06	 4.73134000E-01	-2.56507000E-02
		-3.81302000E-04	 5.45153000E-01	-6.88892000E-02
		 4.67119000E-06	 5.47861000E-01	-3.12370000E-02
		 3.98731000E-04	 5.50864000E-01	 6.36201000E-03
		 1.04007000E-05	 6.25203000E-01	-3.72325000E-02
		-1.76759000E-04	 7.01226000E-01	-8.30380000E-02
		 1.01881000E-05	 7.04237000E-01	-4.34889000E-02
		 2.08081000E-04	 7.07542000E-01	-3.97000000E-03
		 2.80972000E-06	 7.84862000E-01	-4.99822000E-02
		 0.00000000E+00	 4.76798000E-03	-1.09645000E-04
		 0.00000000E+00	 1.97745000E-02	 8.83184000E-03
		-2.01567000E-05	 1.94686000E-02	-3.71649000E-04
		 0.00000000E+00	 1.96501000E-02	-3.83866000E-04
		 2.01567000E-05	 1.94686000E-02	-3.71649000E-04
		 0.00000000E+00	 1.93701000E-02	-9.63330000E-03
		 0.00000000E+00	 4.26779000E-02	-9.76311000E-04
		 0.00000000E+00	 7.54032000E-02	 1.54132000E-02
		-1.38912000E-05	 7.42718000E-02	-2.02097000E-03
		 0.00000000E+00	 7.45674000E-02	-2.03994000E-03
		 1.38912000E-05	 7.42718000E-02	-2.02097000E-03
		 0.00000000E+00	 7.41360000E-02	-1.95228000E-02
		 0.00000000E+00	 1.13732000E-01	-3.60768000E-03
		 0.00000000E+00	 1.61475000E-01	 1.86239000E-02
		-8.26397000E-06	 1.59847000E-01	-5.75671000E-03
		 0.00000000E+00	 1.60070000E-01	-5.77919000E-03
		 8.26397000E-06	 1.59847000E-01	-5.75671000E-03
		 0.00000000E+00	 1.59048000E-01	-3.02284000E-02
		 0.00000000E+00	 2.12629000E-01	-8.55948000E-03
		 0.00000000E+00	 2.72966000E-01	 1.81152000E-02
		-3.49037000E-06	 2.70765000E-01	-1.19527000E-02
		 0.00000000E+00	 2.70955000E-01	-1.19756000E-02
		 3.49037000E-06	 2.70765000E-01	-1.19527000E-02
		 0.00000000E+00	 2.69300000E-01	-4.21119000E-02
		 0.00000000E+00	 3.34291000E-01	-1.59958000E-02
		 0.00000000E+00	 4.04599000E-01	 1.39090000E-02
		 5.26449000E-08	 4.01910000E-01	-2.05757000E-02
		 0.00000000E+00	 4.02058000E-01	-2.05967000E-02
		-5.26448000E-08	 4.01910000E-01	-2.05757000E-02
		 0.00000000E+00	 3.99789000E-01	-5.51429000E-02
		 0.00000000E+00	 4.73593000E-01	-2.57199000E-02
		 0.00000000E+00	 5.51230000E-01	 6.34939000E-03
		 2.67667000E-06	 5.48159000E-01	-3.12857000E-02
		 0.00000000E+00	 5.48263000E-01	-3.13027000E-02
		-2.67667000E-06	 5.48159000E-01	-3.12857000E-02
		 0.00000000E+00	 5.45508000E-01	-6.89865000E-02
		 0.00000000E+00	 6.25474000E-01	-3.72710000E-02
		 0.00000000E+00	 7.07678000E-01	-3.97245000E-03
		 3.93282000E-06	 7.04390000E-01	-4.35082000E-02
		 0.00000000E+00	 7.04475000E-01	-4.35185000E-02
		-3.93282000E-06	 7.04390000E-01	-4.35082000E-02
		 0.00000000E+00	 7.01369000E-01	-8.30880000E-02
		 0.00000000E+00	 7.84868000E-01	-5.00029000E-02
