# vtk DataFile Version 3.0

ASCII
DATASET UNSTRUCTURED_GRID

POINTS 261 double
	 0.00000000E+00	 0.00000000E+00	 0.00000000E+00
	 1.00000000E+00	 0.00000000E+00	 0.00000000E+00
	 1.00000000E+00	 1.00000000E+00	 0.00000000E+00
	 0.00000000E+00	 1.00000000E+00	 0.00000000E+00
	 0.00000000E+00	 0.00000000E+00	 8.00000000E+00
	 1.00000000E+00	 0.00000000E+00	 8.00000000E+00
	 1.00000000E+00	 1.00000000E+00	 8.00000000E+00
	 0.00000000E+00	 1.00000000E+00	 8.00000000E+00
	 2.50000000E-01	 0.00000000E+00	 0.00000000E+00
	 5.00000000E-01	 0.00000000E+00	 0.00000000E+00
	 7.50000000E-01	 0.00000000E+00	 0.00000000E+00
	 1.00000000E+00	 2.50000000E-01	 0.00000000E+00
	 1.00000000E+00	 5.00000000E-01	 0.00000000E+00
	 1.00000000E+00	 7.50000000E-01	 0.00000000E+00
	 7.50000000E-01	 1.00000000E+00	 0.00000000E+00
	 5.00000000E-01	 1.00000000E+00	 0.00000000E+00
	 2.50000000E-01	 1.00000000E+00	 0.00000000E+00
	 0.00000000E+00	 7.50000000E-01	 0.00000000E+00
	 0.00000000E+00	 5.00000000E-01	 0.00000000E+00
	 0.00000000E+00	 2.50000000E-01	 0.00000000E+00
	 2.50000000E-01	 0.00000000E+00	 8.00000000E+00
	 5.00000000E-01	 0.00000000E+00	 8.00000000E+00
	 7.50000000E-01	 0.00000000E+00	 8.00000000E+00
	 1.00000000E+00	 2.50000000E-01	 8.00000000E+00
	 1.00000000E+00	 5.00000000E-01	 8.00000000E+00
	 1.00000000E+00	 7.50000000E-01	 8.00000000E+00
	 7.50000000E-01	 1.00000000E+00	 8.00000000E+00
	 5.00000000E-01	 1.00000000E+00	 8.00000000E+00
	 2.50000000E-01	 1.00000000E+00	 8.00000000E+00
	 0.00000000E+00	 7.50000000E-01	 8.00000000E+00
	 0.00000000E+00	 5.00000000E-01	 8.00000000E+00
	 0.00000000E+00	 2.50000000E-01	 8.00000000E+00
	 1.00000000E+00	 0.00000000E+00	 5.00000000E-01
	 1.00000000E+00	 0.00000000E+00	 1.00000000E+00
	 1.00000000E+00	 0.00000000E+00	 1.50000000E+00
	 1.00000000E+00	 0.00000000E+00	 2.00000000E+00
	 1.00000000E+00	 0.00000000E+00	 2.50000000E+00
	 1.00000000E+00	 0.00000000E+00	 3.00000000E+00
	 1.00000000E+00	 0.00000000E+00	 3.50000000E+00
	 1.00000000E+00	 0.00000000E+00	 4.00000000E+00
	 1.00000000E+00	 0.00000000E+00	 4.50000000E+00
	 1.00000000E+00	 0.00000000E+00	 5.00000000E+00
	 1.00000000E+00	 0.00000000E+00	 5.50000000E+00
	 1.00000000E+00	 0.00000000E+00	 6.00000000E+00
	 1.00000000E+00	 0.00000000E+00	 6.50000000E+00
	 1.00000000E+00	 0.00000000E+00	 7.00000000E+00
	 1.00000000E+00	 0.00000000E+00	 7.50000000E+00
	 0.00000000E+00	 0.00000000E+00	 7.50000000E+00
	 0.00000000E+00	 0.00000000E+00	 7.00000000E+00
	 0.00000000E+00	 0.00000000E+00	 6.50000000E+00
	 0.00000000E+00	 0.00000000E+00	 6.00000000E+00
	 0.00000000E+00	 0.00000000E+00	 5.50000000E+00
	 0.00000000E+00	 0.00000000E+00	 5.00000000E+00
	 0.00000000E+00	 0.00000000E+00	 4.50000000E+00
	 0.00000000E+00	 0.00000000E+00	 4.00000000E+00
	 0.00000000E+00	 0.00000000E+00	 3.50000000E+00
	 0.00000000E+00	 0.00000000E+00	 3.00000000E+00
	 0.00000000E+00	 0.00000000E+00	 2.50000000E+00
	 0.00000000E+00	 0.00000000E+00	 2.00000000E+00
	 0.00000000E+00	 0.00000000E+00	 1.50000000E+00
	 0.00000000E+00	 0.00000000E+00	 1.00000000E+00
	 0.00000000E+00	 0.00000000E+00	 5.00000000E-01
	 1.00000000E+00	 1.00000000E+00	 5.00000000E-01
	 1.00000000E+00	 1.00000000E+00	 1.00000000E+00
	 1.00000000E+00	 1.00000000E+00	 1.50000000E+00
	 1.00000000E+00	 1.00000000E+00	 2.00000000E+00
	 1.00000000E+00	 1.00000000E+00	 2.50000000E+00
	 1.00000000E+00	 1.00000000E+00	 3.00000000E+00
	 1.00000000E+00	 1.00000000E+00	 3.50000000E+00
	 1.00000000E+00	 1.00000000E+00	 4.00000000E+00
	 1.00000000E+00	 1.00000000E+00	 4.50000000E+00
	 1.00000000E+00	 1.00000000E+00	 5.00000000E+00
	 1.00000000E+00	 1.00000000E+00	 5.50000000E+00
	 1.00000000E+00	 1.00000000E+00	 6.00000000E+00
	 1.00000000E+00	 1.00000000E+00	 6.50000000E+00
	 1.00000000E+00	 1.00000000E+00	 7.00000000E+00
	 1.00000000E+00	 1.00000000E+00	 7.50000000E+00
	 0.00000000E+00	 1.00000000E+00	 5.00000000E-01
	 0.00000000E+00	 1.00000000E+00	 1.00000000E+00
	 0.00000000E+00	 1.00000000E+00	 1.50000000E+00
	 0.00000000E+00	 1.00000000E+00	 2.00000000E+00
	 0.00000000E+00	 1.00000000E+00	 2.50000000E+00
	 0.00000000E+00	 1.00000000E+00	 3.00000000E+00
	 0.00000000E+00	 1.00000000E+00	 3.50000000E+00
	 0.00000000E+00	 1.00000000E+00	 4.00000000E+00
	 0.00000000E+00	 1.00000000E+00	 4.50000000E+00
	 0.00000000E+00	 1.00000000E+00	 5.00000000E+00
	 0.00000000E+00	 1.00000000E+00	 5.50000000E+00
	 0.00000000E+00	 1.00000000E+00	 6.00000000E+00
	 0.00000000E+00	 1.00000000E+00	 6.50000000E+00
	 0.00000000E+00	 1.00000000E+00	 7.00000000E+00
	 0.00000000E+00	 1.00000000E+00	 7.50000000E+00
	 5.00000000E-01	 2.50000000E-01	 0.00000000E+00
	 2.50000000E-01	 5.00000000E-01	 0.00000000E+00
	 5.00000000E-01	 5.00000000E-01	 0.00000000E+00
	 7.50000000E-01	 5.00000000E-01	 0.00000000E+00
	 5.00000000E-01	 7.50000000E-01	 0.00000000E+00
	 5.00000000E-01	 2.50000000E-01	 8.00000000E+00
	 2.50000000E-01	 5.00000000E-01	 8.00000000E+00
	 5.00000000E-01	 5.00000000E-01	 8.00000000E+00
	 7.50000000E-01	 5.00000000E-01	 8.00000000E+00
	 5.00000000E-01	 7.50000000E-01	 8.00000000E+00
	 5.00000000E-01	 0.00000000E+00	 5.00000000E-01
	 2.50000000E-01	 0.00000000E+00	 1.00000000E+00
	 5.00000000E-01	 0.00000000E+00	 1.00000000E+00
	 7.50000000E-01	 0.00000000E+00	 1.00000000E+00
	 5.00000000E-01	 0.00000000E+00	 1.50000000E+00
	 2.50000000E-01	 0.00000000E+00	 2.00000000E+00
	 5.00000000E-01	 0.00000000E+00	 2.00000000E+00
	 7.50000000E-01	 0.00000000E+00	 2.00000000E+00
	 5.00000000E-01	 0.00000000E+00	 2.50000000E+00
	 2.50000000E-01	 0.00000000E+00	 3.00000000E+00
	 5.00000000E-01	 0.00000000E+00	 3.00000000E+00
	 7.50000000E-01	 0.00000000E+00	 3.00000000E+00
	 5.00000000E-01	 0.00000000E+00	 3.50000000E+00
	 2.50000000E-01	 0.00000000E+00	 4.00000000E+00
	 5.00000000E-01	 0.00000000E+00	 4.00000000E+00
	 7.50000000E-01	 0.00000000E+00	 4.00000000E+00
	 5.00000000E-01	 0.00000000E+00	 4.50000000E+00
	 2.50000000E-01	 0.00000000E+00	 5.00000000E+00
	 5.00000000E-01	 0.00000000E+00	 5.00000000E+00
	 7.50000000E-01	 0.00000000E+00	 5.00000000E+00
	 5.00000000E-01	 0.00000000E+00	 5.50000000E+00
	 2.50000000E-01	 0.00000000E+00	 6.00000000E+00
	 5.00000000E-01	 0.00000000E+00	 6.00000000E+00
	 7.50000000E-01	 0.00000000E+00	 6.00000000E+00
	 5.00000000E-01	 0.00000000E+00	 6.50000000E+00
	 2.50000000E-01	 0.00000000E+00	 7.00000000E+00
	 5.00000000E-01	 0.00000000E+00	 7.00000000E+00
	 7.50000000E-01	 0.00000000E+00	 7.00000000E+00
	 5.00000000E-01	 0.00000000E+00	 7.50000000E+00
	 1.00000000E+00	 5.00000000E-01	 5.00000000E-01
	 1.00000000E+00	 2.50000000E-01	 1.00000000E+00
	 1.00000000E+00	 5.00000000E-01	 1.00000000E+00
	 1.00000000E+00	 7.50000000E-01	 1.00000000E+00
	 1.00000000E+00	 5.00000000E-01	 1.50000000E+00
	 1.00000000E+00	 2.50000000E-01	 2.00000000E+00
	 1.00000000E+00	 5.00000000E-01	 2.00000000E+00
	 1.00000000E+00	 7.50000000E-01	 2.00000000E+00
	 1.00000000E+00	 5.00000000E-01	 2.50000000E+00
	 1.00000000E+00	 2.50000000E-01	 3.00000000E+00
	 1.00000000E+00	 5.00000000E-01	 3.00000000E+00
	 1.00000000E+00	 7.50000000E-01	 3.00000000E+00
	 1.00000000E+00	 5.00000000E-01	 3.50000000E+00
	 1.00000000E+00	 2.50000000E-01	 4.00000000E+00
	 1.00000000E+00	 5.00000000E-01	 4.00000000E+00
	 1.00000000E+00	 7.50000000E-01	 4.00000000E+00
	 1.00000000E+00	 5.00000000E-01	 4.50000000E+00
	 1.00000000E+00	 2.50000000E-01	 5.00000000E+00
	 1.00000000E+00	 5.00000000E-01	 5.00000000E+00
	 1.00000000E+00	 7.50000000E-01	 5.00000000E+00
	 1.00000000E+00	 5.00000000E-01	 5.50000000E+00
	 1.00000000E+00	 2.50000000E-01	 6.00000000E+00
	 1.00000000E+00	 5.00000000E-01	 6.00000000E+00
	 1.00000000E+00	 7.50000000E-01	 6.00000000E+00
	 1.00000000E+00	 5.00000000E-01	 6.50000000E+00
	 1.00000000E+00	 2.50000000E-01	 7.00000000E+00
	 1.00000000E+00	 5.00000000E-01	 7.00000000E+00
	 1.00000000E+00	 7.50000000E-01	 7.00000000E+00
	 1.00000000E+00	 5.00000000E-01	 7.50000000E+00
	 5.00000000E-01	 1.00000000E+00	 5.00000000E-01
	 7.50000000E-01	 1.00000000E+00	 1.00000000E+00
	 5.00000000E-01	 1.00000000E+00	 1.00000000E+00
	 2.50000000E-01	 1.00000000E+00	 1.00000000E+00
	 5.00000000E-01	 1.00000000E+00	 1.50000000E+00
	 7.50000000E-01	 1.00000000E+00	 2.00000000E+00
	 5.00000000E-01	 1.00000000E+00	 2.00000000E+00
	 2.50000000E-01	 1.00000000E+00	 2.00000000E+00
	 5.00000000E-01	 1.00000000E+00	 2.50000000E+00
	 7.50000000E-01	 1.00000000E+00	 3.00000000E+00
	 5.00000000E-01	 1.00000000E+00	 3.00000000E+00
	 2.50000000E-01	 1.00000000E+00	 3.00000000E+00
	 5.00000000E-01	 1.00000000E+00	 3.50000000E+00
	 7.50000000E-01	 1.00000000E+00	 4.00000000E+00
	 5.00000000E-01	 1.00000000E+00	 4.00000000E+00
	 2.50000000E-01	 1.00000000E+00	 4.00000000E+00
	 5.00000000E-01	 1.00000000E+00	 4.50000000E+00
	 7.50000000E-01	 1.00000000E+00	 5.00000000E+00
	 5.00000000E-01	 1.00000000E+00	 5.00000000E+00
	 2.50000000E-01	 1.00000000E+00	 5.00000000E+00
	 5.00000000E-01	 1.00000000E+00	 5.50000000E+00
	 7.50000000E-01	 1.00000000E+00	 6.00000000E+00
	 5.00000000E-01	 1.00000000E+00	 6.00000000E+00
	 2.50000000E-01	 1.00000000E+00	 6.00000000E+00
	 5.00000000E-01	 1.00000000E+00	 6.50000000E+00
	 7.50000000E-01	 1.00000000E+00	 7.00000000E+00
	 5.00000000E-01	 1.00000000E+00	 7.00000000E+00
	 2.50000000E-01	 1.00000000E+00	 7.00000000E+00
	 5.00000000E-01	 1.00000000E+00	 7.50000000E+00
	 0.00000000E+00	 5.00000000E-01	 5.00000000E-01
	 0.00000000E+00	 7.50000000E-01	 1.00000000E+00
	 0.00000000E+00	 5.00000000E-01	 1.00000000E+00
	 0.00000000E+00	 2.50000000E-01	 1.00000000E+00
	 0.00000000E+00	 5.00000000E-01	 1.50000000E+00
	 0.00000000E+00	 7.50000000E-01	 2.00000000E+00
	 0.00000000E+00	 5.00000000E-01	 2.00000000E+00
	 0.00000000E+00	 2.50000000E-01	 2.00000000E+00
	 0.00000000E+00	 5.00000000E-01	 2.50000000E+00
	 0.00000000E+00	 7.50000000E-01	 3.00000000E+00
	 0.00000000E+00	 5.00000000E-01	 3.00000000E+00
	 0.00000000E+00	 2.50000000E-01	 3.00000000E+00
	 0.00000000E+00	 5.00000000E-01	 3.50000000E+00
	 0.00000000E+00	 7.50000000E-01	 4.00000000E+00
	 0.00000000E+00	 5.00000000E-01	 4.00000000E+00
	 0.00000000E+00	 2.50000000E-01	 4.00000000E+00
	 0.00000000E+00	 5.00000000E-01	 4.50000000E+00
	 0.00000000E+00	 7.50000000E-01	 5.00000000E+00
	 0.00000000E+00	 5.00000000E-01	 5.00000000E+00
	 0.00000000E+00	 2.50000000E-01	 5.00000000E+00
	 0.00000000E+00	 5.00000000E-01	 5.50000000E+00
	 0.00000000E+00	 7.50000000E-01	 6.00000000E+00
	 0.00000000E+00	 5.00000000E-01	 6.00000000E+00
	 0.00000000E+00	 2.50000000E-01	 6.00000000E+00
	 0.00000000E+00	 5.00000000E-01	 6.50000000E+00
	 0.00000000E+00	 7.50000000E-01	 7.00000000E+00
	 0.00000000E+00	 5.00000000E-01	 7.00000000E+00
	 0.00000000E+00	 2.50000000E-01	 7.00000000E+00
	 0.00000000E+00	 5.00000000E-01	 7.50000000E+00
	 5.00000000E-01	 5.00000000E-01	 5.00000000E-01
	 5.00000000E-01	 2.50000000E-01	 1.00000000E+00
	 2.50000000E-01	 5.00000000E-01	 1.00000000E+00
	 5.00000000E-01	 5.00000000E-01	 1.00000000E+00
	 7.50000000E-01	 5.00000000E-01	 1.00000000E+00
	 5.00000000E-01	 7.50000000E-01	 1.00000000E+00
	 5.00000000E-01	 5.00000000E-01	 1.50000000E+00
	 5.00000000E-01	 2.50000000E-01	 2.00000000E+00
	 2.50000000E-01	 5.00000000E-01	 2.00000000E+00
	 5.00000000E-01	 5.00000000E-01	 2.00000000E+00
	 7.50000000E-01	 5.00000000E-01	 2.00000000E+00
	 5.00000000E-01	 7.50000000E-01	 2.00000000E+00
	 5.00000000E-01	 5.00000000E-01	 2.50000000E+00
	 5.00000000E-01	 2.50000000E-01	 3.00000000E+00
	 2.50000000E-01	 5.00000000E-01	 3.00000000E+00
	 5.00000000E-01	 5.00000000E-01	 3.00000000E+00
	 7.50000000E-01	 5.00000000E-01	 3.00000000E+00
	 5.00000000E-01	 7.50000000E-01	 3.00000000E+00
	 5.00000000E-01	 5.00000000E-01	 3.50000000E+00
	 5.00000000E-01	 2.50000000E-01	 4.00000000E+00
	 2.50000000E-01	 5.00000000E-01	 4.00000000E+00
	 5.00000000E-01	 5.00000000E-01	 4.00000000E+00
	 7.50000000E-01	 5.00000000E-01	 4.00000000E+00
	 5.00000000E-01	 7.50000000E-01	 4.00000000E+00
	 5.00000000E-01	 5.00000000E-01	 4.50000000E+00
	 5.00000000E-01	 2.50000000E-01	 5.00000000E+00
	 2.50000000E-01	 5.00000000E-01	 5.00000000E+00
	 5.00000000E-01	 5.00000000E-01	 5.00000000E+00
	 7.50000000E-01	 5.00000000E-01	 5.00000000E+00
	 5.00000000E-01	 7.50000000E-01	 5.00000000E+00
	 5.00000000E-01	 5.00000000E-01	 5.50000000E+00
	 5.00000000E-01	 2.50000000E-01	 6.00000000E+00
	 2.50000000E-01	 5.00000000E-01	 6.00000000E+00
	 5.00000000E-01	 5.00000000E-01	 6.00000000E+00
	 7.50000000E-01	 5.00000000E-01	 6.00000000E+00
	 5.00000000E-01	 7.50000000E-01	 6.00000000E+00
	 5.00000000E-01	 5.00000000E-01	 6.50000000E+00
	 5.00000000E-01	 2.50000000E-01	 7.00000000E+00
	 2.50000000E-01	 5.00000000E-01	 7.00000000E+00
	 5.00000000E-01	 5.00000000E-01	 7.00000000E+00
	 7.50000000E-01	 5.00000000E-01	 7.00000000E+00
	 5.00000000E-01	 7.50000000E-01	 7.00000000E+00
	 5.00000000E-01	 5.00000000E-01	 7.50000000E+00

CELLS 32 672
	20 0 9 94 18 60 104 221 191 8 92 93 19 103 219 220 192 61 102 218 189 
	20 9 1 12 94 104 33 133 221 10 11 95 92 105 132 222 219 102 32 131 218 
	20 18 94 15 3 191 221 162 78 93 96 16 17 220 223 163 190 189 218 160 77 
	20 94 12 2 15 221 133 63 162 95 13 14 96 222 134 161 223 218 131 62 160 
	20 60 104 221 191 58 108 227 195 103 219 220 192 107 225 226 196 59 106 224 193 
	20 104 33 133 221 108 35 137 227 105 132 222 219 109 136 228 225 106 34 135 224 
	20 191 221 162 78 195 227 166 80 220 223 163 190 226 229 167 194 193 224 164 79 
	20 221 133 63 162 227 137 65 166 222 134 161 223 228 138 165 229 224 135 64 164 
	20 58 108 227 195 56 112 233 199 107 225 226 196 111 231 232 200 57 110 230 197 
	20 108 35 137 227 112 37 141 233 109 136 228 225 113 140 234 231 110 36 139 230 
	20 195 227 166 80 199 233 170 82 226 229 167 194 232 235 171 198 197 230 168 81 
	20 227 137 65 166 233 141 67 170 228 138 165 229 234 142 169 235 230 139 66 168 
	20 56 112 233 199 54 116 239 203 111 231 232 200 115 237 238 204 55 114 236 201 
	20 112 37 141 233 116 39 145 239 113 140 234 231 117 144 240 237 114 38 143 236 
	20 199 233 170 82 203 239 174 84 232 235 171 198 238 241 175 202 201 236 172 83 
	20 233 141 67 170 239 145 69 174 234 142 169 235 240 146 173 241 236 143 68 172 
	20 54 116 239 203 52 120 245 207 115 237 238 204 119 243 244 208 53 118 242 205 
	20 116 39 145 239 120 41 149 245 117 144 240 237 121 148 246 243 118 40 147 242 
	20 203 239 174 84 207 245 178 86 238 241 175 202 244 247 179 206 205 242 176 85 
	20 239 145 69 174 245 149 71 178 240 146 173 241 246 150 177 247 242 147 70 176 
	20 52 120 245 207 50 124 251 211 119 243 244 208 123 249 250 212 51 122 248 209 
	20 120 41 149 245 124 43 153 251 121 148 246 243 125 152 252 249 122 42 151 248 
	20 207 245 178 86 211 251 182 88 244 247 179 206 250 253 183 210 209 248 180 87 
	20 245 149 71 178 251 153 73 182 246 150 177 247 252 154 181 253 248 151 72 180 
	20 50 124 251 211 48 128 257 215 123 249 250 212 127 255 256 216 49 126 254 213 
	20 124 43 153 251 128 45 157 257 125 152 252 249 129 156 258 255 126 44 155 254 
	20 211 251 182 88 215 257 186 90 250 253 183 210 256 259 187 214 213 254 184 89 
	20 251 153 73 182 257 157 75 186 252 154 181 253 258 158 185 259 254 155 74 184 
	20 48 128 257 215 4 21 99 30 127 255 256 216 20 97 98 31 47 130 260 217 
	20 128 45 157 257 21 5 24 99 129 156 258 255 22 23 100 97 130 46 159 260 
	20 215 257 186 90 30 99 27 7 256 259 187 214 98 101 28 29 217 260 188 91 
	20 257 157 75 186 99 24 6 27 258 158 185 259 100 25 26 101 260 159 76 188 

CELL_TYPES 32
	25
	25
	25
	25
	25
	25
	25
	25
	25
	25
	25
	25
	25
	25
	25
	25
	25
	25
	25
	25
	25
	25
	25
	25
	25
	25
	25
	25
	25
	25
	25
	25

POINT_DATA 261
FIELD U 1
	U 3 261 double
		 0.00000000E+00	 0.00000000E+00	 0.00000000E+00
		 0.00000000E+00	 0.00000000E+00	 0.00000000E+00
		 0.00000000E+00	 0.00000000E+00	 0.00000000E+00
		 0.00000000E+00	 0.00000000E+00	 0.00000000E+00
		 1.59835000E-05	 1.52870000E-02	 2.41985000E-03
		-2.51611000E-05	 1.52837000E-02	 2.42066000E-03
		 1.93331000E-05	 1.52699000E-02	-2.47681000E-03
		-2.21849000E-05	 1.52747000E-02	-2.47781000E-03
		 0.00000000E+00	 0.00000000E+00	 0.00000000E+00
		 0.00000000E+00	 0.00000000E+00	 0.00000000E+00
		 0.00000000E+00	 0.00000000E+00	 0.00000000E+00
		 0.00000000E+00	 0.00000000E+00	 0.00000000E+00
		 0.00000000E+00	 0.00000000E+00	 0.00000000E+00
		 0.00000000E+00	 0.00000000E+00	 0.00000000E+00
		 0.00000000E+00	 0.00000000E+00	 0.00000000E+00
		 0.00000000E+00	 0.00000000E+00	 0.00000000E+00
		 0.00000000E+00	 0.00000000E+00	 0.00000000E+00
		 0.00000000E+00	 0.00000000E+00	 0.00000000E+00
		 0.00000000E+00	 0.00000000E+00	 0.00000000E+00
		 0.00000000E+00	 0.00000000E+00	 0.00000000E+00
		 1.13850000E-05	 1.53057000E-02	 2.42794000E-03
		-4.74557000E-06	 1.52761000E-02	 2.43009000E-03
		-2.07635000E-05	 1.53040000E-02	 2.42855000E-03
		-3.63771000E-06	 1.52674000E-02	 1.18262000E-03
		-3.26636000E-06	 1.52420000E-02	-2.80992000E-05
		-2.28038000E-06	 1.52606000E-02	-1.23916000E-03
		 1.46794000E-05	 1.52913000E-02	-2.48505000E-03
		-1.41162000E-06	 1.52652000E-02	-2.48751000E-03
		-1.75028000E-05	 1.52940000E-02	-2.48569000E-03
		-2.03550000E-06	 1.52641000E-02	-1.23956000E-03
		-3.01848000E-06	 1.52443000E-02	-2.87886000E-05
		-4.14981000E-06	 1.52701000E-02	 1.18185000E-03
		 4.31277000E-05	-1.68266000E-04	-1.57270000E-04
		-5.23526000E-08	-4.46002000E-04	-2.40339000E-04
		-1.78256000E-05	-7.80403000E-04	-2.26852000E-04
		-4.56078000E-05	-1.03464000E-03	-1.25990000E-04
		-6.59001000E-05	-1.14782000E-03	 5.54265000E-05
		-8.37999000E-05	-1.02397000E-03	 3.00276000E-04
		-9.35206000E-05	-6.14804000E-04	 5.90674000E-04
		-9.63327000E-05	 1.24271000E-04	 9.00830000E-04
		-9.19642000E-05	 1.18771000E-03	 1.20305000E-03
		-8.35561000E-05	 2.56483000E-03	 1.48281000E-03
		-7.42732000E-05	 4.19623000E-03	 1.72455000E-03
		-6.61431000E-05	 6.06920000E-03	 1.93978000E-03
		-6.12803000E-05	 8.13012000E-03	 2.12524000E-03
		-4.51932000E-05	 1.04110000E-02	 2.29062000E-03
		-4.06872000E-05	 1.27939000E-02	 2.39086000E-03
		 3.09201000E-05	 1.27980000E-02	 2.39004000E-03
		 3.47560000E-05	 1.04161000E-02	 2.28978000E-03
		 4.97708000E-05	 8.13709000E-03	 2.12463000E-03
		 5.45905000E-05	 6.07714000E-03	 1.93922000E-03
		 6.33436000E-05	 4.20387000E-03	 1.72387000E-03
		 7.42168000E-05	 2.57193000E-03	 1.48226000E-03
		 8.43248000E-05	 1.19347000E-03	 1.20260000E-03
		 9.02153000E-05	 1.28934000E-04	 9.00538000E-04
		 8.84799000E-05	-6.11049000E-04	 5.90434000E-04
		 7.95862000E-05	-1.02080000E-03	 3.00069000E-04
		 6.23590000E-05	-1.14516000E-03	 5.52121000E-05
		 4.27442000E-05	-1.03241000E-03	-1.26203000E-04
		 1.56598000E-05	-7.78667000E-04	-2.27051000E-04
		-1.32909000E-06	-4.44838000E-04	-2.40494000E-04
		-4.37568000E-05	-1.67732000E-04	-1.57358000E-04
		-4.33948000E-05	-1.68572000E-04	 1.57878000E-04
		-3.23972000E-07	-4.46311000E-04	 2.41462000E-04
		 1.72112000E-05	-7.80703000E-04	 2.28437000E-04
		 4.48034000E-05	-1.03487000E-03	 1.28049000E-04
		 6.48819000E-05	-1.14803000E-03	-5.28961000E-05
		 8.26129000E-05	-1.02436000E-03	-2.97376000E-04
		 9.21591000E-05	-6.15739000E-04	-5.87777000E-04
		 9.47541000E-05	 1.22398000E-04	-8.98713000E-04
		 9.00643000E-05	 1.18459000E-03	-1.20279000E-03
		 8.11621000E-05	 2.56008000E-03	-1.48592000E-03
		 7.12354000E-05	 4.19020000E-03	-1.73272000E-03
		 6.25411000E-05	 6.06102000E-03	-1.95480000E-03
		 5.71150000E-05	 8.12110000E-03	-2.14831000E-03
		 4.10864000E-05	 1.03978000E-02	-2.32245000E-03
		 3.45038000E-05	 1.27837000E-02	-2.43444000E-03
		 4.38876000E-05	-1.67984000E-04	 1.57791000E-04
		 1.28951000E-06	-4.45123000E-04	 2.41305000E-04
		-1.58811000E-05	-7.78948000E-04	 2.28239000E-04
		-4.32235000E-05	-1.03263000E-03	 1.27833000E-04
		-6.30800000E-05	-1.14537000E-03	-5.31088000E-05
		-8.05216000E-05	-1.02118000E-03	-2.97592000E-04
		-8.96307000E-05	-6.11956000E-04	-5.88012000E-04
		-9.15630000E-05	 1.27143000E-04	-8.99025000E-04
		-8.60569000E-05	 1.19040000E-03	-1.20322000E-03
		-7.63501000E-05	 2.56734000E-03	-1.48653000E-03
		-6.60933000E-05	 4.19813000E-03	-1.73327000E-03
		-5.78941000E-05	 6.06950000E-03	-1.95533000E-03
		-5.39416000E-05	 8.12799000E-03	-2.14898000E-03
		-4.00290000E-05	 1.04049000E-02	-2.32421000E-03
		-3.62211000E-05	 1.27865000E-02	-2.43569000E-03
		 0.00000000E+00	 0.00000000E+00	 0.00000000E+00
		 0.00000000E+00	 0.00000000E+00	 0.00000000E+00
		 0.00000000E+00	 0.00000000E+00	 0.00000000E+00
		 0.00000000E+00	 0.00000000E+00	 0.00000000E+00
		 0.00000000E+00	 0.00000000E+00	 0.00000000E+00
		-3.90666000E-06	 1.53569000E-02	 1.20800000E-03
		-3.07969000E-06	 1.53137000E-02	-2.87556000E-05
		-3.11497000E-06	 1.54502000E-02	-2.87163000E-05
		-3.13046000E-06	 1.53127000E-02	-2.84957000E-05
		-2.28551000E-06	 1.53513000E-02	-1.26545000E-03
		-3.19892000E-07	-1.85470000E-04	-1.57069000E-04
		-8.57029000E-07	-4.50842000E-04	-2.49026000E-04
		-6.93016000E-07	-4.50420000E-04	-2.50206000E-04
		-5.22751000E-07	-4.51425000E-04	-2.49066000E-04
		-1.07167000E-06	-7.69725000E-04	-2.31600000E-04
		 2.06497000E-05	-1.01712000E-03	-1.31983000E-04
		-1.43696000E-06	-1.01400000E-03	-1.32102000E-04
		-2.35193000E-05	-1.01824000E-03	-1.31940000E-04
		-1.76731000E-06	-1.11344000E-03	 5.13616000E-05
		 3.87174000E-05	-9.92234000E-04	 2.96677000E-04
		-2.11701000E-06	-9.84205000E-04	 2.96819000E-04
		-4.29408000E-05	-9.93818000E-04	 2.96709000E-04
		-2.52188000E-06	-5.65980000E-04	 5.89443000E-04
		 4.35817000E-05	 1.61077000E-04	 9.00582000E-04
		-3.08283000E-06	 1.68835000E-04	 8.99962000E-04
		-4.97168000E-05	 1.58734000E-04	 9.00580000E-04
		-3.79382000E-06	 1.23741000E-03	 1.20498000E-03
		 3.46852000E-05	 2.59426000E-03	 1.48391000E-03
		-4.67967000E-06	 2.59812000E-03	 1.48233000E-03
		-4.40339000E-05	 2.59075000E-03	 1.48397000E-03
		-5.38209000E-06	 4.24150000E-03	 1.72705000E-03
		 2.45677000E-05	 6.09082000E-03	 1.93742000E-03
		-5.83513000E-06	 6.08529000E-03	 1.93451000E-03
		-3.61729000E-05	 6.08696000E-03	 1.93774000E-03
		-5.49430000E-06	 8.17281000E-03	 2.13265000E-03
		 1.44449000E-05	 1.04047000E-02	 2.28847000E-03
		-5.17925000E-06	 1.03958000E-02	 2.28447000E-03
		-2.48108000E-05	 1.04023000E-02	 2.28912000E-03
		-4.79726000E-06	 1.28464000E-02	 2.39793000E-03
		-1.39728000E-07	-1.44266000E-04	 2.99004000E-07
		-7.97605000E-08	-4.47442000E-04	-1.02508000E-04
		-1.95770000E-07	-4.55928000E-04	 5.69216000E-07
		-3.07648000E-07	-4.47582000E-04	 1.03642000E-04
		-3.00274000E-07	-7.83087000E-04	 7.87308000E-07
		-2.29444000E-05	-1.05465000E-03	-5.02290000E-05
		-4.01918000E-07	-1.06236000E-03	 1.00912000E-06
		 2.21417000E-05	-1.05475000E-03	 5.22583000E-05
		-4.87172000E-07	-1.17698000E-03	 1.24782000E-06
		-4.21470000E-05	-1.05622000E-03	 1.58300000E-04
		-5.68076000E-07	-1.06776000E-03	 1.45952000E-06
		 4.09896000E-05	-1.05643000E-03	-1.55386000E-04
		-6.46509000E-07	-6.57132000E-04	 1.48826000E-06
		-4.84505000E-05	 8.70330000E-05	 4.50108000E-04
		-7.62592000E-07	 7.38622000E-05	 1.17160000E-06
		 4.69042000E-05	 8.60858000E-05	-4.47833000E-04
		-9.30725000E-07	 1.14517000E-03	 2.24248000E-07
		-4.25351000E-05	 2.52981000E-03	 7.35209000E-04
		-1.19676000E-06	 2.51480000E-03	-1.42304000E-06
		 4.01292000E-05	 2.52747000E-03	-7.38119000E-04
		-1.48887000E-06	 4.16445000E-03	-3.98324000E-06
		-3.33725000E-05	 6.03840000E-03	 9.62650000E-04
		-1.88528000E-06	 6.02191000E-03	-7.16149000E-06
		 2.97870000E-05	 6.03430000E-03	-9.77202000E-04
		-2.16944000E-06	 8.10662000E-03	-1.17146000E-05
		-2.61651000E-05	 1.03650000E-02	 1.13032000E-03
		-2.59381000E-06	 1.03335000E-02	-1.70968000E-05
		 2.13978000E-05	 1.03585000E-02	-1.16279000E-03
		-2.62689000E-06	 1.28191000E-02	-2.25718000E-05
		 2.67945000E-07	-1.85744000E-04	 1.57541000E-04
		 2.34384000E-07	-4.51742000E-04	 2.50101000E-04
		 4.85146000E-07	-4.50735000E-04	 2.51178000E-04
		 7.35942000E-07	-4.51146000E-04	 2.49914000E-04
		 6.61720000E-07	-7.70020000E-04	 2.33003000E-04
		 2.27948000E-05	-1.01848000E-03	 1.33919000E-04
		 7.89358000E-07	-1.01424000E-03	 1.33982000E-04
		-2.12149000E-05	-1.01736000E-03	 1.33754000E-04
		 9.03184000E-07	-1.11366000E-03	-4.90291000E-05
		 4.18215000E-05	-9.94214000E-04	-2.93925000E-04
		 1.04780000E-06	-9.84590000E-04	-2.94149000E-04
		-3.97293000E-05	-9.92625000E-04	-2.94113000E-04
		 1.27982000E-06	-5.66915000E-04	-5.86886000E-04
		 4.82051000E-05	 1.56880000E-04	-8.98709000E-04
		 1.60450000E-06	 1.67028000E-04	-8.98279000E-04
		-4.50011000E-05	 1.59259000E-04	-8.99031000E-04
		 2.01664000E-06	 1.23426000E-03	-1.20541000E-03
		 4.16978000E-05	 2.58611000E-03	-1.48757000E-03
		 2.37870000E-06	 2.59364000E-03	-1.48623000E-03
		-3.69101000E-05	 2.58972000E-03	-1.48807000E-03
		 2.57870000E-06	 4.23535000E-03	-1.73611000E-03
		 3.26010000E-05	 6.07914000E-03	-1.95304000E-03
		 2.31529000E-06	 6.07806000E-03	-1.95023000E-03
		-2.79513000E-05	 6.08346000E-03	-1.95334000E-03
		 1.58728000E-06	 8.16317000E-03	-2.15655000E-03
		 2.04655000E-05	 1.03912000E-02	-2.32238000E-03
		 3.74833000E-07	 1.03864000E-02	-2.31841000E-03
		-1.95487000E-05	 1.03946000E-02	-2.32276000E-03
		-6.50619000E-07	 1.28338000E-02	-2.44342000E-03
		 6.05980000E-08	-1.43677000E-04	 2.13611000E-07
		 6.79680000E-07	-4.46401000E-04	 1.03595000E-04
		-2.20226000E-08	-4.54752000E-04	 4.08651000E-07
		-7.24236000E-07	-4.46273000E-04	-1.02781000E-04
		-1.20490000E-07	-7.81352000E-04	 5.87970000E-07
		-2.16765000E-05	-1.05253000E-03	 5.21003000E-05
		-2.46048000E-07	-1.06014000E-03	 7.91769000E-07
		 2.11900000E-05	-1.05242000E-03	-5.05052000E-05
		-3.78378000E-07	-1.17430000E-03	 1.03582000E-06
		-4.04806000E-05	-1.05327000E-03	-1.55522000E-04
		-5.05491000E-07	-1.06461000E-03	 1.24675000E-06
		 3.95022000E-05	-1.05306000E-03	 1.58017000E-04
		-6.09713000E-07	-6.53319000E-04	 1.25516000E-06
		-4.60595000E-05	 9.07704000E-05	-4.47991000E-04
		-7.45888000E-07	 7.84933000E-05	 8.60198000E-07
		 4.46296000E-05	 9.16813000E-05	 4.49646000E-04
		-8.84597000E-07	 1.15102000E-03	-1.95481000E-07
		-3.89175000E-05	 2.53457000E-03	-7.38459000E-04
		-1.14882000E-06	 2.52172000E-03	-1.94102000E-06
		 3.66933000E-05	 2.53681000E-03	 7.34483000E-04
		-1.37189000E-06	 4.17238000E-03	-4.52556000E-06
		-2.92019000E-05	 6.04247000E-03	-9.77990000E-04
		-1.71966000E-06	 6.02961000E-03	-7.90069000E-06
		 2.58166000E-05	 6.04613000E-03	 9.62136000E-04
		-1.94220000E-06	 8.11390000E-03	-1.21445000E-05
		-2.32907000E-05	 1.03642000E-02	-1.16359000E-03
		-2.30536000E-06	 1.03379000E-02	-1.69185000E-05
		 1.85330000E-05	 1.03697000E-02	 1.12955000E-03
		-2.67822000E-06	 1.28240000E-02	-2.29059000E-05
		-3.15769000E-08	-1.59797000E-04	 2.31174000E-07
		-4.01734000E-07	-4.50701000E-04	-1.10374000E-04
		-6.22836000E-08	-4.59909000E-04	 4.50225000E-07
		-1.06964000E-07	-4.58556000E-04	 4.93690000E-07
		-1.50251000E-07	-4.60497000E-04	 5.26409000E-07
		 1.87648000E-07	-4.50846000E-04	 1.11355000E-04
		-2.07786000E-07	-7.73792000E-04	 6.95206000E-07
		-8.78898000E-07	-1.03282000E-03	-5.58883000E-05
		-2.84169000E-07	-1.04365000E-03	 8.60606000E-07
		-3.21937000E-07	-1.03914000E-03	 9.15177000E-07
		-3.62006000E-07	-1.04476000E-03	 9.66898000E-07
		 2.33654000E-07	-1.03294000E-03	 5.77329000E-05
		-4.34063000E-07	-1.14461000E-03	 1.15045000E-06
		-1.32499000E-06	-1.01460000E-03	 1.54963000E-04
		-5.19523000E-07	-1.03408000E-03	 1.28741000E-06
		-5.29733000E-07	-1.02422000E-03	 1.33381000E-06
		-5.47478000E-07	-1.03566000E-03	 1.39728000E-06
		 2.59265000E-07	-1.01482000E-03	-1.52288000E-04
		-6.28648000E-07	-6.11663000E-04	 1.32918000E-06
		-1.90247000E-06	 1.35371000E-04	 4.49758000E-04
		-7.36159000E-07	 1.14135000E-04	 8.60839000E-07
		-7.29869000E-07	 1.26404000E-04	 9.16018000E-07
		-7.42249000E-07	 1.11819000E-04	 1.02264000E-06
		 4.34398000E-07	 1.34450000E-04	-4.47963000E-04
		-9.12086000E-07	 1.18883000E-03	-7.73720000E-08
		-2.93347000E-06	 2.57307000E-03	 7.35754000E-04
		-1.14704000E-06	 2.55525000E-03	-1.92588000E-06
		-1.13146000E-06	 2.56713000E-03	-1.86534000E-06
		-1.16048000E-06	 2.55179000E-03	-1.67030000E-06
		 6.26718000E-07	 2.57085000E-03	-7.39475000E-04
		-1.49184000E-06	 4.19641000E-03	-4.29898000E-06
		-3.79106000E-06	 6.07512000E-03	 9.61516000E-04
		-1.74750000E-06	 6.05998000E-03	-7.83530000E-06
		-1.74274000E-06	 6.08221000E-03	-7.67802000E-06
		-1.81490000E-06	 6.05621000E-03	-7.50224000E-06
		 2.70927000E-07	 6.07152000E-03	-9.77129000E-04
		-2.15796000E-06	 8.11889000E-03	-1.16954000E-05
		-3.92378000E-06	 1.04068000E-02	 1.12559000E-03
		-2.26161000E-06	 1.03980000E-02	-1.68807000E-05
		-2.25269000E-06	 1.04232000E-02	-1.68035000E-05
		-2.48940000E-06	 1.03958000E-02	-1.68444000E-05
		-9.42838000E-07	 1.04023000E-02	-1.15938000E-03
		-2.59655000E-06	 1.27911000E-02	-2.22347000E-05
