# vtk DataFile Version 3.0

ASCII
DATASET UNSTRUCTURED_GRID

POINTS 90 double
	 0.00000000E+00	 0.00000000E+00	 0.00000000E+00
	 1.00000000E+00	 0.00000000E+00	 0.00000000E+00
	 1.00000000E+00	 1.00000000E+00	 0.00000000E+00
	 0.00000000E+00	 1.00000000E+00	 0.00000000E+00
	 0.00000000E+00	 0.00000000E+00	 8.00000000E+00
	 1.00000000E+00	 0.00000000E+00	 8.00000000E+00
	 1.00000000E+00	 1.00000000E+00	 8.00000000E+00
	 0.00000000E+00	 1.00000000E+00	 8.00000000E+00
	 5.00000000E-01	 0.00000000E+00	 0.00000000E+00
	 1.00000000E+00	 5.00000000E-01	 0.00000000E+00
	 5.00000000E-01	 1.00000000E+00	 0.00000000E+00
	 0.00000000E+00	 5.00000000E-01	 0.00000000E+00
	 5.00000000E-01	 0.00000000E+00	 8.00000000E+00
	 1.00000000E+00	 5.00000000E-01	 8.00000000E+00
	 5.00000000E-01	 1.00000000E+00	 8.00000000E+00
	 0.00000000E+00	 5.00000000E-01	 8.00000000E+00
	 1.00000000E+00	 0.00000000E+00	 1.00000000E+00
	 1.00000000E+00	 0.00000000E+00	 2.00000000E+00
	 1.00000000E+00	 0.00000000E+00	 3.00000000E+00
	 1.00000000E+00	 0.00000000E+00	 4.00000000E+00
	 1.00000000E+00	 0.00000000E+00	 5.00000000E+00
	 1.00000000E+00	 0.00000000E+00	 6.00000000E+00
	 1.00000000E+00	 0.00000000E+00	 7.00000000E+00
	 0.00000000E+00	 0.00000000E+00	 7.00000000E+00
	 0.00000000E+00	 0.00000000E+00	 6.00000000E+00
	 0.00000000E+00	 0.00000000E+00	 5.00000000E+00
	 0.00000000E+00	 0.00000000E+00	 4.00000000E+00
	 0.00000000E+00	 0.00000000E+00	 3.00000000E+00
	 0.00000000E+00	 0.00000000E+00	 2.00000000E+00
	 0.00000000E+00	 0.00000000E+00	 1.00000000E+00
	 1.00000000E+00	 1.00000000E+00	 1.00000000E+00
	 1.00000000E+00	 1.00000000E+00	 2.00000000E+00
	 1.00000000E+00	 1.00000000E+00	 3.00000000E+00
	 1.00000000E+00	 1.00000000E+00	 4.00000000E+00
	 1.00000000E+00	 1.00000000E+00	 5.00000000E+00
	 1.00000000E+00	 1.00000000E+00	 6.00000000E+00
	 1.00000000E+00	 1.00000000E+00	 7.00000000E+00
	 0.00000000E+00	 1.00000000E+00	 1.00000000E+00
	 0.00000000E+00	 1.00000000E+00	 2.00000000E+00
	 0.00000000E+00	 1.00000000E+00	 3.00000000E+00
	 0.00000000E+00	 1.00000000E+00	 4.00000000E+00
	 0.00000000E+00	 1.00000000E+00	 5.00000000E+00
	 0.00000000E+00	 1.00000000E+00	 6.00000000E+00
	 0.00000000E+00	 1.00000000E+00	 7.00000000E+00
	 5.00000000E-01	 5.00000000E-01	 0.00000000E+00
	 5.00000000E-01	 5.00000000E-01	 8.00000000E+00
	 5.00000000E-01	 0.00000000E+00	 1.00000000E+00
	 5.00000000E-01	 0.00000000E+00	 2.00000000E+00
	 5.00000000E-01	 0.00000000E+00	 3.00000000E+00
	 5.00000000E-01	 0.00000000E+00	 4.00000000E+00
	 5.00000000E-01	 0.00000000E+00	 5.00000000E+00
	 5.00000000E-01	 0.00000000E+00	 6.00000000E+00
	 5.00000000E-01	 0.00000000E+00	 7.00000000E+00
	 1.00000000E+00	 5.00000000E-01	 1.00000000E+00
	 1.00000000E+00	 5.00000000E-01	 2.00000000E+00
	 1.00000000E+00	 5.00000000E-01	 3.00000000E+00
	 1.00000000E+00	 5.00000000E-01	 4.00000000E+00
	 1.00000000E+00	 5.00000000E-01	 5.00000000E+00
	 1.00000000E+00	 5.00000000E-01	 6.00000000E+00
	 1.00000000E+00	 5.00000000E-01	 7.00000000E+00
	 5.00000000E-01	 1.00000000E+00	 1.00000000E+00
	 5.00000000E-01	 1.00000000E+00	 2.00000000E+00
	 5.00000000E-01	 1.00000000E+00	 3.00000000E+00
	 5.00000000E-01	 1.00000000E+00	 4.00000000E+00
	 5.00000000E-01	 1.00000000E+00	 5.00000000E+00
	 5.00000000E-01	 1.00000000E+00	 6.00000000E+00
	 5.00000000E-01	 1.00000000E+00	 7.00000000E+00
	 0.00000000E+00	 5.00000000E-01	 1.00000000E+00
	 0.00000000E+00	 5.00000000E-01	 2.00000000E+00
	 0.00000000E+00	 5.00000000E-01	 3.00000000E+00
	 0.00000000E+00	 5.00000000E-01	 4.00000000E+00
	 0.00000000E+00	 5.00000000E-01	 5.00000000E+00
	 0.00000000E+00	 5.00000000E-01	 6.00000000E+00
	 0.00000000E+00	 5.00000000E-01	 7.00000000E+00
	 5.00000000E-01	 5.00000000E-01	 1.00000000E+00
	 5.00000000E-01	 5.00000000E-01	 2.00000000E+00
	 5.00000000E-01	 5.00000000E-01	 3.00000000E+00
	 5.00000000E-01	 5.00000000E-01	 4.00000000E+00
	 5.00000000E-01	 5.00000000E-01	 5.00000000E+00
	 5.00000000E-01	 5.00000000E-01	 6.00000000E+00
	 5.00000000E-01	 5.00000000E-01	 7.00000000E+00
	 1.00000000E+00	 0.00000000E+00	 4.00000000E+00
	 0.00000000E+00	 0.00000000E+00	 4.00000000E+00
	 1.00000000E+00	 1.00000000E+00	 4.00000000E+00
	 0.00000000E+00	 1.00000000E+00	 4.00000000E+00
	 5.00000000E-01	 0.00000000E+00	 4.00000000E+00
	 1.00000000E+00	 5.00000000E-01	 4.00000000E+00
	 5.00000000E-01	 1.00000000E+00	 4.00000000E+00
	 0.00000000E+00	 5.00000000E-01	 4.00000000E+00
	 5.00000000E-01	 5.00000000E-01	 4.00000000E+00

CELLS 32 288
	8 0 8 44 11 29 46 74 67 
	8 8 1 9 44 46 16 53 74 
	8 11 44 10 3 67 74 60 37 
	8 44 9 2 10 74 53 30 60 
	8 29 46 74 67 28 47 75 68 
	8 46 16 53 74 47 17 54 75 
	8 67 74 60 37 68 75 61 38 
	8 74 53 30 60 75 54 31 61 
	8 28 47 75 68 27 48 76 69 
	8 47 17 54 75 48 18 55 76 
	8 68 75 61 38 69 76 62 39 
	8 75 54 31 61 76 55 32 62 
	8 27 48 76 69 26 49 77 70 
	8 48 18 55 76 49 19 56 77 
	8 69 76 62 39 70 77 63 40 
	8 76 55 32 62 77 56 33 63 
	8 82 85 89 88 25 50 78 71 
	8 85 81 86 89 50 20 57 78 
	8 88 89 87 84 71 78 64 41 
	8 89 86 83 87 78 57 34 64 
	8 25 50 78 71 24 51 79 72 
	8 50 20 57 78 51 21 58 79 
	8 71 78 64 41 72 79 65 42 
	8 78 57 34 64 79 58 35 65 
	8 24 51 79 72 23 52 80 73 
	8 51 21 58 79 52 22 59 80 
	8 72 79 65 42 73 80 66 43 
	8 79 58 35 65 80 59 36 66 
	8 23 52 80 73 4 12 45 15 
	8 52 22 59 80 12 5 13 45 
	8 73 80 66 43 15 45 14 7 
	8 80 59 36 66 45 13 6 14 

CELL_TYPES 32
	12
	12
	12
	12
	12
	12
	12
	12
	12
	12
	12
	12
	12
	12
	12
	12
	12
	12
	12
	12
	12
	12
	12
	12
	12
	12
	12
	12
	12
	12
	12
	12

POINT_DATA 90
FIELD U 1
	U 3 90 double
		 0.00000000E+00	 0.00000000E+00	 0.00000000E+00
		 0.00000000E+00	 0.00000000E+00	 0.00000000E+00
		 0.00000000E+00	 0.00000000E+00	 0.00000000E+00
		 0.00000000E+00	 0.00000000E+00	 0.00000000E+00
		-7.74965000E+03	 7.74965000E+03	 0.00000000E+00
		-7.74965000E+03	-7.74965000E+03	 0.00000000E+00
		 7.74965000E+03	-7.74965000E+03	 0.00000000E+00
		 7.74965000E+03	 7.74965000E+03	-1.01107000E-09
		 0.00000000E+00	 0.00000000E+00	 0.00000000E+00
		 0.00000000E+00	 0.00000000E+00	 0.00000000E+00
		 0.00000000E+00	 0.00000000E+00	 0.00000000E+00
		 0.00000000E+00	 0.00000000E+00	 0.00000000E+00
		-8.05540000E+03	 0.00000000E+00	 0.00000000E+00
		 0.00000000E+00	-8.05540000E+03	 0.00000000E+00
		 8.05540000E+03	-1.37993000E-09	 0.00000000E+00
		 1.38895000E-09	 8.05540000E+03	 0.00000000E+00
		-1.42382000E+03	-1.42382000E+03	 0.00000000E+00
		-2.66877000E+03	-2.66877000E+03	 0.00000000E+00
		-3.81085000E+03	-3.81085000E+03	 0.00000000E+00
		-4.80968000E+03	-4.80968000E+03	 0.00000000E+00
		-5.68510000E+03	-5.68510000E+03	 1.00556000E-09
		-6.17751000E+03	-6.17751000E+03	 1.07684000E-09
		-7.09332000E+03	-7.09332000E+03	 1.06920000E-09
		-7.09332000E+03	 7.09332000E+03	 0.00000000E+00
		-6.17751000E+03	 6.17751000E+03	 0.00000000E+00
		-5.68510000E+03	 5.68510000E+03	 0.00000000E+00
		-4.80968000E+03	 4.80968000E+03	 0.00000000E+00
		-3.81085000E+03	 3.81085000E+03	 0.00000000E+00
		-2.66877000E+03	 2.66877000E+03	 0.00000000E+00
		-1.42382000E+03	 1.42382000E+03	 0.00000000E+00
		 1.42382000E+03	-1.42382000E+03	 0.00000000E+00
		 2.66877000E+03	-2.66877000E+03	 0.00000000E+00
		 3.81085000E+03	-3.81085000E+03	 0.00000000E+00
		 4.80968000E+03	-4.80968000E+03	 0.00000000E+00
		 5.68510000E+03	-5.68510000E+03	 0.00000000E+00
		 6.17751000E+03	-6.17751000E+03	 0.00000000E+00
		 7.09332000E+03	-7.09332000E+03	 0.00000000E+00
		 1.42382000E+03	 1.42382000E+03	 0.00000000E+00
		 2.66877000E+03	 2.66877000E+03	 0.00000000E+00
		 3.81085000E+03	 3.81085000E+03	 0.00000000E+00
		 4.80968000E+03	 4.80968000E+03	 0.00000000E+00
		 5.68510000E+03	 5.68510000E+03	-1.01659000E-09
		 6.17751000E+03	 6.17751000E+03	-1.08662000E-09
		 7.09332000E+03	 7.09332000E+03	-1.08133000E-09
		 0.00000000E+00	 0.00000000E+00	 0.00000000E+00
		 0.00000000E+00	 0.00000000E+00	 0.00000000E+00
		-1.41623000E+03	 0.00000000E+00	 0.00000000E+00
		-2.66881000E+03	 0.00000000E+00	 0.00000000E+00
		-3.80884000E+03	 0.00000000E+00	 0.00000000E+00
		-4.82531000E+03	 0.00000000E+00	 0.00000000E+00
		-5.61047000E+03	 0.00000000E+00	 0.00000000E+00
		-6.47550000E+03	 0.00000000E+00	 0.00000000E+00
		-6.13105000E+03	 0.00000000E+00	 0.00000000E+00
		 0.00000000E+00	-1.41623000E+03	 0.00000000E+00
		 0.00000000E+00	-2.66881000E+03	 0.00000000E+00
		 0.00000000E+00	-3.80884000E+03	 0.00000000E+00
		 0.00000000E+00	-4.82531000E+03	 0.00000000E+00
		 0.00000000E+00	-5.61047000E+03	 0.00000000E+00
		 0.00000000E+00	-6.47550000E+03	 0.00000000E+00
		 0.00000000E+00	-6.13105000E+03	 0.00000000E+00
		 1.41623000E+03	 0.00000000E+00	 0.00000000E+00
		 2.66881000E+03	 0.00000000E+00	 0.00000000E+00
		 3.80884000E+03	 0.00000000E+00	 0.00000000E+00
		 4.82531000E+03	 0.00000000E+00	 0.00000000E+00
		 5.61047000E+03	 0.00000000E+00	 0.00000000E+00
		 6.47550000E+03	 0.00000000E+00	 0.00000000E+00
		 6.13105000E+03	 0.00000000E+00	 0.00000000E+00
		 0.00000000E+00	 1.41623000E+03	 0.00000000E+00
		 0.00000000E+00	 2.66881000E+03	 0.00000000E+00
		 0.00000000E+00	 3.80884000E+03	 0.00000000E+00
		 0.00000000E+00	 4.82531000E+03	 0.00000000E+00
		 0.00000000E+00	 5.61047000E+03	 0.00000000E+00
		 0.00000000E+00	 6.47550000E+03	 0.00000000E+00
		 0.00000000E+00	 6.13105000E+03	 0.00000000E+00
		 0.00000000E+00	 0.00000000E+00	 0.00000000E+00
		 0.00000000E+00	 0.00000000E+00	 0.00000000E+00
		 0.00000000E+00	 0.00000000E+00	 0.00000000E+00
		 0.00000000E+00	 0.00000000E+00	 0.00000000E+00
		 0.00000000E+00	 0.00000000E+00	 0.00000000E+00
		 0.00000000E+00	 0.00000000E+00	 0.00000000E+00
		 0.00000000E+00	 0.00000000E+00	 0.00000000E+00
		-4.80968000E+03	-4.80968000E+03	 0.00000000E+00
		-4.80968000E+03	 4.80968000E+03	 0.00000000E+00
		 4.80968000E+03	-4.80968000E+03	 0.00000000E+00
		 4.80968000E+03	 4.80968000E+03	 0.00000000E+00
		-4.82531000E+03	 0.00000000E+00	 0.00000000E+00
		 0.00000000E+00	-4.82531000E+03	 0.00000000E+00
		 4.82531000E+03	 0.00000000E+00	 0.00000000E+00
		 0.00000000E+00	 4.82531000E+03	 0.00000000E+00
		 0.00000000E+00	 0.00000000E+00	 0.00000000E+00
