    1C
    1UUSER                                                              
    1UDATE              25.january.2020                                 
    1UTIME              14:46:42                                        
    1UHOST                                                              
    1UPGM               CalculiX                                        
    1UVERSION           Version 2.16                             
    1UCOMPILETIME       Tue  7 Jan 19:57:43 CET 2020                    
    1UDIR                                                               
    1UDBN                                                               
    1UMAT    1EL                                                        
    2C                           495                                     1
 -1         1 2.00000E+00 5.00000E-01-5.96046E-08
 -1         2 1.50000E+00 5.00000E-01-5.96046E-08
 -1         3 1.50000E+00 5.00000E-01 1.00000E+00
 -1         4 2.00000E+00 5.00000E-01 1.00000E+00
 -1         5 2.00000E+00 1.00000E+00-5.96046E-08
 -1         6 1.50000E+00 1.00000E+00-5.96046E-08
 -1         7 1.50000E+00 1.00000E+00 1.00000E+00
 -1         8 2.00000E+00 1.00000E+00 1.00000E+00
 -1         9 1.75000E+00 5.00000E-01-5.96046E-08
 -1        10 1.50000E+00 5.00000E-01 5.00000E-01
 -1        11 1.75000E+00 5.00000E-01 1.00000E+00
 -1        12 2.00000E+00 5.00000E-01 5.00000E-01
 -1        13 2.00000E+00 7.50000E-01-5.96046E-08
 -1        14 1.50000E+00 7.50000E-01-5.96046E-08
 -1        15 1.50000E+00 7.50000E-01 1.00000E+00
 -1        16 2.00000E+00 7.50000E-01 1.00000E+00
 -1        17 1.75000E+00 1.00000E+00-5.96046E-08
 -1        18 1.50000E+00 1.00000E+00 5.00000E-01
 -1        19 1.75000E+00 1.00000E+00 1.00000E+00
 -1        20 2.00000E+00 1.00000E+00 5.00000E-01
 -1        21 1.00000E+00 5.00000E-01-5.96046E-08
 -1        22 1.00000E+00 5.00000E-01 1.00000E+00
 -1        23 1.00000E+00 1.00000E+00-5.96046E-08
 -1        24 1.00000E+00 1.00000E+00 1.00000E+00
 -1        25 1.25000E+00 5.00000E-01-5.96046E-08
 -1        26 1.00000E+00 5.00000E-01 5.00000E-01
 -1        27 1.25000E+00 5.00000E-01 1.00000E+00
 -1        28 1.00000E+00 7.50000E-01-5.96046E-08
 -1        29 1.00000E+00 7.50000E-01 1.00000E+00
 -1        30 1.25000E+00 1.00000E+00-5.96046E-08
 -1        31 1.00000E+00 1.00000E+00 5.00000E-01
 -1        32 1.25000E+00 1.00000E+00 1.00000E+00
 -1        33 1.50000E+00 5.00000E-01 2.00000E+00
 -1        34 2.00000E+00 5.00000E-01 2.00000E+00
 -1        35 1.50000E+00 1.00000E+00 2.00000E+00
 -1        36 2.00000E+00 1.00000E+00 2.00000E+00
 -1        37 1.50000E+00 5.00000E-01 1.50000E+00
 -1        38 1.75000E+00 5.00000E-01 2.00000E+00
 -1        39 2.00000E+00 5.00000E-01 1.50000E+00
 -1        40 1.50000E+00 7.50000E-01 2.00000E+00
 -1        41 2.00000E+00 7.50000E-01 2.00000E+00
 -1        42 1.50000E+00 1.00000E+00 1.50000E+00
 -1        43 1.75000E+00 1.00000E+00 2.00000E+00
 -1        44 2.00000E+00 1.00000E+00 1.50000E+00
 -1        45 1.00000E+00 5.00000E-01 2.00000E+00
 -1        46 1.00000E+00 1.00000E+00 2.00000E+00
 -1        47 1.00000E+00 5.00000E-01 1.50000E+00
 -1        48 1.25000E+00 5.00000E-01 2.00000E+00
 -1        49 1.00000E+00 7.50000E-01 2.00000E+00
 -1        50 1.00000E+00 1.00000E+00 1.50000E+00
 -1        51 1.25000E+00 1.00000E+00 2.00000E+00
 -1        52 1.50000E+00 5.00000E-01 3.00000E+00
 -1        53 2.00000E+00 5.00000E-01 3.00000E+00
 -1        54 1.50000E+00 1.00000E+00 3.00000E+00
 -1        55 2.00000E+00 1.00000E+00 3.00000E+00
 -1        56 1.50000E+00 5.00000E-01 2.50000E+00
 -1        57 1.75000E+00 5.00000E-01 3.00000E+00
 -1        58 2.00000E+00 5.00000E-01 2.50000E+00
 -1        59 1.50000E+00 7.50000E-01 3.00000E+00
 -1        60 2.00000E+00 7.50000E-01 3.00000E+00
 -1        61 1.50000E+00 1.00000E+00 2.50000E+00
 -1        62 1.75000E+00 1.00000E+00 3.00000E+00
 -1        63 2.00000E+00 1.00000E+00 2.50000E+00
 -1        64 1.00000E+00 5.00000E-01 3.00000E+00
 -1        65 1.00000E+00 1.00000E+00 3.00000E+00
 -1        66 1.00000E+00 5.00000E-01 2.50000E+00
 -1        67 1.25000E+00 5.00000E-01 3.00000E+00
 -1        68 1.00000E+00 7.50000E-01 3.00000E+00
 -1        69 1.00000E+00 1.00000E+00 2.50000E+00
 -1        70 1.25000E+00 1.00000E+00 3.00000E+00
 -1        71 1.50000E+00 5.00000E-01 4.00000E+00
 -1        72 2.00000E+00 5.00000E-01 4.00000E+00
 -1        73 1.50000E+00 1.00000E+00 4.00000E+00
 -1        74 2.00000E+00 1.00000E+00 4.00000E+00
 -1        75 1.50000E+00 5.00000E-01 3.50000E+00
 -1        76 1.75000E+00 5.00000E-01 4.00000E+00
 -1        77 2.00000E+00 5.00000E-01 3.50000E+00
 -1        78 1.50000E+00 7.50000E-01 4.00000E+00
 -1        79 2.00000E+00 7.50000E-01 4.00000E+00
 -1        80 1.50000E+00 1.00000E+00 3.50000E+00
 -1        81 1.75000E+00 1.00000E+00 4.00000E+00
 -1        82 2.00000E+00 1.00000E+00 3.50000E+00
 -1        83 1.00000E+00 5.00000E-01 4.00000E+00
 -1        84 1.00000E+00 1.00000E+00 4.00000E+00
 -1        85 1.00000E+00 5.00000E-01 3.50000E+00
 -1        86 1.25000E+00 5.00000E-01 4.00000E+00
 -1        87 1.00000E+00 7.50000E-01 4.00000E+00
 -1        88 1.00000E+00 1.00000E+00 3.50000E+00
 -1        89 1.25000E+00 1.00000E+00 4.00000E+00
 -1        90 1.50000E+00 5.00000E-01 5.00000E+00
 -1        91 2.00000E+00 5.00000E-01 5.00000E+00
 -1        92 1.50000E+00 1.00000E+00 5.00000E+00
 -1        93 2.00000E+00 1.00000E+00 5.00000E+00
 -1        94 1.50000E+00 5.00000E-01 4.50000E+00
 -1        95 1.75000E+00 5.00000E-01 5.00000E+00
 -1        96 2.00000E+00 5.00000E-01 4.50000E+00
 -1        97 1.50000E+00 7.50000E-01 5.00000E+00
 -1        98 2.00000E+00 7.50000E-01 5.00000E+00
 -1        99 1.50000E+00 1.00000E+00 4.50000E+00
 -1       100 1.75000E+00 1.00000E+00 5.00000E+00
 -1       101 2.00000E+00 1.00000E+00 4.50000E+00
 -1       102 1.00000E+00 5.00000E-01 5.00000E+00
 -1       103 1.00000E+00 1.00000E+00 5.00000E+00
 -1       104 1.00000E+00 5.00000E-01 4.50000E+00
 -1       105 1.25000E+00 5.00000E-01 5.00000E+00
 -1       106 1.00000E+00 7.50000E-01 5.00000E+00
 -1       107 1.00000E+00 1.00000E+00 4.50000E+00
 -1       108 1.25000E+00 1.00000E+00 5.00000E+00
 -1       109 1.50000E+00 5.00000E-01 6.00000E+00
 -1       110 2.00000E+00 5.00000E-01 6.00000E+00
 -1       111 1.50000E+00 1.00000E+00 6.00000E+00
 -1       112 2.00000E+00 1.00000E+00 6.00000E+00
 -1       113 1.50000E+00 5.00000E-01 5.50000E+00
 -1       114 1.75000E+00 5.00000E-01 6.00000E+00
 -1       115 2.00000E+00 5.00000E-01 5.50000E+00
 -1       116 1.50000E+00 7.50000E-01 6.00000E+00
 -1       117 2.00000E+00 7.50000E-01 6.00000E+00
 -1       118 1.50000E+00 1.00000E+00 5.50000E+00
 -1       119 1.75000E+00 1.00000E+00 6.00000E+00
 -1       120 2.00000E+00 1.00000E+00 5.50000E+00
 -1       121 1.00000E+00 5.00000E-01 6.00000E+00
 -1       122 1.00000E+00 1.00000E+00 6.00000E+00
 -1       123 1.00000E+00 5.00000E-01 5.50000E+00
 -1       124 1.25000E+00 5.00000E-01 6.00000E+00
 -1       125 1.00000E+00 7.50000E-01 6.00000E+00
 -1       126 1.00000E+00 1.00000E+00 5.50000E+00
 -1       127 1.25000E+00 1.00000E+00 6.00000E+00
 -1       128 1.50000E+00 5.00000E-01 7.00000E+00
 -1       129 2.00000E+00 5.00000E-01 7.00000E+00
 -1       130 1.50000E+00 1.00000E+00 7.00000E+00
 -1       131 2.00000E+00 1.00000E+00 7.00000E+00
 -1       132 1.50000E+00 5.00000E-01 6.50000E+00
 -1       133 1.75000E+00 5.00000E-01 7.00000E+00
 -1       134 2.00000E+00 5.00000E-01 6.50000E+00
 -1       135 1.50000E+00 7.50000E-01 7.00000E+00
 -1       136 2.00000E+00 7.50000E-01 7.00000E+00
 -1       137 1.50000E+00 1.00000E+00 6.50000E+00
 -1       138 1.75000E+00 1.00000E+00 7.00000E+00
 -1       139 2.00000E+00 1.00000E+00 6.50000E+00
 -1       140 1.00000E+00 5.00000E-01 7.00000E+00
 -1       141 1.00000E+00 1.00000E+00 7.00000E+00
 -1       142 1.00000E+00 5.00000E-01 6.50000E+00
 -1       143 1.25000E+00 5.00000E-01 7.00000E+00
 -1       144 1.00000E+00 7.50000E-01 7.00000E+00
 -1       145 1.00000E+00 1.00000E+00 6.50000E+00
 -1       146 1.25000E+00 1.00000E+00 7.00000E+00
 -1       147 1.50000E+00 5.00000E-01 8.00000E+00
 -1       148 2.00000E+00 5.00000E-01 8.00000E+00
 -1       149 1.50000E+00 1.00000E+00 8.00000E+00
 -1       150 2.00000E+00 1.00000E+00 8.00000E+00
 -1       151 1.50000E+00 5.00000E-01 7.50000E+00
 -1       152 1.75000E+00 5.00000E-01 8.00000E+00
 -1       153 2.00000E+00 5.00000E-01 7.50000E+00
 -1       154 1.50000E+00 7.50000E-01 8.00000E+00
 -1       155 2.00000E+00 7.50000E-01 8.00000E+00
 -1       156 1.50000E+00 1.00000E+00 7.50000E+00
 -1       157 1.75000E+00 1.00000E+00 8.00000E+00
 -1       158 2.00000E+00 1.00000E+00 7.50000E+00
 -1       159 1.00000E+00 5.00000E-01 8.00000E+00
 -1       160 1.00000E+00 1.00000E+00 8.00000E+00
 -1       161 1.00000E+00 5.00000E-01 7.50000E+00
 -1       162 1.25000E+00 5.00000E-01 8.00000E+00
 -1       163 1.00000E+00 7.50000E-01 8.00000E+00
 -1       164 1.00000E+00 1.00000E+00 7.50000E+00
 -1       165 1.25000E+00 1.00000E+00 8.00000E+00
 -1       166 2.00000E+00-2.00000E+00-5.96046E-08
 -1       167 1.50000E+00-2.00000E+00-5.96046E-08
 -1       168 1.50000E+00-2.00000E+00 1.00000E+00
 -1       169 2.00000E+00-2.00000E+00 1.00000E+00
 -1       170 2.00000E+00-1.50000E+00-5.96046E-08
 -1       171 1.50000E+00-1.50000E+00-5.96046E-08
 -1       172 1.50000E+00-1.50000E+00 1.00000E+00
 -1       173 2.00000E+00-1.50000E+00 1.00000E+00
 -1       174 1.75000E+00-2.00000E+00-5.96046E-08
 -1       175 1.50000E+00-2.00000E+00 5.00000E-01
 -1       176 1.75000E+00-2.00000E+00 1.00000E+00
 -1       177 2.00000E+00-2.00000E+00 5.00000E-01
 -1       178 2.00000E+00-1.75000E+00-5.96046E-08
 -1       179 1.50000E+00-1.75000E+00-5.96046E-08
 -1       180 1.50000E+00-1.75000E+00 1.00000E+00
 -1       181 2.00000E+00-1.75000E+00 1.00000E+00
 -1       182 1.75000E+00-1.50000E+00-5.96046E-08
 -1       183 1.50000E+00-1.50000E+00 5.00000E-01
 -1       184 1.75000E+00-1.50000E+00 1.00000E+00
 -1       185 2.00000E+00-1.50000E+00 5.00000E-01
 -1       186 1.00000E+00-2.00000E+00-5.96046E-08
 -1       187 1.00000E+00-2.00000E+00 1.00000E+00
 -1       188 1.00000E+00-1.50000E+00-5.96046E-08
 -1       189 1.00000E+00-1.50000E+00 1.00000E+00
 -1       190 1.25000E+00-2.00000E+00-5.96046E-08
 -1       191 1.00000E+00-2.00000E+00 5.00000E-01
 -1       192 1.25000E+00-2.00000E+00 1.00000E+00
 -1       193 1.00000E+00-1.75000E+00-5.96046E-08
 -1       194 1.00000E+00-1.75000E+00 1.00000E+00
 -1       195 1.25000E+00-1.50000E+00-5.96046E-08
 -1       196 1.00000E+00-1.50000E+00 5.00000E-01
 -1       197 1.25000E+00-1.50000E+00 1.00000E+00
 -1       198 1.50000E+00-2.00000E+00 2.00000E+00
 -1       199 2.00000E+00-2.00000E+00 2.00000E+00
 -1       200 1.50000E+00-1.50000E+00 2.00000E+00
 -1       201 2.00000E+00-1.50000E+00 2.00000E+00
 -1       202 1.50000E+00-2.00000E+00 1.50000E+00
 -1       203 1.75000E+00-2.00000E+00 2.00000E+00
 -1       204 2.00000E+00-2.00000E+00 1.50000E+00
 -1       205 1.50000E+00-1.75000E+00 2.00000E+00
 -1       206 2.00000E+00-1.75000E+00 2.00000E+00
 -1       207 1.50000E+00-1.50000E+00 1.50000E+00
 -1       208 1.75000E+00-1.50000E+00 2.00000E+00
 -1       209 2.00000E+00-1.50000E+00 1.50000E+00
 -1       210 1.00000E+00-2.00000E+00 2.00000E+00
 -1       211 1.00000E+00-1.50000E+00 2.00000E+00
 -1       212 1.00000E+00-2.00000E+00 1.50000E+00
 -1       213 1.25000E+00-2.00000E+00 2.00000E+00
 -1       214 1.00000E+00-1.75000E+00 2.00000E+00
 -1       215 1.00000E+00-1.50000E+00 1.50000E+00
 -1       216 1.25000E+00-1.50000E+00 2.00000E+00
 -1       217 1.50000E+00-2.00000E+00 3.00000E+00
 -1       218 2.00000E+00-2.00000E+00 3.00000E+00
 -1       219 1.50000E+00-1.50000E+00 3.00000E+00
 -1       220 2.00000E+00-1.50000E+00 3.00000E+00
 -1       221 1.50000E+00-2.00000E+00 2.50000E+00
 -1       222 1.75000E+00-2.00000E+00 3.00000E+00
 -1       223 2.00000E+00-2.00000E+00 2.50000E+00
 -1       224 1.50000E+00-1.75000E+00 3.00000E+00
 -1       225 2.00000E+00-1.75000E+00 3.00000E+00
 -1       226 1.50000E+00-1.50000E+00 2.50000E+00
 -1       227 1.75000E+00-1.50000E+00 3.00000E+00
 -1       228 2.00000E+00-1.50000E+00 2.50000E+00
 -1       229 1.00000E+00-2.00000E+00 3.00000E+00
 -1       230 1.00000E+00-1.50000E+00 3.00000E+00
 -1       231 1.00000E+00-2.00000E+00 2.50000E+00
 -1       232 1.25000E+00-2.00000E+00 3.00000E+00
 -1       233 1.00000E+00-1.75000E+00 3.00000E+00
 -1       234 1.00000E+00-1.50000E+00 2.50000E+00
 -1       235 1.25000E+00-1.50000E+00 3.00000E+00
 -1       236 1.50000E+00-2.00000E+00 4.00000E+00
 -1       237 2.00000E+00-2.00000E+00 4.00000E+00
 -1       238 1.50000E+00-1.50000E+00 4.00000E+00
 -1       239 2.00000E+00-1.50000E+00 4.00000E+00
 -1       240 1.50000E+00-2.00000E+00 3.50000E+00
 -1       241 1.75000E+00-2.00000E+00 4.00000E+00
 -1       242 2.00000E+00-2.00000E+00 3.50000E+00
 -1       243 1.50000E+00-1.75000E+00 4.00000E+00
 -1       244 2.00000E+00-1.75000E+00 4.00000E+00
 -1       245 1.50000E+00-1.50000E+00 3.50000E+00
 -1       246 1.75000E+00-1.50000E+00 4.00000E+00
 -1       247 2.00000E+00-1.50000E+00 3.50000E+00
 -1       248 1.00000E+00-2.00000E+00 4.00000E+00
 -1       249 1.00000E+00-1.50000E+00 4.00000E+00
 -1       250 1.00000E+00-2.00000E+00 3.50000E+00
 -1       251 1.25000E+00-2.00000E+00 4.00000E+00
 -1       252 1.00000E+00-1.75000E+00 4.00000E+00
 -1       253 1.00000E+00-1.50000E+00 3.50000E+00
 -1       254 1.25000E+00-1.50000E+00 4.00000E+00
 -1       255 1.50000E+00-2.00000E+00 5.00000E+00
 -1       256 2.00000E+00-2.00000E+00 5.00000E+00
 -1       257 1.50000E+00-1.50000E+00 5.00000E+00
 -1       258 2.00000E+00-1.50000E+00 5.00000E+00
 -1       259 1.50000E+00-2.00000E+00 4.50000E+00
 -1       260 1.75000E+00-2.00000E+00 5.00000E+00
 -1       261 2.00000E+00-2.00000E+00 4.50000E+00
 -1       262 1.50000E+00-1.75000E+00 5.00000E+00
 -1       263 2.00000E+00-1.75000E+00 5.00000E+00
 -1       264 1.50000E+00-1.50000E+00 4.50000E+00
 -1       265 1.75000E+00-1.50000E+00 5.00000E+00
 -1       266 2.00000E+00-1.50000E+00 4.50000E+00
 -1       267 1.00000E+00-2.00000E+00 5.00000E+00
 -1       268 1.00000E+00-1.50000E+00 5.00000E+00
 -1       269 1.00000E+00-2.00000E+00 4.50000E+00
 -1       270 1.25000E+00-2.00000E+00 5.00000E+00
 -1       271 1.00000E+00-1.75000E+00 5.00000E+00
 -1       272 1.00000E+00-1.50000E+00 4.50000E+00
 -1       273 1.25000E+00-1.50000E+00 5.00000E+00
 -1       274 1.50000E+00-2.00000E+00 6.00000E+00
 -1       275 2.00000E+00-2.00000E+00 6.00000E+00
 -1       276 1.50000E+00-1.50000E+00 6.00000E+00
 -1       277 2.00000E+00-1.50000E+00 6.00000E+00
 -1       278 1.50000E+00-2.00000E+00 5.50000E+00
 -1       279 1.75000E+00-2.00000E+00 6.00000E+00
 -1       280 2.00000E+00-2.00000E+00 5.50000E+00
 -1       281 1.50000E+00-1.75000E+00 6.00000E+00
 -1       282 2.00000E+00-1.75000E+00 6.00000E+00
 -1       283 1.50000E+00-1.50000E+00 5.50000E+00
 -1       284 1.75000E+00-1.50000E+00 6.00000E+00
 -1       285 2.00000E+00-1.50000E+00 5.50000E+00
 -1       286 1.00000E+00-2.00000E+00 6.00000E+00
 -1       287 1.00000E+00-1.50000E+00 6.00000E+00
 -1       288 1.00000E+00-2.00000E+00 5.50000E+00
 -1       289 1.25000E+00-2.00000E+00 6.00000E+00
 -1       290 1.00000E+00-1.75000E+00 6.00000E+00
 -1       291 1.00000E+00-1.50000E+00 5.50000E+00
 -1       292 1.25000E+00-1.50000E+00 6.00000E+00
 -1       293 1.50000E+00-2.00000E+00 7.00000E+00
 -1       294 2.00000E+00-2.00000E+00 7.00000E+00
 -1       295 1.50000E+00-1.50000E+00 7.00000E+00
 -1       296 2.00000E+00-1.50000E+00 7.00000E+00
 -1       297 1.50000E+00-2.00000E+00 6.50000E+00
 -1       298 1.75000E+00-2.00000E+00 7.00000E+00
 -1       299 2.00000E+00-2.00000E+00 6.50000E+00
 -1       300 1.50000E+00-1.75000E+00 7.00000E+00
 -1       301 2.00000E+00-1.75000E+00 7.00000E+00
 -1       302 1.50000E+00-1.50000E+00 6.50000E+00
 -1       303 1.75000E+00-1.50000E+00 7.00000E+00
 -1       304 2.00000E+00-1.50000E+00 6.50000E+00
 -1       305 1.00000E+00-2.00000E+00 7.00000E+00
 -1       306 1.00000E+00-1.50000E+00 7.00000E+00
 -1       307 1.00000E+00-2.00000E+00 6.50000E+00
 -1       308 1.25000E+00-2.00000E+00 7.00000E+00
 -1       309 1.00000E+00-1.75000E+00 7.00000E+00
 -1       310 1.00000E+00-1.50000E+00 6.50000E+00
 -1       311 1.25000E+00-1.50000E+00 7.00000E+00
 -1       312 1.50000E+00-2.00000E+00 8.00000E+00
 -1       313 2.00000E+00-2.00000E+00 8.00000E+00
 -1       314 1.50000E+00-1.50000E+00 8.00000E+00
 -1       315 2.00000E+00-1.50000E+00 8.00000E+00
 -1       316 1.50000E+00-2.00000E+00 7.50000E+00
 -1       317 1.75000E+00-2.00000E+00 8.00000E+00
 -1       318 2.00000E+00-2.00000E+00 7.50000E+00
 -1       319 1.50000E+00-1.75000E+00 8.00000E+00
 -1       320 2.00000E+00-1.75000E+00 8.00000E+00
 -1       321 1.50000E+00-1.50000E+00 7.50000E+00
 -1       322 1.75000E+00-1.50000E+00 8.00000E+00
 -1       323 2.00000E+00-1.50000E+00 7.50000E+00
 -1       324 1.00000E+00-2.00000E+00 8.00000E+00
 -1       325 1.00000E+00-1.50000E+00 8.00000E+00
 -1       326 1.00000E+00-2.00000E+00 7.50000E+00
 -1       327 1.25000E+00-2.00000E+00 8.00000E+00
 -1       328 1.00000E+00-1.75000E+00 8.00000E+00
 -1       329 1.00000E+00-1.50000E+00 7.50000E+00
 -1       330 1.25000E+00-1.50000E+00 8.00000E+00
 -1       331 2.00000E+00-5.00000E-01-4.00000E+00
 -1       332 1.50000E+00-5.00000E-01-4.00000E+00
 -1       333 1.50000E+00-5.00000E-01-3.00000E+00
 -1       334 2.00000E+00-5.00000E-01-3.00000E+00
 -1       335 2.00000E+00 7.45058E-09-4.00000E+00
 -1       336 1.50000E+00 7.45058E-09-4.00000E+00
 -1       337 1.50000E+00 7.45058E-09-3.00000E+00
 -1       338 2.00000E+00 7.45058E-09-3.00000E+00
 -1       339 1.75000E+00-5.00000E-01-4.00000E+00
 -1       340 1.50000E+00-5.00000E-01-3.50000E+00
 -1       341 1.75000E+00-5.00000E-01-3.00000E+00
 -1       342 2.00000E+00-5.00000E-01-3.50000E+00
 -1       343 2.00000E+00-2.50000E-01-4.00000E+00
 -1       344 1.50000E+00-2.50000E-01-4.00000E+00
 -1       345 1.50000E+00-2.50000E-01-3.00000E+00
 -1       346 2.00000E+00-2.50000E-01-3.00000E+00
 -1       347 1.75000E+00 7.45058E-09-4.00000E+00
 -1       348 1.50000E+00 7.45058E-09-3.50000E+00
 -1       349 1.75000E+00 7.45058E-09-3.00000E+00
 -1       350 2.00000E+00 7.45058E-09-3.50000E+00
 -1       351 1.00000E+00-5.00000E-01-4.00000E+00
 -1       352 1.00000E+00-5.00000E-01-3.00000E+00
 -1       353 1.00000E+00 7.45058E-09-4.00000E+00
 -1       354 1.00000E+00 7.45058E-09-3.00000E+00
 -1       355 1.25000E+00-5.00000E-01-4.00000E+00
 -1       356 1.00000E+00-5.00000E-01-3.50000E+00
 -1       357 1.25000E+00-5.00000E-01-3.00000E+00
 -1       358 1.00000E+00-2.50000E-01-4.00000E+00
 -1       359 1.00000E+00-2.50000E-01-3.00000E+00
 -1       360 1.25000E+00 7.45058E-09-4.00000E+00
 -1       361 1.00000E+00 7.45058E-09-3.50000E+00
 -1       362 1.25000E+00 7.45058E-09-3.00000E+00
 -1       363 1.50000E+00-5.00000E-01-2.00000E+00
 -1       364 2.00000E+00-5.00000E-01-2.00000E+00
 -1       365 1.50000E+00 7.45058E-09-2.00000E+00
 -1       366 2.00000E+00 7.45058E-09-2.00000E+00
 -1       367 1.50000E+00-5.00000E-01-2.50000E+00
 -1       368 1.75000E+00-5.00000E-01-2.00000E+00
 -1       369 2.00000E+00-5.00000E-01-2.50000E+00
 -1       370 1.50000E+00-2.50000E-01-2.00000E+00
 -1       371 2.00000E+00-2.50000E-01-2.00000E+00
 -1       372 1.50000E+00 7.45058E-09-2.50000E+00
 -1       373 1.75000E+00 7.45058E-09-2.00000E+00
 -1       374 2.00000E+00 7.45058E-09-2.50000E+00
 -1       375 1.00000E+00-5.00000E-01-2.00000E+00
 -1       376 1.00000E+00 7.45058E-09-2.00000E+00
 -1       377 1.00000E+00-5.00000E-01-2.50000E+00
 -1       378 1.25000E+00-5.00000E-01-2.00000E+00
 -1       379 1.00000E+00-2.50000E-01-2.00000E+00
 -1       380 1.00000E+00 7.45058E-09-2.50000E+00
 -1       381 1.25000E+00 7.45058E-09-2.00000E+00
 -1       382 1.50000E+00-5.00000E-01-1.00000E+00
 -1       383 2.00000E+00-5.00000E-01-1.00000E+00
 -1       384 1.50000E+00 7.45058E-09-1.00000E+00
 -1       385 2.00000E+00 7.45058E-09-1.00000E+00
 -1       386 1.50000E+00-5.00000E-01-1.50000E+00
 -1       387 1.75000E+00-5.00000E-01-1.00000E+00
 -1       388 2.00000E+00-5.00000E-01-1.50000E+00
 -1       389 1.50000E+00-2.50000E-01-1.00000E+00
 -1       390 2.00000E+00-2.50000E-01-1.00000E+00
 -1       391 1.50000E+00 7.45058E-09-1.50000E+00
 -1       392 1.75000E+00 7.45058E-09-1.00000E+00
 -1       393 2.00000E+00 7.45058E-09-1.50000E+00
 -1       394 1.00000E+00-5.00000E-01-1.00000E+00
 -1       395 1.00000E+00 7.45058E-09-1.00000E+00
 -1       396 1.00000E+00-5.00000E-01-1.50000E+00
 -1       397 1.25000E+00-5.00000E-01-1.00000E+00
 -1       398 1.00000E+00-2.50000E-01-1.00000E+00
 -1       399 1.00000E+00 7.45058E-09-1.50000E+00
 -1       400 1.25000E+00 7.45058E-09-1.00000E+00
 -1       401 1.50000E+00-5.00000E-01-5.96046E-08
 -1       402 2.00000E+00-5.00000E-01-5.96046E-08
 -1       403 1.50000E+00 7.45058E-09-5.96046E-08
 -1       404 2.00000E+00 7.45058E-09-5.96046E-08
 -1       405 1.50000E+00-5.00000E-01-5.00000E-01
 -1       406 1.75000E+00-5.00000E-01-5.96046E-08
 -1       407 2.00000E+00-5.00000E-01-5.00000E-01
 -1       408 1.50000E+00-2.50000E-01-5.96046E-08
 -1       409 2.00000E+00-2.50000E-01-5.96046E-08
 -1       410 1.50000E+00 7.45058E-09-5.00000E-01
 -1       411 1.75000E+00 7.45058E-09-5.96046E-08
 -1       412 2.00000E+00 7.45058E-09-5.00000E-01
 -1       413 1.00000E+00-5.00000E-01-5.96046E-08
 -1       414 1.00000E+00 7.45058E-09-5.96046E-08
 -1       415 1.00000E+00-5.00000E-01-5.00000E-01
 -1       416 1.25000E+00-5.00000E-01-5.96046E-08
 -1       417 1.00000E+00-2.50000E-01-5.96046E-08
 -1       418 1.00000E+00 7.45058E-09-5.00000E-01
 -1       419 1.25000E+00 7.45058E-09-5.96046E-08
 -1       420 1.50000E+00-5.00000E-01 1.00000E+00
 -1       421 2.00000E+00-5.00000E-01 1.00000E+00
 -1       422 1.50000E+00 7.45058E-09 1.00000E+00
 -1       423 2.00000E+00 7.45058E-09 1.00000E+00
 -1       424 1.50000E+00-5.00000E-01 5.00000E-01
 -1       425 1.75000E+00-5.00000E-01 1.00000E+00
 -1       426 2.00000E+00-5.00000E-01 5.00000E-01
 -1       427 1.50000E+00-2.50000E-01 1.00000E+00
 -1       428 2.00000E+00-2.50000E-01 1.00000E+00
 -1       429 1.50000E+00 7.45058E-09 5.00000E-01
 -1       430 1.75000E+00 7.45058E-09 1.00000E+00
 -1       431 2.00000E+00 7.45058E-09 5.00000E-01
 -1       432 1.00000E+00-5.00000E-01 1.00000E+00
 -1       433 1.00000E+00 7.45058E-09 1.00000E+00
 -1       434 1.00000E+00-5.00000E-01 5.00000E-01
 -1       435 1.25000E+00-5.00000E-01 1.00000E+00
 -1       436 1.00000E+00-2.50000E-01 1.00000E+00
 -1       437 1.00000E+00 7.45058E-09 5.00000E-01
 -1       438 1.25000E+00 7.45058E-09 1.00000E+00
 -1       439 1.50000E+00-5.00000E-01 2.00000E+00
 -1       440 2.00000E+00-5.00000E-01 2.00000E+00
 -1       441 1.50000E+00 7.45058E-09 2.00000E+00
 -1       442 2.00000E+00 7.45058E-09 2.00000E+00
 -1       443 1.50000E+00-5.00000E-01 1.50000E+00
 -1       444 1.75000E+00-5.00000E-01 2.00000E+00
 -1       445 2.00000E+00-5.00000E-01 1.50000E+00
 -1       446 1.50000E+00-2.50000E-01 2.00000E+00
 -1       447 2.00000E+00-2.50000E-01 2.00000E+00
 -1       448 1.50000E+00 7.45058E-09 1.50000E+00
 -1       449 1.75000E+00 7.45058E-09 2.00000E+00
 -1       450 2.00000E+00 7.45058E-09 1.50000E+00
 -1       451 1.00000E+00-5.00000E-01 2.00000E+00
 -1       452 1.00000E+00 7.45058E-09 2.00000E+00
 -1       453 1.00000E+00-5.00000E-01 1.50000E+00
 -1       454 1.25000E+00-5.00000E-01 2.00000E+00
 -1       455 1.00000E+00-2.50000E-01 2.00000E+00
 -1       456 1.00000E+00 7.45058E-09 1.50000E+00
 -1       457 1.25000E+00 7.45058E-09 2.00000E+00
 -1       458 1.50000E+00-5.00000E-01 3.00000E+00
 -1       459 2.00000E+00-5.00000E-01 3.00000E+00
 -1       460 1.50000E+00 7.45058E-09 3.00000E+00
 -1       461 2.00000E+00 7.45058E-09 3.00000E+00
 -1       462 1.50000E+00-5.00000E-01 2.50000E+00
 -1       463 1.75000E+00-5.00000E-01 3.00000E+00
 -1       464 2.00000E+00-5.00000E-01 2.50000E+00
 -1       465 1.50000E+00-2.50000E-01 3.00000E+00
 -1       466 2.00000E+00-2.50000E-01 3.00000E+00
 -1       467 1.50000E+00 7.45058E-09 2.50000E+00
 -1       468 1.75000E+00 7.45058E-09 3.00000E+00
 -1       469 2.00000E+00 7.45058E-09 2.50000E+00
 -1       470 1.00000E+00-5.00000E-01 3.00000E+00
 -1       471 1.00000E+00 7.45058E-09 3.00000E+00
 -1       472 1.00000E+00-5.00000E-01 2.50000E+00
 -1       473 1.25000E+00-5.00000E-01 3.00000E+00
 -1       474 1.00000E+00-2.50000E-01 3.00000E+00
 -1       475 1.00000E+00 7.45058E-09 2.50000E+00
 -1       476 1.25000E+00 7.45058E-09 3.00000E+00
 -1       477 1.50000E+00-5.00000E-01 4.00000E+00
 -1       478 2.00000E+00-5.00000E-01 4.00000E+00
 -1       479 1.50000E+00 7.45058E-09 4.00000E+00
 -1       480 2.00000E+00 7.45058E-09 4.00000E+00
 -1       481 1.50000E+00-5.00000E-01 3.50000E+00
 -1       482 1.75000E+00-5.00000E-01 4.00000E+00
 -1       483 2.00000E+00-5.00000E-01 3.50000E+00
 -1       484 1.50000E+00-2.50000E-01 4.00000E+00
 -1       485 2.00000E+00-2.50000E-01 4.00000E+00
 -1       486 1.50000E+00 7.45058E-09 3.50000E+00
 -1       487 1.75000E+00 7.45058E-09 4.00000E+00
 -1       488 2.00000E+00 7.45058E-09 3.50000E+00
 -1       489 1.00000E+00-5.00000E-01 4.00000E+00
 -1       490 1.00000E+00 7.45058E-09 4.00000E+00
 -1       491 1.00000E+00-5.00000E-01 3.50000E+00
 -1       492 1.25000E+00-5.00000E-01 4.00000E+00
 -1       493 1.00000E+00-2.50000E-01 4.00000E+00
 -1       494 1.00000E+00 7.45058E-09 3.50000E+00
 -1       495 1.25000E+00 7.45058E-09 4.00000E+00
 -3
    3C                            48                                     1
 -1         1    4    0    1
 -2         1         2         3         4         5         6         7         8         9        10
 -2        11        12        13        14        15        16        17        18        19        20
 -1         2    4    0    1
 -2         2        21        22         3         6        23        24         7        25        26
 -2        27        10        14        28        29        15        30        31        32        18
 -1         3    4    0    1
 -2         4         3        33        34         8         7        35        36        11        37
 -2        38        39        16        15        40        41        19        42        43        44
 -1         4    4    0    1
 -2         3        22        45        33         7        24        46        35        27        47
 -2        48        37        15        29        49        40        32        50        51        42
 -1         5    4    0    1
 -2        34        33        52        53        36        35        54        55        38        56
 -2        57        58        41        40        59        60        43        61        62        63
 -1         6    4    0    1
 -2        33        45        64        52        35        46        65        54        48        66
 -2        67        56        40        49        68        59        51        69        70        61
 -1         7    4    0    1
 -2        53        52        71        72        55        54        73        74        57        75
 -2        76        77        60        59        78        79        62        80        81        82
 -1         8    4    0    1
 -2        52        64        83        71        54        65        84        73        67        85
 -2        86        75        59        68        87        78        70        88        89        80
 -1         9    4    0    1
 -2        72        71        90        91        74        73        92        93        76        94
 -2        95        96        79        78        97        98        81        99       100       101
 -1        10    4    0    1
 -2        71        83       102        90        73        84       103        92        86       104
 -2       105        94        78        87       106        97        89       107       108        99
 -1        11    4    0    1
 -2        91        90       109       110        93        92       111       112        95       113
 -2       114       115        98        97       116       117       100       118       119       120
 -1        12    4    0    1
 -2        90       102       121       109        92       103       122       111       105       123
 -2       124       113        97       106       125       116       108       126       127       118
 -1        13    4    0    1
 -2       110       109       128       129       112       111       130       131       114       132
 -2       133       134       117       116       135       136       119       137       138       139
 -1        14    4    0    1
 -2       109       121       140       128       111       122       141       130       124       142
 -2       143       132       116       125       144       135       127       145       146       137
 -1        15    4    0    1
 -2       129       128       147       148       131       130       149       150       133       151
 -2       152       153       136       135       154       155       138       156       157       158
 -1        16    4    0    1
 -2       128       140       159       147       130       141       160       149       143       161
 -2       162       151       135       144       163       154       146       164       165       156
 -1        17    4    0    1
 -2       166       167       168       169       170       171       172       173       174       175
 -2       176       177       178       179       180       181       182       183       184       185
 -1        18    4    0    1
 -2       167       186       187       168       171       188       189       172       190       191
 -2       192       175       179       193       194       180       195       196       197       183
 -1        19    4    0    1