# vtk DataFile Version 3.0

ASCII
DATASET UNSTRUCTURED_GRID

POINTS 261 double
	 0.00000000E+00	 0.00000000E+00	 0.00000000E+00
	 1.00000000E+00	 0.00000000E+00	 0.00000000E+00
	 1.00000000E+00	 1.00000000E+00	 0.00000000E+00
	 0.00000000E+00	 1.00000000E+00	 0.00000000E+00
	 0.00000000E+00	 0.00000000E+00	 8.00000000E+00
	 1.00000000E+00	 0.00000000E+00	 8.00000000E+00
	 1.00000000E+00	 1.00000000E+00	 8.00000000E+00
	 0.00000000E+00	 1.00000000E+00	 8.00000000E+00
	 2.50000000E-01	 0.00000000E+00	 0.00000000E+00
	 5.00000000E-01	 0.00000000E+00	 0.00000000E+00
	 7.50000000E-01	 0.00000000E+00	 0.00000000E+00
	 1.00000000E+00	 2.50000000E-01	 0.00000000E+00
	 1.00000000E+00	 5.00000000E-01	 0.00000000E+00
	 1.00000000E+00	 7.50000000E-01	 0.00000000E+00
	 7.50000000E-01	 1.00000000E+00	 0.00000000E+00
	 5.00000000E-01	 1.00000000E+00	 0.00000000E+00
	 2.50000000E-01	 1.00000000E+00	 0.00000000E+00
	 0.00000000E+00	 7.50000000E-01	 0.00000000E+00
	 0.00000000E+00	 5.00000000E-01	 0.00000000E+00
	 0.00000000E+00	 2.50000000E-01	 0.00000000E+00
	 2.50000000E-01	 0.00000000E+00	 8.00000000E+00
	 5.00000000E-01	 0.00000000E+00	 8.00000000E+00
	 7.50000000E-01	 0.00000000E+00	 8.00000000E+00
	 1.00000000E+00	 2.50000000E-01	 8.00000000E+00
	 1.00000000E+00	 5.00000000E-01	 8.00000000E+00
	 1.00000000E+00	 7.50000000E-01	 8.00000000E+00
	 7.50000000E-01	 1.00000000E+00	 8.00000000E+00
	 5.00000000E-01	 1.00000000E+00	 8.00000000E+00
	 2.50000000E-01	 1.00000000E+00	 8.00000000E+00
	 0.00000000E+00	 7.50000000E-01	 8.00000000E+00
	 0.00000000E+00	 5.00000000E-01	 8.00000000E+00
	 0.00000000E+00	 2.50000000E-01	 8.00000000E+00
	 1.00000000E+00	 0.00000000E+00	 5.00000000E-01
	 1.00000000E+00	 0.00000000E+00	 1.00000000E+00
	 1.00000000E+00	 0.00000000E+00	 1.50000000E+00
	 1.00000000E+00	 0.00000000E+00	 2.00000000E+00
	 1.00000000E+00	 0.00000000E+00	 2.50000000E+00
	 1.00000000E+00	 0.00000000E+00	 3.00000000E+00
	 1.00000000E+00	 0.00000000E+00	 3.50000000E+00
	 1.00000000E+00	 0.00000000E+00	 4.00000000E+00
	 1.00000000E+00	 0.00000000E+00	 4.50000000E+00
	 1.00000000E+00	 0.00000000E+00	 5.00000000E+00
	 1.00000000E+00	 0.00000000E+00	 5.50000000E+00
	 1.00000000E+00	 0.00000000E+00	 6.00000000E+00
	 1.00000000E+00	 0.00000000E+00	 6.50000000E+00
	 1.00000000E+00	 0.00000000E+00	 7.00000000E+00
	 1.00000000E+00	 0.00000000E+00	 7.50000000E+00
	 0.00000000E+00	 0.00000000E+00	 7.50000000E+00
	 0.00000000E+00	 0.00000000E+00	 7.00000000E+00
	 0.00000000E+00	 0.00000000E+00	 6.50000000E+00
	 0.00000000E+00	 0.00000000E+00	 6.00000000E+00
	 0.00000000E+00	 0.00000000E+00	 5.50000000E+00
	 0.00000000E+00	 0.00000000E+00	 5.00000000E+00
	 0.00000000E+00	 0.00000000E+00	 4.50000000E+00
	 0.00000000E+00	 0.00000000E+00	 4.00000000E+00
	 0.00000000E+00	 0.00000000E+00	 3.50000000E+00
	 0.00000000E+00	 0.00000000E+00	 3.00000000E+00
	 0.00000000E+00	 0.00000000E+00	 2.50000000E+00
	 0.00000000E+00	 0.00000000E+00	 2.00000000E+00
	 0.00000000E+00	 0.00000000E+00	 1.50000000E+00
	 0.00000000E+00	 0.00000000E+00	 1.00000000E+00
	 0.00000000E+00	 0.00000000E+00	 5.00000000E-01
	 1.00000000E+00	 1.00000000E+00	 5.00000000E-01
	 1.00000000E+00	 1.00000000E+00	 1.00000000E+00
	 1.00000000E+00	 1.00000000E+00	 1.50000000E+00
	 1.00000000E+00	 1.00000000E+00	 2.00000000E+00
	 1.00000000E+00	 1.00000000E+00	 2.50000000E+00
	 1.00000000E+00	 1.00000000E+00	 3.00000000E+00
	 1.00000000E+00	 1.00000000E+00	 3.50000000E+00
	 1.00000000E+00	 1.00000000E+00	 4.00000000E+00
	 1.00000000E+00	 1.00000000E+00	 4.50000000E+00
	 1.00000000E+00	 1.00000000E+00	 5.00000000E+00
	 1.00000000E+00	 1.00000000E+00	 5.50000000E+00
	 1.00000000E+00	 1.00000000E+00	 6.00000000E+00
	 1.00000000E+00	 1.00000000E+00	 6.50000000E+00
	 1.00000000E+00	 1.00000000E+00	 7.00000000E+00
	 1.00000000E+00	 1.00000000E+00	 7.50000000E+00
	 0.00000000E+00	 1.00000000E+00	 5.00000000E-01
	 0.00000000E+00	 1.00000000E+00	 1.00000000E+00
	 0.00000000E+00	 1.00000000E+00	 1.50000000E+00
	 0.00000000E+00	 1.00000000E+00	 2.00000000E+00
	 0.00000000E+00	 1.00000000E+00	 2.50000000E+00
	 0.00000000E+00	 1.00000000E+00	 3.00000000E+00
	 0.00000000E+00	 1.00000000E+00	 3.50000000E+00
	 0.00000000E+00	 1.00000000E+00	 4.00000000E+00
	 0.00000000E+00	 1.00000000E+00	 4.50000000E+00
	 0.00000000E+00	 1.00000000E+00	 5.00000000E+00
	 0.00000000E+00	 1.00000000E+00	 5.50000000E+00
	 0.00000000E+00	 1.00000000E+00	 6.00000000E+00
	 0.00000000E+00	 1.00000000E+00	 6.50000000E+00
	 0.00000000E+00	 1.00000000E+00	 7.00000000E+00
	 0.00000000E+00	 1.00000000E+00	 7.50000000E+00
	 5.00000000E-01	 2.50000000E-01	 0.00000000E+00
	 2.50000000E-01	 5.00000000E-01	 0.00000000E+00
	 5.00000000E-01	 5.00000000E-01	 0.00000000E+00
	 7.50000000E-01	 5.00000000E-01	 0.00000000E+00
	 5.00000000E-01	 7.50000000E-01	 0.00000000E+00
	 5.00000000E-01	 2.50000000E-01	 8.00000000E+00
	 2.50000000E-01	 5.00000000E-01	 8.00000000E+00
	 5.00000000E-01	 5.00000000E-01	 8.00000000E+00
	 7.50000000E-01	 5.00000000E-01	 8.00000000E+00
	 5.00000000E-01	 7.50000000E-01	 8.00000000E+00
	 5.00000000E-01	 0.00000000E+00	 5.00000000E-01
	 2.50000000E-01	 0.00000000E+00	 1.00000000E+00
	 5.00000000E-01	 0.00000000E+00	 1.00000000E+00
	 7.50000000E-01	 0.00000000E+00	 1.00000000E+00
	 5.00000000E-01	 0.00000000E+00	 1.50000000E+00
	 2.50000000E-01	 0.00000000E+00	 2.00000000E+00
	 5.00000000E-01	 0.00000000E+00	 2.00000000E+00
	 7.50000000E-01	 0.00000000E+00	 2.00000000E+00
	 5.00000000E-01	 0.00000000E+00	 2.50000000E+00
	 2.50000000E-01	 0.00000000E+00	 3.00000000E+00
	 5.00000000E-01	 0.00000000E+00	 3.00000000E+00
	 7.50000000E-01	 0.00000000E+00	 3.00000000E+00
	 5.00000000E-01	 0.00000000E+00	 3.50000000E+00
	 2.50000000E-01	 0.00000000E+00	 4.00000000E+00
	 5.00000000E-01	 0.00000000E+00	 4.00000000E+00
	 7.50000000E-01	 0.00000000E+00	 4.00000000E+00
	 5.00000000E-01	 0.00000000E+00	 4.50000000E+00
	 2.50000000E-01	 0.00000000E+00	 5.00000000E+00
	 5.00000000E-01	 0.00000000E+00	 5.00000000E+00
	 7.50000000E-01	 0.00000000E+00	 5.00000000E+00
	 5.00000000E-01	 0.00000000E+00	 5.50000000E+00
	 2.50000000E-01	 0.00000000E+00	 6.00000000E+00
	 5.00000000E-01	 0.00000000E+00	 6.00000000E+00
	 7.50000000E-01	 0.00000000E+00	 6.00000000E+00
	 5.00000000E-01	 0.00000000E+00	 6.50000000E+00
	 2.50000000E-01	 0.00000000E+00	 7.00000000E+00
	 5.00000000E-01	 0.00000000E+00	 7.00000000E+00
	 7.50000000E-01	 0.00000000E+00	 7.00000000E+00
	 5.00000000E-01	 0.00000000E+00	 7.50000000E+00
	 1.00000000E+00	 5.00000000E-01	 5.00000000E-01
	 1.00000000E+00	 2.50000000E-01	 1.00000000E+00
	 1.00000000E+00	 5.00000000E-01	 1.00000000E+00
	 1.00000000E+00	 7.50000000E-01	 1.00000000E+00
	 1.00000000E+00	 5.00000000E-01	 1.50000000E+00
	 1.00000000E+00	 2.50000000E-01	 2.00000000E+00
	 1.00000000E+00	 5.00000000E-01	 2.00000000E+00
	 1.00000000E+00	 7.50000000E-01	 2.00000000E+00
	 1.00000000E+00	 5.00000000E-01	 2.50000000E+00
	 1.00000000E+00	 2.50000000E-01	 3.00000000E+00
	 1.00000000E+00	 5.00000000E-01	 3.00000000E+00
	 1.00000000E+00	 7.50000000E-01	 3.00000000E+00
	 1.00000000E+00	 5.00000000E-01	 3.50000000E+00
	 1.00000000E+00	 2.50000000E-01	 4.00000000E+00
	 1.00000000E+00	 5.00000000E-01	 4.00000000E+00
	 1.00000000E+00	 7.50000000E-01	 4.00000000E+00
	 1.00000000E+00	 5.00000000E-01	 4.50000000E+00
	 1.00000000E+00	 2.50000000E-01	 5.00000000E+00
	 1.00000000E+00	 5.00000000E-01	 5.00000000E+00
	 1.00000000E+00	 7.50000000E-01	 5.00000000E+00
	 1.00000000E+00	 5.00000000E-01	 5.50000000E+00
	 1.00000000E+00	 2.50000000E-01	 6.00000000E+00
	 1.00000000E+00	 5.00000000E-01	 6.00000000E+00
	 1.00000000E+00	 7.50000000E-01	 6.00000000E+00
	 1.00000000E+00	 5.00000000E-01	 6.50000000E+00
	 1.00000000E+00	 2.50000000E-01	 7.00000000E+00
	 1.00000000E+00	 5.00000000E-01	 7.00000000E+00
	 1.00000000E+00	 7.50000000E-01	 7.00000000E+00
	 1.00000000E+00	 5.00000000E-01	 7.50000000E+00
	 5.00000000E-01	 1.00000000E+00	 5.00000000E-01
	 7.50000000E-01	 1.00000000E+00	 1.00000000E+00
	 5.00000000E-01	 1.00000000E+00	 1.00000000E+00
	 2.50000000E-01	 1.00000000E+00	 1.00000000E+00
	 5.00000000E-01	 1.00000000E+00	 1.50000000E+00
	 7.50000000E-01	 1.00000000E+00	 2.00000000E+00
	 5.00000000E-01	 1.00000000E+00	 2.00000000E+00
	 2.50000000E-01	 1.00000000E+00	 2.00000000E+00
	 5.00000000E-01	 1.00000000E+00	 2.50000000E+00
	 7.50000000E-01	 1.00000000E+00	 3.00000000E+00
	 5.00000000E-01	 1.00000000E+00	 3.00000000E+00
	 2.50000000E-01	 1.00000000E+00	 3.00000000E+00
	 5.00000000E-01	 1.00000000E+00	 3.50000000E+00
	 7.50000000E-01	 1.00000000E+00	 4.00000000E+00
	 5.00000000E-01	 1.00000000E+00	 4.00000000E+00
	 2.50000000E-01	 1.00000000E+00	 4.00000000E+00
	 5.00000000E-01	 1.00000000E+00	 4.50000000E+00
	 7.50000000E-01	 1.00000000E+00	 5.00000000E+00
	 5.00000000E-01	 1.00000000E+00	 5.00000000E+00
	 2.50000000E-01	 1.00000000E+00	 5.00000000E+00
	 5.00000000E-01	 1.00000000E+00	 5.50000000E+00
	 7.50000000E-01	 1.00000000E+00	 6.00000000E+00
	 5.00000000E-01	 1.00000000E+00	 6.00000000E+00
	 2.50000000E-01	 1.00000000E+00	 6.00000000E+00
	 5.00000000E-01	 1.00000000E+00	 6.50000000E+00
	 7.50000000E-01	 1.00000000E+00	 7.00000000E+00
	 5.00000000E-01	 1.00000000E+00	 7.00000000E+00
	 2.50000000E-01	 1.00000000E+00	 7.00000000E+00
	 5.00000000E-01	 1.00000000E+00	 7.50000000E+00
	 0.00000000E+00	 5.00000000E-01	 5.00000000E-01
	 0.00000000E+00	 7.50000000E-01	 1.00000000E+00
	 0.00000000E+00	 5.00000000E-01	 1.00000000E+00
	 0.00000000E+00	 2.50000000E-01	 1.00000000E+00
	 0.00000000E+00	 5.00000000E-01	 1.50000000E+00
	 0.00000000E+00	 7.50000000E-01	 2.00000000E+00
	 0.00000000E+00	 5.00000000E-01	 2.00000000E+00
	 0.00000000E+00	 2.50000000E-01	 2.00000000E+00
	 0.00000000E+00	 5.00000000E-01	 2.50000000E+00
	 0.00000000E+00	 7.50000000E-01	 3.00000000E+00
	 0.00000000E+00	 5.00000000E-01	 3.00000000E+00
	 0.00000000E+00	 2.50000000E-01	 3.00000000E+00
	 0.00000000E+00	 5.00000000E-01	 3.50000000E+00
	 0.00000000E+00	 7.50000000E-01	 4.00000000E+00
	 0.00000000E+00	 5.00000000E-01	 4.00000000E+00
	 0.00000000E+00	 2.50000000E-01	 4.00000000E+00
	 0.00000000E+00	 5.00000000E-01	 4.50000000E+00
	 0.00000000E+00	 7.50000000E-01	 5.00000000E+00
	 0.00000000E+00	 5.00000000E-01	 5.00000000E+00
	 0.00000000E+00	 2.50000000E-01	 5.00000000E+00
	 0.00000000E+00	 5.00000000E-01	 5.50000000E+00
	 0.00000000E+00	 7.50000000E-01	 6.00000000E+00
	 0.00000000E+00	 5.00000000E-01	 6.00000000E+00
	 0.00000000E+00	 2.50000000E-01	 6.00000000E+00
	 0.00000000E+00	 5.00000000E-01	 6.50000000E+00
	 0.00000000E+00	 7.50000000E-01	 7.00000000E+00
	 0.00000000E+00	 5.00000000E-01	 7.00000000E+00
	 0.00000000E+00	 2.50000000E-01	 7.00000000E+00
	 0.00000000E+00	 5.00000000E-01	 7.50000000E+00
	 5.00000000E-01	 5.00000000E-01	 5.00000000E-01
	 5.00000000E-01	 2.50000000E-01	 1.00000000E+00
	 2.50000000E-01	 5.00000000E-01	 1.00000000E+00
	 5.00000000E-01	 5.00000000E-01	 1.00000000E+00
	 7.50000000E-01	 5.00000000E-01	 1.00000000E+00
	 5.00000000E-01	 7.50000000E-01	 1.00000000E+00
	 5.00000000E-01	 5.00000000E-01	 1.50000000E+00
	 5.00000000E-01	 2.50000000E-01	 2.00000000E+00
	 2.50000000E-01	 5.00000000E-01	 2.00000000E+00
	 5.00000000E-01	 5.00000000E-01	 2.00000000E+00
	 7.50000000E-01	 5.00000000E-01	 2.00000000E+00
	 5.00000000E-01	 7.50000000E-01	 2.00000000E+00
	 5.00000000E-01	 5.00000000E-01	 2.50000000E+00
	 5.00000000E-01	 2.50000000E-01	 3.00000000E+00
	 2.50000000E-01	 5.00000000E-01	 3.00000000E+00
	 5.00000000E-01	 5.00000000E-01	 3.00000000E+00
	 7.50000000E-01	 5.00000000E-01	 3.00000000E+00
	 5.00000000E-01	 7.50000000E-01	 3.00000000E+00
	 5.00000000E-01	 5.00000000E-01	 3.50000000E+00
	 5.00000000E-01	 2.50000000E-01	 4.00000000E+00
	 2.50000000E-01	 5.00000000E-01	 4.00000000E+00
	 5.00000000E-01	 5.00000000E-01	 4.00000000E+00
	 7.50000000E-01	 5.00000000E-01	 4.00000000E+00
	 5.00000000E-01	 7.50000000E-01	 4.00000000E+00
	 5.00000000E-01	 5.00000000E-01	 4.50000000E+00
	 5.00000000E-01	 2.50000000E-01	 5.00000000E+00
	 2.50000000E-01	 5.00000000E-01	 5.00000000E+00
	 5.00000000E-01	 5.00000000E-01	 5.00000000E+00
	 7.50000000E-01	 5.00000000E-01	 5.00000000E+00
	 5.00000000E-01	 7.50000000E-01	 5.00000000E+00
	 5.00000000E-01	 5.00000000E-01	 5.50000000E+00
	 5.00000000E-01	 2.50000000E-01	 6.00000000E+00
	 2.50000000E-01	 5.00000000E-01	 6.00000000E+00
	 5.00000000E-01	 5.00000000E-01	 6.00000000E+00
	 7.50000000E-01	 5.00000000E-01	 6.00000000E+00
	 5.00000000E-01	 7.50000000E-01	 6.00000000E+00
	 5.00000000E-01	 5.00000000E-01	 6.50000000E+00
	 5.00000000E-01	 2.50000000E-01	 7.00000000E+00
	 2.50000000E-01	 5.00000000E-01	 7.00000000E+00
	 5.00000000E-01	 5.00000000E-01	 7.00000000E+00
	 7.50000000E-01	 5.00000000E-01	 7.00000000E+00
	 5.00000000E-01	 7.50000000E-01	 7.00000000E+00
	 5.00000000E-01	 5.00000000E-01	 7.50000000E+00

CELLS 32 672
	20 0 9 94 18 60 104 221 191 8 92 93 19 103 219 220 192 61 102 218 189 
	20 9 1 12 94 104 33 133 221 10 11 95 92 105 132 222 219 102 32 131 218 
	20 18 94 15 3 191 221 162 78 93 96 16 17 220 223 163 190 189 218 160 77 
	20 94 12 2 15 221 133 63 162 95 13 14 96 222 134 161 223 218 131 62 160 
	20 60 104 221 191 58 108 227 195 103 219 220 192 107 225 226 196 59 106 224 193 
	20 104 33 133 221 108 35 137 227 105 132 222 219 109 136 228 225 106 34 135 224 
	20 191 221 162 78 195 227 166 80 220 223 163 190 226 229 167 194 193 224 164 79 
	20 221 133 63 162 227 137 65 166 222 134 161 223 228 138 165 229 224 135 64 164 
	20 58 108 227 195 56 112 233 199 107 225 226 196 111 231 232 200 57 110 230 197 
	20 108 35 137 227 112 37 141 233 109 136 228 225 113 140 234 231 110 36 139 230 
	20 195 227 166 80 199 233 170 82 226 229 167 194 232 235 171 198 197 230 168 81 
	20 227 137 65 166 233 141 67 170 228 138 165 229 234 142 169 235 230 139 66 168 
	20 56 112 233 199 54 116 239 203 111 231 232 200 115 237 238 204 55 114 236 201 
	20 112 37 141 233 116 39 145 239 113 140 234 231 117 144 240 237 114 38 143 236 
	20 199 233 170 82 203 239 174 84 232 235 171 198 238 241 175 202 201 236 172 83 
	20 233 141 67 170 239 145 69 174 234 142 169 235 240 146 173 241 236 143 68 172 
	20 54 116 239 203 52 120 245 207 115 237 238 204 119 243 244 208 53 118 242 205 
	20 116 39 145 239 120 41 149 245 117 144 240 237 121 148 246 243 118 40 147 242 
	20 203 239 174 84 207 245 178 86 238 241 175 202 244 247 179 206 205 242 176 85 
	20 239 145 69 174 245 149 71 178 240 146 173 241 246 150 177 247 242 147 70 176 
	20 52 120 245 207 50 124 251 211 119 243 244 208 123 249 250 212 51 122 248 209 
	20 120 41 149 245 124 43 153 251 121 148 246 243 125 152 252 249 122 42 151 248 
	20 207 245 178 86 211 251 182 88 244 247 179 206 250 253 183 210 209 248 180 87 
	20 245 149 71 178 251 153 73 182 246 150 177 247 252 154 181 253 248 151 72 180 
	20 50 124 251 211 48 128 257 215 123 249 250 212 127 255 256 216 49 126 254 213 
	20 124 43 153 251 128 45 157 257 125 152 252 249 129 156 258 255 126 44 155 254 
	20 211 251 182 88 215 257 186 90 250 253 183 210 256 259 187 214 213 254 184 89 
	20 251 153 73 182 257 157 75 186 252 154 181 253 258 158 185 259 254 155 74 184 
	20 48 128 257 215 4 21 99 30 127 255 256 216 20 97 98 31 47 130 260 217 
	20 128 45 157 257 21 5 24 99 129 156 258 255 22 23 100 97 130 46 159 260 
	20 215 257 186 90 30 99 27 7 256 259 187 214 98 101 28 29 217 260 188 91 
	20 257 157 75 186 99 24 6 27 258 158 185 259 100 25 26 101 260 159 76 188 

CELL_TYPES 32
	25
	25
	25
	25
	25
	25
	25
	25
	25
	25
	25
	25
	25
	25
	25
	25
	25
	25
	25
	25
	25
	25
	25
	25
	25
	25
	25
	25
	25
	25
	25
	25

POINT_DATA 261
FIELD U 1
	U 3 261 double
		 0.00000000E+00	 0.00000000E+00	 0.00000000E+00
		 0.00000000E+00	 0.00000000E+00	 0.00000000E+00
		 0.00000000E+00	 0.00000000E+00	 0.00000000E+00
		 0.00000000E+00	 0.00000000E+00	 0.00000000E+00
		-4.41846000E-05	 9.65249000E-02	 8.29946000E-03
		 4.41846000E-05	 9.65249000E-02	 8.29946000E-03
		-4.57236000E-05	 9.63613000E-02	-9.69465000E-03
		 4.57236000E-05	 9.63613000E-02	-9.69465000E-03
		 0.00000000E+00	 0.00000000E+00	 0.00000000E+00
		 0.00000000E+00	 0.00000000E+00	 0.00000000E+00
		 0.00000000E+00	 0.00000000E+00	 0.00000000E+00
		 0.00000000E+00	 0.00000000E+00	 0.00000000E+00
		 0.00000000E+00	 0.00000000E+00	 0.00000000E+00
		 0.00000000E+00	 0.00000000E+00	 0.00000000E+00
		 0.00000000E+00	 0.00000000E+00	 0.00000000E+00
		 0.00000000E+00	 0.00000000E+00	 0.00000000E+00
		 0.00000000E+00	 0.00000000E+00	 0.00000000E+00
		 0.00000000E+00	 0.00000000E+00	 0.00000000E+00
		 0.00000000E+00	 0.00000000E+00	 0.00000000E+00
		 0.00000000E+00	 0.00000000E+00	 0.00000000E+00
		-2.02188000E-05	 9.64297000E-02	 8.29117000E-03
		 0.00000000E+00	 9.64208000E-02	 8.27230000E-03
		 2.02188000E-05	 9.64297000E-02	 8.29117000E-03
		-4.04437000E-07	 9.64096000E-02	 3.77140000E-03
		-1.98064000E-07	 9.63199000E-02	-6.97007000E-04
		-6.37213000E-07	 9.63290000E-02	-5.16682000E-03
		-2.08592000E-05	 9.62670000E-02	-9.68581000E-03
		 0.00000000E+00	 9.62594000E-02	-9.66703000E-03
		 2.08592000E-05	 9.62670000E-02	-9.68581000E-03
		 6.37213000E-07	 9.63290000E-02	-5.16682000E-03
		 1.98064000E-07	 9.63199000E-02	-6.97007000E-04
		 4.04437000E-07	 9.64096000E-02	 3.77140000E-03
		-3.39243000E-04	 5.93201000E-04	 1.01715000E-03
		-2.47595000E-04	 2.11634000E-03	 2.03525000E-03
		-2.79517000E-04	 4.76098000E-03	 2.98661000E-03
		-2.46743000E-04	 8.24629000E-03	 3.86042000E-03
		-2.34561000E-04	 1.26369000E-02	 4.64884000E-03
		-2.10035000E-04	 1.77684000E-02	 5.36583000E-03
		-1.91294000E-04	 2.36278000E-02	 6.00246000E-03
		-1.69187000E-04	 3.01119000E-02	 6.56265000E-03
		-1.48808000E-04	 3.71662000E-02	 7.04210000E-03
		-1.28165000E-04	 4.47139000E-02	 7.44542000E-03
		-1.04954000E-04	 5.26835000E-02	 7.77085000E-03
		-8.42048000E-05	 6.10166000E-02	 8.02199000E-03
		-6.56494000E-05	 6.96034000E-02	 8.19249000E-03
		-5.40198000E-05	 7.84321000E-02	 8.29178000E-03
		-4.09844000E-06	 8.73878000E-02	 8.32159000E-03
		 4.09844000E-06	 8.73878000E-02	 8.32159000E-03
		 5.40198000E-05	 7.84321000E-02	 8.29178000E-03
		 6.56494000E-05	 6.96034000E-02	 8.19249000E-03
		 8.42048000E-05	 6.10166000E-02	 8.02199000E-03
		 1.04954000E-04	 5.26835000E-02	 7.77085000E-03
		 1.28165000E-04	 4.47139000E-02	 7.44542000E-03
		 1.48808000E-04	 3.71662000E-02	 7.04210000E-03
		 1.69187000E-04	 3.01119000E-02	 6.56265000E-03
		 1.91294000E-04	 2.36278000E-02	 6.00246000E-03
		 2.10035000E-04	 1.77684000E-02	 5.36583000E-03
		 2.34561000E-04	 1.26369000E-02	 4.64884000E-03
		 2.46743000E-04	 8.24629000E-03	 3.86042000E-03
		 2.79517000E-04	 4.76098000E-03	 2.98661000E-03
		 2.47595000E-04	 2.11634000E-03	 2.03525000E-03
		 3.39243000E-04	 5.93201000E-04	 1.01715000E-03
		 3.39849000E-04	 5.90256000E-04	-1.01965000E-03
		 2.47441000E-04	 2.10691000E-03	-2.04439000E-03
		 2.79624000E-04	 4.74235000E-03	-3.01098000E-03
		 2.46763000E-04	 8.21509000E-03	-3.91023000E-03
		 2.34560000E-04	 1.25923000E-02	-4.73769000E-03
		 2.09947000E-04	 1.77086000E-02	-5.50770000E-03
		 1.91220000E-04	 2.35527000E-02	-6.21302000E-03
		 1.69047000E-04	 3.00213000E-02	-6.85718000E-03
		 1.48655000E-04	 3.70610000E-02	-7.43576000E-03
		 1.27959000E-04	 4.45950000E-02	-7.95253000E-03
		 1.04776000E-04	 5.25523000E-02	-8.40422000E-03
		 8.38965000E-05	 6.08748000E-02	-8.79343000E-03
		 6.54384000E-05	 6.94534000E-02	-9.11079000E-03
		 5.34589000E-05	 7.82756000E-02	-9.36538000E-03
		 4.26456000E-06	 8.72281000E-02	-9.55362000E-03
		-3.39849000E-04	 5.90256000E-04	-1.01965000E-03
		-2.47441000E-04	 2.10691000E-03	-2.04439000E-03
		-2.79624000E-04	 4.74235000E-03	-3.01098000E-03
		-2.46763000E-04	 8.21509000E-03	-3.91023000E-03
		-2.34560000E-04	 1.25923000E-02	-4.73769000E-03
		-2.09947000E-04	 1.77086000E-02	-5.50770000E-03
		-1.91220000E-04	 2.35527000E-02	-6.21302000E-03
		-1.69047000E-04	 3.00213000E-02	-6.85718000E-03
		-1.48655000E-04	 3.70610000E-02	-7.43576000E-03
		-1.27959000E-04	 4.45950000E-02	-7.95253000E-03
		-1.04776000E-04	 5.25523000E-02	-8.40422000E-03
		-8.38965000E-05	 6.08748000E-02	-8.79343000E-03
		-6.54384000E-05	 6.94534000E-02	-9.11079000E-03
		-5.34589000E-05	 7.82756000E-02	-9.36538000E-03
		-4.26456000E-06	 8.72281000E-02	-9.55362000E-03
		 0.00000000E+00	 0.00000000E+00	 0.00000000E+00
		 0.00000000E+00	 0.00000000E+00	 0.00000000E+00
		 0.00000000E+00	 0.00000000E+00	 0.00000000E+00
		 0.00000000E+00	 0.00000000E+00	 0.00000000E+00
		 0.00000000E+00	 0.00000000E+00	 0.00000000E+00
		 0.00000000E+00	 9.63575000E-02	 3.77710000E-03
		 1.15947000E-07	 9.63145000E-02	-6.97208000E-04
		 0.00000000E+00	 9.62978000E-02	-6.97143000E-04
		-1.15947000E-07	 9.63145000E-02	-6.97208000E-04
		 0.00000000E+00	 9.62772000E-02	-5.17161000E-03
		 0.00000000E+00	 7.38771000E-04	 9.87599000E-04
		 1.22495000E-04	 2.23616000E-03	 2.04784000E-03
		 0.00000000E+00	 2.26306000E-03	 2.06249000E-03
		-1.22495000E-04	 2.23616000E-03	 2.04784000E-03
		 0.00000000E+00	 4.89400000E-03	 2.98655000E-03
		 1.23357000E-04	 8.34210000E-03	 3.86683000E-03
		 0.00000000E+00	 8.37945000E-03	 3.86768000E-03
		-1.23357000E-04	 8.34210000E-03	 3.86683000E-03
		 0.00000000E+00	 1.27514000E-02	 4.65160000E-03
		 1.04923000E-04	 1.78501000E-02	 5.37003000E-03
		 0.00000000E+00	 1.78772000E-02	 5.36988000E-03
		-1.04923000E-04	 1.78501000E-02	 5.37003000E-03
		 0.00000000E+00	 2.37227000E-02	 6.00580000E-03
		 8.45959000E-05	 3.01754000E-02	 6.56666000E-03
		 0.00000000E+00	 3.01970000E-02	 6.56595000E-03
		-8.45959000E-05	 3.01754000E-02	 6.56666000E-03
		 0.00000000E+00	 3.72410000E-02	 7.04559000E-03
		 6.40220000E-05	 4.47618000E-02	 7.44967000E-03
		 0.00000000E+00	 4.47762000E-02	 7.44895000E-03
		-6.40220000E-05	 4.47618000E-02	 7.44967000E-03
		 0.00000000E+00	 5.27373000E-02	 7.77450000E-03
		 4.22922000E-05	 6.10415000E-02	 8.02576000E-03
		 0.00000000E+00	 6.10510000E-02	 8.02504000E-03
		-4.22922000E-05	 6.10415000E-02	 8.02576000E-03
		 0.00000000E+00	 6.96423000E-02	 8.19669000E-03
		 2.61876000E-05	 7.84536000E-02	 8.29767000E-03
		 0.00000000E+00	 7.84423000E-02	 8.29785000E-03
		-2.61876000E-05	 7.84536000E-02	 8.29767000E-03
		 0.00000000E+00	 8.73987000E-02	 8.32334000E-03
		 5.20931000E-07	 3.82898000E-04	-1.05102000E-06
		-1.24656000E-04	 2.02992000E-03	 1.00663000E-03
		 4.53437000E-07	 2.04028000E-03	-4.08605000E-06
		 1.25139000E-04	 2.02512000E-03	-1.01509000E-03
		 4.36103000E-07	 4.58905000E-03	-1.11055000E-05
		-1.22908000E-04	 8.16348000E-03	 1.90598000E-03
		 3.18260000E-07	 8.13842000E-03	-2.40253000E-05
		 1.23288000E-04	 8.14803000E-03	-1.95431000E-03
		 2.36130000E-07	 1.24885000E-02	-4.31500000E-05
		-1.04969000E-04	 1.76795000E-02	 2.63737000E-03
		 1.86260000E-07	 1.76453000E-02	-6.98429000E-05
		 1.05150000E-04	 1.76498000E-02	-2.77757000E-03
		 1.29657000E-07	 2.34915000E-02	-1.04006000E-04
		-8.46040000E-05	 3.00274000E-02	 3.19703000E-03
		 7.64815000E-08	 2.99852000E-02	-1.46099000E-04
		 8.46343000E-05	 2.99824000E-02	-3.48979000E-03
		 2.17809000E-08	 3.70394000E-02	-1.95702000E-04
		-6.37455000E-05	 4.46356000E-02	 3.58567000E-03
		-9.54234000E-09	 4.45891000E-02	-2.52484000E-04
		 6.36482000E-05	 4.45764000E-02	-4.09118000E-03
		-4.85964000E-08	 5.25666000E-02	-3.15830000E-04
		-4.35427000E-05	 6.09416000E-02	 3.80644000E-03
		-5.63704000E-08	 6.08897000E-02	-3.84756000E-04
		 4.33305000E-05	 6.08712000E-02	-4.57662000E-03
		-1.26804000E-07	 6.95077000E-02	-4.58759000E-04
		-2.16336000E-05	 7.83716000E-02	 3.87054000E-03
		-1.24308000E-07	 7.83162000E-02	-5.36001000E-04
		 2.12506000E-05	 7.82936000E-02	-4.94291000E-03
		-3.38241000E-08	 8.73041000E-02	-6.16186000E-04
		 0.00000000E+00	 7.35857000E-04	-9.90557000E-04
		 1.22578000E-04	 2.22638000E-03	-2.05807000E-03
		 0.00000000E+00	 2.25341000E-03	-2.07311000E-03
		-1.22578000E-04	 2.22638000E-03	-2.05807000E-03
		 0.00000000E+00	 4.87504000E-03	-3.01261000E-03
		 1.23429000E-04	 8.31072000E-03	-3.91828000E-03
		 0.00000000E+00	 8.34820000E-03	-3.91972000E-03
		-1.23429000E-04	 8.31072000E-03	-3.91828000E-03
		 0.00000000E+00	 1.27066000E-02	-4.74268000E-03
		 1.04937000E-04	 1.77901000E-02	-5.51371000E-03
		 0.00000000E+00	 1.78173000E-02	-5.51417000E-03
		-1.04937000E-04	 1.77901000E-02	-5.51371000E-03
		 0.00000000E+00	 2.36474000E-02	-6.21875000E-03
		 8.45599000E-05	 3.00846000E-02	-6.86294000E-03
		 0.00000000E+00	 3.01063000E-02	-6.86281000E-03
		-8.45599000E-05	 3.00846000E-02	-6.86294000E-03
		 0.00000000E+00	 3.71356000E-02	-7.44147000E-03
		 6.39373000E-05	 4.46427000E-02	-7.95825000E-03
		 0.00000000E+00	 4.46571000E-02	-7.95798000E-03
		-6.39373000E-05	 4.46427000E-02	-7.95825000E-03
		 0.00000000E+00	 5.26060000E-02	-8.40968000E-03
		 4.21489000E-05	 6.08996000E-02	-8.79817000E-03
		 0.00000000E+00	 6.09092000E-02	-8.79769000E-03
		-4.21489000E-05	 6.08996000E-02	-8.79817000E-03
		 0.00000000E+00	 6.94920000E-02	-9.11633000E-03
		 2.59020000E-05	 7.82971000E-02	-9.37160000E-03
		 0.00000000E+00	 7.82859000E-02	-9.37160000E-03
		-2.59020000E-05	 7.82971000E-02	-9.37160000E-03
		 0.00000000E+00	 8.72388000E-02	-9.55626000E-03
		-5.20931000E-07	 3.82898000E-04	-1.05102000E-06
		-1.25139000E-04	 2.02512000E-03	-1.01509000E-03
		-4.53437000E-07	 2.04028000E-03	-4.08605000E-06
		 1.24656000E-04	 2.02992000E-03	 1.00663000E-03
		-4.36103000E-07	 4.58905000E-03	-1.11055000E-05
		-1.23288000E-04	 8.14803000E-03	-1.95431000E-03
		-3.18260000E-07	 8.13842000E-03	-2.40253000E-05
		 1.22908000E-04	 8.16348000E-03	 1.90598000E-03
		-2.36130000E-07	 1.24885000E-02	-4.31500000E-05
		-1.05150000E-04	 1.76498000E-02	-2.77757000E-03
		-1.86260000E-07	 1.76453000E-02	-6.98429000E-05
		 1.04969000E-04	 1.76795000E-02	 2.63737000E-03
		-1.29657000E-07	 2.34915000E-02	-1.04006000E-04
		-8.46343000E-05	 2.99824000E-02	-3.48979000E-03
		-7.64815000E-08	 2.99852000E-02	-1.46099000E-04
		 8.46040000E-05	 3.00274000E-02	 3.19703000E-03
		-2.17809000E-08	 3.70394000E-02	-1.95702000E-04
		-6.36482000E-05	 4.45764000E-02	-4.09118000E-03
		 9.54234000E-09	 4.45891000E-02	-2.52484000E-04
		 6.37455000E-05	 4.46356000E-02	 3.58567000E-03
		 4.85964000E-08	 5.25666000E-02	-3.15830000E-04
		-4.33305000E-05	 6.08712000E-02	-4.57662000E-03
		 5.63704000E-08	 6.08897000E-02	-3.84756000E-04
		 4.35427000E-05	 6.09416000E-02	 3.80644000E-03
		 1.26804000E-07	 6.95077000E-02	-4.58759000E-04
		-2.12506000E-05	 7.82936000E-02	-4.94291000E-03
		 1.24308000E-07	 7.83162000E-02	-5.36001000E-04
		 2.16336000E-05	 7.83716000E-02	 3.87054000E-03
		 3.38241000E-08	 8.73041000E-02	-6.16186000E-04
		 0.00000000E+00	 5.27663000E-04	-1.34433000E-06
		 0.00000000E+00	 2.16947000E-03	 1.01787000E-03
		-2.47646000E-07	 2.15539000E-03	-4.55685000E-06
		 0.00000000E+00	 2.17554000E-03	-4.70682000E-06
		 2.47646000E-07	 2.15539000E-03	-4.55685000E-06
		 0.00000000E+00	 2.16451000E-03	-1.02770000E-03
		 0.00000000E+00	 4.72675000E-03	-1.19761000E-05
		 0.00000000E+00	 8.29219000E-03	 1.91197000E-03
		-1.71270000E-07	 8.22905000E-03	-2.48018000E-05
		 0.00000000E+00	 8.26192000E-03	-2.50353000E-05
		 1.71270000E-07	 8.22905000E-03	-2.48018000E-05
		 0.00000000E+00	 8.27662000E-03	-1.96240000E-03
		 0.00000000E+00	 1.26062000E-02	-4.42973000E-05
		 0.00000000E+00	 1.77860000E-02	 2.64096000E-03
		-1.02344000E-07	 1.77247000E-02	-7.07195000E-05
		 0.00000000E+00	 1.77497000E-02	-7.09967000E-05
		 1.02344000E-07	 1.77247000E-02	-7.07195000E-05
		 0.00000000E+00	 1.77561000E-02	-2.78352000E-03
		 0.00000000E+00	 2.35874000E-02	-1.05205000E-04
		 0.00000000E+00	 3.01124000E-02	 3.20043000E-03
		-4.36876000E-08	 3.00485000E-02	-1.46981000E-04
		 0.00000000E+00	 3.00698000E-02	-1.47264000E-04
		 4.36876000E-08	 3.00485000E-02	-1.46981000E-04
		 0.00000000E+00	 3.00672000E-02	-3.49552000E-03
		 0.00000000E+00	 3.71134000E-02	-1.96791000E-04
		 0.00000000E+00	 4.46991000E-02	 3.58910000E-03
		 0.00000000E+00	 4.46375000E-02	-2.53245000E-04
		 0.00000000E+00	 4.46542000E-02	-2.53505000E-04
		 0.00000000E+00	 4.46375000E-02	-2.53245000E-04
		 0.00000000E+00	 4.46398000E-02	-4.09661000E-03
		 0.00000000E+00	 5.26182000E-02	-3.16688000E-04
		 0.00000000E+00	 6.09822000E-02	 3.81050000E-03
		 3.23535000E-08	 6.09233000E-02	-3.85360000E-04
		 0.00000000E+00	 6.09350000E-02	-3.85571000E-04
		-3.23535000E-08	 6.09233000E-02	-3.85360000E-04
		 0.00000000E+00	 6.09116000E-02	-4.58204000E-03
		 0.00000000E+00	 6.95381000E-02	-4.59237000E-04
		 0.00000000E+00	 7.83874000E-02	 3.87276000E-03
		 4.79067000E-08	 7.83334000E-02	-5.36240000E-04
		 0.00000000E+00	 7.83429000E-02	-5.36368000E-04
		-4.79067000E-08	 7.83334000E-02	-5.36240000E-04
		 0.00000000E+00	 7.83095000E-02	-4.94579000E-03
		 0.00000000E+00	 8.73050000E-02	-6.16443000E-04
