# vtk DataFile Version 3.0

ASCII
DATASET UNSTRUCTURED_GRID

POINTS 261 double
	 0.00000000E+00	 0.00000000E+00	 0.00000000E+00
	 1.00000000E+00	 0.00000000E+00	 0.00000000E+00
	 1.00000000E+00	 1.50000000E+00	 0.00000000E+00
	 0.00000000E+00	 1.50000000E+00	 0.00000000E+00
	 0.00000000E+00	 0.00000000E+00	 8.00000000E+00
	 1.00000000E+00	 0.00000000E+00	 8.00000000E+00
	 1.00000000E+00	 1.50000000E+00	 8.00000000E+00
	 0.00000000E+00	 1.50000000E+00	 8.00000000E+00
	 2.50000000E-01	 0.00000000E+00	 0.00000000E+00
	 5.00000000E-01	 0.00000000E+00	 0.00000000E+00
	 7.50000000E-01	 0.00000000E+00	 0.00000000E+00
	 1.00000000E+00	 3.75000000E-01	 0.00000000E+00
	 1.00000000E+00	 7.50000000E-01	 0.00000000E+00
	 1.00000000E+00	 1.12500000E+00	 0.00000000E+00
	 7.50000000E-01	 1.50000000E+00	 0.00000000E+00
	 5.00000000E-01	 1.50000000E+00	 0.00000000E+00
	 2.50000000E-01	 1.50000000E+00	 0.00000000E+00
	 0.00000000E+00	 1.12500000E+00	 0.00000000E+00
	 0.00000000E+00	 7.50000000E-01	 0.00000000E+00
	 0.00000000E+00	 3.75000000E-01	 0.00000000E+00
	 2.50000000E-01	 0.00000000E+00	 8.00000000E+00
	 5.00000000E-01	 0.00000000E+00	 8.00000000E+00
	 7.50000000E-01	 0.00000000E+00	 8.00000000E+00
	 1.00000000E+00	 3.75000000E-01	 8.00000000E+00
	 1.00000000E+00	 7.50000000E-01	 8.00000000E+00
	 1.00000000E+00	 1.12500000E+00	 8.00000000E+00
	 7.50000000E-01	 1.50000000E+00	 8.00000000E+00
	 5.00000000E-01	 1.50000000E+00	 8.00000000E+00
	 2.50000000E-01	 1.50000000E+00	 8.00000000E+00
	 0.00000000E+00	 1.12500000E+00	 8.00000000E+00
	 0.00000000E+00	 7.50000000E-01	 8.00000000E+00
	 0.00000000E+00	 3.75000000E-01	 8.00000000E+00
	 1.00000000E+00	 0.00000000E+00	 5.00000000E-01
	 1.00000000E+00	 0.00000000E+00	 1.00000000E+00
	 1.00000000E+00	 0.00000000E+00	 1.50000000E+00
	 1.00000000E+00	 0.00000000E+00	 2.00000000E+00
	 1.00000000E+00	 0.00000000E+00	 2.50000000E+00
	 1.00000000E+00	 0.00000000E+00	 3.00000000E+00
	 1.00000000E+00	 0.00000000E+00	 3.50000000E+00
	 1.00000000E+00	 0.00000000E+00	 4.00000000E+00
	 1.00000000E+00	 0.00000000E+00	 4.50000000E+00
	 1.00000000E+00	 0.00000000E+00	 5.00000000E+00
	 1.00000000E+00	 0.00000000E+00	 5.50000000E+00
	 1.00000000E+00	 0.00000000E+00	 6.00000000E+00
	 1.00000000E+00	 0.00000000E+00	 6.50000000E+00
	 1.00000000E+00	 0.00000000E+00	 7.00000000E+00
	 1.00000000E+00	 0.00000000E+00	 7.50000000E+00
	 0.00000000E+00	 0.00000000E+00	 7.50000000E+00
	 0.00000000E+00	 0.00000000E+00	 7.00000000E+00
	 0.00000000E+00	 0.00000000E+00	 6.50000000E+00
	 0.00000000E+00	 0.00000000E+00	 6.00000000E+00
	 0.00000000E+00	 0.00000000E+00	 5.50000000E+00
	 0.00000000E+00	 0.00000000E+00	 5.00000000E+00
	 0.00000000E+00	 0.00000000E+00	 4.50000000E+00
	 0.00000000E+00	 0.00000000E+00	 4.00000000E+00
	 0.00000000E+00	 0.00000000E+00	 3.50000000E+00
	 0.00000000E+00	 0.00000000E+00	 3.00000000E+00
	 0.00000000E+00	 0.00000000E+00	 2.50000000E+00
	 0.00000000E+00	 0.00000000E+00	 2.00000000E+00
	 0.00000000E+00	 0.00000000E+00	 1.50000000E+00
	 0.00000000E+00	 0.00000000E+00	 1.00000000E+00
	 0.00000000E+00	 0.00000000E+00	 5.00000000E-01
	 1.00000000E+00	 1.50000000E+00	 5.00000000E-01
	 1.00000000E+00	 1.50000000E+00	 1.00000000E+00
	 1.00000000E+00	 1.50000000E+00	 1.50000000E+00
	 1.00000000E+00	 1.50000000E+00	 2.00000000E+00
	 1.00000000E+00	 1.50000000E+00	 2.50000000E+00
	 1.00000000E+00	 1.50000000E+00	 3.00000000E+00
	 1.00000000E+00	 1.50000000E+00	 3.50000000E+00
	 1.00000000E+00	 1.50000000E+00	 4.00000000E+00
	 1.00000000E+00	 1.50000000E+00	 4.50000000E+00
	 1.00000000E+00	 1.50000000E+00	 5.00000000E+00
	 1.00000000E+00	 1.50000000E+00	 5.50000000E+00
	 1.00000000E+00	 1.50000000E+00	 6.00000000E+00
	 1.00000000E+00	 1.50000000E+00	 6.50000000E+00
	 1.00000000E+00	 1.50000000E+00	 7.00000000E+00
	 1.00000000E+00	 1.50000000E+00	 7.50000000E+00
	 0.00000000E+00	 1.50000000E+00	 5.00000000E-01
	 0.00000000E+00	 1.50000000E+00	 1.00000000E+00
	 0.00000000E+00	 1.50000000E+00	 1.50000000E+00
	 0.00000000E+00	 1.50000000E+00	 2.00000000E+00
	 0.00000000E+00	 1.50000000E+00	 2.50000000E+00
	 0.00000000E+00	 1.50000000E+00	 3.00000000E+00
	 0.00000000E+00	 1.50000000E+00	 3.50000000E+00
	 0.00000000E+00	 1.50000000E+00	 4.00000000E+00
	 0.00000000E+00	 1.50000000E+00	 4.50000000E+00
	 0.00000000E+00	 1.50000000E+00	 5.00000000E+00
	 0.00000000E+00	 1.50000000E+00	 5.50000000E+00
	 0.00000000E+00	 1.50000000E+00	 6.00000000E+00
	 0.00000000E+00	 1.50000000E+00	 6.50000000E+00
	 0.00000000E+00	 1.50000000E+00	 7.00000000E+00
	 0.00000000E+00	 1.50000000E+00	 7.50000000E+00
	 5.00000000E-01	 3.75000000E-01	 0.00000000E+00
	 2.50000000E-01	 7.50000000E-01	 0.00000000E+00
	 5.00000000E-01	 7.50000000E-01	 0.00000000E+00
	 7.50000000E-01	 7.50000000E-01	 0.00000000E+00
	 5.00000000E-01	 1.12500000E+00	 0.00000000E+00
	 5.00000000E-01	 3.75000000E-01	 8.00000000E+00
	 2.50000000E-01	 7.50000000E-01	 8.00000000E+00
	 5.00000000E-01	 7.50000000E-01	 8.00000000E+00
	 7.50000000E-01	 7.50000000E-01	 8.00000000E+00
	 5.00000000E-01	 1.12500000E+00	 8.00000000E+00
	 5.00000000E-01	 0.00000000E+00	 5.00000000E-01
	 2.50000000E-01	 0.00000000E+00	 1.00000000E+00
	 5.00000000E-01	 0.00000000E+00	 1.00000000E+00
	 7.50000000E-01	 0.00000000E+00	 1.00000000E+00
	 5.00000000E-01	 0.00000000E+00	 1.50000000E+00
	 2.50000000E-01	 0.00000000E+00	 2.00000000E+00
	 5.00000000E-01	 0.00000000E+00	 2.00000000E+00
	 7.50000000E-01	 0.00000000E+00	 2.00000000E+00
	 5.00000000E-01	 0.00000000E+00	 2.50000000E+00
	 2.50000000E-01	 0.00000000E+00	 3.00000000E+00
	 5.00000000E-01	 0.00000000E+00	 3.00000000E+00
	 7.50000000E-01	 0.00000000E+00	 3.00000000E+00
	 5.00000000E-01	 0.00000000E+00	 3.50000000E+00
	 2.50000000E-01	 0.00000000E+00	 4.00000000E+00
	 5.00000000E-01	 0.00000000E+00	 4.00000000E+00
	 7.50000000E-01	 0.00000000E+00	 4.00000000E+00
	 5.00000000E-01	 0.00000000E+00	 4.50000000E+00
	 2.50000000E-01	 0.00000000E+00	 5.00000000E+00
	 5.00000000E-01	 0.00000000E+00	 5.00000000E+00
	 7.50000000E-01	 0.00000000E+00	 5.00000000E+00
	 5.00000000E-01	 0.00000000E+00	 5.50000000E+00
	 2.50000000E-01	 0.00000000E+00	 6.00000000E+00
	 5.00000000E-01	 0.00000000E+00	 6.00000000E+00
	 7.50000000E-01	 0.00000000E+00	 6.00000000E+00
	 5.00000000E-01	 0.00000000E+00	 6.50000000E+00
	 2.50000000E-01	 0.00000000E+00	 7.00000000E+00
	 5.00000000E-01	 0.00000000E+00	 7.00000000E+00
	 7.50000000E-01	 0.00000000E+00	 7.00000000E+00
	 5.00000000E-01	 0.00000000E+00	 7.50000000E+00
	 1.00000000E+00	 7.50000000E-01	 5.00000000E-01
	 1.00000000E+00	 3.75000000E-01	 1.00000000E+00
	 1.00000000E+00	 7.50000000E-01	 1.00000000E+00
	 1.00000000E+00	 1.12500000E+00	 1.00000000E+00
	 1.00000000E+00	 7.50000000E-01	 1.50000000E+00
	 1.00000000E+00	 3.75000000E-01	 2.00000000E+00
	 1.00000000E+00	 7.50000000E-01	 2.00000000E+00
	 1.00000000E+00	 1.12500000E+00	 2.00000000E+00
	 1.00000000E+00	 7.50000000E-01	 2.50000000E+00
	 1.00000000E+00	 3.75000000E-01	 3.00000000E+00
	 1.00000000E+00	 7.50000000E-01	 3.00000000E+00
	 1.00000000E+00	 1.12500000E+00	 3.00000000E+00
	 1.00000000E+00	 7.50000000E-01	 3.50000000E+00
	 1.00000000E+00	 3.75000000E-01	 4.00000000E+00
	 1.00000000E+00	 7.50000000E-01	 4.00000000E+00
	 1.00000000E+00	 1.12500000E+00	 4.00000000E+00
	 1.00000000E+00	 7.50000000E-01	 4.50000000E+00
	 1.00000000E+00	 3.75000000E-01	 5.00000000E+00
	 1.00000000E+00	 7.50000000E-01	 5.00000000E+00
	 1.00000000E+00	 1.12500000E+00	 5.00000000E+00
	 1.00000000E+00	 7.50000000E-01	 5.50000000E+00
	 1.00000000E+00	 3.75000000E-01	 6.00000000E+00
	 1.00000000E+00	 7.50000000E-01	 6.00000000E+00
	 1.00000000E+00	 1.12500000E+00	 6.00000000E+00
	 1.00000000E+00	 7.50000000E-01	 6.50000000E+00
	 1.00000000E+00	 3.75000000E-01	 7.00000000E+00
	 1.00000000E+00	 7.50000000E-01	 7.00000000E+00
	 1.00000000E+00	 1.12500000E+00	 7.00000000E+00
	 1.00000000E+00	 7.50000000E-01	 7.50000000E+00
	 5.00000000E-01	 1.50000000E+00	 5.00000000E-01
	 7.50000000E-01	 1.50000000E+00	 1.00000000E+00
	 5.00000000E-01	 1.50000000E+00	 1.00000000E+00
	 2.50000000E-01	 1.50000000E+00	 1.00000000E+00
	 5.00000000E-01	 1.50000000E+00	 1.50000000E+00
	 7.50000000E-01	 1.50000000E+00	 2.00000000E+00
	 5.00000000E-01	 1.50000000E+00	 2.00000000E+00
	 2.50000000E-01	 1.50000000E+00	 2.00000000E+00
	 5.00000000E-01	 1.50000000E+00	 2.50000000E+00
	 7.50000000E-01	 1.50000000E+00	 3.00000000E+00
	 5.00000000E-01	 1.50000000E+00	 3.00000000E+00
	 2.50000000E-01	 1.50000000E+00	 3.00000000E+00
	 5.00000000E-01	 1.50000000E+00	 3.50000000E+00
	 7.50000000E-01	 1.50000000E+00	 4.00000000E+00
	 5.00000000E-01	 1.50000000E+00	 4.00000000E+00
	 2.50000000E-01	 1.50000000E+00	 4.00000000E+00
	 5.00000000E-01	 1.50000000E+00	 4.50000000E+00
	 7.50000000E-01	 1.50000000E+00	 5.00000000E+00
	 5.00000000E-01	 1.50000000E+00	 5.00000000E+00
	 2.50000000E-01	 1.50000000E+00	 5.00000000E+00
	 5.00000000E-01	 1.50000000E+00	 5.50000000E+00
	 7.50000000E-01	 1.50000000E+00	 6.00000000E+00
	 5.00000000E-01	 1.50000000E+00	 6.00000000E+00
	 2.50000000E-01	 1.50000000E+00	 6.00000000E+00
	 5.00000000E-01	 1.50000000E+00	 6.50000000E+00
	 7.50000000E-01	 1.50000000E+00	 7.00000000E+00
	 5.00000000E-01	 1.50000000E+00	 7.00000000E+00
	 2.50000000E-01	 1.50000000E+00	 7.00000000E+00
	 5.00000000E-01	 1.50000000E+00	 7.50000000E+00
	 0.00000000E+00	 7.50000000E-01	 5.00000000E-01
	 0.00000000E+00	 1.12500000E+00	 1.00000000E+00
	 0.00000000E+00	 7.50000000E-01	 1.00000000E+00
	 0.00000000E+00	 3.75000000E-01	 1.00000000E+00
	 0.00000000E+00	 7.50000000E-01	 1.50000000E+00
	 0.00000000E+00	 1.12500000E+00	 2.00000000E+00
	 0.00000000E+00	 7.50000000E-01	 2.00000000E+00
	 0.00000000E+00	 3.75000000E-01	 2.00000000E+00
	 0.00000000E+00	 7.50000000E-01	 2.50000000E+00
	 0.00000000E+00	 1.12500000E+00	 3.00000000E+00
	 0.00000000E+00	 7.50000000E-01	 3.00000000E+00
	 0.00000000E+00	 3.75000000E-01	 3.00000000E+00
	 0.00000000E+00	 7.50000000E-01	 3.50000000E+00
	 0.00000000E+00	 1.12500000E+00	 4.00000000E+00
	 0.00000000E+00	 7.50000000E-01	 4.00000000E+00
	 0.00000000E+00	 3.75000000E-01	 4.00000000E+00
	 0.00000000E+00	 7.50000000E-01	 4.50000000E+00
	 0.00000000E+00	 1.12500000E+00	 5.00000000E+00
	 0.00000000E+00	 7.50000000E-01	 5.00000000E+00
	 0.00000000E+00	 3.75000000E-01	 5.00000000E+00
	 0.00000000E+00	 7.50000000E-01	 5.50000000E+00
	 0.00000000E+00	 1.12500000E+00	 6.00000000E+00
	 0.00000000E+00	 7.50000000E-01	 6.00000000E+00
	 0.00000000E+00	 3.75000000E-01	 6.00000000E+00
	 0.00000000E+00	 7.50000000E-01	 6.50000000E+00
	 0.00000000E+00	 1.12500000E+00	 7.00000000E+00
	 0.00000000E+00	 7.50000000E-01	 7.00000000E+00
	 0.00000000E+00	 3.75000000E-01	 7.00000000E+00
	 0.00000000E+00	 7.50000000E-01	 7.50000000E+00
	 5.00000000E-01	 7.50000000E-01	 5.00000000E-01
	 5.00000000E-01	 3.75000000E-01	 1.00000000E+00
	 2.50000000E-01	 7.50000000E-01	 1.00000000E+00
	 5.00000000E-01	 7.50000000E-01	 1.00000000E+00
	 7.50000000E-01	 7.50000000E-01	 1.00000000E+00
	 5.00000000E-01	 1.12500000E+00	 1.00000000E+00
	 5.00000000E-01	 7.50000000E-01	 1.50000000E+00
	 5.00000000E-01	 3.75000000E-01	 2.00000000E+00
	 2.50000000E-01	 7.50000000E-01	 2.00000000E+00
	 5.00000000E-01	 7.50000000E-01	 2.00000000E+00
	 7.50000000E-01	 7.50000000E-01	 2.00000000E+00
	 5.00000000E-01	 1.12500000E+00	 2.00000000E+00
	 5.00000000E-01	 7.50000000E-01	 2.50000000E+00
	 5.00000000E-01	 3.75000000E-01	 3.00000000E+00
	 2.50000000E-01	 7.50000000E-01	 3.00000000E+00
	 5.00000000E-01	 7.50000000E-01	 3.00000000E+00
	 7.50000000E-01	 7.50000000E-01	 3.00000000E+00
	 5.00000000E-01	 1.12500000E+00	 3.00000000E+00
	 5.00000000E-01	 7.50000000E-01	 3.50000000E+00
	 5.00000000E-01	 3.75000000E-01	 4.00000000E+00
	 2.50000000E-01	 7.50000000E-01	 4.00000000E+00
	 5.00000000E-01	 7.50000000E-01	 4.00000000E+00
	 7.50000000E-01	 7.50000000E-01	 4.00000000E+00
	 5.00000000E-01	 1.12500000E+00	 4.00000000E+00
	 5.00000000E-01	 7.50000000E-01	 4.50000000E+00
	 5.00000000E-01	 3.75000000E-01	 5.00000000E+00
	 2.50000000E-01	 7.50000000E-01	 5.00000000E+00
	 5.00000000E-01	 7.50000000E-01	 5.00000000E+00
	 7.50000000E-01	 7.50000000E-01	 5.00000000E+00
	 5.00000000E-01	 1.12500000E+00	 5.00000000E+00
	 5.00000000E-01	 7.50000000E-01	 5.50000000E+00
	 5.00000000E-01	 3.75000000E-01	 6.00000000E+00
	 2.50000000E-01	 7.50000000E-01	 6.00000000E+00
	 5.00000000E-01	 7.50000000E-01	 6.00000000E+00
	 7.50000000E-01	 7.50000000E-01	 6.00000000E+00
	 5.00000000E-01	 1.12500000E+00	 6.00000000E+00
	 5.00000000E-01	 7.50000000E-01	 6.50000000E+00
	 5.00000000E-01	 3.75000000E-01	 7.00000000E+00
	 2.50000000E-01	 7.50000000E-01	 7.00000000E+00
	 5.00000000E-01	 7.50000000E-01	 7.00000000E+00
	 7.50000000E-01	 7.50000000E-01	 7.00000000E+00
	 5.00000000E-01	 1.12500000E+00	 7.00000000E+00
	 5.00000000E-01	 7.50000000E-01	 7.50000000E+00

CELLS 32 672
	20 0 9 94 18 60 104 221 191 8 92 93 19 103 219 220 192 61 102 218 189 
	20 9 1 12 94 104 33 133 221 10 11 95 92 105 132 222 219 102 32 131 218 
	20 18 94 15 3 191 221 162 78 93 96 16 17 220 223 163 190 189 218 160 77 
	20 94 12 2 15 221 133 63 162 95 13 14 96 222 134 161 223 218 131 62 160 
	20 60 104 221 191 58 108 227 195 103 219 220 192 107 225 226 196 59 106 224 193 
	20 104 33 133 221 108 35 137 227 105 132 222 219 109 136 228 225 106 34 135 224 
	20 191 221 162 78 195 227 166 80 220 223 163 190 226 229 167 194 193 224 164 79 
	20 221 133 63 162 227 137 65 166 222 134 161 223 228 138 165 229 224 135 64 164 
	20 58 108 227 195 56 112 233 199 107 225 226 196 111 231 232 200 57 110 230 197 
	20 108 35 137 227 112 37 141 233 109 136 228 225 113 140 234 231 110 36 139 230 
	20 195 227 166 80 199 233 170 82 226 229 167 194 232 235 171 198 197 230 168 81 
	20 227 137 65 166 233 141 67 170 228 138 165 229 234 142 169 235 230 139 66 168 
	20 56 112 233 199 54 116 239 203 111 231 232 200 115 237 238 204 55 114 236 201 
	20 112 37 141 233 116 39 145 239 113 140 234 231 117 144 240 237 114 38 143 236 
	20 199 233 170 82 203 239 174 84 232 235 171 198 238 241 175 202 201 236 172 83 
	20 233 141 67 170 239 145 69 174 234 142 169 235 240 146 173 241 236 143 68 172 
	20 54 116 239 203 52 120 245 207 115 237 238 204 119 243 244 208 53 118 242 205 
	20 116 39 145 239 120 41 149 245 117 144 240 237 121 148 246 243 118 40 147 242 
	20 203 239 174 84 207 245 178 86 238 241 175 202 244 247 179 206 205 242 176 85 
	20 239 145 69 174 245 149 71 178 240 146 173 241 246 150 177 247 242 147 70 176 
	20 52 120 245 207 50 124 251 211 119 243 244 208 123 249 250 212 51 122 248 209 
	20 120 41 149 245 124 43 153 251 121 148 246 243 125 152 252 249 122 42 151 248 
	20 207 245 178 86 211 251 182 88 244 247 179 206 250 253 183 210 209 248 180 87 
	20 245 149 71 178 251 153 73 182 246 150 177 247 252 154 181 253 248 151 72 180 
	20 50 124 251 211 48 128 257 215 123 249 250 212 127 255 256 216 49 126 254 213 
	20 124 43 153 251 128 45 157 257 125 152 252 249 129 156 258 255 126 44 155 254 
	20 211 251 182 88 215 257 186 90 250 253 183 210 256 259 187 214 213 254 184 89 
	20 251 153 73 182 257 157 75 186 252 154 181 253 258 158 185 259 254 155 74 184 
	20 48 128 257 215 4 21 99 30 127 255 256 216 20 97 98 31 47 130 260 217 
	20 128 45 157 257 21 5 24 99 129 156 258 255 22 23 100 97 130 46 159 260 
	20 215 257 186 90 30 99 27 7 256 259 187 214 98 101 28 29 217 260 188 91 
	20 257 157 75 186 99 24 6 27 258 158 185 259 100 25 26 101 260 159 76 188 

CELL_TYPES 32
	25
	25
	25
	25
	25
	25
	25
	25
	25
	25
	25
	25
	25
	25
	25
	25
	25
	25
	25
	25
	25
	25
	25
	25
	25
	25
	25
	25
	25
	25
	25
	25

POINT_DATA 261
FIELD U 1
	U 3 261 double
		 0.00000000E+00	 0.00000000E+00	 0.00000000E+00
		 0.00000000E+00	 0.00000000E+00	 0.00000000E+00
		 0.00000000E+00	 0.00000000E+00	 0.00000000E+00
		 0.00000000E+00	 0.00000000E+00	 0.00000000E+00
		-6.48277000E+03	 4.11451000E+03	-1.18041000E+03
		-6.48277000E+03	-4.11451000E+03	 1.18041000E+03
		 7.36005000E+03	-4.26736000E+03	 7.08611000E+02
		 7.36005000E+03	 4.26736000E+03	-7.08611000E+02
		 0.00000000E+00	 0.00000000E+00	 0.00000000E+00
		 0.00000000E+00	 0.00000000E+00	 0.00000000E+00
		 0.00000000E+00	 0.00000000E+00	 0.00000000E+00
		 0.00000000E+00	 0.00000000E+00	 0.00000000E+00
		 0.00000000E+00	 0.00000000E+00	 0.00000000E+00
		 0.00000000E+00	 0.00000000E+00	 0.00000000E+00
		 0.00000000E+00	 0.00000000E+00	 0.00000000E+00
		 0.00000000E+00	 0.00000000E+00	 0.00000000E+00
		 0.00000000E+00	 0.00000000E+00	 0.00000000E+00
		 0.00000000E+00	 0.00000000E+00	 0.00000000E+00
		 0.00000000E+00	 0.00000000E+00	 0.00000000E+00
		 0.00000000E+00	 0.00000000E+00	 0.00000000E+00
		-6.48071000E+03	 2.05501000E+03	-5.86370000E+02
		-6.48336000E+03	 3.32458000E-09	 1.34514000E-09
		-6.48071000E+03	-2.05501000E+03	 5.86370000E+02
		-3.09785000E+03	-4.10976000E+03	 1.11002000E+03
		 3.96403000E+02	-4.13964000E+03	 9.46062000E+02
		 3.88380000E+03	-4.22502000E+03	 7.87183000E+02
		 7.32997000E+03	-2.11691000E+03	 3.44581000E+02
		 7.28592000E+03	 1.43450000E-09	-3.40970000E-09
		 7.32997000E+03	 2.11691000E+03	-3.44581000E+02
		 3.88380000E+03	 4.22502000E+03	-7.87183000E+02
		 3.96403000E+02	 4.13964000E+03	-9.46062000E+02
		-3.09785000E+03	 4.10976000E+03	-1.11002000E+03
		 1.61984000E+03	 9.61463000E+02	-4.41039000E+02
		 3.46061000E+03	 2.17540000E+03	-6.17137000E+02
		 5.18151000E+03	 3.18960000E+03	-7.31966000E+02
		 6.35210000E+03	 3.89605000E+03	-7.47344000E+02
		 6.96540000E+03	 4.25712000E+03	-6.77915000E+02
		 6.90581000E+03	 4.26079000E+03	-5.47903000E+02
		 6.20644000E+03	 3.89302000E+03	-3.54753000E+02
		 4.90952000E+03	 3.17762000E+03	-1.28210000E+02
		 3.18160000E+03	 2.19411000E+03	 1.30666000E+02
		 1.19287000E+03	 1.01903000E+03	 3.75478000E+02
		-8.47050000E+02	-2.33098000E+02	 6.17476000E+02
		-2.75227000E+03	-1.46284000E+03	 8.11316000E+02
		-4.36078000E+03	-2.55348000E+03	 9.74154000E+02
		-5.54824000E+03	-3.41557000E+03	 1.07632000E+03
		-6.22586000E+03	-3.95684000E+03	 1.14141000E+03
		-6.22586000E+03	 3.95684000E+03	-1.14141000E+03
		-5.54824000E+03	 3.41557000E+03	-1.07632000E+03
		-4.36078000E+03	 2.55348000E+03	-9.74154000E+02
		-2.75227000E+03	 1.46284000E+03	-8.11316000E+02
		-8.47050000E+02	 2.33098000E+02	-6.17476000E+02
		 1.19287000E+03	-1.01903000E+03	-3.75478000E+02
		 3.18160000E+03	-2.19411000E+03	-1.30666000E+02
		 4.90952000E+03	-3.17762000E+03	 1.28210000E+02
		 6.20644000E+03	-3.89302000E+03	 3.54753000E+02
		 6.90581000E+03	-4.26079000E+03	 5.47903000E+02
		 6.96540000E+03	-4.25712000E+03	 6.77915000E+02
		 6.35210000E+03	-3.89605000E+03	 7.47344000E+02
		 5.18151000E+03	-3.18960000E+03	 7.31966000E+02
		 3.46061000E+03	-2.17540000E+03	 6.17137000E+02
		 1.61984000E+03	-9.61463000E+02	 4.41039000E+02
		-1.58370000E+03	 1.08975000E+03	 2.89061000E+02
		-3.29224000E+03	 2.34535000E+03	 1.72292000E+02
		-4.82035000E+03	 3.39858000E+03	-5.41373000E+01
		-5.81784000E+03	 4.09379000E+03	-3.19747000E+02
		-6.35120000E+03	 4.41282000E+03	-5.60946000E+02
		-6.36030000E+03	 4.35099000E+03	-7.41172000E+02
		-5.88425000E+03	 3.91983000E+03	-8.50334000E+02
		-4.90783000E+03	 3.14242000E+03	-8.64727000E+02
		-3.51009000E+03	 2.09954000E+03	-8.07116000E+02
		-1.77083000E+03	 8.80564000E+02	-6.52531000E+02
		 1.75554000E+02	-4.07269000E+02	-4.40675000E+02
		 2.17151000E+03	-1.64670000E+03	-1.55229000E+02
		 4.03920000E+03	-2.74097000E+03	 1.47191000E+02
		 5.59557000E+03	-3.57392000E+03	 4.53809000E+02
		 6.69977000E+03	-4.11563000E+03	 6.65026000E+02
		-1.58370000E+03	-1.08975000E+03	-2.89061000E+02
		-3.29224000E+03	-2.34535000E+03	-1.72292000E+02
		-4.82035000E+03	-3.39858000E+03	 5.41373000E+01
		-5.81784000E+03	-4.09379000E+03	 3.19747000E+02
		-6.35120000E+03	-4.41282000E+03	 5.60946000E+02
		-6.36030000E+03	-4.35099000E+03	 7.41172000E+02
		-5.88425000E+03	-3.91983000E+03	 8.50334000E+02
		-4.90783000E+03	-3.14242000E+03	 8.64727000E+02
		-3.51009000E+03	-2.09954000E+03	 8.07116000E+02
		-1.77083000E+03	-8.80564000E+02	 6.52531000E+02
		 1.75554000E+02	 4.07269000E+02	 4.40675000E+02
		 2.17151000E+03	 1.64670000E+03	 1.55229000E+02
		 4.03920000E+03	 2.74097000E+03	-1.47191000E+02
		 5.59557000E+03	 3.57392000E+03	-4.53809000E+02
		 6.69977000E+03	 4.11563000E+03	-6.65026000E+02
		 0.00000000E+00	 0.00000000E+00	 0.00000000E+00
		 0.00000000E+00	 0.00000000E+00	 0.00000000E+00
		 0.00000000E+00	 0.00000000E+00	 0.00000000E+00
		 0.00000000E+00	 0.00000000E+00	 0.00000000E+00
		 0.00000000E+00	 0.00000000E+00	 0.00000000E+00
		-3.06088000E+03	 2.84922000E-09	 0.00000000E+00
		 3.78314000E+02	 2.03631000E+03	-4.69670000E+02
		 3.79793000E+02	 2.35536000E-09	-1.03591000E-09
		 3.78314000E+02	-2.03631000E+03	 4.69670000E+02
		 3.90498000E+03	 1.88197000E-09	-2.22190000E-09
		 1.57899000E+03	 0.00000000E+00	 0.00000000E+00
		 3.46691000E+03	-1.09882000E+03	 8.76675000E+01
		 3.49890000E+03	 1.32059000E-09	 0.00000000E+00
		 3.46691000E+03	 1.09882000E+03	-8.76675000E+01
		 5.12001000E+03	 1.90687000E-09	 0.00000000E+00
		 6.35889000E+03	-1.95336000E+03	 3.06339000E+02
		 6.35027000E+03	 2.10525000E-09	 0.00000000E+00
		 6.35889000E+03	 1.95336000E+03	-3.06339000E+02
		 6.93998000E+03	 1.90971000E-09	-1.15051000E-09
		 6.90897000E+03	-2.12227000E+03	 3.00398000E+02
		 6.90119000E+03	 1.30069000E-09	-1.54492000E-09
		 6.90897000E+03	 2.12227000E+03	-3.00398000E+02
		 6.18492000E+03	 0.00000000E+00	-1.65596000E-09
		 4.90918000E+03	-1.55976000E+03	 1.94472000E+02
		 4.90006000E+03	 0.00000000E+00	-1.46360000E-09
		 4.90918000E+03	 1.55976000E+03	-1.94472000E+02
		 3.16605000E+03	-1.33315000E-09	 0.00000000E+00
		 1.18600000E+03	-4.66790000E+02	-7.26158000E+00
		 1.18199000E+03	-1.76510000E-09	 0.00000000E+00
		 1.18600000E+03	 4.66790000E+02	 7.26158000E+00
		-8.56231000E+02	-1.73850000E-09	 0.00000000E+00
		-2.76165000E+03	 7.71289000E+02	-2.35871000E+02
		-2.75929000E+03	-1.22122000E-09	 1.06911000E-09
		-2.76165000E+03	-7.71289000E+02	 2.35871000E+02
		-4.35385000E+03	 0.00000000E+00	 1.49612000E-09
		-5.55189000E+03	 1.72861000E+03	-4.42065000E+02
		-5.53842000E+03	 0.00000000E+00	 1.67802000E-09
		-5.55189000E+03	-1.72861000E+03	 4.42065000E+02
		-6.21649000E+03	 2.11401000E-09	 1.56979000E-09
		 4.99607000E+01	 1.22128000E+03	-1.09582000E+02
		 1.80501000E+03	 2.17282000E+03	-8.25328000E+02
		 1.27520000E+02	 2.20928000E+03	-2.54323000E+02
		-1.57877000E+03	 2.30131000E+03	 3.65337000E+02
		 2.40530000E+02	 3.21442000E+03	-4.05184000E+02
		 3.35265000E+03	 3.88256000E+03	-7.84487000E+02
		 3.26503000E+02	 3.92422000E+03	-5.36028000E+02
		-2.72707000E+03	 4.02475000E+03	-2.82734000E+02
		 3.67952000E+02	 4.26646000E+03	-6.14401000E+02
		 3.63174000E+03	 4.24936000E+03	-5.27080000E+02
		 3.26324000E+02	 4.23932000E+03	-6.30451000E+02
		-3.00802000E+03	 4.28066000E+03	-7.46342000E+02
		 2.13715000E+02	 3.83902000E+03	-5.81369000E+02
		 2.49534000E+03	 3.19094000E+03	-3.76903000E+01
		 5.11139000E+01	 3.11471000E+03	-4.74866000E+02
		-2.41772000E+03	 3.07293000E+03	-9.33408000E+02
		-1.16393000E+02	 2.11332000E+03	-3.17747000E+02
		 4.87458000E+02	 1.05999000E+03	 4.90871000E+02
		-2.45659000E+02	 9.39210000E+02	-1.23550000E+02
		-9.98624000E+02	 8.24260000E+02	-7.56835000E+02
		-3.00626000E+02	-3.13384000E+02	 9.67555000E+01
		-1.50102000E+03	-1.40780000E+03	 9.11578000E+02
		-2.62298000E+02	-1.53016000E+03	 3.26050000E+02
		 9.62439000E+02	-1.67411000E+03	-2.66072000E+02
		-1.48570000E+02	-2.60020000E+03	 5.55031000E+02
		-2.75283000E+03	-3.36729000E+03	 1.11521000E+03
		 2.62182000E+01	-3.43433000E+03	 7.46609000E+02
		 2.81264000E+03	-3.55558000E+03	 3.86138000E+02
		 2.20790000E+02	-4.01852000E+03	 9.09792000E+02
		-1.60424000E+03	 0.00000000E+00	 0.00000000E+00
		-3.33510000E+03	 1.16465000E+03	-1.69006000E+02
		-3.37394000E+03	 1.34543000E-09	 0.00000000E+00
		-3.33510000E+03	-1.16465000E+03	 1.69006000E+02
		-4.80442000E+03	 2.03318000E-09	 0.00000000E+00
		-5.85301000E+03	 2.02745000E+03	-2.27678000E+02
		-5.85274000E+03	 2.41380000E-09	 0.00000000E+00
		-5.85301000E+03	-2.02745000E+03	 2.27678000E+02
		-6.35898000E+03	 2.41698000E-09	 0.00000000E+00
		-6.38638000E+03	 2.17363000E+03	-3.38779000E+02
		-6.38541000E+03	 2.02300000E-09	 1.04365000E-09
		-6.38638000E+03	-2.17363000E+03	 3.38779000E+02
		-5.88890000E+03	 1.26829000E-09	 1.40062000E-09
		-4.92731000E+03	 1.59214000E+03	-2.93776000E+02
		-4.92341000E+03	 0.00000000E+00	 1.52249000E-09
		-4.92731000E+03	-1.59214000E+03	 2.93776000E+02
		-3.51824000E+03	 0.00000000E+00	 1.33605000E-09
		-1.78307000E+03	 4.82111000E+02	-1.33850000E+02
		-1.78360000E+03	-1.39801000E-09	 0.00000000E+00
		-1.78307000E+03	-4.82111000E+02	 1.33850000E+02
		 1.65895000E+02	-1.83354000E-09	 0.00000000E+00
		 2.16956000E+03	-7.75088000E+02	 1.05939000E+02
		 2.16327000E+03	-1.84309000E-09	 0.00000000E+00
		 2.16956000E+03	 7.75088000E+02	-1.05939000E+02
		 4.03365000E+03	-1.44109000E-09	-1.62754000E-09
		 5.60517000E+03	-1.75660000E+03	 3.33062000E+02
		 5.60131000E+03	 0.00000000E+00	-2.41562000E-09
		 5.60517000E+03	 1.75660000E+03	-3.33062000E+02
		 6.66096000E+03	 0.00000000E+00	-2.99860000E-09
		 4.99607000E+01	-1.22128000E+03	 1.09582000E+02
		-1.57877000E+03	-2.30131000E+03	-3.65337000E+02
		 1.27520000E+02	-2.20928000E+03	 2.54323000E+02
		 1.80501000E+03	-2.17282000E+03	 8.25328000E+02
		 2.40530000E+02	-3.21442000E+03	 4.05184000E+02
		-2.72707000E+03	-4.02475000E+03	 2.82734000E+02
		 3.26503000E+02	-3.92422000E+03	 5.36028000E+02
		 3.35265000E+03	-3.88256000E+03	 7.84487000E+02
		 3.67952000E+02	-4.26646000E+03	 6.14401000E+02
		-3.00802000E+03	-4.28066000E+03	 7.46342000E+02
		 3.26324000E+02	-4.23932000E+03	 6.30451000E+02
		 3.63174000E+03	-4.24936000E+03	 5.27080000E+02
		 2.13715000E+02	-3.83902000E+03	 5.81369000E+02
		-2.41772000E+03	-3.07293000E+03	 9.33408000E+02
		 5.11139000E+01	-3.11471000E+03	 4.74866000E+02
		 2.49534000E+03	-3.19094000E+03	 3.76903000E+01
		-1.16393000E+02	-2.11332000E+03	 3.17747000E+02
		-9.98624000E+02	-8.24260000E+02	 7.56835000E+02
		-2.45659000E+02	-9.39210000E+02	 1.23550000E+02
		 4.87458000E+02	-1.05999000E+03	-4.90871000E+02
		-3.00626000E+02	 3.13384000E+02	-9.67555000E+01
		 9.62439000E+02	 1.67411000E+03	 2.66072000E+02
		-2.62298000E+02	 1.53016000E+03	-3.26050000E+02
		-1.50102000E+03	 1.40780000E+03	-9.11578000E+02
		-1.48570000E+02	 2.60020000E+03	-5.55031000E+02
		 2.81264000E+03	 3.55558000E+03	-3.86138000E+02
		 2.62182000E+01	 3.43433000E+03	-7.46609000E+02
		-2.75283000E+03	 3.36729000E+03	-1.11521000E+03
		 2.20790000E+02	 4.01852000E+03	-9.09792000E+02
		 2.42642000E+01	 0.00000000E+00	 0.00000000E+00
		 1.81499000E+03	 1.34952000E-09	 0.00000000E+00
		 1.10357000E+02	-1.11007000E+03	 1.26745000E+02
		 1.07868000E+02	 1.39087000E-09	 0.00000000E+00
		 1.10357000E+02	 1.11007000E+03	-1.26745000E+02
		-1.61656000E+03	 1.37192000E-09	 0.00000000E+00
		 2.16185000E+02	 2.02203000E-09	 0.00000000E+00
		 3.35440000E+03	 2.27294000E-09	 0.00000000E+00
		 3.13468000E+02	-1.94644000E+03	 2.64031000E+02
		 3.09826000E+02	 2.38242000E-09	 0.00000000E+00
		 3.13468000E+02	 1.94644000E+03	-2.64031000E+02
		-2.76991000E+03	 2.44881000E-09	 0.00000000E+00
		 3.51289000E+02	 2.27095000E-09	 0.00000000E+00
		 3.63077000E+03	 1.55535000E-09	 0.00000000E+00
		 3.16504000E+02	-2.10506000E+03	 3.12639000E+02
		 3.13689000E+02	 1.74794000E-09	 0.00000000E+00
		 3.16504000E+02	 2.10506000E+03	-3.12639000E+02
		-3.03878000E+03	 1.91073000E-09	 0.00000000E+00
		 2.01184000E+02	 0.00000000E+00	 0.00000000E+00
		 2.49015000E+03	 0.00000000E+00	 0.00000000E+00
		 4.23056000E+01	-1.54500000E+03	 2.36420000E+02
		 3.98058000E+01	 0.00000000E+00	 0.00000000E+00
		 4.23056000E+01	 1.54500000E+03	-2.36420000E+02
		-2.44278000E+03	 0.00000000E+00	 0.00000000E+00
		-1.27636000E+02	-1.04043000E-09	 0.00000000E+00
		 4.75914000E+02	-1.74873000E-09	 0.00000000E+00
		-2.54672000E+02	-4.65035000E+02	 6.11037000E+01
		-2.57308000E+02	-1.67802000E-09	 0.00000000E+00
		-2.54672000E+02	 4.65035000E+02	-6.11037000E+01
		-1.01564000E+03	-1.57274000E-09	 0.00000000E+00
		-3.09019000E+02	-1.88447000E-09	 0.00000000E+00
		-1.51415000E+03	-1.46088000E-09	 0.00000000E+00
		-2.69340000E+02	 7.58172000E+02	-1.64379000E+02
		-2.71945000E+02	-1.64334000E-09	 0.00000000E+00
		-2.69340000E+02	-7.58172000E+02	 1.64379000E+02
		 9.57599000E+02	-1.76601000E-09	 0.00000000E+00
		-1.46219000E+02	 0.00000000E+00	 0.00000000E+00
		-2.76591000E+03	 0.00000000E+00	 0.00000000E+00
		 3.12009000E+01	 1.71050000E+03	-3.71884000E+02
		 3.06322000E+01	 0.00000000E+00	 0.00000000E+00
		 3.12009000E+01	-1.71050000E+03	 3.71884000E+02
		 2.81376000E+03	 0.00000000E+00	-1.35242000E-09
		 2.13749000E+02	 1.21541000E-09	 0.00000000E+00
