# vtk DataFile Version 3.0

ASCII
DATASET UNSTRUCTURED_GRID

POINTS 261 double
	 0.00000000E+00	 0.00000000E+00	 0.00000000E+00
	 1.00000000E+00	 0.00000000E+00	 0.00000000E+00
	 1.00000000E+00	 1.00000000E+00	 0.00000000E+00
	 0.00000000E+00	 1.00000000E+00	 0.00000000E+00
	 0.00000000E+00	 0.00000000E+00	 8.00000000E+00
	 1.00000000E+00	 0.00000000E+00	 8.00000000E+00
	 1.00000000E+00	 1.00000000E+00	 8.00000000E+00
	 0.00000000E+00	 1.00000000E+00	 8.00000000E+00
	 2.50000000E-01	 0.00000000E+00	 0.00000000E+00
	 5.00000000E-01	 0.00000000E+00	 0.00000000E+00
	 7.50000000E-01	 0.00000000E+00	 0.00000000E+00
	 1.00000000E+00	 2.50000000E-01	 0.00000000E+00
	 1.00000000E+00	 5.00000000E-01	 0.00000000E+00
	 1.00000000E+00	 7.50000000E-01	 0.00000000E+00
	 7.50000000E-01	 1.00000000E+00	 0.00000000E+00
	 5.00000000E-01	 1.00000000E+00	 0.00000000E+00
	 2.50000000E-01	 1.00000000E+00	 0.00000000E+00
	 0.00000000E+00	 7.50000000E-01	 0.00000000E+00
	 0.00000000E+00	 5.00000000E-01	 0.00000000E+00
	 0.00000000E+00	 2.50000000E-01	 0.00000000E+00
	 2.50000000E-01	 0.00000000E+00	 8.00000000E+00
	 5.00000000E-01	 0.00000000E+00	 8.00000000E+00
	 7.50000000E-01	 0.00000000E+00	 8.00000000E+00
	 1.00000000E+00	 2.50000000E-01	 8.00000000E+00
	 1.00000000E+00	 5.00000000E-01	 8.00000000E+00
	 1.00000000E+00	 7.50000000E-01	 8.00000000E+00
	 7.50000000E-01	 1.00000000E+00	 8.00000000E+00
	 5.00000000E-01	 1.00000000E+00	 8.00000000E+00
	 2.50000000E-01	 1.00000000E+00	 8.00000000E+00
	 0.00000000E+00	 7.50000000E-01	 8.00000000E+00
	 0.00000000E+00	 5.00000000E-01	 8.00000000E+00
	 0.00000000E+00	 2.50000000E-01	 8.00000000E+00
	 1.00000000E+00	 0.00000000E+00	 5.00000000E-01
	 1.00000000E+00	 0.00000000E+00	 1.00000000E+00
	 1.00000000E+00	 0.00000000E+00	 1.50000000E+00
	 1.00000000E+00	 0.00000000E+00	 2.00000000E+00
	 1.00000000E+00	 0.00000000E+00	 2.50000000E+00
	 1.00000000E+00	 0.00000000E+00	 3.00000000E+00
	 1.00000000E+00	 0.00000000E+00	 3.50000000E+00
	 1.00000000E+00	 0.00000000E+00	 4.00000000E+00
	 1.00000000E+00	 0.00000000E+00	 4.50000000E+00
	 1.00000000E+00	 0.00000000E+00	 5.00000000E+00
	 1.00000000E+00	 0.00000000E+00	 5.50000000E+00
	 1.00000000E+00	 0.00000000E+00	 6.00000000E+00
	 1.00000000E+00	 0.00000000E+00	 6.50000000E+00
	 1.00000000E+00	 0.00000000E+00	 7.00000000E+00
	 1.00000000E+00	 0.00000000E+00	 7.50000000E+00
	 0.00000000E+00	 0.00000000E+00	 7.50000000E+00
	 0.00000000E+00	 0.00000000E+00	 7.00000000E+00
	 0.00000000E+00	 0.00000000E+00	 6.50000000E+00
	 0.00000000E+00	 0.00000000E+00	 6.00000000E+00
	 0.00000000E+00	 0.00000000E+00	 5.50000000E+00
	 0.00000000E+00	 0.00000000E+00	 5.00000000E+00
	 0.00000000E+00	 0.00000000E+00	 4.50000000E+00
	 0.00000000E+00	 0.00000000E+00	 4.00000000E+00
	 0.00000000E+00	 0.00000000E+00	 3.50000000E+00
	 0.00000000E+00	 0.00000000E+00	 3.00000000E+00
	 0.00000000E+00	 0.00000000E+00	 2.50000000E+00
	 0.00000000E+00	 0.00000000E+00	 2.00000000E+00
	 0.00000000E+00	 0.00000000E+00	 1.50000000E+00
	 0.00000000E+00	 0.00000000E+00	 1.00000000E+00
	 0.00000000E+00	 0.00000000E+00	 5.00000000E-01
	 1.00000000E+00	 1.00000000E+00	 5.00000000E-01
	 1.00000000E+00	 1.00000000E+00	 1.00000000E+00
	 1.00000000E+00	 1.00000000E+00	 1.50000000E+00
	 1.00000000E+00	 1.00000000E+00	 2.00000000E+00
	 1.00000000E+00	 1.00000000E+00	 2.50000000E+00
	 1.00000000E+00	 1.00000000E+00	 3.00000000E+00
	 1.00000000E+00	 1.00000000E+00	 3.50000000E+00
	 1.00000000E+00	 1.00000000E+00	 4.00000000E+00
	 1.00000000E+00	 1.00000000E+00	 4.50000000E+00
	 1.00000000E+00	 1.00000000E+00	 5.00000000E+00
	 1.00000000E+00	 1.00000000E+00	 5.50000000E+00
	 1.00000000E+00	 1.00000000E+00	 6.00000000E+00
	 1.00000000E+00	 1.00000000E+00	 6.50000000E+00
	 1.00000000E+00	 1.00000000E+00	 7.00000000E+00
	 1.00000000E+00	 1.00000000E+00	 7.50000000E+00
	 0.00000000E+00	 1.00000000E+00	 5.00000000E-01
	 0.00000000E+00	 1.00000000E+00	 1.00000000E+00
	 0.00000000E+00	 1.00000000E+00	 1.50000000E+00
	 0.00000000E+00	 1.00000000E+00	 2.00000000E+00
	 0.00000000E+00	 1.00000000E+00	 2.50000000E+00
	 0.00000000E+00	 1.00000000E+00	 3.00000000E+00
	 0.00000000E+00	 1.00000000E+00	 3.50000000E+00
	 0.00000000E+00	 1.00000000E+00	 4.00000000E+00
	 0.00000000E+00	 1.00000000E+00	 4.50000000E+00
	 0.00000000E+00	 1.00000000E+00	 5.00000000E+00
	 0.00000000E+00	 1.00000000E+00	 5.50000000E+00
	 0.00000000E+00	 1.00000000E+00	 6.00000000E+00
	 0.00000000E+00	 1.00000000E+00	 6.50000000E+00
	 0.00000000E+00	 1.00000000E+00	 7.00000000E+00
	 0.00000000E+00	 1.00000000E+00	 7.50000000E+00
	 5.00000000E-01	 2.50000000E-01	 0.00000000E+00
	 2.50000000E-01	 5.00000000E-01	 0.00000000E+00
	 5.00000000E-01	 5.00000000E-01	 0.00000000E+00
	 7.50000000E-01	 5.00000000E-01	 0.00000000E+00
	 5.00000000E-01	 7.50000000E-01	 0.00000000E+00
	 5.00000000E-01	 2.50000000E-01	 8.00000000E+00
	 2.50000000E-01	 5.00000000E-01	 8.00000000E+00
	 5.00000000E-01	 5.00000000E-01	 8.00000000E+00
	 7.50000000E-01	 5.00000000E-01	 8.00000000E+00
	 5.00000000E-01	 7.50000000E-01	 8.00000000E+00
	 5.00000000E-01	 0.00000000E+00	 5.00000000E-01
	 2.50000000E-01	 0.00000000E+00	 1.00000000E+00
	 5.00000000E-01	 0.00000000E+00	 1.00000000E+00
	 7.50000000E-01	 0.00000000E+00	 1.00000000E+00
	 5.00000000E-01	 0.00000000E+00	 1.50000000E+00
	 2.50000000E-01	 0.00000000E+00	 2.00000000E+00
	 5.00000000E-01	 0.00000000E+00	 2.00000000E+00
	 7.50000000E-01	 0.00000000E+00	 2.00000000E+00
	 5.00000000E-01	 0.00000000E+00	 2.50000000E+00
	 2.50000000E-01	 0.00000000E+00	 3.00000000E+00
	 5.00000000E-01	 0.00000000E+00	 3.00000000E+00
	 7.50000000E-01	 0.00000000E+00	 3.00000000E+00
	 5.00000000E-01	 0.00000000E+00	 3.50000000E+00
	 2.50000000E-01	 0.00000000E+00	 4.00000000E+00
	 5.00000000E-01	 0.00000000E+00	 4.00000000E+00
	 7.50000000E-01	 0.00000000E+00	 4.00000000E+00
	 5.00000000E-01	 0.00000000E+00	 4.50000000E+00
	 2.50000000E-01	 0.00000000E+00	 5.00000000E+00
	 5.00000000E-01	 0.00000000E+00	 5.00000000E+00
	 7.50000000E-01	 0.00000000E+00	 5.00000000E+00
	 5.00000000E-01	 0.00000000E+00	 5.50000000E+00
	 2.50000000E-01	 0.00000000E+00	 6.00000000E+00
	 5.00000000E-01	 0.00000000E+00	 6.00000000E+00
	 7.50000000E-01	 0.00000000E+00	 6.00000000E+00
	 5.00000000E-01	 0.00000000E+00	 6.50000000E+00
	 2.50000000E-01	 0.00000000E+00	 7.00000000E+00
	 5.00000000E-01	 0.00000000E+00	 7.00000000E+00
	 7.50000000E-01	 0.00000000E+00	 7.00000000E+00
	 5.00000000E-01	 0.00000000E+00	 7.50000000E+00
	 1.00000000E+00	 5.00000000E-01	 5.00000000E-01
	 1.00000000E+00	 2.50000000E-01	 1.00000000E+00
	 1.00000000E+00	 5.00000000E-01	 1.00000000E+00
	 1.00000000E+00	 7.50000000E-01	 1.00000000E+00
	 1.00000000E+00	 5.00000000E-01	 1.50000000E+00
	 1.00000000E+00	 2.50000000E-01	 2.00000000E+00
	 1.00000000E+00	 5.00000000E-01	 2.00000000E+00
	 1.00000000E+00	 7.50000000E-01	 2.00000000E+00
	 1.00000000E+00	 5.00000000E-01	 2.50000000E+00
	 1.00000000E+00	 2.50000000E-01	 3.00000000E+00
	 1.00000000E+00	 5.00000000E-01	 3.00000000E+00
	 1.00000000E+00	 7.50000000E-01	 3.00000000E+00
	 1.00000000E+00	 5.00000000E-01	 3.50000000E+00
	 1.00000000E+00	 2.50000000E-01	 4.00000000E+00
	 1.00000000E+00	 5.00000000E-01	 4.00000000E+00
	 1.00000000E+00	 7.50000000E-01	 4.00000000E+00
	 1.00000000E+00	 5.00000000E-01	 4.50000000E+00
	 1.00000000E+00	 2.50000000E-01	 5.00000000E+00
	 1.00000000E+00	 5.00000000E-01	 5.00000000E+00
	 1.00000000E+00	 7.50000000E-01	 5.00000000E+00
	 1.00000000E+00	 5.00000000E-01	 5.50000000E+00
	 1.00000000E+00	 2.50000000E-01	 6.00000000E+00
	 1.00000000E+00	 5.00000000E-01	 6.00000000E+00
	 1.00000000E+00	 7.50000000E-01	 6.00000000E+00
	 1.00000000E+00	 5.00000000E-01	 6.50000000E+00
	 1.00000000E+00	 2.50000000E-01	 7.00000000E+00
	 1.00000000E+00	 5.00000000E-01	 7.00000000E+00
	 1.00000000E+00	 7.50000000E-01	 7.00000000E+00
	 1.00000000E+00	 5.00000000E-01	 7.50000000E+00
	 5.00000000E-01	 1.00000000E+00	 5.00000000E-01
	 7.50000000E-01	 1.00000000E+00	 1.00000000E+00
	 5.00000000E-01	 1.00000000E+00	 1.00000000E+00
	 2.50000000E-01	 1.00000000E+00	 1.00000000E+00
	 5.00000000E-01	 1.00000000E+00	 1.50000000E+00
	 7.50000000E-01	 1.00000000E+00	 2.00000000E+00
	 5.00000000E-01	 1.00000000E+00	 2.00000000E+00
	 2.50000000E-01	 1.00000000E+00	 2.00000000E+00
	 5.00000000E-01	 1.00000000E+00	 2.50000000E+00
	 7.50000000E-01	 1.00000000E+00	 3.00000000E+00
	 5.00000000E-01	 1.00000000E+00	 3.00000000E+00
	 2.50000000E-01	 1.00000000E+00	 3.00000000E+00
	 5.00000000E-01	 1.00000000E+00	 3.50000000E+00
	 7.50000000E-01	 1.00000000E+00	 4.00000000E+00
	 5.00000000E-01	 1.00000000E+00	 4.00000000E+00
	 2.50000000E-01	 1.00000000E+00	 4.00000000E+00
	 5.00000000E-01	 1.00000000E+00	 4.50000000E+00
	 7.50000000E-01	 1.00000000E+00	 5.00000000E+00
	 5.00000000E-01	 1.00000000E+00	 5.00000000E+00
	 2.50000000E-01	 1.00000000E+00	 5.00000000E+00
	 5.00000000E-01	 1.00000000E+00	 5.50000000E+00
	 7.50000000E-01	 1.00000000E+00	 6.00000000E+00
	 5.00000000E-01	 1.00000000E+00	 6.00000000E+00
	 2.50000000E-01	 1.00000000E+00	 6.00000000E+00
	 5.00000000E-01	 1.00000000E+00	 6.50000000E+00
	 7.50000000E-01	 1.00000000E+00	 7.00000000E+00
	 5.00000000E-01	 1.00000000E+00	 7.00000000E+00
	 2.50000000E-01	 1.00000000E+00	 7.00000000E+00
	 5.00000000E-01	 1.00000000E+00	 7.50000000E+00
	 0.00000000E+00	 5.00000000E-01	 5.00000000E-01
	 0.00000000E+00	 7.50000000E-01	 1.00000000E+00
	 0.00000000E+00	 5.00000000E-01	 1.00000000E+00
	 0.00000000E+00	 2.50000000E-01	 1.00000000E+00
	 0.00000000E+00	 5.00000000E-01	 1.50000000E+00
	 0.00000000E+00	 7.50000000E-01	 2.00000000E+00
	 0.00000000E+00	 5.00000000E-01	 2.00000000E+00
	 0.00000000E+00	 2.50000000E-01	 2.00000000E+00
	 0.00000000E+00	 5.00000000E-01	 2.50000000E+00
	 0.00000000E+00	 7.50000000E-01	 3.00000000E+00
	 0.00000000E+00	 5.00000000E-01	 3.00000000E+00
	 0.00000000E+00	 2.50000000E-01	 3.00000000E+00
	 0.00000000E+00	 5.00000000E-01	 3.50000000E+00
	 0.00000000E+00	 7.50000000E-01	 4.00000000E+00
	 0.00000000E+00	 5.00000000E-01	 4.00000000E+00
	 0.00000000E+00	 2.50000000E-01	 4.00000000E+00
	 0.00000000E+00	 5.00000000E-01	 4.50000000E+00
	 0.00000000E+00	 7.50000000E-01	 5.00000000E+00
	 0.00000000E+00	 5.00000000E-01	 5.00000000E+00
	 0.00000000E+00	 2.50000000E-01	 5.00000000E+00
	 0.00000000E+00	 5.00000000E-01	 5.50000000E+00
	 0.00000000E+00	 7.50000000E-01	 6.00000000E+00
	 0.00000000E+00	 5.00000000E-01	 6.00000000E+00
	 0.00000000E+00	 2.50000000E-01	 6.00000000E+00
	 0.00000000E+00	 5.00000000E-01	 6.50000000E+00
	 0.00000000E+00	 7.50000000E-01	 7.00000000E+00
	 0.00000000E+00	 5.00000000E-01	 7.00000000E+00
	 0.00000000E+00	 2.50000000E-01	 7.00000000E+00
	 0.00000000E+00	 5.00000000E-01	 7.50000000E+00
	 5.00000000E-01	 5.00000000E-01	 5.00000000E-01
	 5.00000000E-01	 2.50000000E-01	 1.00000000E+00
	 2.50000000E-01	 5.00000000E-01	 1.00000000E+00
	 5.00000000E-01	 5.00000000E-01	 1.00000000E+00
	 7.50000000E-01	 5.00000000E-01	 1.00000000E+00
	 5.00000000E-01	 7.50000000E-01	 1.00000000E+00
	 5.00000000E-01	 5.00000000E-01	 1.50000000E+00
	 5.00000000E-01	 2.50000000E-01	 2.00000000E+00
	 2.50000000E-01	 5.00000000E-01	 2.00000000E+00
	 5.00000000E-01	 5.00000000E-01	 2.00000000E+00
	 7.50000000E-01	 5.00000000E-01	 2.00000000E+00
	 5.00000000E-01	 7.50000000E-01	 2.00000000E+00
	 5.00000000E-01	 5.00000000E-01	 2.50000000E+00
	 5.00000000E-01	 2.50000000E-01	 3.00000000E+00
	 2.50000000E-01	 5.00000000E-01	 3.00000000E+00
	 5.00000000E-01	 5.00000000E-01	 3.00000000E+00
	 7.50000000E-01	 5.00000000E-01	 3.00000000E+00
	 5.00000000E-01	 7.50000000E-01	 3.00000000E+00
	 5.00000000E-01	 5.00000000E-01	 3.50000000E+00
	 5.00000000E-01	 2.50000000E-01	 4.00000000E+00
	 2.50000000E-01	 5.00000000E-01	 4.00000000E+00
	 5.00000000E-01	 5.00000000E-01	 4.00000000E+00
	 7.50000000E-01	 5.00000000E-01	 4.00000000E+00
	 5.00000000E-01	 7.50000000E-01	 4.00000000E+00
	 5.00000000E-01	 5.00000000E-01	 4.50000000E+00
	 5.00000000E-01	 2.50000000E-01	 5.00000000E+00
	 2.50000000E-01	 5.00000000E-01	 5.00000000E+00
	 5.00000000E-01	 5.00000000E-01	 5.00000000E+00
	 7.50000000E-01	 5.00000000E-01	 5.00000000E+00
	 5.00000000E-01	 7.50000000E-01	 5.00000000E+00
	 5.00000000E-01	 5.00000000E-01	 5.50000000E+00
	 5.00000000E-01	 2.50000000E-01	 6.00000000E+00
	 2.50000000E-01	 5.00000000E-01	 6.00000000E+00
	 5.00000000E-01	 5.00000000E-01	 6.00000000E+00
	 7.50000000E-01	 5.00000000E-01	 6.00000000E+00
	 5.00000000E-01	 7.50000000E-01	 6.00000000E+00
	 5.00000000E-01	 5.00000000E-01	 6.50000000E+00
	 5.00000000E-01	 2.50000000E-01	 7.00000000E+00
	 2.50000000E-01	 5.00000000E-01	 7.00000000E+00
	 5.00000000E-01	 5.00000000E-01	 7.00000000E+00
	 7.50000000E-01	 5.00000000E-01	 7.00000000E+00
	 5.00000000E-01	 7.50000000E-01	 7.00000000E+00
	 5.00000000E-01	 5.00000000E-01	 7.50000000E+00

CELLS 32 672
	20 0 9 94 18 60 104 221 191 8 92 93 19 103 219 220 192 61 102 218 189 
	20 9 1 12 94 104 33 133 221 10 11 95 92 105 132 222 219 102 32 131 218 
	20 18 94 15 3 191 221 162 78 93 96 16 17 220 223 163 190 189 218 160 77 
	20 94 12 2 15 221 133 63 162 95 13 14 96 222 134 161 223 218 131 62 160 
	20 60 104 221 191 58 108 227 195 103 219 220 192 107 225 226 196 59 106 224 193 
	20 104 33 133 221 108 35 137 227 105 132 222 219 109 136 228 225 106 34 135 224 
	20 191 221 162 78 195 227 166 80 220 223 163 190 226 229 167 194 193 224 164 79 
	20 221 133 63 162 227 137 65 166 222 134 161 223 228 138 165 229 224 135 64 164 
	20 58 108 227 195 56 112 233 199 107 225 226 196 111 231 232 200 57 110 230 197 
	20 108 35 137 227 112 37 141 233 109 136 228 225 113 140 234 231 110 36 139 230 
	20 195 227 166 80 199 233 170 82 226 229 167 194 232 235 171 198 197 230 168 81 
	20 227 137 65 166 233 141 67 170 228 138 165 229 234 142 169 235 230 139 66 168 
	20 56 112 233 199 54 116 239 203 111 231 232 200 115 237 238 204 55 114 236 201 
	20 112 37 141 233 116 39 145 239 113 140 234 231 117 144 240 237 114 38 143 236 
	20 199 233 170 82 203 239 174 84 232 235 171 198 238 241 175 202 201 236 172 83 
	20 233 141 67 170 239 145 69 174 234 142 169 235 240 146 173 241 236 143 68 172 
	20 54 116 239 203 52 120 245 207 115 237 238 204 119 243 244 208 53 118 242 205 
	20 116 39 145 239 120 41 149 245 117 144 240 237 121 148 246 243 118 40 147 242 
	20 203 239 174 84 207 245 178 86 238 241 175 202 244 247 179 206 205 242 176 85 
	20 239 145 69 174 245 149 71 178 240 146 173 241 246 150 177 247 242 147 70 176 
	20 52 120 245 207 50 124 251 211 119 243 244 208 123 249 250 212 51 122 248 209 
	20 120 41 149 245 124 43 153 251 121 148 246 243 125 152 252 249 122 42 151 248 
	20 207 245 178 86 211 251 182 88 244 247 179 206 250 253 183 210 209 248 180 87 
	20 245 149 71 178 251 153 73 182 246 150 177 247 252 154 181 253 248 151 72 180 
	20 50 124 251 211 48 128 257 215 123 249 250 212 127 255 256 216 49 126 254 213 
	20 124 43 153 251 128 45 157 257 125 152 252 249 129 156 258 255 126 44 155 254 
	20 211 251 182 88 215 257 186 90 250 253 183 210 256 259 187 214 213 254 184 89 
	20 251 153 73 182 257 157 75 186 252 154 181 253 258 158 185 259 254 155 74 184 
	20 48 128 257 215 4 21 99 30 127 255 256 216 20 97 98 31 47 130 260 217 
	20 128 45 157 257 21 5 24 99 129 156 258 255 22 23 100 97 130 46 159 260 
	20 215 257 186 90 30 99 27 7 256 259 187 214 98 101 28 29 217 260 188 91 
	20 257 157 75 186 99 24 6 27 258 158 185 259 100 25 26 101 260 159 76 188 

CELL_TYPES 32
	25
	25
	25
	25
	25
	25
	25
	25
	25
	25
	25
	25
	25
	25
	25
	25
	25
	25
	25
	25
	25
	25
	25
	25
	25
	25
	25
	25
	25
	25
	25
	25

POINT_DATA 261
FIELD U 1
	U 3 261 double
		 0.00000000E+00	 0.00000000E+00	 0.00000000E+00
		 0.00000000E+00	 0.00000000E+00	 0.00000000E+00
		 0.00000000E+00	 0.00000000E+00	 0.00000000E+00
		 0.00000000E+00	 0.00000000E+00	 0.00000000E+00
		 2.92462000E-05	 2.47012000E-02	 3.21039000E-03
		-2.52356000E-05	 2.47128000E-02	 3.21081000E-03
		 1.75955000E-05	 2.46926000E-02	-3.33727000E-03
		-3.63764000E-05	 2.46800000E-02	-3.33747000E-03
		 0.00000000E+00	 0.00000000E+00	 0.00000000E+00
		 0.00000000E+00	 0.00000000E+00	 0.00000000E+00
		 0.00000000E+00	 0.00000000E+00	 0.00000000E+00
		 0.00000000E+00	 0.00000000E+00	 0.00000000E+00
		 0.00000000E+00	 0.00000000E+00	 0.00000000E+00
		 0.00000000E+00	 0.00000000E+00	 0.00000000E+00
		 0.00000000E+00	 0.00000000E+00	 0.00000000E+00
		 0.00000000E+00	 0.00000000E+00	 0.00000000E+00
		 0.00000000E+00	 0.00000000E+00	 0.00000000E+00
		 0.00000000E+00	 0.00000000E+00	 0.00000000E+00
		 0.00000000E+00	 0.00000000E+00	 0.00000000E+00
		 0.00000000E+00	 0.00000000E+00	 0.00000000E+00
		 2.54273000E-05	 2.47262000E-02	 3.20892000E-03
		 2.13521000E-06	 2.46613000E-02	 3.20648000E-03
		-2.12515000E-05	 2.47321000E-02	 3.20897000E-03
		-1.18732000E-06	 2.46888000E-02	 1.55989000E-03
		-3.23609000E-06	 2.46446000E-02	-6.30289000E-05
		-6.02687000E-06	 2.46790000E-02	-1.68551000E-03
		 1.38692000E-05	 2.47112000E-02	-3.33575000E-03
		-9.43268000E-06	 2.46395000E-02	-3.33280000E-03
		-3.27018000E-05	 2.47047000E-02	-3.33579000E-03
		-7.10565000E-06	 2.46672000E-02	-1.68602000E-03
		-3.92145000E-06	 2.46338000E-02	-6.33948000E-05
		-3.42266000E-07	 2.46776000E-02	 1.55948000E-03
		 9.18110000E-06	-1.23675000E-04	-5.65998000E-05
		-2.83723000E-05	-2.54672000E-04	-2.54764000E-05
		-4.88229000E-05	-3.04478000E-04	 1.06479000E-04
		-6.95013000E-05	-1.56482000E-04	 3.15457000E-04
		-8.16304000E-05	 2.43461000E-04	 5.80326000E-04
		-8.94866000E-05	 9.50089000E-04	 8.80705000E-04
		-9.20863000E-05	 1.97667000E-03	 1.19684000E-03
		-9.28985000E-05	 3.33836000E-03	 1.51982000E-03
		-9.21720000E-05	 5.02242000E-03	 1.84076000E-03
		-9.05018000E-05	 7.04634000E-03	 2.16032000E-03
		-8.50216000E-05	 9.38329000E-03	 2.46647000E-03
		-7.14111000E-05	 1.20640000E-02	 2.74884000E-03
		-5.63219000E-05	 1.49963000E-02	 2.96326000E-03
		-2.77321000E-05	 1.81827000E-02	 3.12554000E-03
		-2.71268000E-05	 2.13937000E-02	 3.19703000E-03
		 3.28423000E-05	 2.13813000E-02	 3.19667000E-03
		 3.55307000E-05	 1.81689000E-02	 3.12520000E-03
		 6.64076000E-05	 1.49806000E-02	 2.96270000E-03
		 8.25222000E-05	 1.20478000E-02	 2.74827000E-03
		 9.62605000E-05	 9.36776000E-03	 2.46600000E-03
		 1.00953000E-04	 7.03187000E-03	 2.15978000E-03
		 1.01769000E-04	 5.00952000E-03	 1.84020000E-03
		 1.01859000E-04	 3.32669000E-03	 1.51923000E-03
		 1.00650000E-04	 1.96606000E-03	 1.19630000E-03
		 9.76115000E-05	 9.40427000E-04	 8.80243000E-04
		 8.91324000E-05	 2.34871000E-04	 5.79950000E-04
		 7.60695000E-05	-1.63805000E-04	 3.15151000E-04
		 5.41220000E-05	-3.10254000E-04	 1.06235000E-04
		 3.20032000E-05	-2.58553000E-04	-2.56588000E-05
		-7.42171000E-06	-1.25543000E-04	-5.66992000E-05
		-9.27034000E-06	-1.23719000E-04	 5.66920000E-05
		 2.81339000E-05	-2.54716000E-04	 2.56528000E-05
		 4.83564000E-05	-3.04559000E-04	-1.06240000E-04
		 6.87763000E-05	-1.56753000E-04	-3.15234000E-04
		 8.05675000E-05	 2.42665000E-04	-5.80441000E-04
		 8.79960000E-05	 9.48426000E-04	-8.81834000E-04
		 9.00444000E-05	 1.97365000E-03	-1.20009000E-03
		 9.02250000E-05	 3.33363000E-03	-1.52683000E-03
		 8.88229000E-05	 5.01547000E-03	-1.85354000E-03
		 8.65262000E-05	 7.03689000E-03	-2.18144000E-03
		 8.05117000E-05	 9.37074000E-03	-2.49847000E-03
		 6.61570000E-05	 1.20488000E-02	-2.79511000E-03
		 5.05348000E-05	 1.49781000E-02	-3.02654000E-03
		 2.06814000E-05	 1.81642000E-02	-3.20976000E-03
		 2.06435000E-05	 2.13715000E-02	-3.30184000E-03
		 7.35494000E-06	-1.25526000E-04	 5.65924000E-05
		-3.22316000E-05	-2.58567000E-04	 2.54712000E-05
		-5.45782000E-05	-3.10301000E-04	-1.06484000E-04
		-7.68074000E-05	-1.64041000E-04	-3.15537000E-04
		-9.02062000E-05	 2.34121000E-04	-5.80818000E-04
		-9.91194000E-05	 9.38811000E-04	-8.82292000E-04
		-1.02678000E-04	 1.96308000E-03	-1.20063000E-03
		-1.04545000E-04	 3.32195000E-03	-1.52741000E-03
		-1.05078000E-04	 5.00256000E-03	-1.85410000E-03
		-1.04918000E-04	 7.02234000E-03	-2.18192000E-03
		-1.00785000E-04	 9.35505000E-03	-2.49902000E-03
		-8.75995000E-05	 1.20322000E-02	-2.79569000E-03
		-7.20557000E-05	 1.49625000E-02	-3.02699000E-03
		-4.12557000E-05	 1.81489000E-02	-3.20938000E-03
		-3.96326000E-05	 2.13599000E-02	-3.30183000E-03
		 0.00000000E+00	 0.00000000E+00	 0.00000000E+00
		 0.00000000E+00	 0.00000000E+00	 0.00000000E+00
		 0.00000000E+00	 0.00000000E+00	 0.00000000E+00
		 0.00000000E+00	 0.00000000E+00	 0.00000000E+00
		 0.00000000E+00	 0.00000000E+00	 0.00000000E+00
		-7.54118000E-07	 2.48289000E-02	 1.59296000E-03
		-3.66244000E-06	 2.47568000E-02	-6.33232000E-05
		-3.60007000E-06	 2.50277000E-02	-6.35258000E-05
		-3.55147000E-06	 2.47621000E-02	-6.30799000E-05
		-6.50311000E-06	 2.48176000E-02	-1.72039000E-03
		 9.34233000E-07	-1.26738000E-04	-6.00501000E-05
		 1.69308000E-05	-2.49232000E-04	-3.40105000E-05
		 1.82114000E-06	-2.44193000E-04	-3.31820000E-05
		-1.32931000E-05	-2.47287000E-04	-3.35473000E-05
		 2.63339000E-06	-2.80711000E-04	 1.02055000E-04
		 3.96895000E-05	-1.35010000E-04	 3.11075000E-04
		 3.28415000E-06	-1.25629000E-04	 3.10897000E-04
		-3.31166000E-05	-1.31353000E-04	 3.11421000E-04
		 3.74907000E-06	 2.82802000E-04	 5.77998000E-04
		 5.08130000E-05	 9.76449000E-04	 8.78710000E-04
		 4.07110000E-06	 9.89028000E-04	 8.78599000E-04
		-4.26759000E-05	 9.81278000E-04	 8.79085000E-04
		 4.28584000E-06	 2.02147000E-03	 1.19636000E-03
		 5.31986000E-05	 3.36317000E-03	 1.51848000E-03
		 4.50109000E-06	 3.37493000E-03	 1.51792000E-03
		-4.42188000E-05	 3.36901000E-03	 1.51894000E-03
		 4.79317000E-06	 5.06862000E-03	 1.84159000E-03
		 5.29020000E-05	 7.06340000E-03	 2.15856000E-03
		 5.23434000E-06	 7.07182000E-03	 2.15727000E-03
		-4.24423000E-05	 7.07061000E-03	 2.15909000E-03
		 5.55725000E-06	 9.43188000E-03	 2.46909000E-03
		 4.46496000E-05	 1.20677000E-02	 2.74632000E-03
		 5.59814000E-06	 1.20624000E-02	 2.74053000E-03
		-3.34992000E-05	 1.20758000E-02	 2.74663000E-03
		 4.83619000E-06	 1.50390000E-02	 2.97943000E-03
		 1.80987000E-05	 1.81393000E-02	 3.12301000E-03
		 3.86851000E-06	 1.81200000E-02	 3.11530000E-03
		-1.03574000E-05	 1.81461000E-02	 3.12291000E-03
		 2.81752000E-06	 2.14640000E-02	 3.20473000E-03
		-4.91366000E-08	-1.21478000E-04	 4.29163000E-08
		-1.43162000E-05	-2.66871000E-04	 5.72403000E-06
		-1.23533000E-07	-2.74948000E-04	 7.40765000E-08
		 1.40693000E-05	-2.66890000E-04	-5.56704000E-06
		-2.23090000E-07	-3.25274000E-04	 1.02404000E-07
		-3.47879000E-05	-1.85782000E-04	 1.65986000E-04
		-3.45045000E-07	-1.95623000E-04	 1.09921000E-07
		 3.40824000E-05	-1.85937000E-04	-1.65765000E-04
		-5.04019000E-07	 2.02908000E-04	-2.70282000E-08
		-4.50976000E-05	 9.13233000E-04	 4.42877000E-04
		-7.13359000E-07	 8.99980000E-04	-4.86967000E-07
		 4.36429000E-05	 9.12381000E-04	-4.43890000E-04
		-9.81807000E-07	 1.92924000E-03	-1.52284000E-06
		-4.70788000E-05	 3.29844000E-03	 7.58191000E-04
		-1.29280000E-06	 3.28288000E-03	-3.34903000E-06
		 4.44555000E-05	 3.29606000E-03	-7.64968000E-04
		-1.62318000E-06	 4.97354000E-03	-6.21480000E-06
		-4.62658000E-05	 7.00169000E-03	 1.07378000E-03
		-1.92042000E-06	 6.98180000E-03	-1.02604000E-05
		 4.23748000E-05	 6.99697000E-03	-1.09450000E-03
		-2.24346000E-06	 9.34291000E-03	-1.58144000E-05
		-3.64896000E-05	 1.20198000E-02	 1.35423000E-03
		-2.46225000E-06	 1.19948000E-02	-2.28393000E-05
		 3.13271000E-05	 1.20123000E-02	-1.40011000E-03
		-2.91238000E-06	 1.49705000E-02	-3.13920000E-05
		-1.74583000E-05	 1.81201000E-02	 1.53243000E-03
		-2.90914000E-06	 1.80716000E-02	-4.05373000E-05
		 1.11016000E-05	 1.81110000E-02	-1.61547000E-03
		-3.67655000E-06	 2.14499000E-02	-5.20462000E-05
		-9.93812000E-07	-1.26752000E-04	 6.00403000E-05
		 1.30632000E-05	-2.47329000E-04	 3.36386000E-05
		-2.05140000E-06	-2.44229000E-04	 3.31885000E-05
		-1.71572000E-05	-2.49259000E-04	 3.39276000E-05
		-3.08234000E-06	-2.80774000E-04	-1.02057000E-04
		 3.24013000E-05	-1.31629000E-04	-3.11365000E-04
		-4.00732000E-06	-1.25895000E-04	-3.11005000E-04
		-4.04254000E-05	-1.35268000E-04	-3.11329000E-04
		-4.80789000E-06	 2.82027000E-04	-5.78581000E-04
		 4.12039000E-05	 9.79599000E-04	-8.80558000E-04
		-5.55438000E-06	 9.87361000E-04	-8.80336000E-04
		-5.23157000E-05	 9.74792000E-04	-8.80642000E-04
		-6.31788000E-06	 2.01846000E-03	-1.20040000E-03
		 4.15640000E-05	 3.36423000E-03	-1.52645000E-03
		-7.16009000E-06	 3.37014000E-03	-1.52577000E-03
		-5.58839000E-05	 3.35838000E-03	-1.52657000E-03
		-8.14052000E-06	 5.06166000E-03	-1.85533000E-03
		 3.84932000E-05	 7.06106000E-03	-2.18067000E-03
		-9.17522000E-06	 7.06220000E-03	-2.17913000E-03
		-5.68648000E-05	 7.05380000E-03	-2.18066000E-03
		-1.01403000E-05	 9.41938000E-03	-2.50221000E-03
		 2.83317000E-05	 1.20604000E-02	-2.79339000E-03
		-1.07214000E-05	 1.20468000E-02	-2.78731000E-03
		-4.97844000E-05	 1.20520000E-02	-2.79359000E-03
		-1.07498000E-05	 1.50209000E-02	-3.04410000E-03
		 3.57395000E-06	 1.81263000E-02	-3.20643000E-03
		-1.01984000E-05	 1.80993000E-02	-3.19852000E-03
		-2.40707000E-05	 1.81188000E-02	-3.20670000E-03
		-9.64255000E-06	 2.14430000E-02	-3.30975000E-03
		-4.18268000E-08	-1.23406000E-04	-5.48534000E-08
		-1.62470000E-05	-2.70748000E-04	-6.12702000E-06
		-1.18906000E-07	-2.78819000E-04	-1.11041000E-07
		 1.60114000E-05	-2.70744000E-04	 5.91535000E-06
		-2.46712000E-07	-3.30991000E-04	-1.42004000E-07
		-3.84641000E-05	-1.93227000E-04	-1.66259000E-04
		-3.93239000E-07	-2.02910000E-04	-1.93881000E-07
		 3.76961000E-05	-1.93090000E-04	 1.65873000E-04
		-5.77470000E-07	 1.94347000E-04	-4.03528000E-07
		-4.99598000E-05	 9.02765000E-04	-4.44494000E-04
		-7.91139000E-07	 8.90366000E-04	-9.45703000E-07
		 4.84042000E-05	 9.03596000E-04	 4.42561000E-04
		-1.06723000E-06	 1.91863000E-03	-2.06454000E-06
		-5.29523000E-05	 3.28441000E-03	-7.65713000E-04
		-1.36824000E-06	 3.27125000E-03	-3.93006000E-06
		 5.02317000E-05	 3.28679000E-03	 7.57770000E-04
		-1.71354000E-06	 4.96057000E-03	-6.78875000E-06
		-5.35176000E-05	 6.98252000E-03	-1.09528000E-03
		-2.00244000E-06	 6.96747000E-03	-1.08070000E-05
		 4.95264000E-05	 6.98731000E-03	 1.07349000E-03
		-2.31965000E-06	 9.32722000E-03	-1.63729000E-05
		-4.46279000E-05	 1.19960000E-02	-1.40056000E-03
		-2.61189000E-06	 1.19788000E-02	-2.32830000E-05
		 3.94748000E-05	 1.20038000E-02	 1.35368000E-03
		-2.87082000E-06	 1.49548000E-02	-3.20429000E-05
		-2.45196000E-05	 1.80967000E-02	-1.61573000E-03
		-3.32658000E-06	 1.80583000E-02	-4.16308000E-05
		 1.82059000E-05	 1.81066000E-02	 1.53193000E-03
		-3.24067000E-06	 2.14369000E-02	-5.27201000E-05
		-3.58707000E-08	-1.22805000E-04	-7.24178000E-09
		 8.49132000E-07	-2.56018000E-04	-1.48010000E-06
		-1.17290000E-07	-2.69145000E-04	-5.90166000E-08
		-1.20193000E-07	-2.63906000E-04	-1.38406000E-08
		-1.20352000E-07	-2.67209000E-04	 3.01661000E-08
		-1.08795000E-06	-2.56032000E-04	 1.46341000E-06
		-2.28490000E-07	-3.02880000E-04	-1.84415000E-08
		 1.45666000E-06	-1.54061000E-04	 1.62061000E-04
		-3.80724000E-07	-1.73324000E-04	-1.28322000E-07
		-3.67581000E-07	-1.62807000E-04	-5.81843000E-08
		-3.54309000E-07	-1.69681000E-04	 2.52767000E-08
		-2.18790000E-06	-1.54215000E-04	-1.62174000E-04
		-5.33751000E-07	 2.40122000E-04	-2.59769000E-07
		 1.65918000E-06	 9.54642000E-04	 4.41207000E-04
		-7.71072000E-07	 9.28948000E-04	-8.93892000E-07
		-7.51260000E-07	 9.43879000E-04	-8.01635000E-07
		-7.28456000E-07	 9.33755000E-04	-6.65177000E-07
		-3.15470000E-06	 9.53783000E-04	-4.42839000E-04
		-1.01749000E-06	 1.97023000E-03	-1.90578000E-06
		 1.57580000E-06	 3.34098000E-03	 7.57225000E-04
		-1.35790000E-06	 3.31338000E-03	-3.90029000E-06
		-1.34157000E-06	 3.33169000E-03	-3.80832000E-06
		-1.31492000E-06	 3.31919000E-03	-3.61736000E-06
		-4.25048000E-06	 3.33856000E-03	-7.64879000E-04
		-1.66202000E-06	 5.01104000E-03	-6.66940000E-06
		 1.63984000E-06	 7.04254000E-03	 1.07194000E-03
		-1.99445000E-06	 7.01547000E-03	-1.08729000E-05
		-1.99049000E-06	 7.03702000E-03	-1.08204000E-05
		-1.95455000E-06	 7.02264000E-03	-1.06025000E-05
		-5.58448000E-06	 7.03772000E-03	-1.09359000E-03
		-2.23968000E-06	 9.36960000E-03	-1.62890000E-05
		 1.49869000E-06	 1.20534000E-02	 1.35350000E-03
		-2.58654000E-06	 1.20288000E-02	-2.34851000E-05
		-2.58366000E-06	 1.20673000E-02	-2.36072000E-05
		-2.52525000E-06	 1.20367000E-02	-2.32420000E-05
		-6.63799000E-06	 1.20456000E-02	-1.40031000E-03
		-2.82443000E-06	 1.49628000E-02	-3.19156000E-05
		 4.48772000E-07	 1.81566000E-02	 1.51915000E-03
		-3.31100000E-06	 1.81485000E-02	-4.20862000E-05
		-3.26756000E-06	 1.81937000E-02	-4.24025000E-05
		-3.03915000E-06	 1.81551000E-02	-4.16328000E-05
		-6.71781000E-06	 1.81464000E-02	-1.60286000E-03
		-3.50413000E-06	 2.13827000E-02	-5.20461000E-05
