# vtk DataFile Version 3.0

ASCII
DATASET UNSTRUCTURED_GRID

POINTS 81 double
	 0.00000000E+00	 0.00000000E+00	 0.00000000E+00
	 1.00000000E+00	 0.00000000E+00	 0.00000000E+00
	 1.00000000E+00	 1.50000000E+00	 0.00000000E+00
	 0.00000000E+00	 1.50000000E+00	 0.00000000E+00
	 0.00000000E+00	 0.00000000E+00	 8.00000000E+00
	 1.00000000E+00	 0.00000000E+00	 8.00000000E+00
	 1.00000000E+00	 1.50000000E+00	 8.00000000E+00
	 0.00000000E+00	 1.50000000E+00	 8.00000000E+00
	 5.00000000E-01	 0.00000000E+00	 0.00000000E+00
	 1.00000000E+00	 7.50000000E-01	 0.00000000E+00
	 5.00000000E-01	 1.50000000E+00	 0.00000000E+00
	 0.00000000E+00	 7.50000000E-01	 0.00000000E+00
	 5.00000000E-01	 0.00000000E+00	 8.00000000E+00
	 1.00000000E+00	 7.50000000E-01	 8.00000000E+00
	 5.00000000E-01	 1.50000000E+00	 8.00000000E+00
	 0.00000000E+00	 7.50000000E-01	 8.00000000E+00
	 1.00000000E+00	 0.00000000E+00	 1.00000000E+00
	 1.00000000E+00	 0.00000000E+00	 2.00000000E+00
	 1.00000000E+00	 0.00000000E+00	 3.00000000E+00
	 1.00000000E+00	 0.00000000E+00	 4.00000000E+00
	 1.00000000E+00	 0.00000000E+00	 5.00000000E+00
	 1.00000000E+00	 0.00000000E+00	 6.00000000E+00
	 1.00000000E+00	 0.00000000E+00	 7.00000000E+00
	 0.00000000E+00	 0.00000000E+00	 7.00000000E+00
	 0.00000000E+00	 0.00000000E+00	 6.00000000E+00
	 0.00000000E+00	 0.00000000E+00	 5.00000000E+00
	 0.00000000E+00	 0.00000000E+00	 4.00000000E+00
	 0.00000000E+00	 0.00000000E+00	 3.00000000E+00
	 0.00000000E+00	 0.00000000E+00	 2.00000000E+00
	 0.00000000E+00	 0.00000000E+00	 1.00000000E+00
	 1.00000000E+00	 1.50000000E+00	 1.00000000E+00
	 1.00000000E+00	 1.50000000E+00	 2.00000000E+00
	 1.00000000E+00	 1.50000000E+00	 3.00000000E+00
	 1.00000000E+00	 1.50000000E+00	 4.00000000E+00
	 1.00000000E+00	 1.50000000E+00	 5.00000000E+00
	 1.00000000E+00	 1.50000000E+00	 6.00000000E+00
	 1.00000000E+00	 1.50000000E+00	 7.00000000E+00
	 0.00000000E+00	 1.50000000E+00	 1.00000000E+00
	 0.00000000E+00	 1.50000000E+00	 2.00000000E+00
	 0.00000000E+00	 1.50000000E+00	 3.00000000E+00
	 0.00000000E+00	 1.50000000E+00	 4.00000000E+00
	 0.00000000E+00	 1.50000000E+00	 5.00000000E+00
	 0.00000000E+00	 1.50000000E+00	 6.00000000E+00
	 0.00000000E+00	 1.50000000E+00	 7.00000000E+00
	 5.00000000E-01	 7.50000000E-01	 0.00000000E+00
	 5.00000000E-01	 7.50000000E-01	 8.00000000E+00
	 5.00000000E-01	 0.00000000E+00	 1.00000000E+00
	 5.00000000E-01	 0.00000000E+00	 2.00000000E+00
	 5.00000000E-01	 0.00000000E+00	 3.00000000E+00
	 5.00000000E-01	 0.00000000E+00	 4.00000000E+00
	 5.00000000E-01	 0.00000000E+00	 5.00000000E+00
	 5.00000000E-01	 0.00000000E+00	 6.00000000E+00
	 5.00000000E-01	 0.00000000E+00	 7.00000000E+00
	 1.00000000E+00	 7.50000000E-01	 1.00000000E+00
	 1.00000000E+00	 7.50000000E-01	 2.00000000E+00
	 1.00000000E+00	 7.50000000E-01	 3.00000000E+00
	 1.00000000E+00	 7.50000000E-01	 4.00000000E+00
	 1.00000000E+00	 7.50000000E-01	 5.00000000E+00
	 1.00000000E+00	 7.50000000E-01	 6.00000000E+00
	 1.00000000E+00	 7.50000000E-01	 7.00000000E+00
	 5.00000000E-01	 1.50000000E+00	 1.00000000E+00
	 5.00000000E-01	 1.50000000E+00	 2.00000000E+00
	 5.00000000E-01	 1.50000000E+00	 3.00000000E+00
	 5.00000000E-01	 1.50000000E+00	 4.00000000E+00
	 5.00000000E-01	 1.50000000E+00	 5.00000000E+00
	 5.00000000E-01	 1.50000000E+00	 6.00000000E+00
	 5.00000000E-01	 1.50000000E+00	 7.00000000E+00
	 0.00000000E+00	 7.50000000E-01	 1.00000000E+00
	 0.00000000E+00	 7.50000000E-01	 2.00000000E+00
	 0.00000000E+00	 7.50000000E-01	 3.00000000E+00
	 0.00000000E+00	 7.50000000E-01	 4.00000000E+00
	 0.00000000E+00	 7.50000000E-01	 5.00000000E+00
	 0.00000000E+00	 7.50000000E-01	 6.00000000E+00
	 0.00000000E+00	 7.50000000E-01	 7.00000000E+00
	 5.00000000E-01	 7.50000000E-01	 1.00000000E+00
	 5.00000000E-01	 7.50000000E-01	 2.00000000E+00
	 5.00000000E-01	 7.50000000E-01	 3.00000000E+00
	 5.00000000E-01	 7.50000000E-01	 4.00000000E+00
	 5.00000000E-01	 7.50000000E-01	 5.00000000E+00
	 5.00000000E-01	 7.50000000E-01	 6.00000000E+00
	 5.00000000E-01	 7.50000000E-01	 7.00000000E+00

CELLS 32 288
	8 0 8 44 11 29 46 74 67 
	8 8 1 9 44 46 16 53 74 
	8 11 44 10 3 67 74 60 37 
	8 44 9 2 10 74 53 30 60 
	8 29 46 74 67 28 47 75 68 
	8 46 16 53 74 47 17 54 75 
	8 67 74 60 37 68 75 61 38 
	8 74 53 30 60 75 54 31 61 
	8 28 47 75 68 27 48 76 69 
	8 47 17 54 75 48 18 55 76 
	8 68 75 61 38 69 76 62 39 
	8 75 54 31 61 76 55 32 62 
	8 27 48 76 69 26 49 77 70 
	8 48 18 55 76 49 19 56 77 
	8 69 76 62 39 70 77 63 40 
	8 76 55 32 62 77 56 33 63 
	8 26 49 77 70 25 50 78 71 
	8 49 19 56 77 50 20 57 78 
	8 70 77 63 40 71 78 64 41 
	8 77 56 33 63 78 57 34 64 
	8 25 50 78 71 24 51 79 72 
	8 50 20 57 78 51 21 58 79 
	8 71 78 64 41 72 79 65 42 
	8 78 57 34 64 79 58 35 65 
	8 24 51 79 72 23 52 80 73 
	8 51 21 58 79 52 22 59 80 
	8 72 79 65 42 73 80 66 43 
	8 79 58 35 65 80 59 36 66 
	8 23 52 80 73 4 12 45 15 
	8 52 22 59 80 12 5 13 45 
	8 73 80 66 43 15 45 14 7 
	8 80 59 36 66 45 13 6 14 

CELL_TYPES 32
	12
	12
	12
	12
	12
	12
	12
	12
	12
	12
	12
	12
	12
	12
	12
	12
	12
	12
	12
	12
	12
	12
	12
	12
	12
	12
	12
	12
	12
	12
	12
	12

POINT_DATA 81
FIELD U 1
	U 3 81 double
		 0.00000000E+00	 0.00000000E+00	 0.00000000E+00
		 0.00000000E+00	 0.00000000E+00	 0.00000000E+00
		 0.00000000E+00	 0.00000000E+00	 0.00000000E+00
		 0.00000000E+00	 0.00000000E+00	 0.00000000E+00
		 2.33670000E-06	 2.39296000E-03	 3.31623000E-04
		-2.33670000E-06	 2.39296000E-03	 3.31623000E-04
		 2.33670000E-06	 2.39296000E-03	-3.31623000E-04
		-2.33670000E-06	 2.39296000E-03	-3.31623000E-04
		 0.00000000E+00	 0.00000000E+00	 0.00000000E+00
		 0.00000000E+00	 0.00000000E+00	 0.00000000E+00
		 0.00000000E+00	 0.00000000E+00	 0.00000000E+00
		 0.00000000E+00	 0.00000000E+00	 0.00000000E+00
		 0.00000000E+00	 2.39281000E-03	 3.31130000E-04
		 0.00000000E+00	 2.39121000E-03	 0.00000000E+00
		 0.00000000E+00	 2.39281000E-03	-3.31130000E-04
		 0.00000000E+00	 2.39121000E-03	 0.00000000E+00
		-1.41615000E-05	 5.88438000E-05	 7.25896000E-05
		-1.00523000E-05	 2.08368000E-04	 1.41292000E-04
		-8.57961000E-06	 4.44088000E-04	 1.99383000E-04
		-6.86988000E-06	 7.49644000E-04	 2.46812000E-04
		-5.12592000E-06	 1.11155000E-03	 2.83706000E-04
		-3.51124000E-06	 1.51559000E-03	 3.10110000E-04
		-1.29471000E-06	 1.94792000E-03	 3.25781000E-04
		 1.29471000E-06	 1.94792000E-03	 3.25781000E-04
		 3.51124000E-06	 1.51559000E-03	 3.10110000E-04
		 5.12592000E-06	 1.11155000E-03	 2.83706000E-04
		 6.86988000E-06	 7.49644000E-04	 2.46812000E-04
		 8.57961000E-06	 4.44088000E-04	 1.99383000E-04
		 1.00523000E-05	 2.08368000E-04	 1.41292000E-04
		 1.41615000E-05	 5.88438000E-05	 7.25896000E-05
		 1.41615000E-05	 5.88438000E-05	-7.25896000E-05
		 1.00523000E-05	 2.08368000E-04	-1.41292000E-04
		 8.57961000E-06	 4.44088000E-04	-1.99383000E-04
		 6.86988000E-06	 7.49644000E-04	-2.46812000E-04
		 5.12592000E-06	 1.11155000E-03	-2.83706000E-04
		 3.51124000E-06	 1.51559000E-03	-3.10110000E-04
		 1.29471000E-06	 1.94792000E-03	-3.25781000E-04
		-1.41615000E-05	 5.88438000E-05	-7.25896000E-05
		-1.00523000E-05	 2.08368000E-04	-1.41292000E-04
		-8.57961000E-06	 4.44088000E-04	-1.99383000E-04
		-6.86988000E-06	 7.49644000E-04	-2.46812000E-04
		-5.12592000E-06	 1.11155000E-03	-2.83706000E-04
		-3.51124000E-06	 1.51559000E-03	-3.10110000E-04
		-1.29471000E-06	 1.94792000E-03	-3.25781000E-04
		 0.00000000E+00	 0.00000000E+00	 0.00000000E+00
		 0.00000000E+00	 2.39922000E-03	 0.00000000E+00
		 0.00000000E+00	 6.33773000E-05	 7.12189000E-05
		 0.00000000E+00	 2.11817000E-04	 1.42147000E-04
		 0.00000000E+00	 4.46915000E-04	 1.99632000E-04
		 0.00000000E+00	 7.51936000E-04	 2.47160000E-04
		 0.00000000E+00	 1.11328000E-03	 2.84071000E-04
		 0.00000000E+00	 1.51665000E-03	 3.10376000E-04
		 0.00000000E+00	 1.94870000E-03	 3.26370000E-04
		 0.00000000E+00	 4.90193000E-05	 0.00000000E+00
		 0.00000000E+00	 2.01965000E-04	 0.00000000E+00
		 0.00000000E+00	 4.38250000E-04	 0.00000000E+00
		 0.00000000E+00	 7.45095000E-04	 0.00000000E+00
		 0.00000000E+00	 1.10814000E-03	 0.00000000E+00
		 0.00000000E+00	 1.51317000E-03	 0.00000000E+00
		 0.00000000E+00	 1.94726000E-03	 0.00000000E+00
		 0.00000000E+00	 6.33773000E-05	-7.12189000E-05
		 0.00000000E+00	 2.11817000E-04	-1.42147000E-04
		 0.00000000E+00	 4.46915000E-04	-1.99632000E-04
		 0.00000000E+00	 7.51936000E-04	-2.47160000E-04
		 0.00000000E+00	 1.11328000E-03	-2.84071000E-04
		 0.00000000E+00	 1.51665000E-03	-3.10376000E-04
		 0.00000000E+00	 1.94870000E-03	-3.26370000E-04
		 0.00000000E+00	 4.90193000E-05	 0.00000000E+00
		 0.00000000E+00	 2.01965000E-04	 0.00000000E+00
		 0.00000000E+00	 4.38250000E-04	 0.00000000E+00
		 0.00000000E+00	 7.45095000E-04	 0.00000000E+00
		 0.00000000E+00	 1.10814000E-03	 0.00000000E+00
		 0.00000000E+00	 1.51317000E-03	 0.00000000E+00
		 0.00000000E+00	 1.94726000E-03	 0.00000000E+00
		 0.00000000E+00	 5.35203000E-05	 0.00000000E+00
		 0.00000000E+00	 2.05290000E-04	 0.00000000E+00
		 0.00000000E+00	 4.41142000E-04	 0.00000000E+00
		 0.00000000E+00	 7.47387000E-04	 0.00000000E+00
		 0.00000000E+00	 1.10978000E-03	 0.00000000E+00
		 0.00000000E+00	 1.51470000E-03	 0.00000000E+00
		 0.00000000E+00	 1.94609000E-03	 0.00000000E+00
FIELD S 1
	S 10 81 double
		 8.79439000E+00	 8.79440000E+00	 2.05201000E+01	-2.14093000E-06	 4.75272000E+00	 1.14380000E+00	 1.44631267E+01	 7.02379361E+00	 8.79439152E+00	 2.22907049E+01
		 8.79439000E+00	 8.79440000E+00	 2.05201000E+01	 2.14093000E-06	 4.75272000E+00	-1.14380000E+00	 1.44631267E+01	 7.02379361E+00	 8.79439152E+00	 2.22907049E+01
		-8.79439000E+00	-8.79440000E+00	-2.05201000E+01	 2.14093000E-06	 4.75272000E+00	 1.14380000E+00	 1.44631267E+01	-2.22907049E+01	-8.79439152E+00	-7.02379361E+00
		-8.79439000E+00	-8.79440000E+00	-2.05201000E+01	-2.14093000E-06	 4.75272000E+00	-1.14380000E+00	 1.44631267E+01	-2.22907049E+01	-8.79439152E+00	-7.02379361E+00
		-8.95904000E-01	-5.17674000E-01	 8.02643000E-01	-2.74472000E-01	 2.31992000E-01	 4.61575000E-03	 1.66529512E+00	-1.04711663E+00	-4.07064614E-01	 8.43246247E-01
		-8.95904000E-01	-5.17674000E-01	 8.02643000E-01	 2.74472000E-01	 2.31992000E-01	-4.61575000E-03	 1.66529512E+00	-1.04711663E+00	-4.07064614E-01	 8.43246247E-01
		 8.95904000E-01	 5.17674000E-01	-8.02643000E-01	 2.74472000E-01	 2.31992000E-01	 4.61575000E-03	 1.66529512E+00	-8.43246247E-01	 4.07064614E-01	 1.04711663E+00
		 8.95904000E-01	 5.17674000E-01	-8.02643000E-01	-2.74472000E-01	 2.31992000E-01	-4.61575000E-03	 1.66529512E+00	-8.43246247E-01	 4.07064614E-01	 1.04711663E+00
		 8.62833000E+00	 8.62833000E+00	 2.01326000E+01	 0.00000000E+00	 5.11888000E+00	 0.00000000E+00	 1.45243597E+01	 6.68046568E+00	 8.62833000E+00	 2.20804643E+01
		 0.00000000E+00	 0.00000000E+00	 0.00000000E+00	 2.15957000E-06	 3.95920000E+00	 0.00000000E+00	 6.85753556E+00	-3.95920000E+00	 0.00000000E+00	 3.95920000E+00
		-8.62833000E+00	-8.62833000E+00	-2.01326000E+01	 0.00000000E+00	 5.11888000E+00	 0.00000000E+00	 1.45243597E+01	-2.20804643E+01	-8.62833000E+00	-6.68046568E+00
		 0.00000000E+00	 0.00000000E+00	 0.00000000E+00	-2.15957000E-06	 3.95920000E+00	 0.00000000E+00	 6.85753556E+00	-3.95920000E+00	 0.00000000E+00	 3.95920000E+00
		 2.89687000E-01	 2.42348000E+00	 1.81346000E+00	 0.00000000E+00	 2.10997000E-01	 0.00000000E+00	 1.93832396E+00	 2.89687000E-01	 1.74759154E+00	 2.48934846E+00
		 0.00000000E+00	 0.00000000E+00	 0.00000000E+00	-1.04220000E+00	 1.43776000E-01	 0.00000000E+00	 1.82223959E+00	-1.05207052E+00	 0.00000000E+00	 1.05207052E+00
		-2.89687000E-01	-2.42348000E+00	-1.81346000E+00	 0.00000000E+00	 2.10997000E-01	 0.00000000E+00	 1.93832396E+00	-2.48934846E+00	-1.74759154E+00	-2.89687000E-01
		 0.00000000E+00	 0.00000000E+00	 0.00000000E+00	 1.04220000E+00	 1.43776000E-01	 0.00000000E+00	 1.82223959E+00	-1.05207052E+00	 0.00000000E+00	 1.05207052E+00
		-1.03468000E+00	 1.42451000E+00	 1.49523000E+01	 7.92748000E-01	 5.97511000E-01	-1.84534000E-01	 1.50124844E+01	-1.27548961E+00	 1.63758071E+00	 1.49800389E+01
		 9.62933000E-01	 2.83135000E+00	 1.44513000E+01	 5.25480000E-01	 3.41804000E-01	 8.73798000E-02	 1.27053892E+01	 8.25285428E-01	 2.95816810E+00	 1.44621295E+01
		 5.98275000E-01	 2.11279000E+00	 1.18926000E+01	 4.67264000E-01	 3.87176000E-01	 8.82465000E-02	 1.06713726E+01	 4.65677289E-01	 2.22907638E+00	 1.19089113E+01
		 4.89002000E-01	 1.72864000E+00	 9.51898000E+00	 3.69556000E-01	 3.75223000E-01	 8.32372000E-02	 8.52855077E+00	 3.87151097E-01	 1.81133324E+00	 9.53813766E+00
		 3.86109000E-01	 1.30862000E+00	 7.15453000E+00	 2.71618000E-01	 3.79354000E-01	 7.66668000E-02	 6.41009340E+00	 3.11977533E-01	 1.35693369E+00	 7.18034777E+00
		 1.73801000E-01	 7.88473000E-01	 4.70649000E+00	 2.06092000E-01	 3.80169000E-01	 1.11775000E-01	 4.32844803E+00	 1.11094205E-01	 8.10873014E-01	 4.74679678E+00
		 4.65070000E-01	 7.41912000E-01	 2.62086000E+00	 1.42066000E-02	 3.48113000E-01	-4.77939000E-02	 2.12091137E+00	 4.61867544E-01	 6.81799308E-01	 2.68417515E+00
		 4.65070000E-01	 7.41912000E-01	 2.62086000E+00	-1.42066000E-02	 3.48113000E-01	 4.77939000E-02	 2.12091137E+00	 4.61867544E-01	 6.81799308E-01	 2.68417515E+00
		 1.73801000E-01	 7.88473000E-01	 4.70649000E+00	-2.06092000E-01	 3.80169000E-01	-1.11775000E-01	 4.32844803E+00	 1.11094205E-01	 8.10873014E-01	 4.74679678E+00
		 3.86109000E-01	 1.30862000E+00	 7.15453000E+00	-2.71618000E-01	 3.79354000E-01	-7.66668000E-02	 6.41009340E+00	 3.11977533E-01	 1.35693369E+00	 7.18034777E+00
		 4.89002000E-01	 1.72864000E+00	 9.51898000E+00	-3.69556000E-01	 3.75223000E-01	-8.32372000E-02	 8.52855077E+00	 3.87151097E-01	 1.81133324E+00	 9.53813766E+00
		 5.98275000E-01	 2.11279000E+00	 1.18926000E+01	-4.67264000E-01	 3.87176000E-01	-8.82465000E-02	 1.06713726E+01	 4.65677289E-01	 2.22907638E+00	 1.19089113E+01
		 9.62933000E-01	 2.83135000E+00	 1.44513000E+01	-5.25480000E-01	 3.41804000E-01	-8.73798000E-02	 1.27053892E+01	 8.25285428E-01	 2.95816810E+00	 1.44621295E+01
		-1.03468000E+00	 1.42451000E+00	 1.49523000E+01	-7.92748000E-01	 5.97511000E-01	 1.84534000E-01	 1.50124844E+01	-1.27548961E+00	 1.63758071E+00	 1.49800389E+01
		 1.03468000E+00	-1.42451000E+00	-1.49523000E+01	 7.92748000E-01	 5.97511000E-01	 1.84534000E-01	 1.50124844E+01	-1.49800389E+01	-1.63758071E+00	 1.27548961E+00
		-9.62933000E-01	-2.83135000E+00	-1.44513000E+01	 5.25480000E-01	 3.41804000E-01	-8.73798000E-02	 1.27053892E+01	-1.44621295E+01	-2.95816810E+00	-8.25285428E-01
		-5.98275000E-01	-2.11279000E+00	-1.18926000E+01	 4.67264000E-01	 3.87176000E-01	-8.82465000E-02	 1.06713726E+01	-1.19089113E+01	-2.22907638E+00	-4.65677289E-01
		-4.89002000E-01	-1.72864000E+00	-9.51898000E+00	 3.69556000E-01	 3.75223000E-01	-8.32372000E-02	 8.52855077E+00	-9.53813766E+00	-1.81133324E+00	-3.87151097E-01
		-3.86109000E-01	-1.30862000E+00	-7.15453000E+00	 2.71618000E-01	 3.79354000E-01	-7.66668000E-02	 6.41009340E+00	-7.18034777E+00	-1.35693369E+00	-3.11977533E-01
		-1.73801000E-01	-7.88473000E-01	-4.70649000E+00	 2.06092000E-01	 3.80169000E-01	-1.11775000E-01	 4.32844803E+00	-4.74679678E+00	-8.10873014E-01	-1.11094205E-01
		-4.65070000E-01	-7.41912000E-01	-2.62086000E+00	 1.42066000E-02	 3.48113000E-01	 4.77939000E-02	 2.12091137E+00	-2.68417515E+00	-6.81799308E-01	-4.61867544E-01
		 1.03468000E+00	-1.42451000E+00	-1.49523000E+01	-7.92748000E-01	 5.97511000E-01	-1.84534000E-01	 1.50124844E+01	-1.49800389E+01	-1.63758071E+00	 1.27548961E+00
		-9.62933000E-01	-2.83135000E+00	-1.44513000E+01	-5.25480000E-01	 3.41804000E-01	 8.73798000E-02	 1.27053892E+01	-1.44621295E+01	-2.95816810E+00	-8.25285428E-01
		-5.98275000E-01	-2.11279000E+00	-1.18926000E+01	-4.67264000E-01	 3.87176000E-01	 8.82465000E-02	 1.06713726E+01	-1.19089113E+01	-2.22907638E+00	-4.65677289E-01
		-4.89002000E-01	-1.72864000E+00	-9.51898000E+00	-3.69556000E-01	 3.75223000E-01	 8.32372000E-02	 8.52855077E+00	-9.53813766E+00	-1.81133324E+00	-3.87151097E-01
		-3.86109000E-01	-1.30862000E+00	-7.15453000E+00	-2.71618000E-01	 3.79354000E-01	 7.66668000E-02	 6.41009340E+00	-7.18034777E+00	-1.35693369E+00	-3.11977533E-01
		-1.73801000E-01	-7.88473000E-01	-4.70649000E+00	-2.06092000E-01	 3.80169000E-01	 1.11775000E-01	 4.32844803E+00	-4.74679678E+00	-8.10873014E-01	-1.11094205E-01
		-4.65070000E-01	-7.41912000E-01	-2.62086000E+00	-1.42066000E-02	 3.48113000E-01	-4.77939000E-02	 2.12091137E+00	-2.68417515E+00	-6.81799308E-01	-4.61867544E-01
		 0.00000000E+00	 0.00000000E+00	 0.00000000E+00	 0.00000000E+00	 4.32274000E+00	 0.00000000E+00	 7.48720531E+00	-4.32274000E+00	 0.00000000E+00	 4.32274000E+00
		 0.00000000E+00	 0.00000000E+00	 0.00000000E+00	 0.00000000E+00	 9.38117000E-01	 0.00000000E+00	 1.62486631E+00	-9.38117000E-01	 0.00000000E+00	 9.38117000E-01
		-9.88170000E-01	 1.46401000E+00	 1.50678000E+01	 0.00000000E+00	 8.84388000E-01	 0.00000000E+00	 1.50592715E+01	-9.88170000E-01	 1.40675653E+00	 1.51250535E+01
		 1.04111000E+00	 2.88292000E+00	 1.46603000E+01	 0.00000000E+00	 1.80869000E-01	 0.00000000E+00	 1.28019054E+01	 1.04111000E+00	 2.88014299E+00	 1.46630770E+01
		 5.78091000E-01	 2.10659000E+00	 1.18316000E+01	 0.00000000E+00	 3.13630000E-01	 0.00000000E+00	 1.05864011E+01	 5.78091000E-01	 2.09648598E+00	 1.18417040E+01
		 4.96007000E-01	 1.73563000E+00	 9.53533000E+00	 0.00000000E+00	 2.93660000E-01	 0.00000000E+00	 8.50290429E+00	 4.96007000E-01	 1.72458928E+00	 9.54637072E+00
		 3.64891000E-01	 1.26576000E+00	 7.12667000E+00	 0.00000000E+00	 2.90483000E-01	 0.00000000E+00	 6.37925421E+00	 3.64891000E-01	 1.25139805E+00	 7.14103195E+00
		 2.61448000E-01	 9.74853000E-01	 4.81227000E+00	 0.00000000E+00	 3.12745000E-01	 0.00000000E+00	 4.27384800E+00	 2.61448000E-01	 9.49531731E-01	 4.83759127E+00
		 1.05131000E-01	-3.67003000E-02	 2.19968000E+00	 0.00000000E+00	 2.35913000E-01	 0.00000000E+00	 2.20709970E+00	-6.13155381E-02	 1.05131000E-01	 2.22429524E+00
		 0.00000000E+00	 0.00000000E+00	 0.00000000E+00	 7.98002000E-01	 3.38908000E-01	 0.00000000E+00	 1.50166490E+00	-8.66986635E-01	 0.00000000E+00	 8.66986635E-01
		 0.00000000E+00	 0.00000000E+00	 0.00000000E+00	 5.45437000E-01	 5.02809000E-01	 0.00000000E+00	 1.28489503E+00	-7.41834491E-01	 0.00000000E+00	 7.41834491E-01
		 0.00000000E+00	 0.00000000E+00	 0.00000000E+00	 4.56772000E-01	 4.62058000E-01	 0.00000000E+00	 1.12535095E+00	-6.49721675E-01	 0.00000000E+00	 6.49721675E-01
		 0.00000000E+00	 0.00000000E+00	 0.00000000E+00	 3.69563000E-01	 4.73436000E-01	 0.00000000E+00	 1.04026697E+00	-6.00598416E-01	 0.00000000E+00	 6.00598416E-01
		 0.00000000E+00	 0.00000000E+00	 0.00000000E+00	 2.87851000E-01	 4.65627000E-01	 0.00000000E+00	 9.48156160E-01	-5.47418214E-01	 0.00000000E+00	 5.47418214E-01
		 0.00000000E+00	 0.00000000E+00	 0.00000000E+00	 1.32042000E-01	 4.91187000E-01	 0.00000000E+00	 8.80964969E-01	-5.08625362E-01	 0.00000000E+00	 5.08625362E-01
		 0.00000000E+00	 0.00000000E+00	 0.00000000E+00	 3.28212000E-01	 3.74932000E-01	 0.00000000E+00	 8.63070892E-01	-4.98294212E-01	 0.00000000E+00	 4.98294212E-01
		 9.88170000E-01	-1.46401000E+00	-1.50678000E+01	 0.00000000E+00	 8.84388000E-01	 0.00000000E+00	 1.50592715E+01	-1.51250535E+01	-1.40675653E+00	 9.88170000E-01
		-1.04111000E+00	-2.88292000E+00	-1.46603000E+01	 0.00000000E+00	 1.80869000E-01	 0.00000000E+00	 1.28019054E+01	-1.46630770E+01	-2.88014299E+00	-1.04111000E+00
		-5.78091000E-01	-2.10659000E+00	-1.18316000E+01	 0.00000000E+00	 3.13630000E-01	 0.00000000E+00	 1.05864011E+01	-1.18417040E+01	-2.09648598E+00	-5.78091000E-01
		-4.96007000E-01	-1.73563000E+00	-9.53533000E+00	 0.00000000E+00	 2.93660000E-01	 0.00000000E+00	 8.50290429E+00	-9.54637072E+00	-1.72458928E+00	-4.96007000E-01
		-3.64891000E-01	-1.26576000E+00	-7.12667000E+00	 0.00000000E+00	 2.90483000E-01	 0.00000000E+00	 6.37925421E+00	-7.14103195E+00	-1.25139805E+00	-3.64891000E-01
		-2.61448000E-01	-9.74853000E-01	-4.81227000E+00	 0.00000000E+00	 3.12745000E-01	 0.00000000E+00	 4.27384800E+00	-4.83759127E+00	-9.49531731E-01	-2.61448000E-01
		-1.05131000E-01	 3.67003000E-02	-2.19968000E+00	 0.00000000E+00	 2.35913000E-01	 0.00000000E+00	 2.20709970E+00	-2.22429524E+00	-1.05131000E-01	 6.13155381E-02
		 0.00000000E+00	 0.00000000E+00	 0.00000000E+00	-7.98002000E-01	 3.38908000E-01	 0.00000000E+00	 1.50166490E+00	-8.66986635E-01	 0.00000000E+00	 8.66986635E-01
		 0.00000000E+00	 0.00000000E+00	 0.00000000E+00	-5.45437000E-01	 5.02809000E-01	 0.00000000E+00	 1.28489503E+00	-7.41834491E-01	 0.00000000E+00	 7.41834491E-01
		 0.00000000E+00	 0.00000000E+00	 0.00000000E+00	-4.56772000E-01	 4.62058000E-01	 0.00000000E+00	 1.12535095E+00	-6.49721675E-01	 0.00000000E+00	 6.49721675E-01
		 0.00000000E+00	 0.00000000E+00	 0.00000000E+00	-3.69563000E-01	 4.73436000E-01	 0.00000000E+00	 1.04026697E+00	-6.00598416E-01	 0.00000000E+00	 6.00598416E-01
		 0.00000000E+00	 0.00000000E+00	 0.00000000E+00	-2.87851000E-01	 4.65627000E-01	 0.00000000E+00	 9.48156160E-01	-5.47418214E-01	 0.00000000E+00	 5.47418214E-01
		 0.00000000E+00	 0.00000000E+00	 0.00000000E+00	-1.32042000E-01	 4.91187000E-01	 0.00000000E+00	 8.80964969E-01	-5.08625362E-01	 0.00000000E+00	 5.08625362E-01
		 0.00000000E+00	 0.00000000E+00	 0.00000000E+00	-3.28212000E-01	 3.74932000E-01	 0.00000000E+00	 8.63070892E-01	-4.98294212E-01	 0.00000000E+00	 4.98294212E-01
		 0.00000000E+00	 0.00000000E+00	 0.00000000E+00	 0.00000000E+00	 6.20796000E-01	 0.00000000E+00	 1.07525021E+00	-6.20796000E-01	 0.00000000E+00	 6.20796000E-01
		 0.00000000E+00	 0.00000000E+00	 0.00000000E+00	 0.00000000E+00	 3.45810000E-01	 0.00000000E+00	 5.98960490E-01	-3.45810000E-01	 0.00000000E+00	 3.45810000E-01
		 0.00000000E+00	 0.00000000E+00	 0.00000000E+00	 0.00000000E+00	 3.93499000E-01	 0.00000000E+00	 6.81560261E-01	-3.93499000E-01	 0.00000000E+00	 3.93499000E-01
		 0.00000000E+00	 0.00000000E+00	 0.00000000E+00	 0.00000000E+00	 3.85191000E-01	 0.00000000E+00	 6.67170383E-01	-3.85191000E-01	 0.00000000E+00	 3.85191000E-01
		 0.00000000E+00	 0.00000000E+00	 0.00000000E+00	 0.00000000E+00	 3.95270000E-01	 0.00000000E+00	 6.84627723E-01	-3.95270000E-01	 0.00000000E+00	 3.95270000E-01
		 0.00000000E+00	 0.00000000E+00	 0.00000000E+00	 0.00000000E+00	 3.49320000E-01	 0.00000000E+00	 6.05039988E-01	-3.49320000E-01	 0.00000000E+00	 3.49320000E-01
		 0.00000000E+00	 0.00000000E+00	 0.00000000E+00	 0.00000000E+00	 5.73386000E-01	 0.00000000E+00	 9.93133684E-01	-5.73386000E-01	 0.00000000E+00	 5.73386000E-01
FIELD ERROR 1
	ERROR 1 81 double
		 6.08651000E+01
		 6.08651000E+01
		 6.08651000E+01
		 6.08651000E+01
		 4.70004000E+01
		 4.70004000E+01
		 4.70004000E+01
		 4.70004000E+01
		 6.08651000E+01
		 6.08651000E+01
		 6.08651000E+01
		 6.08651000E+01
		 4.70004000E+01
		 4.70004000E+01
		 4.70004000E+01
		 4.70004000E+01
		 6.08651000E+01
		 5.79534000E+01
		 5.84113000E+01
		 5.91987000E+01
		 6.00778000E+01
		 6.23107000E+01
		 6.23107000E+01
		 6.23107000E+01
		 6.23107000E+01
		 6.00778000E+01
		 5.91987000E+01
		 5.84113000E+01
		 5.79534000E+01
		 6.08651000E+01
		 6.08651000E+01
		 5.79534000E+01
		 5.84113000E+01
		 5.91987000E+01
		 6.00778000E+01
		 6.23107000E+01
		 6.23107000E+01
		 6.08651000E+01
		 5.79534000E+01
		 5.84113000E+01
		 5.91987000E+01
		 6.00778000E+01
		 6.23107000E+01
		 6.23107000E+01
		 6.08651000E+01
		 4.70004000E+01
		 6.08651000E+01
		 5.79534000E+01
		 5.84113000E+01
		 5.91987000E+01
		 6.00778000E+01
		 6.23107000E+01
		 6.23107000E+01
		 6.08651000E+01
		 5.79534000E+01
		 5.84113000E+01
		 5.91987000E+01
		 6.00778000E+01
		 6.23107000E+01
		 6.23107000E+01
		 6.08651000E+01
		 5.79534000E+01
		 5.84113000E+01
		 5.91987000E+01
		 6.00778000E+01
		 6.23107000E+01
		 6.23107000E+01
		 6.08651000E+01
		 5.79534000E+01
		 5.84113000E+01
		 5.91987000E+01
		 6.00778000E+01
		 6.23107000E+01
		 6.23107000E+01
		 6.08651000E+01
		 5.79534000E+01
		 5.84113000E+01
		 5.91987000E+01
		 6.00778000E+01
		 6.23107000E+01
		 6.23107000E+01
