    1C
    1UModel: beam     Date: 10-Mar-1998                                 
    1UUSER                                                              
    1UDATE              25.january.2020                                 
    1UTIME              14:45:19                                        
    1UHOST                                                              
    1UPGM               CalculiX                                        
    1UVERSION           Version 2.16                             
    1UCOMPILETIME       Tue  7 Jan 19:57:43 CET 2020                    
    1UDIR                                                               
    1UDBN                                                               
    1UMAT    1EL                                                        
    2C                            90                                     1
 -1         1 0.00000E+00 0.00000E+00 0.00000E+00
 -1         2 1.00000E+00 0.00000E+00 0.00000E+00
 -1         3 1.00000E+00 1.00000E+00 0.00000E+00
 -1         4 0.00000E+00 1.00000E+00 0.00000E+00
 -1         5 0.00000E+00 0.00000E+00 8.00000E+00
 -1         6 1.00000E+00 0.00000E+00 8.00000E+00
 -1         7 1.00000E+00 1.00000E+00 8.00000E+00
 -1         8 0.00000E+00 1.00000E+00 8.00000E+00
 -1        10 5.00000E-01 0.00000E+00 0.00000E+00
 -1        13 1.00000E+00 5.00000E-01 0.00000E+00
 -1        16 5.00000E-01 1.00000E+00 0.00000E+00
 -1        19 0.00000E+00 5.00000E-01 0.00000E+00
 -1        22 5.00000E-01 0.00000E+00 8.00000E+00
 -1        25 1.00000E+00 5.00000E-01 8.00000E+00
 -1        28 5.00000E-01 1.00000E+00 8.00000E+00
 -1        31 0.00000E+00 5.00000E-01 8.00000E+00
 -1        34 1.00000E+00 0.00000E+00 1.00000E+00
 -1        36 1.00000E+00 0.00000E+00 2.00000E+00
 -1        38 1.00000E+00 0.00000E+00 3.00000E+00
 -1        40 1.00000E+00 0.00000E+00 4.00000E+00
 -1        42 1.00000E+00 0.00000E+00 5.00000E+00
 -1        44 1.00000E+00 0.00000E+00 6.00000E+00
 -1        46 1.00000E+00 0.00000E+00 7.00000E+00
 -1        49 0.00000E+00 0.00000E+00 7.00000E+00
 -1        51 0.00000E+00 0.00000E+00 6.00000E+00
 -1        53 0.00000E+00 0.00000E+00 5.00000E+00
 -1        55 0.00000E+00 0.00000E+00 4.00000E+00
 -1        57 0.00000E+00 0.00000E+00 3.00000E+00
 -1        59 0.00000E+00 0.00000E+00 2.00000E+00
 -1        61 0.00000E+00 0.00000E+00 1.00000E+00
 -1        64 1.00000E+00 1.00000E+00 1.00000E+00
 -1        66 1.00000E+00 1.00000E+00 2.00000E+00
 -1        68 1.00000E+00 1.00000E+00 3.00000E+00
 -1        70 1.00000E+00 1.00000E+00 4.00000E+00
 -1        72 1.00000E+00 1.00000E+00 5.00000E+00
 -1        74 1.00000E+00 1.00000E+00 6.00000E+00
 -1        76 1.00000E+00 1.00000E+00 7.00000E+00
 -1        79 0.00000E+00 1.00000E+00 1.00000E+00
 -1        81 0.00000E+00 1.00000E+00 2.00000E+00
 -1        83 0.00000E+00 1.00000E+00 3.00000E+00
 -1        85 0.00000E+00 1.00000E+00 4.00000E+00
 -1        87 0.00000E+00 1.00000E+00 5.00000E+00
 -1        89 0.00000E+00 1.00000E+00 6.00000E+00
 -1        91 0.00000E+00 1.00000E+00 7.00000E+00
 -1        95 5.00000E-01 5.00000E-01 0.00000E+00
 -1       100 5.00000E-01 5.00000E-01 8.00000E+00
 -1       105 5.00000E-01 0.00000E+00 1.00000E+00
 -1       109 5.00000E-01 0.00000E+00 2.00000E+00
 -1       113 5.00000E-01 0.00000E+00 3.00000E+00
 -1       117 5.00000E-01 0.00000E+00 4.00000E+00
 -1       121 5.00000E-01 0.00000E+00 5.00000E+00
 -1       125 5.00000E-01 0.00000E+00 6.00000E+00
 -1       129 5.00000E-01 0.00000E+00 7.00000E+00
 -1       134 1.00000E+00 5.00000E-01 1.00000E+00
 -1       138 1.00000E+00 5.00000E-01 2.00000E+00
 -1       142 1.00000E+00 5.00000E-01 3.00000E+00
 -1       146 1.00000E+00 5.00000E-01 4.00000E+00
 -1       150 1.00000E+00 5.00000E-01 5.00000E+00
 -1       154 1.00000E+00 5.00000E-01 6.00000E+00
 -1       158 1.00000E+00 5.00000E-01 7.00000E+00
 -1       163 5.00000E-01 1.00000E+00 1.00000E+00
 -1       167 5.00000E-01 1.00000E+00 2.00000E+00
 -1       171 5.00000E-01 1.00000E+00 3.00000E+00
 -1       175 5.00000E-01 1.00000E+00 4.00000E+00
 -1       179 5.00000E-01 1.00000E+00 5.00000E+00
 -1       183 5.00000E-01 1.00000E+00 6.00000E+00
 -1       187 5.00000E-01 1.00000E+00 7.00000E+00
 -1       192 0.00000E+00 5.00000E-01 1.00000E+00
 -1       196 0.00000E+00 5.00000E-01 2.00000E+00
 -1       200 0.00000E+00 5.00000E-01 3.00000E+00
 -1       204 0.00000E+00 5.00000E-01 4.00000E+00
 -1       208 0.00000E+00 5.00000E-01 5.00000E+00
 -1       212 0.00000E+00 5.00000E-01 6.00000E+00
 -1       216 0.00000E+00 5.00000E-01 7.00000E+00
 -1       222 5.00000E-01 5.00000E-01 1.00000E+00
 -1       228 5.00000E-01 5.00000E-01 2.00000E+00
 -1       234 5.00000E-01 5.00000E-01 3.00000E+00
 -1       240 5.00000E-01 5.00000E-01 4.00000E+00
 -1       246 5.00000E-01 5.00000E-01 5.00000E+00
 -1       252 5.00000E-01 5.00000E-01 6.00000E+00
 -1       258 5.00000E-01 5.00000E-01 7.00000E+00
 -1       340 1.00000E+00 0.00000E+00 4.00000E+00
 -1       355 0.00000E+00 0.00000E+00 4.00000E+00
 -1       370 1.00000E+00 1.00000E+00 4.00000E+00
 -1       385 0.00000E+00 1.00000E+00 4.00000E+00
 -1       417 5.00000E-01 0.00000E+00 4.00000E+00
 -1       446 1.00000E+00 5.00000E-01 4.00000E+00
 -1       475 5.00000E-01 1.00000E+00 4.00000E+00
 -1       504 0.00000E+00 5.00000E-01 4.00000E+00
 -1       540 5.00000E-01 5.00000E-01 4.00000E+00
 -3
    3C                            32                                     1
 -1         1    1    0    1
 -2         1        10        95        19        61       105       222       192
 -1         2    1    0    1
 -2        10         2        13        95       105        34       134       222
 -1         3    1    0    1
 -2        19        95        16         4       192       222       163        79
 -1         4    1    0    1
 -2        95        13         3        16       222       134        64       163
 -1         5    1    0    1
 -2        61       105       222       192        59       109       228       196
 -1         6    1    0    1
 -2       105        34       134       222       109        36       138       228
 -1         7    1    0    1
 -2       192       222       163        79       196       228       167        81
 -1         8    1    0    1
 -2       222       134        64       163       228       138        66       167
 -1         9    1    0    1
 -2        59       109       228       196        57       113       234       200
 -1        10    1    0    1
 -2       109        36       138       228       113        38       142       234
 -1        11    1    0    1
 -2       196       228       167        81       200       234       171        83
 -1        12    1    0    1
 -2       228       138        66       167       234       142        68       171
 -1        13    1    0    1
 -2        57       113       234       200        55       117       240       204
 -1        14    1    0    1
 -2       113        38       142       234       117        40       146       240
 -1        15    1    0    1
 -2       200       234       171        83       204       240       175        85
 -1        16    1    0    1
 -2       234       142        68       171       240       146        70       175
 -1        17    1    0    1
 -2       355       417       540       504        53       121       246       208
 -1        18    1    0    1
 -2       417       340       446       540       121        42       150       246
 -1        19    1    0    1
 -2       504       540       475       385       208       246       179        87
 -1        20    1    0    1
 -2       540       446       370       475       246       150        72       179
 -1        21    1    0    1
 -2        53       121       246       208        51       125       252       212
 -1        22    1    0    1
 -2       121        42       150       246       125        44       154       252
 -1        23    1    0    1
 -2       208       246       179        87       212       252       183        89
 -1        24    1    0    1
 -2       246       150        72       179       252       154        74       183
 -1        25    1    0    1
 -2        51       125       252       212        49       129       258       216
 -1        26    1    0    1
 -2       125        44       154       252       129        46       158       258
 -1        27    1    0    1
 -2       212       252       183        89       216       258       187        91
 -1        28    1    0    1
 -2       252       154        74       183       258       158        76       187
 -1        29    1    0    1
 -2        49       129       258       216         5        22       100        31
 -1        30    1    0    1
 -2       129        46       158       258        22         6        25       100
 -1        31    1    0    1
 -2       216       258       187        91        31       100        28         8
 -1        32    1    0    1
 -2       258       158        76       187       100        25         7        28
 -3
    1PSTEP                         1           1           1          
  100CL  101 1.000000000          90                     0    1           1
 -4  DISP        4    1
 -5  D1          1    2    1    0
 -5  D2          1    2    2    0
 -5  D3          1    2    3    0
 -5  ALL         1    2    0    0    1ALL
 -1         1 0.00000E+00 0.00000E+00 0.00000E+00
 -1         2 0.00000E+00 0.00000E+00 0.00000E+00
 -1         3 0.00000E+00 0.00000E+00 0.00000E+00
 -1         4 0.00000E+00 0.00000E+00 0.00000E+00
 -1         5 3.95069E-02 3.95069E-02 3.69317E+00
 -1         6-3.95069E-02 3.95069E-02 3.69317E+00
 -1         7-3.95069E-02-3.95069E-02 3.69317E+00
 -1         8 3.95069E-02-3.95069E-02 3.69317E+00
 -1        10 0.00000E+00 0.00000E+00 0.00000E+00
 -1        13 0.00000E+00 0.00000E+00 0.00000E+00
 -1        16 0.00000E+00 0.00000E+00 0.00000E+00
 -1        19 0.00000E+00 0.00000E+00 0.00000E+00
 -1        22 8.52932E-13 2.34086E-02 3.42371E+00
 -1        25-2.34086E-02 7.88354E-13 3.42371E+00
 -1        28 8.92060E-13-2.34086E-02 3.42371E+00
 -1        31 2.34086E-02 8.27740E-13 3.42371E+00
 -1        34-8.24414E-02 8.24414E-02 4.35572E-01
 -1        36-6.99543E-02 6.99543E-02 9.05998E-01
 -1        38-7.14760E-02 7.14760E-02 1.38474E+00
 -1        40-7.20135E-02 7.20135E-02 1.86080E+00
 -1        42-6.94768E-02 6.94768E-02 2.33478E+00
 -1        44-7.57606E-02 7.57606E-02 2.81912E+00
 -1        46-6.97539E-02 6.97539E-02 3.28253E+00
 -1        49 6.97539E-02 6.97539E-02 3.28253E+00
 -1        51 7.57606E-02 7.57606E-02 2.81912E+00
 -1        53 6.94768E-02 6.94768E-02 2.33478E+00
 -1        55 7.20135E-02 7.20135E-02 1.86080E+00
 -1        57 7.14760E-02 7.14760E-02 1.38474E+00
 -1        59 6.99543E-02 6.99543E-02 9.05998E-01
 -1        61 8.24414E-02 8.24414E-02 4.35572E-01
 -1        64-8.24414E-02-8.24414E-02 4.35572E-01
 -1        66-6.99543E-02-6.99543E-02 9.05998E-01
 -1        68-7.14760E-02-7.14760E-02 1.38474E+00
 -1        70-7.20135E-02-7.20135E-02 1.86080E+00
 -1        72-6.94768E-02-6.94768E-02 2.33478E+00
 -1        74-7.57606E-02-7.57606E-02 2.81912E+00
 -1        76-6.97539E-02-6.97539E-02 3.28253E+00
 -1        79 8.24414E-02-8.24414E-02 4.35572E-01
 -1        81 6.99543E-02-6.99543E-02 9.05998E-01
 -1        83 7.14760E-02-7.14760E-02 1.38474E+00
 -1        85 7.20135E-02-7.20135E-02 1.86080E+00
 -1        87 6.94768E-02-6.94768E-02 2.33478E+00
 -1        89 7.57606E-02-7.57606E-02 2.81912E+00
 -1        91 6.97539E-02-6.97539E-02 3.28253E+00
 -1        95 0.00000E+00 0.00000E+00 0.00000E+00
 -1       100 8.72357E-13 8.08092E-13 4.52043E+00
 -1       105 1.88051E-14 8.24653E-02 4.24438E-01
 -1       109 8.05050E-14 7.05300E-02 9.09050E-01
 -1       113 1.75701E-13 7.14394E-02 1.38414E+00
 -1       117 2.94154E-13 7.07662E-02 1.86054E+00
 -1       121 4.25240E-13 7.51077E-02 2.33808E+00
 -1       125 5.63189E-13 5.54595E-02 2.80025E+00
 -1       129 7.05686E-13 1.23106E-01 3.36379E+00
 -1       134-8.24653E-02 1.95055E-14 4.24438E-01
 -1       138-7.05300E-02 8.13932E-14 9.09050E-01
 -1       142-7.14394E-02 1.73284E-13 1.38414E+00
 -1       146-7.07662E-02 2.84378E-13 1.86054E+00
 -1       150-7.51077E-02 4.06607E-13 2.33808E+00
 -1       154-5.54595E-02 5.34083E-13 2.80025E+00
 -1       158-1.23106E-01 6.61614E-13 3.36379E+00
 -1       163 2.60917E-14-8.24653E-02 4.24438E-01
 -1       167 9.50871E-14-7.05300E-02 9.09050E-01
 -1       171 1.96278E-13-7.14394E-02 1.38414E+00
 -1       175 3.20730E-13-7.07662E-02 1.86054E+00
 -1       179 4.57110E-13-7.51077E-02 2.33808E+00
 -1       183 5.97992E-13-5.54595E-02 2.80025E+00
 -1       187 7.43530E-13-1.23106E-01 3.36379E+00
 -1       192 8.24653E-02 2.67911E-14 4.24438E-01
 -1       196 7.05300E-02 9.59788E-14 9.09050E-01
 -1       200 7.14394E-02 1.94170E-13 1.38414E+00
 -1       204 7.07662E-02 3.10973E-13 1.86054E+00
 -1       208 7.51077E-02 4.38469E-13 2.33808E+00
 -1       212 5.54595E-02 5.69315E-13 2.80025E+00
 -1       216 1.23106E-01 6.99100E-13 3.36379E+00
 -1       222 2.43048E-14 2.50306E-14 4.13215E-01
 -1       228 8.90783E-14 8.97206E-14 9.12058E-01
 -1       234 1.86844E-13 1.84566E-13 1.38394E+00
 -1       240 3.07907E-13 2.98199E-13 1.85979E+00
 -1       246 4.41191E-13 4.22659E-13 2.33834E+00
 -1       252 5.80976E-13 5.51809E-13 2.81743E+00
 -1       258 7.24758E-13 6.80331E-13 3.19746E+00
 -1       340-7.20135E-02 7.20135E-02 1.86080E+00
 -1       355 7.20135E-02 7.20135E-02 1.86080E+00
 -1       370-7.20135E-02-7.20135E-02 1.86080E+00
 -1       385 7.20135E-02-7.20135E-02 1.86080E+00
 -1       417 2.94154E-13 7.07662E-02 1.86054E+00
 -1       446-7.07662E-02 2.84378E-13 1.86054E+00
 -1       475 3.20730E-13-7.07662E-02 1.86054E+00
 -1       504 7.07662E-02 3.10973E-13 1.86054E+00
 -1       540 3.07907E-13 2.98199E-13 1.85979E+00
 -3
    1PSTEP                         2           1           2          
    1PGM                1.000000E+00                                  
    1PGK                5.454937E+11                                  
    1PHID                         -1                                  
    1PSUBC                         0                                  
    1PMODE                         1                                  
  100CL  102 117547.9305          90                     2    2MODAL      1
 -4  DISP        4    1
 -5  D1          1    2    1    0
 -5  D2          1    2    2    0
 -5  D3          1    2    3    0
 -5  ALL         1    2    0    0    1ALL
 -1         1 0.00000E+00 0.00000E+00 0.00000E+00
 -1         2 0.00000E+00 0.00000E+00 0.00000E+00
 -1         3 0.00000E+00 0.00000E+00 0.00000E+00
 -1         4 0.00000E+00 0.00000E+00 0.00000E+00
 -1         5 5.15824E+03-2.83169E+03 5.12091E+00
 -1         6 5.11425E+03-2.75075E+03-1.73115E+01
 -1         7 5.15824E+03-2.83169E+03-5.12091E+00
 -1         8 5.11425E+03-2.75075E+03 1.73115E+01
 -1        10 0.00000E+00 0.00000E+00 0.00000E+00
 -1        13 0.00000E+00 0.00000E+00 0.00000E+00
 -1        16 0.00000E+00 0.00000E+00 0.00000E+00
 -1        19 0.00000E+00 0.00000E+00 0.00000E+00
 -1        22 5.15533E+03-2.77382E+03-2.71884E+00
 -1        25 5.10423E+03-2.80159E+03-5.00305E+00
 -1        28 5.15533E+03-2.77382E+03 2.71884E+00
 -1        31 5.10423E+03-2.80159E+03 5.00305E+00
 -1        34 7.82138E+02-4.62050E+02-3.33689E+02
 -1        36 1.70292E+03-9.25479E+02-4.17376E+02
 -1        38 2.63699E+03-1.42788E+03-3.92545E+02
 -1        40 3.46423E+03-1.87494E+03-3.37965E+02
 -1        42 4.14908E+03-2.24482E+03-2.68697E+02
 -1        44 4.65981E+03-2.52246E+03-1.81931E+02
 -1        46 4.98022E+03-2.69647E+03-9.98287E+01
 -1        49 4.99559E+03-2.72474E+03 2.95303E+01
 -1        51 4.67500E+03-2.55041E+03 5.38169E+01
 -1        53 4.16440E+03-2.27303E+03 7.94833E+01
 -1        55 3.47602E+03-1.89665E+03 9.99735E+01
 -1        57 2.64494E+03-1.44251E+03 1.16119E+02
 -1        59 1.70285E+03-9.25338E+02 1.23464E+02
 -1        61 7.25058E+02-3.57014E+02 9.87084E+01
 -1        64 7.25058E+02-3.57014E+02-9.87084E+01
 -1        66 1.70285E+03-9.25338E+02-1.23464E+02
 -1        68 2.64494E+03-1.44251E+03-1.16119E+02
 -1        70 3.47602E+03-1.89665E+03-9.99735E+01
 -1        72 4.16440E+03-2.27303E+03-7.94833E+01
 -1        74 4.67500E+03-2.55041E+03-5.38169E+01
 -1        76 4.99559E+03-2.72474E+03-2.95303E+01
 -1        79 7.82138E+02-4.62050E+02 3.33689E+02
 -1        81 1.70292E+03-9.25479E+02 4.17376E+02
 -1        83 2.63699E+03-1.42788E+03 3.92545E+02
 -1        85 3.46423E+03-1.87494E+03 3.37965E+02
 -1        87 4.14908E+03-2.24482E+03 2.68697E+02
 -1        89 4.65981E+03-2.52246E+03 1.81931E+02
 -1        91 4.98022E+03-2.69647E+03 9.98287E+01
 -1        95 0.00000E+00 0.00000E+00 0.00000E+00
 -1       100 5.08477E+03-2.76325E+03-1.60526E-10
 -1       105 7.18128E+02-4.20423E+02-1.17653E+02
 -1       109 1.70826E+03-9.27230E+02-1.48477E+02
 -1       113 2.64318E+03-1.43292E+03-1.38273E+02
 -1       117 3.47605E+03-1.88313E+03-1.19539E+02
 -1       121 4.16209E+03-2.25456E+03-9.33513E+01
 -1       125 4.67670E+03-2.53354E+03-6.75727E+01
 -1       129 4.98580E+03-2.70504E+03-2.89337E+01
 -1       134 7.73638E+02-3.90256E+02-2.16499E+02
 -1       138 1.70624E+03-9.28332E+02-2.73219E+02
 -1       142 2.63677E+03-1.43640E+03-2.54442E+02
 -1       146 3.46522E+03-1.88901E+03-2.19969E+02
 -1       150 4.14872E+03-2.26183E+03-1.71780E+02
 -1       154 4.66207E+03-2.54149E+03-1.24343E+02
 -1       158 4.97766E+03-2.70947E+03-5.32421E+01
 -1       163 7.18128E+02-4.20423E+02 1.17653E+02
 -1       167 1.70826E+03-9.27230E+02 1.48477E+02
 -1       171 2.64318E+03-1.43292E+03 1.38273E+02
 -1       175 3.47605E+03-1.88313E+03 1.19539E+02
 -1       179 4.16209E+03-2.25456E+03 9.33513E+01
 -1       183 4.67670E+03-2.53354E+03 6.75727E+01
 -1       187 4.98580E+03-2.70504E+03 2.89337E+01
 -1       192 7.73638E+02-3.90256E+02 2.16499E+02
 -1       196 1.70624E+03-9.28332E+02 2.73219E+02
 -1       200 2.63677E+03-1.43640E+03 2.54442E+02
 -1       204 3.46522E+03-1.88901E+03 2.19969E+02
 -1       208 4.14872E+03-2.26183E+03 1.71780E+02
 -1       212 4.66207E+03-2.54149E+03 1.24343E+02
 -1       216 4.97766E+03-2.70947E+03 5.32421E+01
 -1       222 7.38292E+02-4.01214E+02-1.07860E-11
 -1       228 1.71144E+03-9.30060E+02-3.25571E-11
 -1       234 2.63983E+03-1.43458E+03-6.16467E-11
 -1       240 3.46957E+03-1.88549E+03-9.24274E-11
 -1       246 4.15828E+03-2.25976E+03-1.19712E-10
 -1       252 4.66196E+03-2.53348E+03-1.42222E-10
 -1       258 5.00209E+03-2.71832E+03-1.58025E-10
 -1       340 3.46423E+03-1.87494E+03-3.37965E+02
 -1       355 3.47602E+03-1.89665E+03 9.99735E+01
 -1       370 3.47602E+03-1.89665E+03-9.99735E+01
 -1       385 3.46423E+03-1.87494E+03 3.37965E+02
 -1       417 3.47605E+03-1.88313E+03-1.19539E+02
 -1       446 3.46522E+03-1.88901E+03-2.19969E+02
 -1       475 3.47605E+03-1.88313E+03 1.19539E+02
 -1       504 3.46522E+03-1.88901E+03 2.19969E+02
 -1       540 3.46957E+03-1.88549E+03-9.24274E-11
 -3
    1PSTEP                         3           1           2          
    1PGM                1.000000E+00                                  
    1PGK                5.454937E+11                                  
    1PHID                         -1                                  
    1PSUBC                         0                                  
    1PMODE                         2                                  
  100CL  103 117547.9305          90                     2    3MODAL      1
 -4  DISP        4    1
 -5  D1          1    2    1    0
 -5  D2          1    2    2    0
 -5  D3          1    2    3    0
 -5  ALL         1    2    0    0    1ALL
 -1         1 0.00000E+00 0.00000E+00 0.00000E+00
 -1         2 0.00000E+00 0.00000E+00 0.00000E+00
 -1         3 0.00000E+00 0.00000E+00 0.00000E+00
 -1         4 0.00000E+00 0.00000E+00 0.00000E+00
 -1         5 2.75075E+03 5.11425E+03 1.73115E+01
 -1         6 2.83169E+03 5.15824E+03 5.12091E+00
 -1         7 2.75075E+03 5.11425E+03-1.73115E+01
 -1         8 2.83169E+03 5.15824E+03-5.12091E+00
 -1        10 0.00000E+00 0.00000E+00 0.00000E+00
 -1        13 0.00000E+00 0.00000E+00 0.00000E+00
 -1        16 0.00000E+00 0.00000E+00 0.00000E+00
 -1        19 0.00000E+00 0.00000E+00 0.00000E+00
 -1        22 2.80159E+03 5.10423E+03 5.00305E+00
 -1        25 2.77382E+03 5.15533E+03-2.71884E+00
 -1        28 2.80159E+03 5.10423E+03-5.00305E+00
 -1        31 2.77382E+03 5.15533E+03 2.71884E+00
 -1        34 3.57014E+02 7.25058E+02 9.87084E+01
 -1        36 9.25338E+02 1.70285E+03 1.23464E+02
 -1        38 1.44251E+03 2.64494E+03 1.16119E+02
 -1        40 1.89665E+03 3.47602E+03 9.99735E+01
 -1        42 2.27303E+03 4.16440E+03 7.94833E+01
 -1        44 2.55041E+03 4.67500E+03 5.38169E+01
 -1        46 2.72474E+03 4.99559E+03 2.95303E+01
 -1        49 2.69647E+03 4.98022E+03 9.98287E+01
 -1        51 2.52246E+03 4.65981E+03 1.81931E+02
 -1        53 2.24482E+03 4.14908E+03 2.68697E+02
 -1        55 1.87494E+03 3.46423E+03 3.37965E+02
 -1        57 1.42788E+03 2.63699E+03 3.92545E+02
 -1        59 9.25479E+02 1.70292E+03 4.17376E+02
 -1        61 4.62050E+02 7.82138E+02 3.33689E+02
 -1        64 4.62050E+02 7.82138E+02-3.33689E+02
 -1        66 9.25479E+02 1.70292E+03-4.17376E+02
 -1        68 1.42788E+03 2.63699E+03-3.92545E+02
 -1        70 1.87494E+03 3.46423E+03-3.37965E+02
 -1        72 2.24482E+03 4.14908E+03-2.68697E+02
 -1        74 2.52246E+03 4.65981E+03-1.81931E+02
 -1        76 2.69647E+03 4.98022E+03-9.98287E+01
 -1        79 3.57014E+02 7.25058E+02-9.87084E+01
 -1        81 9.25338E+02 1.70285E+03-1.23464E+02
 -1        83 1.44251E+03 2.64494E+03-1.16119E+02
 -1        85 1.89665E+03 3.47602E+03-9.99735E+01
 -1        87 2.27303E+03 4.16440E+03-7.94833E+01
 -1        89 2.55041E+03 4.67500E+03-5.38169E+01
 -1        91 2.72474E+03 4.99559E+03-2.95303E+01
 -1        95 0.00000E+00 0.00000E+00 0.00000E+00
 -1       100 2.76325E+03 5.08477E+03-5.00222E-10
 -1       105 3.90256E+02 7.73638E+02 2.16499E+02
 -1       109 9.28332E+02 1.70624E+03 2.73219E+02
 -1       113 1.43640E+03 2.63677E+03 2.54442E+02
 -1       117 1.88901E+03 3.46522E+03 2.19969E+02
 -1       121 2.26183E+03 4.14872E+03 1.71780E+02
 -1       125 2.54149E+03 4.66207E+03 1.24343E+02
 -1       129 2.70947E+03 4.97766E+03 5.32421E+01
 -1       134 4.20423E+02 7.18128E+02-1.17653E+02
 -1       138 9.27230E+02 1.70826E+03-1.48477E+02
 -1       142 1.43292E+03 2.64318E+03-1.38273E+02
 -1       146 1.88313E+03 3.47605E+03-1.19539E+02
 -1       150 2.25456E+03 4.16209E+03-9.33513E+01
 -1       154 2.53354E+03 4.67670E+03-6.75727E+01
 -1       158 2.70504E+03 4.98580E+03-2.89337E+01
 -1       163 3.90256E+02 7.73638E+02-2.16499E+02
 -1       167 9.28332E+02 1.70624E+03-2.73219E+02
 -1       171 1.43640E+03 2.63677E+03-2.54442E+02
 -1       175 1.88901E+03 3.46522E+03-2.19969E+02
 -1       179 2.26183E+03 4.14872E+03-1.71780E+02
 -1       183 2.54149E+03 4.66207E+03-1.24343E+02
 -1       187 2.70947E+03 4.97766E+03-5.32421E+01
 -1       192 4.20423E+02 7.18128E+02 1.17653E+02
 -1       196 9.27230E+02 1.70826E+03 1.48477E+02
 -1       200 1.43292E+03 2.64318E+03 1.38273E+02
 -1       204 1.88313E+03 3.47605E+03 1.19539E+02
 -1       208 2.25456E+03 4.16209E+03 9.33513E+01
 -1       212 2.53354E+03 4.67670E+03 6.75727E+01
 -1       216 2.70504E+03 4.98580E+03 2.89337E+01
 -1       222 4.01214E+02 7.38292E+02-3.45608E-11
 -1       228 9.30060E+02 1.71144E+03-1.03803E-10
 -1       234 1.43458E+03 2.63983E+03-1.95740E-10
 -1       240 1.88549E+03 3.46957E+03-2.91948E-10
 -1       246 2.25976E+03 4.15828E+03-3.80624E-10
 -1       252 2.53348E+03 4.66196E+03-4.48381E-10
 -1       258 2.71832E+03 5.00209E+03-4.93856E-10
 -1       340 1.89665E+03 3.47602E+03 9.99735E+01
 -1       355 1.87494E+03 3.46423E+03 3.37965E+02
 -1       370 1.87494E+03 3.46423E+03-3.37965E+02
 -1       385 1.89665E+03 3.47602E+03-9.99735E+01
 -1       417 1.88901E+03 3.46522E+03 2.19969E+02
 -1       446 1.88313E+03 3.47605E+03-1.19539E+02
 -1       475 1.88901E+03 3.46522E+03-2.19969E+02
 -1       504 1.88313E+03 3.47605E+03 1.19539E+02
 -1       540 1.88549E+03 3.46957E+03-2.91948E-10
 -3
    1PSTEP                         4           1           2          
    1PGM                1.000000E+00                                  
    1PGK                7.413272E+11                                  
    1PHID                         -1                                  
    1PSUBC                         0                                  
    1PMODE                         3                                  
  100CL  104 137032.9829          90                     2    4MODAL      1
 -4  DISP        4    1
 -5  D1          1    2    1    0
 -5  D2          1    2    2    0
 -5  D3          1    2    3    0
 -5  ALL         1    2    0    0    1ALL
 -1         1 0.00000E+00 0.00000E+00 0.00000E+00
 -1         2 0.00000E+00 0.00000E+00 0.00000E+00
 -1         3 0.00000E+00 0.00000E+00 0.00000E+00
 -1         4 0.00000E+00 0.00000E+00 0.00000E+00
 -1         5-7.74965E+03 7.74965E+03 6.51994E-11
 -1         6-7.74965E+03-7.74965E+03 9.95840E-10
 -1         7 7.74965E+03-7.74965E+03-7.93818E-11
 -1         8 7.74965E+03 7.74965E+03-1.01107E-09
 -1        10 0.00000E+00 0.00000E+00 0.00000E+00
 -1        13 0.00000E+00 0.00000E+00 0.00000E+00
 -1        16 0.00000E+00 0.00000E+00 0.00000E+00
 -1        19 0.00000E+00 0.00000E+00 0.00000E+00
 -1        22-8.05540E+03-7.06791E-10 5.59954E-10
 -1        25 7.30154E-10-8.05540E+03 4.85869E-10
 -1        28 8.05540E+03-1.37993E-09-5.77812E-10
 -1        31 1.38895E-09 8.05540E+03-5.00037E-10
 -1        34-1.42382E+03-1.42382E+03 1.21474E-10
 -1        36-2.66877E+03-2.66877E+03 3.25599E-10
 -1        38-3.81085E+03-3.81085E+03 5.73436E-10
 -1        40-4.80968E+03-4.80968E+03 8.10132E-10
 -1        42-5.68510E+03-5.68510E+03 1.00556E-09
 -1        44-6.17751E+03-6.17751E+03 1.07684E-09
 -1        46-7.09332E+03-7.09332E+03 1.06920E-09
 -1        49-7.09332E+03 7.09332E+03 5.95008E-11
 -1        51-6.17751E+03 6.17751E+03 4.93969E-11
 -1        53-5.68510E+03 5.68510E+03 3.84262E-11
 -1        55-4.80968E+03 4.80968E+03 3.04681E-11
 -1        57-3.81085E+03 3.81085E+03 2.06910E-11
 -1        59-2.66877E+03 2.66877E+03 1.40972E-11
 -1        61-1.42382E+03 1.42382E+03 8.41283E-12
 -1        64 1.42382E+03-1.42382E+03-1.18803E-11
 -1        66 2.66877E+03-2.66877E+03-1.93268E-11
 -1        68 3.81085E+03-3.81085E+03-2.77396E-11
 -1        70 4.80968E+03-4.80968E+03-3.97904E-11
 -1        72 5.68510E+03-5.68510E+03-4.95675E-11
 -1        74 6.17751E+03-6.17751E+03-5.96856E-11
 -1        76 7.09332E+03-7.09332E+03-7.26459E-11
 -1        79 1.42382E+03 1.42382E+03-1.24260E-10
 -1        81 2.66877E+03 2.66877E+03-3.32193E-10
 -1        83 3.81085E+03 3.81085E+03-5.82531E-10
 -1        85 4.80968E+03 4.80968E+03-8.19909E-10
 -1        87 5.68510E+03 5.68510E+03-1.01659E-09
 -1        89 6.17751E+03 6.17751E+03-1.08662E-09
 -1        91 7.09332E+03 7.09332E+03-1.08133E-09
 -1        95 0.00000E+00 0.00000E+00 0.00000E+00
 -1       100-1.09338E-10 3.06500E-10-8.05045E-12
 -1       105-1.41623E+03 7.98934E-11 6.69615E-11
 -1       109-2.66881E+03 1.98156E-10 1.69848E-10
 -1       113-3.80884E+03 3.19801E-10 2.97860E-10
 -1       117-4.82531E+03 4.27235E-10 4.22233E-10
 -1       121-5.61047E+03 5.11591E-10 5.15683E-10
 -1       125-6.47550E+03 5.43082E-10 5.90976E-10
 -1       129-6.13105E+03 6.28916E-10 4.89337E-10
 -1       134-4.43379E-11-1.41623E+03 5.65592E-11
 -1       138-1.17325E-10-2.66881E+03 1.52795E-10
 -1       142-1.93268E-10-3.80884E+03 2.73303E-10
 -1       146-2.68528E-10-4.82531E+03 3.87445E-10
 -1       150-3.30601E-10-5.61047E+03 4.72369E-10
 -1       154-3.35262E-10-6.47550E+03 5.33959E-10
 -1       158-4.20869E-10-6.13105E+03 4.31420E-10
 -1       163 1.41623E+03 5.51665E-11-6.98037E-11
 -1       167 2.66881E+03 1.08798E-10-1.75305E-10
 -1       171 3.80884E+03 1.35515E-10-3.05363E-10
 -1       175 4.82531E+03 1.26192E-10-4.31100E-10
 -1       179 5.61047E+03 9.77707E-11-5.26370E-10
 -1       183 6.47550E+03 2.25100E-11-6.01062E-10
 -1       187 6.13105E+03 2.95586E-11-5.01473E-10
 -1       192-2.04636E-11 1.41623E+03-5.88898E-11
 -1       196-2.81943E-11 2.66881E+03-1.59162E-10
 -1       200-8.41283E-12 3.80884E+03-2.80579E-10
 -1       204 2.95586E-11 4.82531E+03-3.97677E-10
 -1       208 8.95852E-11 5.61047E+03-4.82260E-10
 -1       212 1.75987E-10 6.47550E+03-5.42855E-10
 -1       216 1.90937E-10 6.13105E+03-4.44452E-10
 -1       222-1.93268E-11 5.22391E-11-1.13687E-12
 -1       228-6.23004E-11 1.39948E-10-2.95586E-12
 -1       234-8.75389E-11 2.12708E-10-4.54747E-12
 -1       240-1.09821E-10 2.66255E-10-3.63798E-12
 -1       246-1.22100E-10 3.04453E-10-5.45697E-12
 -1       252-9.33369E-11 2.95586E-10-4.94538E-12
 -1       258 3.05818E-11 1.54159E-10-6.22613E-12
 -1       340-4.80968E+03-4.80968E+03 8.10132E-10
 -1       355-4.80968E+03 4.80968E+03 3.04681E-11
 -1       370 4.80968E+03-4.80968E+03-3.97904E-11
 -1       385 4.80968E+03 4.80968E+03-8.19909E-10
 -1       417-4.82531E+03 4.27235E-10 4.22233E-10
 -1       446-2.68528E-10-4.82531E+03 3.87445E-10
 -1       475 4.82531E+03 1.26192E-10-4.31100E-10
 -1       504 2.95586E-11 4.82531E+03-3.97677E-10
 -1       540-1.09821E-10 2.66255E-10-3.63798E-12
 -3
    1PSTEP                         5           1           2          
    1PGM                1.000000E+00                                  
    1PGK                2.798655E+12                                  
    1PHID                         -1                                  
    1PSUBC                         0                                  
    1PMODE                         4                                  
  100CL  105 266253.1736          90                     2    5MODAL      1
 -4  DISP        4    1
 -5  D1          1    2    1    0