<?xml version="1.0"?>
<VTKFile type="UnstructuredGrid" version="0.1" byte_order="LittleEndian">
	<UnstructuredGrid>
		<Piece NumberOfPoints="81" NumberOfCells="32">
			<Points>
				<DataArray type="Float64" NumberOfComponents="3" format="ascii">
					 0.00000000E+00	 0.00000000E+00	 0.00000000E+00
					 1.00000000E+00	 0.00000000E+00	 0.00000000E+00
					 1.00000000E+00	 1.00000000E+00	 0.00000000E+00
					 0.00000000E+00	 1.00000000E+00	 0.00000000E+00
					 0.00000000E+00	 0.00000000E+00	 8.00000000E+00
					 1.00000000E+00	 0.00000000E+00	 8.00000000E+00
					 1.00000000E+00	 1.00000000E+00	 8.00000000E+00
					 0.00000000E+00	 1.00000000E+00	 8.00000000E+00
					 5.00000000E-01	 0.00000000E+00	 0.00000000E+00
					 1.00000000E+00	 5.00000000E-01	 0.00000000E+00
					 5.00000000E-01	 1.00000000E+00	 0.00000000E+00
					 0.00000000E+00	 5.00000000E-01	 0.00000000E+00
					 5.00000000E-01	 0.00000000E+00	 8.00000000E+00
					 1.00000000E+00	 5.00000000E-01	 8.00000000E+00
					 5.00000000E-01	 1.00000000E+00	 8.00000000E+00
					 0.00000000E+00	 5.00000000E-01	 8.00000000E+00
					 1.00000000E+00	 0.00000000E+00	 1.00000000E+00
					 1.00000000E+00	 0.00000000E+00	 2.00000000E+00
					 1.00000000E+00	 0.00000000E+00	 3.00000000E+00
					 1.00000000E+00	 0.00000000E+00	 4.00000000E+00
					 1.00000000E+00	 0.00000000E+00	 5.00000000E+00
					 1.00000000E+00	 0.00000000E+00	 6.00000000E+00
					 1.00000000E+00	 0.00000000E+00	 7.00000000E+00
					 0.00000000E+00	 0.00000000E+00	 7.00000000E+00
					 0.00000000E+00	 0.00000000E+00	 6.00000000E+00
					 0.00000000E+00	 0.00000000E+00	 5.00000000E+00
					 0.00000000E+00	 0.00000000E+00	 4.00000000E+00
					 0.00000000E+00	 0.00000000E+00	 3.00000000E+00
					 0.00000000E+00	 0.00000000E+00	 2.00000000E+00
					 0.00000000E+00	 0.00000000E+00	 1.00000000E+00
					 1.00000000E+00	 1.00000000E+00	 1.00000000E+00
					 1.00000000E+00	 1.00000000E+00	 2.00000000E+00
					 1.00000000E+00	 1.00000000E+00	 3.00000000E+00
					 1.00000000E+00	 1.00000000E+00	 4.00000000E+00
					 1.00000000E+00	 1.00000000E+00	 5.00000000E+00
					 1.00000000E+00	 1.00000000E+00	 6.00000000E+00
					 1.00000000E+00	 1.00000000E+00	 7.00000000E+00
					 0.00000000E+00	 1.00000000E+00	 1.00000000E+00
					 0.00000000E+00	 1.00000000E+00	 2.00000000E+00
					 0.00000000E+00	 1.00000000E+00	 3.00000000E+00
					 0.00000000E+00	 1.00000000E+00	 4.00000000E+00
					 0.00000000E+00	 1.00000000E+00	 5.00000000E+00
					 0.00000000E+00	 1.00000000E+00	 6.00000000E+00
					 0.00000000E+00	 1.00000000E+00	 7.00000000E+00
					 5.00000000E-01	 5.00000000E-01	 0.00000000E+00
					 5.00000000E-01	 5.00000000E-01	 8.00000000E+00
					 5.00000000E-01	 0.00000000E+00	 1.00000000E+00
					 5.00000000E-01	 0.00000000E+00	 2.00000000E+00
					 5.00000000E-01	 0.00000000E+00	 3.00000000E+00
					 5.00000000E-01	 0.00000000E+00	 4.00000000E+00
					 5.00000000E-01	 0.00000000E+00	 5.00000000E+00
					 5.00000000E-01	 0.00000000E+00	 6.00000000E+00
					 5.00000000E-01	 0.00000000E+00	 7.00000000E+00
					 1.00000000E+00	 5.00000000E-01	 1.00000000E+00
					 1.00000000E+00	 5.00000000E-01	 2.00000000E+00
					 1.00000000E+00	 5.00000000E-01	 3.00000000E+00
					 1.00000000E+00	 5.00000000E-01	 4.00000000E+00
					 1.00000000E+00	 5.00000000E-01	 5.00000000E+00
					 1.00000000E+00	 5.00000000E-01	 6.00000000E+00
					 1.00000000E+00	 5.00000000E-01	 7.00000000E+00
					 5.00000000E-01	 1.00000000E+00	 1.00000000E+00
					 5.00000000E-01	 1.00000000E+00	 2.00000000E+00
					 5.00000000E-01	 1.00000000E+00	 3.00000000E+00
					 5.00000000E-01	 1.00000000E+00	 4.00000000E+00
					 5.00000000E-01	 1.00000000E+00	 5.00000000E+00
					 5.00000000E-01	 1.00000000E+00	 6.00000000E+00
					 5.00000000E-01	 1.00000000E+00	 7.00000000E+00
					 0.00000000E+00	 5.00000000E-01	 1.00000000E+00
					 0.00000000E+00	 5.00000000E-01	 2.00000000E+00
					 0.00000000E+00	 5.00000000E-01	 3.00000000E+00
					 0.00000000E+00	 5.00000000E-01	 4.00000000E+00
					 0.00000000E+00	 5.00000000E-01	 5.00000000E+00
					 0.00000000E+00	 5.00000000E-01	 6.00000000E+00
					 0.00000000E+00	 5.00000000E-01	 7.00000000E+00
					 5.00000000E-01	 5.00000000E-01	 1.00000000E+00
					 5.00000000E-01	 5.00000000E-01	 2.00000000E+00
					 5.00000000E-01	 5.00000000E-01	 3.00000000E+00
					 5.00000000E-01	 5.00000000E-01	 4.00000000E+00
					 5.00000000E-01	 5.00000000E-01	 5.00000000E+00
					 5.00000000E-01	 5.00000000E-01	 6.00000000E+00
					 5.00000000E-01	 5.00000000E-01	 7.00000000E+00

				</DataArray>
			</Points>
			<Cells>
				<DataArray type="Int32" Name="connectivity" format="ascii">
					0 8 44 11 29 46 74 67 8 1 9 44 46 16 53 74 11 44 10 3 67 74 60 37 44 9 2 10 74 53 30 60 29 46 74 67 28 47 75 68 46 16 53 74 47 17 54 75 67 74 60 37 68 75 61 38 74 53 30 60 75 54 31 61 28 47 75 68 27 48 76 69 47 17 54 75 48 18 55 76 68 75 61 38 69 76 62 39 75 54 31 61 76 55 32 62 27 48 76 69 26 49 77 70 48 18 55 76 49 19 56 77 69 76 62 39 70 77 63 40 76 55 32 62 77 56 33 63 26 49 77 70 25 50 78 71 49 19 56 77 50 20 57 78 70 77 63 40 71 78 64 41 77 56 33 63 78 57 34 64 25 50 78 71 24 51 79 72 50 20 57 78 51 21 58 79 71 78 64 41 72 79 65 42 78 57 34 64 79 58 35 65 24 51 79 72 23 52 80 73 51 21 58 79 52 22 59 80 72 79 65 42 73 80 66 43 79 58 35 65 80 59 36 66 23 52 80 73 4 12 45 15 52 22 59 80 12 5 13 45 73 80 66 43 15 45 14 7 80 59 36 66 45 13 6 14 
				</DataArray>
				<DataArray type="Int32" Name="offsets" format="ascii">
					8 16 24 32 40 48 56 64 72 80 88 96 104 112 120 128 136 144 152 160 168 176 184 192 200 208 216 224 232 240 248 256 
				</DataArray>
				<DataArray type="UInt8" Name="types" format="ascii">
					12 12 12 12 12 12 12 12 12 12 12 12 12 12 12 12 12 12 12 12 12 12 12 12 12 12 12 12 12 12 12 12 
				</DataArray>
			</Cells>
			<PointData>
				<DataArray type="Float32" Name="U" NumberOfComponents="3" ComponentName0="D1" ComponentName1="D2" ComponentName2="D3" format="ascii">
					 0.00000000E+00	 0.00000000E+00	 0.00000000E+00
					 0.00000000E+00	 0.00000000E+00	 0.00000000E+00
					 0.00000000E+00	 0.00000000E+00	 0.00000000E+00
					 0.00000000E+00	 0.00000000E+00	 0.00000000E+00
					 1.01656000E+04	-1.01656000E+04	 0.00000000E+00
					 1.01656000E+04	 1.01656000E+04	-1.33014000E-09
					-1.01656000E+04	 1.01656000E+04	 0.00000000E+00
					-1.01656000E+04	-1.01656000E+04	 1.51977000E-09
					 0.00000000E+00	 0.00000000E+00	 0.00000000E+00
					 0.00000000E+00	 0.00000000E+00	 0.00000000E+00
					 0.00000000E+00	 0.00000000E+00	 0.00000000E+00
					 0.00000000E+00	 0.00000000E+00	 0.00000000E+00
					 1.07624000E+04	 0.00000000E+00	 0.00000000E+00
					 0.00000000E+00	 1.07624000E+04	 0.00000000E+00
					-1.07624000E+04	 0.00000000E+00	 0.00000000E+00
					 0.00000000E+00	-1.07624000E+04	 0.00000000E+00
					 6.00276000E+03	 6.00276000E+03	 0.00000000E+00
					 6.66482000E+03	 6.66482000E+03	 0.00000000E+00
					 1.83330000E+03	 1.83330000E+03	 0.00000000E+00
					-4.50691000E+03	-4.50691000E+03	 0.00000000E+00
					-7.12176000E+03	-7.12176000E+03	 1.02409000E-09
					-4.03870000E+03	-4.03870000E+03	 0.00000000E+00
					 2.61438000E+03	 2.61438000E+03	 0.00000000E+00
					 2.61438000E+03	-2.61438000E+03	 0.00000000E+00
					-4.03870000E+03	 4.03870000E+03	 0.00000000E+00
					-7.12176000E+03	 7.12176000E+03	 0.00000000E+00
					-4.50691000E+03	 4.50691000E+03	 0.00000000E+00
					 1.83330000E+03	-1.83330000E+03	 0.00000000E+00
					 6.66482000E+03	-6.66482000E+03	 0.00000000E+00
					 6.00276000E+03	-6.00276000E+03	 0.00000000E+00
					-6.00276000E+03	 6.00276000E+03	 0.00000000E+00
					-6.66482000E+03	 6.66482000E+03	 0.00000000E+00
					-1.83330000E+03	 1.83330000E+03	 0.00000000E+00
					 4.50691000E+03	-4.50691000E+03	 0.00000000E+00
					 7.12176000E+03	-7.12176000E+03	 0.00000000E+00
					 4.03870000E+03	-4.03870000E+03	 0.00000000E+00
					-2.61438000E+03	 2.61438000E+03	 0.00000000E+00
					-6.00276000E+03	-6.00276000E+03	 0.00000000E+00
					-6.66482000E+03	-6.66482000E+03	 0.00000000E+00
					-1.83330000E+03	-1.83330000E+03	 0.00000000E+00
					 4.50691000E+03	 4.50691000E+03	-1.02568000E-09
					 7.12176000E+03	 7.12176000E+03	-1.08750000E-09
					 4.03870000E+03	 4.03870000E+03	 0.00000000E+00
					-2.61438000E+03	-2.61438000E+03	 0.00000000E+00
					 0.00000000E+00	 0.00000000E+00	 0.00000000E+00
					 0.00000000E+00	 0.00000000E+00	 0.00000000E+00
					 5.94938000E+03	 0.00000000E+00	 0.00000000E+00
					 6.67224000E+03	 0.00000000E+00	 0.00000000E+00
					 1.83299000E+03	 0.00000000E+00	 0.00000000E+00
					-4.49994000E+03	 0.00000000E+00	 0.00000000E+00
					-7.16306000E+03	 0.00000000E+00	 0.00000000E+00
					-3.82670000E+03	 0.00000000E+00	 0.00000000E+00
					 1.59466000E+03	 0.00000000E+00	 0.00000000E+00
					 0.00000000E+00	 5.94938000E+03	 0.00000000E+00
					 0.00000000E+00	 6.67224000E+03	 0.00000000E+00
					 0.00000000E+00	 1.83299000E+03	 0.00000000E+00
					 0.00000000E+00	-4.49994000E+03	 0.00000000E+00
					 0.00000000E+00	-7.16306000E+03	 0.00000000E+00
					 0.00000000E+00	-3.82670000E+03	 0.00000000E+00
					 0.00000000E+00	 1.59466000E+03	 0.00000000E+00
					-5.94938000E+03	 0.00000000E+00	 0.00000000E+00
					-6.67224000E+03	 0.00000000E+00	 0.00000000E+00
					-1.83299000E+03	 0.00000000E+00	 0.00000000E+00
					 4.49994000E+03	 0.00000000E+00	 0.00000000E+00
					 7.16306000E+03	 0.00000000E+00	 0.00000000E+00
					 3.82670000E+03	 0.00000000E+00	 0.00000000E+00
					-1.59466000E+03	 0.00000000E+00	 0.00000000E+00
					 0.00000000E+00	-5.94938000E+03	 0.00000000E+00
					 0.00000000E+00	-6.67224000E+03	 0.00000000E+00
					 0.00000000E+00	-1.83299000E+03	 0.00000000E+00
					 0.00000000E+00	 4.49994000E+03	 0.00000000E+00
					 0.00000000E+00	 7.16306000E+03	 0.00000000E+00
					 0.00000000E+00	 3.82670000E+03	 0.00000000E+00
					 0.00000000E+00	-1.59466000E+03	 0.00000000E+00
					 0.00000000E+00	 0.00000000E+00	 0.00000000E+00
					 0.00000000E+00	 0.00000000E+00	 0.00000000E+00
					 0.00000000E+00	 0.00000000E+00	 0.00000000E+00
					 0.00000000E+00	 0.00000000E+00	 0.00000000E+00
					 0.00000000E+00	 0.00000000E+00	 0.00000000E+00
					 0.00000000E+00	 0.00000000E+00	 0.00000000E+00
					 0.00000000E+00	 0.00000000E+00	 0.00000000E+00
				</DataArray>
			</PointData>
		</Piece>
	</UnstructuredGrid>
</VTKFile>