<?xml version="1.0"?>
<VTKFile type="UnstructuredGrid" version="0.1" byte_order="LittleEndian">
	<UnstructuredGrid>
		<Piece NumberOfPoints="261" NumberOfCells="32">
			<Points>
				<DataArray type="Float64" NumberOfComponents="3" format="ascii">
					 0.00000000E+00	 0.00000000E+00	 0.00000000E+00
					 1.00000000E+00	 0.00000000E+00	 0.00000000E+00
					 1.00000000E+00	 1.00000000E+00	 0.00000000E+00
					 0.00000000E+00	 1.00000000E+00	 0.00000000E+00
					 0.00000000E+00	 0.00000000E+00	 8.00000000E+00
					 1.00000000E+00	 0.00000000E+00	 8.00000000E+00
					 1.00000000E+00	 1.00000000E+00	 8.00000000E+00
					 0.00000000E+00	 1.00000000E+00	 8.00000000E+00
					 2.50000000E-01	 0.00000000E+00	 0.00000000E+00
					 5.00000000E-01	 0.00000000E+00	 0.00000000E+00
					 7.50000000E-01	 0.00000000E+00	 0.00000000E+00
					 1.00000000E+00	 2.50000000E-01	 0.00000000E+00
					 1.00000000E+00	 5.00000000E-01	 0.00000000E+00
					 1.00000000E+00	 7.50000000E-01	 0.00000000E+00
					 7.50000000E-01	 1.00000000E+00	 0.00000000E+00
					 5.00000000E-01	 1.00000000E+00	 0.00000000E+00
					 2.50000000E-01	 1.00000000E+00	 0.00000000E+00
					 0.00000000E+00	 7.50000000E-01	 0.00000000E+00
					 0.00000000E+00	 5.00000000E-01	 0.00000000E+00
					 0.00000000E+00	 2.50000000E-01	 0.00000000E+00
					 2.50000000E-01	 0.00000000E+00	 8.00000000E+00
					 5.00000000E-01	 0.00000000E+00	 8.00000000E+00
					 7.50000000E-01	 0.00000000E+00	 8.00000000E+00
					 1.00000000E+00	 2.50000000E-01	 8.00000000E+00
					 1.00000000E+00	 5.00000000E-01	 8.00000000E+00
					 1.00000000E+00	 7.50000000E-01	 8.00000000E+00
					 7.50000000E-01	 1.00000000E+00	 8.00000000E+00
					 5.00000000E-01	 1.00000000E+00	 8.00000000E+00
					 2.50000000E-01	 1.00000000E+00	 8.00000000E+00
					 0.00000000E+00	 7.50000000E-01	 8.00000000E+00
					 0.00000000E+00	 5.00000000E-01	 8.00000000E+00
					 0.00000000E+00	 2.50000000E-01	 8.00000000E+00
					 1.00000000E+00	 0.00000000E+00	 5.00000000E-01
					 1.00000000E+00	 0.00000000E+00	 1.00000000E+00
					 1.00000000E+00	 0.00000000E+00	 1.50000000E+00
					 1.00000000E+00	 0.00000000E+00	 2.00000000E+00
					 1.00000000E+00	 0.00000000E+00	 2.50000000E+00
					 1.00000000E+00	 0.00000000E+00	 3.00000000E+00
					 1.00000000E+00	 0.00000000E+00	 3.50000000E+00
					 1.00000000E+00	 0.00000000E+00	 4.00000000E+00
					 1.00000000E+00	 0.00000000E+00	 4.50000000E+00
					 1.00000000E+00	 0.00000000E+00	 5.00000000E+00
					 1.00000000E+00	 0.00000000E+00	 5.50000000E+00
					 1.00000000E+00	 0.00000000E+00	 6.00000000E+00
					 1.00000000E+00	 0.00000000E+00	 6.50000000E+00
					 1.00000000E+00	 0.00000000E+00	 7.00000000E+00
					 1.00000000E+00	 0.00000000E+00	 7.50000000E+00
					 0.00000000E+00	 0.00000000E+00	 7.50000000E+00
					 0.00000000E+00	 0.00000000E+00	 7.00000000E+00
					 0.00000000E+00	 0.00000000E+00	 6.50000000E+00
					 0.00000000E+00	 0.00000000E+00	 6.00000000E+00
					 0.00000000E+00	 0.00000000E+00	 5.50000000E+00
					 0.00000000E+00	 0.00000000E+00	 5.00000000E+00
					 0.00000000E+00	 0.00000000E+00	 4.50000000E+00
					 0.00000000E+00	 0.00000000E+00	 4.00000000E+00
					 0.00000000E+00	 0.00000000E+00	 3.50000000E+00
					 0.00000000E+00	 0.00000000E+00	 3.00000000E+00
					 0.00000000E+00	 0.00000000E+00	 2.50000000E+00
					 0.00000000E+00	 0.00000000E+00	 2.00000000E+00
					 0.00000000E+00	 0.00000000E+00	 1.50000000E+00
					 0.00000000E+00	 0.00000000E+00	 1.00000000E+00
					 0.00000000E+00	 0.00000000E+00	 5.00000000E-01
					 1.00000000E+00	 1.00000000E+00	 5.00000000E-01
					 1.00000000E+00	 1.00000000E+00	 1.00000000E+00
					 1.00000000E+00	 1.00000000E+00	 1.50000000E+00
					 1.00000000E+00	 1.00000000E+00	 2.00000000E+00
					 1.00000000E+00	 1.00000000E+00	 2.50000000E+00
					 1.00000000E+00	 1.00000000E+00	 3.00000000E+00
					 1.00000000E+00	 1.00000000E+00	 3.50000000E+00
					 1.00000000E+00	 1.00000000E+00	 4.00000000E+00
					 1.00000000E+00	 1.00000000E+00	 4.50000000E+00
					 1.00000000E+00	 1.00000000E+00	 5.00000000E+00
					 1.00000000E+00	 1.00000000E+00	 5.50000000E+00
					 1.00000000E+00	 1.00000000E+00	 6.00000000E+00
					 1.00000000E+00	 1.00000000E+00	 6.50000000E+00
					 1.00000000E+00	 1.00000000E+00	 7.00000000E+00
					 1.00000000E+00	 1.00000000E+00	 7.50000000E+00
					 0.00000000E+00	 1.00000000E+00	 5.00000000E-01
					 0.00000000E+00	 1.00000000E+00	 1.00000000E+00
					 0.00000000E+00	 1.00000000E+00	 1.50000000E+00
					 0.00000000E+00	 1.00000000E+00	 2.00000000E+00
					 0.00000000E+00	 1.00000000E+00	 2.50000000E+00
					 0.00000000E+00	 1.00000000E+00	 3.00000000E+00
					 0.00000000E+00	 1.00000000E+00	 3.50000000E+00
					 0.00000000E+00	 1.00000000E+00	 4.00000000E+00
					 0.00000000E+00	 1.00000000E+00	 4.50000000E+00
					 0.00000000E+00	 1.00000000E+00	 5.00000000E+00
					 0.00000000E+00	 1.00000000E+00	 5.50000000E+00
					 0.00000000E+00	 1.00000000E+00	 6.00000000E+00
					 0.00000000E+00	 1.00000000E+00	 6.50000000E+00
					 0.00000000E+00	 1.00000000E+00	 7.00000000E+00
					 0.00000000E+00	 1.00000000E+00	 7.50000000E+00
					 5.00000000E-01	 2.50000000E-01	 0.00000000E+00
					 2.50000000E-01	 5.00000000E-01	 0.00000000E+00
					 5.00000000E-01	 5.00000000E-01	 0.00000000E+00
					 7.50000000E-01	 5.00000000E-01	 0.00000000E+00
					 5.00000000E-01	 7.50000000E-01	 0.00000000E+00
					 5.00000000E-01	 2.50000000E-01	 8.00000000E+00
					 2.50000000E-01	 5.00000000E-01	 8.00000000E+00
					 5.00000000E-01	 5.00000000E-01	 8.00000000E+00
					 7.50000000E-01	 5.00000000E-01	 8.00000000E+00
					 5.00000000E-01	 7.50000000E-01	 8.00000000E+00
					 5.00000000E-01	 0.00000000E+00	 5.00000000E-01
					 2.50000000E-01	 0.00000000E+00	 1.00000000E+00
					 5.00000000E-01	 0.00000000E+00	 1.00000000E+00
					 7.50000000E-01	 0.00000000E+00	 1.00000000E+00
					 5.00000000E-01	 0.00000000E+00	 1.50000000E+00
					 2.50000000E-01	 0.00000000E+00	 2.00000000E+00
					 5.00000000E-01	 0.00000000E+00	 2.00000000E+00
					 7.50000000E-01	 0.00000000E+00	 2.00000000E+00
					 5.00000000E-01	 0.00000000E+00	 2.50000000E+00
					 2.50000000E-01	 0.00000000E+00	 3.00000000E+00
					 5.00000000E-01	 0.00000000E+00	 3.00000000E+00
					 7.50000000E-01	 0.00000000E+00	 3.00000000E+00
					 5.00000000E-01	 0.00000000E+00	 3.50000000E+00
					 2.50000000E-01	 0.00000000E+00	 4.00000000E+00
					 5.00000000E-01	 0.00000000E+00	 4.00000000E+00
					 7.50000000E-01	 0.00000000E+00	 4.00000000E+00
					 5.00000000E-01	 0.00000000E+00	 4.50000000E+00
					 2.50000000E-01	 0.00000000E+00	 5.00000000E+00
					 5.00000000E-01	 0.00000000E+00	 5.00000000E+00
					 7.50000000E-01	 0.00000000E+00	 5.00000000E+00
					 5.00000000E-01	 0.00000000E+00	 5.50000000E+00
					 2.50000000E-01	 0.00000000E+00	 6.00000000E+00
					 5.00000000E-01	 0.00000000E+00	 6.00000000E+00
					 7.50000000E-01	 0.00000000E+00	 6.00000000E+00
					 5.00000000E-01	 0.00000000E+00	 6.50000000E+00
					 2.50000000E-01	 0.00000000E+00	 7.00000000E+00
					 5.00000000E-01	 0.00000000E+00	 7.00000000E+00
					 7.50000000E-01	 0.00000000E+00	 7.00000000E+00
					 5.00000000E-01	 0.00000000E+00	 7.50000000E+00
					 1.00000000E+00	 5.00000000E-01	 5.00000000E-01
					 1.00000000E+00	 2.50000000E-01	 1.00000000E+00
					 1.00000000E+00	 5.00000000E-01	 1.00000000E+00
					 1.00000000E+00	 7.50000000E-01	 1.00000000E+00
					 1.00000000E+00	 5.00000000E-01	 1.50000000E+00
					 1.00000000E+00	 2.50000000E-01	 2.00000000E+00
					 1.00000000E+00	 5.00000000E-01	 2.00000000E+00
					 1.00000000E+00	 7.50000000E-01	 2.00000000E+00
					 1.00000000E+00	 5.00000000E-01	 2.50000000E+00
					 1.00000000E+00	 2.50000000E-01	 3.00000000E+00
					 1.00000000E+00	 5.00000000E-01	 3.00000000E+00
					 1.00000000E+00	 7.50000000E-01	 3.00000000E+00
					 1.00000000E+00	 5.00000000E-01	 3.50000000E+00
					 1.00000000E+00	 2.50000000E-01	 4.00000000E+00
					 1.00000000E+00	 5.00000000E-01	 4.00000000E+00
					 1.00000000E+00	 7.50000000E-01	 4.00000000E+00
					 1.00000000E+00	 5.00000000E-01	 4.50000000E+00
					 1.00000000E+00	 2.50000000E-01	 5.00000000E+00
					 1.00000000E+00	 5.00000000E-01	 5.00000000E+00
					 1.00000000E+00	 7.50000000E-01	 5.00000000E+00
					 1.00000000E+00	 5.00000000E-01	 5.50000000E+00
					 1.00000000E+00	 2.50000000E-01	 6.00000000E+00
					 1.00000000E+00	 5.00000000E-01	 6.00000000E+00
					 1.00000000E+00	 7.50000000E-01	 6.00000000E+00
					 1.00000000E+00	 5.00000000E-01	 6.50000000E+00
					 1.00000000E+00	 2.50000000E-01	 7.00000000E+00
					 1.00000000E+00	 5.00000000E-01	 7.00000000E+00
					 1.00000000E+00	 7.50000000E-01	 7.00000000E+00
					 1.00000000E+00	 5.00000000E-01	 7.50000000E+00
					 5.00000000E-01	 1.00000000E+00	 5.00000000E-01
					 7.50000000E-01	 1.00000000E+00	 1.00000000E+00
					 5.00000000E-01	 1.00000000E+00	 1.00000000E+00
					 2.50000000E-01	 1.00000000E+00	 1.00000000E+00
					 5.00000000E-01	 1.00000000E+00	 1.50000000E+00
					 7.50000000E-01	 1.00000000E+00	 2.00000000E+00
					 5.00000000E-01	 1.00000000E+00	 2.00000000E+00
					 2.50000000E-01	 1.00000000E+00	 2.00000000E+00
					 5.00000000E-01	 1.00000000E+00	 2.50000000E+00
					 7.50000000E-01	 1.00000000E+00	 3.00000000E+00
					 5.00000000E-01	 1.00000000E+00	 3.00000000E+00
					 2.50000000E-01	 1.00000000E+00	 3.00000000E+00
					 5.00000000E-01	 1.00000000E+00	 3.50000000E+00
					 7.50000000E-01	 1.00000000E+00	 4.00000000E+00
					 5.00000000E-01	 1.00000000E+00	 4.00000000E+00
					 2.50000000E-01	 1.00000000E+00	 4.00000000E+00
					 5.00000000E-01	 1.00000000E+00	 4.50000000E+00
					 7.50000000E-01	 1.00000000E+00	 5.00000000E+00
					 5.00000000E-01	 1.00000000E+00	 5.00000000E+00
					 2.50000000E-01	 1.00000000E+00	 5.00000000E+00
					 5.00000000E-01	 1.00000000E+00	 5.50000000E+00
					 7.50000000E-01	 1.00000000E+00	 6.00000000E+00
					 5.00000000E-01	 1.00000000E+00	 6.00000000E+00
					 2.50000000E-01	 1.00000000E+00	 6.00000000E+00
					 5.00000000E-01	 1.00000000E+00	 6.50000000E+00
					 7.50000000E-01	 1.00000000E+00	 7.00000000E+00
					 5.00000000E-01	 1.00000000E+00	 7.00000000E+00
					 2.50000000E-01	 1.00000000E+00	 7.00000000E+00
					 5.00000000E-01	 1.00000000E+00	 7.50000000E+00
					 0.00000000E+00	 5.00000000E-01	 5.00000000E-01
					 0.00000000E+00	 7.50000000E-01	 1.00000000E+00
					 0.00000000E+00	 5.00000000E-01	 1.00000000E+00
					 0.00000000E+00	 2.50000000E-01	 1.00000000E+00
					 0.00000000E+00	 5.00000000E-01	 1.50000000E+00
					 0.00000000E+00	 7.50000000E-01	 2.00000000E+00
					 0.00000000E+00	 5.00000000E-01	 2.00000000E+00
					 0.00000000E+00	 2.50000000E-01	 2.00000000E+00
					 0.00000000E+00	 5.00000000E-01	 2.50000000E+00
					 0.00000000E+00	 7.50000000E-01	 3.00000000E+00
					 0.00000000E+00	 5.00000000E-01	 3.00000000E+00
					 0.00000000E+00	 2.50000000E-01	 3.00000000E+00
					 0.00000000E+00	 5.00000000E-01	 3.50000000E+00
					 0.00000000E+00	 7.50000000E-01	 4.00000000E+00
					 0.00000000E+00	 5.00000000E-01	 4.00000000E+00
					 0.00000000E+00	 2.50000000E-01	 4.00000000E+00
					 0.00000000E+00	 5.00000000E-01	 4.50000000E+00
					 0.00000000E+00	 7.50000000E-01	 5.00000000E+00
					 0.00000000E+00	 5.00000000E-01	 5.00000000E+00
					 0.00000000E+00	 2.50000000E-01	 5.00000000E+00
					 0.00000000E+00	 5.00000000E-01	 5.50000000E+00
					 0.00000000E+00	 7.50000000E-01	 6.00000000E+00
					 0.00000000E+00	 5.00000000E-01	 6.00000000E+00
					 0.00000000E+00	 2.50000000E-01	 6.00000000E+00
					 0.00000000E+00	 5.00000000E-01	 6.50000000E+00
					 0.00000000E+00	 7.50000000E-01	 7.00000000E+00
					 0.00000000E+00	 5.00000000E-01	 7.00000000E+00
					 0.00000000E+00	 2.50000000E-01	 7.00000000E+00
					 0.00000000E+00	 5.00000000E-01	 7.50000000E+00
					 5.00000000E-01	 5.00000000E-01	 5.00000000E-01
					 5.00000000E-01	 2.50000000E-01	 1.00000000E+00
					 2.50000000E-01	 5.00000000E-01	 1.00000000E+00
					 5.00000000E-01	 5.00000000E-01	 1.00000000E+00
					 7.50000000E-01	 5.00000000E-01	 1.00000000E+00
					 5.00000000E-01	 7.50000000E-01	 1.00000000E+00
					 5.00000000E-01	 5.00000000E-01	 1.50000000E+00
					 5.00000000E-01	 2.50000000E-01	 2.00000000E+00
					 2.50000000E-01	 5.00000000E-01	 2.00000000E+00
					 5.00000000E-01	 5.00000000E-01	 2.00000000E+00
					 7.50000000E-01	 5.00000000E-01	 2.00000000E+00
					 5.00000000E-01	 7.50000000E-01	 2.00000000E+00
					 5.00000000E-01	 5.00000000E-01	 2.50000000E+00
					 5.00000000E-01	 2.50000000E-01	 3.00000000E+00
					 2.50000000E-01	 5.00000000E-01	 3.00000000E+00
					 5.00000000E-01	 5.00000000E-01	 3.00000000E+00
					 7.50000000E-01	 5.00000000E-01	 3.00000000E+00
					 5.00000000E-01	 7.50000000E-01	 3.00000000E+00
					 5.00000000E-01	 5.00000000E-01	 3.50000000E+00
					 5.00000000E-01	 2.50000000E-01	 4.00000000E+00
					 2.50000000E-01	 5.00000000E-01	 4.00000000E+00
					 5.00000000E-01	 5.00000000E-01	 4.00000000E+00
					 7.50000000E-01	 5.00000000E-01	 4.00000000E+00
					 5.00000000E-01	 7.50000000E-01	 4.00000000E+00
					 5.00000000E-01	 5.00000000E-01	 4.50000000E+00
					 5.00000000E-01	 2.50000000E-01	 5.00000000E+00
					 2.50000000E-01	 5.00000000E-01	 5.00000000E+00
					 5.00000000E-01	 5.00000000E-01	 5.00000000E+00
					 7.50000000E-01	 5.00000000E-01	 5.00000000E+00
					 5.00000000E-01	 7.50000000E-01	 5.00000000E+00
					 5.00000000E-01	 5.00000000E-01	 5.50000000E+00
					 5.00000000E-01	 2.50000000E-01	 6.00000000E+00
					 2.50000000E-01	 5.00000000E-01	 6.00000000E+00
					 5.00000000E-01	 5.00000000E-01	 6.00000000E+00
					 7.50000000E-01	 5.00000000E-01	 6.00000000E+00
					 5.00000000E-01	 7.50000000E-01	 6.00000000E+00
					 5.00000000E-01	 5.00000000E-01	 6.50000000E+00
					 5.00000000E-01	 2.50000000E-01	 7.00000000E+00
					 2.50000000E-01	 5.00000000E-01	 7.00000000E+00
					 5.00000000E-01	 5.00000000E-01	 7.00000000E+00
					 7.50000000E-01	 5.00000000E-01	 7.00000000E+00
					 5.00000000E-01	 7.50000000E-01	 7.00000000E+00
					 5.00000000E-01	 5.00000000E-01	 7.50000000E+00

				</DataArray>
			</Points>
			<Cells>
				<DataArray type="Int32" Name="connectivity" format="ascii">
					0 9 94 18 60 104 221 191 8 92 93 19 103 219 220 192 61 102 218 189 9 1 12 94 104 33 133 221 10 11 95 92 105 132 222 219 102 32 131 218 18 94 15 3 191 221 162 78 93 96 16 17 220 223 163 190 189 218 160 77 94 12 2 15 221 133 63 162 95 13 14 96 222 134 161 223 218 131 62 160 60 104 221 191 58 108 227 195 103 219 220 192 107 225 226 196 59 106 224 193 104 33 133 221 108 35 137 227 105 132 222 219 109 136 228 225 106 34 135 224 191 221 162 78 195 227 166 80 220 223 163 190 226 229 167 194 193 224 164 79 221 133 63 162 227 137 65 166 222 134 161 223 228 138 165 229 224 135 64 164 58 108 227 195 56 112 233 199 107 225 226 196 111 231 232 200 57 110 230 197 108 35 137 227 112 37 141 233 109 136 228 225 113 140 234 231 110 36 139 230 195 227 166 80 199 233 170 82 226 229 167 194 232 235 171 198 197 230 168 81 227 137 65 166 233 141 67 170 228 138 165 229 234 142 169 235 230 139 66 168 56 112 233 199 54 116 239 203 111 231 232 200 115 237 238 204 55 114 236 201 112 37 141 233 116 39 145 239 113 140 234 231 117 144 240 237 114 38 143 236 199 233 170 82 203 239 174 84 232 235 171 198 238 241 175 202 201 236 172 83 233 141 67 170 239 145 69 174 234 142 169 235 240 146 173 241 236 143 68 172 54 116 239 203 52 120 245 207 115 237 238 204 119 243 244 208 53 118 242 205 116 39 145 239 120 41 149 245 117 144 240 237 121 148 246 243 118 40 147 242 203 239 174 84 207 245 178 86 238 241 175 202 244 247 179 206 205 242 176 85 239 145 69 174 245 149 71 178 240 146 173 241 246 150 177 247 242 147 70 176 52 120 245 207 50 124 251 211 119 243 244 208 123 249 250 212 51 122 248 209 120 41 149 245 124 43 153 251 121 148 246 243 125 152 252 249 122 42 151 248 207 245 178 86 211 251 182 88 244 247 179 206 250 253 183 210 209 248 180 87 245 149 71 178 251 153 73 182 246 150 177 247 252 154 181 253 248 151 72 180 50 124 251 211 48 128 257 215 123 249 250 212 127 255 256 216 49 126 254 213 124 43 153 251 128 45 157 257 125 152 252 249 129 156 258 255 126 44 155 254 211 251 182 88 215 257 186 90 250 253 183 210 256 259 187 214 213 254 184 89 251 153 73 182 257 157 75 186 252 154 181 253 258 158 185 259 254 155 74 184 48 128 257 215 4 21 99 30 127 255 256 216 20 97 98 31 47 130 260 217 128 45 157 257 21 5 24 99 129 156 258 255 22 23 100 97 130 46 159 260 215 257 186 90 30 99 27 7 256 259 187 214 98 101 28 29 217 260 188 91 257 157 75 186 99 24 6 27 258 158 185 259 100 25 26 101 260 159 76 188 
				</DataArray>
				<DataArray type="Int32" Name="offsets" format="ascii">
					20 40 60 80 100 120 140 160 180 200 220 240 260 280 300 320 340 360 380 400 420 440 460 480 500 520 540 560 580 600 620 640 
				</DataArray>
				<DataArray type="UInt8" Name="types" format="ascii">
					25 25 25 25 25 25 25 25 25 25 25 25 25 25 25 25 25 25 25 25 25 25 25 25 25 25 25 25 25 25 25 25 
				</DataArray>
			</Cells>
			<PointData>
				<DataArray type="Float32" Name="U" NumberOfComponents="3" ComponentName0="D1" ComponentName1="D2" ComponentName2="D3" format="ascii">
					 0.00000000E+00	 0.00000000E+00	 0.00000000E+00
					 0.00000000E+00	 0.00000000E+00	 0.00000000E+00
					 0.00000000E+00	 0.00000000E+00	 0.00000000E+00
					 0.00000000E+00	 0.00000000E+00	 0.00000000E+00
					 3.49450000E-08	 5.24089000E-02	 4.42749000E-03
					-2.62134000E-05	 5.23948000E-02	 4.42923000E-03
					 1.43459000E-05	 5.23514000E-02	-4.80522000E-03
					-1.14781000E-05	 5.23662000E-02	-4.80666000E-03
					 0.00000000E+00	 0.00000000E+00	 0.00000000E+00
					 0.00000000E+00	 0.00000000E+00	 0.00000000E+00
					 0.00000000E+00	 0.00000000E+00	 0.00000000E+00
					 0.00000000E+00	 0.00000000E+00	 0.00000000E+00
					 0.00000000E+00	 0.00000000E+00	 0.00000000E+00
					 0.00000000E+00	 0.00000000E+00	 0.00000000E+00
					 0.00000000E+00	 0.00000000E+00	 0.00000000E+00
					 0.00000000E+00	 0.00000000E+00	 0.00000000E+00
					 0.00000000E+00	 0.00000000E+00	 0.00000000E+00
					 0.00000000E+00	 0.00000000E+00	 0.00000000E+00
					 0.00000000E+00	 0.00000000E+00	 0.00000000E+00
					 0.00000000E+00	 0.00000000E+00	 0.00000000E+00
					-8.87721000E-07	 5.24159000E-02	 4.42607000E-03
					-1.30643000E-05	 5.23593000E-02	 4.42245000E-03
					-2.52348000E-05	 5.24090000E-02	 4.42703000E-03
					-8.06405000E-06	 5.23699000E-02	 2.10944000E-03
					-5.40056000E-06	 5.23306000E-02	-1.88450000E-04
					-3.12896000E-06	 5.23486000E-02	-2.48579000E-03
					 1.34889000E-05	 5.23661000E-02	-4.80391000E-03
					 1.41107000E-06	 5.23173000E-02	-4.80012000E-03
					-1.06370000E-05	 5.23735000E-02	-4.80466000E-03
					-1.07053000E-06	 5.23629000E-02	-2.48664000E-03
					-6.01817000E-06	 5.23444000E-02	-1.89385000E-04
					-1.06932000E-05	 5.23840000E-02	 2.10805000E-03
					-2.09813000E-04	 3.73717000E-04	 6.30071000E-04
					-1.50294000E-04	 1.31998000E-03	 1.25250000E-03
					-1.66465000E-04	 2.94870000E-03	 1.82129000E-03
					-1.40906000E-04	 5.06936000E-03	 2.32599000E-03
					-1.28079000E-04	 7.69936000E-03	 2.75891000E-03
					-1.08738000E-04	 1.07152000E-02	 3.13222000E-03
					-9.44513000E-05	 1.40900000E-02	 3.44442000E-03
					-7.87549000E-05	 1.77533000E-02	 3.70165000E-03
					-6.45419000E-05	 2.16569000E-02	 3.90053000E-03
					-5.10834000E-05	 2.57477000E-02	 4.04988000E-03
					-4.28076000E-05	 2.99551000E-02	 4.15408000E-03
					-3.97998000E-05	 3.42717000E-02	 4.24123000E-03
					-4.22835000E-05	 3.86646000E-02	 4.31646000E-03
					-3.27789000E-05	 4.31964000E-02	 4.39159000E-03
					-3.05207000E-05	 4.77480000E-02	 4.42772000E-03
					 5.61037000E-06	 4.77623000E-02	 4.42638000E-03
					 8.98619000E-06	 4.32102000E-02	 4.39041000E-03
					 1.97107000E-05	 3.86782000E-02	 4.31523000E-03
					 1.83653000E-05	 3.42854000E-02	 4.24016000E-03
					 2.29223000E-05	 2.99680000E-02	 4.15308000E-03
					 3.34691000E-05	 2.57595000E-02	 4.04894000E-03
					 4.96039000E-05	 2.16668000E-02	 3.89961000E-03
					 6.63741000E-05	 1.77615000E-02	 3.70080000E-03
					 8.41072000E-05	 1.40969000E-02	 3.44360000E-03
					 9.98889000E-05	 1.07214000E-02	 3.13145000E-03
					 1.20481000E-04	 7.70503000E-03	 2.75818000E-03
					 1.34602000E-04	 5.07443000E-03	 2.32536000E-03
					 1.61584000E-04	 2.95289000E-03	 1.82081000E-03
					 1.47104000E-04	 1.32289000E-03	 1.25219000E-03
					 2.08328000E-04	 3.75104000E-04	 6.29932000E-04
					 2.09337000E-04	 3.71878000E-04	-6.28978000E-04
					 1.49511000E-04	 1.31591000E-03	-1.25193000E-03
					 1.65280000E-04	 2.94120000E-03	-1.82435000E-03
					 1.39175000E-04	 5.05757000E-03	-2.33644000E-03
					 1.25625000E-04	 7.68331000E-03	-2.78139000E-03
					 1.05519000E-04	 1.06946000E-02	-3.17112000E-03
					 9.04818000E-05	 1.40652000E-02	-3.50429000E-03
					 7.39904000E-05	 1.77246000E-02	-3.78657000E-03
					 5.90295000E-05	 2.16251000E-02	-4.01413000E-03
					 4.47577000E-05	 2.57131000E-02	-4.19535000E-03
					 3.57865000E-05	 2.99187000E-02	-4.33343000E-03
					 3.18390000E-05	 3.42332000E-02	-4.45649000E-03
					 3.37463000E-05	 3.86247000E-02	-4.56914000E-03
					 2.30967000E-05	 4.31542000E-02	-4.68422000E-03
					 1.96873000E-05	 4.77060000E-02	-4.76142000E-03
					-2.07950000E-04	 3.73365000E-04	-6.29122000E-04
					-1.46802000E-04	 1.31890000E-03	-1.25223000E-03
					-1.61675000E-04	 2.94549000E-03	-1.82483000E-03
					-1.35272000E-04	 5.06272000E-03	-2.33707000E-03
					-1.21832000E-04	 7.68901000E-03	-2.78211000E-03
					-1.01973000E-04	 1.07008000E-02	-3.17191000E-03
					-8.69760000E-05	 1.40721000E-02	-3.50510000E-03
					-7.00057000E-05	 1.77329000E-02	-3.78742000E-03
					-5.41323000E-05	 2.16349000E-02	-4.01498000E-03
					-3.87826000E-05	 2.57250000E-02	-4.19620000E-03
					-2.90403000E-05	 2.99319000E-02	-4.33437000E-03
					-2.52720000E-05	 3.42474000E-02	-4.45752000E-03
					-2.79566000E-05	 3.86386000E-02	-4.57001000E-03
					-1.83189000E-05	 4.31685000E-02	-4.68518000E-03
					-1.60408000E-05	 4.77198000E-02	-4.76255000E-03
					 0.00000000E+00	 0.00000000E+00	 0.00000000E+00
					 0.00000000E+00	 0.00000000E+00	 0.00000000E+00
					 0.00000000E+00	 0.00000000E+00	 0.00000000E+00
					 0.00000000E+00	 0.00000000E+00	 0.00000000E+00
					 0.00000000E+00	 0.00000000E+00	 0.00000000E+00
					-9.41036000E-06	 5.24715000E-02	 2.13067000E-03
					-5.82453000E-06	 5.24215000E-02	-1.89032000E-04
					-5.73166000E-06	 5.26100000E-02	-1.88928000E-04
					-5.62682000E-06	 5.24145000E-02	-1.88573000E-04
					-2.16036000E-06	 5.24500000E-02	-2.50900000E-03
					-7.60539000E-07	 4.63870000E-04	 6.12251000E-04
					 7.19811000E-05	 1.39455000E-03	 1.26126000E-03
					-1.58951000E-06	 1.40970000E-03	 1.27019000E-03
					-7.51556000E-05	 1.39310000E-03	 1.26114000E-03
					-2.40348000E-06	 3.02858000E-03	 1.82237000E-03
					 6.57326000E-05	 5.12648000E-03	 2.33117000E-03
					-3.14348000E-06	 5.14618000E-03	 2.33165000E-03
					-7.20266000E-05	 5.12395000E-03	 2.33139000E-03
					-3.78757000E-06	 7.76282000E-03	 2.76185000E-03
					 4.76663000E-05	 1.07598000E-02	 3.13535000E-03
					-4.43038000E-06	 1.07712000E-02	 3.13531000E-03
					-5.65187000E-05	 1.07567000E-02	 3.13566000E-03
					-5.18831000E-06	 1.41385000E-02	 3.44730000E-03
					 3.01500000E-05	 1.77853000E-02	 3.70421000E-03
					-6.20421000E-06	 1.77907000E-02	 3.70347000E-03
					-4.25403000E-05	 1.77812000E-02	 3.70439000E-03
					-7.46254000E-06	 2.16927000E-02	 3.90389000E-03
					 1.22143000E-05	 2.57666000E-02	 4.05113000E-03
					-8.80332000E-06	 2.57649000E-02	 4.04951000E-03
					-2.98283000E-05	 2.57608000E-02	 4.05132000E-03
					-9.88399000E-06	 2.99854000E-02	 4.15575000E-03
					 4.24758000E-06	 3.42843000E-02	 4.23645000E-03
					-1.06624000E-05	 3.42716000E-02	 4.23354000E-03
					-2.56253000E-05	 3.42776000E-02	 4.23694000E-03
					-1.12119000E-05	 3.87006000E-02	 4.32401000E-03
					-2.28131000E-06	 4.31811000E-02	 4.38765000E-03
					-1.18701000E-05	 4.31620000E-02	 4.38257000E-03
					-2.14903000E-05	 4.31743000E-02	 4.38830000E-03
					-1.23807000E-05	 4.78062000E-02	 4.43280000E-03
					-1.68577000E-07	 2.44748000E-04	 5.73174000E-07
					-7.59228000E-05	 1.26863000E-03	 6.18800000E-04
					-2.23313000E-07	 1.27627000E-03	 4.98055000E-07
					 7.53404000E-05	 1.26656000E-03	-6.17940000E-04
					-4.64594000E-07	 2.84931000E-03	-1.12852000E-06
					-7.06720000E-05	 5.02557000E-03	 1.14967000E-03
					-7.90233000E-07	 5.01369000E-03	-4.90686000E-06
					 6.90274000E-05	 5.01977000E-03	-1.15959000E-03
					-1.16508000E-06	 7.62369000E-03	-1.08141000E-05
					-5.52142000E-05	 1.06734000E-02	 1.54781000E-03
					-1.55812000E-06	 1.06591000E-02	-1.91210000E-05
					 5.20539000E-05	 1.06632000E-02	-1.58621000E-03
					-1.95401000E-06	 1.40318000E-02	-2.95838000E-05
					-4.05152000E-05	 1.77192000E-02	 1.82121000E-03
					-2.35304000E-06	 1.77029000E-02	-4.21468000E-05
					 3.57829000E-05	 1.77050000E-02	-1.90567000E-03
					-2.75751000E-06	 2.16132000E-02	-5.65701000E-05
					-2.73106000E-05	 2.57193000E-02	 1.98218000E-03
					-3.15182000E-06	 2.57014000E-02	-7.24657000E-05
					 2.09864000E-05	 2.57021000E-02	-2.12728000E-03
					-3.57446000E-06	 2.99252000E-02	-8.95828000E-05
					-2.14242000E-05	 3.42443000E-02	 2.06665000E-03
					-3.95531000E-06	 3.42231000E-02	-1.07350000E-04
					 1.34742000E-05	 3.42251000E-02	-2.28159000E-03
					-4.55400000E-06	 3.86388000E-02	-1.26337000E-04
					-2.06588000E-05	 4.31446000E-02	 2.12055000E-03
					-4.72249000E-06	 4.31032000E-02	-1.45764000E-04
					 1.09748000E-05	 4.31235000E-02	-2.41251000E-03
					-5.43538000E-06	 4.77750000E-02	-1.67104000E-04
					 7.43546000E-07	 4.62094000E-04	-6.11574000E-04
					 7.47166000E-05	 1.38890000E-03	-1.26111000E-03
					 1.36298000E-06	 1.40557000E-03	-1.27043000E-03
					-7.19927000E-05	 1.39040000E-03	-1.26154000E-03
					 1.79241000E-06	 3.02101000E-03	-1.82653000E-03
					 7.05908000E-05	 5.11210000E-03	-2.34271000E-03
					 1.95494000E-06	 5.13440000E-03	-2.34347000E-03
					-6.66774000E-05	 5.11467000E-03	-2.34310000E-03
					 1.90111000E-06	 7.74670000E-03	-2.78575000E-03
					 5.36003000E-05	 1.07360000E-02	-3.17547000E-03
					 1.78135000E-06	 1.07506000E-02	-3.17567000E-03
					-5.00463000E-05	 1.07391000E-02	-3.17593000E-03
					 1.77387000E-06	 1.41136000E-02	-3.50862000E-03
					 3.80637000E-05	 1.77524000E-02	-3.79011000E-03
					 2.00092000E-06	 1.77620000E-02	-3.78973000E-03
					-3.40731000E-05	 1.77566000E-02	-3.79077000E-03
					 2.45113000E-06	 2.16608000E-02	-4.01888000E-03
					 2.37489000E-05	 2.57262000E-02	-4.19740000E-03
					 2.97014000E-06	 2.57305000E-02	-4.19605000E-03
					-1.77868000E-05	 2.57321000E-02	-4.19812000E-03
					 3.32442000E-06	 2.99489000E-02	-4.33650000E-03
					 1.79162000E-05	 3.42395000E-02	-4.45271000E-03
					 3.22908000E-06	 3.42339000E-02	-4.44968000E-03
					-1.14026000E-05	 3.42465000E-02	-4.45324000E-03
					 2.85650000E-06	 3.86606000E-02	-4.57830000E-03
					 1.18885000E-05	 4.31330000E-02	-4.68123000E-03
					 2.33340000E-06	 4.31214000E-02	-4.67586000E-03
					-7.15974000E-06	 4.31401000E-02	-4.68171000E-03
					 1.85625000E-06	 4.77633000E-02	-4.76814000E-03
					 9.85691000E-08	 2.46254000E-04	 4.41429000E-07
					-7.41257000E-05	 1.26953000E-03	-6.17966000E-04
					-4.53387000E-08	 1.27922000E-03	 1.92131000E-07
					 7.41832000E-05	 1.27155000E-03	 6.18216000E-04
					-1.96437000E-07	 2.85351000E-03	-1.60736000E-06
					-6.76970000E-05	 5.02489000E-03	-1.16014000E-03
					-4.33909000E-07	 5.01878000E-03	-5.53775000E-06
					 6.69080000E-05	 5.03065000E-03	 1.14896000E-03
					-7.46745000E-07	 7.62938000E-03	-1.15442000E-05
					-5.16100000E-05	 1.06695000E-02	-1.58692000E-03
					-1.10327000E-06	 1.06652000E-02	-1.99060000E-05
					 4.94543000E-05	 1.06796000E-02	 1.54696000E-03
					-1.46784000E-06	 1.40388000E-02	-3.04006000E-05
					-3.58955000E-05	 1.77131000E-02	-1.90628000E-03
					-1.85946000E-06	 1.77111000E-02	-4.29976000E-05
					 3.22167000E-05	 1.77273000E-02	 1.82012000E-03
					-2.25881000E-06	 2.16231000E-02	-5.74378000E-05
					-2.09274000E-05	 2.57139000E-02	-2.12784000E-03
					-2.70867000E-06	 2.57130000E-02	-7.33238000E-05
					 1.55586000E-05	 2.57310000E-02	 1.98100000E-03
					-3.09425000E-06	 2.99383000E-02	-9.04625000E-05
					-1.39700000E-05	 3.42390000E-02	-2.28255000E-03
					-3.59229000E-06	 3.42367000E-02	-1.08371000E-04
					 6.90183000E-06	 3.42579000E-02	 2.06559000E-03
					-3.98040000E-06	 3.86527000E-02	-1.27392000E-04
					-1.32558000E-05	 4.31375000E-02	-2.41363000E-03
					-4.73220000E-06	 4.31169000E-02	-1.46920000E-04
					 3.96239000E-06	 4.31583000E-02	 2.11929000E-03
					-5.03938000E-06	 4.77892000E-02	-1.68258000E-04
					-2.00193000E-08	 3.34170000E-04	 3.44971000E-07
					-8.61260000E-07	 1.35406000E-03	 6.26502000E-04
					-8.77081000E-08	 1.34814000E-03	 1.01075000E-07
					-1.24385000E-07	 1.35926000E-03	 1.39165000E-07
					-1.62509000E-07	 1.34667000E-03	 2.56145000E-07
					 6.15368000E-07	 1.35195000E-03	-6.26410000E-04
					-3.18479000E-07	 2.93173000E-03	-1.68123000E-06
					-1.87461000E-06	 5.10015000E-03	 1.15459000E-03
					-5.19410000E-07	 5.06813000E-03	-5.63930000E-06
					-6.02327000E-07	 5.08560000E-03	-5.56148000E-06
					-6.90180000E-07	 5.06559000E-03	-5.33036000E-06
					 6.73477000E-07	 5.09431000E-03	-1.16584000E-03
					-9.50336000E-07	 7.68853000E-03	-1.15355000E-05
					-2.87985000E-06	 1.07295000E-02	 1.55070000E-03
					-1.21651000E-06	 1.07039000E-02	-1.99670000E-05
					-1.32575000E-06	 1.07152000E-02	-1.98561000E-05
					-1.43896000E-06	 1.07008000E-02	-1.95769000E-05
					 2.27324000E-07	 1.07193000E-02	-1.59057000E-03
					-1.71004000E-06	 1.40791000E-02	-3.02979000E-05
					-4.14780000E-06	 1.77597000E-02	 1.82346000E-03
					-1.97852000E-06	 1.77377000E-02	-4.30085000E-05
					-2.09837000E-06	 1.77469000E-02	-4.28802000E-05
					-2.22392000E-06	 1.77336000E-02	-4.25856000E-05
					-4.96524000E-08	 1.77455000E-02	-1.90932000E-03