<?xml version="1.0"?>
<VTKFile type="UnstructuredGrid" version="0.1" byte_order="LittleEndian">
	<UnstructuredGrid>
		<Piece NumberOfPoints="261" NumberOfCells="32">
			<Points>
				<DataArray type="Float64" NumberOfComponents="3" format="ascii">
					 0.00000000E+00	 0.00000000E+00	 0.00000000E+00
					 1.00000000E+00	 0.00000000E+00	 0.00000000E+00
					 1.00000000E+00	 1.50000000E+00	 0.00000000E+00
					 0.00000000E+00	 1.50000000E+00	 0.00000000E+00
					 0.00000000E+00	 0.00000000E+00	 8.00000000E+00
					 1.00000000E+00	 0.00000000E+00	 8.00000000E+00
					 1.00000000E+00	 1.50000000E+00	 8.00000000E+00
					 0.00000000E+00	 1.50000000E+00	 8.00000000E+00
					 2.50000000E-01	 0.00000000E+00	 0.00000000E+00
					 5.00000000E-01	 0.00000000E+00	 0.00000000E+00
					 7.50000000E-01	 0.00000000E+00	 0.00000000E+00
					 1.00000000E+00	 3.75000000E-01	 0.00000000E+00
					 1.00000000E+00	 7.50000000E-01	 0.00000000E+00
					 1.00000000E+00	 1.12500000E+00	 0.00000000E+00
					 7.50000000E-01	 1.50000000E+00	 0.00000000E+00
					 5.00000000E-01	 1.50000000E+00	 0.00000000E+00
					 2.50000000E-01	 1.50000000E+00	 0.00000000E+00
					 0.00000000E+00	 1.12500000E+00	 0.00000000E+00
					 0.00000000E+00	 7.50000000E-01	 0.00000000E+00
					 0.00000000E+00	 3.75000000E-01	 0.00000000E+00
					 2.50000000E-01	 0.00000000E+00	 8.00000000E+00
					 5.00000000E-01	 0.00000000E+00	 8.00000000E+00
					 7.50000000E-01	 0.00000000E+00	 8.00000000E+00
					 1.00000000E+00	 3.75000000E-01	 8.00000000E+00
					 1.00000000E+00	 7.50000000E-01	 8.00000000E+00
					 1.00000000E+00	 1.12500000E+00	 8.00000000E+00
					 7.50000000E-01	 1.50000000E+00	 8.00000000E+00
					 5.00000000E-01	 1.50000000E+00	 8.00000000E+00
					 2.50000000E-01	 1.50000000E+00	 8.00000000E+00
					 0.00000000E+00	 1.12500000E+00	 8.00000000E+00
					 0.00000000E+00	 7.50000000E-01	 8.00000000E+00
					 0.00000000E+00	 3.75000000E-01	 8.00000000E+00
					 1.00000000E+00	 0.00000000E+00	 5.00000000E-01
					 1.00000000E+00	 0.00000000E+00	 1.00000000E+00
					 1.00000000E+00	 0.00000000E+00	 1.50000000E+00
					 1.00000000E+00	 0.00000000E+00	 2.00000000E+00
					 1.00000000E+00	 0.00000000E+00	 2.50000000E+00
					 1.00000000E+00	 0.00000000E+00	 3.00000000E+00
					 1.00000000E+00	 0.00000000E+00	 3.50000000E+00
					 1.00000000E+00	 0.00000000E+00	 4.00000000E+00
					 1.00000000E+00	 0.00000000E+00	 4.50000000E+00
					 1.00000000E+00	 0.00000000E+00	 5.00000000E+00
					 1.00000000E+00	 0.00000000E+00	 5.50000000E+00
					 1.00000000E+00	 0.00000000E+00	 6.00000000E+00
					 1.00000000E+00	 0.00000000E+00	 6.50000000E+00
					 1.00000000E+00	 0.00000000E+00	 7.00000000E+00
					 1.00000000E+00	 0.00000000E+00	 7.50000000E+00
					 0.00000000E+00	 0.00000000E+00	 7.50000000E+00
					 0.00000000E+00	 0.00000000E+00	 7.00000000E+00
					 0.00000000E+00	 0.00000000E+00	 6.50000000E+00
					 0.00000000E+00	 0.00000000E+00	 6.00000000E+00
					 0.00000000E+00	 0.00000000E+00	 5.50000000E+00
					 0.00000000E+00	 0.00000000E+00	 5.00000000E+00
					 0.00000000E+00	 0.00000000E+00	 4.50000000E+00
					 0.00000000E+00	 0.00000000E+00	 4.00000000E+00
					 0.00000000E+00	 0.00000000E+00	 3.50000000E+00
					 0.00000000E+00	 0.00000000E+00	 3.00000000E+00
					 0.00000000E+00	 0.00000000E+00	 2.50000000E+00
					 0.00000000E+00	 0.00000000E+00	 2.00000000E+00
					 0.00000000E+00	 0.00000000E+00	 1.50000000E+00
					 0.00000000E+00	 0.00000000E+00	 1.00000000E+00
					 0.00000000E+00	 0.00000000E+00	 5.00000000E-01
					 1.00000000E+00	 1.50000000E+00	 5.00000000E-01
					 1.00000000E+00	 1.50000000E+00	 1.00000000E+00
					 1.00000000E+00	 1.50000000E+00	 1.50000000E+00
					 1.00000000E+00	 1.50000000E+00	 2.00000000E+00
					 1.00000000E+00	 1.50000000E+00	 2.50000000E+00
					 1.00000000E+00	 1.50000000E+00	 3.00000000E+00
					 1.00000000E+00	 1.50000000E+00	 3.50000000E+00
					 1.00000000E+00	 1.50000000E+00	 4.00000000E+00
					 1.00000000E+00	 1.50000000E+00	 4.50000000E+00
					 1.00000000E+00	 1.50000000E+00	 5.00000000E+00
					 1.00000000E+00	 1.50000000E+00	 5.50000000E+00
					 1.00000000E+00	 1.50000000E+00	 6.00000000E+00
					 1.00000000E+00	 1.50000000E+00	 6.50000000E+00
					 1.00000000E+00	 1.50000000E+00	 7.00000000E+00
					 1.00000000E+00	 1.50000000E+00	 7.50000000E+00
					 0.00000000E+00	 1.50000000E+00	 5.00000000E-01
					 0.00000000E+00	 1.50000000E+00	 1.00000000E+00
					 0.00000000E+00	 1.50000000E+00	 1.50000000E+00
					 0.00000000E+00	 1.50000000E+00	 2.00000000E+00
					 0.00000000E+00	 1.50000000E+00	 2.50000000E+00
					 0.00000000E+00	 1.50000000E+00	 3.00000000E+00
					 0.00000000E+00	 1.50000000E+00	 3.50000000E+00
					 0.00000000E+00	 1.50000000E+00	 4.00000000E+00
					 0.00000000E+00	 1.50000000E+00	 4.50000000E+00
					 0.00000000E+00	 1.50000000E+00	 5.00000000E+00
					 0.00000000E+00	 1.50000000E+00	 5.50000000E+00
					 0.00000000E+00	 1.50000000E+00	 6.00000000E+00
					 0.00000000E+00	 1.50000000E+00	 6.50000000E+00
					 0.00000000E+00	 1.50000000E+00	 7.00000000E+00
					 0.00000000E+00	 1.50000000E+00	 7.50000000E+00
					 5.00000000E-01	 3.75000000E-01	 0.00000000E+00
					 2.50000000E-01	 7.50000000E-01	 0.00000000E+00
					 5.00000000E-01	 7.50000000E-01	 0.00000000E+00
					 7.50000000E-01	 7.50000000E-01	 0.00000000E+00
					 5.00000000E-01	 1.12500000E+00	 0.00000000E+00
					 5.00000000E-01	 3.75000000E-01	 8.00000000E+00
					 2.50000000E-01	 7.50000000E-01	 8.00000000E+00
					 5.00000000E-01	 7.50000000E-01	 8.00000000E+00
					 7.50000000E-01	 7.50000000E-01	 8.00000000E+00
					 5.00000000E-01	 1.12500000E+00	 8.00000000E+00
					 5.00000000E-01	 0.00000000E+00	 5.00000000E-01
					 2.50000000E-01	 0.00000000E+00	 1.00000000E+00
					 5.00000000E-01	 0.00000000E+00	 1.00000000E+00
					 7.50000000E-01	 0.00000000E+00	 1.00000000E+00
					 5.00000000E-01	 0.00000000E+00	 1.50000000E+00
					 2.50000000E-01	 0.00000000E+00	 2.00000000E+00
					 5.00000000E-01	 0.00000000E+00	 2.00000000E+00
					 7.50000000E-01	 0.00000000E+00	 2.00000000E+00
					 5.00000000E-01	 0.00000000E+00	 2.50000000E+00
					 2.50000000E-01	 0.00000000E+00	 3.00000000E+00
					 5.00000000E-01	 0.00000000E+00	 3.00000000E+00
					 7.50000000E-01	 0.00000000E+00	 3.00000000E+00
					 5.00000000E-01	 0.00000000E+00	 3.50000000E+00
					 2.50000000E-01	 0.00000000E+00	 4.00000000E+00
					 5.00000000E-01	 0.00000000E+00	 4.00000000E+00
					 7.50000000E-01	 0.00000000E+00	 4.00000000E+00
					 5.00000000E-01	 0.00000000E+00	 4.50000000E+00
					 2.50000000E-01	 0.00000000E+00	 5.00000000E+00
					 5.00000000E-01	 0.00000000E+00	 5.00000000E+00
					 7.50000000E-01	 0.00000000E+00	 5.00000000E+00
					 5.00000000E-01	 0.00000000E+00	 5.50000000E+00
					 2.50000000E-01	 0.00000000E+00	 6.00000000E+00
					 5.00000000E-01	 0.00000000E+00	 6.00000000E+00
					 7.50000000E-01	 0.00000000E+00	 6.00000000E+00
					 5.00000000E-01	 0.00000000E+00	 6.50000000E+00
					 2.50000000E-01	 0.00000000E+00	 7.00000000E+00
					 5.00000000E-01	 0.00000000E+00	 7.00000000E+00
					 7.50000000E-01	 0.00000000E+00	 7.00000000E+00
					 5.00000000E-01	 0.00000000E+00	 7.50000000E+00
					 1.00000000E+00	 7.50000000E-01	 5.00000000E-01
					 1.00000000E+00	 3.75000000E-01	 1.00000000E+00
					 1.00000000E+00	 7.50000000E-01	 1.00000000E+00
					 1.00000000E+00	 1.12500000E+00	 1.00000000E+00
					 1.00000000E+00	 7.50000000E-01	 1.50000000E+00
					 1.00000000E+00	 3.75000000E-01	 2.00000000E+00
					 1.00000000E+00	 7.50000000E-01	 2.00000000E+00
					 1.00000000E+00	 1.12500000E+00	 2.00000000E+00
					 1.00000000E+00	 7.50000000E-01	 2.50000000E+00
					 1.00000000E+00	 3.75000000E-01	 3.00000000E+00
					 1.00000000E+00	 7.50000000E-01	 3.00000000E+00
					 1.00000000E+00	 1.12500000E+00	 3.00000000E+00
					 1.00000000E+00	 7.50000000E-01	 3.50000000E+00
					 1.00000000E+00	 3.75000000E-01	 4.00000000E+00
					 1.00000000E+00	 7.50000000E-01	 4.00000000E+00
					 1.00000000E+00	 1.12500000E+00	 4.00000000E+00
					 1.00000000E+00	 7.50000000E-01	 4.50000000E+00
					 1.00000000E+00	 3.75000000E-01	 5.00000000E+00
					 1.00000000E+00	 7.50000000E-01	 5.00000000E+00
					 1.00000000E+00	 1.12500000E+00	 5.00000000E+00
					 1.00000000E+00	 7.50000000E-01	 5.50000000E+00
					 1.00000000E+00	 3.75000000E-01	 6.00000000E+00
					 1.00000000E+00	 7.50000000E-01	 6.00000000E+00
					 1.00000000E+00	 1.12500000E+00	 6.00000000E+00
					 1.00000000E+00	 7.50000000E-01	 6.50000000E+00
					 1.00000000E+00	 3.75000000E-01	 7.00000000E+00
					 1.00000000E+00	 7.50000000E-01	 7.00000000E+00
					 1.00000000E+00	 1.12500000E+00	 7.00000000E+00
					 1.00000000E+00	 7.50000000E-01	 7.50000000E+00
					 5.00000000E-01	 1.50000000E+00	 5.00000000E-01
					 7.50000000E-01	 1.50000000E+00	 1.00000000E+00
					 5.00000000E-01	 1.50000000E+00	 1.00000000E+00
					 2.50000000E-01	 1.50000000E+00	 1.00000000E+00
					 5.00000000E-01	 1.50000000E+00	 1.50000000E+00
					 7.50000000E-01	 1.50000000E+00	 2.00000000E+00
					 5.00000000E-01	 1.50000000E+00	 2.00000000E+00
					 2.50000000E-01	 1.50000000E+00	 2.00000000E+00
					 5.00000000E-01	 1.50000000E+00	 2.50000000E+00
					 7.50000000E-01	 1.50000000E+00	 3.00000000E+00
					 5.00000000E-01	 1.50000000E+00	 3.00000000E+00
					 2.50000000E-01	 1.50000000E+00	 3.00000000E+00
					 5.00000000E-01	 1.50000000E+00	 3.50000000E+00
					 7.50000000E-01	 1.50000000E+00	 4.00000000E+00
					 5.00000000E-01	 1.50000000E+00	 4.00000000E+00
					 2.50000000E-01	 1.50000000E+00	 4.00000000E+00
					 5.00000000E-01	 1.50000000E+00	 4.50000000E+00
					 7.50000000E-01	 1.50000000E+00	 5.00000000E+00
					 5.00000000E-01	 1.50000000E+00	 5.00000000E+00
					 2.50000000E-01	 1.50000000E+00	 5.00000000E+00
					 5.00000000E-01	 1.50000000E+00	 5.50000000E+00
					 7.50000000E-01	 1.50000000E+00	 6.00000000E+00
					 5.00000000E-01	 1.50000000E+00	 6.00000000E+00
					 2.50000000E-01	 1.50000000E+00	 6.00000000E+00
					 5.00000000E-01	 1.50000000E+00	 6.50000000E+00
					 7.50000000E-01	 1.50000000E+00	 7.00000000E+00
					 5.00000000E-01	 1.50000000E+00	 7.00000000E+00
					 2.50000000E-01	 1.50000000E+00	 7.00000000E+00
					 5.00000000E-01	 1.50000000E+00	 7.50000000E+00
					 0.00000000E+00	 7.50000000E-01	 5.00000000E-01
					 0.00000000E+00	 1.12500000E+00	 1.00000000E+00
					 0.00000000E+00	 7.50000000E-01	 1.00000000E+00
					 0.00000000E+00	 3.75000000E-01	 1.00000000E+00
					 0.00000000E+00	 7.50000000E-01	 1.50000000E+00
					 0.00000000E+00	 1.12500000E+00	 2.00000000E+00
					 0.00000000E+00	 7.50000000E-01	 2.00000000E+00
					 0.00000000E+00	 3.75000000E-01	 2.00000000E+00
					 0.00000000E+00	 7.50000000E-01	 2.50000000E+00
					 0.00000000E+00	 1.12500000E+00	 3.00000000E+00
					 0.00000000E+00	 7.50000000E-01	 3.00000000E+00
					 0.00000000E+00	 3.75000000E-01	 3.00000000E+00
					 0.00000000E+00	 7.50000000E-01	 3.50000000E+00
					 0.00000000E+00	 1.12500000E+00	 4.00000000E+00
					 0.00000000E+00	 7.50000000E-01	 4.00000000E+00
					 0.00000000E+00	 3.75000000E-01	 4.00000000E+00
					 0.00000000E+00	 7.50000000E-01	 4.50000000E+00
					 0.00000000E+00	 1.12500000E+00	 5.00000000E+00
					 0.00000000E+00	 7.50000000E-01	 5.00000000E+00
					 0.00000000E+00	 3.75000000E-01	 5.00000000E+00
					 0.00000000E+00	 7.50000000E-01	 5.50000000E+00
					 0.00000000E+00	 1.12500000E+00	 6.00000000E+00
					 0.00000000E+00	 7.50000000E-01	 6.00000000E+00
					 0.00000000E+00	 3.75000000E-01	 6.00000000E+00
					 0.00000000E+00	 7.50000000E-01	 6.50000000E+00
					 0.00000000E+00	 1.12500000E+00	 7.00000000E+00
					 0.00000000E+00	 7.50000000E-01	 7.00000000E+00
					 0.00000000E+00	 3.75000000E-01	 7.00000000E+00
					 0.00000000E+00	 7.50000000E-01	 7.50000000E+00
					 5.00000000E-01	 7.50000000E-01	 5.00000000E-01
					 5.00000000E-01	 3.75000000E-01	 1.00000000E+00
					 2.50000000E-01	 7.50000000E-01	 1.00000000E+00
					 5.00000000E-01	 7.50000000E-01	 1.00000000E+00
					 7.50000000E-01	 7.50000000E-01	 1.00000000E+00
					 5.00000000E-01	 1.12500000E+00	 1.00000000E+00
					 5.00000000E-01	 7.50000000E-01	 1.50000000E+00
					 5.00000000E-01	 3.75000000E-01	 2.00000000E+00
					 2.50000000E-01	 7.50000000E-01	 2.00000000E+00
					 5.00000000E-01	 7.50000000E-01	 2.00000000E+00
					 7.50000000E-01	 7.50000000E-01	 2.00000000E+00
					 5.00000000E-01	 1.12500000E+00	 2.00000000E+00
					 5.00000000E-01	 7.50000000E-01	 2.50000000E+00
					 5.00000000E-01	 3.75000000E-01	 3.00000000E+00
					 2.50000000E-01	 7.50000000E-01	 3.00000000E+00
					 5.00000000E-01	 7.50000000E-01	 3.00000000E+00
					 7.50000000E-01	 7.50000000E-01	 3.00000000E+00
					 5.00000000E-01	 1.12500000E+00	 3.00000000E+00
					 5.00000000E-01	 7.50000000E-01	 3.50000000E+00
					 5.00000000E-01	 3.75000000E-01	 4.00000000E+00
					 2.50000000E-01	 7.50000000E-01	 4.00000000E+00
					 5.00000000E-01	 7.50000000E-01	 4.00000000E+00
					 7.50000000E-01	 7.50000000E-01	 4.00000000E+00
					 5.00000000E-01	 1.12500000E+00	 4.00000000E+00
					 5.00000000E-01	 7.50000000E-01	 4.50000000E+00
					 5.00000000E-01	 3.75000000E-01	 5.00000000E+00
					 2.50000000E-01	 7.50000000E-01	 5.00000000E+00
					 5.00000000E-01	 7.50000000E-01	 5.00000000E+00
					 7.50000000E-01	 7.50000000E-01	 5.00000000E+00
					 5.00000000E-01	 1.12500000E+00	 5.00000000E+00
					 5.00000000E-01	 7.50000000E-01	 5.50000000E+00
					 5.00000000E-01	 3.75000000E-01	 6.00000000E+00
					 2.50000000E-01	 7.50000000E-01	 6.00000000E+00
					 5.00000000E-01	 7.50000000E-01	 6.00000000E+00
					 7.50000000E-01	 7.50000000E-01	 6.00000000E+00
					 5.00000000E-01	 1.12500000E+00	 6.00000000E+00
					 5.00000000E-01	 7.50000000E-01	 6.50000000E+00
					 5.00000000E-01	 3.75000000E-01	 7.00000000E+00
					 2.50000000E-01	 7.50000000E-01	 7.00000000E+00
					 5.00000000E-01	 7.50000000E-01	 7.00000000E+00
					 7.50000000E-01	 7.50000000E-01	 7.00000000E+00
					 5.00000000E-01	 1.12500000E+00	 7.00000000E+00
					 5.00000000E-01	 7.50000000E-01	 7.50000000E+00

				</DataArray>
			</Points>
			<Cells>
				<DataArray type="Int32" Name="connectivity" format="ascii">
					0 9 94 18 60 104 221 191 8 92 93 19 103 219 220 192 61 102 218 189 9 1 12 94 104 33 133 221 10 11 95 92 105 132 222 219 102 32 131 218 18 94 15 3 191 221 162 78 93 96 16 17 220 223 163 190 189 218 160 77 94 12 2 15 221 133 63 162 95 13 14 96 222 134 161 223 218 131 62 160 60 104 221 191 58 108 227 195 103 219 220 192 107 225 226 196 59 106 224 193 104 33 133 221 108 35 137 227 105 132 222 219 109 136 228 225 106 34 135 224 191 221 162 78 195 227 166 80 220 223 163 190 226 229 167 194 193 224 164 79 221 133 63 162 227 137 65 166 222 134 161 223 228 138 165 229 224 135 64 164 58 108 227 195 56 112 233 199 107 225 226 196 111 231 232 200 57 110 230 197 108 35 137 227 112 37 141 233 109 136 228 225 113 140 234 231 110 36 139 230 195 227 166 80 199 233 170 82 226 229 167 194 232 235 171 198 197 230 168 81 227 137 65 166 233 141 67 170 228 138 165 229 234 142 169 235 230 139 66 168 56 112 233 199 54 116 239 203 111 231 232 200 115 237 238 204 55 114 236 201 112 37 141 233 116 39 145 239 113 140 234 231 117 144 240 237 114 38 143 236 199 233 170 82 203 239 174 84 232 235 171 198 238 241 175 202 201 236 172 83 233 141 67 170 239 145 69 174 234 142 169 235 240 146 173 241 236 143 68 172 54 116 239 203 52 120 245 207 115 237 238 204 119 243 244 208 53 118 242 205 116 39 145 239 120 41 149 245 117 144 240 237 121 148 246 243 118 40 147 242 203 239 174 84 207 245 178 86 238 241 175 202 244 247 179 206 205 242 176 85 239 145 69 174 245 149 71 178 240 146 173 241 246 150 177 247 242 147 70 176 52 120 245 207 50 124 251 211 119 243 244 208 123 249 250 212 51 122 248 209 120 41 149 245 124 43 153 251 121 148 246 243 125 152 252 249 122 42 151 248 207 245 178 86 211 251 182 88 244 247 179 206 250 253 183 210 209 248 180 87 245 149 71 178 251 153 73 182 246 150 177 247 252 154 181 253 248 151 72 180 50 124 251 211 48 128 257 215 123 249 250 212 127 255 256 216 49 126 254 213 124 43 153 251 128 45 157 257 125 152 252 249 129 156 258 255 126 44 155 254 211 251 182 88 215 257 186 90 250 253 183 210 256 259 187 214 213 254 184 89 251 153 73 182 257 157 75 186 252 154 181 253 258 158 185 259 254 155 74 184 48 128 257 215 4 21 99 30 127 255 256 216 20 97 98 31 47 130 260 217 128 45 157 257 21 5 24 99 129 156 258 255 22 23 100 97 130 46 159 260 215 257 186 90 30 99 27 7 256 259 187 214 98 101 28 29 217 260 188 91 257 157 75 186 99 24 6 27 258 158 185 259 100 25 26 101 260 159 76 188 
				</DataArray>
				<DataArray type="Int32" Name="offsets" format="ascii">
					20 40 60 80 100 120 140 160 180 200 220 240 260 280 300 320 340 360 380 400 420 440 460 480 500 520 540 560 580 600 620 640 
				</DataArray>
				<DataArray type="UInt8" Name="types" format="ascii">
					25 25 25 25 25 25 25 25 25 25 25 25 25 25 25 25 25 25 25 25 25 25 25 25 25 25 25 25 25 25 25 25 
				</DataArray>
			</Cells>
			<PointData>
				<DataArray type="Float32" Name="U" NumberOfComponents="3" ComponentName0="D1" ComponentName1="D2" ComponentName2="D3" format="ascii">
					 0.00000000E+00	 0.00000000E+00	 0.00000000E+00
					 0.00000000E+00	 0.00000000E+00	 0.00000000E+00
					 0.00000000E+00	 0.00000000E+00	 0.00000000E+00
					 0.00000000E+00	 0.00000000E+00	 0.00000000E+00
					-7.68299000E-01	 2.70636000E+03	 4.67845000E+03
					 7.68299000E-01	 2.70636000E+03	 4.67845000E+03
					-1.43029000E+00	 2.29427000E+03	 3.13976000E+03
					 1.43029000E+00	 2.29427000E+03	 3.13976000E+03
					 0.00000000E+00	 0.00000000E+00	 0.00000000E+00
					 0.00000000E+00	 0.00000000E+00	 0.00000000E+00
					 0.00000000E+00	 0.00000000E+00	 0.00000000E+00
					 0.00000000E+00	 0.00000000E+00	 0.00000000E+00
					 0.00000000E+00	 0.00000000E+00	 0.00000000E+00
					 0.00000000E+00	 0.00000000E+00	 0.00000000E+00
					 0.00000000E+00	 0.00000000E+00	 0.00000000E+00
					 0.00000000E+00	 0.00000000E+00	 0.00000000E+00
					 0.00000000E+00	 0.00000000E+00	 0.00000000E+00
					 0.00000000E+00	 0.00000000E+00	 0.00000000E+00
					 0.00000000E+00	 0.00000000E+00	 0.00000000E+00
					 0.00000000E+00	 0.00000000E+00	 0.00000000E+00
					-4.33275000E-01	 2.70819000E+03	 4.68684000E+03
					 1.43245000E-09	 2.70883000E+03	 4.69108000E+03
					 4.33275000E-01	 2.70819000E+03	 4.68684000E+03
					 1.04393000E+00	 2.60334000E+03	 4.30493000E+03
					 9.75160000E-01	 2.49868000E+03	 3.92729000E+03
					-5.34457000E-01	 2.39985000E+03	 3.54125000E+03
					-5.72712000E-01	 2.29632000E+03	 3.14445000E+03
					 1.45974000E-09	 2.29755000E+03	 3.14735000E+03
					 5.72712000E-01	 2.29632000E+03	 3.14445000E+03
					 5.34457000E-01	 2.39985000E+03	 3.54125000E+03
					-9.75160000E-01	 2.49868000E+03	 3.92729000E+03
					-1.04393000E+00	 2.60334000E+03	 4.30493000E+03
					-1.53747000E+02	 2.71589000E+02	 4.28963000E+02
					-9.56806000E+01	 3.10823000E+02	 8.09187000E+02
					-1.15829000E+02	 2.85836000E+02	 1.17643000E+03
					-1.14417000E+02	 1.62619000E+02	 1.54592000E+03
					-1.23747000E+02	 1.02197000E-01	 1.95123000E+03
					-1.30075000E+02	-1.69116000E+02	 2.37976000E+03
					-1.36102000E+02	-2.99252000E+02	 2.83040000E+03
					-1.38587000E+02	-3.52459000E+02	 3.28274000E+03
					-1.36259000E+02	-2.95195000E+02	 3.71811000E+03
					-1.27633000E+02	-1.12805000E+02	 4.10774000E+03
					-1.12812000E+02	 1.95193000E+02	 4.42856000E+03
					-9.24758000E+01	 6.12492000E+02	 4.66283000E+03
					-6.79990000E+01	 1.10868000E+03	 4.79894000E+03
					-4.26255000E+01	 1.64882000E+03	 4.83904000E+03
					-1.85739000E+01	 2.19054000E+03	 4.79145000E+03
					 1.85739000E+01	 2.19054000E+03	 4.79145000E+03
					 4.26255000E+01	 1.64882000E+03	 4.83904000E+03
					 6.79990000E+01	 1.10868000E+03	 4.79894000E+03
					 9.24758000E+01	 6.12492000E+02	 4.66283000E+03
					 1.12812000E+02	 1.95193000E+02	 4.42856000E+03
					 1.27633000E+02	-1.12805000E+02	 4.10774000E+03
					 1.36259000E+02	-2.95195000E+02	 3.71811000E+03
					 1.38587000E+02	-3.52459000E+02	 3.28274000E+03
					 1.36102000E+02	-2.99252000E+02	 2.83040000E+03
					 1.30075000E+02	-1.69116000E+02	 2.37976000E+03
					 1.23747000E+02	 1.02197000E-01	 1.95123000E+03
					 1.14417000E+02	 1.62619000E+02	 1.54592000E+03
					 1.15829000E+02	 2.85836000E+02	 1.17643000E+03
					 9.56806000E+01	 3.10823000E+02	 8.09187000E+02
					 1.53747000E+02	 2.71589000E+02	 4.28963000E+02
					-1.66535000E+02	-1.15137000E+02	 4.69776000E+02
					-1.21472000E+02	-6.16864000E+01	 9.61486000E+02
					-1.52752000E+02	-9.07568000E+01	 1.50264000E+03
					-1.34683000E+02	-1.62870000E+02	 2.01738000E+03
					-1.20842000E+02	-2.92011000E+02	 2.48833000E+03
					-9.72141000E+01	-4.30595000E+02	 2.89212000E+03
					-7.47057000E+01	-5.52635000E+02	 3.21183000E+03
					-5.27677000E+01	-6.13794000E+02	 3.44489000E+03
					-3.48357000E+01	-5.87262000E+02	 3.58865000E+03
					-2.15671000E+01	-4.47654000E+02	 3.65202000E+03
					-1.36266000E+01	-1.88330000E+02	 3.64815000E+03
					-1.02463000E+01	 1.85439000E+02	 3.59114000E+03
					-9.76300000E+00	 6.54785000E+02	 3.50365000E+03
					-1.02809000E+01	 1.18584000E+03	 3.39263000E+03
					-7.32620000E+00	 1.74398000E+03	 3.27408000E+03
					 1.66535000E+02	-1.15137000E+02	 4.69776000E+02
					 1.21472000E+02	-6.16864000E+01	 9.61486000E+02
					 1.52752000E+02	-9.07568000E+01	 1.50264000E+03
					 1.34683000E+02	-1.62870000E+02	 2.01738000E+03
					 1.20842000E+02	-2.92011000E+02	 2.48833000E+03
					 9.72141000E+01	-4.30595000E+02	 2.89212000E+03
					 7.47057000E+01	-5.52635000E+02	 3.21183000E+03
					 5.27677000E+01	-6.13794000E+02	 3.44489000E+03
					 3.48357000E+01	-5.87262000E+02	 3.58865000E+03
					 2.15671000E+01	-4.47654000E+02	 3.65202000E+03
					 1.36266000E+01	-1.88330000E+02	 3.64815000E+03
					 1.02463000E+01	 1.85439000E+02	 3.59114000E+03
					 9.76300000E+00	 6.54785000E+02	 3.50365000E+03
					 1.02809000E+01	 1.18584000E+03	 3.39263000E+03
					 7.32620000E+00	 1.74398000E+03	 3.27408000E+03
					 0.00000000E+00	 0.00000000E+00	 0.00000000E+00
					 0.00000000E+00	 0.00000000E+00	 0.00000000E+00
					 0.00000000E+00	 0.00000000E+00	 0.00000000E+00
					 0.00000000E+00	 0.00000000E+00	 0.00000000E+00
					 0.00000000E+00	 0.00000000E+00	 0.00000000E+00
					 1.45610000E-09	 2.60709000E+03	 4.30932000E+03
					-1.44352000E-01	 2.50076000E+03	 3.93143000E+03
					 1.45866000E-09	 2.50333000E+03	 3.93149000E+03
					 1.44352000E-01	 2.50076000E+03	 3.93143000E+03
					 1.46065000E-09	 2.40046000E+03	 3.54286000E+03
					 0.00000000E+00	 2.69219000E+02	 4.12072000E+02
					 4.81248000E+01	 3.07149000E+02	 8.16420000E+02
					 0.00000000E+00	 3.08297000E+02	 8.22100000E+02
					-4.81248000E+01	 3.07149000E+02	 8.16420000E+02
					 0.00000000E+00	 2.76366000E+02	 1.17667000E+03
					 5.70702000E+01	 1.60197000E+02	 1.54678000E+03
					 0.00000000E+00	 1.60856000E+02	 1.54895000E+03
					-5.70702000E+01	 1.60197000E+02	 1.54678000E+03
					 0.00000000E+00	-1.79739000E-01	 1.95089000E+03
					 6.51367000E+01	-1.64603000E+02	 2.37857000E+03
					 0.00000000E+00	-1.62825000E+02	 2.37924000E+03
					-6.51367000E+01	-1.64603000E+02	 2.37857000E+03
					 0.00000000E+00	-2.88886000E+02	 2.82912000E+03
					 6.92966000E+01	-3.41021000E+02	 3.28124000E+03
					 0.00000000E+00	-3.37338000E+02	 3.28167000E+03
					-6.92966000E+01	-3.41021000E+02	 3.28124000E+03
					 0.00000000E+00	-2.77577000E+02	 3.71745000E+03
					 6.38529000E+01	-9.81675000E+01	 4.10827000E+03
					 0.00000000E+00	-9.36694000E+01	 4.10860000E+03
					-6.38529000E+01	-9.81675000E+01	 4.10827000E+03
					 0.00000000E+00	 2.13088000E+02	 4.43090000E+03
					 4.62631000E+01	 6.24729000E+02	 4.66712000E+03
					 0.00000000E+00	 6.28426000E+02	 4.66823000E+03
					-4.62631000E+01	 6.24729000E+02	 4.66712000E+03
					 0.00000000E+00	 1.12055000E+03	 4.80421000E+03
					 2.13580000E+01	 1.65430000E+03	 4.84611000E+03
					 0.00000000E+00	 1.65587000E+03	 4.84792000E+03
					-2.13580000E+01	 1.65430000E+03	 4.84611000E+03
					 1.02409000E-09	 2.19440000E+03	 4.79915000E+03
					-1.59892000E+02	 8.67842000E+01	 4.14460000E+02
					-1.11109000E+02	 2.23087000E+02	 8.27550000E+02
					-1.25595000E+02	 1.32489000E+02	 8.82869000E+02
					-1.24394000E+02	 3.90669000E+01	 9.28411000E+02
					-1.35645000E+02	 1.03240000E+02	 1.33794000E+03
					-1.22361000E+02	 8.74385000E+01	 1.67924000E+03
					-1.28470000E+02	 2.92167000E+00	 1.78480000E+03
					-1.31090000E+02	-7.85854000E+01	 1.89226000E+03
					-1.21460000E+02	-1.47503000E+02	 2.22369000E+03
					-1.21396000E+02	-2.39801000E+02	 2.52864000E+03
					-1.13424000E+02	-3.11274000E+02	 2.64379000E+03
					-1.05242000E+02	-3.76949000E+02	 2.75416000E+03
					-1.03721000E+02	-4.44885000E+02	 3.03253000E+03
					-1.15599000E+02	-4.35564000E+02	 3.34640000E+03
					-9.37584000E+01	-5.09762000E+02	 3.37979000E+03
					-7.32303000E+01	-5.72193000E+02	 3.40601000E+03
					-8.33045000E+01	-4.70948000E+02	 3.67267000E+03
					-9.94586000E+01	-2.20899000E+02	 4.01040000E+03
					-7.26460000E+01	-3.11591000E+02	 3.90207000E+03
					-4.72120000E+01	-3.89133000E+02	 3.78287000E+03
					-6.15570000E+01	-2.46536000E+01	 4.06102000E+03
					-7.08348000E+01	 4.84959000E+02	 4.40239000E+03
					-5.00600000E+01	 3.75665000E+02	 4.15014000E+03
					-3.01741000E+01	 2.76611000E+02	 3.88634000E+03
					-3.83341000E+01	 8.65315000E+02	 4.17154000E+03
					-3.42117000E+01	 1.52330000E+03	 4.48089000E+03
					-2.52205000E+01	 1.40816000E+03	 4.13647000E+03
					-1.75851000E+01	 1.29844000E+03	 3.77938000E+03
					-1.39818000E+01	 1.96549000E+03	 4.04852000E+03
					 0.00000000E+00	-1.17744000E+02	 4.42500000E+02
					-6.17746000E+01	-6.49777000E+01	 9.67274000E+02
					 0.00000000E+00	-6.80788000E+01	 9.76672000E+02
					 6.17746000E+01	-6.49777000E+01	 9.67274000E+02
					 0.00000000E+00	-9.25872000E+01	 1.50368000E+03
					-6.71349000E+01	-1.67203000E+02	 2.02566000E+03
					 0.00000000E+00	-1.69400000E+02	 2.02889000E+03
					 6.71349000E+01	-1.67203000E+02	 2.02566000E+03
					 0.00000000E+00	-2.89673000E+02	 2.49609000E+03
					-4.87114000E+01	-4.26226000E+02	 2.89968000E+03
					 0.00000000E+00	-4.25428000E+02	 2.90129000E+03
					 4.87114000E+01	-4.26226000E+02	 2.89968000E+03
					 0.00000000E+00	-5.41070000E+02	 3.21913000E+03
					-2.62792000E+01	-6.02628000E+02	 3.44955000E+03
					 0.00000000E+00	-5.99159000E+02	 3.45038000E+03
					 2.62792000E+01	-6.02628000E+02	 3.44955000E+03
					 0.00000000E+00	-5.70056000E+02	 3.59162000E+03
					-1.06997000E+01	-4.34345000E+02	 3.65271000E+03
					 0.00000000E+00	-4.29945000E+02	 3.65302000E+03
					 1.06997000E+01	-4.34345000E+02	 3.65271000E+03
					 0.00000000E+00	-1.72224000E+02	 3.64756000E+03
					-5.05608000E+00	 1.95604000E+02	 3.59008000E+03
					 0.00000000E+00	 1.99359000E+02	 3.59080000E+03
					 5.05608000E+00	 1.95604000E+02	 3.59008000E+03
					 0.00000000E+00	 6.63272000E+02	 3.50228000E+03
					-5.19108000E+00	 1.19007000E+03	 3.39316000E+03
					 0.00000000E+00	 1.19231000E+03	 3.39440000E+03
					 5.19108000E+00	 1.19007000E+03	 3.39316000E+03
					 1.05683000E-09	 1.74701000E+03	 3.27632000E+03
					 1.59892000E+02	 8.67842000E+01	 4.14460000E+02
					 1.24394000E+02	 3.90669000E+01	 9.28411000E+02
					 1.25595000E+02	 1.32489000E+02	 8.82869000E+02
					 1.11109000E+02	 2.23087000E+02	 8.27550000E+02
					 1.35645000E+02	 1.03240000E+02	 1.33794000E+03
					 1.31090000E+02	-7.85854000E+01	 1.89226000E+03
					 1.28470000E+02	 2.92167000E+00	 1.78480000E+03
					 1.22361000E+02	 8.74385000E+01	 1.67924000E+03
					 1.21460000E+02	-1.47503000E+02	 2.22369000E+03
					 1.05242000E+02	-3.76949000E+02	 2.75416000E+03
					 1.13424000E+02	-3.11274000E+02	 2.64379000E+03
					 1.21396000E+02	-2.39801000E+02	 2.52864000E+03
					 1.03721000E+02	-4.44885000E+02	 3.03253000E+03
					 7.32303000E+01	-5.72193000E+02	 3.40601000E+03
					 9.37584000E+01	-5.09762000E+02	 3.37979000E+03
					 1.15599000E+02	-4.35564000E+02	 3.34640000E+03
					 8.33045000E+01	-4.70948000E+02	 3.67267000E+03
					 4.72120000E+01	-3.89133000E+02	 3.78287000E+03
					 7.26460000E+01	-3.11591000E+02	 3.90207000E+03
					 9.94586000E+01	-2.20899000E+02	 4.01040000E+03
					 6.15570000E+01	-2.46536000E+01	 4.06102000E+03
					 3.01741000E+01	 2.76611000E+02	 3.88634000E+03
					 5.00600000E+01	 3.75665000E+02	 4.15014000E+03
					 7.08348000E+01	 4.84959000E+02	 4.40239000E+03
					 3.83341000E+01	 8.65315000E+02	 4.17154000E+03
					 1.75851000E+01	 1.29844000E+03	 3.77938000E+03
					 2.52205000E+01	 1.40816000E+03	 4.13647000E+03
					 3.42117000E+01	 1.52330000E+03	 4.48089000E+03
					 1.39818000E+01	 1.96549000E+03	 4.04852000E+03
					 0.00000000E+00	 8.40946000E+01	 3.90501000E+02
					 0.00000000E+00	 2.18410000E+02	 8.42498000E+02
					 6.32745000E+01	 1.29103000E+02	 8.89274000E+02
					 0.00000000E+00	 1.28121000E+02	 8.97080000E+02
					-6.32745000E+01	 1.29103000E+02	 8.89274000E+02
					 0.00000000E+00	 3.48106000E+01	 9.42524000E+02
					 0.00000000E+00	 9.82077000E+01	 1.33991000E+03
					 0.00000000E+00	 8.53470000E+01	 1.68199000E+03
					 6.41569000E+01	 8.79221000E-01	 1.78887000E+03
					 0.00000000E+00	 5.46543000E-01	 1.79041000E+03
					-6.41569000E+01	 8.79221000E-01	 1.78887000E+03
					 0.00000000E+00	-8.27916000E+01	 1.90153000E+03
					 0.00000000E+00	-1.46186000E+02	 2.22804000E+03
					 0.00000000E+00	-2.33855000E+02	 2.52874000E+03
					 5.67795000E+01	-3.06774000E+02	 2.64659000E+03
					 0.00000000E+00	-3.05295000E+02	 2.64744000E+03
					-5.67795000E+01	-3.06774000E+02	 2.64659000E+03
					 0.00000000E+00	-3.71184000E+02	 2.76215000E+03
					 0.00000000E+00	-4.34371000E+02	 3.03574000E+03
					 0.00000000E+00	-4.20955000E+02	 3.34580000E+03
					 4.68470000E+01	-4.98931000E+02	 3.38140000E+03
					 0.00000000E+00	-4.95504000E+02	 3.38189000E+03
					-4.68470000E+01	-4.98931000E+02	 3.38140000E+03
					 0.00000000E+00	-5.57835000E+02	 3.41086000E+03