    1C
    1UModel: beam     Date: 10-Mar-1998                                 
    1UUSER                                                              
    1UDATE              25.january.2020                                 
    1UTIME              14:46:55                                        
    1UHOST                                                              
    1UPGM               CalculiX                                        
    1UVERSION           Version 2.16                             
    1UCOMPILETIME       Tue  7 Jan 19:57:43 CET 2020                    
    1UDIR                                                               
    1UDBN                                                               
    1UMAT    1EL                                                        
    2C                            81                                     1
 -1         1 0.00000E+00 0.00000E+00 0.00000E+00
 -1         2 1.00000E+00 0.00000E+00 0.00000E+00
 -1         3 1.00000E+00 1.50000E+00 0.00000E+00
 -1         4 0.00000E+00 1.50000E+00 0.00000E+00
 -1         5 0.00000E+00 0.00000E+00 8.00000E+00
 -1         6 1.00000E+00 0.00000E+00 8.00000E+00
 -1         7 1.00000E+00 1.50000E+00 8.00000E+00
 -1         8 0.00000E+00 1.50000E+00 8.00000E+00
 -1        10 5.00000E-01 0.00000E+00 0.00000E+00
 -1        13 1.00000E+00 7.50000E-01 0.00000E+00
 -1        16 5.00000E-01 1.50000E+00 0.00000E+00
 -1        19 0.00000E+00 7.50000E-01 0.00000E+00
 -1        22 5.00000E-01 0.00000E+00 8.00000E+00
 -1        25 1.00000E+00 7.50000E-01 8.00000E+00
 -1        28 5.00000E-01 1.50000E+00 8.00000E+00
 -1        31 0.00000E+00 7.50000E-01 8.00000E+00
 -1        34 1.00000E+00 0.00000E+00 1.00000E+00
 -1        36 1.00000E+00 0.00000E+00 2.00000E+00
 -1        38 1.00000E+00 0.00000E+00 3.00000E+00
 -1        40 1.00000E+00 0.00000E+00 4.00000E+00
 -1        42 1.00000E+00 0.00000E+00 5.00000E+00
 -1        44 1.00000E+00 0.00000E+00 6.00000E+00
 -1        46 1.00000E+00 0.00000E+00 7.00000E+00
 -1        49 0.00000E+00 0.00000E+00 7.00000E+00
 -1        51 0.00000E+00 0.00000E+00 6.00000E+00
 -1        53 0.00000E+00 0.00000E+00 5.00000E+00
 -1        55 0.00000E+00 0.00000E+00 4.00000E+00
 -1        57 0.00000E+00 0.00000E+00 3.00000E+00
 -1        59 0.00000E+00 0.00000E+00 2.00000E+00
 -1        61 0.00000E+00 0.00000E+00 1.00000E+00
 -1        64 1.00000E+00 1.50000E+00 1.00000E+00
 -1        66 1.00000E+00 1.50000E+00 2.00000E+00
 -1        68 1.00000E+00 1.50000E+00 3.00000E+00
 -1        70 1.00000E+00 1.50000E+00 4.00000E+00
 -1        72 1.00000E+00 1.50000E+00 5.00000E+00
 -1        74 1.00000E+00 1.50000E+00 6.00000E+00
 -1        76 1.00000E+00 1.50000E+00 7.00000E+00
 -1        79 0.00000E+00 1.50000E+00 1.00000E+00
 -1        81 0.00000E+00 1.50000E+00 2.00000E+00
 -1        83 0.00000E+00 1.50000E+00 3.00000E+00
 -1        85 0.00000E+00 1.50000E+00 4.00000E+00
 -1        87 0.00000E+00 1.50000E+00 5.00000E+00
 -1        89 0.00000E+00 1.50000E+00 6.00000E+00
 -1        91 0.00000E+00 1.50000E+00 7.00000E+00
 -1        95 5.00000E-01 7.50000E-01 0.00000E+00
 -1       100 5.00000E-01 7.50000E-01 8.00000E+00
 -1       105 5.00000E-01 0.00000E+00 1.00000E+00
 -1       109 5.00000E-01 0.00000E+00 2.00000E+00
 -1       113 5.00000E-01 0.00000E+00 3.00000E+00
 -1       117 5.00000E-01 0.00000E+00 4.00000E+00
 -1       121 5.00000E-01 0.00000E+00 5.00000E+00
 -1       125 5.00000E-01 0.00000E+00 6.00000E+00
 -1       129 5.00000E-01 0.00000E+00 7.00000E+00
 -1       134 1.00000E+00 7.50000E-01 1.00000E+00
 -1       138 1.00000E+00 7.50000E-01 2.00000E+00
 -1       142 1.00000E+00 7.50000E-01 3.00000E+00
 -1       146 1.00000E+00 7.50000E-01 4.00000E+00
 -1       150 1.00000E+00 7.50000E-01 5.00000E+00
 -1       154 1.00000E+00 7.50000E-01 6.00000E+00
 -1       158 1.00000E+00 7.50000E-01 7.00000E+00
 -1       163 5.00000E-01 1.50000E+00 1.00000E+00
 -1       167 5.00000E-01 1.50000E+00 2.00000E+00
 -1       171 5.00000E-01 1.50000E+00 3.00000E+00
 -1       175 5.00000E-01 1.50000E+00 4.00000E+00
 -1       179 5.00000E-01 1.50000E+00 5.00000E+00
 -1       183 5.00000E-01 1.50000E+00 6.00000E+00
 -1       187 5.00000E-01 1.50000E+00 7.00000E+00
 -1       192 0.00000E+00 7.50000E-01 1.00000E+00
 -1       196 0.00000E+00 7.50000E-01 2.00000E+00
 -1       200 0.00000E+00 7.50000E-01 3.00000E+00
 -1       204 0.00000E+00 7.50000E-01 4.00000E+00
 -1       208 0.00000E+00 7.50000E-01 5.00000E+00
 -1       212 0.00000E+00 7.50000E-01 6.00000E+00
 -1       216 0.00000E+00 7.50000E-01 7.00000E+00
 -1       222 5.00000E-01 7.50000E-01 1.00000E+00
 -1       228 5.00000E-01 7.50000E-01 2.00000E+00
 -1       234 5.00000E-01 7.50000E-01 3.00000E+00
 -1       240 5.00000E-01 7.50000E-01 4.00000E+00
 -1       246 5.00000E-01 7.50000E-01 5.00000E+00
 -1       252 5.00000E-01 7.50000E-01 6.00000E+00
 -1       258 5.00000E-01 7.50000E-01 7.00000E+00
 -3
    3C                            32                                     1
 -1         1    1    0    1
 -2         1        10        95        19        61       105       222       192
 -1         2    1    0    1
 -2        10         2        13        95       105        34       134       222
 -1         3    1    0    1
 -2        19        95        16         4       192       222       163        79
 -1         4    1    0    1
 -2        95        13         3        16       222       134        64       163
 -1         5    1    0    1
 -2        61       105       222       192        59       109       228       196
 -1         6    1    0    1
 -2       105        34       134       222       109        36       138       228
 -1         7    1    0    1
 -2       192       222       163        79       196       228       167        81
 -1         8    1    0    1
 -2       222       134        64       163       228       138        66       167
 -1         9    1    0    1
 -2        59       109       228       196        57       113       234       200
 -1        10    1    0    1
 -2       109        36       138       228       113        38       142       234
 -1        11    1    0    1
 -2       196       228       167        81       200       234       171        83
 -1        12    1    0    1
 -2       228       138        66       167       234       142        68       171
 -1        13    1    0    1
 -2        57       113       234       200        55       117       240       204
 -1        14    1    0    1
 -2       113        38       142       234       117        40       146       240
 -1        15    1    0    1
 -2       200       234       171        83       204       240       175        85
 -1        16    1    0    1
 -2       234       142        68       171       240       146        70       175
 -1        17    1    0    1
 -2        55       117       240       204        53       121       246       208
 -1        18    1    0    1
 -2       117        40       146       240       121        42       150       246
 -1        19    1    0    1
 -2       204       240       175        85       208       246       179        87
 -1        20    1    0    1
 -2       240       146        70       175       246       150        72       179
 -1        21    1    0    1
 -2        53       121       246       208        51       125       252       212
 -1        22    1    0    1
 -2       121        42       150       246       125        44       154       252
 -1        23    1    0    1
 -2       208       246       179        87       212       252       183        89
 -1        24    1    0    1
 -2       246       150        72       179       252       154        74       183
 -1        25    1    0    1
 -2        51       125       252       212        49       129       258       216
 -1        26    1    0    1
 -2       125        44       154       252       129        46       158       258
 -1        27    1    0    1
 -2       212       252       183        89       216       258       187        91
 -1        28    1    0    1
 -2       252       154        74       183       258       158        76       187
 -1        29    1    0    1
 -2        49       129       258       216         5        22       100        31
 -1        30    1    0    1
 -2       129        46       158       258        22         6        25       100
 -1        31    1    0    1
 -2       216       258       187        91        31       100        28         8
 -1        32    1    0    1
 -2       258       158        76       187       100        25         7        28
 -3
 9999
