<?xml version="1.0"?>
<VTKFile type="UnstructuredGrid" version="0.1" byte_order="LittleEndian">
	<UnstructuredGrid>
		<Piece NumberOfPoints="81" NumberOfCells="32">
			<Points>
				<DataArray type="Float64" NumberOfComponents="3" format="ascii">
					 0.00000000E+00	 0.00000000E+00	 0.00000000E+00
					 1.00000000E+00	 0.00000000E+00	 0.00000000E+00
					 1.00000000E+00	 1.00000000E+00	 0.00000000E+00
					 0.00000000E+00	 1.00000000E+00	 0.00000000E+00
					 0.00000000E+00	 0.00000000E+00	 8.00000000E+00
					 1.00000000E+00	 0.00000000E+00	 8.00000000E+00
					 1.00000000E+00	 1.00000000E+00	 8.00000000E+00
					 0.00000000E+00	 1.00000000E+00	 8.00000000E+00
					 5.00000000E-01	 0.00000000E+00	 0.00000000E+00
					 1.00000000E+00	 5.00000000E-01	 0.00000000E+00
					 5.00000000E-01	 1.00000000E+00	 0.00000000E+00
					 0.00000000E+00	 5.00000000E-01	 0.00000000E+00
					 5.00000000E-01	 0.00000000E+00	 8.00000000E+00
					 1.00000000E+00	 5.00000000E-01	 8.00000000E+00
					 5.00000000E-01	 1.00000000E+00	 8.00000000E+00
					 0.00000000E+00	 5.00000000E-01	 8.00000000E+00
					 1.00000000E+00	 0.00000000E+00	 1.00000000E+00
					 1.00000000E+00	 0.00000000E+00	 2.00000000E+00
					 1.00000000E+00	 0.00000000E+00	 3.00000000E+00
					 1.00000000E+00	 0.00000000E+00	 4.00000000E+00
					 1.00000000E+00	 0.00000000E+00	 5.00000000E+00
					 1.00000000E+00	 0.00000000E+00	 6.00000000E+00
					 1.00000000E+00	 0.00000000E+00	 7.00000000E+00
					 0.00000000E+00	 0.00000000E+00	 7.00000000E+00
					 0.00000000E+00	 0.00000000E+00	 6.00000000E+00
					 0.00000000E+00	 0.00000000E+00	 5.00000000E+00
					 0.00000000E+00	 0.00000000E+00	 4.00000000E+00
					 0.00000000E+00	 0.00000000E+00	 3.00000000E+00
					 0.00000000E+00	 0.00000000E+00	 2.00000000E+00
					 0.00000000E+00	 0.00000000E+00	 1.00000000E+00
					 1.00000000E+00	 1.00000000E+00	 1.00000000E+00
					 1.00000000E+00	 1.00000000E+00	 2.00000000E+00
					 1.00000000E+00	 1.00000000E+00	 3.00000000E+00
					 1.00000000E+00	 1.00000000E+00	 4.00000000E+00
					 1.00000000E+00	 1.00000000E+00	 5.00000000E+00
					 1.00000000E+00	 1.00000000E+00	 6.00000000E+00
					 1.00000000E+00	 1.00000000E+00	 7.00000000E+00
					 0.00000000E+00	 1.00000000E+00	 1.00000000E+00
					 0.00000000E+00	 1.00000000E+00	 2.00000000E+00
					 0.00000000E+00	 1.00000000E+00	 3.00000000E+00
					 0.00000000E+00	 1.00000000E+00	 4.00000000E+00
					 0.00000000E+00	 1.00000000E+00	 5.00000000E+00
					 0.00000000E+00	 1.00000000E+00	 6.00000000E+00
					 0.00000000E+00	 1.00000000E+00	 7.00000000E+00
					 5.00000000E-01	 5.00000000E-01	 0.00000000E+00
					 5.00000000E-01	 5.00000000E-01	 8.00000000E+00
					 5.00000000E-01	 0.00000000E+00	 1.00000000E+00
					 5.00000000E-01	 0.00000000E+00	 2.00000000E+00
					 5.00000000E-01	 0.00000000E+00	 3.00000000E+00
					 5.00000000E-01	 0.00000000E+00	 4.00000000E+00
					 5.00000000E-01	 0.00000000E+00	 5.00000000E+00
					 5.00000000E-01	 0.00000000E+00	 6.00000000E+00
					 5.00000000E-01	 0.00000000E+00	 7.00000000E+00
					 1.00000000E+00	 5.00000000E-01	 1.00000000E+00
					 1.00000000E+00	 5.00000000E-01	 2.00000000E+00
					 1.00000000E+00	 5.00000000E-01	 3.00000000E+00
					 1.00000000E+00	 5.00000000E-01	 4.00000000E+00
					 1.00000000E+00	 5.00000000E-01	 5.00000000E+00
					 1.00000000E+00	 5.00000000E-01	 6.00000000E+00
					 1.00000000E+00	 5.00000000E-01	 7.00000000E+00
					 5.00000000E-01	 1.00000000E+00	 1.00000000E+00
					 5.00000000E-01	 1.00000000E+00	 2.00000000E+00
					 5.00000000E-01	 1.00000000E+00	 3.00000000E+00
					 5.00000000E-01	 1.00000000E+00	 4.00000000E+00
					 5.00000000E-01	 1.00000000E+00	 5.00000000E+00
					 5.00000000E-01	 1.00000000E+00	 6.00000000E+00
					 5.00000000E-01	 1.00000000E+00	 7.00000000E+00
					 0.00000000E+00	 5.00000000E-01	 1.00000000E+00
					 0.00000000E+00	 5.00000000E-01	 2.00000000E+00
					 0.00000000E+00	 5.00000000E-01	 3.00000000E+00
					 0.00000000E+00	 5.00000000E-01	 4.00000000E+00
					 0.00000000E+00	 5.00000000E-01	 5.00000000E+00
					 0.00000000E+00	 5.00000000E-01	 6.00000000E+00
					 0.00000000E+00	 5.00000000E-01	 7.00000000E+00
					 5.00000000E-01	 5.00000000E-01	 1.00000000E+00
					 5.00000000E-01	 5.00000000E-01	 2.00000000E+00
					 5.00000000E-01	 5.00000000E-01	 3.00000000E+00
					 5.00000000E-01	 5.00000000E-01	 4.00000000E+00
					 5.00000000E-01	 5.00000000E-01	 5.00000000E+00
					 5.00000000E-01	 5.00000000E-01	 6.00000000E+00
					 5.00000000E-01	 5.00000000E-01	 7.00000000E+00

				</DataArray>
			</Points>
			<Cells>
				<DataArray type="Int32" Name="connectivity" format="ascii">
					0 8 44 11 29 46 74 67 8 1 9 44 46 16 53 74 11 44 10 3 67 74 60 37 44 9 2 10 74 53 30 60 29 46 74 67 28 47 75 68 46 16 53 74 47 17 54 75 67 74 60 37 68 75 61 38 74 53 30 60 75 54 31 61 28 47 75 68 27 48 76 69 47 17 54 75 48 18 55 76 68 75 61 38 69 76 62 39 75 54 31 61 76 55 32 62 27 48 76 69 26 49 77 70 48 18 55 76 49 19 56 77 69 76 62 39 70 77 63 40 76 55 32 62 77 56 33 63 26 49 77 70 25 50 78 71 49 19 56 77 50 20 57 78 70 77 63 40 71 78 64 41 77 56 33 63 78 57 34 64 25 50 78 71 24 51 79 72 50 20 57 78 51 21 58 79 71 78 64 41 72 79 65 42 78 57 34 64 79 58 35 65 24 51 79 72 23 52 80 73 51 21 58 79 52 22 59 80 72 79 65 42 73 80 66 43 79 58 35 65 80 59 36 66 23 52 80 73 4 12 45 15 52 22 59 80 12 5 13 45 73 80 66 43 15 45 14 7 80 59 36 66 45 13 6 14 
				</DataArray>
				<DataArray type="Int32" Name="offsets" format="ascii">
					8 16 24 32 40 48 56 64 72 80 88 96 104 112 120 128 136 144 152 160 168 176 184 192 200 208 216 224 232 240 248 256 
				</DataArray>
				<DataArray type="UInt8" Name="types" format="ascii">
					12 12 12 12 12 12 12 12 12 12 12 12 12 12 12 12 12 12 12 12 12 12 12 12 12 12 12 12 12 12 12 12 
				</DataArray>
			</Cells>
			<PointData>
				<DataArray type="Float32" Name="SENFREQ" NumberOfComponents="2" ComponentName0="DFDN" ComponentName1="DFDNFIL" format="ascii">
					 0.00000000E+00	 0.00000000E+00
					 0.00000000E+00	 0.00000000E+00
					 0.00000000E+00	 0.00000000E+00
					 0.00000000E+00	 0.00000000E+00
					-2.70927000E+12	-2.62382000E-01
					-2.70927000E+12	-2.62382000E-01
					-2.70927000E+12	-2.62382000E-01
					-2.70927000E+12	-2.62382000E-01
					 0.00000000E+00	 0.00000000E+00
					 0.00000000E+00	 0.00000000E+00
					 0.00000000E+00	 0.00000000E+00
					 0.00000000E+00	 0.00000000E+00
					 1.14530000E+12	 1.10918000E-01
					 1.14530000E+12	 1.10918000E-01
					 1.14530000E+12	 1.10918000E-01
					 1.14530000E+12	 1.10918000E-01
					 1.87218000E+12	 1.81313000E-01
					-1.76551000E+12	-1.70982000E-01
					-2.19004000E+12	-2.12097000E-01
					-1.18724000E+11	-1.14980000E-02
					 2.19645000E+12	 2.12717000E-01
					 1.81190000E+12	 1.75475000E-01
					-2.31057000E+12	-2.23769000E-01
					-2.31057000E+12	-2.23769000E-01
					 1.81190000E+12	 1.75475000E-01
					 2.19645000E+12	 2.12717000E-01
					-1.18724000E+11	-1.14980000E-02
					-2.19004000E+12	-2.12097000E-01
					-1.76551000E+12	-1.70982000E-01
					 1.87218000E+12	 1.81313000E-01
					 1.87218000E+12	 1.81313000E-01
					-1.76551000E+12	-1.70982000E-01
					-2.19004000E+12	-2.12097000E-01
					-1.18724000E+11	-1.14980000E-02
					 2.19645000E+12	 2.12717000E-01
					 1.81190000E+12	 1.75475000E-01
					-2.31057000E+12	-2.23769000E-01
					 1.87218000E+12	 1.81313000E-01
					-1.76551000E+12	-1.70982000E-01
					-2.19004000E+12	-2.12097000E-01
					-1.18724000E+11	-1.14980000E-02
					 2.19645000E+12	 2.12717000E-01
					 1.81190000E+12	 1.75475000E-01
					-2.31057000E+12	-2.23769000E-01
					 0.00000000E+00	 0.00000000E+00
					 1.03257000E+13	 1.00000000E+00
					 2.33695000E+12	 2.26324000E-01
					-1.93565000E+12	-1.87460000E-01
					-2.44589000E+12	-2.36874000E-01
					-4.85103000E+10	-4.69803000E-03
					 2.44295000E+12	 2.36590000E-01
					 2.32471000E+12	 2.25139000E-01
					-2.87219000E+12	-2.78160000E-01
					 2.33695000E+12	 2.26324000E-01
					-1.93565000E+12	-1.87460000E-01
					-2.44589000E+12	-2.36874000E-01
					-4.85103000E+10	-4.69803000E-03
					 2.44295000E+12	 2.36590000E-01
					 2.32471000E+12	 2.25139000E-01
					-2.87219000E+12	-2.78160000E-01
					 2.33695000E+12	 2.26324000E-01
					-1.93565000E+12	-1.87460000E-01
					-2.44589000E+12	-2.36874000E-01
					-4.85104000E+10	-4.69803000E-03
					 2.44295000E+12	 2.36590000E-01
					 2.32471000E+12	 2.25139000E-01
					-2.87219000E+12	-2.78160000E-01
					 2.33695000E+12	 2.26324000E-01
					-1.93565000E+12	-1.87460000E-01
					-2.44589000E+12	-2.36874000E-01
					-4.85103000E+10	-4.69803000E-03
					 2.44295000E+12	 2.36590000E-01
					 2.32471000E+12	 2.25139000E-01
					-2.87219000E+12	-2.78160000E-01
					 0.00000000E+00	 0.00000000E+00
					 0.00000000E+00	 0.00000000E+00
					 0.00000000E+00	 0.00000000E+00
					 0.00000000E+00	 0.00000000E+00
					 0.00000000E+00	 0.00000000E+00
					 0.00000000E+00	 0.00000000E+00
					 0.00000000E+00	 0.00000000E+00
				</DataArray>
			</PointData>
		</Piece>
	</UnstructuredGrid>
</VTKFile>