<?xml version="1.0"?>
<VTKFile type="UnstructuredGrid" version="0.1" byte_order="LittleEndian">
	<UnstructuredGrid>
		<Piece NumberOfPoints="261" NumberOfCells="32">
			<Points>
				<DataArray type="Float64" NumberOfComponents="3" format="ascii">
					 0.00000000E+00	 0.00000000E+00	 0.00000000E+00
					 1.00000000E+00	 0.00000000E+00	 0.00000000E+00
					 1.00000000E+00	 1.00000000E+00	 0.00000000E+00
					 0.00000000E+00	 1.00000000E+00	 0.00000000E+00
					 0.00000000E+00	 0.00000000E+00	 8.00000000E+00
					 1.00000000E+00	 0.00000000E+00	 8.00000000E+00
					 1.00000000E+00	 1.00000000E+00	 8.00000000E+00
					 0.00000000E+00	 1.00000000E+00	 8.00000000E+00
					 2.50000000E-01	 0.00000000E+00	 0.00000000E+00
					 5.00000000E-01	 0.00000000E+00	 0.00000000E+00
					 7.50000000E-01	 0.00000000E+00	 0.00000000E+00
					 1.00000000E+00	 2.50000000E-01	 0.00000000E+00
					 1.00000000E+00	 5.00000000E-01	 0.00000000E+00
					 1.00000000E+00	 7.50000000E-01	 0.00000000E+00
					 7.50000000E-01	 1.00000000E+00	 0.00000000E+00
					 5.00000000E-01	 1.00000000E+00	 0.00000000E+00
					 2.50000000E-01	 1.00000000E+00	 0.00000000E+00
					 0.00000000E+00	 7.50000000E-01	 0.00000000E+00
					 0.00000000E+00	 5.00000000E-01	 0.00000000E+00
					 0.00000000E+00	 2.50000000E-01	 0.00000000E+00
					 2.50000000E-01	 0.00000000E+00	 8.00000000E+00
					 5.00000000E-01	 0.00000000E+00	 8.00000000E+00
					 7.50000000E-01	 0.00000000E+00	 8.00000000E+00
					 1.00000000E+00	 2.50000000E-01	 8.00000000E+00
					 1.00000000E+00	 5.00000000E-01	 8.00000000E+00
					 1.00000000E+00	 7.50000000E-01	 8.00000000E+00
					 7.50000000E-01	 1.00000000E+00	 8.00000000E+00
					 5.00000000E-01	 1.00000000E+00	 8.00000000E+00
					 2.50000000E-01	 1.00000000E+00	 8.00000000E+00
					 0.00000000E+00	 7.50000000E-01	 8.00000000E+00
					 0.00000000E+00	 5.00000000E-01	 8.00000000E+00
					 0.00000000E+00	 2.50000000E-01	 8.00000000E+00
					 1.00000000E+00	 0.00000000E+00	 5.00000000E-01
					 1.00000000E+00	 0.00000000E+00	 1.00000000E+00
					 1.00000000E+00	 0.00000000E+00	 1.50000000E+00
					 1.00000000E+00	 0.00000000E+00	 2.00000000E+00
					 1.00000000E+00	 0.00000000E+00	 2.50000000E+00
					 1.00000000E+00	 0.00000000E+00	 3.00000000E+00
					 1.00000000E+00	 0.00000000E+00	 3.50000000E+00
					 1.00000000E+00	 0.00000000E+00	 4.00000000E+00
					 1.00000000E+00	 0.00000000E+00	 4.50000000E+00
					 1.00000000E+00	 0.00000000E+00	 5.00000000E+00
					 1.00000000E+00	 0.00000000E+00	 5.50000000E+00
					 1.00000000E+00	 0.00000000E+00	 6.00000000E+00
					 1.00000000E+00	 0.00000000E+00	 6.50000000E+00
					 1.00000000E+00	 0.00000000E+00	 7.00000000E+00
					 1.00000000E+00	 0.00000000E+00	 7.50000000E+00
					 0.00000000E+00	 0.00000000E+00	 7.50000000E+00
					 0.00000000E+00	 0.00000000E+00	 7.00000000E+00
					 0.00000000E+00	 0.00000000E+00	 6.50000000E+00
					 0.00000000E+00	 0.00000000E+00	 6.00000000E+00
					 0.00000000E+00	 0.00000000E+00	 5.50000000E+00
					 0.00000000E+00	 0.00000000E+00	 5.00000000E+00
					 0.00000000E+00	 0.00000000E+00	 4.50000000E+00
					 0.00000000E+00	 0.00000000E+00	 4.00000000E+00
					 0.00000000E+00	 0.00000000E+00	 3.50000000E+00
					 0.00000000E+00	 0.00000000E+00	 3.00000000E+00
					 0.00000000E+00	 0.00000000E+00	 2.50000000E+00
					 0.00000000E+00	 0.00000000E+00	 2.00000000E+00
					 0.00000000E+00	 0.00000000E+00	 1.50000000E+00
					 0.00000000E+00	 0.00000000E+00	 1.00000000E+00
					 0.00000000E+00	 0.00000000E+00	 5.00000000E-01
					 1.00000000E+00	 1.00000000E+00	 5.00000000E-01
					 1.00000000E+00	 1.00000000E+00	 1.00000000E+00
					 1.00000000E+00	 1.00000000E+00	 1.50000000E+00
					 1.00000000E+00	 1.00000000E+00	 2.00000000E+00
					 1.00000000E+00	 1.00000000E+00	 2.50000000E+00
					 1.00000000E+00	 1.00000000E+00	 3.00000000E+00
					 1.00000000E+00	 1.00000000E+00	 3.50000000E+00
					 1.00000000E+00	 1.00000000E+00	 4.00000000E+00
					 1.00000000E+00	 1.00000000E+00	 4.50000000E+00
					 1.00000000E+00	 1.00000000E+00	 5.00000000E+00
					 1.00000000E+00	 1.00000000E+00	 5.50000000E+00
					 1.00000000E+00	 1.00000000E+00	 6.00000000E+00
					 1.00000000E+00	 1.00000000E+00	 6.50000000E+00
					 1.00000000E+00	 1.00000000E+00	 7.00000000E+00
					 1.00000000E+00	 1.00000000E+00	 7.50000000E+00
					 0.00000000E+00	 1.00000000E+00	 5.00000000E-01
					 0.00000000E+00	 1.00000000E+00	 1.00000000E+00
					 0.00000000E+00	 1.00000000E+00	 1.50000000E+00
					 0.00000000E+00	 1.00000000E+00	 2.00000000E+00
					 0.00000000E+00	 1.00000000E+00	 2.50000000E+00
					 0.00000000E+00	 1.00000000E+00	 3.00000000E+00
					 0.00000000E+00	 1.00000000E+00	 3.50000000E+00
					 0.00000000E+00	 1.00000000E+00	 4.00000000E+00
					 0.00000000E+00	 1.00000000E+00	 4.50000000E+00
					 0.00000000E+00	 1.00000000E+00	 5.00000000E+00
					 0.00000000E+00	 1.00000000E+00	 5.50000000E+00
					 0.00000000E+00	 1.00000000E+00	 6.00000000E+00
					 0.00000000E+00	 1.00000000E+00	 6.50000000E+00
					 0.00000000E+00	 1.00000000E+00	 7.00000000E+00
					 0.00000000E+00	 1.00000000E+00	 7.50000000E+00
					 5.00000000E-01	 2.50000000E-01	 0.00000000E+00
					 2.50000000E-01	 5.00000000E-01	 0.00000000E+00
					 5.00000000E-01	 5.00000000E-01	 0.00000000E+00
					 7.50000000E-01	 5.00000000E-01	 0.00000000E+00
					 5.00000000E-01	 7.50000000E-01	 0.00000000E+00
					 5.00000000E-01	 2.50000000E-01	 8.00000000E+00
					 2.50000000E-01	 5.00000000E-01	 8.00000000E+00
					 5.00000000E-01	 5.00000000E-01	 8.00000000E+00
					 7.50000000E-01	 5.00000000E-01	 8.00000000E+00
					 5.00000000E-01	 7.50000000E-01	 8.00000000E+00
					 5.00000000E-01	 0.00000000E+00	 5.00000000E-01
					 2.50000000E-01	 0.00000000E+00	 1.00000000E+00
					 5.00000000E-01	 0.00000000E+00	 1.00000000E+00
					 7.50000000E-01	 0.00000000E+00	 1.00000000E+00
					 5.00000000E-01	 0.00000000E+00	 1.50000000E+00
					 2.50000000E-01	 0.00000000E+00	 2.00000000E+00
					 5.00000000E-01	 0.00000000E+00	 2.00000000E+00
					 7.50000000E-01	 0.00000000E+00	 2.00000000E+00
					 5.00000000E-01	 0.00000000E+00	 2.50000000E+00
					 2.50000000E-01	 0.00000000E+00	 3.00000000E+00
					 5.00000000E-01	 0.00000000E+00	 3.00000000E+00
					 7.50000000E-01	 0.00000000E+00	 3.00000000E+00
					 5.00000000E-01	 0.00000000E+00	 3.50000000E+00
					 2.50000000E-01	 0.00000000E+00	 4.00000000E+00
					 5.00000000E-01	 0.00000000E+00	 4.00000000E+00
					 7.50000000E-01	 0.00000000E+00	 4.00000000E+00
					 5.00000000E-01	 0.00000000E+00	 4.50000000E+00
					 2.50000000E-01	 0.00000000E+00	 5.00000000E+00
					 5.00000000E-01	 0.00000000E+00	 5.00000000E+00
					 7.50000000E-01	 0.00000000E+00	 5.00000000E+00
					 5.00000000E-01	 0.00000000E+00	 5.50000000E+00
					 2.50000000E-01	 0.00000000E+00	 6.00000000E+00
					 5.00000000E-01	 0.00000000E+00	 6.00000000E+00
					 7.50000000E-01	 0.00000000E+00	 6.00000000E+00
					 5.00000000E-01	 0.00000000E+00	 6.50000000E+00
					 2.50000000E-01	 0.00000000E+00	 7.00000000E+00
					 5.00000000E-01	 0.00000000E+00	 7.00000000E+00
					 7.50000000E-01	 0.00000000E+00	 7.00000000E+00
					 5.00000000E-01	 0.00000000E+00	 7.50000000E+00
					 1.00000000E+00	 5.00000000E-01	 5.00000000E-01
					 1.00000000E+00	 2.50000000E-01	 1.00000000E+00
					 1.00000000E+00	 5.00000000E-01	 1.00000000E+00
					 1.00000000E+00	 7.50000000E-01	 1.00000000E+00
					 1.00000000E+00	 5.00000000E-01	 1.50000000E+00
					 1.00000000E+00	 2.50000000E-01	 2.00000000E+00
					 1.00000000E+00	 5.00000000E-01	 2.00000000E+00
					 1.00000000E+00	 7.50000000E-01	 2.00000000E+00
					 1.00000000E+00	 5.00000000E-01	 2.50000000E+00
					 1.00000000E+00	 2.50000000E-01	 3.00000000E+00
					 1.00000000E+00	 5.00000000E-01	 3.00000000E+00
					 1.00000000E+00	 7.50000000E-01	 3.00000000E+00
					 1.00000000E+00	 5.00000000E-01	 3.50000000E+00
					 1.00000000E+00	 2.50000000E-01	 4.00000000E+00
					 1.00000000E+00	 5.00000000E-01	 4.00000000E+00
					 1.00000000E+00	 7.50000000E-01	 4.00000000E+00
					 1.00000000E+00	 5.00000000E-01	 4.50000000E+00
					 1.00000000E+00	 2.50000000E-01	 5.00000000E+00
					 1.00000000E+00	 5.00000000E-01	 5.00000000E+00
					 1.00000000E+00	 7.50000000E-01	 5.00000000E+00
					 1.00000000E+00	 5.00000000E-01	 5.50000000E+00
					 1.00000000E+00	 2.50000000E-01	 6.00000000E+00
					 1.00000000E+00	 5.00000000E-01	 6.00000000E+00
					 1.00000000E+00	 7.50000000E-01	 6.00000000E+00
					 1.00000000E+00	 5.00000000E-01	 6.50000000E+00
					 1.00000000E+00	 2.50000000E-01	 7.00000000E+00
					 1.00000000E+00	 5.00000000E-01	 7.00000000E+00
					 1.00000000E+00	 7.50000000E-01	 7.00000000E+00
					 1.00000000E+00	 5.00000000E-01	 7.50000000E+00
					 5.00000000E-01	 1.00000000E+00	 5.00000000E-01
					 7.50000000E-01	 1.00000000E+00	 1.00000000E+00
					 5.00000000E-01	 1.00000000E+00	 1.00000000E+00
					 2.50000000E-01	 1.00000000E+00	 1.00000000E+00
					 5.00000000E-01	 1.00000000E+00	 1.50000000E+00
					 7.50000000E-01	 1.00000000E+00	 2.00000000E+00
					 5.00000000E-01	 1.00000000E+00	 2.00000000E+00
					 2.50000000E-01	 1.00000000E+00	 2.00000000E+00
					 5.00000000E-01	 1.00000000E+00	 2.50000000E+00
					 7.50000000E-01	 1.00000000E+00	 3.00000000E+00
					 5.00000000E-01	 1.00000000E+00	 3.00000000E+00
					 2.50000000E-01	 1.00000000E+00	 3.00000000E+00
					 5.00000000E-01	 1.00000000E+00	 3.50000000E+00
					 7.50000000E-01	 1.00000000E+00	 4.00000000E+00
					 5.00000000E-01	 1.00000000E+00	 4.00000000E+00
					 2.50000000E-01	 1.00000000E+00	 4.00000000E+00
					 5.00000000E-01	 1.00000000E+00	 4.50000000E+00
					 7.50000000E-01	 1.00000000E+00	 5.00000000E+00
					 5.00000000E-01	 1.00000000E+00	 5.00000000E+00
					 2.50000000E-01	 1.00000000E+00	 5.00000000E+00
					 5.00000000E-01	 1.00000000E+00	 5.50000000E+00
					 7.50000000E-01	 1.00000000E+00	 6.00000000E+00
					 5.00000000E-01	 1.00000000E+00	 6.00000000E+00
					 2.50000000E-01	 1.00000000E+00	 6.00000000E+00
					 5.00000000E-01	 1.00000000E+00	 6.50000000E+00
					 7.50000000E-01	 1.00000000E+00	 7.00000000E+00
					 5.00000000E-01	 1.00000000E+00	 7.00000000E+00
					 2.50000000E-01	 1.00000000E+00	 7.00000000E+00
					 5.00000000E-01	 1.00000000E+00	 7.50000000E+00
					 0.00000000E+00	 5.00000000E-01	 5.00000000E-01
					 0.00000000E+00	 7.50000000E-01	 1.00000000E+00
					 0.00000000E+00	 5.00000000E-01	 1.00000000E+00
					 0.00000000E+00	 2.50000000E-01	 1.00000000E+00
					 0.00000000E+00	 5.00000000E-01	 1.50000000E+00
					 0.00000000E+00	 7.50000000E-01	 2.00000000E+00
					 0.00000000E+00	 5.00000000E-01	 2.00000000E+00
					 0.00000000E+00	 2.50000000E-01	 2.00000000E+00
					 0.00000000E+00	 5.00000000E-01	 2.50000000E+00
					 0.00000000E+00	 7.50000000E-01	 3.00000000E+00
					 0.00000000E+00	 5.00000000E-01	 3.00000000E+00
					 0.00000000E+00	 2.50000000E-01	 3.00000000E+00
					 0.00000000E+00	 5.00000000E-01	 3.50000000E+00
					 0.00000000E+00	 7.50000000E-01	 4.00000000E+00
					 0.00000000E+00	 5.00000000E-01	 4.00000000E+00
					 0.00000000E+00	 2.50000000E-01	 4.00000000E+00
					 0.00000000E+00	 5.00000000E-01	 4.50000000E+00
					 0.00000000E+00	 7.50000000E-01	 5.00000000E+00
					 0.00000000E+00	 5.00000000E-01	 5.00000000E+00
					 0.00000000E+00	 2.50000000E-01	 5.00000000E+00
					 0.00000000E+00	 5.00000000E-01	 5.50000000E+00
					 0.00000000E+00	 7.50000000E-01	 6.00000000E+00
					 0.00000000E+00	 5.00000000E-01	 6.00000000E+00
					 0.00000000E+00	 2.50000000E-01	 6.00000000E+00
					 0.00000000E+00	 5.00000000E-01	 6.50000000E+00
					 0.00000000E+00	 7.50000000E-01	 7.00000000E+00
					 0.00000000E+00	 5.00000000E-01	 7.00000000E+00
					 0.00000000E+00	 2.50000000E-01	 7.00000000E+00
					 0.00000000E+00	 5.00000000E-01	 7.50000000E+00
					 5.00000000E-01	 5.00000000E-01	 5.00000000E-01
					 5.00000000E-01	 2.50000000E-01	 1.00000000E+00
					 2.50000000E-01	 5.00000000E-01	 1.00000000E+00
					 5.00000000E-01	 5.00000000E-01	 1.00000000E+00
					 7.50000000E-01	 5.00000000E-01	 1.00000000E+00
					 5.00000000E-01	 7.50000000E-01	 1.00000000E+00
					 5.00000000E-01	 5.00000000E-01	 1.50000000E+00
					 5.00000000E-01	 2.50000000E-01	 2.00000000E+00
					 2.50000000E-01	 5.00000000E-01	 2.00000000E+00
					 5.00000000E-01	 5.00000000E-01	 2.00000000E+00
					 7.50000000E-01	 5.00000000E-01	 2.00000000E+00
					 5.00000000E-01	 7.50000000E-01	 2.00000000E+00
					 5.00000000E-01	 5.00000000E-01	 2.50000000E+00
					 5.00000000E-01	 2.50000000E-01	 3.00000000E+00
					 2.50000000E-01	 5.00000000E-01	 3.00000000E+00
					 5.00000000E-01	 5.00000000E-01	 3.00000000E+00
					 7.50000000E-01	 5.00000000E-01	 3.00000000E+00
					 5.00000000E-01	 7.50000000E-01	 3.00000000E+00
					 5.00000000E-01	 5.00000000E-01	 3.50000000E+00
					 5.00000000E-01	 2.50000000E-01	 4.00000000E+00
					 2.50000000E-01	 5.00000000E-01	 4.00000000E+00
					 5.00000000E-01	 5.00000000E-01	 4.00000000E+00
					 7.50000000E-01	 5.00000000E-01	 4.00000000E+00
					 5.00000000E-01	 7.50000000E-01	 4.00000000E+00
					 5.00000000E-01	 5.00000000E-01	 4.50000000E+00
					 5.00000000E-01	 2.50000000E-01	 5.00000000E+00
					 2.50000000E-01	 5.00000000E-01	 5.00000000E+00
					 5.00000000E-01	 5.00000000E-01	 5.00000000E+00
					 7.50000000E-01	 5.00000000E-01	 5.00000000E+00
					 5.00000000E-01	 7.50000000E-01	 5.00000000E+00
					 5.00000000E-01	 5.00000000E-01	 5.50000000E+00
					 5.00000000E-01	 2.50000000E-01	 6.00000000E+00
					 2.50000000E-01	 5.00000000E-01	 6.00000000E+00
					 5.00000000E-01	 5.00000000E-01	 6.00000000E+00
					 7.50000000E-01	 5.00000000E-01	 6.00000000E+00
					 5.00000000E-01	 7.50000000E-01	 6.00000000E+00
					 5.00000000E-01	 5.00000000E-01	 6.50000000E+00
					 5.00000000E-01	 2.50000000E-01	 7.00000000E+00
					 2.50000000E-01	 5.00000000E-01	 7.00000000E+00
					 5.00000000E-01	 5.00000000E-01	 7.00000000E+00
					 7.50000000E-01	 5.00000000E-01	 7.00000000E+00
					 5.00000000E-01	 7.50000000E-01	 7.00000000E+00
					 5.00000000E-01	 5.00000000E-01	 7.50000000E+00

				</DataArray>
			</Points>
			<Cells>
				<DataArray type="Int32" Name="connectivity" format="ascii">
					0 9 94 18 60 104 221 191 8 92 93 19 103 219 220 192 61 102 218 189 9 1 12 94 104 33 133 221 10 11 95 92 105 132 222 219 102 32 131 218 18 94 15 3 191 221 162 78 93 96 16 17 220 223 163 190 189 218 160 77 94 12 2 15 221 133 63 162 95 13 14 96 222 134 161 223 218 131 62 160 60 104 221 191 58 108 227 195 103 219 220 192 107 225 226 196 59 106 224 193 104 33 133 221 108 35 137 227 105 132 222 219 109 136 228 225 106 34 135 224 191 221 162 78 195 227 166 80 220 223 163 190 226 229 167 194 193 224 164 79 221 133 63 162 227 137 65 166 222 134 161 223 228 138 165 229 224 135 64 164 58 108 227 195 56 112 233 199 107 225 226 196 111 231 232 200 57 110 230 197 108 35 137 227 112 37 141 233 109 136 228 225 113 140 234 231 110 36 139 230 195 227 166 80 199 233 170 82 226 229 167 194 232 235 171 198 197 230 168 81 227 137 65 166 233 141 67 170 228 138 165 229 234 142 169 235 230 139 66 168 56 112 233 199 54 116 239 203 111 231 232 200 115 237 238 204 55 114 236 201 112 37 141 233 116 39 145 239 113 140 234 231 117 144 240 237 114 38 143 236 199 233 170 82 203 239 174 84 232 235 171 198 238 241 175 202 201 236 172 83 233 141 67 170 239 145 69 174 234 142 169 235 240 146 173 241 236 143 68 172 54 116 239 203 52 120 245 207 115 237 238 204 119 243 244 208 53 118 242 205 116 39 145 239 120 41 149 245 117 144 240 237 121 148 246 243 118 40 147 242 203 239 174 84 207 245 178 86 238 241 175 202 244 247 179 206 205 242 176 85 239 145 69 174 245 149 71 178 240 146 173 241 246 150 177 247 242 147 70 176 52 120 245 207 50 124 251 211 119 243 244 208 123 249 250 212 51 122 248 209 120 41 149 245 124 43 153 251 121 148 246 243 125 152 252 249 122 42 151 248 207 245 178 86 211 251 182 88 244 247 179 206 250 253 183 210 209 248 180 87 245 149 71 178 251 153 73 182 246 150 177 247 252 154 181 253 248 151 72 180 50 124 251 211 48 128 257 215 123 249 250 212 127 255 256 216 49 126 254 213 124 43 153 251 128 45 157 257 125 152 252 249 129 156 258 255 126 44 155 254 211 251 182 88 215 257 186 90 250 253 183 210 256 259 187 214 213 254 184 89 251 153 73 182 257 157 75 186 252 154 181 253 258 158 185 259 254 155 74 184 48 128 257 215 4 21 99 30 127 255 256 216 20 97 98 31 47 130 260 217 128 45 157 257 21 5 24 99 129 156 258 255 22 23 100 97 130 46 159 260 215 257 186 90 30 99 27 7 256 259 187 214 98 101 28 29 217 260 188 91 257 157 75 186 99 24 6 27 258 158 185 259 100 25 26 101 260 159 76 188 
				</DataArray>
				<DataArray type="Int32" Name="offsets" format="ascii">
					20 40 60 80 100 120 140 160 180 200 220 240 260 280 300 320 340 360 380 400 420 440 460 480 500 520 540 560 580 600 620 640 
				</DataArray>
				<DataArray type="UInt8" Name="types" format="ascii">
					25 25 25 25 25 25 25 25 25 25 25 25 25 25 25 25 25 25 25 25 25 25 25 25 25 25 25 25 25 25 25 25 
				</DataArray>
			</Cells>
			<PointData>
				<DataArray type="Float32" Name="U" NumberOfComponents="3" ComponentName0="D1" ComponentName1="D2" ComponentName2="D3" format="ascii">
					 0.00000000E+00	 0.00000000E+00	 0.00000000E+00
					 0.00000000E+00	 0.00000000E+00	 0.00000000E+00
					 0.00000000E+00	 0.00000000E+00	 0.00000000E+00
					 0.00000000E+00	 0.00000000E+00	 0.00000000E+00
					 9.63462000E-06	 9.84119000E-02	 8.75157000E-03
					-1.92701000E-05	 9.84166000E-02	 8.75333000E-03
					 4.97377000E-06	 9.82356000E-02	-1.02233000E-02
					-2.32738000E-05	 9.82318000E-02	-1.02249000E-02
					 0.00000000E+00	 0.00000000E+00	 0.00000000E+00
					 0.00000000E+00	 0.00000000E+00	 0.00000000E+00
					 0.00000000E+00	 0.00000000E+00	 0.00000000E+00
					 0.00000000E+00	 0.00000000E+00	 0.00000000E+00
					 0.00000000E+00	 0.00000000E+00	 0.00000000E+00
					 0.00000000E+00	 0.00000000E+00	 0.00000000E+00
					 0.00000000E+00	 0.00000000E+00	 0.00000000E+00
					 0.00000000E+00	 0.00000000E+00	 0.00000000E+00
					 0.00000000E+00	 0.00000000E+00	 0.00000000E+00
					 0.00000000E+00	 0.00000000E+00	 0.00000000E+00
					 0.00000000E+00	 0.00000000E+00	 0.00000000E+00
					 0.00000000E+00	 0.00000000E+00	 0.00000000E+00
					 8.40223000E-06	 9.84260000E-02	 8.75391000E-03
					-4.84815000E-06	 9.83780000E-02	 8.75218000E-03
					-1.80502000E-05	 9.84284000E-02	 8.75492000E-03
					-4.30626000E-06	 9.83562000E-02	 3.99593000E-03
					-6.51671000E-06	 9.82810000E-02	-7.35083000E-04
					-9.16767000E-06	 9.82664000E-02	-5.46559000E-03
					 3.90826000E-06	 9.82481000E-02	-1.02258000E-02
					-9.16341000E-06	 9.81990000E-02	-1.02237000E-02
					-2.22127000E-05	 9.82463000E-02	-1.02266000E-02
					-6.77783000E-06	 9.82620000E-02	-5.46656000E-03
					-7.32021000E-06	 9.82760000E-02	-7.36157000E-04
					-7.41016000E-06	 9.83514000E-02	 3.99448000E-03
					-3.16298000E-04	 5.09091000E-04	 9.36362000E-04
					-2.44370000E-04	 1.89371000E-03	 1.90739000E-03
					-2.80184000E-04	 4.36912000E-03	 2.84999000E-03
					-2.53286000E-04	 7.70689000E-03	 3.73835000E-03
					-2.42741000E-04	 1.19701000E-02	 4.55270000E-03
					-2.21503000E-04	 1.70071000E-02	 5.30537000E-03
					-2.07281000E-04	 2.28057000E-02	 5.99063000E-03
					-1.91235000E-04	 2.92856000E-02	 6.61669000E-03
					-1.75521000E-04	 3.64142000E-02	 7.17928000E-03
					-1.55217000E-04	 4.41379000E-02	 7.67302000E-03
					-1.32893000E-04	 5.23742000E-02	 8.08108000E-03
					-1.08531000E-04	 6.10642000E-02	 8.40689000E-03
					-8.66584000E-05	 7.00946000E-02	 8.63530000E-03
					-5.38554000E-05	 7.94347000E-02	 8.78070000E-03
					-3.46535000E-05	 8.88754000E-02	 8.80959000E-03
					 2.62394000E-05	 8.88711000E-02	 8.80814000E-03
					 4.65796000E-05	 7.94302000E-02	 8.77937000E-03
					 8.05279000E-05	 7.00904000E-02	 8.63395000E-03
					 1.03767000E-04	 6.10601000E-02	 8.40570000E-03
					 1.29801000E-04	 5.23696000E-02	 8.07992000E-03
					 1.54061000E-04	 4.41328000E-02	 7.67194000E-03
					 1.76047000E-04	 3.64086000E-02	 7.17829000E-03
					 1.92744000E-04	 2.92800000E-02	 6.61584000E-03
					 2.08972000E-04	 2.28007000E-02	 5.98988000E-03
					 2.22867000E-04	 1.70033000E-02	 5.30471000E-03
					 2.43611000E-04	 1.19674000E-02	 4.55211000E-03
					 2.53799000E-04	 7.70513000E-03	 3.73784000E-03
					 2.80466000E-04	 4.36806000E-03	 2.84958000E-03
					 2.44566000E-04	 1.89313000E-03	 1.90709000E-03
					 3.16409000E-04	 5.08816000E-04	 9.36204000E-04
					 3.16352000E-04	 5.06194000E-04	-9.37251000E-04
					 2.43683000E-04	 1.88512000E-03	-1.91286000E-03
					 2.79294000E-04	 4.35176000E-03	-2.86791000E-03
					 2.51837000E-04	 7.67735000E-03	-3.77873000E-03
					 2.40663000E-04	 1.19271000E-02	-4.62901000E-03
					 2.18692000E-04	 1.69485000E-02	-5.43183000E-03
					 2.03727000E-04	 2.27307000E-02	-6.18342000E-03
					 1.86762000E-04	 2.91934000E-02	-6.89237000E-03
					 1.70058000E-04	 3.63049000E-02	-7.55519000E-03
					 1.48537000E-04	 4.40116000E-02	-8.16677000E-03
					 1.25092000E-04	 5.22325000E-02	-8.70890000E-03
					 9.93310000E-05	 6.09085000E-02	-9.18418000E-03
					 7.65795000E-05	 6.99284000E-02	-9.57381000E-03
					 4.23053000E-05	 7.92588000E-02	-9.89161000E-03
					 2.15067000E-05	 8.86970000E-02	-1.00985000E-02
					-3.16688000E-04	 5.06021000E-04	-9.37412000E-04
					-2.44587000E-04	 1.88460000E-03	-1.91316000E-03
					-2.81063000E-04	 4.35077000E-03	-2.86832000E-03
					-2.54789000E-04	 7.67565000E-03	-3.77924000E-03
					-2.45138000E-04	 1.19244000E-02	-4.62960000E-03
					-2.24966000E-04	 1.69447000E-02	-5.43250000E-03
					-2.11816000E-04	 2.27258000E-02	-6.18416000E-03
					-1.96362000E-04	 2.91879000E-02	-6.89322000E-03
					-1.80702000E-04	 3.62992000E-02	-7.55612000E-03
					-1.59707000E-04	 4.40066000E-02	-8.16779000E-03
					-1.36614000E-04	 5.22283000E-02	-8.70999000E-03
					-1.11617000E-04	 6.09049000E-02	-9.18534000E-03
					-9.00966000E-05	 6.99244000E-02	-9.57487000E-03
					-5.74256000E-05	 7.92551000E-02	-9.89288000E-03
					-3.85279000E-05	 8.86921000E-02	-1.00998000E-02
					 0.00000000E+00	 0.00000000E+00	 0.00000000E+00
					 0.00000000E+00	 0.00000000E+00	 0.00000000E+00
					 0.00000000E+00	 0.00000000E+00	 0.00000000E+00
					 0.00000000E+00	 0.00000000E+00	 0.00000000E+00
					 0.00000000E+00	 0.00000000E+00	 0.00000000E+00
					-5.89349000E-06	 9.84513000E-02	 4.01936000E-03
					-7.01274000E-06	 9.83580000E-02	-7.35864000E-04
					-6.92182000E-06	 9.85476000E-02	-7.35981000E-04
					-6.82778000E-06	 9.83604000E-02	-7.35355000E-04
					-8.05338000E-06	 9.83610000E-02	-5.49236000E-03
					 7.84234000E-08	 6.45199000E-04	 9.07170000E-04
					 1.21124000E-04	 2.00918000E-03	 1.91612000E-03
					 1.03117000E-07	 2.03607000E-03	 1.93028000E-03
					-1.20917000E-04	 2.00947000E-03	 1.91633000E-03
					 1.59194000E-07	 4.50273000E-03	 2.84879000E-03
					 1.27023000E-04	 7.80354000E-03	 3.74342000E-03
					 2.60528000E-07	 7.84114000E-03	 3.74399000E-03
					-1.26504000E-04	 7.80442000E-03	 3.74379000E-03
					 4.53720000E-07	 1.20881000E-02	 4.55469000E-03
					 1.11651000E-04	 1.70893000E-02	 5.30784000E-03
					 6.79145000E-07	 1.71183000E-02	 5.30783000E-03
					-1.10287000E-04	 1.70912000E-02	 5.30837000E-03
					 8.40421000E-07	 2.29074000E-02	 5.99246000E-03
					 9.67645000E-05	 2.93524000E-02	 6.61817000E-03
					 7.38507000E-07	 2.93763000E-02	 6.61756000E-03
					-9.52631000E-05	 2.93551000E-02	 6.61865000E-03
					 2.59530000E-07	 3.65015000E-02	 7.18218000E-03
					 7.66240000E-05	 4.41869000E-02	 7.67559000E-03
					-5.84701000E-07	 4.42031000E-02	 7.67376000E-03
					-7.77861000E-05	 4.41895000E-02	 7.67599000E-03
					-1.50251000E-06	 5.24449000E-02	 8.08549000E-03
					 5.10623000E-05	 6.10929000E-02	 8.40714000E-03
					-2.36030000E-06	 6.10942000E-02	 8.40342000E-03
					-5.58029000E-05	 6.10950000E-02	 8.40769000E-03
					-2.96120000E-06	 7.01479000E-02	 8.64698000E-03
					 2.07324000E-05	 7.94175000E-02	 8.78142000E-03
					-3.62601000E-06	 7.94076000E-02	 8.77598000E-03
					-2.79974000E-05	 7.94198000E-02	 8.78218000E-03
					-4.12177000E-06	 8.89298000E-02	 8.81757000E-03
					 2.27264000E-07	 3.12051000E-04	-3.39215000E-07
					-1.23157000E-04	 1.80782000E-03	 9.50686000E-04
					 1.29934000E-07	 1.81466000E-03	-2.29881000E-06
					 1.23036000E-04	 1.80340000E-03	-9.55556000E-04
					-8.14857000E-08	 4.20133000E-03	-7.98551000E-06
					-1.26503000E-04	 7.62023000E-03	 1.84874000E-03
					-4.12784000E-07	 7.59364000E-03	-1.93054000E-05
					 1.25417000E-04	 7.60556000E-03	-1.88765000E-03
					-7.83028000E-07	 1.18188000E-02	-3.68779000E-05
					-1.11438000E-04	 1.69132000E-02	 2.61309000E-03
					-1.16620000E-06	 1.68766000E-02	-6.20732000E-05
					 1.08907000E-04	 1.68840000E-02	-2.73779000E-03
					-1.58620000E-06	 2.26616000E-02	-9.50453000E-05
					-9.65673000E-05	 2.91916000E-02	 3.23195000E-03
					-2.06199000E-06	 2.91456000E-02	-1.36496000E-04
					 9.22962000E-05	 2.91457000E-02	-3.50561000E-03
					-2.61659000E-06	 3.62733000E-02	-1.86642000E-04
					-7.93406000E-05	 4.40445000E-02	 3.70221000E-03
					-3.21682000E-06	 4.39908000E-02	-2.45470000E-04
					 7.27900000E-05	 4.39817000E-02	-4.19391000E-03
					-3.88634000E-06	 5.22443000E-02	-3.12866000E-04
					-5.59610000E-05	 6.09784000E-02	 3.99697000E-03
					-4.47391000E-06	 6.09188000E-02	-3.87288000E-04
					 4.68990000E-05	 6.09009000E-02	-4.77239000E-03
					-5.34422000E-06	 6.99791000E-02	-4.68787000E-04
					-3.17967000E-05	 7.93383000E-02	 4.09955000E-03
					-5.59291000E-06	 7.92593000E-02	-5.54312000E-04
					 2.03013000E-05	 7.92508000E-02	-5.20906000E-03
					-6.61430000E-06	 8.88269000E-02	-6.44853000E-04
					-1.59445000E-07	 6.42362000E-04	-9.08623000E-04
					 1.20551000E-04	 2.00060000E-03	-1.92288000E-03
					-4.52848000E-07	 2.02733000E-03	-1.93732000E-03
					-1.21448000E-04	 2.00034000E-03	-1.92296000E-03
					-8.80463000E-07	 4.48513000E-03	-2.86872000E-03
					 1.25247000E-04	 7.77471000E-03	-3.78603000E-03
					-1.47465000E-06	 7.81156000E-03	-3.78704000E-03
					-1.28194000E-04	 7.77385000E-03	-3.78616000E-03
					-2.23924000E-06	 1.20448000E-02	-4.63385000E-03
					 1.07724000E-04	 1.70324000E-02	-5.43702000E-03
					-3.12753000E-06	 1.70596000E-02	-5.43743000E-03
					-1.13985000E-04	 1.70305000E-02	-5.43716000E-03
					-4.02374000E-06	 2.28322000E-02	-6.18858000E-03
					 9.10553000E-05	 2.92628000E-02	-6.89670000E-03
					-4.78182000E-06	 2.92841000E-02	-6.89663000E-03
					-1.00637000E-04	 2.92601000E-02	-6.89706000E-03
					-5.29622000E-06	 3.63920000E-02	-7.56179000E-03
					 7.13878000E-05	 4.40630000E-02	-8.17201000E-03
					-5.59060000E-06	 4.40769000E-02	-8.17075000E-03
					-8.25609000E-05	 4.40605000E-02	-8.17265000E-03
					-5.78188000E-06	 5.23030000E-02	-8.71696000E-03
					 4.69332000E-05	 6.09395000E-02	-9.18655000E-03
					-6.18420000E-06	 6.09394000E-02	-9.18290000E-03
					-5.92585000E-05	 6.09377000E-02	-9.18716000E-03
					-6.79817000E-06	 6.99809000E-02	-9.58889000E-03
					 1.66039000E-05	 7.92451000E-02	-9.89393000E-03
					-7.64340000E-06	 7.92341000E-02	-9.88815000E-03
					-3.18005000E-05	 7.92432000E-02	-9.89447000E-03
					-8.43539000E-06	 8.87498000E-02	-1.01090000E-02
					-3.60182000E-07	 3.11813000E-04	-4.92200000E-07
					-1.23683000E-04	 1.80286000E-03	-9.55919000E-04
					-5.04922000E-07	 1.81410000E-03	-2.60066000E-06
					 1.23062000E-04	 1.80725000E-03	 9.50446000E-04
					-6.75766000E-07	 4.20029000E-03	-8.39735000E-06
					-1.27517000E-04	 7.60384000E-03	-1.88828000E-03
					-8.25444000E-07	 7.59190000E-03	-1.98144000E-05
					 1.26140000E-04	 7.61848000E-03	 1.84835000E-03
					-1.02934000E-06	 1.18161000E-02	-3.74665000E-05
					-1.13283000E-04	 1.68802000E-02	-2.73865000E-03
					-1.30664000E-06	 1.68728000E-02	-6.27365000E-05
					 1.10880000E-04	 1.69094000E-02	 2.61262000E-03
					-1.62442000E-06	 2.26568000E-02	-9.57896000E-05
					-9.91340000E-05	 2.91402000E-02	-3.50652000E-03
					-2.01429000E-06	 2.91400000E-02	-1.37345000E-04
					 9.52758000E-05	 2.91860000E-02	 3.23117000E-03
					-2.44709000E-06	 3.62677000E-02	-1.87593000E-04
					-8.14804000E-05	 4.39767000E-02	-4.19479000E-03
					-2.99716000E-06	 4.39857000E-02	-2.46484000E-04
					 7.56400000E-05	 4.40394000E-02	 3.70103000E-03
					-3.49507000E-06	 5.22399000E-02	-3.13923000E-04
					-5.73532000E-05	 6.08972000E-02	-4.77352000E-03
					-4.16645000E-06	 6.09147000E-02	-3.88489000E-04
					 4.92298000E-05	 6.09742000E-02	 3.99577000E-03
					-4.59295000E-06	 6.99752000E-02	-4.69941000E-04
					-3.34313000E-05	 7.92467000E-02	-5.21035000E-03
					-5.62700000E-06	 7.92547000E-02	-5.55463000E-04
					 2.25033000E-05	 7.93337000E-02	 4.09821000E-03
					-5.87315000E-06	 8.88228000E-02	-6.46067000E-04
					-5.12521000E-08	 4.48036000E-04	-6.78895000E-07
					-4.30318000E-08	 1.94353000E-03	 9.58639000E-04
					-3.60056000E-07	 1.92583000E-03	-2.92802000E-06
					-1.82858000E-07	 1.94642000E-03	-2.98495000E-06
					-3.59450000E-09	 1.92611000E-03	-2.78094000E-06
					-3.21208000E-07	 1.93899000E-03	-9.64987000E-04
					-3.69385000E-07	 4.33863000E-03	-9.01328000E-06
					-1.77061000E-07	 7.75072000E-03	 1.85359000E-03
					-7.30842000E-07	 7.68581000E-03	-2.04530000E-05
					-6.12422000E-07	 7.71977000E-03	-2.05582000E-05
					-4.97829000E-07	 7.68668000E-03	-2.02001000E-05
					-1.04520000E-06	 7.73596000E-03	-1.89507000E-03
					-9.00520000E-07	 1.19391000E-02	-3.83285000E-05
					-2.76717000E-07	 1.70237000E-02	 2.61536000E-03
					-1.27650000E-06	 1.69582000E-02	-6.34934000E-05
					-1.22773000E-06	 1.69864000E-02	-6.36283000E-05
					-1.18491000E-06	 1.69602000E-02	-6.31602000E-05
					-2.17917000E-06	 1.69944000E-02	-2.74319000E-03
					-1.60009000E-06	 2.27626000E-02	-9.66950000E-05
					-6.40409000E-07	 2.92850000E-02	 3.23321000E-03
					-2.02332000E-06	 2.92147000E-02	-1.38159000E-04
					-2.02219000E-06	 2.92420000E-02	-1.38298000E-04
					-2.03137000E-06	 2.92174000E-02	-1.37735000E-04
					-3.40444000E-06	 2.92391000E-02	-3.51037000E-03