<?xml version="1.0"?>
<VTKFile type="UnstructuredGrid" version="0.1" byte_order="LittleEndian">
	<UnstructuredGrid>
		<Piece NumberOfPoints="81" NumberOfCells="32">
			<Points>
				<DataArray type="Float64" NumberOfComponents="3" format="ascii">
					 0.00000000E+00	 0.00000000E+00	 0.00000000E+00
					 1.00000000E+00	 0.00000000E+00	 0.00000000E+00
					 1.00000000E+00	 1.00000000E+00	 0.00000000E+00
					 0.00000000E+00	 1.00000000E+00	 0.00000000E+00
					 0.00000000E+00	 0.00000000E+00	 8.00000000E+00
					 1.00000000E+00	 0.00000000E+00	 8.00000000E+00
					 1.00000000E+00	 1.00000000E+00	 8.00000000E+00
					 0.00000000E+00	 1.00000000E+00	 8.00000000E+00
					 5.00000000E-01	 0.00000000E+00	 0.00000000E+00
					 1.00000000E+00	 5.00000000E-01	 0.00000000E+00
					 5.00000000E-01	 1.00000000E+00	 0.00000000E+00
					 0.00000000E+00	 5.00000000E-01	 0.00000000E+00
					 5.00000000E-01	 0.00000000E+00	 8.00000000E+00
					 1.00000000E+00	 5.00000000E-01	 8.00000000E+00
					 5.00000000E-01	 1.00000000E+00	 8.00000000E+00
					 0.00000000E+00	 5.00000000E-01	 8.00000000E+00
					 1.00000000E+00	 0.00000000E+00	 1.00000000E+00
					 1.00000000E+00	 0.00000000E+00	 2.00000000E+00
					 1.00000000E+00	 0.00000000E+00	 3.00000000E+00
					 1.00000000E+00	 0.00000000E+00	 4.00000000E+00
					 1.00000000E+00	 0.00000000E+00	 5.00000000E+00
					 1.00000000E+00	 0.00000000E+00	 6.00000000E+00
					 1.00000000E+00	 0.00000000E+00	 7.00000000E+00
					 0.00000000E+00	 0.00000000E+00	 7.00000000E+00
					 0.00000000E+00	 0.00000000E+00	 6.00000000E+00
					 0.00000000E+00	 0.00000000E+00	 5.00000000E+00
					 0.00000000E+00	 0.00000000E+00	 4.00000000E+00
					 0.00000000E+00	 0.00000000E+00	 3.00000000E+00
					 0.00000000E+00	 0.00000000E+00	 2.00000000E+00
					 0.00000000E+00	 0.00000000E+00	 1.00000000E+00
					 1.00000000E+00	 1.00000000E+00	 1.00000000E+00
					 1.00000000E+00	 1.00000000E+00	 2.00000000E+00
					 1.00000000E+00	 1.00000000E+00	 3.00000000E+00
					 1.00000000E+00	 1.00000000E+00	 4.00000000E+00
					 1.00000000E+00	 1.00000000E+00	 5.00000000E+00
					 1.00000000E+00	 1.00000000E+00	 6.00000000E+00
					 1.00000000E+00	 1.00000000E+00	 7.00000000E+00
					 0.00000000E+00	 1.00000000E+00	 1.00000000E+00
					 0.00000000E+00	 1.00000000E+00	 2.00000000E+00
					 0.00000000E+00	 1.00000000E+00	 3.00000000E+00
					 0.00000000E+00	 1.00000000E+00	 4.00000000E+00
					 0.00000000E+00	 1.00000000E+00	 5.00000000E+00
					 0.00000000E+00	 1.00000000E+00	 6.00000000E+00
					 0.00000000E+00	 1.00000000E+00	 7.00000000E+00
					 5.00000000E-01	 5.00000000E-01	 0.00000000E+00
					 5.00000000E-01	 5.00000000E-01	 8.00000000E+00
					 5.00000000E-01	 0.00000000E+00	 1.00000000E+00
					 5.00000000E-01	 0.00000000E+00	 2.00000000E+00
					 5.00000000E-01	 0.00000000E+00	 3.00000000E+00
					 5.00000000E-01	 0.00000000E+00	 4.00000000E+00
					 5.00000000E-01	 0.00000000E+00	 5.00000000E+00
					 5.00000000E-01	 0.00000000E+00	 6.00000000E+00
					 5.00000000E-01	 0.00000000E+00	 7.00000000E+00
					 1.00000000E+00	 5.00000000E-01	 1.00000000E+00
					 1.00000000E+00	 5.00000000E-01	 2.00000000E+00
					 1.00000000E+00	 5.00000000E-01	 3.00000000E+00
					 1.00000000E+00	 5.00000000E-01	 4.00000000E+00
					 1.00000000E+00	 5.00000000E-01	 5.00000000E+00
					 1.00000000E+00	 5.00000000E-01	 6.00000000E+00
					 1.00000000E+00	 5.00000000E-01	 7.00000000E+00
					 5.00000000E-01	 1.00000000E+00	 1.00000000E+00
					 5.00000000E-01	 1.00000000E+00	 2.00000000E+00
					 5.00000000E-01	 1.00000000E+00	 3.00000000E+00
					 5.00000000E-01	 1.00000000E+00	 4.00000000E+00
					 5.00000000E-01	 1.00000000E+00	 5.00000000E+00
					 5.00000000E-01	 1.00000000E+00	 6.00000000E+00
					 5.00000000E-01	 1.00000000E+00	 7.00000000E+00
					 0.00000000E+00	 5.00000000E-01	 1.00000000E+00
					 0.00000000E+00	 5.00000000E-01	 2.00000000E+00
					 0.00000000E+00	 5.00000000E-01	 3.00000000E+00
					 0.00000000E+00	 5.00000000E-01	 4.00000000E+00
					 0.00000000E+00	 5.00000000E-01	 5.00000000E+00
					 0.00000000E+00	 5.00000000E-01	 6.00000000E+00
					 0.00000000E+00	 5.00000000E-01	 7.00000000E+00
					 5.00000000E-01	 5.00000000E-01	 1.00000000E+00
					 5.00000000E-01	 5.00000000E-01	 2.00000000E+00
					 5.00000000E-01	 5.00000000E-01	 3.00000000E+00
					 5.00000000E-01	 5.00000000E-01	 4.00000000E+00
					 5.00000000E-01	 5.00000000E-01	 5.00000000E+00
					 5.00000000E-01	 5.00000000E-01	 6.00000000E+00
					 5.00000000E-01	 5.00000000E-01	 7.00000000E+00

				</DataArray>
			</Points>
			<Cells>
				<DataArray type="Int32" Name="connectivity" format="ascii">
					0 8 44 11 29 46 74 67 8 1 9 44 46 16 53 74 11 44 10 3 67 74 60 37 44 9 2 10 74 53 30 60 29 46 74 67 28 47 75 68 46 16 53 74 47 17 54 75 67 74 60 37 68 75 61 38 74 53 30 60 75 54 31 61 28 47 75 68 27 48 76 69 47 17 54 75 48 18 55 76 68 75 61 38 69 76 62 39 75 54 31 61 76 55 32 62 27 48 76 69 26 49 77 70 48 18 55 76 49 19 56 77 69 76 62 39 70 77 63 40 76 55 32 62 77 56 33 63 26 49 77 70 25 50 78 71 49 19 56 77 50 20 57 78 70 77 63 40 71 78 64 41 77 56 33 63 78 57 34 64 25 50 78 71 24 51 79 72 50 20 57 78 51 21 58 79 71 78 64 41 72 79 65 42 78 57 34 64 79 58 35 65 24 51 79 72 23 52 80 73 51 21 58 79 52 22 59 80 72 79 65 42 73 80 66 43 79 58 35 65 80 59 36 66 23 52 80 73 4 12 45 15 52 22 59 80 12 5 13 45 73 80 66 43 15 45 14 7 80 59 36 66 45 13 6 14 
				</DataArray>
				<DataArray type="Int32" Name="offsets" format="ascii">
					8 16 24 32 40 48 56 64 72 80 88 96 104 112 120 128 136 144 152 160 168 176 184 192 200 208 216 224 232 240 248 256 
				</DataArray>
				<DataArray type="UInt8" Name="types" format="ascii">
					12 12 12 12 12 12 12 12 12 12 12 12 12 12 12 12 12 12 12 12 12 12 12 12 12 12 12 12 12 12 12 12 
				</DataArray>
			</Cells>
			<PointData>
				<DataArray type="Float32" Name="U" NumberOfComponents="3" ComponentName0="D1" ComponentName1="D2" ComponentName2="D3" format="ascii">
					 0.00000000E+00	 0.00000000E+00	 0.00000000E+00
					 0.00000000E+00	 0.00000000E+00	 0.00000000E+00
					 0.00000000E+00	 0.00000000E+00	 0.00000000E+00
					 0.00000000E+00	 0.00000000E+00	 0.00000000E+00
					-4.39490000E+03	 5.04245000E+03	 1.29826000E+01
					-3.77695000E+03	 4.51403000E+03	 1.66223000E+02
					-4.39490000E+03	 5.04245000E+03	-1.29826000E+01
					-3.77695000E+03	 4.51403000E+03	-1.66223000E+02
					 0.00000000E+00	 0.00000000E+00	 0.00000000E+00
					 0.00000000E+00	 0.00000000E+00	 0.00000000E+00
					 0.00000000E+00	 0.00000000E+00	 0.00000000E+00
					 0.00000000E+00	 0.00000000E+00	 0.00000000E+00
					-4.21060000E+03	 4.53046000E+03	 4.46765000E+01
					-3.87405000E+03	 4.92404000E+03	 3.82033000E+01
					-4.21060000E+03	 4.53046000E+03	-4.46765000E+01
					-3.87405000E+03	 4.92404000E+03	-3.82033000E+01
					 1.81269000E+03	-2.09271000E+03	-8.56447000E+02
					 3.20079000E+03	-3.77052000E+03	-6.23623000E+02
					 3.68470000E+03	-4.34506000E+03	 1.14267000E+02
					 2.85208000E+03	-3.36366000E+03	 8.47270000E+02
					 1.00200000E+03	-1.18104000E+03	 1.29567000E+03
					-1.21612000E+03	 1.43224000E+03	 1.23965000E+03
					-3.01909000E+03	 3.55604000E+03	 8.23845000E+02
					-3.18068000E+03	 3.69422000E+03	 6.43448000E+01
					-1.28015000E+03	 1.48700000E+03	 9.68202000E+01
					 1.06092000E+03	-1.23142000E+03	 1.01196000E+02
					 3.03230000E+03	-3.51777000E+03	 6.61744000E+01
					 3.91392000E+03	-4.54107000E+03	 8.92462000E+00
					 3.37510000E+03	-3.91958000E+03	-4.87069000E+01
					 1.64016000E+03	-1.94518000E+03	-6.68912000E+01
					 1.64016000E+03	-1.94518000E+03	 6.68912000E+01
					 3.37510000E+03	-3.91958000E+03	 4.87069000E+01
					 3.91392000E+03	-4.54107000E+03	-8.92462000E+00
					 3.03230000E+03	-3.51777000E+03	-6.61744000E+01
					 1.06092000E+03	-1.23142000E+03	-1.01196000E+02
					-1.28015000E+03	 1.48700000E+03	-9.68202000E+01
					-3.18068000E+03	 3.69422000E+03	-6.43448000E+01
					 1.81269000E+03	-2.09271000E+03	 8.56447000E+02
					 3.20079000E+03	-3.77052000E+03	 6.23623000E+02
					 3.68470000E+03	-4.34506000E+03	-1.14267000E+02
					 2.85208000E+03	-3.36366000E+03	-8.47270000E+02
					 1.00200000E+03	-1.18104000E+03	-1.29567000E+03
					-1.21612000E+03	 1.43224000E+03	-1.23965000E+03
					-3.01909000E+03	 3.55604000E+03	-8.23845000E+02
					 0.00000000E+00	 0.00000000E+00	 0.00000000E+00
					-3.73323000E+03	 4.36579000E+03	 0.00000000E+00
					 1.66636000E+03	-2.04071000E+03	-4.65320000E+02
					 3.33618000E+03	-3.81226000E+03	-3.47075000E+02
					 3.84350000E+03	-4.38546000E+03	 6.21570000E+01
					 2.97788000E+03	-3.39385000E+03	 4.63781000E+02
					 1.04906000E+03	-1.19736000E+03	 6.90179000E+02
					-1.27627000E+03	 1.45377000E+03	 7.16452000E+02
					-3.07578000E+03	 3.56310000E+03	 3.63286000E+02
					 1.74503000E+03	-1.94871000E+03	-3.97900000E+02
					 3.25990000E+03	-3.90146000E+03	-2.96787000E+02
					 3.75005000E+03	-4.49474000E+03	 5.31510000E+01
					 2.90211000E+03	-3.48245000E+03	 3.96584000E+02
					 1.02387000E+03	-1.22681000E+03	 5.90179000E+02
					-1.24313000E+03	 1.49252000E+03	 6.12645000E+02
					-3.04685000E+03	 3.59694000E+03	 3.10650000E+02
					 1.66636000E+03	-2.04071000E+03	 4.65320000E+02
					 3.33618000E+03	-3.81226000E+03	 3.47075000E+02
					 3.84350000E+03	-4.38546000E+03	-6.21570000E+01
					 2.97788000E+03	-3.39385000E+03	-4.63781000E+02
					 1.04906000E+03	-1.19736000E+03	-6.90179000E+02
					-1.27627000E+03	 1.45377000E+03	-7.16452000E+02
					-3.07578000E+03	 3.56310000E+03	-3.63286000E+02
					 1.74503000E+03	-1.94871000E+03	 3.97900000E+02
					 3.25990000E+03	-3.90146000E+03	 2.96787000E+02
					 3.75005000E+03	-4.49474000E+03	-5.31510000E+01
					 2.90211000E+03	-3.48245000E+03	-3.96584000E+02
					 1.02387000E+03	-1.22681000E+03	-5.90179000E+02
					-1.24313000E+03	 1.49252000E+03	-6.12645000E+02
					-3.04685000E+03	 3.59694000E+03	-3.10650000E+02
					 1.68489000E+03	-1.97038000E+03	 0.00000000E+00
					 3.30879000E+03	-3.86943000E+03	 0.00000000E+00
					 3.79402000E+03	-4.43688000E+03	 0.00000000E+00
					 2.94417000E+03	-3.44303000E+03	 0.00000000E+00
					 1.02034000E+03	-1.19323000E+03	 0.00000000E+00
					-1.21715000E+03	 1.42338000E+03	 0.00000000E+00
					-3.19271000E+03	 3.73368000E+03	 0.00000000E+00
				</DataArray>
			</PointData>
		</Piece>
	</UnstructuredGrid>
</VTKFile>