<?xml version="1.0"?>
<VTKFile type="UnstructuredGrid" version="0.1" byte_order="LittleEndian">
	<UnstructuredGrid>
		<Piece NumberOfPoints="261" NumberOfCells="32">
			<Points>
				<DataArray type="Float64" NumberOfComponents="3" format="ascii">
					 0.00000000E+00	 0.00000000E+00	 0.00000000E+00
					 1.00000000E+00	 0.00000000E+00	 0.00000000E+00
					 1.00000000E+00	 1.00000000E+00	 0.00000000E+00
					 0.00000000E+00	 1.00000000E+00	 0.00000000E+00
					 0.00000000E+00	 0.00000000E+00	 8.00000000E+00
					 1.00000000E+00	 0.00000000E+00	 8.00000000E+00
					 1.00000000E+00	 1.00000000E+00	 8.00000000E+00
					 0.00000000E+00	 1.00000000E+00	 8.00000000E+00
					 2.50000000E-01	 0.00000000E+00	 0.00000000E+00
					 5.00000000E-01	 0.00000000E+00	 0.00000000E+00
					 7.50000000E-01	 0.00000000E+00	 0.00000000E+00
					 1.00000000E+00	 2.50000000E-01	 0.00000000E+00
					 1.00000000E+00	 5.00000000E-01	 0.00000000E+00
					 1.00000000E+00	 7.50000000E-01	 0.00000000E+00
					 7.50000000E-01	 1.00000000E+00	 0.00000000E+00
					 5.00000000E-01	 1.00000000E+00	 0.00000000E+00
					 2.50000000E-01	 1.00000000E+00	 0.00000000E+00
					 0.00000000E+00	 7.50000000E-01	 0.00000000E+00
					 0.00000000E+00	 5.00000000E-01	 0.00000000E+00
					 0.00000000E+00	 2.50000000E-01	 0.00000000E+00
					 2.50000000E-01	 0.00000000E+00	 8.00000000E+00
					 5.00000000E-01	 0.00000000E+00	 8.00000000E+00
					 7.50000000E-01	 0.00000000E+00	 8.00000000E+00
					 1.00000000E+00	 2.50000000E-01	 8.00000000E+00
					 1.00000000E+00	 5.00000000E-01	 8.00000000E+00
					 1.00000000E+00	 7.50000000E-01	 8.00000000E+00
					 7.50000000E-01	 1.00000000E+00	 8.00000000E+00
					 5.00000000E-01	 1.00000000E+00	 8.00000000E+00
					 2.50000000E-01	 1.00000000E+00	 8.00000000E+00
					 0.00000000E+00	 7.50000000E-01	 8.00000000E+00
					 0.00000000E+00	 5.00000000E-01	 8.00000000E+00
					 0.00000000E+00	 2.50000000E-01	 8.00000000E+00
					 1.00000000E+00	 0.00000000E+00	 5.00000000E-01
					 1.00000000E+00	 0.00000000E+00	 1.00000000E+00
					 1.00000000E+00	 0.00000000E+00	 1.50000000E+00
					 1.00000000E+00	 0.00000000E+00	 2.00000000E+00
					 1.00000000E+00	 0.00000000E+00	 2.50000000E+00
					 1.00000000E+00	 0.00000000E+00	 3.00000000E+00
					 1.00000000E+00	 0.00000000E+00	 3.50000000E+00
					 1.00000000E+00	 0.00000000E+00	 4.00000000E+00
					 1.00000000E+00	 0.00000000E+00	 4.50000000E+00
					 1.00000000E+00	 0.00000000E+00	 5.00000000E+00
					 1.00000000E+00	 0.00000000E+00	 5.50000000E+00
					 1.00000000E+00	 0.00000000E+00	 6.00000000E+00
					 1.00000000E+00	 0.00000000E+00	 6.50000000E+00
					 1.00000000E+00	 0.00000000E+00	 7.00000000E+00
					 1.00000000E+00	 0.00000000E+00	 7.50000000E+00
					 0.00000000E+00	 0.00000000E+00	 7.50000000E+00
					 0.00000000E+00	 0.00000000E+00	 7.00000000E+00
					 0.00000000E+00	 0.00000000E+00	 6.50000000E+00
					 0.00000000E+00	 0.00000000E+00	 6.00000000E+00
					 0.00000000E+00	 0.00000000E+00	 5.50000000E+00
					 0.00000000E+00	 0.00000000E+00	 5.00000000E+00
					 0.00000000E+00	 0.00000000E+00	 4.50000000E+00
					 0.00000000E+00	 0.00000000E+00	 4.00000000E+00
					 0.00000000E+00	 0.00000000E+00	 3.50000000E+00
					 0.00000000E+00	 0.00000000E+00	 3.00000000E+00
					 0.00000000E+00	 0.00000000E+00	 2.50000000E+00
					 0.00000000E+00	 0.00000000E+00	 2.00000000E+00
					 0.00000000E+00	 0.00000000E+00	 1.50000000E+00
					 0.00000000E+00	 0.00000000E+00	 1.00000000E+00
					 0.00000000E+00	 0.00000000E+00	 5.00000000E-01
					 1.00000000E+00	 1.00000000E+00	 5.00000000E-01
					 1.00000000E+00	 1.00000000E+00	 1.00000000E+00
					 1.00000000E+00	 1.00000000E+00	 1.50000000E+00
					 1.00000000E+00	 1.00000000E+00	 2.00000000E+00
					 1.00000000E+00	 1.00000000E+00	 2.50000000E+00
					 1.00000000E+00	 1.00000000E+00	 3.00000000E+00
					 1.00000000E+00	 1.00000000E+00	 3.50000000E+00
					 1.00000000E+00	 1.00000000E+00	 4.00000000E+00
					 1.00000000E+00	 1.00000000E+00	 4.50000000E+00
					 1.00000000E+00	 1.00000000E+00	 5.00000000E+00
					 1.00000000E+00	 1.00000000E+00	 5.50000000E+00
					 1.00000000E+00	 1.00000000E+00	 6.00000000E+00
					 1.00000000E+00	 1.00000000E+00	 6.50000000E+00
					 1.00000000E+00	 1.00000000E+00	 7.00000000E+00
					 1.00000000E+00	 1.00000000E+00	 7.50000000E+00
					 0.00000000E+00	 1.00000000E+00	 5.00000000E-01
					 0.00000000E+00	 1.00000000E+00	 1.00000000E+00
					 0.00000000E+00	 1.00000000E+00	 1.50000000E+00
					 0.00000000E+00	 1.00000000E+00	 2.00000000E+00
					 0.00000000E+00	 1.00000000E+00	 2.50000000E+00
					 0.00000000E+00	 1.00000000E+00	 3.00000000E+00
					 0.00000000E+00	 1.00000000E+00	 3.50000000E+00
					 0.00000000E+00	 1.00000000E+00	 4.00000000E+00
					 0.00000000E+00	 1.00000000E+00	 4.50000000E+00
					 0.00000000E+00	 1.00000000E+00	 5.00000000E+00
					 0.00000000E+00	 1.00000000E+00	 5.50000000E+00
					 0.00000000E+00	 1.00000000E+00	 6.00000000E+00
					 0.00000000E+00	 1.00000000E+00	 6.50000000E+00
					 0.00000000E+00	 1.00000000E+00	 7.00000000E+00
					 0.00000000E+00	 1.00000000E+00	 7.50000000E+00
					 5.00000000E-01	 2.50000000E-01	 0.00000000E+00
					 2.50000000E-01	 5.00000000E-01	 0.00000000E+00
					 5.00000000E-01	 5.00000000E-01	 0.00000000E+00
					 7.50000000E-01	 5.00000000E-01	 0.00000000E+00
					 5.00000000E-01	 7.50000000E-01	 0.00000000E+00
					 5.00000000E-01	 2.50000000E-01	 8.00000000E+00
					 2.50000000E-01	 5.00000000E-01	 8.00000000E+00
					 5.00000000E-01	 5.00000000E-01	 8.00000000E+00
					 7.50000000E-01	 5.00000000E-01	 8.00000000E+00
					 5.00000000E-01	 7.50000000E-01	 8.00000000E+00
					 5.00000000E-01	 0.00000000E+00	 5.00000000E-01
					 2.50000000E-01	 0.00000000E+00	 1.00000000E+00
					 5.00000000E-01	 0.00000000E+00	 1.00000000E+00
					 7.50000000E-01	 0.00000000E+00	 1.00000000E+00
					 5.00000000E-01	 0.00000000E+00	 1.50000000E+00
					 2.50000000E-01	 0.00000000E+00	 2.00000000E+00
					 5.00000000E-01	 0.00000000E+00	 2.00000000E+00
					 7.50000000E-01	 0.00000000E+00	 2.00000000E+00
					 5.00000000E-01	 0.00000000E+00	 2.50000000E+00
					 2.50000000E-01	 0.00000000E+00	 3.00000000E+00
					 5.00000000E-01	 0.00000000E+00	 3.00000000E+00
					 7.50000000E-01	 0.00000000E+00	 3.00000000E+00
					 5.00000000E-01	 0.00000000E+00	 3.50000000E+00
					 2.50000000E-01	 0.00000000E+00	 4.00000000E+00
					 5.00000000E-01	 0.00000000E+00	 4.00000000E+00
					 7.50000000E-01	 0.00000000E+00	 4.00000000E+00
					 5.00000000E-01	 0.00000000E+00	 4.50000000E+00
					 2.50000000E-01	 0.00000000E+00	 5.00000000E+00
					 5.00000000E-01	 0.00000000E+00	 5.00000000E+00
					 7.50000000E-01	 0.00000000E+00	 5.00000000E+00
					 5.00000000E-01	 0.00000000E+00	 5.50000000E+00
					 2.50000000E-01	 0.00000000E+00	 6.00000000E+00
					 5.00000000E-01	 0.00000000E+00	 6.00000000E+00
					 7.50000000E-01	 0.00000000E+00	 6.00000000E+00
					 5.00000000E-01	 0.00000000E+00	 6.50000000E+00
					 2.50000000E-01	 0.00000000E+00	 7.00000000E+00
					 5.00000000E-01	 0.00000000E+00	 7.00000000E+00
					 7.50000000E-01	 0.00000000E+00	 7.00000000E+00
					 5.00000000E-01	 0.00000000E+00	 7.50000000E+00
					 1.00000000E+00	 5.00000000E-01	 5.00000000E-01
					 1.00000000E+00	 2.50000000E-01	 1.00000000E+00
					 1.00000000E+00	 5.00000000E-01	 1.00000000E+00
					 1.00000000E+00	 7.50000000E-01	 1.00000000E+00
					 1.00000000E+00	 5.00000000E-01	 1.50000000E+00
					 1.00000000E+00	 2.50000000E-01	 2.00000000E+00
					 1.00000000E+00	 5.00000000E-01	 2.00000000E+00
					 1.00000000E+00	 7.50000000E-01	 2.00000000E+00
					 1.00000000E+00	 5.00000000E-01	 2.50000000E+00
					 1.00000000E+00	 2.50000000E-01	 3.00000000E+00
					 1.00000000E+00	 5.00000000E-01	 3.00000000E+00
					 1.00000000E+00	 7.50000000E-01	 3.00000000E+00
					 1.00000000E+00	 5.00000000E-01	 3.50000000E+00
					 1.00000000E+00	 2.50000000E-01	 4.00000000E+00
					 1.00000000E+00	 5.00000000E-01	 4.00000000E+00
					 1.00000000E+00	 7.50000000E-01	 4.00000000E+00
					 1.00000000E+00	 5.00000000E-01	 4.50000000E+00
					 1.00000000E+00	 2.50000000E-01	 5.00000000E+00
					 1.00000000E+00	 5.00000000E-01	 5.00000000E+00
					 1.00000000E+00	 7.50000000E-01	 5.00000000E+00
					 1.00000000E+00	 5.00000000E-01	 5.50000000E+00
					 1.00000000E+00	 2.50000000E-01	 6.00000000E+00
					 1.00000000E+00	 5.00000000E-01	 6.00000000E+00
					 1.00000000E+00	 7.50000000E-01	 6.00000000E+00
					 1.00000000E+00	 5.00000000E-01	 6.50000000E+00
					 1.00000000E+00	 2.50000000E-01	 7.00000000E+00
					 1.00000000E+00	 5.00000000E-01	 7.00000000E+00
					 1.00000000E+00	 7.50000000E-01	 7.00000000E+00
					 1.00000000E+00	 5.00000000E-01	 7.50000000E+00
					 5.00000000E-01	 1.00000000E+00	 5.00000000E-01
					 7.50000000E-01	 1.00000000E+00	 1.00000000E+00
					 5.00000000E-01	 1.00000000E+00	 1.00000000E+00
					 2.50000000E-01	 1.00000000E+00	 1.00000000E+00
					 5.00000000E-01	 1.00000000E+00	 1.50000000E+00
					 7.50000000E-01	 1.00000000E+00	 2.00000000E+00
					 5.00000000E-01	 1.00000000E+00	 2.00000000E+00
					 2.50000000E-01	 1.00000000E+00	 2.00000000E+00
					 5.00000000E-01	 1.00000000E+00	 2.50000000E+00
					 7.50000000E-01	 1.00000000E+00	 3.00000000E+00
					 5.00000000E-01	 1.00000000E+00	 3.00000000E+00
					 2.50000000E-01	 1.00000000E+00	 3.00000000E+00
					 5.00000000E-01	 1.00000000E+00	 3.50000000E+00
					 7.50000000E-01	 1.00000000E+00	 4.00000000E+00
					 5.00000000E-01	 1.00000000E+00	 4.00000000E+00
					 2.50000000E-01	 1.00000000E+00	 4.00000000E+00
					 5.00000000E-01	 1.00000000E+00	 4.50000000E+00
					 7.50000000E-01	 1.00000000E+00	 5.00000000E+00
					 5.00000000E-01	 1.00000000E+00	 5.00000000E+00
					 2.50000000E-01	 1.00000000E+00	 5.00000000E+00
					 5.00000000E-01	 1.00000000E+00	 5.50000000E+00
					 7.50000000E-01	 1.00000000E+00	 6.00000000E+00
					 5.00000000E-01	 1.00000000E+00	 6.00000000E+00
					 2.50000000E-01	 1.00000000E+00	 6.00000000E+00
					 5.00000000E-01	 1.00000000E+00	 6.50000000E+00
					 7.50000000E-01	 1.00000000E+00	 7.00000000E+00
					 5.00000000E-01	 1.00000000E+00	 7.00000000E+00
					 2.50000000E-01	 1.00000000E+00	 7.00000000E+00
					 5.00000000E-01	 1.00000000E+00	 7.50000000E+00
					 0.00000000E+00	 5.00000000E-01	 5.00000000E-01
					 0.00000000E+00	 7.50000000E-01	 1.00000000E+00
					 0.00000000E+00	 5.00000000E-01	 1.00000000E+00
					 0.00000000E+00	 2.50000000E-01	 1.00000000E+00
					 0.00000000E+00	 5.00000000E-01	 1.50000000E+00
					 0.00000000E+00	 7.50000000E-01	 2.00000000E+00
					 0.00000000E+00	 5.00000000E-01	 2.00000000E+00
					 0.00000000E+00	 2.50000000E-01	 2.00000000E+00
					 0.00000000E+00	 5.00000000E-01	 2.50000000E+00
					 0.00000000E+00	 7.50000000E-01	 3.00000000E+00
					 0.00000000E+00	 5.00000000E-01	 3.00000000E+00
					 0.00000000E+00	 2.50000000E-01	 3.00000000E+00
					 0.00000000E+00	 5.00000000E-01	 3.50000000E+00
					 0.00000000E+00	 7.50000000E-01	 4.00000000E+00
					 0.00000000E+00	 5.00000000E-01	 4.00000000E+00
					 0.00000000E+00	 2.50000000E-01	 4.00000000E+00
					 0.00000000E+00	 5.00000000E-01	 4.50000000E+00
					 0.00000000E+00	 7.50000000E-01	 5.00000000E+00
					 0.00000000E+00	 5.00000000E-01	 5.00000000E+00
					 0.00000000E+00	 2.50000000E-01	 5.00000000E+00
					 0.00000000E+00	 5.00000000E-01	 5.50000000E+00
					 0.00000000E+00	 7.50000000E-01	 6.00000000E+00
					 0.00000000E+00	 5.00000000E-01	 6.00000000E+00
					 0.00000000E+00	 2.50000000E-01	 6.00000000E+00
					 0.00000000E+00	 5.00000000E-01	 6.50000000E+00
					 0.00000000E+00	 7.50000000E-01	 7.00000000E+00
					 0.00000000E+00	 5.00000000E-01	 7.00000000E+00
					 0.00000000E+00	 2.50000000E-01	 7.00000000E+00
					 0.00000000E+00	 5.00000000E-01	 7.50000000E+00
					 5.00000000E-01	 5.00000000E-01	 5.00000000E-01
					 5.00000000E-01	 2.50000000E-01	 1.00000000E+00
					 2.50000000E-01	 5.00000000E-01	 1.00000000E+00
					 5.00000000E-01	 5.00000000E-01	 1.00000000E+00
					 7.50000000E-01	 5.00000000E-01	 1.00000000E+00
					 5.00000000E-01	 7.50000000E-01	 1.00000000E+00
					 5.00000000E-01	 5.00000000E-01	 1.50000000E+00
					 5.00000000E-01	 2.50000000E-01	 2.00000000E+00
					 2.50000000E-01	 5.00000000E-01	 2.00000000E+00
					 5.00000000E-01	 5.00000000E-01	 2.00000000E+00
					 7.50000000E-01	 5.00000000E-01	 2.00000000E+00
					 5.00000000E-01	 7.50000000E-01	 2.00000000E+00
					 5.00000000E-01	 5.00000000E-01	 2.50000000E+00
					 5.00000000E-01	 2.50000000E-01	 3.00000000E+00
					 2.50000000E-01	 5.00000000E-01	 3.00000000E+00
					 5.00000000E-01	 5.00000000E-01	 3.00000000E+00
					 7.50000000E-01	 5.00000000E-01	 3.00000000E+00
					 5.00000000E-01	 7.50000000E-01	 3.00000000E+00
					 5.00000000E-01	 5.00000000E-01	 3.50000000E+00
					 5.00000000E-01	 2.50000000E-01	 4.00000000E+00
					 2.50000000E-01	 5.00000000E-01	 4.00000000E+00
					 5.00000000E-01	 5.00000000E-01	 4.00000000E+00
					 7.50000000E-01	 5.00000000E-01	 4.00000000E+00
					 5.00000000E-01	 7.50000000E-01	 4.00000000E+00
					 5.00000000E-01	 5.00000000E-01	 4.50000000E+00
					 5.00000000E-01	 2.50000000E-01	 5.00000000E+00
					 2.50000000E-01	 5.00000000E-01	 5.00000000E+00
					 5.00000000E-01	 5.00000000E-01	 5.00000000E+00
					 7.50000000E-01	 5.00000000E-01	 5.00000000E+00
					 5.00000000E-01	 7.50000000E-01	 5.00000000E+00
					 5.00000000E-01	 5.00000000E-01	 5.50000000E+00
					 5.00000000E-01	 2.50000000E-01	 6.00000000E+00
					 2.50000000E-01	 5.00000000E-01	 6.00000000E+00
					 5.00000000E-01	 5.00000000E-01	 6.00000000E+00
					 7.50000000E-01	 5.00000000E-01	 6.00000000E+00
					 5.00000000E-01	 7.50000000E-01	 6.00000000E+00
					 5.00000000E-01	 5.00000000E-01	 6.50000000E+00
					 5.00000000E-01	 2.50000000E-01	 7.00000000E+00
					 2.50000000E-01	 5.00000000E-01	 7.00000000E+00
					 5.00000000E-01	 5.00000000E-01	 7.00000000E+00
					 7.50000000E-01	 5.00000000E-01	 7.00000000E+00
					 5.00000000E-01	 7.50000000E-01	 7.00000000E+00
					 5.00000000E-01	 5.00000000E-01	 7.50000000E+00

				</DataArray>
			</Points>
			<Cells>
				<DataArray type="Int32" Name="connectivity" format="ascii">
					0 9 94 18 60 104 221 191 8 92 93 19 103 219 220 192 61 102 218 189 9 1 12 94 104 33 133 221 10 11 95 92 105 132 222 219 102 32 131 218 18 94 15 3 191 221 162 78 93 96 16 17 220 223 163 190 189 218 160 77 94 12 2 15 221 133 63 162 95 13 14 96 222 134 161 223 218 131 62 160 60 104 221 191 58 108 227 195 103 219 220 192 107 225 226 196 59 106 224 193 104 33 133 221 108 35 137 227 105 132 222 219 109 136 228 225 106 34 135 224 191 221 162 78 195 227 166 80 220 223 163 190 226 229 167 194 193 224 164 79 221 133 63 162 227 137 65 166 222 134 161 223 228 138 165 229 224 135 64 164 58 108 227 195 56 112 233 199 107 225 226 196 111 231 232 200 57 110 230 197 108 35 137 227 112 37 141 233 109 136 228 225 113 140 234 231 110 36 139 230 195 227 166 80 199 233 170 82 226 229 167 194 232 235 171 198 197 230 168 81 227 137 65 166 233 141 67 170 228 138 165 229 234 142 169 235 230 139 66 168 56 112 233 199 54 116 239 203 111 231 232 200 115 237 238 204 55 114 236 201 112 37 141 233 116 39 145 239 113 140 234 231 117 144 240 237 114 38 143 236 199 233 170 82 203 239 174 84 232 235 171 198 238 241 175 202 201 236 172 83 233 141 67 170 239 145 69 174 234 142 169 235 240 146 173 241 236 143 68 172 54 116 239 203 52 120 245 207 115 237 238 204 119 243 244 208 53 118 242 205 116 39 145 239 120 41 149 245 117 144 240 237 121 148 246 243 118 40 147 242 203 239 174 84 207 245 178 86 238 241 175 202 244 247 179 206 205 242 176 85 239 145 69 174 245 149 71 178 240 146 173 241 246 150 177 247 242 147 70 176 52 120 245 207 50 124 251 211 119 243 244 208 123 249 250 212 51 122 248 209 120 41 149 245 124 43 153 251 121 148 246 243 125 152 252 249 122 42 151 248 207 245 178 86 211 251 182 88 244 247 179 206 250 253 183 210 209 248 180 87 245 149 71 178 251 153 73 182 246 150 177 247 252 154 181 253 248 151 72 180 50 124 251 211 48 128 257 215 123 249 250 212 127 255 256 216 49 126 254 213 124 43 153 251 128 45 157 257 125 152 252 249 129 156 258 255 126 44 155 254 211 251 182 88 215 257 186 90 250 253 183 210 256 259 187 214 213 254 184 89 251 153 73 182 257 157 75 186 252 154 181 253 258 158 185 259 254 155 74 184 48 128 257 215 4 21 99 30 127 255 256 216 20 97 98 31 47 130 260 217 128 45 157 257 21 5 24 99 129 156 258 255 22 23 100 97 130 46 159 260 215 257 186 90 30 99 27 7 256 259 187 214 98 101 28 29 217 260 188 91 257 157 75 186 99 24 6 27 258 158 185 259 100 25 26 101 260 159 76 188 
				</DataArray>
				<DataArray type="Int32" Name="offsets" format="ascii">
					20 40 60 80 100 120 140 160 180 200 220 240 260 280 300 320 340 360 380 400 420 440 460 480 500 520 540 560 580 600 620 640 
				</DataArray>
				<DataArray type="UInt8" Name="types" format="ascii">
					25 25 25 25 25 25 25 25 25 25 25 25 25 25 25 25 25 25 25 25 25 25 25 25 25 25 25 25 25 25 25 25 
				</DataArray>
			</Cells>
			<PointData>
				<DataArray type="Float32" Name="U" NumberOfComponents="3" ComponentName0="D1" ComponentName1="D2" ComponentName2="D3" format="ascii">
					 0.00000000E+00	 0.00000000E+00	 0.00000000E+00
					 0.00000000E+00	 0.00000000E+00	 0.00000000E+00
					 0.00000000E+00	 0.00000000E+00	 0.00000000E+00
					 0.00000000E+00	 0.00000000E+00	 0.00000000E+00
					 2.16500000E-05	 7.23229000E-03	 1.43896000E-03
					-4.85839000E-05	 7.20956000E-03	 1.43934000E-03
					 4.40742000E-05	 7.20783000E-03	-1.45595000E-03
					-2.54541000E-05	 7.22852000E-03	-1.45616000E-03
					 0.00000000E+00	 0.00000000E+00	 0.00000000E+00
					 0.00000000E+00	 0.00000000E+00	 0.00000000E+00
					 0.00000000E+00	 0.00000000E+00	 0.00000000E+00
					 0.00000000E+00	 0.00000000E+00	 0.00000000E+00
					 0.00000000E+00	 0.00000000E+00	 0.00000000E+00
					 0.00000000E+00	 0.00000000E+00	 0.00000000E+00
					 0.00000000E+00	 0.00000000E+00	 0.00000000E+00
					 0.00000000E+00	 0.00000000E+00	 0.00000000E+00
					 0.00000000E+00	 0.00000000E+00	 0.00000000E+00
					 0.00000000E+00	 0.00000000E+00	 0.00000000E+00
					 0.00000000E+00	 0.00000000E+00	 0.00000000E+00
					 0.00000000E+00	 0.00000000E+00	 0.00000000E+00
					 1.63762000E-05	 7.25546000E-03	 1.43701000E-03
					-1.32829000E-05	 7.17138000E-03	 1.43435000E-03
					-4.30702000E-05	 7.24420000E-03	 1.43694000E-03
					-9.14595000E-06	 7.18709000E-03	 6.99768000E-04
					-1.62781000E-06	 7.14188000E-03	-7.89348000E-06
					 4.89998000E-06	 7.18642000E-03	-7.15119000E-04
					 3.89751000E-05	 7.24099000E-03	-1.45396000E-03
					 9.33158000E-06	 7.16596000E-03	-1.45059000E-03
					-2.03536000E-05	 7.25086000E-03	-1.45382000E-03
					 2.12957000E-06	 7.20875000E-03	-7.16253000E-04
					-2.21390000E-06	 7.16603000E-03	-8.58653000E-06
					-6.17265000E-06	 7.21055000E-03	 6.99306000E-04
					 1.25532000E-05	-3.14076000E-05	-4.32054000E-05
					 5.20200000E-06	-1.01038000E-04	-8.10490000E-05
					 2.30151000E-06	-2.14022000E-04	-1.08671000E-04
					-5.53486000E-06	-3.47803000E-04	-1.19157000E-04
					-1.50928000E-05	-4.93388000E-04	-1.05034000E-04
					-2.84139000E-05	-6.12427000E-04	-5.57397000E-05
					-4.33197000E-05	-6.71689000E-04	 3.84450000E-05
					-5.91604000E-05	-6.06922000E-04	 1.82464000E-04
					-7.21876000E-05	-3.74046000E-04	 3.74163000E-04
					-7.95985000E-05	 9.91116000E-05	 6.01768000E-04
					-7.86924000E-05	 8.09968000E-04	 8.36019000E-04
					-6.71687000E-05	 1.80364000E-03	 1.05898000E-03
					-5.65878000E-05	 2.97660000E-03	 1.22021000E-03
					-3.38895000E-05	 4.35511000E-03	 1.35234000E-03
					-4.57653000E-05	 5.71978000E-03	 1.41774000E-03
					 2.06378000E-05	 5.74172000E-03	 1.41733000E-03
					 1.02020000E-05	 4.37668000E-03	 1.35197000E-03
					 3.50239000E-05	 2.99642000E-03	 1.21966000E-03
					 4.71826000E-05	 1.82186000E-03	 1.05846000E-03
					 6.01248000E-05	 8.27491000E-04	 8.35781000E-04
					 6.16304000E-05	 1.15641000E-04	 6.01500000E-04
					 5.47146000E-05	-3.57635000E-04	 3.73933000E-04
					 4.22561000E-05	-5.90946000E-04	 1.82164000E-04
					 2.75375000E-05	-6.56447000E-04	 3.81718000E-05
					 1.41997000E-05	-5.98531000E-04	-5.59868000E-05
					 2.85334000E-06	-4.81198000E-04	-1.05203000E-04
					-4.50482000E-06	-3.37704000E-04	-1.19252000E-04
					-9.92581000E-06	-2.06270000E-04	-1.08693000E-04
					-1.01955000E-05	-9.59501000E-05	-8.10283000E-05
					-1.48910000E-05	-2.90127000E-05	-4.31771000E-05
					-1.25365000E-05	-3.14431000E-05	 4.32755000E-05
					-5.12251000E-06	-1.01091000E-04	 8.12206000E-05
					-2.19986000E-06	-2.14103000E-04	 1.08985000E-04
					 5.58903000E-06	-3.47897000E-04	 1.19646000E-04
					 1.50045000E-05	-4.93485000E-04	 1.05716000E-04
					 2.80946000E-05	-6.12503000E-04	 5.66384000E-05
					 4.27041000E-05	-6.71776000E-04	-3.73446000E-05
					 5.82581000E-05	-6.07024000E-04	-1.81194000E-04
					 7.10065000E-05	-3.74448000E-04	-3.72933000E-04
					 7.82183000E-05	 9.84722000E-05	-6.00937000E-04
					 7.71308000E-05	 8.08299000E-04	-8.35935000E-04
					 6.51704000E-05	 1.80185000E-03	-1.06055000E-03
					 5.41371000E-05	 2.97326000E-03	-1.22440000E-03
					 2.98769000E-05	 4.35451000E-03	-1.36166000E-03
					 4.31446000E-05	 5.71357000E-03	-1.43029000E-03
					 1.49763000E-05	-2.90588000E-05	 4.33028000E-05
					 1.03330000E-05	-9.59833000E-05	 8.12435000E-05
					 1.01068000E-05	-2.06317000E-04	 1.08962000E-04
					 4.64125000E-06	-3.37751000E-04	 1.19555000E-04
					-2.83540000E-06	-4.81248000E-04	 1.05544000E-04
					-1.44265000E-05	-5.98576000E-04	 5.64041000E-05
					-2.80286000E-05	-6.56519000E-04	-3.76263000E-05
					-4.31020000E-05	-5.91081000E-04	-1.81470000E-04
					-5.57445000E-05	-3.58010000E-04	-3.73194000E-04
					-6.30045000E-05	 1.14872000E-04	-6.01146000E-04
					-6.17304000E-05	 8.25474000E-04	-8.36363000E-04
					-4.91785000E-05	 1.81937000E-03	-1.06115000E-03
					-3.71855000E-05	 2.99319000E-03	-1.22493000E-03
					-1.21307000E-05	 4.37345000E-03	-1.36088000E-03
					-2.40363000E-05	 5.73730000E-03	-1.43021000E-03
					 0.00000000E+00	 0.00000000E+00	 0.00000000E+00
					 0.00000000E+00	 0.00000000E+00	 0.00000000E+00
					 0.00000000E+00	 0.00000000E+00	 0.00000000E+00
					 0.00000000E+00	 0.00000000E+00	 0.00000000E+00
					 0.00000000E+00	 0.00000000E+00	 0.00000000E+00
					-7.64387000E-06	 7.37354000E-03	 7.39003000E-04
					-1.98748000E-06	 7.30369000E-03	-8.43466000E-06
					-1.95473000E-06	 7.61233000E-03	-8.52380000E-06
					-1.95154000E-06	 7.29142000E-03	-7.97531000E-06
					 3.72311000E-06	 7.37064000E-03	-7.56179000E-04
					-1.23139000E-06	-3.59260000E-05	-4.22147000E-05
					-6.28782000E-06	-1.01586000E-04	-8.19756000E-05
					-2.49728000E-06	-1.03800000E-04	-8.29037000E-05
					 1.29820000E-06	-1.04137000E-04	-8.24840000E-05
					-3.78820000E-06	-2.12541000E-04	-1.09496000E-04
					-4.74421000E-06	-3.40936000E-04	-1.21001000E-04
					-4.99958000E-06	-3.44176000E-04	-1.21253000E-04
					-5.27522000E-06	-3.45980000E-04	-1.21267000E-04
					-6.11201000E-06	-4.81800000E-04	-1.07154000E-04
					 3.54043000E-06	-5.95910000E-04	-5.92360000E-05
					-7.08295000E-06	-5.98166000E-04	-5.93046000E-05
					-1.77287000E-05	-6.02859000E-04	-5.93578000E-05
					-7.87592000E-06	-6.44097000E-04	 3.54559000E-05
					 1.69662000E-05	-5.79433000E-04	 1.78007000E-04
					-8.40526000E-06	-5.81056000E-04	 1.77740000E-04
					-3.38280000E-05	-5.87406000E-04	 1.78083000E-04
					-8.76460000E-06	-3.29146000E-04	 3.73215000E-04
					 2.61386000E-05	 1.28853000E-04	 5.98831000E-04
					-8.95123000E-06	 1.24738000E-04	 5.97070000E-04
					-4.40680000E-05	 1.20544000E-04	 5.98956000E-04
					-9.36441000E-06	 8.66422000E-04	 8.38634000E-04
					 1.93024000E-05	 1.82286000E-03	 1.05521000E-03
					-9.89905000E-06	 1.80340000E-03	 1.04801000E-03
					-3.92008000E-05	 1.81361000E-03	 1.05531000E-03
					-1.10883000E-05	 3.03268000E-03	 1.23789000E-03
					-2.87032000E-06	 4.32786000E-03	 1.34614000E-03
					-1.18877000E-05	 4.29315000E-03	 1.33778000E-03
					-2.08985000E-05	 4.31681000E-03	 1.34616000E-03
					-1.27050000E-05	 5.82060000E-03	 1.42506000E-03
					 9.30812000E-09	-2.31801000E-05	 3.24039000E-08
					 2.64748000E-06	-9.87511000E-05	-3.84709000E-05
					 3.82151000E-08	-1.00096000E-04	 8.48322000E-08
					-2.56990000E-06	-9.87775000E-05	 3.86395000E-05
					 4.64731000E-08	-2.10128000E-04	 1.56606000E-07
					-2.79253000E-06	-3.49275000E-04	-5.53831000E-05
					 2.17368000E-08	-3.50766000E-04	 2.40089000E-07
					 2.83779000E-06	-3.49320000E-04	 5.58671000E-05
					-4.95403000E-08	-4.97648000E-04	 3.39140000E-07
					-1.43183000E-05	-6.21830000E-04	-2.04011000E-05
					-1.62525000E-07	-6.26265000E-04	 4.39707000E-07
					 1.39947000E-05	-6.21864000E-04	 2.12874000E-05
					-3.02301000E-07	-6.87801000E-04	 5.43347000E-07
					-2.97853000E-05	-6.28633000E-04	 9.93714000E-05
					-4.37928000E-07	-6.37536000E-04	 6.13515000E-07
					 2.88957000E-05	-6.28692000E-04	-9.81235000E-05
					-5.62294000E-07	-4.00988000E-04	 6.45115000E-07
					-4.01081000E-05	 6.49443000E-05	 3.03013000E-04
					-6.40404000E-07	 4.97872000E-05	 5.11637000E-07
					 3.87965000E-05	 6.46107000E-05	-3.02075000E-04
					-7.67721000E-07	 7.87627000E-04	 9.35317000E-08
					-3.36085000E-05	 1.76790000E-03	 5.21377000E-04
					-7.98280000E-07	 1.74619000E-03	-8.33179000E-07
					 3.16948000E-05	 1.76710000E-03	-5.22994000E-04
					-1.11378000E-06	 2.96781000E-03	-1.74391000E-06
					-1.97157000E-05	 4.29322000E-03	 6.68800000E-04
					-1.10920000E-06	 4.24379000E-03	-2.56460000E-06
					 1.67679000E-05	 4.29293000E-03	-6.76742000E-04
					-2.03188000E-06	 5.79991000E-03	-5.39104000E-06
					 1.27986000E-06	-3.59665000E-05	 4.23060000E-05
					-1.19900000E-06	-1.04187000E-04	 8.26711000E-05
					 2.61453000E-06	-1.03847000E-04	 8.30946000E-05
					 6.41547000E-06	-1.01627000E-04	 8.21705000E-05
					 3.93475000E-06	-2.12604000E-04	 1.09785000E-04
					 5.36243000E-06	-3.46067000E-04	 1.21707000E-04
					 5.11297000E-06	-3.44255000E-04	 1.21644000E-04
					 4.87225000E-06	-3.41000000E-04	 1.21345000E-04
					 6.08182000E-06	-4.81870000E-04	 1.07667000E-04
					 1.74457000E-05	-6.02940000E-04	 6.01344000E-05
					 6.83091000E-06	-5.98251000E-04	 5.99632000E-05
					-3.77699000E-06	-5.95977000E-04	 5.97834000E-05
					 7.31919000E-06	-6.44163000E-04	-3.46253000E-05
					 3.29609000E-05	-5.87561000E-04	-1.76974000E-04
					 7.57082000E-06	-5.81251000E-04	-1.76767000E-04
					-1.78117000E-05	-5.79600000E-04	-1.77179000E-04
					 7.62947000E-06	-3.29490000E-04	-3.72269000E-04
					 4.27357000E-05	 1.19723000E-04	-5.98198000E-04
					 7.65073000E-06	 1.23756000E-04	-5.96439000E-04
					-2.74750000E-05	 1.27955000E-04	-5.98338000E-04
					 7.68760000E-06	 8.64884000E-04	-8.39066000E-04
					 3.72965000E-05	 1.81139000E-03	-1.05726000E-03
					 8.01687000E-06	 1.80051000E-03	-1.04991000E-03
					-2.12892000E-05	 1.82004000E-03	-1.05762000E-03
					 8.45912000E-06	 3.02984000E-03	-1.24318000E-03
					 1.73500000E-05	 4.31361000E-03	-1.35433000E-03
					 9.10551000E-06	 4.28795000E-03	-1.34561000E-03
					 6.14539000E-07	 4.32338000E-03	-1.35443000E-03
					 9.27905000E-06	 5.81721000E-03	-1.43726000E-03
					 4.29166000E-08	-2.06695000E-05	 6.11073000E-08
					 5.23457000E-06	-9.36698000E-05	 3.91703000E-05
					 6.83855000E-08	-9.49804000E-05	 1.10363000E-07
					-5.09813000E-06	-9.36533000E-05	-3.89512000E-05
					 8.41942000E-08	-2.02407000E-04	 1.35416000E-07
					 2.31314000E-06	-3.39182000E-04	 5.60921000E-05
					 6.84104000E-08	-3.40643000E-04	 1.49917000E-07
					-2.18004000E-06	-3.39161000E-04	-5.57894000E-05
					-2.22521000E-09	-4.85462000E-04	 1.66276000E-07
					-7.29697000E-06	-6.07932000E-04	 2.12879000E-05
					-1.04371000E-07	-6.12325000E-04	 2.01589000E-07
					 7.07728000E-06	-6.07910000E-04	-2.08863000E-05
					-2.64097000E-07	-6.72623000E-04	 2.62302000E-07
					-2.17429000E-05	-6.12688000E-04	-9.83221000E-05
					-3.93832000E-07	-6.21482000E-04	 3.39133000E-07
					 2.09229000E-05	-6.12620000E-04	 9.90202000E-05
					-5.70175000E-07	-3.84656000E-04	 3.69801000E-07
					-3.18144000E-05	 8.11991000E-05	-3.02344000E-04
					-6.47317000E-07	 6.65879000E-05	 1.95667000E-07
					 3.04762000E-05	 8.16227000E-05	 3.02687000E-04
					-8.60516000E-07	 8.04744000E-04	-3.46895000E-07
					-2.46929000E-05	 1.78501000E-03	-5.23129000E-04
					-9.95453000E-07	 1.76471000E-03	-1.12965000E-06
					 2.27059000E-05	 1.78640000E-03	 5.20669000E-04
					-1.25152000E-06	 2.98712000E-03	-2.57244000E-06
					-9.29354000E-06	 4.31375000E-03	-6.77325000E-04
					-1.59350000E-06	 4.26632000E-03	-4.25604000E-06
					 6.48106000E-06	 4.31532000E-03	 6.68504000E-04
					-1.60109000E-06	 5.82088000E-03	-6.49138000E-06
					 2.49703000E-08	-2.76368000E-05	 4.30113000E-08
					-1.22159000E-06	-1.00726000E-04	-3.98069000E-05
					 6.21816000E-08	-9.99512000E-05	 1.00429000E-07
					 5.56241000E-08	-1.01447000E-04	 9.76871000E-08
					 4.72448000E-08	-1.02510000E-04	 9.34540000E-08
					 1.33538000E-06	-1.00749000E-04	 3.99997000E-05
					 6.97302000E-08	-2.09344000E-04	 1.43336000E-07
					-2.47759000E-06	-3.44112000E-04	-5.73922000E-05
					 5.96059000E-08	-3.42354000E-04	 1.71854000E-07
					 4.76449000E-08	-3.44091000E-04	 1.95561000E-07
					 3.64872000E-08	-3.47415000E-04	 2.18088000E-07
					 2.57819000E-06	-3.44150000E-04	 5.77833000E-05
					-1.80242000E-08	-4.87653000E-04	 2.51225000E-07
					-3.60951000E-06	-6.04303000E-04	-2.38234000E-05
					-1.19419000E-07	-6.06398000E-04	 2.65951000E-07
					-1.38120000E-07	-6.05634000E-04	 3.26004000E-07
					-1.49269000E-07	-6.13367000E-04	 3.80861000E-07
					 3.34491000E-06	-6.04344000E-04	 2.44737000E-05
					-2.75102000E-07	-6.64440000E-04	 4.00451000E-07
					-4.43040000E-06	-5.95649000E-04	 9.54074000E-05
					-4.19976000E-07	-6.03154000E-04	 4.11680000E-07
					-4.39620000E-07	-5.97071000E-04	 4.75576000E-07
					-4.38420000E-07	-6.11180000E-04	 5.46757000E-07
					 3.56722000E-06	-5.95756000E-04	-9.44378000E-05