# vtk DataFile Version 3.0

ASCII
DATASET UNSTRUCTURED_GRID

POINTS 261 double
	 0.00000000E+00	 0.00000000E+00	 0.00000000E+00
	 1.00000000E+00	 0.00000000E+00	 0.00000000E+00
	 1.00000000E+00	 1.50000000E+00	 0.00000000E+00
	 0.00000000E+00	 1.50000000E+00	 0.00000000E+00
	 0.00000000E+00	 0.00000000E+00	 8.00000000E+00
	 1.00000000E+00	 0.00000000E+00	 8.00000000E+00
	 1.00000000E+00	 1.50000000E+00	 8.00000000E+00
	 0.00000000E+00	 1.50000000E+00	 8.00000000E+00
	 2.50000000E-01	 0.00000000E+00	 0.00000000E+00
	 5.00000000E-01	 0.00000000E+00	 0.00000000E+00
	 7.50000000E-01	 0.00000000E+00	 0.00000000E+00
	 1.00000000E+00	 3.75000000E-01	 0.00000000E+00
	 1.00000000E+00	 7.50000000E-01	 0.00000000E+00
	 1.00000000E+00	 1.12500000E+00	 0.00000000E+00
	 7.50000000E-01	 1.50000000E+00	 0.00000000E+00
	 5.00000000E-01	 1.50000000E+00	 0.00000000E+00
	 2.50000000E-01	 1.50000000E+00	 0.00000000E+00
	 0.00000000E+00	 1.12500000E+00	 0.00000000E+00
	 0.00000000E+00	 7.50000000E-01	 0.00000000E+00
	 0.00000000E+00	 3.75000000E-01	 0.00000000E+00
	 2.50000000E-01	 0.00000000E+00	 8.00000000E+00
	 5.00000000E-01	 0.00000000E+00	 8.00000000E+00
	 7.50000000E-01	 0.00000000E+00	 8.00000000E+00
	 1.00000000E+00	 3.75000000E-01	 8.00000000E+00
	 1.00000000E+00	 7.50000000E-01	 8.00000000E+00
	 1.00000000E+00	 1.12500000E+00	 8.00000000E+00
	 7.50000000E-01	 1.50000000E+00	 8.00000000E+00
	 5.00000000E-01	 1.50000000E+00	 8.00000000E+00
	 2.50000000E-01	 1.50000000E+00	 8.00000000E+00
	 0.00000000E+00	 1.12500000E+00	 8.00000000E+00
	 0.00000000E+00	 7.50000000E-01	 8.00000000E+00
	 0.00000000E+00	 3.75000000E-01	 8.00000000E+00
	 1.00000000E+00	 0.00000000E+00	 5.00000000E-01
	 1.00000000E+00	 0.00000000E+00	 1.00000000E+00
	 1.00000000E+00	 0.00000000E+00	 1.50000000E+00
	 1.00000000E+00	 0.00000000E+00	 2.00000000E+00
	 1.00000000E+00	 0.00000000E+00	 2.50000000E+00
	 1.00000000E+00	 0.00000000E+00	 3.00000000E+00
	 1.00000000E+00	 0.00000000E+00	 3.50000000E+00
	 1.00000000E+00	 0.00000000E+00	 4.00000000E+00
	 1.00000000E+00	 0.00000000E+00	 4.50000000E+00
	 1.00000000E+00	 0.00000000E+00	 5.00000000E+00
	 1.00000000E+00	 0.00000000E+00	 5.50000000E+00
	 1.00000000E+00	 0.00000000E+00	 6.00000000E+00
	 1.00000000E+00	 0.00000000E+00	 6.50000000E+00
	 1.00000000E+00	 0.00000000E+00	 7.00000000E+00
	 1.00000000E+00	 0.00000000E+00	 7.50000000E+00
	 0.00000000E+00	 0.00000000E+00	 7.50000000E+00
	 0.00000000E+00	 0.00000000E+00	 7.00000000E+00
	 0.00000000E+00	 0.00000000E+00	 6.50000000E+00
	 0.00000000E+00	 0.00000000E+00	 6.00000000E+00
	 0.00000000E+00	 0.00000000E+00	 5.50000000E+00
	 0.00000000E+00	 0.00000000E+00	 5.00000000E+00
	 0.00000000E+00	 0.00000000E+00	 4.50000000E+00
	 0.00000000E+00	 0.00000000E+00	 4.00000000E+00
	 0.00000000E+00	 0.00000000E+00	 3.50000000E+00
	 0.00000000E+00	 0.00000000E+00	 3.00000000E+00
	 0.00000000E+00	 0.00000000E+00	 2.50000000E+00
	 0.00000000E+00	 0.00000000E+00	 2.00000000E+00
	 0.00000000E+00	 0.00000000E+00	 1.50000000E+00
	 0.00000000E+00	 0.00000000E+00	 1.00000000E+00
	 0.00000000E+00	 0.00000000E+00	 5.00000000E-01
	 1.00000000E+00	 1.50000000E+00	 5.00000000E-01
	 1.00000000E+00	 1.50000000E+00	 1.00000000E+00
	 1.00000000E+00	 1.50000000E+00	 1.50000000E+00
	 1.00000000E+00	 1.50000000E+00	 2.00000000E+00
	 1.00000000E+00	 1.50000000E+00	 2.50000000E+00
	 1.00000000E+00	 1.50000000E+00	 3.00000000E+00
	 1.00000000E+00	 1.50000000E+00	 3.50000000E+00
	 1.00000000E+00	 1.50000000E+00	 4.00000000E+00
	 1.00000000E+00	 1.50000000E+00	 4.50000000E+00
	 1.00000000E+00	 1.50000000E+00	 5.00000000E+00
	 1.00000000E+00	 1.50000000E+00	 5.50000000E+00
	 1.00000000E+00	 1.50000000E+00	 6.00000000E+00
	 1.00000000E+00	 1.50000000E+00	 6.50000000E+00
	 1.00000000E+00	 1.50000000E+00	 7.00000000E+00
	 1.00000000E+00	 1.50000000E+00	 7.50000000E+00
	 0.00000000E+00	 1.50000000E+00	 5.00000000E-01
	 0.00000000E+00	 1.50000000E+00	 1.00000000E+00
	 0.00000000E+00	 1.50000000E+00	 1.50000000E+00
	 0.00000000E+00	 1.50000000E+00	 2.00000000E+00
	 0.00000000E+00	 1.50000000E+00	 2.50000000E+00
	 0.00000000E+00	 1.50000000E+00	 3.00000000E+00
	 0.00000000E+00	 1.50000000E+00	 3.50000000E+00
	 0.00000000E+00	 1.50000000E+00	 4.00000000E+00
	 0.00000000E+00	 1.50000000E+00	 4.50000000E+00
	 0.00000000E+00	 1.50000000E+00	 5.00000000E+00
	 0.00000000E+00	 1.50000000E+00	 5.50000000E+00
	 0.00000000E+00	 1.50000000E+00	 6.00000000E+00
	 0.00000000E+00	 1.50000000E+00	 6.50000000E+00
	 0.00000000E+00	 1.50000000E+00	 7.00000000E+00
	 0.00000000E+00	 1.50000000E+00	 7.50000000E+00
	 5.00000000E-01	 3.75000000E-01	 0.00000000E+00
	 2.50000000E-01	 7.50000000E-01	 0.00000000E+00
	 5.00000000E-01	 7.50000000E-01	 0.00000000E+00
	 7.50000000E-01	 7.50000000E-01	 0.00000000E+00
	 5.00000000E-01	 1.12500000E+00	 0.00000000E+00
	 5.00000000E-01	 3.75000000E-01	 8.00000000E+00
	 2.50000000E-01	 7.50000000E-01	 8.00000000E+00
	 5.00000000E-01	 7.50000000E-01	 8.00000000E+00
	 7.50000000E-01	 7.50000000E-01	 8.00000000E+00
	 5.00000000E-01	 1.12500000E+00	 8.00000000E+00
	 5.00000000E-01	 0.00000000E+00	 5.00000000E-01
	 2.50000000E-01	 0.00000000E+00	 1.00000000E+00
	 5.00000000E-01	 0.00000000E+00	 1.00000000E+00
	 7.50000000E-01	 0.00000000E+00	 1.00000000E+00
	 5.00000000E-01	 0.00000000E+00	 1.50000000E+00
	 2.50000000E-01	 0.00000000E+00	 2.00000000E+00
	 5.00000000E-01	 0.00000000E+00	 2.00000000E+00
	 7.50000000E-01	 0.00000000E+00	 2.00000000E+00
	 5.00000000E-01	 0.00000000E+00	 2.50000000E+00
	 2.50000000E-01	 0.00000000E+00	 3.00000000E+00
	 5.00000000E-01	 0.00000000E+00	 3.00000000E+00
	 7.50000000E-01	 0.00000000E+00	 3.00000000E+00
	 5.00000000E-01	 0.00000000E+00	 3.50000000E+00
	 2.50000000E-01	 0.00000000E+00	 4.00000000E+00
	 5.00000000E-01	 0.00000000E+00	 4.00000000E+00
	 7.50000000E-01	 0.00000000E+00	 4.00000000E+00
	 5.00000000E-01	 0.00000000E+00	 4.50000000E+00
	 2.50000000E-01	 0.00000000E+00	 5.00000000E+00
	 5.00000000E-01	 0.00000000E+00	 5.00000000E+00
	 7.50000000E-01	 0.00000000E+00	 5.00000000E+00
	 5.00000000E-01	 0.00000000E+00	 5.50000000E+00
	 2.50000000E-01	 0.00000000E+00	 6.00000000E+00
	 5.00000000E-01	 0.00000000E+00	 6.00000000E+00
	 7.50000000E-01	 0.00000000E+00	 6.00000000E+00
	 5.00000000E-01	 0.00000000E+00	 6.50000000E+00
	 2.50000000E-01	 0.00000000E+00	 7.00000000E+00
	 5.00000000E-01	 0.00000000E+00	 7.00000000E+00
	 7.50000000E-01	 0.00000000E+00	 7.00000000E+00
	 5.00000000E-01	 0.00000000E+00	 7.50000000E+00
	 1.00000000E+00	 7.50000000E-01	 5.00000000E-01
	 1.00000000E+00	 3.75000000E-01	 1.00000000E+00
	 1.00000000E+00	 7.50000000E-01	 1.00000000E+00
	 1.00000000E+00	 1.12500000E+00	 1.00000000E+00
	 1.00000000E+00	 7.50000000E-01	 1.50000000E+00
	 1.00000000E+00	 3.75000000E-01	 2.00000000E+00
	 1.00000000E+00	 7.50000000E-01	 2.00000000E+00
	 1.00000000E+00	 1.12500000E+00	 2.00000000E+00
	 1.00000000E+00	 7.50000000E-01	 2.50000000E+00
	 1.00000000E+00	 3.75000000E-01	 3.00000000E+00
	 1.00000000E+00	 7.50000000E-01	 3.00000000E+00
	 1.00000000E+00	 1.12500000E+00	 3.00000000E+00
	 1.00000000E+00	 7.50000000E-01	 3.50000000E+00
	 1.00000000E+00	 3.75000000E-01	 4.00000000E+00
	 1.00000000E+00	 7.50000000E-01	 4.00000000E+00
	 1.00000000E+00	 1.12500000E+00	 4.00000000E+00
	 1.00000000E+00	 7.50000000E-01	 4.50000000E+00
	 1.00000000E+00	 3.75000000E-01	 5.00000000E+00
	 1.00000000E+00	 7.50000000E-01	 5.00000000E+00
	 1.00000000E+00	 1.12500000E+00	 5.00000000E+00
	 1.00000000E+00	 7.50000000E-01	 5.50000000E+00
	 1.00000000E+00	 3.75000000E-01	 6.00000000E+00
	 1.00000000E+00	 7.50000000E-01	 6.00000000E+00
	 1.00000000E+00	 1.12500000E+00	 6.00000000E+00
	 1.00000000E+00	 7.50000000E-01	 6.50000000E+00
	 1.00000000E+00	 3.75000000E-01	 7.00000000E+00
	 1.00000000E+00	 7.50000000E-01	 7.00000000E+00
	 1.00000000E+00	 1.12500000E+00	 7.00000000E+00
	 1.00000000E+00	 7.50000000E-01	 7.50000000E+00
	 5.00000000E-01	 1.50000000E+00	 5.00000000E-01
	 7.50000000E-01	 1.50000000E+00	 1.00000000E+00
	 5.00000000E-01	 1.50000000E+00	 1.00000000E+00
	 2.50000000E-01	 1.50000000E+00	 1.00000000E+00
	 5.00000000E-01	 1.50000000E+00	 1.50000000E+00
	 7.50000000E-01	 1.50000000E+00	 2.00000000E+00
	 5.00000000E-01	 1.50000000E+00	 2.00000000E+00
	 2.50000000E-01	 1.50000000E+00	 2.00000000E+00
	 5.00000000E-01	 1.50000000E+00	 2.50000000E+00
	 7.50000000E-01	 1.50000000E+00	 3.00000000E+00
	 5.00000000E-01	 1.50000000E+00	 3.00000000E+00
	 2.50000000E-01	 1.50000000E+00	 3.00000000E+00
	 5.00000000E-01	 1.50000000E+00	 3.50000000E+00
	 7.50000000E-01	 1.50000000E+00	 4.00000000E+00
	 5.00000000E-01	 1.50000000E+00	 4.00000000E+00
	 2.50000000E-01	 1.50000000E+00	 4.00000000E+00
	 5.00000000E-01	 1.50000000E+00	 4.50000000E+00
	 7.50000000E-01	 1.50000000E+00	 5.00000000E+00
	 5.00000000E-01	 1.50000000E+00	 5.00000000E+00
	 2.50000000E-01	 1.50000000E+00	 5.00000000E+00
	 5.00000000E-01	 1.50000000E+00	 5.50000000E+00
	 7.50000000E-01	 1.50000000E+00	 6.00000000E+00
	 5.00000000E-01	 1.50000000E+00	 6.00000000E+00
	 2.50000000E-01	 1.50000000E+00	 6.00000000E+00
	 5.00000000E-01	 1.50000000E+00	 6.50000000E+00
	 7.50000000E-01	 1.50000000E+00	 7.00000000E+00
	 5.00000000E-01	 1.50000000E+00	 7.00000000E+00
	 2.50000000E-01	 1.50000000E+00	 7.00000000E+00
	 5.00000000E-01	 1.50000000E+00	 7.50000000E+00
	 0.00000000E+00	 7.50000000E-01	 5.00000000E-01
	 0.00000000E+00	 1.12500000E+00	 1.00000000E+00
	 0.00000000E+00	 7.50000000E-01	 1.00000000E+00
	 0.00000000E+00	 3.75000000E-01	 1.00000000E+00
	 0.00000000E+00	 7.50000000E-01	 1.50000000E+00
	 0.00000000E+00	 1.12500000E+00	 2.00000000E+00
	 0.00000000E+00	 7.50000000E-01	 2.00000000E+00
	 0.00000000E+00	 3.75000000E-01	 2.00000000E+00
	 0.00000000E+00	 7.50000000E-01	 2.50000000E+00
	 0.00000000E+00	 1.12500000E+00	 3.00000000E+00
	 0.00000000E+00	 7.50000000E-01	 3.00000000E+00
	 0.00000000E+00	 3.75000000E-01	 3.00000000E+00
	 0.00000000E+00	 7.50000000E-01	 3.50000000E+00
	 0.00000000E+00	 1.12500000E+00	 4.00000000E+00
	 0.00000000E+00	 7.50000000E-01	 4.00000000E+00
	 0.00000000E+00	 3.75000000E-01	 4.00000000E+00
	 0.00000000E+00	 7.50000000E-01	 4.50000000E+00
	 0.00000000E+00	 1.12500000E+00	 5.00000000E+00
	 0.00000000E+00	 7.50000000E-01	 5.00000000E+00
	 0.00000000E+00	 3.75000000E-01	 5.00000000E+00
	 0.00000000E+00	 7.50000000E-01	 5.50000000E+00
	 0.00000000E+00	 1.12500000E+00	 6.00000000E+00
	 0.00000000E+00	 7.50000000E-01	 6.00000000E+00
	 0.00000000E+00	 3.75000000E-01	 6.00000000E+00
	 0.00000000E+00	 7.50000000E-01	 6.50000000E+00
	 0.00000000E+00	 1.12500000E+00	 7.00000000E+00
	 0.00000000E+00	 7.50000000E-01	 7.00000000E+00
	 0.00000000E+00	 3.75000000E-01	 7.00000000E+00
	 0.00000000E+00	 7.50000000E-01	 7.50000000E+00
	 5.00000000E-01	 7.50000000E-01	 5.00000000E-01
	 5.00000000E-01	 3.75000000E-01	 1.00000000E+00
	 2.50000000E-01	 7.50000000E-01	 1.00000000E+00
	 5.00000000E-01	 7.50000000E-01	 1.00000000E+00
	 7.50000000E-01	 7.50000000E-01	 1.00000000E+00
	 5.00000000E-01	 1.12500000E+00	 1.00000000E+00
	 5.00000000E-01	 7.50000000E-01	 1.50000000E+00
	 5.00000000E-01	 3.75000000E-01	 2.00000000E+00
	 2.50000000E-01	 7.50000000E-01	 2.00000000E+00
	 5.00000000E-01	 7.50000000E-01	 2.00000000E+00
	 7.50000000E-01	 7.50000000E-01	 2.00000000E+00
	 5.00000000E-01	 1.12500000E+00	 2.00000000E+00
	 5.00000000E-01	 7.50000000E-01	 2.50000000E+00
	 5.00000000E-01	 3.75000000E-01	 3.00000000E+00
	 2.50000000E-01	 7.50000000E-01	 3.00000000E+00
	 5.00000000E-01	 7.50000000E-01	 3.00000000E+00
	 7.50000000E-01	 7.50000000E-01	 3.00000000E+00
	 5.00000000E-01	 1.12500000E+00	 3.00000000E+00
	 5.00000000E-01	 7.50000000E-01	 3.50000000E+00
	 5.00000000E-01	 3.75000000E-01	 4.00000000E+00
	 2.50000000E-01	 7.50000000E-01	 4.00000000E+00
	 5.00000000E-01	 7.50000000E-01	 4.00000000E+00
	 7.50000000E-01	 7.50000000E-01	 4.00000000E+00
	 5.00000000E-01	 1.12500000E+00	 4.00000000E+00
	 5.00000000E-01	 7.50000000E-01	 4.50000000E+00
	 5.00000000E-01	 3.75000000E-01	 5.00000000E+00
	 2.50000000E-01	 7.50000000E-01	 5.00000000E+00
	 5.00000000E-01	 7.50000000E-01	 5.00000000E+00
	 7.50000000E-01	 7.50000000E-01	 5.00000000E+00
	 5.00000000E-01	 1.12500000E+00	 5.00000000E+00
	 5.00000000E-01	 7.50000000E-01	 5.50000000E+00
	 5.00000000E-01	 3.75000000E-01	 6.00000000E+00
	 2.50000000E-01	 7.50000000E-01	 6.00000000E+00
	 5.00000000E-01	 7.50000000E-01	 6.00000000E+00
	 7.50000000E-01	 7.50000000E-01	 6.00000000E+00
	 5.00000000E-01	 1.12500000E+00	 6.00000000E+00
	 5.00000000E-01	 7.50000000E-01	 6.50000000E+00
	 5.00000000E-01	 3.75000000E-01	 7.00000000E+00
	 2.50000000E-01	 7.50000000E-01	 7.00000000E+00
	 5.00000000E-01	 7.50000000E-01	 7.00000000E+00
	 7.50000000E-01	 7.50000000E-01	 7.00000000E+00
	 5.00000000E-01	 1.12500000E+00	 7.00000000E+00
	 5.00000000E-01	 7.50000000E-01	 7.50000000E+00

CELLS 32 672
	20 0 9 94 18 60 104 221 191 8 92 93 19 103 219 220 192 61 102 218 189 
	20 9 1 12 94 104 33 133 221 10 11 95 92 105 132 222 219 102 32 131 218 
	20 18 94 15 3 191 221 162 78 93 96 16 17 220 223 163 190 189 218 160 77 
	20 94 12 2 15 221 133 63 162 95 13 14 96 222 134 161 223 218 131 62 160 
	20 60 104 221 191 58 108 227 195 103 219 220 192 107 225 226 196 59 106 224 193 
	20 104 33 133 221 108 35 137 227 105 132 222 219 109 136 228 225 106 34 135 224 
	20 191 221 162 78 195 227 166 80 220 223 163 190 226 229 167 194 193 224 164 79 
	20 221 133 63 162 227 137 65 166 222 134 161 223 228 138 165 229 224 135 64 164 
	20 58 108 227 195 56 112 233 199 107 225 226 196 111 231 232 200 57 110 230 197 
	20 108 35 137 227 112 37 141 233 109 136 228 225 113 140 234 231 110 36 139 230 
	20 195 227 166 80 199 233 170 82 226 229 167 194 232 235 171 198 197 230 168 81 
	20 227 137 65 166 233 141 67 170 228 138 165 229 234 142 169 235 230 139 66 168 
	20 56 112 233 199 54 116 239 203 111 231 232 200 115 237 238 204 55 114 236 201 
	20 112 37 141 233 116 39 145 239 113 140 234 231 117 144 240 237 114 38 143 236 
	20 199 233 170 82 203 239 174 84 232 235 171 198 238 241 175 202 201 236 172 83 
	20 233 141 67 170 239 145 69 174 234 142 169 235 240 146 173 241 236 143 68 172 
	20 54 116 239 203 52 120 245 207 115 237 238 204 119 243 244 208 53 118 242 205 
	20 116 39 145 239 120 41 149 245 117 144 240 237 121 148 246 243 118 40 147 242 
	20 203 239 174 84 207 245 178 86 238 241 175 202 244 247 179 206 205 242 176 85 
	20 239 145 69 174 245 149 71 178 240 146 173 241 246 150 177 247 242 147 70 176 
	20 52 120 245 207 50 124 251 211 119 243 244 208 123 249 250 212 51 122 248 209 
	20 120 41 149 245 124 43 153 251 121 148 246 243 125 152 252 249 122 42 151 248 
	20 207 245 178 86 211 251 182 88 244 247 179 206 250 253 183 210 209 248 180 87 
	20 245 149 71 178 251 153 73 182 246 150 177 247 252 154 181 253 248 151 72 180 
	20 50 124 251 211 48 128 257 215 123 249 250 212 127 255 256 216 49 126 254 213 
	20 124 43 153 251 128 45 157 257 125 152 252 249 129 156 258 255 126 44 155 254 
	20 211 251 182 88 215 257 186 90 250 253 183 210 256 259 187 214 213 254 184 89 
	20 251 153 73 182 257 157 75 186 252 154 181 253 258 158 185 259 254 155 74 184 
	20 48 128 257 215 4 21 99 30 127 255 256 216 20 97 98 31 47 130 260 217 
	20 128 45 157 257 21 5 24 99 129 156 258 255 22 23 100 97 130 46 159 260 
	20 215 257 186 90 30 99 27 7 256 259 187 214 98 101 28 29 217 260 188 91 
	20 257 157 75 186 99 24 6 27 258 158 185 259 100 25 26 101 260 159 76 188 

CELL_TYPES 32
	25
	25
	25
	25
	25
	25
	25
	25
	25
	25
	25
	25
	25
	25
	25
	25
	25
	25
	25
	25
	25
	25
	25
	25
	25
	25
	25
	25
	25
	25
	25
	25

POINT_DATA 261
FIELD U 1
	U 3 261 double
		 0.00000000E+00	 0.00000000E+00	 0.00000000E+00
		 0.00000000E+00	 0.00000000E+00	 0.00000000E+00
		 0.00000000E+00	 0.00000000E+00	 0.00000000E+00
		 0.00000000E+00	 0.00000000E+00	 0.00000000E+00
		-1.61517000E-01	-6.52384000E+03	 5.75211000E+02
		 1.61517000E-01	-6.52384000E+03	 5.75211000E+02
		 4.09596000E-01	-6.10068000E+03	 2.15491000E+03
		-4.09596000E-01	-6.10068000E+03	 2.15491000E+03
		 0.00000000E+00	 0.00000000E+00	 0.00000000E+00
		 0.00000000E+00	 0.00000000E+00	 0.00000000E+00
		 0.00000000E+00	 0.00000000E+00	 0.00000000E+00
		 0.00000000E+00	 0.00000000E+00	 0.00000000E+00
		 0.00000000E+00	 0.00000000E+00	 0.00000000E+00
		 0.00000000E+00	 0.00000000E+00	 0.00000000E+00
		 0.00000000E+00	 0.00000000E+00	 0.00000000E+00
		 0.00000000E+00	 0.00000000E+00	 0.00000000E+00
		 0.00000000E+00	 0.00000000E+00	 0.00000000E+00
		 0.00000000E+00	 0.00000000E+00	 0.00000000E+00
		 0.00000000E+00	 0.00000000E+00	 0.00000000E+00
		 0.00000000E+00	 0.00000000E+00	 0.00000000E+00
		 3.08959000E-02	-6.52363000E+03	 5.72998000E+02
		 6.64602000E-09	-6.52313000E+03	 5.70792000E+02
		-3.08959000E-02	-6.52363000E+03	 5.72998000E+02
		-3.74863000E-01	-6.41796000E+03	 9.67192000E+02
		-9.93948000E-01	-6.31180000E+03	 1.36228000E+03
		-2.38944000E-01	-6.20741000E+03	 1.75677000E+03
		 9.85448000E-02	-6.10159000E+03	 2.15292000E+03
		 5.39399000E-09	-6.10201000E+03	 2.15078000E+03
		-9.85448000E-02	-6.10159000E+03	 2.15292000E+03
		 2.38944000E-01	-6.20741000E+03	 1.75677000E+03
		 9.93948000E-01	-6.31180000E+03	 1.36228000E+03
		 3.74863000E-01	-6.41796000E+03	 9.67192000E+02
		 3.84479000E+01	-6.96661000E+01	-1.09704000E+02
		 2.69589000E+01	-2.05845000E+02	-2.11320000E+02
		 2.89524000E+01	-4.27928000E+02	-2.91913000E+02
		 2.49294000E+01	-7.10347000E+02	-3.50154000E+02
		 2.24916000E+01	-1.05447000E+03	-3.82955000E+02
		 1.91103000E+01	-1.44610000E+03	-3.91183000E+02
		 1.61961000E+01	-1.87895000E+03	-3.74062000E+02
		 1.33143000E+01	-2.34407000E+03	-3.33106000E+02
		 1.06299000E+01	-2.83475000E+03	-2.69911000E+02
		 8.15074000E+00	-3.34425000E+03	-1.86611000E+02
		 5.93450000E+00	-3.86648000E+03	-8.61812000E+01
		 4.13661000E+00	-4.39688000E+03	 2.92913000E+01
		 2.33309000E+00	-4.93056000E+03	 1.55198000E+02
		 1.37470000E+00	-5.46538000E+03	 2.91040000E+02
		 1.13031000E-01	-5.99666000E+03	 4.31655000E+02
		-1.13031000E-01	-5.99666000E+03	 4.31655000E+02
		-1.37470000E+00	-5.46538000E+03	 2.91040000E+02
		-2.33309000E+00	-4.93056000E+03	 1.55198000E+02
		-4.13661000E+00	-4.39688000E+03	 2.92913000E+01
		-5.93450000E+00	-3.86648000E+03	-8.61812000E+01
		-8.15074000E+00	-3.34425000E+03	-1.86611000E+02
		-1.06299000E+01	-2.83475000E+03	-2.69911000E+02
		-1.33143000E+01	-2.34407000E+03	-3.33106000E+02
		-1.61961000E+01	-1.87895000E+03	-3.74062000E+02
		-1.91103000E+01	-1.44610000E+03	-3.91183000E+02
		-2.24916000E+01	-1.05447000E+03	-3.82955000E+02
		-2.49294000E+01	-7.10347000E+02	-3.50154000E+02
		-2.89524000E+01	-4.27928000E+02	-2.91913000E+02
		-2.69589000E+01	-2.05845000E+02	-2.11320000E+02
		-3.84479000E+01	-6.96661000E+01	-1.09704000E+02
		-4.16697000E+01	-5.81568000E+01	 1.23885000E+02
		-2.57146000E+01	-1.70922000E+02	 2.49338000E+02
		-2.92432000E+01	-3.63459000E+02	 3.73822000E+02
		-2.46657000E+01	-6.06876000E+02	 4.95583000E+02
		-2.23065000E+01	-9.10547000E+02	 6.19229000E+02
		-1.86416000E+01	-1.25794000E+03	 7.45704000E+02
		-1.58298000E+01	-1.64776000E+03	 8.76512000E+02
		-1.27935000E+01	-2.07178000E+03	 1.01113000E+03
		-1.01078000E+01	-2.52548000E+03	 1.14905000E+03
		-7.56004000E+00	-3.00217000E+03	 1.29010000E+03
		-5.35433000E+00	-3.49739000E+03	 1.43303000E+03
		-3.30389000E+00	-4.00571000E+03	 1.57772000E+03
		-1.94510000E+00	-4.52391000E+03	 1.72172000E+03
		-5.17422000E-01	-5.04686000E+03	 1.86680000E+03
		-3.54671000E-01	-5.57272000E+03	 2.01070000E+03
		 4.16697000E+01	-5.81568000E+01	 1.23885000E+02
		 2.57146000E+01	-1.70922000E+02	 2.49338000E+02
		 2.92432000E+01	-3.63459000E+02	 3.73822000E+02
		 2.46657000E+01	-6.06876000E+02	 4.95583000E+02
		 2.23065000E+01	-9.10547000E+02	 6.19229000E+02
		 1.86416000E+01	-1.25794000E+03	 7.45704000E+02
		 1.58298000E+01	-1.64776000E+03	 8.76512000E+02
		 1.27935000E+01	-2.07178000E+03	 1.01113000E+03
		 1.01078000E+01	-2.52548000E+03	 1.14905000E+03
		 7.56004000E+00	-3.00217000E+03	 1.29010000E+03
		 5.35433000E+00	-3.49739000E+03	 1.43303000E+03
		 3.30389000E+00	-4.00571000E+03	 1.57772000E+03
		 1.94510000E+00	-4.52391000E+03	 1.72172000E+03
		 5.17422000E-01	-5.04686000E+03	 1.86680000E+03
		 3.54671000E-01	-5.57272000E+03	 2.01070000E+03
		 0.00000000E+00	 0.00000000E+00	 0.00000000E+00
		 0.00000000E+00	 0.00000000E+00	 0.00000000E+00
		 0.00000000E+00	 0.00000000E+00	 0.00000000E+00
		 0.00000000E+00	 0.00000000E+00	 0.00000000E+00
		 0.00000000E+00	 0.00000000E+00	 0.00000000E+00
		 6.32416000E-09	-6.41926000E+03	 9.70082000E+02
		 1.25670000E-01	-6.31293000E+03	 1.36253000E+03
		 6.01608000E-09	-6.31481000E+03	 1.36347000E+03
		-1.25670000E-01	-6.31293000E+03	 1.36253000E+03
		 5.69207000E-09	-6.20623000E+03	 1.75966000E+03
		 0.00000000E+00	-8.14838000E+01	-1.05338000E+02
		-1.32316000E+01	-2.15858000E+02	-2.12013000E+02
		 0.00000000E+00	-2.17812000E+02	-2.13342000E+02
		 1.32316000E+01	-2.15858000E+02	-2.12013000E+02
		 0.00000000E+00	-4.38018000E+02	-2.90496000E+02
		-1.23870000E+01	-7.17351000E+02	-3.49350000E+02
		 0.00000000E+00	-7.19969000E+02	-3.48962000E+02
		 1.23870000E+01	-7.17351000E+02	-3.49350000E+02
		 1.02341000E-09	-1.06229000E+03	-3.81453000E+02
		-9.50684000E+00	-1.45149000E+03	-3.90188000E+02
		 1.40176000E-09	-1.45310000E+03	-3.89693000E+02
		 9.50684000E+00	-1.45149000E+03	-3.90188000E+02
		 1.82331000E-09	-1.88461000E+03	-3.72628000E+02
		-6.63147000E+00	-2.34768000E+03	-3.32264000E+02
		 2.28465000E-09	-2.34882000E+03	-3.31848000E+02
		 6.63147000E+00	-2.34768000E+03	-3.32264000E+02
		 2.78010000E-09	-2.83846000E+03	-2.68711000E+02
		-4.06895000E+00	-3.34641000E+03	-1.86136000E+02
		 3.29351000E-09	-3.34702000E+03	-1.85900000E+02
		 4.06895000E+00	-3.34641000E+03	-1.86136000E+02
		 3.83034000E-09	-3.86862000E+03	-8.53845000E+01
		-2.04979000E+00	-4.39794000E+03	 2.90832000E+01
		 4.38013000E-09	-4.39815000E+03	 2.87767000E+01
		 2.04979000E+00	-4.39794000E+03	 2.90832000E+01
		 4.92901000E-09	-4.93186000E+03	 1.56418000E+02
		-7.21756000E-01	-5.46507000E+03	 2.90514000E+02
		 5.49016000E-09	-5.46464000E+03	 2.90097000E+02
		 7.21756000E-01	-5.46507000E+03	 2.90514000E+02
		 6.07815000E-09	-5.99679000E+03	 4.31964000E+02
		-3.17345000E+00	-3.28615000E+01	 6.12701000E+00
		 1.16979000E+01	-1.81450000E+02	-9.38906000E+01
		-2.58862000E+00	-1.72691000E+02	 1.63285000E+01
		-1.46824000E+01	-1.63512000E+02	 1.28236000E+02
		-2.55157000E+00	-3.71951000E+02	 3.50860000E+01
		 1.12524000E+01	-6.71670000E+02	-1.39178000E+02
		-1.89285000E+00	-6.42490000E+02	 6.72172000E+01
		-1.35666000E+01	-6.21141000E+02	 2.75910000E+02
		-1.40399000E+00	-9.65624000E+02	 1.11872000E+02
		 8.85607000E+00	-1.38803000E+03	-1.07698000E+02
		-1.06249000E+00	-1.33879000E+03	 1.71586000E+02
		-1.00351000E+01	-1.29557000E+03	 4.53934000E+02
		-7.19805000E-01	-1.75161000E+03	 2.45587000E+02
		 6.34425000E+00	-2.26806000E+03	 2.21959000E+00
		-4.38005000E-01	-2.19869000E+03	 3.33873000E+02
		-6.72969000E+00	-2.13399000E+03	 6.68156000E+02
		-2.02330000E-01	-2.67257000E+03	 4.35062000E+02
		 4.04270000E+00	-3.25342000E+03	 1.82171000E+02
		-6.17514000E-02	-3.16756000E+03	 5.47678000E+02
		-3.85222000E+00	-3.08458000E+03	 9.15507000E+02
		 1.17517000E-01	-3.67777000E+03	 6.70466000E+02
		 2.06362000E+00	-4.29612000E+03	 4.16055000E+02
		 8.54081000E-02	-4.19852000E+03	 8.00482000E+02
		-1.70174000E+00	-4.10255000E+03	 1.18657000E+03
		 3.52906000E-01	-4.72539000E+03	 9.37312000E+02
		 5.94884000E-01	-5.35912000E+03	 6.84730000E+02
		-4.79263000E-01	-5.25503000E+03	 1.07598000E+03
		-4.23258000E-01	-5.15144000E+03	 1.47063000E+03
		 1.02999000E+00	-5.78471000E+03	 1.22089000E+03
		 0.00000000E+00	-6.93092000E+01	 1.19913000E+02
		-1.30552000E+01	-1.78894000E+02	 2.53306000E+02
		 0.00000000E+00	-1.80965000E+02	 2.55947000E+02
		 1.30552000E+01	-1.78894000E+02	 2.53306000E+02
		 0.00000000E+00	-3.71231000E+02	 3.76210000E+02
		-1.23277000E+01	-6.12594000E+02	 4.98586000E+02
		 0.00000000E+00	-6.15292000E+02	 4.99770000E+02
		 1.23277000E+01	-6.12594000E+02	 4.98586000E+02
		 0.00000000E+00	-9.16765000E+02	 6.22443000E+02
		-9.37224000E+00	-1.26219000E+03	 7.48393000E+02
		 0.00000000E+00	-1.26382000E+03	 7.49141000E+02
		 9.37224000E+00	-1.26219000E+03	 7.48393000E+02
		 1.14119000E-09	-1.65219000E+03	 8.79625000E+02
		-6.41315000E+00	-2.07447000E+03	 1.01343000E+03
		 1.49657000E-09	-2.07556000E+03	 1.01403000E+03
		 6.41315000E+00	-2.07447000E+03	 1.01343000E+03
		 1.88527000E-09	-2.52822000E+03	 1.15174000E+03
		-3.78448000E+00	-3.00372000E+03	 1.29181000E+03
		 2.30489000E-09	-3.00438000E+03	 1.29219000E+03
		 3.78448000E+00	-3.00372000E+03	 1.29181000E+03
		 2.76555000E-09	-3.49877000E+03	 1.43501000E+03
		-1.66565000E+00	-4.00649000E+03	 1.57845000E+03
		 3.25531000E-09	-4.00697000E+03	 1.57827000E+03
		 1.66565000E+00	-4.00649000E+03	 1.57845000E+03
		 3.75940000E-09	-4.52362000E+03	 1.72361000E+03
		-2.22325000E-01	-5.04714000E+03	 1.86695000E+03
		 4.28918000E-09	-5.04753000E+03	 1.86673000E+03
		 2.22325000E-01	-5.04714000E+03	 1.86695000E+03
		 4.83692000E-09	-5.57353000E+03	 2.01148000E+03
		 3.17345000E+00	-3.28615000E+01	 6.12701000E+00
		 1.46824000E+01	-1.63512000E+02	 1.28236000E+02
		 2.58862000E+00	-1.72691000E+02	 1.63285000E+01
		-1.16979000E+01	-1.81450000E+02	-9.38906000E+01
		 2.55157000E+00	-3.71951000E+02	 3.50860000E+01
		 1.35666000E+01	-6.21141000E+02	 2.75910000E+02
		 1.89285000E+00	-6.42490000E+02	 6.72172000E+01
		-1.12524000E+01	-6.71670000E+02	-1.39178000E+02
		 1.40399000E+00	-9.65624000E+02	 1.11872000E+02
		 1.00351000E+01	-1.29557000E+03	 4.53934000E+02
		 1.06249000E+00	-1.33879000E+03	 1.71586000E+02
		-8.85607000E+00	-1.38803000E+03	-1.07698000E+02
		 7.19805000E-01	-1.75161000E+03	 2.45587000E+02
		 6.72969000E+00	-2.13399000E+03	 6.68156000E+02
		 4.38005000E-01	-2.19869000E+03	 3.33873000E+02
		-6.34425000E+00	-2.26806000E+03	 2.21959000E+00
		 2.02330000E-01	-2.67257000E+03	 4.35062000E+02
		 3.85222000E+00	-3.08458000E+03	 9.15507000E+02
		 6.17514000E-02	-3.16756000E+03	 5.47678000E+02
		-4.04270000E+00	-3.25342000E+03	 1.82171000E+02
		-1.17517000E-01	-3.67777000E+03	 6.70466000E+02
		 1.70174000E+00	-4.10255000E+03	 1.18657000E+03
		-8.54081000E-02	-4.19852000E+03	 8.00482000E+02
		-2.06362000E+00	-4.29612000E+03	 4.16055000E+02
		-3.52906000E-01	-4.72539000E+03	 9.37312000E+02
		 4.23258000E-01	-5.15144000E+03	 1.47063000E+03
		 4.79263000E-01	-5.25503000E+03	 1.07598000E+03
		-5.94884000E-01	-5.35912000E+03	 6.84730000E+02
		-1.02999000E+00	-5.78471000E+03	 1.22089000E+03
		 0.00000000E+00	-4.40390000E+01	 6.62948000E+00
		 0.00000000E+00	-1.92204000E+02	-9.40950000E+01
		 1.39617000E+00	-1.80968000E+02	 1.74476000E+01
		 0.00000000E+00	-1.82230000E+02	 1.78332000E+01
		-1.39617000E+00	-1.80968000E+02	 1.74476000E+01
		 0.00000000E+00	-1.72837000E+02	 1.32356000E+02
		 0.00000000E+00	-3.81652000E+02	 3.71857000E+01
		 0.00000000E+00	-6.80718000E+02	-1.37814000E+02
		 1.00596000E+00	-6.48275000E+02	 6.90159000E+01
		 0.00000000E+00	-6.50349000E+02	 6.95305000E+01
		-1.00596000E+00	-6.48275000E+02	 6.90159000E+01
		 0.00000000E+00	-6.29105000E+02	 2.79369000E+02
		 0.00000000E+00	-9.72995000E+02	 1.14373000E+02
		 1.26772000E-09	-1.39472000E+03	-1.06073000E+02
		 5.69461000E-01	-1.34338000E+03	 1.73373000E+02
		 1.12902000E-09	-1.34478000E+03	 1.73934000E+02
		-5.69461000E-01	-1.34338000E+03	 1.73373000E+02
		 0.00000000E+00	-1.30129000E+03	 4.57108000E+02
		 1.49737000E-09	-1.75682000E+03	 2.47895000E+02
		 2.09752000E-09	-2.27264000E+03	 3.68058000E+00
		 2.40550000E-01	-2.20176000E+03	 3.35506000E+02
		 1.90266000E-09	-2.20279000E+03	 3.36046000E+02
		-2.40550000E-01	-2.20176000E+03	 3.35506000E+02
		 1.70292000E-09	-2.13779000E+03	 6.70942000E+02
		 2.34496000E-09	-2.67589000E+03	 4.36920000E+02
		 3.05658000E-09	-3.25621000E+03	 1.83193000E+02
		 3.90425000E-02	-3.16940000E+03	 5.49054000E+02
		 2.81810000E-09	-3.17000000E+03	 5.49604000E+02
		-3.90425000E-02	-3.16940000E+03	 5.49054000E+02
		 2.56682000E-09	-3.08679000E+03	 9.17638000E+02
		 3.31083000E-09	-3.67962000E+03	 6.71470000E+02
		 4.10091000E-09	-4.29735000E+03	 4.16844000E+02
		-4.18124000E-02	-4.19939000E+03	 8.01601000E+02
		 3.82595000E-09	-4.19973000E+03	 8.02291000E+02
		 4.18124000E-02	-4.19939000E+03	 8.01601000E+02
		 3.53964000E-09	-4.10357000E+03	 1.18823000E+03
		 4.35442000E-09	-4.72605000E+03	 9.37517000E+02
		 5.20129000E-09	-5.35916000E+03	 6.85074000E+02
		 2.37469000E-01	-5.25524000E+03	 1.07828000E+03
		 4.89928000E-09	-5.25512000E+03	 1.08011000E+03
		-2.37469000E-01	-5.25524000E+03	 1.07828000E+03
		 4.60409000E-09	-5.15235000E+03	 1.47156000E+03
		 5.45458000E-09	-5.78531000E+03	 1.21741000E+03
