# vtk DataFile Version 3.0

ASCII
DATASET UNSTRUCTURED_GRID

POINTS 261 double
	 0.00000000E+00	 0.00000000E+00	 0.00000000E+00
	 1.00000000E+00	 0.00000000E+00	 0.00000000E+00
	 1.00000000E+00	 1.50000000E+00	 0.00000000E+00
	 0.00000000E+00	 1.50000000E+00	 0.00000000E+00
	 0.00000000E+00	 0.00000000E+00	 8.00000000E+00
	 1.00000000E+00	 0.00000000E+00	 8.00000000E+00
	 1.00000000E+00	 1.50000000E+00	 8.00000000E+00
	 0.00000000E+00	 1.50000000E+00	 8.00000000E+00
	 2.50000000E-01	 0.00000000E+00	 0.00000000E+00
	 5.00000000E-01	 0.00000000E+00	 0.00000000E+00
	 7.50000000E-01	 0.00000000E+00	 0.00000000E+00
	 1.00000000E+00	 3.75000000E-01	 0.00000000E+00
	 1.00000000E+00	 7.50000000E-01	 0.00000000E+00
	 1.00000000E+00	 1.12500000E+00	 0.00000000E+00
	 7.50000000E-01	 1.50000000E+00	 0.00000000E+00
	 5.00000000E-01	 1.50000000E+00	 0.00000000E+00
	 2.50000000E-01	 1.50000000E+00	 0.00000000E+00
	 0.00000000E+00	 1.12500000E+00	 0.00000000E+00
	 0.00000000E+00	 7.50000000E-01	 0.00000000E+00
	 0.00000000E+00	 3.75000000E-01	 0.00000000E+00
	 2.50000000E-01	 0.00000000E+00	 8.00000000E+00
	 5.00000000E-01	 0.00000000E+00	 8.00000000E+00
	 7.50000000E-01	 0.00000000E+00	 8.00000000E+00
	 1.00000000E+00	 3.75000000E-01	 8.00000000E+00
	 1.00000000E+00	 7.50000000E-01	 8.00000000E+00
	 1.00000000E+00	 1.12500000E+00	 8.00000000E+00
	 7.50000000E-01	 1.50000000E+00	 8.00000000E+00
	 5.00000000E-01	 1.50000000E+00	 8.00000000E+00
	 2.50000000E-01	 1.50000000E+00	 8.00000000E+00
	 0.00000000E+00	 1.12500000E+00	 8.00000000E+00
	 0.00000000E+00	 7.50000000E-01	 8.00000000E+00
	 0.00000000E+00	 3.75000000E-01	 8.00000000E+00
	 1.00000000E+00	 0.00000000E+00	 5.00000000E-01
	 1.00000000E+00	 0.00000000E+00	 1.00000000E+00
	 1.00000000E+00	 0.00000000E+00	 1.50000000E+00
	 1.00000000E+00	 0.00000000E+00	 2.00000000E+00
	 1.00000000E+00	 0.00000000E+00	 2.50000000E+00
	 1.00000000E+00	 0.00000000E+00	 3.00000000E+00
	 1.00000000E+00	 0.00000000E+00	 3.50000000E+00
	 1.00000000E+00	 0.00000000E+00	 4.00000000E+00
	 1.00000000E+00	 0.00000000E+00	 4.50000000E+00
	 1.00000000E+00	 0.00000000E+00	 5.00000000E+00
	 1.00000000E+00	 0.00000000E+00	 5.50000000E+00
	 1.00000000E+00	 0.00000000E+00	 6.00000000E+00
	 1.00000000E+00	 0.00000000E+00	 6.50000000E+00
	 1.00000000E+00	 0.00000000E+00	 7.00000000E+00
	 1.00000000E+00	 0.00000000E+00	 7.50000000E+00
	 0.00000000E+00	 0.00000000E+00	 7.50000000E+00
	 0.00000000E+00	 0.00000000E+00	 7.00000000E+00
	 0.00000000E+00	 0.00000000E+00	 6.50000000E+00
	 0.00000000E+00	 0.00000000E+00	 6.00000000E+00
	 0.00000000E+00	 0.00000000E+00	 5.50000000E+00
	 0.00000000E+00	 0.00000000E+00	 5.00000000E+00
	 0.00000000E+00	 0.00000000E+00	 4.50000000E+00
	 0.00000000E+00	 0.00000000E+00	 4.00000000E+00
	 0.00000000E+00	 0.00000000E+00	 3.50000000E+00
	 0.00000000E+00	 0.00000000E+00	 3.00000000E+00
	 0.00000000E+00	 0.00000000E+00	 2.50000000E+00
	 0.00000000E+00	 0.00000000E+00	 2.00000000E+00
	 0.00000000E+00	 0.00000000E+00	 1.50000000E+00
	 0.00000000E+00	 0.00000000E+00	 1.00000000E+00
	 0.00000000E+00	 0.00000000E+00	 5.00000000E-01
	 1.00000000E+00	 1.50000000E+00	 5.00000000E-01
	 1.00000000E+00	 1.50000000E+00	 1.00000000E+00
	 1.00000000E+00	 1.50000000E+00	 1.50000000E+00
	 1.00000000E+00	 1.50000000E+00	 2.00000000E+00
	 1.00000000E+00	 1.50000000E+00	 2.50000000E+00
	 1.00000000E+00	 1.50000000E+00	 3.00000000E+00
	 1.00000000E+00	 1.50000000E+00	 3.50000000E+00
	 1.00000000E+00	 1.50000000E+00	 4.00000000E+00
	 1.00000000E+00	 1.50000000E+00	 4.50000000E+00
	 1.00000000E+00	 1.50000000E+00	 5.00000000E+00
	 1.00000000E+00	 1.50000000E+00	 5.50000000E+00
	 1.00000000E+00	 1.50000000E+00	 6.00000000E+00
	 1.00000000E+00	 1.50000000E+00	 6.50000000E+00
	 1.00000000E+00	 1.50000000E+00	 7.00000000E+00
	 1.00000000E+00	 1.50000000E+00	 7.50000000E+00
	 0.00000000E+00	 1.50000000E+00	 5.00000000E-01
	 0.00000000E+00	 1.50000000E+00	 1.00000000E+00
	 0.00000000E+00	 1.50000000E+00	 1.50000000E+00
	 0.00000000E+00	 1.50000000E+00	 2.00000000E+00
	 0.00000000E+00	 1.50000000E+00	 2.50000000E+00
	 0.00000000E+00	 1.50000000E+00	 3.00000000E+00
	 0.00000000E+00	 1.50000000E+00	 3.50000000E+00
	 0.00000000E+00	 1.50000000E+00	 4.00000000E+00
	 0.00000000E+00	 1.50000000E+00	 4.50000000E+00
	 0.00000000E+00	 1.50000000E+00	 5.00000000E+00
	 0.00000000E+00	 1.50000000E+00	 5.50000000E+00
	 0.00000000E+00	 1.50000000E+00	 6.00000000E+00
	 0.00000000E+00	 1.50000000E+00	 6.50000000E+00
	 0.00000000E+00	 1.50000000E+00	 7.00000000E+00
	 0.00000000E+00	 1.50000000E+00	 7.50000000E+00
	 5.00000000E-01	 3.75000000E-01	 0.00000000E+00
	 2.50000000E-01	 7.50000000E-01	 0.00000000E+00
	 5.00000000E-01	 7.50000000E-01	 0.00000000E+00
	 7.50000000E-01	 7.50000000E-01	 0.00000000E+00
	 5.00000000E-01	 1.12500000E+00	 0.00000000E+00
	 5.00000000E-01	 3.75000000E-01	 8.00000000E+00
	 2.50000000E-01	 7.50000000E-01	 8.00000000E+00
	 5.00000000E-01	 7.50000000E-01	 8.00000000E+00
	 7.50000000E-01	 7.50000000E-01	 8.00000000E+00
	 5.00000000E-01	 1.12500000E+00	 8.00000000E+00
	 5.00000000E-01	 0.00000000E+00	 5.00000000E-01
	 2.50000000E-01	 0.00000000E+00	 1.00000000E+00
	 5.00000000E-01	 0.00000000E+00	 1.00000000E+00
	 7.50000000E-01	 0.00000000E+00	 1.00000000E+00
	 5.00000000E-01	 0.00000000E+00	 1.50000000E+00
	 2.50000000E-01	 0.00000000E+00	 2.00000000E+00
	 5.00000000E-01	 0.00000000E+00	 2.00000000E+00
	 7.50000000E-01	 0.00000000E+00	 2.00000000E+00
	 5.00000000E-01	 0.00000000E+00	 2.50000000E+00
	 2.50000000E-01	 0.00000000E+00	 3.00000000E+00
	 5.00000000E-01	 0.00000000E+00	 3.00000000E+00
	 7.50000000E-01	 0.00000000E+00	 3.00000000E+00
	 5.00000000E-01	 0.00000000E+00	 3.50000000E+00
	 2.50000000E-01	 0.00000000E+00	 4.00000000E+00
	 5.00000000E-01	 0.00000000E+00	 4.00000000E+00
	 7.50000000E-01	 0.00000000E+00	 4.00000000E+00
	 5.00000000E-01	 0.00000000E+00	 4.50000000E+00
	 2.50000000E-01	 0.00000000E+00	 5.00000000E+00
	 5.00000000E-01	 0.00000000E+00	 5.00000000E+00
	 7.50000000E-01	 0.00000000E+00	 5.00000000E+00
	 5.00000000E-01	 0.00000000E+00	 5.50000000E+00
	 2.50000000E-01	 0.00000000E+00	 6.00000000E+00
	 5.00000000E-01	 0.00000000E+00	 6.00000000E+00
	 7.50000000E-01	 0.00000000E+00	 6.00000000E+00
	 5.00000000E-01	 0.00000000E+00	 6.50000000E+00
	 2.50000000E-01	 0.00000000E+00	 7.00000000E+00
	 5.00000000E-01	 0.00000000E+00	 7.00000000E+00
	 7.50000000E-01	 0.00000000E+00	 7.00000000E+00
	 5.00000000E-01	 0.00000000E+00	 7.50000000E+00
	 1.00000000E+00	 7.50000000E-01	 5.00000000E-01
	 1.00000000E+00	 3.75000000E-01	 1.00000000E+00
	 1.00000000E+00	 7.50000000E-01	 1.00000000E+00
	 1.00000000E+00	 1.12500000E+00	 1.00000000E+00
	 1.00000000E+00	 7.50000000E-01	 1.50000000E+00
	 1.00000000E+00	 3.75000000E-01	 2.00000000E+00
	 1.00000000E+00	 7.50000000E-01	 2.00000000E+00
	 1.00000000E+00	 1.12500000E+00	 2.00000000E+00
	 1.00000000E+00	 7.50000000E-01	 2.50000000E+00
	 1.00000000E+00	 3.75000000E-01	 3.00000000E+00
	 1.00000000E+00	 7.50000000E-01	 3.00000000E+00
	 1.00000000E+00	 1.12500000E+00	 3.00000000E+00
	 1.00000000E+00	 7.50000000E-01	 3.50000000E+00
	 1.00000000E+00	 3.75000000E-01	 4.00000000E+00
	 1.00000000E+00	 7.50000000E-01	 4.00000000E+00
	 1.00000000E+00	 1.12500000E+00	 4.00000000E+00
	 1.00000000E+00	 7.50000000E-01	 4.50000000E+00
	 1.00000000E+00	 3.75000000E-01	 5.00000000E+00
	 1.00000000E+00	 7.50000000E-01	 5.00000000E+00
	 1.00000000E+00	 1.12500000E+00	 5.00000000E+00
	 1.00000000E+00	 7.50000000E-01	 5.50000000E+00
	 1.00000000E+00	 3.75000000E-01	 6.00000000E+00
	 1.00000000E+00	 7.50000000E-01	 6.00000000E+00
	 1.00000000E+00	 1.12500000E+00	 6.00000000E+00
	 1.00000000E+00	 7.50000000E-01	 6.50000000E+00
	 1.00000000E+00	 3.75000000E-01	 7.00000000E+00
	 1.00000000E+00	 7.50000000E-01	 7.00000000E+00
	 1.00000000E+00	 1.12500000E+00	 7.00000000E+00
	 1.00000000E+00	 7.50000000E-01	 7.50000000E+00
	 5.00000000E-01	 1.50000000E+00	 5.00000000E-01
	 7.50000000E-01	 1.50000000E+00	 1.00000000E+00
	 5.00000000E-01	 1.50000000E+00	 1.00000000E+00
	 2.50000000E-01	 1.50000000E+00	 1.00000000E+00
	 5.00000000E-01	 1.50000000E+00	 1.50000000E+00
	 7.50000000E-01	 1.50000000E+00	 2.00000000E+00
	 5.00000000E-01	 1.50000000E+00	 2.00000000E+00
	 2.50000000E-01	 1.50000000E+00	 2.00000000E+00
	 5.00000000E-01	 1.50000000E+00	 2.50000000E+00
	 7.50000000E-01	 1.50000000E+00	 3.00000000E+00
	 5.00000000E-01	 1.50000000E+00	 3.00000000E+00
	 2.50000000E-01	 1.50000000E+00	 3.00000000E+00
	 5.00000000E-01	 1.50000000E+00	 3.50000000E+00
	 7.50000000E-01	 1.50000000E+00	 4.00000000E+00
	 5.00000000E-01	 1.50000000E+00	 4.00000000E+00
	 2.50000000E-01	 1.50000000E+00	 4.00000000E+00
	 5.00000000E-01	 1.50000000E+00	 4.50000000E+00
	 7.50000000E-01	 1.50000000E+00	 5.00000000E+00
	 5.00000000E-01	 1.50000000E+00	 5.00000000E+00
	 2.50000000E-01	 1.50000000E+00	 5.00000000E+00
	 5.00000000E-01	 1.50000000E+00	 5.50000000E+00
	 7.50000000E-01	 1.50000000E+00	 6.00000000E+00
	 5.00000000E-01	 1.50000000E+00	 6.00000000E+00
	 2.50000000E-01	 1.50000000E+00	 6.00000000E+00
	 5.00000000E-01	 1.50000000E+00	 6.50000000E+00
	 7.50000000E-01	 1.50000000E+00	 7.00000000E+00
	 5.00000000E-01	 1.50000000E+00	 7.00000000E+00
	 2.50000000E-01	 1.50000000E+00	 7.00000000E+00
	 5.00000000E-01	 1.50000000E+00	 7.50000000E+00
	 0.00000000E+00	 7.50000000E-01	 5.00000000E-01
	 0.00000000E+00	 1.12500000E+00	 1.00000000E+00
	 0.00000000E+00	 7.50000000E-01	 1.00000000E+00
	 0.00000000E+00	 3.75000000E-01	 1.00000000E+00
	 0.00000000E+00	 7.50000000E-01	 1.50000000E+00
	 0.00000000E+00	 1.12500000E+00	 2.00000000E+00
	 0.00000000E+00	 7.50000000E-01	 2.00000000E+00
	 0.00000000E+00	 3.75000000E-01	 2.00000000E+00
	 0.00000000E+00	 7.50000000E-01	 2.50000000E+00
	 0.00000000E+00	 1.12500000E+00	 3.00000000E+00
	 0.00000000E+00	 7.50000000E-01	 3.00000000E+00
	 0.00000000E+00	 3.75000000E-01	 3.00000000E+00
	 0.00000000E+00	 7.50000000E-01	 3.50000000E+00
	 0.00000000E+00	 1.12500000E+00	 4.00000000E+00
	 0.00000000E+00	 7.50000000E-01	 4.00000000E+00
	 0.00000000E+00	 3.75000000E-01	 4.00000000E+00
	 0.00000000E+00	 7.50000000E-01	 4.50000000E+00
	 0.00000000E+00	 1.12500000E+00	 5.00000000E+00
	 0.00000000E+00	 7.50000000E-01	 5.00000000E+00
	 0.00000000E+00	 3.75000000E-01	 5.00000000E+00
	 0.00000000E+00	 7.50000000E-01	 5.50000000E+00
	 0.00000000E+00	 1.12500000E+00	 6.00000000E+00
	 0.00000000E+00	 7.50000000E-01	 6.00000000E+00
	 0.00000000E+00	 3.75000000E-01	 6.00000000E+00
	 0.00000000E+00	 7.50000000E-01	 6.50000000E+00
	 0.00000000E+00	 1.12500000E+00	 7.00000000E+00
	 0.00000000E+00	 7.50000000E-01	 7.00000000E+00
	 0.00000000E+00	 3.75000000E-01	 7.00000000E+00
	 0.00000000E+00	 7.50000000E-01	 7.50000000E+00
	 5.00000000E-01	 7.50000000E-01	 5.00000000E-01
	 5.00000000E-01	 3.75000000E-01	 1.00000000E+00
	 2.50000000E-01	 7.50000000E-01	 1.00000000E+00
	 5.00000000E-01	 7.50000000E-01	 1.00000000E+00
	 7.50000000E-01	 7.50000000E-01	 1.00000000E+00
	 5.00000000E-01	 1.12500000E+00	 1.00000000E+00
	 5.00000000E-01	 7.50000000E-01	 1.50000000E+00
	 5.00000000E-01	 3.75000000E-01	 2.00000000E+00
	 2.50000000E-01	 7.50000000E-01	 2.00000000E+00
	 5.00000000E-01	 7.50000000E-01	 2.00000000E+00
	 7.50000000E-01	 7.50000000E-01	 2.00000000E+00
	 5.00000000E-01	 1.12500000E+00	 2.00000000E+00
	 5.00000000E-01	 7.50000000E-01	 2.50000000E+00
	 5.00000000E-01	 3.75000000E-01	 3.00000000E+00
	 2.50000000E-01	 7.50000000E-01	 3.00000000E+00
	 5.00000000E-01	 7.50000000E-01	 3.00000000E+00
	 7.50000000E-01	 7.50000000E-01	 3.00000000E+00
	 5.00000000E-01	 1.12500000E+00	 3.00000000E+00
	 5.00000000E-01	 7.50000000E-01	 3.50000000E+00
	 5.00000000E-01	 3.75000000E-01	 4.00000000E+00
	 2.50000000E-01	 7.50000000E-01	 4.00000000E+00
	 5.00000000E-01	 7.50000000E-01	 4.00000000E+00
	 7.50000000E-01	 7.50000000E-01	 4.00000000E+00
	 5.00000000E-01	 1.12500000E+00	 4.00000000E+00
	 5.00000000E-01	 7.50000000E-01	 4.50000000E+00
	 5.00000000E-01	 3.75000000E-01	 5.00000000E+00
	 2.50000000E-01	 7.50000000E-01	 5.00000000E+00
	 5.00000000E-01	 7.50000000E-01	 5.00000000E+00
	 7.50000000E-01	 7.50000000E-01	 5.00000000E+00
	 5.00000000E-01	 1.12500000E+00	 5.00000000E+00
	 5.00000000E-01	 7.50000000E-01	 5.50000000E+00
	 5.00000000E-01	 3.75000000E-01	 6.00000000E+00
	 2.50000000E-01	 7.50000000E-01	 6.00000000E+00
	 5.00000000E-01	 7.50000000E-01	 6.00000000E+00
	 7.50000000E-01	 7.50000000E-01	 6.00000000E+00
	 5.00000000E-01	 1.12500000E+00	 6.00000000E+00
	 5.00000000E-01	 7.50000000E-01	 6.50000000E+00
	 5.00000000E-01	 3.75000000E-01	 7.00000000E+00
	 2.50000000E-01	 7.50000000E-01	 7.00000000E+00
	 5.00000000E-01	 7.50000000E-01	 7.00000000E+00
	 7.50000000E-01	 7.50000000E-01	 7.00000000E+00
	 5.00000000E-01	 1.12500000E+00	 7.00000000E+00
	 5.00000000E-01	 7.50000000E-01	 7.50000000E+00

CELLS 32 672
	20 0 9 94 18 60 104 221 191 8 92 93 19 103 219 220 192 61 102 218 189 
	20 9 1 12 94 104 33 133 221 10 11 95 92 105 132 222 219 102 32 131 218 
	20 18 94 15 3 191 221 162 78 93 96 16 17 220 223 163 190 189 218 160 77 
	20 94 12 2 15 221 133 63 162 95 13 14 96 222 134 161 223 218 131 62 160 
	20 60 104 221 191 58 108 227 195 103 219 220 192 107 225 226 196 59 106 224 193 
	20 104 33 133 221 108 35 137 227 105 132 222 219 109 136 228 225 106 34 135 224 
	20 191 221 162 78 195 227 166 80 220 223 163 190 226 229 167 194 193 224 164 79 
	20 221 133 63 162 227 137 65 166 222 134 161 223 228 138 165 229 224 135 64 164 
	20 58 108 227 195 56 112 233 199 107 225 226 196 111 231 232 200 57 110 230 197 
	20 108 35 137 227 112 37 141 233 109 136 228 225 113 140 234 231 110 36 139 230 
	20 195 227 166 80 199 233 170 82 226 229 167 194 232 235 171 198 197 230 168 81 
	20 227 137 65 166 233 141 67 170 228 138 165 229 234 142 169 235 230 139 66 168 
	20 56 112 233 199 54 116 239 203 111 231 232 200 115 237 238 204 55 114 236 201 
	20 112 37 141 233 116 39 145 239 113 140 234 231 117 144 240 237 114 38 143 236 
	20 199 233 170 82 203 239 174 84 232 235 171 198 238 241 175 202 201 236 172 83 
	20 233 141 67 170 239 145 69 174 234 142 169 235 240 146 173 241 236 143 68 172 
	20 54 116 239 203 52 120 245 207 115 237 238 204 119 243 244 208 53 118 242 205 
	20 116 39 145 239 120 41 149 245 117 144 240 237 121 148 246 243 118 40 147 242 
	20 203 239 174 84 207 245 178 86 238 241 175 202 244 247 179 206 205 242 176 85 
	20 239 145 69 174 245 149 71 178 240 146 173 241 246 150 177 247 242 147 70 176 
	20 52 120 245 207 50 124 251 211 119 243 244 208 123 249 250 212 51 122 248 209 
	20 120 41 149 245 124 43 153 251 121 148 246 243 125 152 252 249 122 42 151 248 
	20 207 245 178 86 211 251 182 88 244 247 179 206 250 253 183 210 209 248 180 87 
	20 245 149 71 178 251 153 73 182 246 150 177 247 252 154 181 253 248 151 72 180 
	20 50 124 251 211 48 128 257 215 123 249 250 212 127 255 256 216 49 126 254 213 
	20 124 43 153 251 128 45 157 257 125 152 252 249 129 156 258 255 126 44 155 254 
	20 211 251 182 88 215 257 186 90 250 253 183 210 256 259 187 214 213 254 184 89 
	20 251 153 73 182 257 157 75 186 252 154 181 253 258 158 185 259 254 155 74 184 
	20 48 128 257 215 4 21 99 30 127 255 256 216 20 97 98 31 47 130 260 217 
	20 128 45 157 257 21 5 24 99 129 156 258 255 22 23 100 97 130 46 159 260 
	20 215 257 186 90 30 99 27 7 256 259 187 214 98 101 28 29 217 260 188 91 
	20 257 157 75 186 99 24 6 27 258 158 185 259 100 25 26 101 260 159 76 188 

CELL_TYPES 32
	25
	25
	25
	25
	25
	25
	25
	25
	25
	25
	25
	25
	25
	25
	25
	25
	25
	25
	25
	25
	25
	25
	25
	25
	25
	25
	25
	25
	25
	25
	25
	25

POINT_DATA 261
FIELD U 1
	U 3 261 double
		 0.00000000E+00	 0.00000000E+00	 0.00000000E+00
		 0.00000000E+00	 0.00000000E+00	 0.00000000E+00
		 0.00000000E+00	 0.00000000E+00	 0.00000000E+00
		 0.00000000E+00	 0.00000000E+00	 0.00000000E+00
		 1.25128000E-01	-6.45189000E+03	-8.12725000E+02
		-1.25128000E-01	-6.45189000E+03	-8.12725000E+02
		 1.25128000E-01	-6.45189000E+03	 8.12725000E+02
		-1.25128000E-01	-6.45189000E+03	 8.12725000E+02
		 0.00000000E+00	 0.00000000E+00	 0.00000000E+00
		 0.00000000E+00	 0.00000000E+00	 0.00000000E+00
		 0.00000000E+00	 0.00000000E+00	 0.00000000E+00
		 0.00000000E+00	 0.00000000E+00	 0.00000000E+00
		 0.00000000E+00	 0.00000000E+00	 0.00000000E+00
		 0.00000000E+00	 0.00000000E+00	 0.00000000E+00
		 0.00000000E+00	 0.00000000E+00	 0.00000000E+00
		 0.00000000E+00	 0.00000000E+00	 0.00000000E+00
		 0.00000000E+00	 0.00000000E+00	 0.00000000E+00
		 0.00000000E+00	 0.00000000E+00	 0.00000000E+00
		 0.00000000E+00	 0.00000000E+00	 0.00000000E+00
		 0.00000000E+00	 0.00000000E+00	 0.00000000E+00
		 6.05917000E-02	-6.45187000E+03	-8.12824000E+02
		 1.05968000E-09	-6.45189000E+03	-8.12876000E+02
		-6.05917000E-02	-6.45187000E+03	-8.12824000E+02
		-6.42914000E-02	-6.45171000E+03	-4.06200000E+02
		 0.00000000E+00	-6.45143000E+03	 0.00000000E+00
		 6.42915000E-02	-6.45171000E+03	 4.06200000E+02
		 6.05917000E-02	-6.45187000E+03	 8.12824000E+02
		 0.00000000E+00	-6.45189000E+03	 8.12876000E+02
		-6.05917000E-02	-6.45187000E+03	 8.12824000E+02
		-6.42914000E-02	-6.45171000E+03	 4.06200000E+02
		 0.00000000E+00	-6.45143000E+03	 0.00000000E+00
		 6.42915000E-02	-6.45171000E+03	-4.06200000E+02
		 4.02331000E+01	-6.41357000E+01	-1.17126000E+02
		 2.65504000E+01	-1.89142000E+02	-2.31277000E+02
		 2.93456000E+01	-3.97584000E+02	-3.34848000E+02
		 2.51216000E+01	-6.62607000E+02	-4.26548000E+02
		 2.27352000E+01	-9.89904000E+02	-5.06873000E+02
		 1.92140000E+01	-1.36452000E+03	-5.76800000E+02
		 1.63327000E+01	-1.78275000E+03	-6.36331000E+02
		 1.33536000E+01	-2.23607000E+03	-6.85854000E+02
		 1.06274000E+01	-2.71872000E+03	-7.25696000E+02
		 8.06728000E+00	-3.22387000E+03	-7.56777000E+02
		 5.80494000E+00	-3.74592000E+03	-7.79781000E+02
		 3.83057000E+00	-4.27961000E+03	-7.95753000E+02
		 2.20984000E+00	-4.82036000E+03	-8.05636000E+02
		 9.81459000E-01	-5.36442000E+03	-8.10829000E+02
		 2.48945000E-01	-5.90879000E+03	-8.12677000E+02
		-2.48945000E-01	-5.90879000E+03	-8.12677000E+02
		-9.81459000E-01	-5.36442000E+03	-8.10829000E+02
		-2.20984000E+00	-4.82036000E+03	-8.05636000E+02
		-3.83057000E+00	-4.27961000E+03	-7.95753000E+02
		-5.80494000E+00	-3.74592000E+03	-7.79781000E+02
		-8.06728000E+00	-3.22387000E+03	-7.56777000E+02
		-1.06274000E+01	-2.71872000E+03	-7.25696000E+02
		-1.33536000E+01	-2.23607000E+03	-6.85854000E+02
		-1.63327000E+01	-1.78275000E+03	-6.36331000E+02
		-1.92140000E+01	-1.36452000E+03	-5.76800000E+02
		-2.27352000E+01	-9.89904000E+02	-5.06873000E+02
		-2.51216000E+01	-6.62607000E+02	-4.26548000E+02
		-2.93456000E+01	-3.97584000E+02	-3.34848000E+02
		-2.65504000E+01	-1.89142000E+02	-2.31277000E+02
		-4.02331000E+01	-6.41357000E+01	-1.17126000E+02
		-4.02331000E+01	-6.41357000E+01	 1.17126000E+02
		-2.65504000E+01	-1.89142000E+02	 2.31277000E+02
		-2.93456000E+01	-3.97584000E+02	 3.34848000E+02
		-2.51216000E+01	-6.62607000E+02	 4.26548000E+02
		-2.27352000E+01	-9.89904000E+02	 5.06873000E+02
		-1.92140000E+01	-1.36452000E+03	 5.76800000E+02
		-1.63327000E+01	-1.78275000E+03	 6.36331000E+02
		-1.33536000E+01	-2.23607000E+03	 6.85854000E+02
		-1.06274000E+01	-2.71872000E+03	 7.25696000E+02
		-8.06728000E+00	-3.22387000E+03	 7.56777000E+02
		-5.80494000E+00	-3.74592000E+03	 7.79781000E+02
		-3.83057000E+00	-4.27961000E+03	 7.95753000E+02
		-2.20984000E+00	-4.82036000E+03	 8.05636000E+02
		-9.81459000E-01	-5.36442000E+03	 8.10829000E+02
		-2.48945000E-01	-5.90879000E+03	 8.12677000E+02
		 4.02331000E+01	-6.41357000E+01	 1.17126000E+02
		 2.65504000E+01	-1.89142000E+02	 2.31277000E+02
		 2.93456000E+01	-3.97584000E+02	 3.34848000E+02
		 2.51216000E+01	-6.62607000E+02	 4.26548000E+02
		 2.27352000E+01	-9.89904000E+02	 5.06873000E+02
		 1.92140000E+01	-1.36452000E+03	 5.76800000E+02
		 1.63327000E+01	-1.78275000E+03	 6.36331000E+02
		 1.33536000E+01	-2.23607000E+03	 6.85854000E+02
		 1.06274000E+01	-2.71872000E+03	 7.25696000E+02
		 8.06728000E+00	-3.22387000E+03	 7.56777000E+02
		 5.80494000E+00	-3.74592000E+03	 7.79781000E+02
		 3.83057000E+00	-4.27961000E+03	 7.95753000E+02
		 2.20984000E+00	-4.82036000E+03	 8.05636000E+02
		 9.81459000E-01	-5.36442000E+03	 8.10829000E+02
		 2.48945000E-01	-5.90879000E+03	 8.12677000E+02
		 0.00000000E+00	 0.00000000E+00	 0.00000000E+00
		 0.00000000E+00	 0.00000000E+00	 0.00000000E+00
		 0.00000000E+00	 0.00000000E+00	 0.00000000E+00
		 0.00000000E+00	 0.00000000E+00	 0.00000000E+00
		 0.00000000E+00	 0.00000000E+00	 0.00000000E+00
		 1.01980000E-09	-6.45173000E+03	-4.06292000E+02
		 0.00000000E+00	-6.45143000E+03	 0.00000000E+00
		 0.00000000E+00	-6.45147000E+03	 0.00000000E+00
		 0.00000000E+00	-6.45143000E+03	 0.00000000E+00
		 0.00000000E+00	-6.45173000E+03	 4.06292000E+02
		 0.00000000E+00	-7.56888000E+01	-1.13019000E+02
		-1.32533000E+01	-1.98216000E+02	-2.33616000E+02
		 0.00000000E+00	-2.00269000E+02	-2.35572000E+02
		 1.32533000E+01	-1.98216000E+02	-2.33616000E+02
		 0.00000000E+00	-4.06725000E+02	-3.35415000E+02
		-1.25240000E+01	-6.69151000E+02	-4.27686000E+02
		 0.00000000E+00	-6.71874000E+02	-4.28061000E+02
		 1.25240000E+01	-6.69151000E+02	-4.27686000E+02
		 0.00000000E+00	-9.97221000E+02	-5.07819000E+02
		-9.61050000E+00	-1.36956000E+03	-5.77723000E+02
		 0.00000000E+00	-1.37126000E+03	-5.77845000E+02
		 9.61050000E+00	-1.36956000E+03	-5.77723000E+02
		 0.00000000E+00	-1.78811000E+03	-6.37262000E+02
		-6.67317000E+00	-2.23943000E+03	-6.86656000E+02
		 0.00000000E+00	-2.24062000E+03	-6.86751000E+02
		 6.67317000E+00	-2.23943000E+03	-6.86656000E+02
		 0.00000000E+00	-2.72223000E+03	-7.26523000E+02
		-4.03296000E+00	-3.22589000E+03	-7.57454000E+02
		 0.00000000E+00	-3.22658000E+03	-7.57524000E+02
		 4.03296000E+00	-3.22589000E+03	-7.57454000E+02
		 0.00000000E+00	-3.74783000E+03	-7.80443000E+02
		-1.91329000E+00	-4.28055000E+03	-7.96259000E+02
		 0.00000000E+00	-4.28088000E+03	-7.96309000E+02
		 1.91329000E+00	-4.28055000E+03	-7.96259000E+02
		 0.00000000E+00	-4.82107000E+03	-8.06082000E+02
		-4.88763000E-01	-5.36464000E+03	-8.11107000E+02
		 0.00000000E+00	-5.36474000E+03	-8.11139000E+02
		 4.88763000E-01	-5.36464000E+03	-8.11107000E+02
		 0.00000000E+00	-5.90885000E+03	-8.12860000E+02
		 0.00000000E+00	-3.30486000E+01	 0.00000000E+00
		 1.33211000E+01	-1.73138000E+02	-1.11578000E+02
		 0.00000000E+00	-1.73316000E+02	 0.00000000E+00
		-1.33211000E+01	-1.73138000E+02	 1.11578000E+02
		 0.00000000E+00	-3.73399000E+02	 0.00000000E+00
		 1.25774000E+01	-6.49957000E+02	-2.09416000E+02
		 0.00000000E+00	-6.45919000E+02	 0.00000000E+00
		-1.25774000E+01	-6.49957000E+02	 2.09416000E+02
		 0.00000000E+00	-9.72355000E+02	 0.00000000E+00
		 9.61775000E+00	-1.35377000E+03	-2.84931000E+02
		 0.00000000E+00	-1.35056000E+03	 0.00000000E+00
		-9.61775000E+00	-1.35377000E+03	 2.84931000E+02
		 0.00000000E+00	-1.77026000E+03	 0.00000000E+00
		 6.68664000E+00	-2.22863000E+03	-3.39704000E+02
		 0.00000000E+00	-2.22611000E+03	 0.00000000E+00
		-6.68664000E+00	-2.22863000E+03	 3.39704000E+02
		 0.00000000E+00	-2.71054000E+03	 0.00000000E+00
		 4.05229000E+00	-3.21926000E+03	-3.75707000E+02
		 0.00000000E+00	-3.21765000E+03	 0.00000000E+00
		-4.05229000E+00	-3.21926000E+03	 3.75707000E+02
		 0.00000000E+00	-3.74132000E+03	 0.00000000E+00
		 1.93823000E+00	-4.27735000E+03	-3.95867000E+02
		 0.00000000E+00	-4.27647000E+03	 0.00000000E+00
		-1.93823000E+00	-4.27735000E+03	 3.95867000E+02
		 0.00000000E+00	-4.81838000E+03	 0.00000000E+00
		 5.23746000E-01	-5.36371000E+03	-4.04343000E+02
		 0.00000000E+00	-5.36331000E+03	 0.00000000E+00
		-5.23746000E-01	-5.36371000E+03	 4.04343000E+02
		 0.00000000E+00	-5.90835000E+03	 0.00000000E+00
		 0.00000000E+00	-7.56888000E+01	 1.13019000E+02
		-1.32533000E+01	-1.98216000E+02	 2.33616000E+02
		 0.00000000E+00	-2.00269000E+02	 2.35572000E+02
		 1.32533000E+01	-1.98216000E+02	 2.33616000E+02
		 0.00000000E+00	-4.06725000E+02	 3.35415000E+02
		-1.25240000E+01	-6.69151000E+02	 4.27686000E+02
		 0.00000000E+00	-6.71874000E+02	 4.28061000E+02
		 1.25240000E+01	-6.69151000E+02	 4.27686000E+02
		 0.00000000E+00	-9.97221000E+02	 5.07819000E+02
		-9.61050000E+00	-1.36956000E+03	 5.77723000E+02
		 0.00000000E+00	-1.37126000E+03	 5.77845000E+02
		 9.61050000E+00	-1.36956000E+03	 5.77723000E+02
		 0.00000000E+00	-1.78811000E+03	 6.37262000E+02
		-6.67317000E+00	-2.23943000E+03	 6.86656000E+02
		 0.00000000E+00	-2.24062000E+03	 6.86751000E+02
		 6.67317000E+00	-2.23943000E+03	 6.86656000E+02
		 0.00000000E+00	-2.72223000E+03	 7.26523000E+02
		-4.03296000E+00	-3.22589000E+03	 7.57454000E+02
		 0.00000000E+00	-3.22658000E+03	 7.57524000E+02
		 4.03296000E+00	-3.22589000E+03	 7.57454000E+02
		 0.00000000E+00	-3.74783000E+03	 7.80443000E+02
		-1.91329000E+00	-4.28055000E+03	 7.96259000E+02
		 0.00000000E+00	-4.28088000E+03	 7.96309000E+02
		 1.91329000E+00	-4.28055000E+03	 7.96259000E+02
		 0.00000000E+00	-4.82107000E+03	 8.06082000E+02
		-4.88763000E-01	-5.36464000E+03	 8.11107000E+02
		 0.00000000E+00	-5.36474000E+03	 8.11139000E+02
		 4.88763000E-01	-5.36464000E+03	 8.11107000E+02
		 0.00000000E+00	-5.90885000E+03	 8.12860000E+02
		 0.00000000E+00	-3.30486000E+01	 0.00000000E+00
		 1.33211000E+01	-1.73138000E+02	 1.11578000E+02
		 0.00000000E+00	-1.73316000E+02	 0.00000000E+00
		-1.33211000E+01	-1.73138000E+02	-1.11578000E+02
		 0.00000000E+00	-3.73399000E+02	 0.00000000E+00
		 1.25774000E+01	-6.49957000E+02	 2.09416000E+02
		 0.00000000E+00	-6.45919000E+02	 0.00000000E+00
		-1.25774000E+01	-6.49957000E+02	-2.09416000E+02
		 0.00000000E+00	-9.72355000E+02	 0.00000000E+00
		 9.61775000E+00	-1.35377000E+03	 2.84931000E+02
		 0.00000000E+00	-1.35056000E+03	 0.00000000E+00
		-9.61775000E+00	-1.35377000E+03	-2.84931000E+02
		 0.00000000E+00	-1.77026000E+03	 0.00000000E+00
		 6.68664000E+00	-2.22863000E+03	 3.39704000E+02
		 0.00000000E+00	-2.22611000E+03	 0.00000000E+00
		-6.68664000E+00	-2.22863000E+03	-3.39704000E+02
		 0.00000000E+00	-2.71054000E+03	 0.00000000E+00
		 4.05229000E+00	-3.21926000E+03	 3.75707000E+02
		 0.00000000E+00	-3.21765000E+03	 0.00000000E+00
		-4.05229000E+00	-3.21926000E+03	-3.75707000E+02
		 0.00000000E+00	-3.74132000E+03	 0.00000000E+00
		 1.93823000E+00	-4.27735000E+03	 3.95867000E+02
		 0.00000000E+00	-4.27647000E+03	 0.00000000E+00
		-1.93823000E+00	-4.27735000E+03	-3.95867000E+02
		 0.00000000E+00	-4.81838000E+03	 0.00000000E+00
		 5.23746000E-01	-5.36371000E+03	 4.04343000E+02
		 0.00000000E+00	-5.36331000E+03	 0.00000000E+00
		-5.23746000E-01	-5.36371000E+03	-4.04343000E+02
		 0.00000000E+00	-5.90835000E+03	 0.00000000E+00
		 0.00000000E+00	-4.43089000E+01	 0.00000000E+00
		 0.00000000E+00	-1.83281000E+02	-1.13732000E+02
		 0.00000000E+00	-1.81673000E+02	 0.00000000E+00
		 0.00000000E+00	-1.82947000E+02	 0.00000000E+00
		 0.00000000E+00	-1.81673000E+02	 0.00000000E+00
		 0.00000000E+00	-1.83281000E+02	 1.13732000E+02
		 0.00000000E+00	-3.83287000E+02	 0.00000000E+00
		 0.00000000E+00	-6.58697000E+02	-2.10495000E+02
		 0.00000000E+00	-6.51894000E+02	 0.00000000E+00
		 0.00000000E+00	-6.54026000E+02	 0.00000000E+00
		 0.00000000E+00	-6.51894000E+02	 0.00000000E+00
		 0.00000000E+00	-6.58697000E+02	 2.10495000E+02
		 0.00000000E+00	-9.80015000E+02	 0.00000000E+00
		 0.00000000E+00	-1.36027000E+03	-2.85769000E+02
		 0.00000000E+00	-1.35539000E+03	 0.00000000E+00
		 0.00000000E+00	-1.35686000E+03	 0.00000000E+00
		 0.00000000E+00	-1.35539000E+03	 0.00000000E+00
		 0.00000000E+00	-1.36027000E+03	 2.85769000E+02
		 0.00000000E+00	-1.77577000E+03	 0.00000000E+00
		 0.00000000E+00	-2.23311000E+03	-3.40430000E+02
		 0.00000000E+00	-2.22940000E+03	 0.00000000E+00
		 0.00000000E+00	-2.23051000E+03	 0.00000000E+00
		 0.00000000E+00	-2.22940000E+03	 0.00000000E+00
		 0.00000000E+00	-2.23311000E+03	 3.40430000E+02
		 0.00000000E+00	-2.71412000E+03	 0.00000000E+00
		 0.00000000E+00	-3.22197000E+03	-3.76318000E+02
		 0.00000000E+00	-3.21968000E+03	 0.00000000E+00
		 0.00000000E+00	-3.22035000E+03	 0.00000000E+00
		 0.00000000E+00	-3.21968000E+03	 0.00000000E+00
		 0.00000000E+00	-3.22197000E+03	 3.76318000E+02
		 0.00000000E+00	-3.74330000E+03	 0.00000000E+00
		 0.00000000E+00	-4.27865000E+03	-3.96323000E+02
		 0.00000000E+00	-4.27744000E+03	 0.00000000E+00
		 0.00000000E+00	-4.27778000E+03	 0.00000000E+00
		 0.00000000E+00	-4.27744000E+03	 0.00000000E+00
		 0.00000000E+00	-4.27865000E+03	 3.96323000E+02
		 0.00000000E+00	-4.81916000E+03	 0.00000000E+00
		 0.00000000E+00	-5.36408000E+03	-4.04594000E+02
		 0.00000000E+00	-5.36359000E+03	 0.00000000E+00
		 0.00000000E+00	-5.36370000E+03	 0.00000000E+00
		 0.00000000E+00	-5.36359000E+03	 0.00000000E+00
		 0.00000000E+00	-5.36408000E+03	 4.04594000E+02
		 0.00000000E+00	-5.90846000E+03	 0.00000000E+00
