    1C
    1UModel: beam     Date: 10-Mar-1998                                 
    1UUSER                                                              
    1UDATE              25.january.2020                                 
    1UTIME              14:46:32                                        
    1UHOST                                                              
    1UPGM               CalculiX                                        
    1UVERSION           Version 2.16                             
    1UCOMPILETIME       Tue  7 Jan 19:57:43 CET 2020                    
    1UDIR                                                               
    1UDBN                                                               
    1UMAT    1HY                                                        
    2C                           261                                     1
 -1         1 0.00000E+00 0.00000E+00 0.00000E+00
 -1         2 1.00000E+00 0.00000E+00 0.00000E+00
 -1         3 1.00000E+00 1.00000E+00 0.00000E+00
 -1         4 0.00000E+00 1.00000E+00 0.00000E+00
 -1         5 0.00000E+00 0.00000E+00 8.00000E+00
 -1         6 1.00000E+00 0.00000E+00 8.00000E+00
 -1         7 1.00000E+00 1.00000E+00 8.00000E+00
 -1         8 0.00000E+00 1.00000E+00 8.00000E+00
 -1         9 2.50000E-01 0.00000E+00 0.00000E+00
 -1        10 5.00000E-01 0.00000E+00 0.00000E+00
 -1        11 7.50000E-01 0.00000E+00 0.00000E+00
 -1        12 1.00000E+00 2.50000E-01 0.00000E+00
 -1        13 1.00000E+00 5.00000E-01 0.00000E+00
 -1        14 1.00000E+00 7.50000E-01 0.00000E+00
 -1        15 7.50000E-01 1.00000E+00 0.00000E+00
 -1        16 5.00000E-01 1.00000E+00 0.00000E+00
 -1        17 2.50000E-01 1.00000E+00 0.00000E+00
 -1        18 0.00000E+00 7.50000E-01 0.00000E+00
 -1        19 0.00000E+00 5.00000E-01 0.00000E+00
 -1        20 0.00000E+00 2.50000E-01 0.00000E+00
 -1        21 2.50000E-01 0.00000E+00 8.00000E+00
 -1        22 5.00000E-01 0.00000E+00 8.00000E+00
 -1        23 7.50000E-01 0.00000E+00 8.00000E+00
 -1        24 1.00000E+00 2.50000E-01 8.00000E+00
 -1        25 1.00000E+00 5.00000E-01 8.00000E+00
 -1        26 1.00000E+00 7.50000E-01 8.00000E+00
 -1        27 7.50000E-01 1.00000E+00 8.00000E+00
 -1        28 5.00000E-01 1.00000E+00 8.00000E+00
 -1        29 2.50000E-01 1.00000E+00 8.00000E+00
 -1        30 0.00000E+00 7.50000E-01 8.00000E+00
 -1        31 0.00000E+00 5.00000E-01 8.00000E+00
 -1        32 0.00000E+00 2.50000E-01 8.00000E+00
 -1        33 1.00000E+00 0.00000E+00 5.00000E-01
 -1        34 1.00000E+00 0.00000E+00 1.00000E+00
 -1        35 1.00000E+00 0.00000E+00 1.50000E+00
 -1        36 1.00000E+00 0.00000E+00 2.00000E+00
 -1        37 1.00000E+00 0.00000E+00 2.50000E+00
 -1        38 1.00000E+00 0.00000E+00 3.00000E+00
 -1        39 1.00000E+00 0.00000E+00 3.50000E+00
 -1        40 1.00000E+00 0.00000E+00 4.00000E+00
 -1        41 1.00000E+00 0.00000E+00 4.50000E+00
 -1        42 1.00000E+00 0.00000E+00 5.00000E+00
 -1        43 1.00000E+00 0.00000E+00 5.50000E+00
 -1        44 1.00000E+00 0.00000E+00 6.00000E+00
 -1        45 1.00000E+00 0.00000E+00 6.50000E+00
 -1        46 1.00000E+00 0.00000E+00 7.00000E+00
 -1        47 1.00000E+00 0.00000E+00 7.50000E+00
 -1        48 0.00000E+00 0.00000E+00 7.50000E+00
 -1        49 0.00000E+00 0.00000E+00 7.00000E+00
 -1        50 0.00000E+00 0.00000E+00 6.50000E+00
 -1        51 0.00000E+00 0.00000E+00 6.00000E+00
 -1        52 0.00000E+00 0.00000E+00 5.50000E+00
 -1        53 0.00000E+00 0.00000E+00 5.00000E+00
 -1        54 0.00000E+00 0.00000E+00 4.50000E+00
 -1        55 0.00000E+00 0.00000E+00 4.00000E+00
 -1        56 0.00000E+00 0.00000E+00 3.50000E+00
 -1        57 0.00000E+00 0.00000E+00 3.00000E+00
 -1        58 0.00000E+00 0.00000E+00 2.50000E+00
 -1        59 0.00000E+00 0.00000E+00 2.00000E+00
 -1        60 0.00000E+00 0.00000E+00 1.50000E+00
 -1        61 0.00000E+00 0.00000E+00 1.00000E+00
 -1        62 0.00000E+00 0.00000E+00 5.00000E-01
 -1        63 1.00000E+00 1.00000E+00 5.00000E-01
 -1        64 1.00000E+00 1.00000E+00 1.00000E+00
 -1        65 1.00000E+00 1.00000E+00 1.50000E+00
 -1        66 1.00000E+00 1.00000E+00 2.00000E+00
 -1        67 1.00000E+00 1.00000E+00 2.50000E+00
 -1        68 1.00000E+00 1.00000E+00 3.00000E+00
 -1        69 1.00000E+00 1.00000E+00 3.50000E+00
 -1        70 1.00000E+00 1.00000E+00 4.00000E+00
 -1        71 1.00000E+00 1.00000E+00 4.50000E+00
 -1        72 1.00000E+00 1.00000E+00 5.00000E+00
 -1        73 1.00000E+00 1.00000E+00 5.50000E+00
 -1        74 1.00000E+00 1.00000E+00 6.00000E+00
 -1        75 1.00000E+00 1.00000E+00 6.50000E+00
 -1        76 1.00000E+00 1.00000E+00 7.00000E+00
 -1        77 1.00000E+00 1.00000E+00 7.50000E+00
 -1        78 0.00000E+00 1.00000E+00 5.00000E-01
 -1        79 0.00000E+00 1.00000E+00 1.00000E+00
 -1        80 0.00000E+00 1.00000E+00 1.50000E+00
 -1        81 0.00000E+00 1.00000E+00 2.00000E+00
 -1        82 0.00000E+00 1.00000E+00 2.50000E+00
 -1        83 0.00000E+00 1.00000E+00 3.00000E+00
 -1        84 0.00000E+00 1.00000E+00 3.50000E+00
 -1        85 0.00000E+00 1.00000E+00 4.00000E+00
 -1        86 0.00000E+00 1.00000E+00 4.50000E+00
 -1        87 0.00000E+00 1.00000E+00 5.00000E+00
 -1        88 0.00000E+00 1.00000E+00 5.50000E+00
 -1        89 0.00000E+00 1.00000E+00 6.00000E+00
 -1        90 0.00000E+00 1.00000E+00 6.50000E+00
 -1        91 0.00000E+00 1.00000E+00 7.00000E+00
 -1        92 0.00000E+00 1.00000E+00 7.50000E+00
 -1        93 5.00000E-01 2.50000E-01 0.00000E+00
 -1        94 2.50000E-01 5.00000E-01 0.00000E+00
 -1        95 5.00000E-01 5.00000E-01 0.00000E+00
 -1        96 7.50000E-01 5.00000E-01 0.00000E+00
 -1        97 5.00000E-01 7.50000E-01 0.00000E+00
 -1        98 5.00000E-01 2.50000E-01 8.00000E+00
 -1        99 2.50000E-01 5.00000E-01 8.00000E+00
 -1       100 5.00000E-01 5.00000E-01 8.00000E+00
 -1       101 7.50000E-01 5.00000E-01 8.00000E+00
 -1       102 5.00000E-01 7.50000E-01 8.00000E+00
 -1       103 5.00000E-01 0.00000E+00 5.00000E-01
 -1       104 2.50000E-01 0.00000E+00 1.00000E+00
 -1       105 5.00000E-01 0.00000E+00 1.00000E+00
 -1       106 7.50000E-01 0.00000E+00 1.00000E+00
 -1       107 5.00000E-01 0.00000E+00 1.50000E+00
 -1       108 2.50000E-01 0.00000E+00 2.00000E+00
 -1       109 5.00000E-01 0.00000E+00 2.00000E+00
 -1       110 7.50000E-01 0.00000E+00 2.00000E+00
 -1       111 5.00000E-01 0.00000E+00 2.50000E+00
 -1       112 2.50000E-01 0.00000E+00 3.00000E+00
 -1       113 5.00000E-01 0.00000E+00 3.00000E+00
 -1       114 7.50000E-01 0.00000E+00 3.00000E+00
 -1       115 5.00000E-01 0.00000E+00 3.50000E+00
 -1       116 2.50000E-01 0.00000E+00 4.00000E+00
 -1       117 5.00000E-01 0.00000E+00 4.00000E+00
 -1       118 7.50000E-01 0.00000E+00 4.00000E+00
 -1       119 5.00000E-01 0.00000E+00 4.50000E+00
 -1       120 2.50000E-01 0.00000E+00 5.00000E+00
 -1       121 5.00000E-01 0.00000E+00 5.00000E+00
 -1       122 7.50000E-01 0.00000E+00 5.00000E+00
 -1       123 5.00000E-01 0.00000E+00 5.50000E+00
 -1       124 2.50000E-01 0.00000E+00 6.00000E+00
 -1       125 5.00000E-01 0.00000E+00 6.00000E+00
 -1       126 7.50000E-01 0.00000E+00 6.00000E+00
 -1       127 5.00000E-01 0.00000E+00 6.50000E+00
 -1       128 2.50000E-01 0.00000E+00 7.00000E+00
 -1       129 5.00000E-01 0.00000E+00 7.00000E+00
 -1       130 7.50000E-01 0.00000E+00 7.00000E+00
 -1       131 5.00000E-01 0.00000E+00 7.50000E+00
 -1       132 1.00000E+00 5.00000E-01 5.00000E-01
 -1       133 1.00000E+00 2.50000E-01 1.00000E+00
 -1       134 1.00000E+00 5.00000E-01 1.00000E+00
 -1       135 1.00000E+00 7.50000E-01 1.00000E+00
 -1       136 1.00000E+00 5.00000E-01 1.50000E+00
 -1       137 1.00000E+00 2.50000E-01 2.00000E+00
 -1       138 1.00000E+00 5.00000E-01 2.00000E+00
 -1       139 1.00000E+00 7.50000E-01 2.00000E+00
 -1       140 1.00000E+00 5.00000E-01 2.50000E+00
 -1       141 1.00000E+00 2.50000E-01 3.00000E+00
 -1       142 1.00000E+00 5.00000E-01 3.00000E+00
 -1       143 1.00000E+00 7.50000E-01 3.00000E+00
 -1       144 1.00000E+00 5.00000E-01 3.50000E+00
 -1       145 1.00000E+00 2.50000E-01 4.00000E+00
 -1       146 1.00000E+00 5.00000E-01 4.00000E+00
 -1       147 1.00000E+00 7.50000E-01 4.00000E+00
 -1       148 1.00000E+00 5.00000E-01 4.50000E+00
 -1       149 1.00000E+00 2.50000E-01 5.00000E+00
 -1       150 1.00000E+00 5.00000E-01 5.00000E+00
 -1       151 1.00000E+00 7.50000E-01 5.00000E+00
 -1       152 1.00000E+00 5.00000E-01 5.50000E+00
 -1       153 1.00000E+00 2.50000E-01 6.00000E+00
 -1       154 1.00000E+00 5.00000E-01 6.00000E+00
 -1       155 1.00000E+00 7.50000E-01 6.00000E+00
 -1       156 1.00000E+00 5.00000E-01 6.50000E+00
 -1       157 1.00000E+00 2.50000E-01 7.00000E+00
 -1       158 1.00000E+00 5.00000E-01 7.00000E+00
 -1       159 1.00000E+00 7.50000E-01 7.00000E+00
 -1       160 1.00000E+00 5.00000E-01 7.50000E+00
 -1       161 5.00000E-01 1.00000E+00 5.00000E-01
 -1       162 7.50000E-01 1.00000E+00 1.00000E+00
 -1       163 5.00000E-01 1.00000E+00 1.00000E+00
 -1       164 2.50000E-01 1.00000E+00 1.00000E+00
 -1       165 5.00000E-01 1.00000E+00 1.50000E+00
 -1       166 7.50000E-01 1.00000E+00 2.00000E+00
 -1       167 5.00000E-01 1.00000E+00 2.00000E+00
 -1       168 2.50000E-01 1.00000E+00 2.00000E+00
 -1       169 5.00000E-01 1.00000E+00 2.50000E+00
 -1       170 7.50000E-01 1.00000E+00 3.00000E+00
 -1       171 5.00000E-01 1.00000E+00 3.00000E+00
 -1       172 2.50000E-01 1.00000E+00 3.00000E+00
 -1       173 5.00000E-01 1.00000E+00 3.50000E+00
 -1       174 7.50000E-01 1.00000E+00 4.00000E+00
 -1       175 5.00000E-01 1.00000E+00 4.00000E+00
 -1       176 2.50000E-01 1.00000E+00 4.00000E+00
 -1       177 5.00000E-01 1.00000E+00 4.50000E+00
 -1       178 7.50000E-01 1.00000E+00 5.00000E+00
 -1       179 5.00000E-01 1.00000E+00 5.00000E+00
 -1       180 2.50000E-01 1.00000E+00 5.00000E+00
 -1       181 5.00000E-01 1.00000E+00 5.50000E+00
 -1       182 7.50000E-01 1.00000E+00 6.00000E+00
 -1       183 5.00000E-01 1.00000E+00 6.00000E+00
 -1       184 2.50000E-01 1.00000E+00 6.00000E+00
 -1       185 5.00000E-01 1.00000E+00 6.50000E+00
 -1       186 7.50000E-01 1.00000E+00 7.00000E+00
 -1       187 5.00000E-01 1.00000E+00 7.00000E+00
 -1       188 2.50000E-01 1.00000E+00 7.00000E+00
 -1       189 5.00000E-01 1.00000E+00 7.50000E+00
 -1       190 0.00000E+00 5.00000E-01 5.00000E-01
 -1       191 0.00000E+00 7.50000E-01 1.00000E+00
 -1       192 0.00000E+00 5.00000E-01 1.00000E+00
 -1       193 0.00000E+00 2.50000E-01 1.00000E+00
 -1       194 0.00000E+00 5.00000E-01 1.50000E+00
 -1       195 0.00000E+00 7.50000E-01 2.00000E+00
 -1       196 0.00000E+00 5.00000E-01 2.00000E+00
 -1       197 0.00000E+00 2.50000E-01 2.00000E+00
 -1       198 0.00000E+00 5.00000E-01 2.50000E+00
 -1       199 0.00000E+00 7.50000E-01 3.00000E+00
 -1       200 0.00000E+00 5.00000E-01 3.00000E+00
 -1       201 0.00000E+00 2.50000E-01 3.00000E+00
 -1       202 0.00000E+00 5.00000E-01 3.50000E+00
 -1       203 0.00000E+00 7.50000E-01 4.00000E+00
 -1       204 0.00000E+00 5.00000E-01 4.00000E+00
 -1       205 0.00000E+00 2.50000E-01 4.00000E+00
 -1       206 0.00000E+00 5.00000E-01 4.50000E+00
 -1       207 0.00000E+00 7.50000E-01 5.00000E+00
 -1       208 0.00000E+00 5.00000E-01 5.00000E+00
 -1       209 0.00000E+00 2.50000E-01 5.00000E+00
 -1       210 0.00000E+00 5.00000E-01 5.50000E+00
 -1       211 0.00000E+00 7.50000E-01 6.00000E+00
 -1       212 0.00000E+00 5.00000E-01 6.00000E+00
 -1       213 0.00000E+00 2.50000E-01 6.00000E+00
 -1       214 0.00000E+00 5.00000E-01 6.50000E+00
 -1       215 0.00000E+00 7.50000E-01 7.00000E+00
 -1       216 0.00000E+00 5.00000E-01 7.00000E+00
 -1       217 0.00000E+00 2.50000E-01 7.00000E+00
 -1       218 0.00000E+00 5.00000E-01 7.50000E+00
 -1       219 5.00000E-01 5.00000E-01 5.00000E-01
 -1       220 5.00000E-01 2.50000E-01 1.00000E+00
 -1       221 2.50000E-01 5.00000E-01 1.00000E+00
 -1       222 5.00000E-01 5.00000E-01 1.00000E+00
 -1       223 7.50000E-01 5.00000E-01 1.00000E+00
 -1       224 5.00000E-01 7.50000E-01 1.00000E+00
 -1       225 5.00000E-01 5.00000E-01 1.50000E+00
 -1       226 5.00000E-01 2.50000E-01 2.00000E+00
 -1       227 2.50000E-01 5.00000E-01 2.00000E+00
 -1       228 5.00000E-01 5.00000E-01 2.00000E+00
 -1       229 7.50000E-01 5.00000E-01 2.00000E+00
 -1       230 5.00000E-01 7.50000E-01 2.00000E+00
 -1       231 5.00000E-01 5.00000E-01 2.50000E+00
 -1       232 5.00000E-01 2.50000E-01 3.00000E+00
 -1       233 2.50000E-01 5.00000E-01 3.00000E+00
 -1       234 5.00000E-01 5.00000E-01 3.00000E+00
 -1       235 7.50000E-01 5.00000E-01 3.00000E+00
 -1       236 5.00000E-01 7.50000E-01 3.00000E+00
 -1       237 5.00000E-01 5.00000E-01 3.50000E+00
 -1       238 5.00000E-01 2.50000E-01 4.00000E+00
 -1       239 2.50000E-01 5.00000E-01 4.00000E+00
 -1       240 5.00000E-01 5.00000E-01 4.00000E+00
 -1       241 7.50000E-01 5.00000E-01 4.00000E+00
 -1       242 5.00000E-01 7.50000E-01 4.00000E+00
 -1       243 5.00000E-01 5.00000E-01 4.50000E+00
 -1       244 5.00000E-01 2.50000E-01 5.00000E+00
 -1       245 2.50000E-01 5.00000E-01 5.00000E+00
 -1       246 5.00000E-01 5.00000E-01 5.00000E+00
 -1       247 7.50000E-01 5.00000E-01 5.00000E+00
 -1       248 5.00000E-01 7.50000E-01 5.00000E+00
 -1       249 5.00000E-01 5.00000E-01 5.50000E+00
 -1       250 5.00000E-01 2.50000E-01 6.00000E+00
 -1       251 2.50000E-01 5.00000E-01 6.00000E+00
 -1       252 5.00000E-01 5.00000E-01 6.00000E+00
 -1       253 7.50000E-01 5.00000E-01 6.00000E+00
 -1       254 5.00000E-01 7.50000E-01 6.00000E+00
 -1       255 5.00000E-01 5.00000E-01 6.50000E+00
 -1       256 5.00000E-01 2.50000E-01 7.00000E+00
 -1       257 2.50000E-01 5.00000E-01 7.00000E+00
 -1       258 5.00000E-01 5.00000E-01 7.00000E+00
 -1       259 7.50000E-01 5.00000E-01 7.00000E+00
 -1       260 5.00000E-01 7.50000E-01 7.00000E+00
 -1       261 5.00000E-01 5.00000E-01 7.50000E+00
 -3
    3C                            32                                     1
 -1         1    4    0    1
 -2         1        10        95        19        61       105       222       192         9        93
 -2        94        20        62       103       219       190       104       220       221       193
 -1         2    4    0    1
 -2        10         2        13        95       105        34       134       222        11        12
 -2        96        93       103        33       132       219       106       133       223       220
 -1         3    4    0    1
 -2        19        95        16         4       192       222       163        79        94        97
 -2        17        18       190       219       161        78       221       224       164       191
 -1         4    4    0    1
 -2        95        13         3        16       222       134        64       163        96        14
 -2        15        97       219       132        63       161       223       135       162       224
 -1         5    4    0    1
 -2        61       105       222       192        59       109       228       196       104       220
 -2       221       193        60       107       225       194       108       226       227       197
 -1         6    4    0    1
 -2       105        34       134       222       109        36       138       228       106       133
 -2       223       220       107        35       136       225       110       137       229       226
 -1         7    4    0    1
 -2       192       222       163        79       196       228       167        81       221       224
 -2       164       191       194       225       165        80       227       230       168       195
 -1         8    4    0    1
 -2       222       134        64       163       228       138        66       167       223       135
 -2       162       224       225       136        65       165       229       139       166       230
 -1         9    4    0    1
 -2        59       109       228       196        57       113       234       200       108       226
 -2       227       197        58       111       231       198       112       232       233       201
 -1        10    4    0    1
 -2       109        36       138       228       113        38       142       234       110       137
 -2       229       226       111        37       140       231       114       141       235       232
 -1        11    4    0    1
 -2       196       228       167        81       200       234       171        83       227       230
 -2       168       195       198       231       169        82       233       236       172       199
 -1        12    4    0    1
 -2       228       138        66       167       234       142        68       171       229       139
 -2       166       230       231       140        67       169       235       143       170       236
 -1        13    4    0    1
 -2        57       113       234       200        55       117       240       204       112       232
 -2       233       201        56       115       237       202       116       238       239       205
 -1        14    4    0    1
 -2       113        38       142       234       117        40       146       240       114       141
 -2       235       232       115        39       144       237       118       145       241       238
 -1        15    4    0    1
 -2       200       234       171        83       204       240       175        85       233       236
 -2       172       199       202       237       173        84       239       242       176       203
 -1        16    4    0    1
 -2       234       142        68       171       240       146        70       175       235       143
 -2       170       236       237       144        69       173       241       147       174       242
 -1        17    4    0    1
 -2        55       117       240       204        53       121       246       208       116       238
 -2       239       205        54       119       243       206       120       244       245       209
 -1        18    4    0    1
 -2       117        40       146       240       121        42       150       246       118       145
 -2       241       238       119        41       148       243       122       149       247       244
 -1        19    4    0    1
 -2       204       240       175        85       208       246       179        87       239       242
 -2       176       203       206       243       177        86       245       248       180       207
 -1        20    4    0    1
 -2       240       146        70       175       246       150        72       179       241       147
 -2       174       242       243       148        71       177       247       151       178       248
 -1        21    4    0    1
 -2        53       121       246       208        51       125       252       212       120       244
 -2       245       209        52       123       249       210       124       250       251       213
 -1        22    4    0    1
 -2       121        42       150       246       125        44       154       252       122       149
 -2       247       244       123        43       152       249       126       153       253       250
 -1        23    4    0    1
 -2       208       246       179        87       212       252       183        89       245       248
 -2       180       207       210       249       181        88       251       254       184       211
 -1        24    4    0    1
 -2       246       150        72       179       252       154        74       183       247       151
 -2       178       248       249       152        73       181       253       155       182       254
 -1        25    4    0    1
 -2        51       125       252       212        49       129       258       216       124       250
 -2       251       213        50       127       255       214       128       256       257       217
 -1        26    4    0    1
 -2       125        44       154       252       129        46       158       258       126       153
 -2       253       250       127        45       156       255       130       157       259       256
 -1        27    4    0    1
 -2       212       252       183        89       216       258       187        91       251       254
 -2       184       211       214       255       185        90       257       260       188       215
 -1        28    4    0    1
 -2       252       154        74       183       258       158        76       187       253       155
 -2       182       254       255       156        75       185       259       159       186       260
 -1        29    4    0    1
 -2        49       129       258       216         5        22       100        31       128       256
 -2       257       217        48       131       261       218        21        98        99        32
 -1        30    4    0    1
 -2       129        46       158       258        22         6        25       100       130       157
 -2       259       256       131        47       160       261        23        24       101        98
 -1        31    4    0    1
 -2       216       258       187        91        31       100        28         8       257       260
 -2       188       215       218       261       189        92        99       102        29        30
 -1        32    4    0    1
 -2       258       158        76       187       100        25         7        28       259       159
 -2       186       260       261       160        77       189       101        26        27       102
 -3
    1PSTEP                         1           9           1          
  100CL  101 9.00000E-01         261                     0    1           1
 -4  DISP        4    1
 -5  D1          1    2    1    0
 -5  D2          1    2    2    0
 -5  D3          1    2    3    0
 -5  ALL         1    2    0    0    1ALL
 -1         1 0.00000E+00 0.00000E+00 0.00000E+00
 -1         2-1.21705E-04 0.00000E+00 0.00000E+00
 -1         3 7.67079E-03-2.32077E-04 0.00000E+00
 -1         4 8.60474E-03-3.25597E-03 0.00000E+00
 -1         5 2.14511E-01 1.88694E-01 1.62763E-01
 -1         6 2.08787E-01 1.86035E-01 1.28300E-01
 -1         7 1.99590E-01 1.79894E-01 1.27671E-01
 -1         8 2.14201E-01 1.83138E-01 1.30610E-01
 -1         9 1.85074E-03 5.12792E-03 0.00000E+00
 -1        10 4.57879E-03 6.79151E-03 0.00000E+00
 -1        11 2.09775E-03 4.21315E-03 0.00000E+00
 -1        12 3.11378E-03-7.24987E-04 0.00000E+00
 -1        13 5.27988E-03-9.28693E-04 0.00000E+00
 -1        14 6.94550E-03-8.53932E-04 0.00000E+00
 -1        15 7.10356E-03 7.26286E-05 0.00000E+00
 -1        16 7.19982E-03-4.26530E-04 0.00000E+00
 -1        17 7.59835E-03-1.40940E-03 0.00000E+00
 -1        18 1.15083E-02-7.61549E-04 0.00000E+00
 -1        19 1.26391E-02 1.97425E-03 0.00000E+00
 -1        20 8.80738E-03 3.15564E-04 0.00000E+00
 -1        21 2.13719E-01 1.89407E-01 1.54737E-01
 -1        22 2.12509E-01 1.88959E-01 1.46791E-01
 -1        23 2.10690E-01 1.87813E-01 1.36919E-01
 -1        24 2.10338E-01 1.84768E-01 1.18804E-01
 -1        25 2.09112E-01 1.83528E-01 1.08640E-01
 -1        26 2.16157E-01 1.81265E-01 1.07309E-01
 -1        27 2.07790E-01 1.90575E-01 1.07820E-01
 -1        28 2.11904E-01 1.82354E-01 1.08929E-01
 -1        29 2.12860E-01 1.84476E-01 1.20078E-01
 -1        30 2.15590E-01 1.84962E-01 1.38569E-01
 -1        31 2.16028E-01 1.86847E-01 1.47935E-01
 -1        32 2.15833E-01 1.88017E-01 1.55309E-01
 -1        33 2.85260E-03 4.11730E-03 7.40719E-03
 -1        34 1.18139E-02 1.24425E-02 1.54695E-02
 -1        35 2.50279E-02 2.40909E-02 2.41010E-02
 -1        36 3.80469E-02 3.58778E-02 3.25204E-02
 -1        37 5.26848E-02 4.86287E-02 4.14432E-02
 -1        38 6.65352E-02 6.13973E-02 5.00662E-02
 -1        39 8.08783E-02 7.37631E-02 5.87364E-02
 -1        40 9.49583E-02 8.65437E-02 6.75862E-02
 -1        41 1.08655E-01 9.85018E-02 7.63630E-02
 -1        42 1.22496E-01 1.11233E-01 8.55143E-02
 -1        43 1.34812E-01 1.20905E-01 9.32191E-02
 -1        44 1.47773E-01 1.31299E-01 1.01007E-01
 -1        45 1.60521E-01 1.41878E-01 1.08135E-01
 -1        46 1.76201E-01 1.54998E-01 1.14262E-01
 -1        47 1.90881E-01 1.69404E-01 1.21437E-01
 -1        48 1.97536E-01 1.73099E-01 1.54884E-01
 -1        49 1.81146E-01 1.58387E-01 1.45179E-01
 -1        50 1.66274E-01 1.45258E-01 1.35062E-01
 -1        51 1.52856E-01 1.33331E-01 1.26088E-01
 -1        52 1.40703E-01 1.22600E-01 1.17789E-01
 -1        53 1.28281E-01 1.11655E-01 1.10267E-01
 -1        54 1.15277E-01 1.00129E-01 1.02611E-01
 -1        55 1.01442E-01 8.77999E-02 9.44899E-02
 -1        56 8.79063E-02 7.57602E-02 8.57337E-02
 -1        57 7.36101E-02 6.30266E-02 7.74263E-02
 -1        58 6.02365E-02 5.12093E-02 6.81198E-02
 -1        59 4.53517E-02 3.79733E-02 5.94580E-02
 -1        60 3.45495E-02 2.84812E-02 4.75146E-02
 -1        61 2.02782E-02 1.57964E-02 3.62462E-02
 -1        62 1.64279E-02 1.35242E-02 1.71083E-02
 -1        63 1.02023E-02 1.88160E-03-2.40053E-03
 -1        64 1.72629E-02 7.98584E-03-1.97284E-03
 -1        65 2.79614E-02 1.76562E-02 2.33337E-03
 -1        66 4.08321E-02 2.94023E-02 9.00806E-03
 -1        67 5.42223E-02 4.15736E-02 1.72387E-02
 -1        68 6.83285E-02 5.44086E-02 2.54714E-02
 -1        69 8.18370E-02 6.65797E-02 3.44102E-02
 -1        70 9.65955E-02 7.99380E-02 4.29208E-02
 -1        71 1.09219E-01 9.12202E-02 5.38437E-02
 -1        72 1.24753E-01 1.05435E-01 6.26771E-02
 -1        73 1.34272E-01 1.13270E-01 7.14190E-02
 -1        74 1.56568E-01 1.33426E-01 7.05804E-02
 -1        75 1.61980E-01 1.37018E-01 7.97021E-02
 -1        76 1.92473E-01 1.64943E-01 8.89635E-02
 -1        77 1.86109E-01 1.61401E-01 1.04100E-01
 -1        78 1.30312E-02-6.26618E-04 8.71382E-03
 -1        79 2.18828E-02 7.23909E-03 1.75322E-02
 -1        80 3.45291E-02 1.89801E-02 2.64504E-02
 -1        81 4.74260E-02 3.06431E-02 3.50847E-02
 -1        82 6.13819E-02 4.36702E-02 4.40667E-02
 -1        83 7.54198E-02 5.60233E-02 5.27664E-02
 -1        84 8.90997E-02 6.88016E-02 6.14627E-02
 -1        85 1.03257E-01 8.13730E-02 7.03520E-02
 -1        86 1.16587E-01 9.35578E-02 7.91298E-02
 -1        87 1.30800E-01 1.05928E-01 8.83051E-02
 -1        88 1.41865E-01 1.16801E-01 9.59868E-02
 -1        89 1.53672E-01 1.28198E-01 1.03857E-01
 -1        90 1.65969E-01 1.39463E-01 1.11262E-01
 -1        91 1.80883E-01 1.53658E-01 1.17455E-01
 -1        92 1.96160E-01 1.66713E-01 1.24072E-01
 -1        93 5.70939E-03 3.50892E-03 0.00000E+00
 -1        94 9.14375E-03 1.68765E-03 0.00000E+00
 -1        95 6.95405E-03 1.42866E-03 0.00000E+00
 -1        96 5.70830E-03 4.98052E-04 0.00000E+00
 -1        97 7.34467E-03 1.45725E-04 0.00000E+00
 -1        98 2.12640E-01 1.87715E-01 1.36589E-01
 -1        99 2.14880E-01 1.86262E-01 1.37111E-01
 -1       100 2.14844E-01 1.87781E-01 1.26122E-01
 -1       101 2.11398E-01 1.86092E-01 1.18920E-01
 -1       102 2.13645E-01 1.84565E-01 1.19256E-01
 -1       103 7.19481E-03 8.30769E-03 1.22107E-02
 -1       104 1.87613E-02 1.63207E-02 3.08742E-02
 -1       105 1.75630E-02 1.72264E-02 2.54625E-02
 -1       106 1.43949E-02 1.49168E-02 2.06444E-02
 -1       107 2.83991E-02 2.59820E-02 3.62197E-02
 -1       108 4.40563E-02 3.80420E-02 5.26424E-02
 -1       109 4.28515E-02 3.78966E-02 4.58599E-02
 -1       110 4.04744E-02 3.69365E-02 3.92690E-02
 -1       111 5.61084E-02 4.97529E-02 5.48541E-02
 -1       112 7.20635E-02 6.27104E-02 7.05120E-02
 -1       113 7.04914E-02 6.24460E-02 6.36043E-02
 -1       114 6.84911E-02 6.19110E-02 5.68572E-02
 -1       115 8.42823E-02 7.47367E-02 7.23890E-02
 -1       116 9.98836E-02 8.74684E-02 8.77427E-02
 -1       117 9.83345E-02 8.71214E-02 8.09639E-02
 -1       118 9.66808E-02 8.68247E-02 7.43070E-02
 -1       119 1.12090E-01 9.92122E-02 8.95371E-02
 -1       120 1.26964E-01 1.11312E-01 1.04040E-01
 -1       121 1.25511E-01 1.11107E-01 9.78131E-02
 -1       122 1.24002E-01 1.11110E-01 9.16164E-02
 -1       123 1.37880E-01 1.21935E-01 1.05767E-01
 -1       124 1.51417E-01 1.32835E-01 1.19814E-01
 -1       125 1.50101E-01 1.32222E-01 1.13504E-01
 -1       126 1.48936E-01 1.31880E-01 1.07613E-01
 -1       127 1.62899E-01 1.43769E-01 1.21801E-01
 -1       128 1.78949E-01 1.57648E-01 1.37561E-01
 -1       129 1.77165E-01 1.57095E-01 1.29872E-01
 -1       130 1.76604E-01 1.56130E-01 1.21935E-01
 -1       131 1.94507E-01 1.71706E-01 1.37841E-01
 -1       132 7.85866E-03 1.79219E-03 2.10543E-03
 -1       133 1.37605E-02 1.08398E-02 1.08323E-02
 -1       134 1.53862E-02 9.61870E-03 6.61097E-03
 -1       135 1.65113E-02 8.57569E-03 2.17389E-03
 -1       136 2.66673E-02 2.04393E-02 1.31611E-02
 -1       137 3.89616E-02 3.41950E-02 2.67217E-02
 -1       138 3.98258E-02 3.25569E-02 2.09431E-02
 -1       139 4.03499E-02 3.09863E-02 1.50248E-02
 -1       140 5.34512E-02 4.50930E-02 2.91892E-02
 -1       141 6.69538E-02 5.95178E-02 4.39707E-02
 -1       142 6.73657E-02 5.76167E-02 3.79335E-02
 -1       143 6.78434E-02 5.59769E-02 3.16545E-02
 -1       144 8.14409E-02 7.04543E-02 4.66818E-02
 -1       145 9.50690E-02 8.45313E-02 6.15412E-02
 -1       146 9.52167E-02 8.25404E-02 5.54814E-02
 -1       147 9.59298E-02 8.13199E-02 4.94253E-02
 -1       148 1.09235E-01 9.53434E-02 6.45415E-02
 -1       149 1.22038E-01 1.08947E-01 7.97004E-02
 -1       150 1.21707E-01 1.06485E-01 7.40491E-02
 -1       151 1.23068E-01 1.05874E-01 6.75066E-02
 -1       152 1.35613E-01 1.18914E-01 8.36335E-02
 -1       153 1.47963E-01 1.29371E-01 9.61633E-02
 -1       154 1.47665E-01 1.27646E-01 9.08496E-02
 -1       155 1.52313E-01 1.30529E-01 8.36616E-02
 -1       156 1.62965E-01 1.41182E-01 9.65244E-02
 -1       157 1.75709E-01 1.53815E-01 1.07290E-01
 -1       158 1.76496E-01 1.52825E-01 1.00536E-01
 -1       159 1.78752E-01 1.60014E-01 9.46298E-02
 -1       160 1.94120E-01 1.67341E-01 1.04358E-01
 -1       161 1.02751E-02 1.78921E-03 2.82585E-03