<?xml version="1.0"?>
<VTKFile type="UnstructuredGrid" version="0.1" byte_order="LittleEndian">
	<UnstructuredGrid>
		<Piece NumberOfPoints="261" NumberOfCells="32">
			<Points>
				<DataArray type="Float64" NumberOfComponents="3" format="ascii">
					 0.00000000E+00	 0.00000000E+00	 0.00000000E+00
					 1.00000000E+00	 0.00000000E+00	 0.00000000E+00
					 1.00000000E+00	 1.00000000E+00	 0.00000000E+00
					 0.00000000E+00	 1.00000000E+00	 0.00000000E+00
					 0.00000000E+00	 0.00000000E+00	 8.00000000E+00
					 1.00000000E+00	 0.00000000E+00	 8.00000000E+00
					 1.00000000E+00	 1.00000000E+00	 8.00000000E+00
					 0.00000000E+00	 1.00000000E+00	 8.00000000E+00
					 2.50000000E-01	 0.00000000E+00	 0.00000000E+00
					 5.00000000E-01	 0.00000000E+00	 0.00000000E+00
					 7.50000000E-01	 0.00000000E+00	 0.00000000E+00
					 1.00000000E+00	 2.50000000E-01	 0.00000000E+00
					 1.00000000E+00	 5.00000000E-01	 0.00000000E+00
					 1.00000000E+00	 7.50000000E-01	 0.00000000E+00
					 7.50000000E-01	 1.00000000E+00	 0.00000000E+00
					 5.00000000E-01	 1.00000000E+00	 0.00000000E+00
					 2.50000000E-01	 1.00000000E+00	 0.00000000E+00
					 0.00000000E+00	 7.50000000E-01	 0.00000000E+00
					 0.00000000E+00	 5.00000000E-01	 0.00000000E+00
					 0.00000000E+00	 2.50000000E-01	 0.00000000E+00
					 2.50000000E-01	 0.00000000E+00	 8.00000000E+00
					 5.00000000E-01	 0.00000000E+00	 8.00000000E+00
					 7.50000000E-01	 0.00000000E+00	 8.00000000E+00
					 1.00000000E+00	 2.50000000E-01	 8.00000000E+00
					 1.00000000E+00	 5.00000000E-01	 8.00000000E+00
					 1.00000000E+00	 7.50000000E-01	 8.00000000E+00
					 7.50000000E-01	 1.00000000E+00	 8.00000000E+00
					 5.00000000E-01	 1.00000000E+00	 8.00000000E+00
					 2.50000000E-01	 1.00000000E+00	 8.00000000E+00
					 0.00000000E+00	 7.50000000E-01	 8.00000000E+00
					 0.00000000E+00	 5.00000000E-01	 8.00000000E+00
					 0.00000000E+00	 2.50000000E-01	 8.00000000E+00
					 1.00000000E+00	 0.00000000E+00	 5.00000000E-01
					 1.00000000E+00	 0.00000000E+00	 1.00000000E+00
					 1.00000000E+00	 0.00000000E+00	 1.50000000E+00
					 1.00000000E+00	 0.00000000E+00	 2.00000000E+00
					 1.00000000E+00	 0.00000000E+00	 2.50000000E+00
					 1.00000000E+00	 0.00000000E+00	 3.00000000E+00
					 1.00000000E+00	 0.00000000E+00	 3.50000000E+00
					 1.00000000E+00	 0.00000000E+00	 4.00000000E+00
					 1.00000000E+00	 0.00000000E+00	 4.50000000E+00
					 1.00000000E+00	 0.00000000E+00	 5.00000000E+00
					 1.00000000E+00	 0.00000000E+00	 5.50000000E+00
					 1.00000000E+00	 0.00000000E+00	 6.00000000E+00
					 1.00000000E+00	 0.00000000E+00	 6.50000000E+00
					 1.00000000E+00	 0.00000000E+00	 7.00000000E+00
					 1.00000000E+00	 0.00000000E+00	 7.50000000E+00
					 0.00000000E+00	 0.00000000E+00	 7.50000000E+00
					 0.00000000E+00	 0.00000000E+00	 7.00000000E+00
					 0.00000000E+00	 0.00000000E+00	 6.50000000E+00
					 0.00000000E+00	 0.00000000E+00	 6.00000000E+00
					 0.00000000E+00	 0.00000000E+00	 5.50000000E+00
					 0.00000000E+00	 0.00000000E+00	 5.00000000E+00
					 0.00000000E+00	 0.00000000E+00	 4.50000000E+00
					 0.00000000E+00	 0.00000000E+00	 4.00000000E+00
					 0.00000000E+00	 0.00000000E+00	 3.50000000E+00
					 0.00000000E+00	 0.00000000E+00	 3.00000000E+00
					 0.00000000E+00	 0.00000000E+00	 2.50000000E+00
					 0.00000000E+00	 0.00000000E+00	 2.00000000E+00
					 0.00000000E+00	 0.00000000E+00	 1.50000000E+00
					 0.00000000E+00	 0.00000000E+00	 1.00000000E+00
					 0.00000000E+00	 0.00000000E+00	 5.00000000E-01
					 1.00000000E+00	 1.00000000E+00	 5.00000000E-01
					 1.00000000E+00	 1.00000000E+00	 1.00000000E+00
					 1.00000000E+00	 1.00000000E+00	 1.50000000E+00
					 1.00000000E+00	 1.00000000E+00	 2.00000000E+00
					 1.00000000E+00	 1.00000000E+00	 2.50000000E+00
					 1.00000000E+00	 1.00000000E+00	 3.00000000E+00
					 1.00000000E+00	 1.00000000E+00	 3.50000000E+00
					 1.00000000E+00	 1.00000000E+00	 4.00000000E+00
					 1.00000000E+00	 1.00000000E+00	 4.50000000E+00
					 1.00000000E+00	 1.00000000E+00	 5.00000000E+00
					 1.00000000E+00	 1.00000000E+00	 5.50000000E+00
					 1.00000000E+00	 1.00000000E+00	 6.00000000E+00
					 1.00000000E+00	 1.00000000E+00	 6.50000000E+00
					 1.00000000E+00	 1.00000000E+00	 7.00000000E+00
					 1.00000000E+00	 1.00000000E+00	 7.50000000E+00
					 0.00000000E+00	 1.00000000E+00	 5.00000000E-01
					 0.00000000E+00	 1.00000000E+00	 1.00000000E+00
					 0.00000000E+00	 1.00000000E+00	 1.50000000E+00
					 0.00000000E+00	 1.00000000E+00	 2.00000000E+00
					 0.00000000E+00	 1.00000000E+00	 2.50000000E+00
					 0.00000000E+00	 1.00000000E+00	 3.00000000E+00
					 0.00000000E+00	 1.00000000E+00	 3.50000000E+00
					 0.00000000E+00	 1.00000000E+00	 4.00000000E+00
					 0.00000000E+00	 1.00000000E+00	 4.50000000E+00
					 0.00000000E+00	 1.00000000E+00	 5.00000000E+00
					 0.00000000E+00	 1.00000000E+00	 5.50000000E+00
					 0.00000000E+00	 1.00000000E+00	 6.00000000E+00
					 0.00000000E+00	 1.00000000E+00	 6.50000000E+00
					 0.00000000E+00	 1.00000000E+00	 7.00000000E+00
					 0.00000000E+00	 1.00000000E+00	 7.50000000E+00
					 5.00000000E-01	 2.50000000E-01	 0.00000000E+00
					 2.50000000E-01	 5.00000000E-01	 0.00000000E+00
					 5.00000000E-01	 5.00000000E-01	 0.00000000E+00
					 7.50000000E-01	 5.00000000E-01	 0.00000000E+00
					 5.00000000E-01	 7.50000000E-01	 0.00000000E+00
					 5.00000000E-01	 2.50000000E-01	 8.00000000E+00
					 2.50000000E-01	 5.00000000E-01	 8.00000000E+00
					 5.00000000E-01	 5.00000000E-01	 8.00000000E+00
					 7.50000000E-01	 5.00000000E-01	 8.00000000E+00
					 5.00000000E-01	 7.50000000E-01	 8.00000000E+00
					 5.00000000E-01	 0.00000000E+00	 5.00000000E-01
					 2.50000000E-01	 0.00000000E+00	 1.00000000E+00
					 5.00000000E-01	 0.00000000E+00	 1.00000000E+00
					 7.50000000E-01	 0.00000000E+00	 1.00000000E+00
					 5.00000000E-01	 0.00000000E+00	 1.50000000E+00
					 2.50000000E-01	 0.00000000E+00	 2.00000000E+00
					 5.00000000E-01	 0.00000000E+00	 2.00000000E+00
					 7.50000000E-01	 0.00000000E+00	 2.00000000E+00
					 5.00000000E-01	 0.00000000E+00	 2.50000000E+00
					 2.50000000E-01	 0.00000000E+00	 3.00000000E+00
					 5.00000000E-01	 0.00000000E+00	 3.00000000E+00
					 7.50000000E-01	 0.00000000E+00	 3.00000000E+00
					 5.00000000E-01	 0.00000000E+00	 3.50000000E+00
					 2.50000000E-01	 0.00000000E+00	 4.00000000E+00
					 5.00000000E-01	 0.00000000E+00	 4.00000000E+00
					 7.50000000E-01	 0.00000000E+00	 4.00000000E+00
					 5.00000000E-01	 0.00000000E+00	 4.50000000E+00
					 2.50000000E-01	 0.00000000E+00	 5.00000000E+00
					 5.00000000E-01	 0.00000000E+00	 5.00000000E+00
					 7.50000000E-01	 0.00000000E+00	 5.00000000E+00
					 5.00000000E-01	 0.00000000E+00	 5.50000000E+00
					 2.50000000E-01	 0.00000000E+00	 6.00000000E+00
					 5.00000000E-01	 0.00000000E+00	 6.00000000E+00
					 7.50000000E-01	 0.00000000E+00	 6.00000000E+00
					 5.00000000E-01	 0.00000000E+00	 6.50000000E+00
					 2.50000000E-01	 0.00000000E+00	 7.00000000E+00
					 5.00000000E-01	 0.00000000E+00	 7.00000000E+00
					 7.50000000E-01	 0.00000000E+00	 7.00000000E+00
					 5.00000000E-01	 0.00000000E+00	 7.50000000E+00
					 1.00000000E+00	 5.00000000E-01	 5.00000000E-01
					 1.00000000E+00	 2.50000000E-01	 1.00000000E+00
					 1.00000000E+00	 5.00000000E-01	 1.00000000E+00
					 1.00000000E+00	 7.50000000E-01	 1.00000000E+00
					 1.00000000E+00	 5.00000000E-01	 1.50000000E+00
					 1.00000000E+00	 2.50000000E-01	 2.00000000E+00
					 1.00000000E+00	 5.00000000E-01	 2.00000000E+00
					 1.00000000E+00	 7.50000000E-01	 2.00000000E+00
					 1.00000000E+00	 5.00000000E-01	 2.50000000E+00
					 1.00000000E+00	 2.50000000E-01	 3.00000000E+00
					 1.00000000E+00	 5.00000000E-01	 3.00000000E+00
					 1.00000000E+00	 7.50000000E-01	 3.00000000E+00
					 1.00000000E+00	 5.00000000E-01	 3.50000000E+00
					 1.00000000E+00	 2.50000000E-01	 4.00000000E+00
					 1.00000000E+00	 5.00000000E-01	 4.00000000E+00
					 1.00000000E+00	 7.50000000E-01	 4.00000000E+00
					 1.00000000E+00	 5.00000000E-01	 4.50000000E+00
					 1.00000000E+00	 2.50000000E-01	 5.00000000E+00
					 1.00000000E+00	 5.00000000E-01	 5.00000000E+00
					 1.00000000E+00	 7.50000000E-01	 5.00000000E+00
					 1.00000000E+00	 5.00000000E-01	 5.50000000E+00
					 1.00000000E+00	 2.50000000E-01	 6.00000000E+00
					 1.00000000E+00	 5.00000000E-01	 6.00000000E+00
					 1.00000000E+00	 7.50000000E-01	 6.00000000E+00
					 1.00000000E+00	 5.00000000E-01	 6.50000000E+00
					 1.00000000E+00	 2.50000000E-01	 7.00000000E+00
					 1.00000000E+00	 5.00000000E-01	 7.00000000E+00
					 1.00000000E+00	 7.50000000E-01	 7.00000000E+00
					 1.00000000E+00	 5.00000000E-01	 7.50000000E+00
					 5.00000000E-01	 1.00000000E+00	 5.00000000E-01
					 7.50000000E-01	 1.00000000E+00	 1.00000000E+00
					 5.00000000E-01	 1.00000000E+00	 1.00000000E+00
					 2.50000000E-01	 1.00000000E+00	 1.00000000E+00
					 5.00000000E-01	 1.00000000E+00	 1.50000000E+00
					 7.50000000E-01	 1.00000000E+00	 2.00000000E+00
					 5.00000000E-01	 1.00000000E+00	 2.00000000E+00
					 2.50000000E-01	 1.00000000E+00	 2.00000000E+00
					 5.00000000E-01	 1.00000000E+00	 2.50000000E+00
					 7.50000000E-01	 1.00000000E+00	 3.00000000E+00
					 5.00000000E-01	 1.00000000E+00	 3.00000000E+00
					 2.50000000E-01	 1.00000000E+00	 3.00000000E+00
					 5.00000000E-01	 1.00000000E+00	 3.50000000E+00
					 7.50000000E-01	 1.00000000E+00	 4.00000000E+00
					 5.00000000E-01	 1.00000000E+00	 4.00000000E+00
					 2.50000000E-01	 1.00000000E+00	 4.00000000E+00
					 5.00000000E-01	 1.00000000E+00	 4.50000000E+00
					 7.50000000E-01	 1.00000000E+00	 5.00000000E+00
					 5.00000000E-01	 1.00000000E+00	 5.00000000E+00
					 2.50000000E-01	 1.00000000E+00	 5.00000000E+00
					 5.00000000E-01	 1.00000000E+00	 5.50000000E+00
					 7.50000000E-01	 1.00000000E+00	 6.00000000E+00
					 5.00000000E-01	 1.00000000E+00	 6.00000000E+00
					 2.50000000E-01	 1.00000000E+00	 6.00000000E+00
					 5.00000000E-01	 1.00000000E+00	 6.50000000E+00
					 7.50000000E-01	 1.00000000E+00	 7.00000000E+00
					 5.00000000E-01	 1.00000000E+00	 7.00000000E+00
					 2.50000000E-01	 1.00000000E+00	 7.00000000E+00
					 5.00000000E-01	 1.00000000E+00	 7.50000000E+00
					 0.00000000E+00	 5.00000000E-01	 5.00000000E-01
					 0.00000000E+00	 7.50000000E-01	 1.00000000E+00
					 0.00000000E+00	 5.00000000E-01	 1.00000000E+00
					 0.00000000E+00	 2.50000000E-01	 1.00000000E+00
					 0.00000000E+00	 5.00000000E-01	 1.50000000E+00
					 0.00000000E+00	 7.50000000E-01	 2.00000000E+00
					 0.00000000E+00	 5.00000000E-01	 2.00000000E+00
					 0.00000000E+00	 2.50000000E-01	 2.00000000E+00
					 0.00000000E+00	 5.00000000E-01	 2.50000000E+00
					 0.00000000E+00	 7.50000000E-01	 3.00000000E+00
					 0.00000000E+00	 5.00000000E-01	 3.00000000E+00
					 0.00000000E+00	 2.50000000E-01	 3.00000000E+00
					 0.00000000E+00	 5.00000000E-01	 3.50000000E+00
					 0.00000000E+00	 7.50000000E-01	 4.00000000E+00
					 0.00000000E+00	 5.00000000E-01	 4.00000000E+00
					 0.00000000E+00	 2.50000000E-01	 4.00000000E+00
					 0.00000000E+00	 5.00000000E-01	 4.50000000E+00
					 0.00000000E+00	 7.50000000E-01	 5.00000000E+00
					 0.00000000E+00	 5.00000000E-01	 5.00000000E+00
					 0.00000000E+00	 2.50000000E-01	 5.00000000E+00
					 0.00000000E+00	 5.00000000E-01	 5.50000000E+00
					 0.00000000E+00	 7.50000000E-01	 6.00000000E+00
					 0.00000000E+00	 5.00000000E-01	 6.00000000E+00
					 0.00000000E+00	 2.50000000E-01	 6.00000000E+00
					 0.00000000E+00	 5.00000000E-01	 6.50000000E+00
					 0.00000000E+00	 7.50000000E-01	 7.00000000E+00
					 0.00000000E+00	 5.00000000E-01	 7.00000000E+00
					 0.00000000E+00	 2.50000000E-01	 7.00000000E+00
					 0.00000000E+00	 5.00000000E-01	 7.50000000E+00
					 5.00000000E-01	 5.00000000E-01	 5.00000000E-01
					 5.00000000E-01	 2.50000000E-01	 1.00000000E+00
					 2.50000000E-01	 5.00000000E-01	 1.00000000E+00
					 5.00000000E-01	 5.00000000E-01	 1.00000000E+00
					 7.50000000E-01	 5.00000000E-01	 1.00000000E+00
					 5.00000000E-01	 7.50000000E-01	 1.00000000E+00
					 5.00000000E-01	 5.00000000E-01	 1.50000000E+00
					 5.00000000E-01	 2.50000000E-01	 2.00000000E+00
					 2.50000000E-01	 5.00000000E-01	 2.00000000E+00
					 5.00000000E-01	 5.00000000E-01	 2.00000000E+00
					 7.50000000E-01	 5.00000000E-01	 2.00000000E+00
					 5.00000000E-01	 7.50000000E-01	 2.00000000E+00
					 5.00000000E-01	 5.00000000E-01	 2.50000000E+00
					 5.00000000E-01	 2.50000000E-01	 3.00000000E+00
					 2.50000000E-01	 5.00000000E-01	 3.00000000E+00
					 5.00000000E-01	 5.00000000E-01	 3.00000000E+00
					 7.50000000E-01	 5.00000000E-01	 3.00000000E+00
					 5.00000000E-01	 7.50000000E-01	 3.00000000E+00
					 5.00000000E-01	 5.00000000E-01	 3.50000000E+00
					 5.00000000E-01	 2.50000000E-01	 4.00000000E+00
					 2.50000000E-01	 5.00000000E-01	 4.00000000E+00
					 5.00000000E-01	 5.00000000E-01	 4.00000000E+00
					 7.50000000E-01	 5.00000000E-01	 4.00000000E+00
					 5.00000000E-01	 7.50000000E-01	 4.00000000E+00
					 5.00000000E-01	 5.00000000E-01	 4.50000000E+00
					 5.00000000E-01	 2.50000000E-01	 5.00000000E+00
					 2.50000000E-01	 5.00000000E-01	 5.00000000E+00
					 5.00000000E-01	 5.00000000E-01	 5.00000000E+00
					 7.50000000E-01	 5.00000000E-01	 5.00000000E+00
					 5.00000000E-01	 7.50000000E-01	 5.00000000E+00
					 5.00000000E-01	 5.00000000E-01	 5.50000000E+00
					 5.00000000E-01	 2.50000000E-01	 6.00000000E+00
					 2.50000000E-01	 5.00000000E-01	 6.00000000E+00
					 5.00000000E-01	 5.00000000E-01	 6.00000000E+00
					 7.50000000E-01	 5.00000000E-01	 6.00000000E+00
					 5.00000000E-01	 7.50000000E-01	 6.00000000E+00
					 5.00000000E-01	 5.00000000E-01	 6.50000000E+00
					 5.00000000E-01	 2.50000000E-01	 7.00000000E+00
					 2.50000000E-01	 5.00000000E-01	 7.00000000E+00
					 5.00000000E-01	 5.00000000E-01	 7.00000000E+00
					 7.50000000E-01	 5.00000000E-01	 7.00000000E+00
					 5.00000000E-01	 7.50000000E-01	 7.00000000E+00
					 5.00000000E-01	 5.00000000E-01	 7.50000000E+00

				</DataArray>
			</Points>
			<Cells>
				<DataArray type="Int32" Name="connectivity" format="ascii">
					0 9 94 18 60 104 221 191 8 92 93 19 103 219 220 192 61 102 218 189 9 1 12 94 104 33 133 221 10 11 95 92 105 132 222 219 102 32 131 218 18 94 15 3 191 221 162 78 93 96 16 17 220 223 163 190 189 218 160 77 94 12 2 15 221 133 63 162 95 13 14 96 222 134 161 223 218 131 62 160 60 104 221 191 58 108 227 195 103 219 220 192 107 225 226 196 59 106 224 193 104 33 133 221 108 35 137 227 105 132 222 219 109 136 228 225 106 34 135 224 191 221 162 78 195 227 166 80 220 223 163 190 226 229 167 194 193 224 164 79 221 133 63 162 227 137 65 166 222 134 161 223 228 138 165 229 224 135 64 164 58 108 227 195 56 112 233 199 107 225 226 196 111 231 232 200 57 110 230 197 108 35 137 227 112 37 141 233 109 136 228 225 113 140 234 231 110 36 139 230 195 227 166 80 199 233 170 82 226 229 167 194 232 235 171 198 197 230 168 81 227 137 65 166 233 141 67 170 228 138 165 229 234 142 169 235 230 139 66 168 56 112 233 199 54 116 239 203 111 231 232 200 115 237 238 204 55 114 236 201 112 37 141 233 116 39 145 239 113 140 234 231 117 144 240 237 114 38 143 236 199 233 170 82 203 239 174 84 232 235 171 198 238 241 175 202 201 236 172 83 233 141 67 170 239 145 69 174 234 142 169 235 240 146 173 241 236 143 68 172 54 116 239 203 52 120 245 207 115 237 238 204 119 243 244 208 53 118 242 205 116 39 145 239 120 41 149 245 117 144 240 237 121 148 246 243 118 40 147 242 203 239 174 84 207 245 178 86 238 241 175 202 244 247 179 206 205 242 176 85 239 145 69 174 245 149 71 178 240 146 173 241 246 150 177 247 242 147 70 176 52 120 245 207 50 124 251 211 119 243 244 208 123 249 250 212 51 122 248 209 120 41 149 245 124 43 153 251 121 148 246 243 125 152 252 249 122 42 151 248 207 245 178 86 211 251 182 88 244 247 179 206 250 253 183 210 209 248 180 87 245 149 71 178 251 153 73 182 246 150 177 247 252 154 181 253 248 151 72 180 50 124 251 211 48 128 257 215 123 249 250 212 127 255 256 216 49 126 254 213 124 43 153 251 128 45 157 257 125 152 252 249 129 156 258 255 126 44 155 254 211 251 182 88 215 257 186 90 250 253 183 210 256 259 187 214 213 254 184 89 251 153 73 182 257 157 75 186 252 154 181 253 258 158 185 259 254 155 74 184 48 128 257 215 4 21 99 30 127 255 256 216 20 97 98 31 47 130 260 217 128 45 157 257 21 5 24 99 129 156 258 255 22 23 100 97 130 46 159 260 215 257 186 90 30 99 27 7 256 259 187 214 98 101 28 29 217 260 188 91 257 157 75 186 99 24 6 27 258 158 185 259 100 25 26 101 260 159 76 188 
				</DataArray>
				<DataArray type="Int32" Name="offsets" format="ascii">
					20 40 60 80 100 120 140 160 180 200 220 240 260 280 300 320 340 360 380 400 420 440 460 480 500 520 540 560 580 600 620 640 
				</DataArray>
				<DataArray type="UInt8" Name="types" format="ascii">
					25 25 25 25 25 25 25 25 25 25 25 25 25 25 25 25 25 25 25 25 25 25 25 25 25 25 25 25 25 25 25 25 
				</DataArray>
			</Cells>
			<PointData>
				<DataArray type="Float32" Name="U" NumberOfComponents="3" ComponentName0="D1" ComponentName1="D2" ComponentName2="D3" format="ascii">
					 0.00000000E+00	 0.00000000E+00	 0.00000000E+00
					 0.00000000E+00	 0.00000000E+00	 0.00000000E+00
					 0.00000000E+00	 0.00000000E+00	 0.00000000E+00
					 0.00000000E+00	 0.00000000E+00	 0.00000000E+00
					-2.02767000E-05	 4.38597000E-02	 3.94598000E-03
					 2.02767000E-05	 4.38597000E-02	 3.94598000E-03
					-2.05960000E-05	 4.38259000E-02	-4.23428000E-03
					 2.05960000E-05	 4.38259000E-02	-4.23428000E-03
					 0.00000000E+00	 0.00000000E+00	 0.00000000E+00
					 0.00000000E+00	 0.00000000E+00	 0.00000000E+00
					 0.00000000E+00	 0.00000000E+00	 0.00000000E+00
					 0.00000000E+00	 0.00000000E+00	 0.00000000E+00
					 0.00000000E+00	 0.00000000E+00	 0.00000000E+00
					 0.00000000E+00	 0.00000000E+00	 0.00000000E+00
					 0.00000000E+00	 0.00000000E+00	 0.00000000E+00
					 0.00000000E+00	 0.00000000E+00	 0.00000000E+00
					 0.00000000E+00	 0.00000000E+00	 0.00000000E+00
					 0.00000000E+00	 0.00000000E+00	 0.00000000E+00
					 0.00000000E+00	 0.00000000E+00	 0.00000000E+00
					 0.00000000E+00	 0.00000000E+00	 0.00000000E+00
					-9.27066000E-06	 4.38165000E-02	 3.94214000E-03
					 0.00000000E+00	 4.38127000E-02	 3.93357000E-03
					 9.27066000E-06	 4.38165000E-02	 3.94214000E-03
					-5.53570000E-08	 4.38176000E-02	 1.88751000E-03
					-4.15738000E-08	 4.37868000E-02	-1.44030000E-04
					-1.61175000E-07	 4.38009000E-02	-2.17586000E-03
					-9.40363000E-06	 4.37829000E-02	-4.23033000E-03
					 0.00000000E+00	 4.37793000E-02	-4.22178000E-03
					 9.40363000E-06	 4.37829000E-02	-4.23033000E-03
					 1.61175000E-07	 4.38009000E-02	-2.17586000E-03
					 4.15738000E-08	 4.37868000E-02	-1.44030000E-04
					 5.53570000E-08	 4.38176000E-02	 1.88751000E-03
					-1.54287000E-04	 2.69288000E-04	 4.62681000E-04
					-1.12533000E-04	 9.60865000E-04	 9.26311000E-04
					-1.27077000E-04	 2.16192000E-03	 1.36067000E-03
					-1.12168000E-04	 3.74472000E-03	 1.76105000E-03
					-1.06628000E-04	 5.73898000E-03	 2.12431000E-03
					-9.54692000E-05	 8.06980000E-03	 2.45683000E-03
					-8.69520000E-05	 1.07315000E-02	 2.75477000E-03
					-7.68944000E-05	 1.36772000E-02	 3.01986000E-03
					-6.76290000E-05	 1.68823000E-02	 3.25012000E-03
					-5.82386000E-05	 2.03117000E-02	 3.44756000E-03
					-4.76904000E-05	 2.39332000E-02	 3.61117000E-03
					-3.82420000E-05	 2.77201000E-02	 3.74247000E-03
					-2.98188000E-05	 3.16227000E-02	 3.83820000E-03
					-2.44887000E-05	 3.56355000E-02	 3.90260000E-03
					-1.88440000E-06	 3.97064000E-02	 3.93580000E-03
					 1.88440000E-06	 3.97064000E-02	 3.93580000E-03
					 2.44887000E-05	 3.56355000E-02	 3.90260000E-03
					 2.98188000E-05	 3.16227000E-02	 3.83820000E-03
					 3.82420000E-05	 2.77201000E-02	 3.74247000E-03
					 4.76904000E-05	 2.39332000E-02	 3.61117000E-03
					 5.82386000E-05	 2.03117000E-02	 3.44756000E-03
					 6.76290000E-05	 1.68823000E-02	 3.25012000E-03
					 7.68944000E-05	 1.36772000E-02	 3.01986000E-03
					 8.69520000E-05	 1.07315000E-02	 2.75477000E-03
					 9.54692000E-05	 8.06980000E-03	 2.45683000E-03
					 1.06628000E-04	 5.73898000E-03	 2.12431000E-03
					 1.12168000E-04	 3.74472000E-03	 1.76105000E-03
					 1.27077000E-04	 2.16192000E-03	 1.36067000E-03
					 1.12533000E-04	 9.60865000E-04	 9.26311000E-04
					 1.54287000E-04	 2.69288000E-04	 4.62681000E-04
					 1.54413000E-04	 2.68679000E-04	-4.63197000E-04
					 1.12501000E-04	 9.58917000E-04	-9.28200000E-04
					 1.27099000E-04	 2.15807000E-03	-1.36571000E-03
					 1.12172000E-04	 3.73827000E-03	-1.77135000E-03
					 1.06628000E-04	 5.72976000E-03	-2.14267000E-03
					 9.54508000E-05	 8.05745000E-03	-2.48615000E-03
					 8.69364000E-05	 1.07160000E-02	-2.79828000E-03
					 7.68651000E-05	 1.36585000E-02	-3.08072000E-03
					 6.75969000E-05	 1.68605000E-02	-3.33147000E-03
					 5.81952000E-05	 2.02872000E-02	-3.55234000E-03
					 4.76527000E-05	 2.39061000E-02	-3.74205000E-03
					 3.81773000E-05	 2.76908000E-02	-3.90188000E-03
					 2.97741000E-05	 3.15917000E-02	-4.02796000E-03
					 2.43716000E-05	 3.56031000E-02	-4.12445000E-03
					 1.91744000E-06	 3.96734000E-02	-4.19039000E-03
					-1.54413000E-04	 2.68679000E-04	-4.63197000E-04
					-1.12501000E-04	 9.58917000E-04	-9.28200000E-04
					-1.27099000E-04	 2.15807000E-03	-1.36571000E-03
					-1.12172000E-04	 3.73827000E-03	-1.77135000E-03
					-1.06628000E-04	 5.72976000E-03	-2.14267000E-03
					-9.54508000E-05	 8.05745000E-03	-2.48615000E-03
					-8.69364000E-05	 1.07160000E-02	-2.79828000E-03
					-7.68651000E-05	 1.36585000E-02	-3.08072000E-03
					-6.75969000E-05	 1.68605000E-02	-3.33147000E-03
					-5.81952000E-05	 2.02872000E-02	-3.55234000E-03
					-4.76527000E-05	 2.39061000E-02	-3.74205000E-03
					-3.81773000E-05	 2.76908000E-02	-3.90188000E-03
					-2.97741000E-05	 3.15917000E-02	-4.02796000E-03
					-2.43716000E-05	 3.56031000E-02	-4.12445000E-03
					-1.91744000E-06	 3.96734000E-02	-4.19039000E-03
					 0.00000000E+00	 0.00000000E+00	 0.00000000E+00
					 0.00000000E+00	 0.00000000E+00	 0.00000000E+00
					 0.00000000E+00	 0.00000000E+00	 0.00000000E+00
					 0.00000000E+00	 0.00000000E+00	 0.00000000E+00
					 0.00000000E+00	 0.00000000E+00	 0.00000000E+00
					 0.00000000E+00	 4.37939000E-02	 1.88999000E-03
					 2.42829000E-08	 4.37843000E-02	-1.44072000E-04
					 0.00000000E+00	 4.37767000E-02	-1.44059000E-04
					-2.42829000E-08	 4.37843000E-02	-1.44072000E-04
					 0.00000000E+00	 4.37773000E-02	-2.17815000E-03
					 0.00000000E+00	 3.35465000E-04	 4.49306000E-04
					 5.56943000E-05	 1.01529000E-03	 9.32170000E-04
					 0.00000000E+00	 1.02754000E-03	 9.38878000E-04
					-5.56943000E-05	 1.01529000E-03	 9.32170000E-04
					 0.00000000E+00	 2.22235000E-03	 1.36086000E-03
					 5.60852000E-05	 3.78825000E-03	 1.76417000E-03
					 0.00000000E+00	 3.80525000E-03	 1.76463000E-03
					-5.60852000E-05	 3.78825000E-03	 1.76417000E-03
					 0.00000000E+00	 5.79101000E-03	 2.12584000E-03
					 4.76987000E-05	 8.10692000E-03	 2.45897000E-03
					 0.00000000E+00	 8.11924000E-03	 2.45897000E-03
					-4.76987000E-05	 8.10692000E-03	 2.45897000E-03
					 0.00000000E+00	 1.07746000E-02	 2.75659000E-03
					 3.84525000E-05	 1.37061000E-02	 3.02190000E-03
					 0.00000000E+00	 1.37159000E-02	 3.02165000E-03
					-3.84525000E-05	 1.37061000E-02	 3.02190000E-03
					 0.00000000E+00	 1.69163000E-02	 3.25198000E-03
					 2.90940000E-05	 2.03335000E-02	 3.44967000E-03
					 0.00000000E+00	 2.03400000E-02	 3.44940000E-03
					-2.90940000E-05	 2.03335000E-02	 3.44967000E-03
					 0.00000000E+00	 2.39577000E-02	 3.61305000E-03
					 1.92086000E-05	 2.77314000E-02	 3.74430000E-03
					 0.00000000E+00	 2.77358000E-02	 3.74400000E-03
					-1.92086000E-05	 2.77314000E-02	 3.74430000E-03
					 0.00000000E+00	 3.16403000E-02	 3.84028000E-03
					 1.18699000E-05	 3.56453000E-02	 3.90532000E-03
					 0.00000000E+00	 3.56401000E-02	 3.90538000E-03
					-1.18699000E-05	 3.56453000E-02	 3.90532000E-03
					 0.00000000E+00	 3.97113000E-02	 3.93671000E-03
					 1.07645000E-07	 1.74055000E-04	-2.17182000E-07
					-5.67261000E-05	 9.22156000E-04	 4.58640000E-04
					 9.36972000E-08	 9.27461000E-04	-8.44335000E-07
					 5.68260000E-05	 9.21165000E-04	-4.60388000E-04
					 9.01087000E-08	 2.08607000E-03	-2.29482000E-06
					-5.59193000E-05	 3.70903000E-03	 8.72417000E-04
					 6.57436000E-08	 3.69955000E-03	-4.96457000E-06
					 5.59978000E-05	 3.70583000E-03	-8.82405000E-04
					 4.87461000E-08	 5.67700000E-03	-8.91651000E-06
					-4.77406000E-05	 8.03309000E-03	 1.21630000E-03
					 3.84021000E-08	 8.02124000E-03	-1.44323000E-05
					 4.77779000E-05	 8.02696000E-03	-1.24527000E-03
					 2.66538000E-08	 1.06789000E-02	-2.14919000E-05
					-3.84645000E-05	 1.36444000E-02	 1.48965000E-03
					 1.56023000E-08	 1.36309000E-02	-3.01900000E-05
					 3.84704000E-05	 1.36351000E-02	-1.55014000E-03
					 4.22786000E-09	 1.68377000E-02	-4.04401000E-05
					-2.89670000E-05	 2.02835000E-02	 1.69271000E-03
					-2.32163000E-09	 2.02697000E-02	-5.21736000E-05
					 2.89461000E-05	 2.02713000E-02	-1.79718000E-03
					-1.04669000E-08	 2.38963000E-02	-6.52635000E-05
					-1.97688000E-05	 2.76949000E-02	 1.82591000E-03
					-1.21462000E-08	 2.76800000E-02	-7.95064000E-05
					 1.97239000E-05	 2.76803000E-02	-1.98506000E-03
					-2.67580000E-08	 3.15978000E-02	-9.47984000E-05
					-9.78787000E-06	 3.56177000E-02	 1.89253000E-03
					-2.62893000E-08	 3.56022000E-02	-1.10760000E-04
					 9.70752000E-06	 3.56016000E-02	-2.11412000E-03
					-7.62590000E-09	 3.96881000E-02	-1.27329000E-04
					 0.00000000E+00	 3.34863000E-04	-4.49917000E-04
					 5.57115000E-05	 1.01327000E-03	-9.34283000E-04
					 0.00000000E+00	 1.02554000E-03	-9.41072000E-04
					-5.57115000E-05	 1.01327000E-03	-9.34283000E-04
					 0.00000000E+00	 2.21843000E-03	-1.36624000E-03
					 5.61002000E-05	 3.78177000E-03	-1.77480000E-03
					 0.00000000E+00	 3.79879000E-03	-1.77539000E-03
					-5.61002000E-05	 3.78177000E-03	-1.77480000E-03
					 0.00000000E+00	 5.78174000E-03	-2.14466000E-03
					 4.77015000E-05	 8.09452000E-03	-2.48866000E-03
					 0.00000000E+00	 8.10686000E-03	-2.48879000E-03
					-4.77015000E-05	 8.09452000E-03	-2.48866000E-03
					 0.00000000E+00	 1.07591000E-02	-2.80059000E-03
					 3.84449000E-05	 1.36873000E-02	-3.08312000E-03
					 0.00000000E+00	 1.36972000E-02	-3.08299000E-03
					-3.84449000E-05	 1.36873000E-02	-3.08312000E-03
					 0.00000000E+00	 1.68945000E-02	-3.33379000E-03
					 2.90762000E-05	 2.03089000E-02	-3.55476000E-03
					 0.00000000E+00	 2.03154000E-02	-3.55458000E-03
					-2.90762000E-05	 2.03089000E-02	-3.55476000E-03
					 0.00000000E+00	 2.39305000E-02	-3.74430000E-03
					 1.91785000E-05	 2.77021000E-02	-3.90391000E-03
					 0.00000000E+00	 2.77065000E-02	-3.90367000E-03
					-1.91785000E-05	 2.77021000E-02	-3.90391000E-03
					 0.00000000E+00	 3.16093000E-02	-4.03031000E-03
					 1.18103000E-05	 3.56129000E-02	-4.12724000E-03
					 0.00000000E+00	 3.56078000E-02	-4.12726000E-03
					-1.18103000E-05	 3.56129000E-02	-4.12724000E-03
					 0.00000000E+00	 3.96783000E-02	-4.19148000E-03
					-1.07645000E-07	 1.74055000E-04	-2.17182000E-07
					-5.68260000E-05	 9.21165000E-04	-4.60388000E-04
					-9.36972000E-08	 9.27461000E-04	-8.44335000E-07
					 5.67261000E-05	 9.22156000E-04	 4.58640000E-04
					-9.01087000E-08	 2.08607000E-03	-2.29482000E-06
					-5.59978000E-05	 3.70583000E-03	-8.82405000E-04
					-6.57436000E-08	 3.69955000E-03	-4.96457000E-06
					 5.59193000E-05	 3.70903000E-03	 8.72417000E-04
					-4.87461000E-08	 5.67700000E-03	-8.91651000E-06
					-4.77779000E-05	 8.02696000E-03	-1.24527000E-03
					-3.84021000E-08	 8.02124000E-03	-1.44323000E-05
					 4.77406000E-05	 8.03309000E-03	 1.21630000E-03
					-2.66538000E-08	 1.06789000E-02	-2.14919000E-05
					-3.84704000E-05	 1.36351000E-02	-1.55014000E-03
					-1.56023000E-08	 1.36309000E-02	-3.01900000E-05
					 3.84645000E-05	 1.36444000E-02	 1.48965000E-03
					-4.22786000E-09	 1.68377000E-02	-4.04401000E-05
					-2.89461000E-05	 2.02713000E-02	-1.79718000E-03
					 2.32163000E-09	 2.02697000E-02	-5.21736000E-05
					 2.89670000E-05	 2.02835000E-02	 1.69271000E-03
					 1.04669000E-08	 2.38963000E-02	-6.52635000E-05
					-1.97239000E-05	 2.76803000E-02	-1.98506000E-03
					 1.21463000E-08	 2.76800000E-02	-7.95064000E-05
					 1.97688000E-05	 2.76949000E-02	 1.82591000E-03
					 2.67580000E-08	 3.15978000E-02	-9.47984000E-05
					-9.70752000E-06	 3.56016000E-02	-2.11412000E-03
					 2.62893000E-08	 3.56022000E-02	-1.10760000E-04
					 9.78787000E-06	 3.56177000E-02	 1.89253000E-03
					 7.62590000E-09	 3.96881000E-02	-1.27329000E-04
					 0.00000000E+00	 2.39862000E-04	-2.77791000E-07
					 0.00000000E+00	 9.85574000E-04	 4.63921000E-04
					-5.11728000E-08	 9.79788000E-04	-9.41622000E-07
					 0.00000000E+00	 9.88949000E-04	-9.72613000E-07
					 5.11728000E-08	 9.79788000E-04	-9.41622000E-07
					 0.00000000E+00	 9.84549000E-04	-4.65952000E-04
					 0.00000000E+00	 2.14867000E-03	-2.47473000E-06
					 0.00000000E+00	 3.76752000E-03	 8.75400000E-04
					-3.53800000E-08	 3.74075000E-03	-5.12504000E-06
					 0.00000000E+00	 3.75569000E-03	-5.17328000E-06
					 3.53800000E-08	 3.74075000E-03	-5.12504000E-06
					 0.00000000E+00	 3.76431000E-03	-8.85822000E-04
					 0.00000000E+00	 5.73052000E-03	-9.15360000E-06
					 0.00000000E+00	 8.08149000E-03	 1.21822000E-03
					-2.11043000E-08	 8.05736000E-03	-1.46135000E-05
					 0.00000000E+00	 8.06868000E-03	-1.46708000E-05
					 2.11043000E-08	 8.05736000E-03	-1.46135000E-05
					 0.00000000E+00	 8.07532000E-03	-1.24768000E-03
					 0.00000000E+00	 1.07224000E-02	-2.17396000E-05
					 0.00000000E+00	 1.36831000E-02	 1.49148000E-03
					-8.92582000E-09	 1.36597000E-02	-3.03722000E-05
					 0.00000000E+00	 1.36693000E-02	-3.04307000E-05
					 8.92582000E-09	 1.36597000E-02	-3.03722000E-05
					 0.00000000E+00	 1.36737000E-02	-1.55246000E-03