<?xml version="1.0"?>
<VTKFile type="UnstructuredGrid" version="0.1" byte_order="LittleEndian">
	<UnstructuredGrid>
		<Piece NumberOfPoints="90" NumberOfCells="32">
			<Points>
				<DataArray type="Float64" NumberOfComponents="3" format="ascii">
					 0.00000000E+00	 0.00000000E+00	 0.00000000E+00
					 1.00000000E+00	 0.00000000E+00	 0.00000000E+00
					 1.00000000E+00	 1.00000000E+00	 0.00000000E+00
					 0.00000000E+00	 1.00000000E+00	 0.00000000E+00
					 0.00000000E+00	 0.00000000E+00	 8.00000000E+00
					 1.00000000E+00	 0.00000000E+00	 8.00000000E+00
					 1.00000000E+00	 1.00000000E+00	 8.00000000E+00
					 0.00000000E+00	 1.00000000E+00	 8.00000000E+00
					 5.00000000E-01	 0.00000000E+00	 0.00000000E+00
					 1.00000000E+00	 5.00000000E-01	 0.00000000E+00
					 5.00000000E-01	 1.00000000E+00	 0.00000000E+00
					 0.00000000E+00	 5.00000000E-01	 0.00000000E+00
					 5.00000000E-01	 0.00000000E+00	 8.00000000E+00
					 1.00000000E+00	 5.00000000E-01	 8.00000000E+00
					 5.00000000E-01	 1.00000000E+00	 8.00000000E+00
					 0.00000000E+00	 5.00000000E-01	 8.00000000E+00
					 1.00000000E+00	 0.00000000E+00	 1.00000000E+00
					 1.00000000E+00	 0.00000000E+00	 2.00000000E+00
					 1.00000000E+00	 0.00000000E+00	 3.00000000E+00
					 1.00000000E+00	 0.00000000E+00	 4.00000000E+00
					 1.00000000E+00	 0.00000000E+00	 5.00000000E+00
					 1.00000000E+00	 0.00000000E+00	 6.00000000E+00
					 1.00000000E+00	 0.00000000E+00	 7.00000000E+00
					 0.00000000E+00	 0.00000000E+00	 7.00000000E+00
					 0.00000000E+00	 0.00000000E+00	 6.00000000E+00
					 0.00000000E+00	 0.00000000E+00	 5.00000000E+00
					 0.00000000E+00	 0.00000000E+00	 4.00000000E+00
					 0.00000000E+00	 0.00000000E+00	 3.00000000E+00
					 0.00000000E+00	 0.00000000E+00	 2.00000000E+00
					 0.00000000E+00	 0.00000000E+00	 1.00000000E+00
					 1.00000000E+00	 1.00000000E+00	 1.00000000E+00
					 1.00000000E+00	 1.00000000E+00	 2.00000000E+00
					 1.00000000E+00	 1.00000000E+00	 3.00000000E+00
					 1.00000000E+00	 1.00000000E+00	 4.00000000E+00
					 1.00000000E+00	 1.00000000E+00	 5.00000000E+00
					 1.00000000E+00	 1.00000000E+00	 6.00000000E+00
					 1.00000000E+00	 1.00000000E+00	 7.00000000E+00
					 0.00000000E+00	 1.00000000E+00	 1.00000000E+00
					 0.00000000E+00	 1.00000000E+00	 2.00000000E+00
					 0.00000000E+00	 1.00000000E+00	 3.00000000E+00
					 0.00000000E+00	 1.00000000E+00	 4.00000000E+00
					 0.00000000E+00	 1.00000000E+00	 5.00000000E+00
					 0.00000000E+00	 1.00000000E+00	 6.00000000E+00
					 0.00000000E+00	 1.00000000E+00	 7.00000000E+00
					 5.00000000E-01	 5.00000000E-01	 0.00000000E+00
					 5.00000000E-01	 5.00000000E-01	 8.00000000E+00
					 5.00000000E-01	 0.00000000E+00	 1.00000000E+00
					 5.00000000E-01	 0.00000000E+00	 2.00000000E+00
					 5.00000000E-01	 0.00000000E+00	 3.00000000E+00
					 5.00000000E-01	 0.00000000E+00	 4.00000000E+00
					 5.00000000E-01	 0.00000000E+00	 5.00000000E+00
					 5.00000000E-01	 0.00000000E+00	 6.00000000E+00
					 5.00000000E-01	 0.00000000E+00	 7.00000000E+00
					 1.00000000E+00	 5.00000000E-01	 1.00000000E+00
					 1.00000000E+00	 5.00000000E-01	 2.00000000E+00
					 1.00000000E+00	 5.00000000E-01	 3.00000000E+00
					 1.00000000E+00	 5.00000000E-01	 4.00000000E+00
					 1.00000000E+00	 5.00000000E-01	 5.00000000E+00
					 1.00000000E+00	 5.00000000E-01	 6.00000000E+00
					 1.00000000E+00	 5.00000000E-01	 7.00000000E+00
					 5.00000000E-01	 1.00000000E+00	 1.00000000E+00
					 5.00000000E-01	 1.00000000E+00	 2.00000000E+00
					 5.00000000E-01	 1.00000000E+00	 3.00000000E+00
					 5.00000000E-01	 1.00000000E+00	 4.00000000E+00
					 5.00000000E-01	 1.00000000E+00	 5.00000000E+00
					 5.00000000E-01	 1.00000000E+00	 6.00000000E+00
					 5.00000000E-01	 1.00000000E+00	 7.00000000E+00
					 0.00000000E+00	 5.00000000E-01	 1.00000000E+00
					 0.00000000E+00	 5.00000000E-01	 2.00000000E+00
					 0.00000000E+00	 5.00000000E-01	 3.00000000E+00
					 0.00000000E+00	 5.00000000E-01	 4.00000000E+00
					 0.00000000E+00	 5.00000000E-01	 5.00000000E+00
					 0.00000000E+00	 5.00000000E-01	 6.00000000E+00
					 0.00000000E+00	 5.00000000E-01	 7.00000000E+00
					 5.00000000E-01	 5.00000000E-01	 1.00000000E+00
					 5.00000000E-01	 5.00000000E-01	 2.00000000E+00
					 5.00000000E-01	 5.00000000E-01	 3.00000000E+00
					 5.00000000E-01	 5.00000000E-01	 4.00000000E+00
					 5.00000000E-01	 5.00000000E-01	 5.00000000E+00
					 5.00000000E-01	 5.00000000E-01	 6.00000000E+00
					 5.00000000E-01	 5.00000000E-01	 7.00000000E+00
					 1.00000000E+00	 0.00000000E+00	 4.00000000E+00
					 0.00000000E+00	 0.00000000E+00	 4.00000000E+00
					 1.00000000E+00	 1.00000000E+00	 4.00000000E+00
					 0.00000000E+00	 1.00000000E+00	 4.00000000E+00
					 5.00000000E-01	 0.00000000E+00	 4.00000000E+00
					 1.00000000E+00	 5.00000000E-01	 4.00000000E+00
					 5.00000000E-01	 1.00000000E+00	 4.00000000E+00
					 0.00000000E+00	 5.00000000E-01	 4.00000000E+00
					 5.00000000E-01	 5.00000000E-01	 4.00000000E+00

				</DataArray>
			</Points>
			<Cells>
				<DataArray type="Int32" Name="connectivity" format="ascii">
					0 8 44 11 29 46 74 67 8 1 9 44 46 16 53 74 11 44 10 3 67 74 60 37 44 9 2 10 74 53 30 60 29 46 74 67 28 47 75 68 46 16 53 74 47 17 54 75 67 74 60 37 68 75 61 38 74 53 30 60 75 54 31 61 28 47 75 68 27 48 76 69 47 17 54 75 48 18 55 76 68 75 61 38 69 76 62 39 75 54 31 61 76 55 32 62 27 48 76 69 26 49 77 70 48 18 55 76 49 19 56 77 69 76 62 39 70 77 63 40 76 55 32 62 77 56 33 63 82 85 89 88 25 50 78 71 85 81 86 89 50 20 57 78 88 89 87 84 71 78 64 41 89 86 83 87 78 57 34 64 25 50 78 71 24 51 79 72 50 20 57 78 51 21 58 79 71 78 64 41 72 79 65 42 78 57 34 64 79 58 35 65 24 51 79 72 23 52 80 73 51 21 58 79 52 22 59 80 72 79 65 42 73 80 66 43 79 58 35 65 80 59 36 66 23 52 80 73 4 12 45 15 52 22 59 80 12 5 13 45 73 80 66 43 15 45 14 7 80 59 36 66 45 13 6 14 
				</DataArray>
				<DataArray type="Int32" Name="offsets" format="ascii">
					8 16 24 32 40 48 56 64 72 80 88 96 104 112 120 128 136 144 152 160 168 176 184 192 200 208 216 224 232 240 248 256 
				</DataArray>
				<DataArray type="UInt8" Name="types" format="ascii">
					12 12 12 12 12 12 12 12 12 12 12 12 12 12 12 12 12 12 12 12 12 12 12 12 12 12 12 12 12 12 12 12 
				</DataArray>
			</Cells>
			<PointData>
				<DataArray type="Float32" Name="U" NumberOfComponents="3" ComponentName0="D1" ComponentName1="D2" ComponentName2="D3" format="ascii">
					 0.00000000E+00	 0.00000000E+00	 0.00000000E+00
					 0.00000000E+00	 0.00000000E+00	 0.00000000E+00
					 0.00000000E+00	 0.00000000E+00	 0.00000000E+00
					 0.00000000E+00	 0.00000000E+00	 0.00000000E+00
					 5.15824000E+03	-2.83169000E+03	 5.12091000E+00
					 5.11425000E+03	-2.75075000E+03	-1.73115000E+01
					 5.15824000E+03	-2.83169000E+03	-5.12091000E+00
					 5.11425000E+03	-2.75075000E+03	 1.73115000E+01
					 0.00000000E+00	 0.00000000E+00	 0.00000000E+00
					 0.00000000E+00	 0.00000000E+00	 0.00000000E+00
					 0.00000000E+00	 0.00000000E+00	 0.00000000E+00
					 0.00000000E+00	 0.00000000E+00	 0.00000000E+00
					 5.15533000E+03	-2.77382000E+03	-2.71884000E+00
					 5.10423000E+03	-2.80159000E+03	-5.00305000E+00
					 5.15533000E+03	-2.77382000E+03	 2.71884000E+00
					 5.10423000E+03	-2.80159000E+03	 5.00305000E+00
					 7.82138000E+02	-4.62050000E+02	-3.33689000E+02
					 1.70292000E+03	-9.25479000E+02	-4.17376000E+02
					 2.63699000E+03	-1.42788000E+03	-3.92545000E+02
					 3.46423000E+03	-1.87494000E+03	-3.37965000E+02
					 4.14908000E+03	-2.24482000E+03	-2.68697000E+02
					 4.65981000E+03	-2.52246000E+03	-1.81931000E+02
					 4.98022000E+03	-2.69647000E+03	-9.98287000E+01
					 4.99559000E+03	-2.72474000E+03	 2.95303000E+01
					 4.67500000E+03	-2.55041000E+03	 5.38169000E+01
					 4.16440000E+03	-2.27303000E+03	 7.94833000E+01
					 3.47602000E+03	-1.89665000E+03	 9.99735000E+01
					 2.64494000E+03	-1.44251000E+03	 1.16119000E+02
					 1.70285000E+03	-9.25338000E+02	 1.23464000E+02
					 7.25058000E+02	-3.57014000E+02	 9.87084000E+01
					 7.25058000E+02	-3.57014000E+02	-9.87084000E+01
					 1.70285000E+03	-9.25338000E+02	-1.23464000E+02
					 2.64494000E+03	-1.44251000E+03	-1.16119000E+02
					 3.47602000E+03	-1.89665000E+03	-9.99735000E+01
					 4.16440000E+03	-2.27303000E+03	-7.94833000E+01
					 4.67500000E+03	-2.55041000E+03	-5.38169000E+01
					 4.99559000E+03	-2.72474000E+03	-2.95303000E+01
					 7.82138000E+02	-4.62050000E+02	 3.33689000E+02
					 1.70292000E+03	-9.25479000E+02	 4.17376000E+02
					 2.63699000E+03	-1.42788000E+03	 3.92545000E+02
					 3.46423000E+03	-1.87494000E+03	 3.37965000E+02
					 4.14908000E+03	-2.24482000E+03	 2.68697000E+02
					 4.65981000E+03	-2.52246000E+03	 1.81931000E+02
					 4.98022000E+03	-2.69647000E+03	 9.98287000E+01
					 0.00000000E+00	 0.00000000E+00	 0.00000000E+00
					 5.08477000E+03	-2.76325000E+03	 0.00000000E+00
					 7.18128000E+02	-4.20423000E+02	-1.17653000E+02
					 1.70826000E+03	-9.27230000E+02	-1.48477000E+02
					 2.64318000E+03	-1.43292000E+03	-1.38273000E+02
					 3.47605000E+03	-1.88313000E+03	-1.19539000E+02
					 4.16209000E+03	-2.25456000E+03	-9.33513000E+01
					 4.67670000E+03	-2.53354000E+03	-6.75727000E+01
					 4.98580000E+03	-2.70504000E+03	-2.89337000E+01
					 7.73638000E+02	-3.90256000E+02	-2.16499000E+02
					 1.70624000E+03	-9.28332000E+02	-2.73219000E+02
					 2.63677000E+03	-1.43640000E+03	-2.54442000E+02
					 3.46522000E+03	-1.88901000E+03	-2.19969000E+02
					 4.14872000E+03	-2.26183000E+03	-1.71780000E+02
					 4.66207000E+03	-2.54149000E+03	-1.24343000E+02
					 4.97766000E+03	-2.70947000E+03	-5.32421000E+01
					 7.18128000E+02	-4.20423000E+02	 1.17653000E+02
					 1.70826000E+03	-9.27230000E+02	 1.48477000E+02
					 2.64318000E+03	-1.43292000E+03	 1.38273000E+02
					 3.47605000E+03	-1.88313000E+03	 1.19539000E+02
					 4.16209000E+03	-2.25456000E+03	 9.33513000E+01
					 4.67670000E+03	-2.53354000E+03	 6.75727000E+01
					 4.98580000E+03	-2.70504000E+03	 2.89337000E+01
					 7.73638000E+02	-3.90256000E+02	 2.16499000E+02
					 1.70624000E+03	-9.28332000E+02	 2.73219000E+02
					 2.63677000E+03	-1.43640000E+03	 2.54442000E+02
					 3.46522000E+03	-1.88901000E+03	 2.19969000E+02
					 4.14872000E+03	-2.26183000E+03	 1.71780000E+02
					 4.66207000E+03	-2.54149000E+03	 1.24343000E+02
					 4.97766000E+03	-2.70947000E+03	 5.32421000E+01
					 7.38292000E+02	-4.01214000E+02	 0.00000000E+00
					 1.71144000E+03	-9.30060000E+02	 0.00000000E+00
					 2.63983000E+03	-1.43458000E+03	 0.00000000E+00
					 3.46957000E+03	-1.88549000E+03	 0.00000000E+00
					 4.15828000E+03	-2.25976000E+03	 0.00000000E+00
					 4.66196000E+03	-2.53348000E+03	 0.00000000E+00
					 5.00209000E+03	-2.71832000E+03	 0.00000000E+00
					 3.46423000E+03	-1.87494000E+03	-3.37965000E+02
					 3.47602000E+03	-1.89665000E+03	 9.99735000E+01
					 3.47602000E+03	-1.89665000E+03	-9.99735000E+01
					 3.46423000E+03	-1.87494000E+03	 3.37965000E+02
					 3.47605000E+03	-1.88313000E+03	-1.19539000E+02
					 3.46522000E+03	-1.88901000E+03	-2.19969000E+02
					 3.47605000E+03	-1.88313000E+03	 1.19539000E+02
					 3.46522000E+03	-1.88901000E+03	 2.19969000E+02
					 3.46957000E+03	-1.88549000E+03	 0.00000000E+00
				</DataArray>
			</PointData>
		</Piece>
	</UnstructuredGrid>
</VTKFile>