<?xml version="1.0"?>
<VTKFile type="UnstructuredGrid" version="0.1" byte_order="LittleEndian">
	<UnstructuredGrid>
		<Piece NumberOfPoints="81" NumberOfCells="32">
			<Points>
				<DataArray type="Float64" NumberOfComponents="3" format="ascii">
					 0.00000000E+00	 0.00000000E+00	 0.00000000E+00
					 1.00000000E+00	 0.00000000E+00	 0.00000000E+00
					 1.00000000E+00	 1.00000000E+00	 0.00000000E+00
					 0.00000000E+00	 1.00000000E+00	 0.00000000E+00
					 0.00000000E+00	 0.00000000E+00	 8.00000000E+00
					 1.00000000E+00	 0.00000000E+00	 8.00000000E+00
					 1.00000000E+00	 1.00000000E+00	 8.00000000E+00
					 0.00000000E+00	 1.00000000E+00	 8.00000000E+00
					 5.00000000E-01	 0.00000000E+00	 0.00000000E+00
					 1.00000000E+00	 5.00000000E-01	 0.00000000E+00
					 5.00000000E-01	 1.00000000E+00	 0.00000000E+00
					 0.00000000E+00	 5.00000000E-01	 0.00000000E+00
					 5.00000000E-01	 0.00000000E+00	 8.00000000E+00
					 1.00000000E+00	 5.00000000E-01	 8.00000000E+00
					 5.00000000E-01	 1.00000000E+00	 8.00000000E+00
					 0.00000000E+00	 5.00000000E-01	 8.00000000E+00
					 1.00000000E+00	 0.00000000E+00	 1.00000000E+00
					 1.00000000E+00	 0.00000000E+00	 2.00000000E+00
					 1.00000000E+00	 0.00000000E+00	 3.00000000E+00
					 1.00000000E+00	 0.00000000E+00	 4.00000000E+00
					 1.00000000E+00	 0.00000000E+00	 5.00000000E+00
					 1.00000000E+00	 0.00000000E+00	 6.00000000E+00
					 1.00000000E+00	 0.00000000E+00	 7.00000000E+00
					 0.00000000E+00	 0.00000000E+00	 7.00000000E+00
					 0.00000000E+00	 0.00000000E+00	 6.00000000E+00
					 0.00000000E+00	 0.00000000E+00	 5.00000000E+00
					 0.00000000E+00	 0.00000000E+00	 4.00000000E+00
					 0.00000000E+00	 0.00000000E+00	 3.00000000E+00
					 0.00000000E+00	 0.00000000E+00	 2.00000000E+00
					 0.00000000E+00	 0.00000000E+00	 1.00000000E+00
					 1.00000000E+00	 1.00000000E+00	 1.00000000E+00
					 1.00000000E+00	 1.00000000E+00	 2.00000000E+00
					 1.00000000E+00	 1.00000000E+00	 3.00000000E+00
					 1.00000000E+00	 1.00000000E+00	 4.00000000E+00
					 1.00000000E+00	 1.00000000E+00	 5.00000000E+00
					 1.00000000E+00	 1.00000000E+00	 6.00000000E+00
					 1.00000000E+00	 1.00000000E+00	 7.00000000E+00
					 0.00000000E+00	 1.00000000E+00	 1.00000000E+00
					 0.00000000E+00	 1.00000000E+00	 2.00000000E+00
					 0.00000000E+00	 1.00000000E+00	 3.00000000E+00
					 0.00000000E+00	 1.00000000E+00	 4.00000000E+00
					 0.00000000E+00	 1.00000000E+00	 5.00000000E+00
					 0.00000000E+00	 1.00000000E+00	 6.00000000E+00
					 0.00000000E+00	 1.00000000E+00	 7.00000000E+00
					 5.00000000E-01	 5.00000000E-01	 0.00000000E+00
					 5.00000000E-01	 5.00000000E-01	 8.00000000E+00
					 5.00000000E-01	 0.00000000E+00	 1.00000000E+00
					 5.00000000E-01	 0.00000000E+00	 2.00000000E+00
					 5.00000000E-01	 0.00000000E+00	 3.00000000E+00
					 5.00000000E-01	 0.00000000E+00	 4.00000000E+00
					 5.00000000E-01	 0.00000000E+00	 5.00000000E+00
					 5.00000000E-01	 0.00000000E+00	 6.00000000E+00
					 5.00000000E-01	 0.00000000E+00	 7.00000000E+00
					 1.00000000E+00	 5.00000000E-01	 1.00000000E+00
					 1.00000000E+00	 5.00000000E-01	 2.00000000E+00
					 1.00000000E+00	 5.00000000E-01	 3.00000000E+00
					 1.00000000E+00	 5.00000000E-01	 4.00000000E+00
					 1.00000000E+00	 5.00000000E-01	 5.00000000E+00
					 1.00000000E+00	 5.00000000E-01	 6.00000000E+00
					 1.00000000E+00	 5.00000000E-01	 7.00000000E+00
					 5.00000000E-01	 1.00000000E+00	 1.00000000E+00
					 5.00000000E-01	 1.00000000E+00	 2.00000000E+00
					 5.00000000E-01	 1.00000000E+00	 3.00000000E+00
					 5.00000000E-01	 1.00000000E+00	 4.00000000E+00
					 5.00000000E-01	 1.00000000E+00	 5.00000000E+00
					 5.00000000E-01	 1.00000000E+00	 6.00000000E+00
					 5.00000000E-01	 1.00000000E+00	 7.00000000E+00
					 0.00000000E+00	 5.00000000E-01	 1.00000000E+00
					 0.00000000E+00	 5.00000000E-01	 2.00000000E+00
					 0.00000000E+00	 5.00000000E-01	 3.00000000E+00
					 0.00000000E+00	 5.00000000E-01	 4.00000000E+00
					 0.00000000E+00	 5.00000000E-01	 5.00000000E+00
					 0.00000000E+00	 5.00000000E-01	 6.00000000E+00
					 0.00000000E+00	 5.00000000E-01	 7.00000000E+00
					 5.00000000E-01	 5.00000000E-01	 1.00000000E+00
					 5.00000000E-01	 5.00000000E-01	 2.00000000E+00
					 5.00000000E-01	 5.00000000E-01	 3.00000000E+00
					 5.00000000E-01	 5.00000000E-01	 4.00000000E+00
					 5.00000000E-01	 5.00000000E-01	 5.00000000E+00
					 5.00000000E-01	 5.00000000E-01	 6.00000000E+00
					 5.00000000E-01	 5.00000000E-01	 7.00000000E+00

				</DataArray>
			</Points>
			<Cells>
				<DataArray type="Int32" Name="connectivity" format="ascii">
					0 8 44 11 29 46 74 67 8 1 9 44 46 16 53 74 11 44 10 3 67 74 60 37 44 9 2 10 74 53 30 60 29 46 74 67 28 47 75 68 46 16 53 74 47 17 54 75 67 74 60 37 68 75 61 38 74 53 30 60 75 54 31 61 28 47 75 68 27 48 76 69 47 17 54 75 48 18 55 76 68 75 61 38 69 76 62 39 75 54 31 61 76 55 32 62 27 48 76 69 26 49 77 70 48 18 55 76 49 19 56 77 69 76 62 39 70 77 63 40 76 55 32 62 77 56 33 63 26 49 77 70 25 50 78 71 49 19 56 77 50 20 57 78 70 77 63 40 71 78 64 41 77 56 33 63 78 57 34 64 25 50 78 71 24 51 79 72 50 20 57 78 51 21 58 79 71 78 64 41 72 79 65 42 78 57 34 64 79 58 35 65 24 51 79 72 23 52 80 73 51 21 58 79 52 22 59 80 72 79 65 42 73 80 66 43 79 58 35 65 80 59 36 66 23 52 80 73 4 12 45 15 52 22 59 80 12 5 13 45 73 80 66 43 15 45 14 7 80 59 36 66 45 13 6 14 
				</DataArray>
				<DataArray type="Int32" Name="offsets" format="ascii">
					8 16 24 32 40 48 56 64 72 80 88 96 104 112 120 128 136 144 152 160 168 176 184 192 200 208 216 224 232 240 248 256 
				</DataArray>
				<DataArray type="UInt8" Name="types" format="ascii">
					12 12 12 12 12 12 12 12 12 12 12 12 12 12 12 12 12 12 12 12 12 12 12 12 12 12 12 12 12 12 12 12 
				</DataArray>
			</Cells>
			<PointData>
				<DataArray type="Float32" Name="SENFREQ" NumberOfComponents="2" ComponentName0="DFDN" ComponentName1="DFDNFIL" format="ascii">
					 0.00000000E+00	 0.00000000E+00
					 0.00000000E+00	 0.00000000E+00
					 0.00000000E+00	 0.00000000E+00
					 0.00000000E+00	 0.00000000E+00
					-1.48819000E+12	-2.74087000E-01
					-2.03808000E+12	-3.75361000E-01
					-1.48819000E+12	-2.74087000E-01
					-2.03808000E+12	-3.75361000E-01
					 0.00000000E+00	 0.00000000E+00
					 0.00000000E+00	 0.00000000E+00
					 0.00000000E+00	 0.00000000E+00
					 0.00000000E+00	 0.00000000E+00
					-1.54172000E+12	-2.83945000E-01
					-2.57256000E+12	-4.73799000E-01
					-1.54172000E+12	-2.83945000E-01
					-2.57256000E+12	-4.73799000E-01
					-9.29456000E+11	-1.71182000E-01
					-1.50114000E+12	-2.76472000E-01
					 1.18831000E+12	 2.18857000E-01
					 4.67252000E+11	 8.60557000E-02
					-1.51945000E+12	-2.79844000E-01
					 9.24985000E+11	 1.70358000E-01
					 8.71058000E+11	 1.60426000E-01
					 7.30926000E+11	 1.34618000E-01
					 9.44926000E+11	 1.74031000E-01
					-8.06557000E+11	-1.48547000E-01
					 6.02342000E+11	 1.10936000E-01
					 1.09970000E+12	 2.02537000E-01
					-9.98612000E+11	-1.83919000E-01
					-5.91533000E+11	-1.08945000E-01
					-5.91533000E+11	-1.08945000E-01
					-9.98612000E+11	-1.83919000E-01
					 1.09970000E+12	 2.02537000E-01
					 6.02342000E+11	 1.10936000E-01
					-8.06557000E+11	-1.48547000E-01
					 9.44926000E+11	 1.74031000E-01
					 7.30926000E+11	 1.34618000E-01
					-9.29456000E+11	-1.71182000E-01
					-1.50114000E+12	-2.76472000E-01
					 1.18831000E+12	 2.18857000E-01
					 4.67252000E+11	 8.60557000E-02
					-1.51945000E+12	-2.79844000E-01
					 9.24985000E+11	 1.70358000E-01
					 8.71058000E+11	 1.60426000E-01
					 0.00000000E+00	 0.00000000E+00
					-5.42964000E+12	-1.00000000E+00
					-1.15229000E+12	-2.12223000E-01
					-1.43715000E+12	-2.64686000E-01
					 1.52660000E+12	 2.81160000E-01
					 7.99500000E+11	 1.47247000E-01
					-1.27057000E+12	-2.34007000E-01
					 1.24114000E+12	 2.28585000E-01
					 1.32689000E+12	 2.44378000E-01
					-1.37761000E+12	-2.53720000E-01
					-2.20105000E+12	-4.05376000E-01
					 1.65972000E+12	 3.05678000E-01
					 6.20477000E+11	 1.14276000E-01
					-2.25284000E+12	-4.14914000E-01
					 1.15117000E+12	 2.12015000E-01
					 1.28316000E+12	 2.36325000E-01
					-1.15229000E+12	-2.12223000E-01
					-1.43715000E+12	-2.64686000E-01
					 1.52660000E+12	 2.81160000E-01
					 7.99500000E+11	 1.47247000E-01
					-1.27057000E+12	-2.34007000E-01
					 1.24114000E+12	 2.28585000E-01
					 1.32689000E+12	 2.44378000E-01
					-1.37761000E+12	-2.53720000E-01
					-2.20105000E+12	-4.05376000E-01
					 1.65972000E+12	 3.05678000E-01
					 6.20477000E+11	 1.14276000E-01
					-2.25284000E+12	-4.14914000E-01
					 1.15117000E+12	 2.12015000E-01
					 1.28316000E+12	 2.36325000E-01
					 0.00000000E+00	 0.00000000E+00
					 0.00000000E+00	 0.00000000E+00
					 0.00000000E+00	 0.00000000E+00
					 0.00000000E+00	 0.00000000E+00
					 0.00000000E+00	 0.00000000E+00
					 0.00000000E+00	 0.00000000E+00
					 0.00000000E+00	 0.00000000E+00
				</DataArray>
			</PointData>
		</Piece>
	</UnstructuredGrid>
</VTKFile>