<?xml version="1.0"?>
<VTKFile type="UnstructuredGrid" version="0.1" byte_order="LittleEndian">
	<UnstructuredGrid>
		<Piece NumberOfPoints="261" NumberOfCells="32">
			<Points>
				<DataArray type="Float64" NumberOfComponents="3" format="ascii">
					 0.00000000E+00	 0.00000000E+00	 0.00000000E+00
					 1.00000000E+00	 0.00000000E+00	 0.00000000E+00
					 1.00000000E+00	 1.00000000E+00	 0.00000000E+00
					 0.00000000E+00	 1.00000000E+00	 0.00000000E+00
					 0.00000000E+00	 0.00000000E+00	 8.00000000E+00
					 1.00000000E+00	 0.00000000E+00	 8.00000000E+00
					 1.00000000E+00	 1.00000000E+00	 8.00000000E+00
					 0.00000000E+00	 1.00000000E+00	 8.00000000E+00
					 2.50000000E-01	 0.00000000E+00	 0.00000000E+00
					 5.00000000E-01	 0.00000000E+00	 0.00000000E+00
					 7.50000000E-01	 0.00000000E+00	 0.00000000E+00
					 1.00000000E+00	 2.50000000E-01	 0.00000000E+00
					 1.00000000E+00	 5.00000000E-01	 0.00000000E+00
					 1.00000000E+00	 7.50000000E-01	 0.00000000E+00
					 7.50000000E-01	 1.00000000E+00	 0.00000000E+00
					 5.00000000E-01	 1.00000000E+00	 0.00000000E+00
					 2.50000000E-01	 1.00000000E+00	 0.00000000E+00
					 0.00000000E+00	 7.50000000E-01	 0.00000000E+00
					 0.00000000E+00	 5.00000000E-01	 0.00000000E+00
					 0.00000000E+00	 2.50000000E-01	 0.00000000E+00
					 2.50000000E-01	 0.00000000E+00	 8.00000000E+00
					 5.00000000E-01	 0.00000000E+00	 8.00000000E+00
					 7.50000000E-01	 0.00000000E+00	 8.00000000E+00
					 1.00000000E+00	 2.50000000E-01	 8.00000000E+00
					 1.00000000E+00	 5.00000000E-01	 8.00000000E+00
					 1.00000000E+00	 7.50000000E-01	 8.00000000E+00
					 7.50000000E-01	 1.00000000E+00	 8.00000000E+00
					 5.00000000E-01	 1.00000000E+00	 8.00000000E+00
					 2.50000000E-01	 1.00000000E+00	 8.00000000E+00
					 0.00000000E+00	 7.50000000E-01	 8.00000000E+00
					 0.00000000E+00	 5.00000000E-01	 8.00000000E+00
					 0.00000000E+00	 2.50000000E-01	 8.00000000E+00
					 1.00000000E+00	 0.00000000E+00	 5.00000000E-01
					 1.00000000E+00	 0.00000000E+00	 1.00000000E+00
					 1.00000000E+00	 0.00000000E+00	 1.50000000E+00
					 1.00000000E+00	 0.00000000E+00	 2.00000000E+00
					 1.00000000E+00	 0.00000000E+00	 2.50000000E+00
					 1.00000000E+00	 0.00000000E+00	 3.00000000E+00
					 1.00000000E+00	 0.00000000E+00	 3.50000000E+00
					 1.00000000E+00	 0.00000000E+00	 4.00000000E+00
					 1.00000000E+00	 0.00000000E+00	 4.50000000E+00
					 1.00000000E+00	 0.00000000E+00	 5.00000000E+00
					 1.00000000E+00	 0.00000000E+00	 5.50000000E+00
					 1.00000000E+00	 0.00000000E+00	 6.00000000E+00
					 1.00000000E+00	 0.00000000E+00	 6.50000000E+00
					 1.00000000E+00	 0.00000000E+00	 7.00000000E+00
					 1.00000000E+00	 0.00000000E+00	 7.50000000E+00
					 0.00000000E+00	 0.00000000E+00	 7.50000000E+00
					 0.00000000E+00	 0.00000000E+00	 7.00000000E+00
					 0.00000000E+00	 0.00000000E+00	 6.50000000E+00
					 0.00000000E+00	 0.00000000E+00	 6.00000000E+00
					 0.00000000E+00	 0.00000000E+00	 5.50000000E+00
					 0.00000000E+00	 0.00000000E+00	 5.00000000E+00
					 0.00000000E+00	 0.00000000E+00	 4.50000000E+00
					 0.00000000E+00	 0.00000000E+00	 4.00000000E+00
					 0.00000000E+00	 0.00000000E+00	 3.50000000E+00
					 0.00000000E+00	 0.00000000E+00	 3.00000000E+00
					 0.00000000E+00	 0.00000000E+00	 2.50000000E+00
					 0.00000000E+00	 0.00000000E+00	 2.00000000E+00
					 0.00000000E+00	 0.00000000E+00	 1.50000000E+00
					 0.00000000E+00	 0.00000000E+00	 1.00000000E+00
					 0.00000000E+00	 0.00000000E+00	 5.00000000E-01
					 1.00000000E+00	 1.00000000E+00	 5.00000000E-01
					 1.00000000E+00	 1.00000000E+00	 1.00000000E+00
					 1.00000000E+00	 1.00000000E+00	 1.50000000E+00
					 1.00000000E+00	 1.00000000E+00	 2.00000000E+00
					 1.00000000E+00	 1.00000000E+00	 2.50000000E+00
					 1.00000000E+00	 1.00000000E+00	 3.00000000E+00
					 1.00000000E+00	 1.00000000E+00	 3.50000000E+00
					 1.00000000E+00	 1.00000000E+00	 4.00000000E+00
					 1.00000000E+00	 1.00000000E+00	 4.50000000E+00
					 1.00000000E+00	 1.00000000E+00	 5.00000000E+00
					 1.00000000E+00	 1.00000000E+00	 5.50000000E+00
					 1.00000000E+00	 1.00000000E+00	 6.00000000E+00
					 1.00000000E+00	 1.00000000E+00	 6.50000000E+00
					 1.00000000E+00	 1.00000000E+00	 7.00000000E+00
					 1.00000000E+00	 1.00000000E+00	 7.50000000E+00
					 0.00000000E+00	 1.00000000E+00	 5.00000000E-01
					 0.00000000E+00	 1.00000000E+00	 1.00000000E+00
					 0.00000000E+00	 1.00000000E+00	 1.50000000E+00
					 0.00000000E+00	 1.00000000E+00	 2.00000000E+00
					 0.00000000E+00	 1.00000000E+00	 2.50000000E+00
					 0.00000000E+00	 1.00000000E+00	 3.00000000E+00
					 0.00000000E+00	 1.00000000E+00	 3.50000000E+00
					 0.00000000E+00	 1.00000000E+00	 4.00000000E+00
					 0.00000000E+00	 1.00000000E+00	 4.50000000E+00
					 0.00000000E+00	 1.00000000E+00	 5.00000000E+00
					 0.00000000E+00	 1.00000000E+00	 5.50000000E+00
					 0.00000000E+00	 1.00000000E+00	 6.00000000E+00
					 0.00000000E+00	 1.00000000E+00	 6.50000000E+00
					 0.00000000E+00	 1.00000000E+00	 7.00000000E+00
					 0.00000000E+00	 1.00000000E+00	 7.50000000E+00
					 5.00000000E-01	 2.50000000E-01	 0.00000000E+00
					 2.50000000E-01	 5.00000000E-01	 0.00000000E+00
					 5.00000000E-01	 5.00000000E-01	 0.00000000E+00
					 7.50000000E-01	 5.00000000E-01	 0.00000000E+00
					 5.00000000E-01	 7.50000000E-01	 0.00000000E+00
					 5.00000000E-01	 2.50000000E-01	 8.00000000E+00
					 2.50000000E-01	 5.00000000E-01	 8.00000000E+00
					 5.00000000E-01	 5.00000000E-01	 8.00000000E+00
					 7.50000000E-01	 5.00000000E-01	 8.00000000E+00
					 5.00000000E-01	 7.50000000E-01	 8.00000000E+00
					 5.00000000E-01	 0.00000000E+00	 5.00000000E-01
					 2.50000000E-01	 0.00000000E+00	 1.00000000E+00
					 5.00000000E-01	 0.00000000E+00	 1.00000000E+00
					 7.50000000E-01	 0.00000000E+00	 1.00000000E+00
					 5.00000000E-01	 0.00000000E+00	 1.50000000E+00
					 2.50000000E-01	 0.00000000E+00	 2.00000000E+00
					 5.00000000E-01	 0.00000000E+00	 2.00000000E+00
					 7.50000000E-01	 0.00000000E+00	 2.00000000E+00
					 5.00000000E-01	 0.00000000E+00	 2.50000000E+00
					 2.50000000E-01	 0.00000000E+00	 3.00000000E+00
					 5.00000000E-01	 0.00000000E+00	 3.00000000E+00
					 7.50000000E-01	 0.00000000E+00	 3.00000000E+00
					 5.00000000E-01	 0.00000000E+00	 3.50000000E+00
					 2.50000000E-01	 0.00000000E+00	 4.00000000E+00
					 5.00000000E-01	 0.00000000E+00	 4.00000000E+00
					 7.50000000E-01	 0.00000000E+00	 4.00000000E+00
					 5.00000000E-01	 0.00000000E+00	 4.50000000E+00
					 2.50000000E-01	 0.00000000E+00	 5.00000000E+00
					 5.00000000E-01	 0.00000000E+00	 5.00000000E+00
					 7.50000000E-01	 0.00000000E+00	 5.00000000E+00
					 5.00000000E-01	 0.00000000E+00	 5.50000000E+00
					 2.50000000E-01	 0.00000000E+00	 6.00000000E+00
					 5.00000000E-01	 0.00000000E+00	 6.00000000E+00
					 7.50000000E-01	 0.00000000E+00	 6.00000000E+00
					 5.00000000E-01	 0.00000000E+00	 6.50000000E+00
					 2.50000000E-01	 0.00000000E+00	 7.00000000E+00
					 5.00000000E-01	 0.00000000E+00	 7.00000000E+00
					 7.50000000E-01	 0.00000000E+00	 7.00000000E+00
					 5.00000000E-01	 0.00000000E+00	 7.50000000E+00
					 1.00000000E+00	 5.00000000E-01	 5.00000000E-01
					 1.00000000E+00	 2.50000000E-01	 1.00000000E+00
					 1.00000000E+00	 5.00000000E-01	 1.00000000E+00
					 1.00000000E+00	 7.50000000E-01	 1.00000000E+00
					 1.00000000E+00	 5.00000000E-01	 1.50000000E+00
					 1.00000000E+00	 2.50000000E-01	 2.00000000E+00
					 1.00000000E+00	 5.00000000E-01	 2.00000000E+00
					 1.00000000E+00	 7.50000000E-01	 2.00000000E+00
					 1.00000000E+00	 5.00000000E-01	 2.50000000E+00
					 1.00000000E+00	 2.50000000E-01	 3.00000000E+00
					 1.00000000E+00	 5.00000000E-01	 3.00000000E+00
					 1.00000000E+00	 7.50000000E-01	 3.00000000E+00
					 1.00000000E+00	 5.00000000E-01	 3.50000000E+00
					 1.00000000E+00	 2.50000000E-01	 4.00000000E+00
					 1.00000000E+00	 5.00000000E-01	 4.00000000E+00
					 1.00000000E+00	 7.50000000E-01	 4.00000000E+00
					 1.00000000E+00	 5.00000000E-01	 4.50000000E+00
					 1.00000000E+00	 2.50000000E-01	 5.00000000E+00
					 1.00000000E+00	 5.00000000E-01	 5.00000000E+00
					 1.00000000E+00	 7.50000000E-01	 5.00000000E+00
					 1.00000000E+00	 5.00000000E-01	 5.50000000E+00
					 1.00000000E+00	 2.50000000E-01	 6.00000000E+00
					 1.00000000E+00	 5.00000000E-01	 6.00000000E+00
					 1.00000000E+00	 7.50000000E-01	 6.00000000E+00
					 1.00000000E+00	 5.00000000E-01	 6.50000000E+00
					 1.00000000E+00	 2.50000000E-01	 7.00000000E+00
					 1.00000000E+00	 5.00000000E-01	 7.00000000E+00
					 1.00000000E+00	 7.50000000E-01	 7.00000000E+00
					 1.00000000E+00	 5.00000000E-01	 7.50000000E+00
					 5.00000000E-01	 1.00000000E+00	 5.00000000E-01
					 7.50000000E-01	 1.00000000E+00	 1.00000000E+00
					 5.00000000E-01	 1.00000000E+00	 1.00000000E+00
					 2.50000000E-01	 1.00000000E+00	 1.00000000E+00
					 5.00000000E-01	 1.00000000E+00	 1.50000000E+00
					 7.50000000E-01	 1.00000000E+00	 2.00000000E+00
					 5.00000000E-01	 1.00000000E+00	 2.00000000E+00
					 2.50000000E-01	 1.00000000E+00	 2.00000000E+00
					 5.00000000E-01	 1.00000000E+00	 2.50000000E+00
					 7.50000000E-01	 1.00000000E+00	 3.00000000E+00
					 5.00000000E-01	 1.00000000E+00	 3.00000000E+00
					 2.50000000E-01	 1.00000000E+00	 3.00000000E+00
					 5.00000000E-01	 1.00000000E+00	 3.50000000E+00
					 7.50000000E-01	 1.00000000E+00	 4.00000000E+00
					 5.00000000E-01	 1.00000000E+00	 4.00000000E+00
					 2.50000000E-01	 1.00000000E+00	 4.00000000E+00
					 5.00000000E-01	 1.00000000E+00	 4.50000000E+00
					 7.50000000E-01	 1.00000000E+00	 5.00000000E+00
					 5.00000000E-01	 1.00000000E+00	 5.00000000E+00
					 2.50000000E-01	 1.00000000E+00	 5.00000000E+00
					 5.00000000E-01	 1.00000000E+00	 5.50000000E+00
					 7.50000000E-01	 1.00000000E+00	 6.00000000E+00
					 5.00000000E-01	 1.00000000E+00	 6.00000000E+00
					 2.50000000E-01	 1.00000000E+00	 6.00000000E+00
					 5.00000000E-01	 1.00000000E+00	 6.50000000E+00
					 7.50000000E-01	 1.00000000E+00	 7.00000000E+00
					 5.00000000E-01	 1.00000000E+00	 7.00000000E+00
					 2.50000000E-01	 1.00000000E+00	 7.00000000E+00
					 5.00000000E-01	 1.00000000E+00	 7.50000000E+00
					 0.00000000E+00	 5.00000000E-01	 5.00000000E-01
					 0.00000000E+00	 7.50000000E-01	 1.00000000E+00
					 0.00000000E+00	 5.00000000E-01	 1.00000000E+00
					 0.00000000E+00	 2.50000000E-01	 1.00000000E+00
					 0.00000000E+00	 5.00000000E-01	 1.50000000E+00
					 0.00000000E+00	 7.50000000E-01	 2.00000000E+00
					 0.00000000E+00	 5.00000000E-01	 2.00000000E+00
					 0.00000000E+00	 2.50000000E-01	 2.00000000E+00
					 0.00000000E+00	 5.00000000E-01	 2.50000000E+00
					 0.00000000E+00	 7.50000000E-01	 3.00000000E+00
					 0.00000000E+00	 5.00000000E-01	 3.00000000E+00
					 0.00000000E+00	 2.50000000E-01	 3.00000000E+00
					 0.00000000E+00	 5.00000000E-01	 3.50000000E+00
					 0.00000000E+00	 7.50000000E-01	 4.00000000E+00
					 0.00000000E+00	 5.00000000E-01	 4.00000000E+00
					 0.00000000E+00	 2.50000000E-01	 4.00000000E+00
					 0.00000000E+00	 5.00000000E-01	 4.50000000E+00
					 0.00000000E+00	 7.50000000E-01	 5.00000000E+00
					 0.00000000E+00	 5.00000000E-01	 5.00000000E+00
					 0.00000000E+00	 2.50000000E-01	 5.00000000E+00
					 0.00000000E+00	 5.00000000E-01	 5.50000000E+00
					 0.00000000E+00	 7.50000000E-01	 6.00000000E+00
					 0.00000000E+00	 5.00000000E-01	 6.00000000E+00
					 0.00000000E+00	 2.50000000E-01	 6.00000000E+00
					 0.00000000E+00	 5.00000000E-01	 6.50000000E+00
					 0.00000000E+00	 7.50000000E-01	 7.00000000E+00
					 0.00000000E+00	 5.00000000E-01	 7.00000000E+00
					 0.00000000E+00	 2.50000000E-01	 7.00000000E+00
					 0.00000000E+00	 5.00000000E-01	 7.50000000E+00
					 5.00000000E-01	 5.00000000E-01	 5.00000000E-01
					 5.00000000E-01	 2.50000000E-01	 1.00000000E+00
					 2.50000000E-01	 5.00000000E-01	 1.00000000E+00
					 5.00000000E-01	 5.00000000E-01	 1.00000000E+00
					 7.50000000E-01	 5.00000000E-01	 1.00000000E+00
					 5.00000000E-01	 7.50000000E-01	 1.00000000E+00
					 5.00000000E-01	 5.00000000E-01	 1.50000000E+00
					 5.00000000E-01	 2.50000000E-01	 2.00000000E+00
					 2.50000000E-01	 5.00000000E-01	 2.00000000E+00
					 5.00000000E-01	 5.00000000E-01	 2.00000000E+00
					 7.50000000E-01	 5.00000000E-01	 2.00000000E+00
					 5.00000000E-01	 7.50000000E-01	 2.00000000E+00
					 5.00000000E-01	 5.00000000E-01	 2.50000000E+00
					 5.00000000E-01	 2.50000000E-01	 3.00000000E+00
					 2.50000000E-01	 5.00000000E-01	 3.00000000E+00
					 5.00000000E-01	 5.00000000E-01	 3.00000000E+00
					 7.50000000E-01	 5.00000000E-01	 3.00000000E+00
					 5.00000000E-01	 7.50000000E-01	 3.00000000E+00
					 5.00000000E-01	 5.00000000E-01	 3.50000000E+00
					 5.00000000E-01	 2.50000000E-01	 4.00000000E+00
					 2.50000000E-01	 5.00000000E-01	 4.00000000E+00
					 5.00000000E-01	 5.00000000E-01	 4.00000000E+00
					 7.50000000E-01	 5.00000000E-01	 4.00000000E+00
					 5.00000000E-01	 7.50000000E-01	 4.00000000E+00
					 5.00000000E-01	 5.00000000E-01	 4.50000000E+00
					 5.00000000E-01	 2.50000000E-01	 5.00000000E+00
					 2.50000000E-01	 5.00000000E-01	 5.00000000E+00
					 5.00000000E-01	 5.00000000E-01	 5.00000000E+00
					 7.50000000E-01	 5.00000000E-01	 5.00000000E+00
					 5.00000000E-01	 7.50000000E-01	 5.00000000E+00
					 5.00000000E-01	 5.00000000E-01	 5.50000000E+00
					 5.00000000E-01	 2.50000000E-01	 6.00000000E+00
					 2.50000000E-01	 5.00000000E-01	 6.00000000E+00
					 5.00000000E-01	 5.00000000E-01	 6.00000000E+00
					 7.50000000E-01	 5.00000000E-01	 6.00000000E+00
					 5.00000000E-01	 7.50000000E-01	 6.00000000E+00
					 5.00000000E-01	 5.00000000E-01	 6.50000000E+00
					 5.00000000E-01	 2.50000000E-01	 7.00000000E+00
					 2.50000000E-01	 5.00000000E-01	 7.00000000E+00
					 5.00000000E-01	 5.00000000E-01	 7.00000000E+00
					 7.50000000E-01	 5.00000000E-01	 7.00000000E+00
					 5.00000000E-01	 7.50000000E-01	 7.00000000E+00
					 5.00000000E-01	 5.00000000E-01	 7.50000000E+00

				</DataArray>
			</Points>
			<Cells>
				<DataArray type="Int32" Name="connectivity" format="ascii">
					0 9 94 18 60 104 221 191 8 92 93 19 103 219 220 192 61 102 218 189 9 1 12 94 104 33 133 221 10 11 95 92 105 132 222 219 102 32 131 218 18 94 15 3 191 221 162 78 93 96 16 17 220 223 163 190 189 218 160 77 94 12 2 15 221 133 63 162 95 13 14 96 222 134 161 223 218 131 62 160 60 104 221 191 58 108 227 195 103 219 220 192 107 225 226 196 59 106 224 193 104 33 133 221 108 35 137 227 105 132 222 219 109 136 228 225 106 34 135 224 191 221 162 78 195 227 166 80 220 223 163 190 226 229 167 194 193 224 164 79 221 133 63 162 227 137 65 166 222 134 161 223 228 138 165 229 224 135 64 164 58 108 227 195 56 112 233 199 107 225 226 196 111 231 232 200 57 110 230 197 108 35 137 227 112 37 141 233 109 136 228 225 113 140 234 231 110 36 139 230 195 227 166 80 199 233 170 82 226 229 167 194 232 235 171 198 197 230 168 81 227 137 65 166 233 141 67 170 228 138 165 229 234 142 169 235 230 139 66 168 56 112 233 199 54 116 239 203 111 231 232 200 115 237 238 204 55 114 236 201 112 37 141 233 116 39 145 239 113 140 234 231 117 144 240 237 114 38 143 236 199 233 170 82 203 239 174 84 232 235 171 198 238 241 175 202 201 236 172 83 233 141 67 170 239 145 69 174 234 142 169 235 240 146 173 241 236 143 68 172 54 116 239 203 52 120 245 207 115 237 238 204 119 243 244 208 53 118 242 205 116 39 145 239 120 41 149 245 117 144 240 237 121 148 246 243 118 40 147 242 203 239 174 84 207 245 178 86 238 241 175 202 244 247 179 206 205 242 176 85 239 145 69 174 245 149 71 178 240 146 173 241 246 150 177 247 242 147 70 176 52 120 245 207 50 124 251 211 119 243 244 208 123 249 250 212 51 122 248 209 120 41 149 245 124 43 153 251 121 148 246 243 125 152 252 249 122 42 151 248 207 245 178 86 211 251 182 88 244 247 179 206 250 253 183 210 209 248 180 87 245 149 71 178 251 153 73 182 246 150 177 247 252 154 181 253 248 151 72 180 50 124 251 211 48 128 257 215 123 249 250 212 127 255 256 216 49 126 254 213 124 43 153 251 128 45 157 257 125 152 252 249 129 156 258 255 126 44 155 254 211 251 182 88 215 257 186 90 250 253 183 210 256 259 187 214 213 254 184 89 251 153 73 182 257 157 75 186 252 154 181 253 258 158 185 259 254 155 74 184 48 128 257 215 4 21 99 30 127 255 256 216 20 97 98 31 47 130 260 217 128 45 157 257 21 5 24 99 129 156 258 255 22 23 100 97 130 46 159 260 215 257 186 90 30 99 27 7 256 259 187 214 98 101 28 29 217 260 188 91 257 157 75 186 99 24 6 27 258 158 185 259 100 25 26 101 260 159 76 188 
				</DataArray>
				<DataArray type="Int32" Name="offsets" format="ascii">
					20 40 60 80 100 120 140 160 180 200 220 240 260 280 300 320 340 360 380 400 420 440 460 480 500 520 540 560 580 600 620 640 
				</DataArray>
				<DataArray type="UInt8" Name="types" format="ascii">
					25 25 25 25 25 25 25 25 25 25 25 25 25 25 25 25 25 25 25 25 25 25 25 25 25 25 25 25 25 25 25 25 
				</DataArray>
			</Cells>
			<PointData>
				<DataArray type="Float32" Name="U" NumberOfComponents="3" ComponentName0="D1" ComponentName1="D2" ComponentName2="D3" format="ascii">
					 0.00000000E+00	 0.00000000E+00	 0.00000000E+00
					 0.00000000E+00	 0.00000000E+00	 0.00000000E+00
					 0.00000000E+00	 0.00000000E+00	 0.00000000E+00
					 0.00000000E+00	 0.00000000E+00	 0.00000000E+00
					 4.70329000E-05	 9.58580000E-04	 3.61230000E-04
					-5.09168000E-05	 9.55080000E-04	 3.60513000E-04
					 4.98187000E-05	 9.58955000E-04	-3.63123000E-04
					-4.71144000E-05	 9.58991000E-04	-3.62364000E-04
					 0.00000000E+00	 0.00000000E+00	 0.00000000E+00
					 0.00000000E+00	 0.00000000E+00	 0.00000000E+00
					 0.00000000E+00	 0.00000000E+00	 0.00000000E+00
					 0.00000000E+00	 0.00000000E+00	 0.00000000E+00
					 0.00000000E+00	 0.00000000E+00	 0.00000000E+00
					 0.00000000E+00	 0.00000000E+00	 0.00000000E+00
					 0.00000000E+00	 0.00000000E+00	 0.00000000E+00
					 0.00000000E+00	 0.00000000E+00	 0.00000000E+00
					 0.00000000E+00	 0.00000000E+00	 0.00000000E+00
					 0.00000000E+00	 0.00000000E+00	 0.00000000E+00
					 0.00000000E+00	 0.00000000E+00	 0.00000000E+00
					 0.00000000E+00	 0.00000000E+00	 0.00000000E+00
					 3.90097000E-05	 9.99707000E-04	 3.61923000E-04
					-1.76790000E-06	 9.05474000E-04	 3.59083000E-04
					-4.26377000E-05	 9.98062000E-04	 3.61246000E-04
					-3.80796000E-06	 9.26756000E-04	 1.56889000E-04
					 1.50991000E-07	 8.72294000E-04	-5.02827000E-07
					 2.77391000E-06	 9.28854000E-04	-1.57477000E-04
					 4.21603000E-05	 9.99461000E-04	-3.63864000E-04
					 1.52558000E-06	 9.03078000E-04	-3.59946000E-04
					-3.93275000E-05	 9.98710000E-04	-3.62945000E-04
					-2.11943000E-06	 9.31692000E-04	-1.58505000E-04
					-3.31055000E-07	 8.78197000E-04	-6.40357000E-07
					 1.87320000E-06	 9.31466000E-04	 1.57446000E-04
					 1.13014000E-08	 1.51769000E-07	-1.02627000E-07
					 9.30210000E-09	 4.83923000E-07	-4.00062000E-07
					 8.23294000E-08	-4.88919000E-07	-1.30719000E-06
					 2.64780000E-08	-1.13961000E-06	-2.33531000E-06
					 4.00045000E-08	-5.45432000E-06	-4.23120000E-06
					-3.48678000E-07	-8.61810000E-06	-5.52632000E-06
					-7.54630000E-07	-1.94789000E-05	-7.37719000E-06
					-2.26045000E-06	-2.49307000E-05	-5.65186000E-06
					-4.52601000E-06	-4.14462000E-05	-2.23087000E-06
					-8.53153000E-06	-3.57972000E-05	 1.33583000E-05
					-1.37762000E-05	-4.25155000E-05	 3.58678000E-05
					-1.81677000E-05	 1.81122000E-05	 8.60003000E-05
					-2.98704000E-05	 9.13859000E-05	 1.41945000E-04
					-2.23789000E-05	 3.25791000E-04	 2.44463000E-04
					-5.02087000E-05	 5.46650000E-04	 3.22966000E-04
					 4.63149000E-05	 5.50555000E-04	 3.23462000E-04
					 1.55708000E-05	 3.33476000E-04	 2.44902000E-04
					 2.10681000E-05	 1.00747000E-04	 1.42000000E-04
					 8.76414000E-06	 2.72773000E-05	 8.57828000E-05
					 5.84961000E-06	-3.40833000E-05	 3.58593000E-05
					 2.51835000E-06	-3.01415000E-05	 1.31852000E-05
					 4.34333000E-07	-3.73146000E-05	-2.30236000E-06
					-6.92587000E-07	-2.20609000E-05	-5.75190000E-06
					-1.27624000E-06	-1.73444000E-05	-7.39692000E-06
					-1.11526000E-06	-7.15170000E-06	-5.53757000E-06
					-1.04554000E-06	-4.38284000E-06	-4.21504000E-06
					-7.42257000E-07	-4.17637000E-07	-2.32786000E-06
					-5.53493000E-07	 6.83731000E-09	-1.29557000E-06
					-2.98322000E-07	 7.71500000E-07	-3.95543000E-07
					-1.37983000E-07	 2.83284000E-07	-9.81249000E-08
					 6.12657000E-09	 1.68430000E-07	 5.35992000E-08
					 9.17152000E-09	 4.98072000E-07	 3.01994000E-07
					-4.86394000E-08	-4.72570000E-07	 1.15203000E-06
					 2.06435000E-08	-1.11708000E-06	 2.12453000E-06
					 2.86515000E-08	-5.43802000E-06	 3.95187000E-06
					 4.37817000E-07	-8.58322000E-06	 5.18912000E-06
					 8.58926000E-07	-1.94766000E-05	 6.97676000E-06
					 2.35782000E-06	-2.48441000E-05	 5.22767000E-06
					 4.49187000E-06	-4.14584000E-05	 1.69959000E-06
					 8.32439000E-06	-3.54596000E-05	-1.39869000E-05
					 1.33615000E-05	-4.26507000E-05	-3.64468000E-05
					 1.74845000E-05	 1.91366000E-05	-8.64909000E-05
					 2.90311000E-05	 9.09936000E-05	-1.42779000E-04
					 2.01223000E-05	 3.30743000E-04	-2.47822000E-04
					 5.11810000E-05	 5.42946000E-04	-3.25559000E-04
					 1.24523000E-07	 2.97501000E-07	 5.63189000E-08
					 2.89953000E-07	 7.83950000E-07	 3.10407000E-07
					 5.55642000E-07	 2.11287000E-08	 1.16141000E-06
					 7.48682000E-07	-3.95980000E-07	 2.13956000E-06
					 1.08079000E-06	-4.36315000E-06	 3.96322000E-06
					 1.13616000E-06	-7.11394000E-06	 5.20000000E-06
					 1.33483000E-06	-1.73191000E-05	 6.94259000E-06
					 6.55760000E-07	-2.19837000E-05	 5.15929000E-06
					-4.28342000E-07	-3.72322000E-05	 1.54246000E-06
					-2.93118000E-06	-3.00543000E-05	-1.41247000E-05
					-6.52109000E-06	-3.50053000E-05	-3.67900000E-05
					-9.75202000E-06	 2.68829000E-05	-8.68694000E-05
					-2.14644000E-05	 1.00284000E-04	-1.42843000E-04
					-1.47123000E-05	 3.34163000E-04	-2.45741000E-04
					-4.67067000E-05	 5.49856000E-04	-3.24452000E-04
					 0.00000000E+00	 0.00000000E+00	 0.00000000E+00
					 0.00000000E+00	 0.00000000E+00	 0.00000000E+00
					 0.00000000E+00	 0.00000000E+00	 0.00000000E+00
					 0.00000000E+00	 0.00000000E+00	 0.00000000E+00
					 0.00000000E+00	 0.00000000E+00	 0.00000000E+00
					-9.89865000E-07	 1.15300000E-03	 2.09230000E-04
					-1.18016000E-07	 1.05889000E-03	-6.65433000E-07
					-1.42620000E-07	 1.44492000E-03	-9.30173000E-07
					-2.02658000E-07	 1.05560000E-03	-4.18438000E-07
					 7.53516000E-07	 1.15182000E-03	-2.11023000E-04
					-6.80168000E-08	 3.04912000E-07	-2.22967000E-08
					-2.22564000E-07	 3.42800000E-07	-4.29447000E-07
					-1.42751000E-07	-4.23957000E-08	-5.30345000E-07
					-6.45046000E-08	 1.98229000E-07	-4.62599000E-07
					-2.38734000E-07	 7.34327000E-08	-1.18877000E-06
					-5.38218000E-07	-1.56405000E-06	-2.45787000E-06
					-3.49644000E-07	-2.62171000E-06	-2.64935000E-06
					-1.69320000E-07	-1.92442000E-06	-2.49964000E-06
					-5.14392000E-07	-4.02052000E-06	-3.97943000E-06
					-9.31776000E-07	-9.76333000E-06	-5.91409000E-06
					-7.15759000E-07	-1.21432000E-05	-6.37439000E-06
					-5.14426000E-07	-1.05018000E-05	-5.98439000E-06
					-1.02761000E-06	-1.56533000E-05	-7.09537000E-06
					-9.76151000E-07	-2.70868000E-05	-7.03774000E-06
					-1.41325000E-06	-3.25092000E-05	-8.10342000E-06
					-1.91188000E-06	-2.85058000E-05	-7.11672000E-06
					-2.12105000E-06	-3.17814000E-05	-1.02405000E-06
					-4.67012000E-07	-4.14262000E-05	 1.01733000E-05
					-2.95657000E-06	-5.26563000E-05	 7.61268000E-06
					-5.48793000E-06	-4.43283000E-05	 9.95731000E-06
					-4.04992000E-06	-1.71386000E-05	 3.67090000E-05
					 2.86133000E-06	 9.52224000E-06	 7.58410000E-05
					-4.56983000E-06	-1.80076000E-05	 6.76635000E-05
					-1.21629000E-05	 4.71973000E-06	 7.58799000E-05
					-4.82426000E-06	 1.37614000E-04	 1.59194000E-04
					 3.49549000E-06	 2.76757000E-04	 2.32281000E-04
					-3.50986000E-06	 2.36694000E-04	 2.22935000E-04
					-1.04639000E-05	 2.72484000E-04	 2.32592000E-04
					-2.27033000E-06	 6.64488000E-04	 3.31766000E-04
					 8.69046000E-09	 2.94554000E-07	-2.28528000E-08
					 9.97655000E-09	 3.05706000E-07	-2.82027000E-07
					 1.08356000E-08	 9.29897000E-08	-5.02665000E-08
					 1.02708000E-08	 3.12885000E-07	 1.82761000E-07
					 1.60928000E-08	 4.44499000E-08	-7.67259000E-08
					 2.19506000E-08	-1.64086000E-06	-1.26095000E-06
					 2.63528000E-08	-2.25850000E-06	-1.08586000E-07
					 2.78791000E-08	-1.62995000E-06	 1.04784000E-06
					 3.28326000E-08	-4.30240000E-06	-1.35754000E-07
					-1.59482000E-07	-1.00909000E-05	-2.74884000E-06
					 4.61794000E-08	-1.16823000E-05	-1.73216000E-07
					 2.51024000E-07	-1.00726000E-05	 2.40496000E-06
					 4.74699000E-08	-1.72617000E-05	-1.97050000E-07
					-1.13212000E-06	-2.87107000E-05	-2.22397000E-06
					 4.90763000E-08	-3.25039000E-05	-2.45932000E-07
					 1.22242000E-06	-2.86682000E-05	 1.76709000E-06
					-5.61874000E-09	-3.83452000E-05	-2.26517000E-07
					-4.37337000E-06	-4.71906000E-05	 8.56927000E-06
					-5.44979000E-08	-5.69449000E-05	-2.71814000E-07
					 4.24152000E-06	-4.70154000E-05	-9.16536000E-06
					-1.66301000E-07	-3.44426000E-05	-2.72315000E-07
					-8.76289000E-06	-4.68501000E-06	 4.60302000E-05
					-4.83269000E-08	-2.48845000E-05	-5.72044000E-07
					 8.22540000E-06	-4.07072000E-06	-4.68957000E-05
					-1.19445000E-07	 9.98633000E-05	 1.17808000E-07
					-1.35890000E-05	 2.53531000E-04	 1.24357000E-04
					 1.77408000E-07	 1.95227000E-04	 1.18876000E-06
					 1.29267000E-05	 2.55980000E-04	-1.25961000E-04
					-6.28603000E-07	 6.51669000E-04	 2.24558000E-07
					 6.85507000E-08	 3.20623000E-07	-2.05636000E-08
					 7.74853000E-08	 2.11511000E-07	 3.67534000E-07
					 1.50555000E-07	-3.03985000E-08	 4.37394000E-07
					 2.22181000E-07	 3.55035000E-07	 3.41070000E-07
					 2.54198000E-07	 9.00782000E-08	 1.04597000E-06
					 2.10939000E-07	-1.90682000E-06	 2.29345000E-06
					 3.86194000E-07	-2.60743000E-06	 2.44769000E-06
					 5.59451000E-07	-1.54609000E-06	 2.26104000E-06
					 5.59625000E-07	-3.99714000E-06	 3.71681000E-06
					 5.98654000E-07	-1.04790000E-05	 5.65061000E-06
					 7.93593000E-07	-1.21366000E-05	 6.03201000E-06
					 9.82399000E-07	-9.74164000E-06	 5.57791000E-06
					 1.10420000E-06	-1.56175000E-05	 6.67918000E-06
					 2.01355000E-06	-2.84818000E-05	 6.62950000E-06
					 1.51730000E-06	-3.25364000E-05	 7.57078000E-06
					 1.01063000E-06	-2.70590000E-05	 6.45305000E-06
					 2.06090000E-06	-3.16802000E-05	 4.03501000E-07
					 5.29097000E-06	-4.42794000E-05	-1.05723000E-05
					 2.76547000E-06	-5.28911000E-05	-8.31381000E-06
					 1.75566000E-07	-4.15234000E-05	-1.09323000E-05
					 3.34541000E-06	-1.71757000E-05	-3.74587000E-05
					 1.15221000E-05	 4.91541000E-06	-7.66786000E-05
					 3.89174000E-06	-1.90287000E-05	-6.82261000E-05
					-3.77518000E-06	 8.62571000E-06	-7.67962000E-05
					 3.68418000E-06	 1.38041000E-04	-1.60503000E-04
					 8.92009000E-06	 2.73104000E-04	-2.33838000E-04
					 3.13857000E-06	 2.33918000E-04	-2.23388000E-04
					-3.10356000E-06	 2.75309000E-04	-2.32805000E-04
					 1.83056000E-06	 6.65593000E-04	-3.32497000E-04
					-7.00089000E-09	 4.30110000E-07	-1.98273000E-08
					 1.44802000E-07	 6.05143000E-07	 2.21423000E-07
					-1.51985000E-09	 3.92596000E-07	-4.24150000E-08
					-1.50161000E-07	 5.99189000E-07	-3.06680000E-07
					 0.00000000E+00	 5.32329000E-07	-6.64528000E-08
					 3.75521000E-07	-8.91561000E-07	 1.10185000E-06
					 1.12826000E-08	-1.50365000E-06	-9.44341000E-08
					-3.61494000E-07	-9.03409000E-07	-1.28799000E-06
					 1.05985000E-08	-3.24176000E-06	-1.25361000E-07
					 5.77316000E-07	-8.56407000E-06	 2.48943000E-06
					 3.09346000E-08	-1.01292000E-05	-1.64791000E-07
					-5.34972000E-07	-8.57897000E-06	-2.82969000E-06
					 1.31548000E-08	-1.51603000E-05	-2.23973000E-07
					 3.19632000E-07	-2.57025000E-05	 1.84790000E-06
					 3.94772000E-08	-2.94421000E-05	-3.08267000E-07
					-3.05692000E-07	-2.57558000E-05	-2.42417000E-06
					-6.53281000E-08	-3.42680000E-05	-3.95223000E-07
					-1.59366000E-06	-4.12999000E-05	-9.13655000E-06
					-9.44941000E-08	-5.08774000E-05	-5.63443000E-07
					 1.29467000E-06	-4.13024000E-05	 8.00815000E-06
					-3.68133000E-07	-2.69061000E-05	-6.43098000E-07
					-4.73305000E-06	 4.35666000E-06	-4.67383000E-05
					-3.81260000E-07	-1.54161000E-05	-4.42068000E-07
					 3.89127000E-06	 4.86069000E-06	 4.57089000E-05
					-4.83624000E-07	 1.08069000E-04	-3.50568000E-07
					-1.04290000E-05	 2.62405000E-04	-1.26642000E-04
					-4.29245000E-07	 2.04415000E-04	-3.94194000E-07
					 1.00194000E-05	 2.62041000E-04	 1.25700000E-04
					-1.39581000E-07	 6.54201000E-04	-4.47829000E-07
					 0.00000000E+00	 2.22800000E-07	-2.02617000E-08
					-6.99518000E-08	 3.45456000E-07	-3.40148000E-07
					 0.00000000E+00	 5.27318000E-07	-4.42024000E-08
					 2.41216000E-09	 6.90431000E-07	-4.60814000E-08
					 6.49057000E-09	 3.77378000E-07	-4.80731000E-08
					 7.66380000E-08	 3.51392000E-07	 2.47662000E-07
					 9.15124000E-09	-2.73437000E-07	-7.15015000E-08
					-1.69375000E-07	-1.53746000E-06	-1.40556000E-06
					 1.16797000E-08	-1.09574000E-06	-9.65419000E-08
					 1.25328000E-08	-5.43599000E-07	-9.88275000E-08
					 1.94413000E-08	-1.47315000E-06	-1.03127000E-07
					 1.99425000E-07	-1.53038000E-06	 1.20689000E-06
					 2.68175000E-08	-5.10789000E-06	-1.31768000E-07
					-3.42360000E-07	-9.65112000E-06	-3.21768000E-06
					 2.90039000E-08	-8.74807000E-06	-1.64695000E-07
					 2.47759000E-08	-7.39293000E-06	-1.61462000E-07
					 3.54716000E-08	-9.52526000E-06	-1.67213000E-07
					 4.08751000E-07	-9.64823000E-06	 2.88225000E-06
					 4.35566000E-08	-1.87921000E-05	-2.15327000E-07
					-7.17636000E-07	-2.70285000E-05	-3.45785000E-06
					 2.22407000E-08	-2.55847000E-05	-2.81335000E-07
					 1.05562000E-08	-2.12309000E-05	-2.58538000E-07
					 3.20732000E-08	-2.71144000E-05	-2.45541000E-07
					 7.65858000E-07	-2.70416000E-05	 2.94903000E-06