# vtk DataFile Version 3.0

ASCII
DATASET UNSTRUCTURED_GRID

POINTS 81 double
	 0.00000000E+00	 0.00000000E+00	 0.00000000E+00
	 1.00000000E+00	 0.00000000E+00	 0.00000000E+00
	 1.00000000E+00	 1.50000000E+00	 0.00000000E+00
	 0.00000000E+00	 1.50000000E+00	 0.00000000E+00
	 0.00000000E+00	 0.00000000E+00	 8.00000000E+00
	 1.00000000E+00	 0.00000000E+00	 8.00000000E+00
	 1.00000000E+00	 1.50000000E+00	 8.00000000E+00
	 0.00000000E+00	 1.50000000E+00	 8.00000000E+00
	 5.00000000E-01	 0.00000000E+00	 0.00000000E+00
	 1.00000000E+00	 7.50000000E-01	 0.00000000E+00
	 5.00000000E-01	 1.50000000E+00	 0.00000000E+00
	 0.00000000E+00	 7.50000000E-01	 0.00000000E+00
	 5.00000000E-01	 0.00000000E+00	 8.00000000E+00
	 1.00000000E+00	 7.50000000E-01	 8.00000000E+00
	 5.00000000E-01	 1.50000000E+00	 8.00000000E+00
	 0.00000000E+00	 7.50000000E-01	 8.00000000E+00
	 1.00000000E+00	 0.00000000E+00	 1.00000000E+00
	 1.00000000E+00	 0.00000000E+00	 2.00000000E+00
	 1.00000000E+00	 0.00000000E+00	 3.00000000E+00
	 1.00000000E+00	 0.00000000E+00	 4.00000000E+00
	 1.00000000E+00	 0.00000000E+00	 5.00000000E+00
	 1.00000000E+00	 0.00000000E+00	 6.00000000E+00
	 1.00000000E+00	 0.00000000E+00	 7.00000000E+00
	 0.00000000E+00	 0.00000000E+00	 7.00000000E+00
	 0.00000000E+00	 0.00000000E+00	 6.00000000E+00
	 0.00000000E+00	 0.00000000E+00	 5.00000000E+00
	 0.00000000E+00	 0.00000000E+00	 4.00000000E+00
	 0.00000000E+00	 0.00000000E+00	 3.00000000E+00
	 0.00000000E+00	 0.00000000E+00	 2.00000000E+00
	 0.00000000E+00	 0.00000000E+00	 1.00000000E+00
	 1.00000000E+00	 1.50000000E+00	 1.00000000E+00
	 1.00000000E+00	 1.50000000E+00	 2.00000000E+00
	 1.00000000E+00	 1.50000000E+00	 3.00000000E+00
	 1.00000000E+00	 1.50000000E+00	 4.00000000E+00
	 1.00000000E+00	 1.50000000E+00	 5.00000000E+00
	 1.00000000E+00	 1.50000000E+00	 6.00000000E+00
	 1.00000000E+00	 1.50000000E+00	 7.00000000E+00
	 0.00000000E+00	 1.50000000E+00	 1.00000000E+00
	 0.00000000E+00	 1.50000000E+00	 2.00000000E+00
	 0.00000000E+00	 1.50000000E+00	 3.00000000E+00
	 0.00000000E+00	 1.50000000E+00	 4.00000000E+00
	 0.00000000E+00	 1.50000000E+00	 5.00000000E+00
	 0.00000000E+00	 1.50000000E+00	 6.00000000E+00
	 0.00000000E+00	 1.50000000E+00	 7.00000000E+00
	 5.00000000E-01	 7.50000000E-01	 0.00000000E+00
	 5.00000000E-01	 7.50000000E-01	 8.00000000E+00
	 5.00000000E-01	 0.00000000E+00	 1.00000000E+00
	 5.00000000E-01	 0.00000000E+00	 2.00000000E+00
	 5.00000000E-01	 0.00000000E+00	 3.00000000E+00
	 5.00000000E-01	 0.00000000E+00	 4.00000000E+00
	 5.00000000E-01	 0.00000000E+00	 5.00000000E+00
	 5.00000000E-01	 0.00000000E+00	 6.00000000E+00
	 5.00000000E-01	 0.00000000E+00	 7.00000000E+00
	 1.00000000E+00	 7.50000000E-01	 1.00000000E+00
	 1.00000000E+00	 7.50000000E-01	 2.00000000E+00
	 1.00000000E+00	 7.50000000E-01	 3.00000000E+00
	 1.00000000E+00	 7.50000000E-01	 4.00000000E+00
	 1.00000000E+00	 7.50000000E-01	 5.00000000E+00
	 1.00000000E+00	 7.50000000E-01	 6.00000000E+00
	 1.00000000E+00	 7.50000000E-01	 7.00000000E+00
	 5.00000000E-01	 1.50000000E+00	 1.00000000E+00
	 5.00000000E-01	 1.50000000E+00	 2.00000000E+00
	 5.00000000E-01	 1.50000000E+00	 3.00000000E+00
	 5.00000000E-01	 1.50000000E+00	 4.00000000E+00
	 5.00000000E-01	 1.50000000E+00	 5.00000000E+00
	 5.00000000E-01	 1.50000000E+00	 6.00000000E+00
	 5.00000000E-01	 1.50000000E+00	 7.00000000E+00
	 0.00000000E+00	 7.50000000E-01	 1.00000000E+00
	 0.00000000E+00	 7.50000000E-01	 2.00000000E+00
	 0.00000000E+00	 7.50000000E-01	 3.00000000E+00
	 0.00000000E+00	 7.50000000E-01	 4.00000000E+00
	 0.00000000E+00	 7.50000000E-01	 5.00000000E+00
	 0.00000000E+00	 7.50000000E-01	 6.00000000E+00
	 0.00000000E+00	 7.50000000E-01	 7.00000000E+00
	 5.00000000E-01	 7.50000000E-01	 1.00000000E+00
	 5.00000000E-01	 7.50000000E-01	 2.00000000E+00
	 5.00000000E-01	 7.50000000E-01	 3.00000000E+00
	 5.00000000E-01	 7.50000000E-01	 4.00000000E+00
	 5.00000000E-01	 7.50000000E-01	 5.00000000E+00
	 5.00000000E-01	 7.50000000E-01	 6.00000000E+00
	 5.00000000E-01	 7.50000000E-01	 7.00000000E+00

CELLS 32 288
	8 0 8 44 11 29 46 74 67 
	8 8 1 9 44 46 16 53 74 
	8 11 44 10 3 67 74 60 37 
	8 44 9 2 10 74 53 30 60 
	8 29 46 74 67 28 47 75 68 
	8 46 16 53 74 47 17 54 75 
	8 67 74 60 37 68 75 61 38 
	8 74 53 30 60 75 54 31 61 
	8 28 47 75 68 27 48 76 69 
	8 47 17 54 75 48 18 55 76 
	8 68 75 61 38 69 76 62 39 
	8 75 54 31 61 76 55 32 62 
	8 27 48 76 69 26 49 77 70 
	8 48 18 55 76 49 19 56 77 
	8 69 76 62 39 70 77 63 40 
	8 76 55 32 62 77 56 33 63 
	8 26 49 77 70 25 50 78 71 
	8 49 19 56 77 50 20 57 78 
	8 70 77 63 40 71 78 64 41 
	8 77 56 33 63 78 57 34 64 
	8 25 50 78 71 24 51 79 72 
	8 50 20 57 78 51 21 58 79 
	8 71 78 64 41 72 79 65 42 
	8 78 57 34 64 79 58 35 65 
	8 24 51 79 72 23 52 80 73 
	8 51 21 58 79 52 22 59 80 
	8 72 79 65 42 73 80 66 43 
	8 79 58 35 65 80 59 36 66 
	8 23 52 80 73 4 12 45 15 
	8 52 22 59 80 12 5 13 45 
	8 73 80 66 43 15 45 14 7 
	8 80 59 36 66 45 13 6 14 

CELL_TYPES 32
	12
	12
	12
	12
	12
	12
	12
	12
	12
	12
	12
	12
	12
	12
	12
	12
	12
	12
	12
	12
	12
	12
	12
	12
	12
	12
	12
	12
	12
	12
	12
	12

POINT_DATA 81
FIELD SENFREQ 1
	SENFREQ 2 81 double
		 0.00000000E+00	 0.00000000E+00
		 0.00000000E+00	 0.00000000E+00
		 0.00000000E+00	 0.00000000E+00
		 0.00000000E+00	 0.00000000E+00
		-4.93282000E+10	-1.00000000E+00
		-4.93282000E+10	-1.00000000E+00
		-4.93282000E+10	-1.00000000E+00
		-4.93282000E+10	-1.00000000E+00
		 0.00000000E+00	 0.00000000E+00
		 0.00000000E+00	 0.00000000E+00
		 0.00000000E+00	 0.00000000E+00
		 0.00000000E+00	 0.00000000E+00
		-6.21373000E+10	-9.96821000E-01
		-6.40008000E+10	-9.90111000E-01
		-6.21373000E+10	-9.96821000E-01
		-6.40009000E+10	-9.90111000E-01
		 6.25074000E+10	 7.65627000E-01
		-6.21533000E+09	 4.72803000E-01
		 9.18145000E+09	 3.52585000E-01
		 3.39516000E+10	 5.74338000E-01
		 3.95311000E+10	 6.63777000E-01
		 2.22093000E+10	 2.68475000E-01
		-1.55978000E+10	-4.96638000E-01
		-1.55978000E+10	-4.96638000E-01
		 2.22093000E+10	 2.68475000E-01
		 3.95311000E+10	 6.63777000E-01
		 3.39516000E+10	 5.74338000E-01
		 9.18145000E+09	 3.52585000E-01
		-6.21533000E+09	 4.72803000E-01
		 6.25074000E+10	 7.65627000E-01
		 6.25074000E+10	 7.65627000E-01
		-6.21533000E+09	 4.72803000E-01
		 9.18145000E+09	 3.52585000E-01
		 3.39516000E+10	 5.74338000E-01
		 3.95311000E+10	 6.63777000E-01
		 2.22093000E+10	 2.68475000E-01
		-1.55978000E+10	-4.96638000E-01
		 6.25074000E+10	 7.65627000E-01
		-6.21533000E+09	 4.72803000E-01
		 9.18145000E+09	 3.52585000E-01
		 3.39516000E+10	 5.74338000E-01
		 3.95311000E+10	 6.63777000E-01
		 2.22093000E+10	 2.68475000E-01
		-1.55978000E+10	-4.96638000E-01
		 0.00000000E+00	 0.00000000E+00
		-1.09413000E+11	-9.87680000E-01
		 3.23058000E+10	 7.61258000E-01
		-1.05756000E+10	 4.74055000E-01
		-2.47285000E+10	 3.53810000E-01
		-2.00291000E+10	 5.72562000E-01
		-1.34984000E+09	 6.61307000E-01
		 9.12482000E+09	 2.66540000E-01
		-2.09225000E+10	-4.96330000E-01
		 1.04371000E+11	 7.54139000E-01
		-1.17569000E+10	 4.78986000E-01
		 2.56448000E+10	 3.60197000E-01
		 7.26148000E+10	 5.72931000E-01
		 7.59364000E+10	 6.59110000E-01
		 3.78716000E+10	 2.63316000E-01
		-2.35467000E+10	-4.96258000E-01
		 3.23058000E+10	 7.61258000E-01
		-1.05756000E+10	 4.74055000E-01
		-2.47285000E+10	 3.53810000E-01
		-2.00291000E+10	 5.72562000E-01
		-1.34983000E+09	 6.61307000E-01
		 9.12483000E+09	 2.66540000E-01
		-2.09225000E+10	-4.96330000E-01
		 1.04370000E+11	 7.54139000E-01
		-1.17569000E+10	 4.78986000E-01
		 2.56448000E+10	 3.60197000E-01
		 7.26148000E+10	 5.72931000E-01
		 7.59364000E+10	 6.59110000E-01
		 3.78716000E+10	 2.63316000E-01
		-2.35468000E+10	-4.96258000E-01
		 0.00000000E+00	 0.00000000E+00
		 0.00000000E+00	 0.00000000E+00
		 0.00000000E+00	 0.00000000E+00
		 0.00000000E+00	 0.00000000E+00
		 0.00000000E+00	 0.00000000E+00
		 0.00000000E+00	 0.00000000E+00
		 0.00000000E+00	 0.00000000E+00
