# vtk DataFile Version 3.0

ASCII
DATASET UNSTRUCTURED_GRID

POINTS 68 double
	-2.50000000E+01	 2.50000000E+01	 0.00000000E+00
	-2.50000000E+01	-2.50000000E+01	 0.00000000E+00
	 2.50000000E+01	-2.50000000E+01	 0.00000000E+00
	 2.50000000E+01	 2.50000000E+01	 0.00000000E+00
	-2.50000000E+01	 0.00000000E+00	 0.00000000E+00
	 0.00000000E+00	-2.50000000E+01	 0.00000000E+00
	 2.50000000E+01	 0.00000000E+00	 0.00000000E+00
	 0.00000000E+00	 2.50000000E+01	 0.00000000E+00
	-2.50000000E+01	 2.50000000E+01	 1.00000000E+02
	-2.50000000E+01	-2.50000000E+01	 1.00000000E+02
	 2.50000000E+01	-2.50000000E+01	 1.00000000E+02
	 2.50000000E+01	 2.50000000E+01	 1.00000000E+02
	-2.50000000E+01	 2.50000000E+01	 2.00000000E+02
	-2.50000000E+01	-2.50000000E+01	 2.00000000E+02
	 2.50000000E+01	-2.50000000E+01	 2.00000000E+02
	 2.50000000E+01	 2.50000000E+01	 2.00000000E+02
	-2.50000000E+01	 0.00000000E+00	 2.00000000E+02
	 0.00000000E+00	-2.50000000E+01	 2.00000000E+02
	 2.50000000E+01	 0.00000000E+00	 2.00000000E+02
	 0.00000000E+00	 2.50000000E+01	 2.00000000E+02
	-2.50000000E+01	 2.50000000E+01	 3.00000000E+02
	-2.50000000E+01	-2.50000000E+01	 3.00000000E+02
	 2.50000000E+01	-2.50000000E+01	 3.00000000E+02
	 2.50000000E+01	 2.50000000E+01	 3.00000000E+02
	-2.50000000E+01	 2.50000000E+01	 4.00000000E+02
	-2.50000000E+01	-2.50000000E+01	 4.00000000E+02
	 2.50000000E+01	-2.50000000E+01	 4.00000000E+02
	 2.50000000E+01	 2.50000000E+01	 4.00000000E+02
	-2.50000000E+01	 0.00000000E+00	 4.00000000E+02
	 0.00000000E+00	-2.50000000E+01	 4.00000000E+02
	 2.50000000E+01	 0.00000000E+00	 4.00000000E+02
	 0.00000000E+00	 2.50000000E+01	 4.00000000E+02
	-2.50000000E+01	 2.50000000E+01	 5.00000000E+02
	-2.50000000E+01	-2.50000000E+01	 5.00000000E+02
	 2.50000000E+01	-2.50000000E+01	 5.00000000E+02
	 2.50000000E+01	 2.50000000E+01	 5.00000000E+02
	-2.50000000E+01	 2.50000000E+01	 6.00000000E+02
	-2.50000000E+01	-2.50000000E+01	 6.00000000E+02
	 2.50000000E+01	-2.50000000E+01	 6.00000000E+02
	 2.50000000E+01	 2.50000000E+01	 6.00000000E+02
	-2.50000000E+01	 0.00000000E+00	 6.00000000E+02
	 0.00000000E+00	-2.50000000E+01	 6.00000000E+02
	 2.50000000E+01	 0.00000000E+00	 6.00000000E+02
	 0.00000000E+00	 2.50000000E+01	 6.00000000E+02
	-2.50000000E+01	 2.50000000E+01	 7.00000000E+02
	-2.50000000E+01	-2.50000000E+01	 7.00000000E+02
	 2.50000000E+01	-2.50000000E+01	 7.00000000E+02
	 2.50000000E+01	 2.50000000E+01	 7.00000000E+02
	-2.50000000E+01	 2.50000000E+01	 8.00000000E+02
	-2.50000000E+01	-2.50000000E+01	 8.00000000E+02
	 2.50000000E+01	-2.50000000E+01	 8.00000000E+02
	 2.50000000E+01	 2.50000000E+01	 8.00000000E+02
	-2.50000000E+01	 0.00000000E+00	 8.00000000E+02
	 0.00000000E+00	-2.50000000E+01	 8.00000000E+02
	 2.50000000E+01	 0.00000000E+00	 8.00000000E+02
	 0.00000000E+00	 2.50000000E+01	 8.00000000E+02
	-2.50000000E+01	 2.50000000E+01	 9.00000000E+02
	-2.50000000E+01	-2.50000000E+01	 9.00000000E+02
	 2.50000000E+01	-2.50000000E+01	 9.00000000E+02
	 2.50000000E+01	 2.50000000E+01	 9.00000000E+02
	-2.50000000E+01	 2.50000000E+01	 1.00000000E+03
	-2.50000000E+01	-2.50000000E+01	 1.00000000E+03
	 2.50000000E+01	-2.50000000E+01	 1.00000000E+03
	 2.50000000E+01	 2.50000000E+01	 1.00000000E+03
	-2.50000000E+01	 0.00000000E+00	 1.00000000E+03
	 0.00000000E+00	-2.50000000E+01	 1.00000000E+03
	 2.50000000E+01	 0.00000000E+00	 1.00000000E+03
	 0.00000000E+00	 2.50000000E+01	 1.00000000E+03

CELLS 5 105
	20 0 12 13 1 3 15 14 2 8 16 9 4 11 18 10 6 7 19 17 5 
	20 12 24 25 13 15 27 26 14 20 28 21 16 23 30 22 18 19 31 29 17 
	20 24 36 37 25 27 39 38 26 32 40 33 28 35 42 34 30 31 43 41 29 
	20 36 48 49 37 39 51 50 38 44 52 45 40 47 54 46 42 43 55 53 41 
	20 48 60 61 49 51 63 62 50 56 64 57 52 59 66 58 54 55 67 65 53 

CELL_TYPES 5
	25
	25
	25
	25
	25

POINT_DATA 68
FIELD U 1
	U 3 68 double
		-1.16017000E-01	 1.46855000E-02	 0.00000000E+00
		 1.16017000E-01	-1.46855000E-02	 0.00000000E+00
		-1.16017000E-01	 1.46855000E-02	 0.00000000E+00
		 1.16017000E-01	-1.46855000E-02	 0.00000000E+00
		 0.00000000E+00	 0.00000000E+00	 0.00000000E+00
		 0.00000000E+00	 0.00000000E+00	 0.00000000E+00
		 0.00000000E+00	 0.00000000E+00	 0.00000000E+00
		 0.00000000E+00	 0.00000000E+00	 0.00000000E+00
		-4.16618000E-01	 2.77102000E+00	-1.27159000E+00
		-2.82754000E-01	 2.75407000E+00	 9.85840000E-01
		-4.16618000E-01	 2.77102000E+00	 1.27159000E+00
		-2.82754000E-01	 2.75407000E+00	-9.85840000E-01
		-1.11998000E+00	 8.77716000E+00	-1.84171000E+00
		-1.10178000E+00	 8.77485000E+00	 1.42785000E+00
		-1.11998000E+00	 8.77716000E+00	 1.84171000E+00
		-1.10178000E+00	 8.77485000E+00	-1.42785000E+00
		-1.11351000E+00	 8.75497000E+00	-2.06410000E-01
		-1.10821000E+00	 8.79680000E+00	 1.63065000E+00
		-1.11351000E+00	 8.75497000E+00	 2.06410000E-01
		-1.10821000E+00	 8.79680000E+00	-1.63065000E+00
		-1.92203000E+00	 1.54548000E+01	-1.67900000E+00
		-1.99165000E+00	 1.54636000E+01	 1.30170000E+00
		-1.92203000E+00	 1.54548000E+01	 1.67900000E+00
		-1.99165000E+00	 1.54636000E+01	-1.30170000E+00
		-2.49946000E+00	 2.03139000E+01	-8.55433000E-01
		-2.64559000E+00	 2.03324000E+01	 6.63202000E-01
		-2.49946000E+00	 2.03139000E+01	 8.55433000E-01
		-2.64559000E+00	 2.03324000E+01	-6.63202000E-01
		-2.56713000E+00	 2.03662000E+01	-9.58482000E-02
		-2.57797000E+00	 2.02805000E+01	 7.57208000E-01
		-2.56713000E+00	 2.03662000E+01	 9.58482000E-02
		-2.57797000E+00	 2.02805000E+01	-7.57208000E-01
		-2.61056000E+00	 2.12880000E+01	 3.63822000E-01
		-2.78149000E+00	 2.13096000E+01	-2.82065000E-01
		-2.61056000E+00	 2.12880000E+01	-3.63822000E-01
		-2.78149000E+00	 2.13096000E+01	 2.82065000E-01
		-2.15611000E+00	 1.76941000E+01	 1.66668000E+00
		-2.32608000E+00	 1.77156000E+01	-1.29215000E+00
		-2.15611000E+00	 1.76941000E+01	-1.66668000E+00
		-2.32608000E+00	 1.77156000E+01	 1.29215000E+00
		-2.23562000E+00	 1.77483000E+01	 1.87123000E-01
		-2.24659000E+00	 1.76615000E+01	-1.47829000E+00
		-2.23562000E+00	 1.77483000E+01	-1.87123000E-01
		-2.24659000E+00	 1.76615000E+01	 1.47829000E+00
		-1.15076000E+00	 9.58692000E+00	 2.79013000E+00
		-1.27833000E+00	 9.60306000E+00	-2.16314000E+00
		-1.15076000E+00	 9.58692000E+00	-2.79013000E+00
		-1.27833000E+00	 9.60306000E+00	 2.16314000E+00
		 2.81547000E-01	-1.92472000E+00	 3.56164000E+00
		 2.04484000E-01	-1.91496000E+00	-2.76128000E+00
		 2.81547000E-01	-1.92472000E+00	-3.56164000E+00
		 2.04484000E-01	-1.91496000E+00	 2.76128000E+00
		 2.45341000E-01	-1.90145000E+00	 3.99920000E-01
		 2.40687000E-01	-1.93822000E+00	-3.15940000E+00
		 2.45341000E-01	-1.90145000E+00	-3.99920000E-01
		 2.40687000E-01	-1.93822000E+00	 3.15940000E+00
		 1.96160000E+00	-1.54082000E+01	 3.91688000E+00
		 1.93880000E+00	-1.54053000E+01	-3.03669000E+00
		 1.96160000E+00	-1.54082000E+01	-3.91688000E+00
		 1.93880000E+00	-1.54053000E+01	 3.03669000E+00
		 3.74535000E+00	-2.95766000E+01	 3.98606000E+00
		 3.74229000E+00	-2.95763000E+01	-3.09032000E+00
		 3.74535000E+00	-2.95766000E+01	-3.98606000E+00
		 3.74229000E+00	-2.95763000E+01	 3.09032000E+00
		 3.74343000E+00	-2.95799000E+01	 4.47760000E-01
		 3.74425000E+00	-2.95734000E+01	-3.53734000E+00
		 3.74343000E+00	-2.95799000E+01	-4.47760000E-01
		 3.74425000E+00	-2.95734000E+01	 3.53734000E+00
