    1C
    1UUSER                                                              
    1UDATE              25.january.2020                                 
    1UTIME              14:48:22                                        
    1UHOST                                                              
    1UPGM               CalculiX                                        
    1UVERSION           Version 2.16                             
    1UCOMPILETIME       Tue  7 Jan 19:57:43 CET 2020                    
    1UDIR                                                               
    1UDBN                                                               
    1UMAT    1GAS                                                       
    2C                            14                                     1
 -1         1 1.00000E+00 2.00000E+00 0.00000E+00
 -1         2 2.00000E+00 2.00000E+00 0.00000E+00
 -1         3 3.00000E+00 2.00000E+00 0.00000E+00
 -1         4 4.00000E+00 2.00000E+00 0.00000E+00
 -1         5 5.00000E+00 1.00000E+00 0.00000E+00
 -1         6 6.00000E+00 0.00000E+00 0.00000E+00
 -1         7 7.00000E+00 0.00000E+00 0.00000E+00
 -1         8 8.00000E+00 0.00000E+00 0.00000E+00
 -1         9 9.00000E+00 0.00000E+00 0.00000E+00
 -1        10 1.00000E+00-2.00000E+00 0.00000E+00
 -1        11 2.00000E+00-2.00000E+00 0.00000E+00
 -1        12 3.00000E+00-2.00000E+00 0.00000E+00
 -1        13 4.00000E+00-2.00000E+00 0.00000E+00
 -1        14 5.00000E+00-1.00000E+00 0.00000E+00
 -3
    3C                             8                                     1
 -1         1   11    0    1
 -2         1         2
 -1         2   12    0    1
 -2         2         4         3
 -1         3   12    0    1
 -2         4         6         5
 -1         4   12    0    1
 -2         6         8         7
 -1         5   11    0    1
 -2         8         9
 -1         6   11    0    1
 -2        10        11
 -1         7   12    0    1
 -2        11        13        12
 -1         8   12    0    1
 -2        13         6        14
 -3
 9999
