    1C
    1UUSER                                                              
    1UDATE              25.january.2020                                 
    1UTIME              14:48:22                                        
    1UHOST                                                              
    1UPGM               CalculiX                                        
    1UVERSION           Version 2.16                             
    1UCOMPILETIME       Tue  7 Jan 19:57:43 CET 2020                    
    1UDIR                                                               
    1UDBN                                                               
    1UMAT    1EL                                                        
    2C                           108                                     1
 -1         1 0.00000E+00 9.99848E-01 1.74524E-02
 -1         2 0.00000E+00 1.00000E+00 0.00000E+00
 -1         3 0.00000E+00 1.20000E+00 0.00000E+00
 -1         4 0.00000E+00 1.19982E+00 2.09429E-02
 -1         5 5.00000E+00 9.99848E-01 1.74524E-02
 -1         6 5.00000E+00 1.00000E+00 0.00000E+00
 -1         7 5.00000E+00 1.20000E+00 0.00000E+00
 -1         8 5.00000E+00 1.19982E+00 2.09429E-02
 -1         9 0.00000E+00 9.99962E-01 8.72654E-03
 -1        10 0.00000E+00 1.10000E+00 0.00000E+00
 -1        11 0.00000E+00 1.19995E+00 1.04718E-02
 -1        12 0.00000E+00 1.09983E+00 1.91976E-02
 -1        13 2.50000E+00 9.99848E-01 1.74524E-02
 -1        14 2.50000E+00 1.00000E+00 0.00000E+00
 -1        15 2.50000E+00 1.20000E+00 0.00000E+00
 -1        16 2.50000E+00 1.19982E+00 2.09429E-02
 -1        17 5.00000E+00 9.99962E-01 8.72654E-03
 -1        18 5.00000E+00 1.10000E+00 0.00000E+00
 -1        19 5.00000E+00 1.19995E+00 1.04718E-02
 -1        20 5.00000E+00 1.09983E+00 1.91976E-02
 -1        21 0.00000E+00 1.40000E+00 0.00000E+00
 -1        22 0.00000E+00 1.39979E+00 2.44334E-02
 -1        23 5.00000E+00 1.40000E+00 0.00000E+00
 -1        24 5.00000E+00 1.39979E+00 2.44334E-02
 -1        25 0.00000E+00 1.30000E+00 0.00000E+00
 -1        26 0.00000E+00 1.39995E+00 1.22172E-02
 -1        27 0.00000E+00 1.29980E+00 2.26881E-02
 -1        28 2.50000E+00 1.40000E+00 0.00000E+00
 -1        29 2.50000E+00 1.39979E+00 2.44334E-02
 -1        30 5.00000E+00 1.30000E+00 0.00000E+00
 -1        31 5.00000E+00 1.39995E+00 1.22172E-02
 -1        32 5.00000E+00 1.29980E+00 2.26881E-02
 -1        33 0.00000E+00 1.60000E+00 0.00000E+00
 -1        34 0.00000E+00 1.59976E+00 2.79239E-02
 -1        35 5.00000E+00 1.60000E+00 0.00000E+00
 -1        36 5.00000E+00 1.59976E+00 2.79239E-02
 -1        37 0.00000E+00 1.50000E+00 0.00000E+00
 -1        38 0.00000E+00 1.59994E+00 1.39625E-02
 -1        39 0.00000E+00 1.49977E+00 2.61786E-02
 -1        40 2.50000E+00 1.60000E+00 0.00000E+00
 -1        41 2.50000E+00 1.59976E+00 2.79239E-02
 -1        42 5.00000E+00 1.50000E+00 0.00000E+00
 -1        43 5.00000E+00 1.59994E+00 1.39625E-02
 -1        44 5.00000E+00 1.49977E+00 2.61786E-02
 -1        45 0.00000E+00 1.80000E+00 0.00000E+00
 -1        46 0.00000E+00 1.79973E+00 3.14143E-02
 -1        47 5.00000E+00 1.80000E+00 0.00000E+00
 -1        48 5.00000E+00 1.79973E+00 3.14143E-02
 -1        49 0.00000E+00 1.70000E+00 0.00000E+00
 -1        50 0.00000E+00 1.79993E+00 1.57078E-02
 -1        51 0.00000E+00 1.69974E+00 2.96691E-02
 -1        52 2.50000E+00 1.80000E+00 0.00000E+00
 -1        53 2.50000E+00 1.79973E+00 3.14143E-02
 -1        54 5.00000E+00 1.70000E+00 0.00000E+00
 -1        55 5.00000E+00 1.79993E+00 1.57078E-02
 -1        56 5.00000E+00 1.69974E+00 2.96691E-02
 -1        57 0.00000E+00 2.00000E+00 0.00000E+00
 -1        58 0.00000E+00 1.99970E+00 3.49048E-02
 -1        59 5.00000E+00 2.00000E+00 0.00000E+00
 -1        60 5.00000E+00 1.99970E+00 3.49048E-02
 -1        61 0.00000E+00 1.90000E+00 0.00000E+00
 -1        62 0.00000E+00 1.99992E+00 1.74531E-02
 -1        63 0.00000E+00 1.89971E+00 3.31596E-02
 -1        64 2.50000E+00 2.00000E+00 0.00000E+00
 -1        65 2.50000E+00 1.99970E+00 3.49048E-02
 -1        66 5.00000E+00 1.90000E+00 0.00000E+00
 -1        67 5.00000E+00 1.99992E+00 1.74531E-02
 -1        68 5.00000E+00 1.89971E+00 3.31596E-02
 -1        69 1.00000E+01 9.99848E-01 1.74524E-02
 -1        70 1.00000E+01 1.00000E+00 0.00000E+00
 -1        71 1.00000E+01 1.20000E+00 0.00000E+00
 -1        72 1.00000E+01 1.19982E+00 2.09429E-02
 -1        73 7.50000E+00 9.99848E-01 1.74524E-02
 -1        74 7.50000E+00 1.00000E+00 0.00000E+00
 -1        75 7.50000E+00 1.20000E+00 0.00000E+00
 -1        76 7.50000E+00 1.19982E+00 2.09429E-02
 -1        77 1.00000E+01 9.99962E-01 8.72654E-03
 -1        78 1.00000E+01 1.10000E+00 0.00000E+00
 -1        79 1.00000E+01 1.19995E+00 1.04718E-02
 -1        80 1.00000E+01 1.09983E+00 1.91976E-02
 -1        81 1.00000E+01 1.40000E+00 0.00000E+00
 -1        82 1.00000E+01 1.39979E+00 2.44334E-02
 -1        83 7.50000E+00 1.40000E+00 0.00000E+00
 -1        84 7.50000E+00 1.39979E+00 2.44334E-02
 -1        85 1.00000E+01 1.30000E+00 0.00000E+00
 -1        86 1.00000E+01 1.39995E+00 1.22172E-02
 -1        87 1.00000E+01 1.29980E+00 2.26881E-02
 -1        88 1.00000E+01 1.60000E+00 0.00000E+00
 -1        89 1.00000E+01 1.59976E+00 2.79239E-02
 -1        90 7.50000E+00 1.60000E+00 0.00000E+00
 -1        91 7.50000E+00 1.59976E+00 2.79239E-02
 -1        92 1.00000E+01 1.50000E+00 0.00000E+00
 -1        93 1.00000E+01 1.59994E+00 1.39625E-02
 -1        94 1.00000E+01 1.49977E+00 2.61786E-02
 -1        95 1.00000E+01 1.80000E+00 0.00000E+00
 -1        96 1.00000E+01 1.79973E+00 3.14143E-02
 -1        97 7.50000E+00 1.80000E+00 0.00000E+00
 -1        98 7.50000E+00 1.79973E+00 3.14143E-02
 -1        99 1.00000E+01 1.70000E+00 0.00000E+00
 -1       100 1.00000E+01 1.79993E+00 1.57078E-02
 -1       101 1.00000E+01 1.69974E+00 2.96691E-02
 -1       102 1.00000E+01 2.00000E+00 0.00000E+00
 -1       103 1.00000E+01 1.99970E+00 3.49048E-02
 -1       104 7.50000E+00 2.00000E+00 0.00000E+00
 -1       105 7.50000E+00 1.99970E+00 3.49048E-02
 -1       106 1.00000E+01 1.90000E+00 0.00000E+00
 -1       107 1.00000E+01 1.99992E+00 1.74531E-02
 -1       108 1.00000E+01 1.89971E+00 3.31596E-02
 -3
    3C                            10                                     1
 -1         1    4    0    1
 -2         1         2         3         4         5         6         7         8         9        10
 -2        11        12        13        14        15        16        17        18        19        20
 -1         2    4    0    1
 -2         4         3        21        22         8         7        23        24        11        25
 -2        26        27        16        15        28        29        19        30        31        32
 -1         3    4    0    1
 -2        22        21        33        34        24        23        35        36        26        37
 -2        38        39        29        28        40        41        31        42        43        44
 -1         4    4    0    1
 -2        34        33        45        46        36        35        47        48        38        49
 -2        50        51        41        40        52        53        43        54        55        56
 -1         5    4    0    1
 -2        46        45        57        58        48        47        59        60        50        61
 -2        62        63        53        52        64        65        55        66        67        68
 -1         6    4    0    1
 -2         5         6         7         8        69        70        71        72        17        18
 -2        19        20        73        74        75        76        77        78        79        80
 -1         7    4    0    1
 -2         8         7        23        24        72        71        81        82        19        30
 -2        31        32        76        75        83        84        79        85        86        87
 -1         8    4    0    1
 -2        24        23        35        36        82        81        88        89        31        42
 -2        43        44        84        83        90        91        86        92        93        94
 -1         9    4    0    1
 -2        36        35        47        48        89        88        95        96        43        54
 -2        55        56        91        90        97        98        93        99       100       101
 -1        10    4    0    1
 -2        48        47        59        60        96        95       102       103        55        66
 -2        67        68        98        97       104       105       100       106       107       108
 -3
 9999
