    1C
    1UUSER                                                              
    1UDATE              25.january.2020                                 
    1UTIME              14:48:25                                        
    1UHOST                                                              
    1UPGM               CalculiX                                        
    1UVERSION           Version 2.16                             
    1UCOMPILETIME       Tue  7 Jan 19:57:43 CET 2020                    
    1UDIR                                                               
    1UDBN                                                               
    1UMAT    1WATER                                                     
    2C                            53                                     1
 -1         1-1.00000E-01 0.00000E+00 0.00000E+00
 -1         2 0.00000E+00 0.00000E+00 0.00000E+00
 -1         3-5.00000E-02 0.00000E+00 0.00000E+00
 -1         4 1.00000E-01 0.00000E+00 0.00000E+00
 -1         5 5.00000E-02 0.00000E+00 0.00000E+00
 -1         6 3.08000E+00 0.00000E+00 0.00000E+00
 -1         7 1.59000E+00 0.00000E+00 0.00000E+00
 -1         8 6.06000E+00 0.00000E+00 0.00000E+00
 -1         9 4.57000E+00 0.00000E+00 0.00000E+00
 -1        10 9.04000E+00 0.00000E+00 0.00000E+00
 -1        11 7.55000E+00 0.00000E+00 0.00000E+00
 -1        12 1.20200E+01 0.00000E+00 0.00000E+00
 -1        13 1.05300E+01 0.00000E+00 0.00000E+00
 -1        14 1.50000E+01 0.00000E+00 0.00000E+00
 -1        15 1.35100E+01 0.00000E+00 0.00000E+00
 -1        16 1.79800E+01 0.00000E+00 0.00000E+00
 -1        17 1.64900E+01 0.00000E+00 0.00000E+00
 -1        18 2.09600E+01 0.00000E+00 0.00000E+00
 -1        19 1.94700E+01 0.00000E+00 0.00000E+00
 -1        20 2.39400E+01 0.00000E+00 0.00000E+00
 -1        21 2.24500E+01 0.00000E+00 0.00000E+00
 -1        22 2.69200E+01 0.00000E+00 0.00000E+00
 -1        23 2.54300E+01 0.00000E+00 0.00000E+00
 -1        24 2.99000E+01 0.00000E+00 0.00000E+00
 -1        25 2.84100E+01 0.00000E+00 0.00000E+00
 -1        26 3.00000E+01 0.00000E+00 0.00000E+00
 -1        27 2.99500E+01 0.00000E+00 0.00000E+00
 -1        28 3.01000E+01 0.00000E+00 0.00000E+00
 -1        29 3.00500E+01 0.00000E+00 0.00000E+00
 -1        30 3.30800E+01 0.00000E+00 0.00000E+00
 -1        31 3.15900E+01 0.00000E+00 0.00000E+00
 -1        32 3.60600E+01 0.00000E+00 0.00000E+00
 -1        33 3.45700E+01 0.00000E+00 0.00000E+00
 -1        34 3.90400E+01 0.00000E+00 0.00000E+00
 -1        35 3.75500E+01 0.00000E+00 0.00000E+00
 -1        36 4.20200E+01 0.00000E+00 0.00000E+00
 -1        37 4.05300E+01 0.00000E+00 0.00000E+00
 -1        38 4.50000E+01 0.00000E+00 0.00000E+00
 -1        39 4.35100E+01 0.00000E+00 0.00000E+00
 -1        40 4.79800E+01 0.00000E+00 0.00000E+00
 -1        41 4.64900E+01 0.00000E+00 0.00000E+00
 -1        42 5.09600E+01 0.00000E+00 0.00000E+00
 -1        43 4.94700E+01 0.00000E+00 0.00000E+00
 -1        44 5.39400E+01 0.00000E+00 0.00000E+00
 -1        45 5.24500E+01 0.00000E+00 0.00000E+00
 -1        46 5.69200E+01 0.00000E+00 0.00000E+00
 -1        47 5.54300E+01 0.00000E+00 0.00000E+00
 -1        48 5.99000E+01 0.00000E+00 0.00000E+00
 -1        49 5.84100E+01 0.00000E+00 0.00000E+00
 -1        50 6.00000E+01 0.00000E+00 0.00000E+00
 -1        51 5.99500E+01 0.00000E+00 0.00000E+00
 -1        53 6.00500E+01 0.00000E+00 0.00000E+00
 -1        55-1.50000E-01 0.00000E+00 0.00000E+00
 -3
    3C                            27                                     1
 -1         1   12    0    1
 -2         1         2         3
 -1         2   12    0    1
 -2         2         4         5
 -1         3   12    0    1
 -2         4         6         7
 -1         4   12    0    1
 -2         6         8         9
 -1         5   12    0    1
 -2         8        10        11
 -1         6   12    0    1
 -2        10        12        13
 -1         7   12    0    1
 -2        12        14        15
 -1         8   12    0    1
 -2        14        16        17
 -1         9   12    0    1
 -2        16        18        19
 -1        10   12    0    1
 -2        18        20        21
 -1        11   12    0    1
 -2        20        22        23
 -1        12   12    0    1
 -2        22        24        25
 -1        13   12    0    1
 -2        24        26        27
 -1        14   12    0    1
 -2        26        28        29
 -1        15   12    0    1
 -2        28        30        31
 -1        16   12    0    1
 -2        30        32        33
 -1        17   12    0    1
 -2        32        34        35
 -1        18   12    0    1
 -2        34        36        37
 -1        19   12    0    1
 -2        36        38        39
 -1        20   12    0    1
 -2        38        40        41
 -1        21   12    0    1
 -2        40        42        43
 -1        22   12    0    1
 -2        42        44        45
 -1        23   12    0    1
 -2        44        46        47
 -1        24   12    0    1
 -2        46        48        49
 -1        25   12    0    1
 -2        48        50        51
 -1        26   11    0    1
 -2        50        53
 -1        27   11    0    1
 -2        55         1
 -3
 9999
