<?xml version="1.0"?>
<VTKFile type="UnstructuredGrid" version="0.1" byte_order="LittleEndian">
	<UnstructuredGrid>
		<Piece NumberOfPoints="261" NumberOfCells="32">
			<Points>
				<DataArray type="Float64" NumberOfComponents="3" format="ascii">
					 0.00000000E+00	 0.00000000E+00	 0.00000000E+00
					 1.00000000E+00	 0.00000000E+00	 0.00000000E+00
					 1.00000000E+00	 1.00000000E+00	 0.00000000E+00
					 0.00000000E+00	 1.00000000E+00	 0.00000000E+00
					 0.00000000E+00	 0.00000000E+00	 8.00000000E+00
					 1.00000000E+00	 0.00000000E+00	 8.00000000E+00
					 1.00000000E+00	 1.00000000E+00	 8.00000000E+00
					 0.00000000E+00	 1.00000000E+00	 8.00000000E+00
					 2.50000000E-01	 0.00000000E+00	 0.00000000E+00
					 5.00000000E-01	 0.00000000E+00	 0.00000000E+00
					 7.50000000E-01	 0.00000000E+00	 0.00000000E+00
					 1.00000000E+00	 2.50000000E-01	 0.00000000E+00
					 1.00000000E+00	 5.00000000E-01	 0.00000000E+00
					 1.00000000E+00	 7.50000000E-01	 0.00000000E+00
					 7.50000000E-01	 1.00000000E+00	 0.00000000E+00
					 5.00000000E-01	 1.00000000E+00	 0.00000000E+00
					 2.50000000E-01	 1.00000000E+00	 0.00000000E+00
					 0.00000000E+00	 7.50000000E-01	 0.00000000E+00
					 0.00000000E+00	 5.00000000E-01	 0.00000000E+00
					 0.00000000E+00	 2.50000000E-01	 0.00000000E+00
					 2.50000000E-01	 0.00000000E+00	 8.00000000E+00
					 5.00000000E-01	 0.00000000E+00	 8.00000000E+00
					 7.50000000E-01	 0.00000000E+00	 8.00000000E+00
					 1.00000000E+00	 2.50000000E-01	 8.00000000E+00
					 1.00000000E+00	 5.00000000E-01	 8.00000000E+00
					 1.00000000E+00	 7.50000000E-01	 8.00000000E+00
					 7.50000000E-01	 1.00000000E+00	 8.00000000E+00
					 5.00000000E-01	 1.00000000E+00	 8.00000000E+00
					 2.50000000E-01	 1.00000000E+00	 8.00000000E+00
					 0.00000000E+00	 7.50000000E-01	 8.00000000E+00
					 0.00000000E+00	 5.00000000E-01	 8.00000000E+00
					 0.00000000E+00	 2.50000000E-01	 8.00000000E+00
					 1.00000000E+00	 0.00000000E+00	 5.00000000E-01
					 1.00000000E+00	 0.00000000E+00	 1.00000000E+00
					 1.00000000E+00	 0.00000000E+00	 1.50000000E+00
					 1.00000000E+00	 0.00000000E+00	 2.00000000E+00
					 1.00000000E+00	 0.00000000E+00	 2.50000000E+00
					 1.00000000E+00	 0.00000000E+00	 3.00000000E+00
					 1.00000000E+00	 0.00000000E+00	 3.50000000E+00
					 1.00000000E+00	 0.00000000E+00	 4.00000000E+00
					 1.00000000E+00	 0.00000000E+00	 4.50000000E+00
					 1.00000000E+00	 0.00000000E+00	 5.00000000E+00
					 1.00000000E+00	 0.00000000E+00	 5.50000000E+00
					 1.00000000E+00	 0.00000000E+00	 6.00000000E+00
					 1.00000000E+00	 0.00000000E+00	 6.50000000E+00
					 1.00000000E+00	 0.00000000E+00	 7.00000000E+00
					 1.00000000E+00	 0.00000000E+00	 7.50000000E+00
					 0.00000000E+00	 0.00000000E+00	 7.50000000E+00
					 0.00000000E+00	 0.00000000E+00	 7.00000000E+00
					 0.00000000E+00	 0.00000000E+00	 6.50000000E+00
					 0.00000000E+00	 0.00000000E+00	 6.00000000E+00
					 0.00000000E+00	 0.00000000E+00	 5.50000000E+00
					 0.00000000E+00	 0.00000000E+00	 5.00000000E+00
					 0.00000000E+00	 0.00000000E+00	 4.50000000E+00
					 0.00000000E+00	 0.00000000E+00	 4.00000000E+00
					 0.00000000E+00	 0.00000000E+00	 3.50000000E+00
					 0.00000000E+00	 0.00000000E+00	 3.00000000E+00
					 0.00000000E+00	 0.00000000E+00	 2.50000000E+00
					 0.00000000E+00	 0.00000000E+00	 2.00000000E+00
					 0.00000000E+00	 0.00000000E+00	 1.50000000E+00
					 0.00000000E+00	 0.00000000E+00	 1.00000000E+00
					 0.00000000E+00	 0.00000000E+00	 5.00000000E-01
					 1.00000000E+00	 1.00000000E+00	 5.00000000E-01
					 1.00000000E+00	 1.00000000E+00	 1.00000000E+00
					 1.00000000E+00	 1.00000000E+00	 1.50000000E+00
					 1.00000000E+00	 1.00000000E+00	 2.00000000E+00
					 1.00000000E+00	 1.00000000E+00	 2.50000000E+00
					 1.00000000E+00	 1.00000000E+00	 3.00000000E+00
					 1.00000000E+00	 1.00000000E+00	 3.50000000E+00
					 1.00000000E+00	 1.00000000E+00	 4.00000000E+00
					 1.00000000E+00	 1.00000000E+00	 4.50000000E+00
					 1.00000000E+00	 1.00000000E+00	 5.00000000E+00
					 1.00000000E+00	 1.00000000E+00	 5.50000000E+00
					 1.00000000E+00	 1.00000000E+00	 6.00000000E+00
					 1.00000000E+00	 1.00000000E+00	 6.50000000E+00
					 1.00000000E+00	 1.00000000E+00	 7.00000000E+00
					 1.00000000E+00	 1.00000000E+00	 7.50000000E+00
					 0.00000000E+00	 1.00000000E+00	 5.00000000E-01
					 0.00000000E+00	 1.00000000E+00	 1.00000000E+00
					 0.00000000E+00	 1.00000000E+00	 1.50000000E+00
					 0.00000000E+00	 1.00000000E+00	 2.00000000E+00
					 0.00000000E+00	 1.00000000E+00	 2.50000000E+00
					 0.00000000E+00	 1.00000000E+00	 3.00000000E+00
					 0.00000000E+00	 1.00000000E+00	 3.50000000E+00
					 0.00000000E+00	 1.00000000E+00	 4.00000000E+00
					 0.00000000E+00	 1.00000000E+00	 4.50000000E+00
					 0.00000000E+00	 1.00000000E+00	 5.00000000E+00
					 0.00000000E+00	 1.00000000E+00	 5.50000000E+00
					 0.00000000E+00	 1.00000000E+00	 6.00000000E+00
					 0.00000000E+00	 1.00000000E+00	 6.50000000E+00
					 0.00000000E+00	 1.00000000E+00	 7.00000000E+00
					 0.00000000E+00	 1.00000000E+00	 7.50000000E+00
					 5.00000000E-01	 2.50000000E-01	 0.00000000E+00
					 2.50000000E-01	 5.00000000E-01	 0.00000000E+00
					 5.00000000E-01	 5.00000000E-01	 0.00000000E+00
					 7.50000000E-01	 5.00000000E-01	 0.00000000E+00
					 5.00000000E-01	 7.50000000E-01	 0.00000000E+00
					 5.00000000E-01	 2.50000000E-01	 8.00000000E+00
					 2.50000000E-01	 5.00000000E-01	 8.00000000E+00
					 5.00000000E-01	 5.00000000E-01	 8.00000000E+00
					 7.50000000E-01	 5.00000000E-01	 8.00000000E+00
					 5.00000000E-01	 7.50000000E-01	 8.00000000E+00
					 5.00000000E-01	 0.00000000E+00	 5.00000000E-01
					 2.50000000E-01	 0.00000000E+00	 1.00000000E+00
					 5.00000000E-01	 0.00000000E+00	 1.00000000E+00
					 7.50000000E-01	 0.00000000E+00	 1.00000000E+00
					 5.00000000E-01	 0.00000000E+00	 1.50000000E+00
					 2.50000000E-01	 0.00000000E+00	 2.00000000E+00
					 5.00000000E-01	 0.00000000E+00	 2.00000000E+00
					 7.50000000E-01	 0.00000000E+00	 2.00000000E+00
					 5.00000000E-01	 0.00000000E+00	 2.50000000E+00
					 2.50000000E-01	 0.00000000E+00	 3.00000000E+00
					 5.00000000E-01	 0.00000000E+00	 3.00000000E+00
					 7.50000000E-01	 0.00000000E+00	 3.00000000E+00
					 5.00000000E-01	 0.00000000E+00	 3.50000000E+00
					 2.50000000E-01	 0.00000000E+00	 4.00000000E+00
					 5.00000000E-01	 0.00000000E+00	 4.00000000E+00
					 7.50000000E-01	 0.00000000E+00	 4.00000000E+00
					 5.00000000E-01	 0.00000000E+00	 4.50000000E+00
					 2.50000000E-01	 0.00000000E+00	 5.00000000E+00
					 5.00000000E-01	 0.00000000E+00	 5.00000000E+00
					 7.50000000E-01	 0.00000000E+00	 5.00000000E+00
					 5.00000000E-01	 0.00000000E+00	 5.50000000E+00
					 2.50000000E-01	 0.00000000E+00	 6.00000000E+00
					 5.00000000E-01	 0.00000000E+00	 6.00000000E+00
					 7.50000000E-01	 0.00000000E+00	 6.00000000E+00
					 5.00000000E-01	 0.00000000E+00	 6.50000000E+00
					 2.50000000E-01	 0.00000000E+00	 7.00000000E+00
					 5.00000000E-01	 0.00000000E+00	 7.00000000E+00
					 7.50000000E-01	 0.00000000E+00	 7.00000000E+00
					 5.00000000E-01	 0.00000000E+00	 7.50000000E+00
					 1.00000000E+00	 5.00000000E-01	 5.00000000E-01
					 1.00000000E+00	 2.50000000E-01	 1.00000000E+00
					 1.00000000E+00	 5.00000000E-01	 1.00000000E+00
					 1.00000000E+00	 7.50000000E-01	 1.00000000E+00
					 1.00000000E+00	 5.00000000E-01	 1.50000000E+00
					 1.00000000E+00	 2.50000000E-01	 2.00000000E+00
					 1.00000000E+00	 5.00000000E-01	 2.00000000E+00
					 1.00000000E+00	 7.50000000E-01	 2.00000000E+00
					 1.00000000E+00	 5.00000000E-01	 2.50000000E+00
					 1.00000000E+00	 2.50000000E-01	 3.00000000E+00
					 1.00000000E+00	 5.00000000E-01	 3.00000000E+00
					 1.00000000E+00	 7.50000000E-01	 3.00000000E+00
					 1.00000000E+00	 5.00000000E-01	 3.50000000E+00
					 1.00000000E+00	 2.50000000E-01	 4.00000000E+00
					 1.00000000E+00	 5.00000000E-01	 4.00000000E+00
					 1.00000000E+00	 7.50000000E-01	 4.00000000E+00
					 1.00000000E+00	 5.00000000E-01	 4.50000000E+00
					 1.00000000E+00	 2.50000000E-01	 5.00000000E+00
					 1.00000000E+00	 5.00000000E-01	 5.00000000E+00
					 1.00000000E+00	 7.50000000E-01	 5.00000000E+00
					 1.00000000E+00	 5.00000000E-01	 5.50000000E+00
					 1.00000000E+00	 2.50000000E-01	 6.00000000E+00
					 1.00000000E+00	 5.00000000E-01	 6.00000000E+00
					 1.00000000E+00	 7.50000000E-01	 6.00000000E+00
					 1.00000000E+00	 5.00000000E-01	 6.50000000E+00
					 1.00000000E+00	 2.50000000E-01	 7.00000000E+00
					 1.00000000E+00	 5.00000000E-01	 7.00000000E+00
					 1.00000000E+00	 7.50000000E-01	 7.00000000E+00
					 1.00000000E+00	 5.00000000E-01	 7.50000000E+00
					 5.00000000E-01	 1.00000000E+00	 5.00000000E-01
					 7.50000000E-01	 1.00000000E+00	 1.00000000E+00
					 5.00000000E-01	 1.00000000E+00	 1.00000000E+00
					 2.50000000E-01	 1.00000000E+00	 1.00000000E+00
					 5.00000000E-01	 1.00000000E+00	 1.50000000E+00
					 7.50000000E-01	 1.00000000E+00	 2.00000000E+00
					 5.00000000E-01	 1.00000000E+00	 2.00000000E+00
					 2.50000000E-01	 1.00000000E+00	 2.00000000E+00
					 5.00000000E-01	 1.00000000E+00	 2.50000000E+00
					 7.50000000E-01	 1.00000000E+00	 3.00000000E+00
					 5.00000000E-01	 1.00000000E+00	 3.00000000E+00
					 2.50000000E-01	 1.00000000E+00	 3.00000000E+00
					 5.00000000E-01	 1.00000000E+00	 3.50000000E+00
					 7.50000000E-01	 1.00000000E+00	 4.00000000E+00
					 5.00000000E-01	 1.00000000E+00	 4.00000000E+00
					 2.50000000E-01	 1.00000000E+00	 4.00000000E+00
					 5.00000000E-01	 1.00000000E+00	 4.50000000E+00
					 7.50000000E-01	 1.00000000E+00	 5.00000000E+00
					 5.00000000E-01	 1.00000000E+00	 5.00000000E+00
					 2.50000000E-01	 1.00000000E+00	 5.00000000E+00
					 5.00000000E-01	 1.00000000E+00	 5.50000000E+00
					 7.50000000E-01	 1.00000000E+00	 6.00000000E+00
					 5.00000000E-01	 1.00000000E+00	 6.00000000E+00
					 2.50000000E-01	 1.00000000E+00	 6.00000000E+00
					 5.00000000E-01	 1.00000000E+00	 6.50000000E+00
					 7.50000000E-01	 1.00000000E+00	 7.00000000E+00
					 5.00000000E-01	 1.00000000E+00	 7.00000000E+00
					 2.50000000E-01	 1.00000000E+00	 7.00000000E+00
					 5.00000000E-01	 1.00000000E+00	 7.50000000E+00
					 0.00000000E+00	 5.00000000E-01	 5.00000000E-01
					 0.00000000E+00	 7.50000000E-01	 1.00000000E+00
					 0.00000000E+00	 5.00000000E-01	 1.00000000E+00
					 0.00000000E+00	 2.50000000E-01	 1.00000000E+00
					 0.00000000E+00	 5.00000000E-01	 1.50000000E+00
					 0.00000000E+00	 7.50000000E-01	 2.00000000E+00
					 0.00000000E+00	 5.00000000E-01	 2.00000000E+00
					 0.00000000E+00	 2.50000000E-01	 2.00000000E+00
					 0.00000000E+00	 5.00000000E-01	 2.50000000E+00
					 0.00000000E+00	 7.50000000E-01	 3.00000000E+00
					 0.00000000E+00	 5.00000000E-01	 3.00000000E+00
					 0.00000000E+00	 2.50000000E-01	 3.00000000E+00
					 0.00000000E+00	 5.00000000E-01	 3.50000000E+00
					 0.00000000E+00	 7.50000000E-01	 4.00000000E+00
					 0.00000000E+00	 5.00000000E-01	 4.00000000E+00
					 0.00000000E+00	 2.50000000E-01	 4.00000000E+00
					 0.00000000E+00	 5.00000000E-01	 4.50000000E+00
					 0.00000000E+00	 7.50000000E-01	 5.00000000E+00
					 0.00000000E+00	 5.00000000E-01	 5.00000000E+00
					 0.00000000E+00	 2.50000000E-01	 5.00000000E+00
					 0.00000000E+00	 5.00000000E-01	 5.50000000E+00
					 0.00000000E+00	 7.50000000E-01	 6.00000000E+00
					 0.00000000E+00	 5.00000000E-01	 6.00000000E+00
					 0.00000000E+00	 2.50000000E-01	 6.00000000E+00
					 0.00000000E+00	 5.00000000E-01	 6.50000000E+00
					 0.00000000E+00	 7.50000000E-01	 7.00000000E+00
					 0.00000000E+00	 5.00000000E-01	 7.00000000E+00
					 0.00000000E+00	 2.50000000E-01	 7.00000000E+00
					 0.00000000E+00	 5.00000000E-01	 7.50000000E+00
					 5.00000000E-01	 5.00000000E-01	 5.00000000E-01
					 5.00000000E-01	 2.50000000E-01	 1.00000000E+00
					 2.50000000E-01	 5.00000000E-01	 1.00000000E+00
					 5.00000000E-01	 5.00000000E-01	 1.00000000E+00
					 7.50000000E-01	 5.00000000E-01	 1.00000000E+00
					 5.00000000E-01	 7.50000000E-01	 1.00000000E+00
					 5.00000000E-01	 5.00000000E-01	 1.50000000E+00
					 5.00000000E-01	 2.50000000E-01	 2.00000000E+00
					 2.50000000E-01	 5.00000000E-01	 2.00000000E+00
					 5.00000000E-01	 5.00000000E-01	 2.00000000E+00
					 7.50000000E-01	 5.00000000E-01	 2.00000000E+00
					 5.00000000E-01	 7.50000000E-01	 2.00000000E+00
					 5.00000000E-01	 5.00000000E-01	 2.50000000E+00
					 5.00000000E-01	 2.50000000E-01	 3.00000000E+00
					 2.50000000E-01	 5.00000000E-01	 3.00000000E+00
					 5.00000000E-01	 5.00000000E-01	 3.00000000E+00
					 7.50000000E-01	 5.00000000E-01	 3.00000000E+00
					 5.00000000E-01	 7.50000000E-01	 3.00000000E+00
					 5.00000000E-01	 5.00000000E-01	 3.50000000E+00
					 5.00000000E-01	 2.50000000E-01	 4.00000000E+00
					 2.50000000E-01	 5.00000000E-01	 4.00000000E+00
					 5.00000000E-01	 5.00000000E-01	 4.00000000E+00
					 7.50000000E-01	 5.00000000E-01	 4.00000000E+00
					 5.00000000E-01	 7.50000000E-01	 4.00000000E+00
					 5.00000000E-01	 5.00000000E-01	 4.50000000E+00
					 5.00000000E-01	 2.50000000E-01	 5.00000000E+00
					 2.50000000E-01	 5.00000000E-01	 5.00000000E+00
					 5.00000000E-01	 5.00000000E-01	 5.00000000E+00
					 7.50000000E-01	 5.00000000E-01	 5.00000000E+00
					 5.00000000E-01	 7.50000000E-01	 5.00000000E+00
					 5.00000000E-01	 5.00000000E-01	 5.50000000E+00
					 5.00000000E-01	 2.50000000E-01	 6.00000000E+00
					 2.50000000E-01	 5.00000000E-01	 6.00000000E+00
					 5.00000000E-01	 5.00000000E-01	 6.00000000E+00
					 7.50000000E-01	 5.00000000E-01	 6.00000000E+00
					 5.00000000E-01	 7.50000000E-01	 6.00000000E+00
					 5.00000000E-01	 5.00000000E-01	 6.50000000E+00
					 5.00000000E-01	 2.50000000E-01	 7.00000000E+00
					 2.50000000E-01	 5.00000000E-01	 7.00000000E+00
					 5.00000000E-01	 5.00000000E-01	 7.00000000E+00
					 7.50000000E-01	 5.00000000E-01	 7.00000000E+00
					 5.00000000E-01	 7.50000000E-01	 7.00000000E+00
					 5.00000000E-01	 5.00000000E-01	 7.50000000E+00

				</DataArray>
			</Points>
			<Cells>
				<DataArray type="Int32" Name="connectivity" format="ascii">
					0 9 94 18 60 104 221 191 8 92 93 19 103 219 220 192 61 102 218 189 9 1 12 94 104 33 133 221 10 11 95 92 105 132 222 219 102 32 131 218 18 94 15 3 191 221 162 78 93 96 16 17 220 223 163 190 189 218 160 77 94 12 2 15 221 133 63 162 95 13 14 96 222 134 161 223 218 131 62 160 60 104 221 191 58 108 227 195 103 219 220 192 107 225 226 196 59 106 224 193 104 33 133 221 108 35 137 227 105 132 222 219 109 136 228 225 106 34 135 224 191 221 162 78 195 227 166 80 220 223 163 190 226 229 167 194 193 224 164 79 221 133 63 162 227 137 65 166 222 134 161 223 228 138 165 229 224 135 64 164 58 108 227 195 56 112 233 199 107 225 226 196 111 231 232 200 57 110 230 197 108 35 137 227 112 37 141 233 109 136 228 225 113 140 234 231 110 36 139 230 195 227 166 80 199 233 170 82 226 229 167 194 232 235 171 198 197 230 168 81 227 137 65 166 233 141 67 170 228 138 165 229 234 142 169 235 230 139 66 168 56 112 233 199 54 116 239 203 111 231 232 200 115 237 238 204 55 114 236 201 112 37 141 233 116 39 145 239 113 140 234 231 117 144 240 237 114 38 143 236 199 233 170 82 203 239 174 84 232 235 171 198 238 241 175 202 201 236 172 83 233 141 67 170 239 145 69 174 234 142 169 235 240 146 173 241 236 143 68 172 54 116 239 203 52 120 245 207 115 237 238 204 119 243 244 208 53 118 242 205 116 39 145 239 120 41 149 245 117 144 240 237 121 148 246 243 118 40 147 242 203 239 174 84 207 245 178 86 238 241 175 202 244 247 179 206 205 242 176 85 239 145 69 174 245 149 71 178 240 146 173 241 246 150 177 247 242 147 70 176 52 120 245 207 50 124 251 211 119 243 244 208 123 249 250 212 51 122 248 209 120 41 149 245 124 43 153 251 121 148 246 243 125 152 252 249 122 42 151 248 207 245 178 86 211 251 182 88 244 247 179 206 250 253 183 210 209 248 180 87 245 149 71 178 251 153 73 182 246 150 177 247 252 154 181 253 248 151 72 180 50 124 251 211 48 128 257 215 123 249 250 212 127 255 256 216 49 126 254 213 124 43 153 251 128 45 157 257 125 152 252 249 129 156 258 255 126 44 155 254 211 251 182 88 215 257 186 90 250 253 183 210 256 259 187 214 213 254 184 89 251 153 73 182 257 157 75 186 252 154 181 253 258 158 185 259 254 155 74 184 48 128 257 215 4 21 99 30 127 255 256 216 20 97 98 31 47 130 260 217 128 45 157 257 21 5 24 99 129 156 258 255 22 23 100 97 130 46 159 260 215 257 186 90 30 99 27 7 256 259 187 214 98 101 28 29 217 260 188 91 257 157 75 186 99 24 6 27 258 158 185 259 100 25 26 101 260 159 76 188 
				</DataArray>
				<DataArray type="Int32" Name="offsets" format="ascii">
					20 40 60 80 100 120 140 160 180 200 220 240 260 280 300 320 340 360 380 400 420 440 460 480 500 520 540 560 580 600 620 640 
				</DataArray>
				<DataArray type="UInt8" Name="types" format="ascii">
					25 25 25 25 25 25 25 25 25 25 25 25 25 25 25 25 25 25 25 25 25 25 25 25 25 25 25 25 25 25 25 25 
				</DataArray>
			</Cells>
			<PointData>
				<DataArray type="Float32" Name="U" NumberOfComponents="3" ComponentName0="D1" ComponentName1="D2" ComponentName2="D3" format="ascii">
					 0.00000000E+00	 0.00000000E+00	 0.00000000E+00
					 0.00000000E+00	 0.00000000E+00	 0.00000000E+00
					 0.00000000E+00	 0.00000000E+00	 0.00000000E+00
					 0.00000000E+00	 0.00000000E+00	 0.00000000E+00
					-8.17481000E-05	 1.75376000E-01	 1.63611000E-02
					 8.17481000E-05	 1.75376000E-01	 1.63611000E-02
					-8.17481000E-05	 1.75376000E-01	-1.63611000E-02
					 8.17481000E-05	 1.75376000E-01	-1.63611000E-02
					 0.00000000E+00	 0.00000000E+00	 0.00000000E+00
					 0.00000000E+00	 0.00000000E+00	 0.00000000E+00
					 0.00000000E+00	 0.00000000E+00	 0.00000000E+00
					 0.00000000E+00	 0.00000000E+00	 0.00000000E+00
					 0.00000000E+00	 0.00000000E+00	 0.00000000E+00
					 0.00000000E+00	 0.00000000E+00	 0.00000000E+00
					 0.00000000E+00	 0.00000000E+00	 0.00000000E+00
					 0.00000000E+00	 0.00000000E+00	 0.00000000E+00
					 0.00000000E+00	 0.00000000E+00	 0.00000000E+00
					 0.00000000E+00	 0.00000000E+00	 0.00000000E+00
					 0.00000000E+00	 0.00000000E+00	 0.00000000E+00
					 0.00000000E+00	 0.00000000E+00	 0.00000000E+00
					-3.73499000E-05	 1.75204000E-01	 1.63455000E-02
					 0.00000000E+00	 1.75189000E-01	 1.63113000E-02
					 3.73499000E-05	 1.75204000E-01	 1.63455000E-02
					 2.11641000E-07	 1.75242000E-01	 8.12704000E-03
					 0.00000000E+00	 1.75152000E-01	 0.00000000E+00
					-2.11641000E-07	 1.75242000E-01	-8.12704000E-03
					-3.73499000E-05	 1.75204000E-01	-1.63455000E-02
					 0.00000000E+00	 1.75189000E-01	-1.63113000E-02
					 3.73499000E-05	 1.75204000E-01	-1.63455000E-02
					 2.11641000E-07	 1.75242000E-01	-8.12704000E-03
					 0.00000000E+00	 1.75152000E-01	 0.00000000E+00
					-2.11640000E-07	 1.75242000E-01	 8.12704000E-03
					-6.17411000E-04	 1.07595000E-03	 1.85179000E-03
					-4.50078000E-04	 3.83963000E-03	 3.70909000E-03
					-5.08361000E-04	 8.64014000E-03	 5.45288000E-03
					-4.48692000E-04	 1.49663000E-02	 7.06496000E-03
					-4.26523000E-04	 2.29379000E-02	 8.53415000E-03
					-3.81850000E-04	 3.22552000E-02	 9.88620000E-03
					-3.47786000E-04	 4.28960000E-02	 1.11064000E-02
					-3.07528000E-04	 5.46727000E-02	 1.22015000E-02
					-2.70460000E-04	 6.74872000E-02	 1.31636000E-02
					-2.32875000E-04	 8.11998000E-02	 1.40002000E-02
					-1.90692000E-04	 9.56810000E-02	 1.47069000E-02
					-1.52844000E-04	 1.10825000E-01	 1.52892000E-02
					-1.19190000E-04	 1.26432000E-01	 1.57329000E-02
					-9.77239000E-05	 1.42481000E-01	 1.60547000E-02
					-7.60393000E-06	 1.58764000E-01	 1.62529000E-02
					 7.60393000E-06	 1.58764000E-01	 1.62529000E-02
					 9.77239000E-05	 1.42481000E-01	 1.60547000E-02
					 1.19190000E-04	 1.26432000E-01	 1.57329000E-02
					 1.52844000E-04	 1.10825000E-01	 1.52892000E-02
					 1.90692000E-04	 9.56810000E-02	 1.47069000E-02
					 2.32875000E-04	 8.11998000E-02	 1.40002000E-02
					 2.70460000E-04	 6.74872000E-02	 1.31636000E-02
					 3.07528000E-04	 5.46727000E-02	 1.22015000E-02
					 3.47786000E-04	 4.28960000E-02	 1.11064000E-02
					 3.81850000E-04	 3.22552000E-02	 9.88620000E-03
					 4.26523000E-04	 2.29379000E-02	 8.53415000E-03
					 4.48692000E-04	 1.49663000E-02	 7.06496000E-03
					 5.08361000E-04	 8.64014000E-03	 5.45288000E-03
					 4.50078000E-04	 3.83963000E-03	 3.70909000E-03
					 6.17411000E-04	 1.07595000E-03	 1.85179000E-03
					 6.17411000E-04	 1.07595000E-03	-1.85179000E-03
					 4.50078000E-04	 3.83963000E-03	-3.70909000E-03
					 5.08361000E-04	 8.64014000E-03	-5.45288000E-03
					 4.48692000E-04	 1.49663000E-02	-7.06496000E-03
					 4.26523000E-04	 2.29379000E-02	-8.53415000E-03
					 3.81850000E-04	 3.22552000E-02	-9.88620000E-03
					 3.47786000E-04	 4.28960000E-02	-1.11064000E-02
					 3.07528000E-04	 5.46727000E-02	-1.22015000E-02
					 2.70460000E-04	 6.74872000E-02	-1.31636000E-02
					 2.32875000E-04	 8.11998000E-02	-1.40002000E-02
					 1.90692000E-04	 9.56810000E-02	-1.47069000E-02
					 1.52844000E-04	 1.10825000E-01	-1.52892000E-02
					 1.19190000E-04	 1.26432000E-01	-1.57329000E-02
					 9.77239000E-05	 1.42481000E-01	-1.60547000E-02
					 7.60393000E-06	 1.58764000E-01	-1.62529000E-02
					-6.17411000E-04	 1.07595000E-03	-1.85179000E-03
					-4.50078000E-04	 3.83963000E-03	-3.70909000E-03
					-5.08361000E-04	 8.64014000E-03	-5.45288000E-03
					-4.48692000E-04	 1.49663000E-02	-7.06496000E-03
					-4.26523000E-04	 2.29379000E-02	-8.53415000E-03
					-3.81850000E-04	 3.22552000E-02	-9.88620000E-03
					-3.47786000E-04	 4.28960000E-02	-1.11064000E-02
					-3.07528000E-04	 5.46727000E-02	-1.22015000E-02
					-2.70460000E-04	 6.74872000E-02	-1.31636000E-02
					-2.32875000E-04	 8.11998000E-02	-1.40002000E-02
					-1.90692000E-04	 9.56810000E-02	-1.47069000E-02
					-1.52844000E-04	 1.10825000E-01	-1.52892000E-02
					-1.19190000E-04	 1.26432000E-01	-1.57329000E-02
					-9.77239000E-05	 1.42481000E-01	-1.60547000E-02
					-7.60393000E-06	 1.58764000E-01	-1.62529000E-02
					 0.00000000E+00	 0.00000000E+00	 0.00000000E+00
					 0.00000000E+00	 0.00000000E+00	 0.00000000E+00
					 0.00000000E+00	 0.00000000E+00	 0.00000000E+00
					 0.00000000E+00	 0.00000000E+00	 0.00000000E+00
					 0.00000000E+00	 0.00000000E+00	 0.00000000E+00
					 0.00000000E+00	 1.75148000E-01	 8.13657000E-03
					 0.00000000E+00	 1.75142000E-01	 0.00000000E+00
					 0.00000000E+00	 1.75112000E-01	 0.00000000E+00
					 0.00000000E+00	 1.75142000E-01	 0.00000000E+00
					 0.00000000E+00	 1.75148000E-01	-8.13657000E-03
					 0.00000000E+00	 1.34068000E-03	 1.79848000E-03
					 2.22816000E-04	 4.05720000E-03	 3.73297000E-03
					 0.00000000E+00	 4.10623000E-03	 3.75997000E-03
					-2.22816000E-04	 4.05720000E-03	 3.73297000E-03
					 0.00000000E+00	 8.88172000E-03	 5.45430000E-03
					 2.24376000E-04	 1.51403000E-02	 7.07811000E-03
					 0.00000000E+00	 1.52084000E-02	 7.08019000E-03
					-2.24376000E-04	 1.51403000E-02	 7.07811000E-03
					 0.00000000E+00	 2.31460000E-02	 8.54120000E-03
					 1.90805000E-04	 3.24036000E-02	 9.89550000E-03
					 0.00000000E+00	 3.24529000E-02	 9.89577000E-03
					-1.90805000E-04	 3.24036000E-02	 9.89550000E-03
					 0.00000000E+00	 4.30683000E-02	 1.11146000E-02
					 1.53799000E-04	 5.47880000E-02	 1.22104000E-02
					 0.00000000E+00	 5.48275000E-02	 1.22096000E-02
					-1.53799000E-04	 5.47880000E-02	 1.22104000E-02
					 0.00000000E+00	 6.76231000E-02	 1.31719000E-02
					 1.16344000E-04	 8.12868000E-02	 1.40093000E-02
					 0.00000000E+00	 8.13129000E-02	 1.40084000E-02
					-1.16344000E-04	 8.12868000E-02	 1.40093000E-02
					 0.00000000E+00	 9.57789000E-02	 1.47152000E-02
					 7.67768000E-05	 1.10870000E-01	 1.52969000E-02
					 0.00000000E+00	 1.10887000E-01	 1.52958000E-02
					-7.67768000E-05	 1.10870000E-01	 1.52969000E-02
					 0.00000000E+00	 1.26503000E-01	 1.57417000E-02
					 4.73620000E-05	 1.42520000E-01	 1.60657000E-02
					 0.00000000E+00	 1.42500000E-01	 1.60658000E-02
					-4.73620000E-05	 1.42520000E-01	 1.60657000E-02
					 0.00000000E+00	 1.58784000E-01	 1.62569000E-02
					 0.00000000E+00	 6.96228000E-04	 0.00000000E+00
					-2.27109000E-04	 3.68670000E-03	 1.83809000E-03
					 0.00000000E+00	 3.70990000E-03	 0.00000000E+00
					 2.27109000E-04	 3.68670000E-03	-1.83809000E-03
					 0.00000000E+00	 8.34444000E-03	 0.00000000E+00
					-2.23839000E-04	 1.48300000E-02	 3.50972000E-03
					 0.00000000E+00	 1.47985000E-02	 0.00000000E+00
					 2.23839000E-04	 1.48300000E-02	-3.50972000E-03
					 0.00000000E+00	 2.27085000E-02	 0.00000000E+00
					-1.91042000E-04	 3.21208000E-02	 4.92326000E-03
					 0.00000000E+00	 3.20856000E-02	 0.00000000E+00
					 1.91042000E-04	 3.21208000E-02	-4.92326000E-03
					 0.00000000E+00	 4.27164000E-02	 0.00000000E+00
					-1.53874000E-04	 5.45604000E-02	 6.07975000E-03
					 0.00000000E+00	 5.45247000E-02	 0.00000000E+00
					 1.53874000E-04	 5.45604000E-02	-6.07975000E-03
					 0.00000000E+00	 6.73522000E-02	 0.00000000E+00
					-1.15830000E-04	 8.11117000E-02	 6.97999000E-03
					 0.00000000E+00	 8.10810000E-02	 0.00000000E+00
					 1.15830000E-04	 8.11117000E-02	-6.97999000E-03
					 0.00000000E+00	 9.55877000E-02	 0.00000000E+00
					-7.89881000E-05	 1.10753000E-01	 7.62219000E-03
					 0.00000000E+00	 1.10723000E-01	 0.00000000E+00
					 7.89881000E-05	 1.10753000E-01	-7.62219000E-03
					 0.00000000E+00	 1.26395000E-01	 0.00000000E+00
					-3.89921000E-05	 1.42443000E-01	 8.01357000E-03
					 0.00000000E+00	 1.42413000E-01	 0.00000000E+00
					 3.89921000E-05	 1.42443000E-01	-8.01357000E-03
					 0.00000000E+00	 1.58757000E-01	 0.00000000E+00
					 0.00000000E+00	 1.34068000E-03	-1.79848000E-03
					 2.22816000E-04	 4.05720000E-03	-3.73297000E-03
					 0.00000000E+00	 4.10623000E-03	-3.75997000E-03
					-2.22816000E-04	 4.05720000E-03	-3.73297000E-03
					 0.00000000E+00	 8.88172000E-03	-5.45430000E-03
					 2.24376000E-04	 1.51403000E-02	-7.07811000E-03
					 0.00000000E+00	 1.52084000E-02	-7.08019000E-03
					-2.24376000E-04	 1.51403000E-02	-7.07811000E-03
					 0.00000000E+00	 2.31460000E-02	-8.54120000E-03
					 1.90805000E-04	 3.24036000E-02	-9.89550000E-03
					 0.00000000E+00	 3.24529000E-02	-9.89577000E-03
					-1.90805000E-04	 3.24036000E-02	-9.89550000E-03
					 0.00000000E+00	 4.30683000E-02	-1.11146000E-02
					 1.53799000E-04	 5.47880000E-02	-1.22104000E-02
					 0.00000000E+00	 5.48275000E-02	-1.22096000E-02
					-1.53799000E-04	 5.47880000E-02	-1.22104000E-02
					 0.00000000E+00	 6.76231000E-02	-1.31719000E-02
					 1.16344000E-04	 8.12868000E-02	-1.40093000E-02
					 0.00000000E+00	 8.13129000E-02	-1.40084000E-02
					-1.16344000E-04	 8.12868000E-02	-1.40093000E-02
					 0.00000000E+00	 9.57789000E-02	-1.47152000E-02
					 7.67768000E-05	 1.10870000E-01	-1.52969000E-02
					 0.00000000E+00	 1.10887000E-01	-1.52958000E-02
					-7.67768000E-05	 1.10870000E-01	-1.52969000E-02
					 0.00000000E+00	 1.26503000E-01	-1.57417000E-02
					 4.73620000E-05	 1.42520000E-01	-1.60657000E-02
					 0.00000000E+00	 1.42500000E-01	-1.60658000E-02
					-4.73620000E-05	 1.42520000E-01	-1.60657000E-02
					 0.00000000E+00	 1.58784000E-01	-1.62569000E-02
					 0.00000000E+00	 6.96228000E-04	 0.00000000E+00
					-2.27109000E-04	 3.68670000E-03	-1.83809000E-03
					 0.00000000E+00	 3.70990000E-03	 0.00000000E+00
					 2.27109000E-04	 3.68670000E-03	 1.83809000E-03
					 0.00000000E+00	 8.34444000E-03	 0.00000000E+00
					-2.23839000E-04	 1.48300000E-02	-3.50972000E-03
					 0.00000000E+00	 1.47985000E-02	 0.00000000E+00
					 2.23839000E-04	 1.48300000E-02	 3.50972000E-03
					 0.00000000E+00	 2.27085000E-02	 0.00000000E+00
					-1.91042000E-04	 3.21208000E-02	-4.92326000E-03
					 0.00000000E+00	 3.20856000E-02	 0.00000000E+00
					 1.91042000E-04	 3.21208000E-02	 4.92326000E-03
					 0.00000000E+00	 4.27164000E-02	 0.00000000E+00
					-1.53874000E-04	 5.45604000E-02	-6.07975000E-03
					 0.00000000E+00	 5.45247000E-02	 0.00000000E+00
					 1.53874000E-04	 5.45604000E-02	 6.07975000E-03
					 0.00000000E+00	 6.73522000E-02	 0.00000000E+00
					-1.15830000E-04	 8.11117000E-02	-6.97999000E-03
					 0.00000000E+00	 8.10810000E-02	 0.00000000E+00
					 1.15830000E-04	 8.11117000E-02	 6.97999000E-03
					 0.00000000E+00	 9.55877000E-02	 0.00000000E+00
					-7.89881000E-05	 1.10753000E-01	-7.62219000E-03
					 0.00000000E+00	 1.10723000E-01	 0.00000000E+00
					 7.89881000E-05	 1.10753000E-01	 7.62219000E-03
					 0.00000000E+00	 1.26395000E-01	 0.00000000E+00
					-3.89921000E-05	 1.42443000E-01	-8.01357000E-03
					 0.00000000E+00	 1.42413000E-01	 0.00000000E+00
					 3.89921000E-05	 1.42443000E-01	 8.01357000E-03
					 0.00000000E+00	 1.58757000E-01	 0.00000000E+00
					 0.00000000E+00	 9.59462000E-04	 0.00000000E+00
					 0.00000000E+00	 3.94031000E-03	 1.85978000E-03
					 0.00000000E+00	 3.91922000E-03	 0.00000000E+00
					 0.00000000E+00	 3.95586000E-03	 0.00000000E+00
					 0.00000000E+00	 3.91922000E-03	 0.00000000E+00
					 0.00000000E+00	 3.94031000E-03	-1.85978000E-03
					 0.00000000E+00	 8.59483000E-03	 0.00000000E+00
					 0.00000000E+00	 1.50639000E-02	 3.52252000E-03
					 0.00000000E+00	 1.49633000E-02	 0.00000000E+00
					 0.00000000E+00	 1.50231000E-02	 0.00000000E+00
					 0.00000000E+00	 1.49633000E-02	 0.00000000E+00
					 0.00000000E+00	 1.50639000E-02	-3.52252000E-03
					 0.00000000E+00	 2.29225000E-02	 0.00000000E+00
					 0.00000000E+00	 3.23143000E-02	 4.93193000E-03
					 0.00000000E+00	 3.22301000E-02	 0.00000000E+00
					 0.00000000E+00	 3.22754000E-02	 0.00000000E+00
					 0.00000000E+00	 3.22301000E-02	 0.00000000E+00
					 0.00000000E+00	 3.23143000E-02	-4.93193000E-03
					 0.00000000E+00	 4.28907000E-02	 0.00000000E+00
					 0.00000000E+00	 5.47149000E-02	 6.08804000E-03
					 0.00000000E+00	 5.46399000E-02	 0.00000000E+00
					 0.00000000E+00	 5.46786000E-02	 0.00000000E+00
					 0.00000000E+00	 5.46399000E-02	 0.00000000E+00
					 0.00000000E+00	 5.47149000E-02	-6.08804000E-03