# vtk DataFile Version 3.0

ASCII
DATASET UNSTRUCTURED_GRID

POINTS 40 double
	 1.00000000E+00	 1.00000000E+00	 0.00000000E+00
	 1.00000000E+00	 0.00000000E+00	 0.00000000E+00
	 1.00000000E+00	 0.00000000E+00	 1.00000000E+00
	 1.00000000E+00	 1.00000000E+00	 1.00000000E+00
	 0.00000000E+00	 1.00000000E+00	 0.00000000E+00
	 0.00000000E+00	 0.00000000E+00	 0.00000000E+00
	 0.00000000E+00	 0.00000000E+00	 1.00000000E+00
	 0.00000000E+00	 1.00000000E+00	 1.00000000E+00
	 1.00000000E+00	 5.00000000E-01	 0.00000000E+00
	 1.00000000E+00	 0.00000000E+00	 5.00000000E-01
	 1.00000000E+00	 5.00000000E-01	 1.00000000E+00
	 1.00000000E+00	 1.00000000E+00	 5.00000000E-01
	 5.00000000E-01	 1.00000000E+00	 0.00000000E+00
	 5.00000000E-01	 0.00000000E+00	 0.00000000E+00
	 5.00000000E-01	 0.00000000E+00	 1.00000000E+00
	 5.00000000E-01	 1.00000000E+00	 1.00000000E+00
	 0.00000000E+00	 5.00000000E-01	 0.00000000E+00
	 0.00000000E+00	 0.00000000E+00	 5.00000000E-01
	 0.00000000E+00	 5.00000000E-01	 1.00000000E+00
	 0.00000000E+00	 1.00000000E+00	 5.00000000E-01
	 7.50000000E-01	 7.50000000E-01	 1.00000000E+00
	 7.50000000E-01	 2.50000000E-01	 1.00000000E+00
	 7.50000000E-01	 2.50000000E-01	 1.50000000E+00
	 7.50000000E-01	 7.50000000E-01	 1.50000000E+00
	 2.50000000E-01	 7.50000000E-01	 1.00000000E+00
	 2.50000000E-01	 2.50000000E-01	 1.00000000E+00
	 2.50000000E-01	 2.50000000E-01	 1.50000000E+00
	 2.50000000E-01	 7.50000000E-01	 1.50000000E+00
	 7.50000000E-01	 5.00000000E-01	 1.00000000E+00
	 7.50000000E-01	 2.50000000E-01	 1.25000000E+00
	 7.50000000E-01	 5.00000000E-01	 1.50000000E+00
	 7.50000000E-01	 7.50000000E-01	 1.25000000E+00
	 5.00000000E-01	 7.50000000E-01	 1.00000000E+00
	 5.00000000E-01	 2.50000000E-01	 1.00000000E+00
	 5.00000000E-01	 2.50000000E-01	 1.50000000E+00
	 5.00000000E-01	 7.50000000E-01	 1.50000000E+00
	 2.50000000E-01	 5.00000000E-01	 1.00000000E+00
	 2.50000000E-01	 2.50000000E-01	 1.25000000E+00
	 2.50000000E-01	 5.00000000E-01	 1.50000000E+00
	 2.50000000E-01	 7.50000000E-01	 1.25000000E+00

CELLS 2 42
	20 0 1 2 3 4 5 6 7 8 9 10 11 16 17 18 19 12 13 14 15 
	20 20 21 22 23 24 25 26 27 28 29 30 31 36 37 38 39 32 33 34 35 

CELL_TYPES 2
	25
	25

POINT_DATA 40
FIELD U 1
	U 3 40 double
		 0.00000000E+00	 0.00000000E+00	 0.00000000E+00
		 0.00000000E+00	 0.00000000E+00	 0.00000000E+00
		 7.39921000E-05	-3.86797000E-06	-1.40558000E-04
		 7.39921000E-05	 3.86797000E-06	-1.40558000E-04
		 0.00000000E+00	 0.00000000E+00	 0.00000000E+00
		 0.00000000E+00	 0.00000000E+00	 0.00000000E+00
		 7.65172000E-05	 2.92074000E-06	-3.24160000E-06
		 7.65172000E-05	-2.92074000E-06	-3.24160000E-06
		 0.00000000E+00	 0.00000000E+00	 0.00000000E+00
		 3.23837000E-05	-3.51612000E-05	-6.66336000E-05
		 8.44550000E-05	 0.00000000E+00	-1.98589000E-04
		 3.23837000E-05	 3.51612000E-05	-6.66336000E-05
		 0.00000000E+00	 0.00000000E+00	 0.00000000E+00
		 0.00000000E+00	 0.00000000E+00	 0.00000000E+00
		 6.73732000E-05	-2.86039000E-06	-1.05253000E-04
		 6.73732000E-05	 2.86039000E-06	-1.05253000E-04
		 0.00000000E+00	 0.00000000E+00	 0.00000000E+00
		 1.11382000E-06	-6.38825000E-06	-4.66209000E-06
		 8.25528000E-05	 0.00000000E+00	-1.67293000E-05
		 1.11382000E-06	 6.38825000E-06	-4.66209000E-06
		-2.44252000E-03	-1.73262000E-05	-3.14691000E-03
		-2.44252000E-03	 1.73262000E-05	-3.14691000E-03
		 1.56250000E-03	 0.00000000E+00	-3.12157000E-03
		 1.56250000E-03	 0.00000000E+00	-3.12157000E-03
		-2.41934000E-03	 7.95733000E-06	 8.93394000E-04
		-2.41934000E-03	-7.95733000E-06	 8.93394000E-04
		 1.56250000E-03	 0.00000000E+00	 8.57420000E-04
		 1.56250000E-03	 0.00000000E+00	 8.57420000E-04
		-2.43853000E-03	 0.00000000E+00	-3.09744000E-03
		-4.42239000E-04	-7.98960000E-06	-3.13071000E-03
		 1.56250000E-03	 0.00000000E+00	-3.14071000E-03
		-4.42239000E-04	 7.98960000E-06	-3.13071000E-03
		-2.43089000E-03	-5.93207000E-06	-1.11865000E-03
		-2.43089000E-03	 5.93207000E-06	-1.11865000E-03
		 1.56250000E-03	 0.00000000E+00	-1.13073000E-03
		 1.56250000E-03	 0.00000000E+00	-1.13073000E-03
		-2.42251000E-03	 0.00000000E+00	 8.75016000E-04
		-4.26366000E-04	 5.98922000E-07	 8.75736000E-04
		 1.56250000E-03	 0.00000000E+00	 8.63877000E-04
		-4.26366000E-04	-5.98922000E-07	 8.75736000E-04
FIELD RF 1
	RF 3 40 double
		 0.00000000E+00	 0.00000000E+00	 0.00000000E+00
		 0.00000000E+00	 0.00000000E+00	 0.00000000E+00
		-1.19702000E-04	-6.16415000E-07	 3.18905000E-03
		-1.19702000E-04	 6.16415000E-07	 3.18905000E-03
		 0.00000000E+00	 0.00000000E+00	 0.00000000E+00
		 0.00000000E+00	 0.00000000E+00	 0.00000000E+00
		-8.20858000E-05	-2.02936000E-07	 3.13701000E-03
		-8.20858000E-05	 2.02936000E-07	 3.13701000E-03
		 0.00000000E+00	 0.00000000E+00	 0.00000000E+00
		-4.86374000E-06	 2.80218000E-06	 2.62533000E-06
		 1.86428000E-04	 0.00000000E+00	-5.02281000E-03
		-4.86374000E-06	-2.80218000E-06	 2.62533000E-06
		 0.00000000E+00	 0.00000000E+00	 0.00000000E+00
		 0.00000000E+00	 0.00000000E+00	 0.00000000E+00
		 3.72006000E-04	 3.29043000E-06	-6.52260000E-03
		 3.72006000E-04	-3.29043000E-06	-6.52260000E-03
		 0.00000000E+00	 0.00000000E+00	 0.00000000E+00
		 3.17677000E-06	 2.50850000E-06	 5.31921000E-06
		 2.32814000E-04	 0.00000000E+00	-8.63238000E-03
		 3.17677000E-06	-2.50850000E-06	 5.31921000E-06
		 1.95154000E-03	 9.44785000E-04	-3.74021000E-03
		 1.95154000E-03	-9.44785000E-04	-3.74021000E-03
		 0.00000000E+00	 0.00000000E+00	 1.33811000E-03
		 0.00000000E+00	 0.00000000E+00	 1.33811000E-03
		 8.99297000E-03	 9.40197000E-04	 2.69793000E-01
		 8.99297000E-03	-9.40197000E-04	 2.69793000E-01
		 0.00000000E+00	 0.00000000E+00	 1.39560000E-03
		 0.00000000E+00	 0.00000000E+00	 1.39560000E-03
		-4.63014000E-02	 0.00000000E+00	-1.31966000E+00
		-7.87146000E-03	 3.78005000E-03	 9.67593000E-05
		 0.00000000E+00	 0.00000000E+00	-5.43133000E-03
		-7.87146000E-03	-3.78005000E-03	 9.67593000E-05
		-2.92731000E-02	-3.78268000E-03	-6.63281000E-01
		-2.92731000E-02	 3.78268000E-03	-6.63281000E-01
		 0.00000000E+00	 0.00000000E+00	-5.48476000E-03
		 0.00000000E+00	 0.00000000E+00	-5.48476000E-03
		-5.85523000E-03	 0.00000000E+00	-2.75387000E-01
		 7.89934000E-03	 3.76506000E-03	-7.91685000E-05
		 0.00000000E+00	 0.00000000E+00	-5.54118000E-03
		 7.89934000E-03	-3.76506000E-03	-7.91685000E-05
