# vtk DataFile Version 3.0

ASCII
DATASET UNSTRUCTURED_GRID

POINTS 40 double
	 1.00000000E+00	 1.00000000E+00	 0.00000000E+00
	 1.00000000E+00	 0.00000000E+00	 0.00000000E+00
	 1.00000000E+00	 0.00000000E+00	 1.00000000E+00
	 1.00000000E+00	 1.00000000E+00	 1.00000000E+00
	 0.00000000E+00	 1.00000000E+00	 0.00000000E+00
	 0.00000000E+00	 0.00000000E+00	 0.00000000E+00
	 0.00000000E+00	 0.00000000E+00	 1.00000000E+00
	 0.00000000E+00	 1.00000000E+00	 1.00000000E+00
	 1.00000000E+00	 5.00000000E-01	 0.00000000E+00
	 1.00000000E+00	 0.00000000E+00	 5.00000000E-01
	 1.00000000E+00	 5.00000000E-01	 1.00000000E+00
	 1.00000000E+00	 1.00000000E+00	 5.00000000E-01
	 5.00000000E-01	 1.00000000E+00	 0.00000000E+00
	 5.00000000E-01	 0.00000000E+00	 0.00000000E+00
	 5.00000000E-01	 0.00000000E+00	 1.00000000E+00
	 5.00000000E-01	 1.00000000E+00	 1.00000000E+00
	 0.00000000E+00	 5.00000000E-01	 0.00000000E+00
	 0.00000000E+00	 0.00000000E+00	 5.00000000E-01
	 0.00000000E+00	 5.00000000E-01	 1.00000000E+00
	 0.00000000E+00	 1.00000000E+00	 5.00000000E-01
	 7.50000000E-01	 7.50000000E-01	 1.00000000E+00
	 7.50000000E-01	 2.50000000E-01	 1.00000000E+00
	 7.50000000E-01	 2.50000000E-01	 1.50000000E+00
	 7.50000000E-01	 7.50000000E-01	 1.50000000E+00
	 2.50000000E-01	 7.50000000E-01	 1.00000000E+00
	 2.50000000E-01	 2.50000000E-01	 1.00000000E+00
	 2.50000000E-01	 2.50000000E-01	 1.50000000E+00
	 2.50000000E-01	 7.50000000E-01	 1.50000000E+00
	 7.50000000E-01	 5.00000000E-01	 1.00000000E+00
	 7.50000000E-01	 2.50000000E-01	 1.25000000E+00
	 7.50000000E-01	 5.00000000E-01	 1.50000000E+00
	 7.50000000E-01	 7.50000000E-01	 1.25000000E+00
	 5.00000000E-01	 7.50000000E-01	 1.00000000E+00
	 5.00000000E-01	 2.50000000E-01	 1.00000000E+00
	 5.00000000E-01	 2.50000000E-01	 1.50000000E+00
	 5.00000000E-01	 7.50000000E-01	 1.50000000E+00
	 2.50000000E-01	 5.00000000E-01	 1.00000000E+00
	 2.50000000E-01	 2.50000000E-01	 1.25000000E+00
	 2.50000000E-01	 5.00000000E-01	 1.50000000E+00
	 2.50000000E-01	 7.50000000E-01	 1.25000000E+00

CELLS 2 42
	20 0 1 2 3 4 5 6 7 8 9 10 11 16 17 18 19 12 13 14 15 
	20 20 21 22 23 24 25 26 27 28 29 30 31 36 37 38 39 32 33 34 35 

CELL_TYPES 2
	25
	25

POINT_DATA 40
FIELD DOR1 1
	DOR1 3 40 double
		 0.00000000E+00	 0.00000000E+00	 0.00000000E+00
		 0.00000000E+00	 0.00000000E+00	 0.00000000E+00
		-8.76379000E-05	 9.95696000E-06	 1.76297000E-05
		-8.76379000E-05	-9.95696000E-06	 1.76297000E-05
		 0.00000000E+00	 0.00000000E+00	 0.00000000E+00
		 0.00000000E+00	 0.00000000E+00	 0.00000000E+00
		-1.03230000E-04	-6.13356000E-06	-3.14608000E-05
		-1.03230000E-04	 6.13357000E-06	-3.14608000E-05
		 0.00000000E+00	 0.00000000E+00	 0.00000000E+00
		-4.74479000E-05	 5.87309000E-06	 9.24584000E-06
		-9.10739000E-05	 0.00000000E+00	 1.20742000E-05
		-4.74479000E-05	-5.87309000E-06	 9.24583000E-06
		 0.00000000E+00	 0.00000000E+00	 0.00000000E+00
		 0.00000000E+00	 0.00000000E+00	 0.00000000E+00
		-9.83723000E-05	 7.61591000E-06	 3.35154000E-05
		-9.83723000E-05	-7.61590000E-06	 3.35154000E-05
		 0.00000000E+00	 0.00000000E+00	 0.00000000E+00
		-3.77078000E-05	-4.70129000E-06	-1.52767000E-05
		-1.10757000E-04	 0.00000000E+00	-3.00621000E-05
		-3.77078000E-05	 4.70129000E-06	-1.52767000E-05
		 2.16421000E-04	-1.64241000E-05	 2.67641000E-05
		 2.16421000E-04	 1.64240000E-05	 2.67641000E-05
		 0.00000000E+00	 0.00000000E+00	 6.60717000E-05
		 0.00000000E+00	 0.00000000E+00	 6.60717000E-05
		 1.77623000E-04	-6.15954000E-06	 9.41089000E-06
		 1.77623000E-04	 6.15951000E-06	 9.41090000E-06
		 0.00000000E+00	 0.00000000E+00	 3.33518000E-05
		 0.00000000E+00	 0.00000000E+00	 3.33518000E-05
		 2.12860000E-04	 0.00000000E+00	 2.73532000E-05
		 9.66777000E-05	 9.14961000E-06	 5.20443000E-05
		 0.00000000E+00	 0.00000000E+00	 6.88441000E-05
		 9.66777000E-05	-9.14963000E-06	 5.20443000E-05
		 1.96732000E-04	-9.79974000E-06	 3.41568000E-05
		 1.96732000E-04	 9.79971000E-06	 3.41568000E-05
		 0.00000000E+00	 0.00000000E+00	 6.63215000E-05
		 0.00000000E+00	 0.00000000E+00	 6.63215000E-05
		 1.79294000E-04	 0.00000000E+00	 9.89834000E-06
		 9.63309000E-05	 6.47733000E-06	 1.37936000E-05
		 0.00000000E+00	 0.00000000E+00	 3.69156000E-05
		 9.63309000E-05	-6.47735000E-06	 1.37936000E-05
