<?xml version="1.0"?>
<VTKFile type="UnstructuredGrid" version="0.1" byte_order="LittleEndian">
	<UnstructuredGrid>
		<Piece NumberOfPoints="40" NumberOfCells="2">
			<Points>
				<DataArray type="Float64" NumberOfComponents="3" format="ascii">
					 1.00000000E+00	 1.00000000E+00	 0.00000000E+00
					 1.00000000E+00	 0.00000000E+00	 0.00000000E+00
					 1.00000000E+00	 0.00000000E+00	 1.00000000E+00
					 1.00000000E+00	 1.00000000E+00	 1.00000000E+00
					 0.00000000E+00	 1.00000000E+00	 0.00000000E+00
					 0.00000000E+00	 0.00000000E+00	 0.00000000E+00
					 0.00000000E+00	 0.00000000E+00	 1.00000000E+00
					 0.00000000E+00	 1.00000000E+00	 1.00000000E+00
					 1.00000000E+00	 5.00000000E-01	 0.00000000E+00
					 1.00000000E+00	 0.00000000E+00	 5.00000000E-01
					 1.00000000E+00	 5.00000000E-01	 1.00000000E+00
					 1.00000000E+00	 1.00000000E+00	 5.00000000E-01
					 5.00000000E-01	 1.00000000E+00	 0.00000000E+00
					 5.00000000E-01	 0.00000000E+00	 0.00000000E+00
					 5.00000000E-01	 0.00000000E+00	 1.00000000E+00
					 5.00000000E-01	 1.00000000E+00	 1.00000000E+00
					 0.00000000E+00	 5.00000000E-01	 0.00000000E+00
					 0.00000000E+00	 0.00000000E+00	 5.00000000E-01
					 0.00000000E+00	 5.00000000E-01	 1.00000000E+00
					 0.00000000E+00	 1.00000000E+00	 5.00000000E-01
					 7.50000000E-01	 7.50000000E-01	 1.00000000E+00
					 7.50000000E-01	 2.50000000E-01	 1.00000000E+00
					 7.50000000E-01	 2.50000000E-01	 1.50000000E+00
					 7.50000000E-01	 7.50000000E-01	 1.50000000E+00
					 2.50000000E-01	 7.50000000E-01	 1.00000000E+00
					 2.50000000E-01	 2.50000000E-01	 1.00000000E+00
					 2.50000000E-01	 2.50000000E-01	 1.50000000E+00
					 2.50000000E-01	 7.50000000E-01	 1.50000000E+00
					 7.50000000E-01	 5.00000000E-01	 1.00000000E+00
					 7.50000000E-01	 2.50000000E-01	 1.25000000E+00
					 7.50000000E-01	 5.00000000E-01	 1.50000000E+00
					 7.50000000E-01	 7.50000000E-01	 1.25000000E+00
					 5.00000000E-01	 7.50000000E-01	 1.00000000E+00
					 5.00000000E-01	 2.50000000E-01	 1.00000000E+00
					 5.00000000E-01	 2.50000000E-01	 1.50000000E+00
					 5.00000000E-01	 7.50000000E-01	 1.50000000E+00
					 2.50000000E-01	 5.00000000E-01	 1.00000000E+00
					 2.50000000E-01	 2.50000000E-01	 1.25000000E+00
					 2.50000000E-01	 5.00000000E-01	 1.50000000E+00
					 2.50000000E-01	 7.50000000E-01	 1.25000000E+00

				</DataArray>
			</Points>
			<Cells>
				<DataArray type="Int32" Name="connectivity" format="ascii">
					0 1 2 3 4 5 6 7 8 9 10 11 16 17 18 19 12 13 14 15 20 21 22 23 24 25 26 27 28 29 30 31 36 37 38 39 32 33 34 35 
				</DataArray>
				<DataArray type="Int32" Name="offsets" format="ascii">
					20 40 
				</DataArray>
				<DataArray type="UInt8" Name="types" format="ascii">
					25 25 
				</DataArray>
			</Cells>
			<PointData>
				<DataArray type="Float32" Name="DOR1" NumberOfComponents="3" ComponentName0="dD1dRx" ComponentName1="dD2dRx" ComponentName2="dD3dRx" format="ascii">
					 0.00000000E+00	 0.00000000E+00	 0.00000000E+00
					 0.00000000E+00	 0.00000000E+00	 0.00000000E+00
					 6.01896000E-05	 1.87196000E-04	 5.41982000E-06
					-6.05136000E-05	 1.87034000E-04	-4.77713000E-06
					 0.00000000E+00	 0.00000000E+00	 0.00000000E+00
					 0.00000000E+00	 0.00000000E+00	 0.00000000E+00
					 6.69536000E-05	 6.26204000E-05	 5.70718000E-05
					-6.72324000E-05	 6.26251000E-05	-5.71260000E-05
					 0.00000000E+00	 0.00000000E+00	 0.00000000E+00
					 2.89588000E-05	 9.17581000E-05	-7.42125000E-06
					-1.87325000E-07	 1.84908000E-04	 2.86211000E-07
					-2.90506000E-05	 9.16001000E-05	 7.72252000E-06
					 0.00000000E+00	 0.00000000E+00	 0.00000000E+00
					 0.00000000E+00	 0.00000000E+00	 0.00000000E+00
					 6.25029000E-05	 1.28167000E-04	 2.90722000E-05
					-6.27849000E-05	 1.28077000E-04	-2.87730000E-05
					 0.00000000E+00	 0.00000000E+00	 0.00000000E+00
					 3.59033000E-05	 1.65584000E-05	 3.75650000E-05
					-1.76200000E-07	 5.77320000E-05	-4.46717000E-08
					-3.59446000E-05	 1.65818000E-05	-3.76019000E-05
					 5.36236000E-05	-3.01992000E-04	-3.76289000E-06
					-5.28199000E-05	-3.01631000E-04	 4.20379000E-06
					 0.00000000E+00	 0.00000000E+00	-2.75985000E-06
					 0.00000000E+00	 0.00000000E+00	 3.98887000E-06
					 4.51057000E-05	-1.55380000E-04	-2.31445000E-05
					-4.42313000E-05	-1.55362000E-04	 2.32615000E-05
					 0.00000000E+00	 0.00000000E+00	 3.96120000E-05
					 0.00000000E+00	 0.00000000E+00	-3.93707000E-05
					 3.50909000E-07	-3.00699000E-04	 2.14809000E-07
					-2.01869000E-05	-1.21641000E-04	-2.07486000E-06
					 0.00000000E+00	 0.00000000E+00	 6.95186000E-07
					 2.06603000E-05	-1.21919000E-04	 3.03311000E-06
					 5.09061000E-05	-2.28164000E-04	-1.37259000E-05
					-5.00429000E-05	-2.27977000E-04	 1.40039000E-05
					 0.00000000E+00	 0.00000000E+00	 1.74403000E-05
					 0.00000000E+00	 0.00000000E+00	-1.66799000E-05
					 3.98572000E-07	-1.58800000E-04	 4.66990000E-08
					-2.00054000E-05	-9.56857000E-05	 4.13325000E-05
					 0.00000000E+00	 0.00000000E+00	 1.49022000E-07
					 2.05525000E-05	-9.57529000E-05	-4.11813000E-05
				</DataArray>
			</PointData>
		</Piece>
	</UnstructuredGrid>
</VTKFile>