<?xml version="1.0"?>
<VTKFile type="UnstructuredGrid" version="0.1" byte_order="LittleEndian">
	<UnstructuredGrid>
		<Piece NumberOfPoints="40" NumberOfCells="2">
			<Points>
				<DataArray type="Float64" NumberOfComponents="3" format="ascii">
					 1.00000000E+00	 1.00000000E+00	 0.00000000E+00
					 1.00000000E+00	 0.00000000E+00	 0.00000000E+00
					 1.00000000E+00	 0.00000000E+00	 1.00000000E+00
					 1.00000000E+00	 1.00000000E+00	 1.00000000E+00
					 0.00000000E+00	 1.00000000E+00	 0.00000000E+00
					 0.00000000E+00	 0.00000000E+00	 0.00000000E+00
					 0.00000000E+00	 0.00000000E+00	 1.00000000E+00
					 0.00000000E+00	 1.00000000E+00	 1.00000000E+00
					 1.00000000E+00	 5.00000000E-01	 0.00000000E+00
					 1.00000000E+00	 0.00000000E+00	 5.00000000E-01
					 1.00000000E+00	 5.00000000E-01	 1.00000000E+00
					 1.00000000E+00	 1.00000000E+00	 5.00000000E-01
					 5.00000000E-01	 1.00000000E+00	 0.00000000E+00
					 5.00000000E-01	 0.00000000E+00	 0.00000000E+00
					 5.00000000E-01	 0.00000000E+00	 1.00000000E+00
					 5.00000000E-01	 1.00000000E+00	 1.00000000E+00
					 0.00000000E+00	 5.00000000E-01	 0.00000000E+00
					 0.00000000E+00	 0.00000000E+00	 5.00000000E-01
					 0.00000000E+00	 5.00000000E-01	 1.00000000E+00
					 0.00000000E+00	 1.00000000E+00	 5.00000000E-01
					 7.50000000E-01	 7.50000000E-01	 1.00000000E+00
					 7.50000000E-01	 2.50000000E-01	 1.00000000E+00
					 7.50000000E-01	 2.50000000E-01	 1.50000000E+00
					 7.50000000E-01	 7.50000000E-01	 1.50000000E+00
					 2.50000000E-01	 7.50000000E-01	 1.00000000E+00
					 2.50000000E-01	 2.50000000E-01	 1.00000000E+00
					 2.50000000E-01	 2.50000000E-01	 1.50000000E+00
					 2.50000000E-01	 7.50000000E-01	 1.50000000E+00
					 7.50000000E-01	 5.00000000E-01	 1.00000000E+00
					 7.50000000E-01	 2.50000000E-01	 1.25000000E+00
					 7.50000000E-01	 5.00000000E-01	 1.50000000E+00
					 7.50000000E-01	 7.50000000E-01	 1.25000000E+00
					 5.00000000E-01	 7.50000000E-01	 1.00000000E+00
					 5.00000000E-01	 2.50000000E-01	 1.00000000E+00
					 5.00000000E-01	 2.50000000E-01	 1.50000000E+00
					 5.00000000E-01	 7.50000000E-01	 1.50000000E+00
					 2.50000000E-01	 5.00000000E-01	 1.00000000E+00
					 2.50000000E-01	 2.50000000E-01	 1.25000000E+00
					 2.50000000E-01	 5.00000000E-01	 1.50000000E+00
					 2.50000000E-01	 7.50000000E-01	 1.25000000E+00

				</DataArray>
			</Points>
			<Cells>
				<DataArray type="Int32" Name="connectivity" format="ascii">
					0 1 2 3 4 5 6 7 8 9 10 11 16 17 18 19 12 13 14 15 20 21 22 23 24 25 26 27 28 29 30 31 36 37 38 39 32 33 34 35 
				</DataArray>
				<DataArray type="Int32" Name="offsets" format="ascii">
					20 40 
				</DataArray>
				<DataArray type="UInt8" Name="types" format="ascii">
					25 25 
				</DataArray>
			</Cells>
			<PointData>
				<DataArray type="Float32" Name="DOR1" NumberOfComponents="3" ComponentName0="dD1dRz" ComponentName1="dD2dRz" ComponentName2="dD3dRz" format="ascii">
					 0.00000000E+00	 0.00000000E+00	 0.00000000E+00
					 0.00000000E+00	 0.00000000E+00	 0.00000000E+00
					-1.22357000E-06	-9.72030000E-06	 2.85954000E-06
					 1.23793000E-06	-9.73222000E-06	-2.85542000E-06
					 0.00000000E+00	 0.00000000E+00	 0.00000000E+00
					 0.00000000E+00	 0.00000000E+00	 0.00000000E+00
					 8.02308000E-06	-2.02820000E-06	-7.46718000E-08
					-8.02476000E-06	-2.02771000E-06	 7.28086000E-08
					 0.00000000E+00	 0.00000000E+00	 0.00000000E+00
					 4.71226000E-06	-7.64281000E-06	-1.10861000E-06
					 1.15258000E-09	-1.01589000E-05	 2.60930000E-09
					-4.70265000E-06	-7.66018000E-06	 1.11071000E-06
					 0.00000000E+00	 0.00000000E+00	 0.00000000E+00
					 0.00000000E+00	 0.00000000E+00	 0.00000000E+00
					 4.57686000E-06	 2.48623000E-06	 1.85380000E-08
					-4.57391000E-06	 2.47562000E-06	-1.43585000E-08
					 0.00000000E+00	 0.00000000E+00	 0.00000000E+00
					 4.02475000E-06	 1.53375000E-06	 1.41370000E-06
					-8.00070000E-09	-1.44472000E-06	-2.81596000E-09
					-4.02571000E-06	 1.53665000E-06	-1.41473000E-06
					-7.92105000E-06	-1.48700000E-05	-5.00763000E-07
					 7.94517000E-06	-1.48356000E-05	 5.04724000E-07
					 0.00000000E+00	 0.00000000E+00	 9.75233000E-06
					 0.00000000E+00	 0.00000000E+00	-9.74012000E-06
					-7.64643000E-06	 7.93054000E-07	-1.83660000E-07
					 7.66523000E-06	 7.90106000E-07	 1.83898000E-07
					 0.00000000E+00	 0.00000000E+00	-8.43265000E-06
					 0.00000000E+00	 0.00000000E+00	 8.43592000E-06
					 5.95560000E-09	-1.58251000E-05	 1.76878000E-09
					 9.25806000E-06	-1.22195000E-05	 5.11434000E-06
					 0.00000000E+00	 0.00000000E+00	 1.35299000E-08
					-9.23529000E-06	-1.22489000E-05	-5.10356000E-06
					-8.77165000E-06	 3.73372000E-06	 2.27087000E-08
					 8.78729000E-06	 3.74834000E-06	-1.80126000E-08
					 0.00000000E+00	 0.00000000E+00	-6.30320000E-07
					 0.00000000E+00	 0.00000000E+00	 6.32583000E-07
					 5.91357000E-09	 1.66944000E-06	 0.00000000E+00
					 8.32152000E-06	 5.36122000E-06	-4.13575000E-06
					 0.00000000E+00	 0.00000000E+00	 4.40357000E-09
					-8.32028000E-06	 5.35446000E-06	 4.13850000E-06
				</DataArray>
			</PointData>
		</Piece>
	</UnstructuredGrid>
</VTKFile>