<?xml version="1.0"?>
<VTKFile type="UnstructuredGrid" version="0.1" byte_order="LittleEndian">
	<UnstructuredGrid>
		<Piece NumberOfPoints="2960" NumberOfCells="632">
			<Points>
				<DataArray type="Float64" NumberOfComponents="3" format="ascii">
					 0.00000000E+00	 0.00000000E+00	 0.00000000E+00
					 1.25000000E-01	 0.00000000E+00	 0.00000000E+00
					 2.50000000E-01	 0.00000000E+00	 0.00000000E+00
					 3.75000000E-01	 0.00000000E+00	 0.00000000E+00
					 5.00000000E-01	 0.00000000E+00	 0.00000000E+00
					 6.25000000E-01	 0.00000000E+00	 0.00000000E+00
					 7.50000000E-01	 0.00000000E+00	 0.00000000E+00
					 8.75000000E-01	 0.00000000E+00	 0.00000000E+00
					 1.00000000E+00	 0.00000000E+00	 0.00000000E+00
					 1.00000000E+00	 0.00000000E+00	 1.25000000E-01
					 1.00000000E+00	 0.00000000E+00	 2.50000000E-01
					 1.00000000E+00	 0.00000000E+00	 3.75000000E-01
					 1.00000000E+00	 0.00000000E+00	 5.00000000E-01
					 1.00000000E+00	 0.00000000E+00	 6.25000000E-01
					 1.00000000E+00	 0.00000000E+00	 7.50000000E-01
					 1.00000000E+00	 0.00000000E+00	 8.75000000E-01
					 1.00000000E+00	 0.00000000E+00	 1.00000000E+00
					 8.75000000E-01	 0.00000000E+00	 1.00000000E+00
					 7.50000000E-01	 0.00000000E+00	 1.00000000E+00
					 6.25000000E-01	 0.00000000E+00	 1.00000000E+00
					 5.00000000E-01	 0.00000000E+00	 1.00000000E+00
					 3.75000000E-01	 0.00000000E+00	 1.00000000E+00
					 2.50000000E-01	 0.00000000E+00	 1.00000000E+00
					 1.25000000E-01	 0.00000000E+00	 1.00000000E+00
					 0.00000000E+00	 0.00000000E+00	 1.00000000E+00
					 0.00000000E+00	 0.00000000E+00	 8.75000000E-01
					 0.00000000E+00	 0.00000000E+00	 7.50000000E-01
					 0.00000000E+00	 0.00000000E+00	 6.25000000E-01
					 0.00000000E+00	 0.00000000E+00	 5.00000000E-01
					 0.00000000E+00	 0.00000000E+00	 3.75000000E-01
					 0.00000000E+00	 0.00000000E+00	 2.50000000E-01
					 0.00000000E+00	 0.00000000E+00	 1.25000000E-01
					 5.00000000E-01	 0.00000000E+00	 8.75000000E-01
					 5.00000000E-01	 0.00000000E+00	 7.50000000E-01
					 5.00000000E-01	 0.00000000E+00	 6.25000000E-01
					 5.00000000E-01	 0.00000000E+00	 5.00000000E-01
					 5.00000000E-01	 0.00000000E+00	 3.75000000E-01
					 5.00000000E-01	 0.00000000E+00	 2.50000000E-01
					 5.00000000E-01	 0.00000000E+00	 1.25000000E-01
					 6.25000000E-01	 0.00000000E+00	 5.00000000E-01
					 7.50000000E-01	 0.00000000E+00	 5.00000000E-01
					 8.75000000E-01	 0.00000000E+00	 5.00000000E-01
					 7.50000000E-01	 0.00000000E+00	 6.25000000E-01
					 7.50000000E-01	 0.00000000E+00	 7.50000000E-01
					 7.50000000E-01	 0.00000000E+00	 8.75000000E-01
					 6.25000000E-01	 0.00000000E+00	 7.50000000E-01
					 6.25000000E-01	 0.00000000E+00	 6.25000000E-01
					 6.25000000E-01	 0.00000000E+00	 8.75000000E-01
					 8.75000000E-01	 0.00000000E+00	 7.50000000E-01
					 8.75000000E-01	 0.00000000E+00	 6.25000000E-01
					 8.75000000E-01	 0.00000000E+00	 8.75000000E-01
					 7.50000000E-01	 0.00000000E+00	 1.25000000E-01
					 7.50000000E-01	 0.00000000E+00	 2.50000000E-01
					 7.50000000E-01	 0.00000000E+00	 3.75000000E-01
					 6.25000000E-01	 0.00000000E+00	 2.50000000E-01
					 6.25000000E-01	 0.00000000E+00	 1.25000000E-01
					 6.25000000E-01	 0.00000000E+00	 3.75000000E-01
					 8.75000000E-01	 0.00000000E+00	 2.50000000E-01
					 8.75000000E-01	 0.00000000E+00	 1.25000000E-01
					 8.75000000E-01	 0.00000000E+00	 3.75000000E-01
					 1.25000000E-01	 0.00000000E+00	 5.00000000E-01
					 2.50000000E-01	 0.00000000E+00	 5.00000000E-01
					 3.75000000E-01	 0.00000000E+00	 5.00000000E-01
					 2.50000000E-01	 0.00000000E+00	 6.25000000E-01
					 2.50000000E-01	 0.00000000E+00	 7.50000000E-01
					 2.50000000E-01	 0.00000000E+00	 8.75000000E-01
					 1.25000000E-01	 0.00000000E+00	 7.50000000E-01
					 1.25000000E-01	 0.00000000E+00	 6.25000000E-01
					 1.25000000E-01	 0.00000000E+00	 8.75000000E-01
					 3.75000000E-01	 0.00000000E+00	 7.50000000E-01
					 3.75000000E-01	 0.00000000E+00	 6.25000000E-01
					 3.75000000E-01	 0.00000000E+00	 8.75000000E-01
					 2.50000000E-01	 0.00000000E+00	 1.25000000E-01
					 2.50000000E-01	 0.00000000E+00	 2.50000000E-01
					 2.50000000E-01	 0.00000000E+00	 3.75000000E-01
					 1.25000000E-01	 0.00000000E+00	 2.50000000E-01
					 1.25000000E-01	 0.00000000E+00	 1.25000000E-01
					 1.25000000E-01	 0.00000000E+00	 3.75000000E-01
					 3.75000000E-01	 0.00000000E+00	 2.50000000E-01
					 3.75000000E-01	 0.00000000E+00	 1.25000000E-01
					 3.75000000E-01	 0.00000000E+00	 3.75000000E-01
					 7.50000000E-01	 1.25000000E-01	 7.50000000E-01
					 6.25000000E-01	 1.25000000E-01	 7.50000000E-01
					 6.25000000E-01	 1.25000000E-01	 6.25000000E-01
					 7.50000000E-01	 1.25000000E-01	 6.25000000E-01
					 7.50000000E-01	 2.50000000E-01	 7.50000000E-01
					 6.25000000E-01	 2.50000000E-01	 7.50000000E-01
					 6.25000000E-01	 2.50000000E-01	 6.25000000E-01
					 7.50000000E-01	 2.50000000E-01	 6.25000000E-01
					 7.50000000E-01	 3.75000000E-01	 7.50000000E-01
					 6.25000000E-01	 3.75000000E-01	 7.50000000E-01
					 6.25000000E-01	 3.75000000E-01	 6.25000000E-01
					 7.50000000E-01	 3.75000000E-01	 6.25000000E-01
					 7.50000000E-01	 5.00000000E-01	 7.50000000E-01
					 6.25000000E-01	 5.00000000E-01	 7.50000000E-01
					 6.25000000E-01	 5.00000000E-01	 6.25000000E-01
					 7.50000000E-01	 5.00000000E-01	 6.25000000E-01
					 7.50000000E-01	 6.25000000E-01	 7.50000000E-01
					 6.25000000E-01	 6.25000000E-01	 7.50000000E-01
					 6.25000000E-01	 6.25000000E-01	 6.25000000E-01
					 7.50000000E-01	 6.25000000E-01	 6.25000000E-01
					 7.50000000E-01	 7.50000000E-01	 7.50000000E-01
					 6.25000000E-01	 7.50000000E-01	 7.50000000E-01
					 6.25000000E-01	 7.50000000E-01	 6.25000000E-01
					 7.50000000E-01	 7.50000000E-01	 6.25000000E-01
					 7.50000000E-01	 8.75000000E-01	 7.50000000E-01
					 6.25000000E-01	 8.75000000E-01	 7.50000000E-01
					 6.25000000E-01	 8.75000000E-01	 6.25000000E-01
					 7.50000000E-01	 8.75000000E-01	 6.25000000E-01
					 7.50000000E-01	 1.00000000E+00	 7.50000000E-01
					 6.25000000E-01	 1.00000000E+00	 7.50000000E-01
					 6.25000000E-01	 1.00000000E+00	 6.25000000E-01
					 7.50000000E-01	 1.00000000E+00	 6.25000000E-01
					 6.25000000E-01	 1.25000000E-01	 5.00000000E-01
					 7.50000000E-01	 1.25000000E-01	 5.00000000E-01
					 6.25000000E-01	 2.50000000E-01	 5.00000000E-01
					 7.50000000E-01	 2.50000000E-01	 5.00000000E-01
					 6.25000000E-01	 3.75000000E-01	 5.00000000E-01
					 7.50000000E-01	 3.75000000E-01	 5.00000000E-01
					 6.25000000E-01	 5.00000000E-01	 5.00000000E-01
					 7.50000000E-01	 5.00000000E-01	 5.00000000E-01
					 6.25000000E-01	 6.25000000E-01	 5.00000000E-01
					 7.50000000E-01	 6.25000000E-01	 5.00000000E-01
					 6.25000000E-01	 7.50000000E-01	 5.00000000E-01
					 7.50000000E-01	 7.50000000E-01	 5.00000000E-01
					 6.25000000E-01	 8.75000000E-01	 5.00000000E-01
					 7.50000000E-01	 8.75000000E-01	 5.00000000E-01
					 6.25000000E-01	 1.00000000E+00	 5.00000000E-01
					 7.50000000E-01	 1.00000000E+00	 5.00000000E-01
					 5.00000000E-01	 1.25000000E-01	 7.50000000E-01
					 5.00000000E-01	 1.25000000E-01	 6.25000000E-01
					 5.00000000E-01	 2.50000000E-01	 7.50000000E-01
					 5.00000000E-01	 2.50000000E-01	 6.25000000E-01
					 5.00000000E-01	 3.75000000E-01	 7.50000000E-01
					 5.00000000E-01	 3.75000000E-01	 6.25000000E-01
					 5.00000000E-01	 5.00000000E-01	 7.50000000E-01
					 5.00000000E-01	 5.00000000E-01	 6.25000000E-01
					 5.00000000E-01	 6.25000000E-01	 7.50000000E-01
					 5.00000000E-01	 6.25000000E-01	 6.25000000E-01
					 5.00000000E-01	 7.50000000E-01	 7.50000000E-01
					 5.00000000E-01	 7.50000000E-01	 6.25000000E-01
					 5.00000000E-01	 8.75000000E-01	 7.50000000E-01
					 5.00000000E-01	 8.75000000E-01	 6.25000000E-01
					 5.00000000E-01	 1.00000000E+00	 7.50000000E-01
					 5.00000000E-01	 1.00000000E+00	 6.25000000E-01
					 5.00000000E-01	 1.25000000E-01	 5.00000000E-01
					 5.00000000E-01	 2.50000000E-01	 5.00000000E-01
					 5.00000000E-01	 3.75000000E-01	 5.00000000E-01
					 5.00000000E-01	 5.00000000E-01	 5.00000000E-01
					 5.00000000E-01	 6.25000000E-01	 5.00000000E-01
					 5.00000000E-01	 7.50000000E-01	 5.00000000E-01
					 5.00000000E-01	 8.75000000E-01	 5.00000000E-01
					 5.00000000E-01	 1.00000000E+00	 5.00000000E-01
					 6.25000000E-01	 1.25000000E-01	 3.75000000E-01
					 7.50000000E-01	 1.25000000E-01	 3.75000000E-01
					 6.25000000E-01	 2.50000000E-01	 3.75000000E-01
					 7.50000000E-01	 2.50000000E-01	 3.75000000E-01
					 6.25000000E-01	 3.75000000E-01	 3.75000000E-01
					 7.50000000E-01	 3.75000000E-01	 3.75000000E-01
					 6.25000000E-01	 5.00000000E-01	 3.75000000E-01
					 7.50000000E-01	 5.00000000E-01	 3.75000000E-01
					 6.25000000E-01	 6.25000000E-01	 3.75000000E-01
					 7.50000000E-01	 6.25000000E-01	 3.75000000E-01
					 6.25000000E-01	 7.50000000E-01	 3.75000000E-01
					 7.50000000E-01	 7.50000000E-01	 3.75000000E-01
					 6.25000000E-01	 8.75000000E-01	 3.75000000E-01
					 7.50000000E-01	 8.75000000E-01	 3.75000000E-01
					 6.25000000E-01	 1.00000000E+00	 3.75000000E-01
					 7.50000000E-01	 1.00000000E+00	 3.75000000E-01
					 1.25000000E-01	 1.25000000E-01	 7.50000000E-01
					 0.00000000E+00	 1.25000000E-01	 7.50000000E-01
					 0.00000000E+00	 1.25000000E-01	 6.25000000E-01
					 1.25000000E-01	 1.25000000E-01	 6.25000000E-01
					 1.25000000E-01	 2.50000000E-01	 7.50000000E-01
					 0.00000000E+00	 2.50000000E-01	 7.50000000E-01
					 0.00000000E+00	 2.50000000E-01	 6.25000000E-01
					 1.25000000E-01	 2.50000000E-01	 6.25000000E-01
					 1.25000000E-01	 3.75000000E-01	 7.50000000E-01
					 0.00000000E+00	 3.75000000E-01	 7.50000000E-01
					 0.00000000E+00	 3.75000000E-01	 6.25000000E-01
					 1.25000000E-01	 3.75000000E-01	 6.25000000E-01
					 1.25000000E-01	 5.00000000E-01	 7.50000000E-01
					 0.00000000E+00	 5.00000000E-01	 7.50000000E-01
[...]
			<PointData>
				<DataArray type="Float32" Name="S" NumberOfComponents="10" ComponentName0="xx" ComponentName1="yy" ComponentName2="zz" ComponentName3="xy" ComponentName4="yz" ComponentName5="zx" ComponentName6="Mises" ComponentName7="Min Principal" ComponentName8="Mid Principal" ComponentName9="Max Principal" format="ascii">
					 4.79364000E+02	 4.79363000E+02	 1.11850000E+03	 4.65449000E-05	 2.60535000E+02	 1.85577000E+02	 8.45841234E+02	 3.46779931E+02	 4.79363619E+02	 1.25108345E+03
					 2.82728000E+02	 2.82728000E+02	 6.59688000E+02	 8.69061000E-05	 1.89491000E+02	 1.94076000E+01	 5.00948424E+02	 2.03237486E+02	 2.82727982E+02	 7.39178532E+02
					 1.85881000E+02	 1.85882000E+02	 4.33718000E+02	 1.07301000E-04	 1.28589000E+02	-1.26895000E+01	 3.33933217E+02	 1.30769739E+02	 1.85881031E+02	 4.88830230E+02
					 9.04951000E+01	 9.04957000E+01	 2.11153000E+02	 1.14635000E-04	 6.31918000E+01	-2.55809000E+01	 1.68822435E+02	 5.97905272E+01	 9.04952642E+01	 2.41858009E+02
					 6.96367000E-03	 6.96428000E-03	 1.62499000E-02	 1.13582000E-04	 2.58917000E-03	-2.89728000E+01	 5.01823627E+01	-2.89611937E+01	 6.96430030E-03	 2.89844073E+01
					-9.04814000E+01	-9.04820000E+01	-2.11121000E+02	 1.14716000E-04	-6.31876000E+01	-2.55635000E+01	 1.68796732E+02	-2.41821291E+02	-9.04815642E+01	-5.97815448E+01
					-1.85870000E+02	-1.85871000E+02	-4.33692000E+02	 1.07396000E-04	-1.28588000E+02	-1.26638000E+01	 3.33918003E+02	-4.88804001E+02	-1.85870031E+02	-1.30758968E+02
					-2.82729000E+02	-2.82729000E+02	-6.59689000E+02	 8.69618000E-05	-1.89496000E+02	 1.94273000E+01	 5.00956389E+02	-7.39184495E+02	-2.82728982E+02	-2.03233523E+02
					-4.79412000E+02	-4.79411000E+02	-1.11861000E+03	 4.65510000E-05	-2.60555000E+02	 1.85598000E+02	 8.45920386E+02	-1.25120450E+03	-4.79411619E+02	-3.46816877E+02
					 3.66914000E+01	 3.70599000E+01	-5.77213000E+02	 5.75379000E+00	 1.60973000E+01	-3.06721000E+01	 6.17093180E+02	-5.79176200E+02	 3.29003058E+01	 4.28141943E+01
					-6.49248000E+00	-4.30221000E+00	-4.95902000E+02	 2.66631000E+00	 3.43318000E+00	-5.12829000E+00	 4.90646513E+02	-4.95980093E+02	-8.20170384E+00	-2.51489295E+00
					 5.03308000E+00	 6.50060000E+00	-4.85042000E+02	 9.00395000E-02	 1.34405000E+00	 6.43857000E-01	 4.90817298E+02	-4.85046520E+02	 5.02821600E+00	 6.50998431E+00
					-2.93689000E+00	-2.91375000E+00	-4.61660000E+02	 9.46731000E-01	 1.42852000E+00	 2.26037000E+00	 4.58760990E+02	-4.61675557E+02	-3.87133063E+00	-1.96375249E+00
					 6.63384000E+00	 1.01946000E+01	-4.19298000E+02	-3.25059000E+00	 4.41821000E+00	 1.44420000E+00	 4.27836149E+02	-4.19348571E+02	 4.73671010E+00	 1.21423008E+01
					-2.12623000E+01	-3.37356000E+01	-3.79055000E+02	 1.44963000E+01	-1.19030000E+01	 1.42997000E+01	 3.54086515E+02	-3.80075400E+02	-4.23410298E+01	-1.16364698E+01
					-7.63336000E+01	-3.58247000E+01	-5.02205000E+02	-4.31842000E+01	 3.54676000E+01	-1.12661000E+00	 4.57855094E+02	-5.04897553E+02	-1.02978938E+02	-6.48680835E+00
					-5.80369000E+01	-8.74805000E+01	-9.26091000E+02	 3.31378000E+01	 2.73273000E+02	-2.85809000E+02	 1.09599968E+03	-1.08562004E+03	-4.26061654E+01	 5.66178006E+01
					-1.74838000E+02	-6.04511000E+01	-4.85193000E+02	-1.55966000E+02	 2.86851000E+02	 2.44397000E+02	 8.02447185E+02	-7.69803069E+02	-4.05293596E+01	 8.98503282E+01
					 5.38001000E+01	 7.07710000E+01	-1.63371000E+02	-8.97852000E+01	 1.78162000E+02	 8.42669000E-01	 4.12974889E+02	-2.65647782E+02	 1.88144151E+01	 2.08033467E+02
					 5.10944000E+01	 1.91350000E+01	-9.47116000E+01	-8.14524000E+01	 7.64603000E+01	 2.89624000E+01	 2.39957070E+02	-1.53844464E+02	 7.45072226E+00	 1.21911541E+02
					 2.43090000E+01	 5.44393000E+00	-1.31677000E+01	-2.01125000E+02	-6.86213000E+00	 1.39032000E+02	 4.24897809E+02	-2.29693558E+02	-1.35440061E+01	 2.59822794E+02
					-1.12376000E+02	-6.61903000E+01	 1.56812000E+02	-8.97467000E+01	-4.52630000E+01	 4.16319000E+01	 3.12525095E+02	-1.82037146E+02	-1.80664069E+01	 1.78349253E+02
					-3.08901000E+01	-1.58981000E+02	 1.93779000E+02	-9.30935000E+01	-1.47943000E+02	-1.17515000E+00	 4.32812068E+02	-2.48601121E+02	 1.34181914E+00	 2.51167202E+02
					 1.58387000E+02	 1.25081000E+01	 5.61386000E+02	-1.40903000E+02	-2.78882000E+02	 2.68462000E+02	 8.66937086E+02	-1.08868424E+02	 2.42290278E+01	 8.16920496E+02
					-5.74590000E+01	-4.78626000E+01	 7.53689000E+02	-1.36954000E+01	-2.13998000E+02	-1.84127000E+02	 9.43358600E+02	-1.53721519E+02	-3.94704501E+01	 8.41559369E+02
					 7.63012000E+01	 7.17741000E+01	 4.83882000E+02	-3.63112000E+01	-2.69453000E+01	-1.07396000E+01	 4.17692993E+02	 3.60237761E+01	 1.10125243E+02	 4.85808281E+02
					 1.74833000E+01	 1.80871000E+01	 3.81305000E+02	 1.01950000E+01	 1.07894000E+01	 1.12610000E+01	 3.64949855E+02	 7.58485111E+00	 2.72985464E+01	 3.81992003E+02
					-4.63645000E+00	-5.76444000E+00	 4.23572000E+02	-2.04042000E+00	-3.43242000E+00	 1.81083000E+00	 4.28840805E+02	-7.32362117E+00	-3.11250362E+00	 4.23607235E+02
					 2.32151000E+00	 1.84125000E+00	 4.62863000E+02	 6.38862000E-01	-1.52091000E+00	 2.01058000E+00	 4.60803825E+02	 1.38643765E+00	 2.76254610E+00	 4.62876776E+02
					-4.94683000E+00	-6.31700000E+00	 4.85418000E+02	 1.48309000E-01	-1.36791000E+00	 6.81292000E-01	 4.91058550E+02	-6.33704476E+00	-4.93153586E+00	 4.85422751E+02
					 6.43551000E+00	 4.23150000E+00	 4.95963000E+02	 2.65592000E+00	-3.43742000E+00	-5.13342000E+00	 4.90771444E+02	 2.45803516E+00	 8.13073513E+00	 4.96041240E+02
					-3.66902000E+01	-3.70565000E+01	 5.77184000E+02	 5.75625000E+00	-1.60949000E+01	-3.06717000E+01	 6.17061853E+02	-4.28144883E+01	-3.28953495E+01	 5.79147138E+02
					-8.46481000E+00	 1.04478000E+01	 9.26267000E+00	 5.52462000E+01	 4.43452000E+00	 1.16415000E+02	 2.24074668E+02	-1.27112498E+02	 6.78497142E+00	 1.31573186E+02
					 1.50913000E-02	-2.51736000E+00	-4.13424000E+00	-1.22406000E+01	-1.26425000E-01	 8.81757000E+01	 1.54232063E+02	-9.10724361E+01	-2.58232886E+00	 8.70182562E+01
					-5.49465000E-01	 1.92422000E-01	-7.48894000E-01	 2.24935000E+00	-2.33377000E-02	 8.72284000E+01	 1.51136692E+02	-8.79069225E+01	 1.92999288E-01	 8.66079862E+01
					 2.87274000E-01	 4.58095000E-02	-1.26120000E-01	-1.13785000E+00	 5.35634000E-02	 8.10080000E+01	 1.40324304E+02	-8.09364308E+01	 4.72801032E-02	 8.10961142E+01
					 9.63501000E-02	-4.92128000E-03	-7.64137000E-02	-7.79150000E-01	-1.24502000E-02	 7.23965000E+01	 1.25401770E+02	-7.23906388E+01	-5.19750991E-03	 7.24108515E+01
					 7.65868000E-02	 8.44924000E-03	-8.52336000E-03	-1.90902000E+00	 1.49381000E-03	 5.45207000E+01	 9.44905252E+01	-5.45201383E+01	 8.53293892E-03	 5.45881180E+01
					 3.00550000E-02	-9.09721000E-04	 3.54401000E-03	-9.69802000E-01	-1.43692000E-03	 2.16866000E+01	 3.75998438E+01	-2.16914183E+01	-1.02909079E-03	 2.17251367E+01
					 3.64654000E+00	 5.11116000E-01	-1.12869000E+02	-7.90932000E-01	 3.65027000E-01	 7.60204000E+01	 1.74814062E+02	-1.50390411E+02	 5.06778549E-01	 4.11722880E+01
					 5.87582000E+00	 3.53997000E-01	-2.25616000E+02	-6.84673000E-01	 5.42725000E-01	 6.12806000E+01	 2.52208093E+02	-2.40839351E+02	 3.42259952E-01	 2.11109080E+01
					 2.94904000E+00	 5.31829000E-02	-3.39629000E+02	-4.07480000E-01	 7.39665000E-01	 3.70799000E+01	 3.47135332E+02	-3.43598264E+02	 3.94494839E-02	 6.93203719E+00
					 3.21721000E+00	-1.97066000E+00	-2.13618000E+02	 1.10701000E+00	 4.90209000E-01	 6.69322000E+01	 2.43646598E+02	-2.32614398E+02	-2.02981393E+00	 2.22727619E+01
					 2.38034000E+01	 1.65929000E+01	-1.83802000E+02	-5.68568000E+00	 1.99461000E+00	 6.40059000E+01	 2.32495670E+02	-2.02004212E+02	 1.57230192E+01	 4.28754925E+01
					-3.76584000E+01	-5.87320000E+01	-2.40632000E+02	 1.84690000E+01	-2.16139000E+01	 5.41914000E+01	 2.20453877E+02	-2.57464991E+02	-5.98833675E+01	-1.96740413E+01
					 1.08836000E+00	 6.88832000E+00	-9.05356000E+01	-4.98530000E+00	 6.15052000E-01	 8.04202000E+01	 1.68635480E+02	-1.37341080E+02	 6.56449011E+00	 4.82176699E+01
					 1.56926000E+00	-2.11311000E+00	-1.07679000E+02	 7.15721000E-01	-5.34433000E-02	 8.07107000E+01	 1.76325399E+02	-1.50513605E+02	-2.12004665E+00	 4.44108018E+01
					-2.72201000E+01	-3.55500000E+01	-1.14321000E+02	 2.19573000E+01	-5.85503000E+00	 1.03957000E+02	 2.02239459E+02	-1.85430763E+02	-3.64602613E+01	 4.47999246E+01
					 1.49707000E+01	 1.87294000E+01	-2.69655000E+02	-1.06093000E+01	 1.91053000E+00	 4.95792000E+01	 2.99697602E+02	-2.78089017E+02	 1.06700196E+01	 3.14640976E+01
					 3.82728000E+00	-2.14741000E+00	-3.17588000E+02	 1.95271000E+00	 9.20203000E-01	 4.39292000E+01	 3.27454464E+02	-3.23485166E+02	-2.49271530E+00	 1.00697513E+01
					-3.70487000E+01	-8.50928000E+01	-3.87503000E+02	 5.12510000E+01	-2.56337000E+01	 8.98867000E+01	 3.77331819E+02	-4.13432879E+02	-1.02620135E+02	 6.40851430E+00
					-2.64962000E+01	 1.60129000E+01	-2.66283000E+02	-1.31141000E+00	 9.84378000E+00	 3.25102000E+01	 2.70119331E+02	-2.70956207E+02	-2.21666534E+01	 1.63565600E+01
					 3.24120000E+00	-1.18897000E+00	-2.40843000E+02	-1.72297000E+00	 3.49046000E+00	 4.40474000E+01	 2.53734832E+02	-2.48604920E+02	-1.23114791E+00	 1.10452976E+01
					 6.31498000E+00	 2.38929000E+00	-2.38295000E+02	-4.95774000E-01	 1.02826000E+00	 5.44209000E+01	 2.60342088E+02	-2.49861030E+02	 2.38941241E+00	 1.78808874E+01
					-2.26157000E+00	-1.15001000E+00	-1.18534000E+02	-1.87003000E+00	 1.71641000E+00	 5.29785000E+01	 1.48624530E+02	-1.39089906E+02	-1.17743946E+00	 1.83217656E+01
					-1.73415000E+01	 8.15429000E+00	-1.28662000E+02	-8.62231000E-01	 4.47241000E+00	 2.42468000E+01	 1.33065596E+02	-1.33859996E+02	-1.22897794E+01	 8.30056580E+00
					 3.11339000E+00	 1.12675000E+00	-1.18408000E+02	-8.00990000E-01	 5.73631000E-01	 6.83394000E+01	 1.68948834E+02	-1.49096844E+02	 1.12405338E+00	 3.38049305E+01
					 1.05845000E+01	-1.61736000E+00	-3.70334000E+02	-7.43828000E-01	 4.72283000E+00	 2.31923000E+01	 3.77202994E+02	-3.71802058E+02	-1.57153638E+00	 1.20067340E+01
					-3.04992000E+01	 1.67361000E+01	-4.42950000E+02	 1.50923000E+00	 1.42880000E+01	 3.58872000E+01	 4.43071124E+02	-4.46478771E+02	-2.75667592E+01	 1.73324303E+01
					 5.41703000E+00	 3.65326000E+00	-3.58333000E+02	 2.19505000E-01	 1.21491000E+00	 2.96059000E+01	 3.66482911E+02	-3.60730800E+02	 3.63315900E+00	 7.83493149E+00
					-2.32545000E+00	 7.71099000E-01	 3.40740000E+02	-3.90982000E-01	-9.66042000E-01	 3.63504000E+01	 3.47287324E+02	-6.14676339E+00	 7.80190098E-01	 3.44552222E+02
					-5.24447000E+00	-6.88212000E-02	 2.25732000E+02	-4.34901000E-01	-7.61041000E-01	 6.08438000E+01	 2.51574388E+02	-2.02945082E+01	-6.89373463E-02	 2.40782154E+02
					-2.87591000E+00	 3.63102000E-01	 1.12945000E+02	-4.58025000E-01	-3.04008000E-01	 7.60035000E+01	 1.74299546E+02	-4.05191450E+01	 3.63452549E-01	 1.50587884E+02
					-2.96627000E+00	-3.14075000E-01	 2.12438000E+02	 2.31706000E-01	 3.14403000E-01	 6.54712000E+01	 2.42269749E+02	-2.13056269E+01	-3.13740847E-01	 2.30777023E+02
					-1.33246000E+01	 2.04344000E+00	 1.88789000E+02	-2.55547000E+00	 4.10916000E+00	 6.46360000E+01	 2.24908156E+02	-3.26031425E+01	 2.36862260E+00	 2.07742360E+02
					 1.74514000E+01	 2.61906000E+01	 1.96135000E+02	 1.39801000E+01	-1.09735000E+01	 4.50792000E+01	 1.93614659E+02	-2.45639621E+00	 3.50618189E+01	 2.07171577E+02
					-5.35618000E-01	 1.08267000E+01	 2.85622000E+02	-9.23044000E+00	 8.19092000E+00	 4.41542000E+01	 2.91666809E+02	-1.19305215E+01	 1.54028087E+01	 2.92440795E+02
					-5.54439000E+00	-3.48990000E+00	 3.16803000E+02	 1.91707000E+00	-6.78948000E-01	 4.25561000E+01	 3.29689664E+02	-1.15580990E+01	-3.00032977E+00	 3.22327139E+02
					 1.50282000E+01	 4.10781000E+01	 3.48299000E+02	 4.66015000E+01	-3.83617000E+00	 9.11166000E+01	 3.66786457E+02	-3.59137576E+01	 6.85473296E+01	 3.71771728E+02
					 4.31964000E+00	 1.14498000E+01	 9.42487000E+01	-9.46559000E-01	 3.94969000E+00	 8.48692000E+01	 1.70747468E+02	-4.68996479E+01	 1.15262566E+01	 1.45391531E+02
					-2.30796000E+00	-1.59536000E+00	 1.04689000E+02	-5.28631000E-01	-3.25291000E-02	 7.98000000E+01	 1.74578271E+02	-4.48877321E+01	-1.59117720E+00	 1.47264589E+02
					 1.58267000E+01	-1.41984000E+01	 6.86424000E+01	 1.27736000E+01	-2.29986000E+01	 9.92161000E+01	 1.92053655E+02	-7.08228558E+01	-4.50705393E+00	 1.45600610E+02
					 2.65297000E+01	-1.60122000E+01	 2.66327000E+02	-1.31307000E+00	-9.84413000E+00	 3.24623000E+01	 2.70131981E+02	-1.63558629E+01	 2.22128635E+01	 2.70987499E+02
					-3.15518000E+00	 1.17590000E+00	 2.40897000E+02	-1.71163000E+00	-3.50432000E+00	 4.39400000E+01	 2.53694730E+02	-1.09227125E+01	 1.21665312E+00	 2.48623779E+02
					-6.01907000E+00	-2.35697000E+00	 2.38505000E+02	-5.40667000E-01	-9.82494000E-01	 5.41537000E+01	 2.60214532E+02	-1.74825135E+01	-2.35452252E+00	 2.49965996E+02
					-1.05656000E+01	 1.60263000E+00	 3.70429000E+02	-7.40630000E-01	-4.74077000E+00	 2.31058000E+01	 3.77279241E+02	-1.19769593E+01	 1.55620830E+00	 3.71886781E+02
					 3.04968000E+01	-1.67421000E+01	 4.42986000E+02	 1.50775000E+00	-1.42874000E+01	 3.58453000E+01	 4.43100729E+02	-1.73379786E+01	 2.75714134E+01	 4.46507265E+02
					-5.34923000E+00	-3.74980000E+00	 3.58765000E+02	 2.11909000E-01	-1.16786000E+00	 2.93720000E+01	 3.66867449E+02	-7.72670160E+00	-3.73006591E+00	 3.61122738E+02
					 2.40986000E+00	 1.18589000E+00	 1.18544000E+02	-1.85256000E+00	-1.71829000E+00	 5.29194000E+01	 1.48496880E+02	-1.81501964E+01	 1.21194658E+00	 1.39078000E+02
					 1.73941000E+01	-8.15944000E+00	 1.28681000E+02	-8.65317000E-01	-4.47441000E+00	 2.42164000E+01	 1.33053152E+02	-8.30584592E+00	 1.23530960E+01	 1.33868410E+02
					-2.89923000E+00	-1.26265000E+00	 1.18303000E+02	-8.69628000E-01	-5.83555000E-01	 6.81892000E+01	 1.68662068E+02	-3.35340673E+01	-1.25838847E+00	 1.48933576E+02
					 1.12907000E+01	-4.01063000E-01	-2.00905000E+02	-1.99079000E+00	-9.92764000E-01	 5.99940000E+01	 2.31290850E+02	-2.16693431E+02	-5.71657280E-01	 2.72497256E+01
					-1.17948000E+00	-1.84042000E-01	-9.58460000E+01	-3.76468000E+00	 2.18689000E+00	 7.45966000E+01	 1.60648061E+02	-1.36960909E+02	-2.08130165E-01	 3.99595169E+01
					 1.01593000E+00	-1.31139000E-01	-1.10094000E+02	-4.35366000E+00	 1.48634000E+00	 7.55508000E+01	 1.71483359E+02	-1.48389954E+02	-3.19026830E-01	 3.94997714E+01
					 1.31740000E+00	 2.28510000E-01	-2.19971000E+02	-3.26943000E+00	 2.78961000E+00	 6.17070000E+01	 2.45372080E+02	-2.36067489E+02	-6.67702664E-02	 1.77091693E+01
					 7.03399000E+00	 1.23502000E+00	-2.11618000E+02	 1.58594000E+00	 2.07714000E+00	 5.80058000E+01	 2.38094250E+02	-2.26064979E+02	 1.04289796E+00	 2.16730912E+01
					-4.49982000E+00	-5.65034000E+00	-9.77464000E+01	-2.04497000E+00	 5.86806000E-02	 6.97122000E+01	 1.52252733E+02	-1.34997177E+02	-5.72436590E+00	 3.28249833E+01
					 1.22117000E+00	 4.56334000E-01	-1.13783000E+02	-4.56718000E+00	 1.28004000E+00	 7.44198000E+01	 1.72687572E+02	-1.50394006E+02	 1.90139104E-01	 3.80983711E+01
					 1.35284000E+00	-1.89552000E+00	-2.26196000E+02	-3.78937000E+00	 2.20821000E+00	 5.99286000E+01	 2.48760696E+02	-2.41053162E+02	-2.39052999E+00	 1.67050117E+01
					 1.34386000E+01	 7.59631000E+00	-2.15307000E+02	-7.18872000E-01	 1.94118000E+00	 5.61756000E+01	 2.45972016E+02	-2.28375912E+02	 7.61057395E+00	 2.64932479E+01
					-4.43353000E+00	-1.32714000E+00	-1.06134000E+02	 1.81519000E+00	-8.52723000E-01	 7.03622000E+01	 1.59790927E+02	-1.42115130E+02	-1.35515356E+00	 3.15756134E+01
					 8.00199000E-01	-1.20785000E+00	-1.16102000E+02	-3.25269000E+00	 8.91115000E-01	 7.42660000E+01	 1.73250828E+02	-1.52192716E+02	-1.34356538E+00	 3.70266303E+01
					 1.17134000E+00	-3.53431000E+00	-2.30292000E+02	-1.61872000E+00	 1.64298000E+00	 6.04089000E+01	 2.51936301E+02	-2.45125630E+02	-3.58926432E+00	 1.60599240E+01
					 1.80185000E+01	 1.87694000E+00	-2.10553000E+02	-2.64501000E+00	 1.51920000E+00	 5.87143000E+01	 2.43281728E+02	-2.24772483E+02	 1.73561059E+00	 3.23793121E+01
					-4.78598000E+00	 4.59342000E+00	-1.08970000E+02	-6.32549000E-01	 1.36871000E+00	 7.27962000E+01	 1.66805718E+02	-1.46407623E+02	 4.60830711E+00	 3.26367560E+01
					 9.67471000E-01	-3.03183000E+00	-1.15830000E+02	 2.15004000E-01	 6.07503000E-01	 7.39243000E+01	 1.72006359E+02	-1.51641002E+02	-3.03572566E+00	 3.67823686E+01
					 4.96192000E-01	-2.97818000E+00	-2.30671000E+02	 4.26732000E-01	 1.22242000E+00	 6.05100000E+01	 2.52262939E+02	-2.45556919E+02	-3.00047103E+00	 1.54044023E+01
					 8.64559000E+00	-9.35196000E+00	-2.10236000E+02	 3.63012000E-01	-9.32553000E-01	 5.87776000E+01	 2.33797248E+02	-2.25025755E+02	-9.34786193E+00	 2.34312473E+01
					-4.95044000E+00	-9.79099000E+00	-1.06078000E+02	 1.82204000E-01	-1.33235000E+00	 7.38728000E+01	 1.61671575E+02	-1.45046336E+02	-9.78402516E+00	 3.40109315E+01
					 8.56442000E-01	-5.82690000E-01	-1.15038000E+02	 2.85490000E+00	-8.07560000E-01	 7.43126000E+01	 1.72801333E+02	-1.51351784E+02	-6.85933860E-01	 3.72734702E+01
					 4.13564000E-01	-2.85379000E+00	-2.28639000E+02	 1.71505000E+00	-1.86468000E+00	 6.03276000E+01	 2.50329523E+02	-2.43576992E+02	-2.91449087E+00	 1.54122569E+01
					 5.29472000E+00	 6.44016000E+00	-2.07831000E+02	 2.77226000E+00	-3.33515000E+00	 5.62668000E+01	 2.34994237E+02	-2.21840495E+02	 6.23270791E+00	 1.95116674E+01
					 3.42162000E-01	-8.84256000E-01	-1.03483000E+02	 4.59808000E+00	-1.60555000E+00	 7.29539000E+01	 1.63376284E+02	-1.41198247E+02	-1.08252315E+00	 3.82556762E+01
					 1.68306000E-01	 9.27470000E-02	-1.12928000E+02	 3.59481000E+00	-1.73849000E+00	 7.44765000E+01	 1.71669208E+02	-1.49957940E+02	-2.09683097E-03	 3.72930896E+01
					 1.13264000E+00	-2.03365000E+00	-2.25824000E+02	 2.40717000E+00	-3.70500000E+00	 6.04575000E+01	 2.48645578E+02	-2.40997256E+02	-2.07347101E+00	 1.63457171E+01
					 1.64399000E+01	 9.45281000E+00	-2.02659000E+02	-4.32807000E-02	-2.42962000E+00	 6.04451000E+01	 2.39793304E+02	-2.18252351E+02	 9.45828338E+00	 3.20277774E+01
					-7.77407000E+00	 2.96689000E+00	-1.03191000E+02	 5.07552000E-01	-4.37676000E-01	 7.60803000E+01	 1.66164412E+02	-1.45286703E+02	 2.96783587E+00	 3.43206867E+01
					 1.35204000E+00	-8.24264000E-02	-1.09275000E+02	 4.24619000E+00	-7.22197000E-01	 7.52171000E+01	 1.70617116E+02	-1.47371971E+02	-3.39521434E-01	 3.97061064E+01
					-6.24703000E-01	-6.48371000E-01	-2.20308000E+02	 2.51724000E+00	-2.39173000E+00	 6.08485000E+01	 2.43719803E+02	-2.36072821E+02	-8.23731342E-01	 1.53154782E+01
					 1.37093000E+01	-1.84871000E+00	-1.89203000E+02	 2.51845000E+00	 3.89943000E+00	 6.44020000E+01	 2.25313202E+02	-2.07962330E+02	-2.15928546E+00	 3.27792051E+01
					-4.83053000E+00	-1.14676000E+01	-9.43134000E+01	 9.08310000E-01	 3.98237000E+00	 8.48824000E+01	 1.70653008E+02	-1.45588624E+02	-1.15418128E+01	 4.65189067E+01
					 2.23547000E+00	 1.57696000E+00	-1.04932000E+02	 5.29921000E-01	-5.86482000E-02	 7.96689000E+01	 1.74519291E+02	-1.47361113E+02	 1.57307168E+00	 4.46684713E+01
					 2.52634000E+00	 1.76360000E-01	-2.12994000E+02	-2.25283000E-01	 3.29370000E-01	 6.52477000E+01	 2.42322792E+02	-2.31208716E+02	 1.76174848E-01	 2.07412416E+01
					 1.15676000E+00	-1.93971000E-01	-1.19019000E+02	-6.07825000E+00	 1.97089000E+00	 7.48083000E+01	 1.76615533E+02	-1.55008793E+02	-6.37158729E-01	 3.75897411E+01
					 2.30381000E+00	-2.22415000E-01	-2.36978000E+02	-4.36090000E+00	 3.39757000E+00	 6.00551000E+01	 2.59940791E+02	-2.51278846E+02	-8.37562104E-01	 1.72198028E+01
					 2.45872000E-01	-1.84742000E+00	-1.23776000E+02	-6.32689000E+00	 1.45884000E+00	 7.64646000E+01	 1.81088848E+02	-1.60317005E+02	-2.40528445E+00	 3.73447414E+01
					 1.55735000E+00	-2.61509000E+00	-2.45682000E+02	-4.50650000E+00	 2.59586000E+00	 6.13266000E+01	 2.67352035E+02	-2.60107005E+02	-3.31414544E+00	 1.66814102E+01
					 3.73388000E-01	-2.99772000E+00	-1.26097000E+02	-3.55818000E+00	 7.11528000E-01	 7.83523000E+01	 1.84489912E+02	-1.63577819E+02	-3.17380135E+00	 3.80302886E+01
					 1.63052000E+00	-5.74705000E+00	-2.49960000E+02	-2.78226000E+00	 1.26592000E+00	 6.28349000E+01	 2.70866750E+02	-2.64793586E+02	-5.99388417E+00	 1.67109398E+01