    1C
    1UUSER                                                              
    1UDATE              25.january.2020                                 
    1UTIME              14:49:31                                        
    1UHOST                                                              
    1UPGM               CalculiX                                        
    1UVERSION           Version 2.16                             
    1UCOMPILETIME       Tue  7 Jan 19:57:43 CET 2020                    
    1UDIR                                                               
    1UDBN                                                               
    1UMAT    1MAT1                                                      
    1UMAT    2MAT2                                                      
    2C                          1045                                     1
 -1         1-3.00000E+01-1.34110E-07 0.00000E+00
 -1         2-3.00000E+01-4.53062E-01 0.00000E+00
 -1         3-2.45219E+01-4.53062E-01 0.00000E+00
 -1         4-2.45219E+01-1.34110E-07 0.00000E+00
 -1         5-3.00000E+01-2.13446E-01 0.00000E+00
 -1         6-2.71028E+01-4.53062E-01 0.00000E+00
 -1         7-2.45219E+01-2.13446E-01 0.00000E+00
 -1         8-2.71028E+01-1.34110E-07 0.00000E+00
 -1         9-2.01750E+01-4.53062E-01 0.00000E+00
 -1        10-2.01750E+01-1.34110E-07 0.00000E+00
 -1        11-2.22229E+01-4.53062E-01 0.00000E+00
 -1        12-2.01750E+01-2.13446E-01 0.00000E+00
 -1        13-2.22229E+01-1.34110E-07 0.00000E+00
 -1        14-1.67256E+01-4.53062E-01 0.00000E+00
 -1        15-1.67256E+01-1.34110E-07 0.00000E+00
 -1        16-1.83507E+01-4.53062E-01 0.00000E+00
 -1        17-1.67256E+01-2.13446E-01 0.00000E+00
 -1        18-1.83507E+01-1.34110E-07 0.00000E+00
 -1        19-1.39885E+01-4.53062E-01 0.00000E+00
 -1        20-1.39885E+01-1.34110E-07 0.00000E+00
 -1        21-1.52780E+01-4.53062E-01 0.00000E+00
 -1        22-1.39885E+01-2.13446E-01 0.00000E+00
 -1        23-1.52780E+01-1.34110E-07 0.00000E+00
 -1        24-1.18166E+01-4.53062E-01 0.00000E+00
 -1        25-1.18166E+01-1.34110E-07 0.00000E+00
 -1        26-1.28398E+01-4.53062E-01 0.00000E+00
 -1        27-1.18166E+01-2.13446E-01 0.00000E+00
 -1        28-1.28398E+01-1.34110E-07 0.00000E+00
 -1        29-1.00932E+01-4.53062E-01 0.00000E+00
 -1        30-1.00932E+01-1.34110E-07 0.00000E+00
 -1        31-1.09051E+01-4.53062E-01 0.00000E+00
 -1        32-1.00932E+01-2.13446E-01 0.00000E+00
 -1        33-1.09051E+01-1.34110E-07 0.00000E+00
 -1        34-8.72559E+00-4.53062E-01 0.00000E+00
 -1        35-8.72559E+00-1.34110E-07 0.00000E+00
 -1        36-9.36988E+00-4.53062E-01 0.00000E+00
 -1        37-8.72559E+00-2.13446E-01 0.00000E+00
 -1        38-9.36988E+00-1.34110E-07 0.00000E+00
 -1        39-7.64040E+00-4.53062E-01 0.00000E+00
 -1        40-7.64040E+00-1.34110E-07 0.00000E+00
 -1        41-8.15166E+00-4.53062E-01 0.00000E+00
 -1        42-7.64040E+00-2.13446E-01 0.00000E+00
 -1        43-8.15166E+00-1.34110E-07 0.00000E+00
 -1        44-6.77930E+00-4.53062E-01 0.00000E+00
 -1        45-6.77930E+00-1.34110E-07 0.00000E+00
 -1        46-7.18498E+00-4.53062E-01 0.00000E+00
 -1        47-6.77930E+00-2.13446E-01 0.00000E+00
 -1        48-7.18498E+00-1.34110E-07 0.00000E+00
 -1        49-6.09600E+00-4.53062E-01 0.00000E+00
 -1        50-6.09600E+00-1.34110E-07 0.00000E+00
 -1        51-6.41791E+00-4.53062E-01 0.00000E+00
 -1        52-6.09600E+00-2.13446E-01 0.00000E+00
 -1        53-6.41791E+00-1.34110E-07 0.00000E+00
 -1        54-3.00000E+01-1.02402E+00 0.00000E+00
 -1        55-2.45219E+01-1.02402E+00 0.00000E+00
 -1        56-3.00000E+01-7.22052E-01 0.00000E+00
 -1        57-2.71028E+01-1.02402E+00 0.00000E+00
 -1        58-2.45219E+01-7.22052E-01 0.00000E+00
 -1        59-2.01750E+01-1.02402E+00 0.00000E+00
 -1        60-2.22229E+01-1.02402E+00 0.00000E+00
 -1        61-2.01750E+01-7.22052E-01 0.00000E+00
 -1        62-1.67256E+01-1.02402E+00 0.00000E+00
 -1        63-1.83507E+01-1.02402E+00 0.00000E+00
 -1        64-1.67256E+01-7.22052E-01 0.00000E+00
 -1        65-1.39885E+01-1.02402E+00 0.00000E+00
 -1        66-1.52780E+01-1.02402E+00 0.00000E+00
 -1        67-1.39885E+01-7.22052E-01 0.00000E+00
 -1        68-1.18166E+01-1.02402E+00 0.00000E+00
 -1        69-1.28398E+01-1.02402E+00 0.00000E+00
 -1        70-1.18166E+01-7.22052E-01 0.00000E+00
 -1        71-1.00932E+01-1.02402E+00 0.00000E+00
 -1        72-1.09051E+01-1.02402E+00 0.00000E+00
 -1        73-1.00932E+01-7.22052E-01 0.00000E+00
 -1        74-8.72559E+00-1.02402E+00 0.00000E+00
 -1        75-9.36988E+00-1.02402E+00 0.00000E+00
 -1        76-8.72559E+00-7.22052E-01 0.00000E+00
 -1        77-7.64040E+00-1.02402E+00 0.00000E+00
 -1        78-8.15166E+00-1.02402E+00 0.00000E+00
 -1        79-7.64040E+00-7.22052E-01 0.00000E+00
 -1        80-6.77930E+00-1.02402E+00 0.00000E+00
 -1        81-7.18498E+00-1.02402E+00 0.00000E+00
 -1        82-6.77930E+00-7.22052E-01 0.00000E+00
 -1        83-6.09600E+00-1.02402E+00 0.00000E+00
 -1        84-6.41791E+00-1.02402E+00 0.00000E+00
 -1        85-6.09600E+00-7.22052E-01 0.00000E+00
 -1        86-3.00000E+01-1.74355E+00 0.00000E+00
 -1        87-2.45219E+01-1.74355E+00 0.00000E+00
 -1        88-3.00000E+01-1.36301E+00 0.00000E+00
 -1        89-2.71028E+01-1.74355E+00 0.00000E+00
 -1        90-2.45219E+01-1.36301E+00 0.00000E+00
 -1        91-2.01750E+01-1.74355E+00 0.00000E+00
 -1        92-2.22229E+01-1.74355E+00 0.00000E+00
 -1        93-2.01750E+01-1.36301E+00 0.00000E+00
 -1        94-1.67256E+01-1.74355E+00 0.00000E+00
 -1        95-1.83507E+01-1.74355E+00 0.00000E+00
 -1        96-1.67256E+01-1.36301E+00 0.00000E+00
 -1        97-1.39885E+01-1.74355E+00 0.00000E+00
 -1        98-1.52780E+01-1.74355E+00 0.00000E+00
 -1        99-1.39885E+01-1.36301E+00 0.00000E+00
 -1       100-1.18166E+01-1.74355E+00 0.00000E+00
 -1       101-1.28398E+01-1.74355E+00 0.00000E+00
 -1       102-1.18166E+01-1.36301E+00 0.00000E+00
 -1       103-1.00932E+01-1.74355E+00 0.00000E+00
 -1       104-1.09051E+01-1.74355E+00 0.00000E+00
 -1       105-1.00932E+01-1.36301E+00 0.00000E+00
 -1       106-8.72559E+00-1.74355E+00 0.00000E+00
 -1       107-9.36988E+00-1.74355E+00 0.00000E+00
 -1       108-8.72559E+00-1.36301E+00 0.00000E+00
 -1       109-7.64040E+00-1.74355E+00 0.00000E+00
 -1       110-8.15166E+00-1.74355E+00 0.00000E+00
 -1       111-7.64040E+00-1.36301E+00 0.00000E+00
 -1       112-6.77930E+00-1.74355E+00 0.00000E+00
 -1       113-7.18498E+00-1.74355E+00 0.00000E+00
 -1       114-6.77930E+00-1.36301E+00 0.00000E+00
 -1       115-6.09600E+00-1.74355E+00 0.00000E+00
 -1       116-6.41791E+00-1.74355E+00 0.00000E+00
 -1       117-6.09600E+00-1.36301E+00 0.00000E+00
 -1       118-3.00000E+01-2.65033E+00 0.00000E+00
 -1       119-2.45219E+01-2.65033E+00 0.00000E+00
 -1       120-3.00000E+01-2.17075E+00 0.00000E+00
 -1       121-2.71028E+01-2.65033E+00 0.00000E+00
 -1       122-2.45219E+01-2.17075E+00 0.00000E+00
 -1       123-2.01750E+01-2.65033E+00 0.00000E+00
 -1       124-2.22229E+01-2.65033E+00 0.00000E+00
 -1       125-2.01750E+01-2.17075E+00 0.00000E+00
 -1       126-1.67256E+01-2.65033E+00 0.00000E+00
 -1       127-1.83507E+01-2.65033E+00 0.00000E+00
 -1       128-1.67256E+01-2.17075E+00 0.00000E+00
 -1       129-1.39885E+01-2.65033E+00 0.00000E+00
 -1       130-1.52780E+01-2.65033E+00 0.00000E+00
 -1       131-1.39885E+01-2.17075E+00 0.00000E+00
 -1       132-1.18166E+01-2.65033E+00 0.00000E+00
 -1       133-1.28398E+01-2.65033E+00 0.00000E+00
 -1       134-1.18166E+01-2.17075E+00 0.00000E+00
 -1       135-1.00932E+01-2.65033E+00 0.00000E+00
 -1       136-1.09051E+01-2.65033E+00 0.00000E+00
 -1       137-1.00932E+01-2.17075E+00 0.00000E+00
 -1       138-8.72559E+00-2.65033E+00 0.00000E+00
 -1       139-9.36988E+00-2.65033E+00 0.00000E+00
 -1       140-8.72559E+00-2.17075E+00 0.00000E+00
 -1       141-7.64040E+00-2.65033E+00 0.00000E+00
 -1       142-8.15166E+00-2.65033E+00 0.00000E+00
 -1       143-7.64040E+00-2.17075E+00 0.00000E+00
 -1       144-6.77930E+00-2.65033E+00 0.00000E+00
 -1       145-7.18498E+00-2.65033E+00 0.00000E+00
 -1       146-6.77930E+00-2.17075E+00 0.00000E+00
 -1       147-6.09600E+00-2.65033E+00 0.00000E+00
 -1       148-6.41791E+00-2.65033E+00 0.00000E+00
 -1       149-6.09600E+00-2.17075E+00 0.00000E+00
 -1       150-3.00000E+01-3.79306E+00 0.00000E+00
 -1       151-2.45219E+01-3.79306E+00 0.00000E+00
 -1       152-3.00000E+01-3.18869E+00 0.00000E+00
 -1       153-2.71028E+01-3.79306E+00 0.00000E+00
 -1       154-2.45219E+01-3.18869E+00 0.00000E+00
 -1       155-2.01750E+01-3.79306E+00 0.00000E+00
 -1       156-2.22229E+01-3.79306E+00 0.00000E+00
 -1       157-2.01750E+01-3.18869E+00 0.00000E+00
 -1       158-1.67256E+01-3.79306E+00 0.00000E+00
 -1       159-1.83507E+01-3.79306E+00 0.00000E+00
 -1       160-1.67256E+01-3.18869E+00 0.00000E+00
 -1       161-1.39885E+01-3.79306E+00 0.00000E+00
 -1       162-1.52780E+01-3.79306E+00 0.00000E+00
 -1       163-1.39885E+01-3.18869E+00 0.00000E+00
 -1       164-1.18166E+01-3.79306E+00 0.00000E+00
 -1       165-1.28398E+01-3.79306E+00 0.00000E+00
 -1       166-1.18166E+01-3.18869E+00 0.00000E+00
 -1       167-1.00932E+01-3.79306E+00 0.00000E+00
 -1       168-1.09051E+01-3.79306E+00 0.00000E+00
 -1       169-1.00932E+01-3.18869E+00 0.00000E+00
 -1       170-8.72559E+00-3.79306E+00 0.00000E+00
 -1       171-9.36988E+00-3.79306E+00 0.00000E+00
 -1       172-8.72559E+00-3.18869E+00 0.00000E+00
 -1       173-7.64040E+00-3.79306E+00 0.00000E+00
 -1       174-8.15166E+00-3.79306E+00 0.00000E+00
 -1       175-7.64040E+00-3.18869E+00 0.00000E+00
 -1       176-6.77930E+00-3.79306E+00 0.00000E+00
 -1       177-7.18498E+00-3.79306E+00 0.00000E+00
 -1       178-6.77930E+00-3.18869E+00 0.00000E+00
 -1       179-6.09600E+00-3.79306E+00 0.00000E+00
 -1       180-6.41791E+00-3.79306E+00 0.00000E+00
 -1       181-6.09600E+00-3.18869E+00 0.00000E+00
 -1       182-3.00000E+01-5.23315E+00 0.00000E+00
 -1       183-2.45219E+01-5.23315E+00 0.00000E+00
 -1       184-3.00000E+01-4.47152E+00 0.00000E+00
 -1       185-2.71028E+01-5.23315E+00 0.00000E+00
 -1       186-2.45219E+01-4.47152E+00 0.00000E+00
 -1       187-2.01750E+01-5.23315E+00 0.00000E+00
 -1       188-2.22229E+01-5.23315E+00 0.00000E+00
 -1       189-2.01750E+01-4.47152E+00 0.00000E+00
 -1       190-1.67256E+01-5.23315E+00 0.00000E+00
 -1       191-1.83507E+01-5.23315E+00 0.00000E+00
 -1       192-1.67256E+01-4.47152E+00 0.00000E+00
 -1       193-1.39885E+01-5.23315E+00 0.00000E+00
 -1       194-1.52780E+01-5.23315E+00 0.00000E+00
 -1       195-1.39885E+01-4.47152E+00 0.00000E+00
 -1       196-1.18166E+01-5.23315E+00 0.00000E+00
 -1       197-1.28398E+01-5.23315E+00 0.00000E+00
 -1       198-1.18166E+01-4.47152E+00 0.00000E+00
 -1       199-1.00932E+01-5.23315E+00 0.00000E+00
 -1       200-1.09051E+01-5.23315E+00 0.00000E+00
 -1       201-1.00932E+01-4.47152E+00 0.00000E+00
 -1       202-8.72559E+00-5.23315E+00 0.00000E+00
 -1       203-9.36988E+00-5.23315E+00 0.00000E+00
 -1       204-8.72559E+00-4.47152E+00 0.00000E+00
 -1       205-7.64040E+00-5.23315E+00 0.00000E+00
 -1       206-8.15166E+00-5.23315E+00 0.00000E+00
 -1       207-7.64040E+00-4.47152E+00 0.00000E+00
 -1       208-6.77930E+00-5.23315E+00 0.00000E+00
 -1       209-7.18498E+00-5.23315E+00 0.00000E+00
 -1       210-6.77930E+00-4.47152E+00 0.00000E+00
 -1       211-6.09600E+00-5.23315E+00 0.00000E+00
 -1       212-6.41791E+00-5.23315E+00 0.00000E+00
 -1       213-6.09600E+00-4.47152E+00 0.00000E+00
 -1       214-3.00000E+01-7.04799E+00 0.00000E+00
 -1       215-2.45219E+01-7.04799E+00 0.00000E+00
 -1       216-3.00000E+01-6.08816E+00 0.00000E+00
 -1       217-2.71028E+01-7.04799E+00 0.00000E+00
 -1       218-2.45219E+01-6.08816E+00 0.00000E+00
 -1       219-2.01750E+01-7.04799E+00 0.00000E+00
 -1       220-2.22229E+01-7.04799E+00 0.00000E+00
 -1       221-2.01750E+01-6.08816E+00 0.00000E+00
 -1       222-1.67256E+01-7.04799E+00 0.00000E+00
 -1       223-1.83507E+01-7.04799E+00 0.00000E+00
 -1       224-1.67256E+01-6.08816E+00 0.00000E+00
 -1       225-1.39885E+01-7.04799E+00 0.00000E+00
 -1       226-1.52780E+01-7.04799E+00 0.00000E+00
 -1       227-1.39885E+01-6.08816E+00 0.00000E+00
 -1       228-1.18166E+01-7.04799E+00 0.00000E+00
 -1       229-1.28398E+01-7.04799E+00 0.00000E+00
 -1       230-1.18166E+01-6.08816E+00 0.00000E+00
 -1       231-1.00932E+01-7.04799E+00 0.00000E+00
 -1       232-1.09051E+01-7.04799E+00 0.00000E+00
 -1       233-1.00932E+01-6.08816E+00 0.00000E+00
 -1       234-8.72559E+00-7.04799E+00 0.00000E+00
 -1       235-9.36988E+00-7.04799E+00 0.00000E+00
 -1       236-8.72559E+00-6.08816E+00 0.00000E+00
 -1       237-7.64040E+00-7.04799E+00 0.00000E+00
 -1       238-8.15166E+00-7.04799E+00 0.00000E+00
 -1       239-7.64040E+00-6.08816E+00 0.00000E+00
 -1       240-6.77930E+00-7.04799E+00 0.00000E+00
 -1       241-7.18498E+00-7.04799E+00 0.00000E+00
 -1       242-6.77930E+00-6.08816E+00 0.00000E+00
 -1       243-6.09600E+00-7.04799E+00 0.00000E+00
 -1       244-6.41791E+00-7.04799E+00 0.00000E+00
 -1       245-6.09600E+00-6.08816E+00 0.00000E+00
 -1       246-3.00000E+01-9.33509E+00 0.00000E+00
 -1       247-2.45219E+01-9.33509E+00 0.00000E+00
 -1       248-3.00000E+01-8.12549E+00 0.00000E+00
 -1       249-2.71028E+01-9.33509E+00 0.00000E+00
 -1       250-2.45219E+01-8.12549E+00 0.00000E+00
 -1       251-2.01750E+01-9.33509E+00 0.00000E+00
 -1       252-2.22229E+01-9.33509E+00 0.00000E+00
 -1       253-2.01750E+01-8.12549E+00 0.00000E+00
 -1       254-1.67256E+01-9.33509E+00 0.00000E+00
 -1       255-1.83507E+01-9.33509E+00 0.00000E+00
 -1       256-1.67256E+01-8.12549E+00 0.00000E+00
 -1       257-1.39885E+01-9.33509E+00 0.00000E+00
 -1       258-1.52780E+01-9.33509E+00 0.00000E+00
 -1       259-1.39885E+01-8.12549E+00 0.00000E+00
 -1       260-1.18166E+01-9.33509E+00 0.00000E+00
 -1       261-1.28398E+01-9.33509E+00 0.00000E+00
 -1       262-1.18166E+01-8.12549E+00 0.00000E+00
 -1       263-1.00932E+01-9.33509E+00 0.00000E+00
 -1       264-1.09051E+01-9.33509E+00 0.00000E+00
 -1       265-1.00932E+01-8.12549E+00 0.00000E+00
 -1       266-8.72559E+00-9.33509E+00 0.00000E+00
 -1       267-9.36988E+00-9.33509E+00 0.00000E+00
 -1       268-8.72559E+00-8.12549E+00 0.00000E+00
 -1       269-7.64040E+00-9.33509E+00 0.00000E+00
 -1       270-8.15166E+00-9.33509E+00 0.00000E+00
 -1       271-7.64040E+00-8.12549E+00 0.00000E+00
 -1       272-6.77930E+00-9.33509E+00 0.00000E+00
 -1       273-7.18498E+00-9.33509E+00 0.00000E+00
 -1       274-6.77930E+00-8.12549E+00 0.00000E+00
 -1       275-6.09600E+00-9.33509E+00 0.00000E+00
 -1       276-6.41791E+00-9.33509E+00 0.00000E+00
 -1       277-6.09600E+00-8.12549E+00 0.00000E+00
 -1       278-3.00000E+01-1.22173E+01 0.00000E+00
 -1       279-2.45219E+01-1.22173E+01 0.00000E+00
 -1       280-3.00000E+01-1.06930E+01 0.00000E+00
 -1       281-2.71028E+01-1.22173E+01 0.00000E+00
 -1       282-2.45219E+01-1.06930E+01 0.00000E+00
 -1       283-2.01750E+01-1.22173E+01 0.00000E+00
 -1       284-2.22229E+01-1.22173E+01 0.00000E+00
 -1       285-2.01750E+01-1.06930E+01 0.00000E+00
 -1       286-1.67256E+01-1.22173E+01 0.00000E+00
 -1       287-1.83507E+01-1.22173E+01 0.00000E+00
 -1       288-1.67256E+01-1.06930E+01 0.00000E+00
 -1       289-1.39885E+01-1.22173E+01 0.00000E+00
 -1       290-1.52780E+01-1.22173E+01 0.00000E+00
 -1       291-1.39885E+01-1.06930E+01 0.00000E+00
 -1       292-1.18166E+01-1.22173E+01 0.00000E+00
 -1       293-1.28398E+01-1.22173E+01 0.00000E+00
 -1       294-1.18166E+01-1.06930E+01 0.00000E+00
 -1       295-1.00932E+01-1.22173E+01 0.00000E+00
 -1       296-1.09051E+01-1.22173E+01 0.00000E+00
 -1       297-1.00932E+01-1.06930E+01 0.00000E+00
 -1       298-8.72559E+00-1.22173E+01 0.00000E+00
 -1       299-9.36988E+00-1.22173E+01 0.00000E+00
 -1       300-8.72559E+00-1.06930E+01 0.00000E+00
 -1       301-7.64040E+00-1.22173E+01 0.00000E+00
 -1       302-8.15166E+00-1.22173E+01 0.00000E+00
 -1       303-7.64040E+00-1.06930E+01 0.00000E+00
 -1       304-6.77930E+00-1.22173E+01 0.00000E+00
 -1       305-7.18498E+00-1.22173E+01 0.00000E+00
 -1       306-6.77930E+00-1.06930E+01 0.00000E+00
 -1       307-6.09600E+00-1.22173E+01 0.00000E+00
 -1       308-6.41791E+00-1.22173E+01 0.00000E+00
 -1       309-6.09600E+00-1.06930E+01 0.00000E+00
 -1       310-3.00000E+01-1.58496E+01 0.00000E+00
 -1       311-2.45219E+01-1.58496E+01 0.00000E+00
 -1       312-3.00000E+01-1.39286E+01 0.00000E+00
 -1       313-2.71028E+01-1.58496E+01 0.00000E+00
 -1       314-2.45219E+01-1.39286E+01 0.00000E+00
 -1       315-2.01750E+01-1.58496E+01 0.00000E+00
 -1       316-2.22229E+01-1.58496E+01 0.00000E+00
 -1       317-2.01750E+01-1.39286E+01 0.00000E+00
 -1       318-1.67256E+01-1.58496E+01 0.00000E+00
 -1       319-1.83507E+01-1.58496E+01 0.00000E+00
 -1       320-1.67256E+01-1.39286E+01 0.00000E+00
 -1       321-1.39885E+01-1.58496E+01 0.00000E+00
 -1       322-1.52780E+01-1.58496E+01 0.00000E+00
 -1       323-1.39885E+01-1.39286E+01 0.00000E+00
 -1       324-1.18166E+01-1.58496E+01 0.00000E+00
 -1       325-1.28398E+01-1.58496E+01 0.00000E+00
 -1       326-1.18166E+01-1.39286E+01 0.00000E+00
 -1       327-1.00932E+01-1.58496E+01 0.00000E+00
 -1       328-1.09051E+01-1.58496E+01 0.00000E+00
 -1       329-1.00932E+01-1.39286E+01 0.00000E+00
 -1       330-8.72559E+00-1.58496E+01 0.00000E+00
 -1       331-9.36988E+00-1.58496E+01 0.00000E+00
 -1       332-8.72559E+00-1.39286E+01 0.00000E+00
 -1       333-7.64040E+00-1.58496E+01 0.00000E+00
 -1       334-8.15166E+00-1.58496E+01 0.00000E+00
 -1       335-7.64040E+00-1.39286E+01 0.00000E+00
 -1       336-6.77930E+00-1.58496E+01 0.00000E+00
 -1       337-7.18498E+00-1.58496E+01 0.00000E+00
 -1       338-6.77930E+00-1.39286E+01 0.00000E+00
 -1       339-6.09600E+00-1.58496E+01 0.00000E+00
 -1       340-6.41791E+00-1.58496E+01 0.00000E+00
 -1       341-6.09600E+00-1.39286E+01 0.00000E+00
 -1       342-3.00000E+01 2.43840E+00 0.00000E+00
 -1       343-3.00000E+01 1.21920E+00 0.00000E+00
 -1       344-2.45219E+01 1.21920E+00 0.00000E+00
 -1       345-2.45219E+01 2.43840E+00 0.00000E+00
 -1       346-3.00000E+01 1.82880E+00 0.00000E+00
 -1       347-2.71028E+01 1.21920E+00 0.00000E+00
 -1       348-2.45219E+01 1.82880E+00 0.00000E+00
 -1       349-2.71028E+01 2.43840E+00 0.00000E+00
 -1       350-2.01750E+01 1.21920E+00 0.00000E+00
 -1       351-2.01750E+01 2.43840E+00 0.00000E+00
 -1       352-2.22229E+01 1.21920E+00 0.00000E+00
 -1       353-2.01750E+01 1.82880E+00 0.00000E+00
 -1       354-2.22229E+01 2.43840E+00 0.00000E+00
 -1       355-1.67256E+01 1.21920E+00 0.00000E+00
 -1       356-1.67256E+01 2.43840E+00 0.00000E+00
 -1       357-1.83507E+01 1.21920E+00 0.00000E+00
 -1       358-1.67256E+01 1.82880E+00 0.00000E+00
 -1       359-1.83507E+01 2.43840E+00 0.00000E+00
 -1       360-1.39885E+01 1.21920E+00 0.00000E+00
 -1       361-1.39885E+01 2.43840E+00 0.00000E+00
 -1       362-1.52780E+01 1.21920E+00 0.00000E+00
 -1       363-1.39885E+01 1.82880E+00 0.00000E+00
 -1       364-1.52780E+01 2.43840E+00 0.00000E+00
 -1       365-1.18166E+01 1.21920E+00 0.00000E+00
 -1       366-1.18166E+01 2.43840E+00 0.00000E+00
 -1       367-1.28398E+01 1.21920E+00 0.00000E+00
 -1       368-1.18166E+01 1.82880E+00 0.00000E+00
 -1       369-1.28398E+01 2.43840E+00 0.00000E+00
 -1       370-1.00932E+01 1.21920E+00 0.00000E+00
 -1       371-1.00932E+01 2.43840E+00 0.00000E+00
 -1       372-1.09051E+01 1.21920E+00 0.00000E+00
 -1       373-1.00932E+01 1.82880E+00 0.00000E+00
 -1       374-1.09051E+01 2.43840E+00 0.00000E+00
 -1       375-8.72559E+00 1.21920E+00 0.00000E+00
 -1       376-8.72559E+00 2.43840E+00 0.00000E+00
 -1       377-9.36988E+00 1.21920E+00 0.00000E+00
 -1       378-8.72559E+00 1.82880E+00 0.00000E+00
 -1       379-9.36988E+00 2.43840E+00 0.00000E+00
 -1       380-7.64040E+00 1.21920E+00 0.00000E+00
 -1       381-7.64040E+00 2.43840E+00 0.00000E+00
 -1       382-8.15166E+00 1.21920E+00 0.00000E+00
 -1       383-7.64040E+00 1.82880E+00 0.00000E+00
 -1       384-8.15166E+00 2.43840E+00 0.00000E+00
 -1       385-6.77930E+00 1.21920E+00 0.00000E+00
 -1       386-6.77930E+00 2.43840E+00 0.00000E+00
 -1       387-7.18498E+00 1.21920E+00 0.00000E+00
 -1       388-6.77930E+00 1.82880E+00 0.00000E+00
 -1       389-7.18498E+00 2.43840E+00 0.00000E+00
 -1       390-6.09600E+00 1.21920E+00 0.00000E+00
 -1       391-6.09600E+00 2.43840E+00 0.00000E+00
 -1       392-6.41791E+00 1.21920E+00 0.00000E+00
 -1       393-6.09600E+00 1.82880E+00 0.00000E+00
 -1       394-6.41791E+00 2.43840E+00 0.00000E+00
 -1       395-3.00000E+01 6.09600E-01 0.00000E+00
 -1       396-2.45219E+01 6.09600E-01 0.00000E+00
 -1       397-2.01750E+01 6.09600E-01 0.00000E+00
 -1       398-1.67256E+01 6.09600E-01 0.00000E+00
 -1       399-1.39885E+01 6.09600E-01 0.00000E+00
 -1       400-1.18166E+01 6.09600E-01 0.00000E+00
 -1       401-1.00932E+01 6.09600E-01 0.00000E+00
 -1       402-8.72559E+00 6.09600E-01 0.00000E+00
 -1       403-7.64040E+00 6.09600E-01 0.00000E+00
 -1       404-6.77930E+00 6.09600E-01 0.00000E+00
 -1       405-6.09600E+00 6.09600E-01 0.00000E+00
 -1       406-4.57200E+00-4.53062E-01 0.00000E+00
 -1       407-4.57200E+00-1.34110E-07 0.00000E+00
 -1       408-5.33400E+00-4.53062E-01 0.00000E+00
 -1       409-4.57200E+00-2.13446E-01 0.00000E+00
 -1       410-5.33400E+00-1.34110E-07 0.00000E+00
 -1       411-3.04800E+00-4.53062E-01 0.00000E+00
 -1       412-3.04800E+00-1.34110E-07 0.00000E+00
 -1       413-3.81000E+00-4.53062E-01 0.00000E+00
 -1       414-3.04800E+00-2.13446E-01 0.00000E+00
 -1       415-3.81000E+00-1.34110E-07 0.00000E+00
 -1       416-1.52400E+00-4.53062E-01 0.00000E+00
 -1       417-1.52400E+00-1.34110E-07 0.00000E+00
 -1       418-2.28600E+00-4.53062E-01 0.00000E+00
 -1       419-1.52400E+00-2.13446E-01 0.00000E+00
 -1       420-2.28600E+00-1.34110E-07 0.00000E+00
 -1       421 0.00000E+00-4.53062E-01 0.00000E+00
 -1       422 0.00000E+00-1.34110E-07 0.00000E+00
 -1       423-7.62000E-01-4.53062E-01 0.00000E+00
 -1       424 0.00000E+00-2.13446E-01 0.00000E+00
 -1       425-7.62000E-01-1.34110E-07 0.00000E+00
 -1       426-4.57200E+00-1.02402E+00 0.00000E+00
 -1       427-5.33400E+00-1.02402E+00 0.00000E+00
 -1       428-4.57200E+00-7.22052E-01 0.00000E+00
 -1       429-3.04800E+00-1.02402E+00 0.00000E+00
 -1       430-3.81000E+00-1.02402E+00 0.00000E+00
 -1       431-3.04800E+00-7.22052E-01 0.00000E+00
 -1       432-1.52400E+00-1.02402E+00 0.00000E+00
 -1       433-2.28600E+00-1.02402E+00 0.00000E+00
 -1       434-1.52400E+00-7.22052E-01 0.00000E+00
 -1       435 0.00000E+00-1.02402E+00 0.00000E+00
 -1       436-7.62000E-01-1.02402E+00 0.00000E+00
 -1       437 0.00000E+00-7.22052E-01 0.00000E+00
 -1       438-4.57200E+00-1.74355E+00 0.00000E+00
 -1       439-5.33400E+00-1.74355E+00 0.00000E+00
 -1       440-4.57200E+00-1.36301E+00 0.00000E+00
 -1       441-3.04800E+00-1.74355E+00 0.00000E+00
 -1       442-3.81000E+00-1.74355E+00 0.00000E+00
 -1       443-3.04800E+00-1.36301E+00 0.00000E+00
 -1       444-1.52400E+00-1.74355E+00 0.00000E+00
 -1       445-2.28600E+00-1.74355E+00 0.00000E+00
 -1       446-1.52400E+00-1.36301E+00 0.00000E+00
 -1       447 0.00000E+00-1.74355E+00 0.00000E+00
 -1       448-7.62000E-01-1.74355E+00 0.00000E+00
 -1       449 0.00000E+00-1.36301E+00 0.00000E+00
 -1       450-4.57200E+00-2.65033E+00 0.00000E+00
 -1       451-5.33400E+00-2.65033E+00 0.00000E+00
 -1       452-4.57200E+00-2.17075E+00 0.00000E+00
 -1       453-3.04800E+00-2.65033E+00 0.00000E+00
 -1       454-3.81000E+00-2.65033E+00 0.00000E+00
 -1       455-3.04800E+00-2.17075E+00 0.00000E+00
 -1       456-1.52400E+00-2.65033E+00 0.00000E+00
 -1       457-2.28600E+00-2.65033E+00 0.00000E+00
 -1       458-1.52400E+00-2.17075E+00 0.00000E+00
 -1       459 0.00000E+00-2.65033E+00 0.00000E+00
 -1       460-7.62000E-01-2.65033E+00 0.00000E+00
 -1       461 0.00000E+00-2.17075E+00 0.00000E+00
 -1       462-4.57200E+00-3.79306E+00 0.00000E+00
 -1       463-5.33400E+00-3.79306E+00 0.00000E+00
 -1       464-4.57200E+00-3.18869E+00 0.00000E+00
 -1       465-3.04800E+00-3.79306E+00 0.00000E+00
 -1       466-3.81000E+00-3.79306E+00 0.00000E+00
 -1       467-3.04800E+00-3.18869E+00 0.00000E+00
 -1       468-1.52400E+00-3.79306E+00 0.00000E+00
 -1       469-2.28600E+00-3.79306E+00 0.00000E+00
 -1       470-1.52400E+00-3.18869E+00 0.00000E+00
 -1       471 0.00000E+00-3.79306E+00 0.00000E+00
 -1       472-7.62000E-01-3.79306E+00 0.00000E+00
 -1       473 0.00000E+00-3.18869E+00 0.00000E+00
 -1       474-4.57200E+00-5.23315E+00 0.00000E+00
 -1       475-5.33400E+00-5.23315E+00 0.00000E+00
 -1       476-4.57200E+00-4.47152E+00 0.00000E+00
 -1       477-3.04800E+00-5.23315E+00 0.00000E+00
 -1       478-3.81000E+00-5.23315E+00 0.00000E+00
 -1       479-3.04800E+00-4.47152E+00 0.00000E+00
 -1       480-1.52400E+00-5.23315E+00 0.00000E+00
 -1       481-2.28600E+00-5.23315E+00 0.00000E+00
 -1       482-1.52400E+00-4.47152E+00 0.00000E+00
 -1       483 0.00000E+00-5.23315E+00 0.00000E+00
 -1       484-7.62000E-01-5.23315E+00 0.00000E+00
 -1       485 0.00000E+00-4.47152E+00 0.00000E+00
 -1       486-4.57200E+00-7.04799E+00 0.00000E+00
 -1       487-5.33400E+00-7.04799E+00 0.00000E+00
 -1       488-4.57200E+00-6.08816E+00 0.00000E+00
 -1       489-3.04800E+00-7.04799E+00 0.00000E+00
 -1       490-3.81000E+00-7.04799E+00 0.00000E+00
 -1       491-3.04800E+00-6.08816E+00 0.00000E+00
 -1       492-1.52400E+00-7.04799E+00 0.00000E+00
 -1       493-2.28600E+00-7.04799E+00 0.00000E+00
 -1       494-1.52400E+00-6.08816E+00 0.00000E+00
 -1       495 0.00000E+00-7.04799E+00 0.00000E+00
 -1       496-7.62000E-01-7.04799E+00 0.00000E+00
 -1       497 0.00000E+00-6.08816E+00 0.00000E+00
 -1       498-4.57200E+00-9.33509E+00 0.00000E+00
 -1       499-5.33400E+00-9.33509E+00 0.00000E+00
 -1       500-4.57200E+00-8.12549E+00 0.00000E+00
 -1       501-3.04800E+00-9.33509E+00 0.00000E+00
 -1       502-3.81000E+00-9.33509E+00 0.00000E+00
 -1       503-3.04800E+00-8.12549E+00 0.00000E+00
 -1       504-1.52400E+00-9.33509E+00 0.00000E+00
 -1       505-2.28600E+00-9.33509E+00 0.00000E+00
 -1       506-1.52400E+00-8.12549E+00 0.00000E+00
 -1       507 0.00000E+00-9.33509E+00 0.00000E+00
 -1       508-7.62000E-01-9.33509E+00 0.00000E+00
 -1       509 0.00000E+00-8.12549E+00 0.00000E+00
 -1       510-4.57200E+00-1.22173E+01 0.00000E+00
 -1       511-5.33400E+00-1.22173E+01 0.00000E+00
 -1       512-4.57200E+00-1.06930E+01 0.00000E+00
 -1       513-3.04800E+00-1.22173E+01 0.00000E+00
 -1       514-3.81000E+00-1.22173E+01 0.00000E+00
 -1       515-3.04800E+00-1.06930E+01 0.00000E+00
 -1       516-1.52400E+00-1.22173E+01 0.00000E+00
 -1       517-2.28600E+00-1.22173E+01 0.00000E+00
 -1       518-1.52400E+00-1.06930E+01 0.00000E+00
 -1       519 0.00000E+00-1.22173E+01 0.00000E+00
 -1       520-7.62000E-01-1.22173E+01 0.00000E+00
 -1       521 0.00000E+00-1.06930E+01 0.00000E+00
 -1       522-4.57200E+00-1.58496E+01 0.00000E+00
 -1       523-5.33400E+00-1.58496E+01 0.00000E+00
 -1       524-4.57200E+00-1.39286E+01 0.00000E+00
 -1       525-3.04800E+00-1.58496E+01 0.00000E+00
 -1       526-3.81000E+00-1.58496E+01 0.00000E+00
 -1       527-3.04800E+00-1.39286E+01 0.00000E+00
 -1       528-1.52400E+00-1.58496E+01 0.00000E+00
 -1       529-2.28600E+00-1.58496E+01 0.00000E+00
 -1       530-1.52400E+00-1.39286E+01 0.00000E+00
 -1       531 0.00000E+00-1.58496E+01 0.00000E+00
 -1       532-7.62000E-01-1.58496E+01 0.00000E+00
 -1       533 0.00000E+00-1.39286E+01 0.00000E+00
 -1       534 1.52400E+00-4.53062E-01 0.00000E+00
 -1       535 1.52400E+00-1.34110E-07 0.00000E+00
 -1       536 7.62000E-01-4.53062E-01 0.00000E+00
 -1       537 1.52400E+00-2.13446E-01 0.00000E+00
 -1       538 7.62000E-01-1.34110E-07 0.00000E+00
 -1       539 3.04800E+00-4.53062E-01 0.00000E+00
 -1       540 3.04800E+00-1.34110E-07 0.00000E+00
 -1       541 2.28600E+00-4.53062E-01 0.00000E+00
 -1       542 3.04800E+00-2.13446E-01 0.00000E+00
 -1       543 2.28600E+00-1.34110E-07 0.00000E+00
 -1       544 4.57200E+00-4.53062E-01 0.00000E+00
 -1       545 4.57200E+00-1.34110E-07 0.00000E+00
 -1       546 3.81000E+00-4.53062E-01 0.00000E+00
 -1       547 4.57200E+00-2.13446E-01 0.00000E+00
 -1       548 3.81000E+00-1.34110E-07 0.00000E+00
 -1       549 6.09600E+00-4.53062E-01 0.00000E+00
 -1       550 6.09600E+00-1.34110E-07 0.00000E+00
 -1       551 5.33400E+00-4.53062E-01 0.00000E+00
 -1       552 6.09600E+00-2.13446E-01 0.00000E+00
 -1       553 5.33400E+00-1.34110E-07 0.00000E+00
 -1       554 1.52400E+00-1.02402E+00 0.00000E+00
 -1       555 7.62000E-01-1.02402E+00 0.00000E+00
 -1       556 1.52400E+00-7.22052E-01 0.00000E+00
 -1       557 3.04800E+00-1.02402E+00 0.00000E+00
 -1       558 2.28600E+00-1.02402E+00 0.00000E+00
 -1       559 3.04800E+00-7.22052E-01 0.00000E+00
 -1       560 4.57200E+00-1.02402E+00 0.00000E+00
 -1       561 3.81000E+00-1.02402E+00 0.00000E+00
 -1       562 4.57200E+00-7.22052E-01 0.00000E+00
 -1       563 6.09600E+00-1.02402E+00 0.00000E+00
 -1       564 5.33400E+00-1.02402E+00 0.00000E+00
 -1       565 6.09600E+00-7.22052E-01 0.00000E+00
 -1       566 1.52400E+00-1.74355E+00 0.00000E+00
 -1       567 7.62000E-01-1.74355E+00 0.00000E+00
 -1       568 1.52400E+00-1.36301E+00 0.00000E+00
 -1       569 3.04800E+00-1.74355E+00 0.00000E+00
 -1       570 2.28600E+00-1.74355E+00 0.00000E+00
 -1       571 3.04800E+00-1.36301E+00 0.00000E+00
 -1       572 4.57200E+00-1.74355E+00 0.00000E+00
 -1       573 3.81000E+00-1.74355E+00 0.00000E+00
 -1       574 4.57200E+00-1.36301E+00 0.00000E+00
 -1       575 6.09600E+00-1.74355E+00 0.00000E+00
 -1       576 5.33400E+00-1.74355E+00 0.00000E+00
 -1       577 6.09600E+00-1.36301E+00 0.00000E+00
 -1       578 1.52400E+00-2.65033E+00 0.00000E+00
 -1       579 7.62000E-01-2.65033E+00 0.00000E+00
 -1       580 1.52400E+00-2.17075E+00 0.00000E+00
 -1       581 3.04800E+00-2.65033E+00 0.00000E+00
 -1       582 2.28600E+00-2.65033E+00 0.00000E+00