    1C
    1UUSER                                                              
    1UDATE              25.january.2020                                 
    1UTIME              14:49:45                                        
    1UHOST                                                              
    1UPGM               CalculiX                                        
    1UVERSION           Version 2.16                             
    1UCOMPILETIME       Tue  7 Jan 19:57:43 CET 2020                    
    1UDIR                                                               
    1UDBN                                                               
    1UMAT    1STEEL                                                     
    2C                            64                                     1
 -1         1 0.00000E+00 3.00000E+01 0.00000E+00
 -1         2 0.00000E+00 0.00000E+00 0.00000E+00
 -1         3 2.00000E+01 0.00000E+00 0.00000E+00
 -1         4 2.00000E+01 3.00000E+01 0.00000E+00
 -1         5 0.00000E+00 3.00000E+01 1.00000E+00
 -1         6 0.00000E+00 0.00000E+00 1.00000E+00
 -1         7 2.00000E+01 0.00000E+00 1.00000E+00
 -1         8 2.00000E+01 3.00000E+01 1.00000E+00
 -1        21 4.00000E+01 0.00000E+00 0.00000E+00
 -1        22 4.00000E+01 3.00000E+01 0.00000E+00
 -1        23 4.00000E+01 0.00000E+00 1.00000E+00
 -1        24 4.00000E+01 3.00000E+01 1.00000E+00
 -1        33 6.00000E+01 0.00000E+00 0.00000E+00
 -1        34 6.00000E+01 3.00000E+01 0.00000E+00
 -1        35 6.00000E+01 0.00000E+00 1.00000E+00
 -1        36 6.00000E+01 3.00000E+01 1.00000E+00
 -1        45 8.00000E+01 0.00000E+00 0.00000E+00
 -1        46 8.00000E+01 3.00000E+01 0.00000E+00
 -1        47 8.00000E+01 0.00000E+00 1.00000E+00
 -1        48 8.00000E+01 3.00000E+01 1.00000E+00
 -1        57 1.00000E+02 0.00000E+00 0.00000E+00
 -1        58 1.00000E+02 3.00000E+01 0.00000E+00
 -1        59 1.00000E+02 0.00000E+00 1.00000E+00
 -1        60 1.00000E+02 3.00000E+01 1.00000E+00
 -1        69 1.20000E+02 0.00000E+00 0.00000E+00
 -1        70 1.20000E+02 3.00000E+01 0.00000E+00
 -1        71 1.20000E+02 0.00000E+00 1.00000E+00
 -1        72 1.20000E+02 3.00000E+01 1.00000E+00
 -1        81 1.40000E+02 0.00000E+00 0.00000E+00
 -1        82 1.40000E+02 3.00000E+01 0.00000E+00
 -1        83 1.40000E+02 0.00000E+00 1.00000E+00
 -1        84 1.40000E+02 3.00000E+01 1.00000E+00
 -1        93 1.60000E+02 0.00000E+00 0.00000E+00
 -1        94 1.60000E+02 3.00000E+01 0.00000E+00
 -1        95 1.60000E+02 0.00000E+00 1.00000E+00
 -1        96 1.60000E+02 3.00000E+01 1.00000E+00
 -1       105 1.80000E+02 0.00000E+00 0.00000E+00
 -1       106 1.80000E+02 3.00000E+01 0.00000E+00
 -1       107 1.80000E+02 0.00000E+00 1.00000E+00
 -1       108 1.80000E+02 3.00000E+01 1.00000E+00
 -1       117 2.00000E+02 0.00000E+00 0.00000E+00
 -1       118 2.00000E+02 3.00000E+01 0.00000E+00
 -1       119 2.00000E+02 0.00000E+00 1.00000E+00
 -1       120 2.00000E+02 3.00000E+01 1.00000E+00
 -1       129 2.20000E+02 0.00000E+00 0.00000E+00
 -1       130 2.20000E+02 3.00000E+01 0.00000E+00
 -1       131 2.20000E+02 0.00000E+00 1.00000E+00
 -1       132 2.20000E+02 3.00000E+01 1.00000E+00
 -1       141 2.40000E+02 0.00000E+00 0.00000E+00
 -1       142 2.40000E+02 3.00000E+01 0.00000E+00
 -1       143 2.40000E+02 0.00000E+00 1.00000E+00
 -1       144 2.40000E+02 3.00000E+01 1.00000E+00
 -1       153 2.60000E+02 0.00000E+00 0.00000E+00
 -1       154 2.60000E+02 3.00000E+01 0.00000E+00
 -1       155 2.60000E+02 0.00000E+00 1.00000E+00
 -1       156 2.60000E+02 3.00000E+01 1.00000E+00
 -1       165 2.80000E+02 0.00000E+00 0.00000E+00
 -1       166 2.80000E+02 3.00000E+01 0.00000E+00
 -1       167 2.80000E+02 0.00000E+00 1.00000E+00
 -1       168 2.80000E+02 3.00000E+01 1.00000E+00
 -1       177 3.00000E+02 0.00000E+00 0.00000E+00
 -1       178 3.00000E+02 3.00000E+01 0.00000E+00
 -1       179 3.00000E+02 0.00000E+00 1.00000E+00
 -1       180 3.00000E+02 3.00000E+01 1.00000E+00
 -3
    3C                            15                                     1
 -1         1    1    0    1
 -2         1         2         3         4         5         6         7         8
 -1         2    1    0    1
 -2         4         3        21        22         8         7        23        24
 -1         3    1    0    1
 -2        22        21        33        34        24        23        35        36
 -1         4    1    0    1
 -2        34        33        45        46        36        35        47        48
 -1         5    1    0    1
 -2        46        45        57        58        48        47        59        60
 -1         6    1    0    1
 -2        58        57        69        70        60        59        71        72
 -1         7    1    0    1
 -2        70        69        81        82        72        71        83        84
 -1         8    1    0    1
 -2        82        81        93        94        84        83        95        96
 -1         9    1    0    1
 -2        94        93       105       106        96        95       107       108
 -1        10    1    0    1
 -2       106       105       117       118       108       107       119       120
 -1        11    1    0    1
 -2       118       117       129       130       120       119       131       132
 -1        12    1    0    1
 -2       130       129       141       142       132       131       143       144
 -1        13    1    0    1
 -2       142       141       153       154       144       143       155       156
 -1        14    1    0    1
 -2       154       153       165       166       156       155       167       168
 -1        15    1    0    1
 -2       166       165       177       178       168       167       179       180
 -3
 9999
