    1C
    1UUSER                                                              
    1UDATE              25.january.2020                                 
    1UTIME              14:49:43                                        
    1UHOST                                                              
    1UPGM               CalculiX                                        
    1UVERSION           Version 2.16                             
    1UCOMPILETIME       Tue  7 Jan 19:57:43 CET 2020                    
    1UDIR                                                               
    1UDBN                                                               
    1UMAT    1STEEL                                                     
    2C                           188                                     1
 -1         1 0.00000E+00 3.00000E+01 0.00000E+00
 -1         2 0.00000E+00 0.00000E+00 0.00000E+00
 -1         3 2.00000E+01 0.00000E+00 0.00000E+00
 -1         4 2.00000E+01 3.00000E+01 0.00000E+00
 -1         5 0.00000E+00 3.00000E+01 1.00000E+00
 -1         6 0.00000E+00 0.00000E+00 1.00000E+00
 -1         7 2.00000E+01 0.00000E+00 1.00000E+00
 -1         8 2.00000E+01 3.00000E+01 1.00000E+00
 -1         9 0.00000E+00 1.50000E+01 0.00000E+00
 -1        10 1.00000E+01 0.00000E+00 0.00000E+00
 -1        11 2.00000E+01 1.50000E+01 0.00000E+00
 -1        12 1.00000E+01 3.00000E+01 0.00000E+00
 -1        13 0.00000E+00 3.00000E+01 5.00000E-01
 -1        14 0.00000E+00 0.00000E+00 5.00000E-01
 -1        15 2.00000E+01 0.00000E+00 5.00000E-01
 -1        16 2.00000E+01 3.00000E+01 5.00000E-01
 -1        17 0.00000E+00 1.50000E+01 1.00000E+00
 -1        18 1.00000E+01 0.00000E+00 1.00000E+00
 -1        19 2.00000E+01 1.50000E+01 1.00000E+00
 -1        20 1.00000E+01 3.00000E+01 1.00000E+00
 -1        21 4.00000E+01 0.00000E+00 0.00000E+00
 -1        22 4.00000E+01 3.00000E+01 0.00000E+00
 -1        23 4.00000E+01 0.00000E+00 1.00000E+00
 -1        24 4.00000E+01 3.00000E+01 1.00000E+00
 -1        25 3.00000E+01 0.00000E+00 0.00000E+00
 -1        26 4.00000E+01 1.50000E+01 0.00000E+00
 -1        27 3.00000E+01 3.00000E+01 0.00000E+00
 -1        28 4.00000E+01 0.00000E+00 5.00000E-01
 -1        29 4.00000E+01 3.00000E+01 5.00000E-01
 -1        30 3.00000E+01 0.00000E+00 1.00000E+00
 -1        31 4.00000E+01 1.50000E+01 1.00000E+00
 -1        32 3.00000E+01 3.00000E+01 1.00000E+00
 -1        33 6.00000E+01 0.00000E+00 0.00000E+00
 -1        34 6.00000E+01 3.00000E+01 0.00000E+00
 -1        35 6.00000E+01 0.00000E+00 1.00000E+00
 -1        36 6.00000E+01 3.00000E+01 1.00000E+00
 -1        37 5.00000E+01 0.00000E+00 0.00000E+00
 -1        38 6.00000E+01 1.50000E+01 0.00000E+00
 -1        39 5.00000E+01 3.00000E+01 0.00000E+00
 -1        40 6.00000E+01 0.00000E+00 5.00000E-01
 -1        41 6.00000E+01 3.00000E+01 5.00000E-01
 -1        42 5.00000E+01 0.00000E+00 1.00000E+00
 -1        43 6.00000E+01 1.50000E+01 1.00000E+00
 -1        44 5.00000E+01 3.00000E+01 1.00000E+00
 -1        45 8.00000E+01 0.00000E+00 0.00000E+00
 -1        46 8.00000E+01 3.00000E+01 0.00000E+00
 -1        47 8.00000E+01 0.00000E+00 1.00000E+00
 -1        48 8.00000E+01 3.00000E+01 1.00000E+00
 -1        49 7.00000E+01 0.00000E+00 0.00000E+00
 -1        50 8.00000E+01 1.50000E+01 0.00000E+00
 -1        51 7.00000E+01 3.00000E+01 0.00000E+00
 -1        52 8.00000E+01 0.00000E+00 5.00000E-01
 -1        53 8.00000E+01 3.00000E+01 5.00000E-01
 -1        54 7.00000E+01 0.00000E+00 1.00000E+00
 -1        55 8.00000E+01 1.50000E+01 1.00000E+00
 -1        56 7.00000E+01 3.00000E+01 1.00000E+00
 -1        57 1.00000E+02 0.00000E+00 0.00000E+00
 -1        58 1.00000E+02 3.00000E+01 0.00000E+00
 -1        59 1.00000E+02 0.00000E+00 1.00000E+00
 -1        60 1.00000E+02 3.00000E+01 1.00000E+00
 -1        61 9.00000E+01 0.00000E+00 0.00000E+00
 -1        62 1.00000E+02 1.50000E+01 0.00000E+00
 -1        63 9.00000E+01 3.00000E+01 0.00000E+00
 -1        64 1.00000E+02 0.00000E+00 5.00000E-01
 -1        65 1.00000E+02 3.00000E+01 5.00000E-01
 -1        66 9.00000E+01 0.00000E+00 1.00000E+00
 -1        67 1.00000E+02 1.50000E+01 1.00000E+00
 -1        68 9.00000E+01 3.00000E+01 1.00000E+00
 -1        69 1.20000E+02 0.00000E+00 0.00000E+00
 -1        70 1.20000E+02 3.00000E+01 0.00000E+00
 -1        71 1.20000E+02 0.00000E+00 1.00000E+00
 -1        72 1.20000E+02 3.00000E+01 1.00000E+00
 -1        73 1.10000E+02 0.00000E+00 0.00000E+00
 -1        74 1.20000E+02 1.50000E+01 0.00000E+00
 -1        75 1.10000E+02 3.00000E+01 0.00000E+00
 -1        76 1.20000E+02 0.00000E+00 5.00000E-01
 -1        77 1.20000E+02 3.00000E+01 5.00000E-01
 -1        78 1.10000E+02 0.00000E+00 1.00000E+00
 -1        79 1.20000E+02 1.50000E+01 1.00000E+00
 -1        80 1.10000E+02 3.00000E+01 1.00000E+00
 -1        81 1.40000E+02 0.00000E+00 0.00000E+00
 -1        82 1.40000E+02 3.00000E+01 0.00000E+00
 -1        83 1.40000E+02 0.00000E+00 1.00000E+00
 -1        84 1.40000E+02 3.00000E+01 1.00000E+00
 -1        85 1.30000E+02 0.00000E+00 0.00000E+00
 -1        86 1.40000E+02 1.50000E+01 0.00000E+00
 -1        87 1.30000E+02 3.00000E+01 0.00000E+00
 -1        88 1.40000E+02 0.00000E+00 5.00000E-01
 -1        89 1.40000E+02 3.00000E+01 5.00000E-01
 -1        90 1.30000E+02 0.00000E+00 1.00000E+00
 -1        91 1.40000E+02 1.50000E+01 1.00000E+00
 -1        92 1.30000E+02 3.00000E+01 1.00000E+00
 -1        93 1.60000E+02 0.00000E+00 0.00000E+00
 -1        94 1.60000E+02 3.00000E+01 0.00000E+00
 -1        95 1.60000E+02 0.00000E+00 1.00000E+00
 -1        96 1.60000E+02 3.00000E+01 1.00000E+00
 -1        97 1.50000E+02 0.00000E+00 0.00000E+00
 -1        98 1.60000E+02 1.50000E+01 0.00000E+00
 -1        99 1.50000E+02 3.00000E+01 0.00000E+00
 -1       100 1.60000E+02 0.00000E+00 5.00000E-01
 -1       101 1.60000E+02 3.00000E+01 5.00000E-01
 -1       102 1.50000E+02 0.00000E+00 1.00000E+00
 -1       103 1.60000E+02 1.50000E+01 1.00000E+00
 -1       104 1.50000E+02 3.00000E+01 1.00000E+00
 -1       105 1.80000E+02 0.00000E+00 0.00000E+00
 -1       106 1.80000E+02 3.00000E+01 0.00000E+00
 -1       107 1.80000E+02 0.00000E+00 1.00000E+00
 -1       108 1.80000E+02 3.00000E+01 1.00000E+00
 -1       109 1.70000E+02 0.00000E+00 0.00000E+00
 -1       110 1.80000E+02 1.50000E+01 0.00000E+00
 -1       111 1.70000E+02 3.00000E+01 0.00000E+00
 -1       112 1.80000E+02 0.00000E+00 5.00000E-01
 -1       113 1.80000E+02 3.00000E+01 5.00000E-01
 -1       114 1.70000E+02 0.00000E+00 1.00000E+00
 -1       115 1.80000E+02 1.50000E+01 1.00000E+00
 -1       116 1.70000E+02 3.00000E+01 1.00000E+00
 -1       117 2.00000E+02 0.00000E+00 0.00000E+00
 -1       118 2.00000E+02 3.00000E+01 0.00000E+00
 -1       119 2.00000E+02 0.00000E+00 1.00000E+00
 -1       120 2.00000E+02 3.00000E+01 1.00000E+00
 -1       121 1.90000E+02 0.00000E+00 0.00000E+00
 -1       122 2.00000E+02 1.50000E+01 0.00000E+00
 -1       123 1.90000E+02 3.00000E+01 0.00000E+00
 -1       124 2.00000E+02 0.00000E+00 5.00000E-01
 -1       125 2.00000E+02 3.00000E+01 5.00000E-01
 -1       126 1.90000E+02 0.00000E+00 1.00000E+00
 -1       127 2.00000E+02 1.50000E+01 1.00000E+00
 -1       128 1.90000E+02 3.00000E+01 1.00000E+00
 -1       129 2.20000E+02 0.00000E+00 0.00000E+00
 -1       130 2.20000E+02 3.00000E+01 0.00000E+00
 -1       131 2.20000E+02 0.00000E+00 1.00000E+00
 -1       132 2.20000E+02 3.00000E+01 1.00000E+00
 -1       133 2.10000E+02 0.00000E+00 0.00000E+00
 -1       134 2.20000E+02 1.50000E+01 0.00000E+00
 -1       135 2.10000E+02 3.00000E+01 0.00000E+00
 -1       136 2.20000E+02 0.00000E+00 5.00000E-01
 -1       137 2.20000E+02 3.00000E+01 5.00000E-01
 -1       138 2.10000E+02 0.00000E+00 1.00000E+00
 -1       139 2.20000E+02 1.50000E+01 1.00000E+00
 -1       140 2.10000E+02 3.00000E+01 1.00000E+00
 -1       141 2.40000E+02 0.00000E+00 0.00000E+00
 -1       142 2.40000E+02 3.00000E+01 0.00000E+00
 -1       143 2.40000E+02 0.00000E+00 1.00000E+00
 -1       144 2.40000E+02 3.00000E+01 1.00000E+00
 -1       145 2.30000E+02 0.00000E+00 0.00000E+00
 -1       146 2.40000E+02 1.50000E+01 0.00000E+00
 -1       147 2.30000E+02 3.00000E+01 0.00000E+00
 -1       148 2.40000E+02 0.00000E+00 5.00000E-01
 -1       149 2.40000E+02 3.00000E+01 5.00000E-01
 -1       150 2.30000E+02 0.00000E+00 1.00000E+00
 -1       151 2.40000E+02 1.50000E+01 1.00000E+00
 -1       152 2.30000E+02 3.00000E+01 1.00000E+00
 -1       153 2.60000E+02 0.00000E+00 0.00000E+00
 -1       154 2.60000E+02 3.00000E+01 0.00000E+00
 -1       155 2.60000E+02 0.00000E+00 1.00000E+00
 -1       156 2.60000E+02 3.00000E+01 1.00000E+00
 -1       157 2.50000E+02 0.00000E+00 0.00000E+00
 -1       158 2.60000E+02 1.50000E+01 0.00000E+00
 -1       159 2.50000E+02 3.00000E+01 0.00000E+00
 -1       160 2.60000E+02 0.00000E+00 5.00000E-01
 -1       161 2.60000E+02 3.00000E+01 5.00000E-01
 -1       162 2.50000E+02 0.00000E+00 1.00000E+00
 -1       163 2.60000E+02 1.50000E+01 1.00000E+00
 -1       164 2.50000E+02 3.00000E+01 1.00000E+00
 -1       165 2.80000E+02 0.00000E+00 0.00000E+00
 -1       166 2.80000E+02 3.00000E+01 0.00000E+00
 -1       167 2.80000E+02 0.00000E+00 1.00000E+00
 -1       168 2.80000E+02 3.00000E+01 1.00000E+00
 -1       169 2.70000E+02 0.00000E+00 0.00000E+00
 -1       170 2.80000E+02 1.50000E+01 0.00000E+00
 -1       171 2.70000E+02 3.00000E+01 0.00000E+00
 -1       172 2.80000E+02 0.00000E+00 5.00000E-01
 -1       173 2.80000E+02 3.00000E+01 5.00000E-01
 -1       174 2.70000E+02 0.00000E+00 1.00000E+00
 -1       175 2.80000E+02 1.50000E+01 1.00000E+00
 -1       176 2.70000E+02 3.00000E+01 1.00000E+00
 -1       177 3.00000E+02 0.00000E+00 0.00000E+00
 -1       178 3.00000E+02 3.00000E+01 0.00000E+00
 -1       179 3.00000E+02 0.00000E+00 1.00000E+00
 -1       180 3.00000E+02 3.00000E+01 1.00000E+00
 -1       181 2.90000E+02 0.00000E+00 0.00000E+00
 -1       182 3.00000E+02 1.50000E+01 0.00000E+00
 -1       183 2.90000E+02 3.00000E+01 0.00000E+00
 -1       184 3.00000E+02 0.00000E+00 5.00000E-01
 -1       185 3.00000E+02 3.00000E+01 5.00000E-01
 -1       186 2.90000E+02 0.00000E+00 1.00000E+00
 -1       187 3.00000E+02 1.50000E+01 1.00000E+00
 -1       188 2.90000E+02 3.00000E+01 1.00000E+00
 -3
    3C                            15                                     1
 -1         1    4    0    1
 -2         1         2         3         4         5         6         7         8         9        10
 -2        11        12        13        14        15        16        17        18        19        20
 -1         2    4    0    1
 -2         4         3        21        22         8         7        23        24        11        25
 -2        26        27        16        15        28        29        19        30        31        32
 -1         3    4    0    1
 -2        22        21        33        34        24        23        35        36        26        37
 -2        38        39        29        28        40        41        31        42        43        44
 -1         4    4    0    1
 -2        34        33        45        46        36        35        47        48        38        49
 -2        50        51        41        40        52        53        43        54        55        56
 -1         5    4    0    1
 -2        46        45        57        58        48        47        59        60        50        61
 -2        62        63        53        52        64        65        55        66        67        68
 -1         6    4    0    1
 -2        58        57        69        70        60        59        71        72        62        73
 -2        74        75        65        64        76        77        67        78        79        80
 -1         7    4    0    1
 -2        70        69        81        82        72        71        83        84        74        85
 -2        86        87        77        76        88        89        79        90        91        92
 -1         8    4    0    1
 -2        82        81        93        94        84        83        95        96        86        97
 -2        98        99        89        88       100       101        91       102       103       104
 -1         9    4    0    1
 -2        94        93       105       106        96        95       107       108        98       109
 -2       110       111       101       100       112       113       103       114       115       116
 -1        10    4    0    1
 -2       106       105       117       118       108       107       119       120       110       121
 -2       122       123       113       112       124       125       115       126       127       128
 -1        11    4    0    1
 -2       118       117       129       130       120       119       131       132       122       133
 -2       134       135       125       124       136       137       127       138       139       140
 -1        12    4    0    1
 -2       130       129       141       142       132       131       143       144       134       145
 -2       146       147       137       136       148       149       139       150       151       152
 -1        13    4    0    1
 -2       142       141       153       154       144       143       155       156       146       157
 -2       158       159       149       148       160       161       151       162       163       164
 -1        14    4    0    1
 -2       154       153       165       166       156       155       167       168       158       169
 -2       170       171       161       160       172       173       163       174       175       176
 -1        15    4    0    1
 -2       166       165       177       178       168       167       179       180       170       181
 -2       182       183       173       172       184       185       175       186       187       188
 -3
 9999
