# vtk DataFile Version 3.0

ASCII
DATASET UNSTRUCTURED_GRID

POINTS 8 double
	 0.00000000E+00	 0.00000000E+00	 0.00000000E+00
	 1.00000000E+00	 0.00000000E+00	 0.00000000E+00
	 1.00000000E+00	 1.00000000E+00	 0.00000000E+00
	 0.00000000E+00	 1.00000000E+00	 0.00000000E+00
	 0.00000000E+00	 0.00000000E+00	 1.00000000E+00
	 1.00000000E+00	 0.00000000E+00	 1.00000000E+00
	 1.00000000E+00	 1.00000000E+00	 1.00000000E+00
	 0.00000000E+00	 1.00000000E+00	 1.00000000E+00

CELLS 1 9
	8 0 1 2 3 4 5 6 7 

CELL_TYPES 1
	12

POINT_DATA 8
FIELD U 1
	U 3 8 double
		 5.00000000E-01	 0.00000000E+00	 0.00000000E+00
		 5.00000000E-01	 0.00000000E+00	 0.00000000E+00
		 5.00000000E-01	 0.00000000E+00	 0.00000000E+00
		 5.00000000E-01	 0.00000000E+00	 0.00000000E+00
		 5.00000000E-01	 0.00000000E+00	 0.00000000E+00
		 5.00000000E-01	 0.00000000E+00	 0.00000000E+00
		 5.00000000E-01	 0.00000000E+00	 0.00000000E+00
		 5.00000000E-01	 0.00000000E+00	 0.00000000E+00
FIELD VELO 1
	VELO 3 8 double
		 1.00000000E+00	 0.00000000E+00	 0.00000000E+00
		 1.00000000E+00	 0.00000000E+00	 0.00000000E+00
		 1.00000000E+00	 0.00000000E+00	 0.00000000E+00
		 1.00000000E+00	 0.00000000E+00	 0.00000000E+00
		 1.00000000E+00	 0.00000000E+00	 0.00000000E+00
		 1.00000000E+00	 0.00000000E+00	 0.00000000E+00
		 1.00000000E+00	 0.00000000E+00	 0.00000000E+00
		 1.00000000E+00	 0.00000000E+00	 0.00000000E+00
