# vtk DataFile Version 3.0

ASCII
DATASET UNSTRUCTURED_GRID

POINTS 416 double
	-5.00000000E-03	-2.50000000E-01	 5.00000000E-03
	-5.00000000E-03	-2.50000000E-01	 0.00000000E+00
	-5.00000000E-03	-2.50000000E-01	-5.00000000E-03
	-5.00000000E-03	 2.50000000E-01	 5.00000000E-03
	-5.00000000E-03	 2.50000000E-01	 0.00000000E+00
	-5.00000000E-03	 2.50000000E-01	-5.00000000E-03
	 5.00000000E-03	-2.50000000E-01	 5.00000000E-03
	 5.00000000E-03	-2.50000000E-01	 0.00000000E+00
	 5.00000000E-03	-2.50000000E-01	-5.00000000E-03
	 5.00000000E-03	 2.50000000E-01	 5.00000000E-03
	 5.00000000E-03	 2.50000000E-01	 0.00000000E+00
	 5.00000000E-03	 2.50000000E-01	-5.00000000E-03
	-5.00000000E-03	-2.35294000E-01	 5.00000000E-03
	-5.00000000E-03	-2.35294000E-01	 0.00000000E+00
	-5.00000000E-03	-2.35294000E-01	-5.00000000E-03
	-5.00000000E-03	-2.20588000E-01	 5.00000000E-03
	-5.00000000E-03	-2.20588000E-01	 0.00000000E+00
	-5.00000000E-03	-2.20588000E-01	-5.00000000E-03
	-5.00000000E-03	-2.05882000E-01	 5.00000000E-03
	-5.00000000E-03	-2.05882000E-01	 0.00000000E+00
	-5.00000000E-03	-2.05882000E-01	-5.00000000E-03
	-5.00000000E-03	-1.91177000E-01	 5.00000000E-03
	-5.00000000E-03	-1.91177000E-01	 0.00000000E+00
	-5.00000000E-03	-1.91177000E-01	-5.00000000E-03
	-5.00000000E-03	-1.76471000E-01	 5.00000000E-03
	-5.00000000E-03	-1.76471000E-01	 0.00000000E+00
	-5.00000000E-03	-1.76471000E-01	-5.00000000E-03
	-5.00000000E-03	-1.61765000E-01	 5.00000000E-03
	-5.00000000E-03	-1.61765000E-01	 0.00000000E+00
	-5.00000000E-03	-1.61765000E-01	-5.00000000E-03
	-5.00000000E-03	-1.47059000E-01	 5.00000000E-03
	-5.00000000E-03	-1.47059000E-01	 0.00000000E+00
	-5.00000000E-03	-1.47059000E-01	-5.00000000E-03
	-5.00000000E-03	-1.32353000E-01	 5.00000000E-03
	-5.00000000E-03	-1.32353000E-01	 0.00000000E+00
	-5.00000000E-03	-1.32353000E-01	-5.00000000E-03
	-5.00000000E-03	-1.17647000E-01	 5.00000000E-03
	-5.00000000E-03	-1.17647000E-01	 0.00000000E+00
	-5.00000000E-03	-1.17647000E-01	-5.00000000E-03
	-5.00000000E-03	-1.02941000E-01	 5.00000000E-03
	-5.00000000E-03	-1.02941000E-01	 0.00000000E+00
	-5.00000000E-03	-1.02941000E-01	-5.00000000E-03
	-5.00000000E-03	-8.82353000E-02	 5.00000000E-03
	-5.00000000E-03	-8.82353000E-02	 0.00000000E+00
	-5.00000000E-03	-8.82353000E-02	-5.00000000E-03
	-5.00000000E-03	-7.35294000E-02	 5.00000000E-03
	-5.00000000E-03	-7.35294000E-02	 0.00000000E+00
	-5.00000000E-03	-7.35294000E-02	-5.00000000E-03
	-5.00000000E-03	-5.88235000E-02	 5.00000000E-03
	-5.00000000E-03	-5.88235000E-02	 0.00000000E+00
	-5.00000000E-03	-5.88235000E-02	-5.00000000E-03
	-5.00000000E-03	-4.41176000E-02	 5.00000000E-03
	-5.00000000E-03	-4.41176000E-02	 0.00000000E+00
	-5.00000000E-03	-4.41176000E-02	-5.00000000E-03
	-5.00000000E-03	-2.94118000E-02	 5.00000000E-03
	-5.00000000E-03	-2.94118000E-02	 0.00000000E+00
	-5.00000000E-03	-2.94118000E-02	-5.00000000E-03
	-5.00000000E-03	-1.47059000E-02	 5.00000000E-03
	-5.00000000E-03	-1.47059000E-02	 0.00000000E+00
	-5.00000000E-03	-1.47059000E-02	-5.00000000E-03
	-5.00000000E-03	 4.51028000E-17	 5.00000000E-03
	-5.00000000E-03	 4.51028000E-17	 0.00000000E+00
	-5.00000000E-03	 4.51028000E-17	-5.00000000E-03
	-5.00000000E-03	 1.47059000E-02	 5.00000000E-03
	-5.00000000E-03	 1.47059000E-02	 0.00000000E+00
	-5.00000000E-03	 1.47059000E-02	-5.00000000E-03
	-5.00000000E-03	 2.94118000E-02	 5.00000000E-03
	-5.00000000E-03	 2.94118000E-02	 0.00000000E+00
	-5.00000000E-03	 2.94118000E-02	-5.00000000E-03
	-5.00000000E-03	 4.41176000E-02	 5.00000000E-03
	-5.00000000E-03	 4.41176000E-02	 0.00000000E+00
	-5.00000000E-03	 4.41176000E-02	-5.00000000E-03
	-5.00000000E-03	 5.88235000E-02	 5.00000000E-03
	-5.00000000E-03	 5.88235000E-02	 0.00000000E+00
	-5.00000000E-03	 5.88235000E-02	-5.00000000E-03
	-5.00000000E-03	 7.35294000E-02	 5.00000000E-03
	-5.00000000E-03	 7.35294000E-02	 0.00000000E+00
	-5.00000000E-03	 7.35294000E-02	-5.00000000E-03
	-5.00000000E-03	 8.82353000E-02	 5.00000000E-03
	-5.00000000E-03	 8.82353000E-02	 0.00000000E+00
	-5.00000000E-03	 8.82353000E-02	-5.00000000E-03
	-5.00000000E-03	 1.02941000E-01	 5.00000000E-03
	-5.00000000E-03	 1.02941000E-01	 0.00000000E+00
	-5.00000000E-03	 1.02941000E-01	-5.00000000E-03
	-5.00000000E-03	 1.17647000E-01	 5.00000000E-03
	-5.00000000E-03	 1.17647000E-01	 0.00000000E+00
	-5.00000000E-03	 1.17647000E-01	-5.00000000E-03
	-5.00000000E-03	 1.32353000E-01	 5.00000000E-03
	-5.00000000E-03	 1.32353000E-01	 0.00000000E+00
	-5.00000000E-03	 1.32353000E-01	-5.00000000E-03
	-5.00000000E-03	 1.47059000E-01	 5.00000000E-03
	-5.00000000E-03	 1.47059000E-01	 0.00000000E+00
	-5.00000000E-03	 1.47059000E-01	-5.00000000E-03
	-5.00000000E-03	 1.61765000E-01	 5.00000000E-03
	-5.00000000E-03	 1.61765000E-01	 0.00000000E+00
	-5.00000000E-03	 1.61765000E-01	-5.00000000E-03
	-5.00000000E-03	 1.76471000E-01	 5.00000000E-03
	-5.00000000E-03	 1.76471000E-01	 0.00000000E+00
	-5.00000000E-03	 1.76471000E-01	-5.00000000E-03
	-5.00000000E-03	 1.91177000E-01	 5.00000000E-03
	-5.00000000E-03	 1.91177000E-01	 0.00000000E+00
	-5.00000000E-03	 1.91177000E-01	-5.00000000E-03
	-5.00000000E-03	 2.05882000E-01	 5.00000000E-03
	-5.00000000E-03	 2.05882000E-01	 0.00000000E+00
	-5.00000000E-03	 2.05882000E-01	-5.00000000E-03
	-5.00000000E-03	 2.20588000E-01	 5.00000000E-03
	-5.00000000E-03	 2.20588000E-01	 0.00000000E+00
	-5.00000000E-03	 2.20588000E-01	-5.00000000E-03
	-5.00000000E-03	 2.35294000E-01	 5.00000000E-03
	-5.00000000E-03	 2.35294000E-01	 0.00000000E+00
	-5.00000000E-03	 2.35294000E-01	-5.00000000E-03
	 5.00000000E-03	-2.35294000E-01	 5.00000000E-03
	 5.00000000E-03	-2.35294000E-01	 0.00000000E+00
	 5.00000000E-03	-2.35294000E-01	-5.00000000E-03
	 5.00000000E-03	-2.20588000E-01	 5.00000000E-03
	 5.00000000E-03	-2.20588000E-01	 0.00000000E+00
	 5.00000000E-03	-2.20588000E-01	-5.00000000E-03
	 5.00000000E-03	-2.05882000E-01	 5.00000000E-03
	 5.00000000E-03	-2.05882000E-01	 0.00000000E+00
	 5.00000000E-03	-2.05882000E-01	-5.00000000E-03
	 5.00000000E-03	-1.91177000E-01	 5.00000000E-03
	 5.00000000E-03	-1.91177000E-01	 0.00000000E+00
	 5.00000000E-03	-1.91177000E-01	-5.00000000E-03
	 5.00000000E-03	-1.76471000E-01	 5.00000000E-03
	 5.00000000E-03	-1.76471000E-01	 0.00000000E+00
	 5.00000000E-03	-1.76471000E-01	-5.00000000E-03
	 5.00000000E-03	-1.61765000E-01	 5.00000000E-03
	 5.00000000E-03	-1.61765000E-01	 0.00000000E+00
	 5.00000000E-03	-1.61765000E-01	-5.00000000E-03
	 5.00000000E-03	-1.47059000E-01	 5.00000000E-03
	 5.00000000E-03	-1.47059000E-01	 0.00000000E+00
	 5.00000000E-03	-1.47059000E-01	-5.00000000E-03
	 5.00000000E-03	-1.32353000E-01	 5.00000000E-03
	 5.00000000E-03	-1.32353000E-01	 0.00000000E+00
	 5.00000000E-03	-1.32353000E-01	-5.00000000E-03
	 5.00000000E-03	-1.17647000E-01	 5.00000000E-03
	 5.00000000E-03	-1.17647000E-01	 0.00000000E+00
	 5.00000000E-03	-1.17647000E-01	-5.00000000E-03
	 5.00000000E-03	-1.02941000E-01	 5.00000000E-03
	 5.00000000E-03	-1.02941000E-01	 0.00000000E+00
	 5.00000000E-03	-1.02941000E-01	-5.00000000E-03
	 5.00000000E-03	-8.82353000E-02	 5.00000000E-03
	 5.00000000E-03	-8.82353000E-02	 0.00000000E+00
	 5.00000000E-03	-8.82353000E-02	-5.00000000E-03
	 5.00000000E-03	-7.35294000E-02	 5.00000000E-03
	 5.00000000E-03	-7.35294000E-02	 0.00000000E+00
	 5.00000000E-03	-7.35294000E-02	-5.00000000E-03
	 5.00000000E-03	-5.88235000E-02	 5.00000000E-03
	 5.00000000E-03	-5.88235000E-02	 0.00000000E+00
	 5.00000000E-03	-5.88235000E-02	-5.00000000E-03
	 5.00000000E-03	-4.41176000E-02	 5.00000000E-03
	 5.00000000E-03	-4.41176000E-02	 0.00000000E+00
	 5.00000000E-03	-4.41176000E-02	-5.00000000E-03
	 5.00000000E-03	-2.94118000E-02	 5.00000000E-03
	 5.00000000E-03	-2.94118000E-02	 0.00000000E+00
	 5.00000000E-03	-2.94118000E-02	-5.00000000E-03
	 5.00000000E-03	-1.47059000E-02	 5.00000000E-03
	 5.00000000E-03	-1.47059000E-02	 0.00000000E+00
	 5.00000000E-03	-1.47059000E-02	-5.00000000E-03
	 5.00000000E-03	 4.51028000E-17	 5.00000000E-03
	 5.00000000E-03	 4.51028000E-17	 0.00000000E+00
	 5.00000000E-03	 4.51028000E-17	-5.00000000E-03
	 5.00000000E-03	 1.47059000E-02	 5.00000000E-03
	 5.00000000E-03	 1.47059000E-02	 0.00000000E+00
	 5.00000000E-03	 1.47059000E-02	-5.00000000E-03
	 5.00000000E-03	 2.94118000E-02	 5.00000000E-03
	 5.00000000E-03	 2.94118000E-02	 0.00000000E+00
	 5.00000000E-03	 2.94118000E-02	-5.00000000E-03
	 5.00000000E-03	 4.41176000E-02	 5.00000000E-03
	 5.00000000E-03	 4.41176000E-02	 0.00000000E+00
	 5.00000000E-03	 4.41176000E-02	-5.00000000E-03
	 5.00000000E-03	 5.88235000E-02	 5.00000000E-03
	 5.00000000E-03	 5.88235000E-02	 0.00000000E+00
	 5.00000000E-03	 5.88235000E-02	-5.00000000E-03
	 5.00000000E-03	 7.35294000E-02	 5.00000000E-03
	 5.00000000E-03	 7.35294000E-02	 0.00000000E+00
	 5.00000000E-03	 7.35294000E-02	-5.00000000E-03
	 5.00000000E-03	 8.82353000E-02	 5.00000000E-03
	 5.00000000E-03	 8.82353000E-02	 0.00000000E+00
	 5.00000000E-03	 8.82353000E-02	-5.00000000E-03
	 5.00000000E-03	 1.02941000E-01	 5.00000000E-03
	 5.00000000E-03	 1.02941000E-01	 0.00000000E+00
	 5.00000000E-03	 1.02941000E-01	-5.00000000E-03
	 5.00000000E-03	 1.17647000E-01	 5.00000000E-03
	 5.00000000E-03	 1.17647000E-01	 0.00000000E+00
	 5.00000000E-03	 1.17647000E-01	-5.00000000E-03
	 5.00000000E-03	 1.32353000E-01	 5.00000000E-03
	 5.00000000E-03	 1.32353000E-01	 0.00000000E+00
	 5.00000000E-03	 1.32353000E-01	-5.00000000E-03
	 5.00000000E-03	 1.47059000E-01	 5.00000000E-03
	 5.00000000E-03	 1.47059000E-01	 0.00000000E+00
	 5.00000000E-03	 1.47059000E-01	-5.00000000E-03
	 5.00000000E-03	 1.61765000E-01	 5.00000000E-03
	 5.00000000E-03	 1.61765000E-01	 0.00000000E+00
	 5.00000000E-03	 1.61765000E-01	-5.00000000E-03
	 5.00000000E-03	 1.76471000E-01	 5.00000000E-03
	 5.00000000E-03	 1.76471000E-01	 0.00000000E+00
	 5.00000000E-03	 1.76471000E-01	-5.00000000E-03
	 5.00000000E-03	 1.91177000E-01	 5.00000000E-03
	 5.00000000E-03	 1.91177000E-01	 0.00000000E+00
	 5.00000000E-03	 1.91177000E-01	-5.00000000E-03
	 5.00000000E-03	 2.05882000E-01	 5.00000000E-03
[...]
POINT_DATA 416
FIELD U 1
	U 3 416 double
		 4.01703000E-06	 0.00000000E+00	 0.00000000E+00
		 0.00000000E+00	 0.00000000E+00	 0.00000000E+00
		-4.01703000E-06	 0.00000000E+00	 0.00000000E+00
		-5.07469000E-08	 7.49978000E-04	-5.00000000E-02
		 0.00000000E+00	 0.00000000E+00	-5.00000000E-02
		 5.07266000E-08	-7.49978000E-04	-5.00000000E-02
		-4.01703000E-06	 0.00000000E+00	 0.00000000E+00
		 0.00000000E+00	 0.00000000E+00	 0.00000000E+00
		 4.01703000E-06	 0.00000000E+00	 0.00000000E+00
		 5.07266000E-08	 7.49978000E-04	-5.00000000E-02
		 0.00000000E+00	 0.00000000E+00	-5.00000000E-02
		-5.07469000E-08	-7.49978000E-04	-5.00000000E-02
		 4.10206000E-06	 4.17310000E-05	-6.07792000E-05
		 0.00000000E+00	 0.00000000E+00	-5.81852000E-05
		-4.10206000E-06	-4.17310000E-05	-6.07792000E-05
		 3.96977000E-06	 8.46458000E-05	-2.47653000E-04
		 0.00000000E+00	 0.00000000E+00	-2.45808000E-04
		-3.96977000E-06	-8.46458000E-05	-2.47653000E-04
		 3.84570000E-06	 1.25554000E-04	-5.57373000E-04
		 0.00000000E+00	 0.00000000E+00	-5.55413000E-04
		-3.84570000E-06	-1.25554000E-04	-5.57373000E-04
		 3.72121000E-06	 1.65338000E-04	-9.85872000E-04
		 0.00000000E+00	 0.00000000E+00	-9.84021000E-04
		-3.72121000E-06	-1.65338000E-04	-9.85872000E-04
		 3.59592000E-06	 2.03757000E-04	-1.52935000E-03
		 0.00000000E+00	 0.00000000E+00	-1.52755000E-03
		-3.59592000E-06	-2.03757000E-04	-1.52935000E-03
		 3.47104000E-06	 2.40876000E-04	-2.18391000E-03
		 0.00000000E+00	 0.00000000E+00	-2.18218000E-03
		-3.47104000E-06	-2.40876000E-04	-2.18391000E-03
		 3.34609000E-06	 2.76679000E-04	-2.94572000E-03
		 0.00000000E+00	 0.00000000E+00	-2.94404000E-03
		-3.34609000E-06	-2.76679000E-04	-2.94572000E-03
		 3.22124000E-06	 3.11172000E-04	-3.81090000E-03
		 0.00000000E+00	 0.00000000E+00	-3.80929000E-03
		-3.22124000E-06	-3.11172000E-04	-3.81090000E-03
		 3.09647000E-06	 3.44353000E-04	-4.77559000E-03
		 0.00000000E+00	 0.00000000E+00	-4.77404000E-03
		-3.09648000E-06	-3.44353000E-04	-4.77559000E-03
		 2.97179000E-06	 3.76224000E-04	-5.83596000E-03
		 0.00000000E+00	 0.00000000E+00	-5.83447000E-03
		-2.97179000E-06	-3.76224000E-04	-5.83596000E-03
		 2.84716000E-06	 4.06786000E-04	-6.98813000E-03
		 0.00000000E+00	 0.00000000E+00	-6.98671000E-03
		-2.84716000E-06	-4.06786000E-04	-6.98813000E-03
		 2.72260000E-06	 4.36039000E-04	-8.22827000E-03
		 0.00000000E+00	 0.00000000E+00	-8.22691000E-03
		-2.72260000E-06	-4.36039000E-04	-8.22827000E-03
		 2.59811000E-06	 4.63984000E-04	-9.55252000E-03
		 0.00000000E+00	 0.00000000E+00	-9.55123000E-03
		-2.59811000E-06	-4.63984000E-04	-9.55252000E-03
		 2.47369000E-06	 4.90621000E-04	-1.09570000E-02
		 0.00000000E+00	 0.00000000E+00	-1.09558000E-02
		-2.47369000E-06	-4.90621000E-04	-1.09570000E-02
		 2.34934000E-06	 5.15952000E-04	-1.24380000E-02
		 0.00000000E+00	 0.00000000E+00	-1.24368000E-02
		-2.34934000E-06	-5.15952000E-04	-1.24380000E-02
		 2.22506000E-06	 5.39977000E-04	-1.39915000E-02
		 0.00000000E+00	 0.00000000E+00	-1.39904000E-02
		-2.22506000E-06	-5.39977000E-04	-1.39915000E-02
		 2.10085000E-06	 5.62697000E-04	-1.56138000E-02
		 0.00000000E+00	 0.00000000E+00	-1.56127000E-02
		-2.10086000E-06	-5.62697000E-04	-1.56138000E-02
		 1.97671000E-06	 5.84113000E-04	-1.73010000E-02
		 0.00000000E+00	 0.00000000E+00	-1.73000000E-02
		-1.97672000E-06	-5.84113000E-04	-1.73010000E-02
		 1.85264000E-06	 6.04225000E-04	-1.90492000E-02
		 0.00000000E+00	 0.00000000E+00	-1.90483000E-02
		-1.85265000E-06	-6.04225000E-04	-1.90492000E-02
		 1.72864000E-06	 6.23034000E-04	-2.08547000E-02
		 0.00000000E+00	 0.00000000E+00	-2.08538000E-02
		-1.72865000E-06	-6.23034000E-04	-2.08547000E-02
		 1.60471000E-06	 6.40542000E-04	-2.27136000E-02
		 0.00000000E+00	 0.00000000E+00	-2.27128000E-02
		-1.60472000E-06	-6.40542000E-04	-2.27136000E-02
		 1.48085000E-06	 6.56747000E-04	-2.46220000E-02
		 0.00000000E+00	 0.00000000E+00	-2.46213000E-02
		-1.48086000E-06	-6.56747000E-04	-2.46220000E-02
		 1.35706000E-06	 6.71652000E-04	-2.65762000E-02
		 0.00000000E+00	 0.00000000E+00	-2.65756000E-02
		-1.35707000E-06	-6.71652000E-04	-2.65762000E-02
		 1.23334000E-06	 6.85257000E-04	-2.85724000E-02
		 0.00000000E+00	 0.00000000E+00	-2.85718000E-02
		-1.23336000E-06	-6.85257000E-04	-2.85724000E-02
		 1.10969000E-06	 6.97563000E-04	-3.06066000E-02
		 0.00000000E+00	 0.00000000E+00	-3.06061000E-02
		-1.10970000E-06	-6.97563000E-04	-3.06066000E-02
		 9.86108000E-07	 7.08571000E-04	-3.26752000E-02
		 0.00000000E+00	 0.00000000E+00	-3.26747000E-02
		-9.86122000E-07	-7.08571000E-04	-3.26752000E-02
		 8.62604000E-07	 7.18280000E-04	-3.47742000E-02
		 0.00000000E+00	 0.00000000E+00	-3.47737000E-02
		-8.62618000E-07	-7.18280000E-04	-3.47742000E-02
		 7.39159000E-07	 7.26693000E-04	-3.68998000E-02
		 0.00000000E+00	 0.00000000E+00	-3.68994000E-02
		-7.39174000E-07	-7.26693000E-04	-3.68998000E-02
		 6.15827000E-07	 7.33809000E-04	-3.90483000E-02
		 0.00000000E+00	 0.00000000E+00	-3.90480000E-02
		-6.15843000E-07	-7.33809000E-04	-3.90483000E-02
		 4.92336000E-07	 7.39630000E-04	-4.12158000E-02
		 0.00000000E+00	 0.00000000E+00	-4.12156000E-02
		-4.92353000E-07	-7.39630000E-04	-4.12158000E-02
		 3.69958000E-07	 7.44156000E-04	-4.33985000E-02
		 0.00000000E+00	 0.00000000E+00	-4.33983000E-02
		-3.69975000E-07	-7.44156000E-04	-4.33985000E-02
		 2.43118000E-07	 7.47389000E-04	-4.55926000E-02
		 0.00000000E+00	 0.00000000E+00	-4.55925000E-02
		-2.43136000E-07	-7.47389000E-04	-4.55926000E-02
		 1.37089000E-07	 7.49324000E-04	-4.77944000E-02
		 0.00000000E+00	 0.00000000E+00	-4.77943000E-02
		-1.37109000E-07	-7.49324000E-04	-4.77944000E-02
		-4.10206000E-06	 4.17310000E-05	-6.07792000E-05
		 0.00000000E+00	 0.00000000E+00	-5.81852000E-05
		 4.10206000E-06	-4.17310000E-05	-6.07792000E-05
		-3.96977000E-06	 8.46458000E-05	-2.47653000E-04
		 0.00000000E+00	 0.00000000E+00	-2.45808000E-04
		 3.96977000E-06	-8.46458000E-05	-2.47653000E-04
		-3.84570000E-06	 1.25554000E-04	-5.57373000E-04
		 0.00000000E+00	 0.00000000E+00	-5.55413000E-04
		 3.84570000E-06	-1.25554000E-04	-5.57373000E-04
		-3.72121000E-06	 1.65338000E-04	-9.85872000E-04
		 0.00000000E+00	 0.00000000E+00	-9.84021000E-04
		 3.72121000E-06	-1.65338000E-04	-9.85872000E-04
		-3.59592000E-06	 2.03757000E-04	-1.52935000E-03
		 0.00000000E+00	 0.00000000E+00	-1.52755000E-03
		 3.59592000E-06	-2.03757000E-04	-1.52935000E-03
		-3.47104000E-06	 2.40876000E-04	-2.18391000E-03
		 0.00000000E+00	 0.00000000E+00	-2.18218000E-03
		 3.47104000E-06	-2.40876000E-04	-2.18391000E-03
		-3.34609000E-06	 2.76679000E-04	-2.94572000E-03
		 0.00000000E+00	 0.00000000E+00	-2.94404000E-03
		 3.34609000E-06	-2.76679000E-04	-2.94572000E-03
		-3.22124000E-06	 3.11172000E-04	-3.81090000E-03
		 0.00000000E+00	 0.00000000E+00	-3.80929000E-03
		 3.22124000E-06	-3.11172000E-04	-3.81090000E-03
		-3.09648000E-06	 3.44353000E-04	-4.77559000E-03
		 0.00000000E+00	 0.00000000E+00	-4.77404000E-03
		 3.09647000E-06	-3.44353000E-04	-4.77559000E-03
		-2.97179000E-06	 3.76224000E-04	-5.83596000E-03
		 0.00000000E+00	 0.00000000E+00	-5.83447000E-03
		 2.97179000E-06	-3.76224000E-04	-5.83596000E-03
		-2.84716000E-06	 4.06786000E-04	-6.98813000E-03
		 0.00000000E+00	 0.00000000E+00	-6.98671000E-03
		 2.84716000E-06	-4.06786000E-04	-6.98813000E-03
		-2.72260000E-06	 4.36039000E-04	-8.22827000E-03
		 0.00000000E+00	 0.00000000E+00	-8.22691000E-03
		 2.72260000E-06	-4.36039000E-04	-8.22827000E-03
		-2.59811000E-06	 4.63984000E-04	-9.55252000E-03
		 0.00000000E+00	 0.00000000E+00	-9.55123000E-03
		 2.59811000E-06	-4.63984000E-04	-9.55252000E-03
		-2.47369000E-06	 4.90621000E-04	-1.09570000E-02
		 0.00000000E+00	 0.00000000E+00	-1.09558000E-02
		 2.47369000E-06	-4.90621000E-04	-1.09570000E-02
		-2.34934000E-06	 5.15952000E-04	-1.24380000E-02
		 0.00000000E+00	 0.00000000E+00	-1.24368000E-02
		 2.34934000E-06	-5.15952000E-04	-1.24380000E-02
		-2.22506000E-06	 5.39977000E-04	-1.39915000E-02
		 0.00000000E+00	 0.00000000E+00	-1.39904000E-02
		 2.22506000E-06	-5.39977000E-04	-1.39915000E-02
		-2.10086000E-06	 5.62697000E-04	-1.56138000E-02
		 0.00000000E+00	 0.00000000E+00	-1.56127000E-02
		 2.10085000E-06	-5.62697000E-04	-1.56138000E-02
		-1.97672000E-06	 5.84113000E-04	-1.73010000E-02
		 0.00000000E+00	 0.00000000E+00	-1.73000000E-02
		 1.97671000E-06	-5.84113000E-04	-1.73010000E-02
		-1.85265000E-06	 6.04225000E-04	-1.90492000E-02
		 0.00000000E+00	 0.00000000E+00	-1.90483000E-02
		 1.85264000E-06	-6.04225000E-04	-1.90492000E-02
		-1.72865000E-06	 6.23034000E-04	-2.08547000E-02
		 0.00000000E+00	 0.00000000E+00	-2.08538000E-02
		 1.72864000E-06	-6.23034000E-04	-2.08547000E-02
		-1.60472000E-06	 6.40542000E-04	-2.27136000E-02
		 0.00000000E+00	 0.00000000E+00	-2.27128000E-02
		 1.60471000E-06	-6.40542000E-04	-2.27136000E-02
		-1.48086000E-06	 6.56747000E-04	-2.46220000E-02
		 0.00000000E+00	 0.00000000E+00	-2.46213000E-02
		 1.48085000E-06	-6.56747000E-04	-2.46220000E-02
		-1.35707000E-06	 6.71652000E-04	-2.65762000E-02
		 0.00000000E+00	 0.00000000E+00	-2.65756000E-02
		 1.35706000E-06	-6.71652000E-04	-2.65762000E-02
		-1.23336000E-06	 6.85257000E-04	-2.85724000E-02
		 0.00000000E+00	 0.00000000E+00	-2.85718000E-02
		 1.23334000E-06	-6.85257000E-04	-2.85724000E-02
		-1.10970000E-06	 6.97563000E-04	-3.06066000E-02
		 0.00000000E+00	 0.00000000E+00	-3.06061000E-02
		 1.10969000E-06	-6.97563000E-04	-3.06066000E-02
		-9.86122000E-07	 7.08571000E-04	-3.26752000E-02
		 0.00000000E+00	 0.00000000E+00	-3.26747000E-02
		 9.86108000E-07	-7.08571000E-04	-3.26752000E-02
		-8.62618000E-07	 7.18280000E-04	-3.47742000E-02
		 0.00000000E+00	 0.00000000E+00	-3.47737000E-02
		 8.62604000E-07	-7.18280000E-04	-3.47742000E-02
		-7.39174000E-07	 7.26693000E-04	-3.68998000E-02
		 0.00000000E+00	 0.00000000E+00	-3.68994000E-02
		 7.39159000E-07	-7.26693000E-04	-3.68998000E-02
		-6.15843000E-07	 7.33809000E-04	-3.90483000E-02
		 0.00000000E+00	 0.00000000E+00	-3.90480000E-02
		 6.15827000E-07	-7.33809000E-04	-3.90483000E-02
		-4.92353000E-07	 7.39630000E-04	-4.12158000E-02
		 0.00000000E+00	 0.00000000E+00	-4.12156000E-02
		 4.92336000E-07	-7.39630000E-04	-4.12158000E-02
		-3.69975000E-07	 7.44156000E-04	-4.33985000E-02
		 0.00000000E+00	 0.00000000E+00	-4.33983000E-02
		 3.69958000E-07	-7.44156000E-04	-4.33985000E-02
		-2.43137000E-07	 7.47389000E-04	-4.55926000E-02
		 0.00000000E+00	 0.00000000E+00	-4.55925000E-02
		 2.43118000E-07	-7.47389000E-04	-4.55926000E-02
		-1.37109000E-07	 7.49324000E-04	-4.77944000E-02
		 0.00000000E+00	 0.00000000E+00	-4.77943000E-02
		 1.37089000E-07	-7.49324000E-04	-4.77944000E-02
		 4.06015000E-06	 2.03132000E-05	-1.50270000E-05
		-4.06015000E-06	-2.03132000E-05	-1.50270000E-05
		 4.04622000E-06	 6.35077000E-05	-1.38463000E-04
		-4.04622000E-06	-6.35077000E-05	-1.38463000E-04
		 3.90905000E-06	 1.05200000E-04	-3.87462000E-04
		-3.90905000E-06	-1.05200000E-04	-3.87462000E-04
		 3.78280000E-06	 1.45602000E-04	-7.57001000E-04
		-3.78280000E-06	-1.45602000E-04	-7.57001000E-04
		 3.65885000E-06	 1.84690000E-04	-1.24349000E-03
		-3.65885000E-06	-1.84690000E-04	-1.24349000E-03
		 3.53336000E-06	 2.22462000E-04	-1.84299000E-03
		-3.53336000E-06	-2.22462000E-04	-1.84299000E-03
		 3.40858000E-06	 2.58922000E-04	-2.55165000E-03
		-3.40858000E-06	-2.58922000E-04	-2.55165000E-03
		 3.28365000E-06	 2.94070000E-04	-3.36562000E-03
		-3.28366000E-06	-2.94070000E-04	-3.36562000E-03
		 3.15887000E-06	 3.27907000E-04	-4.28105000E-03
		-3.15887000E-06	-3.27907000E-04	-4.28105000E-03
		 3.03413000E-06	 3.60433000E-04	-5.29406000E-03
		-3.03413000E-06	-3.60433000E-04	-5.29406000E-03
		 2.90946000E-06	 3.91650000E-04	-6.40081000E-03
		-2.90947000E-06	-3.91650000E-04	-6.40081000E-03
		 2.78487000E-06	 4.21557000E-04	-7.59745000E-03
		-2.78487000E-06	-4.21557000E-04	-7.59745000E-03
		 2.66035000E-06	 4.50155000E-04	-8.88012000E-03
		-2.66035000E-06	-4.50155000E-04	-8.88012000E-03
		 2.53589000E-06	 4.77447000E-04	-1.02450000E-02
		-2.53590000E-06	-4.77447000E-04	-1.02450000E-02
		 2.41151000E-06	 5.03431000E-04	-1.16882000E-02
		-2.41151000E-06	-5.03431000E-04	-1.16882000E-02
		 2.28719000E-06	 5.28109000E-04	-1.32059000E-02
		-2.28720000E-06	-5.28109000E-04	-1.32059000E-02
		 2.16295000E-06	 5.51481000E-04	-1.47943000E-02
		-2.16295000E-06	-5.51481000E-04	-1.47943000E-02
		 2.03877000E-06	 5.73549000E-04	-1.64495000E-02
		-2.03878000E-06	-5.73549000E-04	-1.64495000E-02
		 1.91467000E-06	 5.94313000E-04	-1.81677000E-02
		-1.91468000E-06	-5.94313000E-04	-1.81677000E-02
		 1.79063000E-06	 6.13774000E-04	-1.99450000E-02
		-1.79064000E-06	-6.13774000E-04	-1.99450000E-02
		 1.66667000E-06	 6.31932000E-04	-2.17777000E-02
		-1.66668000E-06	-6.31932000E-04	-2.17777000E-02
		 1.54278000E-06	 6.48788000E-04	-2.36618000E-02
		-1.54278000E-06	-6.48788000E-04	-2.36618000E-02
		 1.41895000E-06	 6.64343000E-04	-2.55937000E-02
		-1.41896000E-06	-6.64343000E-04	-2.55937000E-02
		 1.29520000E-06	 6.78598000E-04	-2.75693000E-02
		-1.29521000E-06	-6.78598000E-04	-2.75693000E-02
		 1.17151000E-06	 6.91554000E-04	-2.95850000E-02
		-1.17152000E-06	-6.91554000E-04	-2.95850000E-02
		 1.04790000E-06	 7.03210000E-04	-3.16369000E-02
		-1.04791000E-06	-7.03210000E-04	-3.16369000E-02
		 9.24352000E-07	 7.13569000E-04	-3.37211000E-02
		-9.24365000E-07	-7.13569000E-04	-3.37211000E-02
		 8.00870000E-07	 7.22630000E-04	-3.58339000E-02
		-8.00885000E-07	-7.22630000E-04	-3.58339000E-02
		 6.77491000E-07	 7.30394000E-04	-3.79714000E-02
		-6.77506000E-07	-7.30394000E-04	-3.79714000E-02
		 5.54048000E-07	 7.36863000E-04	-4.01299000E-02
		-5.54065000E-07	-7.36863000E-04	-4.01299000E-02
		 4.31234000E-07	 7.42036000E-04	-4.23055000E-02
		-4.31252000E-07	-7.42036000E-04	-4.23055000E-02
		 3.06143000E-07	 7.45915000E-04	-4.44944000E-02
		-3.06161000E-07	-7.45915000E-04	-4.44944000E-02
		 1.90865000E-07	 7.48500000E-04	-4.66928000E-02
		-1.90884000E-07	-7.48500000E-04	-4.66928000E-02
		 3.47573000E-08	 7.49790000E-04	-4.88969000E-02
		-3.47772000E-08	-7.49790000E-04	-4.88969000E-02
		 0.00000000E+00	 0.00000000E+00	 0.00000000E+00
		 0.00000000E+00	 0.00000000E+00	 0.00000000E+00
		-4.06015000E-06	 2.03132000E-05	-1.50270000E-05
		 4.06015000E-06	-2.03132000E-05	-1.50270000E-05
		-4.04622000E-06	 6.35077000E-05	-1.38463000E-04
		 4.04622000E-06	-6.35077000E-05	-1.38463000E-04
		-3.90905000E-06	 1.05200000E-04	-3.87462000E-04
		 3.90905000E-06	-1.05200000E-04	-3.87462000E-04
		-3.78280000E-06	 1.45602000E-04	-7.57001000E-04
		 3.78280000E-06	-1.45602000E-04	-7.57001000E-04
		-3.65885000E-06	 1.84690000E-04	-1.24349000E-03
		 3.65885000E-06	-1.84690000E-04	-1.24349000E-03
		-3.53336000E-06	 2.22462000E-04	-1.84299000E-03
		 3.53336000E-06	-2.22462000E-04	-1.84299000E-03
		-3.40858000E-06	 2.58922000E-04	-2.55165000E-03
		 3.40858000E-06	-2.58922000E-04	-2.55165000E-03
		-3.28366000E-06	 2.94070000E-04	-3.36562000E-03
		 3.28365000E-06	-2.94070000E-04	-3.36562000E-03
		-3.15887000E-06	 3.27907000E-04	-4.28105000E-03
		 3.15887000E-06	-3.27907000E-04	-4.28105000E-03
		-3.03413000E-06	 3.60433000E-04	-5.29406000E-03
		 3.03413000E-06	-3.60433000E-04	-5.29406000E-03
		-2.90947000E-06	 3.91650000E-04	-6.40081000E-03
		 2.90946000E-06	-3.91650000E-04	-6.40081000E-03
		-2.78487000E-06	 4.21557000E-04	-7.59745000E-03
		 2.78487000E-06	-4.21557000E-04	-7.59745000E-03
		-2.66035000E-06	 4.50155000E-04	-8.88012000E-03
		 2.66035000E-06	-4.50155000E-04	-8.88012000E-03
		-2.53590000E-06	 4.77447000E-04	-1.02450000E-02
		 2.53589000E-06	-4.77447000E-04	-1.02450000E-02
		-2.41151000E-06	 5.03431000E-04	-1.16882000E-02
		 2.41151000E-06	-5.03431000E-04	-1.16882000E-02
		-2.28720000E-06	 5.28109000E-04	-1.32059000E-02
		 2.28719000E-06	-5.28109000E-04	-1.32059000E-02
		-2.16295000E-06	 5.51481000E-04	-1.47943000E-02
		 2.16295000E-06	-5.51481000E-04	-1.47943000E-02
		-2.03878000E-06	 5.73549000E-04	-1.64495000E-02
		 2.03877000E-06	-5.73549000E-04	-1.64495000E-02
		-1.91468000E-06	 5.94313000E-04	-1.81677000E-02
		 1.91467000E-06	-5.94313000E-04	-1.81677000E-02
		-1.79064000E-06	 6.13774000E-04	-1.99450000E-02
		 1.79063000E-06	-6.13774000E-04	-1.99450000E-02
		-1.66668000E-06	 6.31932000E-04	-2.17777000E-02
		 1.66667000E-06	-6.31932000E-04	-2.17777000E-02
		-1.54278000E-06	 6.48788000E-04	-2.36618000E-02
		 1.54278000E-06	-6.48788000E-04	-2.36618000E-02
		-1.41896000E-06	 6.64343000E-04	-2.55937000E-02
		 1.41895000E-06	-6.64343000E-04	-2.55937000E-02
		-1.29521000E-06	 6.78598000E-04	-2.75693000E-02
		 1.29520000E-06	-6.78598000E-04	-2.75693000E-02
		-1.17152000E-06	 6.91554000E-04	-2.95850000E-02
		 1.17151000E-06	-6.91554000E-04	-2.95850000E-02
		-1.04791000E-06	 7.03210000E-04	-3.16369000E-02
		 1.04790000E-06	-7.03210000E-04	-3.16369000E-02
		-9.24365000E-07	 7.13569000E-04	-3.37211000E-02
		 9.24352000E-07	-7.13569000E-04	-3.37211000E-02
		-8.00885000E-07	 7.22630000E-04	-3.58339000E-02
		 8.00870000E-07	-7.22630000E-04	-3.58339000E-02
		-6.77506000E-07	 7.30394000E-04	-3.79714000E-02
		 6.77491000E-07	-7.30394000E-04	-3.79714000E-02
		-5.54065000E-07	 7.36863000E-04	-4.01299000E-02
		 5.54048000E-07	-7.36863000E-04	-4.01299000E-02
		-4.31252000E-07	 7.42036000E-04	-4.23055000E-02
		 4.31234000E-07	-7.42036000E-04	-4.23055000E-02
		-3.06161000E-07	 7.45915000E-04	-4.44944000E-02
		 3.06143000E-07	-7.45915000E-04	-4.44944000E-02
		-1.90884000E-07	 7.48500000E-04	-4.66928000E-02
		 1.90865000E-07	-7.48500000E-04	-4.66928000E-02
		-3.47772000E-08	 7.49790000E-04	-4.88969000E-02
		 3.47573000E-08	-7.49790000E-04	-4.88969000E-02
		 0.00000000E+00	 7.49992000E-04	-4.99999000E-02
		 0.00000000E+00	-7.49992000E-04	-4.99999000E-02
		 0.00000000E+00	 7.49341000E-04	-4.77944000E-02
		 0.00000000E+00	-7.49341000E-04	-4.77944000E-02
		 0.00000000E+00	 7.47402000E-04	-4.55928000E-02
		 0.00000000E+00	-7.47402000E-04	-4.55928000E-02
		 0.00000000E+00	 7.44170000E-04	-4.33987000E-02
		 0.00000000E+00	-7.44170000E-04	-4.33987000E-02
		 0.00000000E+00	 7.39644000E-04	-4.12160000E-02
		 0.00000000E+00	-7.39644000E-04	-4.12160000E-02
		 0.00000000E+00	 7.33823000E-04	-3.90486000E-02
		 0.00000000E+00	-7.33823000E-04	-3.90486000E-02
		 0.00000000E+00	 7.26707000E-04	-3.69002000E-02
		 0.00000000E+00	-7.26707000E-04	-3.69002000E-02
		 0.00000000E+00	 7.18294000E-04	-3.47746000E-02
		 0.00000000E+00	-7.18294000E-04	-3.47746000E-02
		 0.00000000E+00	 7.08585000E-04	-3.26756000E-02
		 0.00000000E+00	-7.08585000E-04	-3.26756000E-02
		 0.00000000E+00	 6.97577000E-04	-3.06072000E-02
		 0.00000000E+00	-6.97577000E-04	-3.06072000E-02
		 0.00000000E+00	 6.85271000E-04	-2.85730000E-02
		 0.00000000E+00	-6.85271000E-04	-2.85730000E-02
		 0.00000000E+00	 6.71666000E-04	-2.65769000E-02
		 0.00000000E+00	-6.71666000E-04	-2.65769000E-02
		 0.00000000E+00	 6.56761000E-04	-2.46228000E-02
		 0.00000000E+00	-6.56761000E-04	-2.46228000E-02
		 0.00000000E+00	 6.40556000E-04	-2.27144000E-02
		 0.00000000E+00	-6.40556000E-04	-2.27144000E-02
		 0.00000000E+00	 6.23049000E-04	-2.08555000E-02
		 0.00000000E+00	-6.23049000E-04	-2.08555000E-02
		 0.00000000E+00	 6.04239000E-04	-1.90501000E-02
		 0.00000000E+00	-6.04239000E-04	-1.90501000E-02
		 0.00000000E+00	 5.84127000E-04	-1.73019000E-02
		 0.00000000E+00	-5.84127000E-04	-1.73019000E-02
		 0.00000000E+00	 5.62711000E-04	-1.56148000E-02
		 0.00000000E+00	-5.62711000E-04	-1.56148000E-02
		 0.00000000E+00	 5.39991000E-04	-1.39926000E-02
		 0.00000000E+00	-5.39991000E-04	-1.39926000E-02
		 0.00000000E+00	 5.15966000E-04	-1.24392000E-02
		 0.00000000E+00	-5.15966000E-04	-1.24392000E-02
		 0.00000000E+00	 4.90635000E-04	-1.09583000E-02
		 0.00000000E+00	-4.90635000E-04	-1.09583000E-02
		 0.00000000E+00	 4.63998000E-04	-9.55382000E-03
		 0.00000000E+00	-4.63998000E-04	-9.55382000E-03
		 0.00000000E+00	 4.36053000E-04	-8.22963000E-03
		 0.00000000E+00	-4.36053000E-04	-8.22963000E-03
		 0.00000000E+00	 4.06800000E-04	-6.98956000E-03
		 0.00000000E+00	-4.06800000E-04	-6.98956000E-03
		 0.00000000E+00	 3.76238000E-04	-5.83744000E-03
		 0.00000000E+00	-3.76238000E-04	-5.83744000E-03
		 0.00000000E+00	 3.44367000E-04	-4.77714000E-03