<?xml version="1.0"?>
<VTKFile type="UnstructuredGrid" version="0.1" byte_order="LittleEndian">
	<UnstructuredGrid>
		<Piece NumberOfPoints="416" NumberOfCells="34">
			<Points>
				<DataArray type="Float64" NumberOfComponents="3" format="ascii">
					-5.00000000E-03	-2.50000000E-01	 5.00000000E-03
					-5.00000000E-03	-2.50000000E-01	 0.00000000E+00
					-5.00000000E-03	-2.50000000E-01	-5.00000000E-03
					-5.00000000E-03	 2.50000000E-01	 5.00000000E-03
					-5.00000000E-03	 2.50000000E-01	 0.00000000E+00
					-5.00000000E-03	 2.50000000E-01	-5.00000000E-03
					 5.00000000E-03	-2.50000000E-01	 5.00000000E-03
					 5.00000000E-03	-2.50000000E-01	 0.00000000E+00
					 5.00000000E-03	-2.50000000E-01	-5.00000000E-03
					 5.00000000E-03	 2.50000000E-01	 5.00000000E-03
					 5.00000000E-03	 2.50000000E-01	 0.00000000E+00
					 5.00000000E-03	 2.50000000E-01	-5.00000000E-03
					-5.00000000E-03	-2.35294000E-01	 5.00000000E-03
					-5.00000000E-03	-2.35294000E-01	 0.00000000E+00
					-5.00000000E-03	-2.35294000E-01	-5.00000000E-03
					-5.00000000E-03	-2.20588000E-01	 5.00000000E-03
					-5.00000000E-03	-2.20588000E-01	 0.00000000E+00
					-5.00000000E-03	-2.20588000E-01	-5.00000000E-03
					-5.00000000E-03	-2.05882000E-01	 5.00000000E-03
					-5.00000000E-03	-2.05882000E-01	 0.00000000E+00
					-5.00000000E-03	-2.05882000E-01	-5.00000000E-03
					-5.00000000E-03	-1.91177000E-01	 5.00000000E-03
					-5.00000000E-03	-1.91177000E-01	 0.00000000E+00
					-5.00000000E-03	-1.91177000E-01	-5.00000000E-03
					-5.00000000E-03	-1.76471000E-01	 5.00000000E-03
					-5.00000000E-03	-1.76471000E-01	 0.00000000E+00
					-5.00000000E-03	-1.76471000E-01	-5.00000000E-03
					-5.00000000E-03	-1.61765000E-01	 5.00000000E-03
					-5.00000000E-03	-1.61765000E-01	 0.00000000E+00
					-5.00000000E-03	-1.61765000E-01	-5.00000000E-03
					-5.00000000E-03	-1.47059000E-01	 5.00000000E-03
					-5.00000000E-03	-1.47059000E-01	 0.00000000E+00
					-5.00000000E-03	-1.47059000E-01	-5.00000000E-03
					-5.00000000E-03	-1.32353000E-01	 5.00000000E-03
					-5.00000000E-03	-1.32353000E-01	 0.00000000E+00
					-5.00000000E-03	-1.32353000E-01	-5.00000000E-03
					-5.00000000E-03	-1.17647000E-01	 5.00000000E-03
					-5.00000000E-03	-1.17647000E-01	 0.00000000E+00
					-5.00000000E-03	-1.17647000E-01	-5.00000000E-03
					-5.00000000E-03	-1.02941000E-01	 5.00000000E-03
					-5.00000000E-03	-1.02941000E-01	 0.00000000E+00
					-5.00000000E-03	-1.02941000E-01	-5.00000000E-03
					-5.00000000E-03	-8.82353000E-02	 5.00000000E-03
					-5.00000000E-03	-8.82353000E-02	 0.00000000E+00
					-5.00000000E-03	-8.82353000E-02	-5.00000000E-03
					-5.00000000E-03	-7.35294000E-02	 5.00000000E-03
					-5.00000000E-03	-7.35294000E-02	 0.00000000E+00
					-5.00000000E-03	-7.35294000E-02	-5.00000000E-03
					-5.00000000E-03	-5.88235000E-02	 5.00000000E-03
					-5.00000000E-03	-5.88235000E-02	 0.00000000E+00
					-5.00000000E-03	-5.88235000E-02	-5.00000000E-03
					-5.00000000E-03	-4.41176000E-02	 5.00000000E-03
					-5.00000000E-03	-4.41176000E-02	 0.00000000E+00
					-5.00000000E-03	-4.41176000E-02	-5.00000000E-03
					-5.00000000E-03	-2.94118000E-02	 5.00000000E-03
					-5.00000000E-03	-2.94118000E-02	 0.00000000E+00
					-5.00000000E-03	-2.94118000E-02	-5.00000000E-03
					-5.00000000E-03	-1.47059000E-02	 5.00000000E-03
					-5.00000000E-03	-1.47059000E-02	 0.00000000E+00
					-5.00000000E-03	-1.47059000E-02	-5.00000000E-03
					-5.00000000E-03	 4.51028000E-17	 5.00000000E-03
					-5.00000000E-03	 4.51028000E-17	 0.00000000E+00
					-5.00000000E-03	 4.51028000E-17	-5.00000000E-03
					-5.00000000E-03	 1.47059000E-02	 5.00000000E-03
					-5.00000000E-03	 1.47059000E-02	 0.00000000E+00
					-5.00000000E-03	 1.47059000E-02	-5.00000000E-03
					-5.00000000E-03	 2.94118000E-02	 5.00000000E-03
					-5.00000000E-03	 2.94118000E-02	 0.00000000E+00
					-5.00000000E-03	 2.94118000E-02	-5.00000000E-03
					-5.00000000E-03	 4.41176000E-02	 5.00000000E-03
					-5.00000000E-03	 4.41176000E-02	 0.00000000E+00
					-5.00000000E-03	 4.41176000E-02	-5.00000000E-03
					-5.00000000E-03	 5.88235000E-02	 5.00000000E-03
					-5.00000000E-03	 5.88235000E-02	 0.00000000E+00
					-5.00000000E-03	 5.88235000E-02	-5.00000000E-03
					-5.00000000E-03	 7.35294000E-02	 5.00000000E-03
					-5.00000000E-03	 7.35294000E-02	 0.00000000E+00
					-5.00000000E-03	 7.35294000E-02	-5.00000000E-03
					-5.00000000E-03	 8.82353000E-02	 5.00000000E-03
					-5.00000000E-03	 8.82353000E-02	 0.00000000E+00
					-5.00000000E-03	 8.82353000E-02	-5.00000000E-03
					-5.00000000E-03	 1.02941000E-01	 5.00000000E-03
					-5.00000000E-03	 1.02941000E-01	 0.00000000E+00
					-5.00000000E-03	 1.02941000E-01	-5.00000000E-03
					-5.00000000E-03	 1.17647000E-01	 5.00000000E-03
					-5.00000000E-03	 1.17647000E-01	 0.00000000E+00
					-5.00000000E-03	 1.17647000E-01	-5.00000000E-03
					-5.00000000E-03	 1.32353000E-01	 5.00000000E-03
					-5.00000000E-03	 1.32353000E-01	 0.00000000E+00
					-5.00000000E-03	 1.32353000E-01	-5.00000000E-03
					-5.00000000E-03	 1.47059000E-01	 5.00000000E-03
					-5.00000000E-03	 1.47059000E-01	 0.00000000E+00
					-5.00000000E-03	 1.47059000E-01	-5.00000000E-03
					-5.00000000E-03	 1.61765000E-01	 5.00000000E-03
					-5.00000000E-03	 1.61765000E-01	 0.00000000E+00
					-5.00000000E-03	 1.61765000E-01	-5.00000000E-03
					-5.00000000E-03	 1.76471000E-01	 5.00000000E-03
					-5.00000000E-03	 1.76471000E-01	 0.00000000E+00
					-5.00000000E-03	 1.76471000E-01	-5.00000000E-03
					-5.00000000E-03	 1.91177000E-01	 5.00000000E-03
					-5.00000000E-03	 1.91177000E-01	 0.00000000E+00
					-5.00000000E-03	 1.91177000E-01	-5.00000000E-03
					-5.00000000E-03	 2.05882000E-01	 5.00000000E-03
					-5.00000000E-03	 2.05882000E-01	 0.00000000E+00
					-5.00000000E-03	 2.05882000E-01	-5.00000000E-03
					-5.00000000E-03	 2.20588000E-01	 5.00000000E-03
					-5.00000000E-03	 2.20588000E-01	 0.00000000E+00
					-5.00000000E-03	 2.20588000E-01	-5.00000000E-03
					-5.00000000E-03	 2.35294000E-01	 5.00000000E-03
					-5.00000000E-03	 2.35294000E-01	 0.00000000E+00
					-5.00000000E-03	 2.35294000E-01	-5.00000000E-03
					 5.00000000E-03	-2.35294000E-01	 5.00000000E-03
					 5.00000000E-03	-2.35294000E-01	 0.00000000E+00
					 5.00000000E-03	-2.35294000E-01	-5.00000000E-03
					 5.00000000E-03	-2.20588000E-01	 5.00000000E-03
					 5.00000000E-03	-2.20588000E-01	 0.00000000E+00
					 5.00000000E-03	-2.20588000E-01	-5.00000000E-03
					 5.00000000E-03	-2.05882000E-01	 5.00000000E-03
					 5.00000000E-03	-2.05882000E-01	 0.00000000E+00
					 5.00000000E-03	-2.05882000E-01	-5.00000000E-03
					 5.00000000E-03	-1.91177000E-01	 5.00000000E-03
					 5.00000000E-03	-1.91177000E-01	 0.00000000E+00
					 5.00000000E-03	-1.91177000E-01	-5.00000000E-03
					 5.00000000E-03	-1.76471000E-01	 5.00000000E-03
					 5.00000000E-03	-1.76471000E-01	 0.00000000E+00
					 5.00000000E-03	-1.76471000E-01	-5.00000000E-03
					 5.00000000E-03	-1.61765000E-01	 5.00000000E-03
					 5.00000000E-03	-1.61765000E-01	 0.00000000E+00
					 5.00000000E-03	-1.61765000E-01	-5.00000000E-03
					 5.00000000E-03	-1.47059000E-01	 5.00000000E-03
					 5.00000000E-03	-1.47059000E-01	 0.00000000E+00
					 5.00000000E-03	-1.47059000E-01	-5.00000000E-03
					 5.00000000E-03	-1.32353000E-01	 5.00000000E-03
					 5.00000000E-03	-1.32353000E-01	 0.00000000E+00
					 5.00000000E-03	-1.32353000E-01	-5.00000000E-03
					 5.00000000E-03	-1.17647000E-01	 5.00000000E-03
					 5.00000000E-03	-1.17647000E-01	 0.00000000E+00
					 5.00000000E-03	-1.17647000E-01	-5.00000000E-03
					 5.00000000E-03	-1.02941000E-01	 5.00000000E-03
					 5.00000000E-03	-1.02941000E-01	 0.00000000E+00
					 5.00000000E-03	-1.02941000E-01	-5.00000000E-03
					 5.00000000E-03	-8.82353000E-02	 5.00000000E-03
					 5.00000000E-03	-8.82353000E-02	 0.00000000E+00
					 5.00000000E-03	-8.82353000E-02	-5.00000000E-03
					 5.00000000E-03	-7.35294000E-02	 5.00000000E-03
					 5.00000000E-03	-7.35294000E-02	 0.00000000E+00
					 5.00000000E-03	-7.35294000E-02	-5.00000000E-03
					 5.00000000E-03	-5.88235000E-02	 5.00000000E-03
					 5.00000000E-03	-5.88235000E-02	 0.00000000E+00
					 5.00000000E-03	-5.88235000E-02	-5.00000000E-03
					 5.00000000E-03	-4.41176000E-02	 5.00000000E-03
					 5.00000000E-03	-4.41176000E-02	 0.00000000E+00
					 5.00000000E-03	-4.41176000E-02	-5.00000000E-03
					 5.00000000E-03	-2.94118000E-02	 5.00000000E-03
					 5.00000000E-03	-2.94118000E-02	 0.00000000E+00
					 5.00000000E-03	-2.94118000E-02	-5.00000000E-03
					 5.00000000E-03	-1.47059000E-02	 5.00000000E-03
					 5.00000000E-03	-1.47059000E-02	 0.00000000E+00
					 5.00000000E-03	-1.47059000E-02	-5.00000000E-03
					 5.00000000E-03	 4.51028000E-17	 5.00000000E-03
					 5.00000000E-03	 4.51028000E-17	 0.00000000E+00
					 5.00000000E-03	 4.51028000E-17	-5.00000000E-03
					 5.00000000E-03	 1.47059000E-02	 5.00000000E-03
					 5.00000000E-03	 1.47059000E-02	 0.00000000E+00
					 5.00000000E-03	 1.47059000E-02	-5.00000000E-03
					 5.00000000E-03	 2.94118000E-02	 5.00000000E-03
					 5.00000000E-03	 2.94118000E-02	 0.00000000E+00
					 5.00000000E-03	 2.94118000E-02	-5.00000000E-03
					 5.00000000E-03	 4.41176000E-02	 5.00000000E-03
					 5.00000000E-03	 4.41176000E-02	 0.00000000E+00
					 5.00000000E-03	 4.41176000E-02	-5.00000000E-03
					 5.00000000E-03	 5.88235000E-02	 5.00000000E-03
					 5.00000000E-03	 5.88235000E-02	 0.00000000E+00
					 5.00000000E-03	 5.88235000E-02	-5.00000000E-03
					 5.00000000E-03	 7.35294000E-02	 5.00000000E-03
					 5.00000000E-03	 7.35294000E-02	 0.00000000E+00
					 5.00000000E-03	 7.35294000E-02	-5.00000000E-03
					 5.00000000E-03	 8.82353000E-02	 5.00000000E-03
					 5.00000000E-03	 8.82353000E-02	 0.00000000E+00
					 5.00000000E-03	 8.82353000E-02	-5.00000000E-03
					 5.00000000E-03	 1.02941000E-01	 5.00000000E-03
					 5.00000000E-03	 1.02941000E-01	 0.00000000E+00
					 5.00000000E-03	 1.02941000E-01	-5.00000000E-03
					 5.00000000E-03	 1.17647000E-01	 5.00000000E-03
[...]
			<PointData>
				<DataArray type="Float32" Name="U" NumberOfComponents="3" ComponentName0="D1" ComponentName1="D2" ComponentName2="D3" format="ascii">
					-3.86404000E-06	 0.00000000E+00	 0.00000000E+00
					 0.00000000E+00	 0.00000000E+00	 0.00000000E+00
					 3.86404000E-06	 0.00000000E+00	 0.00000000E+00
					 0.00000000E+00	-4.49307000E-04	 3.50049000E-02
					 0.00000000E+00	 0.00000000E+00	 3.50049000E-02
					 0.00000000E+00	 4.49307000E-04	 3.50049000E-02
					 3.86404000E-06	 0.00000000E+00	 0.00000000E+00
					 0.00000000E+00	 0.00000000E+00	 0.00000000E+00
					-3.86404000E-06	 0.00000000E+00	 0.00000000E+00
					 0.00000000E+00	-4.49307000E-04	 3.50049000E-02
					 0.00000000E+00	 0.00000000E+00	 3.50049000E-02
					 0.00000000E+00	 4.49307000E-04	 3.50049000E-02
					-3.85947000E-06	-3.97488000E-05	 5.84202000E-05
					 0.00000000E+00	 0.00000000E+00	 5.59660000E-05
					 3.85947000E-06	 3.97488000E-05	 5.84202000E-05
					-3.63395000E-06	-7.96149000E-05	 2.35493000E-04
					 0.00000000E+00	 0.00000000E+00	 2.33811000E-04
					 3.63395000E-06	 7.96149000E-05	 2.35493000E-04
					-3.41630000E-06	-1.16508000E-04	 5.25035000E-04
					 0.00000000E+00	 0.00000000E+00	 5.23292000E-04
					 3.41630000E-06	 1.16508000E-04	 5.25035000E-04
					-3.19943000E-06	-1.51294000E-04	 9.20091000E-04
					 0.00000000E+00	 0.00000000E+00	 9.18501000E-04
					 3.19943000E-06	 1.51294000E-04	 9.20091000E-04
					-2.98410000E-06	-1.83757000E-04	 1.41400000E-03
					 0.00000000E+00	 0.00000000E+00	 1.41251000E-03
					 2.98410000E-06	 1.83757000E-04	 1.41400000E-03
					-2.77244000E-06	-2.13991000E-04	 2.00010000E-03
					 0.00000000E+00	 0.00000000E+00	 1.99872000E-03
					 2.77244000E-06	 2.13991000E-04	 2.00010000E-03
					-2.56499000E-06	-2.42019000E-04	 2.67186000E-03
					 0.00000000E+00	 0.00000000E+00	 2.67057000E-03
					 2.56499000E-06	 2.42019000E-04	 2.67186000E-03
					-2.36284000E-06	-2.67897000E-04	 3.42285000E-03
					 0.00000000E+00	 0.00000000E+00	 3.42167000E-03
					 2.36284000E-06	 2.67897000E-04	 3.42285000E-03
					-2.16674000E-06	-2.91682000E-04	 4.24685000E-03
					 0.00000000E+00	 0.00000000E+00	 4.24576000E-03
					 2.16674000E-06	 2.91682000E-04	 4.24685000E-03
					-1.97734000E-06	-3.13441000E-04	 5.13778000E-03
					 0.00000000E+00	 0.00000000E+00	 5.13680000E-03
					 1.97734000E-06	 3.13441000E-04	 5.13778000E-03
					-1.79504000E-06	-3.33249000E-04	 6.08981000E-03
					 0.00000000E+00	 0.00000000E+00	 6.08891000E-03
					 1.79504000E-06	 3.33249000E-04	 6.08981000E-03
					-1.62012000E-06	-3.51180000E-04	 7.09729000E-03
					 0.00000000E+00	 0.00000000E+00	 7.09648000E-03
					 1.62012000E-06	 3.51180000E-04	 7.09729000E-03
					-1.45268000E-06	-3.67313000E-04	 8.15483000E-03
					 0.00000000E+00	 0.00000000E+00	 8.15410000E-03
					 1.45269000E-06	 3.67313000E-04	 8.15483000E-03
					-1.29269000E-06	-3.81726000E-04	 9.25724000E-03
					 0.00000000E+00	 0.00000000E+00	 9.25659000E-03
					 1.29269000E-06	 3.81726000E-04	 9.25724000E-03
					-1.14004000E-06	-3.94497000E-04	 1.03996000E-02
					 0.00000000E+00	 0.00000000E+00	 1.03990000E-02
					 1.14005000E-06	 3.94497000E-04	 1.03996000E-02
					-9.94643000E-07	-4.05703000E-04	 1.15772000E-02
					 0.00000000E+00	 0.00000000E+00	 1.15767000E-02
					 9.94648000E-07	 4.05703000E-04	 1.15772000E-02
					-8.56456000E-07	-4.15420000E-04	 1.27855000E-02
					 0.00000000E+00	 0.00000000E+00	 1.27850000E-02
					 8.56462000E-07	 4.15420000E-04	 1.27855000E-02
					-7.25600000E-07	-4.23723000E-04	 1.40202000E-02
					 0.00000000E+00	 0.00000000E+00	 1.40199000E-02
					 7.25606000E-07	 4.23723000E-04	 1.40202000E-02
					-6.02398000E-07	-4.30692000E-04	 1.52774000E-02
					 0.00000000E+00	 0.00000000E+00	 1.52771000E-02
					 6.02405000E-07	 4.30692000E-04	 1.52774000E-02
					-4.87426000E-07	-4.36409000E-04	 1.65532000E-02
					 0.00000000E+00	 0.00000000E+00	 1.65529000E-02
					 4.87433000E-07	 4.36409000E-04	 1.65532000E-02
					-3.81520000E-07	-4.40966000E-04	 1.78440000E-02
					 0.00000000E+00	 0.00000000E+00	 1.78438000E-02
					 3.81527000E-07	 4.40966000E-04	 1.78440000E-02
					-2.85740000E-07	-4.44462000E-04	 1.91467000E-02
					 0.00000000E+00	 0.00000000E+00	 1.91465000E-02
					 2.85748000E-07	 4.44462000E-04	 1.91467000E-02
					-2.01293000E-07	-4.47011000E-04	 2.04581000E-02
					 0.00000000E+00	 0.00000000E+00	 2.04580000E-02
					 2.01301000E-07	 4.47011000E-04	 2.04581000E-02
					-1.29379000E-07	-4.48737000E-04	 2.17758000E-02
					 0.00000000E+00	 0.00000000E+00	 2.17757000E-02
					 1.29388000E-07	 4.48737000E-04	 2.17758000E-02
					-7.10062000E-08	-4.49779000E-04	 2.30975000E-02
					 0.00000000E+00	 0.00000000E+00	 2.30974000E-02
					 7.10157000E-08	 4.49779000E-04	 2.30975000E-02
					-2.67545000E-08	-4.50282000E-04	 2.44213000E-02
					 0.00000000E+00	 0.00000000E+00	 2.44213000E-02
					 2.67645000E-08	 4.50282000E-04	 2.44213000E-02
					 3.46510000E-09	-4.50393000E-04	 2.57460000E-02
					 0.00000000E+00	 0.00000000E+00	 2.57460000E-02
					-3.45447000E-09	 4.50393000E-04	 2.57460000E-02
					 2.06102000E-08	-4.50257000E-04	 2.70706000E-02
					 0.00000000E+00	 0.00000000E+00	 2.70706000E-02
					-2.05991000E-08	 4.50257000E-04	 2.70706000E-02
					 2.66112000E-08	-4.50002000E-04	 2.83945000E-02
					 0.00000000E+00	 0.00000000E+00	 2.83946000E-02
					-2.65995000E-08	 4.50002000E-04	 2.83945000E-02
					 2.43111000E-08	-4.49729000E-04	 2.97177000E-02
					 0.00000000E+00	 0.00000000E+00	 2.97177000E-02
					-2.42989000E-08	 4.49729000E-04	 2.97177000E-02
					 1.71887000E-08	-4.49509000E-04	 3.10400000E-02
					 0.00000000E+00	 0.00000000E+00	 3.10400000E-02
					-1.71759000E-08	 4.49509000E-04	 3.10400000E-02
					 8.85989000E-09	-4.49373000E-04	 3.23619000E-02
					 0.00000000E+00	 0.00000000E+00	 3.23619000E-02
					-8.84656000E-09	 4.49373000E-04	 3.23619000E-02
					 2.44436000E-09	-4.49316000E-04	 3.36834000E-02
					 0.00000000E+00	 0.00000000E+00	 3.36834000E-02
					-2.43046000E-09	 4.49316000E-04	 3.36834000E-02
					 3.85947000E-06	-3.97488000E-05	 5.84202000E-05
					 0.00000000E+00	 0.00000000E+00	 5.59660000E-05
					-3.85947000E-06	 3.97488000E-05	 5.84202000E-05
					 3.63395000E-06	-7.96149000E-05	 2.35493000E-04
					 0.00000000E+00	 0.00000000E+00	 2.33811000E-04
					-3.63395000E-06	 7.96149000E-05	 2.35493000E-04
					 3.41630000E-06	-1.16508000E-04	 5.25035000E-04
					 0.00000000E+00	 0.00000000E+00	 5.23292000E-04
					-3.41630000E-06	 1.16508000E-04	 5.25035000E-04
					 3.19943000E-06	-1.51294000E-04	 9.20091000E-04
					 0.00000000E+00	 0.00000000E+00	 9.18501000E-04
					-3.19943000E-06	 1.51294000E-04	 9.20091000E-04
					 2.98410000E-06	-1.83757000E-04	 1.41400000E-03
					 0.00000000E+00	 0.00000000E+00	 1.41251000E-03
					-2.98410000E-06	 1.83757000E-04	 1.41400000E-03
					 2.77244000E-06	-2.13991000E-04	 2.00010000E-03
					 0.00000000E+00	 0.00000000E+00	 1.99872000E-03
					-2.77244000E-06	 2.13991000E-04	 2.00010000E-03
					 2.56499000E-06	-2.42019000E-04	 2.67186000E-03
					 0.00000000E+00	 0.00000000E+00	 2.67057000E-03
					-2.56499000E-06	 2.42019000E-04	 2.67186000E-03
					 2.36284000E-06	-2.67897000E-04	 3.42285000E-03
					 0.00000000E+00	 0.00000000E+00	 3.42167000E-03
					-2.36284000E-06	 2.67897000E-04	 3.42285000E-03
					 2.16674000E-06	-2.91682000E-04	 4.24685000E-03
					 0.00000000E+00	 0.00000000E+00	 4.24576000E-03
					-2.16674000E-06	 2.91682000E-04	 4.24685000E-03
					 1.97734000E-06	-3.13441000E-04	 5.13778000E-03
					 0.00000000E+00	 0.00000000E+00	 5.13680000E-03
					-1.97734000E-06	 3.13441000E-04	 5.13778000E-03
					 1.79504000E-06	-3.33249000E-04	 6.08981000E-03
					 0.00000000E+00	 0.00000000E+00	 6.08891000E-03
					-1.79504000E-06	 3.33249000E-04	 6.08981000E-03
					 1.62012000E-06	-3.51180000E-04	 7.09729000E-03
					 0.00000000E+00	 0.00000000E+00	 7.09648000E-03
					-1.62012000E-06	 3.51180000E-04	 7.09729000E-03
					 1.45269000E-06	-3.67313000E-04	 8.15483000E-03
					 0.00000000E+00	 0.00000000E+00	 8.15410000E-03
					-1.45268000E-06	 3.67313000E-04	 8.15483000E-03
					 1.29269000E-06	-3.81726000E-04	 9.25724000E-03
					 0.00000000E+00	 0.00000000E+00	 9.25659000E-03
					-1.29269000E-06	 3.81726000E-04	 9.25724000E-03
					 1.14005000E-06	-3.94497000E-04	 1.03996000E-02
					 0.00000000E+00	 0.00000000E+00	 1.03990000E-02
					-1.14004000E-06	 3.94497000E-04	 1.03996000E-02
					 9.94648000E-07	-4.05703000E-04	 1.15772000E-02
					 0.00000000E+00	 0.00000000E+00	 1.15767000E-02
					-9.94643000E-07	 4.05703000E-04	 1.15772000E-02
					 8.56462000E-07	-4.15420000E-04	 1.27855000E-02
					 0.00000000E+00	 0.00000000E+00	 1.27850000E-02
					-8.56456000E-07	 4.15420000E-04	 1.27855000E-02
					 7.25606000E-07	-4.23723000E-04	 1.40202000E-02
					 0.00000000E+00	 0.00000000E+00	 1.40199000E-02
					-7.25600000E-07	 4.23723000E-04	 1.40202000E-02
					 6.02405000E-07	-4.30692000E-04	 1.52774000E-02
					 0.00000000E+00	 0.00000000E+00	 1.52771000E-02
					-6.02398000E-07	 4.30692000E-04	 1.52774000E-02
					 4.87433000E-07	-4.36409000E-04	 1.65532000E-02
					 0.00000000E+00	 0.00000000E+00	 1.65529000E-02
					-4.87426000E-07	 4.36409000E-04	 1.65532000E-02
					 3.81527000E-07	-4.40966000E-04	 1.78440000E-02
					 0.00000000E+00	 0.00000000E+00	 1.78438000E-02
					-3.81520000E-07	 4.40966000E-04	 1.78440000E-02
					 2.85748000E-07	-4.44462000E-04	 1.91467000E-02
					 0.00000000E+00	 0.00000000E+00	 1.91465000E-02
					-2.85740000E-07	 4.44462000E-04	 1.91467000E-02
					 2.01301000E-07	-4.47011000E-04	 2.04581000E-02
					 0.00000000E+00	 0.00000000E+00	 2.04580000E-02
					-2.01293000E-07	 4.47011000E-04	 2.04581000E-02
					 1.29388000E-07	-4.48737000E-04	 2.17758000E-02
					 0.00000000E+00	 0.00000000E+00	 2.17757000E-02
					-1.29379000E-07	 4.48737000E-04	 2.17758000E-02
					 7.10157000E-08	-4.49779000E-04	 2.30975000E-02
					 0.00000000E+00	 0.00000000E+00	 2.30974000E-02
					-7.10062000E-08	 4.49779000E-04	 2.30975000E-02
					 2.67645000E-08	-4.50282000E-04	 2.44213000E-02
					 0.00000000E+00	 0.00000000E+00	 2.44213000E-02
					-2.67545000E-08	 4.50282000E-04	 2.44213000E-02
					-3.45447000E-09	-4.50393000E-04	 2.57460000E-02
					 0.00000000E+00	 0.00000000E+00	 2.57460000E-02
					 3.46510000E-09	 4.50393000E-04	 2.57460000E-02
					-2.05991000E-08	-4.50257000E-04	 2.70706000E-02
					 0.00000000E+00	 0.00000000E+00	 2.70706000E-02
					 2.06102000E-08	 4.50257000E-04	 2.70706000E-02
					-2.65995000E-08	-4.50002000E-04	 2.83945000E-02
					 0.00000000E+00	 0.00000000E+00	 2.83946000E-02
					 2.66112000E-08	 4.50002000E-04	 2.83945000E-02
					-2.42989000E-08	-4.49729000E-04	 2.97177000E-02
					 0.00000000E+00	 0.00000000E+00	 2.97177000E-02
					 2.43111000E-08	 4.49729000E-04	 2.97177000E-02
					-1.71759000E-08	-4.49509000E-04	 3.10400000E-02
					 0.00000000E+00	 0.00000000E+00	 3.10400000E-02
					 1.71887000E-08	 4.49509000E-04	 3.10400000E-02
					-8.84656000E-09	-4.49373000E-04	 3.23619000E-02
					 0.00000000E+00	 0.00000000E+00	 3.23619000E-02
					 8.85990000E-09	 4.49373000E-04	 3.23619000E-02
					-2.43048000E-09	-4.49316000E-04	 3.36834000E-02
					 0.00000000E+00	 0.00000000E+00	 3.36834000E-02
					 2.44434000E-09	 4.49316000E-04	 3.36834000E-02
					-3.87109000E-06	-1.94543000E-05	 1.45737000E-05
					 3.87109000E-06	 1.94543000E-05	 1.45737000E-05
					-3.75708000E-06	-6.01043000E-05	 1.32324000E-04
					 3.75708000E-06	 6.01043000E-05	 1.32324000E-04
					-3.52643000E-06	-9.82724000E-05	 3.66690000E-04
					 3.52643000E-06	 9.82724000E-05	 3.66690000E-04
					-3.30706000E-06	-1.34165000E-04	 7.09780000E-04
					 3.30706000E-06	 1.34165000E-04	 7.09780000E-04
					-3.09179000E-06	-1.67773000E-04	 1.15511000E-03
					 3.09179000E-06	 1.67773000E-04	 1.15511000E-03
					-2.87779000E-06	-1.99121000E-04	 1.69594000E-03
					 2.87780000E-06	 1.99121000E-04	 1.69594000E-03
					-2.66828000E-06	-2.28246000E-04	 2.32567000E-03
					 2.66828000E-06	 2.28246000E-04	 2.32567000E-03
					-2.46337000E-06	-2.55193000E-04	 3.03784000E-03
					 2.46337000E-06	 2.55193000E-04	 3.03784000E-03
					-2.26420000E-06	-2.80017000E-04	 3.82611000E-03
					 2.26420000E-06	 2.80017000E-04	 3.82611000E-03
					-2.07138000E-06	-3.02781000E-04	 4.68432000E-03
					 2.07139000E-06	 3.02781000E-04	 4.68432000E-03
					-1.88550000E-06	-3.23556000E-04	 5.60652000E-03
					 1.88550000E-06	 3.23556000E-04	 5.60652000E-03
					-1.70687000E-06	-3.42417000E-04	 6.58696000E-03
					 1.70688000E-06	 3.42417000E-04	 6.58696000E-03
					-1.53570000E-06	-3.59440000E-04	 7.62013000E-03
					 1.53570000E-06	 3.59440000E-04	 7.62013000E-03
					-1.37199000E-06	-3.74705000E-04	 8.70074000E-03
					 1.37199000E-06	 3.74705000E-04	 8.70074000E-03
					-1.21568000E-06	-3.88289000E-04	 9.82372000E-03
					 1.21568000E-06	 3.88289000E-04	 9.82372000E-03
					-1.06667000E-06	-4.00269000E-04	 1.09843000E-02
					 1.06667000E-06	 4.00269000E-04	 1.09843000E-02
					-9.24869000E-07	-4.10722000E-04	 1.21777000E-02
					 9.24874000E-07	 4.10722000E-04	 1.21777000E-02
					-7.90328000E-07	-4.19723000E-04	 1.33998000E-02
					 7.90333000E-07	 4.19723000E-04	 1.33998000E-02
					-6.63257000E-07	-4.27350000E-04	 1.46463000E-02
					 6.63263000E-07	 4.27350000E-04	 1.46463000E-02
					-5.44103000E-07	-4.33684000E-04	 1.59132000E-02
					 5.44110000E-07	 4.33684000E-04	 1.59132000E-02
					-4.33573000E-07	-4.38810000E-04	 1.71969000E-02
					 4.33580000E-07	 4.38810000E-04	 1.71969000E-02
					-3.32621000E-07	-4.42825000E-04	 1.84941000E-02
					 3.32628000E-07	 4.42825000E-04	 1.84941000E-02
					-2.42390000E-07	-4.45834000E-04	 1.98015000E-02
					 2.42398000E-07	 4.45834000E-04	 1.98015000E-02
					-1.64100000E-07	-4.47957000E-04	 2.11163000E-02
					 1.64108000E-07	 4.47957000E-04	 2.11163000E-02
					-9.88758000E-08	-4.49326000E-04	 2.24362000E-02
					 9.88851000E-08	 4.49326000E-04	 2.24362000E-02
					-4.75349000E-08	-4.50082000E-04	 2.37592000E-02
					 4.75447000E-08	 4.50082000E-04	 2.37592000E-02
					-1.03445000E-08	-4.50372000E-04	 2.50836000E-02
					 1.03548000E-08	 4.50372000E-04	 2.50836000E-02
					 1.32025000E-08	-4.50345000E-04	 2.64084000E-02
					-1.31916000E-08	 4.50345000E-04	 2.64084000E-02
					 2.45467000E-08	-4.50136000E-04	 2.77327000E-02
					-2.45353000E-08	 4.50136000E-04	 2.77327000E-02
					 2.60899000E-08	-4.49863000E-04	 2.90562000E-02
					-2.60779000E-08	 4.49863000E-04	 2.90562000E-02
					 2.10299000E-08	-4.49611000E-04	 3.03789000E-02
					-2.10174000E-08	 4.49611000E-04	 3.03789000E-02
					 1.29717000E-08	-4.49431000E-04	 3.17010000E-02
					-1.29586000E-08	 4.49431000E-04	 3.17010000E-02
					 5.34392000E-09	-4.49337000E-04	 3.30227000E-02
					-5.33032000E-09	 4.49337000E-04	 3.30227000E-02
					 0.00000000E+00	-4.49308000E-04	 3.43442000E-02
					 0.00000000E+00	 4.49308000E-04	 3.43442000E-02
					 0.00000000E+00	 0.00000000E+00	 0.00000000E+00
					 0.00000000E+00	 0.00000000E+00	 0.00000000E+00
					 3.87109000E-06	-1.94543000E-05	 1.45737000E-05
					-3.87109000E-06	 1.94543000E-05	 1.45737000E-05
					 3.75708000E-06	-6.01043000E-05	 1.32324000E-04
					-3.75708000E-06	 6.01043000E-05	 1.32324000E-04
					 3.52643000E-06	-9.82724000E-05	 3.66690000E-04
					-3.52643000E-06	 9.82724000E-05	 3.66690000E-04
					 3.30706000E-06	-1.34165000E-04	 7.09780000E-04
					-3.30706000E-06	 1.34165000E-04	 7.09780000E-04
					 3.09179000E-06	-1.67773000E-04	 1.15511000E-03
					-3.09179000E-06	 1.67773000E-04	 1.15511000E-03
					 2.87780000E-06	-1.99121000E-04	 1.69594000E-03
					-2.87779000E-06	 1.99121000E-04	 1.69594000E-03
					 2.66828000E-06	-2.28246000E-04	 2.32567000E-03
					-2.66828000E-06	 2.28246000E-04	 2.32567000E-03
					 2.46337000E-06	-2.55193000E-04	 3.03784000E-03
					-2.46337000E-06	 2.55193000E-04	 3.03784000E-03
					 2.26420000E-06	-2.80017000E-04	 3.82611000E-03
					-2.26420000E-06	 2.80017000E-04	 3.82611000E-03
					 2.07139000E-06	-3.02781000E-04	 4.68432000E-03
					-2.07138000E-06	 3.02781000E-04	 4.68432000E-03
					 1.88550000E-06	-3.23556000E-04	 5.60652000E-03
					-1.88550000E-06	 3.23556000E-04	 5.60652000E-03
					 1.70688000E-06	-3.42417000E-04	 6.58696000E-03
					-1.70687000E-06	 3.42417000E-04	 6.58696000E-03
					 1.53570000E-06	-3.59440000E-04	 7.62013000E-03
					-1.53570000E-06	 3.59440000E-04	 7.62013000E-03
					 1.37199000E-06	-3.74705000E-04	 8.70074000E-03
					-1.37199000E-06	 3.74705000E-04	 8.70074000E-03
					 1.21568000E-06	-3.88289000E-04	 9.82372000E-03
					-1.21568000E-06	 3.88289000E-04	 9.82372000E-03
					 1.06667000E-06	-4.00269000E-04	 1.09843000E-02
					-1.06667000E-06	 4.00269000E-04	 1.09843000E-02
					 9.24874000E-07	-4.10722000E-04	 1.21777000E-02
					-9.24869000E-07	 4.10722000E-04	 1.21777000E-02
					 7.90333000E-07	-4.19723000E-04	 1.33998000E-02
					-7.90328000E-07	 4.19723000E-04	 1.33998000E-02
					 6.63263000E-07	-4.27350000E-04	 1.46463000E-02
					-6.63257000E-07	 4.27350000E-04	 1.46463000E-02
					 5.44110000E-07	-4.33684000E-04	 1.59132000E-02
					-5.44103000E-07	 4.33684000E-04	 1.59132000E-02
					 4.33580000E-07	-4.38810000E-04	 1.71969000E-02
					-4.33573000E-07	 4.38810000E-04	 1.71969000E-02
					 3.32628000E-07	-4.42825000E-04	 1.84941000E-02
					-3.32621000E-07	 4.42825000E-04	 1.84941000E-02
					 2.42398000E-07	-4.45834000E-04	 1.98015000E-02
					-2.42390000E-07	 4.45834000E-04	 1.98015000E-02
					 1.64108000E-07	-4.47957000E-04	 2.11163000E-02
					-1.64100000E-07	 4.47957000E-04	 2.11163000E-02
					 9.88851000E-08	-4.49326000E-04	 2.24362000E-02
					-9.88758000E-08	 4.49326000E-04	 2.24362000E-02
					 4.75447000E-08	-4.50082000E-04	 2.37592000E-02
					-4.75349000E-08	 4.50082000E-04	 2.37592000E-02
					 1.03548000E-08	-4.50372000E-04	 2.50836000E-02
					-1.03445000E-08	 4.50372000E-04	 2.50836000E-02
					-1.31916000E-08	-4.50345000E-04	 2.64084000E-02
					 1.32025000E-08	 4.50345000E-04	 2.64084000E-02
					-2.45353000E-08	-4.50136000E-04	 2.77327000E-02
					 2.45467000E-08	 4.50136000E-04	 2.77327000E-02
					-2.60779000E-08	-4.49863000E-04	 2.90562000E-02
					 2.60899000E-08	 4.49863000E-04	 2.90562000E-02
					-2.10174000E-08	-4.49611000E-04	 3.03789000E-02
					 2.10299000E-08	 4.49611000E-04	 3.03789000E-02
					-1.29587000E-08	-4.49431000E-04	 3.17010000E-02
					 1.29717000E-08	 4.49431000E-04	 3.17010000E-02
					-5.33032000E-09	-4.49337000E-04	 3.30227000E-02
					 5.34393000E-09	 4.49337000E-04	 3.30227000E-02
					 0.00000000E+00	-4.49308000E-04	 3.43442000E-02
					 0.00000000E+00	 4.49308000E-04	 3.43442000E-02
					 0.00000000E+00	-4.49307000E-04	 3.50049000E-02
					 0.00000000E+00	 4.49307000E-04	 3.50049000E-02
					 0.00000000E+00	-4.49315000E-04	 3.36834000E-02
					 0.00000000E+00	 4.49315000E-04	 3.36834000E-02
					 0.00000000E+00	-4.49372000E-04	 3.23619000E-02
					 0.00000000E+00	 4.49372000E-04	 3.23619000E-02
					 0.00000000E+00	-4.49508000E-04	 3.10400000E-02
					 0.00000000E+00	 4.49508000E-04	 3.10400000E-02
					 0.00000000E+00	-4.49729000E-04	 2.97177000E-02
					 0.00000000E+00	 4.49729000E-04	 2.97177000E-02
					 0.00000000E+00	-4.50002000E-04	 2.83945000E-02
					 0.00000000E+00	 4.50002000E-04	 2.83945000E-02
					 0.00000000E+00	-4.50259000E-04	 2.70706000E-02
					 0.00000000E+00	 4.50259000E-04	 2.70706000E-02
					 0.00000000E+00	-4.50396000E-04	 2.57460000E-02
					 0.00000000E+00	 4.50396000E-04	 2.57460000E-02
					 0.00000000E+00	-4.50286000E-04	 2.44213000E-02
					 0.00000000E+00	 4.50286000E-04	 2.44213000E-02
					 0.00000000E+00	-4.49785000E-04	 2.30975000E-02
					 0.00000000E+00	 4.49785000E-04	 2.30975000E-02
					 0.00000000E+00	-4.48745000E-04	 2.17759000E-02
					 0.00000000E+00	 4.48745000E-04	 2.17759000E-02
					 0.00000000E+00	-4.47020000E-04	 2.04582000E-02
					 0.00000000E+00	 4.47020000E-04	 2.04582000E-02
					 0.00000000E+00	-4.44472000E-04	 1.91468000E-02
					 0.00000000E+00	 4.44472000E-04	 1.91468000E-02