<?xml version="1.0"?>
<VTKFile type="UnstructuredGrid" version="0.1" byte_order="LittleEndian">
	<UnstructuredGrid>
		<Piece NumberOfPoints="286" NumberOfCells="120">
			<Points>
				<DataArray type="Float64" NumberOfComponents="3" format="ascii">
					 0.00000000E+00	 1.00000000E+00	 1.00000000E-01
					 0.00000000E+00	 1.00000000E+00	 0.00000000E+00
					 5.00000000E-01	 1.00000000E+00	 0.00000000E+00
					 5.00000000E-01	 1.00000000E+00	 1.00000000E-01
					 0.00000000E+00	 9.00000000E-01	 1.00000000E-01
					 0.00000000E+00	 9.00000000E-01	 0.00000000E+00
					 5.00000000E-01	 9.36818000E-01	-6.93889000E-18
					 5.00000000E-01	 9.36818000E-01	 1.00000000E-01
					 1.00000000E+00	 1.00000000E+00	 0.00000000E+00
					 1.00000000E+00	 1.00000000E+00	 1.00000000E-01
					 1.00000000E+00	 9.73636000E-01	 0.00000000E+00
					 1.00000000E+00	 9.73636000E-01	 1.00000000E-01
					 0.00000000E+00	 8.00000000E-01	 1.00000000E-01
					 0.00000000E+00	 8.00000000E-01	 0.00000000E+00
					 5.00000000E-01	 8.69991000E-01	 6.93889000E-18
					 5.00000000E-01	 8.69991000E-01	 1.00000000E-01
					 1.00000000E+00	 9.39983000E-01	 0.00000000E+00
					 1.00000000E+00	 9.39983000E-01	 1.00000000E-01
					 0.00000000E+00	 7.00000000E-01	 1.00000000E-01
					 0.00000000E+00	 7.00000000E-01	 0.00000000E+00
					 5.00000000E-01	 7.98512000E-01	 6.93889000E-18
					 5.00000000E-01	 7.98512000E-01	 1.00000000E-01
					 1.00000000E+00	 8.97024000E-01	 0.00000000E+00
					 1.00000000E+00	 8.97024000E-01	 1.00000000E-01
					 0.00000000E+00	 6.00000000E-01	 1.00000000E-01
					 0.00000000E+00	 6.00000000E-01	 0.00000000E+00
					 5.00000000E-01	 7.21093000E-01	-1.38778000E-17
					 5.00000000E-01	 7.21093000E-01	 1.00000000E-01
					 1.00000000E+00	 8.42185000E-01	 0.00000000E+00
					 1.00000000E+00	 8.42185000E-01	 1.00000000E-01
					 0.00000000E+00	 5.00000000E-01	 1.00000000E-01
					 0.00000000E+00	 5.00000000E-01	 0.00000000E+00
					 5.00000000E-01	 6.36092000E-01	 6.93889000E-18
					 5.00000000E-01	 6.36092000E-01	 1.00000000E-01
					 1.00000000E+00	 7.72183000E-01	 0.00000000E+00
					 1.00000000E+00	 7.72183000E-01	 1.00000000E-01
					 0.00000000E+00	 4.00000000E-01	 1.00000000E-01
					 0.00000000E+00	 4.00000000E-01	 0.00000000E+00
					 5.00000000E-01	 5.41412000E-01	 6.93889000E-18
					 5.00000000E-01	 5.41412000E-01	 1.00000000E-01
					 1.00000000E+00	 6.82824000E-01	 0.00000000E+00
					 1.00000000E+00	 6.82824000E-01	 1.00000000E-01
					 0.00000000E+00	 3.00000000E-01	 1.00000000E-01
					 0.00000000E+00	 3.00000000E-01	 0.00000000E+00
					 5.00000000E-01	 4.34378000E-01	 6.93889000E-18
					 5.00000000E-01	 4.34378000E-01	 1.00000000E-01
					 1.00000000E+00	 5.68756000E-01	 0.00000000E+00
					 1.00000000E+00	 5.68756000E-01	 1.00000000E-01
					 0.00000000E+00	 2.00000000E-01	 1.00000000E-01
					 0.00000000E+00	 2.00000000E-01	 0.00000000E+00
					 5.00000000E-01	 3.11573000E-01	 1.38778000E-17
					 5.00000000E-01	 3.11573000E-01	 1.00000000E-01
					 1.00000000E+00	 4.23146000E-01	 0.00000000E+00
					 1.00000000E+00	 4.23146000E-01	 1.00000000E-01
					 0.00000000E+00	 1.00000000E-01	 1.00000000E-01
					 0.00000000E+00	 1.00000000E-01	 0.00000000E+00
					 5.00000000E-01	 1.68636000E-01	-6.93889000E-18
					 5.00000000E-01	 1.68636000E-01	 1.00000000E-01
					 1.00000000E+00	 2.37272000E-01	 0.00000000E+00
					 1.00000000E+00	 2.37272000E-01	 1.00000000E-01
					 0.00000000E+00	 0.00000000E+00	 1.00000000E-01
					 0.00000000E+00	 0.00000000E+00	 0.00000000E+00
					 5.00000000E-01	 0.00000000E+00	 0.00000000E+00
					 5.00000000E-01	 0.00000000E+00	 1.00000000E-01
					 1.00000000E+00	 0.00000000E+00	 0.00000000E+00
					 1.00000000E+00	 0.00000000E+00	 1.00000000E-01
					 1.50000000E+00	 1.00000000E+00	 0.00000000E+00
					 1.50000000E+00	 1.00000000E+00	 1.00000000E-01
					 1.50000000E+00	 8.68182000E-01	 0.00000000E+00
					 1.50000000E+00	 8.68182000E-01	 1.00000000E-01
					 2.00000000E+00	 1.00000000E+00	 0.00000000E+00
					 2.00000000E+00	 1.00000000E+00	 1.00000000E-01
					 2.00000000E+00	 7.62728000E-01	 0.00000000E+00
					 2.00000000E+00	 7.62728000E-01	 1.00000000E-01
					 1.50000000E+00	 7.58419000E-01	-6.93889000E-18
					 1.50000000E+00	 7.58419000E-01	 1.00000000E-01
					 2.00000000E+00	 5.76854000E-01	 0.00000000E+00
					 2.00000000E+00	 5.76854000E-01	 1.00000000E-01
					 1.50000000E+00	 6.64134000E-01	-6.93889000E-18
					 1.50000000E+00	 6.64134000E-01	 1.00000000E-01
					 2.00000000E+00	 4.31244000E-01	 0.00000000E+00
					 2.00000000E+00	 4.31244000E-01	 1.00000000E-01
					 1.50000000E+00	 5.79681000E-01	 6.93889000E-18
					 1.50000000E+00	 5.79681000E-01	 1.00000000E-01
					 2.00000000E+00	 3.17176000E-01	 0.00000000E+00
					 2.00000000E+00	 3.17176000E-01	 1.00000000E-01
					 1.50000000E+00	 5.00000000E-01	 0.00000000E+00
					 1.50000000E+00	 5.00000000E-01	 1.00000000E-01
					 2.00000000E+00	 2.27817000E-01	 0.00000000E+00
					 2.00000000E+00	 2.27817000E-01	 1.00000000E-01
					 1.50000000E+00	 4.20319000E-01	-6.93889000E-18
					 1.50000000E+00	 4.20319000E-01	 1.00000000E-01
					 2.00000000E+00	 1.57815000E-01	 0.00000000E+00
					 2.00000000E+00	 1.57815000E-01	 1.00000000E-01
					 1.50000000E+00	 3.35866000E-01	-6.93889000E-18
					 1.50000000E+00	 3.35866000E-01	 1.00000000E-01
					 2.00000000E+00	 1.02976000E-01	 0.00000000E+00
					 2.00000000E+00	 1.02976000E-01	 1.00000000E-01
					 1.50000000E+00	 2.41581000E-01	-6.93889000E-18
					 1.50000000E+00	 2.41581000E-01	 1.00000000E-01
					 2.00000000E+00	 6.00170000E-02	 0.00000000E+00
					 2.00000000E+00	 6.00170000E-02	 1.00000000E-01
					 1.50000000E+00	 1.31818000E-01	 6.93889000E-18
					 1.50000000E+00	 1.31818000E-01	 1.00000000E-01
					 2.00000000E+00	 2.63635000E-02	 0.00000000E+00
					 2.00000000E+00	 2.63635000E-02	 1.00000000E-01
					 1.50000000E+00	 0.00000000E+00	 0.00000000E+00
					 1.50000000E+00	 0.00000000E+00	 1.00000000E-01
					 2.00000000E+00	 0.00000000E+00	 0.00000000E+00
					 2.00000000E+00	 0.00000000E+00	 1.00000000E-01
					 2.50000000E+00	 1.00000000E+00	 0.00000000E+00
					 2.50000000E+00	 1.00000000E+00	 1.00000000E-01
					 2.50000000E+00	 8.68182000E-01	 0.00000000E+00
					 2.50000000E+00	 8.68182000E-01	 1.00000000E-01
					 3.00000000E+00	 1.00000000E+00	 0.00000000E+00
					 3.00000000E+00	 1.00000000E+00	 1.00000000E-01
					 3.00000000E+00	 9.73636000E-01	 0.00000000E+00
					 3.00000000E+00	 9.73636000E-01	 1.00000000E-01
					 2.50000000E+00	 7.58419000E-01	 6.93889000E-18
					 2.50000000E+00	 7.58419000E-01	 1.00000000E-01
					 3.00000000E+00	 9.39983000E-01	 0.00000000E+00
					 3.00000000E+00	 9.39983000E-01	 1.00000000E-01
					 2.50000000E+00	 6.64134000E-01	-6.93889000E-18
					 2.50000000E+00	 6.64134000E-01	 1.00000000E-01
					 3.00000000E+00	 8.97024000E-01	 0.00000000E+00
					 3.00000000E+00	 8.97024000E-01	 1.00000000E-01
					 2.50000000E+00	 5.79681000E-01	 0.00000000E+00
					 2.50000000E+00	 5.79681000E-01	 1.00000000E-01
					 3.00000000E+00	 8.42185000E-01	 0.00000000E+00
					 3.00000000E+00	 8.42185000E-01	 1.00000000E-01
					 2.50000000E+00	 5.00000000E-01	 6.93889000E-18
					 2.50000000E+00	 5.00000000E-01	 1.00000000E-01
					 3.00000000E+00	 7.72183000E-01	 0.00000000E+00
					 3.00000000E+00	 7.72183000E-01	 1.00000000E-01
					 2.50000000E+00	 4.20319000E-01	-1.38778000E-17
					 2.50000000E+00	 4.20319000E-01	 1.00000000E-01
					 3.00000000E+00	 6.82824000E-01	 0.00000000E+00
					 3.00000000E+00	 6.82824000E-01	 1.00000000E-01
					 2.50000000E+00	 3.35866000E-01	-6.93889000E-18
					 2.50000000E+00	 3.35866000E-01	 1.00000000E-01
					 3.00000000E+00	 5.68756000E-01	 0.00000000E+00
					 3.00000000E+00	 5.68756000E-01	 1.00000000E-01
					 2.50000000E+00	 2.41581000E-01	 6.93889000E-18
					 2.50000000E+00	 2.41581000E-01	 1.00000000E-01
					 3.00000000E+00	 4.23146000E-01	 0.00000000E+00
					 3.00000000E+00	 4.23146000E-01	 1.00000000E-01
					 2.50000000E+00	 1.31818000E-01	 6.93889000E-18
					 2.50000000E+00	 1.31818000E-01	 1.00000000E-01
					 3.00000000E+00	 2.37272000E-01	 0.00000000E+00
					 3.00000000E+00	 2.37272000E-01	 1.00000000E-01
					 2.50000000E+00	 0.00000000E+00	 0.00000000E+00
					 2.50000000E+00	 0.00000000E+00	 1.00000000E-01
					 3.00000000E+00	 0.00000000E+00	 0.00000000E+00
					 3.00000000E+00	 0.00000000E+00	 1.00000000E-01
					 3.50000000E+00	 1.00000000E+00	 0.00000000E+00
					 3.50000000E+00	 1.00000000E+00	 1.00000000E-01
					 3.50000000E+00	 8.68182000E-01	 0.00000000E+00
					 3.50000000E+00	 8.68182000E-01	 1.00000000E-01
					 4.00000000E+00	 1.00000000E+00	 0.00000000E+00
					 4.00000000E+00	 1.00000000E+00	 1.00000000E-01
					 4.00000000E+00	 7.62728000E-01	 0.00000000E+00
					 4.00000000E+00	 7.62728000E-01	 1.00000000E-01
					 3.50000000E+00	 7.58419000E-01	-1.38778000E-17
					 3.50000000E+00	 7.58419000E-01	 1.00000000E-01
					 4.00000000E+00	 5.76854000E-01	 0.00000000E+00
					 4.00000000E+00	 5.76854000E-01	 1.00000000E-01
					 3.50000000E+00	 6.64134000E-01	-6.93889000E-18
					 3.50000000E+00	 6.64134000E-01	 1.00000000E-01
					 4.00000000E+00	 4.31244000E-01	 0.00000000E+00
					 4.00000000E+00	 4.31244000E-01	 1.00000000E-01
					 3.50000000E+00	 5.79681000E-01	 0.00000000E+00
					 3.50000000E+00	 5.79681000E-01	 1.00000000E-01
					 4.00000000E+00	 3.17176000E-01	 0.00000000E+00
					 4.00000000E+00	 3.17176000E-01	 1.00000000E-01
					 3.50000000E+00	 5.00000000E-01	 6.93889000E-18
					 3.50000000E+00	 5.00000000E-01	 1.00000000E-01
					 4.00000000E+00	 2.27817000E-01	 0.00000000E+00
					 4.00000000E+00	 2.27817000E-01	 1.00000000E-01
					 3.50000000E+00	 4.20319000E-01	-1.38778000E-17
					 3.50000000E+00	 4.20319000E-01	 1.00000000E-01
					 4.00000000E+00	 1.57815000E-01	 0.00000000E+00
					 4.00000000E+00	 1.57815000E-01	 1.00000000E-01
					 3.50000000E+00	 3.35866000E-01	-6.93889000E-18
					 3.50000000E+00	 3.35866000E-01	 1.00000000E-01
[...]
			<PointData>
				<DataArray type="Float32" Name="V3DF" NumberOfComponents="3" ComponentName0="V1" ComponentName1="V2" ComponentName2="V3" format="ascii">
					 9.75000000E-01	 0.00000000E+00	 0.00000000E+00
					 9.75000000E-01	 0.00000000E+00	 0.00000000E+00
					 1.00000000E+00	 0.00000000E+00	 0.00000000E+00
					 1.00000000E+00	 0.00000000E+00	 0.00000000E+00
					 9.00000000E-01	 0.00000000E+00	 0.00000000E+00
					 9.00000000E-01	 0.00000000E+00	 0.00000000E+00
					 9.41550000E-01	-5.28272000E-04	 0.00000000E+00
					 9.41550000E-01	-5.28272000E-04	 0.00000000E+00
					 1.00000000E+00	 0.00000000E+00	 0.00000000E+00
					 1.00000000E+00	 0.00000000E+00	 0.00000000E+00
					 9.63244000E-01	-3.41333000E-05	 0.00000000E+00
					 9.63244000E-01	-3.41333000E-05	 0.00000000E+00
					 8.00000000E-01	 0.00000000E+00	 0.00000000E+00
					 8.00000000E-01	 0.00000000E+00	 0.00000000E+00
					 8.80186000E-01	-6.63813000E-04	 0.00000000E+00
					 8.80186000E-01	-6.63813000E-04	 0.00000000E+00
					 9.18325000E-01	 1.53272000E-04	 0.00000000E+00
					 9.18325000E-01	 1.53272000E-04	 0.00000000E+00
					 7.00000000E-01	 0.00000000E+00	 0.00000000E+00
					 7.00000000E-01	 0.00000000E+00	 0.00000000E+00
					 8.14081000E-01	-6.49346000E-04	 0.00000000E+00
					 8.14081000E-01	-6.49346000E-04	 0.00000000E+00
					 8.64227000E-01	 3.39904000E-04	 0.00000000E+00
					 8.64227000E-01	 3.39904000E-04	 0.00000000E+00
					 6.00000000E-01	 0.00000000E+00	 0.00000000E+00
					 6.00000000E-01	 0.00000000E+00	 0.00000000E+00
					 7.41426000E-01	-5.27130000E-04	 0.00000000E+00
					 7.41426000E-01	-5.27130000E-04	 0.00000000E+00
					 7.99629000E-01	 4.44866000E-04	 0.00000000E+00
					 7.99629000E-01	 4.44866000E-04	 0.00000000E+00
					 5.00000000E-01	 0.00000000E+00	 0.00000000E+00
					 5.00000000E-01	 0.00000000E+00	 0.00000000E+00
					 6.59996000E-01	-3.29729000E-04	 0.00000000E+00
					 6.59996000E-01	-3.29729000E-04	 0.00000000E+00
					 7.22714000E-01	 4.46297000E-04	 0.00000000E+00
					 7.22714000E-01	 4.46297000E-04	 0.00000000E+00
					 4.00000000E-01	 0.00000000E+00	 0.00000000E+00
					 4.00000000E-01	 0.00000000E+00	 0.00000000E+00
					 5.67037000E-01	-8.63693000E-05	 0.00000000E+00
					 5.67037000E-01	-8.63693000E-05	 0.00000000E+00
					 6.30678000E-01	 3.68917000E-04	 0.00000000E+00
					 6.30678000E-01	 3.68917000E-04	 0.00000000E+00
					 3.00000000E-01	 0.00000000E+00	 0.00000000E+00
					 3.00000000E-01	 0.00000000E+00	 0.00000000E+00
					 4.59139000E-01	 1.72841000E-04	 0.00000000E+00
					 4.59139000E-01	 1.72841000E-04	 0.00000000E+00
					 5.19364000E-01	 2.55071000E-04	 0.00000000E+00
					 5.19364000E-01	 2.55071000E-04	 0.00000000E+00
					 2.00000000E-01	 0.00000000E+00	 0.00000000E+00
					 2.00000000E-01	 0.00000000E+00	 0.00000000E+00
					 3.32094000E-01	 4.17799000E-04	 0.00000000E+00
					 3.32094000E-01	 4.17799000E-04	 0.00000000E+00
					 3.83039000E-01	 1.33650000E-04	 0.00000000E+00
					 3.83039000E-01	 1.33650000E-04	 0.00000000E+00
					 1.00000000E-01	 0.00000000E+00	 0.00000000E+00
					 1.00000000E-01	 0.00000000E+00	 0.00000000E+00
					 1.80737000E-01	 5.98884000E-04	 0.00000000E+00
					 1.80737000E-01	 5.98884000E-04	 0.00000000E+00
					 2.14118000E-01	 3.16939000E-07	 0.00000000E+00
					 2.14118000E-01	 3.16939000E-07	 0.00000000E+00
					 2.50000000E-02	 0.00000000E+00	 0.00000000E+00
					 2.50000000E-02	 0.00000000E+00	 0.00000000E+00
					 0.00000000E+00	 0.00000000E+00	 0.00000000E+00
					 0.00000000E+00	 0.00000000E+00	 0.00000000E+00
					 0.00000000E+00	 0.00000000E+00	 0.00000000E+00
					 0.00000000E+00	 0.00000000E+00	 0.00000000E+00
					 1.00000000E+00	 0.00000000E+00	 0.00000000E+00
					 1.00000000E+00	 0.00000000E+00	 0.00000000E+00
					 8.52735000E-01	 1.49126000E-03	 0.00000000E+00
					 8.52735000E-01	 1.49126000E-03	 0.00000000E+00
					 1.00000000E+00	 0.00000000E+00	 0.00000000E+00
					 1.00000000E+00	 0.00000000E+00	 0.00000000E+00
					 7.92619000E-01	 3.77531000E-05	 0.00000000E+00
					 7.92619000E-01	 3.77531000E-05	 0.00000000E+00
					 7.35229000E-01	 1.38275000E-03	 0.00000000E+00
					 7.35229000E-01	 1.38275000E-03	 0.00000000E+00
					 6.30586000E-01	 5.38418000E-05	 0.00000000E+00
					 6.30586000E-01	 5.38418000E-05	 0.00000000E+00
					 6.40202000E-01	 1.05375000E-03	 0.00000000E+00
					 6.40202000E-01	 1.05375000E-03	 0.00000000E+00
					 4.98834000E-01	 6.10984000E-05	 0.00000000E+00
					 4.98834000E-01	 6.10984000E-05	 0.00000000E+00
					 5.60342000E-01	 5.14920000E-04	 0.00000000E+00
					 5.60342000E-01	 5.14920000E-04	 0.00000000E+00
					 3.89755000E-01	 7.07347000E-05	 0.00000000E+00
					 3.89755000E-01	 7.07347000E-05	 0.00000000E+00
					 4.88658000E-01	-1.43500000E-04	 0.00000000E+00
					 4.88658000E-01	-1.43500000E-04	 0.00000000E+00
					 2.97154000E-01	 7.29987000E-05	 0.00000000E+00
					 2.97154000E-01	 7.29987000E-05	 0.00000000E+00
					 4.18182000E-01	-7.67897000E-04	 0.00000000E+00
					 4.18182000E-01	-7.67897000E-04	 0.00000000E+00
					 2.16828000E-01	 6.03240000E-05	 0.00000000E+00
					 2.16828000E-01	 6.03240000E-05	 0.00000000E+00
					 3.41701000E-01	-1.21728000E-03	 0.00000000E+00
					 3.41701000E-01	-1.21728000E-03	 0.00000000E+00
					 1.46828000E-01	 2.93219000E-05	 0.00000000E+00
					 1.46828000E-01	 2.93219000E-05	 0.00000000E+00
					 2.51608000E-01	-1.43112000E-03	 0.00000000E+00
					 2.51608000E-01	-1.43112000E-03	 0.00000000E+00
					 8.70567000E-02	-1.38987000E-05	 0.00000000E+00
					 8.70567000E-02	-1.38987000E-05	 0.00000000E+00
					 1.39911000E-01	-1.46845000E-03	 0.00000000E+00
					 1.39911000E-01	-1.46845000E-03	 0.00000000E+00
					 3.81425000E-02	-4.76616000E-05	 0.00000000E+00
					 3.81425000E-02	-4.76616000E-05	 0.00000000E+00
					 0.00000000E+00	 0.00000000E+00	 0.00000000E+00
					 0.00000000E+00	 0.00000000E+00	 0.00000000E+00
					 0.00000000E+00	 0.00000000E+00	 0.00000000E+00
					 0.00000000E+00	 0.00000000E+00	 0.00000000E+00
					 1.00000000E+00	 0.00000000E+00	 0.00000000E+00
					 1.00000000E+00	 0.00000000E+00	 0.00000000E+00
					 8.58066000E-01	-1.63684000E-03	 0.00000000E+00
					 8.58066000E-01	-1.63684000E-03	 0.00000000E+00
					 1.00000000E+00	 0.00000000E+00	 0.00000000E+00
					 1.00000000E+00	 0.00000000E+00	 0.00000000E+00
					 9.60330000E-01	 5.06307000E-05	 0.00000000E+00
					 9.60330000E-01	 5.06307000E-05	 0.00000000E+00
					 7.45071000E-01	-1.58239000E-03	 0.00000000E+00
					 7.45071000E-01	-1.58239000E-03	 0.00000000E+00
					 9.11083000E-01	 5.51356000E-05	 0.00000000E+00
					 9.11083000E-01	 5.51356000E-05	 0.00000000E+00
					 6.53093000E-01	-1.30296000E-03	 0.00000000E+00
					 6.53093000E-01	-1.30296000E-03	 0.00000000E+00
					 8.51831000E-01	 3.54236000E-05	 0.00000000E+00
					 8.51831000E-01	 3.54236000E-05	 0.00000000E+00
					 5.75067000E-01	-7.46493000E-04	 0.00000000E+00
					 5.75067000E-01	-7.46493000E-04	 0.00000000E+00
					 7.82625000E-01	 6.32406000E-06	 0.00000000E+00
					 7.82625000E-01	 6.32406000E-06	 0.00000000E+00
					 5.03866000E-01	-2.37481000E-06	 0.00000000E+00
					 5.03866000E-01	-2.37481000E-06	 0.00000000E+00
					 7.03097000E-01	-1.84361000E-05	 0.00000000E+00
					 7.03097000E-01	-1.84361000E-05	 0.00000000E+00
					 4.32374000E-01	 7.44989000E-04	 0.00000000E+00
					 4.32374000E-01	 7.44989000E-04	 0.00000000E+00
					 6.11167000E-01	-3.01889000E-05	 0.00000000E+00
					 6.11167000E-01	-3.01889000E-05	 0.00000000E+00
					 3.53413000E-01	 1.30847000E-03	 0.00000000E+00
					 3.53413000E-01	 1.30847000E-03	 0.00000000E+00
					 5.02515000E-01	-2.94731000E-05	 0.00000000E+00
					 5.02515000E-01	-2.94731000E-05	 0.00000000E+00
					 2.59688000E-01	 1.59084000E-03	 0.00000000E+00
					 2.59688000E-01	 1.59084000E-03	 0.00000000E+00
					 3.70761000E-01	-2.47116000E-05	 0.00000000E+00
					 3.70761000E-01	-2.47116000E-05	 0.00000000E+00
					 1.43884000E-01	 1.64781000E-03	 0.00000000E+00
					 1.43884000E-01	 1.64781000E-03	 0.00000000E+00
					 2.07685000E-01	-1.34007000E-05	 0.00000000E+00
					 2.07685000E-01	-1.34007000E-05	 0.00000000E+00
					 0.00000000E+00	 0.00000000E+00	 0.00000000E+00
					 0.00000000E+00	 0.00000000E+00	 0.00000000E+00
					 0.00000000E+00	 0.00000000E+00	 0.00000000E+00
					 0.00000000E+00	 0.00000000E+00	 0.00000000E+00
					 1.00000000E+00	 0.00000000E+00	 0.00000000E+00
					 1.00000000E+00	 0.00000000E+00	 0.00000000E+00
					 8.54135000E-01	 1.69903000E-03	 0.00000000E+00
					 8.54135000E-01	 1.69903000E-03	 0.00000000E+00
					 1.00000000E+00	 0.00000000E+00	 0.00000000E+00
					 1.00000000E+00	 0.00000000E+00	 0.00000000E+00
					 7.92655000E-01	 4.34616000E-06	 0.00000000E+00
					 7.92655000E-01	 4.34616000E-06	 0.00000000E+00
					 7.38465000E-01	 1.63236000E-03	 0.00000000E+00
					 7.38465000E-01	 1.63236000E-03	 0.00000000E+00
					 6.30659000E-01	 4.17199000E-06	 0.00000000E+00
					 6.30659000E-01	 4.17199000E-06	 0.00000000E+00
					 6.45437000E-01	 1.32660000E-03	 0.00000000E+00
					 6.45437000E-01	 1.32660000E-03	 0.00000000E+00
					 4.98931000E-01	-3.32547000E-07	 0.00000000E+00
					 4.98931000E-01	-3.32547000E-07	 0.00000000E+00
					 5.67267000E-01	 7.46437000E-04	 0.00000000E+00
					 5.67267000E-01	 7.46437000E-04	 0.00000000E+00
					 3.89860000E-01	 4.67334000E-06	 0.00000000E+00
					 3.89860000E-01	 4.67334000E-06	 0.00000000E+00
					 4.96515000E-01	-1.53057000E-05	 0.00000000E+00
					 4.96515000E-01	-1.53057000E-05	 0.00000000E+00
					 2.97248000E-01	 1.08429000E-05	 0.00000000E+00
					 2.97248000E-01	 1.08429000E-05	 0.00000000E+00
					 4.25997000E-01	-7.72447000E-04	 0.00000000E+00
					 4.25997000E-01	-7.72447000E-04	 0.00000000E+00
					 2.16893000E-01	 1.17999000E-05	 0.00000000E+00
					 2.16893000E-01	 1.17999000E-05	 0.00000000E+00
					 3.48537000E-01	-1.34183000E-03	 0.00000000E+00
					 3.48537000E-01	-1.34183000E-03	 0.00000000E+00
					 1.46856000E-01	 2.37835000E-06	 0.00000000E+00
					 1.46856000E-01	 2.37835000E-06	 0.00000000E+00
					 2.56703000E-01	-1.63411000E-03	 0.00000000E+00
					 2.56703000E-01	-1.63411000E-03	 0.00000000E+00
					 8.70514000E-02	-1.46615000E-05	 0.00000000E+00
					 8.70514000E-02	-1.46615000E-05	 0.00000000E+00
					 1.42676000E-01	-1.69950000E-03	 0.00000000E+00
					 1.42676000E-01	-1.69950000E-03	 0.00000000E+00
					 3.81229000E-02	-2.47112000E-05	 0.00000000E+00
					 3.81229000E-02	-2.47112000E-05	 0.00000000E+00
					 0.00000000E+00	 0.00000000E+00	 0.00000000E+00
					 0.00000000E+00	 0.00000000E+00	 0.00000000E+00
					 0.00000000E+00	 0.00000000E+00	 0.00000000E+00
					 0.00000000E+00	 0.00000000E+00	 0.00000000E+00
					 1.00000000E+00	 0.00000000E+00	 0.00000000E+00
					 1.00000000E+00	 0.00000000E+00	 0.00000000E+00
					 8.58143000E-01	-1.66481000E-03	 0.00000000E+00
					 8.58143000E-01	-1.66481000E-03	 0.00000000E+00
					 1.00000000E+00	 0.00000000E+00	 0.00000000E+00
					 1.00000000E+00	 0.00000000E+00	 0.00000000E+00
					 9.49103000E-01	 7.42276000E-04	 0.00000000E+00
					 9.49103000E-01	 7.42276000E-04	 0.00000000E+00
					 7.45211000E-01	-1.60195000E-03	 0.00000000E+00
					 7.45211000E-01	-1.60195000E-03	 0.00000000E+00
					 8.93453000E-01	 4.87882000E-04	 0.00000000E+00
					 8.93453000E-01	 4.87882000E-04	 0.00000000E+00
					 6.53254000E-01	-1.28804000E-03	 0.00000000E+00
					 6.53254000E-01	-1.28804000E-03	 0.00000000E+00
					 8.32378000E-01	-8.43681000E-06	 0.00000000E+00
					 8.32378000E-01	-8.43681000E-06	 0.00000000E+00
					 5.75208000E-01	-6.92449000E-04	 0.00000000E+00
					 5.75208000E-01	-6.92449000E-04	 0.00000000E+00
					 7.64072000E-01	-4.02526000E-04	 0.00000000E+00
					 7.64072000E-01	-4.02526000E-04	 0.00000000E+00
					 5.03964000E-01	 7.88411000E-05	 0.00000000E+00
					 5.03964000E-01	 7.88411000E-05	 0.00000000E+00
					 6.86705000E-01	-6.12186000E-04	 0.00000000E+00
					 6.86705000E-01	-6.12186000E-04	 0.00000000E+00
					 4.32426000E-01	 8.35031000E-04	 0.00000000E+00
					 4.32426000E-01	 8.35031000E-04	 0.00000000E+00
					 5.97372000E-01	-6.61757000E-04	 0.00000000E+00
					 5.97372000E-01	-6.61757000E-04	 0.00000000E+00
					 3.53426000E-01	 1.39178000E-03	 0.00000000E+00
					 3.53426000E-01	 1.39178000E-03	 0.00000000E+00
					 4.91501000E-01	-6.11706000E-04	 0.00000000E+00
					 4.91501000E-01	-6.11706000E-04	 0.00000000E+00
					 2.59675000E-01	 1.66209000E-03	 0.00000000E+00
					 2.59675000E-01	 1.66209000E-03	 0.00000000E+00
					 3.62834000E-01	-5.19895000E-04	 0.00000000E+00
					 3.62834000E-01	-5.19895000E-04	 0.00000000E+00
					 1.43867000E-01	 1.70583000E-03	 0.00000000E+00
					 1.43867000E-01	 1.70583000E-03	 0.00000000E+00
					 2.03440000E-01	-4.40097000E-04	 0.00000000E+00
					 2.03440000E-01	-4.40097000E-04	 0.00000000E+00
					 0.00000000E+00	 0.00000000E+00	 0.00000000E+00
					 0.00000000E+00	 0.00000000E+00	 0.00000000E+00
					 0.00000000E+00	 0.00000000E+00	 0.00000000E+00
					 0.00000000E+00	 0.00000000E+00	 0.00000000E+00
					 1.00000000E+00	 0.00000000E+00	 0.00000000E+00
					 1.00000000E+00	 0.00000000E+00	 0.00000000E+00
					 8.86939000E-01	 1.01042000E-03	 0.00000000E+00
					 8.86939000E-01	 1.01042000E-03	 0.00000000E+00
					 1.00000000E+00	 0.00000000E+00	 0.00000000E+00
					 1.00000000E+00	 0.00000000E+00	 0.00000000E+00
					 8.58848000E-01	-1.24137000E-03	 0.00000000E+00
					 8.58848000E-01	-1.24137000E-03	 0.00000000E+00
					 7.93818000E-01	 9.93292000E-04	 0.00000000E+00
					 7.93818000E-01	 9.93292000E-04	 0.00000000E+00
					 7.41544000E-01	-1.13434000E-03	 0.00000000E+00
					 7.41544000E-01	-1.13434000E-03	 0.00000000E+00
					 7.12278000E-01	 9.10736000E-04	 0.00000000E+00
					 7.12278000E-01	 9.10736000E-04	 0.00000000E+00
					 6.41975000E-01	-8.83276000E-04	 0.00000000E+00
					 6.41975000E-01	-8.83276000E-04	 0.00000000E+00
					 6.36837000E-01	 7.21185000E-04	 0.00000000E+00
					 6.36837000E-01	 7.21185000E-04	 0.00000000E+00
					 5.54179000E-01	-5.80161000E-04	 0.00000000E+00
					 5.54179000E-01	-5.80161000E-04	 0.00000000E+00
					 5.62117000E-01	 4.08943000E-04	 0.00000000E+00
					 5.62117000E-01	 4.08943000E-04	 0.00000000E+00
					 4.72877000E-01	-2.55788000E-04	 0.00000000E+00
					 4.72877000E-01	-2.55788000E-04	 0.00000000E+00
					 4.82747000E-01	 2.06993000E-05	 0.00000000E+00
					 4.82747000E-01	 2.06993000E-05	 0.00000000E+00
					 3.93301000E-01	 7.95793000E-05	 0.00000000E+00
					 3.93301000E-01	 7.95793000E-05	 0.00000000E+00
					 3.93178000E-01	-3.68419000E-04	 0.00000000E+00
					 3.93178000E-01	-3.68419000E-04	 0.00000000E+00
					 3.10958000E-01	 4.18229000E-04	 0.00000000E+00
					 3.10958000E-01	 4.18229000E-04	 0.00000000E+00
					 2.87335000E-01	-6.94953000E-04	 0.00000000E+00
					 2.87335000E-01	-6.94953000E-04	 0.00000000E+00
					 2.21398000E-01	 7.43103000E-04	 0.00000000E+00
					 2.21398000E-01	 7.43103000E-04	 0.00000000E+00
					 1.58149000E-01	-8.69242000E-04	 0.00000000E+00
					 1.58149000E-01	-8.69242000E-04	 0.00000000E+00
					 1.19954000E-01	 9.76820000E-04	 0.00000000E+00
					 1.19954000E-01	 9.76820000E-04	 0.00000000E+00
					 0.00000000E+00	 0.00000000E+00	 0.00000000E+00
					 0.00000000E+00	 0.00000000E+00	 0.00000000E+00
					 0.00000000E+00	 0.00000000E+00	 0.00000000E+00
					 0.00000000E+00	 0.00000000E+00	 0.00000000E+00
				</DataArray>
				<DataArray type="Float32" Name="PS3DF" NumberOfComponents="1" ComponentName0="PS" format="ascii">
					 1.00058000E+00
					 1.00058000E+00
					 1.00078000E+00
					 1.00078000E+00
					 1.00000000E+00
					 1.00000000E+00
					 1.00330000E+00
					 1.00330000E+00
					 1.00103000E+00
					 1.00103000E+00
					 1.00238000E+00
					 1.00238000E+00
					 1.00000000E+00
					 1.00000000E+00
					 1.00521000E+00
					 1.00521000E+00
					 1.00359000E+00
					 1.00359000E+00
					 1.00000000E+00
					 1.00000000E+00
					 1.00656000E+00
					 1.00656000E+00
					 1.00405000E+00
					 1.00405000E+00
					 1.00000000E+00
					 1.00000000E+00
					 1.00772000E+00
					 1.00772000E+00
					 1.00416000E+00
					 1.00416000E+00
					 1.00000000E+00
					 1.00000000E+00
					 1.00862000E+00
					 1.00862000E+00
					 1.00411000E+00
					 1.00411000E+00
					 1.00000000E+00
					 1.00000000E+00
					 1.00913000E+00
					 1.00913000E+00
					 1.00397000E+00
					 1.00397000E+00
					 1.00000000E+00
					 1.00000000E+00
					 1.00903000E+00
					 1.00903000E+00
					 1.00380000E+00
					 1.00380000E+00
					 1.00000000E+00
					 1.00000000E+00
					 1.00820000E+00
					 1.00820000E+00
					 1.00364000E+00
					 1.00364000E+00
					 1.00000000E+00
					 1.00000000E+00
					 1.00609000E+00
					 1.00609000E+00
					 1.00331000E+00
					 1.00331000E+00
					 1.00111000E+00
					 1.00111000E+00
					 1.00248000E+00
					 1.00248000E+00
					 1.00261000E+00
					 1.00261000E+00
					 1.00212000E+00
					 1.00212000E+00
					 1.00046000E+00
					 1.00046000E+00
					 1.00250000E+00
					 1.00250000E+00
					 1.00319000E+00
					 1.00319000E+00
					 9.98806000E-01
					 9.98806000E-01
					 1.00343000E+00
					 1.00343000E+00
					 9.97493000E-01
					 9.97493000E-01
					 1.00345000E+00
					 1.00345000E+00
					 9.96813000E-01
					 9.96813000E-01
					 1.00345000E+00
					 1.00345000E+00
					 9.96657000E-01
					 9.96657000E-01
					 1.00342000E+00
					 1.00342000E+00
					 9.97008000E-01
					 9.97008000E-01
					 1.00333000E+00
					 1.00333000E+00
					 9.97875000E-01
					 9.97875000E-01
					 1.00315000E+00
					 1.00315000E+00
					 9.99228000E-01
					 9.99228000E-01
					 1.00282000E+00
					 1.00282000E+00
					 1.00068000E+00
					 1.00068000E+00
					 1.00199000E+00
					 1.00199000E+00
					 1.00208000E+00
					 1.00208000E+00
					 1.00130000E+00
					 1.00130000E+00
					 1.00175000E+00
					 1.00175000E+00
					 1.00561000E+00
					 1.00561000E+00
					 1.00143000E+00
					 1.00143000E+00
					 1.00218000E+00
					 1.00218000E+00
					 1.00835000E+00
					 1.00835000E+00
					 1.00300000E+00
					 1.00300000E+00
					 1.00998000E+00
					 1.00998000E+00
					 1.00328000E+00
					 1.00328000E+00
					 1.01098000E+00
					 1.01098000E+00
					 1.00347000E+00
					 1.00347000E+00
					 1.01154000E+00
					 1.01154000E+00
					 1.00374000E+00
					 1.00374000E+00
					 1.01144000E+00
					 1.01144000E+00
					 1.00398000E+00
					 1.00398000E+00
					 1.01053000E+00
					 1.01053000E+00
					 1.00405000E+00
					 1.00405000E+00
					 1.00885000E+00
					 1.00885000E+00
					 1.00399000E+00
					 1.00399000E+00
					 1.00595000E+00
					 1.00595000E+00
					 1.00356000E+00
					 1.00356000E+00
					 1.00173000E+00
					 1.00173000E+00
					 1.00252000E+00
					 1.00252000E+00
					 1.00218000E+00
					 1.00218000E+00
					 1.00024000E+00
					 1.00024000E+00
					 1.00250000E+00
					 1.00250000E+00
					 1.00320000E+00
					 1.00320000E+00
					 9.98356000E-01
					 9.98356000E-01
					 1.00346000E+00
					 1.00346000E+00
					 9.96853000E-01
					 9.96853000E-01
					 1.00355000E+00
					 1.00355000E+00
					 9.96015000E-01
					 9.96015000E-01
					 1.00363000E+00
					 1.00363000E+00
					 9.95756000E-01
					 9.95756000E-01
					 1.00360000E+00
					 1.00360000E+00
					 9.96076000E-01
					 9.96076000E-01
					 1.00348000E+00
					 1.00348000E+00
					 9.96975000E-01
					 9.96975000E-01
					 1.00325000E+00
					 1.00325000E+00
					 9.98484000E-01
					 9.98484000E-01
					 1.00287000E+00
					 1.00287000E+00
					 1.00027000E+00
					 1.00027000E+00
					 1.00202000E+00
					 1.00202000E+00
					 1.00209000E+00
					 1.00209000E+00
					 1.00132000E+00
					 1.00132000E+00
					 1.00175000E+00
					 1.00175000E+00
					 1.00569000E+00
					 1.00569000E+00
					 1.00139000E+00
					 1.00139000E+00
					 1.00059000E+00
					 1.00059000E+00
					 1.00853000E+00
					 1.00853000E+00
					 1.00031000E+00
					 1.00031000E+00
					 1.01034000E+00
					 1.01034000E+00
					 1.00032000E+00
					 1.00032000E+00
					 1.01148000E+00
					 1.01148000E+00
					 1.00070000E+00