<?xml version="1.0"?>
<VTKFile type="UnstructuredGrid" version="0.1" byte_order="LittleEndian">
	<UnstructuredGrid>
		<Piece NumberOfPoints="286" NumberOfCells="120">
			<Points>
				<DataArray type="Float64" NumberOfComponents="3" format="ascii">
					 0.00000000E+00	 1.00000000E+00	 1.00000000E-01
					 0.00000000E+00	 1.00000000E+00	 0.00000000E+00
					 5.00000000E-01	 1.00000000E+00	 0.00000000E+00
					 5.00000000E-01	 1.00000000E+00	 1.00000000E-01
					 0.00000000E+00	 9.00000000E-01	 1.00000000E-01
					 0.00000000E+00	 9.00000000E-01	 0.00000000E+00
					 5.00000000E-01	 9.36818000E-01	-6.93889000E-18
					 5.00000000E-01	 9.36818000E-01	 1.00000000E-01
					 1.00000000E+00	 1.00000000E+00	 0.00000000E+00
					 1.00000000E+00	 1.00000000E+00	 1.00000000E-01
					 1.00000000E+00	 9.73636000E-01	 0.00000000E+00
					 1.00000000E+00	 9.73636000E-01	 1.00000000E-01
					 0.00000000E+00	 8.00000000E-01	 1.00000000E-01
					 0.00000000E+00	 8.00000000E-01	 0.00000000E+00
					 5.00000000E-01	 8.69991000E-01	 6.93889000E-18
					 5.00000000E-01	 8.69991000E-01	 1.00000000E-01
					 1.00000000E+00	 9.39983000E-01	 0.00000000E+00
					 1.00000000E+00	 9.39983000E-01	 1.00000000E-01
					 0.00000000E+00	 7.00000000E-01	 1.00000000E-01
					 0.00000000E+00	 7.00000000E-01	 0.00000000E+00
					 5.00000000E-01	 7.98512000E-01	 6.93889000E-18
					 5.00000000E-01	 7.98512000E-01	 1.00000000E-01
					 1.00000000E+00	 8.97024000E-01	 0.00000000E+00
					 1.00000000E+00	 8.97024000E-01	 1.00000000E-01
					 0.00000000E+00	 6.00000000E-01	 1.00000000E-01
					 0.00000000E+00	 6.00000000E-01	 0.00000000E+00
					 5.00000000E-01	 7.21093000E-01	-1.38778000E-17
					 5.00000000E-01	 7.21093000E-01	 1.00000000E-01
					 1.00000000E+00	 8.42185000E-01	 0.00000000E+00
					 1.00000000E+00	 8.42185000E-01	 1.00000000E-01
					 0.00000000E+00	 5.00000000E-01	 1.00000000E-01
					 0.00000000E+00	 5.00000000E-01	 0.00000000E+00
					 5.00000000E-01	 6.36092000E-01	 6.93889000E-18
					 5.00000000E-01	 6.36092000E-01	 1.00000000E-01
					 1.00000000E+00	 7.72183000E-01	 0.00000000E+00
					 1.00000000E+00	 7.72183000E-01	 1.00000000E-01
					 0.00000000E+00	 4.00000000E-01	 1.00000000E-01
					 0.00000000E+00	 4.00000000E-01	 0.00000000E+00
					 5.00000000E-01	 5.41412000E-01	 6.93889000E-18
					 5.00000000E-01	 5.41412000E-01	 1.00000000E-01
					 1.00000000E+00	 6.82824000E-01	 0.00000000E+00
					 1.00000000E+00	 6.82824000E-01	 1.00000000E-01
					 0.00000000E+00	 3.00000000E-01	 1.00000000E-01
					 0.00000000E+00	 3.00000000E-01	 0.00000000E+00
					 5.00000000E-01	 4.34378000E-01	 6.93889000E-18
					 5.00000000E-01	 4.34378000E-01	 1.00000000E-01
					 1.00000000E+00	 5.68756000E-01	 0.00000000E+00
					 1.00000000E+00	 5.68756000E-01	 1.00000000E-01
					 0.00000000E+00	 2.00000000E-01	 1.00000000E-01
					 0.00000000E+00	 2.00000000E-01	 0.00000000E+00
					 5.00000000E-01	 3.11573000E-01	 1.38778000E-17
					 5.00000000E-01	 3.11573000E-01	 1.00000000E-01
					 1.00000000E+00	 4.23146000E-01	 0.00000000E+00
					 1.00000000E+00	 4.23146000E-01	 1.00000000E-01
					 0.00000000E+00	 1.00000000E-01	 1.00000000E-01
					 0.00000000E+00	 1.00000000E-01	 0.00000000E+00
					 5.00000000E-01	 1.68636000E-01	-6.93889000E-18
					 5.00000000E-01	 1.68636000E-01	 1.00000000E-01
					 1.00000000E+00	 2.37272000E-01	 0.00000000E+00
					 1.00000000E+00	 2.37272000E-01	 1.00000000E-01
					 0.00000000E+00	 0.00000000E+00	 1.00000000E-01
					 0.00000000E+00	 0.00000000E+00	 0.00000000E+00
					 5.00000000E-01	 0.00000000E+00	 0.00000000E+00
					 5.00000000E-01	 0.00000000E+00	 1.00000000E-01
					 1.00000000E+00	 0.00000000E+00	 0.00000000E+00
					 1.00000000E+00	 0.00000000E+00	 1.00000000E-01
					 1.50000000E+00	 1.00000000E+00	 0.00000000E+00
					 1.50000000E+00	 1.00000000E+00	 1.00000000E-01
					 1.50000000E+00	 8.68182000E-01	 0.00000000E+00
					 1.50000000E+00	 8.68182000E-01	 1.00000000E-01
					 2.00000000E+00	 1.00000000E+00	 0.00000000E+00
					 2.00000000E+00	 1.00000000E+00	 1.00000000E-01
					 2.00000000E+00	 7.62728000E-01	 0.00000000E+00
					 2.00000000E+00	 7.62728000E-01	 1.00000000E-01
					 1.50000000E+00	 7.58419000E-01	-6.93889000E-18
					 1.50000000E+00	 7.58419000E-01	 1.00000000E-01
					 2.00000000E+00	 5.76854000E-01	 0.00000000E+00
					 2.00000000E+00	 5.76854000E-01	 1.00000000E-01
					 1.50000000E+00	 6.64134000E-01	-6.93889000E-18
					 1.50000000E+00	 6.64134000E-01	 1.00000000E-01
					 2.00000000E+00	 4.31244000E-01	 0.00000000E+00
					 2.00000000E+00	 4.31244000E-01	 1.00000000E-01
					 1.50000000E+00	 5.79681000E-01	 6.93889000E-18
					 1.50000000E+00	 5.79681000E-01	 1.00000000E-01
					 2.00000000E+00	 3.17176000E-01	 0.00000000E+00
					 2.00000000E+00	 3.17176000E-01	 1.00000000E-01
					 1.50000000E+00	 5.00000000E-01	 0.00000000E+00
					 1.50000000E+00	 5.00000000E-01	 1.00000000E-01
					 2.00000000E+00	 2.27817000E-01	 0.00000000E+00
					 2.00000000E+00	 2.27817000E-01	 1.00000000E-01
					 1.50000000E+00	 4.20319000E-01	-6.93889000E-18
					 1.50000000E+00	 4.20319000E-01	 1.00000000E-01
					 2.00000000E+00	 1.57815000E-01	 0.00000000E+00
					 2.00000000E+00	 1.57815000E-01	 1.00000000E-01
					 1.50000000E+00	 3.35866000E-01	-6.93889000E-18
					 1.50000000E+00	 3.35866000E-01	 1.00000000E-01
					 2.00000000E+00	 1.02976000E-01	 0.00000000E+00
					 2.00000000E+00	 1.02976000E-01	 1.00000000E-01
					 1.50000000E+00	 2.41581000E-01	-6.93889000E-18
					 1.50000000E+00	 2.41581000E-01	 1.00000000E-01
					 2.00000000E+00	 6.00170000E-02	 0.00000000E+00
					 2.00000000E+00	 6.00170000E-02	 1.00000000E-01
					 1.50000000E+00	 1.31818000E-01	 6.93889000E-18
					 1.50000000E+00	 1.31818000E-01	 1.00000000E-01
					 2.00000000E+00	 2.63635000E-02	 0.00000000E+00
					 2.00000000E+00	 2.63635000E-02	 1.00000000E-01
					 1.50000000E+00	 0.00000000E+00	 0.00000000E+00
					 1.50000000E+00	 0.00000000E+00	 1.00000000E-01
					 2.00000000E+00	 0.00000000E+00	 0.00000000E+00
					 2.00000000E+00	 0.00000000E+00	 1.00000000E-01
					 2.50000000E+00	 1.00000000E+00	 0.00000000E+00
					 2.50000000E+00	 1.00000000E+00	 1.00000000E-01
					 2.50000000E+00	 8.68182000E-01	 0.00000000E+00
					 2.50000000E+00	 8.68182000E-01	 1.00000000E-01
					 3.00000000E+00	 1.00000000E+00	 0.00000000E+00
					 3.00000000E+00	 1.00000000E+00	 1.00000000E-01
					 3.00000000E+00	 9.73636000E-01	 0.00000000E+00
					 3.00000000E+00	 9.73636000E-01	 1.00000000E-01
					 2.50000000E+00	 7.58419000E-01	 6.93889000E-18
					 2.50000000E+00	 7.58419000E-01	 1.00000000E-01
					 3.00000000E+00	 9.39983000E-01	 0.00000000E+00
					 3.00000000E+00	 9.39983000E-01	 1.00000000E-01
					 2.50000000E+00	 6.64134000E-01	-6.93889000E-18
					 2.50000000E+00	 6.64134000E-01	 1.00000000E-01
					 3.00000000E+00	 8.97024000E-01	 0.00000000E+00
					 3.00000000E+00	 8.97024000E-01	 1.00000000E-01
					 2.50000000E+00	 5.79681000E-01	 0.00000000E+00
					 2.50000000E+00	 5.79681000E-01	 1.00000000E-01
					 3.00000000E+00	 8.42185000E-01	 0.00000000E+00
					 3.00000000E+00	 8.42185000E-01	 1.00000000E-01
					 2.50000000E+00	 5.00000000E-01	 6.93889000E-18
					 2.50000000E+00	 5.00000000E-01	 1.00000000E-01
					 3.00000000E+00	 7.72183000E-01	 0.00000000E+00
					 3.00000000E+00	 7.72183000E-01	 1.00000000E-01
					 2.50000000E+00	 4.20319000E-01	-1.38778000E-17
					 2.50000000E+00	 4.20319000E-01	 1.00000000E-01
					 3.00000000E+00	 6.82824000E-01	 0.00000000E+00
					 3.00000000E+00	 6.82824000E-01	 1.00000000E-01
					 2.50000000E+00	 3.35866000E-01	-6.93889000E-18
					 2.50000000E+00	 3.35866000E-01	 1.00000000E-01
					 3.00000000E+00	 5.68756000E-01	 0.00000000E+00
					 3.00000000E+00	 5.68756000E-01	 1.00000000E-01
					 2.50000000E+00	 2.41581000E-01	 6.93889000E-18
					 2.50000000E+00	 2.41581000E-01	 1.00000000E-01
					 3.00000000E+00	 4.23146000E-01	 0.00000000E+00
					 3.00000000E+00	 4.23146000E-01	 1.00000000E-01
					 2.50000000E+00	 1.31818000E-01	 6.93889000E-18
					 2.50000000E+00	 1.31818000E-01	 1.00000000E-01
					 3.00000000E+00	 2.37272000E-01	 0.00000000E+00
					 3.00000000E+00	 2.37272000E-01	 1.00000000E-01
					 2.50000000E+00	 0.00000000E+00	 0.00000000E+00
					 2.50000000E+00	 0.00000000E+00	 1.00000000E-01
					 3.00000000E+00	 0.00000000E+00	 0.00000000E+00
					 3.00000000E+00	 0.00000000E+00	 1.00000000E-01
					 3.50000000E+00	 1.00000000E+00	 0.00000000E+00
					 3.50000000E+00	 1.00000000E+00	 1.00000000E-01
					 3.50000000E+00	 8.68182000E-01	 0.00000000E+00
					 3.50000000E+00	 8.68182000E-01	 1.00000000E-01
					 4.00000000E+00	 1.00000000E+00	 0.00000000E+00
					 4.00000000E+00	 1.00000000E+00	 1.00000000E-01
					 4.00000000E+00	 7.62728000E-01	 0.00000000E+00
					 4.00000000E+00	 7.62728000E-01	 1.00000000E-01
					 3.50000000E+00	 7.58419000E-01	-1.38778000E-17
					 3.50000000E+00	 7.58419000E-01	 1.00000000E-01
					 4.00000000E+00	 5.76854000E-01	 0.00000000E+00
					 4.00000000E+00	 5.76854000E-01	 1.00000000E-01
					 3.50000000E+00	 6.64134000E-01	-6.93889000E-18
					 3.50000000E+00	 6.64134000E-01	 1.00000000E-01
					 4.00000000E+00	 4.31244000E-01	 0.00000000E+00
					 4.00000000E+00	 4.31244000E-01	 1.00000000E-01
					 3.50000000E+00	 5.79681000E-01	 0.00000000E+00
					 3.50000000E+00	 5.79681000E-01	 1.00000000E-01
					 4.00000000E+00	 3.17176000E-01	 0.00000000E+00
					 4.00000000E+00	 3.17176000E-01	 1.00000000E-01
					 3.50000000E+00	 5.00000000E-01	 6.93889000E-18
					 3.50000000E+00	 5.00000000E-01	 1.00000000E-01
					 4.00000000E+00	 2.27817000E-01	 0.00000000E+00
					 4.00000000E+00	 2.27817000E-01	 1.00000000E-01
					 3.50000000E+00	 4.20319000E-01	-1.38778000E-17
					 3.50000000E+00	 4.20319000E-01	 1.00000000E-01
					 4.00000000E+00	 1.57815000E-01	 0.00000000E+00
					 4.00000000E+00	 1.57815000E-01	 1.00000000E-01
					 3.50000000E+00	 3.35866000E-01	-6.93889000E-18
					 3.50000000E+00	 3.35866000E-01	 1.00000000E-01
[...]
			<PointData>
				<DataArray type="Float32" Name="V3DF" NumberOfComponents="3" ComponentName0="V1" ComponentName1="V2" ComponentName2="V3" format="ascii">
					 9.75000000E-01	 0.00000000E+00	 0.00000000E+00
					 9.75000000E-01	 0.00000000E+00	 0.00000000E+00
					 1.00000000E+00	 0.00000000E+00	 0.00000000E+00
					 1.00000000E+00	 0.00000000E+00	 0.00000000E+00
					 9.00000000E-01	 0.00000000E+00	 0.00000000E+00
					 9.00000000E-01	 0.00000000E+00	 0.00000000E+00
					 9.41107000E-01	-7.76936000E-04	 0.00000000E+00
					 9.41107000E-01	-7.76936000E-04	 0.00000000E+00
					 1.00000000E+00	 0.00000000E+00	 0.00000000E+00
					 1.00000000E+00	 0.00000000E+00	 0.00000000E+00
					 9.62148000E-01	 1.09849000E-04	 0.00000000E+00
					 9.62148000E-01	 1.09849000E-04	 0.00000000E+00
					 8.00000000E-01	 0.00000000E+00	 0.00000000E+00
					 8.00000000E-01	 0.00000000E+00	 0.00000000E+00
					 8.79693000E-01	-1.08444000E-03	 0.00000000E+00
					 8.79693000E-01	-1.08444000E-03	 0.00000000E+00
					 9.16338000E-01	 4.52204000E-04	 0.00000000E+00
					 9.16338000E-01	 4.52204000E-04	 0.00000000E+00
					 7.00000000E-01	 0.00000000E+00	 0.00000000E+00
					 7.00000000E-01	 0.00000000E+00	 0.00000000E+00
					 8.13836000E-01	-1.12447000E-03	 0.00000000E+00
					 8.13836000E-01	-1.12447000E-03	 0.00000000E+00
					 8.61853000E-01	 7.17821000E-04	 0.00000000E+00
					 8.61853000E-01	 7.17821000E-04	 0.00000000E+00
					 6.00000000E-01	 0.00000000E+00	 0.00000000E+00
					 6.00000000E-01	 0.00000000E+00	 0.00000000E+00
					 7.41605000E-01	-9.48560000E-04	 0.00000000E+00
					 7.41605000E-01	-9.48560000E-04	 0.00000000E+00
					 7.97388000E-01	 8.45304000E-04	 0.00000000E+00
					 7.97388000E-01	 8.45304000E-04	 0.00000000E+00
					 5.00000000E-01	 0.00000000E+00	 0.00000000E+00
					 5.00000000E-01	 0.00000000E+00	 0.00000000E+00
					 6.60650000E-01	-6.11679000E-04	 0.00000000E+00
					 6.60650000E-01	-6.11679000E-04	 0.00000000E+00
					 7.21053000E-01	 8.20967000E-04	 0.00000000E+00
					 7.21053000E-01	 8.20967000E-04	 0.00000000E+00
					 4.00000000E-01	 0.00000000E+00	 0.00000000E+00
					 4.00000000E-01	 0.00000000E+00	 0.00000000E+00
					 5.68083000E-01	-1.71280000E-04	 0.00000000E+00
					 5.68083000E-01	-1.71280000E-04	 0.00000000E+00
					 6.29885000E-01	 6.75354000E-04	 0.00000000E+00
					 6.29885000E-01	 6.75354000E-04	 0.00000000E+00
					 3.00000000E-01	 0.00000000E+00	 0.00000000E+00
					 3.00000000E-01	 0.00000000E+00	 0.00000000E+00
					 4.60366000E-01	 3.11464000E-04	 0.00000000E+00
					 4.60366000E-01	 3.11464000E-04	 0.00000000E+00
					 5.19490000E-01	 4.65992000E-04	 0.00000000E+00
					 5.19490000E-01	 4.65992000E-04	 0.00000000E+00
					 2.00000000E-01	 0.00000000E+00	 0.00000000E+00
					 2.00000000E-01	 0.00000000E+00	 0.00000000E+00
					 3.33195000E-01	 7.68380000E-04	 0.00000000E+00
					 3.33195000E-01	 7.68380000E-04	 0.00000000E+00
					 3.83836000E-01	 2.36573000E-04	 0.00000000E+00
					 3.83836000E-01	 2.36573000E-04	 0.00000000E+00
					 1.00000000E-01	 0.00000000E+00	 0.00000000E+00
					 1.00000000E-01	 0.00000000E+00	 0.00000000E+00
					 1.81397000E-01	 1.07179000E-03	 0.00000000E+00
					 1.81397000E-01	 1.07179000E-03	 0.00000000E+00
					 2.14991000E-01	-1.33181000E-06	 0.00000000E+00
					 2.14991000E-01	-1.33181000E-06	 0.00000000E+00
					 2.50000000E-02	 0.00000000E+00	 0.00000000E+00
					 2.50000000E-02	 0.00000000E+00	 0.00000000E+00
					 0.00000000E+00	 0.00000000E+00	 0.00000000E+00
					 0.00000000E+00	 0.00000000E+00	 0.00000000E+00
					 0.00000000E+00	 0.00000000E+00	 0.00000000E+00
					 0.00000000E+00	 0.00000000E+00	 0.00000000E+00
					 1.00000000E+00	 0.00000000E+00	 0.00000000E+00
					 1.00000000E+00	 0.00000000E+00	 0.00000000E+00
					 8.49622000E-01	 2.68083000E-03	 0.00000000E+00
					 8.49622000E-01	 2.68083000E-03	 0.00000000E+00
					 1.00000000E+00	 0.00000000E+00	 0.00000000E+00
					 1.00000000E+00	 0.00000000E+00	 0.00000000E+00
					 7.91399000E-01	 7.62903000E-05	 0.00000000E+00
					 7.91399000E-01	 7.62903000E-05	 0.00000000E+00
					 7.31011000E-01	 2.55400000E-03	 0.00000000E+00
					 7.31011000E-01	 2.55400000E-03	 0.00000000E+00
					 6.30134000E-01	 1.04377000E-04	 0.00000000E+00
					 6.30134000E-01	 1.04377000E-04	 0.00000000E+00
					 6.36064000E-01	 1.90040000E-03	 0.00000000E+00
					 6.36064000E-01	 1.90040000E-03	 0.00000000E+00
					 4.99320000E-01	 1.10535000E-04	 0.00000000E+00
					 4.99320000E-01	 1.10535000E-04	 0.00000000E+00
					 5.56951000E-01	 8.91143000E-04	 0.00000000E+00
					 5.56951000E-01	 8.91143000E-04	 0.00000000E+00
					 3.91348000E-01	 1.30332000E-04	 0.00000000E+00
					 3.91348000E-01	 1.30332000E-04	 0.00000000E+00
					 4.86330000E-01	-2.91440000E-04	 0.00000000E+00
					 4.86330000E-01	-2.91440000E-04	 0.00000000E+00
					 2.99694000E-01	 1.39584000E-04	 0.00000000E+00
					 2.99694000E-01	 1.39584000E-04	 0.00000000E+00
					 4.16997000E-01	-1.40001000E-03	 0.00000000E+00
					 4.16997000E-01	-1.40001000E-03	 0.00000000E+00
					 2.19839000E-01	 1.17096000E-04	 0.00000000E+00
					 2.19839000E-01	 1.17096000E-04	 0.00000000E+00
					 3.41558000E-01	-2.22042000E-03	 0.00000000E+00
					 3.41558000E-01	-2.22042000E-03	 0.00000000E+00
					 1.49675000E-01	 5.25235000E-05	 0.00000000E+00
					 1.49675000E-01	 5.25235000E-05	 0.00000000E+00
					 2.52180000E-01	-2.64268000E-03	 0.00000000E+00
					 2.52180000E-01	-2.64268000E-03	 0.00000000E+00
					 8.91619000E-02	-3.86112000E-05	 0.00000000E+00
					 8.91619000E-02	-3.86112000E-05	 0.00000000E+00
					 1.40580000E-01	-2.61945000E-03	 0.00000000E+00
					 1.40580000E-01	-2.61945000E-03	 0.00000000E+00
					 3.91787000E-02	-1.02157000E-04	 0.00000000E+00
					 3.91787000E-02	-1.02157000E-04	 0.00000000E+00
					 0.00000000E+00	 0.00000000E+00	 0.00000000E+00
					 0.00000000E+00	 0.00000000E+00	 0.00000000E+00
					 0.00000000E+00	 0.00000000E+00	 0.00000000E+00
					 0.00000000E+00	 0.00000000E+00	 0.00000000E+00
					 1.00000000E+00	 0.00000000E+00	 0.00000000E+00
					 1.00000000E+00	 0.00000000E+00	 0.00000000E+00
					 8.58288000E-01	-2.87052000E-03	 0.00000000E+00
					 8.58288000E-01	-2.87052000E-03	 0.00000000E+00
					 1.00000000E+00	 0.00000000E+00	 0.00000000E+00
					 1.00000000E+00	 0.00000000E+00	 0.00000000E+00
					 9.58236000E-01	 1.36021000E-04	 0.00000000E+00
					 9.58236000E-01	 1.36021000E-04	 0.00000000E+00
					 7.46315000E-01	-2.86806000E-03	 0.00000000E+00
					 7.46315000E-01	-2.86806000E-03	 0.00000000E+00
					 9.07559000E-01	 1.54372000E-04	 0.00000000E+00
					 9.07559000E-01	 1.54372000E-04	 0.00000000E+00
					 6.55113000E-01	-2.32696000E-03	 0.00000000E+00
					 6.55113000E-01	-2.32696000E-03	 0.00000000E+00
					 8.47922000E-01	 1.01355000E-04	 0.00000000E+00
					 8.47922000E-01	 1.01355000E-04	 0.00000000E+00
					 5.77835000E-01	-1.31094000E-03	 0.00000000E+00
					 5.77835000E-01	-1.31094000E-03	 0.00000000E+00
					 7.79204000E-01	 2.20028000E-05	 0.00000000E+00
					 7.79204000E-01	 2.20028000E-05	 0.00000000E+00
					 5.07353000E-01	 4.69511000E-06	 0.00000000E+00
					 5.07353000E-01	 4.69511000E-06	 0.00000000E+00
					 7.00842000E-01	-4.39967000E-05	 0.00000000E+00
					 7.00842000E-01	-4.39967000E-05	 0.00000000E+00
					 4.36375000E-01	 1.32494000E-03	 0.00000000E+00
					 4.36375000E-01	 1.32494000E-03	 0.00000000E+00
					 6.10454000E-01	-7.63331000E-05	 0.00000000E+00
					 6.10454000E-01	-7.63331000E-05	 0.00000000E+00
					 3.57433000E-01	 2.35177000E-03	 0.00000000E+00
					 3.57433000E-01	 2.35177000E-03	 0.00000000E+00
					 5.03263000E-01	-7.84204000E-05	 0.00000000E+00
					 5.03263000E-01	-7.84204000E-05	 0.00000000E+00
					 2.62985000E-01	 2.89756000E-03	 0.00000000E+00
					 2.62985000E-01	 2.89756000E-03	 0.00000000E+00
					 3.72357000E-01	-7.22196000E-05	 0.00000000E+00
					 3.72357000E-01	-7.22196000E-05	 0.00000000E+00
					 1.45745000E-01	 2.90012000E-03	 0.00000000E+00
					 1.45745000E-01	 2.90012000E-03	 0.00000000E+00
					 2.09126000E-01	-5.02321000E-05	 0.00000000E+00
					 2.09126000E-01	-5.02321000E-05	 0.00000000E+00
					 0.00000000E+00	 0.00000000E+00	 0.00000000E+00
					 0.00000000E+00	 0.00000000E+00	 0.00000000E+00
					 0.00000000E+00	 0.00000000E+00	 0.00000000E+00
					 0.00000000E+00	 0.00000000E+00	 0.00000000E+00
					 1.00000000E+00	 0.00000000E+00	 0.00000000E+00
					 1.00000000E+00	 0.00000000E+00	 0.00000000E+00
					 8.50694000E-01	 3.03777000E-03	 0.00000000E+00
					 8.50694000E-01	 3.03777000E-03	 0.00000000E+00
					 1.00000000E+00	 0.00000000E+00	 0.00000000E+00
					 1.00000000E+00	 0.00000000E+00	 0.00000000E+00
					 7.91447000E-01	 1.37012000E-05	 0.00000000E+00
					 7.91447000E-01	 1.37012000E-05	 0.00000000E+00
					 7.33666000E-01	 3.01577000E-03	 0.00000000E+00
					 7.33666000E-01	 3.01577000E-03	 0.00000000E+00
					 6.30239000E-01	 1.49674000E-05	 0.00000000E+00
					 6.30239000E-01	 1.49674000E-05	 0.00000000E+00
					 6.40560000E-01	 2.40227000E-03	 0.00000000E+00
					 6.40560000E-01	 2.40227000E-03	 0.00000000E+00
					 4.99467000E-01	 9.48208000E-07	 0.00000000E+00
					 4.99467000E-01	 9.48208000E-07	 0.00000000E+00
					 5.63072000E-01	 1.32084000E-03	 0.00000000E+00
					 5.63072000E-01	 1.32084000E-03	 0.00000000E+00
					 3.91515000E-01	 1.10589000E-05	 0.00000000E+00
					 3.91515000E-01	 1.10589000E-05	 0.00000000E+00
					 4.93407000E-01	-4.18672000E-05	 0.00000000E+00
					 4.93407000E-01	-4.18672000E-05	 0.00000000E+00
					 2.99852000E-01	 2.55779000E-05	 0.00000000E+00
					 2.99852000E-01	 2.55779000E-05	 0.00000000E+00
					 4.24135000E-01	-1.39102000E-03	 0.00000000E+00
					 4.24135000E-01	-1.39102000E-03	 0.00000000E+00
					 2.19953000E-01	 2.67365000E-05	 0.00000000E+00
					 2.19953000E-01	 2.67365000E-05	 0.00000000E+00
					 3.47886000E-01	-2.44103000E-03	 0.00000000E+00
					 3.47886000E-01	-2.44103000E-03	 0.00000000E+00
					 1.49723000E-01	 1.82975000E-06	 0.00000000E+00
					 1.49723000E-01	 1.82975000E-06	 0.00000000E+00
					 2.56978000E-01	-3.02121000E-03	 0.00000000E+00
					 2.56978000E-01	-3.02121000E-03	 0.00000000E+00
					 8.91469000E-02	-3.99120000E-05	 0.00000000E+00
					 8.91469000E-02	-3.99120000E-05	 0.00000000E+00
					 1.43239000E-01	-3.04577000E-03	 0.00000000E+00
					 1.43239000E-01	-3.04577000E-03	 0.00000000E+00
					 3.91372000E-02	-6.05569000E-05	 0.00000000E+00
					 3.91372000E-02	-6.05569000E-05	 0.00000000E+00
					 0.00000000E+00	 0.00000000E+00	 0.00000000E+00
					 0.00000000E+00	 0.00000000E+00	 0.00000000E+00
					 0.00000000E+00	 0.00000000E+00	 0.00000000E+00
					 0.00000000E+00	 0.00000000E+00	 0.00000000E+00
					 1.00000000E+00	 0.00000000E+00	 0.00000000E+00
					 1.00000000E+00	 0.00000000E+00	 0.00000000E+00
					 8.58426000E-01	-2.91132000E-03	 0.00000000E+00
					 8.58426000E-01	-2.91132000E-03	 0.00000000E+00
					 1.00000000E+00	 0.00000000E+00	 0.00000000E+00
					 1.00000000E+00	 0.00000000E+00	 0.00000000E+00
					 9.45547000E-01	 1.23736000E-03	 0.00000000E+00
					 9.45547000E-01	 1.23736000E-03	 0.00000000E+00
					 7.46563000E-01	-2.89928000E-03	 0.00000000E+00
					 7.46563000E-01	-2.89928000E-03	 0.00000000E+00
					 8.87956000E-01	 8.50957000E-04	 0.00000000E+00
					 8.87956000E-01	 8.50957000E-04	 0.00000000E+00
					 6.55402000E-01	-2.30310000E-03	 0.00000000E+00
					 6.55402000E-01	-2.30310000E-03	 0.00000000E+00
					 8.26742000E-01	-2.03048000E-05	 0.00000000E+00
					 8.26742000E-01	-2.03048000E-05	 0.00000000E+00
					 5.78093000E-01	-1.22114000E-03	 0.00000000E+00
					 5.78093000E-01	-1.22114000E-03	 0.00000000E+00
					 7.59482000E-01	-7.55983000E-04	 0.00000000E+00
					 7.59482000E-01	-7.55983000E-04	 0.00000000E+00
					 5.07540000E-01	 1.43360000E-04	 0.00000000E+00
					 5.07540000E-01	 1.43360000E-04	 0.00000000E+00
					 6.83837000E-01	-1.16738000E-03	 0.00000000E+00
					 6.83837000E-01	-1.16738000E-03	 0.00000000E+00
					 4.36477000E-01	 1.48285000E-03	 0.00000000E+00
					 4.36477000E-01	 1.48285000E-03	 0.00000000E+00
					 5.96460000E-01	-1.27541000E-03	 0.00000000E+00
					 5.96460000E-01	-1.27541000E-03	 0.00000000E+00
					 3.57464000E-01	 2.50197000E-03	 0.00000000E+00
					 3.57464000E-01	 2.50197000E-03	 0.00000000E+00
					 4.92304000E-01	-1.18559000E-03	 0.00000000E+00
					 4.92304000E-01	-1.18559000E-03	 0.00000000E+00
					 2.62968000E-01	 3.02973000E-03	 0.00000000E+00
					 2.62968000E-01	 3.02973000E-03	 0.00000000E+00
					 3.64602000E-01	-1.01175000E-03	 0.00000000E+00
					 3.64602000E-01	-1.01175000E-03	 0.00000000E+00
					 1.45719000E-01	 3.00898000E-03	 0.00000000E+00
					 1.45719000E-01	 3.00898000E-03	 0.00000000E+00
					 2.05033000E-01	-8.33469000E-04	 0.00000000E+00
					 2.05033000E-01	-8.33469000E-04	 0.00000000E+00
					 0.00000000E+00	 0.00000000E+00	 0.00000000E+00
					 0.00000000E+00	 0.00000000E+00	 0.00000000E+00
					 0.00000000E+00	 0.00000000E+00	 0.00000000E+00
					 0.00000000E+00	 0.00000000E+00	 0.00000000E+00
					 1.00000000E+00	 0.00000000E+00	 0.00000000E+00
					 1.00000000E+00	 0.00000000E+00	 0.00000000E+00
					 8.85123000E-01	 1.63360000E-03	 0.00000000E+00
					 8.85123000E-01	 1.63360000E-03	 0.00000000E+00
					 1.00000000E+00	 0.00000000E+00	 0.00000000E+00
					 1.00000000E+00	 0.00000000E+00	 0.00000000E+00
					 8.60905000E-01	-2.16445000E-03	 0.00000000E+00
					 8.60905000E-01	-2.16445000E-03	 0.00000000E+00
					 7.91280000E-01	 1.80202000E-03	 0.00000000E+00
					 7.91280000E-01	 1.80202000E-03	 0.00000000E+00
					 7.44936000E-01	-2.04833000E-03	 0.00000000E+00
					 7.44936000E-01	-2.04833000E-03	 0.00000000E+00
					 7.09542000E-01	 1.68816000E-03	 0.00000000E+00
					 7.09542000E-01	 1.68816000E-03	 0.00000000E+00
					 6.45863000E-01	-1.59421000E-03	 0.00000000E+00
					 6.45863000E-01	-1.59421000E-03	 0.00000000E+00
					 6.34236000E-01	 1.35527000E-03	 0.00000000E+00
					 6.34236000E-01	 1.35527000E-03	 0.00000000E+00
					 5.58012000E-01	-1.03203000E-03	 0.00000000E+00
					 5.58012000E-01	-1.03203000E-03	 0.00000000E+00
					 5.59924000E-01	 7.93553000E-04	 0.00000000E+00
					 5.59924000E-01	 7.93553000E-04	 0.00000000E+00
					 4.76283000E-01	-4.35167000E-04	 0.00000000E+00
					 4.76283000E-01	-4.35167000E-04	 0.00000000E+00
					 4.81195000E-01	 7.45479000E-05	 0.00000000E+00
					 4.81195000E-01	 7.45479000E-05	 0.00000000E+00
					 3.96018000E-01	 1.78196000E-04	 0.00000000E+00
					 3.96018000E-01	 1.78196000E-04	 0.00000000E+00
					 3.92407000E-01	-6.73047000E-04	 0.00000000E+00
					 3.92407000E-01	-6.73047000E-04	 0.00000000E+00
					 3.12815000E-01	 7.91612000E-04	 0.00000000E+00
					 3.12815000E-01	 7.91612000E-04	 0.00000000E+00
					 2.87290000E-01	-1.31923000E-03	 0.00000000E+00
					 2.87290000E-01	-1.31923000E-03	 0.00000000E+00
					 2.22353000E-01	 1.35772000E-03	 0.00000000E+00
					 2.22353000E-01	 1.35772000E-03	 0.00000000E+00
					 1.58437000E-01	-1.63852000E-03	 0.00000000E+00
					 1.58437000E-01	-1.63852000E-03	 0.00000000E+00
					 1.20197000E-01	 1.67228000E-03	 0.00000000E+00
					 1.20197000E-01	 1.67228000E-03	 0.00000000E+00
					 0.00000000E+00	 0.00000000E+00	 0.00000000E+00
					 0.00000000E+00	 0.00000000E+00	 0.00000000E+00
					 0.00000000E+00	 0.00000000E+00	 0.00000000E+00
					 0.00000000E+00	 0.00000000E+00	 0.00000000E+00
				</DataArray>
				<DataArray type="Float32" Name="PS3DF" NumberOfComponents="1" ComponentName0="PS" format="ascii">
					 1.00079000E+00
					 1.00079000E+00
					 1.00094000E+00
					 1.00094000E+00
					 1.00000000E+00
					 1.00000000E+00
					 1.00571000E+00
					 1.00571000E+00
					 1.00151000E+00
					 1.00151000E+00
					 1.00411000E+00
					 1.00411000E+00
					 1.00000000E+00
					 1.00000000E+00
					 1.00960000E+00
					 1.00960000E+00
					 1.00658000E+00
					 1.00658000E+00
					 1.00000000E+00
					 1.00000000E+00
					 1.01247000E+00
					 1.01247000E+00
					 1.00772000E+00
					 1.00772000E+00
					 1.00000000E+00
					 1.00000000E+00
					 1.01486000E+00
					 1.01486000E+00
					 1.00815000E+00
					 1.00815000E+00
					 1.00000000E+00
					 1.00000000E+00
					 1.01671000E+00
					 1.01671000E+00
					 1.00820000E+00
					 1.00820000E+00
					 1.00000000E+00
					 1.00000000E+00
					 1.01778000E+00
					 1.01778000E+00
					 1.00803000E+00
					 1.00803000E+00
					 1.00000000E+00
					 1.00000000E+00
					 1.01766000E+00
					 1.01766000E+00
					 1.00771000E+00
					 1.00771000E+00
					 1.00000000E+00
					 1.00000000E+00
					 1.01605000E+00
					 1.01605000E+00
					 1.00739000E+00
					 1.00739000E+00
					 1.00000000E+00
					 1.00000000E+00
					 1.01169000E+00
					 1.01169000E+00
					 1.00652000E+00
					 1.00652000E+00
					 1.00183000E+00
					 1.00183000E+00
					 1.00425000E+00
					 1.00425000E+00
					 1.00462000E+00
					 1.00462000E+00
					 1.00370000E+00
					 1.00370000E+00
					 1.00071000E+00
					 1.00071000E+00
					 1.00437000E+00
					 1.00437000E+00
					 1.00604000E+00
					 1.00604000E+00
					 9.97625000E-01
					 9.97625000E-01
					 1.00664000E+00
					 1.00664000E+00
					 9.95177000E-01
					 9.95177000E-01
					 1.00671000E+00
					 1.00671000E+00
					 9.93928000E-01
					 9.93928000E-01
					 1.00675000E+00
					 1.00675000E+00
					 9.93655000E-01
					 9.93655000E-01
					 1.00674000E+00
					 1.00674000E+00
					 9.94309000E-01
					 9.94309000E-01
					 1.00652000E+00
					 1.00652000E+00
					 9.95919000E-01
					 9.95919000E-01
					 1.00606000E+00
					 1.00606000E+00
					 9.98428000E-01
					 9.98428000E-01
					 1.00519000E+00
					 1.00519000E+00
					 1.00110000E+00
					 1.00110000E+00
					 1.00332000E+00
					 1.00332000E+00
					 1.00356000E+00
					 1.00356000E+00
					 1.00189000E+00
					 1.00189000E+00
					 1.00274000E+00
					 1.00274000E+00
					 1.01056000E+00
					 1.01056000E+00
					 1.00220000E+00
					 1.00220000E+00
					 1.00383000E+00
					 1.00383000E+00
					 1.01614000E+00
					 1.01614000E+00
					 1.00565000E+00
					 1.00565000E+00
					 1.01941000E+00
					 1.01941000E+00
					 1.00642000E+00
					 1.00642000E+00
					 1.02142000E+00
					 1.02142000E+00
					 1.00691000E+00
					 1.00691000E+00
					 1.02256000E+00
					 1.02256000E+00
					 1.00752000E+00
					 1.00752000E+00
					 1.02248000E+00
					 1.02248000E+00
					 1.00807000E+00
					 1.00807000E+00
					 1.02082000E+00
					 1.02082000E+00
					 1.00828000E+00
					 1.00828000E+00
					 1.01751000E+00
					 1.01751000E+00
					 1.00818000E+00
					 1.00818000E+00
					 1.01152000E+00
					 1.01152000E+00
					 1.00707000E+00
					 1.00707000E+00
					 1.00272000E+00
					 1.00272000E+00
					 1.00442000E+00
					 1.00442000E+00
					 1.00383000E+00
					 1.00383000E+00
					 1.00025000E+00
					 1.00025000E+00
					 1.00437000E+00
					 1.00437000E+00
					 1.00604000E+00
					 1.00604000E+00
					 9.96700000E-01
					 9.96700000E-01
					 1.00666000E+00
					 1.00666000E+00
					 9.93891000E-01
					 9.93891000E-01
					 1.00687000E+00
					 1.00687000E+00
					 9.92361000E-01
					 9.92361000E-01
					 1.00706000E+00
					 1.00706000E+00
					 9.91921000E-01
					 9.91921000E-01
					 1.00705000E+00
					 1.00705000E+00
					 9.92531000E-01
					 9.92531000E-01
					 1.00679000E+00
					 1.00679000E+00
					 9.94194000E-01
					 9.94194000E-01
					 1.00624000E+00
					 1.00624000E+00
					 9.96994000E-01
					 9.96994000E-01
					 1.00527000E+00
					 1.00527000E+00
					 1.00030000E+00
					 1.00030000E+00
					 1.00338000E+00
					 1.00338000E+00
					 1.00360000E+00
					 1.00360000E+00
					 1.00193000E+00
					 1.00193000E+00
					 1.00274000E+00
					 1.00274000E+00
					 1.01072000E+00
					 1.01072000E+00
					 1.00213000E+00
					 1.00213000E+00
					 1.00082000E+00
					 1.00082000E+00
					 1.01649000E+00
					 1.01649000E+00
					 1.00049000E+00
					 1.00049000E+00
					 1.02010000E+00
					 1.02010000E+00
					 1.00072000E+00
					 1.00072000E+00
					 1.02236000E+00
					 1.02236000E+00
					 1.00161000E+00