    1C
    1UUSER                                                              
    1UDATE              25.january.2020                                 
    1UTIME              14:49:55                                        
    1UHOST                                                              
    1UPGM               CalculiX                                        
    1UVERSION           Version 2.16                             
    1UCOMPILETIME       Tue  7 Jan 19:57:43 CET 2020                    
    1UDIR                                                               
    1UDBN                                                               
    1UMAT    1EL                                                        
    1UMAT    2SI1                                                       
    2C                           250                                     1
 -1         1 1.00000E+00 1.00000E+00 0.00000E+00
 -1         2 1.00000E+00 7.50000E-01 0.00000E+00
 -1         3 1.00000E+00 7.50000E-01 2.50000E-01
 -1         4 1.00000E+00 1.00000E+00 2.50000E-01
 -1         5 7.50000E-01 1.00000E+00 0.00000E+00
 -1         6 7.50000E-01 7.50000E-01 0.00000E+00
 -1         7 7.50000E-01 7.50000E-01 2.50000E-01
 -1         8 7.50000E-01 1.00000E+00 2.50000E-01
 -1         9 1.00000E+00 7.50000E-01 5.00000E-01
 -1        10 1.00000E+00 1.00000E+00 5.00000E-01
 -1        11 7.50000E-01 7.50000E-01 5.00000E-01
 -1        12 7.50000E-01 1.00000E+00 5.00000E-01
 -1        13 1.00000E+00 7.50000E-01 7.50000E-01
 -1        14 1.00000E+00 1.00000E+00 7.50000E-01
 -1        15 7.50000E-01 7.50000E-01 7.50000E-01
 -1        16 7.50000E-01 1.00000E+00 7.50000E-01
 -1        17 1.00000E+00 7.50000E-01 1.00000E+00
 -1        18 1.00000E+00 1.00000E+00 1.00000E+00
 -1        19 7.50000E-01 7.50000E-01 1.00000E+00
 -1        20 7.50000E-01 1.00000E+00 1.00000E+00
 -1        21 5.00000E-01 1.00000E+00 0.00000E+00
 -1        22 5.00000E-01 7.50000E-01 0.00000E+00
 -1        23 5.00000E-01 7.50000E-01 2.50000E-01
 -1        24 5.00000E-01 1.00000E+00 2.50000E-01
 -1        25 5.00000E-01 7.50000E-01 5.00000E-01
 -1        26 5.00000E-01 1.00000E+00 5.00000E-01
 -1        27 5.00000E-01 7.50000E-01 7.50000E-01
 -1        28 5.00000E-01 1.00000E+00 7.50000E-01
 -1        29 5.00000E-01 7.50000E-01 1.00000E+00
 -1        30 5.00000E-01 1.00000E+00 1.00000E+00
 -1        31 2.50000E-01 1.00000E+00 0.00000E+00
 -1        32 2.50000E-01 7.50000E-01 0.00000E+00
 -1        33 2.50000E-01 7.50000E-01 2.50000E-01
 -1        34 2.50000E-01 1.00000E+00 2.50000E-01
 -1        35 2.50000E-01 7.50000E-01 5.00000E-01
 -1        36 2.50000E-01 1.00000E+00 5.00000E-01
 -1        37 2.50000E-01 7.50000E-01 7.50000E-01
 -1        38 2.50000E-01 1.00000E+00 7.50000E-01
 -1        39 2.50000E-01 7.50000E-01 1.00000E+00
 -1        40 2.50000E-01 1.00000E+00 1.00000E+00
 -1        41 0.00000E+00 1.00000E+00 0.00000E+00
 -1        42 0.00000E+00 7.50000E-01 0.00000E+00
 -1        43 0.00000E+00 7.50000E-01 2.50000E-01
 -1        44 0.00000E+00 1.00000E+00 2.50000E-01
 -1        45 0.00000E+00 7.50000E-01 5.00000E-01
 -1        46 0.00000E+00 1.00000E+00 5.00000E-01
 -1        47 0.00000E+00 7.50000E-01 7.50000E-01
 -1        48 0.00000E+00 1.00000E+00 7.50000E-01
 -1        49 0.00000E+00 7.50000E-01 1.00000E+00
 -1        50 0.00000E+00 1.00000E+00 1.00000E+00
 -1        51 1.00000E+00 5.00000E-01 0.00000E+00
 -1        52 1.00000E+00 5.00000E-01 2.50000E-01
 -1        53 7.50000E-01 5.00000E-01 0.00000E+00
 -1        54 7.50000E-01 5.00000E-01 2.50000E-01
 -1        55 1.00000E+00 5.00000E-01 5.00000E-01
 -1        56 7.50000E-01 5.00000E-01 5.00000E-01
 -1        57 1.00000E+00 5.00000E-01 7.50000E-01
 -1        58 7.50000E-01 5.00000E-01 7.50000E-01
 -1        59 1.00000E+00 5.00000E-01 1.00000E+00
 -1        60 7.50000E-01 5.00000E-01 1.00000E+00
 -1        61 5.00000E-01 5.00000E-01 0.00000E+00
 -1        62 5.00000E-01 5.00000E-01 2.50000E-01
 -1        63 5.00000E-01 5.00000E-01 5.00000E-01
 -1        64 5.00000E-01 5.00000E-01 7.50000E-01
 -1        65 5.00000E-01 5.00000E-01 1.00000E+00
 -1        66 2.50000E-01 5.00000E-01 0.00000E+00
 -1        67 2.50000E-01 5.00000E-01 2.50000E-01
 -1        68 2.50000E-01 5.00000E-01 5.00000E-01
 -1        69 2.50000E-01 5.00000E-01 7.50000E-01
 -1        70 2.50000E-01 5.00000E-01 1.00000E+00
 -1        71 0.00000E+00 5.00000E-01 0.00000E+00
 -1        72 0.00000E+00 5.00000E-01 2.50000E-01
 -1        73 0.00000E+00 5.00000E-01 5.00000E-01
 -1        74 0.00000E+00 5.00000E-01 7.50000E-01
 -1        75 0.00000E+00 5.00000E-01 1.00000E+00
 -1        76 1.00000E+00 2.50000E-01 0.00000E+00
 -1        77 1.00000E+00 2.50000E-01 2.50000E-01
 -1        78 7.50000E-01 2.50000E-01 0.00000E+00
 -1        79 7.50000E-01 2.50000E-01 2.50000E-01
 -1        80 1.00000E+00 2.50000E-01 5.00000E-01
 -1        81 7.50000E-01 2.50000E-01 5.00000E-01
 -1        82 1.00000E+00 2.50000E-01 7.50000E-01
 -1        83 7.50000E-01 2.50000E-01 7.50000E-01
 -1        84 1.00000E+00 2.50000E-01 1.00000E+00
 -1        85 7.50000E-01 2.50000E-01 1.00000E+00
 -1        86 5.00000E-01 2.50000E-01 0.00000E+00
 -1        87 5.00000E-01 2.50000E-01 2.50000E-01
 -1        88 5.00000E-01 2.50000E-01 5.00000E-01
 -1        89 5.00000E-01 2.50000E-01 7.50000E-01
 -1        90 5.00000E-01 2.50000E-01 1.00000E+00
 -1        91 2.50000E-01 2.50000E-01 0.00000E+00
 -1        92 2.50000E-01 2.50000E-01 2.50000E-01
 -1        93 2.50000E-01 2.50000E-01 5.00000E-01
 -1        94 2.50000E-01 2.50000E-01 7.50000E-01
 -1        95 2.50000E-01 2.50000E-01 1.00000E+00
 -1        96 0.00000E+00 2.50000E-01 0.00000E+00
 -1        97 0.00000E+00 2.50000E-01 2.50000E-01
 -1        98 0.00000E+00 2.50000E-01 5.00000E-01
 -1        99 0.00000E+00 2.50000E-01 7.50000E-01
 -1       100 0.00000E+00 2.50000E-01 1.00000E+00
 -1       101 1.00000E+00 0.00000E+00 0.00000E+00
 -1       102 1.00000E+00 0.00000E+00 2.50000E-01
 -1       103 7.50000E-01 0.00000E+00 0.00000E+00
 -1       104 7.50000E-01 0.00000E+00 2.50000E-01
 -1       105 1.00000E+00 0.00000E+00 5.00000E-01
 -1       106 7.50000E-01 0.00000E+00 5.00000E-01
 -1       107 1.00000E+00 0.00000E+00 7.50000E-01
 -1       108 7.50000E-01 0.00000E+00 7.50000E-01
 -1       109 1.00000E+00 0.00000E+00 1.00000E+00
 -1       110 7.50000E-01 0.00000E+00 1.00000E+00
 -1       111 5.00000E-01 0.00000E+00 0.00000E+00
 -1       112 5.00000E-01 0.00000E+00 2.50000E-01
 -1       113 5.00000E-01 0.00000E+00 5.00000E-01
 -1       114 5.00000E-01 0.00000E+00 7.50000E-01
 -1       115 5.00000E-01 0.00000E+00 1.00000E+00
 -1       116 2.50000E-01 0.00000E+00 0.00000E+00
 -1       117 2.50000E-01 0.00000E+00 2.50000E-01
 -1       118 2.50000E-01 0.00000E+00 5.00000E-01
 -1       119 2.50000E-01 0.00000E+00 7.50000E-01
 -1       120 2.50000E-01 0.00000E+00 1.00000E+00
 -1       121 0.00000E+00 0.00000E+00 0.00000E+00
 -1       122 0.00000E+00 0.00000E+00 2.50000E-01
 -1       123 0.00000E+00 0.00000E+00 5.00000E-01
 -1       124 0.00000E+00 0.00000E+00 7.50000E-01
 -1       125 0.00000E+00 0.00000E+00 1.00000E+00
 -1       126 7.50000E-01 7.50000E-01 1.00000E+00
 -1       127 7.50000E-01 6.25000E-01 1.00000E+00
 -1       128 7.50000E-01 6.25000E-01 1.12500E+00
 -1       129 7.50000E-01 7.50000E-01 1.12500E+00
 -1       130 6.25000E-01 7.50000E-01 1.00000E+00
 -1       131 6.25000E-01 6.25000E-01 1.00000E+00
 -1       132 6.25000E-01 6.25000E-01 1.12500E+00
 -1       133 6.25000E-01 7.50000E-01 1.12500E+00
 -1       134 7.50000E-01 6.25000E-01 1.25000E+00
 -1       135 7.50000E-01 7.50000E-01 1.25000E+00
 -1       136 6.25000E-01 6.25000E-01 1.25000E+00
 -1       137 6.25000E-01 7.50000E-01 1.25000E+00
 -1       138 7.50000E-01 6.25000E-01 1.37500E+00
 -1       139 7.50000E-01 7.50000E-01 1.37500E+00
 -1       140 6.25000E-01 6.25000E-01 1.37500E+00
 -1       141 6.25000E-01 7.50000E-01 1.37500E+00
 -1       142 7.50000E-01 6.25000E-01 1.50000E+00
 -1       143 7.50000E-01 7.50000E-01 1.50000E+00
 -1       144 6.25000E-01 6.25000E-01 1.50000E+00
 -1       145 6.25000E-01 7.50000E-01 1.50000E+00
 -1       146 5.00000E-01 7.50000E-01 1.00000E+00
 -1       147 5.00000E-01 6.25000E-01 1.00000E+00
 -1       148 5.00000E-01 6.25000E-01 1.12500E+00
 -1       149 5.00000E-01 7.50000E-01 1.12500E+00
 -1       150 5.00000E-01 6.25000E-01 1.25000E+00
 -1       151 5.00000E-01 7.50000E-01 1.25000E+00
 -1       152 5.00000E-01 6.25000E-01 1.37500E+00
 -1       153 5.00000E-01 7.50000E-01 1.37500E+00
 -1       154 5.00000E-01 6.25000E-01 1.50000E+00
 -1       155 5.00000E-01 7.50000E-01 1.50000E+00
 -1       156 3.75000E-01 7.50000E-01 1.00000E+00
 -1       157 3.75000E-01 6.25000E-01 1.00000E+00
 -1       158 3.75000E-01 6.25000E-01 1.12500E+00
 -1       159 3.75000E-01 7.50000E-01 1.12500E+00
 -1       160 3.75000E-01 6.25000E-01 1.25000E+00
 -1       161 3.75000E-01 7.50000E-01 1.25000E+00
 -1       162 3.75000E-01 6.25000E-01 1.37500E+00
 -1       163 3.75000E-01 7.50000E-01 1.37500E+00
 -1       164 3.75000E-01 6.25000E-01 1.50000E+00
 -1       165 3.75000E-01 7.50000E-01 1.50000E+00
 -1       166 2.50000E-01 7.50000E-01 1.00000E+00
 -1       167 2.50000E-01 6.25000E-01 1.00000E+00
 -1       168 2.50000E-01 6.25000E-01 1.12500E+00
 -1       169 2.50000E-01 7.50000E-01 1.12500E+00
 -1       170 2.50000E-01 6.25000E-01 1.25000E+00
 -1       171 2.50000E-01 7.50000E-01 1.25000E+00
 -1       172 2.50000E-01 6.25000E-01 1.37500E+00
 -1       173 2.50000E-01 7.50000E-01 1.37500E+00
 -1       174 2.50000E-01 6.25000E-01 1.50000E+00
 -1       175 2.50000E-01 7.50000E-01 1.50000E+00
 -1       176 7.50000E-01 5.00000E-01 1.00000E+00
 -1       177 7.50000E-01 5.00000E-01 1.12500E+00
 -1       178 6.25000E-01 5.00000E-01 1.00000E+00
 -1       179 6.25000E-01 5.00000E-01 1.12500E+00
 -1       180 7.50000E-01 5.00000E-01 1.25000E+00
 -1       181 6.25000E-01 5.00000E-01 1.25000E+00
 -1       182 7.50000E-01 5.00000E-01 1.37500E+00
 -1       183 6.25000E-01 5.00000E-01 1.37500E+00
 -1       184 7.50000E-01 5.00000E-01 1.50000E+00
 -1       185 6.25000E-01 5.00000E-01 1.50000E+00
 -1       186 5.00000E-01 5.00000E-01 1.00000E+00
 -1       187 5.00000E-01 5.00000E-01 1.12500E+00
 -1       188 5.00000E-01 5.00000E-01 1.25000E+00
 -1       189 5.00000E-01 5.00000E-01 1.37500E+00
 -1       190 5.00000E-01 5.00000E-01 1.50000E+00
 -1       191 3.75000E-01 5.00000E-01 1.00000E+00
 -1       192 3.75000E-01 5.00000E-01 1.12500E+00
 -1       193 3.75000E-01 5.00000E-01 1.25000E+00
 -1       194 3.75000E-01 5.00000E-01 1.37500E+00
 -1       195 3.75000E-01 5.00000E-01 1.50000E+00
 -1       196 2.50000E-01 5.00000E-01 1.00000E+00
 -1       197 2.50000E-01 5.00000E-01 1.12500E+00
 -1       198 2.50000E-01 5.00000E-01 1.25000E+00
 -1       199 2.50000E-01 5.00000E-01 1.37500E+00
 -1       200 2.50000E-01 5.00000E-01 1.50000E+00
 -1       201 7.50000E-01 3.75000E-01 1.00000E+00
 -1       202 7.50000E-01 3.75000E-01 1.12500E+00
 -1       203 6.25000E-01 3.75000E-01 1.00000E+00
 -1       204 6.25000E-01 3.75000E-01 1.12500E+00
 -1       205 7.50000E-01 3.75000E-01 1.25000E+00
 -1       206 6.25000E-01 3.75000E-01 1.25000E+00
 -1       207 7.50000E-01 3.75000E-01 1.37500E+00
 -1       208 6.25000E-01 3.75000E-01 1.37500E+00
 -1       209 7.50000E-01 3.75000E-01 1.50000E+00
 -1       210 6.25000E-01 3.75000E-01 1.50000E+00
 -1       211 5.00000E-01 3.75000E-01 1.00000E+00
 -1       212 5.00000E-01 3.75000E-01 1.12500E+00
 -1       213 5.00000E-01 3.75000E-01 1.25000E+00
 -1       214 5.00000E-01 3.75000E-01 1.37500E+00
 -1       215 5.00000E-01 3.75000E-01 1.50000E+00
 -1       216 3.75000E-01 3.75000E-01 1.00000E+00
 -1       217 3.75000E-01 3.75000E-01 1.12500E+00
 -1       218 3.75000E-01 3.75000E-01 1.25000E+00
 -1       219 3.75000E-01 3.75000E-01 1.37500E+00
 -1       220 3.75000E-01 3.75000E-01 1.50000E+00
 -1       221 2.50000E-01 3.75000E-01 1.00000E+00
 -1       222 2.50000E-01 3.75000E-01 1.12500E+00
 -1       223 2.50000E-01 3.75000E-01 1.25000E+00
 -1       224 2.50000E-01 3.75000E-01 1.37500E+00
 -1       225 2.50000E-01 3.75000E-01 1.50000E+00
 -1       226 7.50000E-01 2.50000E-01 1.00000E+00
 -1       227 7.50000E-01 2.50000E-01 1.12500E+00
 -1       228 6.25000E-01 2.50000E-01 1.00000E+00
 -1       229 6.25000E-01 2.50000E-01 1.12500E+00
 -1       230 7.50000E-01 2.50000E-01 1.25000E+00
 -1       231 6.25000E-01 2.50000E-01 1.25000E+00
 -1       232 7.50000E-01 2.50000E-01 1.37500E+00
 -1       233 6.25000E-01 2.50000E-01 1.37500E+00
 -1       234 7.50000E-01 2.50000E-01 1.50000E+00
 -1       235 6.25000E-01 2.50000E-01 1.50000E+00
 -1       236 5.00000E-01 2.50000E-01 1.00000E+00
 -1       237 5.00000E-01 2.50000E-01 1.12500E+00
 -1       238 5.00000E-01 2.50000E-01 1.25000E+00
 -1       239 5.00000E-01 2.50000E-01 1.37500E+00
 -1       240 5.00000E-01 2.50000E-01 1.50000E+00
 -1       241 3.75000E-01 2.50000E-01 1.00000E+00
 -1       242 3.75000E-01 2.50000E-01 1.12500E+00
 -1       243 3.75000E-01 2.50000E-01 1.25000E+00
 -1       244 3.75000E-01 2.50000E-01 1.37500E+00
 -1       245 3.75000E-01 2.50000E-01 1.50000E+00
 -1       246 2.50000E-01 2.50000E-01 1.00000E+00
 -1       247 2.50000E-01 2.50000E-01 1.12500E+00
 -1       248 2.50000E-01 2.50000E-01 1.25000E+00
 -1       249 2.50000E-01 2.50000E-01 1.37500E+00
 -1       250 2.50000E-01 2.50000E-01 1.50000E+00
 -3
    3C                           128                                     1
 -1         1    1    0    1
 -2         1         2         3         4         5         6         7         8
 -1         2    1    0    1
 -2         4         3         9        10         8         7        11        12
 -1         3    1    0    1
 -2        10         9        13        14        12        11        15        16
 -1         4    1    0    1
 -2        14        13        17        18        16        15        19        20
 -1         5    1    0    1
 -2         5         6         7         8        21        22        23        24
 -1         6    1    0    1
 -2         8         7        11        12        24        23        25        26
 -1         7    1    0    1
 -2        12        11        15        16        26        25        27        28
 -1         8    1    0    1
 -2        16        15        19        20        28        27        29        30
 -1         9    1    0    1
 -2        21        22        23        24        31        32        33        34
 -1        10    1    0    1
 -2        24        23        25        26        34        33        35        36
 -1        11    1    0    1
 -2        26        25        27        28        36        35        37        38
 -1        12    1    0    1
 -2        28        27        29        30        38        37        39        40
 -1        13    1    0    1
 -2        31        32        33        34        41        42        43        44
 -1        14    1    0    1
 -2        34        33        35        36        44        43        45        46
 -1        15    1    0    1
 -2        36        35        37        38        46        45        47        48
 -1        16    1    0    1
 -2        38        37        39        40        48        47        49        50
 -1        17    1    0    1
 -2         2        51        52         3         6        53        54         7
 -1        18    1    0    1
 -2         3        52        55         9         7        54        56        11
 -1        19    1    0    1
 -2         9        55        57        13        11        56        58        15
 -1        20    1    0    1
 -2        13        57        59        17        15        58        60        19
 -1        21    1    0    1
 -2         6        53        54         7        22        61        62        23
 -1        22    1    0    1
 -2         7        54        56        11        23        62        63        25
 -1        23    1    0    1
 -2        11        56        58        15        25        63        64        27
 -1        24    1    0    1
 -2        15        58        60        19        27        64        65        29
 -1        25    1    0    1
 -2        22        61        62        23        32        66        67        33
 -1        26    1    0    1
 -2        23        62        63        25        33        67        68        35
 -1        27    1    0    1
 -2        25        63        64        27        35        68        69        37
 -1        28    1    0    1
 -2        27        64        65        29        37        69        70        39
 -1        29    1    0    1
 -2        32        66        67        33        42        71        72        43
 -1        30    1    0    1
 -2        33        67        68        35        43        72        73        45
 -1        31    1    0    1
 -2        35        68        69        37        45        73        74        47
 -1        32    1    0    1
 -2        37        69        70        39        47        74        75        49
 -1        33    1    0    1
 -2        51        76        77        52        53        78        79        54
 -1        34    1    0    1
 -2        52        77        80        55        54        79        81        56
 -1        35    1    0    1
 -2        55        80        82        57        56        81        83        58
 -1        36    1    0    1
 -2        57        82        84        59        58        83        85        60
 -1        37    1    0    1
 -2        53        78        79        54        61        86        87        62
 -1        38    1    0    1
 -2        54        79        81        56        62        87        88        63
 -1        39    1    0    1
 -2        56        81        83        58        63        88        89        64
 -1        40    1    0    1
 -2        58        83        85        60        64        89        90        65
 -1        41    1    0    1
 -2        61        86        87        62        66        91        92        67
 -1        42    1    0    1
 -2        62        87        88        63        67        92        93        68
 -1        43    1    0    1
 -2        63        88        89        64        68        93        94        69
 -1        44    1    0    1
 -2        64        89        90        65        69        94        95        70
 -1        45    1    0    1
 -2        66        91        92        67        71        96        97        72
 -1        46    1    0    1
 -2        67        92        93        68        72        97        98        73
 -1        47    1    0    1
 -2        68        93        94        69        73        98        99        74
 -1        48    1    0    1
 -2        69        94        95        70        74        99       100        75
 -1        49    1    0    1
 -2        76       101       102        77        78       103       104        79
 -1        50    1    0    1
 -2        77       102       105        80        79       104       106        81
 -1        51    1    0    1
 -2        80       105       107        82        81       106       108        83
 -1        52    1    0    1
 -2        82       107       109        84        83       108       110        85
 -1        53    1    0    1
 -2        78       103       104        79        86       111       112        87
 -1        54    1    0    1
 -2        79       104       106        81        87       112       113        88
 -1        55    1    0    1
 -2        81       106       108        83        88       113       114        89
 -1        56    1    0    1
 -2        83       108       110        85        89       114       115        90
 -1        57    1    0    1
 -2        86       111       112        87        91       116       117        92
 -1        58    1    0    1
 -2        87       112       113        88        92       117       118        93
 -1        59    1    0    1
 -2        88       113       114        89        93       118       119        94
 -1        60    1    0    1
 -2        89       114       115        90        94       119       120        95
 -1        61    1    0    1
 -2        91       116       117        92        96       121       122        97
 -1        62    1    0    1
 -2        92       117       118        93        97       122       123        98
 -1        63    1    0    1
 -2        93       118       119        94        98       123       124        99
 -1        64    1    0    1
 -2        94       119       120        95        99       124       125       100
 -1        65    1    0    1
 -2       126       127       128       129       130       131       132       133
 -1        66    1    0    1
 -2       129       128       134       135       133       132       136       137
 -1        67    1    0    1
 -2       135       134       138       139       137       136       140       141
 -1        68    1    0    1
 -2       139       138       142       143       141       140       144       145
 -1        69    1    0    1
 -2       130       131       132       133       146       147       148       149
 -1        70    1    0    1
 -2       133       132       136       137       149       148       150       151
 -1        71    1    0    1
 -2       137       136       140       141       151       150       152       153
 -1        72    1    0    1
 -2       141       140       144       145       153       152       154       155
 -1        73    1    0    1
 -2       146       147       148       149       156       157       158       159
 -1        74    1    0    1
 -2       149       148       150       151       159       158       160       161
 -1        75    1    0    1
 -2       151       150       152       153       161       160       162       163
 -1        76    1    0    1
 -2       153       152       154       155       163       162       164       165
 -1        77    1    0    1
 -2       156       157       158       159       166       167       168       169
 -1        78    1    0    1
 -2       159       158       160       161       169       168       170       171
 -1        79    1    0    1
 -2       161       160       162       163       171       170       172       173
 -1        80    1    0    1
 -2       163       162       164       165       173       172       174       175
 -1        81    1    0    1
 -2       127       176       177       128       131       178       179       132
 -1        82    1    0    1
 -2       128       177       180       134       132       179       181       136
 -1        83    1    0    1
 -2       134       180       182       138       136       181       183       140
 -1        84    1    0    1
 -2       138       182       184       142       140       183       185       144
 -1        85    1    0    1
 -2       131       178       179       132       147       186       187       148
 -1        86    1    0    1
 -2       132       179       181       136       148       187       188       150
 -1        87    1    0    1
 -2       136       181       183       140       150       188       189       152
 -1        88    1    0    1
 -2       140       183       185       144       152       189       190       154
 -1        89    1    0    1
 -2       147       186       187       148       157       191       192       158
 -1        90    1    0    1
 -2       148       187       188       150       158       192       193       160
 -1        91    1    0    1
 -2       150       188       189       152       160       193       194       162
 -1        92    1    0    1
 -2       152       189       190       154       162       194       195       164
 -1        93    1    0    1
 -2       157       191       192       158       167       196       197       168
 -1        94    1    0    1
 -2       158       192       193       160       168       197       198       170
 -1        95    1    0    1
 -2       160       193       194       162       170       198       199       172
 -1        96    1    0    1
 -2       162       194       195       164       172       199       200       174
 -1        97    1    0    1
 -2       176       201       202       177       178       203       204       179
 -1        98    1    0    1
 -2       177       202       205       180       179       204       206       181
 -1        99    1    0    1
 -2       180       205       207       182       181       206       208       183
 -1       100    1    0    1
 -2       182       207       209       184       183       208       210       185
 -1       101    1    0    1
 -2       178       203       204       179       186       211       212       187
 -1       102    1    0    1
 -2       179       204       206       181       187       212       213       188
 -1       103    1    0    1
 -2       181       206       208       183       188       213       214       189
 -1       104    1    0    1
 -2       183       208       210       185       189       214       215       190
 -1       105    1    0    1
 -2       186       211       212       187       191       216       217       192
 -1       106    1    0    1
 -2       187       212       213       188       192       217       218       193
 -1       107    1    0    1
 -2       188       213       214       189       193       218       219       194
 -1       108    1    0    1
 -2       189       214       215       190       194       219       220       195
 -1       109    1    0    1
 -2       191       216       217       192       196       221       222       197
 -1       110    1    0    1
 -2       192       217       218       193       197       222       223       198
 -1       111    1    0    1
 -2       193       218       219       194       198       223       224       199
 -1       112    1    0    1
 -2       194       219       220       195       199       224       225       200
 -1       113    1    0    1
 -2       201       226       227       202       203       228       229       204
 -1       114    1    0    1
 -2       202       227       230       205       204       229       231       206
 -1       115    1    0    1
 -2       205       230       232       207       206       231       233       208
 -1       116    1    0    1
 -2       207       232       234       209       208       233       235       210
 -1       117    1    0    1
 -2       203       228       229       204       211       236       237       212
 -1       118    1    0    1
 -2       204       229       231       206       212       237       238       213
 -1       119    1    0    1
 -2       206       231       233       208       213       238       239       214
 -1       120    1    0    1
 -2       208       233       235       210       214       239       240       215
 -1       121    1    0    1
 -2       211       236       237       212       216       241       242       217
 -1       122    1    0    1
 -2       212       237       238       213       217       242       243       218
 -1       123    1    0    1
 -2       213       238       239       214       218       243       244       219
 -1       124    1    0    1
 -2       214       239       240       215       219       244       245       220
 -1       125    1    0    1
 -2       216       241       242       217       221       246       247       222
 -1       126    1    0    1
 -2       217       242       243       218       222       247       248       223
 -1       127    1    0    1
 -2       218       243       244       219       223       248       249       224
 -1       128    1    0    1
 -2       219       244       245       220       224       249       250       225
 -3
 9999
