# vtk DataFile Version 3.0

ASCII
DATASET UNSTRUCTURED_GRID

POINTS 16 double
	 1.00000000E+00	 1.00000000E+00	-1.49012000E-08
	 1.00000000E+00	 0.00000000E+00	-1.49012000E-08
	 1.00000000E+00	 0.00000000E+00	 1.00000000E+00
	 1.00000000E+00	 1.00000000E+00	 1.00000000E+00
	-7.45058000E-09	 1.00000000E+00	-1.49012000E-08
	-7.45058000E-09	 0.00000000E+00	-1.49012000E-08
	-7.45058000E-09	 0.00000000E+00	 1.00000000E+00
	-7.45058000E-09	 1.00000000E+00	 1.00000000E+00
	 5.00000000E-01	 6.41421000E-01	 1.00000000E+00
	 6.41421000E-01	 5.00000000E-01	 1.00000000E+00
	 6.41421000E-01	 5.00000000E-01	 1.20000000E+00
	 5.00000000E-01	 6.41421000E-01	 1.20000000E+00
	 3.58579000E-01	 5.00000000E-01	 1.00000000E+00
	 5.00000000E-01	 3.58579000E-01	 1.00000000E+00
	 5.00000000E-01	 3.58579000E-01	 1.20000000E+00
	 3.58579000E-01	 5.00000000E-01	 1.20000000E+00

CELLS 2 18
	8 0 1 2 3 4 5 6 7 
	8 8 9 10 11 12 13 14 15 

CELL_TYPES 2
	12
	12

POINT_DATA 16
FIELD U 1
	U 3 16 double
		 0.00000000E+00	 0.00000000E+00	 0.00000000E+00
		 0.00000000E+00	 0.00000000E+00	 0.00000000E+00
		 7.42914000E-07	-7.40929000E-07	-3.46688000E-06
		 7.42914000E-07	 7.44899000E-07	-3.46688000E-06
		 0.00000000E+00	 0.00000000E+00	 0.00000000E+00
		 0.00000000E+00	 0.00000000E+00	 0.00000000E+00
		-7.42914000E-07	-7.40929000E-07	-3.46688000E-06
		-7.42914000E-07	 7.44899000E-07	-3.46688000E-06
		 0.00000000E+00	 8.05133000E-06	-6.35585000E-06
		 4.03936000E-06	 4.01037000E-06	-6.35585000E-06
		 4.04368000E-06	 4.02086000E-06	-2.54084000E-05
		 0.00000000E+00	 8.07037000E-06	-2.54163000E-05
		-4.03936000E-06	 4.01037000E-06	-6.35585000E-06
		 0.00000000E+00	-3.44371000E-08	-6.35585000E-06
		 0.00000000E+00	 0.00000000E+00	-2.53917000E-05
		-4.04368000E-06	 4.02086000E-06	-2.54084000E-05
FIELD S 1
	S 10 16 double
		-4.20020000E-01	-4.20020000E-01	-9.80022000E-01	 8.93932000E-08	 6.01638000E-02	 6.00035000E-02	 5.79018608E-01	-9.92631085E-01	-4.20020089E-01	-4.07410826E-01
		-4.20020000E-01	-4.20020000E-01	-9.80022000E-01	-8.89169000E-08	-5.98432000E-02	 6.00035000E-02	 5.78918929E-01	-9.92565334E-01	-4.20020089E-01	-4.07476577E-01
		 1.80025000E-01	 1.80025000E-01	-6.19995000E-01	-8.89830000E-08	-5.98435000E-02	 6.00038000E-02	 8.13373900E-01	-6.28873371E-01	 1.80024911E-01	 1.88903460E-01
		 1.80025000E-01	 1.80025000E-01	-6.19995000E-01	 8.93277000E-08	 6.01640000E-02	 6.00038000E-02	 8.13444829E-01	-6.28920401E-01	 1.80024911E-01	 1.88950490E-01
		-4.20020000E-01	-4.20020000E-01	-9.80022000E-01	-8.93932000E-08	 6.01638000E-02	-6.00035000E-02	 5.79018608E-01	-9.92631085E-01	-4.20020089E-01	-4.07410826E-01
		-4.20020000E-01	-4.20020000E-01	-9.80022000E-01	 8.89169000E-08	-5.98432000E-02	-6.00035000E-02	 5.78918929E-01	-9.92565334E-01	-4.20020089E-01	-4.07476577E-01
		 1.80025000E-01	 1.80025000E-01	-6.19995000E-01	 8.89845000E-08	-5.98435000E-02	-6.00038000E-02	 8.13373900E-01	-6.28873371E-01	 1.80024911E-01	 1.88903460E-01
		 1.80025000E-01	 1.80025000E-01	-6.19995000E-01	-8.93260000E-08	 6.01640000E-02	-6.00038000E-02	 8.13444829E-01	-6.28920401E-01	 1.80024911E-01	 1.88950490E-01
		-9.21135000E-03	-7.37342000E-03	-2.00136000E+01	 0.00000000E+00	 7.68651000E-03	 0.00000000E+00	 2.00053121E+01	-2.00136030E+01	-9.21135000E-03	-7.37046680E-03
		-2.81071000E-03	 1.21737000E-03	-2.00009000E+01	 1.09508000E-03	 4.23641000E-03	 1.74279000E-03	 2.00001053E+01	-2.00009010E+01	-3.08914944E-03	 1.49685854E-03
		-7.77751000E-04	-1.04765000E-02	-2.00038000E+01	-8.18370000E-03	-2.78076000E-03	-7.89013000E-04	 1.99981803E+01	-2.00038004E+01	-1.51393219E-02	 3.88548892E-03
		 6.73978000E-03	 1.34085000E-02	-2.00026000E+01	 0.00000000E+00	 3.20115000E-03	 0.00000000E+00	 2.00126757E+01	-2.00026005E+01	 6.73978000E-03	 1.34090120E-02
		-2.81071000E-03	 1.21737000E-03	-2.00009000E+01	-1.09508000E-03	 4.23641000E-03	-1.74279000E-03	 2.00001053E+01	-2.00009010E+01	-3.08914944E-03	 1.49685854E-03
		 8.96135000E-03	 1.51796000E-02	-1.99756000E+01	 0.00000000E+00	 1.39036000E-02	 0.00000000E+00	 1.99876857E+01	-1.99756097E+01	 8.96135000E-03	 1.51892700E-02
		-2.92386000E-03	-2.89900000E-02	-1.99924000E+01	 0.00000000E+00	 4.35461000E-03	 0.00000000E+00	 1.99764572E+01	-1.99924009E+01	-2.89890501E-02	-2.92386000E-03
		-7.77751000E-04	-1.04765000E-02	-2.00038000E+01	 8.18370000E-03	-2.78076000E-03	 7.89013000E-04	 1.99981803E+01	-2.00038004E+01	-1.51393219E-02	 3.88548892E-03
FIELD CONTACT 1
	CONTACT 6 16 double
		 0.00000000E+00	 0.00000000E+00	 0.00000000E+00	 0.00000000E+00	 0.00000000E+00	 0.00000000E+00
		 0.00000000E+00	 0.00000000E+00	 0.00000000E+00	 0.00000000E+00	 0.00000000E+00	 0.00000000E+00
		 0.00000000E+00	 0.00000000E+00	 0.00000000E+00	 0.00000000E+00	 0.00000000E+00	 0.00000000E+00
		 0.00000000E+00	 0.00000000E+00	 0.00000000E+00	 0.00000000E+00	 0.00000000E+00	 0.00000000E+00
		 0.00000000E+00	 0.00000000E+00	 0.00000000E+00	 0.00000000E+00	 0.00000000E+00	 0.00000000E+00
		 0.00000000E+00	 0.00000000E+00	 0.00000000E+00	 0.00000000E+00	 0.00000000E+00	 0.00000000E+00
		 0.00000000E+00	 0.00000000E+00	 0.00000000E+00	 0.00000000E+00	 0.00000000E+00	 0.00000000E+00
		 0.00000000E+00	 0.00000000E+00	 0.00000000E+00	 0.00000000E+00	 0.00000000E+00	 0.00000000E+00
		-2.00006000E-06	 0.00000000E+00	 7.06316000E-06	 2.00006000E+01	 0.00000000E+00	 7.06316000E-03
		-2.00006000E-06	 3.05353000E-06	 4.00838000E-06	 2.00006000E+01	 3.05353000E-03	 4.00838000E-03
		 0.00000000E+00	 0.00000000E+00	 0.00000000E+00	 0.00000000E+00	 0.00000000E+00	 0.00000000E+00
		 0.00000000E+00	 0.00000000E+00	 0.00000000E+00	 0.00000000E+00	 0.00000000E+00	 0.00000000E+00
		-2.00006000E-06	-3.05353000E-06	 4.00838000E-06	 2.00006000E+01	-3.05353000E-03	 4.00838000E-03
		-2.00006000E-06	 0.00000000E+00	 9.50477000E-07	 2.00006000E+01	 0.00000000E+00	 9.50477000E-04
		 0.00000000E+00	 0.00000000E+00	 0.00000000E+00	 0.00000000E+00	 0.00000000E+00	 0.00000000E+00
		 0.00000000E+00	 0.00000000E+00	 0.00000000E+00	 0.00000000E+00	 0.00000000E+00	 0.00000000E+00
