# vtk DataFile Version 3.0

ASCII
DATASET UNSTRUCTURED_GRID

POINTS 16 double
	 1.00000000E+00	 1.00000000E+00	-1.49012000E-08
	 1.00000000E+00	 0.00000000E+00	-1.49012000E-08
	 1.00000000E+00	 0.00000000E+00	 1.00000000E+00
	 1.00000000E+00	 1.00000000E+00	 1.00000000E+00
	-7.45058000E-09	 1.00000000E+00	-1.49012000E-08
	-7.45058000E-09	 0.00000000E+00	-1.49012000E-08
	-7.45058000E-09	 0.00000000E+00	 1.00000000E+00
	-7.45058000E-09	 1.00000000E+00	 1.00000000E+00
	 5.00000000E-01	 6.41421000E-01	 1.00000000E+00
	 6.41421000E-01	 5.00000000E-01	 1.00000000E+00
	 6.41421000E-01	 5.00000000E-01	 1.20000000E+00
	 5.00000000E-01	 6.41421000E-01	 1.20000000E+00
	 3.58579000E-01	 5.00000000E-01	 1.00000000E+00
	 5.00000000E-01	 3.58579000E-01	 1.00000000E+00
	 5.00000000E-01	 3.58579000E-01	 1.20000000E+00
	 3.58579000E-01	 5.00000000E-01	 1.20000000E+00

CELLS 2 18
	8 0 1 2 3 4 5 6 7 
	8 8 9 10 11 12 13 14 15 

CELL_TYPES 2
	12
	12

POINT_DATA 16
FIELD U 1
	U 3 16 double
		 0.00000000E+00	 0.00000000E+00	 0.00000000E+00
		 0.00000000E+00	 0.00000000E+00	 0.00000000E+00
		 3.71525000E-06	-2.72354000E-06	-1.73386000E-05
		 3.71525000E-06	 4.70833000E-06	-1.73386000E-05
		 0.00000000E+00	 0.00000000E+00	 0.00000000E+00
		 0.00000000E+00	 0.00000000E+00	 0.00000000E+00
		-3.71525000E-06	-2.72354000E-06	-1.73386000E-05
		-3.71525000E-06	 4.70833000E-06	-1.73386000E-05
		 0.00000000E+00	 2.02512000E-03	-2.73385000E-05
		 1.96173000E-05	 2.00470000E-03	-2.73385000E-05
		 2.13874000E-05	 2.00996000E-03	-1.23374000E-04
		 0.00000000E+00	 2.03427000E-03	-1.27314000E-04
		-1.96173000E-05	 2.00470000E-03	-2.73385000E-05
		 0.00000000E+00	 1.98236000E-03	-2.73385000E-05
		 0.00000000E+00	 2.00000000E-03	-1.14991000E-04
		-2.13874000E-05	 2.00996000E-03	-1.23374000E-04
FIELD S 1
	S 10 16 double
		-2.10063000E+00	-2.10063000E+00	-4.90120000E+00	 2.82566000E-06	 3.80260000E-01	 3.00058000E-01	 2.92354062E+00	-4.98261346E+00	-2.10063275E+00	-2.01921379E+00
		-2.10063000E+00	-2.10063000E+00	-4.90121000E+00	-1.63450000E-06	-2.19966000E-01	 3.00058000E-01	 2.87376197E+00	-4.94979261E+00	-2.10063156E+00	-2.05204583E+00
		 9.00363000E-01	 9.00582000E-01	-3.10056000E+00	-1.80209000E-06	-2.19971000E-01	 3.00065000E-01	 4.05259668E+00	-3.13486379E+00	 9.00503410E-01	 9.34745377E-01
		 9.00362000E-01	 9.00585000E-01	-3.10056000E+00	 2.65813000E-06	 3.80269000E-01	 3.00065000E-01	 4.08805573E+00	-3.15837003E+00	 9.00444788E-01	 9.58312243E-01
		-2.10063000E+00	-2.10063000E+00	-4.90120000E+00	-2.82566000E-06	 3.80260000E-01	-3.00058000E-01	 2.92354062E+00	-4.98261346E+00	-2.10063275E+00	-2.01921379E+00
		-2.10063000E+00	-2.10063000E+00	-4.90121000E+00	 1.63450000E-06	-2.19966000E-01	-3.00058000E-01	 2.87376197E+00	-4.94979261E+00	-2.10063156E+00	-2.05204583E+00
		 9.00363000E-01	 9.00582000E-01	-3.10056000E+00	 1.80295000E-06	-2.19971000E-01	-3.00065000E-01	 4.05259668E+00	-3.13486379E+00	 9.00503410E-01	 9.34745377E-01
		 9.00362000E-01	 9.00585000E-01	-3.10056000E+00	-2.65727000E-06	 3.80269000E-01	-3.00065000E-01	 4.08805573E+00	-3.15837003E+00	 9.00444789E-01	 9.58312242E-01
		-3.83377000E+00	-2.91119000E+00	-1.06883000E+02	 0.00000000E+00	 3.68868000E+00	 0.00000000E+00	 1.03710584E+02	-1.07013702E+02	-3.83377000E+00	-2.78048844E+00
		-6.24983000E-01	 1.39395000E+00	-1.00502000E+02	 5.48387000E-01	 2.12047000E+00	 7.13951000E-01	 1.00980494E+02	-1.00551046E+02	-7.64037779E-01	 1.58205033E+00
		-7.25881000E-01	-5.58576000E+00	-1.02625000E+02	-4.10129000E+00	-1.39594000E+00	-5.54201000E-01	 9.98451831E+01	-1.02648771E+02	-7.89956568E+00	 1.61169610E+00
		 3.03971000E+00	 6.38276000E+00	-1.02034000E+02	 0.00000000E+00	 1.44017000E+00	 0.00000000E+00	 1.06813620E+02	-1.02053127E+02	 3.03971000E+00	 6.40188734E+00
		-6.24983000E-01	 1.39395000E+00	-1.00502000E+02	-5.48387000E-01	 2.12047000E+00	-7.13951000E-01	 1.00980494E+02	-1.00551046E+02	-7.64037779E-01	 1.58205033E+00
		 5.27602000E+00	 8.39235000E+00	-8.78480000E+01	 0.00000000E+00	 7.11662000E+00	 0.00000000E+00	 9.55193103E+01	-8.83714014E+01	 5.27602000E+00	 8.91575137E+00
		-1.79929000E+00	-1.48600000E+01	-9.69430000E+01	 0.00000000E+00	 2.33123000E+00	 0.00000000E+00	 8.94235271E+01	-9.70091557E+01	-1.47938443E+01	-1.79929000E+00
		-7.25881000E-01	-5.58576000E+00	-1.02625000E+02	 4.10129000E+00	-1.39594000E+00	 5.54201000E-01	 9.98451831E+01	-1.02648771E+02	-7.89956568E+00	 1.61169610E+00
FIELD CONTACT 1
	CONTACT 6 16 double
		 0.00000000E+00	 0.00000000E+00	 0.00000000E+00	 0.00000000E+00	 0.00000000E+00	 0.00000000E+00
		 0.00000000E+00	 0.00000000E+00	 0.00000000E+00	 0.00000000E+00	 0.00000000E+00	 0.00000000E+00
		 0.00000000E+00	 0.00000000E+00	 0.00000000E+00	 0.00000000E+00	 0.00000000E+00	 0.00000000E+00
		 0.00000000E+00	 0.00000000E+00	 0.00000000E+00	 0.00000000E+00	 0.00000000E+00	 0.00000000E+00
		 0.00000000E+00	 0.00000000E+00	 0.00000000E+00	 0.00000000E+00	 0.00000000E+00	 0.00000000E+00
		 0.00000000E+00	 0.00000000E+00	 0.00000000E+00	 0.00000000E+00	 0.00000000E+00	 0.00000000E+00
		 0.00000000E+00	 0.00000000E+00	 0.00000000E+00	 0.00000000E+00	 0.00000000E+00	 0.00000000E+00
		 0.00000000E+00	 0.00000000E+00	 0.00000000E+00	 0.00000000E+00	 0.00000000E+00	 0.00000000E+00
		-9.99985000E-06	 0.00000000E+00	 2.01913000E-03	 9.99985000E+01	 0.00000000E+00	 2.01913000E+00
		-9.99985000E-06	 1.48053000E-05	 2.00370000E-03	 9.99985000E+01	 1.48053000E-02	 2.00370000E+00
		 0.00000000E+00	 0.00000000E+00	 0.00000000E+00	 0.00000000E+00	 0.00000000E+00	 0.00000000E+00
		 0.00000000E+00	 0.00000000E+00	 0.00000000E+00	 0.00000000E+00	 0.00000000E+00	 0.00000000E+00
		-9.99985000E-06	-1.48053000E-05	 2.00370000E-03	 9.99985000E+01	-1.48053000E-02	 2.00370000E+00
		-9.99985000E-06	 0.00000000E+00	 1.98671000E-03	 9.99985000E+01	 0.00000000E+00	 1.98671000E+00
		 0.00000000E+00	 0.00000000E+00	 0.00000000E+00	 0.00000000E+00	 0.00000000E+00	 0.00000000E+00
		 0.00000000E+00	 0.00000000E+00	 0.00000000E+00	 0.00000000E+00	 0.00000000E+00	 0.00000000E+00
