# vtk DataFile Version 3.0

ASCII
DATASET UNSTRUCTURED_GRID

POINTS 16 double
	 1.00000000E+00	 1.00000000E+00	-1.49012000E-08
	 1.00000000E+00	 0.00000000E+00	-1.49012000E-08
	 1.00000000E+00	 0.00000000E+00	 1.00000000E+00
	 1.00000000E+00	 1.00000000E+00	 1.00000000E+00
	-7.45058000E-09	 1.00000000E+00	-1.49012000E-08
	-7.45058000E-09	 0.00000000E+00	-1.49012000E-08
	-7.45058000E-09	 0.00000000E+00	 1.00000000E+00
	-7.45058000E-09	 1.00000000E+00	 1.00000000E+00
	 5.00000000E-01	 6.41421000E-01	 1.00000000E+00
	 6.41421000E-01	 5.00000000E-01	 1.00000000E+00
	 6.41421000E-01	 5.00000000E-01	 1.20000000E+00
	 5.00000000E-01	 6.41421000E-01	 1.20000000E+00
	 3.58579000E-01	 5.00000000E-01	 1.00000000E+00
	 5.00000000E-01	 3.58579000E-01	 1.00000000E+00
	 5.00000000E-01	 3.58579000E-01	 1.20000000E+00
	 3.58579000E-01	 5.00000000E-01	 1.20000000E+00

CELLS 2 18
	8 0 1 2 3 4 5 6 7 
	8 8 9 10 11 12 13 14 15 

CELL_TYPES 2
	12
	12

POINT_DATA 16
FIELD U 1
	U 3 16 double
		 0.00000000E+00	 0.00000000E+00	 0.00000000E+00
		 0.00000000E+00	 0.00000000E+00	 0.00000000E+00
		 3.39027000E-06	-3.38121000E-06	-1.58212000E-05
		 3.39027000E-06	 3.39934000E-06	-1.58212000E-05
		 0.00000000E+00	 0.00000000E+00	 0.00000000E+00
		 0.00000000E+00	 0.00000000E+00	 0.00000000E+00
		-3.39027000E-06	-3.38121000E-06	-1.58212000E-05
		-3.39027000E-06	 3.39934000E-06	-1.58212000E-05
		 0.00000000E+00	 3.67521000E-05	-2.69181000E-05
		 1.84386000E-05	 1.83061000E-05	-2.69181000E-05
		 1.84584000E-05	 1.83541000E-05	-1.13908000E-04
		 0.00000000E+00	 3.68391000E-05	-1.13943000E-04
		-1.84386000E-05	 1.83061000E-05	-2.69181000E-05
		 0.00000000E+00	-1.57476000E-07	-2.69181000E-05
		 0.00000000E+00	 0.00000000E+00	-1.13831000E-04
		-1.84584000E-05	 1.83541000E-05	-1.13908000E-04
FIELD S 1
	S 10 16 double
		-1.91678000E+00	-1.91678000E+00	-4.47226000E+00	 1.86163000E-06	 2.74545000E-01	 2.73813000E-01	 2.64225729E+00	-4.52979822E+00	-1.91678186E+00	-1.85923992E+00
		-1.91678000E+00	-1.91678000E+00	-4.47226000E+00	-1.85171000E-06	-2.73081000E-01	 2.73813000E-01	 2.64180211E+00	-4.52949797E+00	-1.91678185E+00	-1.85954017E+00
		 8.21555000E-01	 8.21555000E-01	-2.82927000E+00	-1.85296000E-06	-2.73087000E-01	 2.73819000E-01	 3.71176282E+00	-2.86978464E+00	 8.21553147E-01	 8.62071488E-01
		 8.21555000E-01	 8.21555000E-01	-2.82927000E+00	 1.86042000E-06	 2.74550000E-01	 2.73819000E-01	 3.71208659E+00	-2.86999931E+00	 8.21553140E-01	 8.62286174E-01
		-1.91678000E+00	-1.91678000E+00	-4.47226000E+00	-1.86163000E-06	 2.74545000E-01	-2.73813000E-01	 2.64225729E+00	-4.52979822E+00	-1.91678186E+00	-1.85923992E+00
		-1.91678000E+00	-1.91678000E+00	-4.47226000E+00	 1.85171000E-06	-2.73081000E-01	-2.73813000E-01	 2.64180211E+00	-4.52949797E+00	-1.91678185E+00	-1.85954017E+00
		 8.21555000E-01	 8.21555000E-01	-2.82927000E+00	 1.85297000E-06	-2.73087000E-01	-2.73819000E-01	 3.71176282E+00	-2.86978464E+00	 8.21553147E-01	 8.62071488E-01
		 8.21555000E-01	 8.21555000E-01	-2.82927000E+00	-1.86041000E-06	 2.74550000E-01	-2.73819000E-01	 3.71208659E+00	-2.86999931E+00	 8.21553140E-01	 8.62286174E-01
		-4.21381000E-02	-3.37207000E-02	-9.13123000E+01	 0.00000000E+00	 3.51178000E-02	 0.00000000E+00	 9.12743912E+01	-9.13123135E+01	-4.21381000E-02	-3.37071891E-02
		-1.28478000E-02	 5.58267000E-03	-9.12540000E+01	 5.00655000E-03	 1.93598000E-02	 7.95940000E-03	 9.12503764E+01	-9.12540048E+01	-1.41198956E-02	 6.85956677E-03
		-3.56323000E-03	-4.79233000E-02	-9.12673000E+01	-3.74363000E-02	-1.27404000E-02	-3.61760000E-03	 9.12415907E+01	-9.12673019E+01	-6.92550185E-02	 1.77704117E-02
		 3.08107000E-02	 6.13233000E-02	-9.12619000E+01	 0.00000000E+00	 1.45946000E-02	 0.00000000E+00	 9.13079743E+01	-9.12619023E+01	 3.08107000E-02	 6.13256324E-02
		-1.28478000E-02	 5.58267000E-03	-9.12540000E+01	-5.00655000E-03	 1.93598000E-02	-7.95940000E-03	 9.12503764E+01	-9.12540048E+01	-1.41198956E-02	 6.85956677E-03
		 4.10149000E-02	 6.94585000E-02	-9.11385000E+01	 0.00000000E+00	 6.35232000E-02	 0.00000000E+00	 9.11938064E+01	-9.11385442E+01	 4.10149000E-02	 6.95027417E-02
		-1.33648000E-02	-1.32597000E-01	-9.12154000E+01	 0.00000000E+00	 1.98459000E-02	 0.00000000E+00	 9.11424841E+01	-9.12154043E+01	-1.32592676E-01	-1.33648000E-02
		-3.56323000E-03	-4.79233000E-02	-9.12673000E+01	 3.74363000E-02	-1.27404000E-02	 3.61760000E-03	 9.12415907E+01	-9.12673019E+01	-6.92550185E-02	 1.77704117E-02
FIELD CONTACT 1
	CONTACT 6 16 double
		 0.00000000E+00	 0.00000000E+00	 0.00000000E+00	 0.00000000E+00	 0.00000000E+00	 0.00000000E+00
		 0.00000000E+00	 0.00000000E+00	 0.00000000E+00	 0.00000000E+00	 0.00000000E+00	 0.00000000E+00
		 0.00000000E+00	 0.00000000E+00	 0.00000000E+00	 0.00000000E+00	 0.00000000E+00	 0.00000000E+00
		 0.00000000E+00	 0.00000000E+00	 0.00000000E+00	 0.00000000E+00	 0.00000000E+00	 0.00000000E+00
		 0.00000000E+00	 0.00000000E+00	 0.00000000E+00	 0.00000000E+00	 0.00000000E+00	 0.00000000E+00
		 0.00000000E+00	 0.00000000E+00	 0.00000000E+00	 0.00000000E+00	 0.00000000E+00	 0.00000000E+00
		 0.00000000E+00	 0.00000000E+00	 0.00000000E+00	 0.00000000E+00	 0.00000000E+00	 0.00000000E+00
		 0.00000000E+00	 0.00000000E+00	 0.00000000E+00	 0.00000000E+00	 0.00000000E+00	 0.00000000E+00
		-9.12588000E-06	 0.00000000E+00	 3.22414000E-05	 9.12588000E+01	 0.00000000E+00	 3.22414000E-02
		-9.12588000E-06	 1.39388000E-05	 1.82969000E-05	 9.12588000E+01	 1.39388000E-02	 1.82969000E-02
		 0.00000000E+00	 0.00000000E+00	 0.00000000E+00	 0.00000000E+00	 0.00000000E+00	 0.00000000E+00
		 0.00000000E+00	 0.00000000E+00	 0.00000000E+00	 0.00000000E+00	 0.00000000E+00	 0.00000000E+00
		-9.12588000E-06	-1.39388000E-05	 1.82969000E-05	 9.12588000E+01	-1.39388000E-02	 1.82969000E-02
		-9.12588000E-06	 0.00000000E+00	 4.33819000E-06	 9.12588000E+01	 0.00000000E+00	 4.33819000E-03
		 0.00000000E+00	 0.00000000E+00	 0.00000000E+00	 0.00000000E+00	 0.00000000E+00	 0.00000000E+00
		 0.00000000E+00	 0.00000000E+00	 0.00000000E+00	 0.00000000E+00	 0.00000000E+00	 0.00000000E+00
