<?xml version="1.0"?>
<VTKFile type="UnstructuredGrid" version="0.1" byte_order="LittleEndian">
	<UnstructuredGrid>
		<Piece NumberOfPoints="16" NumberOfCells="2">
			<Points>
				<DataArray type="Float64" NumberOfComponents="3" format="ascii">
					 1.00000000E+00	 1.00000000E+00	-1.49012000E-08
					 1.00000000E+00	 0.00000000E+00	-1.49012000E-08
					 1.00000000E+00	 0.00000000E+00	 1.00000000E+00
					 1.00000000E+00	 1.00000000E+00	 1.00000000E+00
					-7.45058000E-09	 1.00000000E+00	-1.49012000E-08
					-7.45058000E-09	 0.00000000E+00	-1.49012000E-08
					-7.45058000E-09	 0.00000000E+00	 1.00000000E+00
					-7.45058000E-09	 1.00000000E+00	 1.00000000E+00
					 5.00000000E-01	 6.41421000E-01	 1.00000000E+00
					 6.41421000E-01	 5.00000000E-01	 1.00000000E+00
					 6.41421000E-01	 5.00000000E-01	 1.20000000E+00
					 5.00000000E-01	 6.41421000E-01	 1.20000000E+00
					 3.58579000E-01	 5.00000000E-01	 1.00000000E+00
					 5.00000000E-01	 3.58579000E-01	 1.00000000E+00
					 5.00000000E-01	 3.58579000E-01	 1.20000000E+00
					 3.58579000E-01	 5.00000000E-01	 1.20000000E+00

				</DataArray>
			</Points>
			<Cells>
				<DataArray type="Int32" Name="connectivity" format="ascii">
					0 1 2 3 4 5 6 7 8 9 10 11 12 13 14 15 
				</DataArray>
				<DataArray type="Int32" Name="offsets" format="ascii">
					8 16 
				</DataArray>
				<DataArray type="UInt8" Name="types" format="ascii">
					12 12 
				</DataArray>
			</Cells>
			<PointData>
				<DataArray type="Float32" Name="U" NumberOfComponents="3" ComponentName0="D1" ComponentName1="D2" ComponentName2="D3" format="ascii">
					 0.00000000E+00	 0.00000000E+00	 0.00000000E+00
					 0.00000000E+00	 0.00000000E+00	 0.00000000E+00
					 3.71482000E-06	-1.98791000E-06	-1.73388000E-05
					 3.71482000E-06	 5.44640000E-06	-1.73388000E-05
					 0.00000000E+00	 0.00000000E+00	 0.00000000E+00
					 0.00000000E+00	 0.00000000E+00	 0.00000000E+00
					-3.71482000E-06	-1.98791000E-06	-1.73388000E-05
					-3.71482000E-06	 5.44640000E-06	-1.73388000E-05
					 0.00000000E+00	 3.51376000E-03	-2.73386000E-05
					 1.91743000E-05	 3.49318000E-03	-2.73386000E-05
					 2.22557000E-05	 3.50234000E-03	-1.23897000E-04
					 0.00000000E+00	 3.52969000E-03	-1.30762000E-04
					-1.91743000E-05	 3.49318000E-03	-2.73386000E-05
					 0.00000000E+00	 3.46925000E-03	-2.73386000E-05
					 0.00000000E+00	 3.50000000E-03	-1.09290000E-04
					-2.22557000E-05	 3.50234000E-03	-1.23897000E-04
				</DataArray>
				<DataArray type="Float32" Name="S" NumberOfComponents="10" ComponentName0="xx" ComponentName1="yy" ComponentName2="zz" ComponentName3="xy" ComponentName4="yz" ComponentName5="zx" ComponentName6="Mises" ComponentName7="Min Principal" ComponentName8="Mid Principal" ComponentName9="Max Principal" format="ascii">
					-2.10065000E+00	-2.10065000E+00	-4.90126000E+00	 3.26823000E-06	 4.39867000E-01	 3.00023000E-01	 2.94854315E+00	-4.99907067E+00	-2.10065304E+00	-2.00283628E+00
					-2.10065000E+00	-2.10066000E+00	-4.90126000E+00	-1.19288000E-06	-1.60556000E-01	 3.00023000E-01	 2.86195116E+00	-4.94201231E+00	-2.10065877E+00	-2.05989892E+00
					 9.00391000E-01	 9.01142000E-01	-3.10043000E+00	-1.47214000E-06	-1.60560000E-01	 3.00030000E-01	 4.04437466E+00	-3.12916583E+00	 9.00970144E-01	 9.29298690E-01
					 9.00390000E-01	 9.01147000E-01	-3.10042000E+00	 2.98903000E-06	 4.39877000E-01	 3.00030000E-01	 4.10609780E+00	-3.17006180E+00	 9.00625840E-01	 9.70552964E-01
					-2.10065000E+00	-2.10065000E+00	-4.90126000E+00	-3.26823000E-06	 4.39867000E-01	-3.00023000E-01	 2.94854315E+00	-4.99907067E+00	-2.10065304E+00	-2.00283628E+00
					-2.10065000E+00	-2.10066000E+00	-4.90126000E+00	 1.19288000E-06	-1.60556000E-01	-3.00023000E-01	 2.86195116E+00	-4.94201231E+00	-2.10065877E+00	-2.05989892E+00
					 9.00391000E-01	 9.01142000E-01	-3.10043000E+00	 1.47366000E-06	-1.60560000E-01	-3.00030000E-01	 4.04437466E+00	-3.12916583E+00	 9.00970143E-01	 9.29298691E-01
					 9.00390000E-01	 9.01147000E-01	-3.10042000E+00	-2.98749000E-06	 4.39877000E-01	-3.00030000E-01	 4.10609780E+00	-3.17006180E+00	 9.00625841E-01	 9.70552962E-01
					-6.67444000E+00	-5.06645000E+00	-1.11993000E+02	 0.00000000E+00	 6.42617000E+00	 0.00000000E+00	 1.06713743E+02	-1.12377821E+02	-6.67444000E+00	-4.68162908E+00
					-1.08332000E+00	 2.43442000E+00	-1.00875000E+02	 9.55503000E-01	 3.69471000E+00	 1.24284000E+00	 1.01833789E+02	-1.01021569E+02	-1.32526123E+00	 2.82293018E+00
					-1.26739000E+00	-9.73609000E+00	-1.04580000E+02	-7.14663000E+00	-2.43237000E+00	-9.66841000E-01	 1.00220094E+02	-1.04655189E+02	-1.37346580E+01	 2.80636729E+00
					 5.29425000E+00	 1.11199000E+01	-1.03550000E+02	 0.00000000E+00	 2.50802000E+00	 0.00000000E+00	 1.11955205E+02	-1.03604828E+02	 5.29425000E+00	 1.11747283E+01
					-1.08332000E+00	 2.43442000E+00	-1.00875000E+02	-9.55503000E-01	 3.69471000E+00	-1.24284000E+00	 1.01833789E+02	-1.01021569E+02	-1.32526123E+00	 2.82293018E+00
					 9.19934000E+00	 1.46300000E+01	-7.88246000E+01	 0.00000000E+00	 1.24030000E+01	 0.00000000E+00	 9.33661470E+01	-8.04426718E+01	 9.19934000E+00	 1.62480718E+01
					-3.13761000E+00	-2.58944000E+01	-9.46781000E+01	 0.00000000E+00	 4.06372000E+00	 0.00000000E+00	 8.28486968E+01	-9.49173511E+01	-2.56551489E+01	-3.13761000E+00
					-1.26739000E+00	-9.73609000E+00	-1.04580000E+02	 7.14663000E+00	-2.43237000E+00	 9.66841000E-01	 1.00220094E+02	-1.04655189E+02	-1.37346580E+01	 2.80636729E+00
				</DataArray>
				<DataArray type="Float32" Name="CONTACT" NumberOfComponents="6" ComponentName0="COPEN" ComponentName1="CSLIP1" ComponentName2="CSLIP2" ComponentName3="CPRESS" ComponentName4="CSHEAR1" ComponentName5="CSHEAR2" format="ascii">
					 0.00000000E+00	 0.00000000E+00	 0.00000000E+00	 0.00000000E+00	 0.00000000E+00	 0.00000000E+00
					 0.00000000E+00	 0.00000000E+00	 0.00000000E+00	 0.00000000E+00	 0.00000000E+00	 0.00000000E+00
					 0.00000000E+00	 0.00000000E+00	 0.00000000E+00	 0.00000000E+00	 0.00000000E+00	 0.00000000E+00
					 0.00000000E+00	 0.00000000E+00	 0.00000000E+00	 0.00000000E+00	 0.00000000E+00	 0.00000000E+00
					 0.00000000E+00	 0.00000000E+00	 0.00000000E+00	 0.00000000E+00	 0.00000000E+00	 0.00000000E+00
					 0.00000000E+00	 0.00000000E+00	 0.00000000E+00	 0.00000000E+00	 0.00000000E+00	 0.00000000E+00
					 0.00000000E+00	 0.00000000E+00	 0.00000000E+00	 0.00000000E+00	 0.00000000E+00	 0.00000000E+00
					 0.00000000E+00	 0.00000000E+00	 0.00000000E+00	 0.00000000E+00	 0.00000000E+00	 0.00000000E+00
					-9.99972000E-06	 0.00000000E+00	 3.50698000E-03	 9.99972000E+01	 0.00000000E+00	 3.50698000E+00
					-9.99972000E-06	 1.44521000E-05	 3.49143000E-03	 9.99972000E+01	 1.44521000E-02	 3.49143000E+00
					 0.00000000E+00	 0.00000000E+00	 0.00000000E+00	 0.00000000E+00	 0.00000000E+00	 0.00000000E+00
					 0.00000000E+00	 0.00000000E+00	 0.00000000E+00	 0.00000000E+00	 0.00000000E+00	 0.00000000E+00
					-9.99972000E-06	-1.44521000E-05	 3.49143000E-03	 9.99972000E+01	-1.44521000E-02	 3.49143000E+00
					-9.99972000E-06	 0.00000000E+00	 3.47317000E-03	 9.99972000E+01	 0.00000000E+00	 3.47317000E+00
					 0.00000000E+00	 0.00000000E+00	 0.00000000E+00	 0.00000000E+00	 0.00000000E+00	 0.00000000E+00
					 0.00000000E+00	 0.00000000E+00	 0.00000000E+00	 0.00000000E+00	 0.00000000E+00	 0.00000000E+00
				</DataArray>
			</PointData>
		</Piece>
	</UnstructuredGrid>
</VTKFile>