# vtk DataFile Version 3.0

ASCII
DATASET UNSTRUCTURED_GRID

POINTS 16 double
	 1.00000000E+00	 1.00000000E+00	-1.49012000E-08
	 1.00000000E+00	 0.00000000E+00	-1.49012000E-08
	 1.00000000E+00	 0.00000000E+00	 1.00000000E+00
	 1.00000000E+00	 1.00000000E+00	 1.00000000E+00
	-7.45058000E-09	 1.00000000E+00	-1.49012000E-08
	-7.45058000E-09	 0.00000000E+00	-1.49012000E-08
	-7.45058000E-09	 0.00000000E+00	 1.00000000E+00
	-7.45058000E-09	 1.00000000E+00	 1.00000000E+00
	 5.00000000E-01	 6.41421000E-01	 1.00000000E+00
	 6.41421000E-01	 5.00000000E-01	 1.00000000E+00
	 6.41421000E-01	 5.00000000E-01	 1.20000000E+00
	 5.00000000E-01	 6.41421000E-01	 1.20000000E+00
	 3.58579000E-01	 5.00000000E-01	 1.00000000E+00
	 5.00000000E-01	 3.58579000E-01	 1.00000000E+00
	 5.00000000E-01	 3.58579000E-01	 1.20000000E+00
	 3.58579000E-01	 5.00000000E-01	 1.20000000E+00

CELLS 2 18
	8 0 1 2 3 4 5 6 7 
	8 8 9 10 11 12 13 14 15 

CELL_TYPES 2
	12
	12

POINT_DATA 16
FIELD U 1
	U 3 16 double
		 0.00000000E+00	 0.00000000E+00	 0.00000000E+00
		 0.00000000E+00	 0.00000000E+00	 0.00000000E+00
		 3.63496000E-06	-1.38850000E-05	-1.74177000E-05
		 3.63499000E-06	-5.93361000E-06	-1.74177000E-05
		 0.00000000E+00	 0.00000000E+00	 0.00000000E+00
		 0.00000000E+00	 0.00000000E+00	 0.00000000E+00
		-3.63496000E-06	-1.38850000E-05	-1.74177000E-05
		-3.63499000E-06	-5.93361000E-06	-1.74177000E-05
		 0.00000000E+00	-9.98068000E-02	-2.74195000E-05
		 2.61823000E-05	-9.98249000E-02	-2.74195000E-05
		 8.53788000E-06	-9.98774000E-02	-1.15739000E-04
		 0.00000000E+00	-9.98980000E-02	-7.64270000E-05
		-2.61823000E-05	-9.98249000E-02	-2.74195000E-05
		 0.00000000E+00	-9.98238000E-02	-2.74195000E-05
		 0.00000000E+00	-1.00000000E-01	-1.99457000E-04
		-8.53788000E-06	-9.98774000E-02	-1.15739000E-04
FIELD S 1
	S 10 16 double
		-2.11021000E+00	-2.11021000E+00	-4.92355000E+00	-3.48413000E-06	-4.79194000E-01	 2.93576000E-01	 2.97696544E+00	-5.03165190E+00	-2.11021310E+00	-2.00210500E+00
		-2.11020000E+00	-2.11017000E+00	-4.92353000E+00	-8.15290000E-06	-1.12138000E+00	 2.93573000E-01	 3.45629060E+00	-5.33960231E+00	-2.11020207E+00	-1.69409562E+00
		 9.08335000E-01	 1.01844000E+00	-3.07940000E+00	-5.76326000E-06	-1.12140000E+00	 2.93580000E-01	 4.51490915E+00	-3.38505211E+00	 9.13719029E-01	 1.31870808E+00
		 9.08342000E-01	 1.01842000E+00	-3.07942000E+00	-1.09287000E-06	-4.79205000E-01	 2.93582000E-01	 4.15942439E+00	-3.15564364E+00	 9.21852508E-01	 1.08113313E+00
		-2.11021000E+00	-2.11021000E+00	-4.92355000E+00	 3.48413000E-06	-4.79194000E-01	-2.93575000E-01	 2.97696514E+00	-5.03165171E+00	-2.11021310E+00	-2.00210519E+00
		-2.11020000E+00	-2.11017000E+00	-4.92353000E+00	 8.15290000E-06	-1.12138000E+00	-2.93573000E-01	 3.45629060E+00	-5.33960231E+00	-2.11020207E+00	-1.69409562E+00
		 9.08335000E-01	 1.01844000E+00	-3.07940000E+00	 5.75103000E-06	-1.12140000E+00	-2.93580000E-01	 4.51490915E+00	-3.38505211E+00	 9.13719033E-01	 1.31870807E+00
		 9.08342000E-01	 1.01842000E+00	-3.07942000E+00	 1.08376000E-06	-4.79205000E-01	-2.93582000E-01	 4.15942439E+00	-3.15564364E+00	 9.21852512E-01	 1.08113313E+00
		 3.82059000E+01	 2.90226000E+01	-3.12618000E+01	 0.00000000E+00	-3.68280000E+01	 0.00000000E+00	 9.13293839E+01	-4.87100802E+01	 3.82059000E+01	 4.64708802E+01
		 6.15101000E+00	-1.40369000E+01	-9.50297000E+01	-5.48179000E+00	-2.11898000E+01	-7.11770000E+00	 1.00953547E+02	-1.00870779E+02	-9.62320069E+00	 7.57838936E+00
		 7.27991000E+00	 5.57783000E+01	-7.37382000E+01	 4.09407000E+01	 1.39445000E+01	 5.55314000E+00	 1.36196762E+02	-7.52428133E+01	-1.59820977E+01	 8.05449210E+01
		-3.03132000E+01	-6.36602000E+01	-7.96055000E+01	 0.00000000E+00	-1.43888000E+01	 0.00000000E+00	 5.01907921E+01	-8.80827957E+01	-5.51829043E+01	-3.03132000E+01
		 6.15101000E+00	-1.40369000E+01	-9.50297000E+01	 5.48179000E+00	-2.11898000E+01	 7.11770000E+00	 1.00953547E+02	-1.00870779E+02	-9.62320069E+00	 7.57838936E+00
		-5.27595000E+01	-8.38494000E+01	-2.21258000E+02	 0.00000000E+00	-7.09863000E+01	 0.00000000E+00	 1.98083036E+02	-2.51343050E+02	-5.37643502E+01	-5.27595000E+01
		 1.80134000E+01	 1.48563000E+02	-1.30392000E+02	 0.00000000E+00	-2.32626000E+01	 0.00000000E+00	 2.45081766E+02	-1.32318607E+02	 1.80134000E+01	 1.50489607E+02
		 7.27991000E+00	 5.57783000E+01	-7.37382000E+01	-4.09407000E+01	 1.39445000E+01	-5.55314000E+00	 1.36196762E+02	-7.52428133E+01	-1.59820977E+01	 8.05449210E+01
FIELD CONTACT 1
	CONTACT 6 16 double
		 0.00000000E+00	 0.00000000E+00	 0.00000000E+00	 0.00000000E+00	 0.00000000E+00	 0.00000000E+00
		 0.00000000E+00	 0.00000000E+00	 0.00000000E+00	 0.00000000E+00	 0.00000000E+00	 0.00000000E+00
		 0.00000000E+00	 0.00000000E+00	 0.00000000E+00	 0.00000000E+00	 0.00000000E+00	 0.00000000E+00
		 0.00000000E+00	 0.00000000E+00	 0.00000000E+00	 0.00000000E+00	 0.00000000E+00	 0.00000000E+00
		 0.00000000E+00	 0.00000000E+00	 0.00000000E+00	 0.00000000E+00	 0.00000000E+00	 0.00000000E+00
		 0.00000000E+00	 0.00000000E+00	 0.00000000E+00	 0.00000000E+00	 0.00000000E+00	 0.00000000E+00
		 0.00000000E+00	 0.00000000E+00	 0.00000000E+00	 0.00000000E+00	 0.00000000E+00	 0.00000000E+00
		 0.00000000E+00	 0.00000000E+00	 0.00000000E+00	 0.00000000E+00	 0.00000000E+00	 0.00000000E+00
		-1.00018000E-05	 0.00000000E+00	-9.98009000E-02	 1.00018000E+02	 0.00000000E+00	-2.00035000E+01
		-1.00018000E-05	 2.00585000E-05	-9.98135000E-02	 1.00018000E+02	 1.30548000E-04	-2.00035000E+01
		 0.00000000E+00	 0.00000000E+00	 0.00000000E+00	 0.00000000E+00	 0.00000000E+00	 0.00000000E+00
		 0.00000000E+00	 0.00000000E+00	 0.00000000E+00	 0.00000000E+00	 0.00000000E+00	 0.00000000E+00
		-1.00018000E-05	-2.00585000E-05	-9.98135000E-02	 1.00018000E+02	-1.30548000E-04	-2.00035000E+01
		-1.00018000E-05	 0.00000000E+00	-9.98124000E-02	 1.00018000E+02	 0.00000000E+00	-2.00035000E+01
		 0.00000000E+00	 0.00000000E+00	 0.00000000E+00	 0.00000000E+00	 0.00000000E+00	 0.00000000E+00
		 0.00000000E+00	 0.00000000E+00	 0.00000000E+00	 0.00000000E+00	 0.00000000E+00	 0.00000000E+00
