<?xml version="1.0"?>
<VTKFile type="UnstructuredGrid" version="0.1" byte_order="LittleEndian">
	<UnstructuredGrid>
		<Piece NumberOfPoints="16" NumberOfCells="2">
			<Points>
				<DataArray type="Float64" NumberOfComponents="3" format="ascii">
					 1.00000000E+00	 1.00000000E+00	-1.49012000E-08
					 1.00000000E+00	 0.00000000E+00	-1.49012000E-08
					 1.00000000E+00	 0.00000000E+00	 1.00000000E+00
					 1.00000000E+00	 1.00000000E+00	 1.00000000E+00
					-7.45058000E-09	 1.00000000E+00	-1.49012000E-08
					-7.45058000E-09	 0.00000000E+00	-1.49012000E-08
					-7.45058000E-09	 0.00000000E+00	 1.00000000E+00
					-7.45058000E-09	 1.00000000E+00	 1.00000000E+00
					 5.00000000E-01	 6.41421000E-01	 1.00000000E+00
					 6.41421000E-01	 5.00000000E-01	 1.00000000E+00
					 6.41421000E-01	 5.00000000E-01	 1.20000000E+00
					 5.00000000E-01	 6.41421000E-01	 1.20000000E+00
					 3.58579000E-01	 5.00000000E-01	 1.00000000E+00
					 5.00000000E-01	 3.58579000E-01	 1.00000000E+00
					 5.00000000E-01	 3.58579000E-01	 1.20000000E+00
					 3.58579000E-01	 5.00000000E-01	 1.20000000E+00

				</DataArray>
			</Points>
			<Cells>
				<DataArray type="Int32" Name="connectivity" format="ascii">
					0 1 2 3 4 5 6 7 8 9 10 11 12 13 14 15 
				</DataArray>
				<DataArray type="Int32" Name="offsets" format="ascii">
					8 16 
				</DataArray>
				<DataArray type="UInt8" Name="types" format="ascii">
					12 12 
				</DataArray>
			</Cells>
			<PointData>
				<DataArray type="Float32" Name="U" NumberOfComponents="3" ComponentName0="D1" ComponentName1="D2" ComponentName2="D3" format="ascii">
					 0.00000000E+00	 0.00000000E+00	 0.00000000E+00
					 0.00000000E+00	 0.00000000E+00	 0.00000000E+00
					 3.71544000E-06	-3.21429000E-06	-1.73386000E-05
					 3.71544000E-06	 4.21662000E-06	-1.73386000E-05
					 0.00000000E+00	 0.00000000E+00	 0.00000000E+00
					 0.00000000E+00	 0.00000000E+00	 0.00000000E+00
					-3.71544000E-06	-3.21429000E-06	-1.73386000E-05
					-3.71544000E-06	 4.21662000E-06	-1.73386000E-05
					 0.00000000E+00	 1.03270000E-03	-2.73385000E-05
					 1.99126000E-05	 1.01238000E-03	-2.73385000E-05
					 2.08085000E-05	 1.01504000E-03	-1.23026000E-04
					 0.00000000E+00	 1.03732000E-03	-1.25015000E-04
					-1.99126000E-05	 1.01238000E-03	-2.73385000E-05
					 0.00000000E+00	 9.91093000E-04	-2.73385000E-05
					 0.00000000E+00	 1.00000000E-03	-1.18793000E-04
					-2.08085000E-05	 1.01504000E-03	-1.23026000E-04
				</DataArray>
				<DataArray type="Float32" Name="S" NumberOfComponents="10" ComponentName0="xx" ComponentName1="yy" ComponentName2="zz" ComponentName3="xy" ComponentName4="yz" ComponentName5="zx" ComponentName6="Mises" ComponentName7="Min Principal" ComponentName8="Mid Principal" ComponentName9="Max Principal" format="ascii">
					-2.10062000E+00	-2.10062000E+00	-4.90119000E+00	 2.53069000E-06	 3.40549000E-01	 3.00073000E-01	 2.90882186E+00	-4.97291564E+00	-2.10062251E+00	-2.02889185E+00
					-2.10063000E+00	-2.10063000E+00	-4.90120000E+00	-1.92912000E-06	-2.59600000E-01	 3.00073000E-01	 2.88366091E+00	-4.95633038E+00	-2.10063191E+00	-2.04549771E+00
					 9.00354000E-01	 9.00358000E-01	-3.10062000E+00	-2.04636000E-06	-2.59605000E-01	 3.00080000E-01	 4.05957353E+00	-3.13959147E+00	 9.00354263E-01	 9.39329208E-01
					 9.00354000E-01	 9.00359000E-01	-3.10062000E+00	 2.41350000E-06	 3.40556000E-01	 3.00080000E-01	 4.07748601E+00	-3.15146778E+00	 9.00353791E-01	 9.51206986E-01
					-2.10062000E+00	-2.10062000E+00	-4.90119000E+00	-2.53069000E-06	 3.40549000E-01	-3.00073000E-01	 2.90882186E+00	-4.97291564E+00	-2.10062251E+00	-2.02889185E+00
					-2.10063000E+00	-2.10063000E+00	-4.90120000E+00	 1.92912000E-06	-2.59600000E-01	-3.00073000E-01	 2.88366091E+00	-4.95633038E+00	-2.10063191E+00	-2.04549771E+00
					 9.00354000E-01	 9.00358000E-01	-3.10062000E+00	 2.04669000E-06	-2.59605000E-01	-3.00080000E-01	 4.05957353E+00	-3.13959147E+00	 9.00354262E-01	 9.39329209E-01
					 9.00354000E-01	 9.00359000E-01	-3.10062000E+00	-2.41317000E-06	 3.40556000E-01	-3.00080000E-01	 4.07748601E+00	-3.15146778E+00	 9.00353791E-01	 9.51206986E-01
					-1.93999000E+00	-1.47416000E+00	-1.03475000E+02	 0.00000000E+00	 1.86362000E+00	 0.00000000E+00	 1.01819903E+02	-1.03509038E+02	-1.93999000E+00	-1.44012184E+00
					-3.19503000E-01	 7.00118000E-01	-1.00253000E+02	 2.76950000E-01	 1.07089000E+00	 3.61345000E-01	 1.00467408E+02	-1.00265644E+02	-3.89797713E-01	 7.83056333E-01
					-3.64890000E-01	-2.81908000E+00	-1.01322000E+02	-2.07114000E+00	-7.04971000E-01	-2.79091000E-01	 9.98257816E+01	-1.01327901E+02	-3.99355543E+00	 8.15486478E-01
					 1.53673000E+00	 3.22491000E+00	-1.01024000E+02	 0.00000000E+00	 7.28137000E-01	 0.00000000E+00	 1.03422845E+02	-1.01029085E+02	 1.53673000E+00	 3.22999550E+00
					-3.19503000E-01	 7.00118000E-01	-1.00253000E+02	-2.76950000E-01	 1.07089000E+00	-3.61345000E-01	 1.00467408E+02	-1.00265644E+02	-3.89797713E-01	 7.83056333E-01
					 2.66050000E+00	 4.23417000E+00	-9.38630000E+01	 0.00000000E+00	 3.59292000E+00	 0.00000000E+00	 9.75186436E+01	-9.39944187E+01	 2.66050000E+00	 4.36558871E+00
					-9.07005000E-01	-7.50305000E+00	-9.84527000E+01	 0.00000000E+00	 1.17642000E+00	 0.00000000E+00	 9.44426097E+01	-9.84679143E+01	-7.48783573E+00	-9.07005000E-01
					-3.64890000E-01	-2.81908000E+00	-1.01322000E+02	 2.07114000E+00	-7.04971000E-01	 2.79091000E-01	 9.98257816E+01	-1.01327901E+02	-3.99355543E+00	 8.15486478E-01
				</DataArray>
				<DataArray type="Float32" Name="CONTACT" NumberOfComponents="6" ComponentName0="COPEN" ComponentName1="CSLIP1" ComponentName2="CSLIP2" ComponentName3="CPRESS" ComponentName4="CSHEAR1" ComponentName5="CSHEAR2" format="ascii">
					 0.00000000E+00	 0.00000000E+00	 0.00000000E+00	 0.00000000E+00	 0.00000000E+00	 0.00000000E+00
					 0.00000000E+00	 0.00000000E+00	 0.00000000E+00	 0.00000000E+00	 0.00000000E+00	 0.00000000E+00
					 0.00000000E+00	 0.00000000E+00	 0.00000000E+00	 0.00000000E+00	 0.00000000E+00	 0.00000000E+00
					 0.00000000E+00	 0.00000000E+00	 0.00000000E+00	 0.00000000E+00	 0.00000000E+00	 0.00000000E+00
					 0.00000000E+00	 0.00000000E+00	 0.00000000E+00	 0.00000000E+00	 0.00000000E+00	 0.00000000E+00
					 0.00000000E+00	 0.00000000E+00	 0.00000000E+00	 0.00000000E+00	 0.00000000E+00	 0.00000000E+00
					 0.00000000E+00	 0.00000000E+00	 0.00000000E+00	 0.00000000E+00	 0.00000000E+00	 0.00000000E+00
					 0.00000000E+00	 0.00000000E+00	 0.00000000E+00	 0.00000000E+00	 0.00000000E+00	 0.00000000E+00
					-9.99993000E-06	 0.00000000E+00	 1.02724000E-03	 9.99993000E+01	 0.00000000E+00	 1.02724000E+00
					-9.99993000E-06	 1.50407000E-05	 1.01188000E-03	 9.99993000E+01	 1.50407000E-02	 1.01188000E+00
					 0.00000000E+00	 0.00000000E+00	 0.00000000E+00	 0.00000000E+00	 0.00000000E+00	 0.00000000E+00
					 0.00000000E+00	 0.00000000E+00	 0.00000000E+00	 0.00000000E+00	 0.00000000E+00	 0.00000000E+00
					-9.99993000E-06	-1.50407000E-05	 1.01188000E-03	 9.99993000E+01	-1.50407000E-02	 1.01188000E+00
					-9.99993000E-06	 0.00000000E+00	 9.95734000E-04	 9.99993000E+01	 0.00000000E+00	 9.95735000E-01
					 0.00000000E+00	 0.00000000E+00	 0.00000000E+00	 0.00000000E+00	 0.00000000E+00	 0.00000000E+00
					 0.00000000E+00	 0.00000000E+00	 0.00000000E+00	 0.00000000E+00	 0.00000000E+00	 0.00000000E+00
				</DataArray>
			</PointData>
		</Piece>
	</UnstructuredGrid>
</VTKFile>