# vtk DataFile Version 3.0

ASCII
DATASET UNSTRUCTURED_GRID

POINTS 16 double
	 1.00000000E+00	 1.00000000E+00	-1.49012000E-08
	 1.00000000E+00	 0.00000000E+00	-1.49012000E-08
	 1.00000000E+00	 0.00000000E+00	 1.00000000E+00
	 1.00000000E+00	 1.00000000E+00	 1.00000000E+00
	-7.45058000E-09	 1.00000000E+00	-1.49012000E-08
	-7.45058000E-09	 0.00000000E+00	-1.49012000E-08
	-7.45058000E-09	 0.00000000E+00	 1.00000000E+00
	-7.45058000E-09	 1.00000000E+00	 1.00000000E+00
	 1.00000000E+00	 1.00000000E+00	 1.00000000E+00
	 1.00000000E+00	 0.00000000E+00	 1.00000000E+00
	 1.00000000E+00	 0.00000000E+00	 1.20000000E+00
	 1.00000000E+00	 1.00000000E+00	 1.20000000E+00
	-7.45058000E-09	 1.00000000E+00	 1.00000000E+00
	-7.45058000E-09	 0.00000000E+00	 1.00000000E+00
	-7.45058000E-09	 0.00000000E+00	 1.20000000E+00
	-7.45058000E-09	 1.00000000E+00	 1.20000000E+00

CELLS 6 30
	8 0 1 2 3 4 5 6 7 
	8 8 9 10 11 12 13 14 15 
	2 3 8 
	2 2 9 
	2 6 13 
	2 7 12 

CELL_TYPES 6
	12
	12
	3
	3
	3
	3

POINT_DATA 16
FIELD U 1
	U 3 16 double
		 0.00000000E+00	 0.00000000E+00	 0.00000000E+00
		 0.00000000E+00	 0.00000000E+00	 0.00000000E+00
		 0.00000000E+00	 0.00000000E+00	-4.76194000E-06
		 0.00000000E+00	 0.00000000E+00	-4.76194000E-06
		 0.00000000E+00	 0.00000000E+00	 0.00000000E+00
		 0.00000000E+00	 0.00000000E+00	 0.00000000E+00
		 0.00000000E+00	 0.00000000E+00	-4.76194000E-06
		 0.00000000E+00	 0.00000000E+00	-4.76194000E-06
		 0.00000000E+00	 0.00000000E+00	-8.06107000E-06
		 0.00000000E+00	 0.00000000E+00	-8.06107000E-06
		 0.00000000E+00	 0.00000000E+00	-9.01346000E-06
		 0.00000000E+00	 0.00000000E+00	-9.01346000E-06
		 0.00000000E+00	 0.00000000E+00	-8.06107000E-06
		 0.00000000E+00	 0.00000000E+00	-8.06107000E-06
		 0.00000000E+00	 0.00000000E+00	-9.01346000E-06
		 0.00000000E+00	 0.00000000E+00	-9.01346000E-06
FIELD RF 1
	RF 3 16 double
		 0.00000000E+00	 0.00000000E+00	 2.50000000E-01
		 0.00000000E+00	 0.00000000E+00	 2.50000000E-01
		 0.00000000E+00	 0.00000000E+00	 2.78275000E-06
		 0.00000000E+00	 0.00000000E+00	 2.78275000E-06
		 0.00000000E+00	 0.00000000E+00	 2.50000000E-01
		 0.00000000E+00	 0.00000000E+00	 2.50000000E-01
		 0.00000000E+00	 0.00000000E+00	 2.78275000E-06
		 0.00000000E+00	 0.00000000E+00	 2.78275000E-06
		 0.00000000E+00	 0.00000000E+00	-2.78275000E-06
		 0.00000000E+00	 0.00000000E+00	-2.78275000E-06
		 0.00000000E+00	 0.00000000E+00	-2.50000000E-01
		 0.00000000E+00	 0.00000000E+00	-2.50000000E-01
		 0.00000000E+00	 0.00000000E+00	-2.78275000E-06
		 0.00000000E+00	 0.00000000E+00	-2.78275000E-06
		 0.00000000E+00	 0.00000000E+00	-2.50000000E-01
		 0.00000000E+00	 0.00000000E+00	-2.50000000E-01
