# vtk DataFile Version 3.0

ASCII
DATASET UNSTRUCTURED_GRID

POINTS 7932 double
	 1.00000000E-01	 1.00000000E+00	-3.72529000E-09
	 1.00000000E-01	 9.25000000E-01	-3.72529000E-09
	 1.00000000E-01	 9.17088000E-01	 1.20737000E-01
	 1.00000000E-01	 9.91447000E-01	 1.30526000E-01
	 5.00000000E-02	 1.00000000E+00	-3.72529000E-09
	 5.00000000E-02	 9.25000000E-01	-3.72529000E-09
	 5.00000000E-02	 9.17088000E-01	 1.20737000E-01
	 5.00000000E-02	 9.91447000E-01	 1.30526000E-01
	 1.00000000E-01	 9.62500000E-01	-3.72529000E-09
	 1.00000000E-01	 9.23021000E-01	 6.04979000E-02
	 1.00000000E-01	 9.54268000E-01	 1.25631000E-01
	 1.00000000E-01	 9.97861000E-01	 6.54032000E-02
	 7.50000000E-02	 1.00000000E+00	-3.72529000E-09
	 7.50000000E-02	 9.25000000E-01	-3.72529000E-09
	 7.50000000E-02	 9.17088000E-01	 1.20737000E-01
	 7.50000000E-02	 9.91447000E-01	 1.30526000E-01
	 5.00000000E-02	 9.62500000E-01	-3.72529000E-09
	 5.00000000E-02	 9.23021000E-01	 6.04979000E-02
	 5.00000000E-02	 9.54268000E-01	 1.25631000E-01
	 5.00000000E-02	 9.97861000E-01	 6.54032000E-02
	 1.00000000E-01	 8.50000000E-01	-3.72529000E-09
	 1.00000000E-01	 8.42730000E-01	 1.10947000E-01
	 5.00000000E-02	 8.50000000E-01	-3.72529000E-09
	 5.00000000E-02	 8.42730000E-01	 1.10947000E-01
	 1.00000000E-01	 8.87500000E-01	-3.72529000E-09
	 1.00000000E-01	 8.48182000E-01	 5.55926000E-02
	 1.00000000E-01	 8.79909000E-01	 1.15842000E-01
	 7.50000000E-02	 8.50000000E-01	-3.72529000E-09
	 7.50000000E-02	 8.42730000E-01	 1.10947000E-01
	 5.00000000E-02	 8.87500000E-01	-3.72529000E-09
	 5.00000000E-02	 8.48182000E-01	 5.55926000E-02
	 5.00000000E-02	 8.79909000E-01	 1.15842000E-01
	 1.00000000E-01	 7.75000000E-01	-3.72529000E-09
	 1.00000000E-01	 7.68371000E-01	 1.01158000E-01
	 5.00000000E-02	 7.75000000E-01	-3.72529000E-09
	 5.00000000E-02	 7.68371000E-01	 1.01158000E-01
	 1.00000000E-01	 8.12500000E-01	-3.72529000E-09
	 1.00000000E-01	 7.73342000E-01	 5.06873000E-02
	 1.00000000E-01	 8.05550000E-01	 1.06052000E-01
	 7.50000000E-02	 7.75000000E-01	-3.72529000E-09
	 7.50000000E-02	 7.68371000E-01	 1.01158000E-01
	 5.00000000E-02	 8.12500000E-01	-3.72529000E-09
	 5.00000000E-02	 7.73342000E-01	 5.06873000E-02
	 5.00000000E-02	 8.05550000E-01	 1.06052000E-01
	 1.00000000E-01	 7.00000000E-01	-3.72529000E-09
	 1.00000000E-01	 6.94013000E-01	 9.13680000E-02
	 5.00000000E-02	 7.00000000E-01	-3.72529000E-09
	 5.00000000E-02	 6.94012000E-01	 9.13680000E-02
	 1.00000000E-01	 7.37500000E-01	-3.72529000E-09
	 1.00000000E-01	 6.98502000E-01	 4.57820000E-02
	 1.00000000E-01	 7.31192000E-01	 9.62627000E-02
	 7.50000000E-02	 7.00000000E-01	-3.72529000E-09
	 7.50000000E-02	 6.94012000E-01	 9.13680000E-02
	 5.00000000E-02	 7.37500000E-01	-3.72529000E-09
	 5.00000000E-02	 6.98502000E-01	 4.57820000E-02
	 5.00000000E-02	 7.31192000E-01	 9.62627000E-02
	 1.00000000E-01	 6.25000000E-01	-3.72529000E-09
	 1.00000000E-01	 6.19654000E-01	 8.15784000E-02
	 5.00000000E-02	 6.25000000E-01	-3.72529000E-09
	 5.00000000E-02	 6.19654000E-01	 8.15784000E-02
	 1.00000000E-01	 6.62500000E-01	-3.72529000E-09
	 1.00000000E-01	 6.23663000E-01	 4.08767000E-02
	 1.00000000E-01	 6.56833000E-01	 8.64732000E-02
	 7.50000000E-02	 6.25000000E-01	-3.72529000E-09
	 7.50000000E-02	 6.19654000E-01	 8.15784000E-02
	 5.00000000E-02	 6.62500000E-01	-3.72529000E-09
	 5.00000000E-02	 6.23663000E-01	 4.08767000E-02
	 5.00000000E-02	 6.56833000E-01	 8.64732000E-02
	 1.00000000E-01	 5.50000000E-01	-3.72529000E-09
	 1.00000000E-01	 5.45295000E-01	 7.17890000E-02
	 5.00000000E-02	 5.50000000E-01	-3.72529000E-09
	 5.00000000E-02	 5.45295000E-01	 7.17890000E-02
	 1.00000000E-01	 5.87500000E-01	-3.72529000E-09
	 1.00000000E-01	 5.48823000E-01	 3.59715000E-02
	 1.00000000E-01	 5.82475000E-01	 7.66837000E-02
	 7.50000000E-02	 5.50000000E-01	-3.72529000E-09
	 7.50000000E-02	 5.45295000E-01	 7.17890000E-02
	 5.00000000E-02	 5.87500000E-01	-3.72529000E-09
	 5.00000000E-02	 5.48823000E-01	 3.59715000E-02
	 5.00000000E-02	 5.82475000E-01	 7.66837000E-02
	 1.00000000E-01	 4.75000000E-01	-3.72529000E-09
	 1.00000000E-01	 4.70937000E-01	 6.19995000E-02
	 5.00000000E-02	 4.75000000E-01	-3.72529000E-09
	 5.00000000E-02	 4.70937000E-01	 6.19995000E-02
	 1.00000000E-01	 5.12500000E-01	-3.72529000E-09
	 1.00000000E-01	 4.73983000E-01	 3.10662000E-02
	 1.00000000E-01	 5.08116000E-01	 6.68942000E-02
	 7.50000000E-02	 4.75000000E-01	-3.72529000E-09
	 7.50000000E-02	 4.70937000E-01	 6.19995000E-02
	 5.00000000E-02	 5.12500000E-01	-3.72529000E-09
	 5.00000000E-02	 4.73983000E-01	 3.10662000E-02
	 5.00000000E-02	 5.08116000E-01	 6.68942000E-02
	 1.00000000E-01	 4.00000000E-01	-3.72529000E-09
	 1.00000000E-01	 3.96578000E-01	 5.22101000E-02
	 5.00000000E-02	 4.00000000E-01	-3.72529000E-09
	 5.00000000E-02	 3.96578000E-01	 5.22101000E-02
	 1.00000000E-01	 4.37500000E-01	-3.72529000E-09
	 1.00000000E-01	 3.99144000E-01	 2.61610000E-02
	 1.00000000E-01	 4.33757000E-01	 5.71048000E-02
	 7.50000000E-02	 4.00000000E-01	-3.72529000E-09
	 7.50000000E-02	 3.96578000E-01	 5.22101000E-02
	 5.00000000E-02	 4.37500000E-01	-3.72529000E-09
	 5.00000000E-02	 3.99143000E-01	 2.61610000E-02
	 5.00000000E-02	 4.33757000E-01	 5.71048000E-02
	 1.00000000E-01	 3.25000000E-01	-3.72529000E-09
	 1.00000000E-01	 3.22219000E-01	 4.24206000E-02
	 5.00000000E-02	 3.25000000E-01	-3.72529000E-09
	 5.00000000E-02	 3.22219000E-01	 4.24206000E-02
	 1.00000000E-01	 3.62500000E-01	-3.72529000E-09
	 1.00000000E-01	 3.24304000E-01	 2.12558000E-02
	 1.00000000E-01	 3.59399000E-01	 4.73154000E-02
	 7.50000000E-02	 3.25000000E-01	-3.72529000E-09
	 7.50000000E-02	 3.22219000E-01	 4.24206000E-02
	 5.00000000E-02	 3.62500000E-01	-3.72529000E-09
	 5.00000000E-02	 3.24304000E-01	 2.12558000E-02
	 5.00000000E-02	 3.59399000E-01	 4.73153000E-02
	 1.00000000E-01	 2.50000000E-01	-3.72529000E-09
	 1.00000000E-01	 2.47861000E-01	 3.26313000E-02
	 5.00000000E-02	 2.50000000E-01	-3.72529000E-09
	 5.00000000E-02	 2.47861000E-01	 3.26313000E-02
	 1.00000000E-01	 2.87500000E-01	-3.72529000E-09
	 1.00000000E-01	 2.49464000E-01	 1.63506000E-02
	 1.00000000E-01	 2.85040000E-01	 3.75259000E-02
	 7.50000000E-02	 2.50000000E-01	-3.72529000E-09
	 7.50000000E-02	 2.47861000E-01	 3.26313000E-02
	 5.00000000E-02	 2.87500000E-01	-3.72529000E-09
	 5.00000000E-02	 2.49464000E-01	 1.63506000E-02
	 5.00000000E-02	 2.85040000E-01	 3.75259000E-02
	 1.00000000E-01	 1.75000000E-01	-3.72529000E-09
	 1.00000000E-01	 1.73502000E-01	 2.28419000E-02
	 5.00000000E-02	 1.75000000E-01	-3.72529000E-09
	 5.00000000E-02	 1.73502000E-01	 2.28419000E-02
	 1.00000000E-01	 2.12500000E-01	-3.72529000E-09
	 1.00000000E-01	 1.74624000E-01	 1.14454000E-02
	 1.00000000E-01	 2.10681000E-01	 2.77366000E-02
	 7.50000000E-02	 1.75000000E-01	-3.72529000E-09
	 7.50000000E-02	 1.73502000E-01	 2.28419000E-02
	 5.00000000E-02	 2.12500000E-01	-3.72529000E-09
	 5.00000000E-02	 1.74624000E-01	 1.14454000E-02
	 5.00000000E-02	 2.10681000E-01	 2.77366000E-02
	 1.00000000E-01	 1.00000000E-01	-3.72529000E-09
	 1.00000000E-01	 9.91434000E-02	 1.30526000E-02
	 5.00000000E-02	 1.00000000E-01	-3.72529000E-09
	 5.00000000E-02	 9.91434000E-02	 1.30526000E-02
	 1.00000000E-01	 1.37500000E-01	-3.72529000E-09
	 1.00000000E-01	 9.97848000E-02	 6.54026000E-03
	 1.00000000E-01	 1.36323000E-01	 1.79472000E-02
	 7.50000000E-02	 1.00000000E-01	-3.72529000E-09
	 7.50000000E-02	 9.91434000E-02	 1.30526000E-02
	 5.00000000E-02	 1.37500000E-01	-3.72529000E-09
	 5.00000000E-02	 9.97848000E-02	 6.54026000E-03
	 5.00000000E-02	 1.36323000E-01	 1.79472000E-02
	-7.45058000E-09	 1.00000000E+00	-3.72529000E-09
	-7.45058000E-09	 9.25000000E-01	-3.72529000E-09
	-7.45058000E-09	 9.17088000E-01	 1.20737000E-01
	-7.45058000E-09	 9.91447000E-01	 1.30526000E-01
	 2.50000000E-02	 1.00000000E+00	-3.72529000E-09
	 2.50000000E-02	 9.25000000E-01	-3.72529000E-09
	 2.50000000E-02	 9.17088000E-01	 1.20737000E-01
	 2.50000000E-02	 9.91447000E-01	 1.30526000E-01
	-7.45058000E-09	 9.62500000E-01	-3.72529000E-09
	-7.45058000E-09	 9.23021000E-01	 6.04979000E-02
	-7.45058000E-09	 9.54268000E-01	 1.25631000E-01
	-7.45058000E-09	 9.97861000E-01	 6.54032000E-02
	-7.45058000E-09	 8.50000000E-01	-3.72529000E-09
	-7.45058000E-09	 8.42730000E-01	 1.10947000E-01
	 2.50000000E-02	 8.50000000E-01	-3.72529000E-09
	 2.50000000E-02	 8.42730000E-01	 1.10947000E-01
	-7.45058000E-09	 8.87500000E-01	-3.72529000E-09
	-7.45058000E-09	 8.48182000E-01	 5.55926000E-02
	-7.45058000E-09	 8.79909000E-01	 1.15842000E-01
	-7.45058000E-09	 7.75000000E-01	-3.72529000E-09
	-7.45058000E-09	 7.68371000E-01	 1.01158000E-01
	 2.50000000E-02	 7.75000000E-01	-3.72529000E-09
	 2.50000000E-02	 7.68371000E-01	 1.01158000E-01
	-7.45058000E-09	 8.12500000E-01	-3.72529000E-09
	-7.45058000E-09	 7.73342000E-01	 5.06873000E-02
	-7.45058000E-09	 8.05550000E-01	 1.06052000E-01
	-7.45058000E-09	 7.00000000E-01	-3.72529000E-09
	-7.45058000E-09	 6.94012000E-01	 9.13680000E-02
	 2.50000000E-02	 7.00000000E-01	-3.72529000E-09
	 2.50000000E-02	 6.94012000E-01	 9.13680000E-02
	-7.45058000E-09	 7.37500000E-01	-3.72529000E-09
	-7.45058000E-09	 6.98502000E-01	 4.57820000E-02
	-7.45058000E-09	 7.31192000E-01	 9.62627000E-02
	-7.45058000E-09	 6.25000000E-01	-3.72529000E-09
	-7.45058000E-09	 6.19654000E-01	 8.15784000E-02
	 2.50000000E-02	 6.25000000E-01	-3.72529000E-09
	 2.50000000E-02	 6.19654000E-01	 8.15784000E-02
	-7.45058000E-09	 6.62500000E-01	-3.72529000E-09
	-7.45058000E-09	 6.23662000E-01	 4.08767000E-02
	-7.45058000E-09	 6.56833000E-01	 8.64732000E-02
	-7.45058000E-09	 5.50000000E-01	-3.72529000E-09
	-7.45058000E-09	 5.45295000E-01	 7.17890000E-02
	 2.50000000E-02	 5.50000000E-01	-3.72529000E-09
	 2.50000000E-02	 5.45295000E-01	 7.17890000E-02
	-7.45058000E-09	 5.87500000E-01	-3.72529000E-09
	-7.45058000E-09	 5.48823000E-01	 3.59715000E-02
	-7.45058000E-09	 5.82475000E-01	 7.66837000E-02
	-7.45058000E-09	 4.75000000E-01	-3.72529000E-09
	-7.45058000E-09	 4.70937000E-01	 6.19995000E-02
	 2.50000000E-02	 4.75000000E-01	-3.72529000E-09
[...]
POINT_DATA 7932
FIELD DOR1 1
	DOR1 3 7932 double
		-3.06888000E-03	 5.88828000E-04	 3.06807000E-04
		-2.20586000E-03	 5.41015000E-04	 2.50831000E-04
		-2.36247000E-03	 5.15534000E-04	-2.28338000E-05
		-3.20393000E-03	 5.70517000E-04	-7.79791000E-05
		-3.04882000E-03	 5.77579000E-06	-1.77707000E-06
		-2.20534000E-03	 5.81492000E-06	-1.87112000E-06
		-2.36787000E-03	 5.14191000E-06	-1.69863000E-06
		-3.22442000E-03	 4.91860000E-06	-9.33615000E-07
		-2.61569000E-03	 5.54787000E-04	 2.63942000E-04
		-2.38212000E-03	 6.76175000E-04	 1.06696000E-04
		-2.76947000E-03	 5.49522000E-04	-7.28463000E-05
		-3.36599000E-03	 7.61639000E-04	 1.90084000E-04
		-3.05777000E-03	 2.86947000E-04	 1.31445000E-04
		-2.20622000E-03	 2.68899000E-04	 1.23981000E-04
		-2.36718000E-03	 2.66642000E-04	-1.05738000E-05
		-3.21915000E-03	 2.89541000E-04	-1.59467000E-05
		-2.61602000E-03	 5.80465000E-06	-1.77653000E-06
		-2.39106000E-03	 5.95007000E-06	-1.80329000E-06
		-2.77952000E-03	 5.04189000E-06	-1.38338000E-06
		-3.37113000E-03	 5.86561000E-06	-1.21149000E-06
		-1.42754000E-03	 4.86574000E-04	 2.15521000E-04
		-1.60646000E-03	 4.55317000E-04	 3.12399000E-05
		-1.42584000E-03	 5.64680000E-06	-2.01368000E-06
		-1.60751000E-03	 5.37461000E-06	-2.19741000E-06
		-1.80496000E-03	 4.95667000E-04	 2.09779000E-04
		-1.57877000E-03	 6.05258000E-04	 1.22962000E-04
		-1.97020000E-03	 4.89466000E-04	 9.16075000E-06
		-1.42660000E-03	 2.39753000E-04	 1.03489000E-04
		-1.60791000E-03	 2.39817000E-04	 1.67284000E-05
		-1.80512000E-03	 5.73674000E-06	-1.92950000E-06
		-1.58403000E-03	 5.90995000E-06	-2.08656000E-06
		-1.97252000E-03	 5.25584000E-06	-1.97660000E-06
		-7.35446000E-04	 4.35235000E-04	 2.12579000E-04
		-9.48674000E-04	 3.94249000E-04	 8.21804000E-05
		-7.31676000E-04	 5.51066000E-06	-1.98452000E-06
		-9.46244000E-04	 5.38716000E-06	-2.45010000E-06
		-1.07002000E-03	 4.42274000E-04	 1.90244000E-04
		-8.81949000E-04	 5.47506000E-04	 1.43875000E-04
		-1.26573000E-03	 4.29080000E-04	 6.26897000E-05
		-7.32912000E-04	 2.13511000E-04	 1.02342000E-04
		-9.47560000E-04	 2.11033000E-04	 4.20555000E-05
		-1.06783000E-03	 5.58302000E-06	-1.96348000E-06
		-8.84485000E-04	 5.52609000E-06	-2.07041000E-06
		-1.26431000E-03	 5.40132000E-06	-2.42575000E-06
		-1.34893000E-04	 3.79969000E-04	 2.24488000E-04
		-3.80895000E-04	 3.32770000E-04	 1.25712000E-04
		-1.28720000E-04	 5.20254000E-06	-2.16869000E-06
		-3.75412000E-04	 4.06178000E-06	-1.82214000E-06
		-4.22695000E-04	 3.86624000E-04	 1.93117000E-04
		-2.84101000E-04	 4.88595000E-04	 1.70719000E-04
		-6.52908000E-04	 3.69417000E-04	 1.09948000E-04
		-1.30558000E-04	 1.84915000E-04	 1.07598000E-04
		-3.77488000E-04	 1.81344000E-04	 6.44708000E-05
		-4.18184000E-04	 5.22437000E-06	-2.07492000E-06
		-2.83665000E-04	 5.46374000E-06	-2.04362000E-06
		-6.48218000E-04	 4.89432000E-06	-1.92527000E-06
		 3.61012000E-04	 3.17957000E-04	 2.44047000E-04
		 9.04582000E-05	 2.66529000E-04	 1.64826000E-04
		 3.69589000E-04	 4.81057000E-06	-2.15637000E-06
		 9.85706000E-05	 4.79031000E-06	-2.62662000E-06
		 1.27289000E-04	 3.24909000E-04	 2.05724000E-04
		 2.09449000E-04	 4.22853000E-04	 1.98704000E-04
		-1.32387000E-04	 3.06717000E-04	 1.51238000E-04
		 3.67107000E-04	 1.52890000E-04	 1.16919000E-04
		 9.59410000E-05	 1.50356000E-04	 8.37976000E-05
		 1.34081000E-04	 5.06978000E-06	-2.11998000E-06
		 2.12272000E-04	 4.92844000E-06	-2.31395000E-06
		-1.24538000E-04	 4.33886000E-06	-2.82757000E-06
		 7.36945000E-04	 2.49174000E-04	 2.66691000E-04
		 4.53747000E-04	 1.94251000E-04	 2.00784000E-04
		 7.48051000E-04	 4.48560000E-06	-1.87026000E-06
		 4.64533000E-04	 4.36137000E-06	-2.21917000E-06
		 5.65177000E-04	 2.55196000E-04	 2.22962000E-04
		 5.86403000E-04	 3.47989000E-04	 2.27979000E-04
		 2.86317000E-04	 2.38675000E-04	 1.89508000E-04
		 7.44946000E-04	 1.17373000E-04	 1.27586000E-04
		 4.61136000E-04	 1.15833000E-04	 1.02320000E-04
		 5.74354000E-04	 4.61519000E-06	-1.99500000E-06
		 5.91887000E-04	 4.65234000E-06	-2.13160000E-06
		 2.97044000E-04	 4.61657000E-06	-2.30142000E-06
		 9.76724000E-04	 1.74818000E-04	 2.86745000E-04
		 6.98183000E-04	 1.16308000E-04	 2.30488000E-04
		 9.90590000E-04	 4.06692000E-06	-1.59697000E-06
		 7.10882000E-04	 3.90794000E-06	-1.97501000E-06
		 8.74969000E-04	 1.78261000E-04	 2.39422000E-04
		 8.33998000E-04	 2.64578000E-04	 2.53424000E-04
		 5.91459000E-04	 1.64740000E-04	 2.23066000E-04
		 9.86755000E-04	 7.89658000E-05	 1.36711000E-04
		 7.07047000E-04	 7.84440000E-05	 1.17548000E-04
		 8.86735000E-04	 4.24200000E-06	-1.70634000E-06
		 8.42076000E-04	 4.12518000E-06	-1.75856000E-06
		 6.04891000E-04	 4.17826000E-06	-2.06584000E-06
		 1.06706000E-03	 9.84011000E-05	 2.98845000E-04
		 8.13038000E-04	 3.56064000E-05	 2.50252000E-04
		 1.08337000E-03	 3.51127000E-06	-1.41491000E-06
		 8.27418000E-04	 3.26367000E-06	-1.85358000E-06
		 1.04140000E-03	 9.59192000E-05	 2.50104000E-04
		 9.40490000E-04	 1.75238000E-04	 2.69885000E-04
		 7.72157000E-04	 8.65882000E-05	 2.48223000E-04
		 1.07894000E-03	 3.92637000E-05	 1.41707000E-04
		 8.23236000E-04	 3.96045000E-05	 1.27674000E-04
		 1.05575000E-03	 3.78764000E-06	-1.50964000E-06
		 9.51090000E-04	 3.49372000E-06	-1.62517000E-06
		 7.87984000E-04	 3.59087000E-06	-1.92180000E-06
		 1.00061000E-03	 2.63596000E-05	 2.97064000E-04
		 7.91564000E-04	-4.22685000E-05	 2.54463000E-04
		 1.01842000E-03	 2.79895000E-06	-1.20638000E-06
		 8.07157000E-04	 2.60361000E-06	-1.63749000E-06
		 1.05372000E-03	 1.25094000E-05	 2.50038000E-04
		 8.98760000E-04	 8.52364000E-05	 2.71537000E-04
		 8.19318000E-04	 8.36894000E-06	 2.60140000E-04
		 1.01357000E-03	 1.73335000E-06	 1.39748000E-04
		 8.02596000E-04	 2.17345000E-06	 1.30066000E-04
		 1.07022000E-03	 3.14480000E-06	-1.32820000E-06
		 9.11513000E-04	 2.76186000E-06	-1.41705000E-06
		 8.37376000E-04	 2.94860000E-06	-1.75753000E-06
		 7.80364000E-04	-2.96143000E-05	 2.71339000E-04
		 6.34032000E-04	-1.04431000E-04	 2.34214000E-04
		 7.96337000E-04	 1.96776000E-06	-9.39976000E-07
		 6.49764000E-04	 1.84592000E-06	-1.32272000E-06
		 9.08704000E-04	-6.33620000E-05	 2.32905000E-04
		 7.10295000E-04	 5.97392000E-06	 2.49110000E-04
		 7.28849000E-04	-6.20638000E-05	 2.51184000E-04
		 7.92897000E-04	-2.76356000E-05	 1.25999000E-04
		 6.45483000E-04	-2.87394000E-05	 1.20094000E-04
		 9.26498000E-04	 2.37703000E-06	-1.09497000E-06
		 7.23405000E-04	 1.94063000E-06	-1.12971000E-06
		 7.48666000E-04	 2.24199000E-06	-1.49410000E-06
		 4.22445000E-04	-5.91640000E-05	 1.94019000E-04
		 3.50309000E-04	-1.24187000E-04	 1.72807000E-04
		 4.31484000E-04	 1.00304000E-06	-5.84986000E-07
		 3.64912000E-04	 9.64628000E-07	-8.68470000E-07
		 6.17121000E-04	-1.18266000E-04	 1.87893000E-04
		 3.88502000E-04	-4.70493000E-05	 1.79297000E-04
		 5.07711000E-04	-1.12329000E-04	 2.06390000E-04
		 4.28706000E-04	-3.23235000E-05	 8.80410000E-05
		 3.58856000E-04	-3.15073000E-05	 9.07677000E-05
		 6.32112000E-04	 1.48696000E-06	-7.90733000E-07
		 3.99245000E-04	 9.95467000E-07	-7.27239000E-07
		 5.24818000E-04	 1.42647000E-06	-1.12135000E-06
		 0.00000000E+00	 0.00000000E+00	 0.00000000E+00
		 0.00000000E+00	 0.00000000E+00	 0.00000000E+00
		 0.00000000E+00	 0.00000000E+00	 0.00000000E+00
		 0.00000000E+00	 0.00000000E+00	 0.00000000E+00
		 2.13235000E-04	-8.99959000E-05	 9.06977000E-05
		 0.00000000E+00	 0.00000000E+00	 0.00000000E+00
		 1.78005000E-04	-8.19862000E-05	 9.22220000E-05
		 0.00000000E+00	 0.00000000E+00	 0.00000000E+00
		 0.00000000E+00	 0.00000000E+00	 0.00000000E+00
		 2.16637000E-04	 4.48166000E-07	-3.46135000E-07
		 0.00000000E+00	 0.00000000E+00	 0.00000000E+00
		 1.86361000E-04	 4.55142000E-07	-5.26484000E-07
		-3.06867000E-03	-5.77196000E-04	-3.10319000E-04
		-2.20580000E-03	-5.29368000E-04	-2.54579000E-04
		-2.36241000E-03	-5.05235000E-04	 1.94466000E-05
		-3.20388000E-03	-5.60668000E-04	 7.60730000E-05
		-3.05766000E-03	-2.75432000E-04	-1.35004000E-04
		-2.20619000E-03	-2.57315000E-04	-1.27688000E-04
		-2.36715000E-03	-2.56341000E-04	 7.17523000E-06
		-3.21912000E-03	-2.79687000E-04	 1.40736000E-05
		-2.61560000E-03	-5.43131000E-04	-2.67474000E-04
		-2.38207000E-03	-6.64246000E-04	-1.10289000E-04
		-2.76941000E-03	-5.39423000E-04	 7.00626000E-05
		-3.36580000E-03	-7.49849000E-04	-1.92527000E-04
		-1.42754000E-03	-4.75237000E-04	-2.19511000E-04
		-1.60656000E-03	-4.44585000E-04	-3.56871000E-05
		-1.42660000E-03	-2.28503000E-04	-1.07469000E-04
		-1.60796000E-03	-2.29081000E-04	-2.11675000E-05
		-1.80494000E-03	-4.84162000E-04	-2.13611000E-04
		-1.57876000E-03	-5.93444000E-04	-1.27200000E-04
		-1.97020000E-03	-4.78958000E-04	-1.31436000E-05
		-7.35319000E-04	-4.24400000E-04	-2.16579000E-04
		-9.48731000E-04	-3.83513000E-04	-8.71017000E-05
		-7.32824000E-04	-2.02632000E-04	-1.06368000E-04
		-9.47646000E-04	-2.00265000E-04	-4.69064000E-05
		-1.06997000E-03	-4.31245000E-04	-1.94221000E-04
		-8.81903000E-04	-5.36273000E-04	-1.48046000E-04
		-1.26582000E-03	-4.18197000E-04	-6.75481000E-05
		-1.34912000E-04	-3.69435000E-04	-2.28701000E-04
		-3.80831000E-04	-3.22825000E-04	-1.30499000E-04
		-1.30565000E-04	-1.74553000E-04	-1.11870000E-04
		-3.77428000E-04	-1.72242000E-04	-6.86471000E-05
		-4.22628000E-04	-3.76026000E-04	-1.97175000E-04
		-2.83889000E-04	-4.78006000E-04	-1.74920000E-04
		-6.53020000E-04	-3.59028000E-04	-1.14643000E-04
		 3.61042000E-04	-3.08251000E-04	-2.48342000E-04
		 9.01450000E-05	-2.57157000E-04	-1.69766000E-04
		 3.67148000E-04	-1.43291000E-04	-1.21149000E-04
		 9.57237000E-05	-1.40871000E-04	-8.90345000E-05
		 1.27262000E-04	-3.14720000E-04	-2.10077000E-04
		 2.09309000E-04	-4.12792000E-04	-2.03585000E-04
		-1.32422000E-04	-2.97086000E-04	-1.56263000E-04
		 7.36886000E-04	-2.40237000E-04	-2.70420000E-04
		 4.53967000E-04	-1.85431000E-04	-2.05011000E-04
		 7.44911000E-04	-1.08521000E-04	-1.31282000E-04
		 4.61255000E-04	-1.07021000E-04	-1.06669000E-04
		 5.65151000E-04	-2.45986000E-04	-2.26898000E-04
		 5.86429000E-04	-3.38731000E-04	-2.32032000E-04
		 2.86264000E-04	-2.29524000E-04	-1.94056000E-04
		 9.76769000E-04	-1.66692000E-04	-2.89936000E-04
		 6.98222000E-04	-1.08511000E-04	-2.34456000E-04
		 9.86777000E-04	-7.09115000E-05	-1.39918000E-04
		 7.07066000E-04	-7.06307000E-05	-1.21505000E-04
		 8.74965000E-04	-1.69782000E-04	-2.42841000E-04
		 8.34047000E-04	-2.56311000E-04	-2.56962000E-04
		 5.91597000E-04	-1.56356000E-04	-2.27134000E-04
		 1.06711000E-03	-9.13759000E-05	-3.01684000E-04
		 8.13065000E-04	-2.90612000E-05	-2.53962000E-04
		 1.07897000E-03	-3.23160000E-05	-1.44545000E-04
		 8.23249000E-04	-3.30512000E-05	-1.31378000E-04
		 1.04146000E-03	-8.83498000E-05	-2.53126000E-04
		 9.40523000E-04	-1.68250000E-04	-2.73140000E-04
		 7.72182000E-04	-7.94021000E-05	-2.52083000E-04
		 1.00065000E-03	-2.07600000E-05	-2.99495000E-04
		 7.91565000E-04	 4.74783000E-05	-2.57754000E-04
		 1.01359000E-03	 3.80315000E-06	-1.42177000E-04
		 8.02597000E-04	 3.04575000E-06	-1.33342000E-04
		 1.05377000E-03	-6.21545000E-06	-2.52710000E-04
		 8.98777000E-04	-7.97081000E-05	-2.74392000E-04
		 8.19333000E-04	-2.46314000E-06	-2.63665000E-04
		 7.80401000E-04	 3.35439000E-05	-2.73243000E-04
		 6.34028000E-04	 1.08124000E-04	-2.36881000E-04
		 7.92916000E-04	 3.15196000E-05	-1.27897000E-04
		 6.45481000E-04	 3.24403000E-05	-1.22743000E-04
		 9.08745000E-04	 6.81163000E-05	-2.35115000E-04
		 7.10307000E-04	-2.09612000E-06	-2.51394000E-04
		 7.28847000E-04	 6.65504000E-05	-2.54191000E-04
		 4.22520000E-04	 6.11480000E-05	-1.95224000E-04
		 3.50335000E-04	 1.26104000E-04	-1.74586000E-04
		 4.28746000E-04	 3.42891000E-05	-8.92282000E-05
		 3.58870000E-04	 3.34373000E-05	-9.25085000E-05
		 6.17171000E-04	 1.21228000E-04	-1.89502000E-04
		 3.88550000E-04	 4.90221000E-05	-1.80793000E-04
		 5.07716000E-04	 1.15176000E-04	-2.08664000E-04
		 0.00000000E+00	 0.00000000E+00	 0.00000000E+00
		 0.00000000E+00	 0.00000000E+00	 0.00000000E+00
		 0.00000000E+00	 0.00000000E+00	 0.00000000E+00
		 0.00000000E+00	 0.00000000E+00	 0.00000000E+00
		 2.13353000E-04	 9.08960000E-05	-9.14304000E-05
		 0.00000000E+00	 0.00000000E+00	 0.00000000E+00
		 1.78075000E-04	 8.29026000E-05	-9.33233000E-05
		-1.89788000E-03	 3.68609000E-04	-1.20692000E-04
		-2.37271000E-03	 3.59465000E-04	-1.67352000E-04
		-1.89497000E-03	 3.30036000E-06	-1.91037000E-06
		-2.37118000E-03	 3.09604000E-06	-1.16937000E-06
		-2.16554000E-03	 4.52306000E-04	-9.51537000E-05
		-2.14243000E-03	 3.70725000E-04	-1.62287000E-04
		-2.81033000E-03	 4.71518000E-04	-1.54465000E-04
		-1.89607000E-03	 1.82191000E-04	-5.95983000E-05
		-2.37086000E-03	 1.77394000E-04	-7.67698000E-05
		-2.16874000E-03	 4.20318000E-06	-1.70401000E-06
		-2.14039000E-03	 3.20367000E-06	-1.55331000E-06
		-2.81588000E-03	 3.99057000E-06	-9.65084000E-07
		-1.40452000E-03	 3.45286000E-04	-3.13308000E-05
		-1.40084000E-03	 3.37214000E-06	-2.36502000E-06
		-1.53358000E-03	 4.07916000E-04	-1.18566000E-05
		-1.65291000E-03	 3.59234000E-04	-7.79801000E-05
		-1.40202000E-03	 1.69679000E-04	-1.59412000E-05
		-1.53383000E-03	 4.38510000E-06	-2.32531000E-06
		-1.64939000E-03	 3.35417000E-06	-2.14265000E-06
		-9.24130000E-04	 3.03998000E-04	 4.75021000E-05
		-9.18553000E-04	 2.88927000E-06	-3.53729000E-06
		-9.53202000E-04	 3.55190000E-04	 5.73315000E-05
		-1.16096000E-03	 3.25906000E-04	 7.08902000E-06
		-9.20282000E-04	 1.48790000E-04	 2.23946000E-05
		-9.51218000E-04	 4.99972000E-06	-2.85416000E-06
		-1.15593000E-03	 3.13986000E-06	-2.92428000E-06
		-4.83560000E-04	 2.52759000E-04	 1.16519000E-04
		-4.76568000E-04	 3.70788000E-06	-2.75343000E-06
		-4.40994000E-04	 2.95204000E-04	 1.16376000E-04
		-6.97687000E-04	 2.79054000E-04	 8.01034000E-05
		-4.78502000E-04	 1.23632000E-04	 5.73149000E-05
		-4.36311000E-04	 5.30490000E-06	-2.52898000E-06
		-6.90851000E-04	 3.22024000E-06	-4.02740000E-06
		-1.02814000E-04	 1.92618000E-04	 1.76192000E-04
		-9.33538000E-05	 4.57019000E-06	-1.77290000E-06
		-9.17079000E-06	 2.28763000E-04	 1.67103000E-04
		-2.84880000E-04	 2.22982000E-04	 1.45240000E-04
		-9.60771000E-05	 9.41768000E-05	 8.77157000E-05
		-1.52297000E-06	 4.67122000E-06	-2.80761000E-06
		-2.75889000E-04	 4.24834000E-06	-1.32770000E-06
		 2.03395000E-04	 1.24636000E-04	 2.24817000E-04
		 2.14674000E-04	 3.69618000E-06	-2.58041000E-06
		 3.29961000E-04	 1.55576000E-04	 2.09830000E-04
		 6.04794000E-05	 1.58501000E-04	 1.98894000E-04
		 2.11606000E-04	 6.00908000E-05	 1.11570000E-04
		 3.39477000E-04	 4.18220000E-06	-2.15298000E-06
		 7.18561000E-05	 4.15526000E-06	-2.26048000E-06
		 4.21190000E-04	 5.19509000E-05	 2.63545000E-04
		 4.34301000E-04	 3.27890000E-06	-2.44134000E-06
		 5.63570000E-04	 7.82054000E-05	 2.44118000E-04
		 3.23896000E-04	 8.70884000E-05	 2.43125000E-04
		 4.30769000E-04	 2.41613000E-05	 1.31118000E-04
		 5.75006000E-04	 3.61051000E-06	-2.24490000E-06
		 3.37322000E-04	 3.46021000E-06	-2.53737000E-06
		 5.40499000E-04	-2.09234000E-05	 2.89298000E-04
		 5.55404000E-04	 2.81468000E-06	-2.30556000E-06
		 6.82052000E-04	 1.47212000E-07	 2.66995000E-04
		 4.93427000E-04	 1.30032000E-05	 2.76852000E-04
		 5.51436000E-04	-1.14150000E-05	 1.44422000E-04
		 6.95286000E-04	 3.05194000E-06	-2.07242000E-06
		 5.08965000E-04	 3.05364000E-06	-2.38655000E-06
		 5.54512000E-04	-8.78718000E-05	 2.95412000E-04
		 5.70984000E-04	 2.29611000E-06	-2.03749000E-06
		 6.78517000E-04	-7.26433000E-05	 2.72246000E-04
		 5.60666000E-04	-5.90448000E-05	 2.95228000E-04
		 5.66534000E-04	-4.30134000E-05	 1.48444000E-04
		 6.93357000E-04	 2.45410000E-06	-1.84447000E-06
		 5.78081000E-04	 2.56171000E-06	-2.18358000E-06
		 4.61118000E-04	-1.37463000E-04	 2.71501000E-04
		 4.78315000E-04	 1.67932000E-06	-1.66517000E-06
		 5.52126000E-04	-1.27516000E-04	 2.50789000E-04
		 5.20558000E-04	-1.20590000E-04	 2.89745000E-04
		 4.73937000E-04	-6.49823000E-05	 1.38224000E-04
		 5.67790000E-04	 1.76600000E-06	-1.49888000E-06
		 5.39259000E-04	 2.00179000E-06	-1.86773000E-06
		 2.63100000E-04	-1.51209000E-04	 1.99233000E-04
		 2.80241000E-04	 9.22528000E-07	-1.11371000E-06
		 3.09031000E-04	-1.43369000E-04	 1.83065000E-04
		 3.75451000E-04	-1.55600000E-04	 2.43202000E-04
		 2.74543000E-04	-5.95615000E-05	 1.05837000E-04
		 3.24905000E-04	 9.43630000E-07	-9.97053000E-07
		 3.91234000E-04	 1.32066000E-06	-1.42042000E-06
		 0.00000000E+00	 0.00000000E+00	 0.00000000E+00
		 0.00000000E+00	 0.00000000E+00	 0.00000000E+00
		 0.00000000E+00	 0.00000000E+00	 0.00000000E+00
		 1.35176000E-04	-9.65892000E-05	 1.18226000E-04
		 0.00000000E+00	 0.00000000E+00	 0.00000000E+00
		 0.00000000E+00	 0.00000000E+00	 0.00000000E+00
		 1.43564000E-04	 4.66071000E-07	-6.83804000E-07
		-1.89789000E-03	-3.62026000E-04	 1.16942000E-04
		-2.37275000E-03	-3.53283000E-04	 1.64966000E-04
		-1.89607000E-03	-1.75601000E-04	 5.58117000E-05
		-2.37088000E-03	-1.71203000E-04	 7.44161000E-05
		-2.16551000E-03	-4.43902000E-04	 9.17098000E-05
		-2.14245000E-03	-3.64332000E-04	 1.59186000E-04
		-2.81033000E-03	-4.63549000E-04	 1.52536000E-04
		-1.40435000E-03	-3.38691000E-04	 2.63297000E-05
		-1.40193000E-03	-1.62985000E-04	 1.10961000E-05
		-1.53356000E-03	-3.99046000E-04	 7.35234000E-06
		-1.65285000E-03	-3.52605000E-04	 7.36061000E-05
		-9.23645000E-04	-2.97222000E-04	-5.35115000E-05
		-9.19961000E-04	-1.42538000E-04	-2.90555000E-05
		-9.53656000E-04	-3.45573000E-04	-6.30228000E-05
		-1.16061000E-03	-3.19360000E-04	-1.25227000E-05
		-4.83676000E-04	-2.45234000E-04	-1.21929000E-04
		-4.78632000E-04	-1.16164000E-04	-6.27646000E-05
		-4.41167000E-04	-2.85869000E-04	-1.21630000E-04
		-6.97486000E-04	-2.71817000E-04	-8.63031000E-05
		-1.02296000E-04	-1.84595000E-04	-1.80884000E-04
		-9.56934000E-05	-8.55857000E-05	-9.16715000E-05
		-8.51572000E-06	-2.19458000E-04	-1.71691000E-04
		-2.84627000E-04	-2.15244000E-04	-1.49851000E-04
		 2.03529000E-04	-1.17038000E-04	-2.29748000E-04
		 2.11668000E-04	-5.26444000E-05	-1.16631000E-04
		 3.30048000E-04	-1.47208000E-04	-2.14326000E-04
		 6.08296000E-05	-1.50478000E-04	-2.03860000E-04
		 4.21194000E-04	-4.54113000E-05	-2.68518000E-04
		 4.30773000E-04	-1.76120000E-05	-1.36035000E-04
		 5.63633000E-04	-7.09607000E-05	-2.48564000E-04
		 3.23928000E-04	-8.00579000E-05	-2.48120000E-04
		 5.40501000E-04	 2.65673000E-05	-2.93902000E-04
		 5.51436000E-04	 1.70427000E-05	-1.49031000E-04
		 6.82056000E-04	 5.96346000E-06	-2.71160000E-04
		 4.93433000E-04	-6.90362000E-06	-2.81665000E-04
		 5.54494000E-04	 9.24684000E-05	-2.99499000E-04
		 5.66524000E-04	 4.76045000E-05	-1.52524000E-04
		 6.78510000E-04	 7.75580000E-05	-2.75945000E-04
		 5.60658000E-04	 6.41781000E-05	-2.99598000E-04
		 4.61094000E-04	 1.40825000E-04	-2.74846000E-04
		 4.73924000E-04	 6.83400000E-05	-1.41560000E-04
		 5.52110000E-04	 1.31050000E-04	-2.53805000E-04
		 5.20538000E-04	 1.24598000E-04	-2.93492000E-04
		 2.63091000E-04	 1.53050000E-04	-2.01496000E-04
		 2.74537000E-04	 6.14047000E-05	-1.08068000E-04
		 3.09039000E-04	 1.45248000E-04	-1.85099000E-04
		 3.75429000E-04	 1.58241000E-04	-2.46067000E-04
		 0.00000000E+00	 0.00000000E+00	 0.00000000E+00
		 0.00000000E+00	 0.00000000E+00	 0.00000000E+00
		 0.00000000E+00	 0.00000000E+00	 0.00000000E+00
		 1.35196000E-04	 9.75294000E-05	-1.19643000E-04
		-1.44555000E-03	 1.94591000E-04	-4.91883000E-05
		-1.66461000E-03	 1.66154000E-04	-8.27596000E-05
		-1.43694000E-03	 2.15997000E-06	-2.16450000E-06
		-1.65744000E-03	 1.92534000E-06	-1.72533000E-06
		-1.64218000E-03	 2.81323000E-04	-9.86930000E-05
		-1.56504000E-03	 1.83075000E-04	-6.93919000E-05
		-1.97206000E-03	 2.58460000E-04	-1.40838000E-04
		-1.43793000E-03	 9.67226000E-05	-2.26407000E-05
		-1.65796000E-03	 7.96623000E-05	-3.25736000E-05
		-1.63573000E-03	 2.58738000E-06	-2.04444000E-06
		-1.55850000E-03	 2.04251000E-06	-1.94134000E-06
		-1.96514000E-03	 2.39974000E-06	-1.49834000E-06
		-1.17379000E-03	 1.94927000E-04	 1.63921000E-05
		-1.16483000E-03	 2.44008000E-06	-2.44349000E-06
		-1.27076000E-03	 2.71236000E-04	-1.90506000E-05
		-1.31536000E-03	 1.94480000E-04	-9.05885000E-06
		-1.16589000E-03	 9.69417000E-05	 9.81609000E-06
		-1.26323000E-03	 2.71312000E-06	-2.63290000E-06