<?xml version="1.0"?>
<VTKFile type="UnstructuredGrid" version="0.1" byte_order="LittleEndian">
	<UnstructuredGrid>
		<Piece NumberOfPoints="261" NumberOfCells="32">
			<Points>
				<DataArray type="Float64" NumberOfComponents="3" format="ascii">
					 0.00000000E+00	 0.00000000E+00	 0.00000000E+00
					 1.00000000E+00	 0.00000000E+00	 0.00000000E+00
					 1.00000000E+00	 1.00000000E+00	 0.00000000E+00
					 0.00000000E+00	 1.00000000E+00	 0.00000000E+00
					 0.00000000E+00	 0.00000000E+00	 8.00000000E+00
					 1.00000000E+00	 0.00000000E+00	 8.00000000E+00
					 1.00000000E+00	 1.00000000E+00	 8.00000000E+00
					 0.00000000E+00	 1.00000000E+00	 8.00000000E+00
					 2.50000000E-01	 0.00000000E+00	 0.00000000E+00
					 5.00000000E-01	 0.00000000E+00	 0.00000000E+00
					 7.50000000E-01	 0.00000000E+00	 0.00000000E+00
					 1.00000000E+00	 2.50000000E-01	 0.00000000E+00
					 1.00000000E+00	 5.00000000E-01	 0.00000000E+00
					 1.00000000E+00	 7.50000000E-01	 0.00000000E+00
					 7.50000000E-01	 1.00000000E+00	 0.00000000E+00
					 5.00000000E-01	 1.00000000E+00	 0.00000000E+00
					 2.50000000E-01	 1.00000000E+00	 0.00000000E+00
					 0.00000000E+00	 7.50000000E-01	 0.00000000E+00
					 0.00000000E+00	 5.00000000E-01	 0.00000000E+00
					 0.00000000E+00	 2.50000000E-01	 0.00000000E+00
					 2.50000000E-01	 0.00000000E+00	 8.00000000E+00
					 5.00000000E-01	 0.00000000E+00	 8.00000000E+00
					 7.50000000E-01	 0.00000000E+00	 8.00000000E+00
					 1.00000000E+00	 2.50000000E-01	 8.00000000E+00
					 1.00000000E+00	 5.00000000E-01	 8.00000000E+00
					 1.00000000E+00	 7.50000000E-01	 8.00000000E+00
					 7.50000000E-01	 1.00000000E+00	 8.00000000E+00
					 5.00000000E-01	 1.00000000E+00	 8.00000000E+00
					 2.50000000E-01	 1.00000000E+00	 8.00000000E+00
					 0.00000000E+00	 7.50000000E-01	 8.00000000E+00
					 0.00000000E+00	 5.00000000E-01	 8.00000000E+00
					 0.00000000E+00	 2.50000000E-01	 8.00000000E+00
					 1.00000000E+00	 0.00000000E+00	 5.00000000E-01
					 1.00000000E+00	 0.00000000E+00	 1.00000000E+00
					 1.00000000E+00	 0.00000000E+00	 1.50000000E+00
					 1.00000000E+00	 0.00000000E+00	 2.00000000E+00
					 1.00000000E+00	 0.00000000E+00	 2.50000000E+00
					 1.00000000E+00	 0.00000000E+00	 3.00000000E+00
					 1.00000000E+00	 0.00000000E+00	 3.50000000E+00
					 1.00000000E+00	 0.00000000E+00	 4.00000000E+00
					 1.00000000E+00	 0.00000000E+00	 4.50000000E+00
					 1.00000000E+00	 0.00000000E+00	 5.00000000E+00
					 1.00000000E+00	 0.00000000E+00	 5.50000000E+00
					 1.00000000E+00	 0.00000000E+00	 6.00000000E+00
					 1.00000000E+00	 0.00000000E+00	 6.50000000E+00
					 1.00000000E+00	 0.00000000E+00	 7.00000000E+00
					 1.00000000E+00	 0.00000000E+00	 7.50000000E+00
					 0.00000000E+00	 0.00000000E+00	 7.50000000E+00
					 0.00000000E+00	 0.00000000E+00	 7.00000000E+00
					 0.00000000E+00	 0.00000000E+00	 6.50000000E+00
					 0.00000000E+00	 0.00000000E+00	 6.00000000E+00
					 0.00000000E+00	 0.00000000E+00	 5.50000000E+00
					 0.00000000E+00	 0.00000000E+00	 5.00000000E+00
					 0.00000000E+00	 0.00000000E+00	 4.50000000E+00
					 0.00000000E+00	 0.00000000E+00	 4.00000000E+00
					 0.00000000E+00	 0.00000000E+00	 3.50000000E+00
					 0.00000000E+00	 0.00000000E+00	 3.00000000E+00
					 0.00000000E+00	 0.00000000E+00	 2.50000000E+00
					 0.00000000E+00	 0.00000000E+00	 2.00000000E+00
					 0.00000000E+00	 0.00000000E+00	 1.50000000E+00
					 0.00000000E+00	 0.00000000E+00	 1.00000000E+00
					 0.00000000E+00	 0.00000000E+00	 5.00000000E-01
					 1.00000000E+00	 1.00000000E+00	 5.00000000E-01
					 1.00000000E+00	 1.00000000E+00	 1.00000000E+00
					 1.00000000E+00	 1.00000000E+00	 1.50000000E+00
					 1.00000000E+00	 1.00000000E+00	 2.00000000E+00
					 1.00000000E+00	 1.00000000E+00	 2.50000000E+00
					 1.00000000E+00	 1.00000000E+00	 3.00000000E+00
					 1.00000000E+00	 1.00000000E+00	 3.50000000E+00
					 1.00000000E+00	 1.00000000E+00	 4.00000000E+00
					 1.00000000E+00	 1.00000000E+00	 4.50000000E+00
					 1.00000000E+00	 1.00000000E+00	 5.00000000E+00
					 1.00000000E+00	 1.00000000E+00	 5.50000000E+00
					 1.00000000E+00	 1.00000000E+00	 6.00000000E+00
					 1.00000000E+00	 1.00000000E+00	 6.50000000E+00
					 1.00000000E+00	 1.00000000E+00	 7.00000000E+00
					 1.00000000E+00	 1.00000000E+00	 7.50000000E+00
					 0.00000000E+00	 1.00000000E+00	 5.00000000E-01
					 0.00000000E+00	 1.00000000E+00	 1.00000000E+00
					 0.00000000E+00	 1.00000000E+00	 1.50000000E+00
					 0.00000000E+00	 1.00000000E+00	 2.00000000E+00
					 0.00000000E+00	 1.00000000E+00	 2.50000000E+00
					 0.00000000E+00	 1.00000000E+00	 3.00000000E+00
					 0.00000000E+00	 1.00000000E+00	 3.50000000E+00
					 0.00000000E+00	 1.00000000E+00	 4.00000000E+00
					 0.00000000E+00	 1.00000000E+00	 4.50000000E+00
					 0.00000000E+00	 1.00000000E+00	 5.00000000E+00
					 0.00000000E+00	 1.00000000E+00	 5.50000000E+00
					 0.00000000E+00	 1.00000000E+00	 6.00000000E+00
					 0.00000000E+00	 1.00000000E+00	 6.50000000E+00
					 0.00000000E+00	 1.00000000E+00	 7.00000000E+00
					 0.00000000E+00	 1.00000000E+00	 7.50000000E+00
					 5.00000000E-01	 2.50000000E-01	 0.00000000E+00
					 2.50000000E-01	 5.00000000E-01	 0.00000000E+00
					 5.00000000E-01	 5.00000000E-01	 0.00000000E+00
					 7.50000000E-01	 5.00000000E-01	 0.00000000E+00
					 5.00000000E-01	 7.50000000E-01	 0.00000000E+00
					 5.00000000E-01	 2.50000000E-01	 8.00000000E+00
					 2.50000000E-01	 5.00000000E-01	 8.00000000E+00
					 5.00000000E-01	 5.00000000E-01	 8.00000000E+00
					 7.50000000E-01	 5.00000000E-01	 8.00000000E+00
					 5.00000000E-01	 7.50000000E-01	 8.00000000E+00
					 5.00000000E-01	 0.00000000E+00	 5.00000000E-01
					 2.50000000E-01	 0.00000000E+00	 1.00000000E+00
					 5.00000000E-01	 0.00000000E+00	 1.00000000E+00
					 7.50000000E-01	 0.00000000E+00	 1.00000000E+00
					 5.00000000E-01	 0.00000000E+00	 1.50000000E+00
					 2.50000000E-01	 0.00000000E+00	 2.00000000E+00
					 5.00000000E-01	 0.00000000E+00	 2.00000000E+00
					 7.50000000E-01	 0.00000000E+00	 2.00000000E+00
					 5.00000000E-01	 0.00000000E+00	 2.50000000E+00
					 2.50000000E-01	 0.00000000E+00	 3.00000000E+00
					 5.00000000E-01	 0.00000000E+00	 3.00000000E+00
					 7.50000000E-01	 0.00000000E+00	 3.00000000E+00
					 5.00000000E-01	 0.00000000E+00	 3.50000000E+00
					 2.50000000E-01	 0.00000000E+00	 4.00000000E+00
					 5.00000000E-01	 0.00000000E+00	 4.00000000E+00
					 7.50000000E-01	 0.00000000E+00	 4.00000000E+00
					 5.00000000E-01	 0.00000000E+00	 4.50000000E+00
					 2.50000000E-01	 0.00000000E+00	 5.00000000E+00
					 5.00000000E-01	 0.00000000E+00	 5.00000000E+00
					 7.50000000E-01	 0.00000000E+00	 5.00000000E+00
					 5.00000000E-01	 0.00000000E+00	 5.50000000E+00
					 2.50000000E-01	 0.00000000E+00	 6.00000000E+00
					 5.00000000E-01	 0.00000000E+00	 6.00000000E+00
					 7.50000000E-01	 0.00000000E+00	 6.00000000E+00
					 5.00000000E-01	 0.00000000E+00	 6.50000000E+00
					 2.50000000E-01	 0.00000000E+00	 7.00000000E+00
					 5.00000000E-01	 0.00000000E+00	 7.00000000E+00
					 7.50000000E-01	 0.00000000E+00	 7.00000000E+00
					 5.00000000E-01	 0.00000000E+00	 7.50000000E+00
					 1.00000000E+00	 5.00000000E-01	 5.00000000E-01
					 1.00000000E+00	 2.50000000E-01	 1.00000000E+00
					 1.00000000E+00	 5.00000000E-01	 1.00000000E+00
					 1.00000000E+00	 7.50000000E-01	 1.00000000E+00
					 1.00000000E+00	 5.00000000E-01	 1.50000000E+00
					 1.00000000E+00	 2.50000000E-01	 2.00000000E+00
					 1.00000000E+00	 5.00000000E-01	 2.00000000E+00
					 1.00000000E+00	 7.50000000E-01	 2.00000000E+00
					 1.00000000E+00	 5.00000000E-01	 2.50000000E+00
					 1.00000000E+00	 2.50000000E-01	 3.00000000E+00
					 1.00000000E+00	 5.00000000E-01	 3.00000000E+00
					 1.00000000E+00	 7.50000000E-01	 3.00000000E+00
					 1.00000000E+00	 5.00000000E-01	 3.50000000E+00
					 1.00000000E+00	 2.50000000E-01	 4.00000000E+00
					 1.00000000E+00	 5.00000000E-01	 4.00000000E+00
					 1.00000000E+00	 7.50000000E-01	 4.00000000E+00
					 1.00000000E+00	 5.00000000E-01	 4.50000000E+00
					 1.00000000E+00	 2.50000000E-01	 5.00000000E+00
					 1.00000000E+00	 5.00000000E-01	 5.00000000E+00
					 1.00000000E+00	 7.50000000E-01	 5.00000000E+00
					 1.00000000E+00	 5.00000000E-01	 5.50000000E+00
					 1.00000000E+00	 2.50000000E-01	 6.00000000E+00
					 1.00000000E+00	 5.00000000E-01	 6.00000000E+00
					 1.00000000E+00	 7.50000000E-01	 6.00000000E+00
					 1.00000000E+00	 5.00000000E-01	 6.50000000E+00
					 1.00000000E+00	 2.50000000E-01	 7.00000000E+00
					 1.00000000E+00	 5.00000000E-01	 7.00000000E+00
					 1.00000000E+00	 7.50000000E-01	 7.00000000E+00
					 1.00000000E+00	 5.00000000E-01	 7.50000000E+00
					 5.00000000E-01	 1.00000000E+00	 5.00000000E-01
					 7.50000000E-01	 1.00000000E+00	 1.00000000E+00
					 5.00000000E-01	 1.00000000E+00	 1.00000000E+00
					 2.50000000E-01	 1.00000000E+00	 1.00000000E+00
					 5.00000000E-01	 1.00000000E+00	 1.50000000E+00
					 7.50000000E-01	 1.00000000E+00	 2.00000000E+00
					 5.00000000E-01	 1.00000000E+00	 2.00000000E+00
					 2.50000000E-01	 1.00000000E+00	 2.00000000E+00
					 5.00000000E-01	 1.00000000E+00	 2.50000000E+00
					 7.50000000E-01	 1.00000000E+00	 3.00000000E+00
					 5.00000000E-01	 1.00000000E+00	 3.00000000E+00
					 2.50000000E-01	 1.00000000E+00	 3.00000000E+00
					 5.00000000E-01	 1.00000000E+00	 3.50000000E+00
					 7.50000000E-01	 1.00000000E+00	 4.00000000E+00
					 5.00000000E-01	 1.00000000E+00	 4.00000000E+00
					 2.50000000E-01	 1.00000000E+00	 4.00000000E+00
					 5.00000000E-01	 1.00000000E+00	 4.50000000E+00
					 7.50000000E-01	 1.00000000E+00	 5.00000000E+00
					 5.00000000E-01	 1.00000000E+00	 5.00000000E+00
					 2.50000000E-01	 1.00000000E+00	 5.00000000E+00
					 5.00000000E-01	 1.00000000E+00	 5.50000000E+00
					 7.50000000E-01	 1.00000000E+00	 6.00000000E+00
					 5.00000000E-01	 1.00000000E+00	 6.00000000E+00
					 2.50000000E-01	 1.00000000E+00	 6.00000000E+00
					 5.00000000E-01	 1.00000000E+00	 6.50000000E+00
					 7.50000000E-01	 1.00000000E+00	 7.00000000E+00
					 5.00000000E-01	 1.00000000E+00	 7.00000000E+00
					 2.50000000E-01	 1.00000000E+00	 7.00000000E+00
					 5.00000000E-01	 1.00000000E+00	 7.50000000E+00
					 0.00000000E+00	 5.00000000E-01	 5.00000000E-01
					 0.00000000E+00	 7.50000000E-01	 1.00000000E+00
					 0.00000000E+00	 5.00000000E-01	 1.00000000E+00
					 0.00000000E+00	 2.50000000E-01	 1.00000000E+00
					 0.00000000E+00	 5.00000000E-01	 1.50000000E+00
					 0.00000000E+00	 7.50000000E-01	 2.00000000E+00
					 0.00000000E+00	 5.00000000E-01	 2.00000000E+00
					 0.00000000E+00	 2.50000000E-01	 2.00000000E+00
					 0.00000000E+00	 5.00000000E-01	 2.50000000E+00
					 0.00000000E+00	 7.50000000E-01	 3.00000000E+00
					 0.00000000E+00	 5.00000000E-01	 3.00000000E+00
					 0.00000000E+00	 2.50000000E-01	 3.00000000E+00
					 0.00000000E+00	 5.00000000E-01	 3.50000000E+00
					 0.00000000E+00	 7.50000000E-01	 4.00000000E+00
					 0.00000000E+00	 5.00000000E-01	 4.00000000E+00
					 0.00000000E+00	 2.50000000E-01	 4.00000000E+00
					 0.00000000E+00	 5.00000000E-01	 4.50000000E+00
					 0.00000000E+00	 7.50000000E-01	 5.00000000E+00
					 0.00000000E+00	 5.00000000E-01	 5.00000000E+00
					 0.00000000E+00	 2.50000000E-01	 5.00000000E+00
					 0.00000000E+00	 5.00000000E-01	 5.50000000E+00
					 0.00000000E+00	 7.50000000E-01	 6.00000000E+00
					 0.00000000E+00	 5.00000000E-01	 6.00000000E+00
					 0.00000000E+00	 2.50000000E-01	 6.00000000E+00
					 0.00000000E+00	 5.00000000E-01	 6.50000000E+00
					 0.00000000E+00	 7.50000000E-01	 7.00000000E+00
					 0.00000000E+00	 5.00000000E-01	 7.00000000E+00
					 0.00000000E+00	 2.50000000E-01	 7.00000000E+00
					 0.00000000E+00	 5.00000000E-01	 7.50000000E+00
					 5.00000000E-01	 5.00000000E-01	 5.00000000E-01
					 5.00000000E-01	 2.50000000E-01	 1.00000000E+00
					 2.50000000E-01	 5.00000000E-01	 1.00000000E+00
					 5.00000000E-01	 5.00000000E-01	 1.00000000E+00
					 7.50000000E-01	 5.00000000E-01	 1.00000000E+00
					 5.00000000E-01	 7.50000000E-01	 1.00000000E+00
					 5.00000000E-01	 5.00000000E-01	 1.50000000E+00
					 5.00000000E-01	 2.50000000E-01	 2.00000000E+00
					 2.50000000E-01	 5.00000000E-01	 2.00000000E+00
					 5.00000000E-01	 5.00000000E-01	 2.00000000E+00
					 7.50000000E-01	 5.00000000E-01	 2.00000000E+00
					 5.00000000E-01	 7.50000000E-01	 2.00000000E+00
					 5.00000000E-01	 5.00000000E-01	 2.50000000E+00
					 5.00000000E-01	 2.50000000E-01	 3.00000000E+00
					 2.50000000E-01	 5.00000000E-01	 3.00000000E+00
					 5.00000000E-01	 5.00000000E-01	 3.00000000E+00
					 7.50000000E-01	 5.00000000E-01	 3.00000000E+00
					 5.00000000E-01	 7.50000000E-01	 3.00000000E+00
					 5.00000000E-01	 5.00000000E-01	 3.50000000E+00
					 5.00000000E-01	 2.50000000E-01	 4.00000000E+00
					 2.50000000E-01	 5.00000000E-01	 4.00000000E+00
					 5.00000000E-01	 5.00000000E-01	 4.00000000E+00
					 7.50000000E-01	 5.00000000E-01	 4.00000000E+00
					 5.00000000E-01	 7.50000000E-01	 4.00000000E+00
					 5.00000000E-01	 5.00000000E-01	 4.50000000E+00
					 5.00000000E-01	 2.50000000E-01	 5.00000000E+00
					 2.50000000E-01	 5.00000000E-01	 5.00000000E+00
					 5.00000000E-01	 5.00000000E-01	 5.00000000E+00
					 7.50000000E-01	 5.00000000E-01	 5.00000000E+00
					 5.00000000E-01	 7.50000000E-01	 5.00000000E+00
					 5.00000000E-01	 5.00000000E-01	 5.50000000E+00
					 5.00000000E-01	 2.50000000E-01	 6.00000000E+00
					 2.50000000E-01	 5.00000000E-01	 6.00000000E+00
					 5.00000000E-01	 5.00000000E-01	 6.00000000E+00
					 7.50000000E-01	 5.00000000E-01	 6.00000000E+00
					 5.00000000E-01	 7.50000000E-01	 6.00000000E+00
					 5.00000000E-01	 5.00000000E-01	 6.50000000E+00
					 5.00000000E-01	 2.50000000E-01	 7.00000000E+00
					 2.50000000E-01	 5.00000000E-01	 7.00000000E+00
					 5.00000000E-01	 5.00000000E-01	 7.00000000E+00
					 7.50000000E-01	 5.00000000E-01	 7.00000000E+00
					 5.00000000E-01	 7.50000000E-01	 7.00000000E+00
					 5.00000000E-01	 5.00000000E-01	 7.50000000E+00

				</DataArray>
			</Points>
			<Cells>
				<DataArray type="Int32" Name="connectivity" format="ascii">
					0 9 94 18 60 104 221 191 8 92 93 19 103 219 220 192 61 102 218 189 9 1 12 94 104 33 133 221 10 11 95 92 105 132 222 219 102 32 131 218 18 94 15 3 191 221 162 78 93 96 16 17 220 223 163 190 189 218 160 77 94 12 2 15 221 133 63 162 95 13 14 96 222 134 161 223 218 131 62 160 60 104 221 191 58 108 227 195 103 219 220 192 107 225 226 196 59 106 224 193 104 33 133 221 108 35 137 227 105 132 222 219 109 136 228 225 106 34 135 224 191 221 162 78 195 227 166 80 220 223 163 190 226 229 167 194 193 224 164 79 221 133 63 162 227 137 65 166 222 134 161 223 228 138 165 229 224 135 64 164 58 108 227 195 56 112 233 199 107 225 226 196 111 231 232 200 57 110 230 197 108 35 137 227 112 37 141 233 109 136 228 225 113 140 234 231 110 36 139 230 195 227 166 80 199 233 170 82 226 229 167 194 232 235 171 198 197 230 168 81 227 137 65 166 233 141 67 170 228 138 165 229 234 142 169 235 230 139 66 168 56 112 233 199 54 116 239 203 111 231 232 200 115 237 238 204 55 114 236 201 112 37 141 233 116 39 145 239 113 140 234 231 117 144 240 237 114 38 143 236 199 233 170 82 203 239 174 84 232 235 171 198 238 241 175 202 201 236 172 83 233 141 67 170 239 145 69 174 234 142 169 235 240 146 173 241 236 143 68 172 54 116 239 203 52 120 245 207 115 237 238 204 119 243 244 208 53 118 242 205 116 39 145 239 120 41 149 245 117 144 240 237 121 148 246 243 118 40 147 242 203 239 174 84 207 245 178 86 238 241 175 202 244 247 179 206 205 242 176 85 239 145 69 174 245 149 71 178 240 146 173 241 246 150 177 247 242 147 70 176 52 120 245 207 50 124 251 211 119 243 244 208 123 249 250 212 51 122 248 209 120 41 149 245 124 43 153 251 121 148 246 243 125 152 252 249 122 42 151 248 207 245 178 86 211 251 182 88 244 247 179 206 250 253 183 210 209 248 180 87 245 149 71 178 251 153 73 182 246 150 177 247 252 154 181 253 248 151 72 180 50 124 251 211 48 128 257 215 123 249 250 212 127 255 256 216 49 126 254 213 124 43 153 251 128 45 157 257 125 152 252 249 129 156 258 255 126 44 155 254 211 251 182 88 215 257 186 90 250 253 183 210 256 259 187 214 213 254 184 89 251 153 73 182 257 157 75 186 252 154 181 253 258 158 185 259 254 155 74 184 48 128 257 215 4 21 99 30 127 255 256 216 20 97 98 31 47 130 260 217 128 45 157 257 21 5 24 99 129 156 258 255 22 23 100 97 130 46 159 260 215 257 186 90 30 99 27 7 256 259 187 214 98 101 28 29 217 260 188 91 257 157 75 186 99 24 6 27 258 158 185 259 100 25 26 101 260 159 76 188 
				</DataArray>
				<DataArray type="Int32" Name="offsets" format="ascii">
					20 40 60 80 100 120 140 160 180 200 220 240 260 280 300 320 340 360 380 400 420 440 460 480 500 520 540 560 580 600 620 640 
				</DataArray>
				<DataArray type="UInt8" Name="types" format="ascii">
					25 25 25 25 25 25 25 25 25 25 25 25 25 25 25 25 25 25 25 25 25 25 25 25 25 25 25 25 25 25 25 25 
				</DataArray>
			</Cells>
			<PointData>
				<DataArray type="Float32" Name="U" NumberOfComponents="3" ComponentName0="D1" ComponentName1="D2" ComponentName2="D3" format="ascii">
					 0.00000000E+00	 0.00000000E+00	 0.00000000E+00
					 0.00000000E+00	 0.00000000E+00	 0.00000000E+00
					 0.00000000E+00	 0.00000000E+00	 0.00000000E+00
					 0.00000000E+00	 0.00000000E+00	 0.00000000E+00
					-1.45932000E-04	 2.52870000E-03	-4.13998000E-04
					-1.23526000E-04	 2.22169000E-03	-3.58486000E-04
					-6.95272000E-05	 2.06212000E-03	-7.31776000E-04
					-8.21655000E-05	 2.26267000E-03	-7.66404000E-04
					 0.00000000E+00	 0.00000000E+00	 0.00000000E+00
					 0.00000000E+00	 0.00000000E+00	 0.00000000E+00
					 0.00000000E+00	 0.00000000E+00	 0.00000000E+00
					 0.00000000E+00	 0.00000000E+00	 0.00000000E+00
					 0.00000000E+00	 0.00000000E+00	 0.00000000E+00
					 0.00000000E+00	 0.00000000E+00	 0.00000000E+00
					 0.00000000E+00	 0.00000000E+00	 0.00000000E+00
					 0.00000000E+00	 0.00000000E+00	 0.00000000E+00
					 0.00000000E+00	 0.00000000E+00	 0.00000000E+00
					 0.00000000E+00	 0.00000000E+00	 0.00000000E+00
					 0.00000000E+00	 0.00000000E+00	 0.00000000E+00
					 0.00000000E+00	 0.00000000E+00	 0.00000000E+00
					-1.34611000E-04	 2.38860000E-03	-3.95203000E-04
					-1.29147000E-04	 2.30754000E-03	-3.73202000E-04
					-1.26139000E-04	 2.26363000E-03	-3.65183000E-04
					-1.09368000E-04	 2.17715000E-03	-4.51773000E-04
					-9.60637000E-05	 2.13814000E-03	-5.44215000E-04
					-8.26828000E-05	 2.10003000E-03	-6.38301000E-04
					-7.26414000E-05	 2.11016000E-03	-7.40453000E-04
					-7.56090000E-05	 2.15919000E-03	-7.50219000E-04
					-7.88850000E-05	 2.20764000E-03	-7.57437000E-04
					-9.53213000E-05	 2.29601000E-03	-6.73186000E-04
					-1.07246000E-04	 2.33204000E-03	-5.79052000E-04
					-1.17807000E-04	 2.40458000E-03	-4.97512000E-04
					-1.27922000E-05	 2.14103000E-05	 3.37348000E-05
					-1.18168000E-05	 7.14420000E-05	 6.28461000E-05
					-1.56489000E-05	 1.53412000E-04	 8.35591000E-05
					-1.80036000E-05	 2.55361000E-04	 9.57960000E-05
					-2.23201000E-05	 3.77320000E-04	 9.92033000E-05
					-2.72980000E-05	 5.13017000E-04	 9.45135000E-05
					-3.38399000E-05	 6.61331000E-04	 8.14474000E-05
					-4.15083000E-05	 8.18531000E-04	 6.04623000E-05
					-5.05128000E-05	 9.83338000E-04	 3.19752000E-05
					-6.05294000E-05	 1.15324000E-03	-4.09001000E-06
					-7.14459000E-05	 1.32777000E-03	-4.67296000E-05
					-8.29242000E-05	 1.50454000E-03	-9.72840000E-05
					-9.44206000E-05	 1.68287000E-03	-1.51930000E-04
					-1.06472000E-04	 1.86256000E-03	-2.15320000E-04
					-1.15251000E-04	 2.03788000E-03	-2.84656000E-04
					-1.38040000E-04	 2.26771000E-03	-3.09461000E-04
					-1.13482000E-04	 2.03482000E-03	-2.58103000E-04
					-1.03440000E-04	 1.84827000E-03	-1.86548000E-04
					-9.13113000E-05	 1.65880000E-03	-1.31359000E-04
					-7.78885000E-05	 1.46549000E-03	-7.75692000E-05
					-6.43717000E-05	 1.27376000E-03	-3.38125000E-05
					-5.21741000E-05	 1.08934000E-03	 5.39958000E-06
					-4.10576000E-05	 9.10051000E-04	 3.65106000E-05
					-3.09486000E-05	 7.38401000E-04	 6.05922000E-05
					-2.20941000E-05	 5.76092000E-04	 7.65577000E-05
					-1.43817000E-05	 4.27040000E-04	 8.43257000E-05
					-8.05575000E-06	 2.92766000E-04	 8.39085000E-05
					-2.13715000E-06	 1.79272000E-04	 7.45693000E-05
					 1.49623000E-06	 8.70948000E-05	 5.71528000E-05
					 8.28367000E-06	 2.79059000E-05	 3.09782000E-05
					 1.26694000E-05	 1.82764000E-05	-3.41342000E-05
					 9.06170000E-06	 6.29158000E-05	-6.66292000E-05
					 9.31582000E-06	 1.37189000E-04	-9.71462000E-05
					 6.15434000E-06	 2.28928000E-04	-1.26643000E-04
					 2.86724000E-06	 3.40205000E-04	-1.57252000E-04
					-1.81584000E-06	 4.63794000E-04	-1.89792000E-04
					-7.00385000E-06	 5.99692000E-04	-2.25374000E-04
					-1.31718000E-05	 7.44133000E-04	-2.64274000E-04
					-1.98472000E-05	 8.96205000E-04	-3.07171000E-04
					-2.71778000E-05	 1.05359000E-03	-3.54162000E-04
					-3.46544000E-05	 1.21526000E-03	-4.05791000E-04
					-4.23635000E-05	 1.37997000E-03	-4.61857000E-04
					-4.95930000E-05	 1.54647000E-03	-5.23066000E-04
					-5.64589000E-05	 1.71416000E-03	-5.88815000E-04
					-6.24827000E-05	 1.88520000E-03	-6.59879000E-04
					-9.53375000E-06	 2.59202000E-05	-3.46989000E-05
					-4.34906000E-06	 7.97179000E-05	-6.83258000E-05
					-5.27845000E-06	 1.64595000E-04	-1.00221000E-04
					-5.66962000E-06	 2.68109000E-04	-1.32028000E-04
					-8.11974000E-06	 3.91819000E-04	-1.65102000E-04
					-1.15308000E-05	 5.28820000E-04	-2.00543000E-04
					-1.64305000E-05	 6.78667000E-04	-2.38980000E-04
					-2.23493000E-05	 8.37382000E-04	-2.80947000E-04
					-2.93716000E-05	 1.00418000E-03	-3.26613000E-04
					-3.70804000E-05	 1.17608000E-03	-3.76431000E-04
					-4.53980000E-05	 1.35337000E-03	-4.30401000E-04
					-5.37452000E-05	 1.53269000E-03	-4.88318000E-04
					-6.19770000E-05	 1.71498000E-03	-5.51338000E-04
					-6.97206000E-05	 1.89781000E-03	-6.15758000E-04
					-7.54702000E-05	 2.07775000E-03	-6.91251000E-04
					 0.00000000E+00	 0.00000000E+00	 0.00000000E+00
					 0.00000000E+00	 0.00000000E+00	 0.00000000E+00
					 0.00000000E+00	 0.00000000E+00	 0.00000000E+00
					 0.00000000E+00	 0.00000000E+00	 0.00000000E+00
					 0.00000000E+00	 0.00000000E+00	 0.00000000E+00
					-1.16302000E-04	 2.27803000E-03	-4.66904000E-04
					-1.04467000E-04	 2.29114000E-03	-5.72956000E-04
					-1.01551000E-04	 2.23756000E-03	-5.63318000E-04
					-9.90342000E-05	 2.18872000E-03	-5.53496000E-04
					-8.87815000E-05	 2.19920000E-03	-6.56410000E-04
					-2.29098000E-06	 2.92179000E-05	 3.13953000E-05
					-1.92233000E-06	 8.69320000E-05	 5.92537000E-05
					-5.28702000E-06	 8.35138000E-05	 6.04646000E-05
					-8.40668000E-06	 7.87737000E-05	 6.11126000E-05
					-8.81583000E-06	 1.69746000E-04	 7.84966000E-05
					-1.04764000E-05	 2.85735000E-04	 8.69034000E-05
					-1.30340000E-05	 2.77168000E-04	 8.93276000E-05
					-1.55011000E-05	 2.66819000E-04	 9.20901000E-05
					-1.82696000E-05	 4.04513000E-04	 9.10134000E-05
					-2.32772000E-05	 5.62076000E-04	 8.09117000E-05
					-2.46437000E-05	 5.46688000E-04	 8.47833000E-05
					-2.59692000E-05	 5.30286000E-04	 8.90765000E-05
					-3.22860000E-05	 7.01356000E-04	 7.01067000E-05
					-4.09911000E-05	 8.88175000E-04	 4.22816000E-05
					-4.11792000E-05	 8.65677000E-04	 4.77726000E-05
					-4.13802000E-05	 8.42279000E-04	 5.35423000E-05
					-5.13059000E-05	 1.03730000E-03	 1.76090000E-05
					-6.33311000E-05	 1.24517000E-03	-2.62639000E-05
					-6.24846000E-05	 1.21496000E-03	-1.92766000E-05
					-6.15836000E-05	 1.18428000E-03	-1.23144000E-05
					-7.44118000E-05	 1.39655000E-03	-6.35706000E-05
					-8.88648000E-05	 1.61857000E-03	-1.22502000E-04
					-8.69937000E-05	 1.58179000E-03	-1.13027000E-04
					-8.50697000E-05	 1.54290000E-03	-1.05573000E-04
					-9.95939000E-05	 1.76643000E-03	-1.71359000E-04
					-1.13408000E-04	 2.00209000E-03	-2.43036000E-04
					-1.12313000E-04	 1.95313000E-03	-2.31089000E-04
					-1.09502000E-04	 1.90801000E-03	-2.24230000E-04
					-1.22434000E-04	 2.14197000E-03	-3.03492000E-04
					-1.31689000E-08	 1.32109000E-05	-3.61665000E-08
					-6.35682000E-06	 6.72631000E-05	 3.04667000E-05
					-1.08386000E-06	 6.58454000E-05	-1.45493000E-06
					 3.91728000E-06	 6.29055000E-05	-3.36681000E-05
					-2.98436000E-06	 1.41087000E-04	-5.90501000E-06
					-1.18909000E-05	 2.47379000E-04	 4.06433000E-05
					-5.86059000E-06	 2.40605000E-04	-1.47171000E-05
					 7.38711000E-08	 2.34182000E-04	-7.03053000E-05
					-9.68607000E-06	 3.56140000E-04	-2.79954000E-05
					-2.08792000E-05	 4.99570000E-04	 2.41596000E-05
					-1.45335000E-05	 4.87065000E-04	-4.67632000E-05
					-8.24518000E-06	 4.74907000E-04	-1.18099000E-04
					-2.04243000E-05	 6.28876000E-04	-7.09035000E-05
					-3.43884000E-05	 7.99194000E-04	-1.98157000E-05
					-2.73479000E-05	 7.80379000E-04	-1.00890000E-04
					-2.03387000E-05	 7.61929000E-04	-1.82453000E-04
					-3.52122000E-05	 9.38758000E-04	-1.36569000E-04
					-5.21152000E-05	 1.12796000E-03	-9.06374000E-05
					-4.38301000E-05	 1.10288000E-03	-1.78047000E-04
					-3.55928000E-05	 1.07800000E-03	-2.66038000E-04
					-5.30925000E-05	 1.27092000E-03	-2.25292000E-04
					-7.26109000E-05	 1.47304000E-03	-1.87341000E-04
					-6.24558000E-05	 1.44178000E-03	-2.78399000E-04
					-5.24990000E-05	 1.41067000E-03	-3.70115000E-04
					-7.21679000E-05	 1.61436000E-03	-3.36691000E-04
					-9.36626000E-05	 1.82534000E-03	-3.07812000E-04
					-8.09481000E-05	 1.78733000E-03	-4.01146000E-04
					-6.87974000E-05	 1.75087000E-03	-4.94911000E-04
					-8.88081000E-05	 1.96258000E-03	-4.72228000E-04
					 2.00284000E-06	 2.66798000E-05	-3.38853000E-05
					 5.96256000E-06	 7.02633000E-05	-6.75752000E-05
					 2.68386000E-06	 7.53377000E-05	-6.92023000E-05
					-8.49775000E-07	 7.89057000E-05	-6.96134000E-05
					 2.27514000E-06	 1.54007000E-04	-9.95433000E-05
					 3.42752000E-06	 2.40794000E-04	-1.28514000E-04
					 4.92118000E-07	 2.51557000E-04	-1.30625000E-04
					-2.63970000E-06	 2.60387000E-04	-1.32119000E-04
					-2.42027000E-06	 3.68166000E-04	-1.62294000E-04
					-4.02363000E-06	 4.81519000E-04	-1.92945000E-04
					-6.46850000E-06	 4.98295000E-04	-1.96372000E-04
					-9.07584000E-06	 5.13976000E-04	-1.99262000E-04
					-1.15648000E-05	 6.40578000E-04	-2.33344000E-04
					-1.52676000E-05	 7.68416000E-04	-2.68928000E-04
					-1.76117000E-05	 7.92047000E-04	-2.73804000E-04
					-2.00710000E-05	 8.14893000E-04	-2.78108000E-04
					-2.45136000E-05	 9.51016000E-04	-3.18016000E-04
					-2.94754000E-05	 1.08492000E-03	-3.60242000E-04
					-3.20248000E-05	 1.11571000E-03	-3.66470000E-04
					-3.46516000E-05	 1.14600000E-03	-3.72146000E-04
					-3.99787000E-05	 1.28478000E-03	-4.19113000E-04
					-4.50512000E-05	 1.41851000E-03	-4.69103000E-04
					-4.79440000E-05	 1.45682000E-03	-4.76581000E-04
					-5.09647000E-05	 1.49460000E-03	-4.82954000E-04
					-5.58936000E-05	 1.63088000E-03	-5.37743000E-04
					-5.95544000E-05	 1.76042000E-03	-5.96639000E-04
					-6.28997000E-05	 1.80563000E-03	-6.04190000E-04
					-6.64190000E-05	 1.85218000E-03	-6.10741000E-04
					-6.91337000E-05	 1.98226000E-03	-6.75554000E-04
					-9.28250000E-07	 2.03272000E-05	-1.64591000E-06
					-3.36082000E-06	 7.92225000E-05	-3.51765000E-05
					-2.00598000E-06	 8.16467000E-05	-5.15929000E-06
					-2.36724000E-07	 8.29299000E-05	 2.46477000E-05
					-4.13490000E-06	 1.67335000E-04	-1.18774000E-05
					-6.46468000E-06	 2.72865000E-04	-7.64260000E-05
					-7.24084000E-06	 2.78597000E-04	-2.32622000E-05
					-7.74966000E-06	 2.84983000E-04	 2.96048000E-05
					-1.15455000E-05	 4.06666000E-04	-3.93454000E-05
					-1.42807000E-05	 5.39523000E-04	-1.29678000E-04
					-1.71135000E-05	 5.50974000E-04	-6.09698000E-05
					-1.97451000E-05	 5.62940000E-04	 7.21173000E-06
					-2.38978000E-05	 7.06720000E-04	-8.81562000E-05
					-2.70405000E-05	 8.54903000E-04	-2.00039000E-04
					-3.19046000E-05	 8.72738000E-04	-1.20980000E-04
					-3.66067000E-05	 8.90851000E-04	-4.26445000E-05
					-4.09598000E-05	 1.04564000E-03	-1.59687000E-04
					-4.39146000E-05	 1.20060000E-03	-2.89133000E-04
					-5.09718000E-05	 1.22509000E-03	-2.03564000E-04
					-5.79505000E-05	 1.24950000E-03	-1.18986000E-04
					-6.15269000E-05	 1.40800000E-03	-2.53415000E-04
					-6.30818000E-05	 1.56398000E-03	-3.97477000E-04
					-7.26560000E-05	 1.59536000E-03	-3.07772000E-04
					-8.16777000E-05	 1.62509000E-03	-2.19864000E-04
					-8.31447000E-05	 1.78156000E-03	-3.68265000E-04
					-8.13439000E-05	 1.93500000E-03	-5.23956000E-04
					-9.36131000E-05	 1.97190000E-03	-4.33806000E-04
					-1.05615000E-04	 2.01001000E-03	-3.45494000E-04
					-1.02014000E-04	 2.16097000E-03	-5.01685000E-04
					-2.74676000E-07	 2.12583000E-05	-1.10354000E-06
					-3.21446000E-06	 7.90773000E-05	 2.75447000E-05
					-1.69418000E-06	 8.12122000E-05	-4.67810000E-06
					-1.43877000E-06	 7.75209000E-05	-3.84590000E-06
					-1.19155000E-06	 7.28499000E-05	-2.75567000E-06
					 3.92309000E-07	 7.48909000E-05	-3.55863000E-05
					-3.39366000E-06	 1.57669000E-04	-9.62613000E-06
					-9.70247000E-06	 2.69149000E-04	 3.45485000E-05
					-6.80943000E-06	 2.71175000E-04	-2.18116000E-05
					-6.41679000E-06	 2.62334000E-04	-1.98396000E-05
					-6.09174000E-06	 2.51973000E-04	-1.74691000E-05
					-3.05003000E-06	 2.56394000E-04	-7.45310000E-05
					-1.04698000E-05	 3.83805000E-04	-3.46178000E-05
					-2.01743000E-05	 5.33229000E-04	 1.48762000E-05
					-1.63801000E-05	 5.36469000E-04	-5.81961000E-05
					-1.56911000E-05	 5.20829000E-04	-5.48626000E-05
					-1.50649000E-05	 5.04364000E-04	-5.10298000E-05
					-1.11370000E-05	 5.09088000E-04	-1.25057000E-04
					-2.20367000E-05	 6.69366000E-04	-8.05413000E-05
					-3.53819000E-05	 8.46344000E-04	-3.21058000E-05
					-3.06890000E-05	 8.50541000E-04	-1.16800000E-04
					-2.95145000E-05	 8.27623000E-04	-1.12033000E-04
					-2.83952000E-05	 8.04256000E-04	-1.06704000E-04
					-2.35884000E-05	 8.09586000E-04	-1.92413000E-04