<?xml version="1.0"?>
<VTKFile type="UnstructuredGrid" version="0.1" byte_order="LittleEndian">
	<UnstructuredGrid>
		<Piece NumberOfPoints="7932" NumberOfCells="1152">
			<Points>
				<DataArray type="Float64" NumberOfComponents="3" format="ascii">
					 1.00000000E-01	 1.00000000E+00	-3.72529000E-09
					 1.00000000E-01	 9.25000000E-01	-3.72529000E-09
					 1.00000000E-01	 9.17088000E-01	 1.20737000E-01
					 1.00000000E-01	 9.91447000E-01	 1.30526000E-01
					 5.00000000E-02	 1.00000000E+00	-3.72529000E-09
					 5.00000000E-02	 9.25000000E-01	-3.72529000E-09
					 5.00000000E-02	 9.17088000E-01	 1.20737000E-01
					 5.00000000E-02	 9.91447000E-01	 1.30526000E-01
					 1.00000000E-01	 9.62500000E-01	-3.72529000E-09
					 1.00000000E-01	 9.23021000E-01	 6.04979000E-02
					 1.00000000E-01	 9.54268000E-01	 1.25631000E-01
					 1.00000000E-01	 9.97861000E-01	 6.54032000E-02
					 7.50000000E-02	 1.00000000E+00	-3.72529000E-09
					 7.50000000E-02	 9.25000000E-01	-3.72529000E-09
					 7.50000000E-02	 9.17088000E-01	 1.20737000E-01
					 7.50000000E-02	 9.91447000E-01	 1.30526000E-01
					 5.00000000E-02	 9.62500000E-01	-3.72529000E-09
					 5.00000000E-02	 9.23021000E-01	 6.04979000E-02
					 5.00000000E-02	 9.54268000E-01	 1.25631000E-01
					 5.00000000E-02	 9.97861000E-01	 6.54032000E-02
					 1.00000000E-01	 8.50000000E-01	-3.72529000E-09
					 1.00000000E-01	 8.42730000E-01	 1.10947000E-01
					 5.00000000E-02	 8.50000000E-01	-3.72529000E-09
					 5.00000000E-02	 8.42730000E-01	 1.10947000E-01
					 1.00000000E-01	 8.87500000E-01	-3.72529000E-09
					 1.00000000E-01	 8.48182000E-01	 5.55926000E-02
					 1.00000000E-01	 8.79909000E-01	 1.15842000E-01
					 7.50000000E-02	 8.50000000E-01	-3.72529000E-09
					 7.50000000E-02	 8.42730000E-01	 1.10947000E-01
					 5.00000000E-02	 8.87500000E-01	-3.72529000E-09
					 5.00000000E-02	 8.48182000E-01	 5.55926000E-02
					 5.00000000E-02	 8.79909000E-01	 1.15842000E-01
					 1.00000000E-01	 7.75000000E-01	-3.72529000E-09
					 1.00000000E-01	 7.68371000E-01	 1.01158000E-01
					 5.00000000E-02	 7.75000000E-01	-3.72529000E-09
					 5.00000000E-02	 7.68371000E-01	 1.01158000E-01
					 1.00000000E-01	 8.12500000E-01	-3.72529000E-09
					 1.00000000E-01	 7.73342000E-01	 5.06873000E-02
					 1.00000000E-01	 8.05550000E-01	 1.06052000E-01
					 7.50000000E-02	 7.75000000E-01	-3.72529000E-09
					 7.50000000E-02	 7.68371000E-01	 1.01158000E-01
					 5.00000000E-02	 8.12500000E-01	-3.72529000E-09
					 5.00000000E-02	 7.73342000E-01	 5.06873000E-02
					 5.00000000E-02	 8.05550000E-01	 1.06052000E-01
					 1.00000000E-01	 7.00000000E-01	-3.72529000E-09
					 1.00000000E-01	 6.94013000E-01	 9.13680000E-02
					 5.00000000E-02	 7.00000000E-01	-3.72529000E-09
					 5.00000000E-02	 6.94012000E-01	 9.13680000E-02
					 1.00000000E-01	 7.37500000E-01	-3.72529000E-09
					 1.00000000E-01	 6.98502000E-01	 4.57820000E-02
					 1.00000000E-01	 7.31192000E-01	 9.62627000E-02
					 7.50000000E-02	 7.00000000E-01	-3.72529000E-09
					 7.50000000E-02	 6.94012000E-01	 9.13680000E-02
					 5.00000000E-02	 7.37500000E-01	-3.72529000E-09
					 5.00000000E-02	 6.98502000E-01	 4.57820000E-02
					 5.00000000E-02	 7.31192000E-01	 9.62627000E-02
					 1.00000000E-01	 6.25000000E-01	-3.72529000E-09
					 1.00000000E-01	 6.19654000E-01	 8.15784000E-02
					 5.00000000E-02	 6.25000000E-01	-3.72529000E-09
					 5.00000000E-02	 6.19654000E-01	 8.15784000E-02
					 1.00000000E-01	 6.62500000E-01	-3.72529000E-09
					 1.00000000E-01	 6.23663000E-01	 4.08767000E-02
					 1.00000000E-01	 6.56833000E-01	 8.64732000E-02
					 7.50000000E-02	 6.25000000E-01	-3.72529000E-09
					 7.50000000E-02	 6.19654000E-01	 8.15784000E-02
					 5.00000000E-02	 6.62500000E-01	-3.72529000E-09
					 5.00000000E-02	 6.23663000E-01	 4.08767000E-02
					 5.00000000E-02	 6.56833000E-01	 8.64732000E-02
					 1.00000000E-01	 5.50000000E-01	-3.72529000E-09
					 1.00000000E-01	 5.45295000E-01	 7.17890000E-02
					 5.00000000E-02	 5.50000000E-01	-3.72529000E-09
					 5.00000000E-02	 5.45295000E-01	 7.17890000E-02
					 1.00000000E-01	 5.87500000E-01	-3.72529000E-09
					 1.00000000E-01	 5.48823000E-01	 3.59715000E-02
					 1.00000000E-01	 5.82475000E-01	 7.66837000E-02
					 7.50000000E-02	 5.50000000E-01	-3.72529000E-09
					 7.50000000E-02	 5.45295000E-01	 7.17890000E-02
					 5.00000000E-02	 5.87500000E-01	-3.72529000E-09
					 5.00000000E-02	 5.48823000E-01	 3.59715000E-02
					 5.00000000E-02	 5.82475000E-01	 7.66837000E-02
					 1.00000000E-01	 4.75000000E-01	-3.72529000E-09
					 1.00000000E-01	 4.70937000E-01	 6.19995000E-02
					 5.00000000E-02	 4.75000000E-01	-3.72529000E-09
					 5.00000000E-02	 4.70937000E-01	 6.19995000E-02
					 1.00000000E-01	 5.12500000E-01	-3.72529000E-09
					 1.00000000E-01	 4.73983000E-01	 3.10662000E-02
					 1.00000000E-01	 5.08116000E-01	 6.68942000E-02
					 7.50000000E-02	 4.75000000E-01	-3.72529000E-09
					 7.50000000E-02	 4.70937000E-01	 6.19995000E-02
					 5.00000000E-02	 5.12500000E-01	-3.72529000E-09
					 5.00000000E-02	 4.73983000E-01	 3.10662000E-02
					 5.00000000E-02	 5.08116000E-01	 6.68942000E-02
					 1.00000000E-01	 4.00000000E-01	-3.72529000E-09
					 1.00000000E-01	 3.96578000E-01	 5.22101000E-02
					 5.00000000E-02	 4.00000000E-01	-3.72529000E-09
					 5.00000000E-02	 3.96578000E-01	 5.22101000E-02
					 1.00000000E-01	 4.37500000E-01	-3.72529000E-09
					 1.00000000E-01	 3.99144000E-01	 2.61610000E-02
					 1.00000000E-01	 4.33757000E-01	 5.71048000E-02
					 7.50000000E-02	 4.00000000E-01	-3.72529000E-09
					 7.50000000E-02	 3.96578000E-01	 5.22101000E-02
					 5.00000000E-02	 4.37500000E-01	-3.72529000E-09
					 5.00000000E-02	 3.99143000E-01	 2.61610000E-02
					 5.00000000E-02	 4.33757000E-01	 5.71048000E-02
					 1.00000000E-01	 3.25000000E-01	-3.72529000E-09
					 1.00000000E-01	 3.22219000E-01	 4.24206000E-02
					 5.00000000E-02	 3.25000000E-01	-3.72529000E-09
					 5.00000000E-02	 3.22219000E-01	 4.24206000E-02
					 1.00000000E-01	 3.62500000E-01	-3.72529000E-09
					 1.00000000E-01	 3.24304000E-01	 2.12558000E-02
					 1.00000000E-01	 3.59399000E-01	 4.73154000E-02
					 7.50000000E-02	 3.25000000E-01	-3.72529000E-09
					 7.50000000E-02	 3.22219000E-01	 4.24206000E-02
					 5.00000000E-02	 3.62500000E-01	-3.72529000E-09
					 5.00000000E-02	 3.24304000E-01	 2.12558000E-02
					 5.00000000E-02	 3.59399000E-01	 4.73153000E-02
					 1.00000000E-01	 2.50000000E-01	-3.72529000E-09
					 1.00000000E-01	 2.47861000E-01	 3.26313000E-02
					 5.00000000E-02	 2.50000000E-01	-3.72529000E-09
					 5.00000000E-02	 2.47861000E-01	 3.26313000E-02
					 1.00000000E-01	 2.87500000E-01	-3.72529000E-09
					 1.00000000E-01	 2.49464000E-01	 1.63506000E-02
					 1.00000000E-01	 2.85040000E-01	 3.75259000E-02
					 7.50000000E-02	 2.50000000E-01	-3.72529000E-09
					 7.50000000E-02	 2.47861000E-01	 3.26313000E-02
					 5.00000000E-02	 2.87500000E-01	-3.72529000E-09
					 5.00000000E-02	 2.49464000E-01	 1.63506000E-02
					 5.00000000E-02	 2.85040000E-01	 3.75259000E-02
					 1.00000000E-01	 1.75000000E-01	-3.72529000E-09
					 1.00000000E-01	 1.73502000E-01	 2.28419000E-02
					 5.00000000E-02	 1.75000000E-01	-3.72529000E-09
					 5.00000000E-02	 1.73502000E-01	 2.28419000E-02
					 1.00000000E-01	 2.12500000E-01	-3.72529000E-09
					 1.00000000E-01	 1.74624000E-01	 1.14454000E-02
					 1.00000000E-01	 2.10681000E-01	 2.77366000E-02
					 7.50000000E-02	 1.75000000E-01	-3.72529000E-09
					 7.50000000E-02	 1.73502000E-01	 2.28419000E-02
					 5.00000000E-02	 2.12500000E-01	-3.72529000E-09
					 5.00000000E-02	 1.74624000E-01	 1.14454000E-02
					 5.00000000E-02	 2.10681000E-01	 2.77366000E-02
					 1.00000000E-01	 1.00000000E-01	-3.72529000E-09
					 1.00000000E-01	 9.91434000E-02	 1.30526000E-02
					 5.00000000E-02	 1.00000000E-01	-3.72529000E-09
					 5.00000000E-02	 9.91434000E-02	 1.30526000E-02
					 1.00000000E-01	 1.37500000E-01	-3.72529000E-09
					 1.00000000E-01	 9.97848000E-02	 6.54026000E-03
					 1.00000000E-01	 1.36323000E-01	 1.79472000E-02
					 7.50000000E-02	 1.00000000E-01	-3.72529000E-09
					 7.50000000E-02	 9.91434000E-02	 1.30526000E-02
					 5.00000000E-02	 1.37500000E-01	-3.72529000E-09
					 5.00000000E-02	 9.97848000E-02	 6.54026000E-03
					 5.00000000E-02	 1.36323000E-01	 1.79472000E-02
					-7.45058000E-09	 1.00000000E+00	-3.72529000E-09
					-7.45058000E-09	 9.25000000E-01	-3.72529000E-09
					-7.45058000E-09	 9.17088000E-01	 1.20737000E-01
					-7.45058000E-09	 9.91447000E-01	 1.30526000E-01
					 2.50000000E-02	 1.00000000E+00	-3.72529000E-09
					 2.50000000E-02	 9.25000000E-01	-3.72529000E-09
					 2.50000000E-02	 9.17088000E-01	 1.20737000E-01
					 2.50000000E-02	 9.91447000E-01	 1.30526000E-01
					-7.45058000E-09	 9.62500000E-01	-3.72529000E-09
					-7.45058000E-09	 9.23021000E-01	 6.04979000E-02
					-7.45058000E-09	 9.54268000E-01	 1.25631000E-01
					-7.45058000E-09	 9.97861000E-01	 6.54032000E-02
					-7.45058000E-09	 8.50000000E-01	-3.72529000E-09
					-7.45058000E-09	 8.42730000E-01	 1.10947000E-01
					 2.50000000E-02	 8.50000000E-01	-3.72529000E-09
					 2.50000000E-02	 8.42730000E-01	 1.10947000E-01
					-7.45058000E-09	 8.87500000E-01	-3.72529000E-09
					-7.45058000E-09	 8.48182000E-01	 5.55926000E-02
					-7.45058000E-09	 8.79909000E-01	 1.15842000E-01
					-7.45058000E-09	 7.75000000E-01	-3.72529000E-09
					-7.45058000E-09	 7.68371000E-01	 1.01158000E-01
					 2.50000000E-02	 7.75000000E-01	-3.72529000E-09
					 2.50000000E-02	 7.68371000E-01	 1.01158000E-01
					-7.45058000E-09	 8.12500000E-01	-3.72529000E-09
					-7.45058000E-09	 7.73342000E-01	 5.06873000E-02
					-7.45058000E-09	 8.05550000E-01	 1.06052000E-01
					-7.45058000E-09	 7.00000000E-01	-3.72529000E-09
					-7.45058000E-09	 6.94012000E-01	 9.13680000E-02
					 2.50000000E-02	 7.00000000E-01	-3.72529000E-09
					 2.50000000E-02	 6.94012000E-01	 9.13680000E-02
					-7.45058000E-09	 7.37500000E-01	-3.72529000E-09
[...]
			<PointData>
				<DataArray type="Float32" Name="S" NumberOfComponents="10" ComponentName0="xx" ComponentName1="yy" ComponentName2="zz" ComponentName3="xy" ComponentName4="yz" ComponentName5="zx" ComponentName6="Mises" ComponentName7="Min Principal" ComponentName8="Mid Principal" ComponentName9="Max Principal" format="ascii">
					 0.00000000E+00	 0.00000000E+00	 0.00000000E+00	 0.00000000E+00	 0.00000000E+00	 0.00000000E+00	 0.00000000E+00	 0.00000000E+00	 0.00000000E+00	 0.00000000E+00
					 0.00000000E+00	 0.00000000E+00	 0.00000000E+00	 0.00000000E+00	 0.00000000E+00	 0.00000000E+00	 0.00000000E+00	 0.00000000E+00	 0.00000000E+00	 0.00000000E+00
					 0.00000000E+00	 0.00000000E+00	 0.00000000E+00	 0.00000000E+00	 0.00000000E+00	 0.00000000E+00	 0.00000000E+00	 0.00000000E+00	 0.00000000E+00	 0.00000000E+00
					 0.00000000E+00	 0.00000000E+00	 0.00000000E+00	 0.00000000E+00	 0.00000000E+00	 0.00000000E+00	 0.00000000E+00	 0.00000000E+00	 0.00000000E+00	 0.00000000E+00
					 0.00000000E+00	 0.00000000E+00	 0.00000000E+00	 0.00000000E+00	 0.00000000E+00	 0.00000000E+00	 0.00000000E+00	 0.00000000E+00	 0.00000000E+00	 0.00000000E+00
					 0.00000000E+00	 0.00000000E+00	 0.00000000E+00	 0.00000000E+00	 0.00000000E+00	 0.00000000E+00	 0.00000000E+00	 0.00000000E+00	 0.00000000E+00	 0.00000000E+00
					 0.00000000E+00	 0.00000000E+00	 0.00000000E+00	 0.00000000E+00	 0.00000000E+00	 0.00000000E+00	 0.00000000E+00	 0.00000000E+00	 0.00000000E+00	 0.00000000E+00
					 0.00000000E+00	 0.00000000E+00	 0.00000000E+00	 0.00000000E+00	 0.00000000E+00	 0.00000000E+00	 0.00000000E+00	 0.00000000E+00	 0.00000000E+00	 0.00000000E+00
					 0.00000000E+00	 0.00000000E+00	 0.00000000E+00	 0.00000000E+00	 0.00000000E+00	 0.00000000E+00	 0.00000000E+00	 0.00000000E+00	 0.00000000E+00	 0.00000000E+00
					 0.00000000E+00	 0.00000000E+00	 0.00000000E+00	 0.00000000E+00	 0.00000000E+00	 0.00000000E+00	 0.00000000E+00	 0.00000000E+00	 0.00000000E+00	 0.00000000E+00
					 0.00000000E+00	 0.00000000E+00	 0.00000000E+00	 0.00000000E+00	 0.00000000E+00	 0.00000000E+00	 0.00000000E+00	 0.00000000E+00	 0.00000000E+00	 0.00000000E+00
					 0.00000000E+00	 0.00000000E+00	 0.00000000E+00	 0.00000000E+00	 0.00000000E+00	 0.00000000E+00	 0.00000000E+00	 0.00000000E+00	 0.00000000E+00	 0.00000000E+00
					 0.00000000E+00	 0.00000000E+00	 0.00000000E+00	 0.00000000E+00	 0.00000000E+00	 0.00000000E+00	 0.00000000E+00	 0.00000000E+00	 0.00000000E+00	 0.00000000E+00
					 0.00000000E+00	 0.00000000E+00	 0.00000000E+00	 0.00000000E+00	 0.00000000E+00	 0.00000000E+00	 0.00000000E+00	 0.00000000E+00	 0.00000000E+00	 0.00000000E+00
					 0.00000000E+00	 0.00000000E+00	 0.00000000E+00	 0.00000000E+00	 0.00000000E+00	 0.00000000E+00	 0.00000000E+00	 0.00000000E+00	 0.00000000E+00	 0.00000000E+00
					 0.00000000E+00	 0.00000000E+00	 0.00000000E+00	 0.00000000E+00	 0.00000000E+00	 0.00000000E+00	 0.00000000E+00	 0.00000000E+00	 0.00000000E+00	 0.00000000E+00
					 0.00000000E+00	 0.00000000E+00	 0.00000000E+00	 0.00000000E+00	 0.00000000E+00	 0.00000000E+00	 0.00000000E+00	 0.00000000E+00	 0.00000000E+00	 0.00000000E+00
					 0.00000000E+00	 0.00000000E+00	 0.00000000E+00	 0.00000000E+00	 0.00000000E+00	 0.00000000E+00	 0.00000000E+00	 0.00000000E+00	 0.00000000E+00	 0.00000000E+00
					 0.00000000E+00	 0.00000000E+00	 0.00000000E+00	 0.00000000E+00	 0.00000000E+00	 0.00000000E+00	 0.00000000E+00	 0.00000000E+00	 0.00000000E+00	 0.00000000E+00
					 0.00000000E+00	 0.00000000E+00	 0.00000000E+00	 0.00000000E+00	 0.00000000E+00	 0.00000000E+00	 0.00000000E+00	 0.00000000E+00	 0.00000000E+00	 0.00000000E+00
					 0.00000000E+00	 0.00000000E+00	 0.00000000E+00	 0.00000000E+00	 0.00000000E+00	 0.00000000E+00	 0.00000000E+00	 0.00000000E+00	 0.00000000E+00	 0.00000000E+00
					 0.00000000E+00	 0.00000000E+00	 0.00000000E+00	 0.00000000E+00	 0.00000000E+00	 0.00000000E+00	 0.00000000E+00	 0.00000000E+00	 0.00000000E+00	 0.00000000E+00
					 0.00000000E+00	 0.00000000E+00	 0.00000000E+00	 0.00000000E+00	 0.00000000E+00	 0.00000000E+00	 0.00000000E+00	 0.00000000E+00	 0.00000000E+00	 0.00000000E+00
					 0.00000000E+00	 0.00000000E+00	 0.00000000E+00	 0.00000000E+00	 0.00000000E+00	 0.00000000E+00	 0.00000000E+00	 0.00000000E+00	 0.00000000E+00	 0.00000000E+00
					 0.00000000E+00	 0.00000000E+00	 0.00000000E+00	 0.00000000E+00	 0.00000000E+00	 0.00000000E+00	 0.00000000E+00	 0.00000000E+00	 0.00000000E+00	 0.00000000E+00
					 0.00000000E+00	 0.00000000E+00	 0.00000000E+00	 0.00000000E+00	 0.00000000E+00	 0.00000000E+00	 0.00000000E+00	 0.00000000E+00	 0.00000000E+00	 0.00000000E+00
					 0.00000000E+00	 0.00000000E+00	 0.00000000E+00	 0.00000000E+00	 0.00000000E+00	 0.00000000E+00	 0.00000000E+00	 0.00000000E+00	 0.00000000E+00	 0.00000000E+00
					 0.00000000E+00	 0.00000000E+00	 0.00000000E+00	 0.00000000E+00	 0.00000000E+00	 0.00000000E+00	 0.00000000E+00	 0.00000000E+00	 0.00000000E+00	 0.00000000E+00
					 0.00000000E+00	 0.00000000E+00	 0.00000000E+00	 0.00000000E+00	 0.00000000E+00	 0.00000000E+00	 0.00000000E+00	 0.00000000E+00	 0.00000000E+00	 0.00000000E+00
					 0.00000000E+00	 0.00000000E+00	 0.00000000E+00	 0.00000000E+00	 0.00000000E+00	 0.00000000E+00	 0.00000000E+00	 0.00000000E+00	 0.00000000E+00	 0.00000000E+00
					 0.00000000E+00	 0.00000000E+00	 0.00000000E+00	 0.00000000E+00	 0.00000000E+00	 0.00000000E+00	 0.00000000E+00	 0.00000000E+00	 0.00000000E+00	 0.00000000E+00
					 0.00000000E+00	 0.00000000E+00	 0.00000000E+00	 0.00000000E+00	 0.00000000E+00	 0.00000000E+00	 0.00000000E+00	 0.00000000E+00	 0.00000000E+00	 0.00000000E+00
					 0.00000000E+00	 0.00000000E+00	 0.00000000E+00	 0.00000000E+00	 0.00000000E+00	 0.00000000E+00	 0.00000000E+00	 0.00000000E+00	 0.00000000E+00	 0.00000000E+00
					 0.00000000E+00	 0.00000000E+00	 0.00000000E+00	 0.00000000E+00	 0.00000000E+00	 0.00000000E+00	 0.00000000E+00	 0.00000000E+00	 0.00000000E+00	 0.00000000E+00
					 0.00000000E+00	 0.00000000E+00	 0.00000000E+00	 0.00000000E+00	 0.00000000E+00	 0.00000000E+00	 0.00000000E+00	 0.00000000E+00	 0.00000000E+00	 0.00000000E+00
					 2.19247000E+01	 1.45969000E+01	 9.14540000E+00	-1.37034000E+01	-2.17708000E+00	 1.98880000E+01	 4.34457039E+01	-7.49546384E+00	 1.10215833E+01	 4.21408805E+01
					 0.00000000E+00	 0.00000000E+00	 0.00000000E+00	 0.00000000E+00	 0.00000000E+00	 0.00000000E+00	 0.00000000E+00	 0.00000000E+00	 0.00000000E+00	 0.00000000E+00
					 0.00000000E+00	 0.00000000E+00	 0.00000000E+00	 0.00000000E+00	 0.00000000E+00	 0.00000000E+00	 0.00000000E+00	 0.00000000E+00	 0.00000000E+00	 0.00000000E+00
					 0.00000000E+00	 0.00000000E+00	 0.00000000E+00	 0.00000000E+00	 0.00000000E+00	 0.00000000E+00	 0.00000000E+00	 0.00000000E+00	 0.00000000E+00	 0.00000000E+00
					 0.00000000E+00	 0.00000000E+00	 0.00000000E+00	 0.00000000E+00	 0.00000000E+00	 0.00000000E+00	 0.00000000E+00	 0.00000000E+00	 0.00000000E+00	 0.00000000E+00
					 0.00000000E+00	 0.00000000E+00	 0.00000000E+00	 0.00000000E+00	 0.00000000E+00	 0.00000000E+00	 0.00000000E+00	 0.00000000E+00	 0.00000000E+00	 0.00000000E+00
					 0.00000000E+00	 0.00000000E+00	 0.00000000E+00	 0.00000000E+00	 0.00000000E+00	 0.00000000E+00	 0.00000000E+00	 0.00000000E+00	 0.00000000E+00	 0.00000000E+00
					 0.00000000E+00	 0.00000000E+00	 0.00000000E+00	 0.00000000E+00	 0.00000000E+00	 0.00000000E+00	 0.00000000E+00	 0.00000000E+00	 0.00000000E+00	 0.00000000E+00
					 0.00000000E+00	 0.00000000E+00	 0.00000000E+00	 0.00000000E+00	 0.00000000E+00	 0.00000000E+00	 0.00000000E+00	 0.00000000E+00	 0.00000000E+00	 0.00000000E+00
					 0.00000000E+00	 0.00000000E+00	 0.00000000E+00	 0.00000000E+00	 0.00000000E+00	 0.00000000E+00	 0.00000000E+00	 0.00000000E+00	 0.00000000E+00	 0.00000000E+00
					 0.00000000E+00	 0.00000000E+00	 0.00000000E+00	 0.00000000E+00	 0.00000000E+00	 0.00000000E+00	 0.00000000E+00	 0.00000000E+00	 0.00000000E+00	 0.00000000E+00
					 0.00000000E+00	 0.00000000E+00	 0.00000000E+00	 0.00000000E+00	 0.00000000E+00	 0.00000000E+00	 0.00000000E+00	 0.00000000E+00	 0.00000000E+00	 0.00000000E+00
					-1.31072000E+01	-1.86944000E+01	-3.81175000E+01	-3.56018000E+00	 4.17552000E+00	 4.29790000E+01	 7.84149682E+01	-7.09476589E+01	-1.81234834E+01	 1.91520422E+01
					 0.00000000E+00	 0.00000000E+00	 0.00000000E+00	 0.00000000E+00	 0.00000000E+00	 0.00000000E+00	 0.00000000E+00	 0.00000000E+00	 0.00000000E+00	 0.00000000E+00
					 0.00000000E+00	 0.00000000E+00	 0.00000000E+00	 0.00000000E+00	 0.00000000E+00	 0.00000000E+00	 0.00000000E+00	 0.00000000E+00	 0.00000000E+00	 0.00000000E+00
					 0.00000000E+00	 0.00000000E+00	 0.00000000E+00	 0.00000000E+00	 0.00000000E+00	 0.00000000E+00	 0.00000000E+00	 0.00000000E+00	 0.00000000E+00	 0.00000000E+00
					 0.00000000E+00	 0.00000000E+00	 0.00000000E+00	 0.00000000E+00	 0.00000000E+00	 0.00000000E+00	 0.00000000E+00	 0.00000000E+00	 0.00000000E+00	 0.00000000E+00
					 0.00000000E+00	 0.00000000E+00	 0.00000000E+00	 0.00000000E+00	 0.00000000E+00	 0.00000000E+00	 0.00000000E+00	 0.00000000E+00	 0.00000000E+00	 0.00000000E+00
					 0.00000000E+00	 0.00000000E+00	 0.00000000E+00	 0.00000000E+00	 0.00000000E+00	 0.00000000E+00	 0.00000000E+00	 0.00000000E+00	 0.00000000E+00	 0.00000000E+00
					 0.00000000E+00	 0.00000000E+00	 0.00000000E+00	 0.00000000E+00	 0.00000000E+00	 0.00000000E+00	 0.00000000E+00	 0.00000000E+00	 0.00000000E+00	 0.00000000E+00
					-2.23703000E+01	-7.08303000E+00	-2.17951000E+01	-6.33797000E+00	 2.55226000E+00	 3.21089000E+01	 5.88067539E+01	-5.50222222E+01	-6.66854181E+00	 1.04423340E+01
					 0.00000000E+00	 0.00000000E+00	 0.00000000E+00	 0.00000000E+00	 0.00000000E+00	 0.00000000E+00	 0.00000000E+00	 0.00000000E+00	 0.00000000E+00	 0.00000000E+00
					 0.00000000E+00	 0.00000000E+00	 0.00000000E+00	 0.00000000E+00	 0.00000000E+00	 0.00000000E+00	 0.00000000E+00	 0.00000000E+00	 0.00000000E+00	 0.00000000E+00
					 0.00000000E+00	 0.00000000E+00	 0.00000000E+00	 0.00000000E+00	 0.00000000E+00	 0.00000000E+00	 0.00000000E+00	 0.00000000E+00	 0.00000000E+00	 0.00000000E+00
					 2.38844000E+01	 1.35148000E+01	 1.26445000E+01	 1.95727000E+01	 3.57650000E+00	 2.47128000E+01	 5.60100344E+01	-1.16101327E+01	 9.72225002E+00	 5.19315827E+01
					 0.00000000E+00	 0.00000000E+00	 0.00000000E+00	 0.00000000E+00	 0.00000000E+00	 0.00000000E+00	 0.00000000E+00	 0.00000000E+00	 0.00000000E+00	 0.00000000E+00
					 0.00000000E+00	 0.00000000E+00	 0.00000000E+00	 0.00000000E+00	 0.00000000E+00	 0.00000000E+00	 0.00000000E+00	 0.00000000E+00	 0.00000000E+00	 0.00000000E+00
					 0.00000000E+00	 0.00000000E+00	 0.00000000E+00	 0.00000000E+00	 0.00000000E+00	 0.00000000E+00	 0.00000000E+00	 0.00000000E+00	 0.00000000E+00	 0.00000000E+00
					 0.00000000E+00	 0.00000000E+00	 0.00000000E+00	 0.00000000E+00	 0.00000000E+00	 0.00000000E+00	 0.00000000E+00	 0.00000000E+00	 0.00000000E+00	 0.00000000E+00
					 0.00000000E+00	 0.00000000E+00	 0.00000000E+00	 0.00000000E+00	 0.00000000E+00	 0.00000000E+00	 0.00000000E+00	 0.00000000E+00	 0.00000000E+00	 0.00000000E+00
					 0.00000000E+00	 0.00000000E+00	 0.00000000E+00	 0.00000000E+00	 0.00000000E+00	 0.00000000E+00	 0.00000000E+00	 0.00000000E+00	 0.00000000E+00	 0.00000000E+00
					 0.00000000E+00	 0.00000000E+00	 0.00000000E+00	 0.00000000E+00	 0.00000000E+00	 0.00000000E+00	 0.00000000E+00	 0.00000000E+00	 0.00000000E+00	 0.00000000E+00
					-2.42094000E+01	-9.95011000E+00	-2.56560000E+01	 4.01144000E+00	 3.21026000E+00	 3.44689000E+01	 6.22057470E+01	-5.94145478E+01	-1.12042570E+01	 1.08032948E+01
					 0.00000000E+00	 0.00000000E+00	 0.00000000E+00	 0.00000000E+00	 0.00000000E+00	 0.00000000E+00	 0.00000000E+00	 0.00000000E+00	 0.00000000E+00	 0.00000000E+00
					 0.00000000E+00	 0.00000000E+00	 0.00000000E+00	 0.00000000E+00	 0.00000000E+00	 0.00000000E+00	 0.00000000E+00	 0.00000000E+00	 0.00000000E+00	 0.00000000E+00
					 0.00000000E+00	 0.00000000E+00	 0.00000000E+00	 0.00000000E+00	 0.00000000E+00	 0.00000000E+00	 0.00000000E+00	 0.00000000E+00	 0.00000000E+00	 0.00000000E+00
					 0.00000000E+00	 0.00000000E+00	 0.00000000E+00	 0.00000000E+00	 0.00000000E+00	 0.00000000E+00	 0.00000000E+00	 0.00000000E+00	 0.00000000E+00	 0.00000000E+00
					 0.00000000E+00	 0.00000000E+00	 0.00000000E+00	 0.00000000E+00	 0.00000000E+00	 0.00000000E+00	 0.00000000E+00	 0.00000000E+00	 0.00000000E+00	 0.00000000E+00
					 0.00000000E+00	 0.00000000E+00	 0.00000000E+00	 0.00000000E+00	 0.00000000E+00	 0.00000000E+00	 0.00000000E+00	 0.00000000E+00	 0.00000000E+00	 0.00000000E+00
					 0.00000000E+00	 0.00000000E+00	 0.00000000E+00	 0.00000000E+00	 0.00000000E+00	 0.00000000E+00	 0.00000000E+00	 0.00000000E+00	 0.00000000E+00	 0.00000000E+00
					 0.00000000E+00	 0.00000000E+00	 0.00000000E+00	 0.00000000E+00	 0.00000000E+00	 0.00000000E+00	 0.00000000E+00	 0.00000000E+00	 0.00000000E+00	 0.00000000E+00
					 0.00000000E+00	 0.00000000E+00	 0.00000000E+00	 0.00000000E+00	 0.00000000E+00	 0.00000000E+00	 0.00000000E+00	 0.00000000E+00	 0.00000000E+00	 0.00000000E+00
					 0.00000000E+00	 0.00000000E+00	 0.00000000E+00	 0.00000000E+00	 0.00000000E+00	 0.00000000E+00	 0.00000000E+00	 0.00000000E+00	 0.00000000E+00	 0.00000000E+00
					 0.00000000E+00	 0.00000000E+00	 0.00000000E+00	 0.00000000E+00	 0.00000000E+00	 0.00000000E+00	 0.00000000E+00	 0.00000000E+00	 0.00000000E+00	 0.00000000E+00
					 0.00000000E+00	 0.00000000E+00	 0.00000000E+00	 0.00000000E+00	 0.00000000E+00	 0.00000000E+00	 0.00000000E+00	 0.00000000E+00	 0.00000000E+00	 0.00000000E+00
					 0.00000000E+00	 0.00000000E+00	 0.00000000E+00	 0.00000000E+00	 0.00000000E+00	 0.00000000E+00	 0.00000000E+00	 0.00000000E+00	 0.00000000E+00	 0.00000000E+00
					 0.00000000E+00	 0.00000000E+00	 0.00000000E+00	 0.00000000E+00	 0.00000000E+00	 0.00000000E+00	 0.00000000E+00	 0.00000000E+00	 0.00000000E+00	 0.00000000E+00
					 0.00000000E+00	 0.00000000E+00	 0.00000000E+00	 0.00000000E+00	 0.00000000E+00	 0.00000000E+00	 0.00000000E+00	 0.00000000E+00	 0.00000000E+00	 0.00000000E+00
					 0.00000000E+00	 0.00000000E+00	 0.00000000E+00	 0.00000000E+00	 0.00000000E+00	 0.00000000E+00	 0.00000000E+00	 0.00000000E+00	 0.00000000E+00	 0.00000000E+00
					 0.00000000E+00	 0.00000000E+00	 0.00000000E+00	 0.00000000E+00	 0.00000000E+00	 0.00000000E+00	 0.00000000E+00	 0.00000000E+00	 0.00000000E+00	 0.00000000E+00
					 0.00000000E+00	 0.00000000E+00	 0.00000000E+00	 0.00000000E+00	 0.00000000E+00	 0.00000000E+00	 0.00000000E+00	 0.00000000E+00	 0.00000000E+00	 0.00000000E+00
					 0.00000000E+00	 0.00000000E+00	 0.00000000E+00	 0.00000000E+00	 0.00000000E+00	 0.00000000E+00	 0.00000000E+00	 0.00000000E+00	 0.00000000E+00	 0.00000000E+00
					 0.00000000E+00	 0.00000000E+00	 0.00000000E+00	 0.00000000E+00	 0.00000000E+00	 0.00000000E+00	 0.00000000E+00	 0.00000000E+00	 0.00000000E+00	 0.00000000E+00
					 0.00000000E+00	 0.00000000E+00	 0.00000000E+00	 0.00000000E+00	 0.00000000E+00	 0.00000000E+00	 0.00000000E+00	 0.00000000E+00	 0.00000000E+00	 0.00000000E+00
					 0.00000000E+00	 0.00000000E+00	 0.00000000E+00	 0.00000000E+00	 0.00000000E+00	 0.00000000E+00	 0.00000000E+00	 0.00000000E+00	 0.00000000E+00	 0.00000000E+00
					 0.00000000E+00	 0.00000000E+00	 0.00000000E+00	 0.00000000E+00	 0.00000000E+00	 0.00000000E+00	 0.00000000E+00	 0.00000000E+00	 0.00000000E+00	 0.00000000E+00
					 0.00000000E+00	 0.00000000E+00	 0.00000000E+00	 0.00000000E+00	 0.00000000E+00	 0.00000000E+00	 0.00000000E+00	 0.00000000E+00	 0.00000000E+00	 0.00000000E+00
					 0.00000000E+00	 0.00000000E+00	 0.00000000E+00	 0.00000000E+00	 0.00000000E+00	 0.00000000E+00	 0.00000000E+00	 0.00000000E+00	 0.00000000E+00	 0.00000000E+00
					 0.00000000E+00	 0.00000000E+00	 0.00000000E+00	 0.00000000E+00	 0.00000000E+00	 0.00000000E+00	 0.00000000E+00	 0.00000000E+00	 0.00000000E+00	 0.00000000E+00
					 0.00000000E+00	 0.00000000E+00	 0.00000000E+00	 0.00000000E+00	 0.00000000E+00	 0.00000000E+00	 0.00000000E+00	 0.00000000E+00	 0.00000000E+00	 0.00000000E+00
					 0.00000000E+00	 0.00000000E+00	 0.00000000E+00	 0.00000000E+00	 0.00000000E+00	 0.00000000E+00	 0.00000000E+00	 0.00000000E+00	 0.00000000E+00	 0.00000000E+00
					 0.00000000E+00	 0.00000000E+00	 0.00000000E+00	 0.00000000E+00	 0.00000000E+00	 0.00000000E+00	 0.00000000E+00	 0.00000000E+00	 0.00000000E+00	 0.00000000E+00
					 0.00000000E+00	 0.00000000E+00	 0.00000000E+00	 0.00000000E+00	 0.00000000E+00	 0.00000000E+00	 0.00000000E+00	 0.00000000E+00	 0.00000000E+00	 0.00000000E+00
					 0.00000000E+00	 0.00000000E+00	 0.00000000E+00	 0.00000000E+00	 0.00000000E+00	 0.00000000E+00	 0.00000000E+00	 0.00000000E+00	 0.00000000E+00	 0.00000000E+00
					 0.00000000E+00	 0.00000000E+00	 0.00000000E+00	 0.00000000E+00	 0.00000000E+00	 0.00000000E+00	 0.00000000E+00	 0.00000000E+00	 0.00000000E+00	 0.00000000E+00
					 0.00000000E+00	 0.00000000E+00	 0.00000000E+00	 0.00000000E+00	 0.00000000E+00	 0.00000000E+00	 0.00000000E+00	 0.00000000E+00	 0.00000000E+00	 0.00000000E+00
					 0.00000000E+00	 0.00000000E+00	 0.00000000E+00	 0.00000000E+00	 0.00000000E+00	 0.00000000E+00	 0.00000000E+00	 0.00000000E+00	 0.00000000E+00	 0.00000000E+00
					 0.00000000E+00	 0.00000000E+00	 0.00000000E+00	 0.00000000E+00	 0.00000000E+00	 0.00000000E+00	 0.00000000E+00	 0.00000000E+00	 0.00000000E+00	 0.00000000E+00
					 0.00000000E+00	 0.00000000E+00	 0.00000000E+00	 0.00000000E+00	 0.00000000E+00	 0.00000000E+00	 0.00000000E+00	 0.00000000E+00	 0.00000000E+00	 0.00000000E+00
					 0.00000000E+00	 0.00000000E+00	 0.00000000E+00	 0.00000000E+00	 0.00000000E+00	 0.00000000E+00	 0.00000000E+00	 0.00000000E+00	 0.00000000E+00	 0.00000000E+00
					 0.00000000E+00	 0.00000000E+00	 0.00000000E+00	 0.00000000E+00	 0.00000000E+00	 0.00000000E+00	 0.00000000E+00	 0.00000000E+00	 0.00000000E+00	 0.00000000E+00
					 0.00000000E+00	 0.00000000E+00	 0.00000000E+00	 0.00000000E+00	 0.00000000E+00	 0.00000000E+00	 0.00000000E+00	 0.00000000E+00	 0.00000000E+00	 0.00000000E+00
					 0.00000000E+00	 0.00000000E+00	 0.00000000E+00	 0.00000000E+00	 0.00000000E+00	 0.00000000E+00	 0.00000000E+00	 0.00000000E+00	 0.00000000E+00	 0.00000000E+00
					 0.00000000E+00	 0.00000000E+00	 0.00000000E+00	 0.00000000E+00	 0.00000000E+00	 0.00000000E+00	 0.00000000E+00	 0.00000000E+00	 0.00000000E+00	 0.00000000E+00
					 0.00000000E+00	 0.00000000E+00	 0.00000000E+00	 0.00000000E+00	 0.00000000E+00	 0.00000000E+00	 0.00000000E+00	 0.00000000E+00	 0.00000000E+00	 0.00000000E+00
					 0.00000000E+00	 0.00000000E+00	 0.00000000E+00	 0.00000000E+00	 0.00000000E+00	 0.00000000E+00	 0.00000000E+00	 0.00000000E+00	 0.00000000E+00	 0.00000000E+00
					 0.00000000E+00	 0.00000000E+00	 0.00000000E+00	 0.00000000E+00	 0.00000000E+00	 0.00000000E+00	 0.00000000E+00	 0.00000000E+00	 0.00000000E+00	 0.00000000E+00
					 0.00000000E+00	 0.00000000E+00	 0.00000000E+00	 0.00000000E+00	 0.00000000E+00	 0.00000000E+00	 0.00000000E+00	 0.00000000E+00	 0.00000000E+00	 0.00000000E+00
					 0.00000000E+00	 0.00000000E+00	 0.00000000E+00	 0.00000000E+00	 0.00000000E+00	 0.00000000E+00	 0.00000000E+00	 0.00000000E+00	 0.00000000E+00	 0.00000000E+00
					 0.00000000E+00	 0.00000000E+00	 0.00000000E+00	 0.00000000E+00	 0.00000000E+00	 0.00000000E+00	 0.00000000E+00	 0.00000000E+00	 0.00000000E+00	 0.00000000E+00
					 0.00000000E+00	 0.00000000E+00	 0.00000000E+00	 0.00000000E+00	 0.00000000E+00	 0.00000000E+00	 0.00000000E+00	 0.00000000E+00	 0.00000000E+00	 0.00000000E+00
					 0.00000000E+00	 0.00000000E+00	 0.00000000E+00	 0.00000000E+00	 0.00000000E+00	 0.00000000E+00	 0.00000000E+00	 0.00000000E+00	 0.00000000E+00	 0.00000000E+00
					 0.00000000E+00	 0.00000000E+00	 0.00000000E+00	 0.00000000E+00	 0.00000000E+00	 0.00000000E+00	 0.00000000E+00	 0.00000000E+00	 0.00000000E+00	 0.00000000E+00
					 0.00000000E+00	 0.00000000E+00	 0.00000000E+00	 0.00000000E+00	 0.00000000E+00	 0.00000000E+00	 0.00000000E+00	 0.00000000E+00	 0.00000000E+00	 0.00000000E+00