<?xml version="1.0"?>
<VTKFile type="UnstructuredGrid" version="0.1" byte_order="LittleEndian">
	<UnstructuredGrid>
		<Piece NumberOfPoints="261" NumberOfCells="32">
			<Points>
				<DataArray type="Float64" NumberOfComponents="3" format="ascii">
					 0.00000000E+00	 0.00000000E+00	 0.00000000E+00
					 1.00000000E+00	 0.00000000E+00	 0.00000000E+00
					 1.00000000E+00	 1.00000000E+00	 0.00000000E+00
					 0.00000000E+00	 1.00000000E+00	 0.00000000E+00
					 0.00000000E+00	 0.00000000E+00	 8.00000000E+00
					 1.00000000E+00	 0.00000000E+00	 8.00000000E+00
					 1.00000000E+00	 1.00000000E+00	 8.00000000E+00
					 0.00000000E+00	 1.00000000E+00	 8.00000000E+00
					 2.50000000E-01	 0.00000000E+00	 0.00000000E+00
					 5.00000000E-01	 0.00000000E+00	 0.00000000E+00
					 7.50000000E-01	 0.00000000E+00	 0.00000000E+00
					 1.00000000E+00	 2.50000000E-01	 0.00000000E+00
					 1.00000000E+00	 5.00000000E-01	 0.00000000E+00
					 1.00000000E+00	 7.50000000E-01	 0.00000000E+00
					 7.50000000E-01	 1.00000000E+00	 0.00000000E+00
					 5.00000000E-01	 1.00000000E+00	 0.00000000E+00
					 2.50000000E-01	 1.00000000E+00	 0.00000000E+00
					 0.00000000E+00	 7.50000000E-01	 0.00000000E+00
					 0.00000000E+00	 5.00000000E-01	 0.00000000E+00
					 0.00000000E+00	 2.50000000E-01	 0.00000000E+00
					 2.50000000E-01	 0.00000000E+00	 8.00000000E+00
					 5.00000000E-01	 0.00000000E+00	 8.00000000E+00
					 7.50000000E-01	 0.00000000E+00	 8.00000000E+00
					 1.00000000E+00	 2.50000000E-01	 8.00000000E+00
					 1.00000000E+00	 5.00000000E-01	 8.00000000E+00
					 1.00000000E+00	 7.50000000E-01	 8.00000000E+00
					 7.50000000E-01	 1.00000000E+00	 8.00000000E+00
					 5.00000000E-01	 1.00000000E+00	 8.00000000E+00
					 2.50000000E-01	 1.00000000E+00	 8.00000000E+00
					 0.00000000E+00	 7.50000000E-01	 8.00000000E+00
					 0.00000000E+00	 5.00000000E-01	 8.00000000E+00
					 0.00000000E+00	 2.50000000E-01	 8.00000000E+00
					 1.00000000E+00	 0.00000000E+00	 5.00000000E-01
					 1.00000000E+00	 0.00000000E+00	 1.00000000E+00
					 1.00000000E+00	 0.00000000E+00	 1.50000000E+00
					 1.00000000E+00	 0.00000000E+00	 2.00000000E+00
					 1.00000000E+00	 0.00000000E+00	 2.50000000E+00
					 1.00000000E+00	 0.00000000E+00	 3.00000000E+00
					 1.00000000E+00	 0.00000000E+00	 3.50000000E+00
					 1.00000000E+00	 0.00000000E+00	 4.00000000E+00
					 1.00000000E+00	 0.00000000E+00	 4.50000000E+00
					 1.00000000E+00	 0.00000000E+00	 5.00000000E+00
					 1.00000000E+00	 0.00000000E+00	 5.50000000E+00
					 1.00000000E+00	 0.00000000E+00	 6.00000000E+00
					 1.00000000E+00	 0.00000000E+00	 6.50000000E+00
					 1.00000000E+00	 0.00000000E+00	 7.00000000E+00
					 1.00000000E+00	 0.00000000E+00	 7.50000000E+00
					 0.00000000E+00	 0.00000000E+00	 7.50000000E+00
					 0.00000000E+00	 0.00000000E+00	 7.00000000E+00
					 0.00000000E+00	 0.00000000E+00	 6.50000000E+00
					 0.00000000E+00	 0.00000000E+00	 6.00000000E+00
					 0.00000000E+00	 0.00000000E+00	 5.50000000E+00
					 0.00000000E+00	 0.00000000E+00	 5.00000000E+00
					 0.00000000E+00	 0.00000000E+00	 4.50000000E+00
					 0.00000000E+00	 0.00000000E+00	 4.00000000E+00
					 0.00000000E+00	 0.00000000E+00	 3.50000000E+00
					 0.00000000E+00	 0.00000000E+00	 3.00000000E+00
					 0.00000000E+00	 0.00000000E+00	 2.50000000E+00
					 0.00000000E+00	 0.00000000E+00	 2.00000000E+00
					 0.00000000E+00	 0.00000000E+00	 1.50000000E+00
					 0.00000000E+00	 0.00000000E+00	 1.00000000E+00
					 0.00000000E+00	 0.00000000E+00	 5.00000000E-01
					 1.00000000E+00	 1.00000000E+00	 5.00000000E-01
					 1.00000000E+00	 1.00000000E+00	 1.00000000E+00
					 1.00000000E+00	 1.00000000E+00	 1.50000000E+00
					 1.00000000E+00	 1.00000000E+00	 2.00000000E+00
					 1.00000000E+00	 1.00000000E+00	 2.50000000E+00
					 1.00000000E+00	 1.00000000E+00	 3.00000000E+00
					 1.00000000E+00	 1.00000000E+00	 3.50000000E+00
					 1.00000000E+00	 1.00000000E+00	 4.00000000E+00
					 1.00000000E+00	 1.00000000E+00	 4.50000000E+00
					 1.00000000E+00	 1.00000000E+00	 5.00000000E+00
					 1.00000000E+00	 1.00000000E+00	 5.50000000E+00
					 1.00000000E+00	 1.00000000E+00	 6.00000000E+00
					 1.00000000E+00	 1.00000000E+00	 6.50000000E+00
					 1.00000000E+00	 1.00000000E+00	 7.00000000E+00
					 1.00000000E+00	 1.00000000E+00	 7.50000000E+00
					 0.00000000E+00	 1.00000000E+00	 5.00000000E-01
					 0.00000000E+00	 1.00000000E+00	 1.00000000E+00
					 0.00000000E+00	 1.00000000E+00	 1.50000000E+00
					 0.00000000E+00	 1.00000000E+00	 2.00000000E+00
					 0.00000000E+00	 1.00000000E+00	 2.50000000E+00
					 0.00000000E+00	 1.00000000E+00	 3.00000000E+00
					 0.00000000E+00	 1.00000000E+00	 3.50000000E+00
					 0.00000000E+00	 1.00000000E+00	 4.00000000E+00
					 0.00000000E+00	 1.00000000E+00	 4.50000000E+00
					 0.00000000E+00	 1.00000000E+00	 5.00000000E+00
					 0.00000000E+00	 1.00000000E+00	 5.50000000E+00
					 0.00000000E+00	 1.00000000E+00	 6.00000000E+00
					 0.00000000E+00	 1.00000000E+00	 6.50000000E+00
					 0.00000000E+00	 1.00000000E+00	 7.00000000E+00
					 0.00000000E+00	 1.00000000E+00	 7.50000000E+00
					 5.00000000E-01	 2.50000000E-01	 0.00000000E+00
					 2.50000000E-01	 5.00000000E-01	 0.00000000E+00
					 5.00000000E-01	 5.00000000E-01	 0.00000000E+00
					 7.50000000E-01	 5.00000000E-01	 0.00000000E+00
					 5.00000000E-01	 7.50000000E-01	 0.00000000E+00
					 5.00000000E-01	 2.50000000E-01	 8.00000000E+00
					 2.50000000E-01	 5.00000000E-01	 8.00000000E+00
					 5.00000000E-01	 5.00000000E-01	 8.00000000E+00
					 7.50000000E-01	 5.00000000E-01	 8.00000000E+00
					 5.00000000E-01	 7.50000000E-01	 8.00000000E+00
					 5.00000000E-01	 0.00000000E+00	 5.00000000E-01
					 2.50000000E-01	 0.00000000E+00	 1.00000000E+00
					 5.00000000E-01	 0.00000000E+00	 1.00000000E+00
					 7.50000000E-01	 0.00000000E+00	 1.00000000E+00
					 5.00000000E-01	 0.00000000E+00	 1.50000000E+00
					 2.50000000E-01	 0.00000000E+00	 2.00000000E+00
					 5.00000000E-01	 0.00000000E+00	 2.00000000E+00
					 7.50000000E-01	 0.00000000E+00	 2.00000000E+00
					 5.00000000E-01	 0.00000000E+00	 2.50000000E+00
					 2.50000000E-01	 0.00000000E+00	 3.00000000E+00
					 5.00000000E-01	 0.00000000E+00	 3.00000000E+00
					 7.50000000E-01	 0.00000000E+00	 3.00000000E+00
					 5.00000000E-01	 0.00000000E+00	 3.50000000E+00
					 2.50000000E-01	 0.00000000E+00	 4.00000000E+00
					 5.00000000E-01	 0.00000000E+00	 4.00000000E+00
					 7.50000000E-01	 0.00000000E+00	 4.00000000E+00
					 5.00000000E-01	 0.00000000E+00	 4.50000000E+00
					 2.50000000E-01	 0.00000000E+00	 5.00000000E+00
					 5.00000000E-01	 0.00000000E+00	 5.00000000E+00
					 7.50000000E-01	 0.00000000E+00	 5.00000000E+00
					 5.00000000E-01	 0.00000000E+00	 5.50000000E+00
					 2.50000000E-01	 0.00000000E+00	 6.00000000E+00
					 5.00000000E-01	 0.00000000E+00	 6.00000000E+00
					 7.50000000E-01	 0.00000000E+00	 6.00000000E+00
					 5.00000000E-01	 0.00000000E+00	 6.50000000E+00
					 2.50000000E-01	 0.00000000E+00	 7.00000000E+00
					 5.00000000E-01	 0.00000000E+00	 7.00000000E+00
					 7.50000000E-01	 0.00000000E+00	 7.00000000E+00
					 5.00000000E-01	 0.00000000E+00	 7.50000000E+00
					 1.00000000E+00	 5.00000000E-01	 5.00000000E-01
					 1.00000000E+00	 2.50000000E-01	 1.00000000E+00
					 1.00000000E+00	 5.00000000E-01	 1.00000000E+00
					 1.00000000E+00	 7.50000000E-01	 1.00000000E+00
					 1.00000000E+00	 5.00000000E-01	 1.50000000E+00
					 1.00000000E+00	 2.50000000E-01	 2.00000000E+00
					 1.00000000E+00	 5.00000000E-01	 2.00000000E+00
					 1.00000000E+00	 7.50000000E-01	 2.00000000E+00
					 1.00000000E+00	 5.00000000E-01	 2.50000000E+00
					 1.00000000E+00	 2.50000000E-01	 3.00000000E+00
					 1.00000000E+00	 5.00000000E-01	 3.00000000E+00
					 1.00000000E+00	 7.50000000E-01	 3.00000000E+00
					 1.00000000E+00	 5.00000000E-01	 3.50000000E+00
					 1.00000000E+00	 2.50000000E-01	 4.00000000E+00
					 1.00000000E+00	 5.00000000E-01	 4.00000000E+00
					 1.00000000E+00	 7.50000000E-01	 4.00000000E+00
					 1.00000000E+00	 5.00000000E-01	 4.50000000E+00
					 1.00000000E+00	 2.50000000E-01	 5.00000000E+00
					 1.00000000E+00	 5.00000000E-01	 5.00000000E+00
					 1.00000000E+00	 7.50000000E-01	 5.00000000E+00
					 1.00000000E+00	 5.00000000E-01	 5.50000000E+00
					 1.00000000E+00	 2.50000000E-01	 6.00000000E+00
					 1.00000000E+00	 5.00000000E-01	 6.00000000E+00
					 1.00000000E+00	 7.50000000E-01	 6.00000000E+00
					 1.00000000E+00	 5.00000000E-01	 6.50000000E+00
					 1.00000000E+00	 2.50000000E-01	 7.00000000E+00
					 1.00000000E+00	 5.00000000E-01	 7.00000000E+00
					 1.00000000E+00	 7.50000000E-01	 7.00000000E+00
					 1.00000000E+00	 5.00000000E-01	 7.50000000E+00
					 5.00000000E-01	 1.00000000E+00	 5.00000000E-01
					 7.50000000E-01	 1.00000000E+00	 1.00000000E+00
					 5.00000000E-01	 1.00000000E+00	 1.00000000E+00
					 2.50000000E-01	 1.00000000E+00	 1.00000000E+00
					 5.00000000E-01	 1.00000000E+00	 1.50000000E+00
					 7.50000000E-01	 1.00000000E+00	 2.00000000E+00
					 5.00000000E-01	 1.00000000E+00	 2.00000000E+00
					 2.50000000E-01	 1.00000000E+00	 2.00000000E+00
					 5.00000000E-01	 1.00000000E+00	 2.50000000E+00
					 7.50000000E-01	 1.00000000E+00	 3.00000000E+00
					 5.00000000E-01	 1.00000000E+00	 3.00000000E+00
					 2.50000000E-01	 1.00000000E+00	 3.00000000E+00
					 5.00000000E-01	 1.00000000E+00	 3.50000000E+00
					 7.50000000E-01	 1.00000000E+00	 4.00000000E+00
					 5.00000000E-01	 1.00000000E+00	 4.00000000E+00
					 2.50000000E-01	 1.00000000E+00	 4.00000000E+00
					 5.00000000E-01	 1.00000000E+00	 4.50000000E+00
					 7.50000000E-01	 1.00000000E+00	 5.00000000E+00
					 5.00000000E-01	 1.00000000E+00	 5.00000000E+00
					 2.50000000E-01	 1.00000000E+00	 5.00000000E+00
					 5.00000000E-01	 1.00000000E+00	 5.50000000E+00
					 7.50000000E-01	 1.00000000E+00	 6.00000000E+00
					 5.00000000E-01	 1.00000000E+00	 6.00000000E+00
					 2.50000000E-01	 1.00000000E+00	 6.00000000E+00
					 5.00000000E-01	 1.00000000E+00	 6.50000000E+00
					 7.50000000E-01	 1.00000000E+00	 7.00000000E+00
					 5.00000000E-01	 1.00000000E+00	 7.00000000E+00
					 2.50000000E-01	 1.00000000E+00	 7.00000000E+00
					 5.00000000E-01	 1.00000000E+00	 7.50000000E+00
					 0.00000000E+00	 5.00000000E-01	 5.00000000E-01
					 0.00000000E+00	 7.50000000E-01	 1.00000000E+00
					 0.00000000E+00	 5.00000000E-01	 1.00000000E+00
					 0.00000000E+00	 2.50000000E-01	 1.00000000E+00
					 0.00000000E+00	 5.00000000E-01	 1.50000000E+00
					 0.00000000E+00	 7.50000000E-01	 2.00000000E+00
					 0.00000000E+00	 5.00000000E-01	 2.00000000E+00
					 0.00000000E+00	 2.50000000E-01	 2.00000000E+00
					 0.00000000E+00	 5.00000000E-01	 2.50000000E+00
					 0.00000000E+00	 7.50000000E-01	 3.00000000E+00
					 0.00000000E+00	 5.00000000E-01	 3.00000000E+00
					 0.00000000E+00	 2.50000000E-01	 3.00000000E+00
					 0.00000000E+00	 5.00000000E-01	 3.50000000E+00
					 0.00000000E+00	 7.50000000E-01	 4.00000000E+00
					 0.00000000E+00	 5.00000000E-01	 4.00000000E+00
					 0.00000000E+00	 2.50000000E-01	 4.00000000E+00
					 0.00000000E+00	 5.00000000E-01	 4.50000000E+00
					 0.00000000E+00	 7.50000000E-01	 5.00000000E+00
					 0.00000000E+00	 5.00000000E-01	 5.00000000E+00
					 0.00000000E+00	 2.50000000E-01	 5.00000000E+00
					 0.00000000E+00	 5.00000000E-01	 5.50000000E+00
					 0.00000000E+00	 7.50000000E-01	 6.00000000E+00
					 0.00000000E+00	 5.00000000E-01	 6.00000000E+00
					 0.00000000E+00	 2.50000000E-01	 6.00000000E+00
					 0.00000000E+00	 5.00000000E-01	 6.50000000E+00
					 0.00000000E+00	 7.50000000E-01	 7.00000000E+00
					 0.00000000E+00	 5.00000000E-01	 7.00000000E+00
					 0.00000000E+00	 2.50000000E-01	 7.00000000E+00
					 0.00000000E+00	 5.00000000E-01	 7.50000000E+00
					 5.00000000E-01	 5.00000000E-01	 5.00000000E-01
					 5.00000000E-01	 2.50000000E-01	 1.00000000E+00
					 2.50000000E-01	 5.00000000E-01	 1.00000000E+00
					 5.00000000E-01	 5.00000000E-01	 1.00000000E+00
					 7.50000000E-01	 5.00000000E-01	 1.00000000E+00
					 5.00000000E-01	 7.50000000E-01	 1.00000000E+00
					 5.00000000E-01	 5.00000000E-01	 1.50000000E+00
					 5.00000000E-01	 2.50000000E-01	 2.00000000E+00
					 2.50000000E-01	 5.00000000E-01	 2.00000000E+00
					 5.00000000E-01	 5.00000000E-01	 2.00000000E+00
					 7.50000000E-01	 5.00000000E-01	 2.00000000E+00
					 5.00000000E-01	 7.50000000E-01	 2.00000000E+00
					 5.00000000E-01	 5.00000000E-01	 2.50000000E+00
					 5.00000000E-01	 2.50000000E-01	 3.00000000E+00
					 2.50000000E-01	 5.00000000E-01	 3.00000000E+00
					 5.00000000E-01	 5.00000000E-01	 3.00000000E+00
					 7.50000000E-01	 5.00000000E-01	 3.00000000E+00
					 5.00000000E-01	 7.50000000E-01	 3.00000000E+00
					 5.00000000E-01	 5.00000000E-01	 3.50000000E+00
					 5.00000000E-01	 2.50000000E-01	 4.00000000E+00
					 2.50000000E-01	 5.00000000E-01	 4.00000000E+00
					 5.00000000E-01	 5.00000000E-01	 4.00000000E+00
					 7.50000000E-01	 5.00000000E-01	 4.00000000E+00
					 5.00000000E-01	 7.50000000E-01	 4.00000000E+00
					 5.00000000E-01	 5.00000000E-01	 4.50000000E+00
					 5.00000000E-01	 2.50000000E-01	 5.00000000E+00
					 2.50000000E-01	 5.00000000E-01	 5.00000000E+00
					 5.00000000E-01	 5.00000000E-01	 5.00000000E+00
					 7.50000000E-01	 5.00000000E-01	 5.00000000E+00
					 5.00000000E-01	 7.50000000E-01	 5.00000000E+00
					 5.00000000E-01	 5.00000000E-01	 5.50000000E+00
					 5.00000000E-01	 2.50000000E-01	 6.00000000E+00
					 2.50000000E-01	 5.00000000E-01	 6.00000000E+00
					 5.00000000E-01	 5.00000000E-01	 6.00000000E+00
					 7.50000000E-01	 5.00000000E-01	 6.00000000E+00
					 5.00000000E-01	 7.50000000E-01	 6.00000000E+00
					 5.00000000E-01	 5.00000000E-01	 6.50000000E+00
					 5.00000000E-01	 2.50000000E-01	 7.00000000E+00
					 2.50000000E-01	 5.00000000E-01	 7.00000000E+00
					 5.00000000E-01	 5.00000000E-01	 7.00000000E+00
					 7.50000000E-01	 5.00000000E-01	 7.00000000E+00
					 5.00000000E-01	 7.50000000E-01	 7.00000000E+00
					 5.00000000E-01	 5.00000000E-01	 7.50000000E+00

				</DataArray>
			</Points>
			<Cells>
				<DataArray type="Int32" Name="connectivity" format="ascii">
					0 9 94 18 60 104 221 191 8 92 93 19 103 219 220 192 61 102 218 189 9 1 12 94 104 33 133 221 10 11 95 92 105 132 222 219 102 32 131 218 18 94 15 3 191 221 162 78 93 96 16 17 220 223 163 190 189 218 160 77 94 12 2 15 221 133 63 162 95 13 14 96 222 134 161 223 218 131 62 160 60 104 221 191 58 108 227 195 103 219 220 192 107 225 226 196 59 106 224 193 104 33 133 221 108 35 137 227 105 132 222 219 109 136 228 225 106 34 135 224 191 221 162 78 195 227 166 80 220 223 163 190 226 229 167 194 193 224 164 79 221 133 63 162 227 137 65 166 222 134 161 223 228 138 165 229 224 135 64 164 58 108 227 195 56 112 233 199 107 225 226 196 111 231 232 200 57 110 230 197 108 35 137 227 112 37 141 233 109 136 228 225 113 140 234 231 110 36 139 230 195 227 166 80 199 233 170 82 226 229 167 194 232 235 171 198 197 230 168 81 227 137 65 166 233 141 67 170 228 138 165 229 234 142 169 235 230 139 66 168 56 112 233 199 54 116 239 203 111 231 232 200 115 237 238 204 55 114 236 201 112 37 141 233 116 39 145 239 113 140 234 231 117 144 240 237 114 38 143 236 199 233 170 82 203 239 174 84 232 235 171 198 238 241 175 202 201 236 172 83 233 141 67 170 239 145 69 174 234 142 169 235 240 146 173 241 236 143 68 172 54 116 239 203 52 120 245 207 115 237 238 204 119 243 244 208 53 118 242 205 116 39 145 239 120 41 149 245 117 144 240 237 121 148 246 243 118 40 147 242 203 239 174 84 207 245 178 86 238 241 175 202 244 247 179 206 205 242 176 85 239 145 69 174 245 149 71 178 240 146 173 241 246 150 177 247 242 147 70 176 52 120 245 207 50 124 251 211 119 243 244 208 123 249 250 212 51 122 248 209 120 41 149 245 124 43 153 251 121 148 246 243 125 152 252 249 122 42 151 248 207 245 178 86 211 251 182 88 244 247 179 206 250 253 183 210 209 248 180 87 245 149 71 178 251 153 73 182 246 150 177 247 252 154 181 253 248 151 72 180 50 124 251 211 48 128 257 215 123 249 250 212 127 255 256 216 49 126 254 213 124 43 153 251 128 45 157 257 125 152 252 249 129 156 258 255 126 44 155 254 211 251 182 88 215 257 186 90 250 253 183 210 256 259 187 214 213 254 184 89 251 153 73 182 257 157 75 186 252 154 181 253 258 158 185 259 254 155 74 184 48 128 257 215 4 21 99 30 127 255 256 216 20 97 98 31 47 130 260 217 128 45 157 257 21 5 24 99 129 156 258 255 22 23 100 97 130 46 159 260 215 257 186 90 30 99 27 7 256 259 187 214 98 101 28 29 217 260 188 91 257 157 75 186 99 24 6 27 258 158 185 259 100 25 26 101 260 159 76 188 
				</DataArray>
				<DataArray type="Int32" Name="offsets" format="ascii">
					20 40 60 80 100 120 140 160 180 200 220 240 260 280 300 320 340 360 380 400 420 440 460 480 500 520 540 560 580 600 620 640 
				</DataArray>
				<DataArray type="UInt8" Name="types" format="ascii">
					25 25 25 25 25 25 25 25 25 25 25 25 25 25 25 25 25 25 25 25 25 25 25 25 25 25 25 25 25 25 25 25 
				</DataArray>
			</Cells>
			<PointData>
				<DataArray type="Float32" Name="U" NumberOfComponents="3" ComponentName0="D1" ComponentName1="D2" ComponentName2="D3" format="ascii">
					 0.00000000E+00	 0.00000000E+00	 0.00000000E+00
					 0.00000000E+00	 0.00000000E+00	 0.00000000E+00
					 0.00000000E+00	 0.00000000E+00	 0.00000000E+00
					 0.00000000E+00	 0.00000000E+00	 0.00000000E+00
					-1.30060000E-04	 9.55456000E-03	 9.11223000E-04
					-1.09089000E-04	 9.24272000E-03	 8.73138000E-04
					 1.06048000E-04	 9.24137000E-03	-8.71453000E-04
					 1.08732000E-04	 9.46122000E-03	-8.72936000E-04
					 0.00000000E+00	 0.00000000E+00	 0.00000000E+00
					 0.00000000E+00	 0.00000000E+00	 0.00000000E+00
					 0.00000000E+00	 0.00000000E+00	 0.00000000E+00
					 0.00000000E+00	 0.00000000E+00	 0.00000000E+00
					 0.00000000E+00	 0.00000000E+00	 0.00000000E+00
					 0.00000000E+00	 0.00000000E+00	 0.00000000E+00
					 0.00000000E+00	 0.00000000E+00	 0.00000000E+00
					 0.00000000E+00	 0.00000000E+00	 0.00000000E+00
					 0.00000000E+00	 0.00000000E+00	 0.00000000E+00
					 0.00000000E+00	 0.00000000E+00	 0.00000000E+00
					 0.00000000E+00	 0.00000000E+00	 0.00000000E+00
					 0.00000000E+00	 0.00000000E+00	 0.00000000E+00
					-1.17187000E-04	 9.42856000E-03	 8.92279000E-04
					-1.06505000E-04	 9.34201000E-03	 8.68117000E-04
					-1.07112000E-04	 9.29093000E-03	 8.69166000E-04
					-5.35713000E-05	 9.24016000E-03	 4.35331000E-04
					 9.86707000E-07	 9.23866000E-03	-8.90277000E-07
					 5.38605000E-05	 9.24019000E-03	-4.36150000E-04
					 1.06436000E-04	 9.29347000E-03	-8.72020000E-04
					 1.06984000E-04	 9.34852000E-03	-8.72729000E-04
					 1.07275000E-04	 9.40221000E-03	-8.73087000E-04
					 5.25902000E-05	 9.45485000E-03	-4.35143000E-04
					-5.36389000E-07	 9.45126000E-03	-1.78639000E-06
					-4.98882000E-05	 9.49697000E-03	 4.37562000E-04
					-3.08936000E-05	 5.10995000E-05	 9.81551000E-05
					-3.02731000E-05	 1.90684000E-04	 1.97917000E-04
					-4.02988000E-05	 4.36958000E-04	 2.91781000E-04
					-4.48190000E-05	 7.66756000E-04	 3.78172000E-04
					-5.09383000E-05	 1.18394000E-03	 4.57063000E-04
					-5.62145000E-05	 1.67399000E-03	 5.29552000E-04
					-6.18771000E-05	 2.23449000E-03	 5.95073000E-04
					-6.73587000E-05	 2.85637000E-03	 6.53779000E-04
					-7.28087000E-05	 3.53358000E-03	 7.05462000E-04
					-7.85048000E-05	 4.25943000E-03	 7.50283000E-04
					-8.36475000E-05	 5.02586000E-03	 7.88286000E-04
					-9.01061000E-05	 5.82854000E-03	 8.19443000E-04
					-9.40830000E-05	 6.65558000E-03	 8.43132000E-04
					-1.01477000E-04	 7.50789000E-03	 8.61304000E-04
					-1.04980000E-04	 8.36814000E-03	 8.69158000E-04
					-1.11495000E-04	 8.57383000E-03	 8.75702000E-04
					-8.67177000E-05	 7.70949000E-03	 8.59183000E-04
					-8.53926000E-05	 6.83268000E-03	 8.42890000E-04
					-7.72737000E-05	 5.99994000E-03	 8.20282000E-04
					-6.95306000E-05	 5.17814000E-03	 7.88419000E-04
					-5.95492000E-05	 4.39866000E-03	 7.50222000E-04
					-5.18112000E-05	 3.65790000E-03	 7.05363000E-04
					-4.32782000E-05	 2.96747000E-03	 6.53912000E-04
					-3.48648000E-05	 2.33110000E-03	 5.95064000E-04
					-2.63716000E-05	 1.75675000E-03	 5.29575000E-04
					-1.77467000E-05	 1.25258000E-03	 4.57047000E-04
					-9.97686000E-06	 8.21617000E-04	 3.78194000E-04
					-5.71854000E-07	 4.77823000E-04	 2.91779000E-04
					 3.89887000E-06	 2.17074000E-04	 1.97912000E-04
					 1.86052000E-05	 6.33386000E-05	 9.81524000E-05
					 3.08930000E-05	 5.10997000E-05	-9.81543000E-05
					 3.02739000E-05	 1.90683000E-04	-1.97919000E-04
					 4.02969000E-05	 4.36959000E-04	-2.91780000E-04
					 4.48184000E-05	 7.66749000E-04	-3.78178000E-04
					 5.09372000E-05	 1.18395000E-03	-4.57057000E-04
					 5.62048000E-05	 1.67397000E-03	-5.29570000E-04
					 6.18827000E-05	 2.23450000E-03	-5.95058000E-04
					 6.72943000E-05	 2.85626000E-03	-6.53827000E-04
					 7.28625000E-05	 3.53368000E-03	-7.05427000E-04
					 7.82593000E-05	 4.25915000E-03	-7.50355000E-04
					 8.38461000E-05	 5.02603000E-03	-7.88220000E-04
					 8.91814000E-05	 5.82752000E-03	-8.19324000E-04
					 9.49094000E-05	 6.65633000E-03	-8.43404000E-04
					 1.00169000E-04	 7.50631000E-03	-8.60787000E-04
					 1.04805000E-04	 8.37000000E-03	-8.69514000E-04
					-1.86056000E-05	 6.33395000E-05	-9.81531000E-05
					-3.89418000E-06	 2.17074000E-04	-1.97913000E-04
					 5.66059000E-07	 4.77822000E-04	-2.91778000E-04
					 9.98485000E-06	 8.21605000E-04	-3.78194000E-04
					 1.77415000E-05	 1.25259000E-03	-4.57047000E-04
					 2.64354000E-05	 1.75675000E-03	-5.29605000E-04
					 3.48036000E-05	 2.33110000E-03	-5.95039000E-04
					 4.33573000E-05	 2.96727000E-03	-6.53930000E-04
					 5.17885000E-05	 3.65806000E-03	-7.05344000E-04
					 6.03641000E-05	 4.39856000E-03	-7.50668000E-04
					 6.87416000E-05	 5.17809000E-03	-7.88015000E-04
					 7.78342000E-05	 5.99630000E-03	-8.20400000E-04
					 8.53130000E-05	 6.83537000E-03	-8.42425000E-04
					 9.43186000E-05	 7.70152000E-03	-8.61805000E-04
					 1.02914000E-04	 8.57857000E-03	-8.71338000E-04
					 0.00000000E+00	 0.00000000E+00	 0.00000000E+00
					 0.00000000E+00	 0.00000000E+00	 0.00000000E+00
					 0.00000000E+00	 0.00000000E+00	 0.00000000E+00
					 0.00000000E+00	 0.00000000E+00	 0.00000000E+00
					 0.00000000E+00	 0.00000000E+00	 0.00000000E+00
					-5.30426000E-05	 9.34636000E-03	 4.36214000E-04
					 1.61458000E-06	 9.40549000E-03	-1.60792000E-06
					 1.65796000E-06	 9.34859000E-03	 1.53430000E-07
					 1.11792000E-06	 9.29409000E-03	 1.90820000E-07
					 5.37487000E-05	 9.34858000E-03	-4.36274000E-04
					-6.40097000E-06	 6.77627000E-05	 9.56736000E-05
					-4.72335000E-06	 2.18923000E-04	 2.00637000E-04
					-1.32312000E-05	 2.14147000E-04	 2.00747000E-04
					-2.16786000E-05	 2.05695000E-04	 1.97992000E-04
					-2.03598000E-05	 4.66781000E-04	 2.91560000E-04
					-1.87006000E-05	 8.14652000E-04	 3.79822000E-04
					-2.74124000E-05	 8.03595000E-04	 3.79093000E-04
					-3.61179000E-05	 7.87242000E-04	 3.77858000E-04
					-3.43460000E-05	 1.22638000E-03	 4.57283000E-04
					-3.38644000E-05	 1.74180000E-03	 5.31028000E-04
					-4.13503000E-05	 1.72295000E-03	 5.29989000E-04
					-4.87780000E-05	 1.70040000E-03	 5.28881000E-04
					-4.83243000E-05	 2.28960000E-03	 5.95386000E-04
					-4.93202000E-05	 2.94388000E-03	 6.55255000E-04
					-5.53732000E-05	 2.91748000E-03	 6.54146000E-04
					-6.13623000E-05	 2.88839000E-03	 6.53104000E-04
					-6.23047000E-05	 3.60138000E-03	 7.05739000E-04
					-6.44417000E-05	 4.36695000E-03	 7.51731000E-04
					-6.92914000E-05	 4.33232000E-03	 7.50731000E-04
					-7.39141000E-05	 4.29707000E-03	 7.49651000E-04
					-7.63123000E-05	 5.10656000E-03	 7.88489000E-04
					-8.01447000E-05	 5.95564000E-03	 8.21209000E-04
					-8.32005000E-05	 5.91239000E-03	 8.19749000E-04
					-8.65966000E-05	 5.87097000E-03	 8.18707000E-04
					-9.06223000E-05	 6.74997000E-03	 8.43593000E-04
					-9.14360000E-05	 7.65968000E-03	 8.61299000E-04
					-9.52743000E-05	 7.59927000E-03	 8.60680000E-04
					-9.85155000E-05	 7.55450000E-03	 8.60185000E-04
					-1.06338000E-04	 8.47848000E-03	 8.71732000E-04
					 0.00000000E+00	 3.08033000E-05	 0.00000000E+00
					-1.52508000E-05	 1.81603000E-04	 9.97360000E-05
					 0.00000000E+00	 1.82161000E-04	 1.11399000E-09
					 1.52512000E-05	 1.81602000E-04	-9.97360000E-05
					 0.00000000E+00	 4.21248000E-04	 0.00000000E+00
					-2.23793000E-05	 7.58899000E-04	 1.89277000E-04
					 1.31264000E-09	 7.56818000E-04	 2.87572000E-09
					 2.23801000E-05	 7.58896000E-04	-1.89277000E-04
					-2.02814000E-09	 1.17154000E-03	-1.63331000E-09
					-2.81125000E-05	 1.66643000E-03	 2.65188000E-04
					 7.73842000E-09	 1.66432000E-03	 1.27088000E-08
					 2.81160000E-05	 1.66642000E-03	-2.65188000E-04
					-8.13084000E-09	 2.22473000E-03	-1.03606000E-08
					-3.36626000E-05	 2.85010000E-03	 3.27243000E-04
					 3.61837000E-08	 2.84804000E-03	 2.56017000E-08
					 3.36629000E-05	 2.85005000E-03	-3.27235000E-04
					-2.83407000E-08	 3.52623000E-03	-1.74219000E-08
					-3.91914000E-05	 4.25449000E-03	 3.75531000E-04
					 1.14920000E-07	 4.25271000E-03	 6.93336000E-08
					 3.91878000E-05	 4.25433000E-03	-3.75514000E-04
					-9.82272000E-08	 5.02083000E-03	-4.13463000E-08
					-4.49334000E-05	 5.82467000E-03	 4.10079000E-04
					 3.02291000E-07	 5.82302000E-03	 4.19614000E-09
					 4.47410000E-05	 5.82422000E-03	-4.10003000E-04
					-1.94443000E-07	 6.65331000E-03	 1.13417000E-08
					-5.06272000E-05	 7.50539000E-03	 4.31095000E-04
					 3.20847000E-07	 7.50358000E-03	-2.66610000E-08
					 5.02282000E-05	 7.50441000E-03	-4.30741000E-04
					-1.09950000E-07	 8.36937000E-03	-7.69820000E-08
					 6.40127000E-06	 6.77627000E-05	-9.56743000E-05
					 2.16775000E-05	 2.05695000E-04	-1.97992000E-04
					 1.32284000E-05	 2.14148000E-04	-2.00746000E-04
					 4.72429000E-06	 2.18923000E-04	-2.00637000E-04
					 2.03607000E-05	 4.66781000E-04	-2.91560000E-04
					 3.61135000E-05	 7.87241000E-04	-3.77857000E-04
					 2.74036000E-05	 8.03599000E-04	-3.79084000E-04
					 1.87004000E-05	 8.14652000E-04	-3.79819000E-04
					 3.43499000E-05	 1.22638000E-03	-4.57291000E-04
					 4.87644000E-05	 1.70040000E-03	-5.28877000E-04
					 4.13351000E-05	 1.72297000E-03	-5.29967000E-04
					 3.38881000E-05	 1.74179000E-03	-5.31030000E-04
					 4.83325000E-05	 2.28959000E-03	-5.95396000E-04
					 6.13143000E-05	 2.88839000E-03	-6.53088000E-04
					 5.53360000E-05	 2.91755000E-03	-6.54051000E-04
					 4.93449000E-05	 2.94388000E-03	-6.55225000E-04
					 6.23224000E-05	 3.60131000E-03	-7.05832000E-04
					 7.37909000E-05	 4.29709000E-03	-7.49555000E-04
					 6.93097000E-05	 4.33272000E-03	-7.50507000E-04
					 6.48450000E-05	 4.36682000E-03	-7.51830000E-04
					 7.62893000E-05	 5.10629000E-03	-7.88629000E-04
					 8.63151000E-05	 5.87125000E-03	-8.18522000E-04
					 8.34861000E-05	 5.91364000E-03	-8.19341000E-04
					 8.06181000E-05	 5.95553000E-03	-8.21068000E-04
					 9.01555000E-05	 6.74887000E-03	-8.43949000E-04
					 9.87655000E-05	 7.55595000E-03	-8.59967000E-04
					 9.72282000E-05	 7.60424000E-03	-8.61207000E-04
					 9.59184000E-05	 7.65398000E-03	-8.62916000E-04
					 1.03957000E-04	 8.47533000E-03	-8.70409000E-04
					 0.00000000E+00	 4.36635000E-05	 0.00000000E+00
					-2.02717000E-06	 2.08005000E-04	-9.70702000E-05
					 0.00000000E+00	 2.08624000E-04	 0.00000000E+00
					 2.02770000E-06	 2.08005000E-04	 9.70708000E-05
					 0.00000000E+00	 4.61962000E-04	 0.00000000E+00
					 5.00253000E-06	 8.13718000E-04	-1.87337000E-04
					-4.60298000E-09	 8.11578000E-04	 3.78972000E-09
					-4.99841000E-06	 8.13722000E-04	 1.87336000E-04
					 2.56081000E-09	 1.24028000E-03	-4.21461000E-09
					 1.32107000E-05	 1.74908000E-03	-2.63067000E-04
					-7.67948000E-09	 1.74688000E-03	 1.06809000E-08
					-1.32042000E-05	 1.74909000E-03	 2.63078000E-04
					 3.22232000E-09	 2.32148000E-03	-3.39770000E-09
					 2.16484000E-05	 2.96073000E-03	-3.25175000E-04
					-5.68350000E-08	 2.95840000E-03	 6.51777000E-08
					-2.15974000E-05	 2.96081000E-03	 3.25167000E-04
					 4.40927000E-08	 3.65110000E-03	-6.73933000E-08
					 3.01442000E-05	 4.39295000E-03	-3.73529000E-04
					-9.70197000E-08	 4.39053000E-03	 1.53651000E-07
					-3.00865000E-05	 4.39308000E-03	 3.73696000E-04
					 6.02271000E-08	 5.17403000E-03	-3.31258000E-08
					 3.85477000E-05	 5.99067000E-03	-4.07878000E-04
					-6.01246000E-07	 5.98728000E-03	 1.02119000E-06
					-3.78931000E-05	 5.99224000E-03	 4.07843000E-04
					 4.72251000E-07	 6.83574000E-03	-1.15917000E-06
					 4.74197000E-05	 7.69709000E-03	-4.28754000E-04
					-1.71123000E-07	 7.69315000E-03	 1.40924000E-06
					-4.72609000E-05	 7.70207000E-03	 4.32189000E-04
					-1.89544000E-08	 8.58071000E-03	-9.74285000E-07
					 0.00000000E+00	 4.76601000E-05	 0.00000000E+00
					-6.61941000E-06	 2.04635000E-04	 9.97049000E-05
					 0.00000000E+00	 2.10188000E-04	 0.00000000E+00
					 0.00000000E+00	 2.04971000E-04	-1.00791000E-09
					 0.00000000E+00	 1.96960000E-04	 0.00000000E+00
					 6.61785000E-06	 2.04636000E-04	-9.97047000E-05
					 0.00000000E+00	 4.51406000E-04	 0.00000000E+00
					-1.37040000E-05	 7.95389000E-04	 1.88954000E-04
					-2.27624000E-09	 8.04280000E-04	 0.00000000E+00
					 0.00000000E+00	 7.92901000E-04	-3.71634000E-09
					 0.00000000E+00	 7.76898000E-04	 0.00000000E+00
					 1.36999000E-05	 7.95389000E-04	-1.88955000E-04
					 0.00000000E+00	 1.21425000E-03	 3.57384000E-09
					-2.06768000E-05	 1.71527000E-03	 2.64480000E-04
					-4.55338000E-09	 1.73190000E-03	-3.57663000E-09
					 0.00000000E+00	 1.71306000E-03	-1.46959000E-08
					 4.16252000E-09	 1.69062000E-03	-2.10420000E-09
					 2.06680000E-05	 1.71528000E-03	-2.64479000E-04
					-2.90805000E-09	 2.27982000E-03	 7.40985000E-09
					-2.76864000E-05	 2.91139000E-03	 3.26506000E-04
					-2.94512000E-08	 2.93545000E-03	 1.21198000E-08
					-9.95246000E-09	 2.90949000E-03	-5.09290000E-08
					 1.34455000E-08	 2.88025000E-03	-8.34674000E-09
					 2.76632000E-05	 2.91141000E-03	-3.26517000E-04