    1C
    1UUSER                                                              
    1UDATE              25.january.2020                                 
    1UTIME              14:50:59                                        
    1UHOST                                                              
    1UPGM               CalculiX                                        
    1UVERSION           Version 2.16                             
    1UCOMPILETIME       Tue  7 Jan 19:57:43 CET 2020                    
    1UDIR                                                               
    1UDBN                                                               
    1UMAT    1E1                                                        
    1UMAT    2E2                                                        
    1UMAT    3SI1                                                       
    2C                         17524                                     1
 -1         1 1.00000E-02 1.00000E-02 0.00000E+00
 -1         2 1.00000E-02 9.83333E-03 0.00000E+00
 -1         3 1.00000E-02 9.83333E-03 1.00000E-03
 -1         4 1.00000E-02 1.00000E-02 1.00000E-03
 -1         5 9.83333E-03 1.00000E-02 0.00000E+00
 -1         6 9.83333E-03 9.83333E-03 2.16840E-19
 -1         7 9.83333E-03 9.83333E-03 1.00000E-03
 -1         8 9.83333E-03 1.00000E-02 1.00000E-03
 -1         9 9.66667E-03 1.00000E-02 0.00000E+00
 -1        10 9.66667E-03 9.83333E-03 0.00000E+00
 -1        11 9.66667E-03 9.83333E-03 1.00000E-03
 -1        12 9.66667E-03 1.00000E-02 1.00000E-03
 -1        13 9.50000E-03 1.00000E-02 0.00000E+00
 -1        14 9.50000E-03 9.83333E-03 0.00000E+00
 -1        15 9.50000E-03 9.83333E-03 1.00000E-03
 -1        16 9.50000E-03 1.00000E-02 1.00000E-03
 -1        17 9.33333E-03 1.00000E-02 0.00000E+00
 -1        18 9.33333E-03 9.83333E-03 0.00000E+00
 -1        19 9.33333E-03 9.83333E-03 1.00000E-03
 -1        20 9.33333E-03 1.00000E-02 1.00000E-03
 -1        21 9.16667E-03 1.00000E-02 0.00000E+00
 -1        22 9.16667E-03 9.83333E-03 0.00000E+00
 -1        23 9.16667E-03 9.83333E-03 1.00000E-03
 -1        24 9.16667E-03 1.00000E-02 1.00000E-03
 -1        25 9.00000E-03 1.00000E-02 0.00000E+00
 -1        26 9.00000E-03 9.83333E-03 1.08420E-19
 -1        27 9.00000E-03 9.83333E-03 1.00000E-03
 -1        28 9.00000E-03 1.00000E-02 1.00000E-03
 -1        29 8.83333E-03 1.00000E-02 0.00000E+00
 -1        30 8.83333E-03 9.83333E-03 0.00000E+00
 -1        31 8.83333E-03 9.83333E-03 1.00000E-03
 -1        32 8.83333E-03 1.00000E-02 1.00000E-03
 -1        33 8.66667E-03 1.00000E-02 0.00000E+00
 -1        34 8.66667E-03 9.83333E-03-2.16840E-19
 -1        35 8.66667E-03 9.83333E-03 1.00000E-03
 -1        36 8.66667E-03 1.00000E-02 1.00000E-03
 -1        37 8.50000E-03 1.00000E-02 0.00000E+00
 -1        38 8.50000E-03 9.83333E-03 1.08420E-19
 -1        39 8.50000E-03 9.83333E-03 1.00000E-03
 -1        40 8.50000E-03 1.00000E-02 1.00000E-03
 -1        41 8.33333E-03 1.00000E-02 0.00000E+00
 -1        42 8.33333E-03 9.83333E-03 3.25261E-19
 -1        43 8.33333E-03 9.83333E-03 1.00000E-03
 -1        44 8.33333E-03 1.00000E-02 1.00000E-03
 -1        45 8.16667E-03 1.00000E-02 0.00000E+00
 -1        46 8.16667E-03 9.83333E-03 0.00000E+00
 -1        47 8.16667E-03 9.83333E-03 1.00000E-03
 -1        48 8.16667E-03 1.00000E-02 1.00000E-03
 -1        49 8.00000E-03 1.00000E-02 0.00000E+00
 -1        50 8.00000E-03 9.83333E-03 0.00000E+00
 -1        51 8.00000E-03 9.83333E-03 1.00000E-03
 -1        52 8.00000E-03 1.00000E-02 1.00000E-03
 -1        53 7.83333E-03 1.00000E-02 0.00000E+00
 -1        54 7.83333E-03 9.83333E-03 1.08420E-19
 -1        55 7.83333E-03 9.83333E-03 1.00000E-03
 -1        56 7.83333E-03 1.00000E-02 1.00000E-03
 -1        57 7.66667E-03 1.00000E-02 0.00000E+00
 -1        58 7.66667E-03 9.83333E-03 1.08420E-19
 -1        59 7.66667E-03 9.83333E-03 1.00000E-03
 -1        60 7.66667E-03 1.00000E-02 1.00000E-03
 -1        61 7.50000E-03 1.00000E-02 0.00000E+00
 -1        62 7.50000E-03 9.83333E-03-1.08420E-19
 -1        63 7.50000E-03 9.83333E-03 1.00000E-03
 -1        64 7.50000E-03 1.00000E-02 1.00000E-03
 -1        65 7.33333E-03 1.00000E-02 0.00000E+00
 -1        66 7.33333E-03 9.83333E-03 0.00000E+00
 -1        67 7.33333E-03 9.83333E-03 1.00000E-03
 -1        68 7.33333E-03 1.00000E-02 1.00000E-03
 -1        69 7.16667E-03 1.00000E-02 0.00000E+00
 -1        70 7.16667E-03 9.83333E-03 1.08420E-19
 -1        71 7.16667E-03 9.83333E-03 1.00000E-03
 -1        72 7.16667E-03 1.00000E-02 1.00000E-03
 -1        73 7.00000E-03 1.00000E-02 0.00000E+00
 -1        74 7.00000E-03 9.83333E-03 1.08420E-19
 -1        75 7.00000E-03 9.83333E-03 1.00000E-03
 -1        76 7.00000E-03 1.00000E-02 1.00000E-03
 -1        77 6.83333E-03 1.00000E-02 0.00000E+00
 -1        78 6.83333E-03 9.83333E-03 0.00000E+00
 -1        79 6.83333E-03 9.83333E-03 1.00000E-03
 -1        80 6.83333E-03 1.00000E-02 1.00000E-03
 -1        81 6.66667E-03 1.00000E-02 0.00000E+00
 -1        82 6.66667E-03 9.83333E-03-2.16840E-19
 -1        83 6.66667E-03 9.83333E-03 1.00000E-03
 -1        84 6.66667E-03 1.00000E-02 1.00000E-03
 -1        85 6.50000E-03 1.00000E-02 0.00000E+00
 -1        86 6.50000E-03 9.83333E-03 1.08420E-19
 -1        87 6.50000E-03 9.83333E-03 1.00000E-03
 -1        88 6.50000E-03 1.00000E-02 1.00000E-03
 -1        89 6.33333E-03 1.00000E-02 0.00000E+00
 -1        90 6.33333E-03 9.83333E-03 1.08420E-19
 -1        91 6.33333E-03 9.83333E-03 1.00000E-03
 -1        92 6.33333E-03 1.00000E-02 1.00000E-03
 -1        93 6.16667E-03 1.00000E-02 0.00000E+00
 -1        94 6.16667E-03 9.83333E-03 0.00000E+00
 -1        95 6.16667E-03 9.83333E-03 1.00000E-03
 -1        96 6.16667E-03 1.00000E-02 1.00000E-03
 -1        97 6.00000E-03 1.00000E-02 0.00000E+00
 -1        98 6.00000E-03 9.83333E-03 0.00000E+00
 -1        99 6.00000E-03 9.83333E-03 1.00000E-03
 -1       100 6.00000E-03 1.00000E-02 1.00000E-03
 -1       101 5.83333E-03 1.00000E-02 0.00000E+00
 -1       102 5.83333E-03 9.83333E-03 0.00000E+00
 -1       103 5.83333E-03 9.83333E-03 1.00000E-03
 -1       104 5.83333E-03 1.00000E-02 1.00000E-03
 -1       105 5.66667E-03 1.00000E-02 0.00000E+00
 -1       106 5.66667E-03 9.83333E-03 1.08420E-19
 -1       107 5.66667E-03 9.83333E-03 1.00000E-03
 -1       108 5.66667E-03 1.00000E-02 1.00000E-03
 -1       109 5.50000E-03 1.00000E-02 0.00000E+00
 -1       110 5.50000E-03 9.83333E-03 1.08420E-19
 -1       111 5.50000E-03 9.83333E-03 1.00000E-03
 -1       112 5.50000E-03 1.00000E-02 1.00000E-03
 -1       113 5.33333E-03 1.00000E-02 0.00000E+00
 -1       114 5.33333E-03 9.83333E-03-2.16840E-19
 -1       115 5.33333E-03 9.83333E-03 1.00000E-03
 -1       116 5.33333E-03 1.00000E-02 1.00000E-03
 -1       117 5.16667E-03 1.00000E-02 0.00000E+00
 -1       118 5.16667E-03 9.83333E-03-2.16840E-19
 -1       119 5.16667E-03 9.83333E-03 1.00000E-03
 -1       120 5.16667E-03 1.00000E-02 1.00000E-03
 -1       121 5.00000E-03 1.00000E-02 0.00000E+00
 -1       122 5.00000E-03 9.83333E-03 3.25261E-19
 -1       123 5.00000E-03 9.83333E-03 1.00000E-03
 -1       124 5.00000E-03 1.00000E-02 1.00000E-03
 -1       125 4.83333E-03 1.00000E-02 0.00000E+00
 -1       126 4.83333E-03 9.83333E-03 0.00000E+00
 -1       127 4.83333E-03 9.83333E-03 1.00000E-03
 -1       128 4.83333E-03 1.00000E-02 1.00000E-03
 -1       129 4.66667E-03 1.00000E-02 0.00000E+00
 -1       130 4.66667E-03 9.83333E-03 0.00000E+00
 -1       131 4.66667E-03 9.83333E-03 1.00000E-03
 -1       132 4.66667E-03 1.00000E-02 1.00000E-03
 -1       133 4.50000E-03 1.00000E-02 0.00000E+00
 -1       134 4.50000E-03 9.83333E-03 0.00000E+00
 -1       135 4.50000E-03 9.83333E-03 1.00000E-03
 -1       136 4.50000E-03 1.00000E-02 1.00000E-03
 -1       137 4.33333E-03 1.00000E-02 0.00000E+00
 -1       138 4.33333E-03 9.83333E-03 1.08420E-19
 -1       139 4.33333E-03 9.83333E-03 1.00000E-03
 -1       140 4.33333E-03 1.00000E-02 1.00000E-03
 -1       141 4.16667E-03 1.00000E-02 0.00000E+00
 -1       142 4.16667E-03 9.83333E-03 0.00000E+00
 -1       143 4.16667E-03 9.83333E-03 1.00000E-03
 -1       144 4.16667E-03 1.00000E-02 1.00000E-03
 -1       145 4.00000E-03 1.00000E-02 0.00000E+00
 -1       146 4.00000E-03 9.83333E-03 0.00000E+00
 -1       147 4.00000E-03 9.83333E-03 1.00000E-03
 -1       148 4.00000E-03 1.00000E-02 1.00000E-03
 -1       149 3.83333E-03 1.00000E-02 0.00000E+00
 -1       150 3.83333E-03 9.83333E-03-1.08420E-19
 -1       151 3.83333E-03 9.83333E-03 1.00000E-03
 -1       152 3.83333E-03 1.00000E-02 1.00000E-03
 -1       153 3.66667E-03 1.00000E-02 0.00000E+00
 -1       154 3.66667E-03 9.83333E-03 1.08420E-19
 -1       155 3.66667E-03 9.83333E-03 1.00000E-03
 -1       156 3.66667E-03 1.00000E-02 1.00000E-03
 -1       157 3.50000E-03 1.00000E-02 0.00000E+00
 -1       158 3.50000E-03 9.83333E-03 0.00000E+00
 -1       159 3.50000E-03 9.83333E-03 1.00000E-03
 -1       160 3.50000E-03 1.00000E-02 1.00000E-03
 -1       161 3.33333E-03 1.00000E-02 0.00000E+00
 -1       162 3.33333E-03 9.83333E-03 0.00000E+00
 -1       163 3.33333E-03 9.83333E-03 1.00000E-03
 -1       164 3.33333E-03 1.00000E-02 1.00000E-03
 -1       165 3.16667E-03 1.00000E-02 0.00000E+00
 -1       166 3.16667E-03 9.83333E-03 0.00000E+00
 -1       167 3.16667E-03 9.83333E-03 1.00000E-03
 -1       168 3.16667E-03 1.00000E-02 1.00000E-03
 -1       169 3.00000E-03 1.00000E-02 0.00000E+00
 -1       170 3.00000E-03 9.83333E-03 1.08420E-19
 -1       171 3.00000E-03 9.83333E-03 1.00000E-03
 -1       172 3.00000E-03 1.00000E-02 1.00000E-03
 -1       173 2.83333E-03 1.00000E-02 0.00000E+00
 -1       174 2.83333E-03 9.83333E-03 1.08420E-19
 -1       175 2.83333E-03 9.83333E-03 1.00000E-03
 -1       176 2.83333E-03 1.00000E-02 1.00000E-03
 -1       177 2.66667E-03 1.00000E-02 0.00000E+00
 -1       178 2.66667E-03 9.83333E-03 0.00000E+00
 -1       179 2.66667E-03 9.83333E-03 1.00000E-03
 -1       180 2.66667E-03 1.00000E-02 1.00000E-03
 -1       181 2.50000E-03 1.00000E-02 0.00000E+00
 -1       182 2.50000E-03 9.83333E-03 0.00000E+00
 -1       183 2.50000E-03 9.83333E-03 1.00000E-03
 -1       184 2.50000E-03 1.00000E-02 1.00000E-03
 -1       185 2.33333E-03 1.00000E-02 0.00000E+00
 -1       186 2.33333E-03 9.83333E-03 1.08420E-19
 -1       187 2.33333E-03 9.83333E-03 1.00000E-03
 -1       188 2.33333E-03 1.00000E-02 1.00000E-03
 -1       189 2.16667E-03 1.00000E-02 0.00000E+00
 -1       190 2.16667E-03 9.83333E-03 2.16840E-19
 -1       191 2.16667E-03 9.83333E-03 1.00000E-03
 -1       192 2.16667E-03 1.00000E-02 1.00000E-03
 -1       193 2.00000E-03 1.00000E-02 0.00000E+00
 -1       194 2.00000E-03 9.83333E-03 0.00000E+00
 -1       195 2.00000E-03 9.83333E-03 1.00000E-03
 -1       196 2.00000E-03 1.00000E-02 1.00000E-03
 -1       197 1.83333E-03 1.00000E-02 0.00000E+00
 -1       198 1.83333E-03 9.83333E-03 0.00000E+00
 -1       199 1.83333E-03 9.83333E-03 1.00000E-03
 -1       200 1.83333E-03 1.00000E-02 1.00000E-03
 -1       201 1.66667E-03 1.00000E-02 0.00000E+00
 -1       202 1.66667E-03 9.83333E-03 2.16840E-19
 -1       203 1.66667E-03 9.83333E-03 1.00000E-03
 -1       204 1.66667E-03 1.00000E-02 1.00000E-03
 -1       205 1.50000E-03 1.00000E-02 0.00000E+00
 -1       206 1.50000E-03 9.83333E-03 1.08420E-19
 -1       207 1.50000E-03 9.83333E-03 1.00000E-03
 -1       208 1.50000E-03 1.00000E-02 1.00000E-03
 -1       209 1.33333E-03 1.00000E-02 0.00000E+00
 -1       210 1.33333E-03 9.83333E-03 0.00000E+00
 -1       211 1.33333E-03 9.83333E-03 1.00000E-03
 -1       212 1.33333E-03 1.00000E-02 1.00000E-03
 -1       213 1.16667E-03 1.00000E-02 0.00000E+00
 -1       214 1.16667E-03 9.83333E-03 0.00000E+00
 -1       215 1.16667E-03 9.83333E-03 1.00000E-03
 -1       216 1.16667E-03 1.00000E-02 1.00000E-03
 -1       217 1.00000E-03 1.00000E-02 0.00000E+00
 -1       218 1.00000E-03 9.83333E-03 0.00000E+00
 -1       219 1.00000E-03 9.83333E-03 1.00000E-03
 -1       220 1.00000E-03 1.00000E-02 1.00000E-03
 -1       221 8.33333E-04 1.00000E-02 0.00000E+00
 -1       222 8.33333E-04 9.83333E-03 1.08420E-19
 -1       223 8.33333E-04 9.83333E-03 1.00000E-03
 -1       224 8.33333E-04 1.00000E-02 1.00000E-03
 -1       225 6.66667E-04 1.00000E-02 0.00000E+00
 -1       226 6.66667E-04 9.83333E-03-1.08420E-19
 -1       227 6.66667E-04 9.83333E-03 1.00000E-03
 -1       228 6.66667E-04 1.00000E-02 1.00000E-03
 -1       229 5.00000E-04 1.00000E-02 0.00000E+00
 -1       230 5.00000E-04 9.83333E-03 0.00000E+00
 -1       231 5.00000E-04 9.83333E-03 1.00000E-03
 -1       232 5.00000E-04 1.00000E-02 1.00000E-03
 -1       233 3.33333E-04 1.00000E-02 0.00000E+00
 -1       234 3.33333E-04 9.83333E-03 0.00000E+00
 -1       235 3.33333E-04 9.83333E-03 1.00000E-03
 -1       236 3.33333E-04 1.00000E-02 1.00000E-03
 -1       237 1.66667E-04 1.00000E-02 0.00000E+00
 -1       238 1.66667E-04 9.83333E-03 0.00000E+00
 -1       239 1.66667E-04 9.83333E-03 1.00000E-03
 -1       240 1.66667E-04 1.00000E-02 1.00000E-03
 -1       241 0.00000E+00 1.00000E-02 0.00000E+00
 -1       242 0.00000E+00 9.83333E-03 0.00000E+00
 -1       243 0.00000E+00 9.83333E-03 1.00000E-03
 -1       244 0.00000E+00 1.00000E-02 1.00000E-03
 -1       245 1.00000E-02 9.66667E-03 0.00000E+00
 -1       246 1.00000E-02 9.66667E-03 1.00000E-03
 -1       247 9.83333E-03 9.66667E-03 2.16840E-19
 -1       248 9.83333E-03 9.66667E-03 1.00000E-03
 -1       249 9.66667E-03 9.66667E-03-1.08420E-19
 -1       250 9.66667E-03 9.66667E-03 1.00000E-03
 -1       251 9.50000E-03 9.66667E-03 2.16840E-19
 -1       252 9.50000E-03 9.66667E-03 1.00000E-03
 -1       253 9.33333E-03 9.66667E-03 0.00000E+00
 -1       254 9.33333E-03 9.66667E-03 1.00000E-03
 -1       255 9.16667E-03 9.66667E-03 0.00000E+00
 -1       256 9.16667E-03 9.66667E-03 1.00000E-03
 -1       257 9.00000E-03 9.66667E-03 0.00000E+00
 -1       258 9.00000E-03 9.66667E-03 1.00000E-03
 -1       259 8.83333E-03 9.66667E-03 2.16840E-19
 -1       260 8.83333E-03 9.66667E-03 1.00000E-03
 -1       261 8.66667E-03 9.66667E-03-1.08420E-19
 -1       262 8.66667E-03 9.66667E-03 1.00000E-03
 -1       263 8.50000E-03 9.66667E-03 2.16840E-19
 -1       264 8.50000E-03 9.66667E-03 1.00000E-03
 -1       265 8.33333E-03 9.66667E-03 1.08420E-19
 -1       266 8.33333E-03 9.66667E-03 1.00000E-03
 -1       267 8.16667E-03 9.66667E-03 3.25261E-19
 -1       268 8.16667E-03 9.66667E-03 1.00000E-03
 -1       269 8.00000E-03 9.66667E-03 0.00000E+00
 -1       270 8.00000E-03 9.66667E-03 1.00000E-03
 -1       271 7.83333E-03 9.66667E-03 2.16840E-19
 -1       272 7.83333E-03 9.66667E-03 1.00000E-03
 -1       273 7.66667E-03 9.66667E-03 0.00000E+00
 -1       274 7.66667E-03 9.66667E-03 1.00000E-03
 -1       275 7.50000E-03 9.66667E-03 2.16840E-19
 -1       276 7.50000E-03 9.66667E-03 1.00000E-03
 -1       277 7.33333E-03 9.66667E-03 0.00000E+00
 -1       278 7.33333E-03 9.66667E-03 1.00000E-03
 -1       279 7.16667E-03 9.66667E-03 2.16840E-19
 -1       280 7.16667E-03 9.66667E-03 1.00000E-03
 -1       281 7.00000E-03 9.66667E-03 0.00000E+00
 -1       282 7.00000E-03 9.66667E-03 1.00000E-03
 -1       283 6.83333E-03 9.66667E-03 3.25261E-19
 -1       284 6.83333E-03 9.66667E-03 1.00000E-03
 -1       285 6.66667E-03 9.66667E-03 0.00000E+00
 -1       286 6.66667E-03 9.66667E-03 1.00000E-03
 -1       287 6.50000E-03 9.66667E-03 2.16840E-19
 -1       288 6.50000E-03 9.66667E-03 1.00000E-03
 -1       289 6.33333E-03 9.66667E-03 0.00000E+00
 -1       290 6.33333E-03 9.66667E-03 1.00000E-03
 -1       291 6.16667E-03 9.66667E-03 1.08420E-19
 -1       292 6.16667E-03 9.66667E-03 1.00000E-03
 -1       293 6.00000E-03 9.66667E-03 0.00000E+00
 -1       294 6.00000E-03 9.66667E-03 1.00000E-03
 -1       295 5.83333E-03 9.66667E-03 0.00000E+00
 -1       296 5.83333E-03 9.66667E-03 1.00000E-03
 -1       297 5.66667E-03 9.66667E-03 0.00000E+00
 -1       298 5.66667E-03 9.66667E-03 1.00000E-03
 -1       299 5.50000E-03 9.66667E-03 3.25261E-19
 -1       300 5.50000E-03 9.66667E-03 1.00000E-03
 -1       301 5.33333E-03 9.66667E-03-1.08420E-19
 -1       302 5.33333E-03 9.66667E-03 1.00000E-03
 -1       303 5.16667E-03 9.66667E-03 1.08420E-19
 -1       304 5.16667E-03 9.66667E-03 1.00000E-03
 -1       305 5.00000E-03 9.66667E-03 2.16840E-19
 -1       306 5.00000E-03 9.66667E-03 1.00000E-03
 -1       307 4.83333E-03 9.66667E-03 2.16840E-19
 -1       308 4.83333E-03 9.66667E-03 1.00000E-03
 -1       309 4.66667E-03 9.66667E-03 0.00000E+00
 -1       310 4.66667E-03 9.66667E-03 1.00000E-03
 -1       311 4.50000E-03 9.66667E-03 2.16840E-19
 -1       312 4.50000E-03 9.66667E-03 1.00000E-03
 -1       313 4.33333E-03 9.66667E-03 0.00000E+00
 -1       314 4.33333E-03 9.66667E-03 1.00000E-03
 -1       315 4.16667E-03 9.66667E-03 2.16840E-19
 -1       316 4.16667E-03 9.66667E-03 1.00000E-03
 -1       317 4.00000E-03 9.66667E-03 0.00000E+00
 -1       318 4.00000E-03 9.66667E-03 1.00000E-03
 -1       319 3.83333E-03 9.66667E-03 1.08420E-19
 -1       320 3.83333E-03 9.66667E-03 1.00000E-03
 -1       321 3.66667E-03 9.66667E-03 0.00000E+00
 -1       322 3.66667E-03 9.66667E-03 1.00000E-03
 -1       323 3.50000E-03 9.66667E-03 3.25261E-19
 -1       324 3.50000E-03 9.66667E-03 1.00000E-03
 -1       325 3.33333E-03 9.66667E-03 0.00000E+00
 -1       326 3.33333E-03 9.66667E-03 1.00000E-03
 -1       327 3.16667E-03 9.66667E-03 3.25261E-19
 -1       328 3.16667E-03 9.66667E-03 1.00000E-03
 -1       329 3.00000E-03 9.66667E-03 0.00000E+00
 -1       330 3.00000E-03 9.66667E-03 1.00000E-03
 -1       331 2.83333E-03 9.66667E-03 3.25261E-19
 -1       332 2.83333E-03 9.66667E-03 1.00000E-03
 -1       333 2.66667E-03 9.66667E-03 0.00000E+00
 -1       334 2.66667E-03 9.66667E-03 1.00000E-03
 -1       335 2.50000E-03 9.66667E-03 3.25261E-19
 -1       336 2.50000E-03 9.66667E-03 1.00000E-03
 -1       337 2.33333E-03 9.66667E-03 0.00000E+00
 -1       338 2.33333E-03 9.66667E-03 1.00000E-03
 -1       339 2.16667E-03 9.66667E-03 2.16840E-19
 -1       340 2.16667E-03 9.66667E-03 1.00000E-03
 -1       341 2.00000E-03 9.66667E-03 0.00000E+00
 -1       342 2.00000E-03 9.66667E-03 1.00000E-03
 -1       343 1.83333E-03 9.66667E-03 2.16840E-19
 -1       344 1.83333E-03 9.66667E-03 1.00000E-03
 -1       345 1.66667E-03 9.66667E-03 0.00000E+00
 -1       346 1.66667E-03 9.66667E-03 1.00000E-03
 -1       347 1.50000E-03 9.66667E-03 1.08420E-19
 -1       348 1.50000E-03 9.66667E-03 1.00000E-03
 -1       349 1.33333E-03 9.66667E-03 0.00000E+00
 -1       350 1.33333E-03 9.66667E-03 1.00000E-03
 -1       351 1.16667E-03 9.66667E-03 3.25261E-19
 -1       352 1.16667E-03 9.66667E-03 1.00000E-03
 -1       353 1.00000E-03 9.66667E-03 0.00000E+00
 -1       354 1.00000E-03 9.66667E-03 1.00000E-03
 -1       355 8.33333E-04 9.66667E-03 1.08420E-19
 -1       356 8.33333E-04 9.66667E-03 1.00000E-03
 -1       357 6.66667E-04 9.66667E-03 0.00000E+00
 -1       358 6.66667E-04 9.66667E-03 1.00000E-03
 -1       359 5.00000E-04 9.66667E-03 2.16840E-19
 -1       360 5.00000E-04 9.66667E-03 1.00000E-03
 -1       361 3.33333E-04 9.66667E-03 0.00000E+00
 -1       362 3.33333E-04 9.66667E-03 1.00000E-03
 -1       363 1.66667E-04 9.66667E-03 1.08420E-19
 -1       364 1.66667E-04 9.66667E-03 1.00000E-03
 -1       365 0.00000E+00 9.66667E-03 0.00000E+00
 -1       366 0.00000E+00 9.66667E-03 1.00000E-03
 -1       367 1.00000E-02 9.50000E-03 0.00000E+00
 -1       368 1.00000E-02 9.50000E-03 1.00000E-03
 -1       369 9.83333E-03 9.50000E-03 1.08420E-19
 -1       370 9.83333E-03 9.50000E-03 1.00000E-03
 -1       371 9.66667E-03 9.50000E-03 1.08420E-19
 -1       372 9.66667E-03 9.50000E-03 1.00000E-03
 -1       373 9.50000E-03 9.50000E-03 0.00000E+00
 -1       374 9.50000E-03 9.50000E-03 1.00000E-03
 -1       375 9.33333E-03 9.50000E-03 0.00000E+00
 -1       376 9.33333E-03 9.50000E-03 1.00000E-03
 -1       377 9.16667E-03 9.50000E-03-1.08420E-19
 -1       378 9.16667E-03 9.50000E-03 1.00000E-03
 -1       379 9.00000E-03 9.50000E-03 0.00000E+00
 -1       380 9.00000E-03 9.50000E-03 1.00000E-03
 -1       381 8.83333E-03 9.50000E-03 0.00000E+00
 -1       382 8.83333E-03 9.50000E-03 1.00000E-03
 -1       383 8.66667E-03 9.50000E-03-1.08420E-19
 -1       384 8.66667E-03 9.50000E-03 1.00000E-03
 -1       385 8.50000E-03 9.50000E-03 0.00000E+00
 -1       386 8.50000E-03 9.50000E-03 1.00000E-03
 -1       387 8.33333E-03 9.50000E-03 2.16840E-19
 -1       388 8.33333E-03 9.50000E-03 1.00000E-03
 -1       389 8.16667E-03 9.50000E-03 0.00000E+00
 -1       390 8.16667E-03 9.50000E-03 1.00000E-03
 -1       391 8.00000E-03 9.50000E-03 1.08420E-19
 -1       392 8.00000E-03 9.50000E-03 1.00000E-03
 -1       393 7.83333E-03 9.50000E-03 1.08420E-19
 -1       394 7.83333E-03 9.50000E-03 1.00000E-03
 -1       395 7.66667E-03 9.50000E-03 0.00000E+00
 -1       396 7.66667E-03 9.50000E-03 1.00000E-03
 -1       397 7.50000E-03 9.50000E-03 0.00000E+00
 -1       398 7.50000E-03 9.50000E-03 1.00000E-03
 -1       399 7.33333E-03 9.50000E-03 0.00000E+00
 -1       400 7.33333E-03 9.50000E-03 1.00000E-03
 -1       401 7.16667E-03 9.50000E-03 0.00000E+00
 -1       402 7.16667E-03 9.50000E-03 1.00000E-03
 -1       403 7.00000E-03 9.50000E-03 0.00000E+00
 -1       404 7.00000E-03 9.50000E-03 1.00000E-03
 -1       405 6.83333E-03 9.50000E-03 0.00000E+00
 -1       406 6.83333E-03 9.50000E-03 1.00000E-03
 -1       407 6.66667E-03 9.50000E-03-1.08420E-19
 -1       408 6.66667E-03 9.50000E-03 1.00000E-03
 -1       409 6.50000E-03 9.50000E-03 0.00000E+00
 -1       410 6.50000E-03 9.50000E-03 1.00000E-03
 -1       411 6.33333E-03 9.50000E-03 0.00000E+00
 -1       412 6.33333E-03 9.50000E-03 1.00000E-03
 -1       413 6.16667E-03 9.50000E-03 0.00000E+00
 -1       414 6.16667E-03 9.50000E-03 1.00000E-03
 -1       415 6.00000E-03 9.50000E-03 0.00000E+00
 -1       416 6.00000E-03 9.50000E-03 1.00000E-03
 -1       417 5.83333E-03 9.50000E-03-2.16840E-19
 -1       418 5.83333E-03 9.50000E-03 1.00000E-03
 -1       419 5.66667E-03 9.50000E-03 0.00000E+00
 -1       420 5.66667E-03 9.50000E-03 1.00000E-03
 -1       421 5.50000E-03 9.50000E-03 2.16840E-19
 -1       422 5.50000E-03 9.50000E-03 1.00000E-03
 -1       423 5.33333E-03 9.50000E-03-1.08420E-19
 -1       424 5.33333E-03 9.50000E-03 1.00000E-03
 -1       425 5.16667E-03 9.50000E-03-1.08420E-19
 -1       426 5.16667E-03 9.50000E-03 1.00000E-03
 -1       427 5.00000E-03 9.50000E-03 2.16840E-19
 -1       428 5.00000E-03 9.50000E-03 1.00000E-03
 -1       429 4.83333E-03 9.50000E-03 0.00000E+00
 -1       430 4.83333E-03 9.50000E-03 1.00000E-03
 -1       431 4.66667E-03 9.50000E-03 0.00000E+00
 -1       432 4.66667E-03 9.50000E-03 1.00000E-03
 -1       433 4.50000E-03 9.50000E-03 1.08420E-19
 -1       434 4.50000E-03 9.50000E-03 1.00000E-03
 -1       435 4.33333E-03 9.50000E-03 1.08420E-19
 -1       436 4.33333E-03 9.50000E-03 1.00000E-03
 -1       437 4.16667E-03 9.50000E-03 1.08420E-19
 -1       438 4.16667E-03 9.50000E-03 1.00000E-03
 -1       439 4.00000E-03 9.50000E-03 0.00000E+00
 -1       440 4.00000E-03 9.50000E-03 1.00000E-03
 -1       441 3.83333E-03 9.50000E-03 1.08420E-19
 -1       442 3.83333E-03 9.50000E-03 1.00000E-03
 -1       443 3.66667E-03 9.50000E-03 1.08420E-19
 -1       444 3.66667E-03 9.50000E-03 1.00000E-03
 -1       445 3.50000E-03 9.50000E-03 1.08420E-19
 -1       446 3.50000E-03 9.50000E-03 1.00000E-03
 -1       447 3.33333E-03 9.50000E-03 0.00000E+00
 -1       448 3.33333E-03 9.50000E-03 1.00000E-03
 -1       449 3.16667E-03 9.50000E-03 0.00000E+00
 -1       450 3.16667E-03 9.50000E-03 1.00000E-03
 -1       451 3.00000E-03 9.50000E-03 1.08420E-19
 -1       452 3.00000E-03 9.50000E-03 1.00000E-03
 -1       453 2.83333E-03 9.50000E-03 1.08420E-19
 -1       454 2.83333E-03 9.50000E-03 1.00000E-03
 -1       455 2.66667E-03 9.50000E-03 1.08420E-19
 -1       456 2.66667E-03 9.50000E-03 1.00000E-03
 -1       457 2.50000E-03 9.50000E-03 0.00000E+00
 -1       458 2.50000E-03 9.50000E-03 1.00000E-03
 -1       459 2.33333E-03 9.50000E-03 1.08420E-19
 -1       460 2.33333E-03 9.50000E-03 1.00000E-03
 -1       461 2.16667E-03 9.50000E-03 2.16840E-19
 -1       462 2.16667E-03 9.50000E-03 1.00000E-03
 -1       463 2.00000E-03 9.50000E-03 0.00000E+00
 -1       464 2.00000E-03 9.50000E-03 1.00000E-03
 -1       465 1.83333E-03 9.50000E-03 1.08420E-19
 -1       466 1.83333E-03 9.50000E-03 1.00000E-03
 -1       467 1.66667E-03 9.50000E-03 0.00000E+00
 -1       468 1.66667E-03 9.50000E-03 1.00000E-03
 -1       469 1.50000E-03 9.50000E-03 1.08420E-19
 -1       470 1.50000E-03 9.50000E-03 1.00000E-03
 -1       471 1.33333E-03 9.50000E-03 1.08420E-19
 -1       472 1.33333E-03 9.50000E-03 1.00000E-03
 -1       473 1.16667E-03 9.50000E-03 0.00000E+00
 -1       474 1.16667E-03 9.50000E-03 1.00000E-03
 -1       475 1.00000E-03 9.50000E-03 0.00000E+00
 -1       476 1.00000E-03 9.50000E-03 1.00000E-03
 -1       477 8.33333E-04 9.50000E-03 1.08420E-19
 -1       478 8.33333E-04 9.50000E-03 1.00000E-03
 -1       479 6.66667E-04 9.50000E-03 0.00000E+00
 -1       480 6.66667E-04 9.50000E-03 1.00000E-03
 -1       481 5.00000E-04 9.50000E-03 0.00000E+00
 -1       482 5.00000E-04 9.50000E-03 1.00000E-03
 -1       483 3.33333E-04 9.50000E-03 0.00000E+00
 -1       484 3.33333E-04 9.50000E-03 1.00000E-03
 -1       485 1.66667E-04 9.50000E-03 0.00000E+00
 -1       486 1.66667E-04 9.50000E-03 1.00000E-03
 -1       487 0.00000E+00 9.50000E-03 0.00000E+00
 -1       488 0.00000E+00 9.50000E-03 1.00000E-03
 -1       489 1.00000E-02 9.33333E-03 0.00000E+00
 -1       490 1.00000E-02 9.33333E-03 1.00000E-03
 -1       491 9.83333E-03 9.33333E-03 0.00000E+00
 -1       492 9.83333E-03 9.33333E-03 1.00000E-03
 -1       493 9.66667E-03 9.33333E-03 0.00000E+00
 -1       494 9.66667E-03 9.33333E-03 1.00000E-03
 -1       495 9.50000E-03 9.33333E-03 0.00000E+00
 -1       496 9.50000E-03 9.33333E-03 1.00000E-03
 -1       497 9.33333E-03 9.33333E-03 0.00000E+00
 -1       498 9.33333E-03 9.33333E-03 1.00000E-03
 -1       499 9.16667E-03 9.33333E-03 0.00000E+00
 -1       500 9.16667E-03 9.33333E-03 1.00000E-03
 -1       501 9.00000E-03 9.33333E-03 0.00000E+00
 -1       502 9.00000E-03 9.33333E-03 1.00000E-03
 -1       503 8.83333E-03 9.33333E-03 0.00000E+00
 -1       504 8.83333E-03 9.33333E-03 1.00000E-03
 -1       505 8.66667E-03 9.33333E-03-1.08420E-19
 -1       506 8.66667E-03 9.33333E-03 1.00000E-03
 -1       507 8.50000E-03 9.33333E-03 1.08420E-19
 -1       508 8.50000E-03 9.33333E-03 1.00000E-03
 -1       509 8.33333E-03 9.33333E-03 2.16840E-19
 -1       510 8.33333E-03 9.33333E-03 1.00000E-03
 -1       511 8.16667E-03 9.33333E-03 0.00000E+00
 -1       512 8.16667E-03 9.33333E-03 1.00000E-03
 -1       513 8.00000E-03 9.33333E-03 0.00000E+00
 -1       514 8.00000E-03 9.33333E-03 1.00000E-03
 -1       515 7.83333E-03 9.33333E-03 0.00000E+00
 -1       516 7.83333E-03 9.33333E-03 1.00000E-03
 -1       517 7.66667E-03 9.33333E-03 0.00000E+00
 -1       518 7.66667E-03 9.33333E-03 1.00000E-03
 -1       519 7.50000E-03 9.33333E-03 1.08420E-19
 -1       520 7.50000E-03 9.33333E-03 1.00000E-03
 -1       521 7.33333E-03 9.33333E-03 0.00000E+00
 -1       522 7.33333E-03 9.33333E-03 1.00000E-03
 -1       523 7.16667E-03 9.33333E-03 0.00000E+00
 -1       524 7.16667E-03 9.33333E-03 1.00000E-03
 -1       525 7.00000E-03 9.33333E-03 0.00000E+00
 -1       526 7.00000E-03 9.33333E-03 1.00000E-03
 -1       527 6.83333E-03 9.33333E-03 0.00000E+00
 -1       528 6.83333E-03 9.33333E-03 1.00000E-03
 -1       529 6.66667E-03 9.33333E-03-1.08420E-19
 -1       530 6.66667E-03 9.33333E-03 1.00000E-03
 -1       531 6.50000E-03 9.33333E-03 1.08420E-19
 -1       532 6.50000E-03 9.33333E-03 1.00000E-03
 -1       533 6.33333E-03 9.33333E-03 1.08420E-19
 -1       534 6.33333E-03 9.33333E-03 1.00000E-03
 -1       535 6.16667E-03 9.33333E-03 0.00000E+00
 -1       536 6.16667E-03 9.33333E-03 1.00000E-03
 -1       537 6.00000E-03 9.33333E-03 0.00000E+00
 -1       538 6.00000E-03 9.33333E-03 1.00000E-03
 -1       539 5.83333E-03 9.33333E-03-1.08420E-19
 -1       540 5.83333E-03 9.33333E-03 1.00000E-03
 -1       541 5.66667E-03 9.33333E-03 0.00000E+00
 -1       542 5.66667E-03 9.33333E-03 1.00000E-03
 -1       543 5.50000E-03 9.33333E-03 1.08420E-19
 -1       544 5.50000E-03 9.33333E-03 1.00000E-03
 -1       545 5.33333E-03 9.33333E-03 0.00000E+00
 -1       546 5.33333E-03 9.33333E-03 1.00000E-03
 -1       547 5.16667E-03 9.33333E-03 1.08420E-19
 -1       548 5.16667E-03 9.33333E-03 1.00000E-03
 -1       549 5.00000E-03 9.33333E-03 3.25261E-19
 -1       550 5.00000E-03 9.33333E-03 1.00000E-03
 -1       551 4.83333E-03 9.33333E-03 1.08420E-19
 -1       552 4.83333E-03 9.33333E-03 1.00000E-03
 -1       553 4.66667E-03 9.33333E-03 2.16840E-19
 -1       554 4.66667E-03 9.33333E-03 1.00000E-03
 -1       555 4.50000E-03 9.33333E-03 2.16840E-19
 -1       556 4.50000E-03 9.33333E-03 1.00000E-03
 -1       557 4.33333E-03 9.33333E-03 1.08420E-19
 -1       558 4.33333E-03 9.33333E-03 1.00000E-03
 -1       559 4.16667E-03 9.33333E-03 0.00000E+00
 -1       560 4.16667E-03 9.33333E-03 1.00000E-03
 -1       561 4.00000E-03 9.33333E-03 0.00000E+00
 -1       562 4.00000E-03 9.33333E-03 1.00000E-03
 -1       563 3.83333E-03 9.33333E-03 0.00000E+00
 -1       564 3.83333E-03 9.33333E-03 1.00000E-03
 -1       565 3.66667E-03 9.33333E-03 0.00000E+00
 -1       566 3.66667E-03 9.33333E-03 1.00000E-03
 -1       567 3.50000E-03 9.33333E-03 0.00000E+00
 -1       568 3.50000E-03 9.33333E-03 1.00000E-03
 -1       569 3.33333E-03 9.33333E-03 0.00000E+00
 -1       570 3.33333E-03 9.33333E-03 1.00000E-03
 -1       571 3.16667E-03 9.33333E-03 1.08420E-19
 -1       572 3.16667E-03 9.33333E-03 1.00000E-03
 -1       573 3.00000E-03 9.33333E-03 0.00000E+00
 -1       574 3.00000E-03 9.33333E-03 1.00000E-03
 -1       575 2.83333E-03 9.33333E-03 0.00000E+00
 -1       576 2.83333E-03 9.33333E-03 1.00000E-03
 -1       577 2.66667E-03 9.33333E-03 1.08420E-19
 -1       578 2.66667E-03 9.33333E-03 1.00000E-03
 -1       579 2.50000E-03 9.33333E-03 1.08420E-19
 -1       580 2.50000E-03 9.33333E-03 1.00000E-03