# vtk DataFile Version 3.0

ASCII
DATASET UNSTRUCTURED_GRID

POINTS 2656 double
	 6.12323000E-17	 1.00000000E+00	 0.00000000E+00
	 3.82683000E-01	 9.23880000E-01	 0.00000000E+00
	 3.82683000E-01	 9.23880000E-01	 5.00000000E+00
	 6.12323000E-17	 1.00000000E+00	 5.00000000E+00
	 3.06162000E-17	 5.00000000E-01	 0.00000000E+00
	 1.91342000E-01	 4.61940000E-01	 0.00000000E+00
	 1.91342000E-01	 4.61940000E-01	 5.00000000E+00
	 3.06162000E-17	 5.00000000E-01	 5.00000000E+00
	 1.95090000E-01	 9.80785000E-01	 0.00000000E+00
	 3.82683000E-01	 9.23880000E-01	 2.50000000E+00
	 1.95090000E-01	 9.80785000E-01	 5.00000000E+00
	 6.12323000E-17	 1.00000000E+00	 2.50000000E+00
	 4.59243000E-17	 7.50000000E-01	 0.00000000E+00
	 2.87013000E-01	 6.92910000E-01	 0.00000000E+00
	 2.87013000E-01	 6.92910000E-01	 5.00000000E+00
	 4.59243000E-17	 7.50000000E-01	 5.00000000E+00
	 9.75452000E-02	 4.90393000E-01	 0.00000000E+00
	 1.91342000E-01	 4.61940000E-01	 2.50000000E+00
	 9.75452000E-02	 4.90393000E-01	 5.00000000E+00
	 3.06162000E-17	 5.00000000E-01	 2.50000000E+00
	 3.82683000E-01	 9.23880000E-01	 1.00000000E+01
	 6.12323000E-17	 1.00000000E+00	 1.00000000E+01
	 1.91342000E-01	 4.61940000E-01	 1.00000000E+01
	 3.06162000E-17	 5.00000000E-01	 1.00000000E+01
	 3.82683000E-01	 9.23880000E-01	 7.50000000E+00
	 1.95090000E-01	 9.80785000E-01	 1.00000000E+01
	 6.12323000E-17	 1.00000000E+00	 7.50000000E+00
	 2.87013000E-01	 6.92910000E-01	 1.00000000E+01
	 4.59243000E-17	 7.50000000E-01	 1.00000000E+01
	 1.91342000E-01	 4.61940000E-01	 7.50000000E+00
	 9.75452000E-02	 4.90393000E-01	 1.00000000E+01
	 3.06162000E-17	 5.00000000E-01	 7.50000000E+00
	 3.82683000E-01	 9.23880000E-01	 1.50000000E+01
	 6.12323000E-17	 1.00000000E+00	 1.50000000E+01
	 1.91342000E-01	 4.61940000E-01	 1.50000000E+01
	 3.06162000E-17	 5.00000000E-01	 1.50000000E+01
	 3.82683000E-01	 9.23880000E-01	 1.25000000E+01
	 1.95090000E-01	 9.80785000E-01	 1.50000000E+01
	 6.12323000E-17	 1.00000000E+00	 1.25000000E+01
	 2.87013000E-01	 6.92910000E-01	 1.50000000E+01
	 4.59243000E-17	 7.50000000E-01	 1.50000000E+01
	 1.91342000E-01	 4.61940000E-01	 1.25000000E+01
	 9.75452000E-02	 4.90393000E-01	 1.50000000E+01
	 3.06162000E-17	 5.00000000E-01	 1.25000000E+01
	 3.82683000E-01	 9.23880000E-01	 2.00000000E+01
	 6.12323000E-17	 1.00000000E+00	 2.00000000E+01
	 1.91342000E-01	 4.61940000E-01	 2.00000000E+01
	 3.06162000E-17	 5.00000000E-01	 2.00000000E+01
	 3.82683000E-01	 9.23880000E-01	 1.75000000E+01
	 1.95090000E-01	 9.80785000E-01	 2.00000000E+01
	 6.12323000E-17	 1.00000000E+00	 1.75000000E+01
	 2.87013000E-01	 6.92910000E-01	 2.00000000E+01
	 4.59243000E-17	 7.50000000E-01	 2.00000000E+01
	 1.91342000E-01	 4.61940000E-01	 1.75000000E+01
	 9.75452000E-02	 4.90393000E-01	 2.00000000E+01
	 3.06162000E-17	 5.00000000E-01	 1.75000000E+01
	 3.82683000E-01	 9.23880000E-01	 2.50000000E+01
	 6.12323000E-17	 1.00000000E+00	 2.50000000E+01
	 1.91342000E-01	 4.61940000E-01	 2.50000000E+01
	 3.06162000E-17	 5.00000000E-01	 2.50000000E+01
	 3.82683000E-01	 9.23880000E-01	 2.25000000E+01
	 1.95090000E-01	 9.80785000E-01	 2.50000000E+01
	 6.12323000E-17	 1.00000000E+00	 2.25000000E+01
	 2.87013000E-01	 6.92910000E-01	 2.50000000E+01
	 4.59243000E-17	 7.50000000E-01	 2.50000000E+01
	 1.91342000E-01	 4.61940000E-01	 2.25000000E+01
	 9.75452000E-02	 4.90393000E-01	 2.50000000E+01
	 3.06162000E-17	 5.00000000E-01	 2.25000000E+01
	 3.82683000E-01	 9.23880000E-01	 3.00000000E+01
	 6.12323000E-17	 1.00000000E+00	 3.00000000E+01
	 1.91342000E-01	 4.61940000E-01	 3.00000000E+01
	 3.06162000E-17	 5.00000000E-01	 3.00000000E+01
	 3.82683000E-01	 9.23880000E-01	 2.75000000E+01
	 1.95090000E-01	 9.80785000E-01	 3.00000000E+01
	 6.12323000E-17	 1.00000000E+00	 2.75000000E+01
	 2.87013000E-01	 6.92910000E-01	 3.00000000E+01
	 4.59243000E-17	 7.50000000E-01	 3.00000000E+01
	 1.91342000E-01	 4.61940000E-01	 2.75000000E+01
	 9.75452000E-02	 4.90393000E-01	 3.00000000E+01
	 3.06162000E-17	 5.00000000E-01	 2.75000000E+01
	 3.82683000E-01	 9.23880000E-01	 3.50000000E+01
	 6.12323000E-17	 1.00000000E+00	 3.50000000E+01
	 1.91342000E-01	 4.61940000E-01	 3.50000000E+01
	 3.06162000E-17	 5.00000000E-01	 3.50000000E+01
	 3.82683000E-01	 9.23880000E-01	 3.25000000E+01
	 1.95090000E-01	 9.80785000E-01	 3.50000000E+01
	 6.12323000E-17	 1.00000000E+00	 3.25000000E+01
	 2.87013000E-01	 6.92910000E-01	 3.50000000E+01
	 4.59243000E-17	 7.50000000E-01	 3.50000000E+01
	 1.91342000E-01	 4.61940000E-01	 3.25000000E+01
	 9.75452000E-02	 4.90393000E-01	 3.50000000E+01
	 3.06162000E-17	 5.00000000E-01	 3.25000000E+01
	 3.82683000E-01	 9.23880000E-01	 4.00000000E+01
	 6.12323000E-17	 1.00000000E+00	 4.00000000E+01
	 1.91342000E-01	 4.61940000E-01	 4.00000000E+01
	 3.06162000E-17	 5.00000000E-01	 4.00000000E+01
	 3.82683000E-01	 9.23880000E-01	 3.75000000E+01
	 1.95090000E-01	 9.80785000E-01	 4.00000000E+01
	 6.12323000E-17	 1.00000000E+00	 3.75000000E+01
	 2.87013000E-01	 6.92910000E-01	 4.00000000E+01
	 4.59243000E-17	 7.50000000E-01	 4.00000000E+01
	 1.91342000E-01	 4.61940000E-01	 3.75000000E+01
	 9.75452000E-02	 4.90393000E-01	 4.00000000E+01
	 3.06162000E-17	 5.00000000E-01	 3.75000000E+01
	 3.82683000E-01	 9.23880000E-01	 4.50000000E+01
	 6.12323000E-17	 1.00000000E+00	 4.50000000E+01
	 1.91342000E-01	 4.61940000E-01	 4.50000000E+01
	 3.06162000E-17	 5.00000000E-01	 4.50000000E+01
	 3.82683000E-01	 9.23880000E-01	 4.25000000E+01
	 1.95090000E-01	 9.80785000E-01	 4.50000000E+01
	 6.12323000E-17	 1.00000000E+00	 4.25000000E+01
	 2.87013000E-01	 6.92910000E-01	 4.50000000E+01
	 4.59243000E-17	 7.50000000E-01	 4.50000000E+01
	 1.91342000E-01	 4.61940000E-01	 4.25000000E+01
	 9.75452000E-02	 4.90393000E-01	 4.50000000E+01
	 3.06162000E-17	 5.00000000E-01	 4.25000000E+01
	 3.82683000E-01	 9.23880000E-01	 5.00000000E+01
	 6.12323000E-17	 1.00000000E+00	 5.00000000E+01
	 1.91342000E-01	 4.61940000E-01	 5.00000000E+01
	 3.06162000E-17	 5.00000000E-01	 5.00000000E+01
	 3.82683000E-01	 9.23880000E-01	 4.75000000E+01
	 1.95090000E-01	 9.80785000E-01	 5.00000000E+01
	 6.12323000E-17	 1.00000000E+00	 4.75000000E+01
	 2.87013000E-01	 6.92910000E-01	 5.00000000E+01
	 4.59243000E-17	 7.50000000E-01	 5.00000000E+01
	 1.91342000E-01	 4.61940000E-01	 4.75000000E+01
	 9.75452000E-02	 4.90393000E-01	 5.00000000E+01
	 3.06162000E-17	 5.00000000E-01	 4.75000000E+01
	 7.07107000E-01	 7.07107000E-01	 0.00000000E+00
	 7.07107000E-01	 7.07107000E-01	 5.00000000E+00
	 3.53553000E-01	 3.53553000E-01	 0.00000000E+00
	 3.53553000E-01	 3.53553000E-01	 5.00000000E+00
	 5.55570000E-01	 8.31470000E-01	 0.00000000E+00
	 7.07107000E-01	 7.07107000E-01	 2.50000000E+00
	 5.55570000E-01	 8.31470000E-01	 5.00000000E+00
	 5.30330000E-01	 5.30330000E-01	-7.10543000E-15
	 5.30330000E-01	 5.30330000E-01	 5.00000000E+00
	 2.77785000E-01	 4.15735000E-01	 0.00000000E+00
	 3.53553000E-01	 3.53553000E-01	 2.50000000E+00
	 2.77785000E-01	 4.15735000E-01	 5.00000000E+00
	 7.07107000E-01	 7.07107000E-01	 1.00000000E+01
	 3.53553000E-01	 3.53553000E-01	 1.00000000E+01
	 7.07107000E-01	 7.07107000E-01	 7.50000000E+00
	 5.55570000E-01	 8.31470000E-01	 1.00000000E+01
	 5.30330000E-01	 5.30330000E-01	 1.00000000E+01
	 3.53553000E-01	 3.53553000E-01	 7.50000000E+00
	 2.77785000E-01	 4.15735000E-01	 1.00000000E+01
	 7.07107000E-01	 7.07107000E-01	 1.50000000E+01
	 3.53553000E-01	 3.53553000E-01	 1.50000000E+01
	 7.07107000E-01	 7.07107000E-01	 1.25000000E+01
	 5.55570000E-01	 8.31470000E-01	 1.50000000E+01
	 5.30330000E-01	 5.30330000E-01	 1.50000000E+01
	 3.53553000E-01	 3.53553000E-01	 1.25000000E+01
	 2.77785000E-01	 4.15735000E-01	 1.50000000E+01
	 7.07107000E-01	 7.07107000E-01	 2.00000000E+01
	 3.53553000E-01	 3.53553000E-01	 2.00000000E+01
	 7.07107000E-01	 7.07107000E-01	 1.75000000E+01
	 5.55570000E-01	 8.31470000E-01	 2.00000000E+01
	 5.30330000E-01	 5.30330000E-01	 2.00000000E+01
	 3.53553000E-01	 3.53553000E-01	 1.75000000E+01
	 2.77785000E-01	 4.15735000E-01	 2.00000000E+01
	 7.07107000E-01	 7.07107000E-01	 2.50000000E+01
	 3.53553000E-01	 3.53553000E-01	 2.50000000E+01
	 7.07107000E-01	 7.07107000E-01	 2.25000000E+01
	 5.55570000E-01	 8.31470000E-01	 2.50000000E+01
	 5.30330000E-01	 5.30330000E-01	 2.50000000E+01
	 3.53553000E-01	 3.53553000E-01	 2.25000000E+01
	 2.77785000E-01	 4.15735000E-01	 2.50000000E+01
	 7.07107000E-01	 7.07107000E-01	 3.00000000E+01
	 3.53553000E-01	 3.53553000E-01	 3.00000000E+01
	 7.07107000E-01	 7.07107000E-01	 2.75000000E+01
	 5.55570000E-01	 8.31470000E-01	 3.00000000E+01
	 5.30330000E-01	 5.30330000E-01	 3.00000000E+01
	 3.53553000E-01	 3.53553000E-01	 2.75000000E+01
	 2.77785000E-01	 4.15735000E-01	 3.00000000E+01
	 7.07107000E-01	 7.07107000E-01	 3.50000000E+01
	 3.53553000E-01	 3.53553000E-01	 3.50000000E+01
	 7.07107000E-01	 7.07107000E-01	 3.25000000E+01
	 5.55570000E-01	 8.31470000E-01	 3.50000000E+01
	 5.30330000E-01	 5.30330000E-01	 3.50000000E+01
	 3.53553000E-01	 3.53553000E-01	 3.25000000E+01
	 2.77785000E-01	 4.15735000E-01	 3.50000000E+01
	 7.07107000E-01	 7.07107000E-01	 4.00000000E+01
	 3.53553000E-01	 3.53553000E-01	 4.00000000E+01
	 7.07107000E-01	 7.07107000E-01	 3.75000000E+01
	 5.55570000E-01	 8.31470000E-01	 4.00000000E+01
	 5.30330000E-01	 5.30330000E-01	 4.00000000E+01
	 3.53553000E-01	 3.53553000E-01	 3.75000000E+01
	 2.77785000E-01	 4.15735000E-01	 4.00000000E+01
	 7.07107000E-01	 7.07107000E-01	 4.50000000E+01
	 3.53553000E-01	 3.53553000E-01	 4.50000000E+01
	 7.07107000E-01	 7.07107000E-01	 4.25000000E+01
	 5.55570000E-01	 8.31470000E-01	 4.50000000E+01
	 5.30330000E-01	 5.30330000E-01	 4.50000000E+01
	 3.53553000E-01	 3.53553000E-01	 4.25000000E+01
	 2.77785000E-01	 4.15735000E-01	 4.50000000E+01
	 7.07107000E-01	 7.07107000E-01	 5.00000000E+01
	 3.53553000E-01	 3.53553000E-01	 5.00000000E+01
	 7.07107000E-01	 7.07107000E-01	 4.75000000E+01
	 5.55570000E-01	 8.31470000E-01	 5.00000000E+01
	 5.30330000E-01	 5.30330000E-01	 5.00000000E+01
	 3.53553000E-01	 3.53553000E-01	 4.75000000E+01
[...]
POINT_DATA 2656
FIELD ENER 1
	ENER 1 2656 double
		 4.24951000E-05
		 7.79347000E-06
		 1.50639000E-05
		 1.76407000E-05
		 9.80023000E-05
		 4.95905000E-05
		 8.14911000E-05
		 7.86372000E-05
		 1.07434000E-05
		 1.90932000E-05
		 1.63296000E-05
		 1.86267000E-05
		 4.11095000E-05
		 1.50663000E-05
		 2.77791000E-05
		 3.09930000E-05
		 8.17131000E-05
		 7.76805000E-05
		 8.26195000E-05
		 8.45584000E-05
		 1.66641000E-05
		 1.62712000E-05
		 7.89133000E-05
		 8.15345000E-05
		 1.64513000E-05
		 1.59149000E-05
		 1.70620000E-05
		 2.93120000E-05
		 2.98525000E-05
		 8.01858000E-05
		 8.03486000E-05
		 7.70642000E-05
		 1.65257000E-05
		 1.66272000E-05
		 7.97345000E-05
		 7.93627000E-05
		 1.66445000E-05
		 1.65724000E-05
		 1.65283000E-05
		 2.92401000E-05
		 2.92912000E-05
		 7.89367000E-05
		 7.96812000E-05
		 7.95266000E-05
		 1.65866000E-05
		 1.65602000E-05
		 7.93276000E-05
		 7.94757000E-05
		 1.65752000E-05
		 1.65180000E-05
		 1.66097000E-05
		 2.91525000E-05
		 2.91696000E-05
		 7.94337000E-05
		 7.94293000E-05
		 7.92382000E-05
		 1.65609000E-05
		 1.65681000E-05
		 7.93036000E-05
		 7.92702000E-05
		 1.65729000E-05
		 1.65446000E-05
		 1.65639000E-05
		 2.91047000E-05
		 2.91044000E-05
		 7.93289000E-05
		 7.93583000E-05
		 7.93767000E-05
		 1.66552000E-05
		 1.66532000E-05
		 7.90713000E-05
		 7.90811000E-05
		 1.65997000E-05
		 1.66012000E-05
		 1.66021000E-05
		 2.89134000E-05
		 2.89141000E-05
		 7.94618000E-05
		 7.90418000E-05
		 7.94482000E-05
		 1.60836000E-05
		 1.60841000E-05
		 7.68246000E-05
		 7.68220000E-05
		 1.64546000E-05
		 1.61408000E-05
		 1.64539000E-05
		 2.78075000E-05
		 2.78073000E-05
		 7.95532000E-05
		 7.71724000E-05
		 7.95568000E-05
		 1.64406000E-05
		 1.64404000E-05
		 8.18250000E-05
		 8.18257000E-05
		 1.73879000E-05
		 1.60274000E-05
		 1.73880000E-05
		 3.13852000E-05
		 3.13852000E-05
		 8.22880000E-05
		 8.01580000E-05
		 8.22871000E-05
		 4.59054000E-05
		 4.59055000E-05
		 2.66021000E-04
		 2.66021000E-04
		 1.90552000E-05
		 4.63829000E-05
		 1.90552000E-05
		 2.00835000E-04
		 2.00835000E-04
		 8.07281000E-05
		 2.61611000E-04
		 8.07284000E-05
		 6.56496000E-03
		 6.56496000E-03
		 3.52174000E-03
		 3.52174000E-03
		 9.58126000E-05
		 6.58030000E-03
		 9.58126000E-05
		 1.91481000E-03
		 1.91481000E-03
		 1.31868000E-04
		 3.58739000E-03
		 1.31868000E-04
		 1.80951000E-05
		 1.74238000E-05
		 1.89617000E-05
		 7.24054000E-05
		 1.66976000E-05
		 1.62584000E-05
		 1.86604000E-05
		 7.92026000E-06
		 2.46263000E-05
		 2.66855000E-05
		 8.69787000E-05
		 7.31414000E-05
		 1.74686000E-05
		 7.88565000E-05
		 1.54603000E-05
		 1.71374000E-05
		 2.89576000E-05
		 7.96249000E-05
		 7.94546000E-05
		 1.65331000E-05
		 7.93553000E-05
		 1.66577000E-05
		 1.65815000E-05
		 2.91260000E-05
		 7.93596000E-05
		 7.93545000E-05
		 1.66211000E-05
		 7.93692000E-05
		 1.65314000E-05
		 1.65690000E-05
		 2.91519000E-05
		 7.93610000E-05
		 7.94295000E-05
		 1.65578000E-05
		 7.92835000E-05
		 1.65780000E-05
		 1.65400000E-05
		 2.91003000E-05
		 7.93542000E-05
		 7.93450000E-05
		 1.66571000E-05
		 7.90754000E-05
		 1.65973000E-05
		 1.66040000E-05
		 2.89140000E-05
		 7.94558000E-05
		 7.90433000E-05
		 1.60833000E-05
		 7.68233000E-05
		 1.64550000E-05
		 1.61403000E-05
		 2.78072000E-05
		 7.95549000E-05
		 7.71717000E-05
		 1.64407000E-05
		 8.18253000E-05
		 1.73877000E-05
		 1.60276000E-05
		 3.13852000E-05
		 8.22876000E-05
		 8.01581000E-05
		 4.59054000E-05
		 2.66021000E-04
		 1.90553000E-05
		 4.63828000E-05
		 2.00835000E-04
		 8.07283000E-05
		 2.61611000E-04
		 6.56496000E-03
		 3.52174000E-03
		 9.58126000E-05
		 6.58030000E-03
		 1.91481000E-03
		 1.31868000E-04
		 3.58739000E-03
		 7.79347000E-06
		 1.50639000E-05
		 4.95905000E-05
		 8.14911000E-05
		 1.66976000E-05
		 1.90932000E-05
		 1.86604000E-05
		 1.50663000E-05
		 2.77791000E-05
		 2.66855000E-05
		 7.76805000E-05
		 7.31414000E-05
		 1.66641000E-05
		 7.89133000E-05
		 1.64513000E-05
		 1.71374000E-05
		 2.93120000E-05
		 8.01858000E-05
		 7.94546000E-05
		 1.65257000E-05
		 7.97345000E-05
		 1.66445000E-05
		 1.65815000E-05
		 2.92401000E-05
		 7.89367000E-05
		 7.93545000E-05
		 1.65866000E-05
		 7.93276000E-05
		 1.65752000E-05
		 1.65690000E-05
		 2.91525000E-05
		 7.94337000E-05
		 7.94295000E-05
		 1.65609000E-05
		 7.93036000E-05
		 1.65729000E-05
		 1.65400000E-05
		 2.91047000E-05
		 7.93289000E-05
		 7.93450000E-05
		 1.66552000E-05
		 7.90713000E-05
		 1.65997000E-05
		 1.66040000E-05
		 2.89134000E-05
		 7.94618000E-05
		 7.90433000E-05
		 1.60836000E-05
		 7.68246000E-05
		 1.64546000E-05
		 1.61403000E-05
		 2.78075000E-05
		 7.95532000E-05
		 7.71717000E-05
		 1.64406000E-05
		 8.18250000E-05
		 1.73879000E-05
		 1.60276000E-05
		 3.13852000E-05
		 8.22880000E-05
		 8.01581000E-05
		 4.59054000E-05
		 2.66021000E-04
		 1.90552000E-05
		 4.63828000E-05
		 2.00835000E-04
		 8.07281000E-05
		 2.61611000E-04
		 6.56496000E-03
		 3.52174000E-03
		 9.58126000E-05
		 6.58030000E-03
		 1.91481000E-03
		 1.31868000E-04
		 3.58739000E-03
		 4.24951000E-05
		 1.76407000E-05
		 9.80023000E-05
		 7.86372000E-05
		 1.07434000E-05
		 1.86267000E-05
		 1.63296000E-05
		 4.11095000E-05
		 3.09930000E-05
		 8.17131000E-05
		 8.45584000E-05
		 8.26195000E-05
		 1.62712000E-05
		 8.15345000E-05
		 1.70620000E-05
		 1.59149000E-05
		 2.98525000E-05
		 7.70642000E-05
		 8.03486000E-05
		 1.66272000E-05
		 7.93627000E-05
		 1.65283000E-05
		 1.65724000E-05
		 2.92912000E-05
		 7.95266000E-05
		 7.96812000E-05
		 1.65602000E-05
		 7.94757000E-05
		 1.66097000E-05
		 1.65180000E-05
		 2.91696000E-05
		 7.92382000E-05
		 7.94293000E-05
		 1.65681000E-05
		 7.92702000E-05
		 1.65639000E-05
		 1.65446000E-05
		 2.91044000E-05
		 7.93767000E-05
		 7.93583000E-05
		 1.66532000E-05
		 7.90811000E-05
		 1.66021000E-05
		 1.66012000E-05
		 2.89141000E-05
		 7.94482000E-05
		 7.90418000E-05
		 1.60841000E-05
		 7.68220000E-05
		 1.64539000E-05
		 1.61408000E-05
		 2.78073000E-05
		 7.95568000E-05
		 7.71724000E-05
		 1.64404000E-05
		 8.18257000E-05
		 1.73880000E-05
		 1.60274000E-05
		 3.13852000E-05
		 8.22871000E-05
		 8.01580000E-05
		 4.59055000E-05
		 2.66021000E-04
		 1.90552000E-05
		 4.63829000E-05
		 2.00835000E-04
		 8.07284000E-05
		 2.61611000E-04
		 6.56496000E-03
		 3.52174000E-03
		 9.58126000E-05
		 6.58030000E-03
		 1.91481000E-03
		 1.31868000E-04
		 3.58739000E-03
		 4.24951000E-05
		 7.79347000E-06
		 1.50639000E-05
		 1.76407000E-05
		 9.80023000E-05
		 4.95905000E-05
		 8.14911000E-05
		 7.86372000E-05
		 1.07434000E-05
		 1.90932000E-05
		 1.63296000E-05
		 1.86267000E-05
		 4.11095000E-05
		 1.50663000E-05
		 2.77791000E-05
		 3.09930000E-05
		 8.17131000E-05
		 7.76805000E-05
		 8.26195000E-05
		 8.45584000E-05
		 1.66641000E-05
		 1.62712000E-05
		 7.89133000E-05
		 8.15345000E-05
		 1.64513000E-05
		 1.59149000E-05
		 1.70620000E-05
		 2.93120000E-05
		 2.98525000E-05
		 8.01858000E-05
		 8.03486000E-05
		 7.70642000E-05
		 1.65257000E-05
		 1.66272000E-05
		 7.97345000E-05
		 7.93627000E-05
		 1.66445000E-05
		 1.65724000E-05
		 1.65283000E-05
		 2.92401000E-05
		 2.92912000E-05
		 7.89367000E-05
		 7.96812000E-05
		 7.95266000E-05
		 1.65866000E-05
		 1.65602000E-05
		 7.93276000E-05
		 7.94757000E-05
		 1.65752000E-05
		 1.65180000E-05
		 1.66097000E-05
		 2.91525000E-05
		 2.91696000E-05
		 7.94337000E-05
		 7.94293000E-05
		 7.92382000E-05
		 1.65609000E-05
		 1.65681000E-05
		 7.93036000E-05
		 7.92702000E-05
		 1.65729000E-05
		 1.65446000E-05
		 1.65639000E-05
		 2.91047000E-05
		 2.91044000E-05
		 7.93289000E-05
		 7.93583000E-05
		 7.93767000E-05
		 1.66552000E-05
		 1.66532000E-05
		 7.90713000E-05
		 7.90811000E-05
		 1.65997000E-05
		 1.66012000E-05
		 1.66021000E-05
		 2.89134000E-05
		 2.89141000E-05
		 7.94618000E-05
		 7.90418000E-05
		 7.94482000E-05
		 1.60836000E-05
		 1.60841000E-05
		 7.68246000E-05
		 7.68220000E-05
		 1.64546000E-05
		 1.61408000E-05
		 1.64539000E-05
		 2.78075000E-05
		 2.78073000E-05
		 7.95532000E-05
		 7.71724000E-05
		 7.95568000E-05
		 1.64406000E-05
		 1.64404000E-05
		 8.18250000E-05
		 8.18257000E-05
		 1.73879000E-05
		 1.60274000E-05
		 1.73880000E-05
		 3.13852000E-05
		 3.13852000E-05
		 8.22880000E-05
		 8.01580000E-05
		 8.22871000E-05
		 4.59054000E-05
		 4.59055000E-05
		 2.66021000E-04
		 2.66021000E-04
		 1.90552000E-05
		 4.63829000E-05
		 1.90552000E-05
		 2.00835000E-04
		 2.00835000E-04
		 8.07281000E-05
		 2.61611000E-04
		 8.07284000E-05
		 6.56496000E-03
		 6.56496000E-03
		 3.52174000E-03
		 3.52174000E-03
		 9.58126000E-05
		 6.58030000E-03
		 9.58126000E-05
		 1.91481000E-03
		 1.91481000E-03
		 1.31868000E-04
		 3.58739000E-03
		 1.31868000E-04
		 1.80951000E-05
		 1.74238000E-05
		 1.89617000E-05
		 7.24054000E-05
		 1.66976000E-05
		 1.62584000E-05
		 1.86604000E-05
		 7.92026000E-06
		 2.46263000E-05
		 2.66855000E-05
		 8.69787000E-05
		 7.31414000E-05
		 1.74686000E-05
		 7.88565000E-05
		 1.54603000E-05
		 1.71374000E-05
		 2.89576000E-05
		 7.96249000E-05
		 7.94546000E-05
		 1.65331000E-05
		 7.93553000E-05
		 1.66577000E-05
		 1.65815000E-05
		 2.91260000E-05
		 7.93596000E-05
		 7.93545000E-05
		 1.66211000E-05
		 7.93692000E-05
		 1.65314000E-05
		 1.65690000E-05
		 2.91519000E-05
		 7.93610000E-05
		 7.94295000E-05
		 1.65578000E-05
		 7.92835000E-05
		 1.65780000E-05
		 1.65400000E-05
		 2.91003000E-05
		 7.93542000E-05
		 7.93450000E-05
		 1.66571000E-05
		 7.90754000E-05
		 1.65973000E-05
		 1.66040000E-05
		 2.89140000E-05
		 7.94558000E-05
		 7.90433000E-05
		 1.60833000E-05
		 7.68233000E-05
		 1.64550000E-05
		 1.61403000E-05
		 2.78072000E-05
		 7.95549000E-05
		 7.71717000E-05
		 1.64407000E-05
		 8.18253000E-05
		 1.73877000E-05
		 1.60276000E-05
		 3.13852000E-05
		 8.22876000E-05
		 8.01581000E-05
		 4.59054000E-05
		 2.66021000E-04
		 1.90553000E-05
		 4.63828000E-05
		 2.00835000E-04
		 8.07283000E-05
		 2.61611000E-04
		 6.56496000E-03
		 3.52174000E-03
		 9.58126000E-05
		 6.58030000E-03
		 1.91481000E-03
		 1.31868000E-04
		 3.58739000E-03
		 7.79347000E-06
		 1.50639000E-05
		 4.95905000E-05
		 8.14911000E-05
		 1.66976000E-05
		 1.90932000E-05
		 1.86604000E-05
		 1.50663000E-05
		 2.77791000E-05
		 2.66855000E-05
		 7.76805000E-05
		 7.31414000E-05
		 1.66641000E-05
		 7.89133000E-05
		 1.64513000E-05
		 1.71374000E-05
		 2.93120000E-05
		 8.01858000E-05
		 7.94546000E-05
		 1.65257000E-05
		 7.97345000E-05
		 1.66445000E-05
		 1.65815000E-05
		 2.92401000E-05
		 7.89367000E-05
		 7.93545000E-05
		 1.65866000E-05
		 7.93276000E-05
		 1.65752000E-05
		 1.65690000E-05
		 2.91525000E-05
		 7.94337000E-05
		 7.94295000E-05
		 1.65609000E-05
		 7.93036000E-05
		 1.65729000E-05
		 1.65400000E-05
		 2.91047000E-05
		 7.93289000E-05
		 7.93450000E-05
		 1.66552000E-05
		 7.90713000E-05
		 1.65997000E-05
		 1.66040000E-05
		 2.89134000E-05
		 7.94618000E-05
		 7.90433000E-05
		 1.60836000E-05
		 7.68246000E-05
		 1.64546000E-05
		 1.61403000E-05
		 2.78075000E-05
		 7.95532000E-05
		 7.71717000E-05
		 1.64406000E-05
		 8.18250000E-05
		 1.73879000E-05
		 1.60276000E-05
		 3.13852000E-05
		 8.22880000E-05
		 8.01581000E-05
		 4.59054000E-05
		 2.66021000E-04
		 1.90552000E-05
		 4.63828000E-05
		 2.00835000E-04
		 8.07281000E-05
		 2.61611000E-04
		 6.56496000E-03
		 3.52174000E-03
		 9.58126000E-05
		 6.58030000E-03
		 1.91481000E-03
		 1.31868000E-04
		 3.58739000E-03
		 1.07434000E-05
		 1.63296000E-05
		 8.17131000E-05
		 8.26195000E-05
		 1.59149000E-05
		 8.03486000E-05
		 1.65724000E-05
		 7.96812000E-05
		 1.65180000E-05
		 7.94293000E-05
		 1.65446000E-05
		 7.93583000E-05
		 1.66012000E-05
		 7.90418000E-05
		 1.61408000E-05
		 7.71724000E-05
		 1.60274000E-05
		 8.01580000E-05
		 4.63829000E-05
		 2.61611000E-04
		 6.58030000E-03
		 3.58739000E-03
		 4.24951000E-05
		 7.79347000E-06
		 1.50639000E-05
		 1.76407000E-05
		 9.80023000E-05
		 4.95905000E-05
		 8.14911000E-05
		 7.86372000E-05
		 1.07434000E-05
		 1.90932000E-05
		 1.63296000E-05
		 1.86267000E-05
		 4.11095000E-05
		 1.50663000E-05
		 2.77791000E-05
		 3.09930000E-05
		 8.17131000E-05
		 7.76805000E-05
		 8.26195000E-05
		 8.45584000E-05
		 1.66641000E-05
		 1.62712000E-05
		 7.89133000E-05
		 8.15345000E-05
		 1.64513000E-05
		 1.59149000E-05
		 1.70620000E-05
		 2.93120000E-05
		 2.98525000E-05
		 8.01858000E-05
		 8.03486000E-05
		 7.70642000E-05
		 1.65257000E-05
		 1.66272000E-05
		 7.97345000E-05
		 7.93627000E-05
		 1.66445000E-05
		 1.65724000E-05
		 1.65283000E-05
		 2.92401000E-05
		 2.92912000E-05
		 7.89367000E-05
		 7.96812000E-05
		 7.95266000E-05
		 1.65866000E-05
		 1.65602000E-05
		 7.93276000E-05
		 7.94757000E-05
		 1.65752000E-05
		 1.65180000E-05
		 1.66097000E-05
		 2.91525000E-05
		 2.91696000E-05
		 7.94337000E-05
		 7.94293000E-05
		 7.92382000E-05
		 1.65609000E-05
		 1.65681000E-05
		 7.93036000E-05
		 7.92702000E-05
		 1.65729000E-05
		 1.65446000E-05
		 1.65639000E-05
		 2.91047000E-05
		 2.91044000E-05
		 7.93289000E-05
		 7.93583000E-05
		 7.93767000E-05
		 1.66552000E-05
		 1.66532000E-05
		 7.90713000E-05
		 7.90811000E-05
		 1.65997000E-05
		 1.66012000E-05
		 1.66021000E-05
		 2.89134000E-05
		 2.89141000E-05
		 7.94618000E-05
		 7.90418000E-05
		 7.94482000E-05
		 1.60836000E-05
		 1.60841000E-05
		 7.68246000E-05
		 7.68220000E-05
		 1.64546000E-05
		 1.61408000E-05
		 1.64539000E-05
		 2.78075000E-05
		 2.78073000E-05
		 7.95532000E-05
		 7.71724000E-05
		 7.95568000E-05
		 1.64406000E-05
		 1.64404000E-05
		 8.18250000E-05
		 8.18257000E-05
		 1.73879000E-05
		 1.60274000E-05
		 1.73880000E-05
		 3.13852000E-05
		 3.13852000E-05
		 8.22880000E-05
		 8.01580000E-05
		 8.22871000E-05
		 4.59054000E-05
		 4.59055000E-05
		 2.66021000E-04
		 2.66021000E-04
		 1.90552000E-05
		 4.63829000E-05
		 1.90552000E-05
		 2.00835000E-04
		 2.00835000E-04
		 8.07281000E-05
		 2.61611000E-04
		 8.07284000E-05
		 6.56496000E-03
		 6.56496000E-03
		 3.52174000E-03
		 3.52174000E-03
		 9.58126000E-05
		 6.58030000E-03
		 9.58126000E-05
		 1.91481000E-03
		 1.91481000E-03
		 1.31868000E-04
		 3.58739000E-03
		 1.31868000E-04
		 1.80951000E-05
		 1.74238000E-05
		 1.89617000E-05
		 7.24054000E-05
		 1.66976000E-05
		 1.62584000E-05
		 1.86604000E-05
		 7.92026000E-06
		 2.46263000E-05
		 2.66855000E-05
		 8.69787000E-05
		 7.31414000E-05
		 1.74686000E-05
		 7.88565000E-05
		 1.54603000E-05
		 1.71374000E-05
		 2.89576000E-05
		 7.96249000E-05
		 7.94546000E-05
		 1.65331000E-05
		 7.93553000E-05
		 1.66577000E-05
		 1.65815000E-05
		 2.91260000E-05
		 7.93596000E-05
		 7.93545000E-05
		 1.66211000E-05
		 7.93692000E-05
		 1.65314000E-05
		 1.65690000E-05
		 2.91519000E-05
		 7.93610000E-05
		 7.94295000E-05
		 1.65578000E-05
		 7.92835000E-05
		 1.65780000E-05
		 1.65400000E-05
		 2.91003000E-05
		 7.93542000E-05
		 7.93450000E-05
		 1.66571000E-05
		 7.90754000E-05
		 1.65973000E-05
		 1.66040000E-05
		 2.89140000E-05
		 7.94558000E-05
		 7.90433000E-05
		 1.60833000E-05
		 7.68233000E-05
		 1.64550000E-05
		 1.61403000E-05
		 2.78072000E-05
		 7.95549000E-05
		 7.71717000E-05
		 1.64407000E-05
		 8.18253000E-05
		 1.73877000E-05
		 1.60276000E-05
		 3.13852000E-05
		 8.22876000E-05
		 8.01581000E-05
		 4.59054000E-05
		 2.66021000E-04
		 1.90553000E-05
		 4.63828000E-05
		 2.00835000E-04
		 8.07283000E-05
		 2.61611000E-04
		 6.56496000E-03
		 3.52174000E-03
		 9.58126000E-05
		 6.58030000E-03
		 1.91481000E-03
		 1.31868000E-04
		 3.58739000E-03
		 7.79347000E-06
		 1.50639000E-05
		 4.95905000E-05
		 8.14911000E-05
		 1.66976000E-05
		 1.90932000E-05
		 1.86604000E-05
		 1.50663000E-05
		 2.77791000E-05
		 2.66855000E-05
		 7.76805000E-05
		 7.31414000E-05
		 1.66641000E-05
		 7.89133000E-05
		 1.64513000E-05
		 1.71374000E-05
		 2.93120000E-05
		 8.01858000E-05
		 7.94546000E-05
		 1.65257000E-05
		 7.97345000E-05
		 1.66445000E-05
		 1.65815000E-05
		 2.92401000E-05
		 7.89367000E-05
		 7.93545000E-05
		 1.65866000E-05
		 7.93276000E-05
		 1.65752000E-05
		 1.65690000E-05
		 2.91525000E-05
		 7.94337000E-05
		 7.94295000E-05
		 1.65609000E-05
		 7.93036000E-05
		 1.65729000E-05
		 1.65400000E-05
		 2.91047000E-05
		 7.93289000E-05
		 7.93450000E-05
		 1.66552000E-05
		 7.90713000E-05
		 1.65997000E-05
		 1.66040000E-05
		 2.89134000E-05
		 7.94618000E-05
		 7.90433000E-05
		 1.60836000E-05
		 7.68246000E-05
		 1.64546000E-05
		 1.61403000E-05
		 2.78075000E-05
		 7.95532000E-05
		 7.71717000E-05
		 1.64406000E-05
		 8.18250000E-05
		 1.73879000E-05
		 1.60276000E-05
		 3.13852000E-05
		 8.22880000E-05
		 8.01581000E-05
		 4.59054000E-05
		 2.66021000E-04
		 1.90552000E-05
		 4.63828000E-05
		 2.00835000E-04
		 8.07281000E-05
		 2.61611000E-04
		 6.56496000E-03
		 3.52174000E-03
		 9.58126000E-05
		 6.58030000E-03
		 1.91481000E-03
		 1.31868000E-04
		 3.58739000E-03
		 1.07434000E-05
		 1.63296000E-05
		 8.17131000E-05
		 8.26195000E-05
		 1.59149000E-05
		 8.03486000E-05
		 1.65724000E-05
		 7.96812000E-05
		 1.65180000E-05
		 7.94293000E-05
		 1.65446000E-05
		 7.93583000E-05
		 1.66012000E-05
		 7.90418000E-05
		 1.61408000E-05
		 7.71724000E-05
		 1.60274000E-05
		 8.01580000E-05
		 4.63829000E-05
		 2.61611000E-04
		 6.58030000E-03
		 3.58739000E-03
		 7.79347000E-06
		 1.50639000E-05
		 4.95905000E-05
		 8.14911000E-05
		 1.07434000E-05
		 1.90932000E-05
		 1.63296000E-05
		 1.50663000E-05
		 2.77791000E-05
		 8.17131000E-05
		 7.76805000E-05
		 8.26195000E-05
		 1.66641000E-05
		 7.89133000E-05
		 1.64513000E-05
		 1.59149000E-05
		 2.93120000E-05
		 8.01858000E-05
		 8.03486000E-05
		 1.65257000E-05
		 7.97345000E-05
		 1.66445000E-05
		 1.65724000E-05
		 2.92401000E-05
		 7.89367000E-05
		 7.96812000E-05
		 1.65866000E-05
		 7.93276000E-05
		 1.65752000E-05
		 1.65180000E-05
		 2.91525000E-05
		 7.94337000E-05
		 7.94293000E-05
		 1.65609000E-05
		 7.93036000E-05
		 1.65729000E-05
		 1.65446000E-05
		 2.91047000E-05
		 7.93289000E-05
		 7.93583000E-05
		 1.66552000E-05
		 7.90713000E-05
		 1.65997000E-05
		 1.66012000E-05
		 2.89134000E-05
		 7.94618000E-05
		 7.90418000E-05
		 1.60836000E-05
		 7.68246000E-05
		 1.64546000E-05
		 1.61408000E-05
		 2.78075000E-05
		 7.95532000E-05
		 7.71724000E-05
		 1.64406000E-05
		 8.18250000E-05
		 1.73879000E-05
		 1.60274000E-05
		 3.13852000E-05
		 8.22880000E-05
		 8.01580000E-05
		 4.59054000E-05
		 2.66021000E-04
		 1.90552000E-05
		 4.63829000E-05
		 2.00835000E-04
		 8.07281000E-05
		 2.61611000E-04
		 6.56496000E-03
		 3.52174000E-03
		 9.58126000E-05
		 6.58030000E-03
		 1.91481000E-03
		 1.31868000E-04
		 3.58739000E-03
		 1.80951000E-05
		 1.74238000E-05
		 1.89617000E-05
		 7.24054000E-05
		 1.66976000E-05
		 1.62584000E-05
		 1.86604000E-05
		 7.92026000E-06
		 2.46263000E-05
		 2.66855000E-05
		 8.69787000E-05
		 7.31414000E-05
		 1.74686000E-05
		 7.88565000E-05
		 1.54603000E-05
		 1.71374000E-05
		 2.89576000E-05
		 7.96249000E-05
		 7.94546000E-05
		 1.65331000E-05
		 7.93553000E-05
		 1.66577000E-05
		 1.65815000E-05
		 2.91260000E-05
		 7.93596000E-05
		 7.93545000E-05
		 1.66211000E-05
		 7.93692000E-05
		 1.65314000E-05
		 1.65690000E-05
		 2.91519000E-05
		 7.93610000E-05
		 7.94295000E-05
		 1.65578000E-05
		 7.92835000E-05
		 1.65780000E-05
		 1.65400000E-05
		 2.91003000E-05
		 7.93542000E-05
		 7.93450000E-05
		 1.66571000E-05
		 7.90754000E-05
		 1.65973000E-05
		 1.66040000E-05
		 2.89140000E-05
		 7.94558000E-05
		 7.90433000E-05
		 1.60833000E-05
		 7.68233000E-05
		 1.64550000E-05
		 1.61403000E-05
		 2.78072000E-05
		 7.95549000E-05
		 7.71717000E-05
		 1.64407000E-05
		 8.18253000E-05
		 1.73877000E-05
		 1.60276000E-05
		 3.13852000E-05
		 8.22876000E-05
		 8.01581000E-05
		 4.59054000E-05
		 2.66021000E-04
		 1.90553000E-05
		 4.63828000E-05
		 2.00835000E-04
		 8.07283000E-05
		 2.61611000E-04
		 6.56496000E-03
		 3.52174000E-03
		 9.58126000E-05
		 6.58030000E-03
		 1.91481000E-03
		 1.31868000E-04
		 3.58739000E-03
		 7.79347000E-06
		 1.50639000E-05
		 4.95905000E-05
		 8.14911000E-05
		 1.66976000E-05