<?xml version="1.0"?>
<VTKFile type="UnstructuredGrid" version="0.1" byte_order="LittleEndian">
	<UnstructuredGrid>
		<Piece NumberOfPoints="2656" NumberOfCells="368">
			<Points>
				<DataArray type="Float64" NumberOfComponents="3" format="ascii">
					 6.12323000E-17	 1.00000000E+00	 0.00000000E+00
					 3.82683000E-01	 9.23880000E-01	 0.00000000E+00
					 3.82683000E-01	 9.23880000E-01	 5.00000000E+00
					 6.12323000E-17	 1.00000000E+00	 5.00000000E+00
					 3.06162000E-17	 5.00000000E-01	 0.00000000E+00
					 1.91342000E-01	 4.61940000E-01	 0.00000000E+00
					 1.91342000E-01	 4.61940000E-01	 5.00000000E+00
					 3.06162000E-17	 5.00000000E-01	 5.00000000E+00
					 1.95090000E-01	 9.80785000E-01	 0.00000000E+00
					 3.82683000E-01	 9.23880000E-01	 2.50000000E+00
					 1.95090000E-01	 9.80785000E-01	 5.00000000E+00
					 6.12323000E-17	 1.00000000E+00	 2.50000000E+00
					 4.59243000E-17	 7.50000000E-01	 0.00000000E+00
					 2.87013000E-01	 6.92910000E-01	 0.00000000E+00
					 2.87013000E-01	 6.92910000E-01	 5.00000000E+00
					 4.59243000E-17	 7.50000000E-01	 5.00000000E+00
					 9.75452000E-02	 4.90393000E-01	 0.00000000E+00
					 1.91342000E-01	 4.61940000E-01	 2.50000000E+00
					 9.75452000E-02	 4.90393000E-01	 5.00000000E+00
					 3.06162000E-17	 5.00000000E-01	 2.50000000E+00
					 3.82683000E-01	 9.23880000E-01	 1.00000000E+01
					 6.12323000E-17	 1.00000000E+00	 1.00000000E+01
					 1.91342000E-01	 4.61940000E-01	 1.00000000E+01
					 3.06162000E-17	 5.00000000E-01	 1.00000000E+01
					 3.82683000E-01	 9.23880000E-01	 7.50000000E+00
					 1.95090000E-01	 9.80785000E-01	 1.00000000E+01
					 6.12323000E-17	 1.00000000E+00	 7.50000000E+00
					 2.87013000E-01	 6.92910000E-01	 1.00000000E+01
					 4.59243000E-17	 7.50000000E-01	 1.00000000E+01
					 1.91342000E-01	 4.61940000E-01	 7.50000000E+00
					 9.75452000E-02	 4.90393000E-01	 1.00000000E+01
					 3.06162000E-17	 5.00000000E-01	 7.50000000E+00
					 3.82683000E-01	 9.23880000E-01	 1.50000000E+01
					 6.12323000E-17	 1.00000000E+00	 1.50000000E+01
					 1.91342000E-01	 4.61940000E-01	 1.50000000E+01
					 3.06162000E-17	 5.00000000E-01	 1.50000000E+01
					 3.82683000E-01	 9.23880000E-01	 1.25000000E+01
					 1.95090000E-01	 9.80785000E-01	 1.50000000E+01
					 6.12323000E-17	 1.00000000E+00	 1.25000000E+01
					 2.87013000E-01	 6.92910000E-01	 1.50000000E+01
					 4.59243000E-17	 7.50000000E-01	 1.50000000E+01
					 1.91342000E-01	 4.61940000E-01	 1.25000000E+01
					 9.75452000E-02	 4.90393000E-01	 1.50000000E+01
					 3.06162000E-17	 5.00000000E-01	 1.25000000E+01
					 3.82683000E-01	 9.23880000E-01	 2.00000000E+01
					 6.12323000E-17	 1.00000000E+00	 2.00000000E+01
					 1.91342000E-01	 4.61940000E-01	 2.00000000E+01
					 3.06162000E-17	 5.00000000E-01	 2.00000000E+01
					 3.82683000E-01	 9.23880000E-01	 1.75000000E+01
					 1.95090000E-01	 9.80785000E-01	 2.00000000E+01
					 6.12323000E-17	 1.00000000E+00	 1.75000000E+01
					 2.87013000E-01	 6.92910000E-01	 2.00000000E+01
					 4.59243000E-17	 7.50000000E-01	 2.00000000E+01
					 1.91342000E-01	 4.61940000E-01	 1.75000000E+01
					 9.75452000E-02	 4.90393000E-01	 2.00000000E+01
					 3.06162000E-17	 5.00000000E-01	 1.75000000E+01
					 3.82683000E-01	 9.23880000E-01	 2.50000000E+01
					 6.12323000E-17	 1.00000000E+00	 2.50000000E+01
					 1.91342000E-01	 4.61940000E-01	 2.50000000E+01
					 3.06162000E-17	 5.00000000E-01	 2.50000000E+01
					 3.82683000E-01	 9.23880000E-01	 2.25000000E+01
					 1.95090000E-01	 9.80785000E-01	 2.50000000E+01
					 6.12323000E-17	 1.00000000E+00	 2.25000000E+01
					 2.87013000E-01	 6.92910000E-01	 2.50000000E+01
					 4.59243000E-17	 7.50000000E-01	 2.50000000E+01
					 1.91342000E-01	 4.61940000E-01	 2.25000000E+01
					 9.75452000E-02	 4.90393000E-01	 2.50000000E+01
					 3.06162000E-17	 5.00000000E-01	 2.25000000E+01
					 3.82683000E-01	 9.23880000E-01	 3.00000000E+01
					 6.12323000E-17	 1.00000000E+00	 3.00000000E+01
					 1.91342000E-01	 4.61940000E-01	 3.00000000E+01
					 3.06162000E-17	 5.00000000E-01	 3.00000000E+01
					 3.82683000E-01	 9.23880000E-01	 2.75000000E+01
					 1.95090000E-01	 9.80785000E-01	 3.00000000E+01
					 6.12323000E-17	 1.00000000E+00	 2.75000000E+01
					 2.87013000E-01	 6.92910000E-01	 3.00000000E+01
					 4.59243000E-17	 7.50000000E-01	 3.00000000E+01
					 1.91342000E-01	 4.61940000E-01	 2.75000000E+01
					 9.75452000E-02	 4.90393000E-01	 3.00000000E+01
					 3.06162000E-17	 5.00000000E-01	 2.75000000E+01
					 3.82683000E-01	 9.23880000E-01	 3.50000000E+01
					 6.12323000E-17	 1.00000000E+00	 3.50000000E+01
					 1.91342000E-01	 4.61940000E-01	 3.50000000E+01
					 3.06162000E-17	 5.00000000E-01	 3.50000000E+01
					 3.82683000E-01	 9.23880000E-01	 3.25000000E+01
					 1.95090000E-01	 9.80785000E-01	 3.50000000E+01
					 6.12323000E-17	 1.00000000E+00	 3.25000000E+01
					 2.87013000E-01	 6.92910000E-01	 3.50000000E+01
					 4.59243000E-17	 7.50000000E-01	 3.50000000E+01
					 1.91342000E-01	 4.61940000E-01	 3.25000000E+01
					 9.75452000E-02	 4.90393000E-01	 3.50000000E+01
					 3.06162000E-17	 5.00000000E-01	 3.25000000E+01
					 3.82683000E-01	 9.23880000E-01	 4.00000000E+01
					 6.12323000E-17	 1.00000000E+00	 4.00000000E+01
					 1.91342000E-01	 4.61940000E-01	 4.00000000E+01
					 3.06162000E-17	 5.00000000E-01	 4.00000000E+01
					 3.82683000E-01	 9.23880000E-01	 3.75000000E+01
					 1.95090000E-01	 9.80785000E-01	 4.00000000E+01
					 6.12323000E-17	 1.00000000E+00	 3.75000000E+01
					 2.87013000E-01	 6.92910000E-01	 4.00000000E+01
					 4.59243000E-17	 7.50000000E-01	 4.00000000E+01
					 1.91342000E-01	 4.61940000E-01	 3.75000000E+01
					 9.75452000E-02	 4.90393000E-01	 4.00000000E+01
					 3.06162000E-17	 5.00000000E-01	 3.75000000E+01
					 3.82683000E-01	 9.23880000E-01	 4.50000000E+01
					 6.12323000E-17	 1.00000000E+00	 4.50000000E+01
					 1.91342000E-01	 4.61940000E-01	 4.50000000E+01
					 3.06162000E-17	 5.00000000E-01	 4.50000000E+01
					 3.82683000E-01	 9.23880000E-01	 4.25000000E+01
					 1.95090000E-01	 9.80785000E-01	 4.50000000E+01
					 6.12323000E-17	 1.00000000E+00	 4.25000000E+01
					 2.87013000E-01	 6.92910000E-01	 4.50000000E+01
					 4.59243000E-17	 7.50000000E-01	 4.50000000E+01
					 1.91342000E-01	 4.61940000E-01	 4.25000000E+01
					 9.75452000E-02	 4.90393000E-01	 4.50000000E+01
					 3.06162000E-17	 5.00000000E-01	 4.25000000E+01
					 3.82683000E-01	 9.23880000E-01	 5.00000000E+01
					 6.12323000E-17	 1.00000000E+00	 5.00000000E+01
					 1.91342000E-01	 4.61940000E-01	 5.00000000E+01
					 3.06162000E-17	 5.00000000E-01	 5.00000000E+01
					 3.82683000E-01	 9.23880000E-01	 4.75000000E+01
					 1.95090000E-01	 9.80785000E-01	 5.00000000E+01
					 6.12323000E-17	 1.00000000E+00	 4.75000000E+01
					 2.87013000E-01	 6.92910000E-01	 5.00000000E+01
					 4.59243000E-17	 7.50000000E-01	 5.00000000E+01
					 1.91342000E-01	 4.61940000E-01	 4.75000000E+01
					 9.75452000E-02	 4.90393000E-01	 5.00000000E+01
					 3.06162000E-17	 5.00000000E-01	 4.75000000E+01
					 7.07107000E-01	 7.07107000E-01	 0.00000000E+00
					 7.07107000E-01	 7.07107000E-01	 5.00000000E+00
					 3.53553000E-01	 3.53553000E-01	 0.00000000E+00
					 3.53553000E-01	 3.53553000E-01	 5.00000000E+00
					 5.55570000E-01	 8.31470000E-01	 0.00000000E+00
					 7.07107000E-01	 7.07107000E-01	 2.50000000E+00
					 5.55570000E-01	 8.31470000E-01	 5.00000000E+00
					 5.30330000E-01	 5.30330000E-01	-7.10543000E-15
					 5.30330000E-01	 5.30330000E-01	 5.00000000E+00
					 2.77785000E-01	 4.15735000E-01	 0.00000000E+00
					 3.53553000E-01	 3.53553000E-01	 2.50000000E+00
					 2.77785000E-01	 4.15735000E-01	 5.00000000E+00
					 7.07107000E-01	 7.07107000E-01	 1.00000000E+01
					 3.53553000E-01	 3.53553000E-01	 1.00000000E+01
					 7.07107000E-01	 7.07107000E-01	 7.50000000E+00
					 5.55570000E-01	 8.31470000E-01	 1.00000000E+01
					 5.30330000E-01	 5.30330000E-01	 1.00000000E+01
					 3.53553000E-01	 3.53553000E-01	 7.50000000E+00
					 2.77785000E-01	 4.15735000E-01	 1.00000000E+01
					 7.07107000E-01	 7.07107000E-01	 1.50000000E+01
					 3.53553000E-01	 3.53553000E-01	 1.50000000E+01
					 7.07107000E-01	 7.07107000E-01	 1.25000000E+01
					 5.55570000E-01	 8.31470000E-01	 1.50000000E+01
					 5.30330000E-01	 5.30330000E-01	 1.50000000E+01
					 3.53553000E-01	 3.53553000E-01	 1.25000000E+01
					 2.77785000E-01	 4.15735000E-01	 1.50000000E+01
					 7.07107000E-01	 7.07107000E-01	 2.00000000E+01
					 3.53553000E-01	 3.53553000E-01	 2.00000000E+01
					 7.07107000E-01	 7.07107000E-01	 1.75000000E+01
					 5.55570000E-01	 8.31470000E-01	 2.00000000E+01
					 5.30330000E-01	 5.30330000E-01	 2.00000000E+01
					 3.53553000E-01	 3.53553000E-01	 1.75000000E+01
					 2.77785000E-01	 4.15735000E-01	 2.00000000E+01
					 7.07107000E-01	 7.07107000E-01	 2.50000000E+01
					 3.53553000E-01	 3.53553000E-01	 2.50000000E+01
					 7.07107000E-01	 7.07107000E-01	 2.25000000E+01
					 5.55570000E-01	 8.31470000E-01	 2.50000000E+01
					 5.30330000E-01	 5.30330000E-01	 2.50000000E+01
					 3.53553000E-01	 3.53553000E-01	 2.25000000E+01
					 2.77785000E-01	 4.15735000E-01	 2.50000000E+01
					 7.07107000E-01	 7.07107000E-01	 3.00000000E+01
					 3.53553000E-01	 3.53553000E-01	 3.00000000E+01
					 7.07107000E-01	 7.07107000E-01	 2.75000000E+01
					 5.55570000E-01	 8.31470000E-01	 3.00000000E+01
					 5.30330000E-01	 5.30330000E-01	 3.00000000E+01
					 3.53553000E-01	 3.53553000E-01	 2.75000000E+01
					 2.77785000E-01	 4.15735000E-01	 3.00000000E+01
					 7.07107000E-01	 7.07107000E-01	 3.50000000E+01
					 3.53553000E-01	 3.53553000E-01	 3.50000000E+01
					 7.07107000E-01	 7.07107000E-01	 3.25000000E+01
					 5.55570000E-01	 8.31470000E-01	 3.50000000E+01
					 5.30330000E-01	 5.30330000E-01	 3.50000000E+01
					 3.53553000E-01	 3.53553000E-01	 3.25000000E+01
					 2.77785000E-01	 4.15735000E-01	 3.50000000E+01
					 7.07107000E-01	 7.07107000E-01	 4.00000000E+01
[...]
			<PointData>
				<DataArray type="Float32" Name="U" NumberOfComponents="3" ComponentName0="D1" ComponentName1="D2" ComponentName2="D3" format="ascii">
					-1.32984000E-01	-2.00986000E-02	 0.00000000E+00
					-1.28565000E-01	 4.01791000E-02	-5.97029000E-04
					-1.27349000E-01	 4.29221000E-02	 1.55548000E-03
					-1.34008000E-01	-1.00780000E-02	 1.72300000E-03
					-6.64805000E-02	-9.99607000E-03	 3.18535000E-05
					-6.33925000E-02	 1.71675000E-02	 3.58810000E-05
					-6.34998000E-02	 2.10081000E-02	 1.23934000E-03
					-6.69975000E-02	-5.06594000E-03	 1.12694000E-03
					-1.33474000E-01	 1.10269000E-02	-5.23561000E-04
					-1.27527000E-01	 4.31484000E-02	 1.91447000E-03
					-1.33203000E-01	 1.65832000E-02	 1.69676000E-03
					-1.34347000E-01	-8.17266000E-03	 1.78789000E-03
					-9.97749000E-02	-1.46914000E-02	 1.40234000E-05
					-9.56907000E-02	 2.85366000E-02	-1.84705000E-04
					-9.55008000E-02	 3.20039000E-02	 1.36980000E-03
					-1.00492000E-01	-7.66357000E-03	 1.43321000E-03
					-6.60511000E-02	 3.30043000E-03	 1.76067000E-04
					-6.39017000E-02	 2.20579000E-02	 2.26166000E-03
					-6.65743000E-02	 8.25973000E-03	 1.14507000E-03
					-6.71976000E-02	-3.92568000E-03	 2.34019000E-03
					-1.27604000E-01	 4.31234000E-02	 1.18383000E-03
					-1.34346000E-01	-9.22756000E-03	 1.24058000E-03
					-6.37677000E-02	 2.15572000E-02	 1.08780000E-03
					-6.71858000E-02	-4.51709000E-03	 1.05936000E-03
					-1.27470000E-01	 4.30254000E-02	 1.42551000E-03
					-1.33551000E-01	 1.73273000E-02	 1.19719000E-03
					-1.34282000E-01	-8.80354000E-03	 1.36402000E-03
					-9.56652000E-02	 3.23296000E-02	 1.14306000E-03
					-1.00769000E-01	-6.84832000E-03	 1.14933000E-03
					-6.37579000E-02	 2.15243000E-02	 1.53477000E-03
					-6.67477000E-02	 8.65417000E-03	 1.08384000E-03
					-6.71303000E-02	-4.48406000E-03	 1.56008000E-03
					-1.27715000E-01	 4.31280000E-02	 6.30555000E-04
					-1.34498000E-01	-9.04610000E-03	 6.38085000E-04
					-6.38478000E-02	 2.15681000E-02	 6.24106000E-04
					-6.72510000E-02	-4.50733000E-03	 6.15338000E-04
					-1.27684000E-01	 4.30868000E-02	 8.65213000E-04
					-1.33672000E-01	 1.73623000E-02	 6.38204000E-04
					-1.34449000E-01	-9.04799000E-03	 8.60706000E-04
					-9.57869000E-02	 3.23505000E-02	 6.25195000E-04
					-1.00874000E-01	-6.78364000E-03	 6.26937000E-04
					-6.38463000E-02	 2.15564000E-02	 8.69371000E-04
					-6.68370000E-02	 8.70614000E-03	 6.16977000E-04
					-6.72256000E-02	-4.51834000E-03	 8.76058000E-04
					-1.27763000E-01	 4.31102000E-02	 3.01736000E-04
					-1.34533000E-01	-9.07235000E-03	 3.04033000E-04
					-6.38784000E-02	 2.15650000E-02	 3.00358000E-04
					-6.72684000E-02	-4.52233000E-03	 2.98928000E-04
					-1.27747000E-01	 4.31093000E-02	 4.37252000E-04
					-1.33718000E-01	 1.73557000E-02	 3.01882000E-04
					-1.34523000E-01	-9.05005000E-03	 4.34542000E-04
					-9.58194000E-02	 3.23365000E-02	 3.01536000E-04
					-1.00901000E-01	-6.79591000E-03	 3.01389000E-04
					-6.38721000E-02	 2.15610000E-02	 4.37318000E-04
					-6.68572000E-02	 8.68586000E-03	 3.00381000E-04
					-6.72617000E-02	-4.52233000E-03	 4.38666000E-04
					-1.27773000E-01	 4.31039000E-02	 1.43842000E-04
					-1.34542000E-01	-9.07363000E-03	 1.43989000E-04
					-6.38842000E-02	 2.15600000E-02	 1.43980000E-04
					-6.72724000E-02	-4.52837000E-03	 1.43563000E-04
					-1.27770000E-01	 4.31055000E-02	 2.06961000E-04
					-1.33727000E-01	 1.73476000E-02	 1.44175000E-04
					-1.34540000E-01	-9.07189000E-03	 2.06998000E-04
					-9.58292000E-02	 3.23319000E-02	 1.43730000E-04
					-1.00907000E-01	-6.80179000E-03	 1.43756000E-04
					-6.38831000E-02	 2.15614000E-02	 2.05773000E-04
					-6.68633000E-02	 8.68328000E-03	 1.43573000E-04
					-6.72710000E-02	-4.52709000E-03	 2.06084000E-04
					-1.27776000E-01	 4.31004000E-02	 7.82037000E-05
					-1.34544000E-01	-9.07869000E-03	 7.82860000E-05
					-6.38861000E-02	 2.15586000E-02	 7.80181000E-05
					-6.72731000E-02	-4.53057000E-03	 7.79727000E-05
					-1.27775000E-01	 4.31020000E-02	 1.03523000E-04
					-1.33730000E-01	 1.73444000E-02	 7.81786000E-05
					-1.34544000E-01	-9.07594000E-03	 1.03404000E-04
					-9.58313000E-02	 3.23292000E-02	 7.81268000E-05
					-1.00908000E-01	-6.80484000E-03	 7.81037000E-05
					-6.38855000E-02	 2.15592000E-02	 1.03281000E-04
					-6.68643000E-02	 8.68067000E-03	 7.80483000E-05
					-6.72729000E-02	-4.52972000E-03	 1.03330000E-04
					-1.27777000E-01	 4.30989000E-02	 5.46398000E-05
					-1.34544000E-01	-9.07990000E-03	 5.46372000E-05
					-6.38864000E-02	 2.15576000E-02	 5.43490000E-05
					-6.72731000E-02	-4.53161000E-03	 5.43312000E-05
					-1.27777000E-01	 4.30998000E-02	 6.30849000E-05
					-1.33730000E-01	 1.73427000E-02	 5.46540000E-05
					-1.34544000E-01	-9.07914000E-03	 6.30990000E-05
					-9.58318000E-02	 3.23280000E-02	 5.45202000E-05
					-1.00908000E-01	-6.80607000E-03	 5.45212000E-05
					-6.38863000E-02	 2.15583000E-02	 6.29393000E-05
					-6.68646000E-02	 8.67982000E-03	 5.43264000E-05
					-6.72732000E-02	-4.53097000E-03	 6.29517000E-05
					-1.27777000E-01	 4.30982000E-02	 4.93932000E-05
					-1.34543000E-01	-9.08057000E-03	 4.93966000E-05
					-6.38863000E-02	 2.15573000E-02	 4.74262000E-05
					-6.72728000E-02	-4.53188000E-03	 4.74256000E-05
					-1.27777000E-01	 4.30990000E-02	 5.01089000E-05
					-1.33730000E-01	 1.73421000E-02	 4.93958000E-05
					-1.34544000E-01	-9.07983000E-03	 5.01027000E-05
					-9.58316000E-02	 3.23273000E-02	 4.82485000E-05
					-1.00908000E-01	-6.80668000E-03	 4.82470000E-05
					-6.38862000E-02	 2.15580000E-02	 5.03073000E-05
					-6.68643000E-02	 8.67953000E-03	 4.74282000E-05
					-6.72731000E-02	-4.53118000E-03	 5.03085000E-05
					-1.27774000E-01	 4.31037000E-02	 5.03532000E-05
					-1.34543000E-01	-9.07438000E-03	 5.03527000E-05
					-6.38843000E-02	 2.15625000E-02	 4.01988000E-05
					-6.72730000E-02	-4.52626000E-03	 4.01980000E-05
					-1.27776000E-01	 4.30983000E-02	 4.80683000E-05
					-1.33728000E-01	 1.73476000E-02	 5.03400000E-05
					-1.34543000E-01	-9.08015000E-03	 4.80695000E-05
					-9.58291000E-02	 3.23334000E-02	 4.58864000E-05
					-1.00908000E-01	-6.80010000E-03	 4.58866000E-05
					-6.38859000E-02	 2.15577000E-02	 5.00971000E-05
					-6.68634000E-02	 8.68472000E-03	 4.02016000E-05
					-6.72726000E-02	-4.53140000E-03	 5.00976000E-05
					-1.27752000E-01	 4.31801000E-02	 1.59555000E-05
					-1.34552000E-01	-8.99547000E-03	 1.59559000E-05
					-6.38639000E-02	 2.16365000E-02	 1.60718000E-05
					-6.72825000E-02	-4.45013000E-03	 1.60719000E-05
					-1.27777000E-01	 4.30920000E-02	 5.55644000E-05
					-1.33722000E-01	 1.74266000E-02	 1.59967000E-05
					-1.34541000E-01	-9.08620000E-03	 5.55640000E-05
					-9.58088000E-02	 3.24058000E-02	 1.37302000E-05
					-1.00917000E-01	-6.72534000E-03	 1.37301000E-05
					-6.38868000E-02	 2.15520000E-02	 6.65316000E-05
					-6.68579000E-02	 8.76072000E-03	 1.60605000E-05
					-6.72713000E-02	-4.53695000E-03	 6.65317000E-05
					-1.02339000E-01	 8.75476000E-02	-2.11336000E-04
					-1.01183000E-01	 8.85495000E-02	 1.53348000E-03
					-5.21836000E-02	 4.24416000E-02	-1.04546000E-04
					-5.06396000E-02	 4.42112000E-02	 1.19475000E-03
					-1.17731000E-01	 6.53977000E-02	-4.06303000E-04
					-1.01313000E-01	 8.85160000E-02	 1.94742000E-03
					-1.16496000E-01	 6.69577000E-02	 1.54880000E-03
					-7.71279000E-02	 6.51702000E-02	-1.60779000E-04
					-7.59467000E-02	 6.63339000E-02	 1.36324000E-03
					-5.88278000E-02	 3.04636000E-02	 7.47975000E-06
					-5.05916000E-02	 4.43440000E-02	 2.30232000E-03
					-5.82115000E-02	 3.32496000E-02	 1.20424000E-03
					-1.01353000E-01	 8.86930000E-02	 1.17448000E-03
					-5.06720000E-02	 4.43526000E-02	 1.09701000E-03
					-1.01340000E-01	 8.85134000E-02	 1.43392000E-03
					-1.16724000E-01	 6.72165000E-02	 1.17735000E-03
					-7.60032000E-02	 6.65351000E-02	 1.13522000E-03
					-5.06597000E-02	 4.42701000E-02	 1.52677000E-03
					-5.83353000E-02	 3.36014000E-02	 1.09620000E-03
					-1.01491000E-01	 8.87206000E-02	 6.27522000E-04
					-5.07343000E-02	 4.43751000E-02	 6.22866000E-04
					-1.01471000E-01	 8.86685000E-02	 8.68520000E-04
					-1.16848000E-01	 6.72108000E-02	 6.29726000E-04
					-7.61155000E-02	 6.65442000E-02	 6.25206000E-04
					-5.07371000E-02	 4.43321000E-02	 8.70532000E-04
					-5.84154000E-02	 3.36171000E-02	 6.22351000E-04
					-1.01539000E-01	 8.87216000E-02	 3.01582000E-04
					-5.07639000E-02	 4.43680000E-02	 3.01151000E-04
					-1.01528000E-01	 8.87143000E-02	 4.37283000E-04
					-1.16897000E-01	 6.72085000E-02	 3.01418000E-04
					-7.61507000E-02	 6.65454000E-02	 3.01247000E-04
					-5.07586000E-02	 4.43641000E-02	 4.36612000E-04
					-5.84437000E-02	 3.36124000E-02	 3.01086000E-04
					-1.01552000E-01	 8.87194000E-02	 1.43746000E-04
					-5.07706000E-02	 4.43669000E-02	 1.43873000E-04
					-1.01548000E-01	 8.87199000E-02	 2.07089000E-04
					-1.16909000E-01	 6.72026000E-02	 1.43872000E-04
					-7.61618000E-02	 6.65427000E-02	 1.43798000E-04
					-5.07692000E-02	 4.43664000E-02	 2.05871000E-04
					-5.84507000E-02	 3.36092000E-02	 1.43829000E-04
					-1.01556000E-01	 8.87176000E-02	 7.82248000E-05
					-5.07729000E-02	 4.43656000E-02	 7.80673000E-05
					-1.01555000E-01	 8.87185000E-02	 1.03493000E-04
					-1.16913000E-01	 6.72003000E-02	 7.81898000E-05
					-7.61647000E-02	 6.65414000E-02	 7.81145000E-05
					-5.07721000E-02	 4.43662000E-02	 1.03237000E-04
					-5.84526000E-02	 3.36079000E-02	 7.80706000E-05
					-1.01557000E-01	 8.87164000E-02	 5.46355000E-05
					-5.07736000E-02	 4.43650000E-02	 5.43390000E-05
					-1.01557000E-01	 8.87171000E-02	 6.30922000E-05
					-1.16914000E-01	 6.71988000E-02	 5.46436000E-05
					-7.61657000E-02	 6.65404000E-02	 5.45262000E-05
					-5.07732000E-02	 4.43654000E-02	 6.29485000E-05
					-5.84532000E-02	 3.36070000E-02	 5.43364000E-05
					-1.01557000E-01	 8.87156000E-02	 4.93955000E-05
					-5.07736000E-02	 4.43646000E-02	 4.74294000E-05
					-1.01557000E-01	 8.87164000E-02	 5.01059000E-05
					-1.16914000E-01	 6.71981000E-02	 4.93973000E-05
					-7.61658000E-02	 6.65397000E-02	 4.82475000E-05
					-5.07733000E-02	 4.43652000E-02	 5.03045000E-05
					-5.84531000E-02	 3.36067000E-02	 4.74286000E-05
					-1.01553000E-01	 8.87197000E-02	 5.03527000E-05
					-5.07698000E-02	 4.43687000E-02	 4.01980000E-05
					-1.01557000E-01	 8.87155000E-02	 4.80689000E-05
					-1.16910000E-01	 6.72026000E-02	 5.03396000E-05
					-7.61611000E-02	 6.65443000E-02	 4.58868000E-05
					-5.07731000E-02	 4.43647000E-02	 5.00978000E-05
					-5.84503000E-02	 3.36112000E-02	 4.02019000E-05
					-1.01503000E-01	 8.87819000E-02	 1.59556000E-05
					-5.07226000E-02	 4.44292000E-02	 1.60722000E-05
					-1.01560000E-01	 8.87098000E-02	 5.55642000E-05
					-1.16874000E-01	 6.72731000E-02	 1.59967000E-05
					-7.61146000E-02	 6.66035000E-02	 1.37300000E-05
					-5.07761000E-02	 4.43599000E-02	 6.65315000E-05
					-5.84161000E-02	 3.36793000E-02	 1.60605000E-05
					-6.24039000E-02	 1.19144000E-01	-5.98080000E-04
					-5.97602000E-02	 1.20505000E-01	 1.55479000E-03
					-3.42549000E-02	 5.96400000E-02	 3.68113000E-05
					-3.03637000E-02	 6.02983000E-02	 1.23954000E-03
					-8.37057000E-02	 1.05427000E-01	-4.06900000E-04
					-5.95774000E-02	 1.20534000E-01	 1.91489000E-03
					-8.21135000E-02	 1.06566000E-01	 1.54845000E-03
					-4.85394000E-02	 8.96331000E-02	-1.84729000E-04
					-4.50038000E-02	 9.03383000E-02	 1.36956000E-03
					-4.40182000E-02	 5.21490000E-02	 8.04262000E-06
					-2.92851000E-02	 6.02646000E-02	 2.26159000E-03
					-4.12872000E-02	 5.32555000E-02	 1.20432000E-03
					-5.97214000E-02	 1.20696000E-01	 1.18366000E-03
					-2.98742000E-02	 6.03794000E-02	 1.08785000E-03
					-5.97311000E-02	 1.20593000E-01	 1.42569000E-03
					-8.20979000E-02	 1.06747000E-01	 1.17727000E-03
					-4.48137000E-02	 9.05545000E-02	 1.14300000E-03
					-2.98483000E-02	 6.02776000E-02	 1.53469000E-03
					-4.10629000E-02	 5.33977000E-02	 1.09623000E-03
					-5.98145000E-02	 1.20809000E-01	 6.30517000E-04
					-2.99060000E-02	 6.04147000E-02	 6.24115000E-04
					-5.98146000E-02	 1.20745000E-01	 8.65237000E-04
					-8.22380000E-02	 1.06816000E-01	 6.29705000E-04
					-4.48564000E-02	 9.06069000E-02	 6.25180000E-04
					-2.98935000E-02	 6.03719000E-02	 8.69373000E-04
					-4.11101000E-02	 5.34195000E-02	 6.22355000E-04
					-5.98574000E-02	 1.20823000E-01	 3.01728000E-04
					-2.99201000E-02	 6.04175000E-02	 3.00360000E-04
					-5.98494000E-02	 1.20816000E-01	 4.37262000E-04
					-8.22777000E-02	 1.06825000E-01	 3.01415000E-04
					-4.48901000E-02	 9.06216000E-02	 3.01533000E-04
					-2.99190000E-02	 6.04112000E-02	 4.37314000E-04
					-4.11324000E-02	 5.34196000E-02	 3.01088000E-04
					-5.98704000E-02	 1.20829000E-01	 1.43841000E-04
					-2.99281000E-02	 6.04189000E-02	 1.43980000E-04
					-5.98666000E-02	 1.20827000E-01	 2.06961000E-04
					-8.22929000E-02	 1.06827000E-01	 1.43871000E-04
					-4.48992000E-02	 9.06233000E-02	 1.43730000E-04
					-2.99255000E-02	 6.04176000E-02	 2.05774000E-04
					-4.11399000E-02	 5.34192000E-02	 1.43830000E-04
					-5.98749000E-02	 1.20828000E-01	 7.82034000E-05
					-2.99300000E-02	 6.04185000E-02	 7.80183000E-05
					-5.98731000E-02	 1.20829000E-01	 1.03523000E-04
					-8.22968000E-02	 1.06825000E-01	 7.81898000E-05
					-4.49028000E-02	 9.06232000E-02	 7.81267000E-05
					-2.99292000E-02	 6.04187000E-02	 1.03281000E-04
					-4.11420000E-02	 5.34185000E-02	 7.80706000E-05
					-5.98765000E-02	 1.20828000E-01	 5.46398000E-05
					-2.99310000E-02	 6.04181000E-02	 5.43490000E-05
					-5.98757000E-02	 1.20828000E-01	 6.30848000E-05
					-8.22983000E-02	 1.06825000E-01	 5.46435000E-05
					-4.49040000E-02	 9.06227000E-02	 5.45202000E-05
					-2.99304000E-02	 6.04184000E-02	 6.29394000E-05
					-4.11429000E-02	 5.34179000E-02	 5.43365000E-05
					-5.98768000E-02	 1.20827000E-01	 4.93932000E-05
					-2.99311000E-02	 6.04177000E-02	 4.74263000E-05
					-5.98764000E-02	 1.20828000E-01	 5.01089000E-05
					-8.22984000E-02	 1.06824000E-01	 4.93973000E-05
					-4.49044000E-02	 9.06220000E-02	 4.82485000E-05
					-2.99306000E-02	 6.04182000E-02	 5.03073000E-05
					-4.11429000E-02	 5.34176000E-02	 4.74286000E-05
					-5.98710000E-02	 1.20829000E-01	 5.03532000E-05
					-2.99260000E-02	 6.04200000E-02	 4.01988000E-05
					-5.98763000E-02	 1.20827000E-01	 4.80683000E-05
					-8.22935000E-02	 1.06827000E-01	 5.03396000E-05
					-4.48983000E-02	 9.06246000E-02	 4.58864000E-05
					-2.99306000E-02	 6.04177000E-02	 5.00971000E-05
					-4.11386000E-02	 5.34206000E-02	 4.02019000E-05
					-5.98015000E-02	 1.20867000E-01	 1.59555000E-05
					-2.98593000E-02	 6.04580000E-02	 1.60718000E-05
					-5.98811000E-02	 1.20822000E-01	 5.55644000E-05
					-8.22330000E-02	 1.06878000E-01	 1.59967000E-05
					-4.48326000E-02	 9.06614000E-02	 1.37302000E-05
					-2.99352000E-02	 6.04144000E-02	 6.65316000E-05
					-4.10809000E-02	 5.34705000E-02	 1.60605000E-05
					-2.00986000E-02	 1.32984000E-01	 0.00000000E+00
					-1.00780000E-02	 1.34008000E-01	 1.72300000E-03
					-9.99607000E-03	 6.64805000E-02	 3.18535000E-05
					-5.06594000E-03	 6.69975000E-02	 1.12694000E-03
					-4.12631000E-02	 1.28607000E-01	-5.23813000E-04
					-8.17266000E-03	 1.34347000E-01	 1.78789000E-03
					-3.57663000E-02	 1.29740000E-01	 1.69634000E-03
					-1.46914000E-02	 9.97749000E-02	 1.40234000E-05
					-7.66357000E-03	 1.00492000E-01	 1.43321000E-03
					-2.29438000E-02	 6.43521000E-02	 1.76548000E-04
					-3.92568000E-03	 6.71976000E-02	 2.34019000E-03
					-1.79212000E-02	 6.48839000E-02	 1.14517000E-03
					-9.22756000E-03	 1.34346000E-01	 1.24058000E-03
					-4.51709000E-03	 6.71858000E-02	 1.05936000E-03
					-8.80354000E-03	 1.34282000E-01	 1.36402000E-03
					-3.51018000E-02	 1.30022000E-01	 1.19714000E-03
					-6.84832000E-03	 1.00769000E-01	 1.14933000E-03
					-4.48406000E-03	 6.71303000E-02	 1.56008000E-03
					-1.75674000E-02	 6.50350000E-02	 1.08386000E-03
					-9.04610000E-03	 1.34498000E-01	 6.38085000E-04
					-4.50733000E-03	 6.72510000E-02	 6.15338000E-04
					-9.04799000E-03	 1.34449000E-01	 8.60706000E-04
					-3.51176000E-02	 1.30153000E-01	 6.38177000E-04
					-6.78364000E-03	 1.00874000E-01	 6.26937000E-04
					-4.51834000E-03	 6.72256000E-02	 8.76058000E-04
					-1.75345000E-02	 6.50826000E-02	 6.16983000E-04
					-9.07235000E-03	 1.34533000E-01	 3.04033000E-04
					-4.52233000E-03	 6.72684000E-02	 2.98928000E-04
					-9.05005000E-03	 1.34523000E-01	 4.34542000E-04
					-3.51367000E-02	 1.30180000E-01	 3.01881000E-04
					-6.79591000E-03	 1.00901000E-01	 3.01389000E-04
					-4.52233000E-03	 6.72617000E-02	 4.38666000E-04
					-1.75611000E-02	 6.50939000E-02	 3.00381000E-04
					-9.07363000E-03	 1.34542000E-01	 1.43989000E-04
					-4.52837000E-03	 6.72724000E-02	 1.43563000E-04
					-9.07189000E-03	 1.34540000E-01	 2.06998000E-04
					-3.51483000E-02	 1.30187000E-01	 1.44174000E-04
					-6.80179000E-03	 1.00907000E-01	 1.43756000E-04
					-4.52709000E-03	 6.72710000E-02	 2.06084000E-04
					-1.75651000E-02	 6.50964000E-02	 1.43574000E-04
					-9.07869000E-03	 1.34544000E-01	 7.82860000E-05
					-4.53057000E-03	 6.72731000E-02	 7.79727000E-05
					-9.07594000E-03	 1.34544000E-01	 1.03404000E-04
					-3.51520000E-02	 1.30187000E-01	 7.81787000E-05
					-6.80484000E-03	 1.00908000E-01	 7.81037000E-05
					-4.52972000E-03	 6.72729000E-02	 1.03330000E-04
					-1.75680000E-02	 6.50966000E-02	 7.80483000E-05
					-9.07990000E-03	 1.34544000E-01	 5.46372000E-05
					-4.53161000E-03	 6.72731000E-02	 5.43312000E-05
					-9.07914000E-03	 1.34544000E-01	 6.30990000E-05
					-3.51538000E-02	 1.30187000E-01	 5.46539000E-05
					-6.80607000E-03	 1.00908000E-01	 5.45212000E-05
					-4.53097000E-03	 6.72732000E-02	 6.29517000E-05
					-1.75688000E-02	 6.50964000E-02	 5.43264000E-05
					-9.08057000E-03	 1.34543000E-01	 4.93966000E-05
					-4.53188000E-03	 6.72728000E-02	 4.74256000E-05
					-9.07983000E-03	 1.34544000E-01	 5.01027000E-05
					-3.51541000E-02	 1.30187000E-01	 4.93958000E-05
					-6.80668000E-03	 1.00908000E-01	 4.82470000E-05
					-4.53118000E-03	 6.72731000E-02	 5.03085000E-05
					-1.75690000E-02	 6.50961000E-02	 4.74282000E-05
					-9.07438000E-03	 1.34543000E-01	 5.03527000E-05
					-4.52626000E-03	 6.72730000E-02	 4.01980000E-05
					-9.08015000E-03	 1.34543000E-01	 4.80695000E-05
					-3.51484000E-02	 1.30187000E-01	 5.03400000E-05
					-6.80010000E-03	 1.00908000E-01	 4.58866000E-05
					-4.53140000E-03	 6.72726000E-02	 5.00976000E-05
					-1.75639000E-02	 6.50973000E-02	 4.02016000E-05
					-8.99547000E-03	 1.34552000E-01	 1.59559000E-05
					-4.45013000E-03	 6.72825000E-02	 1.60719000E-05
					-9.08620000E-03	 1.34541000E-01	 5.55640000E-05
					-3.50730000E-02	 1.30211000E-01	 1.59968000E-05
					-6.72534000E-03	 1.00917000E-01	 1.37301000E-05
					-4.53695000E-03	 6.72713000E-02	 6.65317000E-05
					-1.74916000E-02	 6.51213000E-02	 1.60605000E-05
					 2.00986000E-02	-1.32984000E-01	 0.00000000E+00
					-4.01791000E-02	-1.28565000E-01	-5.97029000E-04
					-4.29221000E-02	-1.27349000E-01	 1.55548000E-03
					 1.00780000E-02	-1.34008000E-01	 1.72300000E-03
					 9.99607000E-03	-6.64805000E-02	 3.18535000E-05
					-1.71675000E-02	-6.33925000E-02	 3.58810000E-05
					-2.10081000E-02	-6.34998000E-02	 1.23934000E-03
					 5.06594000E-03	-6.69975000E-02	 1.12694000E-03
					-1.10269000E-02	-1.33474000E-01	-5.23561000E-04
					-4.31484000E-02	-1.27527000E-01	 1.91447000E-03
					-1.65832000E-02	-1.33203000E-01	 1.69676000E-03
					 8.17266000E-03	-1.34347000E-01	 1.78789000E-03
					 1.46914000E-02	-9.97749000E-02	 1.40234000E-05
					-2.85366000E-02	-9.56907000E-02	-1.84705000E-04
					-3.20039000E-02	-9.55008000E-02	 1.36980000E-03
					 7.66357000E-03	-1.00492000E-01	 1.43321000E-03
					-3.30043000E-03	-6.60511000E-02	 1.76067000E-04
					-2.20579000E-02	-6.39017000E-02	 2.26166000E-03
					-8.25973000E-03	-6.65743000E-02	 1.14507000E-03
					 3.92568000E-03	-6.71976000E-02	 2.34019000E-03
					-4.31234000E-02	-1.27604000E-01	 1.18383000E-03