# vtk DataFile Version 3.0

ASCII
DATASET UNSTRUCTURED_GRID

POINTS 5407 double
	 1.00000000E-01	-1.00000000E-01	 0.00000000E+00
	 1.00000000E-01	-3.25000000E-01	 0.00000000E+00
	 1.00000000E-01	-3.25000000E-01	 2.00000000E-01
	 1.00000000E-01	-1.00000000E-01	 2.00000000E-01
	 0.00000000E+00	-1.00000000E-01	 0.00000000E+00
	 0.00000000E+00	-3.25000000E-01	 0.00000000E+00
	 3.46945000E-18	-3.25000000E-01	 2.00000000E-01
	 0.00000000E+00	-1.00000000E-01	 2.00000000E-01
	 1.00000000E-01	-3.25000000E-01	 4.00000000E-01
	 1.00000000E-01	-1.00000000E-01	 4.00000000E-01
	 0.00000000E+00	-3.25000000E-01	 4.00000000E-01
	 0.00000000E+00	-1.00000000E-01	 4.00000000E-01
	 1.00000000E-01	-3.25000000E-01	 6.00000000E-01
	 1.00000000E-01	-1.00000000E-01	 6.00000000E-01
	 0.00000000E+00	-3.25000000E-01	 6.00000000E-01
	 0.00000000E+00	-1.00000000E-01	 6.00000000E-01
	 1.00000000E-01	-3.25000000E-01	 8.00000000E-01
	 1.00000000E-01	-1.00000000E-01	 8.00000000E-01
	 0.00000000E+00	-3.25000000E-01	 8.00000000E-01
	 0.00000000E+00	-1.00000000E-01	 8.00000000E-01
	-1.00000000E-01	-1.00000000E-01	 0.00000000E+00
	-1.00000000E-01	-3.25000000E-01	 0.00000000E+00
	-1.00000000E-01	-3.25000000E-01	 2.00000000E-01
	-1.00000000E-01	-1.00000000E-01	 2.00000000E-01
	-1.00000000E-01	-3.25000000E-01	 4.00000000E-01
	-1.00000000E-01	-1.00000000E-01	 4.00000000E-01
	-1.00000000E-01	-3.25000000E-01	 6.00000000E-01
	-1.00000000E-01	-1.00000000E-01	 6.00000000E-01
	-1.00000000E-01	-3.25000000E-01	 8.00000000E-01
	-1.00000000E-01	-1.00000000E-01	 8.00000000E-01
	 1.00000000E-01	-5.50000000E-01	 0.00000000E+00
	 1.00000000E-01	-5.50000000E-01	 2.00000000E-01
	 0.00000000E+00	-5.50000000E-01	 0.00000000E+00
	 0.00000000E+00	-5.50000000E-01	 2.00000000E-01
	 1.00000000E-01	-5.50000000E-01	 4.00000000E-01
	 0.00000000E+00	-5.50000000E-01	 4.00000000E-01
	 1.00000000E-01	-5.50000000E-01	 6.00000000E-01
	 0.00000000E+00	-5.50000000E-01	 6.00000000E-01
	 1.00000000E-01	-5.50000000E-01	 8.00000000E-01
	 0.00000000E+00	-5.50000000E-01	 8.00000000E-01
	-1.00000000E-01	-5.50000000E-01	 0.00000000E+00
	-1.00000000E-01	-5.50000000E-01	 2.00000000E-01
	-1.00000000E-01	-5.50000000E-01	 4.00000000E-01
	-1.00000000E-01	-5.50000000E-01	 6.00000000E-01
	-1.00000000E-01	-5.50000000E-01	 8.00000000E-01
	 1.00000000E-01	-7.75000000E-01	 0.00000000E+00
	 1.00000000E-01	-7.75000000E-01	 2.00000000E-01
	 0.00000000E+00	-7.75000000E-01	 0.00000000E+00
	 3.46945000E-18	-7.75000000E-01	 2.00000000E-01
	 1.00000000E-01	-7.75000000E-01	 4.00000000E-01
	 0.00000000E+00	-7.75000000E-01	 4.00000000E-01
	 1.00000000E-01	-7.75000000E-01	 6.00000000E-01
	 0.00000000E+00	-7.75000000E-01	 6.00000000E-01
	 1.00000000E-01	-7.75000000E-01	 8.00000000E-01
	 0.00000000E+00	-7.75000000E-01	 8.00000000E-01
	-1.00000000E-01	-7.75000000E-01	 0.00000000E+00
	-1.00000000E-01	-7.75000000E-01	 2.00000000E-01
	-1.00000000E-01	-7.75000000E-01	 4.00000000E-01
	-1.00000000E-01	-7.75000000E-01	 6.00000000E-01
	-1.00000000E-01	-7.75000000E-01	 8.00000000E-01
	 1.00000000E-01	-1.00000000E+00	 0.00000000E+00
	 1.00000000E-01	-1.00000000E+00	 2.00000000E-01
	 0.00000000E+00	-1.00000000E+00	 0.00000000E+00
	 0.00000000E+00	-1.00000000E+00	 2.00000000E-01
	 1.00000000E-01	-1.00000000E+00	 4.00000000E-01
	 0.00000000E+00	-1.00000000E+00	 4.00000000E-01
	 1.00000000E-01	-1.00000000E+00	 6.00000000E-01
	 0.00000000E+00	-1.00000000E+00	 6.00000000E-01
	 1.00000000E-01	-1.00000000E+00	 8.00000000E-01
	 0.00000000E+00	-1.00000000E+00	 8.00000000E-01
	-1.00000000E-01	-1.00000000E+00	 0.00000000E+00
	-1.00000000E-01	-1.00000000E+00	 2.00000000E-01
	-1.00000000E-01	-1.00000000E+00	 4.00000000E-01
	-1.00000000E-01	-1.00000000E+00	 6.00000000E-01
	-1.00000000E-01	-1.00000000E+00	 8.00000000E-01
	 1.00000000E+00	 1.00000000E+00	 0.00000000E+00
	 1.00000000E+00	 7.75000000E-01	 0.00000000E+00
	 1.00000000E+00	 7.75000000E-01	 2.00000000E-01
	 1.00000000E+00	 1.00000000E+00	 2.00000000E-01
	 7.75000000E-01	 1.00000000E+00	 0.00000000E+00
	 7.75000000E-01	 7.75000000E-01	 0.00000000E+00
	 7.75000000E-01	 7.75000000E-01	 2.00000000E-01
	 7.75000000E-01	 1.00000000E+00	 2.00000000E-01
	 1.00000000E+00	 7.75000000E-01	 4.00000000E-01
	 1.00000000E+00	 1.00000000E+00	 4.00000000E-01
	 7.75000000E-01	 7.75000000E-01	 4.00000000E-01
	 7.75000000E-01	 1.00000000E+00	 4.00000000E-01
	 1.00000000E+00	 7.75000000E-01	 6.00000000E-01
	 1.00000000E+00	 1.00000000E+00	 6.00000000E-01
	 7.75000000E-01	 7.75000000E-01	 6.00000000E-01
	 7.75000000E-01	 1.00000000E+00	 6.00000000E-01
	 1.00000000E+00	 7.75000000E-01	 8.00000000E-01
	 1.00000000E+00	 1.00000000E+00	 8.00000000E-01
	 7.75000000E-01	 7.75000000E-01	 8.00000000E-01
	 7.75000000E-01	 1.00000000E+00	 8.00000000E-01
	 5.50000000E-01	 1.00000000E+00	 0.00000000E+00
	 5.50000000E-01	 7.75000000E-01	 0.00000000E+00
	 5.50000000E-01	 7.75000000E-01	 2.00000000E-01
	 5.50000000E-01	 1.00000000E+00	 2.00000000E-01
	 5.50000000E-01	 7.75000000E-01	 4.00000000E-01
	 5.50000000E-01	 1.00000000E+00	 4.00000000E-01
	 5.50000000E-01	 7.75000000E-01	 6.00000000E-01
	 5.50000000E-01	 1.00000000E+00	 6.00000000E-01
	 5.50000000E-01	 7.75000000E-01	 8.00000000E-01
	 5.50000000E-01	 1.00000000E+00	 8.00000000E-01
	 3.25000000E-01	 1.00000000E+00	 0.00000000E+00
	 3.25000000E-01	 7.75000000E-01	 0.00000000E+00
	 3.25000000E-01	 7.75000000E-01	 2.00000000E-01
	 3.25000000E-01	 1.00000000E+00	 2.00000000E-01
	 3.25000000E-01	 7.75000000E-01	 4.00000000E-01
	 3.25000000E-01	 1.00000000E+00	 4.00000000E-01
	 3.25000000E-01	 7.75000000E-01	 6.00000000E-01
	 3.25000000E-01	 1.00000000E+00	 6.00000000E-01
	 3.25000000E-01	 7.75000000E-01	 8.00000000E-01
	 3.25000000E-01	 1.00000000E+00	 8.00000000E-01
	 1.00000000E-01	 1.00000000E+00	 0.00000000E+00
	 1.00000000E-01	 7.75000000E-01	 0.00000000E+00
	 1.00000000E-01	 7.75000000E-01	 2.00000000E-01
	 1.00000000E-01	 1.00000000E+00	 2.00000000E-01
	 1.00000000E-01	 7.75000000E-01	 4.00000000E-01
	 1.00000000E-01	 1.00000000E+00	 4.00000000E-01
	 1.00000000E-01	 7.75000000E-01	 6.00000000E-01
	 1.00000000E-01	 1.00000000E+00	 6.00000000E-01
	 1.00000000E-01	 7.75000000E-01	 8.00000000E-01
	 1.00000000E-01	 1.00000000E+00	 8.00000000E-01
	 1.00000000E+00	 5.50000000E-01	 0.00000000E+00
	 1.00000000E+00	 5.50000000E-01	 2.00000000E-01
	 7.75000000E-01	 5.50000000E-01	 0.00000000E+00
	 7.75000000E-01	 5.50000000E-01	 2.00000000E-01
	 1.00000000E+00	 5.50000000E-01	 4.00000000E-01
	 7.75000000E-01	 5.50000000E-01	 4.00000000E-01
	 1.00000000E+00	 5.50000000E-01	 6.00000000E-01
	 7.75000000E-01	 5.50000000E-01	 6.00000000E-01
	 1.00000000E+00	 5.50000000E-01	 8.00000000E-01
	 7.75000000E-01	 5.50000000E-01	 8.00000000E-01
	 5.50000000E-01	 5.50000000E-01	 0.00000000E+00
	 5.50000000E-01	 5.50000000E-01	 2.00000000E-01
	 5.50000000E-01	 5.50000000E-01	 4.00000000E-01
	 5.50000000E-01	 5.50000000E-01	 6.00000000E-01
	 5.50000000E-01	 5.50000000E-01	 8.00000000E-01
	 3.25000000E-01	 5.50000000E-01	 0.00000000E+00
	 3.25000000E-01	 5.50000000E-01	 2.00000000E-01
	 3.25000000E-01	 5.50000000E-01	 4.00000000E-01
	 3.25000000E-01	 5.50000000E-01	 6.00000000E-01
	 3.25000000E-01	 5.50000000E-01	 8.00000000E-01
	 1.00000000E-01	 5.50000000E-01	 0.00000000E+00
	 1.00000000E-01	 5.50000000E-01	 2.00000000E-01
	 1.00000000E-01	 5.50000000E-01	 4.00000000E-01
	 1.00000000E-01	 5.50000000E-01	 6.00000000E-01
	 1.00000000E-01	 5.50000000E-01	 8.00000000E-01
	 1.00000000E+00	 3.25000000E-01	 0.00000000E+00
	 1.00000000E+00	 3.25000000E-01	 2.00000000E-01
	 7.75000000E-01	 3.25000000E-01	 0.00000000E+00
	 7.75000000E-01	 3.25000000E-01	 2.00000000E-01
	 1.00000000E+00	 3.25000000E-01	 4.00000000E-01
	 7.75000000E-01	 3.25000000E-01	 4.00000000E-01
	 1.00000000E+00	 3.25000000E-01	 6.00000000E-01
	 7.75000000E-01	 3.25000000E-01	 6.00000000E-01
	 1.00000000E+00	 3.25000000E-01	 8.00000000E-01
	 7.75000000E-01	 3.25000000E-01	 8.00000000E-01
	 5.50000000E-01	 3.25000000E-01	 0.00000000E+00
	 5.50000000E-01	 3.25000000E-01	 2.00000000E-01
	 5.50000000E-01	 3.25000000E-01	 4.00000000E-01
	 5.50000000E-01	 3.25000000E-01	 6.00000000E-01
	 5.50000000E-01	 3.25000000E-01	 8.00000000E-01
	 3.25000000E-01	 3.25000000E-01	 0.00000000E+00
	 3.25000000E-01	 3.25000000E-01	 2.00000000E-01
	 3.25000000E-01	 3.25000000E-01	 4.00000000E-01
	 3.25000000E-01	 3.25000000E-01	 6.00000000E-01
	 3.25000000E-01	 3.25000000E-01	 8.00000000E-01
	 1.00000000E-01	 3.25000000E-01	 0.00000000E+00
	 1.00000000E-01	 3.25000000E-01	 2.00000000E-01
	 1.00000000E-01	 3.25000000E-01	 4.00000000E-01
	 1.00000000E-01	 3.25000000E-01	 6.00000000E-01
	 1.00000000E-01	 3.25000000E-01	 8.00000000E-01
	 1.00000000E+00	 1.00000000E-01	 0.00000000E+00
	 1.00000000E+00	 1.00000000E-01	 2.00000000E-01
	 7.75000000E-01	 1.00000000E-01	 0.00000000E+00
	 7.75000000E-01	 1.00000000E-01	 2.00000000E-01
	 1.00000000E+00	 1.00000000E-01	 4.00000000E-01
	 7.75000000E-01	 1.00000000E-01	 4.00000000E-01
	 1.00000000E+00	 1.00000000E-01	 6.00000000E-01
	 7.75000000E-01	 1.00000000E-01	 6.00000000E-01
	 1.00000000E+00	 1.00000000E-01	 8.00000000E-01
	 7.75000000E-01	 1.00000000E-01	 8.00000000E-01
	 5.50000000E-01	 1.00000000E-01	 0.00000000E+00
	 5.50000000E-01	 1.00000000E-01	 2.00000000E-01
	 5.50000000E-01	 1.00000000E-01	 4.00000000E-01
	 5.50000000E-01	 1.00000000E-01	 6.00000000E-01
	 5.50000000E-01	 1.00000000E-01	 8.00000000E-01
	 3.25000000E-01	 1.00000000E-01	 0.00000000E+00
	 3.25000000E-01	 1.00000000E-01	 2.00000000E-01
	 3.25000000E-01	 1.00000000E-01	 4.00000000E-01
	 3.25000000E-01	 1.00000000E-01	 6.00000000E-01
	 3.25000000E-01	 1.00000000E-01	 8.00000000E-01
	 1.00000000E-01	 1.00000000E-01	 0.00000000E+00
	 1.00000000E-01	 1.00000000E-01	 2.00000000E-01
	 1.00000000E-01	 1.00000000E-01	 4.00000000E-01
	 1.00000000E-01	 1.00000000E-01	 6.00000000E-01
	 1.00000000E-01	 1.00000000E-01	 8.00000000E-01
	 1.00000000E+00	 0.00000000E+00	 0.00000000E+00
	 1.00000000E+00	 0.00000000E+00	 2.00000000E-01
[...]
POINT_DATA 5407
FIELD EMFE 1
	EMFE 3 5407 double
		 0.00000000E+00	 0.00000000E+00	 0.00000000E+00
		 0.00000000E+00	 0.00000000E+00	 0.00000000E+00
		 0.00000000E+00	 0.00000000E+00	 0.00000000E+00
		 0.00000000E+00	 0.00000000E+00	 0.00000000E+00
		 0.00000000E+00	 0.00000000E+00	 0.00000000E+00
		 0.00000000E+00	 0.00000000E+00	 0.00000000E+00
		 0.00000000E+00	 0.00000000E+00	 0.00000000E+00
		 0.00000000E+00	 0.00000000E+00	 0.00000000E+00
		 0.00000000E+00	 0.00000000E+00	 0.00000000E+00
		 0.00000000E+00	 0.00000000E+00	 0.00000000E+00
		 0.00000000E+00	 0.00000000E+00	 0.00000000E+00
		 0.00000000E+00	 0.00000000E+00	 0.00000000E+00
		 0.00000000E+00	 0.00000000E+00	 0.00000000E+00
		 0.00000000E+00	 0.00000000E+00	 0.00000000E+00
		 0.00000000E+00	 0.00000000E+00	 0.00000000E+00
		 0.00000000E+00	 0.00000000E+00	 0.00000000E+00
		 0.00000000E+00	 0.00000000E+00	 0.00000000E+00
		 0.00000000E+00	 0.00000000E+00	 0.00000000E+00
		 0.00000000E+00	 0.00000000E+00	 0.00000000E+00
		 0.00000000E+00	 0.00000000E+00	 0.00000000E+00
		 0.00000000E+00	 0.00000000E+00	 0.00000000E+00
		 0.00000000E+00	 0.00000000E+00	 0.00000000E+00
		 0.00000000E+00	 0.00000000E+00	 0.00000000E+00
		 0.00000000E+00	 0.00000000E+00	 0.00000000E+00
		 0.00000000E+00	 0.00000000E+00	 0.00000000E+00
		 0.00000000E+00	 0.00000000E+00	 0.00000000E+00
		 0.00000000E+00	 0.00000000E+00	 0.00000000E+00
		 0.00000000E+00	 0.00000000E+00	 0.00000000E+00
		 0.00000000E+00	 0.00000000E+00	 0.00000000E+00
		 0.00000000E+00	 0.00000000E+00	 0.00000000E+00
		 0.00000000E+00	 0.00000000E+00	 0.00000000E+00
		 0.00000000E+00	 0.00000000E+00	 0.00000000E+00
		 0.00000000E+00	 0.00000000E+00	 0.00000000E+00
		 0.00000000E+00	 0.00000000E+00	 0.00000000E+00
		 0.00000000E+00	 0.00000000E+00	 0.00000000E+00
		 0.00000000E+00	 0.00000000E+00	 0.00000000E+00
		 0.00000000E+00	 0.00000000E+00	 0.00000000E+00
		 0.00000000E+00	 0.00000000E+00	 0.00000000E+00
		 0.00000000E+00	 0.00000000E+00	 0.00000000E+00
		 0.00000000E+00	 0.00000000E+00	 0.00000000E+00
		 0.00000000E+00	 0.00000000E+00	 0.00000000E+00
		 0.00000000E+00	 0.00000000E+00	 0.00000000E+00
		 0.00000000E+00	 0.00000000E+00	 0.00000000E+00
		 0.00000000E+00	 0.00000000E+00	 0.00000000E+00
		 0.00000000E+00	 0.00000000E+00	 0.00000000E+00
		 0.00000000E+00	 0.00000000E+00	 0.00000000E+00
		 0.00000000E+00	 0.00000000E+00	 0.00000000E+00
		 0.00000000E+00	 0.00000000E+00	 0.00000000E+00
		 0.00000000E+00	 0.00000000E+00	 0.00000000E+00
		 0.00000000E+00	 0.00000000E+00	 0.00000000E+00
		 0.00000000E+00	 0.00000000E+00	 0.00000000E+00
		 0.00000000E+00	 0.00000000E+00	 0.00000000E+00
		 0.00000000E+00	 0.00000000E+00	 0.00000000E+00
		 0.00000000E+00	 0.00000000E+00	 0.00000000E+00
		 0.00000000E+00	 0.00000000E+00	 0.00000000E+00
		 0.00000000E+00	 0.00000000E+00	 0.00000000E+00
		 0.00000000E+00	 0.00000000E+00	 0.00000000E+00
		 0.00000000E+00	 0.00000000E+00	 0.00000000E+00
		 0.00000000E+00	 0.00000000E+00	 0.00000000E+00
		 0.00000000E+00	 0.00000000E+00	 0.00000000E+00
		 0.00000000E+00	 0.00000000E+00	 0.00000000E+00
		 0.00000000E+00	 0.00000000E+00	 0.00000000E+00
		 0.00000000E+00	 0.00000000E+00	 0.00000000E+00
		 0.00000000E+00	 0.00000000E+00	 0.00000000E+00
		 0.00000000E+00	 0.00000000E+00	 0.00000000E+00
		 0.00000000E+00	 0.00000000E+00	 0.00000000E+00
		 0.00000000E+00	 0.00000000E+00	 0.00000000E+00
		 0.00000000E+00	 0.00000000E+00	 0.00000000E+00
		 0.00000000E+00	 0.00000000E+00	 0.00000000E+00
		 0.00000000E+00	 0.00000000E+00	 0.00000000E+00
		 0.00000000E+00	 0.00000000E+00	 0.00000000E+00
		 0.00000000E+00	 0.00000000E+00	 0.00000000E+00
		 0.00000000E+00	 0.00000000E+00	 0.00000000E+00
		 0.00000000E+00	 0.00000000E+00	 0.00000000E+00
		 0.00000000E+00	 0.00000000E+00	 0.00000000E+00
		 0.00000000E+00	 0.00000000E+00	 0.00000000E+00
		 0.00000000E+00	 0.00000000E+00	 0.00000000E+00
		 0.00000000E+00	 0.00000000E+00	 0.00000000E+00
		 0.00000000E+00	 0.00000000E+00	 0.00000000E+00
		 0.00000000E+00	 0.00000000E+00	 0.00000000E+00
		 0.00000000E+00	 0.00000000E+00	 0.00000000E+00
		 0.00000000E+00	 0.00000000E+00	 0.00000000E+00
		 0.00000000E+00	 0.00000000E+00	 0.00000000E+00
		 0.00000000E+00	 0.00000000E+00	 0.00000000E+00
		 0.00000000E+00	 0.00000000E+00	 0.00000000E+00
		 0.00000000E+00	 0.00000000E+00	 0.00000000E+00
		 0.00000000E+00	 0.00000000E+00	 0.00000000E+00
		 0.00000000E+00	 0.00000000E+00	 0.00000000E+00
		 0.00000000E+00	 0.00000000E+00	 0.00000000E+00
		 0.00000000E+00	 0.00000000E+00	 0.00000000E+00
		 0.00000000E+00	 0.00000000E+00	 0.00000000E+00
		 0.00000000E+00	 0.00000000E+00	 0.00000000E+00
		 0.00000000E+00	 0.00000000E+00	 0.00000000E+00
		 0.00000000E+00	 0.00000000E+00	 0.00000000E+00
		 0.00000000E+00	 0.00000000E+00	 0.00000000E+00
		 0.00000000E+00	 0.00000000E+00	 0.00000000E+00
		 0.00000000E+00	 0.00000000E+00	 0.00000000E+00
		 0.00000000E+00	 0.00000000E+00	 0.00000000E+00
		 0.00000000E+00	 0.00000000E+00	 0.00000000E+00
		 0.00000000E+00	 0.00000000E+00	 0.00000000E+00
		 0.00000000E+00	 0.00000000E+00	 0.00000000E+00
		 0.00000000E+00	 0.00000000E+00	 0.00000000E+00
		 0.00000000E+00	 0.00000000E+00	 0.00000000E+00
		 0.00000000E+00	 0.00000000E+00	 0.00000000E+00
		 0.00000000E+00	 0.00000000E+00	 0.00000000E+00
		 0.00000000E+00	 0.00000000E+00	 0.00000000E+00
		 0.00000000E+00	 0.00000000E+00	 0.00000000E+00
		 0.00000000E+00	 0.00000000E+00	 0.00000000E+00
		 0.00000000E+00	 0.00000000E+00	 0.00000000E+00
		 0.00000000E+00	 0.00000000E+00	 0.00000000E+00
		 0.00000000E+00	 0.00000000E+00	 0.00000000E+00
		 0.00000000E+00	 0.00000000E+00	 0.00000000E+00
		 0.00000000E+00	 0.00000000E+00	 0.00000000E+00
		 0.00000000E+00	 0.00000000E+00	 0.00000000E+00
		 0.00000000E+00	 0.00000000E+00	 0.00000000E+00
		 0.00000000E+00	 0.00000000E+00	 0.00000000E+00
		 0.00000000E+00	 0.00000000E+00	 0.00000000E+00
		 0.00000000E+00	 0.00000000E+00	 0.00000000E+00
		 0.00000000E+00	 0.00000000E+00	 0.00000000E+00
		 0.00000000E+00	 0.00000000E+00	 0.00000000E+00
		 0.00000000E+00	 0.00000000E+00	 0.00000000E+00
		 0.00000000E+00	 0.00000000E+00	 0.00000000E+00
		 0.00000000E+00	 0.00000000E+00	 0.00000000E+00
		 0.00000000E+00	 0.00000000E+00	 0.00000000E+00
		 0.00000000E+00	 0.00000000E+00	 0.00000000E+00
		 0.00000000E+00	 0.00000000E+00	 0.00000000E+00
		 0.00000000E+00	 0.00000000E+00	 0.00000000E+00
		 0.00000000E+00	 0.00000000E+00	 0.00000000E+00
		 0.00000000E+00	 0.00000000E+00	 0.00000000E+00
		 0.00000000E+00	 0.00000000E+00	 0.00000000E+00
		 0.00000000E+00	 0.00000000E+00	 0.00000000E+00
		 0.00000000E+00	 0.00000000E+00	 0.00000000E+00
		 0.00000000E+00	 0.00000000E+00	 0.00000000E+00
		 0.00000000E+00	 0.00000000E+00	 0.00000000E+00
		 0.00000000E+00	 0.00000000E+00	 0.00000000E+00
		 0.00000000E+00	 0.00000000E+00	 0.00000000E+00
		 0.00000000E+00	 0.00000000E+00	 0.00000000E+00
		 0.00000000E+00	 0.00000000E+00	 0.00000000E+00
		 0.00000000E+00	 0.00000000E+00	 0.00000000E+00
		 0.00000000E+00	 0.00000000E+00	 0.00000000E+00
		 0.00000000E+00	 0.00000000E+00	 0.00000000E+00
		 0.00000000E+00	 0.00000000E+00	 0.00000000E+00
		 0.00000000E+00	 0.00000000E+00	 0.00000000E+00
		 0.00000000E+00	 0.00000000E+00	 0.00000000E+00
		 0.00000000E+00	 0.00000000E+00	 0.00000000E+00
		 0.00000000E+00	 0.00000000E+00	 0.00000000E+00
		 0.00000000E+00	 0.00000000E+00	 0.00000000E+00
		 0.00000000E+00	 0.00000000E+00	 0.00000000E+00
		 0.00000000E+00	 0.00000000E+00	 0.00000000E+00
		 0.00000000E+00	 0.00000000E+00	 0.00000000E+00
		 0.00000000E+00	 0.00000000E+00	 0.00000000E+00
		 0.00000000E+00	 0.00000000E+00	 0.00000000E+00
		 0.00000000E+00	 0.00000000E+00	 0.00000000E+00
		 0.00000000E+00	 0.00000000E+00	 0.00000000E+00
		 0.00000000E+00	 0.00000000E+00	 0.00000000E+00
		 0.00000000E+00	 0.00000000E+00	 0.00000000E+00
		 0.00000000E+00	 0.00000000E+00	 0.00000000E+00
		 0.00000000E+00	 0.00000000E+00	 0.00000000E+00
		 0.00000000E+00	 0.00000000E+00	 0.00000000E+00
		 0.00000000E+00	 0.00000000E+00	 0.00000000E+00
		 0.00000000E+00	 0.00000000E+00	 0.00000000E+00
		 0.00000000E+00	 0.00000000E+00	 0.00000000E+00
		 0.00000000E+00	 0.00000000E+00	 0.00000000E+00
		 0.00000000E+00	 0.00000000E+00	 0.00000000E+00
		 0.00000000E+00	 0.00000000E+00	 0.00000000E+00
		 0.00000000E+00	 0.00000000E+00	 0.00000000E+00
		 0.00000000E+00	 0.00000000E+00	 0.00000000E+00
		 0.00000000E+00	 0.00000000E+00	 0.00000000E+00
		 0.00000000E+00	 0.00000000E+00	 0.00000000E+00
		 0.00000000E+00	 0.00000000E+00	 0.00000000E+00
		 0.00000000E+00	 0.00000000E+00	 0.00000000E+00
		 0.00000000E+00	 0.00000000E+00	 0.00000000E+00
		 0.00000000E+00	 0.00000000E+00	 0.00000000E+00
		 0.00000000E+00	 0.00000000E+00	 0.00000000E+00
		 0.00000000E+00	 0.00000000E+00	 0.00000000E+00
		 0.00000000E+00	 0.00000000E+00	 0.00000000E+00
		 0.00000000E+00	 0.00000000E+00	 0.00000000E+00
		 0.00000000E+00	 0.00000000E+00	 0.00000000E+00
		 0.00000000E+00	 0.00000000E+00	 0.00000000E+00
		 0.00000000E+00	 0.00000000E+00	 0.00000000E+00
		 0.00000000E+00	 0.00000000E+00	 0.00000000E+00
		 0.00000000E+00	 0.00000000E+00	 0.00000000E+00
		 0.00000000E+00	 0.00000000E+00	 0.00000000E+00
		 0.00000000E+00	 0.00000000E+00	 0.00000000E+00
		 0.00000000E+00	 0.00000000E+00	 0.00000000E+00
		 0.00000000E+00	 0.00000000E+00	 0.00000000E+00
		 0.00000000E+00	 0.00000000E+00	 0.00000000E+00
		 0.00000000E+00	 0.00000000E+00	 0.00000000E+00
		 0.00000000E+00	 0.00000000E+00	 0.00000000E+00
		 0.00000000E+00	 0.00000000E+00	 0.00000000E+00
		 0.00000000E+00	 0.00000000E+00	 0.00000000E+00
		 0.00000000E+00	 0.00000000E+00	 0.00000000E+00
		 0.00000000E+00	 0.00000000E+00	 0.00000000E+00
		 0.00000000E+00	 0.00000000E+00	 0.00000000E+00
		 0.00000000E+00	 0.00000000E+00	 0.00000000E+00
		 0.00000000E+00	 0.00000000E+00	 0.00000000E+00
		 0.00000000E+00	 0.00000000E+00	 0.00000000E+00
		 0.00000000E+00	 0.00000000E+00	 0.00000000E+00
		 0.00000000E+00	 0.00000000E+00	 0.00000000E+00
		 0.00000000E+00	 0.00000000E+00	 0.00000000E+00
		 0.00000000E+00	 0.00000000E+00	 0.00000000E+00
		 0.00000000E+00	 0.00000000E+00	 0.00000000E+00
		 0.00000000E+00	 0.00000000E+00	 0.00000000E+00
		 0.00000000E+00	 0.00000000E+00	 0.00000000E+00
		 0.00000000E+00	 0.00000000E+00	 0.00000000E+00
		 0.00000000E+00	 0.00000000E+00	 0.00000000E+00
		 0.00000000E+00	 0.00000000E+00	 0.00000000E+00
		 0.00000000E+00	 0.00000000E+00	 0.00000000E+00
		 0.00000000E+00	 0.00000000E+00	 0.00000000E+00
		 0.00000000E+00	 0.00000000E+00	 0.00000000E+00
		 0.00000000E+00	 0.00000000E+00	 0.00000000E+00
		 0.00000000E+00	 0.00000000E+00	 0.00000000E+00
		 0.00000000E+00	 0.00000000E+00	 0.00000000E+00
		 0.00000000E+00	 0.00000000E+00	 0.00000000E+00
		 0.00000000E+00	 0.00000000E+00	 0.00000000E+00
		 0.00000000E+00	 0.00000000E+00	 0.00000000E+00
		 0.00000000E+00	 0.00000000E+00	 0.00000000E+00
		 0.00000000E+00	 0.00000000E+00	 0.00000000E+00
		 0.00000000E+00	 0.00000000E+00	 0.00000000E+00
		 0.00000000E+00	 0.00000000E+00	 0.00000000E+00
		 0.00000000E+00	 0.00000000E+00	 0.00000000E+00
		 0.00000000E+00	 0.00000000E+00	 0.00000000E+00
		 0.00000000E+00	 0.00000000E+00	 0.00000000E+00
		 0.00000000E+00	 0.00000000E+00	 0.00000000E+00
		 0.00000000E+00	 0.00000000E+00	 0.00000000E+00
		 0.00000000E+00	 0.00000000E+00	 0.00000000E+00
		 0.00000000E+00	 0.00000000E+00	 0.00000000E+00
		 0.00000000E+00	 0.00000000E+00	 0.00000000E+00
		 0.00000000E+00	 0.00000000E+00	 0.00000000E+00
		 0.00000000E+00	 0.00000000E+00	 0.00000000E+00
		 0.00000000E+00	 0.00000000E+00	 0.00000000E+00
		 0.00000000E+00	 0.00000000E+00	 0.00000000E+00
		 0.00000000E+00	 0.00000000E+00	 0.00000000E+00
		 0.00000000E+00	 0.00000000E+00	 0.00000000E+00
		 0.00000000E+00	 0.00000000E+00	 0.00000000E+00
		 0.00000000E+00	 0.00000000E+00	 0.00000000E+00
		 0.00000000E+00	 0.00000000E+00	 0.00000000E+00
		 0.00000000E+00	 0.00000000E+00	 0.00000000E+00
		 0.00000000E+00	 0.00000000E+00	 0.00000000E+00
		 0.00000000E+00	 0.00000000E+00	 0.00000000E+00
		 0.00000000E+00	 0.00000000E+00	 0.00000000E+00
		 0.00000000E+00	 0.00000000E+00	 0.00000000E+00
		 0.00000000E+00	 0.00000000E+00	 0.00000000E+00
		 0.00000000E+00	 0.00000000E+00	 0.00000000E+00
		 0.00000000E+00	 0.00000000E+00	 0.00000000E+00
		 0.00000000E+00	 0.00000000E+00	 0.00000000E+00
		 0.00000000E+00	 0.00000000E+00	 0.00000000E+00
		 0.00000000E+00	 0.00000000E+00	 0.00000000E+00
		 0.00000000E+00	 0.00000000E+00	 0.00000000E+00
		 0.00000000E+00	 0.00000000E+00	 0.00000000E+00
		 0.00000000E+00	 0.00000000E+00	 0.00000000E+00
		 0.00000000E+00	 0.00000000E+00	 0.00000000E+00
		 0.00000000E+00	 0.00000000E+00	 0.00000000E+00
		 0.00000000E+00	 0.00000000E+00	 0.00000000E+00
		 0.00000000E+00	 0.00000000E+00	 0.00000000E+00
		 0.00000000E+00	 0.00000000E+00	 0.00000000E+00
		 0.00000000E+00	 0.00000000E+00	 0.00000000E+00
		 0.00000000E+00	 0.00000000E+00	 0.00000000E+00
		 0.00000000E+00	 0.00000000E+00	 0.00000000E+00
		 0.00000000E+00	 0.00000000E+00	 0.00000000E+00
		 0.00000000E+00	 0.00000000E+00	 0.00000000E+00
		 0.00000000E+00	 0.00000000E+00	 0.00000000E+00
		 0.00000000E+00	 0.00000000E+00	 0.00000000E+00
		 0.00000000E+00	 0.00000000E+00	 0.00000000E+00
		 0.00000000E+00	 0.00000000E+00	 0.00000000E+00
		 0.00000000E+00	 0.00000000E+00	 0.00000000E+00
		 0.00000000E+00	 0.00000000E+00	 0.00000000E+00
		 0.00000000E+00	 0.00000000E+00	 0.00000000E+00
		 0.00000000E+00	 0.00000000E+00	 0.00000000E+00
		 0.00000000E+00	 0.00000000E+00	 0.00000000E+00
		 0.00000000E+00	 0.00000000E+00	 0.00000000E+00
		 0.00000000E+00	 0.00000000E+00	 0.00000000E+00
		 0.00000000E+00	 0.00000000E+00	 0.00000000E+00
		 0.00000000E+00	 0.00000000E+00	 0.00000000E+00
		 0.00000000E+00	 0.00000000E+00	 0.00000000E+00
		 0.00000000E+00	 0.00000000E+00	 0.00000000E+00
		 0.00000000E+00	 0.00000000E+00	 0.00000000E+00
		 0.00000000E+00	 0.00000000E+00	 0.00000000E+00
		 0.00000000E+00	 0.00000000E+00	 0.00000000E+00
		 0.00000000E+00	 0.00000000E+00	 0.00000000E+00
		 0.00000000E+00	 0.00000000E+00	 0.00000000E+00
		 0.00000000E+00	 0.00000000E+00	 0.00000000E+00
		 0.00000000E+00	 0.00000000E+00	 0.00000000E+00
		 0.00000000E+00	 0.00000000E+00	 0.00000000E+00
		 0.00000000E+00	 0.00000000E+00	 0.00000000E+00
		 0.00000000E+00	 0.00000000E+00	 0.00000000E+00
		 0.00000000E+00	 0.00000000E+00	 0.00000000E+00
		 0.00000000E+00	 0.00000000E+00	 0.00000000E+00
		 0.00000000E+00	 0.00000000E+00	 0.00000000E+00
		 0.00000000E+00	 0.00000000E+00	 0.00000000E+00
		 0.00000000E+00	 0.00000000E+00	 0.00000000E+00
		 0.00000000E+00	 0.00000000E+00	 0.00000000E+00
		 0.00000000E+00	 0.00000000E+00	 0.00000000E+00
		 0.00000000E+00	 0.00000000E+00	 0.00000000E+00
		 0.00000000E+00	 0.00000000E+00	 0.00000000E+00
		 0.00000000E+00	 0.00000000E+00	 0.00000000E+00
		 0.00000000E+00	 0.00000000E+00	 0.00000000E+00
		 0.00000000E+00	 0.00000000E+00	 0.00000000E+00
		 0.00000000E+00	 0.00000000E+00	 0.00000000E+00
		 0.00000000E+00	 0.00000000E+00	 0.00000000E+00
		 0.00000000E+00	 0.00000000E+00	 0.00000000E+00
		 0.00000000E+00	 0.00000000E+00	 0.00000000E+00
		 0.00000000E+00	 0.00000000E+00	 0.00000000E+00
		 0.00000000E+00	 0.00000000E+00	 0.00000000E+00
		 0.00000000E+00	 0.00000000E+00	 0.00000000E+00
		 0.00000000E+00	 0.00000000E+00	 0.00000000E+00
		 0.00000000E+00	 0.00000000E+00	 0.00000000E+00
		 0.00000000E+00	 0.00000000E+00	 0.00000000E+00
		 0.00000000E+00	 0.00000000E+00	 0.00000000E+00
		 0.00000000E+00	 0.00000000E+00	 0.00000000E+00
		 0.00000000E+00	 0.00000000E+00	 0.00000000E+00
		 0.00000000E+00	 0.00000000E+00	 0.00000000E+00
		 0.00000000E+00	 0.00000000E+00	 0.00000000E+00
		 0.00000000E+00	 0.00000000E+00	 0.00000000E+00
		 0.00000000E+00	 0.00000000E+00	 0.00000000E+00
		 0.00000000E+00	 0.00000000E+00	 0.00000000E+00
		 0.00000000E+00	 0.00000000E+00	 0.00000000E+00
		 0.00000000E+00	 0.00000000E+00	 0.00000000E+00
		 0.00000000E+00	 0.00000000E+00	 0.00000000E+00
		 0.00000000E+00	 0.00000000E+00	 0.00000000E+00
		 0.00000000E+00	 0.00000000E+00	 0.00000000E+00
		 0.00000000E+00	 0.00000000E+00	 0.00000000E+00
		 0.00000000E+00	 0.00000000E+00	 0.00000000E+00
		 0.00000000E+00	 0.00000000E+00	 0.00000000E+00
		 0.00000000E+00	 0.00000000E+00	 0.00000000E+00
		 0.00000000E+00	 0.00000000E+00	 0.00000000E+00
		 0.00000000E+00	 0.00000000E+00	 0.00000000E+00
		 0.00000000E+00	 0.00000000E+00	 0.00000000E+00
		 0.00000000E+00	 0.00000000E+00	 0.00000000E+00
		 0.00000000E+00	 0.00000000E+00	 0.00000000E+00
		 0.00000000E+00	 0.00000000E+00	 0.00000000E+00
		 0.00000000E+00	 0.00000000E+00	 0.00000000E+00
		 0.00000000E+00	 0.00000000E+00	 0.00000000E+00
		 0.00000000E+00	 0.00000000E+00	 0.00000000E+00
		 0.00000000E+00	 0.00000000E+00	 0.00000000E+00
		 0.00000000E+00	 0.00000000E+00	 0.00000000E+00
		 0.00000000E+00	 0.00000000E+00	 0.00000000E+00
		 0.00000000E+00	 0.00000000E+00	 0.00000000E+00
		 0.00000000E+00	 0.00000000E+00	 0.00000000E+00
		 0.00000000E+00	 0.00000000E+00	 0.00000000E+00
		 0.00000000E+00	 0.00000000E+00	 0.00000000E+00
		 0.00000000E+00	 0.00000000E+00	 0.00000000E+00
		 0.00000000E+00	 0.00000000E+00	 0.00000000E+00
		 0.00000000E+00	 0.00000000E+00	 0.00000000E+00
		 0.00000000E+00	 0.00000000E+00	 0.00000000E+00
		 0.00000000E+00	 0.00000000E+00	 0.00000000E+00
		 0.00000000E+00	 0.00000000E+00	 0.00000000E+00
		 0.00000000E+00	 0.00000000E+00	 0.00000000E+00
		 0.00000000E+00	 0.00000000E+00	 0.00000000E+00
		 0.00000000E+00	 0.00000000E+00	 0.00000000E+00
		 0.00000000E+00	 0.00000000E+00	 0.00000000E+00
		 0.00000000E+00	 0.00000000E+00	 0.00000000E+00
		 0.00000000E+00	 0.00000000E+00	 0.00000000E+00
		 0.00000000E+00	 0.00000000E+00	 0.00000000E+00
		 0.00000000E+00	 0.00000000E+00	 0.00000000E+00
		 0.00000000E+00	 0.00000000E+00	 0.00000000E+00
		 0.00000000E+00	 0.00000000E+00	 0.00000000E+00
		 0.00000000E+00	 0.00000000E+00	 0.00000000E+00
		 0.00000000E+00	 0.00000000E+00	 0.00000000E+00
		 0.00000000E+00	 0.00000000E+00	 0.00000000E+00
		 0.00000000E+00	 0.00000000E+00	 0.00000000E+00
		 0.00000000E+00	 0.00000000E+00	 0.00000000E+00
		 0.00000000E+00	 0.00000000E+00	 0.00000000E+00
		 0.00000000E+00	 0.00000000E+00	 0.00000000E+00
		 0.00000000E+00	 0.00000000E+00	 0.00000000E+00
		 0.00000000E+00	 0.00000000E+00	 0.00000000E+00
		 0.00000000E+00	 0.00000000E+00	 0.00000000E+00
		 0.00000000E+00	 0.00000000E+00	 0.00000000E+00
		 0.00000000E+00	 0.00000000E+00	 0.00000000E+00
		 0.00000000E+00	 0.00000000E+00	 0.00000000E+00
		 0.00000000E+00	 0.00000000E+00	 0.00000000E+00
		 0.00000000E+00	 0.00000000E+00	 0.00000000E+00
		 0.00000000E+00	 0.00000000E+00	 0.00000000E+00
		 0.00000000E+00	 0.00000000E+00	 0.00000000E+00
		 0.00000000E+00	 0.00000000E+00	 0.00000000E+00
		 0.00000000E+00	 0.00000000E+00	 0.00000000E+00
		 0.00000000E+00	 0.00000000E+00	 0.00000000E+00
		 0.00000000E+00	 0.00000000E+00	 0.00000000E+00
		 0.00000000E+00	 0.00000000E+00	 0.00000000E+00
		 0.00000000E+00	 0.00000000E+00	 0.00000000E+00
		 0.00000000E+00	 0.00000000E+00	 0.00000000E+00
		 0.00000000E+00	 0.00000000E+00	 0.00000000E+00
		 0.00000000E+00	 0.00000000E+00	 0.00000000E+00
		 0.00000000E+00	 0.00000000E+00	 0.00000000E+00
		 0.00000000E+00	 0.00000000E+00	 0.00000000E+00
		 0.00000000E+00	 0.00000000E+00	 0.00000000E+00
		 0.00000000E+00	 0.00000000E+00	 0.00000000E+00
		 0.00000000E+00	 0.00000000E+00	 0.00000000E+00
		 0.00000000E+00	 0.00000000E+00	 0.00000000E+00
		 0.00000000E+00	 0.00000000E+00	 0.00000000E+00
		 0.00000000E+00	 0.00000000E+00	 0.00000000E+00
		 0.00000000E+00	 0.00000000E+00	 0.00000000E+00
		 0.00000000E+00	 0.00000000E+00	 0.00000000E+00
		 0.00000000E+00	 0.00000000E+00	 0.00000000E+00
		 0.00000000E+00	 0.00000000E+00	 0.00000000E+00
		 0.00000000E+00	 0.00000000E+00	 0.00000000E+00
		 0.00000000E+00	 0.00000000E+00	 0.00000000E+00
		 0.00000000E+00	 0.00000000E+00	 0.00000000E+00
		 0.00000000E+00	 0.00000000E+00	 0.00000000E+00