    1C
    1UModel: beam     Date: 10-Mar-1998                                 
    1UUSER                                                              
    1UDATE              25.january.2020                                 
    1UTIME              14:51:29                                        
    1UHOST                                                              
    1UPGM               CalculiX                                        
    1UVERSION           Version 2.16                             
    1UCOMPILETIME       Tue  7 Jan 19:57:43 CET 2020                    
    1UDIR                                                               
    1UDBN                                                               
    1UMAT    1UNDO_NLGEOM_LIN_EL_1                                      
    2C                           261                                     1
 -1         1 0.00000E+00 0.00000E+00 0.00000E+00
 -1         2 1.00000E+00 0.00000E+00 0.00000E+00
 -1         3 1.00000E+00 1.00000E+00 0.00000E+00
 -1         4 0.00000E+00 1.00000E+00 0.00000E+00
 -1         5 0.00000E+00 0.00000E+00 8.00000E+00
 -1         6 1.00000E+00 0.00000E+00 8.00000E+00
 -1         7 1.00000E+00 1.00000E+00 8.00000E+00
 -1         8 0.00000E+00 1.00000E+00 8.00000E+00
 -1         9 2.50000E-01 0.00000E+00 0.00000E+00
 -1        10 5.00000E-01 0.00000E+00 0.00000E+00
 -1        11 7.50000E-01 0.00000E+00 0.00000E+00
 -1        12 1.00000E+00 2.50000E-01 0.00000E+00
 -1        13 1.00000E+00 5.00000E-01 0.00000E+00
 -1        14 1.00000E+00 7.50000E-01 0.00000E+00
 -1        15 7.50000E-01 1.00000E+00 0.00000E+00
 -1        16 5.00000E-01 1.00000E+00 0.00000E+00
 -1        17 2.50000E-01 1.00000E+00 0.00000E+00
 -1        18 0.00000E+00 7.50000E-01 0.00000E+00
 -1        19 0.00000E+00 5.00000E-01 0.00000E+00
 -1        20 0.00000E+00 2.50000E-01 0.00000E+00
 -1        21 2.50000E-01 0.00000E+00 8.00000E+00
 -1        22 5.00000E-01 0.00000E+00 8.00000E+00
 -1        23 7.50000E-01 0.00000E+00 8.00000E+00
 -1        24 1.00000E+00 2.50000E-01 8.00000E+00
 -1        25 1.00000E+00 5.00000E-01 8.00000E+00
 -1        26 1.00000E+00 7.50000E-01 8.00000E+00
 -1        27 7.50000E-01 1.00000E+00 8.00000E+00
 -1        28 5.00000E-01 1.00000E+00 8.00000E+00
 -1        29 2.50000E-01 1.00000E+00 8.00000E+00
 -1        30 0.00000E+00 7.50000E-01 8.00000E+00
 -1        31 0.00000E+00 5.00000E-01 8.00000E+00
 -1        32 0.00000E+00 2.50000E-01 8.00000E+00
 -1        33 1.00000E+00 0.00000E+00 5.00000E-01
 -1        34 1.00000E+00 0.00000E+00 1.00000E+00
 -1        35 1.00000E+00 0.00000E+00 1.50000E+00
 -1        36 1.00000E+00 0.00000E+00 2.00000E+00
 -1        37 1.00000E+00 0.00000E+00 2.50000E+00
 -1        38 1.00000E+00 0.00000E+00 3.00000E+00
 -1        39 1.00000E+00 0.00000E+00 3.50000E+00
 -1        40 1.00000E+00 0.00000E+00 4.00000E+00
 -1        41 1.00000E+00 0.00000E+00 4.50000E+00
 -1        42 1.00000E+00 0.00000E+00 5.00000E+00
 -1        43 1.00000E+00 0.00000E+00 5.50000E+00
 -1        44 1.00000E+00 0.00000E+00 6.00000E+00
 -1        45 1.00000E+00 0.00000E+00 6.50000E+00
 -1        46 1.00000E+00 0.00000E+00 7.00000E+00
 -1        47 1.00000E+00 0.00000E+00 7.50000E+00
 -1        48 0.00000E+00 0.00000E+00 7.50000E+00
 -1        49 0.00000E+00 0.00000E+00 7.00000E+00
 -1        50 0.00000E+00 0.00000E+00 6.50000E+00
 -1        51 0.00000E+00 0.00000E+00 6.00000E+00
 -1        52 0.00000E+00 0.00000E+00 5.50000E+00
 -1        53 0.00000E+00 0.00000E+00 5.00000E+00
 -1        54 0.00000E+00 0.00000E+00 4.50000E+00
 -1        55 0.00000E+00 0.00000E+00 4.00000E+00
 -1        56 0.00000E+00 0.00000E+00 3.50000E+00
 -1        57 0.00000E+00 0.00000E+00 3.00000E+00
 -1        58 0.00000E+00 0.00000E+00 2.50000E+00
 -1        59 0.00000E+00 0.00000E+00 2.00000E+00
 -1        60 0.00000E+00 0.00000E+00 1.50000E+00
 -1        61 0.00000E+00 0.00000E+00 1.00000E+00
 -1        62 0.00000E+00 0.00000E+00 5.00000E-01
 -1        63 1.00000E+00 1.00000E+00 5.00000E-01
 -1        64 1.00000E+00 1.00000E+00 1.00000E+00
 -1        65 1.00000E+00 1.00000E+00 1.50000E+00
 -1        66 1.00000E+00 1.00000E+00 2.00000E+00
 -1        67 1.00000E+00 1.00000E+00 2.50000E+00
 -1        68 1.00000E+00 1.00000E+00 3.00000E+00
 -1        69 1.00000E+00 1.00000E+00 3.50000E+00
 -1        70 1.00000E+00 1.00000E+00 4.00000E+00
 -1        71 1.00000E+00 1.00000E+00 4.50000E+00
 -1        72 1.00000E+00 1.00000E+00 5.00000E+00
 -1        73 1.00000E+00 1.00000E+00 5.50000E+00
 -1        74 1.00000E+00 1.00000E+00 6.00000E+00
 -1        75 1.00000E+00 1.00000E+00 6.50000E+00
 -1        76 1.00000E+00 1.00000E+00 7.00000E+00
 -1        77 1.00000E+00 1.00000E+00 7.50000E+00
 -1        78 0.00000E+00 1.00000E+00 5.00000E-01
 -1        79 0.00000E+00 1.00000E+00 1.00000E+00
 -1        80 0.00000E+00 1.00000E+00 1.50000E+00
 -1        81 0.00000E+00 1.00000E+00 2.00000E+00
 -1        82 0.00000E+00 1.00000E+00 2.50000E+00
 -1        83 0.00000E+00 1.00000E+00 3.00000E+00
 -1        84 0.00000E+00 1.00000E+00 3.50000E+00
 -1        85 0.00000E+00 1.00000E+00 4.00000E+00
 -1        86 0.00000E+00 1.00000E+00 4.50000E+00
 -1        87 0.00000E+00 1.00000E+00 5.00000E+00
 -1        88 0.00000E+00 1.00000E+00 5.50000E+00
 -1        89 0.00000E+00 1.00000E+00 6.00000E+00
 -1        90 0.00000E+00 1.00000E+00 6.50000E+00
 -1        91 0.00000E+00 1.00000E+00 7.00000E+00
 -1        92 0.00000E+00 1.00000E+00 7.50000E+00
 -1        93 5.00000E-01 2.50000E-01 0.00000E+00
 -1        94 2.50000E-01 5.00000E-01 0.00000E+00
 -1        95 5.00000E-01 5.00000E-01 0.00000E+00
 -1        96 7.50000E-01 5.00000E-01 0.00000E+00
 -1        97 5.00000E-01 7.50000E-01 0.00000E+00
 -1        98 5.00000E-01 2.50000E-01 8.00000E+00
 -1        99 2.50000E-01 5.00000E-01 8.00000E+00
 -1       100 5.00000E-01 5.00000E-01 8.00000E+00
 -1       101 7.50000E-01 5.00000E-01 8.00000E+00
 -1       102 5.00000E-01 7.50000E-01 8.00000E+00
 -1       103 5.00000E-01 0.00000E+00 5.00000E-01
 -1       104 2.50000E-01 0.00000E+00 1.00000E+00
 -1       105 5.00000E-01 0.00000E+00 1.00000E+00
 -1       106 7.50000E-01 0.00000E+00 1.00000E+00
 -1       107 5.00000E-01 0.00000E+00 1.50000E+00
 -1       108 2.50000E-01 0.00000E+00 2.00000E+00
 -1       109 5.00000E-01 0.00000E+00 2.00000E+00
 -1       110 7.50000E-01 0.00000E+00 2.00000E+00
 -1       111 5.00000E-01 0.00000E+00 2.50000E+00
 -1       112 2.50000E-01 0.00000E+00 3.00000E+00
 -1       113 5.00000E-01 0.00000E+00 3.00000E+00
 -1       114 7.50000E-01 0.00000E+00 3.00000E+00
 -1       115 5.00000E-01 0.00000E+00 3.50000E+00
 -1       116 2.50000E-01 0.00000E+00 4.00000E+00
 -1       117 5.00000E-01 0.00000E+00 4.00000E+00
 -1       118 7.50000E-01 0.00000E+00 4.00000E+00
 -1       119 5.00000E-01 0.00000E+00 4.50000E+00
 -1       120 2.50000E-01 0.00000E+00 5.00000E+00
 -1       121 5.00000E-01 0.00000E+00 5.00000E+00
 -1       122 7.50000E-01 0.00000E+00 5.00000E+00
 -1       123 5.00000E-01 0.00000E+00 5.50000E+00
 -1       124 2.50000E-01 0.00000E+00 6.00000E+00
 -1       125 5.00000E-01 0.00000E+00 6.00000E+00
 -1       126 7.50000E-01 0.00000E+00 6.00000E+00
 -1       127 5.00000E-01 0.00000E+00 6.50000E+00
 -1       128 2.50000E-01 0.00000E+00 7.00000E+00
 -1       129 5.00000E-01 0.00000E+00 7.00000E+00
 -1       130 7.50000E-01 0.00000E+00 7.00000E+00
 -1       131 5.00000E-01 0.00000E+00 7.50000E+00
 -1       132 1.00000E+00 5.00000E-01 5.00000E-01
 -1       133 1.00000E+00 2.50000E-01 1.00000E+00
 -1       134 1.00000E+00 5.00000E-01 1.00000E+00
 -1       135 1.00000E+00 7.50000E-01 1.00000E+00
 -1       136 1.00000E+00 5.00000E-01 1.50000E+00
 -1       137 1.00000E+00 2.50000E-01 2.00000E+00
 -1       138 1.00000E+00 5.00000E-01 2.00000E+00
 -1       139 1.00000E+00 7.50000E-01 2.00000E+00
 -1       140 1.00000E+00 5.00000E-01 2.50000E+00
 -1       141 1.00000E+00 2.50000E-01 3.00000E+00
 -1       142 1.00000E+00 5.00000E-01 3.00000E+00
 -1       143 1.00000E+00 7.50000E-01 3.00000E+00
 -1       144 1.00000E+00 5.00000E-01 3.50000E+00
 -1       145 1.00000E+00 2.50000E-01 4.00000E+00
 -1       146 1.00000E+00 5.00000E-01 4.00000E+00
 -1       147 1.00000E+00 7.50000E-01 4.00000E+00
 -1       148 1.00000E+00 5.00000E-01 4.50000E+00
 -1       149 1.00000E+00 2.50000E-01 5.00000E+00
 -1       150 1.00000E+00 5.00000E-01 5.00000E+00
 -1       151 1.00000E+00 7.50000E-01 5.00000E+00
 -1       152 1.00000E+00 5.00000E-01 5.50000E+00
 -1       153 1.00000E+00 2.50000E-01 6.00000E+00
 -1       154 1.00000E+00 5.00000E-01 6.00000E+00
 -1       155 1.00000E+00 7.50000E-01 6.00000E+00
 -1       156 1.00000E+00 5.00000E-01 6.50000E+00
 -1       157 1.00000E+00 2.50000E-01 7.00000E+00
 -1       158 1.00000E+00 5.00000E-01 7.00000E+00
 -1       159 1.00000E+00 7.50000E-01 7.00000E+00
 -1       160 1.00000E+00 5.00000E-01 7.50000E+00
 -1       161 5.00000E-01 1.00000E+00 5.00000E-01
 -1       162 7.50000E-01 1.00000E+00 1.00000E+00
 -1       163 5.00000E-01 1.00000E+00 1.00000E+00
 -1       164 2.50000E-01 1.00000E+00 1.00000E+00
 -1       165 5.00000E-01 1.00000E+00 1.50000E+00
 -1       166 7.50000E-01 1.00000E+00 2.00000E+00
 -1       167 5.00000E-01 1.00000E+00 2.00000E+00
 -1       168 2.50000E-01 1.00000E+00 2.00000E+00
 -1       169 5.00000E-01 1.00000E+00 2.50000E+00
 -1       170 7.50000E-01 1.00000E+00 3.00000E+00
 -1       171 5.00000E-01 1.00000E+00 3.00000E+00
 -1       172 2.50000E-01 1.00000E+00 3.00000E+00
 -1       173 5.00000E-01 1.00000E+00 3.50000E+00
 -1       174 7.50000E-01 1.00000E+00 4.00000E+00
 -1       175 5.00000E-01 1.00000E+00 4.00000E+00
 -1       176 2.50000E-01 1.00000E+00 4.00000E+00
 -1       177 5.00000E-01 1.00000E+00 4.50000E+00
 -1       178 7.50000E-01 1.00000E+00 5.00000E+00
 -1       179 5.00000E-01 1.00000E+00 5.00000E+00
 -1       180 2.50000E-01 1.00000E+00 5.00000E+00
 -1       181 5.00000E-01 1.00000E+00 5.50000E+00
 -1       182 7.50000E-01 1.00000E+00 6.00000E+00
 -1       183 5.00000E-01 1.00000E+00 6.00000E+00
 -1       184 2.50000E-01 1.00000E+00 6.00000E+00
 -1       185 5.00000E-01 1.00000E+00 6.50000E+00
 -1       186 7.50000E-01 1.00000E+00 7.00000E+00
 -1       187 5.00000E-01 1.00000E+00 7.00000E+00
 -1       188 2.50000E-01 1.00000E+00 7.00000E+00
 -1       189 5.00000E-01 1.00000E+00 7.50000E+00
 -1       190 0.00000E+00 5.00000E-01 5.00000E-01
 -1       191 0.00000E+00 7.50000E-01 1.00000E+00
 -1       192 0.00000E+00 5.00000E-01 1.00000E+00
 -1       193 0.00000E+00 2.50000E-01 1.00000E+00
 -1       194 0.00000E+00 5.00000E-01 1.50000E+00
 -1       195 0.00000E+00 7.50000E-01 2.00000E+00
 -1       196 0.00000E+00 5.00000E-01 2.00000E+00
 -1       197 0.00000E+00 2.50000E-01 2.00000E+00
 -1       198 0.00000E+00 5.00000E-01 2.50000E+00
 -1       199 0.00000E+00 7.50000E-01 3.00000E+00
 -1       200 0.00000E+00 5.00000E-01 3.00000E+00
 -1       201 0.00000E+00 2.50000E-01 3.00000E+00
 -1       202 0.00000E+00 5.00000E-01 3.50000E+00
 -1       203 0.00000E+00 7.50000E-01 4.00000E+00
 -1       204 0.00000E+00 5.00000E-01 4.00000E+00
 -1       205 0.00000E+00 2.50000E-01 4.00000E+00
 -1       206 0.00000E+00 5.00000E-01 4.50000E+00
 -1       207 0.00000E+00 7.50000E-01 5.00000E+00
 -1       208 0.00000E+00 5.00000E-01 5.00000E+00
 -1       209 0.00000E+00 2.50000E-01 5.00000E+00
 -1       210 0.00000E+00 5.00000E-01 5.50000E+00
 -1       211 0.00000E+00 7.50000E-01 6.00000E+00
 -1       212 0.00000E+00 5.00000E-01 6.00000E+00
 -1       213 0.00000E+00 2.50000E-01 6.00000E+00
 -1       214 0.00000E+00 5.00000E-01 6.50000E+00
 -1       215 0.00000E+00 7.50000E-01 7.00000E+00
 -1       216 0.00000E+00 5.00000E-01 7.00000E+00
 -1       217 0.00000E+00 2.50000E-01 7.00000E+00
 -1       218 0.00000E+00 5.00000E-01 7.50000E+00
 -1       219 5.00000E-01 5.00000E-01 5.00000E-01
 -1       220 5.00000E-01 2.50000E-01 1.00000E+00
 -1       221 2.50000E-01 5.00000E-01 1.00000E+00
 -1       222 5.00000E-01 5.00000E-01 1.00000E+00
 -1       223 7.50000E-01 5.00000E-01 1.00000E+00
 -1       224 5.00000E-01 7.50000E-01 1.00000E+00
 -1       225 5.00000E-01 5.00000E-01 1.50000E+00
 -1       226 5.00000E-01 2.50000E-01 2.00000E+00
 -1       227 2.50000E-01 5.00000E-01 2.00000E+00
 -1       228 5.00000E-01 5.00000E-01 2.00000E+00
 -1       229 7.50000E-01 5.00000E-01 2.00000E+00
 -1       230 5.00000E-01 7.50000E-01 2.00000E+00
 -1       231 5.00000E-01 5.00000E-01 2.50000E+00
 -1       232 5.00000E-01 2.50000E-01 3.00000E+00
 -1       233 2.50000E-01 5.00000E-01 3.00000E+00
 -1       234 5.00000E-01 5.00000E-01 3.00000E+00
 -1       235 7.50000E-01 5.00000E-01 3.00000E+00
 -1       236 5.00000E-01 7.50000E-01 3.00000E+00
 -1       237 5.00000E-01 5.00000E-01 3.50000E+00
 -1       238 5.00000E-01 2.50000E-01 4.00000E+00
 -1       239 2.50000E-01 5.00000E-01 4.00000E+00
 -1       240 5.00000E-01 5.00000E-01 4.00000E+00
 -1       241 7.50000E-01 5.00000E-01 4.00000E+00
 -1       242 5.00000E-01 7.50000E-01 4.00000E+00
 -1       243 5.00000E-01 5.00000E-01 4.50000E+00
 -1       244 5.00000E-01 2.50000E-01 5.00000E+00
 -1       245 2.50000E-01 5.00000E-01 5.00000E+00
 -1       246 5.00000E-01 5.00000E-01 5.00000E+00
 -1       247 7.50000E-01 5.00000E-01 5.00000E+00
 -1       248 5.00000E-01 7.50000E-01 5.00000E+00
 -1       249 5.00000E-01 5.00000E-01 5.50000E+00
 -1       250 5.00000E-01 2.50000E-01 6.00000E+00
 -1       251 2.50000E-01 5.00000E-01 6.00000E+00
 -1       252 5.00000E-01 5.00000E-01 6.00000E+00
 -1       253 7.50000E-01 5.00000E-01 6.00000E+00
 -1       254 5.00000E-01 7.50000E-01 6.00000E+00
 -1       255 5.00000E-01 5.00000E-01 6.50000E+00
 -1       256 5.00000E-01 2.50000E-01 7.00000E+00
 -1       257 2.50000E-01 5.00000E-01 7.00000E+00
 -1       258 5.00000E-01 5.00000E-01 7.00000E+00
 -1       259 7.50000E-01 5.00000E-01 7.00000E+00
 -1       260 5.00000E-01 7.50000E-01 7.00000E+00
 -1       261 5.00000E-01 5.00000E-01 7.50000E+00
 -3
    3C                            32                                     1
 -1         1    4    0    1
 -2         1        10        95        19        61       105       222       192         9        93
 -2        94        20        62       103       219       190       104       220       221       193
 -1         2    4    0    1
 -2        10         2        13        95       105        34       134       222        11        12
 -2        96        93       103        33       132       219       106       133       223       220
 -1         3    4    0    1
 -2        19        95        16         4       192       222       163        79        94        97
 -2        17        18       190       219       161        78       221       224       164       191
 -1         4    4    0    1
 -2        95        13         3        16       222       134        64       163        96        14
 -2        15        97       219       132        63       161       223       135       162       224
 -1         5    4    0    1
 -2        61       105       222       192        59       109       228       196       104       220
 -2       221       193        60       107       225       194       108       226       227       197
 -1         6    4    0    1
 -2       105        34       134       222       109        36       138       228       106       133
 -2       223       220       107        35       136       225       110       137       229       226
 -1         7    4    0    1
 -2       192       222       163        79       196       228       167        81       221       224
 -2       164       191       194       225       165        80       227       230       168       195
 -1         8    4    0    1
 -2       222       134        64       163       228       138        66       167       223       135
 -2       162       224       225       136        65       165       229       139       166       230
 -1         9    4    0    1
 -2        59       109       228       196        57       113       234       200       108       226
 -2       227       197        58       111       231       198       112       232       233       201
 -1        10    4    0    1
 -2       109        36       138       228       113        38       142       234       110       137
 -2       229       226       111        37       140       231       114       141       235       232
 -1        11    4    0    1
 -2       196       228       167        81       200       234       171        83       227       230
 -2       168       195       198       231       169        82       233       236       172       199
 -1        12    4    0    1
 -2       228       138        66       167       234       142        68       171       229       139
 -2       166       230       231       140        67       169       235       143       170       236
 -1        13    4    0    1
 -2        57       113       234       200        55       117       240       204       112       232
 -2       233       201        56       115       237       202       116       238       239       205
 -1        14    4    0    1
 -2       113        38       142       234       117        40       146       240       114       141
 -2       235       232       115        39       144       237       118       145       241       238
 -1        15    4    0    1
 -2       200       234       171        83       204       240       175        85       233       236
 -2       172       199       202       237       173        84       239       242       176       203
 -1        16    4    0    1
 -2       234       142        68       171       240       146        70       175       235       143
 -2       170       236       237       144        69       173       241       147       174       242
 -1        17    4    0    1
 -2        55       117       240       204        53       121       246       208       116       238
 -2       239       205        54       119       243       206       120       244       245       209
 -1        18    4    0    1
 -2       117        40       146       240       121        42       150       246       118       145
 -2       241       238       119        41       148       243       122       149       247       244
 -1        19    4    0    1
 -2       204       240       175        85       208       246       179        87       239       242
 -2       176       203       206       243       177        86       245       248       180       207
 -1        20    4    0    1
 -2       240       146        70       175       246       150        72       179       241       147
 -2       174       242       243       148        71       177       247       151       178       248
 -1        21    4    0    1
 -2        53       121       246       208        51       125       252       212       120       244
 -2       245       209        52       123       249       210       124       250       251       213
 -1        22    4    0    1
 -2       121        42       150       246       125        44       154       252       122       149
 -2       247       244       123        43       152       249       126       153       253       250
 -1        23    4    0    1
 -2       208       246       179        87       212       252       183        89       245       248
 -2       180       207       210       249       181        88       251       254       184       211
 -1        24    4    0    1
 -2       246       150        72       179       252       154        74       183       247       151
 -2       178       248       249       152        73       181       253       155       182       254
 -1        25    4    0    1
 -2        51       125       252       212        49       129       258       216       124       250
 -2       251       213        50       127       255       214       128       256       257       217
 -1        26    4    0    1
 -2       125        44       154       252       129        46       158       258       126       153
 -2       253       250       127        45       156       255       130       157       259       256
 -1        27    4    0    1
 -2       212       252       183        89       216       258       187        91       251       254
 -2       184       211       214       255       185        90       257       260       188       215
 -1        28    4    0    1
 -2       252       154        74       183       258       158        76       187       253       155
 -2       182       254       255       156        75       185       259       159       186       260
 -1        29    4    0    1
 -2        49       129       258       216         5        22       100        31       128       256
 -2       257       217        48       131       261       218        21        98        99        32
 -1        30    4    0    1
 -2       129        46       158       258        22         6        25       100       130       157
 -2       259       256       131        47       160       261        23        24       101        98
 -1        31    4    0    1
 -2       216       258       187        91        31       100        28         8       257       260
 -2       188       215       218       261       189        92        99       102        29        30
 -1        32    4    0    1
 -2       258       158        76       187       100        25         7        28       259       159
 -2       186       260       261       160        77       189       101        26        27       102
 -3
    1PSTEP                         1           1           1          
  100CL  101 1.000000000         261                     0    1           1
 -4  TOSTRAIN    6    1
 -5  EXX         1    4    1    1
 -5  EYY         1    4    2    2
 -5  EZZ         1    4    3    3
 -5  EXY         1    4    1    2
 -5  EYZ         1    4    2    3
 -5  EZX         1    4    3    1
 -1         1 1.68269E-13 6.65864E-13-1.92799E-12 2.84230E-13 6.45998E-13-2.09116E-13
 -1         2 1.67985E-13 6.65440E-13-1.92878E-12-2.84128E-13 6.46004E-13 2.09009E-13
 -1         3 1.66161E-13 6.68486E-13-1.91414E-12 2.88709E-13-6.63389E-13 2.09604E-13
 -1         4 1.65701E-13 6.67505E-13-1.91492E-12-2.88392E-13-6.63450E-13-2.09645E-13
 -1         5-1.71556E-13 3.85458E-13 2.98751E-12 2.22096E-13 1.82218E-12 1.86649E-12
 -1         6-1.72555E-13 3.85110E-13 2.98659E-12-2.22273E-13 1.82236E-12-1.86647E-12
 -1         7-2.63107E-13-1.03279E-14 3.13183E-12 2.61197E-13-1.72543E-12-1.71035E-12
 -1         8-2.62004E-13-9.72100E-15 3.13157E-12-2.61390E-13-1.72536E-12 1.70997E-12
 -1         9 4.22896E-14 8.65488E-13-1.98389E-12 2.26985E-13 5.83531E-13-7.18766E-14
 -1        10-8.37920E-14 1.06511E-12-2.03981E-12-3.38415E-17 5.21041E-13 3.03267E-17
 -1        11 4.20454E-14 8.65269E-13-1.98431E-12-2.26967E-13 5.83511E-13 7.18537E-14
 -1        12-1.98475E-13-2.48190E-13 1.63079E-12 2.18260E-14-9.08540E-13-1.24262E-13
 -1        13-5.65633E-13-1.13639E-12 5.19163E-12-1.79241E-15 6.86737E-14-4.57059E-13
 -1        14-2.00085E-13-2.21242E-13 1.63938E-12-2.13276E-14 9.68521E-13-1.23490E-13
 -1        15 3.74843E-14 8.70709E-13-1.96904E-12 2.30196E-13-6.01474E-13 7.00282E-14
 -1        16-9.16162E-14 1.07286E-12-2.02399E-12-1.41954E-16-5.39497E-13 4.62852E-17
 -1        17 3.68309E-14 8.70142E-13-1.96948E-12-2.30180E-13-6.01442E-13-7.00022E-14
 -1        18-2.00111E-13-2.21530E-13 1.63913E-12 2.13761E-14 9.68448E-13 1.23446E-13
 -1        19-5.65409E-13-1.13609E-12 5.19194E-12 1.67546E-15 6.86279E-14 4.57014E-13
 -1        20-1.98314E-13-2.47876E-13 1.63136E-12-2.17819E-14-9.08546E-13 1.24188E-13
 -1        21-6.67022E-15 1.98496E-12-1.93778E-12 2.68642E-13-5.16388E-13-9.16769E-13
 -1        22 1.58446E-13 3.58471E-12-6.86311E-12 1.44978E-16-2.85499E-12 4.72517E-17
 -1        23-6.93926E-15 1.98504E-12-1.93828E-12-2.68586E-13-5.16325E-13 9.16826E-13
 -1        24 5.99766E-13 4.73402E-13-1.47640E-12-2.46240E-13-1.09525E-12 4.74931E-13
 -1        25 1.40426E-12 5.37651E-13-5.98982E-12 8.77403E-14-3.75191E-13 2.85682E-12
 -1        26 5.86664E-13 2.51640E-13-1.45421E-12 3.53442E-13 7.68520E-13 5.93476E-13
 -1        27-1.01851E-13 1.13936E-12-1.66425E-12 3.48884E-13 5.87309E-13 9.84658E-13
 -1        28 5.90408E-14 2.28922E-12-6.46033E-12 9.01565E-17 2.90007E-12 9.54517E-17
 -1        29-1.01664E-13 1.13984E-12-1.66438E-12-3.48890E-13 5.87366E-13-9.84750E-13
 -1        30 5.86806E-13 2.51074E-13-1.45448E-12-3.53403E-13 7.68588E-13-5.93595E-13
 -1        31 1.40380E-12 5.37607E-13-5.99000E-12-8.75567E-14-3.75120E-13-2.85685E-12
 -1        32 6.00215E-13 4.74401E-13-1.47598E-12 2.46199E-13-1.09530E-12-4.75025E-13
 -1        33-1.14723E-13-9.28358E-14 5.35429E-13-1.29483E-13-2.34686E-14-3.67111E-14
 -1        34-4.28085E-13-4.64639E-13 2.26757E-12 8.78898E-14-2.81887E-13-4.20720E-14
 -1        35-3.35132E-13-2.73788E-13 1.44989E-12 3.37776E-14 1.95179E-14 4.54539E-14
 -1        36-2.47177E-13-3.85810E-13 1.37955E-12-3.47465E-14-1.89081E-14-3.71592E-14
 -1        37-2.64813E-13-3.08785E-13 1.28387E-12 1.03135E-15 3.48135E-14 6.24651E-15
 -1        38-2.46099E-13-3.12275E-13 1.18685E-12-8.47455E-15-3.22730E-15 1.10124E-14
 -1        39-2.38045E-13-3.12971E-13 1.10300E-12 9.02378E-15 2.34975E-14-5.39957E-15
 -1        40-2.12116E-13-2.98438E-13 1.03719E-12-1.56425E-14 1.46320E-14 7.34465E-15
 -1        41-2.10306E-13-2.88418E-13 9.62295E-13 6.59446E-15-2.53010E-15 6.47488E-15
 -1        42-1.73514E-13-2.46034E-13 8.75694E-13-5.91249E-14-1.09923E-13 9.65515E-14
 -1        43-2.03223E-13-2.74091E-13 9.00129E-13 5.67993E-14 1.09744E-13-1.00190E-13
 -1        44-1.93095E-13-2.48450E-13 6.69283E-13-1.00355E-13 1.71352E-13-1.66485E-13
 -1        45-9.84019E-14 3.95813E-14 1.07195E-12 1.17446E-14-4.04109E-13 2.90069E-13
 -1        46-1.74203E-13-9.29877E-14 4.73205E-13 1.41649E-13-4.05042E-13 3.76956E-13
 -1        47-2.11930E-13-1.20520E-14 1.11168E-12-2.31493E-13 8.43715E-13-7.88528E-13
 -1        48-2.11612E-13-1.20474E-14 1.11161E-12 2.31535E-13 8.43745E-13 7.88646E-13
 -1        49-1.74326E-13-9.31304E-14 4.73295E-13-1.41320E-13-4.05093E-13-3.76976E-13
 -1        50-9.87761E-14 3.92247E-14 1.07206E-12-1.15298E-14-4.04182E-13-2.90129E-13
 -1        51-1.93849E-13-2.49090E-13 6.69206E-13 1.00483E-13 1.71659E-13 1.66673E-13
 -1        52-2.03392E-13-2.74200E-13 9.00142E-13-5.66425E-14 1.09761E-13 1.00135E-13
 -1        53-1.73239E-13-2.45620E-13 8.75275E-13 5.92792E-14-1.10021E-13-9.68312E-14
 -1        54-2.10190E-13-2.88290E-13 9.62507E-13-6.53092E-15-2.53070E-15-6.45398E-15
 -1        55-2.12220E-13-2.98853E-13 1.03689E-12 1.54018E-14 1.46938E-14-7.16840E-15
 -1        56-2.38579E-13-3.13505E-13 1.10269E-12-9.18663E-15 2.35605E-14 5.39564E-15
 -1        57-2.46909E-13-3.12883E-13 1.18680E-12 8.54293E-15-3.48176E-15-1.10554E-14
 -1        58-2.64728E-13-3.08720E-13 1.28373E-12-9.61185E-16 3.47889E-14-6.26986E-15
 -1        59-2.46266E-13-3.84884E-13 1.38004E-12 3.48400E-14-1.88090E-14 3.70884E-14
 -1        60-3.34835E-13-2.73432E-13 1.44985E-12-3.36371E-14 1.94878E-14-4.54211E-14
 -1        61-4.28424E-13-4.64970E-13 2.26711E-12-8.77441E-14-2.81868E-13 4.21925E-14
 -1        62-1.14766E-13-9.28008E-14 5.35780E-13 1.29598E-13-2.34593E-14 3.67078E-14
 -1        63-1.68146E-13-1.73618E-13 7.86125E-13 1.31396E-13 2.65779E-14-4.10954E-14
 -1        64-5.35890E-13-6.16831E-13 2.75910E-12-8.84413E-14 2.89630E-13-4.91543E-14
 -1        65-4.90732E-13-4.87916E-13 2.15959E-12-3.39497E-14-1.63509E-14 4.08650E-14
 -1        66-4.47824E-13-6.71963E-13 2.30111E-12 3.46550E-14 2.87465E-14-4.17765E-14
 -1        67-5.01132E-13-6.42835E-13 2.36776E-12-7.89740E-16-2.59745E-14 2.48347E-15
 -1        68-5.17483E-13-6.95277E-13 2.43211E-12 8.30897E-15 1.34744E-14 8.29195E-15
 -1        69-5.37492E-13-7.34673E-13 2.47321E-12-9.29397E-15-1.21014E-14-8.74597E-15
 -1        70-5.39205E-13-7.59441E-13 2.53285E-12 1.40180E-14-1.38591E-15 4.36406E-15
 -1        71-5.63057E-13-7.89006E-13 2.58049E-12-4.95157E-15 1.10788E-14 4.14922E-15
 -1        72-5.54187E-13-7.81779E-13 2.61938E-12 5.87945E-14 1.17214E-13 9.48360E-14
 -1        73-6.13291E-13-8.49961E-13 2.77110E-12-5.87327E-14-9.09421E-14-1.05392E-13
 -1        74-6.36985E-13-8.59324E-13 2.66111E-12 8.62823E-14-1.36097E-13-1.76690E-13
 -1        75-5.27630E-13-5.95284E-13 3.09118E-12 8.62848E-15 3.97084E-13 3.01121E-13
 -1        76-6.46656E-13-6.85851E-13 2.64042E-12-1.55820E-13 4.32429E-13 3.58013E-13
 -1        77-5.25224E-13-4.68095E-13 2.32548E-12 2.00443E-13-7.39772E-13-7.45872E-13
 -1        78-1.68350E-13-1.73569E-13 7.86293E-13-1.31169E-13 2.64913E-14 4.10635E-14
 -1        79-5.35924E-13-6.15824E-13 2.75938E-12 8.86077E-14 2.89616E-13 4.90812E-14
 -1        80-4.90734E-13-4.87557E-13 2.15938E-12 3.40663E-14-1.62427E-14-4.07896E-14
 -1        81-4.47623E-13-6.72181E-13 2.30131E-12-3.46468E-14 2.87839E-14 4.17380E-14
 -1        82-5.01210E-13-6.43183E-13 2.36765E-12 8.07786E-16-2.59710E-14-2.50963E-15
 -1        83-5.18119E-13-6.95694E-13 2.43206E-12-8.21876E-15 1.35012E-14-8.16049E-15
 -1        84-5.37746E-13-7.34804E-13 2.47311E-12 9.25047E-15-1.21605E-14 8.66893E-15
 -1        85-5.38940E-13-7.59271E-13 2.53253E-12-1.42785E-14-1.36941E-15-4.34126E-15
 -1        86-5.63209E-13-7.88889E-13 2.58071E-12 4.78920E-15 1.10660E-14-4.15271E-15
 -1        87-5.54553E-13-7.81945E-13 2.61839E-12-5.87743E-14 1.17049E-13-9.49558E-14
 -1        88-6.13214E-13-8.50051E-13 2.77122E-12 5.87762E-14-9.09008E-14 1.05407E-13
 -1        89-6.36877E-13-8.59115E-13 2.66169E-12-8.61323E-14-1.35890E-13 1.76776E-13
 -1        90-5.28083E-13-5.95245E-13 3.09088E-12-8.28699E-15 3.97068E-13-3.01188E-13
 -1        91-6.47447E-13-6.86006E-13 2.64101E-12 1.56185E-13 4.32270E-13-3.57902E-13
 -1        92-5.25088E-13-4.67845E-13 2.32543E-12-2.00384E-13-7.39796E-13 7.45900E-13
 -1        93-3.24354E-13 1.89229E-13 1.56398E-12-1.22429E-17-8.88766E-13 3.95682E-17