# vtk DataFile Version 3.0

ASCII
DATASET UNSTRUCTURED_GRID

POINTS 261 double
	 0.00000000E+00	 0.00000000E+00	 0.00000000E+00
	 1.00000000E+00	 0.00000000E+00	 0.00000000E+00
	 1.00000000E+00	 1.00000000E+00	 0.00000000E+00
	 0.00000000E+00	 1.00000000E+00	 0.00000000E+00
	 0.00000000E+00	 0.00000000E+00	 8.00000000E+00
	 1.00000000E+00	 0.00000000E+00	 8.00000000E+00
	 1.00000000E+00	 1.00000000E+00	 8.00000000E+00
	 0.00000000E+00	 1.00000000E+00	 8.00000000E+00
	 2.50000000E-01	 0.00000000E+00	 0.00000000E+00
	 5.00000000E-01	 0.00000000E+00	 0.00000000E+00
	 7.50000000E-01	 0.00000000E+00	 0.00000000E+00
	 1.00000000E+00	 2.50000000E-01	 0.00000000E+00
	 1.00000000E+00	 5.00000000E-01	 0.00000000E+00
	 1.00000000E+00	 7.50000000E-01	 0.00000000E+00
	 7.50000000E-01	 1.00000000E+00	 0.00000000E+00
	 5.00000000E-01	 1.00000000E+00	 0.00000000E+00
	 2.50000000E-01	 1.00000000E+00	 0.00000000E+00
	 0.00000000E+00	 7.50000000E-01	 0.00000000E+00
	 0.00000000E+00	 5.00000000E-01	 0.00000000E+00
	 0.00000000E+00	 2.50000000E-01	 0.00000000E+00
	 2.50000000E-01	 0.00000000E+00	 8.00000000E+00
	 5.00000000E-01	 0.00000000E+00	 8.00000000E+00
	 7.50000000E-01	 0.00000000E+00	 8.00000000E+00
	 1.00000000E+00	 2.50000000E-01	 8.00000000E+00
	 1.00000000E+00	 5.00000000E-01	 8.00000000E+00
	 1.00000000E+00	 7.50000000E-01	 8.00000000E+00
	 7.50000000E-01	 1.00000000E+00	 8.00000000E+00
	 5.00000000E-01	 1.00000000E+00	 8.00000000E+00
	 2.50000000E-01	 1.00000000E+00	 8.00000000E+00
	 0.00000000E+00	 7.50000000E-01	 8.00000000E+00
	 0.00000000E+00	 5.00000000E-01	 8.00000000E+00
	 0.00000000E+00	 2.50000000E-01	 8.00000000E+00
	 1.00000000E+00	 0.00000000E+00	 5.00000000E-01
	 1.00000000E+00	 0.00000000E+00	 1.00000000E+00
	 1.00000000E+00	 0.00000000E+00	 1.50000000E+00
	 1.00000000E+00	 0.00000000E+00	 2.00000000E+00
	 1.00000000E+00	 0.00000000E+00	 2.50000000E+00
	 1.00000000E+00	 0.00000000E+00	 3.00000000E+00
	 1.00000000E+00	 0.00000000E+00	 3.50000000E+00
	 1.00000000E+00	 0.00000000E+00	 4.00000000E+00
	 1.00000000E+00	 0.00000000E+00	 4.50000000E+00
	 1.00000000E+00	 0.00000000E+00	 5.00000000E+00
	 1.00000000E+00	 0.00000000E+00	 5.50000000E+00
	 1.00000000E+00	 0.00000000E+00	 6.00000000E+00
	 1.00000000E+00	 0.00000000E+00	 6.50000000E+00
	 1.00000000E+00	 0.00000000E+00	 7.00000000E+00
	 1.00000000E+00	 0.00000000E+00	 7.50000000E+00
	 0.00000000E+00	 0.00000000E+00	 7.50000000E+00
	 0.00000000E+00	 0.00000000E+00	 7.00000000E+00
	 0.00000000E+00	 0.00000000E+00	 6.50000000E+00
	 0.00000000E+00	 0.00000000E+00	 6.00000000E+00
	 0.00000000E+00	 0.00000000E+00	 5.50000000E+00
	 0.00000000E+00	 0.00000000E+00	 5.00000000E+00
	 0.00000000E+00	 0.00000000E+00	 4.50000000E+00
	 0.00000000E+00	 0.00000000E+00	 4.00000000E+00
	 0.00000000E+00	 0.00000000E+00	 3.50000000E+00
	 0.00000000E+00	 0.00000000E+00	 3.00000000E+00
	 0.00000000E+00	 0.00000000E+00	 2.50000000E+00
	 0.00000000E+00	 0.00000000E+00	 2.00000000E+00
	 0.00000000E+00	 0.00000000E+00	 1.50000000E+00
	 0.00000000E+00	 0.00000000E+00	 1.00000000E+00
	 0.00000000E+00	 0.00000000E+00	 5.00000000E-01
	 1.00000000E+00	 1.00000000E+00	 5.00000000E-01
	 1.00000000E+00	 1.00000000E+00	 1.00000000E+00
	 1.00000000E+00	 1.00000000E+00	 1.50000000E+00
	 1.00000000E+00	 1.00000000E+00	 2.00000000E+00
	 1.00000000E+00	 1.00000000E+00	 2.50000000E+00
	 1.00000000E+00	 1.00000000E+00	 3.00000000E+00
	 1.00000000E+00	 1.00000000E+00	 3.50000000E+00
	 1.00000000E+00	 1.00000000E+00	 4.00000000E+00
	 1.00000000E+00	 1.00000000E+00	 4.50000000E+00
	 1.00000000E+00	 1.00000000E+00	 5.00000000E+00
	 1.00000000E+00	 1.00000000E+00	 5.50000000E+00
	 1.00000000E+00	 1.00000000E+00	 6.00000000E+00
	 1.00000000E+00	 1.00000000E+00	 6.50000000E+00
	 1.00000000E+00	 1.00000000E+00	 7.00000000E+00
	 1.00000000E+00	 1.00000000E+00	 7.50000000E+00
	 0.00000000E+00	 1.00000000E+00	 5.00000000E-01
	 0.00000000E+00	 1.00000000E+00	 1.00000000E+00
	 0.00000000E+00	 1.00000000E+00	 1.50000000E+00
	 0.00000000E+00	 1.00000000E+00	 2.00000000E+00
	 0.00000000E+00	 1.00000000E+00	 2.50000000E+00
	 0.00000000E+00	 1.00000000E+00	 3.00000000E+00
	 0.00000000E+00	 1.00000000E+00	 3.50000000E+00
	 0.00000000E+00	 1.00000000E+00	 4.00000000E+00
	 0.00000000E+00	 1.00000000E+00	 4.50000000E+00
	 0.00000000E+00	 1.00000000E+00	 5.00000000E+00
	 0.00000000E+00	 1.00000000E+00	 5.50000000E+00
	 0.00000000E+00	 1.00000000E+00	 6.00000000E+00
	 0.00000000E+00	 1.00000000E+00	 6.50000000E+00
	 0.00000000E+00	 1.00000000E+00	 7.00000000E+00
	 0.00000000E+00	 1.00000000E+00	 7.50000000E+00
	 5.00000000E-01	 2.50000000E-01	 0.00000000E+00
	 2.50000000E-01	 5.00000000E-01	 0.00000000E+00
	 5.00000000E-01	 5.00000000E-01	 0.00000000E+00
	 7.50000000E-01	 5.00000000E-01	 0.00000000E+00
	 5.00000000E-01	 7.50000000E-01	 0.00000000E+00
	 5.00000000E-01	 2.50000000E-01	 8.00000000E+00
	 2.50000000E-01	 5.00000000E-01	 8.00000000E+00
	 5.00000000E-01	 5.00000000E-01	 8.00000000E+00
	 7.50000000E-01	 5.00000000E-01	 8.00000000E+00
	 5.00000000E-01	 7.50000000E-01	 8.00000000E+00
	 5.00000000E-01	 0.00000000E+00	 5.00000000E-01
	 2.50000000E-01	 0.00000000E+00	 1.00000000E+00
	 5.00000000E-01	 0.00000000E+00	 1.00000000E+00
	 7.50000000E-01	 0.00000000E+00	 1.00000000E+00
	 5.00000000E-01	 0.00000000E+00	 1.50000000E+00
	 2.50000000E-01	 0.00000000E+00	 2.00000000E+00
	 5.00000000E-01	 0.00000000E+00	 2.00000000E+00
	 7.50000000E-01	 0.00000000E+00	 2.00000000E+00
	 5.00000000E-01	 0.00000000E+00	 2.50000000E+00
	 2.50000000E-01	 0.00000000E+00	 3.00000000E+00
	 5.00000000E-01	 0.00000000E+00	 3.00000000E+00
	 7.50000000E-01	 0.00000000E+00	 3.00000000E+00
	 5.00000000E-01	 0.00000000E+00	 3.50000000E+00
	 2.50000000E-01	 0.00000000E+00	 4.00000000E+00
	 5.00000000E-01	 0.00000000E+00	 4.00000000E+00
	 7.50000000E-01	 0.00000000E+00	 4.00000000E+00
	 5.00000000E-01	 0.00000000E+00	 4.50000000E+00
	 2.50000000E-01	 0.00000000E+00	 5.00000000E+00
	 5.00000000E-01	 0.00000000E+00	 5.00000000E+00
	 7.50000000E-01	 0.00000000E+00	 5.00000000E+00
	 5.00000000E-01	 0.00000000E+00	 5.50000000E+00
	 2.50000000E-01	 0.00000000E+00	 6.00000000E+00
	 5.00000000E-01	 0.00000000E+00	 6.00000000E+00
	 7.50000000E-01	 0.00000000E+00	 6.00000000E+00
	 5.00000000E-01	 0.00000000E+00	 6.50000000E+00
	 2.50000000E-01	 0.00000000E+00	 7.00000000E+00
	 5.00000000E-01	 0.00000000E+00	 7.00000000E+00
	 7.50000000E-01	 0.00000000E+00	 7.00000000E+00
	 5.00000000E-01	 0.00000000E+00	 7.50000000E+00
	 1.00000000E+00	 5.00000000E-01	 5.00000000E-01
	 1.00000000E+00	 2.50000000E-01	 1.00000000E+00
	 1.00000000E+00	 5.00000000E-01	 1.00000000E+00
	 1.00000000E+00	 7.50000000E-01	 1.00000000E+00
	 1.00000000E+00	 5.00000000E-01	 1.50000000E+00
	 1.00000000E+00	 2.50000000E-01	 2.00000000E+00
	 1.00000000E+00	 5.00000000E-01	 2.00000000E+00
	 1.00000000E+00	 7.50000000E-01	 2.00000000E+00
	 1.00000000E+00	 5.00000000E-01	 2.50000000E+00
	 1.00000000E+00	 2.50000000E-01	 3.00000000E+00
	 1.00000000E+00	 5.00000000E-01	 3.00000000E+00
	 1.00000000E+00	 7.50000000E-01	 3.00000000E+00
	 1.00000000E+00	 5.00000000E-01	 3.50000000E+00
	 1.00000000E+00	 2.50000000E-01	 4.00000000E+00
	 1.00000000E+00	 5.00000000E-01	 4.00000000E+00
	 1.00000000E+00	 7.50000000E-01	 4.00000000E+00
	 1.00000000E+00	 5.00000000E-01	 4.50000000E+00
	 1.00000000E+00	 2.50000000E-01	 5.00000000E+00
	 1.00000000E+00	 5.00000000E-01	 5.00000000E+00
	 1.00000000E+00	 7.50000000E-01	 5.00000000E+00
	 1.00000000E+00	 5.00000000E-01	 5.50000000E+00
	 1.00000000E+00	 2.50000000E-01	 6.00000000E+00
	 1.00000000E+00	 5.00000000E-01	 6.00000000E+00
	 1.00000000E+00	 7.50000000E-01	 6.00000000E+00
	 1.00000000E+00	 5.00000000E-01	 6.50000000E+00
	 1.00000000E+00	 2.50000000E-01	 7.00000000E+00
	 1.00000000E+00	 5.00000000E-01	 7.00000000E+00
	 1.00000000E+00	 7.50000000E-01	 7.00000000E+00
	 1.00000000E+00	 5.00000000E-01	 7.50000000E+00
	 5.00000000E-01	 1.00000000E+00	 5.00000000E-01
	 7.50000000E-01	 1.00000000E+00	 1.00000000E+00
	 5.00000000E-01	 1.00000000E+00	 1.00000000E+00
	 2.50000000E-01	 1.00000000E+00	 1.00000000E+00
	 5.00000000E-01	 1.00000000E+00	 1.50000000E+00
	 7.50000000E-01	 1.00000000E+00	 2.00000000E+00
	 5.00000000E-01	 1.00000000E+00	 2.00000000E+00
	 2.50000000E-01	 1.00000000E+00	 2.00000000E+00
	 5.00000000E-01	 1.00000000E+00	 2.50000000E+00
	 7.50000000E-01	 1.00000000E+00	 3.00000000E+00
	 5.00000000E-01	 1.00000000E+00	 3.00000000E+00
	 2.50000000E-01	 1.00000000E+00	 3.00000000E+00
	 5.00000000E-01	 1.00000000E+00	 3.50000000E+00
	 7.50000000E-01	 1.00000000E+00	 4.00000000E+00
	 5.00000000E-01	 1.00000000E+00	 4.00000000E+00
	 2.50000000E-01	 1.00000000E+00	 4.00000000E+00
	 5.00000000E-01	 1.00000000E+00	 4.50000000E+00
	 7.50000000E-01	 1.00000000E+00	 5.00000000E+00
	 5.00000000E-01	 1.00000000E+00	 5.00000000E+00
	 2.50000000E-01	 1.00000000E+00	 5.00000000E+00
	 5.00000000E-01	 1.00000000E+00	 5.50000000E+00
	 7.50000000E-01	 1.00000000E+00	 6.00000000E+00
	 5.00000000E-01	 1.00000000E+00	 6.00000000E+00
	 2.50000000E-01	 1.00000000E+00	 6.00000000E+00
	 5.00000000E-01	 1.00000000E+00	 6.50000000E+00
	 7.50000000E-01	 1.00000000E+00	 7.00000000E+00
	 5.00000000E-01	 1.00000000E+00	 7.00000000E+00
	 2.50000000E-01	 1.00000000E+00	 7.00000000E+00
	 5.00000000E-01	 1.00000000E+00	 7.50000000E+00
	 0.00000000E+00	 5.00000000E-01	 5.00000000E-01
	 0.00000000E+00	 7.50000000E-01	 1.00000000E+00
	 0.00000000E+00	 5.00000000E-01	 1.00000000E+00
	 0.00000000E+00	 2.50000000E-01	 1.00000000E+00
	 0.00000000E+00	 5.00000000E-01	 1.50000000E+00
	 0.00000000E+00	 7.50000000E-01	 2.00000000E+00
	 0.00000000E+00	 5.00000000E-01	 2.00000000E+00
	 0.00000000E+00	 2.50000000E-01	 2.00000000E+00
	 0.00000000E+00	 5.00000000E-01	 2.50000000E+00
	 0.00000000E+00	 7.50000000E-01	 3.00000000E+00
	 0.00000000E+00	 5.00000000E-01	 3.00000000E+00
	 0.00000000E+00	 2.50000000E-01	 3.00000000E+00
	 0.00000000E+00	 5.00000000E-01	 3.50000000E+00
	 0.00000000E+00	 7.50000000E-01	 4.00000000E+00
	 0.00000000E+00	 5.00000000E-01	 4.00000000E+00
	 0.00000000E+00	 2.50000000E-01	 4.00000000E+00
	 0.00000000E+00	 5.00000000E-01	 4.50000000E+00
	 0.00000000E+00	 7.50000000E-01	 5.00000000E+00
	 0.00000000E+00	 5.00000000E-01	 5.00000000E+00
	 0.00000000E+00	 2.50000000E-01	 5.00000000E+00
	 0.00000000E+00	 5.00000000E-01	 5.50000000E+00
	 0.00000000E+00	 7.50000000E-01	 6.00000000E+00
	 0.00000000E+00	 5.00000000E-01	 6.00000000E+00
	 0.00000000E+00	 2.50000000E-01	 6.00000000E+00
	 0.00000000E+00	 5.00000000E-01	 6.50000000E+00
	 0.00000000E+00	 7.50000000E-01	 7.00000000E+00
	 0.00000000E+00	 5.00000000E-01	 7.00000000E+00
	 0.00000000E+00	 2.50000000E-01	 7.00000000E+00
	 0.00000000E+00	 5.00000000E-01	 7.50000000E+00
	 5.00000000E-01	 5.00000000E-01	 5.00000000E-01
	 5.00000000E-01	 2.50000000E-01	 1.00000000E+00
	 2.50000000E-01	 5.00000000E-01	 1.00000000E+00
	 5.00000000E-01	 5.00000000E-01	 1.00000000E+00
	 7.50000000E-01	 5.00000000E-01	 1.00000000E+00
	 5.00000000E-01	 7.50000000E-01	 1.00000000E+00
	 5.00000000E-01	 5.00000000E-01	 1.50000000E+00
	 5.00000000E-01	 2.50000000E-01	 2.00000000E+00
	 2.50000000E-01	 5.00000000E-01	 2.00000000E+00
	 5.00000000E-01	 5.00000000E-01	 2.00000000E+00
	 7.50000000E-01	 5.00000000E-01	 2.00000000E+00
	 5.00000000E-01	 7.50000000E-01	 2.00000000E+00
	 5.00000000E-01	 5.00000000E-01	 2.50000000E+00
	 5.00000000E-01	 2.50000000E-01	 3.00000000E+00
	 2.50000000E-01	 5.00000000E-01	 3.00000000E+00
	 5.00000000E-01	 5.00000000E-01	 3.00000000E+00
	 7.50000000E-01	 5.00000000E-01	 3.00000000E+00
	 5.00000000E-01	 7.50000000E-01	 3.00000000E+00
	 5.00000000E-01	 5.00000000E-01	 3.50000000E+00
	 5.00000000E-01	 2.50000000E-01	 4.00000000E+00
	 2.50000000E-01	 5.00000000E-01	 4.00000000E+00
	 5.00000000E-01	 5.00000000E-01	 4.00000000E+00
	 7.50000000E-01	 5.00000000E-01	 4.00000000E+00
	 5.00000000E-01	 7.50000000E-01	 4.00000000E+00
	 5.00000000E-01	 5.00000000E-01	 4.50000000E+00
	 5.00000000E-01	 2.50000000E-01	 5.00000000E+00
	 2.50000000E-01	 5.00000000E-01	 5.00000000E+00
	 5.00000000E-01	 5.00000000E-01	 5.00000000E+00
	 7.50000000E-01	 5.00000000E-01	 5.00000000E+00
	 5.00000000E-01	 7.50000000E-01	 5.00000000E+00
	 5.00000000E-01	 5.00000000E-01	 5.50000000E+00
	 5.00000000E-01	 2.50000000E-01	 6.00000000E+00
	 2.50000000E-01	 5.00000000E-01	 6.00000000E+00
	 5.00000000E-01	 5.00000000E-01	 6.00000000E+00
	 7.50000000E-01	 5.00000000E-01	 6.00000000E+00
	 5.00000000E-01	 7.50000000E-01	 6.00000000E+00
	 5.00000000E-01	 5.00000000E-01	 6.50000000E+00
	 5.00000000E-01	 2.50000000E-01	 7.00000000E+00
	 2.50000000E-01	 5.00000000E-01	 7.00000000E+00
	 5.00000000E-01	 5.00000000E-01	 7.00000000E+00
	 7.50000000E-01	 5.00000000E-01	 7.00000000E+00
	 5.00000000E-01	 7.50000000E-01	 7.00000000E+00
	 5.00000000E-01	 5.00000000E-01	 7.50000000E+00

CELLS 32 672
	20 0 9 94 18 60 104 221 191 8 92 93 19 103 219 220 192 61 102 218 189 
	20 9 1 12 94 104 33 133 221 10 11 95 92 105 132 222 219 102 32 131 218 
	20 18 94 15 3 191 221 162 78 93 96 16 17 220 223 163 190 189 218 160 77 
	20 94 12 2 15 221 133 63 162 95 13 14 96 222 134 161 223 218 131 62 160 
	20 60 104 221 191 58 108 227 195 103 219 220 192 107 225 226 196 59 106 224 193 
	20 104 33 133 221 108 35 137 227 105 132 222 219 109 136 228 225 106 34 135 224 
	20 191 221 162 78 195 227 166 80 220 223 163 190 226 229 167 194 193 224 164 79 
	20 221 133 63 162 227 137 65 166 222 134 161 223 228 138 165 229 224 135 64 164 
	20 58 108 227 195 56 112 233 199 107 225 226 196 111 231 232 200 57 110 230 197 
	20 108 35 137 227 112 37 141 233 109 136 228 225 113 140 234 231 110 36 139 230 
	20 195 227 166 80 199 233 170 82 226 229 167 194 232 235 171 198 197 230 168 81 
	20 227 137 65 166 233 141 67 170 228 138 165 229 234 142 169 235 230 139 66 168 
	20 56 112 233 199 54 116 239 203 111 231 232 200 115 237 238 204 55 114 236 201 
	20 112 37 141 233 116 39 145 239 113 140 234 231 117 144 240 237 114 38 143 236 
	20 199 233 170 82 203 239 174 84 232 235 171 198 238 241 175 202 201 236 172 83 
	20 233 141 67 170 239 145 69 174 234 142 169 235 240 146 173 241 236 143 68 172 
	20 54 116 239 203 52 120 245 207 115 237 238 204 119 243 244 208 53 118 242 205 
	20 116 39 145 239 120 41 149 245 117 144 240 237 121 148 246 243 118 40 147 242 
	20 203 239 174 84 207 245 178 86 238 241 175 202 244 247 179 206 205 242 176 85 
	20 239 145 69 174 245 149 71 178 240 146 173 241 246 150 177 247 242 147 70 176 
	20 52 120 245 207 50 124 251 211 119 243 244 208 123 249 250 212 51 122 248 209 
	20 120 41 149 245 124 43 153 251 121 148 246 243 125 152 252 249 122 42 151 248 
	20 207 245 178 86 211 251 182 88 244 247 179 206 250 253 183 210 209 248 180 87 
	20 245 149 71 178 251 153 73 182 246 150 177 247 252 154 181 253 248 151 72 180 
	20 50 124 251 211 48 128 257 215 123 249 250 212 127 255 256 216 49 126 254 213 
	20 124 43 153 251 128 45 157 257 125 152 252 249 129 156 258 255 126 44 155 254 
	20 211 251 182 88 215 257 186 90 250 253 183 210 256 259 187 214 213 254 184 89 
	20 251 153 73 182 257 157 75 186 252 154 181 253 258 158 185 259 254 155 74 184 
	20 48 128 257 215 4 21 99 30 127 255 256 216 20 97 98 31 47 130 260 217 
	20 128 45 157 257 21 5 24 99 129 156 258 255 22 23 100 97 130 46 159 260 
	20 215 257 186 90 30 99 27 7 256 259 187 214 98 101 28 29 217 260 188 91 
	20 257 157 75 186 99 24 6 27 258 158 185 259 100 25 26 101 260 159 76 188 

CELL_TYPES 32
	25
	25
	25
	25
	25
	25
	25
	25
	25
	25
	25
	25
	25
	25
	25
	25
	25
	25
	25
	25
	25
	25
	25
	25
	25
	25
	25
	25
	25
	25
	25
	25

POINT_DATA 261
FIELD E 1
	E 10 261 double
		-1.01009000E-06	-8.06333000E-07	 1.75816000E-06	 3.55127000E-07	-2.61650000E-07	-1.55879000E-07	 1.86157606E-06	-1.27803595E-06	-5.77975206E-07	 1.79774815E-06
		-5.74701000E-07	-3.84943000E-07	 1.97650000E-06	-2.07100000E-07	-4.69687000E-07	-1.75111000E-09	 1.74496379E-06	-7.34871991E-07	-3.15291115E-07	 2.06701911E-06
		 4.40010000E-07	-2.31205000E-07	 2.88224000E-06	-3.70558000E-07	-3.44100000E-07	-1.05570000E-07	 1.98380863E-06	-4.34070811E-07	 6.03579930E-07	 2.92153588E-06
		 3.38721000E-07	 5.13577000E-08	 3.08463000E-06	-6.97352000E-08	-2.57512000E-07	-5.33160000E-07	 2.05242105E-06	-1.88489314E-08	 2.90696049E-07	 3.20286158E-06
		 8.68029000E-09	 5.77323000E-07	-2.31729000E-06	 7.39362000E-07	-3.97107000E-07	-5.78473000E-07	 2.12635126E-06	-2.47012570E-06	-4.69243111E-07	 1.20808210E-06
		-1.99394000E-06	 7.34724000E-07	-2.79289000E-06	-5.44790000E-08	-1.81365000E-08	 1.27305000E-06	 2.59365499E-06	-3.72773970E-06	-1.06082297E-06	 7.36456662E-07
		-2.46304000E-06	-2.90105000E-06	-4.05530000E-06	-2.22102000E-07	 2.27992000E-06	 1.65787000E-06	 3.40048436E-06	-6.38165123E-06	-2.40783207E-06	-6.29906705E-07
		 1.23381000E-07	-2.46801000E-06	-2.89463000E-06	-4.74249000E-07	 1.96012000E-06	-1.30301000E-07	 3.00035063E-06	-4.66320020E-06	-8.97021522E-07	 3.20962726E-07
		-7.58979000E-07	-3.01819000E-07	 1.88818000E-06	 1.89394000E-07	-4.70134000E-07	-1.53944000E-07	 1.74458595E-06	-8.27339803E-07	-3.43112061E-07	 1.99783386E-06
		-5.08790000E-07	 2.40387000E-07	 2.03512000E-06	 1.62907000E-08	-6.53291000E-07	-1.69849000E-07	 1.69896897E-06	-5.21310836E-07	 3.02652227E-08	 2.25776261E-06
		-5.42206000E-07	-5.34320000E-08	 2.01428000E-06	-9.90900000E-08	-5.48825000E-07	-9.47203000E-08	 1.69770770E-06	-5.80218355E-07	-1.53780738E-07	 2.15264109E-06
		-4.75651000E-07	-2.28930000E-06	-2.47504000E-06	-4.25558000E-08	 1.44279000E-06	 4.11761000E-07	 2.15196990E-06	-3.86022359E-06	-1.04042498E-06	-3.39342431E-07
		-2.45708000E-07	-2.59355000E-06	-7.07604000E-06	 7.00834000E-07	 1.77322000E-06	 8.20819000E-07	 4.66937640E-06	-7.73317433E-06	-2.37419115E-06	 1.92067476E-07
		 1.62598000E-07	-6.12325000E-07	-2.17163000E-06	 4.54561000E-07	-7.64724000E-08	 3.55397000E-07	 1.52848819E-06	-2.23768139E-06	-7.89373110E-07	 4.05697503E-07
		 2.17678000E-07	-3.65985000E-07	 2.93166000E-06	-2.90981000E-07	-2.09231000E-07	-2.07571000E-07	 2.08753033E-06	-5.07971284E-07	 3.33301094E-07	 2.95802319E-06
		 1.40332000E-08	-5.15615000E-07	 2.99271000E-06	-2.55482000E-07	-8.36113000E-08	-2.82438000E-07	 2.22977756E-06	-6.28224473E-07	 9.90962095E-08	 3.02025646E-06
		 1.85721000E-07	-2.39554000E-07	 3.04449000E-06	-1.84647000E-07	-1.75187000E-07	-3.94232000E-07	 2.13226990E-06	-3.36864894E-07	 2.23010002E-07	 3.10451189E-06
		 1.35004000E-07	 1.23913000E-07	-2.35844000E-06	 3.60727000E-07	-2.21705000E-07	 4.13336000E-07	 1.79382922E-06	-2.45523733E-06	-1.41994773E-07	 4.97709100E-07
		-2.00241000E-07	-1.78825000E-06	-7.73961000E-06	-1.47158000E-07	 1.80923000E-06	 1.30922000E-06	 5.26701892E-06	-8.45154698E-06	-1.31433448E-06	 3.77804620E-08
		-6.70930000E-07	-2.28965000E-06	-2.95977000E-06	-3.65189000E-07	 1.77136000E-06	 5.51369000E-07	 2.57158084E-06	-4.53929485E-06	-8.39192104E-07	-5.41863044E-07
		-1.80816000E-06	-5.44657000E-07	 2.90608000E-06	-4.67501000E-07	 1.29790000E-07	 5.08492000E-07	 2.93226817E-06	-2.01800364E-06	-3.90863559E-07	 2.96213019E-06
		-1.76356000E-06	-1.78608000E-06	 8.28066000E-06	-7.94108000E-07	 6.43113000E-07	-6.58477000E-07	 6.84905313E-06	-2.56900965E-06	-1.07121998E-06	 8.37124963E-06
		-9.48025000E-07	-5.85398000E-07	 2.81948000E-06	 1.58350000E-08	 3.05701000E-07	-8.19679000E-07	 2.60393939E-06	-1.13019369E-06	-5.98195955E-07	 3.01444664E-06
		-2.54957000E-07	-1.76803000E-06	 2.44619000E-06	-7.81402000E-07	 8.77552000E-07	-4.60036000E-07	 2.86353137E-06	-2.18938708E-06	-1.34744319E-07	 2.74733440E-06
		 1.27503000E-06	-1.85735000E-06	 7.62841000E-06	-4.49538000E-08	-6.68237000E-07	-2.36956000E-06	 6.26342365E-06	-1.92114205E-06	 5.15087976E-07	 8.45214408E-06
		-6.98498000E-07	-1.17249000E-06	 1.75813000E-06	 5.98158000E-07	-4.14896000E-07	-4.44063000E-07	 2.06618085E-06	-1.58175562E-06	-4.54483416E-07	 1.92338103E-06
		-1.14146000E-06	-6.31059000E-07	 1.60553000E-06	 7.28185000E-07	-3.40557000E-07	-6.22685000E-07	 2.05548632E-06	-1.68970234E-06	-3.18552858E-07	 1.84126620E-06
		-1.69306000E-06	 1.97597000E-06	 7.31388000E-06	 4.09131000E-07	-2.81017000E-06	-7.07799000E-07	 6.22669112E-06	-1.76085228E-06	 7.72975459E-07	 8.58466682E-06
		-1.72144000E-06	-7.74995000E-08	 2.23338000E-06	-6.67230000E-07	-3.49589000E-07	 6.78671000E-07	 2.57558285E-06	-2.02454387E-06	 2.71458489E-08	 2.43183853E-06
		-6.01126000E-07	-1.00250000E-06	 2.62482000E-06	 5.36453000E-08	-7.60764000E-07	 4.00968000E-07	 2.50243300E-06	-1.18717738E-06	-6.12355391E-07	 2.82072677E-06
		-1.35079000E-06	-2.13615000E-06	 7.96909000E-06	-5.12172000E-07	-9.31401000E-07	 9.48428000E-07	 6.69608328E-06	-2.40771093E-06	-1.26785478E-06	 8.15771571E-06
		-6.83633000E-07	-2.07900000E-06	 2.73831000E-06	-4.33260000E-07	 6.10871000E-07	 1.93073000E-07	 2.99822716E-06	-2.28423906E-06	-5.60143735E-07	 2.82005979E-06
		-4.22113000E-07	 1.37128000E-07	-8.62901000E-07	-2.94040000E-08	 2.95032000E-07	 7.64212000E-08	 6.78166583E-07	-9.55889088E-07	-4.09784694E-07	 2.17787782E-07
		-2.98644000E-07	-3.00883000E-07	-2.83995000E-06	 1.16370000E-07	 7.67513000E-07	 3.05593000E-07	 1.94828323E-06	-3.07893676E-06	-3.94978208E-07	 3.44379711E-08
		-3.02882000E-07	-6.71163000E-07	-2.23988000E-06	 8.37852000E-08	 5.27683000E-07	 3.71402000E-07	 1.40545902E-06	-2.45220871E-06	-6.07401485E-07	-1.54314801E-07
		-2.84748000E-07	-8.45113000E-08	-2.43255000E-06	 7.93844000E-08	 5.67655000E-07	 2.90599000E-07	 1.67626072E-06	-2.59322900E-06	-3.10320866E-07	 1.01740562E-07
		-3.06240000E-07	-1.63751000E-07	-2.28996000E-06	 7.39082000E-08	 5.43559000E-07	 2.95542000E-07	 1.54960899E-06	-2.45492427E-06	-3.36725314E-07	 3.16985812E-08
		-3.22252000E-07	-2.85864000E-07	-2.30323000E-06	 8.68895000E-08	 5.53354000E-07	 2.92185000E-07	 1.51951005E-06	-2.47692788E-06	-3.89178209E-07	-4.52399158E-08
		-3.05117000E-07	-2.86439000E-07	-2.32287000E-06	 7.69285000E-08	 5.35763000E-07	 3.29098000E-07	 1.53668620E-06	-2.49676399E-06	-3.70615567E-07	-4.70464441E-08
		-3.46995000E-07	-2.60856000E-07	-2.39359000E-06	 1.01319000E-07	 5.76848000E-07	 3.00691000E-07	 1.58780986E-06	-2.57174353E-06	-4.12849006E-07	-1.68484678E-08
		-2.95270000E-07	-2.55474000E-07	-2.35917000E-06	 6.57613000E-08	 5.56120000E-07	 3.18511000E-07	 1.57600503E-06	-2.53567343E-06	-3.42929773E-07	-3.13107951E-08
		-2.96893000E-07	-2.90387000E-07	-2.24237000E-06	 1.21896000E-07	 5.83764000E-07	 1.83517000E-07	 1.48556506E-06	-2.41354209E-06	-3.91860929E-07	-2.42469772E-08
		-2.56244000E-07	-2.28099000E-07	-2.43204000E-06	 5.42411000E-08	 5.03516000E-07	 4.31495000E-07	 1.64979370E-06	-2.61323160E-06	-2.98026603E-07	-5.12480161E-09
		-5.52651000E-07	-6.76591000E-08	-2.06858000E-06	 1.82696000E-07	 3.64816000E-07	 3.35417000E-07	 1.35078421E-06	-2.18838034E-06	-5.91361013E-07	 9.08512532E-08
		-4.01640000E-07	-5.71009000E-07	-2.93287000E-06	 4.00245000E-08	 9.47147000E-07	 1.91580000E-07	 1.97914417E-06	-3.27554082E-06	-4.42018818E-07	-1.87959366E-07
		 5.35635000E-07	-3.47429000E-07	-1.34614000E-06	-3.13539000E-08	 3.90703000E-07	 1.23263000E-07	 1.18614753E-06	-1.48875947E-06	-2.12891700E-07	 5.43717171E-07
		-5.61362000E-07	 5.76107000E-07	-5.94917000E-07	 1.61167000E-07	-3.48077000E-07	 4.52866000E-07	 1.03059626E-06	-1.10998656E-06	-1.43119029E-07	 6.72933589E-07
		 9.06380000E-07	 1.12655000E-06	-2.61185000E-08	 4.35145000E-07	-6.49062000E-07	-6.07884000E-07	 1.34392515E-06	-4.43463636E-07	 5.72049182E-07	 1.87822595E-06
		 3.22665000E-07	 1.29520000E-07	-1.54704000E-06	-1.26113000E-07	 3.88920000E-07	 1.64199000E-07	 1.29174323E-06	-1.65072202E-06	 1.70479406E-07	 3.85387614E-07
		-8.13767000E-07	-7.83760000E-07	-3.29312000E-06	-2.12628000E-07	 1.10998000E-06	 7.18443000E-07	 2.27085588E-06	-3.89487745E-06	-6.43040222E-07	-3.52729333E-07
		-2.72179000E-07	-1.32468000E-07	-1.84488000E-06	 2.50653000E-07	 3.44043000E-07	 1.55850000E-07	 1.21638379E-06	-1.91834061E-06	-4.58255077E-07	 1.27068687E-07
		-2.16275000E-07	-1.77752000E-07	-2.51239000E-06	 2.01857000E-07	 4.59547000E-07	 2.11222000E-07	 1.66689527E-06	-2.61175195E-06	-3.91157268E-07	 9.64922195E-08
		-3.34145000E-07	-2.70667000E-07	-2.41090000E-06	-1.97387000E-08	 6.55707000E-07	 4.29894000E-07	 1.67255220E-06	-2.67109734E-06	-3.01752180E-07	-4.28624763E-08
		-3.41704000E-07	-2.90253000E-07	-2.50130000E-06	 7.16739000E-08	 6.01165000E-07	 3.36655000E-07	 1.66229223E-06	-2.69481065E-06	-3.91174127E-07	-4.72722222E-08
		-3.49795000E-07	-2.75476000E-07	-2.55024000E-06	 9.16225000E-08	 6.00832000E-07	 3.43777000E-07	 1.69623709E-06	-2.74000735E-06	-4.10946577E-07	-2.45570713E-08
		-3.25313000E-07	-2.86690000E-07	-2.48958000E-06	 9.90246000E-08	 5.79172000E-07	 3.28630000E-07	 1.65043632E-06	-2.66995995E-06	-4.03801481E-07	-2.78215729E-08
		-3.23503000E-07	-2.95566000E-07	-2.52926000E-06	 6.98329000E-08	 6.02248000E-07	 3.50993000E-07	 1.68656031E-06	-2.72496116E-06	-3.78547412E-07	-4.48204266E-08
		-3.54625000E-07	-2.53390000E-07	-2.52705000E-06	 9.36392000E-08	 5.91339000E-07	 3.28429000E-07	 1.67975547E-06	-2.70923434E-06	-4.10351335E-07	-1.54793265E-08
		-3.77069000E-07	-1.13543000E-07	-2.70014000E-06	 1.32645000E-07	 6.64135000E-07	 2.98297000E-07	 1.85247555E-06	-2.88751569E-06	-4.32160740E-07	 1.28924426E-07
		-3.31451000E-07	-5.53389000E-07	-2.37741000E-06	 2.38126000E-08	 5.93941000E-07	 3.74253000E-07	 1.52917166E-06	-2.60835610E-06	-4.64176361E-07	-1.89717540E-07
		-2.41563000E-07	-2.93227000E-07	-3.31990000E-06	-1.64702000E-08	 8.11634000E-07	 4.42946000E-07	 2.29835257E-06	-3.58016728E-06	-2.40305040E-07	-3.42176789E-08
		-5.99538000E-07	-1.47249000E-07	-1.45495000E-06	 2.17153000E-07	 4.52058000E-07	 1.29031000E-07	 9.72435898E-07	-1.59956223E-06	-6.84768722E-07	 8.25939554E-08
		 1.93935000E-07	 3.05675000E-07	-2.34918000E-07	-5.72795000E-08	-2.20839000E-07	 1.29650000E-07	 4.47660854E-07	-3.34218498E-07	 1.71187141E-07	 4.27723357E-07
		-1.72599000E-07	 7.15544000E-08	-2.86455000E-06	 2.01414000E-07	 4.19890000E-07	 3.13975000E-07	 1.98995551E-06	-2.95242245E-06	-2.84599633E-07	 2.71427486E-07
		-3.38548000E-07	-5.03179000E-07	-2.39164000E-06	 8.58066000E-08	 7.44245000E-07	 2.98225000E-07	 1.61312563E-06	-2.67735378E-06	-4.58769182E-07	-9.72440379E-08
		-3.51647000E-07	-2.25019000E-07	-2.31493000E-06	 5.63568000E-08	 4.84645000E-07	 3.16617000E-07	 1.51056001E-06	-2.46375180E-06	-3.69160961E-07	-5.86832439E-08
		-2.98127000E-07	-1.89516000E-07	-2.25425000E-06	 8.79644000E-08	 4.79429000E-07	 3.04669000E-07	 1.49694642E-06	-2.39727446E-06	-3.46893761E-07	 2.27521941E-09
		-2.82206000E-07	-2.55533000E-07	-2.31766000E-06	 7.63551000E-08	 5.57651000E-07	 3.07225000E-07	 1.55372698E-06	-2.49416812E-06	-3.43020167E-07	-1.82107093E-08
		-3.14615000E-07	-2.80748000E-07	-2.33846000E-06	 7.73401000E-08	 5.66340000E-07	 3.13536000E-07	 1.55502326E-06	-2.52086150E-06	-3.74171746E-07	-3.87897564E-08
		-3.41417000E-07	-2.81230000E-07	-2.32705000E-06	 5.88993000E-08	 5.57518000E-07	 3.17020000E-07	 1.53626699E-06	-2.50877620E-06	-3.77381131E-07	-6.35396670E-08
		-2.77269000E-07	-2.20519000E-07	-2.36642000E-06	 1.07529000E-07	 5.32925000E-07	 3.04299000E-07	 1.58476638E-06	-2.52451060E-06	-3.58181174E-07	 1.84837773E-08
		-2.47227000E-07	-2.02765000E-07	-2.22358000E-06	 5.07568000E-08	 4.91211000E-07	 2.58673000E-07	 1.47996236E-06	-2.36408796E-06	-2.79828416E-07	-2.96556214E-08
		-3.64259000E-07	-3.12586000E-07	-2.49847000E-06	 8.70586000E-08	 6.26083000E-07	 3.69820000E-07	 1.67023427E-06	-2.71312383E-06	-4.28006256E-07	-3.41849145E-08
		-5.73430000E-07	-5.36107000E-07	-2.05695000E-06	-1.57048000E-07	 7.39413000E-07	 4.39311000E-07	 1.42216790E-06	-2.47164519E-06	-4.60608968E-07	-2.34232837E-07
		-1.14804000E-07	-5.07377000E-08	-2.62208000E-06	 3.11908000E-07	 3.52548000E-07	 1.65527000E-07	 1.78861796E-06	-2.67548985E-06	-3.91085940E-07	 2.78954094E-07
		 4.52844000E-07	 6.45987000E-07	-1.95656000E-06	 2.84835000E-07	 4.16393000E-08	-1.00099000E-07	 1.71095103E-06	-1.96181926E-06	 2.53699120E-07	 8.50391143E-07
		-1.01351000E-06	-1.09763000E-06	-1.94157000E-06	-4.25088000E-07	 1.17915000E-06	 7.43147000E-07	 1.78392689E-06	-3.11763158E-06	-6.81548206E-07	-2.53530215E-07
		 1.88025000E-08	-1.58068000E-08	-6.32911000E-07	 4.19745000E-09	 9.69101000E-08	 1.16108000E-07	 4.58036245E-07	-6.66790778E-07	-1.04619879E-08	 4.73374658E-08
		-3.37060000E-07	-2.73032000E-07	-3.36895000E-06	 1.60474000E-07	 6.03240000E-07	 4.97508000E-07	 2.24123738E-06	-3.54840803E-06	-4.68681253E-07	 3.80472810E-08
		-3.40995000E-07	-3.36139000E-07	-2.50459000E-06	 1.25963000E-07	 6.23116000E-07	 3.17138000E-07	 1.66076603E-06	-2.70288382E-06	-4.53250218E-07	-2.55899597E-08
		-3.13506000E-07	-2.63506000E-07	-2.61683000E-06	 5.94626000E-08	 5.51886000E-07	 3.70754000E-07	 1.73329296E-06	-2.78915400E-06	-3.53008214E-07	-5.16797839E-08
		-3.19521000E-07	-2.91472000E-07	-2.51329000E-06	 8.65566000E-08	 5.94896000E-07	 3.38665000E-07	 1.67374550E-06	-2.70238947E-06	-3.89755110E-07	-3.21384192E-08
		-3.44411000E-07	-2.79262000E-07	-2.51096000E-06	 8.97151000E-08	 5.73698000E-07	 3.51298000E-07	 1.66280792E-06	-2.69369261E-06	-4.06896015E-07	-3.40443718E-08
		-3.38340000E-07	-2.69433000E-07	-2.52195000E-06	 8.13451000E-08	 6.10162000E-07	 3.20900000E-07	 1.68246398E-06	-2.71244311E-06	-3.91224190E-07	-2.60556979E-08
		-3.45866000E-07	-3.26184000E-07	-2.51492000E-06	 1.11587000E-07	 5.71158000E-07	 3.59069000E-07	 1.65337163E-06	-2.69937962E-06	-4.44452484E-07	-4.31378939E-08
		-3.25959000E-07	-2.49892000E-07	-2.51722000E-06	 6.84888000E-08	 5.97502000E-07	 3.30504000E-07	 1.68481985E-06	-2.70413311E-06	-3.66201433E-07	-2.27364578E-08
		-3.52392000E-07	-2.60081000E-07	-2.35666000E-06	 1.34015000E-07	 4.32128000E-07	 3.85847000E-07	 1.53062734E-06	-2.50056188E-06	-4.46682019E-07	-2.18891008E-08
		-3.13813000E-07	-2.33524000E-07	-2.55395000E-06	 4.76976000E-08	 7.16722000E-07	 2.69591000E-07	 1.76010768E-06	-2.78210679E-06	-3.35524827E-07	 1.63446166E-08