    1C
    1UModel: beam     Date: 10-Mar-1998                                 
    1UUSER                                                              
    1UDATE              25.january.2020                                 
    1UTIME              14:51:28                                        
    1UHOST                                                              
    1UPGM               CalculiX                                        
    1UVERSION           Version 2.16                             
    1UCOMPILETIME       Tue  7 Jan 19:57:43 CET 2020                    
    1UDIR                                                               
    1UDBN                                                               
    1UMAT    1UNDO_NLGEOM_LIN_ISO_EL_1                                  
    2C                           261                                     1
 -1         1 0.00000E+00 0.00000E+00 0.00000E+00
 -1         2 1.00000E+00 0.00000E+00 0.00000E+00
 -1         3 1.00000E+00 1.00000E+00 0.00000E+00
 -1         4 0.00000E+00 1.00000E+00 0.00000E+00
 -1         5 0.00000E+00 0.00000E+00 8.00000E+00
 -1         6 1.00000E+00 0.00000E+00 8.00000E+00
 -1         7 1.00000E+00 1.00000E+00 8.00000E+00
 -1         8 0.00000E+00 1.00000E+00 8.00000E+00
 -1         9 2.50000E-01 0.00000E+00 0.00000E+00
 -1        10 5.00000E-01 0.00000E+00 0.00000E+00
 -1        11 7.50000E-01 0.00000E+00 0.00000E+00
 -1        12 1.00000E+00 2.50000E-01 0.00000E+00
 -1        13 1.00000E+00 5.00000E-01 0.00000E+00
 -1        14 1.00000E+00 7.50000E-01 0.00000E+00
 -1        15 7.50000E-01 1.00000E+00 0.00000E+00
 -1        16 5.00000E-01 1.00000E+00 0.00000E+00
 -1        17 2.50000E-01 1.00000E+00 0.00000E+00
 -1        18 0.00000E+00 7.50000E-01 0.00000E+00
 -1        19 0.00000E+00 5.00000E-01 0.00000E+00
 -1        20 0.00000E+00 2.50000E-01 0.00000E+00
 -1        21 2.50000E-01 0.00000E+00 8.00000E+00
 -1        22 5.00000E-01 0.00000E+00 8.00000E+00
 -1        23 7.50000E-01 0.00000E+00 8.00000E+00
 -1        24 1.00000E+00 2.50000E-01 8.00000E+00
 -1        25 1.00000E+00 5.00000E-01 8.00000E+00
 -1        26 1.00000E+00 7.50000E-01 8.00000E+00
 -1        27 7.50000E-01 1.00000E+00 8.00000E+00
 -1        28 5.00000E-01 1.00000E+00 8.00000E+00
 -1        29 2.50000E-01 1.00000E+00 8.00000E+00
 -1        30 0.00000E+00 7.50000E-01 8.00000E+00
 -1        31 0.00000E+00 5.00000E-01 8.00000E+00
 -1        32 0.00000E+00 2.50000E-01 8.00000E+00
 -1        33 1.00000E+00 0.00000E+00 5.00000E-01
 -1        34 1.00000E+00 0.00000E+00 1.00000E+00
 -1        35 1.00000E+00 0.00000E+00 1.50000E+00
 -1        36 1.00000E+00 0.00000E+00 2.00000E+00
 -1        37 1.00000E+00 0.00000E+00 2.50000E+00
 -1        38 1.00000E+00 0.00000E+00 3.00000E+00
 -1        39 1.00000E+00 0.00000E+00 3.50000E+00
 -1        40 1.00000E+00 0.00000E+00 4.00000E+00
 -1        41 1.00000E+00 0.00000E+00 4.50000E+00
 -1        42 1.00000E+00 0.00000E+00 5.00000E+00
 -1        43 1.00000E+00 0.00000E+00 5.50000E+00
 -1        44 1.00000E+00 0.00000E+00 6.00000E+00
 -1        45 1.00000E+00 0.00000E+00 6.50000E+00
 -1        46 1.00000E+00 0.00000E+00 7.00000E+00
 -1        47 1.00000E+00 0.00000E+00 7.50000E+00
 -1        48 0.00000E+00 0.00000E+00 7.50000E+00
 -1        49 0.00000E+00 0.00000E+00 7.00000E+00
 -1        50 0.00000E+00 0.00000E+00 6.50000E+00
 -1        51 0.00000E+00 0.00000E+00 6.00000E+00
 -1        52 0.00000E+00 0.00000E+00 5.50000E+00
 -1        53 0.00000E+00 0.00000E+00 5.00000E+00
 -1        54 0.00000E+00 0.00000E+00 4.50000E+00
 -1        55 0.00000E+00 0.00000E+00 4.00000E+00
 -1        56 0.00000E+00 0.00000E+00 3.50000E+00
 -1        57 0.00000E+00 0.00000E+00 3.00000E+00
 -1        58 0.00000E+00 0.00000E+00 2.50000E+00
 -1        59 0.00000E+00 0.00000E+00 2.00000E+00
 -1        60 0.00000E+00 0.00000E+00 1.50000E+00
 -1        61 0.00000E+00 0.00000E+00 1.00000E+00
 -1        62 0.00000E+00 0.00000E+00 5.00000E-01
 -1        63 1.00000E+00 1.00000E+00 5.00000E-01
 -1        64 1.00000E+00 1.00000E+00 1.00000E+00
 -1        65 1.00000E+00 1.00000E+00 1.50000E+00
 -1        66 1.00000E+00 1.00000E+00 2.00000E+00
 -1        67 1.00000E+00 1.00000E+00 2.50000E+00
 -1        68 1.00000E+00 1.00000E+00 3.00000E+00
 -1        69 1.00000E+00 1.00000E+00 3.50000E+00
 -1        70 1.00000E+00 1.00000E+00 4.00000E+00
 -1        71 1.00000E+00 1.00000E+00 4.50000E+00
 -1        72 1.00000E+00 1.00000E+00 5.00000E+00
 -1        73 1.00000E+00 1.00000E+00 5.50000E+00
 -1        74 1.00000E+00 1.00000E+00 6.00000E+00
 -1        75 1.00000E+00 1.00000E+00 6.50000E+00
 -1        76 1.00000E+00 1.00000E+00 7.00000E+00
 -1        77 1.00000E+00 1.00000E+00 7.50000E+00
 -1        78 0.00000E+00 1.00000E+00 5.00000E-01
 -1        79 0.00000E+00 1.00000E+00 1.00000E+00
 -1        80 0.00000E+00 1.00000E+00 1.50000E+00
 -1        81 0.00000E+00 1.00000E+00 2.00000E+00
 -1        82 0.00000E+00 1.00000E+00 2.50000E+00
 -1        83 0.00000E+00 1.00000E+00 3.00000E+00
 -1        84 0.00000E+00 1.00000E+00 3.50000E+00
 -1        85 0.00000E+00 1.00000E+00 4.00000E+00
 -1        86 0.00000E+00 1.00000E+00 4.50000E+00
 -1        87 0.00000E+00 1.00000E+00 5.00000E+00
 -1        88 0.00000E+00 1.00000E+00 5.50000E+00
 -1        89 0.00000E+00 1.00000E+00 6.00000E+00
 -1        90 0.00000E+00 1.00000E+00 6.50000E+00
 -1        91 0.00000E+00 1.00000E+00 7.00000E+00
 -1        92 0.00000E+00 1.00000E+00 7.50000E+00
 -1        93 5.00000E-01 2.50000E-01 0.00000E+00
 -1        94 2.50000E-01 5.00000E-01 0.00000E+00
 -1        95 5.00000E-01 5.00000E-01 0.00000E+00
 -1        96 7.50000E-01 5.00000E-01 0.00000E+00
 -1        97 5.00000E-01 7.50000E-01 0.00000E+00
 -1        98 5.00000E-01 2.50000E-01 8.00000E+00
 -1        99 2.50000E-01 5.00000E-01 8.00000E+00
 -1       100 5.00000E-01 5.00000E-01 8.00000E+00
 -1       101 7.50000E-01 5.00000E-01 8.00000E+00
 -1       102 5.00000E-01 7.50000E-01 8.00000E+00
 -1       103 5.00000E-01 0.00000E+00 5.00000E-01
 -1       104 2.50000E-01 0.00000E+00 1.00000E+00
 -1       105 5.00000E-01 0.00000E+00 1.00000E+00
 -1       106 7.50000E-01 0.00000E+00 1.00000E+00
 -1       107 5.00000E-01 0.00000E+00 1.50000E+00
 -1       108 2.50000E-01 0.00000E+00 2.00000E+00
 -1       109 5.00000E-01 0.00000E+00 2.00000E+00
 -1       110 7.50000E-01 0.00000E+00 2.00000E+00
 -1       111 5.00000E-01 0.00000E+00 2.50000E+00
 -1       112 2.50000E-01 0.00000E+00 3.00000E+00
 -1       113 5.00000E-01 0.00000E+00 3.00000E+00
 -1       114 7.50000E-01 0.00000E+00 3.00000E+00
 -1       115 5.00000E-01 0.00000E+00 3.50000E+00
 -1       116 2.50000E-01 0.00000E+00 4.00000E+00
 -1       117 5.00000E-01 0.00000E+00 4.00000E+00
 -1       118 7.50000E-01 0.00000E+00 4.00000E+00
 -1       119 5.00000E-01 0.00000E+00 4.50000E+00
 -1       120 2.50000E-01 0.00000E+00 5.00000E+00
 -1       121 5.00000E-01 0.00000E+00 5.00000E+00
 -1       122 7.50000E-01 0.00000E+00 5.00000E+00
 -1       123 5.00000E-01 0.00000E+00 5.50000E+00
 -1       124 2.50000E-01 0.00000E+00 6.00000E+00
 -1       125 5.00000E-01 0.00000E+00 6.00000E+00
 -1       126 7.50000E-01 0.00000E+00 6.00000E+00
 -1       127 5.00000E-01 0.00000E+00 6.50000E+00
 -1       128 2.50000E-01 0.00000E+00 7.00000E+00
 -1       129 5.00000E-01 0.00000E+00 7.00000E+00
 -1       130 7.50000E-01 0.00000E+00 7.00000E+00
 -1       131 5.00000E-01 0.00000E+00 7.50000E+00
 -1       132 1.00000E+00 5.00000E-01 5.00000E-01
 -1       133 1.00000E+00 2.50000E-01 1.00000E+00
 -1       134 1.00000E+00 5.00000E-01 1.00000E+00
 -1       135 1.00000E+00 7.50000E-01 1.00000E+00
 -1       136 1.00000E+00 5.00000E-01 1.50000E+00
 -1       137 1.00000E+00 2.50000E-01 2.00000E+00
 -1       138 1.00000E+00 5.00000E-01 2.00000E+00
 -1       139 1.00000E+00 7.50000E-01 2.00000E+00
 -1       140 1.00000E+00 5.00000E-01 2.50000E+00
 -1       141 1.00000E+00 2.50000E-01 3.00000E+00
 -1       142 1.00000E+00 5.00000E-01 3.00000E+00
 -1       143 1.00000E+00 7.50000E-01 3.00000E+00
 -1       144 1.00000E+00 5.00000E-01 3.50000E+00
 -1       145 1.00000E+00 2.50000E-01 4.00000E+00
 -1       146 1.00000E+00 5.00000E-01 4.00000E+00
 -1       147 1.00000E+00 7.50000E-01 4.00000E+00
 -1       148 1.00000E+00 5.00000E-01 4.50000E+00
 -1       149 1.00000E+00 2.50000E-01 5.00000E+00
 -1       150 1.00000E+00 5.00000E-01 5.00000E+00
 -1       151 1.00000E+00 7.50000E-01 5.00000E+00
 -1       152 1.00000E+00 5.00000E-01 5.50000E+00
 -1       153 1.00000E+00 2.50000E-01 6.00000E+00
 -1       154 1.00000E+00 5.00000E-01 6.00000E+00
 -1       155 1.00000E+00 7.50000E-01 6.00000E+00
 -1       156 1.00000E+00 5.00000E-01 6.50000E+00
 -1       157 1.00000E+00 2.50000E-01 7.00000E+00
 -1       158 1.00000E+00 5.00000E-01 7.00000E+00
 -1       159 1.00000E+00 7.50000E-01 7.00000E+00
 -1       160 1.00000E+00 5.00000E-01 7.50000E+00
 -1       161 5.00000E-01 1.00000E+00 5.00000E-01
 -1       162 7.50000E-01 1.00000E+00 1.00000E+00
 -1       163 5.00000E-01 1.00000E+00 1.00000E+00
 -1       164 2.50000E-01 1.00000E+00 1.00000E+00
 -1       165 5.00000E-01 1.00000E+00 1.50000E+00
 -1       166 7.50000E-01 1.00000E+00 2.00000E+00
 -1       167 5.00000E-01 1.00000E+00 2.00000E+00
 -1       168 2.50000E-01 1.00000E+00 2.00000E+00
 -1       169 5.00000E-01 1.00000E+00 2.50000E+00
 -1       170 7.50000E-01 1.00000E+00 3.00000E+00
 -1       171 5.00000E-01 1.00000E+00 3.00000E+00
 -1       172 2.50000E-01 1.00000E+00 3.00000E+00
 -1       173 5.00000E-01 1.00000E+00 3.50000E+00
 -1       174 7.50000E-01 1.00000E+00 4.00000E+00
 -1       175 5.00000E-01 1.00000E+00 4.00000E+00
 -1       176 2.50000E-01 1.00000E+00 4.00000E+00
 -1       177 5.00000E-01 1.00000E+00 4.50000E+00
 -1       178 7.50000E-01 1.00000E+00 5.00000E+00
 -1       179 5.00000E-01 1.00000E+00 5.00000E+00
 -1       180 2.50000E-01 1.00000E+00 5.00000E+00
 -1       181 5.00000E-01 1.00000E+00 5.50000E+00
 -1       182 7.50000E-01 1.00000E+00 6.00000E+00
 -1       183 5.00000E-01 1.00000E+00 6.00000E+00
 -1       184 2.50000E-01 1.00000E+00 6.00000E+00
 -1       185 5.00000E-01 1.00000E+00 6.50000E+00
 -1       186 7.50000E-01 1.00000E+00 7.00000E+00
 -1       187 5.00000E-01 1.00000E+00 7.00000E+00
 -1       188 2.50000E-01 1.00000E+00 7.00000E+00
 -1       189 5.00000E-01 1.00000E+00 7.50000E+00
 -1       190 0.00000E+00 5.00000E-01 5.00000E-01
 -1       191 0.00000E+00 7.50000E-01 1.00000E+00
 -1       192 0.00000E+00 5.00000E-01 1.00000E+00
 -1       193 0.00000E+00 2.50000E-01 1.00000E+00
 -1       194 0.00000E+00 5.00000E-01 1.50000E+00
 -1       195 0.00000E+00 7.50000E-01 2.00000E+00
 -1       196 0.00000E+00 5.00000E-01 2.00000E+00
 -1       197 0.00000E+00 2.50000E-01 2.00000E+00
 -1       198 0.00000E+00 5.00000E-01 2.50000E+00
 -1       199 0.00000E+00 7.50000E-01 3.00000E+00
 -1       200 0.00000E+00 5.00000E-01 3.00000E+00
 -1       201 0.00000E+00 2.50000E-01 3.00000E+00
 -1       202 0.00000E+00 5.00000E-01 3.50000E+00
 -1       203 0.00000E+00 7.50000E-01 4.00000E+00
 -1       204 0.00000E+00 5.00000E-01 4.00000E+00
 -1       205 0.00000E+00 2.50000E-01 4.00000E+00
 -1       206 0.00000E+00 5.00000E-01 4.50000E+00
 -1       207 0.00000E+00 7.50000E-01 5.00000E+00
 -1       208 0.00000E+00 5.00000E-01 5.00000E+00
 -1       209 0.00000E+00 2.50000E-01 5.00000E+00
 -1       210 0.00000E+00 5.00000E-01 5.50000E+00
 -1       211 0.00000E+00 7.50000E-01 6.00000E+00
 -1       212 0.00000E+00 5.00000E-01 6.00000E+00
 -1       213 0.00000E+00 2.50000E-01 6.00000E+00
 -1       214 0.00000E+00 5.00000E-01 6.50000E+00
 -1       215 0.00000E+00 7.50000E-01 7.00000E+00
 -1       216 0.00000E+00 5.00000E-01 7.00000E+00
 -1       217 0.00000E+00 2.50000E-01 7.00000E+00
 -1       218 0.00000E+00 5.00000E-01 7.50000E+00
 -1       219 5.00000E-01 5.00000E-01 5.00000E-01
 -1       220 5.00000E-01 2.50000E-01 1.00000E+00
 -1       221 2.50000E-01 5.00000E-01 1.00000E+00
 -1       222 5.00000E-01 5.00000E-01 1.00000E+00
 -1       223 7.50000E-01 5.00000E-01 1.00000E+00
 -1       224 5.00000E-01 7.50000E-01 1.00000E+00
 -1       225 5.00000E-01 5.00000E-01 1.50000E+00
 -1       226 5.00000E-01 2.50000E-01 2.00000E+00
 -1       227 2.50000E-01 5.00000E-01 2.00000E+00
 -1       228 5.00000E-01 5.00000E-01 2.00000E+00
 -1       229 7.50000E-01 5.00000E-01 2.00000E+00
 -1       230 5.00000E-01 7.50000E-01 2.00000E+00
 -1       231 5.00000E-01 5.00000E-01 2.50000E+00
 -1       232 5.00000E-01 2.50000E-01 3.00000E+00
 -1       233 2.50000E-01 5.00000E-01 3.00000E+00
 -1       234 5.00000E-01 5.00000E-01 3.00000E+00
 -1       235 7.50000E-01 5.00000E-01 3.00000E+00
 -1       236 5.00000E-01 7.50000E-01 3.00000E+00
 -1       237 5.00000E-01 5.00000E-01 3.50000E+00
 -1       238 5.00000E-01 2.50000E-01 4.00000E+00
 -1       239 2.50000E-01 5.00000E-01 4.00000E+00
 -1       240 5.00000E-01 5.00000E-01 4.00000E+00
 -1       241 7.50000E-01 5.00000E-01 4.00000E+00
 -1       242 5.00000E-01 7.50000E-01 4.00000E+00
 -1       243 5.00000E-01 5.00000E-01 4.50000E+00
 -1       244 5.00000E-01 2.50000E-01 5.00000E+00
 -1       245 2.50000E-01 5.00000E-01 5.00000E+00
 -1       246 5.00000E-01 5.00000E-01 5.00000E+00
 -1       247 7.50000E-01 5.00000E-01 5.00000E+00
 -1       248 5.00000E-01 7.50000E-01 5.00000E+00
 -1       249 5.00000E-01 5.00000E-01 5.50000E+00
 -1       250 5.00000E-01 2.50000E-01 6.00000E+00
 -1       251 2.50000E-01 5.00000E-01 6.00000E+00
 -1       252 5.00000E-01 5.00000E-01 6.00000E+00
 -1       253 7.50000E-01 5.00000E-01 6.00000E+00
 -1       254 5.00000E-01 7.50000E-01 6.00000E+00
 -1       255 5.00000E-01 5.00000E-01 6.50000E+00
 -1       256 5.00000E-01 2.50000E-01 7.00000E+00
 -1       257 2.50000E-01 5.00000E-01 7.00000E+00
 -1       258 5.00000E-01 5.00000E-01 7.00000E+00
 -1       259 7.50000E-01 5.00000E-01 7.00000E+00
 -1       260 5.00000E-01 7.50000E-01 7.00000E+00
 -1       261 5.00000E-01 5.00000E-01 7.50000E+00
 -3
    3C                            32                                     1
 -1         1    4    0    1
 -2         1        10        95        19        61       105       222       192         9        93
 -2        94        20        62       103       219       190       104       220       221       193
 -1         2    4    0    1
 -2        10         2        13        95       105        34       134       222        11        12
 -2        96        93       103        33       132       219       106       133       223       220
 -1         3    4    0    1
 -2        19        95        16         4       192       222       163        79        94        97
 -2        17        18       190       219       161        78       221       224       164       191
 -1         4    4    0    1
 -2        95        13         3        16       222       134        64       163        96        14
 -2        15        97       219       132        63       161       223       135       162       224
 -1         5    4    0    1
 -2        61       105       222       192        59       109       228       196       104       220
 -2       221       193        60       107       225       194       108       226       227       197
 -1         6    4    0    1
 -2       105        34       134       222       109        36       138       228       106       133
 -2       223       220       107        35       136       225       110       137       229       226
 -1         7    4    0    1
 -2       192       222       163        79       196       228       167        81       221       224
 -2       164       191       194       225       165        80       227       230       168       195
 -1         8    4    0    1
 -2       222       134        64       163       228       138        66       167       223       135
 -2       162       224       225       136        65       165       229       139       166       230
 -1         9    4    0    1
 -2        59       109       228       196        57       113       234       200       108       226
 -2       227       197        58       111       231       198       112       232       233       201
 -1        10    4    0    1
 -2       109        36       138       228       113        38       142       234       110       137
 -2       229       226       111        37       140       231       114       141       235       232
 -1        11    4    0    1
 -2       196       228       167        81       200       234       171        83       227       230
 -2       168       195       198       231       169        82       233       236       172       199
 -1        12    4    0    1
 -2       228       138        66       167       234       142        68       171       229       139
 -2       166       230       231       140        67       169       235       143       170       236
 -1        13    4    0    1
 -2        57       113       234       200        55       117       240       204       112       232
 -2       233       201        56       115       237       202       116       238       239       205
 -1        14    4    0    1
 -2       113        38       142       234       117        40       146       240       114       141
 -2       235       232       115        39       144       237       118       145       241       238
 -1        15    4    0    1
 -2       200       234       171        83       204       240       175        85       233       236
 -2       172       199       202       237       173        84       239       242       176       203
 -1        16    4    0    1
 -2       234       142        68       171       240       146        70       175       235       143
 -2       170       236       237       144        69       173       241       147       174       242
 -1        17    4    0    1
 -2        55       117       240       204        53       121       246       208       116       238
 -2       239       205        54       119       243       206       120       244       245       209
 -1        18    4    0    1
 -2       117        40       146       240       121        42       150       246       118       145
 -2       241       238       119        41       148       243       122       149       247       244
 -1        19    4    0    1
 -2       204       240       175        85       208       246       179        87       239       242
 -2       176       203       206       243       177        86       245       248       180       207
 -1        20    4    0    1
 -2       240       146        70       175       246       150        72       179       241       147
 -2       174       242       243       148        71       177       247       151       178       248
 -1        21    4    0    1
 -2        53       121       246       208        51       125       252       212       120       244
 -2       245       209        52       123       249       210       124       250       251       213
 -1        22    4    0    1
 -2       121        42       150       246       125        44       154       252       122       149
 -2       247       244       123        43       152       249       126       153       253       250
 -1        23    4    0    1
 -2       208       246       179        87       212       252       183        89       245       248
 -2       180       207       210       249       181        88       251       254       184       211
 -1        24    4    0    1
 -2       246       150        72       179       252       154        74       183       247       151
 -2       178       248       249       152        73       181       253       155       182       254
 -1        25    4    0    1
 -2        51       125       252       212        49       129       258       216       124       250
 -2       251       213        50       127       255       214       128       256       257       217
 -1        26    4    0    1
 -2       125        44       154       252       129        46       158       258       126       153
 -2       253       250       127        45       156       255       130       157       259       256
 -1        27    4    0    1
 -2       212       252       183        89       216       258       187        91       251       254
 -2       184       211       214       255       185        90       257       260       188       215
 -1        28    4    0    1
 -2       252       154        74       183       258       158        76       187       253       155
 -2       182       254       255       156        75       185       259       159       186       260
 -1        29    4    0    1
 -2        49       129       258       216         5        22       100        31       128       256
 -2       257       217        48       131       261       218        21        98        99        32
 -1        30    4    0    1
 -2       129        46       158       258        22         6        25       100       130       157
 -2       259       256       131        47       160       261        23        24       101        98
 -1        31    4    0    1
 -2       216       258       187        91        31       100        28         8       257       260
 -2       188       215       218       261       189        92        99       102        29        30
 -1        32    4    0    1
 -2       258       158        76       187       100        25         7        28       259       159
 -2       186       260       261       160        77       189       101        26        27       102
 -3
    1PSTEP                         1           1           1          
  100CL  101 1.000000000         261                     0    1           1
 -4  TOSTRAIN    6    1
 -5  EXX         1    4    1    1
 -5  EYY         1    4    2    2
 -5  EZZ         1    4    3    3
 -5  EXY         1    4    1    2
 -5  EYZ         1    4    2    3
 -5  EZX         1    4    3    1
 -1         1 2.56254E-13 5.57149E-13-2.08127E-12 3.57534E-13 9.77472E-13-2.98889E-13
 -1         2 2.55755E-13 5.56407E-13-2.08140E-12-3.57708E-13 9.77557E-13 2.99020E-13
 -1         3 2.57119E-13 5.57994E-13-2.08027E-12 3.57594E-13-9.77380E-13 2.98952E-13
 -1         4 2.57059E-13 5.57049E-13-2.08065E-12-3.57611E-13-9.77317E-13-2.98961E-13
 -1         5-4.05297E-13-4.05443E-13 2.96890E-12 3.49478E-13 2.58589E-12 2.58566E-12
 -1         6-4.06216E-13-4.06174E-13 2.96755E-12-3.49346E-13 2.58579E-12-2.58576E-12
 -1         7-4.03200E-13-4.03068E-13 2.97016E-12 3.49424E-13-2.58584E-12-2.58574E-12
 -1         8-4.05848E-13-4.05703E-13 2.96858E-12-3.49221E-13-2.58577E-12 2.58589E-12
 -1         9 3.76402E-14 8.21882E-13-2.13529E-12 2.93215E-13 8.88924E-13-1.14483E-13
 -1        10-1.80935E-13 1.08669E-12-2.18932E-12 8.75580E-17 8.00343E-13-6.62164E-17
 -1        11 3.74291E-14 8.21582E-13-2.13537E-12-2.93215E-13 8.88934E-13 1.14482E-13
 -1        12-2.39520E-13-3.40249E-13 1.45488E-12 3.35188E-14-1.21169E-12-1.59445E-13
 -1        13-7.35451E-13-1.23775E-12 4.99112E-12 7.08376E-17-1.81309E-16-6.17889E-13
 -1        14-2.39494E-13-3.40299E-13 1.45541E-12-3.35051E-14 1.21160E-12-1.59459E-13
 -1        15 3.81210E-14 8.22460E-13-2.13469E-12 2.93245E-13-8.88838E-13 1.14396E-13
 -1        16-1.80850E-13 1.08691E-12-2.18860E-12-4.72873E-17-8.00298E-13-7.68841E-17
 -1        17 3.81175E-14 8.21967E-13-2.13437E-12-2.93301E-13-8.88808E-13-1.14478E-13
 -1        18-2.39315E-13-3.40216E-13 1.45534E-12 3.34804E-14 1.21157E-12 1.59455E-13
 -1        19-7.35815E-13-1.23767E-12 4.99093E-12-5.14320E-17-1.17446E-16 6.17855E-13
 -1        20-2.39844E-13-3.40352E-13 1.45463E-12-3.35706E-14-1.21161E-12 1.59475E-13
 -1        21-1.28883E-13 8.71007E-13-2.07204E-12 4.01786E-13-8.69654E-13-1.27434E-12
 -1        22 1.48135E-13 2.14804E-12-7.11215E-12-9.25341E-17-4.32520E-12 2.32355E-17
 -1        23-1.28739E-13 8.71228E-13-2.07189E-12-4.01813E-13-8.69705E-13 1.27431E-12
 -1        24 8.70987E-13-1.28857E-13-2.07229E-12-4.01848E-13-1.27427E-12 8.69751E-13
 -1        25 2.14759E-12 1.47364E-13-7.11260E-12-8.69015E-17 8.43234E-17 4.32525E-12
 -1        26 8.71899E-13-1.28400E-13-2.07146E-12 4.01800E-13 1.27433E-12 8.69752E-13
 -1        27-1.28545E-13 8.71492E-13-2.07212E-12 4.01771E-13 8.69677E-13 1.27428E-12
 -1        28 1.47131E-13 2.14658E-12-7.11368E-12-1.07696E-16 4.32516E-12-4.54976E-17
 -1        29-1.28848E-13 8.70706E-13-2.07219E-12-4.01777E-13 8.69679E-13-1.27424E-12
 -1        30 8.70808E-13-1.29116E-13-2.07179E-12-4.01717E-13 1.27424E-12-8.69717E-13
 -1        31 2.14777E-12 1.48098E-13-7.11204E-12-1.76302E-17-4.11800E-17-4.32527E-12
 -1        32 8.71394E-13-1.28360E-13-2.07151E-12 4.01828E-13-1.27422E-12-8.69775E-13
 -1        33-1.38241E-13-1.87599E-13 3.34759E-13-1.73232E-13 1.41026E-14-4.43087E-14
 -1        34-6.01267E-13-5.28980E-13 2.15983E-12 1.05620E-13-4.84565E-13-7.86037E-14
 -1        35-5.44732E-13-4.07178E-13 1.62917E-12 4.89037E-14-4.44471E-14 5.64350E-14
 -1        36-4.55625E-13-5.99887E-13 1.69068E-12-4.68575E-14 4.96373E-15-4.98417E-14
 -1        37-4.99115E-13-5.04959E-13 1.68007E-12-2.34406E-15 3.27194E-14-6.97410E-16
 -1        38-5.04921E-13-4.94342E-13 1.67639E-12-7.28753E-15-3.29379E-14 1.09426E-14
 -1        39-5.07774E-13-5.04719E-13 1.67780E-12 1.06602E-14 4.42300E-15-9.33983E-15
 -1        40-4.96161E-13-5.01018E-13 1.68870E-12-1.29186E-14 8.07866E-15-5.08527E-15
 -1        41-5.04326E-13-5.04881E-13 1.67512E-12 1.90675E-15-1.26883E-14 1.44993E-14
 -1        42-4.78483E-13-4.77642E-13 1.66135E-12-5.90009E-14-1.22742E-13 1.21669E-13
 -1        43-5.41661E-13-5.41827E-13 1.70267E-12 6.48179E-14 1.36541E-13-1.37058E-13
 -1        44-5.52142E-13-5.52518E-13 1.60200E-12-9.94050E-14 2.33407E-13-2.33282E-13
 -1        45-3.97238E-13-3.97296E-13 1.81553E-12-5.80203E-15-4.22037E-13 4.22224E-13
 -1        46-5.16445E-13-5.16634E-13 1.04398E-12 1.64008E-13-5.74674E-13 5.74734E-13
 -1        47-5.47187E-13-5.47446E-13 1.45088E-12-2.54279E-13 1.10459E-12-1.10459E-12
 -1        48-5.46876E-13-5.46817E-13 1.45140E-12 2.54326E-13 1.10464E-12 1.10452E-12
 -1        49-5.16432E-13-5.16300E-13 1.04391E-12-1.64020E-13-5.74751E-13-5.74646E-13
 -1        50-3.96841E-13-3.96911E-13 1.81591E-12 5.89195E-15-4.22097E-13-4.22122E-13
 -1        51-5.51845E-13-5.52073E-13 1.60249E-12 9.94062E-14 2.33596E-13 2.33156E-13
 -1        52-5.42142E-13-5.42116E-13 1.70229E-12-6.49197E-14 1.36608E-13 1.37036E-13
 -1        53-4.79418E-13-4.78724E-13 1.66035E-12 5.90168E-14-1.22906E-13-1.21672E-13
 -1        54-5.04704E-13-5.04911E-13 1.67495E-12-1.74959E-15-1.26541E-14-1.44744E-14
 -1        55-4.96498E-13-5.00663E-13 1.68848E-12 1.30562E-14 8.09390E-15 5.32313E-15
 -1        56-5.08173E-13-5.04871E-13 1.67692E-12-1.06701E-14 4.37022E-15 9.28492E-15
 -1        57-5.05123E-13-4.94514E-13 1.67623E-12 7.21447E-15-3.29192E-14-1.11362E-14
 -1        58-4.99530E-13-5.05318E-13 1.67996E-12 2.23295E-15 3.27938E-14 6.87392E-16
 -1        59-4.55898E-13-6.00216E-13 1.69037E-12 4.67929E-14 5.04665E-15 4.99563E-14
 -1        60-5.44761E-13-4.07758E-13 1.62940E-12-4.88386E-14-4.45359E-14-5.63727E-14
 -1        61-6.01452E-13-5.29364E-13 2.16010E-12-1.05515E-13-4.84595E-13 7.84630E-14
 -1        62-1.38161E-13-1.87299E-13 3.34915E-13 1.73184E-13 1.41166E-14 4.42724E-14
 -1        63-1.37094E-13-1.86563E-13 3.35699E-13 1.73264E-13-1.41798E-14-4.43788E-14
 -1        64-6.01056E-13-5.29076E-13 2.15978E-12-1.05535E-13 4.84600E-13-7.84615E-14
 -1        65-5.44898E-13-4.07566E-13 1.62927E-12-4.88854E-14 4.46564E-14 5.64710E-14
 -1        66-4.55867E-13-6.00287E-13 1.69062E-12 4.68067E-14-5.17446E-15-4.99938E-14
 -1        67-4.99459E-13-5.05773E-13 1.68015E-12 2.22097E-15-3.28266E-14-6.37276E-16
 -1        68-5.05346E-13-4.94923E-13 1.67678E-12 7.17245E-15 3.30380E-14 1.10054E-14
 -1        69-5.08299E-13-5.05118E-13 1.67704E-12-1.06843E-14-4.43090E-15-9.37912E-15
 -1        70-4.95453E-13-5.00265E-13 1.68878E-12 1.31286E-14-7.99225E-15-5.22373E-15
 -1        71-5.03897E-13-5.04175E-13 1.67567E-12-1.77231E-15 1.27463E-14 1.45058E-14
 -1        72-4.79282E-13-4.78416E-13 1.66074E-12 5.88351E-14 1.22596E-13 1.21891E-13
 -1        73-5.42253E-13-5.42045E-13 1.70234E-12-6.49462E-14-1.36658E-13-1.36999E-13
 -1        74-5.52852E-13-5.52357E-13 1.60241E-12 9.94798E-14-2.33443E-13-2.33438E-13
 -1        75-3.97148E-13-3.97307E-13 1.81586E-12 5.78533E-15 4.22026E-13 4.22120E-13
 -1        76-5.16296E-13-5.16614E-13 1.04356E-12-1.64040E-13 5.74791E-13 5.74740E-13
 -1        77-5.46144E-13-5.45929E-13 1.45157E-12 2.54375E-13-1.10453E-12-1.10458E-12
 -1        78-1.37703E-13-1.87566E-13 3.34772E-13-1.73198E-13-1.41320E-14 4.42735E-14
 -1        79-6.01285E-13-5.29490E-13 2.15964E-12 1.05555E-13 4.84439E-13 7.85469E-14
 -1        80-5.44277E-13-4.07026E-13 1.62975E-12 4.88323E-14 4.45215E-14-5.63863E-14
 -1        81-4.55221E-13-5.99009E-13 1.69079E-12-4.68256E-14-4.97854E-15 4.98890E-14
 -1        82-4.98782E-13-5.04641E-13 1.68036E-12-2.32344E-15-3.27918E-14 6.61684E-16
 -1        83-5.04481E-13-4.94605E-13 1.67671E-12-7.33552E-15 3.29436E-14-1.11182E-14
 -1        84-5.07855E-13-5.04704E-13 1.67722E-12 1.07396E-14-4.37327E-15 9.32428E-15
 -1        85-4.95838E-13-4.99907E-13 1.68882E-12-1.28704E-14-8.02903E-15 5.25805E-15
 -1        86-5.04219E-13-5.04467E-13 1.67517E-12 1.74850E-15 1.26879E-14-1.44582E-14
 -1        87-4.79955E-13-4.78886E-13 1.65992E-12-5.90593E-14 1.22825E-13-1.21562E-13
 -1        88-5.41809E-13-5.41520E-13 1.70234E-12 6.48931E-14-1.36638E-13 1.37065E-13
 -1        89-5.50380E-13-5.51109E-13 1.60313E-12-9.95048E-14-2.33777E-13 2.33149E-13
 -1        90-3.95801E-13-3.96008E-13 1.81621E-12-5.90355E-15 4.22051E-13-4.22214E-13
 -1        91-5.15742E-13-5.14991E-13 1.04416E-12 1.63977E-13 5.74899E-13-5.74765E-13
 -1        92-5.46850E-13-5.46391E-13 1.45130E-12-2.54267E-13-1.10454E-12 1.10460E-12
 -1        93-4.58348E-13 2.10693E-13 1.39337E-12 2.59325E-17-1.19940E-12-1.07195E-17