    1C
    1UUSER                                                              
    1UDATE              25.january.2020                                 
    1UTIME              14:51:37                                        
    1UHOST                                                              
    1UPGM               CalculiX                                        
    1UVERSION           Version 2.16                             
    1UCOMPILETIME       Tue  7 Jan 19:57:43 CET 2020                    
    1UDIR                                                               
    1UDBN                                                               
    1UMAT    1EL                                                        
    1UMAT    2SI1                                                       
    2C                            40                                     1
 -1         1 1.00000E+00 1.00000E+00 0.00000E+00
 -1         2 1.00000E+00 0.00000E+00 0.00000E+00
 -1         3 1.00000E+00 0.00000E+00 1.00000E+00
 -1         4 1.00000E+00 1.00000E+00 1.00000E+00
 -1         5 0.00000E+00 1.00000E+00 0.00000E+00
 -1         6 0.00000E+00 0.00000E+00 0.00000E+00
 -1         7 0.00000E+00 0.00000E+00 1.00000E+00
 -1         8 0.00000E+00 1.00000E+00 1.00000E+00
 -1         9 1.00000E+00 5.00000E-01 0.00000E+00
 -1        10 1.00000E+00 0.00000E+00 5.00000E-01
 -1        11 1.00000E+00 5.00000E-01 1.00000E+00
 -1        12 1.00000E+00 1.00000E+00 5.00000E-01
 -1        13 5.00000E-01 1.00000E+00 0.00000E+00
 -1        14 5.00000E-01 0.00000E+00 0.00000E+00
 -1        15 5.00000E-01 0.00000E+00 1.00000E+00
 -1        16 5.00000E-01 1.00000E+00 1.00000E+00
 -1        17 0.00000E+00 5.00000E-01 0.00000E+00
 -1        18 0.00000E+00 0.00000E+00 5.00000E-01
 -1        19 0.00000E+00 5.00000E-01 1.00000E+00
 -1        20 0.00000E+00 1.00000E+00 5.00000E-01
 -1        41 7.50000E-01 7.50000E-01 1.00000E+00
 -1        42 7.50000E-01 7.50000E-01 1.00000E+00
 -1        43 7.50000E-01 7.50000E-01 1.00000E+00
 -1        44 7.50000E-01 2.50000E-01 1.00000E+00
 -1        45 7.50000E-01 2.50000E-01 1.00000E+00
 -1        46 7.50000E-01 2.50000E-01 1.00000E+00
 -1        47 2.50000E-01 7.50000E-01 1.00000E+00
 -1        48 2.50000E-01 7.50000E-01 1.00000E+00
 -1        49 2.50000E-01 7.50000E-01 1.00000E+00
 -1        50 2.50000E-01 2.50000E-01 1.00000E+00
 -1        51 2.50000E-01 2.50000E-01 1.00000E+00
 -1        52 2.50000E-01 2.50000E-01 1.00000E+00
 -1        53 7.50000E-01 5.00000E-01 1.00000E+00
 -1        55 7.50000E-01 5.00000E-01 1.00000E+00
 -1        56 5.00000E-01 7.50000E-01 1.00000E+00
 -1        58 5.00000E-01 7.50000E-01 1.00000E+00
 -1        59 5.00000E-01 2.50000E-01 1.00000E+00
 -1        61 5.00000E-01 2.50000E-01 1.00000E+00
 -1        62 2.50000E-01 5.00000E-01 1.00000E+00
 -1        64 2.50000E-01 5.00000E-01 1.00000E+00
 -3
    3C                             2                                     1
 -1         1    4    0    1
 -2         1         2         3         4         5         6         7         8         9        10
 -2        11        12        13        14        15        16        17        18        19        20
 -1         2    4    0    1
 -2        47        41        44        50        49        43        46        52        56        53
 -2        59        62        48        42        45        51        58        55        61        64
 -3
 9999
