    1C
    1UUSER                                                              
    1UDATE              25.january.2020                                 
    1UTIME              14:51:38                                        
    1UHOST                                                              
    1UPGM               CalculiX                                        
    1UVERSION           Version 2.16                             
    1UCOMPILETIME       Tue  7 Jan 19:57:43 CET 2020                    
    1UDIR                                                               
    1UDBN                                                               
    1UMAT    1EL                                                        
    1UMAT    2MASS                                                      
    2C                            13                                     1
 -1         1 1.00000E-01 1.00000E-01 6.12323E-18
 -1         2 1.00000E-01-4.65661E-10 6.12323E-18
 -1         3 5.50000E-01-4.65661E-10 3.36778E-17
 -1         4 5.50000E-01 1.00000E-01 3.36778E-17
 -1         5 1.00000E-01 5.00000E-02 6.12323E-18
 -1         6 3.25000E-01-4.65661E-10 1.99005E-17
 -1         7 5.50000E-01 5.00000E-02 3.36778E-17
 -1         8 3.25000E-01 1.00000E-01 1.99005E-17
 -1         9 1.00000E+00-4.65661E-10 6.12323E-17
 -1        10 1.00000E+00 1.00000E-01 6.12323E-17
 -1        11 7.75000E-01-4.65661E-10 4.74551E-17
 -1        12 1.00000E+00 5.00000E-02 6.12323E-17
 -1        13 7.75000E-01 1.00000E-01 4.74551E-17
 -3
    3C                             2                                     1
 -1         1   10    0    1
 -2         1         2         3         4         5         6         7         8
 -1         2   10    0    1
 -2         4         3         9        10         7        11        12        13
 -3
 9999
