<?xml version="1.0"?>
<VTKFile type="UnstructuredGrid" version="0.1" byte_order="LittleEndian">
	<UnstructuredGrid>
		<Piece NumberOfPoints="36" NumberOfCells="3">
			<Points>
				<DataArray type="Float64" NumberOfComponents="3" format="ascii">
					 0.00000000E+00	 0.00000000E+00	-5.00000000E-01
					 0.00000000E+00	 0.00000000E+00	 0.00000000E+00
					 0.00000000E+00	 0.00000000E+00	 5.00000000E-01
					 1.00000000E+00	 0.00000000E+00	-5.00000000E-01
					 1.00000000E+00	 0.00000000E+00	 0.00000000E+00
					 1.00000000E+00	 0.00000000E+00	 5.00000000E-01
					 1.00000000E+00	 1.00000000E+00	-5.00000000E-01
					 1.00000000E+00	 1.00000000E+00	 0.00000000E+00
					 1.00000000E+00	 1.00000000E+00	 5.00000000E-01
					 9.64645000E-01	 9.64645000E-01	 5.00000000E-02
					 1.03536000E+00	 1.03536000E+00	 5.00000000E-02
					 1.03536000E+00	 1.03536000E+00	-5.00000000E-02
					 9.64645000E-01	 9.64645000E-01	-5.00000000E-02
					 0.00000000E+00	 1.00000000E+00	-5.00000000E-01
					 0.00000000E+00	 1.00000000E+00	 0.00000000E+00
					 0.00000000E+00	 1.00000000E+00	 5.00000000E-01
					 3.53553000E-02	 9.64645000E-01	-5.00000000E-02
					-3.53553000E-02	 1.03536000E+00	-5.00000000E-02
					-3.53553000E-02	 1.03536000E+00	 5.00000000E-02
					 3.53553000E-02	 9.64645000E-01	 5.00000000E-02
					 5.00000000E-01	 0.00000000E+00	-5.00000000E-01
					 5.00000000E-01	 0.00000000E+00	 5.00000000E-01
					 1.00000000E+00	 5.00000000E-01	-5.00000000E-01
					 1.00000000E+00	 5.00000000E-01	 5.00000000E-01
					 5.00000000E-01	 1.00000000E+00	-5.00000000E-01
					 5.00000000E-01	 1.00000000E+00	 5.00000000E-01
					 0.00000000E+00	 5.00000000E-01	-5.00000000E-01
					 0.00000000E+00	 5.00000000E-01	 5.00000000E-01
					 4.64645000E-01	 1.46464000E+00	 5.00000000E-02
					 5.35355000E-01	 1.53536000E+00	 5.00000000E-02
					 5.35355000E-01	 1.53536000E+00	-5.00000000E-02
					 4.64645000E-01	 1.46464000E+00	-5.00000000E-02
					 5.35355000E-01	 1.46464000E+00	-5.00000000E-02
					 4.64645000E-01	 1.53536000E+00	-5.00000000E-02
					 4.64645000E-01	 1.53536000E+00	 5.00000000E-02
					 5.35355000E-01	 1.46464000E+00	 5.00000000E-02

				</DataArray>
			</Points>
			<Cells>
				<DataArray type="Int32" Name="connectivity" format="ascii">
					0 3 6 13 2 5 8 15 20 22 24 26 21 23 25 27 1 4 7 14 9 28 29 10 12 31 30 11 16 32 33 17 19 35 34 18 
				</DataArray>
				<DataArray type="Int32" Name="offsets" format="ascii">
					20 28 36 
				</DataArray>
				<DataArray type="UInt8" Name="types" format="ascii">
					25 12 12 
				</DataArray>
			</Cells>
			<PointData>
				<DataArray type="Float32" Name="U" NumberOfComponents="3" ComponentName0="D1" ComponentName1="D2" ComponentName2="D3" format="ascii">
					 0.00000000E+00	 0.00000000E+00	 0.00000000E+00
					 0.00000000E+00	 0.00000000E+00	 0.00000000E+00
					 0.00000000E+00	 0.00000000E+00	 0.00000000E+00
					-1.66582000E-06	 0.00000000E+00	 0.00000000E+00
					-1.66582000E-06	 0.00000000E+00	 0.00000000E+00
					-1.66582000E-06	 0.00000000E+00	 0.00000000E+00
					-1.13417000E-05	 1.15118000E-05	 0.00000000E+00
					-1.13417000E-05	 1.15118000E-05	 0.00000000E+00
					-1.13417000E-05	 1.15118000E-05	 0.00000000E+00
					-2.04181000E-05	 2.77311000E-05	-5.05076000E-06
					-2.26529000E-06	-4.70743000E-06	-5.05076000E-06
					-2.26529000E-06	-4.70743000E-06	 5.05076000E-06
					-2.04181000E-05	 2.77311000E-05	 5.05076000E-06
					 9.67588000E-06	 1.15118000E-05	 0.00000000E+00
					 9.67588000E-06	 1.15118000E-05	 0.00000000E+00
					 9.67588000E-06	 1.15118000E-05	 0.00000000E+00
					 1.87523000E-05	 2.77311000E-05	 5.05076000E-06
					 5.99463000E-07	-4.70743000E-06	 5.05076000E-06
					 5.99463000E-07	-4.70743000E-06	-5.05076000E-06
					 1.87523000E-05	 2.77311000E-05	-5.05076000E-06
					-8.32911000E-07	 0.00000000E+00	 0.00000000E+00
					-8.32911000E-07	 0.00000000E+00	 0.00000000E+00
					-1.01534000E-06	 4.71922000E-06	 0.00000000E+00
					-1.01534000E-06	 4.71922000E-06	 0.00000000E+00
					-8.32911000E-07	 2.13693000E-06	 0.00000000E+00
					-8.32911000E-07	 2.13693000E-06	 0.00000000E+00
					-6.50479000E-07	 4.71922000E-06	 0.00000000E+00
					-6.50479000E-07	 4.71922000E-06	 0.00000000E+00
					-9.90933000E-06	 3.74957000E-04	-5.05076000E-06
					 8.24351000E-06	 3.42519000E-04	-5.05076000E-06
					 8.24351000E-06	 3.42519000E-04	 5.05076000E-06
					-9.90933000E-06	 3.74957000E-04	 5.05076000E-06
					 8.24351000E-06	 3.74957000E-04	 5.05076000E-06
					-9.90933000E-06	 3.42519000E-04	 5.05076000E-06
					-9.90933000E-06	 3.42519000E-04	-5.05076000E-06
					 8.24351000E-06	 3.74957000E-04	-5.05076000E-06
				</DataArray>
				<DataArray type="Float32" Name="S" NumberOfComponents="10" ComponentName0="xx" ComponentName1="yy" ComponentName2="zz" ComponentName3="xy" ComponentName4="yz" ComponentName5="zx" ComponentName6="Mises" ComponentName7="Min Principal" ComponentName8="Mid Principal" ComponentName9="Max Principal" format="ascii">
					 4.21423000E-01	 1.88018000E+00	 6.90480000E-01	-9.91674000E-01	 0.00000000E+00	 0.00000000E+00	 2.18131310E+00	-8.02185317E-02	 6.90480000E-01	 2.38182153E+00
					 4.21366000E-01	 1.88027000E+00	 6.90492000E-01	-9.91674000E-01	 0.00000000E+00	 0.00000000E+00	 2.18138778E+00	-8.02455819E-02	 6.90492000E-01	 2.38188158E+00
					 4.21423000E-01	 1.88018000E+00	 6.90480000E-01	-9.91674000E-01	 0.00000000E+00	 0.00000000E+00	 2.18131310E+00	-8.02185317E-02	 6.90480000E-01	 2.38182153E+00
					 4.21423000E-01	 1.88018000E+00	 6.90480000E-01	 9.91674000E-01	 0.00000000E+00	 0.00000000E+00	 2.18131310E+00	-8.02185317E-02	 6.90480000E-01	 2.38182153E+00
					 4.21366000E-01	 1.88027000E+00	 6.90492000E-01	 9.91674000E-01	 0.00000000E+00	 0.00000000E+00	 2.18138778E+00	-8.02455819E-02	 6.90492000E-01	 2.38188158E+00
					 4.21423000E-01	 1.88018000E+00	 6.90480000E-01	 9.91674000E-01	 0.00000000E+00	 0.00000000E+00	 2.18131310E+00	-8.02185317E-02	 6.90480000E-01	 2.38182153E+00
					-4.04439000E+00	 1.88018000E+00	-6.49263000E-01	 4.74124000E-01	 0.00000000E+00	 0.00000000E+00	 5.21412794E+00	-4.08209266E+00	-6.49263000E-01	 1.91788266E+00
					-4.04444000E+00	 1.88027000E+00	-6.49251000E-01	 4.74124000E-01	 0.00000000E+00	 0.00000000E+00	 5.21424658E+00	-4.08214179E+00	-6.49251000E-01	 1.91797179E+00
					-4.04439000E+00	 1.88018000E+00	-6.49263000E-01	 4.74124000E-01	 0.00000000E+00	 0.00000000E+00	 5.21412794E+00	-4.08209266E+00	-6.49263000E-01	 1.91788266E+00
					 3.53539000E+01	 3.53539000E+01	 0.00000000E+00	-3.53539000E+01	 0.00000000E+00	 0.00000000E+00	 7.07078000E+01	 0.00000000E+00	 0.00000000E+00	 7.07078000E+01
					 3.53539000E+01	 3.53539000E+01	 0.00000000E+00	-3.53539000E+01	 0.00000000E+00	 0.00000000E+00	 7.07078000E+01	 0.00000000E+00	 0.00000000E+00	 7.07078000E+01
					 3.53539000E+01	 3.53539000E+01	 0.00000000E+00	-3.53539000E+01	 0.00000000E+00	 0.00000000E+00	 7.07078000E+01	 0.00000000E+00	 0.00000000E+00	 7.07078000E+01
					 3.53539000E+01	 3.53539000E+01	 0.00000000E+00	-3.53539000E+01	 0.00000000E+00	 0.00000000E+00	 7.07078000E+01	 0.00000000E+00	 0.00000000E+00	 7.07078000E+01
					-4.04439000E+00	 1.88018000E+00	-6.49263000E-01	-4.74124000E-01	 0.00000000E+00	 0.00000000E+00	 5.21412794E+00	-4.08209266E+00	-6.49263000E-01	 1.91788266E+00
					-4.04444000E+00	 1.88027000E+00	-6.49251000E-01	-4.74124000E-01	 0.00000000E+00	 0.00000000E+00	 5.21424658E+00	-4.08214179E+00	-6.49251000E-01	 1.91797179E+00
					-4.04439000E+00	 1.88018000E+00	-6.49263000E-01	-4.74124000E-01	 0.00000000E+00	 0.00000000E+00	 5.21412794E+00	-4.08209266E+00	-6.49263000E-01	 1.91788266E+00
					 3.53539000E+01	 3.53539000E+01	 0.00000000E+00	 3.53539000E+01	 0.00000000E+00	 0.00000000E+00	 7.07078000E+01	 0.00000000E+00	 0.00000000E+00	 7.07078000E+01
					 3.53539000E+01	 3.53539000E+01	 0.00000000E+00	 3.53539000E+01	 0.00000000E+00	 0.00000000E+00	 7.07078000E+01	 0.00000000E+00	 0.00000000E+00	 7.07078000E+01
					 3.53539000E+01	 3.53539000E+01	 0.00000000E+00	 3.53539000E+01	 0.00000000E+00	 0.00000000E+00	 7.07078000E+01	 0.00000000E+00	 0.00000000E+00	 7.07078000E+01
					 3.53539000E+01	 3.53539000E+01	 0.00000000E+00	 3.53539000E+01	 0.00000000E+00	 0.00000000E+00	 7.07078000E+01	 0.00000000E+00	 0.00000000E+00	 7.07078000E+01
					-7.14450000E-01	-7.69963000E-01	-4.45324000E-01	 0.00000000E+00	 0.00000000E+00	 0.00000000E+00	 3.00749877E-01	-7.69963000E-01	-7.14450000E-01	-4.45324000E-01
					-7.14450000E-01	-7.69963000E-01	-4.45324000E-01	 0.00000000E+00	 0.00000000E+00	 0.00000000E+00	 3.00749877E-01	-7.69963000E-01	-7.14450000E-01	-4.45324000E-01
					 1.29155000E+00	 3.21017000E+00	 1.35052000E+00	 7.32899000E-01	 0.00000000E+00	 0.00000000E+00	 2.27658999E+00	 1.04362489E+00	 1.35052000E+00	 3.45809511E+00
					 1.29155000E+00	 3.21017000E+00	 1.35052000E+00	 7.32899000E-01	 0.00000000E+00	 0.00000000E+00	 2.27658999E+00	 1.04362489E+00	 1.35052000E+00	 3.45809511E+00
					-5.18026000E+00	-7.69963000E-01	-1.78507000E+00	 0.00000000E+00	 0.00000000E+00	 0.00000000E+00	 4.00052978E+00	-5.18026000E+00	-1.78507000E+00	-7.69963000E-01
					-5.18026000E+00	-7.69963000E-01	-1.78507000E+00	 0.00000000E+00	 0.00000000E+00	 0.00000000E+00	 4.00052978E+00	-5.18026000E+00	-1.78507000E+00	-7.69963000E-01
					 1.29155000E+00	 3.21017000E+00	 1.35052000E+00	-7.32899000E-01	 0.00000000E+00	 0.00000000E+00	 2.27658999E+00	 1.04362489E+00	 1.35052000E+00	 3.45809511E+00
					 1.29155000E+00	 3.21017000E+00	 1.35052000E+00	-7.32899000E-01	 0.00000000E+00	 0.00000000E+00	 2.27658999E+00	 1.04362489E+00	 1.35052000E+00	 3.45809511E+00
					 3.53539000E+01	 3.53539000E+01	 0.00000000E+00	-3.53539000E+01	 0.00000000E+00	 0.00000000E+00	 7.07078000E+01	 0.00000000E+00	 0.00000000E+00	 7.07078000E+01
					 3.53539000E+01	 3.53539000E+01	 0.00000000E+00	-3.53539000E+01	 0.00000000E+00	 0.00000000E+00	 7.07078000E+01	 0.00000000E+00	 0.00000000E+00	 7.07078000E+01
					 3.53539000E+01	 3.53539000E+01	 0.00000000E+00	-3.53539000E+01	 0.00000000E+00	 0.00000000E+00	 7.07078000E+01	 0.00000000E+00	 0.00000000E+00	 7.07078000E+01
					 3.53539000E+01	 3.53539000E+01	 0.00000000E+00	-3.53539000E+01	 0.00000000E+00	 0.00000000E+00	 7.07078000E+01	 0.00000000E+00	 0.00000000E+00	 7.07078000E+01
					 3.53539000E+01	 3.53539000E+01	 0.00000000E+00	 3.53539000E+01	 0.00000000E+00	 0.00000000E+00	 7.07078000E+01	 0.00000000E+00	 0.00000000E+00	 7.07078000E+01
					 3.53539000E+01	 3.53539000E+01	 0.00000000E+00	 3.53539000E+01	 0.00000000E+00	 0.00000000E+00	 7.07078000E+01	 0.00000000E+00	 0.00000000E+00	 7.07078000E+01
					 3.53539000E+01	 3.53539000E+01	 0.00000000E+00	 3.53539000E+01	 0.00000000E+00	 0.00000000E+00	 7.07078000E+01	 0.00000000E+00	 0.00000000E+00	 7.07078000E+01
					 3.53539000E+01	 3.53539000E+01	 0.00000000E+00	 3.53539000E+01	 0.00000000E+00	 0.00000000E+00	 7.07078000E+01	 0.00000000E+00	 0.00000000E+00	 7.07078000E+01
				</DataArray>
				<DataArray type="Float32" Name="RF" NumberOfComponents="3" ComponentName0="F1" ComponentName1="F2" ComponentName2="F3" format="ascii">
					 0.00000000E+00	 1.60965000E-01	-1.79458000E-03
					 0.00000000E+00	-3.33333000E-01	 0.00000000E+00
					 0.00000000E+00	 1.60965000E-01	 1.79458000E-03
					 0.00000000E+00	 1.60965000E-01	-1.79458000E-03
					 0.00000000E+00	-3.33333000E-01	 0.00000000E+00
					 0.00000000E+00	 1.60965000E-01	 1.79458000E-03
					-8.33333000E-02	 8.33333000E-02	 3.54203000E-02
					-3.33333000E-01	 3.33333000E-01	 0.00000000E+00
					-8.33333000E-02	 8.33333000E-02	-3.54203000E-02
					 1.25000000E-01	-1.25000000E-01	 0.00000000E+00
					 1.25000000E-01	-1.25000000E-01	 0.00000000E+00
					 1.25000000E-01	-1.25000000E-01	 0.00000000E+00
					 1.25000000E-01	-1.25000000E-01	 0.00000000E+00
					 8.33333000E-02	 8.33333000E-02	 3.54203000E-02
					 3.33333000E-01	 3.33333000E-01	 0.00000000E+00
					 8.33333000E-02	 8.33333000E-02	-3.54203000E-02
					-1.25000000E-01	-1.25000000E-01	 0.00000000E+00
					-1.25000000E-01	-1.25000000E-01	 0.00000000E+00
					-1.25000000E-01	-1.25000000E-01	 0.00000000E+00
					-1.25000000E-01	-1.25000000E-01	 0.00000000E+00
					 0.00000000E+00	-4.88597000E-01	-7.39496000E-02
					 0.00000000E+00	-4.88597000E-01	 7.39496000E-02
					 0.00000000E+00	 0.00000000E+00	-1.09106000E-01
					 0.00000000E+00	 0.00000000E+00	 1.09106000E-01
					 0.00000000E+00	 0.00000000E+00	 7.49101000E-02
					 0.00000000E+00	 0.00000000E+00	-7.49101000E-02
					 0.00000000E+00	 0.00000000E+00	-1.09106000E-01
					 0.00000000E+00	 0.00000000E+00	 1.09106000E-01
					-1.25000000E-01	 1.25000000E-01	 0.00000000E+00
					-1.25000000E-01	 1.25000000E-01	 0.00000000E+00
					-1.25000000E-01	 1.25000000E-01	 0.00000000E+00
					-1.25000000E-01	 1.25000000E-01	 0.00000000E+00
					 1.25000000E-01	 1.25000000E-01	 0.00000000E+00
					 1.25000000E-01	 1.25000000E-01	 0.00000000E+00
					 1.25000000E-01	 1.25000000E-01	 0.00000000E+00
					 1.25000000E-01	 1.25000000E-01	 0.00000000E+00
				</DataArray>
			</PointData>
		</Piece>
	</UnstructuredGrid>
</VTKFile>