# vtk DataFile Version 3.0

ASCII
DATASET UNSTRUCTURED_GRID

POINTS 40 double
	 5.00000000E+00	-5.00000000E+00	 0.00000000E+00
	-5.00000000E+00	-5.00000000E+00	 0.00000000E+00
	-5.00000000E+00	 5.00000000E+00	 0.00000000E+00
	 5.00000000E+00	 5.00000000E+00	 0.00000000E+00
	 0.00000000E+00	-5.00000000E+00	 0.00000000E+00
	-5.00000000E+00	 0.00000000E+00	 0.00000000E+00
	 0.00000000E+00	 5.00000000E+00	 0.00000000E+00
	 5.00000000E+00	 0.00000000E+00	 0.00000000E+00
	 5.00000000E+00	-5.00000000E+00	-1.50000000E+01
	-5.00000000E+00	-5.00000000E+00	-1.50000000E+01
	-5.00000000E+00	 5.00000000E+00	-1.50000000E+01
	 5.00000000E+00	 5.00000000E+00	-1.50000000E+01
	 5.00000000E+00	-5.00000000E+00	-3.00000000E+01
	-5.00000000E+00	-5.00000000E+00	-3.00000000E+01
	-5.00000000E+00	 5.00000000E+00	-3.00000000E+01
	 5.00000000E+00	 5.00000000E+00	-3.00000000E+01
	 0.00000000E+00	-5.00000000E+00	-3.00000000E+01
	-5.00000000E+00	 0.00000000E+00	-3.00000000E+01
	 0.00000000E+00	 5.00000000E+00	-3.00000000E+01
	 5.00000000E+00	 0.00000000E+00	-3.00000000E+01
	 5.00000000E+00	-5.00000000E+00	-3.00000000E+01
	-5.00000000E+00	-5.00000000E+00	-3.00000000E+01
	-5.00000000E+00	 5.00000000E+00	-3.00000000E+01
	 5.00000000E+00	 5.00000000E+00	-3.00000000E+01
	 0.00000000E+00	-5.00000000E+00	-3.00000000E+01
	-5.00000000E+00	 0.00000000E+00	-3.00000000E+01
	 0.00000000E+00	 5.00000000E+00	-3.00000000E+01
	 5.00000000E+00	 0.00000000E+00	-3.00000000E+01
	 5.00000000E+00	-5.00000000E+00	-1.80000000E+02
	-5.00000000E+00	-5.00000000E+00	-1.80000000E+02
	-5.00000000E+00	 5.00000000E+00	-1.80000000E+02
	 5.00000000E+00	 5.00000000E+00	-1.80000000E+02
	 5.00000000E+00	-5.00000000E+00	-3.30000000E+02
	-5.00000000E+00	-5.00000000E+00	-3.30000000E+02
	-5.00000000E+00	 5.00000000E+00	-3.30000000E+02
	 5.00000000E+00	 5.00000000E+00	-3.30000000E+02
	 0.00000000E+00	-5.00000000E+00	-3.30000000E+02
	-5.00000000E+00	 0.00000000E+00	-3.30000000E+02
	 0.00000000E+00	 5.00000000E+00	-3.30000000E+02
	 5.00000000E+00	 0.00000000E+00	-3.30000000E+02

CELLS 2 42
	20 0 12 13 1 3 15 14 2 8 16 9 4 11 18 10 6 7 19 17 5 
	20 20 32 33 21 23 35 34 22 28 36 29 24 31 38 30 26 27 39 37 25 

CELL_TYPES 2
	25
	25

POINT_DATA 40
FIELD U 1
	U 3 40 double
		-5.70240000E-05	 2.44735000E-07	-2.38283000E-02
		 5.70240000E-05	 2.44735000E-07	 2.38283000E-02
		 5.70240000E-05	-2.44735000E-07	 2.38283000E-02
		-5.70240000E-05	-2.44735000E-07	-2.38283000E-02
		 0.00000000E+00	 2.44735000E-07	 0.00000000E+00
		 5.70240000E-05	 0.00000000E+00	 2.38283000E-02
		 0.00000000E+00	-2.44735000E-07	 0.00000000E+00
		-5.70240000E-05	 0.00000000E+00	-2.38283000E-02
		-7.22824000E-02	 2.31998000E-07	-2.40333000E-02
		-7.21648000E-02	 2.31998000E-07	 2.43763000E-02
		-7.21648000E-02	-2.31998000E-07	 2.43763000E-02
		-7.22824000E-02	-2.31998000E-07	-2.40333000E-02
		-1.45322000E-01	 2.24238000E-07	-2.40386000E-02
		-1.45202000E-01	 2.24238000E-07	 2.47327000E-02
		-1.45202000E-01	-2.24238000E-07	 2.47327000E-02
		-1.45322000E-01	-2.24238000E-07	-2.40386000E-02
		-1.45262000E-01	 2.24238000E-07	 3.47051000E-04
		-1.45202000E-01	 0.00000000E+00	 2.47327000E-02
		-1.45262000E-01	-2.24238000E-07	 3.47051000E-04
		-1.45322000E-01	 0.00000000E+00	-2.40386000E-02
		-1.45265000E-01	 3.13026000E-07	 5.59421000E-03
		-1.45259000E-01	 3.13026000E-07	-4.90011000E-03
		-1.45259000E-01	-3.13026000E-07	-4.90011000E-03
		-1.45265000E-01	-3.13026000E-07	 5.59421000E-03
		-1.45262000E-01	 3.13026000E-07	 3.47051000E-04
		-1.45259000E-01	 0.00000000E+00	-4.90011000E-03
		-1.45262000E-01	-3.13026000E-07	 3.47051000E-04
		-1.45265000E-01	 0.00000000E+00	 5.59421000E-03
		-2.00955000E-02	 7.03465000E-08	 3.47273000E-03
		-2.00935000E-02	 7.03465000E-08	-2.70547000E-03
		-2.00935000E-02	-7.03465000E-08	-2.70547000E-03
		-2.00955000E-02	-7.03465000E-08	 3.47273000E-03
		 4.00829000E-02	 1.07855000E-07	 1.32136000E-03
		 4.00833000E-02	 1.07855000E-07	-5.40720000E-04
		 4.00833000E-02	-1.07855000E-07	-5.40720000E-04
		 4.00829000E-02	-1.07855000E-07	 1.32136000E-03
		 4.00831000E-02	 1.07855000E-07	 3.90320000E-04
		 4.00833000E-02	 0.00000000E+00	-5.40720000E-04
		 4.00831000E-02	-1.07855000E-07	 3.90320000E-04
		 4.00829000E-02	 0.00000000E+00	 1.32136000E-03
