# vtk DataFile Version 3.0

ASCII
DATASET UNSTRUCTURED_GRID

POINTS 40 double
	 5.00000000E+00	-5.00000000E+00	 0.00000000E+00
	-5.00000000E+00	-5.00000000E+00	 0.00000000E+00
	-5.00000000E+00	 5.00000000E+00	 0.00000000E+00
	 5.00000000E+00	 5.00000000E+00	 0.00000000E+00
	 0.00000000E+00	-5.00000000E+00	 0.00000000E+00
	-5.00000000E+00	 0.00000000E+00	 0.00000000E+00
	 0.00000000E+00	 5.00000000E+00	 0.00000000E+00
	 5.00000000E+00	 0.00000000E+00	 0.00000000E+00
	 5.00000000E+00	-5.00000000E+00	-1.50000000E+01
	-5.00000000E+00	-5.00000000E+00	-1.50000000E+01
	-5.00000000E+00	 5.00000000E+00	-1.50000000E+01
	 5.00000000E+00	 5.00000000E+00	-1.50000000E+01
	 5.00000000E+00	-5.00000000E+00	-3.00000000E+01
	-5.00000000E+00	-5.00000000E+00	-3.00000000E+01
	-5.00000000E+00	 5.00000000E+00	-3.00000000E+01
	 5.00000000E+00	 5.00000000E+00	-3.00000000E+01
	 0.00000000E+00	-5.00000000E+00	-3.00000000E+01
	-5.00000000E+00	 0.00000000E+00	-3.00000000E+01
	 0.00000000E+00	 5.00000000E+00	-3.00000000E+01
	 5.00000000E+00	 0.00000000E+00	-3.00000000E+01
	 5.00000000E+00	-5.00000000E+00	-3.00000000E+01
	-5.00000000E+00	-5.00000000E+00	-3.00000000E+01
	-5.00000000E+00	 5.00000000E+00	-3.00000000E+01
	 5.00000000E+00	 5.00000000E+00	-3.00000000E+01
	 0.00000000E+00	-5.00000000E+00	-3.00000000E+01
	-5.00000000E+00	 0.00000000E+00	-3.00000000E+01
	 0.00000000E+00	 5.00000000E+00	-3.00000000E+01
	 5.00000000E+00	 0.00000000E+00	-3.00000000E+01
	 5.00000000E+00	-5.00000000E+00	-1.80000000E+02
	-5.00000000E+00	-5.00000000E+00	-1.80000000E+02
	-5.00000000E+00	 5.00000000E+00	-1.80000000E+02
	 5.00000000E+00	 5.00000000E+00	-1.80000000E+02
	 5.00000000E+00	-5.00000000E+00	-3.30000000E+02
	-5.00000000E+00	-5.00000000E+00	-3.30000000E+02
	-5.00000000E+00	 5.00000000E+00	-3.30000000E+02
	 5.00000000E+00	 5.00000000E+00	-3.30000000E+02
	 0.00000000E+00	-5.00000000E+00	-3.30000000E+02
	-5.00000000E+00	 0.00000000E+00	-3.30000000E+02
	 0.00000000E+00	 5.00000000E+00	-3.30000000E+02
	 5.00000000E+00	 0.00000000E+00	-3.30000000E+02

CELLS 2 42
	20 0 12 13 1 3 15 14 2 8 16 9 4 11 18 10 6 7 19 17 5 
	20 20 32 33 21 23 35 34 22 28 36 29 24 31 38 30 26 27 39 37 25 

CELL_TYPES 2
	25
	25

POINT_DATA 40
FIELD U 1
	U 3 40 double
		-2.51086000E+00	 1.37815000E-07	 4.33638000E+00
		 2.51086000E+00	 1.37815000E-07	-4.33638000E+00
		 2.51086000E+00	-1.37815000E-07	-4.33638000E+00
		-2.51086000E+00	-1.37815000E-07	 4.33638000E+00
		 0.00000000E+00	 1.37815000E-07	 0.00000000E+00
		 2.51086000E+00	 0.00000000E+00	-4.33638000E+00
		 0.00000000E+00	-1.37815000E-07	 0.00000000E+00
		-2.51086000E+00	 0.00000000E+00	 4.33638000E+00
		 1.04983000E+01	 1.33146000E-07	 1.18689000E+01
		 1.55200000E+01	 1.33146000E-07	 3.19619000E+00
		 1.55200000E+01	-1.33146000E-07	 3.19619000E+00
		 1.04983000E+01	-1.33146000E-07	 1.18689000E+01
		 2.35074000E+01	 1.28484000E-07	 1.94015000E+01
		 2.85291000E+01	 1.28484000E-07	 1.07287000E+01
		 2.85291000E+01	-1.28484000E-07	 1.07287000E+01
		 2.35074000E+01	-1.28484000E-07	 1.94015000E+01
		 2.60182000E+01	 1.28484000E-07	 1.50651000E+01
		 2.85291000E+01	 0.00000000E+00	 1.07287000E+01
		 2.60182000E+01	-1.28484000E-07	 1.50651000E+01
		 2.35074000E+01	 0.00000000E+00	 1.94015000E+01
		 2.59222000E+01	 2.02959000E-07	 1.60406000E+01
		 2.61143000E+01	 2.02959000E-07	 1.40897000E+01
		 2.61143000E+01	-2.02959000E-07	 1.40897000E+01
		 2.59222000E+01	-2.02959000E-07	 1.60406000E+01
		 2.60182000E+01	 2.02959000E-07	 1.50651000E+01
		 2.61143000E+01	 0.00000000E+00	 1.40897000E+01
		 2.60182000E+01	-2.02959000E-07	 1.50651000E+01
		 2.59222000E+01	 0.00000000E+00	 1.60406000E+01
		 5.51857000E+01	 1.02957000E-07	 1.89228000E+01
		 5.53779000E+01	 1.02957000E-07	 1.69718000E+01
		 5.53779000E+01	-1.02957000E-07	 1.69718000E+01
		 5.51857000E+01	-1.02957000E-07	 1.89228000E+01
		 8.44494000E+01	 2.95591000E-09	 2.18050000E+01
		 8.46416000E+01	 2.95591000E-09	 1.98541000E+01
		 8.46416000E+01	-2.95591000E-09	 1.98541000E+01
		 8.44494000E+01	-2.95591000E-09	 2.18050000E+01
		 8.45455000E+01	 2.95591000E-09	 2.08295000E+01
		 8.46416000E+01	 0.00000000E+00	 1.98541000E+01
		 8.45455000E+01	-2.95591000E-09	 2.08295000E+01
		 8.44494000E+01	 0.00000000E+00	 2.18050000E+01
