# vtk DataFile Version 3.0

ASCII
DATASET UNSTRUCTURED_GRID

POINTS 40 double
	 5.00000000E+00	-5.00000000E+00	 0.00000000E+00
	-5.00000000E+00	-5.00000000E+00	 0.00000000E+00
	-5.00000000E+00	 5.00000000E+00	 0.00000000E+00
	 5.00000000E+00	 5.00000000E+00	 0.00000000E+00
	 0.00000000E+00	-5.00000000E+00	 0.00000000E+00
	-5.00000000E+00	 0.00000000E+00	 0.00000000E+00
	 0.00000000E+00	 5.00000000E+00	 0.00000000E+00
	 5.00000000E+00	 0.00000000E+00	 0.00000000E+00
	 5.00000000E+00	-5.00000000E+00	-1.50000000E+01
	-5.00000000E+00	-5.00000000E+00	-1.50000000E+01
	-5.00000000E+00	 5.00000000E+00	-1.50000000E+01
	 5.00000000E+00	 5.00000000E+00	-1.50000000E+01
	 5.00000000E+00	-5.00000000E+00	-3.00000000E+01
	-5.00000000E+00	-5.00000000E+00	-3.00000000E+01
	-5.00000000E+00	 5.00000000E+00	-3.00000000E+01
	 5.00000000E+00	 5.00000000E+00	-3.00000000E+01
	 0.00000000E+00	-5.00000000E+00	-3.00000000E+01
	-5.00000000E+00	 0.00000000E+00	-3.00000000E+01
	 0.00000000E+00	 5.00000000E+00	-3.00000000E+01
	 5.00000000E+00	 0.00000000E+00	-3.00000000E+01
	 5.00000000E+00	-5.00000000E+00	-3.00000000E+01
	-5.00000000E+00	-5.00000000E+00	-3.00000000E+01
	-5.00000000E+00	 5.00000000E+00	-3.00000000E+01
	 5.00000000E+00	 5.00000000E+00	-3.00000000E+01
	 0.00000000E+00	-5.00000000E+00	-3.00000000E+01
	-5.00000000E+00	 0.00000000E+00	-3.00000000E+01
	 0.00000000E+00	 5.00000000E+00	-3.00000000E+01
	 5.00000000E+00	 0.00000000E+00	-3.00000000E+01
	 5.00000000E+00	-5.00000000E+00	-1.80000000E+02
	-5.00000000E+00	-5.00000000E+00	-1.80000000E+02
	-5.00000000E+00	 5.00000000E+00	-1.80000000E+02
	 5.00000000E+00	 5.00000000E+00	-1.80000000E+02
	 5.00000000E+00	-5.00000000E+00	-3.30000000E+02
	-5.00000000E+00	-5.00000000E+00	-3.30000000E+02
	-5.00000000E+00	 5.00000000E+00	-3.30000000E+02
	 5.00000000E+00	 5.00000000E+00	-3.30000000E+02
	 0.00000000E+00	-5.00000000E+00	-3.30000000E+02
	-5.00000000E+00	 0.00000000E+00	-3.30000000E+02
	 0.00000000E+00	 5.00000000E+00	-3.30000000E+02
	 5.00000000E+00	 0.00000000E+00	-3.30000000E+02

CELLS 2 42
	20 0 12 13 1 3 15 14 2 8 16 9 4 11 18 10 6 7 19 17 5 
	20 20 32 33 21 23 35 34 22 28 36 29 24 31 38 30 26 27 39 37 25 

CELL_TYPES 2
	25
	25

POINT_DATA 40
FIELD U 1
	U 3 40 double
		-4.48372000E+00	 3.14519000E-08	 4.97327000E+00
		 4.48372000E+00	 3.14519000E-08	-4.97327000E+00
		 4.48372000E+00	-3.14519000E-08	-4.97327000E+00
		-4.48372000E+00	-3.14519000E-08	 4.97327000E+00
		 0.00000000E+00	 3.14519000E-08	 0.00000000E+00
		 4.48372000E+00	 0.00000000E+00	-4.97327000E+00
		 0.00000000E+00	-3.14519000E-08	 0.00000000E+00
		-4.48372000E+00	 0.00000000E+00	 4.97327000E+00
		 1.04361000E+01	 3.00796000E-08	 1.84244000E+01
		 1.94035000E+01	 3.00796000E-08	 8.47787000E+00
		 1.94035000E+01	-3.00796000E-08	 8.47787000E+00
		 1.04361000E+01	-3.00796000E-08	 1.84244000E+01
		 2.53559000E+01	 2.87183000E-08	 3.18755000E+01
		 3.43233000E+01	 2.87183000E-08	 2.19290000E+01
		 3.43233000E+01	-2.87183000E-08	 2.19290000E+01
		 2.53559000E+01	-2.87183000E-08	 3.18755000E+01
		 2.98396000E+01	 2.87183000E-08	 2.69022000E+01
		 3.43233000E+01	 0.00000000E+00	 2.19290000E+01
		 2.98396000E+01	-2.87183000E-08	 2.69022000E+01
		 2.53559000E+01	 0.00000000E+00	 3.18755000E+01
		 2.98382000E+01	 1.95108000E-07	 2.70206000E+01
		 2.98410000E+01	 1.95108000E-07	 2.67838000E+01
		 2.98410000E+01	-1.95108000E-07	 2.67838000E+01
		 2.98382000E+01	-1.95108000E-07	 2.70206000E+01
		 2.98396000E+01	 1.95108000E-07	 2.69022000E+01
		 2.98410000E+01	 0.00000000E+00	 2.67838000E+01
		 2.98396000E+01	-1.95108000E-07	 2.69022000E+01
		 2.98382000E+01	 0.00000000E+00	 2.70206000E+01
		 3.33901000E+01	 9.90239000E-08	 2.70627000E+01
		 3.33929000E+01	 9.90239000E-08	 2.68259000E+01
		 3.33929000E+01	-9.90239000E-08	 2.68259000E+01
		 3.33901000E+01	-9.90239000E-08	 2.70627000E+01
		 3.69419000E+01	 2.94082000E-09	 2.71047000E+01
		 3.69447000E+01	 2.94082000E-09	 2.68679000E+01
		 3.69447000E+01	-2.94082000E-09	 2.68679000E+01
		 3.69419000E+01	-2.94082000E-09	 2.71047000E+01
		 3.69433000E+01	 2.94082000E-09	 2.69863000E+01
		 3.69447000E+01	 0.00000000E+00	 2.68679000E+01
		 3.69433000E+01	-2.94082000E-09	 2.69863000E+01
		 3.69419000E+01	 0.00000000E+00	 2.71047000E+01
