# vtk DataFile Version 3.0

ASCII
DATASET UNSTRUCTURED_GRID

POINTS 40 double
	 5.00000000E+00	-5.00000000E+00	 0.00000000E+00
	-5.00000000E+00	-5.00000000E+00	 0.00000000E+00
	-5.00000000E+00	 5.00000000E+00	 0.00000000E+00
	 5.00000000E+00	 5.00000000E+00	 0.00000000E+00
	 0.00000000E+00	-5.00000000E+00	 0.00000000E+00
	-5.00000000E+00	 0.00000000E+00	 0.00000000E+00
	 0.00000000E+00	 5.00000000E+00	 0.00000000E+00
	 5.00000000E+00	 0.00000000E+00	 0.00000000E+00
	 5.00000000E+00	-5.00000000E+00	-1.50000000E+01
	-5.00000000E+00	-5.00000000E+00	-1.50000000E+01
	-5.00000000E+00	 5.00000000E+00	-1.50000000E+01
	 5.00000000E+00	 5.00000000E+00	-1.50000000E+01
	 5.00000000E+00	-5.00000000E+00	-3.00000000E+01
	-5.00000000E+00	-5.00000000E+00	-3.00000000E+01
	-5.00000000E+00	 5.00000000E+00	-3.00000000E+01
	 5.00000000E+00	 5.00000000E+00	-3.00000000E+01
	 0.00000000E+00	-5.00000000E+00	-3.00000000E+01
	-5.00000000E+00	 0.00000000E+00	-3.00000000E+01
	 0.00000000E+00	 5.00000000E+00	-3.00000000E+01
	 5.00000000E+00	 0.00000000E+00	-3.00000000E+01
	 5.00000000E+00	-5.00000000E+00	-3.00000000E+01
	-5.00000000E+00	-5.00000000E+00	-3.00000000E+01
	-5.00000000E+00	 5.00000000E+00	-3.00000000E+01
	 5.00000000E+00	 5.00000000E+00	-3.00000000E+01
	 0.00000000E+00	-5.00000000E+00	-3.00000000E+01
	-5.00000000E+00	 0.00000000E+00	-3.00000000E+01
	 0.00000000E+00	 5.00000000E+00	-3.00000000E+01
	 5.00000000E+00	 0.00000000E+00	-3.00000000E+01
	 5.00000000E+00	-5.00000000E+00	-1.80000000E+02
	-5.00000000E+00	-5.00000000E+00	-1.80000000E+02
	-5.00000000E+00	 5.00000000E+00	-1.80000000E+02
	 5.00000000E+00	 5.00000000E+00	-1.80000000E+02
	 5.00000000E+00	-5.00000000E+00	-3.30000000E+02
	-5.00000000E+00	-5.00000000E+00	-3.30000000E+02
	-5.00000000E+00	 5.00000000E+00	-3.30000000E+02
	 5.00000000E+00	 5.00000000E+00	-3.30000000E+02
	 0.00000000E+00	-5.00000000E+00	-3.30000000E+02
	-5.00000000E+00	 0.00000000E+00	-3.30000000E+02
	 0.00000000E+00	 5.00000000E+00	-3.30000000E+02
	 5.00000000E+00	 0.00000000E+00	-3.30000000E+02

CELLS 2 42
	20 0 12 13 1 3 15 14 2 8 16 9 4 11 18 10 6 7 19 17 5 
	20 20 32 33 21 23 35 34 22 28 36 29 24 31 38 30 26 27 39 37 25 

CELL_TYPES 2
	25
	25

POINT_DATA 40
FIELD U 1
	U 3 40 double
		-7.79280000E+00	-1.13241000E-07	 4.14732000E+00
		 7.79280000E+00	-1.13241000E-07	-4.14732000E+00
		 7.79280000E+00	 1.13241000E-07	-4.14732000E+00
		-7.79280000E+00	 1.13241000E-07	 4.14732000E+00
		 0.00000000E+00	-1.13241000E-07	 0.00000000E+00
		 7.79280000E+00	 0.00000000E+00	-4.14732000E+00
		 0.00000000E+00	 1.13241000E-07	 0.00000000E+00
		-7.79280000E+00	 0.00000000E+00	 4.14732000E+00
		 4.64920000E+00	-1.09080000E-07	 2.75257000E+01
		 2.02348000E+01	-1.09080000E-07	 1.92310000E+01
		 2.02348000E+01	 1.09080000E-07	 1.92310000E+01
		 4.64920000E+00	 1.09080000E-07	 2.75257000E+01
		 1.70912000E+01	-1.04915000E-07	 5.09040000E+01
		 3.26768000E+01	-1.04915000E-07	 4.26094000E+01
		 3.26768000E+01	 1.04915000E-07	 4.26094000E+01
		 1.70912000E+01	 1.04915000E-07	 5.09040000E+01
		 2.48840000E+01	-1.04915000E-07	 4.67567000E+01
		 3.26768000E+01	 0.00000000E+00	 4.26094000E+01
		 2.48840000E+01	 1.04915000E-07	 4.67567000E+01
		 1.70912000E+01	 0.00000000E+00	 5.09040000E+01
		 2.47789000E+01	 1.59558000E-07	 4.57370000E+01
		 2.49891000E+01	 1.59558000E-07	 4.77764000E+01
		 2.49891000E+01	-1.59558000E-07	 4.77764000E+01
		 2.47789000E+01	-1.59558000E-07	 4.57370000E+01
		 2.48840000E+01	 1.59558000E-07	 4.67567000E+01
		 2.49891000E+01	 0.00000000E+00	 4.77764000E+01
		 2.48840000E+01	-1.59558000E-07	 4.67567000E+01
		 2.47789000E+01	 0.00000000E+00	 4.57370000E+01
		-5.81228000E+00	 8.02141000E-08	 4.88895000E+01
		-5.60211000E+00	 8.02141000E-08	 5.09289000E+01
		-5.60211000E+00	-8.02141000E-08	 5.09289000E+01
		-5.81228000E+00	-8.02141000E-08	 4.88895000E+01
		-3.64039000E+01	 0.00000000E+00	 5.20421000E+01
		-3.61937000E+01	 0.00000000E+00	 5.40816000E+01
		-3.61937000E+01	 0.00000000E+00	 5.40816000E+01
		-3.64039000E+01	 0.00000000E+00	 5.20421000E+01
		-3.62988000E+01	 0.00000000E+00	 5.30618000E+01
		-3.61937000E+01	 0.00000000E+00	 5.40816000E+01
		-3.62988000E+01	 0.00000000E+00	 5.30618000E+01
		-3.64039000E+01	 0.00000000E+00	 5.20421000E+01
