# vtk DataFile Version 3.0

ASCII
DATASET UNSTRUCTURED_GRID

POINTS 40 double
	 5.00000000E+00	-5.00000000E+00	 0.00000000E+00
	-5.00000000E+00	-5.00000000E+00	 0.00000000E+00
	-5.00000000E+00	 5.00000000E+00	 0.00000000E+00
	 5.00000000E+00	 5.00000000E+00	 0.00000000E+00
	 0.00000000E+00	-5.00000000E+00	 0.00000000E+00
	-5.00000000E+00	 0.00000000E+00	 0.00000000E+00
	 0.00000000E+00	 5.00000000E+00	 0.00000000E+00
	 5.00000000E+00	 0.00000000E+00	 0.00000000E+00
	 5.00000000E+00	-5.00000000E+00	-1.50000000E+01
	-5.00000000E+00	-5.00000000E+00	-1.50000000E+01
	-5.00000000E+00	 5.00000000E+00	-1.50000000E+01
	 5.00000000E+00	 5.00000000E+00	-1.50000000E+01
	 5.00000000E+00	-5.00000000E+00	-3.00000000E+01
	-5.00000000E+00	-5.00000000E+00	-3.00000000E+01
	-5.00000000E+00	 5.00000000E+00	-3.00000000E+01
	 5.00000000E+00	 5.00000000E+00	-3.00000000E+01
	 0.00000000E+00	-5.00000000E+00	-3.00000000E+01
	-5.00000000E+00	 0.00000000E+00	-3.00000000E+01
	 0.00000000E+00	 5.00000000E+00	-3.00000000E+01
	 5.00000000E+00	 0.00000000E+00	-3.00000000E+01
	 5.00000000E+00	-5.00000000E+00	-3.00000000E+01
	-5.00000000E+00	-5.00000000E+00	-3.00000000E+01
	-5.00000000E+00	 5.00000000E+00	-3.00000000E+01
	 5.00000000E+00	 5.00000000E+00	-3.00000000E+01
	 0.00000000E+00	-5.00000000E+00	-3.00000000E+01
	-5.00000000E+00	 0.00000000E+00	-3.00000000E+01
	 0.00000000E+00	 5.00000000E+00	-3.00000000E+01
	 5.00000000E+00	 0.00000000E+00	-3.00000000E+01
	 5.00000000E+00	-5.00000000E+00	-1.80000000E+02
	-5.00000000E+00	-5.00000000E+00	-1.80000000E+02
	-5.00000000E+00	 5.00000000E+00	-1.80000000E+02
	 5.00000000E+00	 5.00000000E+00	-1.80000000E+02
	 5.00000000E+00	-5.00000000E+00	-3.30000000E+02
	-5.00000000E+00	-5.00000000E+00	-3.30000000E+02
	-5.00000000E+00	 5.00000000E+00	-3.30000000E+02
	 5.00000000E+00	 5.00000000E+00	-3.30000000E+02
	 0.00000000E+00	-5.00000000E+00	-3.30000000E+02
	-5.00000000E+00	 0.00000000E+00	-3.30000000E+02
	 0.00000000E+00	 5.00000000E+00	-3.30000000E+02
	 5.00000000E+00	 0.00000000E+00	-3.30000000E+02

CELLS 2 42
	20 0 12 13 1 3 15 14 2 8 16 9 4 11 18 10 6 7 19 17 5 
	20 20 32 33 21 23 35 34 22 28 36 29 24 31 38 30 26 27 39 37 25 

CELL_TYPES 2
	25
	25

POINT_DATA 40
FIELD U 1
	U 3 40 double
		-3.34939000E-03	 2.20065000E-07	-1.82977000E-01
		 3.34939000E-03	 2.20065000E-07	 1.82977000E-01
		 3.34939000E-03	-2.20065000E-07	 1.82977000E-01
		-3.34939000E-03	-2.20065000E-07	-1.82977000E-01
		 0.00000000E+00	 2.20065000E-07	 0.00000000E+00
		 3.34939000E-03	 0.00000000E+00	 1.82977000E-01
		 0.00000000E+00	-2.20065000E-07	 0.00000000E+00
		-3.34939000E-03	 0.00000000E+00	-1.82977000E-01
		-5.52435000E-01	 2.10981000E-07	-1.73005000E-01
		-5.45731000E-01	 2.10981000E-07	 1.93107000E-01
		-5.45731000E-01	-2.10981000E-07	 1.93107000E-01
		-5.52435000E-01	-2.10981000E-07	-1.73005000E-01
		-1.10170000E+00	 2.02088000E-07	-1.62988000E-01
		-1.09499000E+00	 2.02088000E-07	 2.03205000E-01
		-1.09499000E+00	-2.02088000E-07	 2.03205000E-01
		-1.10170000E+00	-2.02088000E-07	-1.62988000E-01
		-1.09834000E+00	 2.02088000E-07	 2.01086000E-02
		-1.09499000E+00	 0.00000000E+00	 2.03205000E-01
		-1.09834000E+00	-2.02088000E-07	 2.01086000E-02
		-1.10170000E+00	 0.00000000E+00	-1.62988000E-01
		-1.09841000E+00	 2.15302000E-07	 4.63426000E-02
		-1.09828000E+00	 2.15302000E-07	-6.12552000E-03
		-1.09828000E+00	-2.15302000E-07	-6.12552000E-03
		-1.09841000E+00	-2.15302000E-07	 4.63426000E-02
		-1.09834000E+00	 2.15302000E-07	 2.01086000E-02
		-1.09828000E+00	 0.00000000E+00	-6.12552000E-03
		-1.09834000E+00	-2.15302000E-07	 2.01086000E-02
		-1.09841000E+00	 0.00000000E+00	 4.63426000E-02
		-2.87309000E-01	 5.64577000E-08	 5.01364000E-02
		-2.87154000E-01	 5.64577000E-08	-5.55645000E-03
		-2.87154000E-01	-5.64577000E-08	-5.55645000E-03
		-2.87309000E-01	-5.64577000E-08	 5.01364000E-02
		 5.72354000E-01	 5.40513000E-08	 5.42086000E-02
		 5.72527000E-01	 5.40513000E-08	-4.70888000E-03
		 5.72527000E-01	-5.40513000E-08	-4.70888000E-03
		 5.72354000E-01	-5.40513000E-08	 5.42086000E-02
		 5.72440000E-01	 5.40513000E-08	 2.47499000E-02
		 5.72527000E-01	 0.00000000E+00	-4.70888000E-03
		 5.72440000E-01	-5.40513000E-08	 2.47499000E-02
		 5.72354000E-01	 0.00000000E+00	 5.42086000E-02
