# vtk DataFile Version 3.0

ASCII
DATASET UNSTRUCTURED_GRID

POINTS 40 double
	 5.00000000E+00	-5.00000000E+00	 0.00000000E+00
	-5.00000000E+00	-5.00000000E+00	 0.00000000E+00
	-5.00000000E+00	 5.00000000E+00	 0.00000000E+00
	 5.00000000E+00	 5.00000000E+00	 0.00000000E+00
	 0.00000000E+00	-5.00000000E+00	 0.00000000E+00
	-5.00000000E+00	 0.00000000E+00	 0.00000000E+00
	 0.00000000E+00	 5.00000000E+00	 0.00000000E+00
	 5.00000000E+00	 0.00000000E+00	 0.00000000E+00
	 5.00000000E+00	-5.00000000E+00	-1.50000000E+01
	-5.00000000E+00	-5.00000000E+00	-1.50000000E+01
	-5.00000000E+00	 5.00000000E+00	-1.50000000E+01
	 5.00000000E+00	 5.00000000E+00	-1.50000000E+01
	 5.00000000E+00	-5.00000000E+00	-3.00000000E+01
	-5.00000000E+00	-5.00000000E+00	-3.00000000E+01
	-5.00000000E+00	 5.00000000E+00	-3.00000000E+01
	 5.00000000E+00	 5.00000000E+00	-3.00000000E+01
	 0.00000000E+00	-5.00000000E+00	-3.00000000E+01
	-5.00000000E+00	 0.00000000E+00	-3.00000000E+01
	 0.00000000E+00	 5.00000000E+00	-3.00000000E+01
	 5.00000000E+00	 0.00000000E+00	-3.00000000E+01
	 5.00000000E+00	-5.00000000E+00	-3.00000000E+01
	-5.00000000E+00	-5.00000000E+00	-3.00000000E+01
	-5.00000000E+00	 5.00000000E+00	-3.00000000E+01
	 5.00000000E+00	 5.00000000E+00	-3.00000000E+01
	 0.00000000E+00	-5.00000000E+00	-3.00000000E+01
	-5.00000000E+00	 0.00000000E+00	-3.00000000E+01
	 0.00000000E+00	 5.00000000E+00	-3.00000000E+01
	 5.00000000E+00	 0.00000000E+00	-3.00000000E+01
	 5.00000000E+00	-5.00000000E+00	-1.80000000E+02
	-5.00000000E+00	-5.00000000E+00	-1.80000000E+02
	-5.00000000E+00	 5.00000000E+00	-1.80000000E+02
	 5.00000000E+00	 5.00000000E+00	-1.80000000E+02
	 5.00000000E+00	-5.00000000E+00	-3.30000000E+02
	-5.00000000E+00	-5.00000000E+00	-3.30000000E+02
	-5.00000000E+00	 5.00000000E+00	-3.30000000E+02
	 5.00000000E+00	 5.00000000E+00	-3.30000000E+02
	 0.00000000E+00	-5.00000000E+00	-3.30000000E+02
	-5.00000000E+00	 0.00000000E+00	-3.30000000E+02
	 0.00000000E+00	 5.00000000E+00	-3.30000000E+02
	 5.00000000E+00	 0.00000000E+00	-3.30000000E+02

CELLS 2 42
	20 0 12 13 1 3 15 14 2 8 16 9 4 11 18 10 6 7 19 17 5 
	20 20 32 33 21 23 35 34 22 28 36 29 24 31 38 30 26 27 39 37 25 

CELL_TYPES 2
	25
	25

POINT_DATA 40
FIELD U 1
	U 3 40 double
		-1.07641000E-05	-8.51064000E-08	-1.04160000E-02
		 1.07641000E-05	-8.51064000E-08	 1.04160000E-02
		 1.07641000E-05	 8.51064000E-08	 1.04160000E-02
		-1.07641000E-05	 8.51064000E-08	-1.04160000E-02
		 0.00000000E+00	-8.51064000E-08	 0.00000000E+00
		 1.07641000E-05	 0.00000000E+00	 1.04160000E-02
		 0.00000000E+00	 8.51064000E-08	 0.00000000E+00
		-1.07641000E-05	 0.00000000E+00	-1.04160000E-02
		-2.98539000E-02	-9.60033000E-08	-9.65968000E-03
		-2.98353000E-02	-9.60033000E-08	 9.72091000E-03
		-2.98353000E-02	 9.60033000E-08	 9.72091000E-03
		-2.98539000E-02	 9.60033000E-08	-9.65968000E-03
		-5.80877000E-02	-8.81892000E-08	-9.27329000E-03
		-5.80704000E-02	-8.81892000E-08	 9.38961000E-03
		-5.80704000E-02	 8.81892000E-08	 9.38961000E-03
		-5.80877000E-02	 8.81892000E-08	-9.27329000E-03
		-5.80790000E-02	-8.81892000E-08	 5.81582000E-05
		-5.80704000E-02	 0.00000000E+00	 9.38961000E-03
		-5.80790000E-02	 8.81892000E-08	 5.81582000E-05
		-5.80877000E-02	 0.00000000E+00	-9.27329000E-03
		-5.80802000E-02	 1.61575000E-08	 3.43302000E-03
		-5.80779000E-02	 1.61575000E-08	-3.31670000E-03
		-5.80779000E-02	-1.61575000E-08	-3.31670000E-03
		-5.80802000E-02	-1.61575000E-08	 3.43302000E-03
		-5.80790000E-02	 1.61575000E-08	 5.81582000E-05
		-5.80779000E-02	 0.00000000E+00	-3.31670000E-03
		-5.80790000E-02	-1.61575000E-08	 5.81582000E-05
		-5.80802000E-02	 0.00000000E+00	 3.43302000E-03
		 4.80597000E-03	-1.31553000E-07	 8.89399000E-04
		 4.80583000E-03	-1.31553000E-07	-7.25202000E-04
		 4.80583000E-03	 1.31553000E-07	-7.25202000E-04
		 4.80597000E-03	 1.31553000E-07	 8.89399000E-04
		-9.63940000E-03	 1.17410000E-07	-1.67177000E-03
		-9.63855000E-03	 1.17410000E-07	 1.84875000E-03
		-9.63855000E-03	-1.17410000E-07	 1.84875000E-03
		-9.63940000E-03	-1.17410000E-07	-1.67177000E-03
		-9.63897000E-03	 1.17410000E-07	 8.84919000E-05
		-9.63855000E-03	 0.00000000E+00	 1.84875000E-03
		-9.63897000E-03	-1.17410000E-07	 8.84919000E-05
		-9.63940000E-03	 0.00000000E+00	-1.67177000E-03
