# vtk DataFile Version 3.0

ASCII
DATASET UNSTRUCTURED_GRID

POINTS 40 double
	 5.00000000E+00	-5.00000000E+00	 0.00000000E+00
	-5.00000000E+00	-5.00000000E+00	 0.00000000E+00
	-5.00000000E+00	 5.00000000E+00	 0.00000000E+00
	 5.00000000E+00	 5.00000000E+00	 0.00000000E+00
	 0.00000000E+00	-5.00000000E+00	 0.00000000E+00
	-5.00000000E+00	 0.00000000E+00	 0.00000000E+00
	 0.00000000E+00	 5.00000000E+00	 0.00000000E+00
	 5.00000000E+00	 0.00000000E+00	 0.00000000E+00
	 5.00000000E+00	-5.00000000E+00	-1.50000000E+01
	-5.00000000E+00	-5.00000000E+00	-1.50000000E+01
	-5.00000000E+00	 5.00000000E+00	-1.50000000E+01
	 5.00000000E+00	 5.00000000E+00	-1.50000000E+01
	 5.00000000E+00	-5.00000000E+00	-3.00000000E+01
	-5.00000000E+00	-5.00000000E+00	-3.00000000E+01
	-5.00000000E+00	 5.00000000E+00	-3.00000000E+01
	 5.00000000E+00	 5.00000000E+00	-3.00000000E+01
	 0.00000000E+00	-5.00000000E+00	-3.00000000E+01
	-5.00000000E+00	 0.00000000E+00	-3.00000000E+01
	 0.00000000E+00	 5.00000000E+00	-3.00000000E+01
	 5.00000000E+00	 0.00000000E+00	-3.00000000E+01
	 5.00000000E+00	-5.00000000E+00	-3.00000000E+01
	-5.00000000E+00	-5.00000000E+00	-3.00000000E+01
	-5.00000000E+00	 5.00000000E+00	-3.00000000E+01
	 5.00000000E+00	 5.00000000E+00	-3.00000000E+01
	 0.00000000E+00	-5.00000000E+00	-3.00000000E+01
	-5.00000000E+00	 0.00000000E+00	-3.00000000E+01
	 0.00000000E+00	 5.00000000E+00	-3.00000000E+01
	 5.00000000E+00	 0.00000000E+00	-3.00000000E+01
	 5.00000000E+00	-5.00000000E+00	-1.80000000E+02
	-5.00000000E+00	-5.00000000E+00	-1.80000000E+02
	-5.00000000E+00	 5.00000000E+00	-1.80000000E+02
	 5.00000000E+00	 5.00000000E+00	-1.80000000E+02
	 5.00000000E+00	-5.00000000E+00	-3.30000000E+02
	-5.00000000E+00	-5.00000000E+00	-3.30000000E+02
	-5.00000000E+00	 5.00000000E+00	-3.30000000E+02
	 5.00000000E+00	 5.00000000E+00	-3.30000000E+02
	 0.00000000E+00	-5.00000000E+00	-3.30000000E+02
	-5.00000000E+00	 0.00000000E+00	-3.30000000E+02
	 0.00000000E+00	 5.00000000E+00	-3.30000000E+02
	 5.00000000E+00	 0.00000000E+00	-3.30000000E+02

CELLS 2 42
	20 0 12 13 1 3 15 14 2 8 16 9 4 11 18 10 6 7 19 17 5 
	20 20 32 33 21 23 35 34 22 28 36 29 24 31 38 30 26 27 39 37 25 

CELL_TYPES 2
	25
	25

POINT_DATA 40
FIELD U 1
	U 3 40 double
		-9.87450000E-01	 1.64487000E-07	-2.98319000E+00
		 9.87450000E-01	 1.64487000E-07	 2.98319000E+00
		 9.87450000E-01	-1.64487000E-07	 2.98319000E+00
		-9.87450000E-01	-1.64487000E-07	-2.98319000E+00
		 0.00000000E+00	 1.64487000E-07	 0.00000000E+00
		 9.87450000E-01	 0.00000000E+00	 2.98319000E+00
		 0.00000000E+00	-1.64487000E-07	 0.00000000E+00
		-9.87450000E-01	 0.00000000E+00	-2.98319000E+00
		-9.93701000E+00	 1.57229000E-07	-2.08480000E-02
		-7.96212000E+00	 1.57229000E-07	 5.94552000E+00
		-7.96212000E+00	-1.57229000E-07	 5.94552000E+00
		-9.93701000E+00	-1.57229000E-07	-2.08480000E-02
		-1.88866000E+01	 1.49974000E-07	 2.94148000E+00
		-1.69117000E+01	 1.49974000E-07	 8.90784000E+00
		-1.69117000E+01	-1.49974000E-07	 8.90784000E+00
		-1.88866000E+01	-1.49974000E-07	 2.94148000E+00
		-1.78991000E+01	 1.49974000E-07	 5.92466000E+00
		-1.69117000E+01	 0.00000000E+00	 8.90784000E+00
		-1.78991000E+01	-1.49974000E-07	 5.92466000E+00
		-1.88866000E+01	 0.00000000E+00	 2.94148000E+00
		-1.79154000E+01	 1.87102000E-07	 6.32802000E+00
		-1.78828000E+01	 1.87102000E-07	 5.52130000E+00
		-1.78828000E+01	-1.87102000E-07	 5.52130000E+00
		-1.79154000E+01	-1.87102000E-07	 6.32802000E+00
		-1.78991000E+01	 1.87102000E-07	 5.92466000E+00
		-1.78828000E+01	 0.00000000E+00	 5.52130000E+00
		-1.78991000E+01	-1.87102000E-07	 5.92466000E+00
		-1.79154000E+01	 0.00000000E+00	 6.32802000E+00
		-5.81425000E+00	 9.38252000E-08	 6.81695000E+00
		-5.78166000E+00	 9.38252000E-08	 6.01019000E+00
		-5.78166000E+00	-9.38252000E-08	 6.01019000E+00
		-5.81425000E+00	-9.38252000E-08	 6.81695000E+00
		 6.28751000E+00	 0.00000000E+00	 7.30594000E+00
		 6.32011000E+00	 0.00000000E+00	 6.49914000E+00
		 6.32011000E+00	 0.00000000E+00	 6.49914000E+00
		 6.28751000E+00	 0.00000000E+00	 7.30594000E+00
		 6.30381000E+00	 0.00000000E+00	 6.90254000E+00
		 6.32011000E+00	 0.00000000E+00	 6.49914000E+00
		 6.30381000E+00	 0.00000000E+00	 6.90254000E+00
		 6.28751000E+00	 0.00000000E+00	 7.30594000E+00
