<?xml version="1.0"?>
<VTKFile type="UnstructuredGrid" version="0.1" byte_order="LittleEndian">
	<UnstructuredGrid>
		<Piece NumberOfPoints="40" NumberOfCells="2">
			<Points>
				<DataArray type="Float64" NumberOfComponents="3" format="ascii">
					 5.00000000E+00	-5.00000000E+00	 0.00000000E+00
					-5.00000000E+00	-5.00000000E+00	 0.00000000E+00
					-5.00000000E+00	 5.00000000E+00	 0.00000000E+00
					 5.00000000E+00	 5.00000000E+00	 0.00000000E+00
					 0.00000000E+00	-5.00000000E+00	 0.00000000E+00
					-5.00000000E+00	 0.00000000E+00	 0.00000000E+00
					 0.00000000E+00	 5.00000000E+00	 0.00000000E+00
					 5.00000000E+00	 0.00000000E+00	 0.00000000E+00
					 5.00000000E+00	-5.00000000E+00	-1.50000000E+01
					-5.00000000E+00	-5.00000000E+00	-1.50000000E+01
					-5.00000000E+00	 5.00000000E+00	-1.50000000E+01
					 5.00000000E+00	 5.00000000E+00	-1.50000000E+01
					 5.00000000E+00	-5.00000000E+00	-3.00000000E+01
					-5.00000000E+00	-5.00000000E+00	-3.00000000E+01
					-5.00000000E+00	 5.00000000E+00	-3.00000000E+01
					 5.00000000E+00	 5.00000000E+00	-3.00000000E+01
					 0.00000000E+00	-5.00000000E+00	-3.00000000E+01
					-5.00000000E+00	 0.00000000E+00	-3.00000000E+01
					 0.00000000E+00	 5.00000000E+00	-3.00000000E+01
					 5.00000000E+00	 0.00000000E+00	-3.00000000E+01
					 5.00000000E+00	-5.00000000E+00	-3.00000000E+01
					-5.00000000E+00	-5.00000000E+00	-3.00000000E+01
					-5.00000000E+00	 5.00000000E+00	-3.00000000E+01
					 5.00000000E+00	 5.00000000E+00	-3.00000000E+01
					 0.00000000E+00	-5.00000000E+00	-3.00000000E+01
					-5.00000000E+00	 0.00000000E+00	-3.00000000E+01
					 0.00000000E+00	 5.00000000E+00	-3.00000000E+01
					 5.00000000E+00	 0.00000000E+00	-3.00000000E+01
					 5.00000000E+00	-5.00000000E+00	-1.80000000E+02
					-5.00000000E+00	-5.00000000E+00	-1.80000000E+02
					-5.00000000E+00	 5.00000000E+00	-1.80000000E+02
					 5.00000000E+00	 5.00000000E+00	-1.80000000E+02
					 5.00000000E+00	-5.00000000E+00	-3.30000000E+02
					-5.00000000E+00	-5.00000000E+00	-3.30000000E+02
					-5.00000000E+00	 5.00000000E+00	-3.30000000E+02
					 5.00000000E+00	 5.00000000E+00	-3.30000000E+02
					 0.00000000E+00	-5.00000000E+00	-3.30000000E+02
					-5.00000000E+00	 0.00000000E+00	-3.30000000E+02
					 0.00000000E+00	 5.00000000E+00	-3.30000000E+02
					 5.00000000E+00	 0.00000000E+00	-3.30000000E+02

				</DataArray>
			</Points>
			<Cells>
				<DataArray type="Int32" Name="connectivity" format="ascii">
					0 12 13 1 3 15 14 2 8 16 9 4 11 18 10 6 7 19 17 5 20 32 33 21 23 35 34 22 28 36 29 24 31 38 30 26 27 39 37 25 
				</DataArray>
				<DataArray type="Int32" Name="offsets" format="ascii">
					20 40 
				</DataArray>
				<DataArray type="UInt8" Name="types" format="ascii">
					25 25 
				</DataArray>
			</Cells>
			<PointData>
				<DataArray type="Float32" Name="U" NumberOfComponents="3" ComponentName0="D1" ComponentName1="D2" ComponentName2="D3" format="ascii">
					-4.94722000E-06	 2.69598000E-07	-6.83931000E-03
					 4.94722000E-06	 2.69598000E-07	 6.83931000E-03
					 4.94722000E-06	-2.69598000E-07	 6.83931000E-03
					-4.94722000E-06	-2.69598000E-07	-6.83931000E-03
					 0.00000000E+00	 2.69598000E-07	 0.00000000E+00
					 4.94722000E-06	 0.00000000E+00	 6.83931000E-03
					 0.00000000E+00	-2.69598000E-07	 0.00000000E+00
					-4.94722000E-06	 0.00000000E+00	-6.83931000E-03
					-2.21140000E-02	 2.54336000E-07	-7.64270000E-03
					-2.21018000E-02	 2.54336000E-07	 7.67010000E-03
					-2.21018000E-02	-2.54336000E-07	 7.67010000E-03
					-2.21140000E-02	-2.54336000E-07	-7.64270000E-03
					-4.60160000E-02	 2.62667000E-07	-8.02515000E-03
					-4.60025000E-02	 2.62667000E-07	 8.08558000E-03
					-4.60025000E-02	-2.62667000E-07	 8.08558000E-03
					-4.60160000E-02	-2.62667000E-07	-8.02515000E-03
					-4.60092000E-02	 2.62667000E-07	 3.02174000E-05
					-4.60025000E-02	 0.00000000E+00	 8.08558000E-03
					-4.60092000E-02	-2.62667000E-07	 3.02174000E-05
					-4.60160000E-02	 0.00000000E+00	-8.02515000E-03
					-4.60104000E-02	 3.68977000E-07	 2.95909000E-03
					-4.60080000E-02	 3.68977000E-07	-2.89866000E-03
					-4.60080000E-02	-3.68977000E-07	-2.89866000E-03
					-4.60104000E-02	-3.68977000E-07	 2.95909000E-03
					-4.60092000E-02	 3.68977000E-07	 3.02174000E-05
					-4.60080000E-02	 0.00000000E+00	-2.89866000E-03
					-4.60092000E-02	-3.68977000E-07	 3.02174000E-05
					-4.60104000E-02	 0.00000000E+00	 2.95909000E-03
					 6.37067000E-03	 7.50893000E-08	 5.75616000E-04
					 6.37088000E-03	 7.50893000E-08	-5.32759000E-04
					 6.37088000E-03	-7.50893000E-08	-5.32759000E-04
					 6.37067000E-03	-7.50893000E-08	 5.75616000E-04
					-1.27606000E-02	 1.20434000E-07	-1.80336000E-03
					-1.27597000E-02	 1.20434000E-07	 1.83764000E-03
					-1.27597000E-02	-1.20434000E-07	 1.83764000E-03
					-1.27606000E-02	-1.20434000E-07	-1.80336000E-03
					-1.27601000E-02	 1.20434000E-07	 1.71422000E-05
					-1.27597000E-02	 0.00000000E+00	 1.83764000E-03
					-1.27601000E-02	-1.20434000E-07	 1.71422000E-05
					-1.27606000E-02	 0.00000000E+00	-1.80336000E-03
				</DataArray>
			</PointData>
		</Piece>
	</UnstructuredGrid>
</VTKFile>