# vtk DataFile Version 3.0

ASCII
DATASET UNSTRUCTURED_GRID

POINTS 40 double
	 5.00000000E+00	-5.00000000E+00	 0.00000000E+00
	-5.00000000E+00	-5.00000000E+00	 0.00000000E+00
	-5.00000000E+00	 5.00000000E+00	 0.00000000E+00
	 5.00000000E+00	 5.00000000E+00	 0.00000000E+00
	 0.00000000E+00	-5.00000000E+00	 0.00000000E+00
	-5.00000000E+00	 0.00000000E+00	 0.00000000E+00
	 0.00000000E+00	 5.00000000E+00	 0.00000000E+00
	 5.00000000E+00	 0.00000000E+00	 0.00000000E+00
	 5.00000000E+00	-5.00000000E+00	-1.50000000E+01
	-5.00000000E+00	-5.00000000E+00	-1.50000000E+01
	-5.00000000E+00	 5.00000000E+00	-1.50000000E+01
	 5.00000000E+00	 5.00000000E+00	-1.50000000E+01
	 5.00000000E+00	-5.00000000E+00	-3.00000000E+01
	-5.00000000E+00	-5.00000000E+00	-3.00000000E+01
	-5.00000000E+00	 5.00000000E+00	-3.00000000E+01
	 5.00000000E+00	 5.00000000E+00	-3.00000000E+01
	 0.00000000E+00	-5.00000000E+00	-3.00000000E+01
	-5.00000000E+00	 0.00000000E+00	-3.00000000E+01
	 0.00000000E+00	 5.00000000E+00	-3.00000000E+01
	 5.00000000E+00	 0.00000000E+00	-3.00000000E+01
	 5.00000000E+00	-5.00000000E+00	-3.00000000E+01
	-5.00000000E+00	-5.00000000E+00	-3.00000000E+01
	-5.00000000E+00	 5.00000000E+00	-3.00000000E+01
	 5.00000000E+00	 5.00000000E+00	-3.00000000E+01
	 0.00000000E+00	-5.00000000E+00	-3.00000000E+01
	-5.00000000E+00	 0.00000000E+00	-3.00000000E+01
	 0.00000000E+00	 5.00000000E+00	-3.00000000E+01
	 5.00000000E+00	 0.00000000E+00	-3.00000000E+01
	 5.00000000E+00	-5.00000000E+00	-1.80000000E+02
	-5.00000000E+00	-5.00000000E+00	-1.80000000E+02
	-5.00000000E+00	 5.00000000E+00	-1.80000000E+02
	 5.00000000E+00	 5.00000000E+00	-1.80000000E+02
	 5.00000000E+00	-5.00000000E+00	-3.30000000E+02
	-5.00000000E+00	-5.00000000E+00	-3.30000000E+02
	-5.00000000E+00	 5.00000000E+00	-3.30000000E+02
	 5.00000000E+00	 5.00000000E+00	-3.30000000E+02
	 0.00000000E+00	-5.00000000E+00	-3.30000000E+02
	-5.00000000E+00	 0.00000000E+00	-3.30000000E+02
	 0.00000000E+00	 5.00000000E+00	-3.30000000E+02
	 5.00000000E+00	 0.00000000E+00	-3.30000000E+02

CELLS 2 42
	20 0 12 13 1 3 15 14 2 8 16 9 4 11 18 10 6 7 19 17 5 
	20 20 32 33 21 23 35 34 22 28 36 29 24 31 38 30 26 27 39 37 25 

CELL_TYPES 2
	25
	25

POINT_DATA 40
FIELD U 1
	U 3 40 double
		-5.17885000E+00	-5.35856000E-09	 4.99680000E+00
		 5.17885000E+00	-5.35856000E-09	-4.99680000E+00
		 5.17885000E+00	 5.35856000E-09	-4.99680000E+00
		-5.17885000E+00	 5.35856000E-09	 4.99680000E+00
		 0.00000000E+00	-5.35856000E-09	 0.00000000E+00
		 5.17885000E+00	 0.00000000E+00	-4.99680000E+00
		 0.00000000E+00	 5.35856000E-09	 0.00000000E+00
		-5.17885000E+00	 0.00000000E+00	 4.99680000E+00
		 9.81157000E+00	-5.56870000E-09	 2.05333000E+01
		 2.01692000E+01	-5.56870000E-09	 1.05397000E+01
		 2.01692000E+01	 5.56870000E-09	 1.05397000E+01
		 9.81157000E+00	 5.56870000E-09	 2.05333000E+01
		 2.48020000E+01	-5.76836000E-09	 3.60698000E+01
		 3.51596000E+01	-5.76836000E-09	 2.60762000E+01
		 3.51596000E+01	 5.76836000E-09	 2.60762000E+01
		 2.48020000E+01	 5.76836000E-09	 3.60698000E+01
		 2.99808000E+01	-5.76836000E-09	 3.10730000E+01
		 3.51596000E+01	 0.00000000E+00	 2.60762000E+01
		 2.99808000E+01	 5.76836000E-09	 3.10730000E+01
		 2.48020000E+01	 0.00000000E+00	 3.60698000E+01
		 2.99783000E+01	 1.88867000E-07	 3.09161000E+01
		 2.99833000E+01	 1.88867000E-07	 3.12299000E+01
		 2.99833000E+01	-1.88867000E-07	 3.12299000E+01
		 2.99783000E+01	-1.88867000E-07	 3.09161000E+01
		 2.99808000E+01	 1.88867000E-07	 3.10730000E+01
		 2.99833000E+01	 0.00000000E+00	 3.12299000E+01
		 2.99808000E+01	-1.88867000E-07	 3.10730000E+01
		 2.99783000E+01	 0.00000000E+00	 3.09161000E+01
		 2.52723000E+01	 9.57472000E-08	 3.09900000E+01
		 2.52772000E+01	 9.57472000E-08	 3.13037000E+01
		 2.52772000E+01	-9.57472000E-08	 3.13037000E+01
		 2.52723000E+01	-9.57472000E-08	 3.09900000E+01
		 2.05660000E+01	 2.63114000E-09	 3.10638000E+01
		 2.05710000E+01	 2.63114000E-09	 3.13776000E+01
		 2.05710000E+01	-2.63114000E-09	 3.13776000E+01
		 2.05660000E+01	-2.63114000E-09	 3.10638000E+01
		 2.05685000E+01	 2.63114000E-09	 3.12207000E+01
		 2.05710000E+01	 0.00000000E+00	 3.13776000E+01
		 2.05685000E+01	-2.63114000E-09	 3.12207000E+01
		 2.05660000E+01	 0.00000000E+00	 3.10638000E+01
