<?xml version="1.0"?>
<VTKFile type="UnstructuredGrid" version="0.1" byte_order="LittleEndian">
	<UnstructuredGrid>
		<Piece NumberOfPoints="40" NumberOfCells="2">
			<Points>
				<DataArray type="Float64" NumberOfComponents="3" format="ascii">
					 5.00000000E+00	-5.00000000E+00	 0.00000000E+00
					-5.00000000E+00	-5.00000000E+00	 0.00000000E+00
					-5.00000000E+00	 5.00000000E+00	 0.00000000E+00
					 5.00000000E+00	 5.00000000E+00	 0.00000000E+00
					 0.00000000E+00	-5.00000000E+00	 0.00000000E+00
					-5.00000000E+00	 0.00000000E+00	 0.00000000E+00
					 0.00000000E+00	 5.00000000E+00	 0.00000000E+00
					 5.00000000E+00	 0.00000000E+00	 0.00000000E+00
					 5.00000000E+00	-5.00000000E+00	-1.50000000E+01
					-5.00000000E+00	-5.00000000E+00	-1.50000000E+01
					-5.00000000E+00	 5.00000000E+00	-1.50000000E+01
					 5.00000000E+00	 5.00000000E+00	-1.50000000E+01
					 5.00000000E+00	-5.00000000E+00	-3.00000000E+01
					-5.00000000E+00	-5.00000000E+00	-3.00000000E+01
					-5.00000000E+00	 5.00000000E+00	-3.00000000E+01
					 5.00000000E+00	 5.00000000E+00	-3.00000000E+01
					 0.00000000E+00	-5.00000000E+00	-3.00000000E+01
					-5.00000000E+00	 0.00000000E+00	-3.00000000E+01
					 0.00000000E+00	 5.00000000E+00	-3.00000000E+01
					 5.00000000E+00	 0.00000000E+00	-3.00000000E+01
					 5.00000000E+00	-5.00000000E+00	-3.00000000E+01
					-5.00000000E+00	-5.00000000E+00	-3.00000000E+01
					-5.00000000E+00	 5.00000000E+00	-3.00000000E+01
					 5.00000000E+00	 5.00000000E+00	-3.00000000E+01
					 0.00000000E+00	-5.00000000E+00	-3.00000000E+01
					-5.00000000E+00	 0.00000000E+00	-3.00000000E+01
					 0.00000000E+00	 5.00000000E+00	-3.00000000E+01
					 5.00000000E+00	 0.00000000E+00	-3.00000000E+01
					 5.00000000E+00	-5.00000000E+00	-1.80000000E+02
					-5.00000000E+00	-5.00000000E+00	-1.80000000E+02
					-5.00000000E+00	 5.00000000E+00	-1.80000000E+02
					 5.00000000E+00	 5.00000000E+00	-1.80000000E+02
					 5.00000000E+00	-5.00000000E+00	-3.30000000E+02
					-5.00000000E+00	-5.00000000E+00	-3.30000000E+02
					-5.00000000E+00	 5.00000000E+00	-3.30000000E+02
					 5.00000000E+00	 5.00000000E+00	-3.30000000E+02
					 0.00000000E+00	-5.00000000E+00	-3.30000000E+02
					-5.00000000E+00	 0.00000000E+00	-3.30000000E+02
					 0.00000000E+00	 5.00000000E+00	-3.30000000E+02
					 5.00000000E+00	 0.00000000E+00	-3.30000000E+02

				</DataArray>
			</Points>
			<Cells>
				<DataArray type="Int32" Name="connectivity" format="ascii">
					0 12 13 1 3 15 14 2 8 16 9 4 11 18 10 6 7 19 17 5 20 32 33 21 23 35 34 22 28 36 29 24 31 38 30 26 27 39 37 25 
				</DataArray>
				<DataArray type="Int32" Name="offsets" format="ascii">
					20 40 
				</DataArray>
				<DataArray type="UInt8" Name="types" format="ascii">
					25 25 
				</DataArray>
			</Cells>
			<PointData>
				<DataArray type="Float32" Name="U" NumberOfComponents="3" ComponentName0="D1" ComponentName1="D2" ComponentName2="D3" format="ascii">
					-1.11760000E-06	 2.96630000E-07	-2.86525000E-03
					 1.11760000E-06	 2.96630000E-07	 2.86525000E-03
					 1.11760000E-06	-2.96630000E-07	 2.86525000E-03
					-1.11760000E-06	-2.96630000E-07	-2.86525000E-03
					 0.00000000E+00	 2.96630000E-07	 0.00000000E+00
					 1.11760000E-06	 0.00000000E+00	 2.86525000E-03
					 0.00000000E+00	-2.96630000E-07	 0.00000000E+00
					-1.11760000E-06	 0.00000000E+00	-2.86525000E-03
					-7.16130000E-03	 2.81275000E-07	-2.11074000E-03
					-7.15984000E-03	 2.81275000E-07	 2.10843000E-03
					-7.15984000E-03	-2.81275000E-07	 2.10843000E-03
					-7.16130000E-03	-2.81275000E-07	-2.11074000E-03
					-1.25970000E-02	 2.86463000E-07	-1.72570000E-03
					-1.25959000E-02	 2.86463000E-07	 1.71978000E-03
					-1.25959000E-02	-2.86463000E-07	 1.71978000E-03
					-1.25970000E-02	-2.86463000E-07	-1.72570000E-03
					-1.25965000E-02	 2.86463000E-07	-2.95675000E-06
					-1.25959000E-02	 0.00000000E+00	 1.71978000E-03
					-1.25965000E-02	-2.86463000E-07	-2.95675000E-06
					-1.25970000E-02	 0.00000000E+00	-1.72570000E-03
					-1.25968000E-02	 2.91791000E-07	 8.28935000E-04
					-1.25961000E-02	 2.91791000E-07	-8.34848000E-04
					-1.25961000E-02	-2.91791000E-07	-8.34848000E-04
					-1.25968000E-02	-2.91791000E-07	 8.28935000E-04
					-1.25965000E-02	 2.91791000E-07	-2.95675000E-06
					-1.25961000E-02	 0.00000000E+00	-8.34848000E-04
					-1.25965000E-02	-2.91791000E-07	-2.95675000E-06
					-1.25968000E-02	 0.00000000E+00	 8.28935000E-04
					 2.04871000E-03	 1.46689000E-07	 1.17722000E-04
					 2.04901000E-03	 1.46689000E-07	-1.65336000E-04
					 2.04901000E-03	-1.46689000E-07	-1.65336000E-04
					 2.04871000E-03	-1.46689000E-07	 1.17722000E-04
					-4.10250000E-03	 3.02705000E-08	-5.80998000E-04
					-4.10238000E-03	 3.02705000E-08	 5.16669000E-04
					-4.10238000E-03	-3.02705000E-08	 5.16669000E-04
					-4.10250000E-03	-3.02705000E-08	-5.80998000E-04
					-4.10244000E-03	 3.02705000E-08	-3.21645000E-05
					-4.10238000E-03	 0.00000000E+00	 5.16669000E-04
					-4.10244000E-03	-3.02705000E-08	-3.21645000E-05
					-4.10250000E-03	 0.00000000E+00	-5.80998000E-04
				</DataArray>
			</PointData>
		</Piece>
	</UnstructuredGrid>
</VTKFile>