# vtk DataFile Version 3.0

ASCII
DATASET UNSTRUCTURED_GRID

POINTS 40 double
	 5.00000000E+00	-5.00000000E+00	 0.00000000E+00
	-5.00000000E+00	-5.00000000E+00	 0.00000000E+00
	-5.00000000E+00	 5.00000000E+00	 0.00000000E+00
	 5.00000000E+00	 5.00000000E+00	 0.00000000E+00
	 0.00000000E+00	-5.00000000E+00	 0.00000000E+00
	-5.00000000E+00	 0.00000000E+00	 0.00000000E+00
	 0.00000000E+00	 5.00000000E+00	 0.00000000E+00
	 5.00000000E+00	 0.00000000E+00	 0.00000000E+00
	 5.00000000E+00	-5.00000000E+00	-1.50000000E+01
	-5.00000000E+00	-5.00000000E+00	-1.50000000E+01
	-5.00000000E+00	 5.00000000E+00	-1.50000000E+01
	 5.00000000E+00	 5.00000000E+00	-1.50000000E+01
	 5.00000000E+00	-5.00000000E+00	-3.00000000E+01
	-5.00000000E+00	-5.00000000E+00	-3.00000000E+01
	-5.00000000E+00	 5.00000000E+00	-3.00000000E+01
	 5.00000000E+00	 5.00000000E+00	-3.00000000E+01
	 0.00000000E+00	-5.00000000E+00	-3.00000000E+01
	-5.00000000E+00	 0.00000000E+00	-3.00000000E+01
	 0.00000000E+00	 5.00000000E+00	-3.00000000E+01
	 5.00000000E+00	 0.00000000E+00	-3.00000000E+01
	 5.00000000E+00	-5.00000000E+00	-3.00000000E+01
	-5.00000000E+00	-5.00000000E+00	-3.00000000E+01
	-5.00000000E+00	 5.00000000E+00	-3.00000000E+01
	 5.00000000E+00	 5.00000000E+00	-3.00000000E+01
	 0.00000000E+00	-5.00000000E+00	-3.00000000E+01
	-5.00000000E+00	 0.00000000E+00	-3.00000000E+01
	 0.00000000E+00	 5.00000000E+00	-3.00000000E+01
	 5.00000000E+00	 0.00000000E+00	-3.00000000E+01
	 5.00000000E+00	-5.00000000E+00	-1.80000000E+02
	-5.00000000E+00	-5.00000000E+00	-1.80000000E+02
	-5.00000000E+00	 5.00000000E+00	-1.80000000E+02
	 5.00000000E+00	 5.00000000E+00	-1.80000000E+02
	 5.00000000E+00	-5.00000000E+00	-3.30000000E+02
	-5.00000000E+00	-5.00000000E+00	-3.30000000E+02
	-5.00000000E+00	 5.00000000E+00	-3.30000000E+02
	 5.00000000E+00	 5.00000000E+00	-3.30000000E+02
	 0.00000000E+00	-5.00000000E+00	-3.30000000E+02
	-5.00000000E+00	 0.00000000E+00	-3.30000000E+02
	 0.00000000E+00	 5.00000000E+00	-3.30000000E+02
	 5.00000000E+00	 0.00000000E+00	-3.30000000E+02

CELLS 2 42
	20 0 12 13 1 3 15 14 2 8 16 9 4 11 18 10 6 7 19 17 5 
	20 20 32 33 21 23 35 34 22 28 36 29 24 31 38 30 26 27 39 37 25 

CELL_TYPES 2
	25
	25

POINT_DATA 40
FIELD U 1
	U 3 40 double
		-4.51981000E+00	 1.55669000E-08	-4.97689000E+00
		 4.51981000E+00	 1.55669000E-08	 4.97689000E+00
		 4.51981000E+00	-1.55669000E-08	 4.97689000E+00
		-4.51981000E+00	-1.55669000E-08	-4.97689000E+00
		 0.00000000E+00	 1.55669000E-08	 0.00000000E+00
		 4.51981000E+00	 0.00000000E+00	 4.97689000E+00
		 0.00000000E+00	-1.55669000E-08	 0.00000000E+00
		-4.51981000E+00	 0.00000000E+00	-4.97689000E+00
		-1.94505000E+01	 1.42549000E-08	 8.58252000E+00
		-1.04109000E+01	 1.42549000E-08	 1.85363000E+01
		-1.04109000E+01	-1.42549000E-08	 1.85363000E+01
		-1.94505000E+01	-1.42549000E-08	 8.58252000E+00
		-3.43811000E+01	 1.29520000E-08	 2.21419000E+01
		-2.53415000E+01	 1.29520000E-08	 3.20957000E+01
		-2.53415000E+01	-1.29520000E-08	 3.20957000E+01
		-3.43811000E+01	-1.29520000E-08	 2.21419000E+01
		-2.98613000E+01	 1.29520000E-08	 2.71188000E+01
		-2.53415000E+01	 0.00000000E+00	 3.20957000E+01
		-2.98613000E+01	-1.29520000E-08	 2.71188000E+01
		-3.43811000E+01	 0.00000000E+00	 2.21419000E+01
		-2.98725000E+01	 1.73995000E-07	 2.74525000E+01
		-2.98502000E+01	 1.73995000E-07	 2.67851000E+01
		-2.98502000E+01	-1.73995000E-07	 2.67851000E+01
		-2.98725000E+01	-1.73995000E-07	 2.74525000E+01
		-2.98613000E+01	 1.73995000E-07	 2.71188000E+01
		-2.98502000E+01	 0.00000000E+00	 2.67851000E+01
		-2.98613000E+01	-1.73995000E-07	 2.71188000E+01
		-2.98725000E+01	 0.00000000E+00	 2.74525000E+01
		-1.98621000E+01	 8.71157000E-08	 2.77868000E+01
		-1.98398000E+01	 8.71157000E-08	 2.71195000E+01
		-1.98398000E+01	-8.71157000E-08	 2.71195000E+01
		-1.98621000E+01	-8.71157000E-08	 2.77868000E+01
		-9.85151000E+00	 0.00000000E+00	 2.81213000E+01
		-9.82921000E+00	 0.00000000E+00	 2.74539000E+01
		-9.82921000E+00	 0.00000000E+00	 2.74539000E+01
		-9.85151000E+00	 0.00000000E+00	 2.81213000E+01
		-9.84036000E+00	 0.00000000E+00	 2.77876000E+01
		-9.82921000E+00	 0.00000000E+00	 2.74539000E+01
		-9.84036000E+00	 0.00000000E+00	 2.77876000E+01
		-9.85151000E+00	 0.00000000E+00	 2.81213000E+01
