<?xml version="1.0"?>
<VTKFile type="UnstructuredGrid" version="0.1" byte_order="LittleEndian">
	<UnstructuredGrid>
		<Piece NumberOfPoints="40" NumberOfCells="2">
			<Points>
				<DataArray type="Float64" NumberOfComponents="3" format="ascii">
					 5.00000000E+00	-5.00000000E+00	 0.00000000E+00
					-5.00000000E+00	-5.00000000E+00	 0.00000000E+00
					-5.00000000E+00	 5.00000000E+00	 0.00000000E+00
					 5.00000000E+00	 5.00000000E+00	 0.00000000E+00
					 0.00000000E+00	-5.00000000E+00	 0.00000000E+00
					-5.00000000E+00	 0.00000000E+00	 0.00000000E+00
					 0.00000000E+00	 5.00000000E+00	 0.00000000E+00
					 5.00000000E+00	 0.00000000E+00	 0.00000000E+00
					 5.00000000E+00	-5.00000000E+00	-1.50000000E+01
					-5.00000000E+00	-5.00000000E+00	-1.50000000E+01
					-5.00000000E+00	 5.00000000E+00	-1.50000000E+01
					 5.00000000E+00	 5.00000000E+00	-1.50000000E+01
					 5.00000000E+00	-5.00000000E+00	-3.00000000E+01
					-5.00000000E+00	-5.00000000E+00	-3.00000000E+01
					-5.00000000E+00	 5.00000000E+00	-3.00000000E+01
					 5.00000000E+00	 5.00000000E+00	-3.00000000E+01
					 0.00000000E+00	-5.00000000E+00	-3.00000000E+01
					-5.00000000E+00	 0.00000000E+00	-3.00000000E+01
					 0.00000000E+00	 5.00000000E+00	-3.00000000E+01
					 5.00000000E+00	 0.00000000E+00	-3.00000000E+01
					 5.00000000E+00	-5.00000000E+00	-3.00000000E+01
					-5.00000000E+00	-5.00000000E+00	-3.00000000E+01
					-5.00000000E+00	 5.00000000E+00	-3.00000000E+01
					 5.00000000E+00	 5.00000000E+00	-3.00000000E+01
					 0.00000000E+00	-5.00000000E+00	-3.00000000E+01
					-5.00000000E+00	 0.00000000E+00	-3.00000000E+01
					 0.00000000E+00	 5.00000000E+00	-3.00000000E+01
					 5.00000000E+00	 0.00000000E+00	-3.00000000E+01
					 5.00000000E+00	-5.00000000E+00	-1.80000000E+02
					-5.00000000E+00	-5.00000000E+00	-1.80000000E+02
					-5.00000000E+00	 5.00000000E+00	-1.80000000E+02
					 5.00000000E+00	 5.00000000E+00	-1.80000000E+02
					 5.00000000E+00	-5.00000000E+00	-3.30000000E+02
					-5.00000000E+00	-5.00000000E+00	-3.30000000E+02
					-5.00000000E+00	 5.00000000E+00	-3.30000000E+02
					 5.00000000E+00	 5.00000000E+00	-3.30000000E+02
					 0.00000000E+00	-5.00000000E+00	-3.30000000E+02
					-5.00000000E+00	 0.00000000E+00	-3.30000000E+02
					 0.00000000E+00	 5.00000000E+00	-3.30000000E+02
					 5.00000000E+00	 0.00000000E+00	-3.30000000E+02

				</DataArray>
			</Points>
			<Cells>
				<DataArray type="Int32" Name="connectivity" format="ascii">
					0 12 13 1 3 15 14 2 8 16 9 4 11 18 10 6 7 19 17 5 20 32 33 21 23 35 34 22 28 36 29 24 31 38 30 26 27 39 37 25 
				</DataArray>
				<DataArray type="Int32" Name="offsets" format="ascii">
					20 40 
				</DataArray>
				<DataArray type="UInt8" Name="types" format="ascii">
					25 25 
				</DataArray>
			</Cells>
			<PointData>
				<DataArray type="Float32" Name="U" NumberOfComponents="3" ComponentName0="D1" ComponentName1="D2" ComponentName2="D3" format="ascii">
					-8.82513000E+00	-1.40719000E-07	 3.21999000E+00
					 8.82513000E+00	-1.40719000E-07	-3.21999000E+00
					 8.82513000E+00	 1.40719000E-07	-3.21999000E+00
					-8.82513000E+00	 1.40719000E-07	 3.21999000E+00
					 0.00000000E+00	-1.40719000E-07	 0.00000000E+00
					 8.82513000E+00	 0.00000000E+00	-3.21999000E+00
					 0.00000000E+00	 1.40719000E-07	 0.00000000E+00
					-8.82513000E+00	 0.00000000E+00	 3.21999000E+00
					 8.34865000E-01	-1.34832000E-07	 2.96954000E+01
					 1.84851000E+01	-1.34832000E-07	 2.32554000E+01
					 1.84851000E+01	 1.34832000E-07	 2.32554000E+01
					 8.34865000E-01	 1.34832000E-07	 2.96954000E+01
					 1.04949000E+01	-1.28943000E-07	 5.61708000E+01
					 2.81451000E+01	-1.28943000E-07	 4.97308000E+01
					 2.81451000E+01	 1.28943000E-07	 4.97308000E+01
					 1.04949000E+01	 1.28943000E-07	 5.61708000E+01
					 1.93200000E+01	-1.28943000E-07	 5.29508000E+01
					 2.81451000E+01	 0.00000000E+00	 4.97308000E+01
					 1.93200000E+01	 1.28943000E-07	 5.29508000E+01
					 1.04949000E+01	 0.00000000E+00	 5.61708000E+01
					 1.91597000E+01	 1.49366000E-07	 5.16949000E+01
					 1.94803000E+01	 1.49366000E-07	 5.42066000E+01
					 1.94803000E+01	-1.49366000E-07	 5.42066000E+01
					 1.91597000E+01	-1.49366000E-07	 5.16949000E+01
					 1.93200000E+01	 1.49366000E-07	 5.29508000E+01
					 1.94803000E+01	 0.00000000E+00	 5.42066000E+01
					 1.93200000E+01	-1.49366000E-07	 5.29508000E+01
					 1.91597000E+01	 0.00000000E+00	 5.16949000E+01
					-1.85152000E+01	 7.48032000E-08	 5.65033000E+01
					-1.81947000E+01	 7.48032000E-08	 5.90150000E+01
					-1.81947000E+01	-7.48032000E-08	 5.90150000E+01
					-1.85152000E+01	-7.48032000E-08	 5.65033000E+01
					-5.61906000E+01	 0.00000000E+00	 6.13118000E+01
					-5.58700000E+01	 0.00000000E+00	 6.38235000E+01
					-5.58700000E+01	 0.00000000E+00	 6.38235000E+01
					-5.61906000E+01	 0.00000000E+00	 6.13118000E+01
					-5.60303000E+01	 0.00000000E+00	 6.25677000E+01
					-5.58700000E+01	 0.00000000E+00	 6.38235000E+01
					-5.60303000E+01	 0.00000000E+00	 6.25677000E+01
					-5.61906000E+01	 0.00000000E+00	 6.13118000E+01
				</DataArray>
			</PointData>
		</Piece>
	</UnstructuredGrid>
</VTKFile>