# vtk DataFile Version 3.0

ASCII
DATASET UNSTRUCTURED_GRID

POINTS 40 double
	 5.00000000E+00	-5.00000000E+00	 0.00000000E+00
	-5.00000000E+00	-5.00000000E+00	 0.00000000E+00
	-5.00000000E+00	 5.00000000E+00	 0.00000000E+00
	 5.00000000E+00	 5.00000000E+00	 0.00000000E+00
	 0.00000000E+00	-5.00000000E+00	 0.00000000E+00
	-5.00000000E+00	 0.00000000E+00	 0.00000000E+00
	 0.00000000E+00	 5.00000000E+00	 0.00000000E+00
	 5.00000000E+00	 0.00000000E+00	 0.00000000E+00
	 5.00000000E+00	-5.00000000E+00	-1.50000000E+01
	-5.00000000E+00	-5.00000000E+00	-1.50000000E+01
	-5.00000000E+00	 5.00000000E+00	-1.50000000E+01
	 5.00000000E+00	 5.00000000E+00	-1.50000000E+01
	 5.00000000E+00	-5.00000000E+00	-3.00000000E+01
	-5.00000000E+00	-5.00000000E+00	-3.00000000E+01
	-5.00000000E+00	 5.00000000E+00	-3.00000000E+01
	 5.00000000E+00	 5.00000000E+00	-3.00000000E+01
	 0.00000000E+00	-5.00000000E+00	-3.00000000E+01
	-5.00000000E+00	 0.00000000E+00	-3.00000000E+01
	 0.00000000E+00	 5.00000000E+00	-3.00000000E+01
	 5.00000000E+00	 0.00000000E+00	-3.00000000E+01
	 5.00000000E+00	-5.00000000E+00	-3.00000000E+01
	-5.00000000E+00	-5.00000000E+00	-3.00000000E+01
	-5.00000000E+00	 5.00000000E+00	-3.00000000E+01
	 5.00000000E+00	 5.00000000E+00	-3.00000000E+01
	 0.00000000E+00	-5.00000000E+00	-3.00000000E+01
	-5.00000000E+00	 0.00000000E+00	-3.00000000E+01
	 0.00000000E+00	 5.00000000E+00	-3.00000000E+01
	 5.00000000E+00	 0.00000000E+00	-3.00000000E+01
	 5.00000000E+00	-5.00000000E+00	-1.80000000E+02
	-5.00000000E+00	-5.00000000E+00	-1.80000000E+02
	-5.00000000E+00	 5.00000000E+00	-1.80000000E+02
	 5.00000000E+00	 5.00000000E+00	-1.80000000E+02
	 5.00000000E+00	-5.00000000E+00	-3.30000000E+02
	-5.00000000E+00	-5.00000000E+00	-3.30000000E+02
	-5.00000000E+00	 5.00000000E+00	-3.30000000E+02
	 5.00000000E+00	 5.00000000E+00	-3.30000000E+02
	 0.00000000E+00	-5.00000000E+00	-3.30000000E+02
	-5.00000000E+00	 0.00000000E+00	-3.30000000E+02
	 0.00000000E+00	 5.00000000E+00	-3.30000000E+02
	 5.00000000E+00	 0.00000000E+00	-3.30000000E+02

CELLS 2 42
	20 0 12 13 1 3 15 14 2 8 16 9 4 11 18 10 6 7 19 17 5 
	20 20 32 33 21 23 35 34 22 28 36 29 24 31 38 30 26 27 39 37 25 

CELL_TYPES 2
	25
	25

POINT_DATA 40
FIELD U 1
	U 3 40 double
		-1.14479000E-01	 1.95104000E-07	 1.06381000E+00
		 1.14479000E-01	 1.95104000E-07	-1.06381000E+00
		 1.14479000E-01	-1.95104000E-07	-1.06381000E+00
		-1.14479000E-01	-1.95104000E-07	 1.06381000E+00
		 0.00000000E+00	 1.95104000E-07	 0.00000000E+00
		 1.14479000E-01	 0.00000000E+00	-1.06381000E+00
		 0.00000000E+00	-1.95104000E-07	 0.00000000E+00
		-1.14479000E-01	 0.00000000E+00	 1.06381000E+00
		 3.07694000E+00	 1.86430000E-07	 1.40724000E+00
		 3.30590000E+00	 1.86430000E-07	-7.20372000E-01
		 3.30590000E+00	-1.86430000E-07	-7.20372000E-01
		 3.07694000E+00	-1.86430000E-07	 1.40724000E+00
		 6.26837000E+00	 1.77757000E-07	 1.75068000E+00
		 6.49733000E+00	 1.77757000E-07	-3.76937000E-01
		 6.49733000E+00	-1.77757000E-07	-3.76937000E-01
		 6.26837000E+00	-1.77757000E-07	 1.75068000E+00
		 6.38285000E+00	 1.77757000E-07	 6.86872000E-01
		 6.49733000E+00	 0.00000000E+00	-3.76937000E-01
		 6.38285000E+00	-1.77757000E-07	 6.86872000E-01
		 6.26837000E+00	 0.00000000E+00	 1.75068000E+00
		 5.92326000E+00	 1.77463000E-07	 2.78082000E+00
		 6.84243000E+00	 1.77463000E-07	-1.40707000E+00
		 6.84243000E+00	-1.77463000E-07	-1.40707000E+00
		 5.92326000E+00	-1.77463000E-07	 2.78082000E+00
		 6.38285000E+00	 1.77463000E-07	 6.86872000E-01
		 6.84243000E+00	 0.00000000E+00	-1.40707000E+00
		 6.38285000E+00	-1.77463000E-07	 6.86872000E-01
		 5.92326000E+00	 0.00000000E+00	 2.78082000E+00
		 6.87419000E+01	 8.87910000E-08	 1.65684000E+01
		 6.96611000E+01	 8.87910000E-08	 1.23805000E+01
		 6.96611000E+01	-8.87910000E-08	 1.23805000E+01
		 6.87419000E+01	-8.87910000E-08	 1.65684000E+01
		 1.31561000E+02	 0.00000000E+00	 3.03563000E+01
		 1.32480000E+02	 0.00000000E+00	 2.61684000E+01
		 1.32480000E+02	 0.00000000E+00	 2.61684000E+01
		 1.31561000E+02	 0.00000000E+00	 3.03563000E+01
		 1.32021000E+02	 0.00000000E+00	 2.82624000E+01
		 1.32480000E+02	 0.00000000E+00	 2.61684000E+01
		 1.32021000E+02	 0.00000000E+00	 2.82624000E+01
		 1.31561000E+02	 0.00000000E+00	 3.03563000E+01
