    1C
    1UUSER                                                              
    1UDATE              25.january.2020                                 
    1UTIME              14:52:01                                        
    1UHOST                                                              
    1UPGM               CalculiX                                        
    1UVERSION           Version 2.16                             
    1UCOMPILETIME       Tue  7 Jan 19:57:43 CET 2020                    
    1UDIR                                                               
    1UDBN                                                               
    1UMAT    1WATER                                                     
    2C                             8                                     1
 -1         1 0.00000E+00 0.00000E+00 0.00000E+00
 -1         2 1.00000E+00 1.00000E+00 0.00000E+00
 -1         3 1.00000E+00-1.00000E+00 0.00000E+00
 -1         4-5.00000E-01 0.00000E+00 0.00000E+00
 -1         5 5.00000E-01 5.00000E-01 0.00000E+00
 -1         6 5.00000E-01-5.00000E-01 0.00000E+00
 -1         7 1.50000E+00 1.00000E+00 0.00000E+00
 -1         8 1.50000E+00-1.00000E+00 0.00000E+00
 -3
    3C                             5                                     1
 -1         1   11    0    1
 -2         4         1
 -1         2   12    0    1
 -2         1         2         5
 -1         3   12    0    1
 -2         1         3         6
 -1         4   11    0    1
 -2         2         7
 -1         5   11    0    1
 -2         3         8
 -3
 9999
