# vtk DataFile Version 3.0

ASCII
DATASET UNSTRUCTURED_GRID

POINTS 18 double
	-7.45058000E-09	-7.45058000E-09	-5.00000000E-03
	-7.45058000E-09	-7.45058000E-09	 5.00000000E-03
	 5.00000000E-01	-7.45058000E-09	-5.00000000E-03
	 5.00000000E-01	-7.45058000E-09	 5.00000000E-03
	 5.00000000E-01	 5.00000000E-01	-5.00000000E-03
	 5.00000000E-01	 5.00000000E-01	 5.00000000E-03
	-7.45058000E-09	 5.00000000E-01	-5.00000000E-03
	-7.45058000E-09	 5.00000000E-01	 5.00000000E-03
	 5.00000000E-01	 1.00000000E+00	-5.00000000E-03
	 5.00000000E-01	 1.00000000E+00	 5.00000000E-03
	-7.45058000E-09	 1.00000000E+00	-5.00000000E-03
	-7.45058000E-09	 1.00000000E+00	 5.00000000E-03
	 1.00000000E+00	-7.45058000E-09	-5.00000000E-03
	 1.00000000E+00	-7.45058000E-09	 5.00000000E-03
	 1.00000000E+00	 5.00000000E-01	-5.00000000E-03
	 1.00000000E+00	 5.00000000E-01	 5.00000000E-03
	 1.00000000E+00	 1.00000000E+00	-5.00000000E-03
	 1.00000000E+00	 1.00000000E+00	 5.00000000E-03

CELLS 4 36
	8 0 2 4 6 1 3 5 7 
	8 6 4 8 10 7 5 9 11 
	8 2 12 14 4 3 13 15 5 
	8 4 14 16 8 5 15 17 9 

CELL_TYPES 4
	12
	12
	12
	12

POINT_DATA 18
FIELD NORM 1
	NORM 3 18 double
		 0.00000000E+00	-1.00000000E+00	 0.00000000E+00
		 0.00000000E+00	-7.07107000E-01	 7.07107000E-01
		 0.00000000E+00	-1.00000000E+00	 0.00000000E+00
		 0.00000000E+00	-7.07107000E-01	 7.07107000E-01
		 0.00000000E+00	 0.00000000E+00	-1.00000000E+00
		 0.00000000E+00	 0.00000000E+00	 1.00000000E+00
		 0.00000000E+00	 0.00000000E+00	 0.00000000E+00
		 0.00000000E+00	 0.00000000E+00	 1.00000000E+00
		 0.00000000E+00	 1.00000000E+00	 0.00000000E+00
		 0.00000000E+00	 7.07107000E-01	 7.07107000E-01
		 0.00000000E+00	 1.00000000E+00	 0.00000000E+00
		 0.00000000E+00	 7.07107000E-01	 7.07107000E-01
		 7.07107000E-01	-7.07107000E-01	 0.00000000E+00
		 5.77350000E-01	-5.77350000E-01	 5.77350000E-01
		 1.00000000E+00	 0.00000000E+00	 0.00000000E+00
		 7.07107000E-01	 0.00000000E+00	 7.07107000E-01
		 7.07107000E-01	 7.07107000E-01	 0.00000000E+00
		 5.77350000E-01	 5.77350000E-01	 5.77350000E-01
