<?xml version="1.0"?>
<VTKFile type="UnstructuredGrid" version="0.1" byte_order="LittleEndian">
	<UnstructuredGrid>
		<Piece NumberOfPoints="51" NumberOfCells="4">
			<Points>
				<DataArray type="Float64" NumberOfComponents="3" format="ascii">
					-7.45058000E-09	-7.45058000E-09	-5.00000000E-01
					-7.45058000E-09	-7.45058000E-09	 0.00000000E+00
					-7.45058000E-09	-7.45058000E-09	 5.00000000E-01
					 5.00000000E-01	-7.45058000E-09	-5.00000000E-01
					 5.00000000E-01	-7.45058000E-09	 0.00000000E+00
					 5.00000000E-01	-7.45058000E-09	 5.00000000E-01
					 5.00000000E-01	 5.00000000E-01	-5.00000000E-01
					 5.00000000E-01	 5.00000000E-01	 0.00000000E+00
					 5.00000000E-01	 5.00000000E-01	 5.00000000E-01
					-7.45058000E-09	 5.00000000E-01	-5.00000000E-01
					-7.45058000E-09	 5.00000000E-01	 0.00000000E+00
					-7.45058000E-09	 5.00000000E-01	 5.00000000E-01
					 2.50000000E-01	-7.45058000E-09	-5.00000000E-01
					 2.50000000E-01	-7.45058000E-09	 5.00000000E-01
					 5.00000000E-01	 2.50000000E-01	-5.00000000E-01
					 5.00000000E-01	 2.50000000E-01	 5.00000000E-01
					 2.50000000E-01	 5.00000000E-01	-5.00000000E-01
					 2.50000000E-01	 5.00000000E-01	 5.00000000E-01
					-7.45058000E-09	 2.50000000E-01	-5.00000000E-01
					-7.45058000E-09	 2.50000000E-01	 5.00000000E-01
					 5.00000000E-01	 1.00000000E+00	-5.00000000E-01
					 5.00000000E-01	 1.00000000E+00	 0.00000000E+00
					 5.00000000E-01	 1.00000000E+00	 5.00000000E-01
					-7.45058000E-09	 1.00000000E+00	-5.00000000E-01
					-7.45058000E-09	 1.00000000E+00	 0.00000000E+00
					-7.45058000E-09	 1.00000000E+00	 5.00000000E-01
					 5.00000000E-01	 7.50000000E-01	-5.00000000E-01
					 5.00000000E-01	 7.50000000E-01	 5.00000000E-01
					 2.50000000E-01	 1.00000000E+00	-5.00000000E-01
					 2.50000000E-01	 1.00000000E+00	 5.00000000E-01
					-7.45058000E-09	 7.50000000E-01	-5.00000000E-01
					-7.45058000E-09	 7.50000000E-01	 5.00000000E-01
					 1.00000000E+00	-7.45058000E-09	-5.00000000E-01
					 1.00000000E+00	-7.45058000E-09	 0.00000000E+00
					 1.00000000E+00	-7.45058000E-09	 5.00000000E-01
					 1.00000000E+00	 5.00000000E-01	-5.00000000E-01
					 1.00000000E+00	 5.00000000E-01	 0.00000000E+00
					 1.00000000E+00	 5.00000000E-01	 5.00000000E-01
					 7.50000000E-01	-7.45058000E-09	-5.00000000E-01
					 7.50000000E-01	-7.45058000E-09	 5.00000000E-01
					 1.00000000E+00	 2.50000000E-01	-5.00000000E-01
					 1.00000000E+00	 2.50000000E-01	 5.00000000E-01
					 7.50000000E-01	 5.00000000E-01	-5.00000000E-01
					 7.50000000E-01	 5.00000000E-01	 5.00000000E-01
					 1.00000000E+00	 1.00000000E+00	-5.00000000E-01
					 1.00000000E+00	 1.00000000E+00	 0.00000000E+00
					 1.00000000E+00	 1.00000000E+00	 5.00000000E-01
					 1.00000000E+00	 7.50000000E-01	-5.00000000E-01
					 1.00000000E+00	 7.50000000E-01	 5.00000000E-01
					 7.50000000E-01	 1.00000000E+00	-5.00000000E-01
					 7.50000000E-01	 1.00000000E+00	 5.00000000E-01

				</DataArray>
			</Points>
			<Cells>
				<DataArray type="Int32" Name="connectivity" format="ascii">
					0 3 6 9 2 5 8 11 12 14 16 18 13 15 17 19 1 4 7 10 9 6 20 23 11 8 22 25 16 26 28 30 17 27 29 31 10 7 21 24 3 32 35 6 5 34 37 8 38 40 42 14 39 41 43 15 4 33 36 7 6 35 44 20 8 37 46 22 42 47 49 26 43 48 50 27 7 36 45 21 
				</DataArray>
				<DataArray type="Int32" Name="offsets" format="ascii">
					20 40 60 80 
				</DataArray>
				<DataArray type="UInt8" Name="types" format="ascii">
					25 25 25 25 
				</DataArray>
			</Cells>
			<PointData>
				<DataArray type="Float32" Name="U" NumberOfComponents="3" ComponentName0="D1" ComponentName1="D2" ComponentName2="D3" format="ascii">
					 0.00000000E+00	 7.14286000E-05	 7.14286000E-05
					 0.00000000E+00	 7.14286000E-05	 0.00000000E+00
					 0.00000000E+00	 7.14286000E-05	-7.14286000E-05
					 2.38095000E-04	 7.14286000E-05	 7.14286000E-05
					 2.38095000E-04	 7.14286000E-05	 0.00000000E+00
					 2.38095000E-04	 7.14286000E-05	-7.14286000E-05
					 2.38095000E-04	 0.00000000E+00	 7.14286000E-05
					 2.38095000E-04	 0.00000000E+00	 0.00000000E+00
					 2.38095000E-04	 0.00000000E+00	-7.14286000E-05
					 0.00000000E+00	 0.00000000E+00	 7.14286000E-05
					 0.00000000E+00	 0.00000000E+00	 0.00000000E+00
					 0.00000000E+00	 0.00000000E+00	-7.14286000E-05
					 1.19048000E-04	 7.14286000E-05	 7.14286000E-05
					 1.19048000E-04	 7.14286000E-05	-7.14286000E-05
					 2.38095000E-04	 3.57143000E-05	 7.14286000E-05
					 2.38095000E-04	 3.57143000E-05	-7.14286000E-05
					 1.19048000E-04	 0.00000000E+00	 7.14286000E-05
					 1.19048000E-04	 0.00000000E+00	-7.14286000E-05
					 0.00000000E+00	 3.57143000E-05	 7.14286000E-05
					 0.00000000E+00	 3.57143000E-05	-7.14286000E-05
					 2.38095000E-04	-7.14286000E-05	 7.14286000E-05
					 2.38095000E-04	-7.14286000E-05	 0.00000000E+00
					 2.38095000E-04	-7.14286000E-05	-7.14286000E-05
					 0.00000000E+00	-7.14286000E-05	 7.14286000E-05
					 0.00000000E+00	-7.14286000E-05	 0.00000000E+00
					 0.00000000E+00	-7.14286000E-05	-7.14286000E-05
					 2.38095000E-04	-3.57143000E-05	 7.14286000E-05
					 2.38095000E-04	-3.57143000E-05	-7.14286000E-05
					 1.19048000E-04	-7.14286000E-05	 7.14286000E-05
					 1.19048000E-04	-7.14286000E-05	-7.14286000E-05
					 0.00000000E+00	-3.57143000E-05	 7.14286000E-05
					 0.00000000E+00	-3.57143000E-05	-7.14286000E-05
					 4.76190000E-04	 7.14286000E-05	 7.14286000E-05
					 4.76190000E-04	 7.14286000E-05	 0.00000000E+00
					 4.76190000E-04	 7.14286000E-05	-7.14286000E-05
					 4.76190000E-04	 0.00000000E+00	 7.14286000E-05
					 4.76190000E-04	 0.00000000E+00	 0.00000000E+00
					 4.76190000E-04	 0.00000000E+00	-7.14286000E-05
					 3.57143000E-04	 7.14286000E-05	 7.14286000E-05
					 3.57143000E-04	 7.14286000E-05	-7.14286000E-05
					 4.76190000E-04	 3.57143000E-05	 7.14286000E-05
					 4.76190000E-04	 3.57143000E-05	-7.14286000E-05
					 3.57143000E-04	 0.00000000E+00	 7.14286000E-05
					 3.57143000E-04	 0.00000000E+00	-7.14286000E-05
					 4.76190000E-04	-7.14286000E-05	 7.14286000E-05
					 4.76190000E-04	-7.14286000E-05	 0.00000000E+00
					 4.76190000E-04	-7.14286000E-05	-7.14286000E-05
					 4.76190000E-04	-3.57143000E-05	 7.14286000E-05
					 4.76190000E-04	-3.57143000E-05	-7.14286000E-05
					 3.57143000E-04	-7.14286000E-05	 7.14286000E-05
					 3.57143000E-04	-7.14286000E-05	-7.14286000E-05
				</DataArray>
				<DataArray type="Float32" Name="S" NumberOfComponents="10" ComponentName0="xx" ComponentName1="yy" ComponentName2="zz" ComponentName3="xy" ComponentName4="yz" ComponentName5="zx" ComponentName6="Mises" ComponentName7="Min Principal" ComponentName8="Mid Principal" ComponentName9="Max Principal" format="ascii">
					 9.99960000E+01	 0.00000000E+00	 0.00000000E+00	 0.00000000E+00	 0.00000000E+00	 0.00000000E+00	 9.99960000E+01	 0.00000000E+00	 0.00000000E+00	 9.99960000E+01
					 1.00005000E+02	 0.00000000E+00	 0.00000000E+00	 0.00000000E+00	 0.00000000E+00	 0.00000000E+00	 1.00005000E+02	 0.00000000E+00	 0.00000000E+00	 1.00005000E+02
					 9.99960000E+01	 0.00000000E+00	 0.00000000E+00	 0.00000000E+00	 0.00000000E+00	 0.00000000E+00	 9.99960000E+01	 0.00000000E+00	 0.00000000E+00	 9.99960000E+01
					 9.99960000E+01	 0.00000000E+00	 0.00000000E+00	 0.00000000E+00	 0.00000000E+00	 0.00000000E+00	 9.99960000E+01	 0.00000000E+00	 0.00000000E+00	 9.99960000E+01
					 1.00005000E+02	 0.00000000E+00	 0.00000000E+00	 0.00000000E+00	 0.00000000E+00	 0.00000000E+00	 1.00005000E+02	 0.00000000E+00	 0.00000000E+00	 1.00005000E+02
					 9.99960000E+01	 0.00000000E+00	 0.00000000E+00	 0.00000000E+00	 0.00000000E+00	 0.00000000E+00	 9.99960000E+01	 0.00000000E+00	 0.00000000E+00	 9.99960000E+01
					 9.99960000E+01	 0.00000000E+00	 0.00000000E+00	 0.00000000E+00	 0.00000000E+00	 0.00000000E+00	 9.99960000E+01	 0.00000000E+00	 0.00000000E+00	 9.99960000E+01
					 1.00005000E+02	 0.00000000E+00	 0.00000000E+00	 0.00000000E+00	 0.00000000E+00	 0.00000000E+00	 1.00005000E+02	 0.00000000E+00	 0.00000000E+00	 1.00005000E+02
					 9.99960000E+01	 0.00000000E+00	 0.00000000E+00	 0.00000000E+00	 0.00000000E+00	 0.00000000E+00	 9.99960000E+01	 0.00000000E+00	 0.00000000E+00	 9.99960000E+01
					 9.99960000E+01	 0.00000000E+00	 0.00000000E+00	 0.00000000E+00	 0.00000000E+00	 0.00000000E+00	 9.99960000E+01	 0.00000000E+00	 0.00000000E+00	 9.99960000E+01
					 1.00005000E+02	 0.00000000E+00	 0.00000000E+00	 0.00000000E+00	 0.00000000E+00	 0.00000000E+00	 1.00005000E+02	 0.00000000E+00	 0.00000000E+00	 1.00005000E+02
					 9.99960000E+01	 0.00000000E+00	 0.00000000E+00	 0.00000000E+00	 0.00000000E+00	 0.00000000E+00	 9.99960000E+01	 0.00000000E+00	 0.00000000E+00	 9.99960000E+01
					 1.00005000E+02	 0.00000000E+00	 0.00000000E+00	 0.00000000E+00	 0.00000000E+00	 0.00000000E+00	 1.00005000E+02	 0.00000000E+00	 0.00000000E+00	 1.00005000E+02
					 1.00005000E+02	 0.00000000E+00	 0.00000000E+00	 0.00000000E+00	 0.00000000E+00	 0.00000000E+00	 1.00005000E+02	 0.00000000E+00	 0.00000000E+00	 1.00005000E+02
					 1.00005000E+02	 0.00000000E+00	 0.00000000E+00	 0.00000000E+00	 0.00000000E+00	 0.00000000E+00	 1.00005000E+02	 0.00000000E+00	 0.00000000E+00	 1.00005000E+02
					 1.00005000E+02	 0.00000000E+00	 0.00000000E+00	 0.00000000E+00	 0.00000000E+00	 0.00000000E+00	 1.00005000E+02	 0.00000000E+00	 0.00000000E+00	 1.00005000E+02
					 1.00005000E+02	 0.00000000E+00	 0.00000000E+00	 0.00000000E+00	 0.00000000E+00	 0.00000000E+00	 1.00005000E+02	 0.00000000E+00	 0.00000000E+00	 1.00005000E+02
					 1.00005000E+02	 0.00000000E+00	 0.00000000E+00	 0.00000000E+00	 0.00000000E+00	 0.00000000E+00	 1.00005000E+02	 0.00000000E+00	 0.00000000E+00	 1.00005000E+02
					 1.00005000E+02	 0.00000000E+00	 0.00000000E+00	 0.00000000E+00	 0.00000000E+00	 0.00000000E+00	 1.00005000E+02	 0.00000000E+00	 0.00000000E+00	 1.00005000E+02
					 1.00005000E+02	 0.00000000E+00	 0.00000000E+00	 0.00000000E+00	 0.00000000E+00	 0.00000000E+00	 1.00005000E+02	 0.00000000E+00	 0.00000000E+00	 1.00005000E+02
					 9.99960000E+01	 0.00000000E+00	 0.00000000E+00	 0.00000000E+00	 0.00000000E+00	 0.00000000E+00	 9.99960000E+01	 0.00000000E+00	 0.00000000E+00	 9.99960000E+01
					 1.00005000E+02	 0.00000000E+00	 0.00000000E+00	 0.00000000E+00	 0.00000000E+00	 0.00000000E+00	 1.00005000E+02	 0.00000000E+00	 0.00000000E+00	 1.00005000E+02
					 9.99960000E+01	 0.00000000E+00	 0.00000000E+00	 0.00000000E+00	 0.00000000E+00	 0.00000000E+00	 9.99960000E+01	 0.00000000E+00	 0.00000000E+00	 9.99960000E+01
					 9.99960000E+01	 0.00000000E+00	 0.00000000E+00	 0.00000000E+00	 0.00000000E+00	 0.00000000E+00	 9.99960000E+01	 0.00000000E+00	 0.00000000E+00	 9.99960000E+01
					 1.00005000E+02	 0.00000000E+00	 0.00000000E+00	 0.00000000E+00	 0.00000000E+00	 0.00000000E+00	 1.00005000E+02	 0.00000000E+00	 0.00000000E+00	 1.00005000E+02
					 9.99960000E+01	 0.00000000E+00	 0.00000000E+00	 0.00000000E+00	 0.00000000E+00	 0.00000000E+00	 9.99960000E+01	 0.00000000E+00	 0.00000000E+00	 9.99960000E+01
					 1.00005000E+02	 0.00000000E+00	 0.00000000E+00	 0.00000000E+00	 0.00000000E+00	 0.00000000E+00	 1.00005000E+02	 0.00000000E+00	 0.00000000E+00	 1.00005000E+02
					 1.00005000E+02	 0.00000000E+00	 0.00000000E+00	 0.00000000E+00	 0.00000000E+00	 0.00000000E+00	 1.00005000E+02	 0.00000000E+00	 0.00000000E+00	 1.00005000E+02
					 1.00005000E+02	 0.00000000E+00	 0.00000000E+00	 0.00000000E+00	 0.00000000E+00	 0.00000000E+00	 1.00005000E+02	 0.00000000E+00	 0.00000000E+00	 1.00005000E+02
					 1.00005000E+02	 0.00000000E+00	 0.00000000E+00	 0.00000000E+00	 0.00000000E+00	 0.00000000E+00	 1.00005000E+02	 0.00000000E+00	 0.00000000E+00	 1.00005000E+02
					 1.00005000E+02	 0.00000000E+00	 0.00000000E+00	 0.00000000E+00	 0.00000000E+00	 0.00000000E+00	 1.00005000E+02	 0.00000000E+00	 0.00000000E+00	 1.00005000E+02
					 1.00005000E+02	 0.00000000E+00	 0.00000000E+00	 0.00000000E+00	 0.00000000E+00	 0.00000000E+00	 1.00005000E+02	 0.00000000E+00	 0.00000000E+00	 1.00005000E+02
					 9.99960000E+01	 0.00000000E+00	 0.00000000E+00	 0.00000000E+00	 0.00000000E+00	 0.00000000E+00	 9.99960000E+01	 0.00000000E+00	 0.00000000E+00	 9.99960000E+01
					 1.00005000E+02	 0.00000000E+00	 0.00000000E+00	 0.00000000E+00	 0.00000000E+00	 0.00000000E+00	 1.00005000E+02	 0.00000000E+00	 0.00000000E+00	 1.00005000E+02
					 9.99960000E+01	 0.00000000E+00	 0.00000000E+00	 0.00000000E+00	 0.00000000E+00	 0.00000000E+00	 9.99960000E+01	 0.00000000E+00	 0.00000000E+00	 9.99960000E+01
					 9.99960000E+01	 0.00000000E+00	 0.00000000E+00	 0.00000000E+00	 0.00000000E+00	 0.00000000E+00	 9.99960000E+01	 0.00000000E+00	 0.00000000E+00	 9.99960000E+01
					 1.00005000E+02	 0.00000000E+00	 0.00000000E+00	 0.00000000E+00	 0.00000000E+00	 0.00000000E+00	 1.00005000E+02	 0.00000000E+00	 0.00000000E+00	 1.00005000E+02
					 9.99960000E+01	 0.00000000E+00	 0.00000000E+00	 0.00000000E+00	 0.00000000E+00	 0.00000000E+00	 9.99960000E+01	 0.00000000E+00	 0.00000000E+00	 9.99960000E+01
					 1.00005000E+02	 0.00000000E+00	 0.00000000E+00	 0.00000000E+00	 0.00000000E+00	 0.00000000E+00	 1.00005000E+02	 0.00000000E+00	 0.00000000E+00	 1.00005000E+02
					 1.00005000E+02	 0.00000000E+00	 0.00000000E+00	 0.00000000E+00	 0.00000000E+00	 0.00000000E+00	 1.00005000E+02	 0.00000000E+00	 0.00000000E+00	 1.00005000E+02
					 1.00005000E+02	 0.00000000E+00	 0.00000000E+00	 0.00000000E+00	 0.00000000E+00	 0.00000000E+00	 1.00005000E+02	 0.00000000E+00	 0.00000000E+00	 1.00005000E+02
					 1.00005000E+02	 0.00000000E+00	 0.00000000E+00	 0.00000000E+00	 0.00000000E+00	 0.00000000E+00	 1.00005000E+02	 0.00000000E+00	 0.00000000E+00	 1.00005000E+02
					 1.00005000E+02	 0.00000000E+00	 0.00000000E+00	 0.00000000E+00	 0.00000000E+00	 0.00000000E+00	 1.00005000E+02	 0.00000000E+00	 0.00000000E+00	 1.00005000E+02
					 1.00005000E+02	 0.00000000E+00	 0.00000000E+00	 0.00000000E+00	 0.00000000E+00	 0.00000000E+00	 1.00005000E+02	 0.00000000E+00	 0.00000000E+00	 1.00005000E+02
					 9.99960000E+01	 0.00000000E+00	 0.00000000E+00	 0.00000000E+00	 0.00000000E+00	 0.00000000E+00	 9.99960000E+01	 0.00000000E+00	 0.00000000E+00	 9.99960000E+01
					 1.00005000E+02	 0.00000000E+00	 0.00000000E+00	 0.00000000E+00	 0.00000000E+00	 0.00000000E+00	 1.00005000E+02	 0.00000000E+00	 0.00000000E+00	 1.00005000E+02
					 9.99960000E+01	 0.00000000E+00	 0.00000000E+00	 0.00000000E+00	 0.00000000E+00	 0.00000000E+00	 9.99960000E+01	 0.00000000E+00	 0.00000000E+00	 9.99960000E+01
					 1.00005000E+02	 0.00000000E+00	 0.00000000E+00	 0.00000000E+00	 0.00000000E+00	 0.00000000E+00	 1.00005000E+02	 0.00000000E+00	 0.00000000E+00	 1.00005000E+02
					 1.00005000E+02	 0.00000000E+00	 0.00000000E+00	 0.00000000E+00	 0.00000000E+00	 0.00000000E+00	 1.00005000E+02	 0.00000000E+00	 0.00000000E+00	 1.00005000E+02
					 1.00005000E+02	 0.00000000E+00	 0.00000000E+00	 0.00000000E+00	 0.00000000E+00	 0.00000000E+00	 1.00005000E+02	 0.00000000E+00	 0.00000000E+00	 1.00005000E+02
					 1.00005000E+02	 0.00000000E+00	 0.00000000E+00	 0.00000000E+00	 0.00000000E+00	 0.00000000E+00	 1.00005000E+02	 0.00000000E+00	 0.00000000E+00	 1.00005000E+02
				</DataArray>
				<DataArray type="Float32" Name="ERROR" NumberOfComponents="1" ComponentName0="STR" format="ascii">
					 0.00000000E+00
					 0.00000000E+00
					 0.00000000E+00
					 0.00000000E+00
					 0.00000000E+00
					 0.00000000E+00
					 0.00000000E+00
					 0.00000000E+00
					 0.00000000E+00
					 0.00000000E+00
					 0.00000000E+00
					 0.00000000E+00
					 0.00000000E+00
					 0.00000000E+00
					 0.00000000E+00
					 0.00000000E+00
					 0.00000000E+00
					 0.00000000E+00
					 0.00000000E+00
					 0.00000000E+00
					 0.00000000E+00
					 0.00000000E+00
					 0.00000000E+00
					 0.00000000E+00
					 0.00000000E+00
					 0.00000000E+00
					 0.00000000E+00
					 0.00000000E+00
					 0.00000000E+00
					 0.00000000E+00
					 0.00000000E+00
					 0.00000000E+00
					 0.00000000E+00
					 0.00000000E+00
					 0.00000000E+00
					 0.00000000E+00
					 0.00000000E+00
					 0.00000000E+00
					 0.00000000E+00
					 0.00000000E+00
					 0.00000000E+00
					 0.00000000E+00
					 0.00000000E+00
					 0.00000000E+00
					 0.00000000E+00
					 0.00000000E+00
					 0.00000000E+00
					 0.00000000E+00
					 0.00000000E+00
					 0.00000000E+00
					 0.00000000E+00
				</DataArray>
			</PointData>
		</Piece>
	</UnstructuredGrid>
</VTKFile>