<?xml version="1.0"?>
<VTKFile type="UnstructuredGrid" version="0.1" byte_order="LittleEndian">
	<UnstructuredGrid>
		<Piece NumberOfPoints="51" NumberOfCells="4">
			<Points>
				<DataArray type="Float64" NumberOfComponents="3" format="ascii">
					-7.45058000E-09	-7.45058000E-09	-5.00000000E-03
					-7.45058000E-09	-7.45058000E-09	 0.00000000E+00
					-7.45058000E-09	-7.45058000E-09	 5.00000000E-03
					 5.00000000E-01	-7.45058000E-09	-1.50000000E-02
					 5.00000000E-01	-7.45058000E-09	 0.00000000E+00
					 5.00000000E-01	-7.45058000E-09	 1.50000000E-02
					 5.00000000E-01	 5.00000000E-01	-1.50000000E-02
					 5.00000000E-01	 5.00000000E-01	 0.00000000E+00
					 5.00000000E-01	 5.00000000E-01	 1.50000000E-02
					-7.45058000E-09	 5.00000000E-01	-5.00000000E-03
					-7.45058000E-09	 5.00000000E-01	 0.00000000E+00
					-7.45058000E-09	 5.00000000E-01	 5.00000000E-03
					 2.50000000E-01	-7.45058000E-09	-1.00000000E-02
					 2.50000000E-01	-7.45058000E-09	 1.00000000E-02
					 5.00000000E-01	 2.50000000E-01	-1.50000000E-02
					 5.00000000E-01	 2.50000000E-01	 1.50000000E-02
					 2.50000000E-01	 5.00000000E-01	-1.00000000E-02
					 2.50000000E-01	 5.00000000E-01	 1.00000000E-02
					-7.45058000E-09	 2.50000000E-01	-5.00000000E-03
					-7.45058000E-09	 2.50000000E-01	 5.00000000E-03
					 5.00000000E-01	 1.00000000E+00	-1.50000000E-02
					 5.00000000E-01	 1.00000000E+00	 0.00000000E+00
					 5.00000000E-01	 1.00000000E+00	 1.50000000E-02
					-7.45058000E-09	 1.00000000E+00	-5.00000000E-03
					-7.45058000E-09	 1.00000000E+00	 0.00000000E+00
					-7.45058000E-09	 1.00000000E+00	 5.00000000E-03
					 5.00000000E-01	 7.50000000E-01	-1.50000000E-02
					 5.00000000E-01	 7.50000000E-01	 1.50000000E-02
					 2.50000000E-01	 1.00000000E+00	-1.00000000E-02
					 2.50000000E-01	 1.00000000E+00	 1.00000000E-02
					-7.45058000E-09	 7.50000000E-01	-5.00000000E-03
					-7.45058000E-09	 7.50000000E-01	 5.00000000E-03
					 1.00000000E+00	-7.45058000E-09	-1.00000000E-02
					 1.00000000E+00	-7.45058000E-09	 0.00000000E+00
					 1.00000000E+00	-7.45058000E-09	 1.00000000E-02
					 1.00000000E+00	 5.00000000E-01	-1.00000000E-02
					 1.00000000E+00	 5.00000000E-01	 0.00000000E+00
					 1.00000000E+00	 5.00000000E-01	 1.00000000E-02
					 7.50000000E-01	-7.45058000E-09	-1.25000000E-02
					 7.50000000E-01	-7.45058000E-09	 1.25000000E-02
					 1.00000000E+00	 2.50000000E-01	-1.00000000E-02
					 1.00000000E+00	 2.50000000E-01	 1.00000000E-02
					 7.50000000E-01	 5.00000000E-01	-1.25000000E-02
					 7.50000000E-01	 5.00000000E-01	 1.25000000E-02
					 1.00000000E+00	 1.00000000E+00	-1.00000000E-02
					 1.00000000E+00	 1.00000000E+00	 0.00000000E+00
					 1.00000000E+00	 1.00000000E+00	 1.00000000E-02
					 1.00000000E+00	 7.50000000E-01	-1.00000000E-02
					 1.00000000E+00	 7.50000000E-01	 1.00000000E-02
					 7.50000000E-01	 1.00000000E+00	-1.25000000E-02
					 7.50000000E-01	 1.00000000E+00	 1.25000000E-02

				</DataArray>
			</Points>
			<Cells>
				<DataArray type="Int32" Name="connectivity" format="ascii">
					0 3 6 9 2 5 8 11 12 14 16 18 13 15 17 19 1 4 7 10 9 6 20 23 11 8 22 25 16 26 28 30 17 27 29 31 10 7 21 24 3 32 35 6 5 34 37 8 38 40 42 14 39 41 43 15 4 33 36 7 6 35 44 20 8 37 46 22 42 47 49 26 43 48 50 27 7 36 45 21 
				</DataArray>
				<DataArray type="Int32" Name="offsets" format="ascii">
					20 40 60 80 
				</DataArray>
				<DataArray type="UInt8" Name="types" format="ascii">
					25 25 25 25 
				</DataArray>
			</Cells>
			<PointData>
				<DataArray type="Float32" Name="U" NumberOfComponents="3" ComponentName0="D1" ComponentName1="D2" ComponentName2="D3" format="ascii">
					 0.00000000E+00	 0.00000000E+00	 0.00000000E+00
					 0.00000000E+00	 0.00000000E+00	 0.00000000E+00
					 0.00000000E+00	 0.00000000E+00	 0.00000000E+00
					 0.00000000E+00	 0.00000000E+00	 0.00000000E+00
					 0.00000000E+00	 0.00000000E+00	 0.00000000E+00
					 0.00000000E+00	 0.00000000E+00	 0.00000000E+00
					 0.00000000E+00	 0.00000000E+00	 0.00000000E+00
					 0.00000000E+00	 0.00000000E+00	 0.00000000E+00
					 0.00000000E+00	 0.00000000E+00	 0.00000000E+00
					 0.00000000E+00	 0.00000000E+00	 0.00000000E+00
					 0.00000000E+00	 0.00000000E+00	 0.00000000E+00
					 0.00000000E+00	 0.00000000E+00	 0.00000000E+00
					 0.00000000E+00	 0.00000000E+00	 0.00000000E+00
					 0.00000000E+00	 0.00000000E+00	 0.00000000E+00
					 0.00000000E+00	 0.00000000E+00	 0.00000000E+00
					 0.00000000E+00	 0.00000000E+00	 0.00000000E+00
					 0.00000000E+00	 0.00000000E+00	 0.00000000E+00
					 0.00000000E+00	 0.00000000E+00	 0.00000000E+00
					 0.00000000E+00	 0.00000000E+00	 0.00000000E+00
					 0.00000000E+00	 0.00000000E+00	 0.00000000E+00
					 0.00000000E+00	 0.00000000E+00	 0.00000000E+00
					 0.00000000E+00	 0.00000000E+00	 0.00000000E+00
					 0.00000000E+00	 0.00000000E+00	 0.00000000E+00
					 0.00000000E+00	 0.00000000E+00	 0.00000000E+00
					 0.00000000E+00	 0.00000000E+00	 0.00000000E+00
					 0.00000000E+00	 0.00000000E+00	 0.00000000E+00
					 0.00000000E+00	 0.00000000E+00	 0.00000000E+00
					 0.00000000E+00	 0.00000000E+00	 0.00000000E+00
					 0.00000000E+00	 0.00000000E+00	 0.00000000E+00
					 0.00000000E+00	 0.00000000E+00	 0.00000000E+00
					 0.00000000E+00	 0.00000000E+00	 0.00000000E+00
					 0.00000000E+00	 0.00000000E+00	 0.00000000E+00
					-1.83542000E-06	-2.29221000E-05	-1.77569000E-06
					-1.83542000E-06	-2.29221000E-05	 0.00000000E+00
					-1.83542000E-06	-2.29221000E-05	 1.77569000E-06
					 3.06694000E-04	 0.00000000E+00	 2.22933000E-06
					 3.06694000E-04	 0.00000000E+00	 0.00000000E+00
					 3.06694000E-04	 0.00000000E+00	-2.22933000E-06
					 2.99551000E-05	 3.15167000E-05	-4.46637000E-07
					 2.99551000E-05	 3.15167000E-05	 4.46637000E-07
					 6.32623000E-05	-3.14236000E-06	 2.26819000E-07
					 6.32623000E-05	-3.14236000E-06	-2.26819000E-07
					 1.15396000E-04	 0.00000000E+00	 2.71282000E-06
					 1.15396000E-04	 0.00000000E+00	-2.71282000E-06
					-1.83542000E-06	 2.29221000E-05	-1.77569000E-06
					-1.83542000E-06	 2.29221000E-05	 0.00000000E+00
					-1.83542000E-06	 2.29221000E-05	 1.77569000E-06
					 6.32623000E-05	 3.14236000E-06	 2.26819000E-07
					 6.32623000E-05	 3.14236000E-06	-2.26819000E-07
					 2.99551000E-05	-3.15167000E-05	-4.46637000E-07
					 2.99551000E-05	-3.15167000E-05	 4.46637000E-07
				</DataArray>
				<DataArray type="Float32" Name="S" NumberOfComponents="10" ComponentName0="xx" ComponentName1="yy" ComponentName2="zz" ComponentName3="xy" ComponentName4="yz" ComponentName5="zx" ComponentName6="Mises" ComponentName7="Min Principal" ComponentName8="Mid Principal" ComponentName9="Max Principal" format="ascii">
					 0.00000000E+00	 0.00000000E+00	 0.00000000E+00	 0.00000000E+00	 0.00000000E+00	 0.00000000E+00	 0.00000000E+00	 0.00000000E+00	 0.00000000E+00	 0.00000000E+00
					 0.00000000E+00	 0.00000000E+00	 0.00000000E+00	 0.00000000E+00	 0.00000000E+00	 0.00000000E+00	 0.00000000E+00	 0.00000000E+00	 0.00000000E+00	 0.00000000E+00
					 0.00000000E+00	 0.00000000E+00	 0.00000000E+00	 0.00000000E+00	 0.00000000E+00	 0.00000000E+00	 0.00000000E+00	 0.00000000E+00	 0.00000000E+00	 0.00000000E+00
					 1.23772000E+01	-2.29982000E+00	 1.23773000E-02	 8.77527000E+00	 6.22975000E-02	 1.07062000E-02	 2.04414550E+01	-6.40109601E+00	 1.27183605E-02	 1.64781350E+01
					 1.23772000E+01	-2.29982000E+00	 1.23773000E-02	 8.77527000E+00	 0.00000000E+00	 0.00000000E+00	 2.04411618E+01	-6.40067592E+00	 1.23773000E-02	 1.64780559E+01
					 1.23772000E+01	-2.29982000E+00	 1.23773000E-02	 8.77527000E+00	-6.22975000E-02	-1.07062000E-02	 2.04414550E+01	-6.40109601E+00	 1.27183605E-02	 1.64781350E+01
					 2.00537000E+01	 7.57248000E-03	 2.73897000E-02	-4.75773000E-08	 0.00000000E+00	 7.19420000E-01	 2.00749361E+01	 1.57870829E-03	 7.57248000E-03	 2.00795110E+01
					 2.00537000E+01	 7.57248000E-03	 2.73897000E-02	-4.75773000E-08	 0.00000000E+00	 0.00000000E+00	 2.00362263E+01	 7.57248000E-03	 2.73897000E-02	 2.00537000E+01
					 2.00537000E+01	 7.57248000E-03	 2.73897000E-02	-4.75773000E-08	 0.00000000E+00	-7.19420000E-01	 2.00749361E+01	 1.57870829E-03	 7.57248000E-03	 2.00795110E+01
					 0.00000000E+00	 0.00000000E+00	 0.00000000E+00	 0.00000000E+00	 0.00000000E+00	 0.00000000E+00	 0.00000000E+00	 0.00000000E+00	 0.00000000E+00	 0.00000000E+00
					 0.00000000E+00	 0.00000000E+00	 0.00000000E+00	 0.00000000E+00	 0.00000000E+00	 0.00000000E+00	 0.00000000E+00	 0.00000000E+00	 0.00000000E+00	 0.00000000E+00
					 0.00000000E+00	 0.00000000E+00	 0.00000000E+00	 0.00000000E+00	 0.00000000E+00	 0.00000000E+00	 0.00000000E+00	 0.00000000E+00	 0.00000000E+00	 0.00000000E+00
					 0.00000000E+00	 0.00000000E+00	 0.00000000E+00	 0.00000000E+00	 0.00000000E+00	 0.00000000E+00	 0.00000000E+00	 0.00000000E+00	 0.00000000E+00	 0.00000000E+00
					 0.00000000E+00	 0.00000000E+00	 0.00000000E+00	 0.00000000E+00	 0.00000000E+00	 0.00000000E+00	 0.00000000E+00	 0.00000000E+00	 0.00000000E+00	 0.00000000E+00
					 1.62154000E+01	-1.14612000E+00	 1.98835000E-02	 2.75860000E+00	 6.22975000E-02	 3.65063000E-01	 1.74865498E+01	-1.57391811E+00	 1.16588082E-02	 1.66514228E+01
					 1.62154000E+01	-1.14612000E+00	 1.98835000E-02	 2.75860000E+00	-6.22975000E-02	-3.65063000E-01	 1.74865498E+01	-1.57391811E+00	 1.16588082E-02	 1.66514228E+01
					 0.00000000E+00	 0.00000000E+00	 0.00000000E+00	 0.00000000E+00	 0.00000000E+00	 0.00000000E+00	 0.00000000E+00	 0.00000000E+00	 0.00000000E+00	 0.00000000E+00
					 0.00000000E+00	 0.00000000E+00	 0.00000000E+00	 0.00000000E+00	 0.00000000E+00	 0.00000000E+00	 0.00000000E+00	 0.00000000E+00	 0.00000000E+00	 0.00000000E+00
					 0.00000000E+00	 0.00000000E+00	 0.00000000E+00	 0.00000000E+00	 0.00000000E+00	 0.00000000E+00	 0.00000000E+00	 0.00000000E+00	 0.00000000E+00	 0.00000000E+00
					 0.00000000E+00	 0.00000000E+00	 0.00000000E+00	 0.00000000E+00	 0.00000000E+00	 0.00000000E+00	 0.00000000E+00	 0.00000000E+00	 0.00000000E+00	 0.00000000E+00
					 1.23772000E+01	-2.29982000E+00	 1.23773000E-02	-8.77527000E+00	-6.22975000E-02	 1.07062000E-02	 2.04414550E+01	-6.40109601E+00	 1.27183605E-02	 1.64781350E+01
					 1.23772000E+01	-2.29982000E+00	 1.23773000E-02	-8.77527000E+00	 0.00000000E+00	 0.00000000E+00	 2.04411618E+01	-6.40067592E+00	 1.23773000E-02	 1.64780559E+01
					 1.23772000E+01	-2.29982000E+00	 1.23773000E-02	-8.77527000E+00	 6.22975000E-02	-1.07062000E-02	 2.04414550E+01	-6.40109601E+00	 1.27183605E-02	 1.64781350E+01
					 0.00000000E+00	 0.00000000E+00	 0.00000000E+00	 0.00000000E+00	 0.00000000E+00	 0.00000000E+00	 0.00000000E+00	 0.00000000E+00	 0.00000000E+00	 0.00000000E+00
					 0.00000000E+00	 0.00000000E+00	 0.00000000E+00	 0.00000000E+00	 0.00000000E+00	 0.00000000E+00	 0.00000000E+00	 0.00000000E+00	 0.00000000E+00	 0.00000000E+00
					 0.00000000E+00	 0.00000000E+00	 0.00000000E+00	 0.00000000E+00	 0.00000000E+00	 0.00000000E+00	 0.00000000E+00	 0.00000000E+00	 0.00000000E+00	 0.00000000E+00
					 1.62154000E+01	-1.14613000E+00	 1.98835000E-02	-2.75860000E+00	-6.22975000E-02	 3.65063000E-01	 1.74865551E+01	-1.57392787E+00	 1.16588082E-02	 1.66514226E+01
					 1.62154000E+01	-1.14613000E+00	 1.98835000E-02	-2.75860000E+00	 6.22975000E-02	-3.65063000E-01	 1.74865551E+01	-1.57392787E+00	 1.16588082E-02	 1.66514226E+01
					 0.00000000E+00	 0.00000000E+00	 0.00000000E+00	 0.00000000E+00	 0.00000000E+00	 0.00000000E+00	 0.00000000E+00	 0.00000000E+00	 0.00000000E+00	 0.00000000E+00
					 0.00000000E+00	 0.00000000E+00	 0.00000000E+00	 0.00000000E+00	 0.00000000E+00	 0.00000000E+00	 0.00000000E+00	 0.00000000E+00	 0.00000000E+00	 0.00000000E+00
					 0.00000000E+00	 0.00000000E+00	 0.00000000E+00	 0.00000000E+00	 0.00000000E+00	 0.00000000E+00	 0.00000000E+00	 0.00000000E+00	 0.00000000E+00	 0.00000000E+00
					 0.00000000E+00	 0.00000000E+00	 0.00000000E+00	 0.00000000E+00	 0.00000000E+00	 0.00000000E+00	 0.00000000E+00	 0.00000000E+00	 0.00000000E+00	 0.00000000E+00
					-8.14914000E+01	-1.28964000E+01	-6.01005000E-02	-4.57651000E+01	 7.71552000E-01	-6.80603000E-01	 1.09713533E+02	-1.04385150E+02	-1.56845802E-01	 1.00940949E+01
					-8.14914000E+01	-1.28964000E+01	-6.01005000E-02	-4.57651000E+01	 0.00000000E+00	 0.00000000E+00	 1.09699060E+02	-1.04384484E+02	-6.01005000E-02	 9.99668388E+00
					-8.14914000E+01	-1.28964000E+01	-6.01005000E-02	-4.57651000E+01	-7.71552000E-01	 6.80603000E-01	 1.09713533E+02	-1.04385150E+02	-1.56845802E-01	 1.00940949E+01
					 1.78785000E+02	 3.72618000E+01	 2.56772000E-02	 1.73376000E-07	 4.68020000E-09	-4.23329000E-01	 1.63357454E+02	 2.46746988E-02	 3.72618000E+01	 1.78786003E+02
					 1.78785000E+02	 3.72618000E+01	 2.56772000E-02	 1.73376000E-07	 0.00000000E+00	 0.00000000E+00	 1.63355809E+02	 2.56772000E-02	 3.72618000E+01	 1.78785000E+02
					 1.78785000E+02	 3.72618000E+01	 2.56772000E-02	 1.73376000E-07	-4.68031000E-09	 4.23329000E-01	 1.63357454E+02	 2.46746988E-02	 3.72618000E+01	 1.78786003E+02
					-2.83685000E+01	-8.74804000E+00	-1.76730000E-02	-1.41073000E+01	 4.48074000E-01	-3.29595000E-01	 3.50777925E+01	-3.57415004E+01	-1.56993083E+00	 1.77218245E-01
					-2.83685000E+01	-8.74804000E+00	-1.76730000E-02	-1.41073000E+01	-4.48074000E-01	 3.29595000E-01	 3.50777925E+01	-3.57415004E+01	-1.56993083E+00	 1.77218245E-01
					 4.86470000E+01	 1.21827000E+01	-1.72117000E-02	 2.75862000E+01	 7.71552000E-01	-5.51966000E-01	 6.48771102E+01	-2.95345630E+00	 2.84118573E-01	 6.34818260E+01
					 4.86470000E+01	 1.21827000E+01	-1.72117000E-02	 2.75862000E+01	-7.71552000E-01	 5.51966000E-01	 6.48771102E+01	-2.95345630E+00	 2.84118573E-01	 6.34818260E+01
					 1.09446000E+02	 1.86385000E+01	 4.02283000E-02	 3.91106000E-08	 2.91518000E-09	 5.07755000E-01	 1.01397898E+02	 3.78718467E-02	 1.86385000E+01	 1.09448356E+02
					 1.09446000E+02	 1.86385000E+01	 4.02283000E-02	 3.91106000E-08	-2.91523000E-09	-5.07755000E-01	 1.01397898E+02	 3.78718467E-02	 1.86385000E+01	 1.09448356E+02
					-8.14914000E+01	-1.28964000E+01	-6.01005000E-02	 4.57651000E+01	-7.71552000E-01	-6.80603000E-01	 1.09713533E+02	-1.04385150E+02	-1.56845802E-01	 1.00940949E+01
					-8.14914000E+01	-1.28964000E+01	-6.01005000E-02	 4.57651000E+01	 0.00000000E+00	 0.00000000E+00	 1.09699060E+02	-1.04384484E+02	-6.01005000E-02	 9.99668388E+00
					-8.14914000E+01	-1.28964000E+01	-6.01005000E-02	 4.57651000E+01	 7.71552000E-01	 6.80603000E-01	 1.09713533E+02	-1.04385150E+02	-1.56845802E-01	 1.00940949E+01
					 4.86470000E+01	 1.21827000E+01	-1.72117000E-02	-2.75862000E+01	-7.71552000E-01	-5.51966000E-01	 6.48771102E+01	-2.95345630E+00	 2.84118573E-01	 6.34818260E+01
					 4.86470000E+01	 1.21827000E+01	-1.72117000E-02	-2.75862000E+01	 7.71552000E-01	 5.51966000E-01	 6.48771102E+01	-2.95345630E+00	 2.84118573E-01	 6.34818260E+01
					-2.83685000E+01	-8.74804000E+00	-1.76730000E-02	 1.41073000E+01	-4.48074000E-01	-3.29595000E-01	 3.50777925E+01	-3.57415004E+01	-1.56993083E+00	 1.77218245E-01
					-2.83685000E+01	-8.74804000E+00	-1.76730000E-02	 1.41073000E+01	 4.48074000E-01	 3.29595000E-01	 3.50777925E+01	-3.57415004E+01	-1.56993083E+00	 1.77218245E-01
				</DataArray>
			</PointData>
		</Piece>
	</UnstructuredGrid>
</VTKFile>