    1C
    1C
    1UUSER
    1UDATE              25.january.2020     
    1UTIME              14:52:06
    1UHOST
    1UPGM               CalculiX
    1UDIR
    1UDBN
    2C                                                                   1
 -1         1 0.00000E+00 0.00000E+00 1.00000E-01
 -1         2 0.00000E+00 1.00000E-01 1.00000E-01
 -1         3 3.00000E-01 1.00000E-01 1.00000E-01
 -1         4 3.00000E-01 0.00000E+00 1.00000E-01
 -1         5 0.00000E+00 0.00000E+00 0.00000E+00
 -1         6 0.00000E+00 1.00000E-01 0.00000E+00
 -1         7 3.00000E-01 1.00000E-01 0.00000E+00
 -1         8 3.00000E-01 0.00000E+00 0.00000E+00
 -1         9 6.00000E-01 1.00000E-01 1.00000E-01
 -1        10 6.00000E-01 0.00000E+00 1.00000E-01
 -1        11 6.00000E-01 1.00000E-01 0.00000E+00
 -1        12 6.00000E-01 0.00000E+00 0.00000E+00
 -1        13 9.00000E-01 1.00000E-01 1.00000E-01
 -1        14 9.00000E-01 0.00000E+00 1.00000E-01
 -1        15 9.00000E-01 1.00000E-01 0.00000E+00
 -1        16 9.00000E-01 0.00000E+00 0.00000E+00
 -1        17 1.20000E+00 1.00000E-01 1.00000E-01
 -1        18 1.20000E+00 0.00000E+00 1.00000E-01
 -1        19 1.20000E+00 1.00000E-01 0.00000E+00
 -1        20 1.20000E+00 0.00000E+00 0.00000E+00
 -1        21 1.50000E+00 1.00000E-01 1.00000E-01
 -1        22 1.50000E+00 0.00000E+00 1.00000E-01
 -1        23 1.50000E+00 1.00000E-01 0.00000E+00
 -1        24 1.50000E+00 0.00000E+00 0.00000E+00
 -1        25 1.80000E+00 1.00000E-01 1.00000E-01
 -1        26 1.80000E+00 0.00000E+00 1.00000E-01
 -1        27 1.80000E+00 1.00000E-01 0.00000E+00
 -1        28 1.80000E+00 0.00000E+00 0.00000E+00
 -1        29 2.10000E+00 1.00000E-01 1.00000E-01
 -1        30 2.10000E+00 0.00000E+00 1.00000E-01
 -1        31 2.10000E+00 1.00000E-01 0.00000E+00
 -1        32 2.10000E+00 0.00000E+00 0.00000E+00
 -1        33 2.40000E+00 1.00000E-01 1.00000E-01
 -1        34 2.40000E+00 0.00000E+00 1.00000E-01
 -1        35 2.40000E+00 1.00000E-01 0.00000E+00
 -1        36 2.40000E+00 0.00000E+00 0.00000E+00
 -1        37 2.70000E+00 1.00000E-01 1.00000E-01
 -1        38 2.70000E+00 0.00000E+00 1.00000E-01
 -1        39 2.70000E+00 1.00000E-01 0.00000E+00
 -1        40 2.70000E+00 0.00000E+00 0.00000E+00
 -1        41 3.00000E+00 1.00000E-01 1.00000E-01
 -1        42 3.00000E+00 0.00000E+00 1.00000E-01
 -1        43 3.00000E+00 1.00000E-01 0.00000E+00
 -1        44 3.00000E+00 0.00000E+00 0.00000E+00
 -1        45 3.30000E+00 1.00000E-01 1.00000E-01
 -1        46 3.30000E+00 0.00000E+00 1.00000E-01
 -1        47 3.30000E+00 1.00000E-01 0.00000E+00
 -1        48 3.30000E+00 0.00000E+00 0.00000E+00
 -1        49 3.60000E+00 1.00000E-01 1.00000E-01
 -1        50 3.60000E+00 0.00000E+00 1.00000E-01
 -1        51 3.60000E+00 1.00000E-01 0.00000E+00
 -1        52 3.60000E+00 0.00000E+00 0.00000E+00
 -1        53 3.90000E+00 1.00000E-01 1.00000E-01
 -1        54 3.90000E+00 0.00000E+00 1.00000E-01
 -1        55 3.90000E+00 1.00000E-01 0.00000E+00
 -1        56 3.90000E+00 0.00000E+00 0.00000E+00
 -1        57 4.20000E+00 1.00000E-01 1.00000E-01
 -1        58 4.20000E+00 0.00000E+00 1.00000E-01
 -1        59 4.20000E+00 1.00000E-01 0.00000E+00
 -1        60 4.20000E+00 0.00000E+00 0.00000E+00
 -1        61 4.50000E+00 1.00000E-01 1.00000E-01
 -1        62 4.50000E+00 0.00000E+00 1.00000E-01
 -1        63 4.50000E+00 1.00000E-01 0.00000E+00
 -1        64 4.50000E+00 0.00000E+00 0.00000E+00
 -1        65 4.80000E+00 1.00000E-01 1.00000E-01
 -1        66 4.80000E+00 0.00000E+00 1.00000E-01
 -1        67 4.80000E+00 1.00000E-01 0.00000E+00
 -1        68 4.80000E+00 0.00000E+00 0.00000E+00
 -1        69 5.10000E+00 1.00000E-01 1.00000E-01
 -1        70 5.10000E+00 0.00000E+00 1.00000E-01
 -1        71 5.10000E+00 1.00000E-01 0.00000E+00
 -1        72 5.10000E+00 0.00000E+00 0.00000E+00
 -1        73 5.40000E+00 1.00000E-01 1.00000E-01
 -1        74 5.40000E+00 0.00000E+00 1.00000E-01
 -1        75 5.40000E+00 1.00000E-01 0.00000E+00
 -1        76 5.40000E+00 0.00000E+00 0.00000E+00
 -1        77 5.70000E+00 1.00000E-01 1.00000E-01
 -1        78 5.70000E+00 0.00000E+00 1.00000E-01
 -1        79 5.70000E+00 1.00000E-01 0.00000E+00
 -1        80 5.70000E+00 0.00000E+00 0.00000E+00
 -1        81 6.00000E+00 1.00000E-01 1.00000E-01
 -1        82 6.00000E+00 0.00000E+00 1.00000E-01
 -1        83 6.00000E+00 1.00000E-01 0.00000E+00
 -1        84 6.00000E+00 0.00000E+00 0.00000E+00
 -1        85 0.00000E+00 2.00000E-01 1.00000E-01
 -1        86 3.00000E-01 2.00000E-01 1.00000E-01
 -1        87 0.00000E+00 2.00000E-01 0.00000E+00
 -1        88 3.00000E-01 2.00000E-01 0.00000E+00
 -1        89 6.00000E-01 2.00000E-01 1.00000E-01
 -1        90 6.00000E-01 2.00000E-01 0.00000E+00
 -1        91 9.00000E-01 2.00000E-01 1.00000E-01
 -1        92 9.00000E-01 2.00000E-01 0.00000E+00
 -1        93 1.20000E+00 2.00000E-01 1.00000E-01
 -1        94 1.20000E+00 2.00000E-01 0.00000E+00
 -1        95 1.50000E+00 2.00000E-01 1.00000E-01
 -1        96 1.50000E+00 2.00000E-01 0.00000E+00
 -1        97 1.80000E+00 2.00000E-01 1.00000E-01
 -1        98 1.80000E+00 2.00000E-01 0.00000E+00
 -1        99 2.10000E+00 2.00000E-01 1.00000E-01
 -1       100 2.10000E+00 2.00000E-01 0.00000E+00
 -1       101 2.40000E+00 2.00000E-01 1.00000E-01
 -1       102 2.40000E+00 2.00000E-01 0.00000E+00
 -1       103 2.70000E+00 2.00000E-01 1.00000E-01
 -1       104 2.70000E+00 2.00000E-01 0.00000E+00
 -1       105 3.00000E+00 2.00000E-01 1.00000E-01
 -1       106 3.00000E+00 2.00000E-01 0.00000E+00
 -1       107 3.30000E+00 2.00000E-01 1.00000E-01
 -1       108 3.30000E+00 2.00000E-01 0.00000E+00
 -1       109 3.60000E+00 2.00000E-01 1.00000E-01
 -1       110 3.60000E+00 2.00000E-01 0.00000E+00
 -1       111 3.90000E+00 2.00000E-01 1.00000E-01
 -1       112 3.90000E+00 2.00000E-01 0.00000E+00
 -1       113 4.20000E+00 2.00000E-01 1.00000E-01
 -1       114 4.20000E+00 2.00000E-01 0.00000E+00
 -1       115 4.50000E+00 2.00000E-01 1.00000E-01
 -1       116 4.50000E+00 2.00000E-01 0.00000E+00
 -1       117 4.80000E+00 2.00000E-01 1.00000E-01
 -1       118 4.80000E+00 2.00000E-01 0.00000E+00
 -1       119 5.10000E+00 2.00000E-01 1.00000E-01
 -1       120 5.10000E+00 2.00000E-01 0.00000E+00
 -1       121 5.40000E+00 2.00000E-01 1.00000E-01
 -1       122 5.40000E+00 2.00000E-01 0.00000E+00
 -1       123 5.70000E+00 2.00000E-01 1.00000E-01
 -1       124 5.70000E+00 2.00000E-01 0.00000E+00
 -1       125 6.00000E+00 2.00000E-01 1.00000E-01
 -1       126 6.00000E+00 2.00000E-01 0.00000E+00
 -1       127 0.00000E+00 3.00000E-01 1.00000E-01
 -1       128 3.00000E-01 3.00000E-01 1.00000E-01
 -1       129 0.00000E+00 3.00000E-01 0.00000E+00
 -1       130 3.00000E-01 3.00000E-01 0.00000E+00
 -1       131 6.00000E-01 3.00000E-01 1.00000E-01
 -1       132 6.00000E-01 3.00000E-01 0.00000E+00
 -1       133 9.00000E-01 3.00000E-01 1.00000E-01
 -1       134 9.00000E-01 3.00000E-01 0.00000E+00
 -1       135 1.20000E+00 3.00000E-01 1.00000E-01
 -1       136 1.20000E+00 3.00000E-01 0.00000E+00
 -1       137 1.50000E+00 3.00000E-01 1.00000E-01
 -1       138 1.50000E+00 3.00000E-01 0.00000E+00
 -1       139 1.80000E+00 3.00000E-01 1.00000E-01
 -1       140 1.80000E+00 3.00000E-01 0.00000E+00
 -1       141 2.10000E+00 3.00000E-01 1.00000E-01
 -1       142 2.10000E+00 3.00000E-01 0.00000E+00
 -1       143 2.40000E+00 3.00000E-01 1.00000E-01
 -1       144 2.40000E+00 3.00000E-01 0.00000E+00
 -1       145 2.70000E+00 3.00000E-01 1.00000E-01
 -1       146 2.70000E+00 3.00000E-01 0.00000E+00
 -1       147 3.00000E+00 3.00000E-01 1.00000E-01
 -1       148 3.00000E+00 3.00000E-01 0.00000E+00
 -1       149 3.30000E+00 3.00000E-01 1.00000E-01
 -1       150 3.30000E+00 3.00000E-01 0.00000E+00
 -1       151 3.60000E+00 3.00000E-01 1.00000E-01
 -1       152 3.60000E+00 3.00000E-01 0.00000E+00
 -1       153 3.90000E+00 3.00000E-01 1.00000E-01
 -1       154 3.90000E+00 3.00000E-01 0.00000E+00
 -1       155 4.20000E+00 3.00000E-01 1.00000E-01
 -1       156 4.20000E+00 3.00000E-01 0.00000E+00
 -1       157 4.50000E+00 3.00000E-01 1.00000E-01
 -1       158 4.50000E+00 3.00000E-01 0.00000E+00
 -1       159 4.80000E+00 3.00000E-01 1.00000E-01
 -1       160 4.80000E+00 3.00000E-01 0.00000E+00
 -1       161 5.10000E+00 3.00000E-01 1.00000E-01
 -1       162 5.10000E+00 3.00000E-01 0.00000E+00
 -1       163 5.40000E+00 3.00000E-01 1.00000E-01
 -1       164 5.40000E+00 3.00000E-01 0.00000E+00
 -1       165 5.70000E+00 3.00000E-01 1.00000E-01
 -1       166 5.70000E+00 3.00000E-01 0.00000E+00
 -1       167 6.00000E+00 3.00000E-01 1.00000E-01
 -1       168 6.00000E+00 3.00000E-01 0.00000E+00
 -1       169 0.00000E+00 4.00000E-01 1.00000E-01
 -1       170 3.00000E-01 4.00000E-01 1.00000E-01
 -1       171 0.00000E+00 4.00000E-01 0.00000E+00
 -1       172 3.00000E-01 4.00000E-01 0.00000E+00
 -1       173 6.00000E-01 4.00000E-01 1.00000E-01
 -1       174 6.00000E-01 4.00000E-01 0.00000E+00
 -1       175 9.00000E-01 4.00000E-01 1.00000E-01
 -1       176 9.00000E-01 4.00000E-01 0.00000E+00
 -1       177 1.20000E+00 4.00000E-01 1.00000E-01
 -1       178 1.20000E+00 4.00000E-01 0.00000E+00
 -1       179 1.50000E+00 4.00000E-01 1.00000E-01
 -1       180 1.50000E+00 4.00000E-01 0.00000E+00
 -1       181 1.80000E+00 4.00000E-01 1.00000E-01
 -1       182 1.80000E+00 4.00000E-01 0.00000E+00
 -1       183 2.10000E+00 4.00000E-01 1.00000E-01
 -1       184 2.10000E+00 4.00000E-01 0.00000E+00
 -1       185 2.40000E+00 4.00000E-01 1.00000E-01
 -1       186 2.40000E+00 4.00000E-01 0.00000E+00
 -1       187 2.70000E+00 4.00000E-01 1.00000E-01
 -1       188 2.70000E+00 4.00000E-01 0.00000E+00
 -1       189 3.00000E+00 4.00000E-01 1.00000E-01
 -1       190 3.00000E+00 4.00000E-01 0.00000E+00
 -1       191 3.30000E+00 4.00000E-01 1.00000E-01
 -1       192 3.30000E+00 4.00000E-01 0.00000E+00
 -1       193 3.60000E+00 4.00000E-01 1.00000E-01
 -1       194 3.60000E+00 4.00000E-01 0.00000E+00
 -1       195 3.90000E+00 4.00000E-01 1.00000E-01
 -1       196 3.90000E+00 4.00000E-01 0.00000E+00
 -1       197 4.20000E+00 4.00000E-01 1.00000E-01
 -1       198 4.20000E+00 4.00000E-01 0.00000E+00
 -1       199 4.50000E+00 4.00000E-01 1.00000E-01
 -1       200 4.50000E+00 4.00000E-01 0.00000E+00
 -1       201 4.80000E+00 4.00000E-01 1.00000E-01
 -1       202 4.80000E+00 4.00000E-01 0.00000E+00
 -1       203 5.10000E+00 4.00000E-01 1.00000E-01
 -1       204 5.10000E+00 4.00000E-01 0.00000E+00
 -1       205 5.40000E+00 4.00000E-01 1.00000E-01
 -1       206 5.40000E+00 4.00000E-01 0.00000E+00
 -1       207 5.70000E+00 4.00000E-01 1.00000E-01
 -1       208 5.70000E+00 4.00000E-01 0.00000E+00
 -1       209 6.00000E+00 4.00000E-01 1.00000E-01
 -1       210 6.00000E+00 4.00000E-01 0.00000E+00
 -1       211 0.00000E+00 5.00000E-01 1.00000E-01
 -1       212 3.00000E-01 5.00000E-01 1.00000E-01
 -1       213 0.00000E+00 5.00000E-01 0.00000E+00
 -1       214 3.00000E-01 5.00000E-01 0.00000E+00
 -1       215 6.00000E-01 5.00000E-01 1.00000E-01
 -1       216 6.00000E-01 5.00000E-01 0.00000E+00
 -1       217 9.00000E-01 5.00000E-01 1.00000E-01
 -1       218 9.00000E-01 5.00000E-01 0.00000E+00
 -1       219 1.20000E+00 5.00000E-01 1.00000E-01
 -1       220 1.20000E+00 5.00000E-01 0.00000E+00
 -1       221 1.50000E+00 5.00000E-01 1.00000E-01
 -1       222 1.50000E+00 5.00000E-01 0.00000E+00
 -1       223 1.80000E+00 5.00000E-01 1.00000E-01
 -1       224 1.80000E+00 5.00000E-01 0.00000E+00
 -1       225 2.10000E+00 5.00000E-01 1.00000E-01
 -1       226 2.10000E+00 5.00000E-01 0.00000E+00
 -1       227 2.40000E+00 5.00000E-01 1.00000E-01
 -1       228 2.40000E+00 5.00000E-01 0.00000E+00
 -1       229 2.70000E+00 5.00000E-01 1.00000E-01
 -1       230 2.70000E+00 5.00000E-01 0.00000E+00
 -1       231 3.00000E+00 5.00000E-01 1.00000E-01
 -1       232 3.00000E+00 5.00000E-01 0.00000E+00
 -1       233 3.30000E+00 5.00000E-01 1.00000E-01
 -1       234 3.30000E+00 5.00000E-01 0.00000E+00
 -1       235 3.60000E+00 5.00000E-01 1.00000E-01
 -1       236 3.60000E+00 5.00000E-01 0.00000E+00
 -1       237 3.90000E+00 5.00000E-01 1.00000E-01
 -1       238 3.90000E+00 5.00000E-01 0.00000E+00
 -1       239 4.20000E+00 5.00000E-01 1.00000E-01
 -1       240 4.20000E+00 5.00000E-01 0.00000E+00
 -1       241 4.50000E+00 5.00000E-01 1.00000E-01
 -1       242 4.50000E+00 5.00000E-01 0.00000E+00
 -1       243 4.80000E+00 5.00000E-01 1.00000E-01
 -1       244 4.80000E+00 5.00000E-01 0.00000E+00
 -1       245 5.10000E+00 5.00000E-01 1.00000E-01
 -1       246 5.10000E+00 5.00000E-01 0.00000E+00
 -1       247 5.40000E+00 5.00000E-01 1.00000E-01
 -1       248 5.40000E+00 5.00000E-01 0.00000E+00
 -1       249 5.70000E+00 5.00000E-01 1.00000E-01
 -1       250 5.70000E+00 5.00000E-01 0.00000E+00
 -1       251 6.00000E+00 5.00000E-01 1.00000E-01
 -1       252 6.00000E+00 5.00000E-01 0.00000E+00
 -1       253 0.00000E+00 6.00000E-01 1.00000E-01
 -1       254 3.00000E-01 6.00000E-01 1.00000E-01
 -1       255 0.00000E+00 6.00000E-01 0.00000E+00
 -1       256 3.00000E-01 6.00000E-01 0.00000E+00
 -1       257 6.00000E-01 6.00000E-01 1.00000E-01
 -1       258 6.00000E-01 6.00000E-01 0.00000E+00
 -1       259 9.00000E-01 6.00000E-01 1.00000E-01
 -1       260 9.00000E-01 6.00000E-01 0.00000E+00
 -1       261 1.20000E+00 6.00000E-01 1.00000E-01
 -1       262 1.20000E+00 6.00000E-01 0.00000E+00
 -1       263 1.50000E+00 6.00000E-01 1.00000E-01
 -1       264 1.50000E+00 6.00000E-01 0.00000E+00
 -1       265 1.80000E+00 6.00000E-01 1.00000E-01
 -1       266 1.80000E+00 6.00000E-01 0.00000E+00
 -1       267 2.10000E+00 6.00000E-01 1.00000E-01
 -1       268 2.10000E+00 6.00000E-01 0.00000E+00
 -1       269 2.40000E+00 6.00000E-01 1.00000E-01
 -1       270 2.40000E+00 6.00000E-01 0.00000E+00
 -1       271 2.70000E+00 6.00000E-01 1.00000E-01
 -1       272 2.70000E+00 6.00000E-01 0.00000E+00
 -1       273 3.00000E+00 6.00000E-01 1.00000E-01
 -1       274 3.00000E+00 6.00000E-01 0.00000E+00
 -1       275 3.30000E+00 6.00000E-01 1.00000E-01
 -1       276 3.30000E+00 6.00000E-01 0.00000E+00
 -1       277 3.60000E+00 6.00000E-01 1.00000E-01
 -1       278 3.60000E+00 6.00000E-01 0.00000E+00
 -1       279 3.90000E+00 6.00000E-01 1.00000E-01
 -1       280 3.90000E+00 6.00000E-01 0.00000E+00
 -1       281 4.20000E+00 6.00000E-01 1.00000E-01
 -1       282 4.20000E+00 6.00000E-01 0.00000E+00
 -1       283 4.50000E+00 6.00000E-01 1.00000E-01
 -1       284 4.50000E+00 6.00000E-01 0.00000E+00
 -1       285 4.80000E+00 6.00000E-01 1.00000E-01
 -1       286 4.80000E+00 6.00000E-01 0.00000E+00
 -1       287 5.10000E+00 6.00000E-01 1.00000E-01
 -1       288 5.10000E+00 6.00000E-01 0.00000E+00
 -1       289 5.40000E+00 6.00000E-01 1.00000E-01
 -1       290 5.40000E+00 6.00000E-01 0.00000E+00
 -1       291 5.70000E+00 6.00000E-01 1.00000E-01
 -1       292 5.70000E+00 6.00000E-01 0.00000E+00
 -1       293 6.00000E+00 6.00000E-01 1.00000E-01
 -1       294 6.00000E+00 6.00000E-01 0.00000E+00
 -1       295 0.00000E+00 7.00000E-01 1.00000E-01
 -1       296 3.00000E-01 7.00000E-01 1.00000E-01
 -1       297 0.00000E+00 7.00000E-01 0.00000E+00
 -1       298 3.00000E-01 7.00000E-01 0.00000E+00
 -1       299 6.00000E-01 7.00000E-01 1.00000E-01
 -1       300 6.00000E-01 7.00000E-01 0.00000E+00
 -1       301 9.00000E-01 7.00000E-01 1.00000E-01
 -1       302 9.00000E-01 7.00000E-01 0.00000E+00
 -1       303 1.20000E+00 7.00000E-01 1.00000E-01
 -1       304 1.20000E+00 7.00000E-01 0.00000E+00
 -1       305 1.50000E+00 7.00000E-01 1.00000E-01
 -1       306 1.50000E+00 7.00000E-01 0.00000E+00
 -1       307 1.80000E+00 7.00000E-01 1.00000E-01
 -1       308 1.80000E+00 7.00000E-01 0.00000E+00
 -1       309 2.10000E+00 7.00000E-01 1.00000E-01
 -1       310 2.10000E+00 7.00000E-01 0.00000E+00
 -1       311 2.40000E+00 7.00000E-01 1.00000E-01
 -1       312 2.40000E+00 7.00000E-01 0.00000E+00
 -1       313 2.70000E+00 7.00000E-01 1.00000E-01
 -1       314 2.70000E+00 7.00000E-01 0.00000E+00
 -1       315 3.00000E+00 7.00000E-01 1.00000E-01
 -1       316 3.00000E+00 7.00000E-01 0.00000E+00
 -1       317 3.30000E+00 7.00000E-01 1.00000E-01
 -1       318 3.30000E+00 7.00000E-01 0.00000E+00
 -1       319 3.60000E+00 7.00000E-01 1.00000E-01
 -1       320 3.60000E+00 7.00000E-01 0.00000E+00
 -1       321 3.90000E+00 7.00000E-01 1.00000E-01
 -1       322 3.90000E+00 7.00000E-01 0.00000E+00
 -1       323 4.20000E+00 7.00000E-01 1.00000E-01
 -1       324 4.20000E+00 7.00000E-01 0.00000E+00
 -1       325 4.50000E+00 7.00000E-01 1.00000E-01
 -1       326 4.50000E+00 7.00000E-01 0.00000E+00
 -1       327 4.80000E+00 7.00000E-01 1.00000E-01
 -1       328 4.80000E+00 7.00000E-01 0.00000E+00
 -1       329 5.10000E+00 7.00000E-01 1.00000E-01
 -1       330 5.10000E+00 7.00000E-01 0.00000E+00
 -1       331 5.40000E+00 7.00000E-01 1.00000E-01
 -1       332 5.40000E+00 7.00000E-01 0.00000E+00
 -1       333 5.70000E+00 7.00000E-01 1.00000E-01
 -1       334 5.70000E+00 7.00000E-01 0.00000E+00
 -1       335 6.00000E+00 7.00000E-01 1.00000E-01
 -1       336 6.00000E+00 7.00000E-01 0.00000E+00
 -1       337 0.00000E+00 8.00000E-01 1.00000E-01
 -1       338 3.00000E-01 8.00000E-01 1.00000E-01
 -1       339 0.00000E+00 8.00000E-01 0.00000E+00
 -1       340 3.00000E-01 8.00000E-01 0.00000E+00
 -1       341 6.00000E-01 8.00000E-01 1.00000E-01
 -1       342 6.00000E-01 8.00000E-01 0.00000E+00
 -1       343 9.00000E-01 8.00000E-01 1.00000E-01
 -1       344 9.00000E-01 8.00000E-01 0.00000E+00
 -1       345 1.20000E+00 8.00000E-01 1.00000E-01
 -1       346 1.20000E+00 8.00000E-01 0.00000E+00
 -1       347 1.50000E+00 8.00000E-01 1.00000E-01
 -1       348 1.50000E+00 8.00000E-01 0.00000E+00
 -1       349 1.80000E+00 8.00000E-01 1.00000E-01
 -1       350 1.80000E+00 8.00000E-01 0.00000E+00
 -1       351 2.10000E+00 8.00000E-01 1.00000E-01
 -1       352 2.10000E+00 8.00000E-01 0.00000E+00
 -1       353 2.40000E+00 8.00000E-01 1.00000E-01
 -1       354 2.40000E+00 8.00000E-01 0.00000E+00
 -1       355 2.70000E+00 8.00000E-01 1.00000E-01
 -1       356 2.70000E+00 8.00000E-01 0.00000E+00
 -1       357 3.00000E+00 8.00000E-01 1.00000E-01
 -1       358 3.00000E+00 8.00000E-01 0.00000E+00
 -1       359 3.30000E+00 8.00000E-01 1.00000E-01
 -1       360 3.30000E+00 8.00000E-01 0.00000E+00
 -1       361 3.60000E+00 8.00000E-01 1.00000E-01
 -1       362 3.60000E+00 8.00000E-01 0.00000E+00
 -1       363 3.90000E+00 8.00000E-01 1.00000E-01
 -1       364 3.90000E+00 8.00000E-01 0.00000E+00
 -1       365 4.20000E+00 8.00000E-01 1.00000E-01
 -1       366 4.20000E+00 8.00000E-01 0.00000E+00
 -1       367 4.50000E+00 8.00000E-01 1.00000E-01
 -1       368 4.50000E+00 8.00000E-01 0.00000E+00
 -1       369 4.80000E+00 8.00000E-01 1.00000E-01
 -1       370 4.80000E+00 8.00000E-01 0.00000E+00
 -1       371 5.10000E+00 8.00000E-01 1.00000E-01
 -1       372 5.10000E+00 8.00000E-01 0.00000E+00
 -1       373 5.40000E+00 8.00000E-01 1.00000E-01
 -1       374 5.40000E+00 8.00000E-01 0.00000E+00
 -1       375 5.70000E+00 8.00000E-01 1.00000E-01
 -1       376 5.70000E+00 8.00000E-01 0.00000E+00
 -1       377 6.00000E+00 8.00000E-01 1.00000E-01
 -1       378 6.00000E+00 8.00000E-01 0.00000E+00
 -1       379 0.00000E+00 9.00000E-01 1.00000E-01
 -1       380 3.00000E-01 9.00000E-01 1.00000E-01
 -1       381 0.00000E+00 9.00000E-01 0.00000E+00
 -1       382 3.00000E-01 9.00000E-01 0.00000E+00
 -1       383 6.00000E-01 9.00000E-01 1.00000E-01
 -1       384 6.00000E-01 9.00000E-01 0.00000E+00
 -1       385 9.00000E-01 9.00000E-01 1.00000E-01
 -1       386 9.00000E-01 9.00000E-01 0.00000E+00
 -1       387 1.20000E+00 9.00000E-01 1.00000E-01
 -1       388 1.20000E+00 9.00000E-01 0.00000E+00
 -1       389 1.50000E+00 9.00000E-01 1.00000E-01
 -1       390 1.50000E+00 9.00000E-01 0.00000E+00
 -1       391 1.80000E+00 9.00000E-01 1.00000E-01
 -1       392 1.80000E+00 9.00000E-01 0.00000E+00
 -1       393 2.10000E+00 9.00000E-01 1.00000E-01
 -1       394 2.10000E+00 9.00000E-01 0.00000E+00
 -1       395 2.40000E+00 9.00000E-01 1.00000E-01
 -1       396 2.40000E+00 9.00000E-01 0.00000E+00
 -1       397 2.70000E+00 9.00000E-01 1.00000E-01
 -1       398 2.70000E+00 9.00000E-01 0.00000E+00
 -1       399 3.00000E+00 9.00000E-01 1.00000E-01
 -1       400 3.00000E+00 9.00000E-01 0.00000E+00
 -1       401 3.30000E+00 9.00000E-01 1.00000E-01
 -1       402 3.30000E+00 9.00000E-01 0.00000E+00
 -1       403 3.60000E+00 9.00000E-01 1.00000E-01
 -1       404 3.60000E+00 9.00000E-01 0.00000E+00
 -1       405 3.90000E+00 9.00000E-01 1.00000E-01
 -1       406 3.90000E+00 9.00000E-01 0.00000E+00
 -1       407 4.20000E+00 9.00000E-01 1.00000E-01
 -1       408 4.20000E+00 9.00000E-01 0.00000E+00
 -1       409 4.50000E+00 9.00000E-01 1.00000E-01
 -1       410 4.50000E+00 9.00000E-01 0.00000E+00
 -1       411 4.80000E+00 9.00000E-01 1.00000E-01
 -1       412 4.80000E+00 9.00000E-01 0.00000E+00
 -1       413 5.10000E+00 9.00000E-01 1.00000E-01
 -1       414 5.10000E+00 9.00000E-01 0.00000E+00
 -1       415 5.40000E+00 9.00000E-01 1.00000E-01
 -1       416 5.40000E+00 9.00000E-01 0.00000E+00
 -1       417 5.70000E+00 9.00000E-01 1.00000E-01
 -1       418 5.70000E+00 9.00000E-01 0.00000E+00
 -1       419 6.00000E+00 9.00000E-01 1.00000E-01
 -1       420 6.00000E+00 9.00000E-01 0.00000E+00
 -1       421 0.00000E+00 1.00000E+00 1.00000E-01
 -1       422 3.00000E-01 1.00000E+00 1.00000E-01
 -1       423 0.00000E+00 1.00000E+00 0.00000E+00
 -1       424 3.00000E-01 1.00000E+00 0.00000E+00
 -1       425 6.00000E-01 1.00000E+00 1.00000E-01
 -1       426 6.00000E-01 1.00000E+00 0.00000E+00
 -1       427 9.00000E-01 1.00000E+00 1.00000E-01
 -1       428 9.00000E-01 1.00000E+00 0.00000E+00
 -1       429 1.20000E+00 1.00000E+00 1.00000E-01
 -1       430 1.20000E+00 1.00000E+00 0.00000E+00
 -1       431 1.50000E+00 1.00000E+00 1.00000E-01
 -1       432 1.50000E+00 1.00000E+00 0.00000E+00
 -1       433 1.80000E+00 1.00000E+00 1.00000E-01
 -1       434 1.80000E+00 1.00000E+00 0.00000E+00
 -1       435 2.10000E+00 1.00000E+00 1.00000E-01
 -1       436 2.10000E+00 1.00000E+00 0.00000E+00
 -1       437 2.40000E+00 1.00000E+00 1.00000E-01
 -1       438 2.40000E+00 1.00000E+00 0.00000E+00
 -1       439 2.70000E+00 1.00000E+00 1.00000E-01
 -1       440 2.70000E+00 1.00000E+00 0.00000E+00
 -1       441 3.00000E+00 1.00000E+00 1.00000E-01
 -1       442 3.00000E+00 1.00000E+00 0.00000E+00
 -1       443 3.30000E+00 1.00000E+00 1.00000E-01
 -1       444 3.30000E+00 1.00000E+00 0.00000E+00
 -1       445 3.60000E+00 1.00000E+00 1.00000E-01
 -1       446 3.60000E+00 1.00000E+00 0.00000E+00
 -1       447 3.90000E+00 1.00000E+00 1.00000E-01
 -1       448 3.90000E+00 1.00000E+00 0.00000E+00
 -1       449 4.20000E+00 1.00000E+00 1.00000E-01
 -1       450 4.20000E+00 1.00000E+00 0.00000E+00
 -1       451 4.50000E+00 1.00000E+00 1.00000E-01
 -1       452 4.50000E+00 1.00000E+00 0.00000E+00
 -1       453 4.80000E+00 1.00000E+00 1.00000E-01
 -1       454 4.80000E+00 1.00000E+00 0.00000E+00
 -1       455 5.10000E+00 1.00000E+00 1.00000E-01
 -1       456 5.10000E+00 1.00000E+00 0.00000E+00
 -1       457 5.40000E+00 1.00000E+00 1.00000E-01
 -1       458 5.40000E+00 1.00000E+00 0.00000E+00
 -1       459 5.70000E+00 1.00000E+00 1.00000E-01
 -1       460 5.70000E+00 1.00000E+00 0.00000E+00
 -1       461 6.00000E+00 1.00000E+00 1.00000E-01
 -1       462 6.00000E+00 1.00000E+00 0.00000E+00
 -3
    3C                                                                   1
 -1         1    1    0WATER
 -2         1         2         3         4         5         6         7         8
 -1         2    1    0WATER
 -2         4         3         9        10         8         7        11        12
 -1         3    1    0WATER
 -2        10         9        13        14        12        11        15        16
 -1         4    1    0WATER
 -2        14        13        17        18        16        15        19        20
 -1         5    1    0WATER
 -2        18        17        21        22        20        19        23        24
 -1         6    1    0WATER
 -2        22        21        25        26        24        23        27        28
 -1         7    1    0WATER
 -2        26        25        29        30        28        27        31        32
 -1         8    1    0WATER
 -2        30        29        33        34        32        31        35        36
 -1         9    1    0WATER
 -2        34        33        37        38        36        35        39        40
 -1        10    1    0WATER
 -2        38        37        41        42        40        39        43        44
 -1        11    1    0WATER
 -2        42        41        45        46        44        43        47        48
 -1        12    1    0WATER
 -2        46        45        49        50        48        47        51        52
 -1        13    1    0WATER
 -2        50        49        53        54        52        51        55        56
 -1        14    1    0WATER
 -2        54        53        57        58        56        55        59        60
 -1        15    1    0WATER
 -2        58        57        61        62        60        59        63        64
 -1        16    1    0WATER
 -2        62        61        65        66        64        63        67        68
 -1        17    1    0WATER
 -2        66        65        69        70        68        67        71        72
 -1        18    1    0WATER
 -2        70        69        73        74        72        71        75        76
 -1        19    1    0WATER
 -2        74        73        77        78        76        75        79        80
 -1        20    1    0WATER
 -2        78        77        81        82        80        79        83        84
 -1        21    1    0WATER
 -2         2        85        86         3         6        87        88         7
 -1        22    1    0WATER
 -2         3        86        89         9         7        88        90        11
 -1        23    1    0WATER
 -2         9        89        91        13        11        90        92        15
 -1        24    1    0WATER
 -2        13        91        93        17        15        92        94        19
 -1        25    1    0WATER
 -2        17        93        95        21        19        94        96        23
 -1        26    1    0WATER
 -2        21        95        97        25        23        96        98        27
 -1        27    1    0WATER
 -2        25        97        99        29        27        98       100        31
 -1        28    1    0WATER
 -2        29        99       101        33        31       100       102        35
 -1        29    1    0WATER
 -2        33       101       103        37        35       102       104        39
 -1        30    1    0WATER
 -2        37       103       105        41        39       104       106        43
 -1        31    1    0WATER
 -2        41       105       107        45        43       106       108        47
 -1        32    1    0WATER
 -2        45       107       109        49        47       108       110        51
 -1        33    1    0WATER
 -2        49       109       111        53        51       110       112        55
 -1        34    1    0WATER
 -2        53       111       113        57        55       112       114        59
 -1        35    1    0WATER
 -2        57       113       115        61        59       114       116        63
 -1        36    1    0WATER
 -2        61       115       117        65        63       116       118        67
 -1        37    1    0WATER
 -2        65       117       119        69        67       118       120        71
 -1        38    1    0WATER
 -2        69       119       121        73        71       120       122        75
 -1        39    1    0WATER
 -2        73       121       123        77        75       122       124        79
 -1        40    1    0WATER
 -2        77       123       125        81        79       124       126        83
 -1        41    1    0WATER
 -2        85       127       128        86        87       129       130        88
 -1        42    1    0WATER
 -2        86       128       131        89        88       130       132        90
 -1        43    1    0WATER
 -2        89       131       133        91        90       132       134        92
 -1        44    1    0WATER
 -2        91       133       135        93        92       134       136        94
 -1        45    1    0WATER
 -2        93       135       137        95        94       136       138        96
 -1        46    1    0WATER
 -2        95       137       139        97        96       138       140        98
 -1        47    1    0WATER
 -2        97       139       141        99        98       140       142       100
 -1        48    1    0WATER
 -2        99       141       143       101       100       142       144       102
 -1        49    1    0WATER
 -2       101       143       145       103       102       144       146       104
 -1        50    1    0WATER
 -2       103       145       147       105       104       146       148       106
 -1        51    1    0WATER
 -2       105       147       149       107       106       148       150       108
 -1        52    1    0WATER
 -2       107       149       151       109       108       150       152       110
 -1        53    1    0WATER
 -2       109       151       153       111       110       152       154       112
 -1        54    1    0WATER
 -2       111       153       155       113       112       154       156       114
 -1        55    1    0WATER
 -2       113       155       157       115       114       156       158       116
 -1        56    1    0WATER
 -2       115       157       159       117       116       158       160       118
 -1        57    1    0WATER
 -2       117       159       161       119       118       160       162       120
 -1        58    1    0WATER
 -2       119       161       163       121       120       162       164       122