    1C
    1UUSER                                                              
    1UDATE              25.january.2020                                 
    1UTIME              14:52:10                                        
    1UHOST                                                              
    1UPGM               CalculiX                                        
    1UVERSION           Version 2.16                             
    1UCOMPILETIME       Tue  7 Jan 19:57:43 CET 2020                    
    1UDIR                                                               
    1UDBN                                                               
    1UMAT    1EL                                                        
    2C                            40                                     1
 -1        18 1.00000E-01 2.00000E+00-5.00000E-02
 -1        19 1.00000E-01 2.00000E+00 0.00000E+00
 -1        20 1.00000E-01 2.00000E+00 5.00000E-02
 -1        21 1.00000E-01 1.00000E+00-5.00000E-02
 -1        22 1.00000E-01 1.00000E+00 0.00000E+00
 -1        23 1.00000E-01 1.00000E+00 5.00000E-02
 -1        24 1.10000E+00 1.00000E+00-5.00000E-02
 -1        25 1.10000E+00 1.00000E+00 0.00000E+00
 -1        26 1.10000E+00 1.00000E+00 5.00000E-02
 -1        27 1.10000E+00 2.00000E+00-5.00000E-02
 -1        28 1.10000E+00 2.00000E+00 0.00000E+00
 -1        29 1.10000E+00 2.00000E+00 5.00000E-02
 -1        30 1.00000E-01 1.50000E+00-5.00000E-02
 -1        32 1.00000E-01 1.50000E+00 5.00000E-02
 -1        33 6.00000E-01 1.00000E+00-5.00000E-02
 -1        35 6.00000E-01 1.00000E+00 5.00000E-02
 -1        36 1.10000E+00 1.50000E+00-5.00000E-02
 -1        38 1.10000E+00 1.50000E+00 5.00000E-02
 -1        39 6.00000E-01 2.00000E+00-5.00000E-02
 -1        41 6.00000E-01 2.00000E+00 5.00000E-02
 -1        42 1.00000E-01 0.00000E+00-5.00000E-02
 -1        43 1.00000E-01 0.00000E+00 0.00000E+00
 -1        44 1.00000E-01 0.00000E+00 5.00000E-02
 -1        45 1.10000E+00 0.00000E+00-5.00000E-02
 -1        46 1.10000E+00 0.00000E+00 0.00000E+00
 -1        47 1.10000E+00 0.00000E+00 5.00000E-02
 -1        48 1.00000E-01 5.00000E-01-5.00000E-02
 -1        50 1.00000E-01 5.00000E-01 5.00000E-02
 -1        51 6.00000E-01 0.00000E+00-5.00000E-02
 -1        53 6.00000E-01 0.00000E+00 5.00000E-02
 -1        54 1.10000E+00 5.00000E-01-5.00000E-02
 -1        56 1.10000E+00 5.00000E-01 5.00000E-02
 -1        57 1.00000E-01 1.00000E+00-5.00000E-02
 -1        58 1.00000E-01 1.00000E+00 0.00000E+00
 -1        59 1.00000E-01 1.00000E+00 5.00000E-02
 -1        60 1.10000E+00 1.00000E+00-5.00000E-02
 -1        61 1.10000E+00 1.00000E+00 0.00000E+00
 -1        62 1.10000E+00 1.00000E+00 5.00000E-02
 -1        63 6.00000E-01 1.00000E+00-5.00000E-02
 -1        65 6.00000E-01 1.00000E+00 5.00000E-02
 -3
    3C                             2                                     1
 -1         1    4    0    1
 -2        18        57        60        27        20        59        62        29        30        63
 -2        36        39        19        58        61        28        32        65        38        41
 -1         2    4    0    1
 -2        21        42        45        24        23        44        47        26        48        51
 -2        54        33        22        43        46        25        50        53        56        35
 -3
 9999
