    1C
    1UUSER                                                              
    1UDATE              25.january.2020                                 
    1UTIME              14:52:14                                        
    1UHOST                                                              
    1UPGM               CalculiX                                        
    1UVERSION           Version 2.16                             
    1UCOMPILETIME       Tue  7 Jan 19:57:43 CET 2020                    
    1UDIR                                                               
    1UDBN                                                               
    1UMAT    1STEEL                                                     
    1UMAT    2I1                                                        
    2C                            16                                     1
 -1         1 9.50000E-01 1.00000E-01 5.81707E-17
 -1         2 9.50000E-01 0.00000E+00 5.81707E-17
 -1         3 1.05000E+00 0.00000E+00 6.42940E-17
 -1         4 1.05000E+00 1.00000E-01 6.42940E-17
 -1         5 9.50000E-01 5.00000E-02 5.81707E-17
 -1         6 1.00000E+00 0.00000E+00 6.12323E-17
 -1         7 1.05000E+00 5.00000E-02 6.42940E-17
 -1         8 1.00000E+00 1.00000E-01 6.12323E-17
 -1         9 1.05000E+00 1.00000E-01 6.42940E-17
 -1        10 1.05000E+00 0.00000E+00 6.42940E-17
 -1        11 1.15000E+00 0.00000E+00 7.04172E-17
 -1        12 1.15000E+00 1.00000E-01 7.04172E-17
 -1        13 1.05000E+00 5.00000E-02 6.42940E-17
 -1        14 1.10000E+00 0.00000E+00 6.73556E-17
 -1        15 1.15000E+00 5.00000E-02 7.04172E-17
 -1        16 1.10000E+00 1.00000E-01 6.73556E-17
 -3
    3C                             2                                     1
 -1         1   10    0    1
 -2         1         2         3         4         5         6         7         8
 -1         2   10    0    1
 -2         9        10        11        12        13        14        15        16
 -3
 9999
