# vtk DataFile Version 3.0

ASCII
DATASET UNSTRUCTURED_GRID

POINTS 20 double
	 1.00000000E+00	 0.00000000E+00	 0.00000000E+00
	 5.00000000E-01	 0.00000000E+00	 0.00000000E+00
	 7.50000000E-01	 0.00000000E+00	 0.00000000E+00
	 1.00000000E+00	 2.50000000E-01	 0.00000000E+00
	 1.00000000E+00	 5.00000000E-01	 0.00000000E+00
	 1.00000000E+00	 0.00000000E+00	 5.00000000E-01
	 1.00000000E+00	 0.00000000E+00	 1.00000000E+00
	 5.00000000E-01	 2.50000000E-01	 0.00000000E+00
	 5.00000000E-01	 5.00000000E-01	 0.00000000E+00
	 7.50000000E-01	 5.00000000E-01	 0.00000000E+00
	 5.00000000E-01	 0.00000000E+00	 5.00000000E-01
	 5.00000000E-01	 0.00000000E+00	 1.00000000E+00
	 7.50000000E-01	 0.00000000E+00	 1.00000000E+00
	 1.00000000E+00	 5.00000000E-01	 5.00000000E-01
	 1.00000000E+00	 2.50000000E-01	 1.00000000E+00
	 1.00000000E+00	 5.00000000E-01	 1.00000000E+00
	 5.00000000E-01	 5.00000000E-01	 5.00000000E-01
	 5.00000000E-01	 2.50000000E-01	 1.00000000E+00
	 5.00000000E-01	 5.00000000E-01	 1.00000000E+00
	 7.50000000E-01	 5.00000000E-01	 1.00000000E+00

CELLS 1 21
	20 1 0 4 8 11 6 15 18 2 3 9 7 12 14 19 17 10 5 13 16 

CELL_TYPES 1
	25

POINT_DATA 20
FIELD U 1
	U 3 20 double
		 0.00000000E+00	 0.00000000E+00	 0.00000000E+00
		 1.91836000E-03	 0.00000000E+00	 0.00000000E+00
		 9.55867000E-04	 1.59906000E-06	 0.00000000E+00
		-5.26638000E-04	-1.20408000E-03	 0.00000000E+00
		-1.06266000E-03	-2.39728000E-03	 0.00000000E+00
		-9.49461000E-04	-8.60881000E-04	 5.22907000E-03
		-1.90822000E-03	-1.73053000E-03	 1.04519000E-02
		 1.37263000E-03	-1.22851000E-03	 0.00000000E+00
		 8.19835000E-04	-2.44352000E-03	 0.00000000E+00
		-1.25619000E-04	-2.41786000E-03	 0.00000000E+00
		 9.40573000E-04	-8.83992000E-04	 5.27215000E-03
		-2.57246000E-05	-1.77676000E-03	 1.04519000E-02
		-9.62764000E-04	-1.75618000E-03	 1.04519000E-02
		-2.02896000E-03	-3.29006000E-03	 5.17977000E-03
		-2.46101000E-03	-2.94555000E-03	 1.04519000E-02
		-3.00675000E-03	-4.17406000E-03	 1.04519000E-02
		-1.38922000E-04	-3.31317000E-03	 5.22285000E-03
		-5.61748000E-04	-2.96997000E-03	 1.04519000E-02
		-1.08839000E-03	-4.17405000E-03	 1.04519000E-02
		-2.04426000E-03	-4.17565000E-03	 1.04519000E-02
FIELD S 1
	S 10 20 double
		 1.34069000E-01	-1.83176000E+00	 5.28638000E+02	-8.75153000E-01	 2.29115000E+00	 4.69270000E+00	 5.29569002E+02	-2.19251153E+00	 4.43329328E-01	 5.28689491E+02
		 2.46413000E-01	-8.11442000E-01	 5.32997000E+02	-1.05528000E+00	 3.18184000E+00	 3.16739000E+00	 5.33340126E+02	-1.49870962E+00	 8.95960876E-01	 5.33034720E+02
		 6.54441000E-01	-1.44154000E+00	 5.31025000E+02	-1.18547000E+00	 2.48933000E+00	 4.62301000E+00	 5.31503427E+02	-2.00863754E+00	 1.16970533E+00	 5.31076833E+02
		-5.25017000E-01	-1.31688000E+00	 5.24710000E+02	-5.05977000E-01	 8.59608000E-01	 2.13562000E+00	 5.25647250E+02	-1.56898790E+00	-2.82990414E-01	 5.24720081E+02
		-9.20120000E-01	-1.80699000E+00	 5.20169000E+02	-6.38219000E-01	-1.57384000E+00	 1.16900000E+00	 5.21545346E+02	-2.14210089E+00	-5.92385534E-01	 5.20176376E+02
		-1.22007000E-01	 2.33884000E-01	 5.26591000E+02	 4.28638000E-01	-3.97402000E-01	-5.87216000E-01	 5.26537107E+02	-4.08304447E-01	 5.19226017E-01	 5.26591955E+02
		-4.91518000E-01	-1.20582000E+00	 5.26325000E+02	-6.54490000E-01	 1.38368000E+00	 2.82907000E+00	 5.27203471E+02	-1.60745472E+00	-1.08685962E-01	 5.26343803E+02
		-2.43009000E-01	-5.11919000E-01	 5.29962000E+02	-6.10192000E-01	 2.77344000E+00	 2.19923000E+00	 5.30376003E+02	-1.02588779E+00	 2.47364928E-01	 5.29985595E+02
		-4.91507000E-01	-1.20583000E+00	 5.26325000E+02	-6.54510000E-01	 1.38368000E+00	 2.82901000E+00	 5.27203469E+02	-1.60747650E+00	-1.08662539E-01	 5.26343802E+02
		-2.35000000E-01	-1.63577000E+00	 5.23458000E+02	-8.70519000E-01	-3.43551000E-01	 2.72091000E+00	 5.24418470E+02	-2.05411090E+00	 1.68973752E-01	 5.23472367E+02
		-3.01931000E-01	 4.29891000E-01	 5.25722000E+02	 3.31876000E-01	-1.42139000E+00	-2.19663000E+00	 5.25678250E+02	-4.34548274E-01	 5.49482011E-01	 5.25735026E+02
		-9.20084000E-01	-1.80709000E+00	 5.20170000E+02	-6.38173000E-01	-1.57381000E+00	 1.16919000E+00	 5.21546379E+02	-2.14213385E+00	-5.92417236E-01	 5.20177377E+02
		-2.35008000E-01	-1.63586000E+00	 5.23458000E+02	-8.70491000E-01	-3.43538000E-01	 2.72106000E+00	 5.24418521E+02	-2.05416385E+00	 1.68927161E-01	 5.23472369E+02
		-3.01959000E-01	 4.29801000E-01	 5.25722000E+02	 3.31841000E-01	-1.42137000E+00	-2.19667000E+00	 5.25678309E+02	-4.34561128E-01	 5.49376641E-01	 5.25735026E+02
		-2.42983000E-01	-5.11824000E-01	 5.29962000E+02	-6.10211000E-01	 2.77333000E+00	 2.19915000E+00	 5.30375939E+02	-1.02583660E+00	 2.47436552E-01	 5.29985593E+02
		 2.46552000E-01	-8.11183000E-01	 5.32997000E+02	-1.05529000E+00	 3.18170000E+00	 3.16709000E+00	 5.33339919E+02	-1.49848856E+00	 8.96143025E-01	 5.33034715E+02
		-1.22051000E-01	 2.33837000E-01	 5.26591000E+02	 4.28612000E-01	-3.97464000E-01	-5.87094000E-01	 5.26537153E+02	-4.08325227E-01	 5.19155976E-01	 5.26591955E+02
		-5.24942000E-01	-1.31693000E+00	 5.24710000E+02	-5.05883000E-01	 8.59689000E-01	 2.13574000E+00	 5.25647240E+02	-1.56893988E+00	-2.83014675E-01	 5.24720083E+02
		 1.34276000E-01	-1.83167000E+00	 5.28639000E+02	-8.75005000E-01	 2.29127000E+00	 4.69270000E+00	 5.29569855E+02	-2.19230699E+00	 4.43420827E-01	 5.28690492E+02
		 6.54579000E-01	-1.44139000E+00	 5.31025000E+02	-1.18541000E+00	 2.48932000E+00	 4.62284000E+00	 5.31503278E+02	-2.00844281E+00	 1.16980164E+00	 5.31076830E+02
FIELD SDV 1
	SDV 60 20 double
		-2.74953000E-03	-5.24069000E-03	 7.99022000E-03	-1.41362000E-03	-1.81643000E-03	-1.96690000E-03	 8.39362000E+00	 3.08607000E+01	 0.00000000E+00	 0.00000000E+00	 0.00000000E+00	 0.00000000E+00	 0.00000000E+00	 7.45032000E+00	 0.00000000E+00	 7.42780000E+00	 0.00000000E+00	 0.00000000E+00	 6.16922000E+00	 0.00000000E+00	 0.00000000E+00	 3.94651000E+01	 0.00000000E+00	 4.84865000E+01	 3.36461000E+01	 9.22736000E+01	 0.00000000E+00	 0.00000000E+00	 0.00000000E+00	 0.00000000E+00	 0.00000000E+00	 3.02510000E+01	 0.00000000E+00	 3.01690000E+01	 0.00000000E+00	 0.00000000E+00	 2.32058000E+01	 0.00000000E+00	 0.00000000E+00	 7.80087000E+01	 0.00000000E+00	 9.98332000E+01	 2.23814000E-04	 1.01368000E-03	 0.00000000E+00	 0.00000000E+00	 0.00000000E+00	 0.00000000E+00	 0.00000000E+00	 1.97166000E-04	 0.00000000E+00	 1.96536000E-04	 0.00000000E+00	 0.00000000E+00	 3.33871000E-04	 0.00000000E+00	 0.00000000E+00	 4.43031000E-03	 0.00000000E+00	 1.16861000E-02
		-2.80146000E-03	-5.34387000E-03	 8.14533000E-03	-1.44476000E-03	-1.85516000E-03	-2.00390000E-03	 8.50929000E+00	 3.11895000E+01	 0.00000000E+00	 0.00000000E+00	 0.00000000E+00	 0.00000000E+00	 0.00000000E+00	 7.51470000E+00	 0.00000000E+00	 7.66062000E+00	 0.00000000E+00	 0.00000000E+00	 6.28605000E+00	 0.00000000E+00	 0.00000000E+00	 3.97078000E+01	 0.00000000E+00	 4.85566000E+01	 3.40552000E+01	 9.28744000E+01	 0.00000000E+00	 0.00000000E+00	 0.00000000E+00	 0.00000000E+00	 0.00000000E+00	 3.04891000E+01	 0.00000000E+00	 3.10128000E+01	 0.00000000E+00	 0.00000000E+00	 2.35654000E+01	 0.00000000E+00	 0.00000000E+00	 7.83617000E+01	 0.00000000E+00	 1.00296000E+02	 2.27113000E-04	 1.02815000E-03	 0.00000000E+00	 0.00000000E+00	 0.00000000E+00	 0.00000000E+00	 0.00000000E+00	 1.98957000E-04	 0.00000000E+00	 2.03085000E-04	 0.00000000E+00	 0.00000000E+00	 3.40758000E-04	 0.00000000E+00	 0.00000000E+00	 4.51045000E-03	 0.00000000E+00	 1.19231000E-02
		-2.77555000E-03	-5.29229000E-03	 8.06784000E-03	-1.42924000E-03	-1.83452000E-03	-1.98578000E-03	 8.46095000E+00	 3.10392000E+01	 0.00000000E+00	 0.00000000E+00	 0.00000000E+00	 0.00000000E+00	 0.00000000E+00	 7.52273000E+00	 0.00000000E+00	 7.50451000E+00	 0.00000000E+00	 0.00000000E+00	 6.20483000E+00	 0.00000000E+00	 0.00000000E+00	 3.95924000E+01	 0.00000000E+00	 4.85257000E+01	 3.38849000E+01	 9.26028000E+01	 0.00000000E+00	 0.00000000E+00	 0.00000000E+00	 0.00000000E+00	 0.00000000E+00	 3.05168000E+01	 0.00000000E+00	 3.04475000E+01	 0.00000000E+00	 0.00000000E+00	 2.33158000E+01	 0.00000000E+00	 0.00000000E+00	 7.81952000E+01	 0.00000000E+00	 1.00071000E+02	 2.25731000E-04	 1.02151000E-03	 0.00000000E+00	 0.00000000E+00	 0.00000000E+00	 0.00000000E+00	 0.00000000E+00	 1.99189000E-04	 0.00000000E+00	 1.98692000E-04	 0.00000000E+00	 0.00000000E+00	 3.35967000E-04	 0.00000000E+00	 0.00000000E+00	 4.47138000E-03	 0.00000000E+00	 1.18040000E-02
		-2.72343000E-03	-5.19819000E-03	 7.92162000E-03	-1.40276000E-03	-1.80815000E-03	-1.95313000E-03	 8.31876000E+00	 3.04386000E+01	 0.00000000E+00	 0.00000000E+00	 0.00000000E+00	 0.00000000E+00	 0.00000000E+00	 7.16355000E+00	 0.00000000E+00	 7.35330000E+00	 0.00000000E+00	 0.00000000E+00	 6.21400000E+00	 0.00000000E+00	 0.00000000E+00	 3.93653000E+01	 0.00000000E+00	 4.84630000E+01	 3.33811000E+01	 9.14949000E+01	 0.00000000E+00	 0.00000000E+00	 0.00000000E+00	 0.00000000E+00	 0.00000000E+00	 2.91987000E+01	 0.00000000E+00	 2.98971000E+01	 0.00000000E+00	 0.00000000E+00	 2.33481000E+01	 0.00000000E+00	 0.00000000E+00	 7.78639000E+01	 0.00000000E+00	 9.96567000E+01	 2.21680000E-04	 9.95268000E-04	 0.00000000E+00	 0.00000000E+00	 0.00000000E+00	 0.00000000E+00	 0.00000000E+00	 1.89155000E-04	 0.00000000E+00	 1.94448000E-04	 0.00000000E+00	 0.00000000E+00	 3.36473000E-04	 0.00000000E+00	 0.00000000E+00	 4.39619000E-03	 0.00000000E+00	 1.15932000E-02
		-2.69780000E-03	-5.15731000E-03	 7.85511000E-03	-1.39061000E-03	-1.79604000E-03	-1.94160000E-03	 8.27370000E+00	 3.00625000E+01	 0.00000000E+00	 0.00000000E+00	 0.00000000E+00	 0.00000000E+00	 0.00000000E+00	 6.98643000E+00	 0.00000000E+00	 7.17126000E+00	 0.00000000E+00	 0.00000000E+00	 6.17614000E+00	 0.00000000E+00	 0.00000000E+00	 3.92862000E+01	 0.00000000E+00	 4.84304000E+01	 3.32220000E+01	 9.07875000E+01	 0.00000000E+00	 0.00000000E+00	 0.00000000E+00	 0.00000000E+00	 0.00000000E+00	 2.85447000E+01	 0.00000000E+00	 2.92292000E+01	 0.00000000E+00	 0.00000000E+00	 2.32330000E+01	 0.00000000E+00	 0.00000000E+00	 7.77449000E+01	 0.00000000E+00	 9.94614000E+01	 2.20393000E-04	 9.79067000E-04	 0.00000000E+00	 0.00000000E+00	 0.00000000E+00	 0.00000000E+00	 0.00000000E+00	 1.84225000E-04	 0.00000000E+00	 1.89362000E-04	 0.00000000E+00	 0.00000000E+00	 3.34227000E-04	 0.00000000E+00	 0.00000000E+00	 4.37028000E-03	 0.00000000E+00	 1.14980000E-02
		-2.75020000E-03	-5.26212000E-03	 8.01232000E-03	-1.40668000E-03	-1.83526000E-03	-1.98209000E-03	 8.32238000E+00	 3.04712000E+01	 0.00000000E+00	 0.00000000E+00	 0.00000000E+00	 0.00000000E+00	 0.00000000E+00	 6.99714000E+00	 0.00000000E+00	 7.51552000E+00	 0.00000000E+00	 0.00000000E+00	 6.38151000E+00	 0.00000000E+00	 0.00000000E+00	 3.96130000E+01	 0.00000000E+00	 4.84980000E+01	 3.33929000E+01	 9.15525000E+01	 0.00000000E+00	 0.00000000E+00	 0.00000000E+00	 0.00000000E+00	 0.00000000E+00	 2.85845000E+01	 0.00000000E+00	 3.04872000E+01	 0.00000000E+00	 0.00000000E+00	 2.38641000E+01	 0.00000000E+00	 0.00000000E+00	 7.82274000E+01	 0.00000000E+00	 9.98855000E+01	 2.21787000E-04	 9.96742000E-04	 0.00000000E+00	 0.00000000E+00	 0.00000000E+00	 0.00000000E+00	 0.00000000E+00	 1.84522000E-04	 0.00000000E+00	 1.99003000E-04	 0.00000000E+00	 0.00000000E+00	 3.46348000E-04	 0.00000000E+00	 0.00000000E+00	 4.47923000E-03	 0.00000000E+00	 1.17085000E-02
		-2.74596000E-03	-5.23766000E-03	 7.98362000E-03	-1.41478000E-03	-1.82212000E-03	-1.96571000E-03	 8.34891000E+00	 3.06718000E+01	 0.00000000E+00	 0.00000000E+00	 0.00000000E+00	 0.00000000E+00	 0.00000000E+00	 7.27284000E+00	 0.00000000E+00	 7.47769000E+00	 0.00000000E+00	 0.00000000E+00	 6.28444000E+00	 0.00000000E+00	 0.00000000E+00	 3.94515000E+01	 0.00000000E+00	 4.84906000E+01	 3.34893000E+01	 9.19317000E+01	 0.00000000E+00	 0.00000000E+00	 0.00000000E+00	 0.00000000E+00	 0.00000000E+00	 2.96023000E+01	 0.00000000E+00	 3.03520000E+01	 0.00000000E+00	 0.00000000E+00	 2.35645000E+01	 0.00000000E+00	 0.00000000E+00	 7.79820000E+01	 0.00000000E+00	 9.98347000E+01	 2.22532000E-04	 1.00531000E-03	 0.00000000E+00	 0.00000000E+00	 0.00000000E+00	 0.00000000E+00	 0.00000000E+00	 1.92198000E-04	 0.00000000E+00	 1.97930000E-04	 0.00000000E+00	 0.00000000E+00	 3.40632000E-04	 0.00000000E+00	 0.00000000E+00	 4.42347000E-03	 0.00000000E+00	 1.16851000E-02
		-2.77362000E-03	-5.28991000E-03	 8.06353000E-03	-1.43035000E-03	-1.84046000E-03	-1.98354000E-03	 8.41338000E+00	 3.09124000E+01	 0.00000000E+00	 0.00000000E+00	 0.00000000E+00	 0.00000000E+00	 0.00000000E+00	 7.34537000E+00	 0.00000000E+00	 7.62770000E+00	 0.00000000E+00	 0.00000000E+00	 6.32737000E+00	 0.00000000E+00	 0.00000000E+00	 3.95698000E+01	 0.00000000E+00	 4.85284000E+01	 3.37168000E+01	 9.23725000E+01	 0.00000000E+00	 0.00000000E+00	 0.00000000E+00	 0.00000000E+00	 0.00000000E+00	 2.98680000E+01	 0.00000000E+00	 3.08949000E+01	 0.00000000E+00	 0.00000000E+00	 2.36950000E+01	 0.00000000E+00	 0.00000000E+00	 7.81588000E+01	 0.00000000E+00	 1.00075000E+02	 2.24374000E-04	 1.01591000E-03	 0.00000000E+00	 0.00000000E+00	 0.00000000E+00	 0.00000000E+00	 0.00000000E+00	 1.94225000E-04	 0.00000000E+00	 2.02153000E-04	 0.00000000E+00	 0.00000000E+00	 3.43177000E-04	 0.00000000E+00	 0.00000000E+00	 4.46268000E-03	 0.00000000E+00	 1.18051000E-02
		-2.74595000E-03	-5.23764000E-03	 7.98359000E-03	-1.41476000E-03	-1.82211000E-03	-1.96571000E-03	 8.34888000E+00	 3.06718000E+01	 0.00000000E+00	 0.00000000E+00	 0.00000000E+00	 0.00000000E+00	 0.00000000E+00	 7.27280000E+00	 0.00000000E+00	 7.47770000E+00	 0.00000000E+00	 0.00000000E+00	 6.28447000E+00	 0.00000000E+00	 0.00000000E+00	 3.94516000E+01	 0.00000000E+00	 4.84906000E+01	 3.34892000E+01	 9.19317000E+01	 0.00000000E+00	 0.00000000E+00	 0.00000000E+00	 0.00000000E+00	 0.00000000E+00	 2.96021000E+01	 0.00000000E+00	 3.03520000E+01	 0.00000000E+00	 0.00000000E+00	 2.35646000E+01	 0.00000000E+00	 0.00000000E+00	 7.79821000E+01	 0.00000000E+00	 9.98346000E+01	 2.22531000E-04	 1.00531000E-03	 0.00000000E+00	 0.00000000E+00	 0.00000000E+00	 0.00000000E+00	 0.00000000E+00	 1.92196000E-04	 0.00000000E+00	 1.97930000E-04	 0.00000000E+00	 0.00000000E+00	 3.40633000E-04	 0.00000000E+00	 0.00000000E+00	 4.42348000E-03	 0.00000000E+00	 1.16851000E-02
		-2.72183000E-03	-5.19751000E-03	 7.91934000E-03	-1.40274000E-03	-1.80794000E-03	-1.95408000E-03	 8.32081000E+00	 3.03780000E+01	 0.00000000E+00	 0.00000000E+00	 0.00000000E+00	 0.00000000E+00	 0.00000000E+00	 7.16291000E+00	 0.00000000E+00	 7.28640000E+00	 0.00000000E+00	 0.00000000E+00	 6.20785000E+00	 0.00000000E+00	 0.00000000E+00	 3.93745000E+01	 0.00000000E+00	 4.84644000E+01	 3.33900000E+01	 9.13858000E+01	 0.00000000E+00	 0.00000000E+00	 0.00000000E+00	 0.00000000E+00	 0.00000000E+00	 2.91984000E+01	 0.00000000E+00	 2.96523000E+01	 0.00000000E+00	 0.00000000E+00	 2.33296000E+01	 0.00000000E+00	 0.00000000E+00	 7.78735000E+01	 0.00000000E+00	 9.96540000E+01	 2.21731000E-04	 9.92578000E-04	 0.00000000E+00	 0.00000000E+00	 0.00000000E+00	 0.00000000E+00	 0.00000000E+00	 1.89128000E-04	 0.00000000E+00	 1.92577000E-04	 0.00000000E+00	 0.00000000E+00	 3.36108000E-04	 0.00000000E+00	 0.00000000E+00	 4.39793000E-03	 0.00000000E+00	 1.15910000E-02
		-2.75198000E-03	-5.27348000E-03	 8.02546000E-03	-1.41017000E-03	-1.84160000E-03	-1.98866000E-03	 8.34323000E+00	 3.03241000E+01	 0.00000000E+00	 0.00000000E+00	 0.00000000E+00	 0.00000000E+00	 0.00000000E+00	 6.89429000E+00	 0.00000000E+00	 7.46991000E+00	 0.00000000E+00	 0.00000000E+00	 6.38902000E+00	 0.00000000E+00	 0.00000000E+00	 3.96548000E+01	 0.00000000E+00	 4.85052000E+01	 3.34670000E+01	 9.12766000E+01	 0.00000000E+00	 0.00000000E+00	 0.00000000E+00	 0.00000000E+00	 0.00000000E+00	 2.82032000E+01	 0.00000000E+00	 3.03203000E+01	 0.00000000E+00	 0.00000000E+00	 2.38867000E+01	 0.00000000E+00	 0.00000000E+00	 7.82880000E+01	 0.00000000E+00	 9.99339000E+01	 2.22380000E-04	 9.90400000E-04	 0.00000000E+00	 0.00000000E+00	 0.00000000E+00	 0.00000000E+00	 0.00000000E+00	 1.81665000E-04	 0.00000000E+00	 1.97727000E-04	 0.00000000E+00	 0.00000000E+00	 3.46794000E-04	 0.00000000E+00	 0.00000000E+00	 4.49302000E-03	 0.00000000E+00	 1.17332000E-02
		-2.69781000E-03	-5.15731000E-03	 7.85512000E-03	-1.39063000E-03	-1.79604000E-03	-1.94160000E-03	 8.27373000E+00	 3.00625000E+01	 0.00000000E+00	 0.00000000E+00	 0.00000000E+00	 0.00000000E+00	 0.00000000E+00	 6.98652000E+00	 0.00000000E+00	 7.17126000E+00	 0.00000000E+00	 0.00000000E+00	 6.17610000E+00	 0.00000000E+00	 0.00000000E+00	 3.92861000E+01	 0.00000000E+00	 4.84304000E+01	 3.32221000E+01	 9.07876000E+01	 0.00000000E+00	 0.00000000E+00	 0.00000000E+00	 0.00000000E+00	 0.00000000E+00	 2.85450000E+01	 0.00000000E+00	 2.92292000E+01	 0.00000000E+00	 0.00000000E+00	 2.32329000E+01	 0.00000000E+00	 0.00000000E+00	 7.77448000E+01	 0.00000000E+00	 9.94615000E+01	 2.20394000E-04	 9.79067000E-04	 0.00000000E+00	 0.00000000E+00	 0.00000000E+00	 0.00000000E+00	 0.00000000E+00	 1.84227000E-04	 0.00000000E+00	 1.89362000E-04	 0.00000000E+00	 0.00000000E+00	 3.34224000E-04	 0.00000000E+00	 0.00000000E+00	 4.37025000E-03	 0.00000000E+00	 1.14981000E-02
		-2.72184000E-03	-5.19752000E-03	 7.91936000E-03	-1.40276000E-03	-1.80795000E-03	-1.95408000E-03	 8.32083000E+00	 3.03780000E+01	 0.00000000E+00	 0.00000000E+00	 0.00000000E+00	 0.00000000E+00	 0.00000000E+00	 7.16299000E+00	 0.00000000E+00	 7.28639000E+00	 0.00000000E+00	 0.00000000E+00	 6.20780000E+00	 0.00000000E+00	 0.00000000E+00	 3.93744000E+01	 0.00000000E+00	 4.84645000E+01	 3.33901000E+01	 9.13858000E+01	 0.00000000E+00	 0.00000000E+00	 0.00000000E+00	 0.00000000E+00	 0.00000000E+00	 2.91987000E+01	 0.00000000E+00	 2.96523000E+01	 0.00000000E+00	 0.00000000E+00	 2.33294000E+01	 0.00000000E+00	 0.00000000E+00	 7.78733000E+01	 0.00000000E+00	 9.96541000E+01	 2.21731000E-04	 9.92578000E-04	 0.00000000E+00	 0.00000000E+00	 0.00000000E+00	 0.00000000E+00	 0.00000000E+00	 1.89131000E-04	 0.00000000E+00	 1.92576000E-04	 0.00000000E+00	 0.00000000E+00	 3.36105000E-04	 0.00000000E+00	 0.00000000E+00	 4.39791000E-03	 0.00000000E+00	 1.15911000E-02
		-2.75198000E-03	-5.27348000E-03	 8.02546000E-03	-1.41016000E-03	-1.84160000E-03	-1.98867000E-03	 8.34322000E+00	 3.03240000E+01	 0.00000000E+00	 0.00000000E+00	 0.00000000E+00	 0.00000000E+00	 0.00000000E+00	 6.89426000E+00	 0.00000000E+00	 7.46990000E+00	 0.00000000E+00	 0.00000000E+00	 6.38902000E+00	 0.00000000E+00	 0.00000000E+00	 3.96549000E+01	 0.00000000E+00	 4.85052000E+01	 3.34670000E+01	 9.12766000E+01	 0.00000000E+00	 0.00000000E+00	 0.00000000E+00	 0.00000000E+00	 0.00000000E+00	 2.82031000E+01	 0.00000000E+00	 3.03202000E+01	 0.00000000E+00	 0.00000000E+00	 2.38867000E+01	 0.00000000E+00	 0.00000000E+00	 7.82881000E+01	 0.00000000E+00	 9.99338000E+01	 2.22380000E-04	 9.90400000E-04	 0.00000000E+00	 0.00000000E+00	 0.00000000E+00	 0.00000000E+00	 0.00000000E+00	 1.81664000E-04	 0.00000000E+00	 1.97726000E-04	 0.00000000E+00	 0.00000000E+00	 3.46794000E-04	 0.00000000E+00	 0.00000000E+00	 4.49304000E-03	 0.00000000E+00	 1.17332000E-02
		-2.77363000E-03	-5.28992000E-03	 8.06355000E-03	-1.43036000E-03	-1.84046000E-03	-1.98355000E-03	 8.41340000E+00	 3.09124000E+01	 0.00000000E+00	 0.00000000E+00	 0.00000000E+00	 0.00000000E+00	 0.00000000E+00	 7.34534000E+00	 0.00000000E+00	 7.62768000E+00	 0.00000000E+00	 0.00000000E+00	 6.32738000E+00	 0.00000000E+00	 0.00000000E+00	 3.95698000E+01	 0.00000000E+00	 4.85284000E+01	 3.37169000E+01	 9.23723000E+01	 0.00000000E+00	 0.00000000E+00	 0.00000000E+00	 0.00000000E+00	 0.00000000E+00	 2.98679000E+01	 0.00000000E+00	 3.08949000E+01	 0.00000000E+00	 0.00000000E+00	 2.36951000E+01	 0.00000000E+00	 0.00000000E+00	 7.81589000E+01	 0.00000000E+00	 1.00075000E+02	 2.24375000E-04	 1.01590000E-03	 0.00000000E+00	 0.00000000E+00	 0.00000000E+00	 0.00000000E+00	 0.00000000E+00	 1.94224000E-04	 0.00000000E+00	 2.02153000E-04	 0.00000000E+00	 0.00000000E+00	 3.43178000E-04	 0.00000000E+00	 0.00000000E+00	 4.46269000E-03	 0.00000000E+00	 1.18052000E-02
		-2.80146000E-03	-5.34388000E-03	 8.14534000E-03	-1.44476000E-03	-1.85517000E-03	-2.00391000E-03	 8.50929000E+00	 3.11894000E+01	 0.00000000E+00	 0.00000000E+00	 0.00000000E+00	 0.00000000E+00	 0.00000000E+00	 7.51459000E+00	 0.00000000E+00	 7.66060000E+00	 0.00000000E+00	 0.00000000E+00	 6.28610000E+00	 0.00000000E+00	 0.00000000E+00	 3.97078000E+01	 0.00000000E+00	 4.85567000E+01	 3.40552000E+01	 9.28741000E+01	 0.00000000E+00	 0.00000000E+00	 0.00000000E+00	 0.00000000E+00	 0.00000000E+00	 3.04887000E+01	 0.00000000E+00	 3.10127000E+01	 0.00000000E+00	 0.00000000E+00	 2.35656000E+01	 0.00000000E+00	 0.00000000E+00	 7.83618000E+01	 0.00000000E+00	 1.00296000E+02	 2.27113000E-04	 1.02814000E-03	 0.00000000E+00	 0.00000000E+00	 0.00000000E+00	 0.00000000E+00	 0.00000000E+00	 1.98954000E-04	 0.00000000E+00	 2.03085000E-04	 0.00000000E+00	 0.00000000E+00	 3.40761000E-04	 0.00000000E+00	 0.00000000E+00	 4.51046000E-03	 0.00000000E+00	 1.19231000E-02
		-2.75020000E-03	-5.26212000E-03	 8.01232000E-03	-1.40668000E-03	-1.83526000E-03	-1.98209000E-03	 8.32240000E+00	 3.04712000E+01	 0.00000000E+00	 0.00000000E+00	 0.00000000E+00	 0.00000000E+00	 0.00000000E+00	 6.99718000E+00	 0.00000000E+00	 7.51548000E+00	 0.00000000E+00	 0.00000000E+00	 6.38147000E+00	 0.00000000E+00	 0.00000000E+00	 3.96130000E+01	 0.00000000E+00	 4.84980000E+01	 3.33930000E+01	 9.15526000E+01	 0.00000000E+00	 0.00000000E+00	 0.00000000E+00	 0.00000000E+00	 0.00000000E+00	 2.85846000E+01	 0.00000000E+00	 3.04870000E+01	 0.00000000E+00	 0.00000000E+00	 2.38640000E+01	 0.00000000E+00	 0.00000000E+00	 7.82274000E+01	 0.00000000E+00	 9.98855000E+01	 2.21788000E-04	 9.96744000E-04	 0.00000000E+00	 0.00000000E+00	 0.00000000E+00	 0.00000000E+00	 0.00000000E+00	 1.84523000E-04	 0.00000000E+00	 1.99002000E-04	 0.00000000E+00	 0.00000000E+00	 3.46346000E-04	 0.00000000E+00	 0.00000000E+00	 4.47924000E-03	 0.00000000E+00	 1.17085000E-02
		-2.72344000E-03	-5.19820000E-03	 7.92164000E-03	-1.40278000E-03	-1.80815000E-03	-1.95313000E-03	 8.31878000E+00	 3.04386000E+01	 0.00000000E+00	 0.00000000E+00	 0.00000000E+00	 0.00000000E+00	 0.00000000E+00	 7.16361000E+00	 0.00000000E+00	 7.35333000E+00	 0.00000000E+00	 0.00000000E+00	 6.21400000E+00	 0.00000000E+00	 0.00000000E+00	 3.93652000E+01	 0.00000000E+00	 4.84630000E+01	 3.33812000E+01	 9.14950000E+01	 0.00000000E+00	 0.00000000E+00	 0.00000000E+00	 0.00000000E+00	 0.00000000E+00	 2.91989000E+01	 0.00000000E+00	 2.98972000E+01	 0.00000000E+00	 0.00000000E+00	 2.33481000E+01	 0.00000000E+00	 0.00000000E+00	 7.78638000E+01	 0.00000000E+00	 9.96569000E+01	 2.21680000E-04	 9.95269000E-04	 0.00000000E+00	 0.00000000E+00	 0.00000000E+00	 0.00000000E+00	 0.00000000E+00	 1.89157000E-04	 0.00000000E+00	 1.94449000E-04	 0.00000000E+00	 0.00000000E+00	 3.36473000E-04	 0.00000000E+00	 0.00000000E+00	 4.39616000E-03	 0.00000000E+00	 1.15933000E-02
		-2.74953000E-03	-5.24071000E-03	 7.99024000E-03	-1.41364000E-03	-1.81643000E-03	-1.96690000E-03	 8.39363000E+00	 3.08608000E+01	 0.00000000E+00	 0.00000000E+00	 0.00000000E+00	 0.00000000E+00	 0.00000000E+00	 7.45033000E+00	 0.00000000E+00	 7.42788000E+00	 0.00000000E+00	 0.00000000E+00	 6.16925000E+00	 0.00000000E+00	 0.00000000E+00	 3.94651000E+01	 0.00000000E+00	 4.84865000E+01	 3.36461000E+01	 9.22737000E+01	 0.00000000E+00	 0.00000000E+00	 0.00000000E+00	 0.00000000E+00	 0.00000000E+00	 3.02510000E+01	 0.00000000E+00	 3.01693000E+01	 0.00000000E+00	 0.00000000E+00	 2.32059000E+01	 0.00000000E+00	 0.00000000E+00	 7.80087000E+01	 0.00000000E+00	 9.98333000E+01	 2.23814000E-04	 1.01368000E-03	 0.00000000E+00	 0.00000000E+00	 0.00000000E+00	 0.00000000E+00	 0.00000000E+00	 1.97167000E-04	 0.00000000E+00	 1.96538000E-04	 0.00000000E+00	 0.00000000E+00	 3.33873000E-04	 0.00000000E+00	 0.00000000E+00	 4.43031000E-03	 0.00000000E+00	 1.16862000E-02
		-2.77556000E-03	-5.29230000E-03	 8.06786000E-03	-1.42924000E-03	-1.83452000E-03	-1.98578000E-03	 8.46096000E+00	 3.10391000E+01	 0.00000000E+00	 0.00000000E+00	 0.00000000E+00	 0.00000000E+00	 0.00000000E+00	 7.52267000E+00	 0.00000000E+00	 7.50453000E+00	 0.00000000E+00	 0.00000000E+00	 6.20487000E+00	 0.00000000E+00	 0.00000000E+00	 3.95924000E+01	 0.00000000E+00	 4.85257000E+01	 3.38849000E+01	 9.26026000E+01	 0.00000000E+00	 0.00000000E+00	 0.00000000E+00	 0.00000000E+00	 0.00000000E+00	 3.05166000E+01	 0.00000000E+00	 3.04476000E+01	 0.00000000E+00	 0.00000000E+00	 2.33159000E+01	 0.00000000E+00	 0.00000000E+00	 7.81952000E+01	 0.00000000E+00	 1.00071000E+02	 2.25732000E-04	 1.02150000E-03	 0.00000000E+00	 0.00000000E+00	 0.00000000E+00	 0.00000000E+00	 0.00000000E+00	 1.99187000E-04	 0.00000000E+00	 1.98692000E-04	 0.00000000E+00	 0.00000000E+00	 3.35970000E-04	 0.00000000E+00	 0.00000000E+00	 4.47138000E-03	 0.00000000E+00	 1.18040000E-02
