# vtk DataFile Version 3.0

ASCII
DATASET UNSTRUCTURED_GRID

POINTS 1156 double
	 5.00000000E-01	 0.00000000E+00	 2.50000000E-01
	 5.00000000E-01	 0.00000000E+00	 0.00000000E+00
	 4.99732000E-01	 1.63595000E-02	 0.00000000E+00
	 4.99732000E-01	 1.63595000E-02	 2.50000000E-01
	 5.15625000E-01	 0.00000000E+00	 2.50000000E-01
	 5.15625000E-01	 0.00000000E+00	 0.00000000E+00
	 5.15349000E-01	 1.68708000E-02	 0.00000000E+00
	 5.15349000E-01	 1.68708000E-02	 2.50000000E-01
	 4.98929000E-01	 3.27016000E-02	 0.00000000E+00
	 4.98929000E-01	 3.27016000E-02	 2.50000000E-01
	 5.14521000E-01	 3.37235000E-02	 0.00000000E+00
	 5.14521000E-01	 3.37235000E-02	 2.50000000E-01
	 4.97592000E-01	 4.90086000E-02	 0.00000000E+00
	 4.97592000E-01	 4.90086000E-02	 2.50000000E-01
	 5.13142000E-01	 5.05401000E-02	 0.00000000E+00
	 5.13142000E-01	 5.05401000E-02	 2.50000000E-01
	 4.95722000E-01	 6.52631000E-02	 0.00000000E+00
	 4.95722000E-01	 6.52631000E-02	 2.50000000E-01
	 5.11213000E-01	 6.73026000E-02	 0.00000000E+00
	 5.11213000E-01	 6.73026000E-02	 2.50000000E-01
	 4.93321000E-01	 8.14478000E-02	 0.00000000E+00
	 4.93321000E-01	 8.14478000E-02	 2.50000000E-01
	 5.08737000E-01	 8.39930000E-02	 0.00000000E+00
	 5.08737000E-01	 8.39930000E-02	 2.50000000E-01
	 4.90392000E-01	 9.75452000E-02	 0.00000000E+00
	 4.90392000E-01	 9.75452000E-02	 2.50000000E-01
	 5.05717000E-01	 1.00593000E-01	 0.00000000E+00
	 5.05717000E-01	 1.00593000E-01	 2.50000000E-01
	 4.86937000E-01	 1.13538000E-01	 0.00000000E+00
	 4.86937000E-01	 1.13538000E-01	 2.50000000E-01
	 5.02154000E-01	 1.17086000E-01	 0.00000000E+00
	 5.02154000E-01	 1.17086000E-01	 2.50000000E-01
	 4.82962000E-01	 1.29410000E-01	 0.00000000E+00
	 4.82962000E-01	 1.29410000E-01	 2.50000000E-01
	 4.98054000E-01	 1.33454000E-01	 0.00000000E+00
	 4.98054000E-01	 1.33454000E-01	 2.50000000E-01
	 4.78469000E-01	 1.45142000E-01	 0.00000000E+00
	 4.78469000E-01	 1.45142000E-01	 2.50000000E-01
	 4.93421000E-01	 1.49678000E-01	 0.00000000E+00
	 4.93421000E-01	 1.49678000E-01	 2.50000000E-01
	 4.73464000E-01	 1.60720000E-01	 0.00000000E+00
	 4.73464000E-01	 1.60720000E-01	 2.50000000E-01
	 4.88259000E-01	 1.65742000E-01	 0.00000000E+00
	 4.88259000E-01	 1.65742000E-01	 2.50000000E-01
	 4.67951000E-01	 1.76125000E-01	 0.00000000E+00
	 4.67951000E-01	 1.76125000E-01	 2.50000000E-01
	 4.82575000E-01	 1.81629000E-01	 0.00000000E+00
	 4.82575000E-01	 1.81629000E-01	 2.50000000E-01
	 4.61938000E-01	 1.91342000E-01	 0.00000000E+00
	 4.61938000E-01	 1.91342000E-01	 2.50000000E-01
	 4.76374000E-01	 1.97321000E-01	 0.00000000E+00
	 4.76374000E-01	 1.97321000E-01	 2.50000000E-01
	 4.55430000E-01	 2.06354000E-01	 0.00000000E+00
	 4.55430000E-01	 2.06354000E-01	 2.50000000E-01
	 4.69662000E-01	 2.12802000E-01	 0.00000000E+00
	 4.69662000E-01	 2.12802000E-01	 2.50000000E-01
	 4.48434000E-01	 2.21144000E-01	 0.00000000E+00
	 4.48434000E-01	 2.21144000E-01	 2.50000000E-01
	 4.62448000E-01	 2.28055000E-01	 0.00000000E+00
	 4.62448000E-01	 2.28055000E-01	 2.50000000E-01
	 4.40958000E-01	 2.35698000E-01	 0.00000000E+00
	 4.40958000E-01	 2.35698000E-01	 2.50000000E-01
	 4.54738000E-01	 2.43064000E-01	 0.00000000E+00
	 4.54738000E-01	 2.43064000E-01	 2.50000000E-01
	 4.33010000E-01	 2.50000000E-01	 0.00000000E+00
	 4.33010000E-01	 2.50000000E-01	 2.50000000E-01
	 4.46542000E-01	 2.57812000E-01	 0.00000000E+00
	 4.46542000E-01	 2.57812000E-01	 2.50000000E-01
	 5.31250000E-01	 0.00000000E+00	 2.50000000E-01
	 5.31250000E-01	 0.00000000E+00	 0.00000000E+00
	 5.30965000E-01	 1.73820000E-02	 0.00000000E+00
	 5.30965000E-01	 1.73820000E-02	 2.50000000E-01
	 5.30112000E-01	 3.47454000E-02	 0.00000000E+00
	 5.30112000E-01	 3.47454000E-02	 2.50000000E-01
	 5.28692000E-01	 5.20716000E-02	 0.00000000E+00
	 5.28692000E-01	 5.20716000E-02	 2.50000000E-01
	 5.26705000E-01	 6.93421000E-02	 0.00000000E+00
	 5.26705000E-01	 6.93421000E-02	 2.50000000E-01
	 5.24154000E-01	 8.65382000E-02	 0.00000000E+00
	 5.24154000E-01	 8.65382000E-02	 2.50000000E-01
	 5.21041000E-01	 1.03642000E-01	 0.00000000E+00
	 5.21041000E-01	 1.03642000E-01	 2.50000000E-01
	 5.17371000E-01	 1.20634000E-01	 0.00000000E+00
	 5.17371000E-01	 1.20634000E-01	 2.50000000E-01
	 5.13147000E-01	 1.37498000E-01	 0.00000000E+00
	 5.13147000E-01	 1.37498000E-01	 2.50000000E-01
	 5.08373000E-01	 1.54214000E-01	 0.00000000E+00
	 5.08373000E-01	 1.54214000E-01	 2.50000000E-01
	 5.03055000E-01	 1.70765000E-01	 0.00000000E+00
	 5.03055000E-01	 1.70765000E-01	 2.50000000E-01
	 4.97199000E-01	 1.87133000E-01	 0.00000000E+00
	 4.97199000E-01	 1.87133000E-01	 2.50000000E-01
	 4.90809000E-01	 2.03301000E-01	 0.00000000E+00
	 4.90809000E-01	 2.03301000E-01	 2.50000000E-01
	 4.83895000E-01	 2.19251000E-01	 0.00000000E+00
	 4.83895000E-01	 2.19251000E-01	 2.50000000E-01
	 4.76462000E-01	 2.34966000E-01	 0.00000000E+00
	 4.76462000E-01	 2.34966000E-01	 2.50000000E-01
	 4.68519000E-01	 2.50430000E-01	 0.00000000E+00
	 4.68519000E-01	 2.50430000E-01	 2.50000000E-01
	 4.60074000E-01	 2.65625000E-01	 0.00000000E+00
	 4.60074000E-01	 2.65625000E-01	 2.50000000E-01
	 5.46875000E-01	 0.00000000E+00	 2.50000000E-01
	 5.46875000E-01	 0.00000000E+00	 0.00000000E+00
	 5.46582000E-01	 1.78933000E-02	 0.00000000E+00
	 5.46582000E-01	 1.78933000E-02	 2.50000000E-01
	 5.45704000E-01	 3.57673000E-02	 0.00000000E+00
	 5.45704000E-01	 3.57673000E-02	 2.50000000E-01
	 5.44241000E-01	 5.36031000E-02	 0.00000000E+00
	 5.44241000E-01	 5.36031000E-02	 2.50000000E-01
	 5.42196000E-01	 7.13815000E-02	 0.00000000E+00
	 5.42196000E-01	 7.13815000E-02	 2.50000000E-01
	 5.39570000E-01	 8.90835000E-02	 0.00000000E+00
	 5.39570000E-01	 8.90835000E-02	 2.50000000E-01
	 5.36366000E-01	 1.06690000E-01	 0.00000000E+00
	 5.36366000E-01	 1.06690000E-01	 2.50000000E-01
	 5.32588000E-01	 1.24182000E-01	 0.00000000E+00
	 5.32588000E-01	 1.24182000E-01	 2.50000000E-01
	 5.28240000E-01	 1.41542000E-01	 0.00000000E+00
	 5.28240000E-01	 1.41542000E-01	 2.50000000E-01
	 5.23326000E-01	 1.58749000E-01	 0.00000000E+00
	 5.23326000E-01	 1.58749000E-01	 2.50000000E-01
	 5.17851000E-01	 1.75787000E-01	 0.00000000E+00
	 5.17851000E-01	 1.75787000E-01	 2.50000000E-01
	 5.11822000E-01	 1.92637000E-01	 0.00000000E+00
	 5.11822000E-01	 1.92637000E-01	 2.50000000E-01
	 5.05245000E-01	 2.09280000E-01	 0.00000000E+00
	 5.05245000E-01	 2.09280000E-01	 2.50000000E-01
	 4.98127000E-01	 2.25699000E-01	 0.00000000E+00
	 4.98127000E-01	 2.25699000E-01	 2.50000000E-01
	 4.90476000E-01	 2.41877000E-01	 0.00000000E+00
	 4.90476000E-01	 2.41877000E-01	 2.50000000E-01
	 4.82299000E-01	 2.57795000E-01	 0.00000000E+00
	 4.82299000E-01	 2.57795000E-01	 2.50000000E-01
	 4.73606000E-01	 2.73438000E-01	 0.00000000E+00
	 4.73606000E-01	 2.73438000E-01	 2.50000000E-01
	 5.62500000E-01	 0.00000000E+00	 2.50000000E-01
	 5.62500000E-01	 0.00000000E+00	 0.00000000E+00
	 5.62199000E-01	 1.84045000E-02	 0.00000000E+00
	 5.62199000E-01	 1.84045000E-02	 2.50000000E-01
	 5.61295000E-01	 3.67893000E-02	 0.00000000E+00
	 5.61295000E-01	 3.67893000E-02	 2.50000000E-01
	 5.59791000E-01	 5.51346000E-02	 0.00000000E+00
	 5.59791000E-01	 5.51346000E-02	 2.50000000E-01
	 5.57687000E-01	 7.34210000E-02	 0.00000000E+00
	 5.57687000E-01	 7.34210000E-02	 2.50000000E-01
	 5.54986000E-01	 9.16287000E-02	 0.00000000E+00
	 5.54986000E-01	 9.16287000E-02	 2.50000000E-01
	 5.51691000E-01	 1.09738000E-01	 0.00000000E+00
	 5.51691000E-01	 1.09738000E-01	 2.50000000E-01
	 5.47805000E-01	 1.27730000E-01	 0.00000000E+00
	 5.47805000E-01	 1.27730000E-01	 2.50000000E-01
	 5.43332000E-01	 1.45586000E-01	 0.00000000E+00
	 5.43332000E-01	 1.45586000E-01	 2.50000000E-01
	 5.38278000E-01	 1.63285000E-01	 0.00000000E+00
	 5.38278000E-01	 1.63285000E-01	 2.50000000E-01
	 5.32647000E-01	 1.80810000E-01	 0.00000000E+00
	 5.32647000E-01	 1.80810000E-01	 2.50000000E-01
	 5.26446000E-01	 1.98141000E-01	 0.00000000E+00
	 5.26446000E-01	 1.98141000E-01	 2.50000000E-01
	 5.19681000E-01	 2.15259000E-01	 0.00000000E+00
	 5.19681000E-01	 2.15259000E-01	 2.50000000E-01
	 5.12359000E-01	 2.32148000E-01	 0.00000000E+00
	 5.12359000E-01	 2.32148000E-01	 2.50000000E-01
	 5.04489000E-01	 2.48787000E-01	 0.00000000E+00
	 5.04489000E-01	 2.48787000E-01	 2.50000000E-01
	 4.96079000E-01	 2.65161000E-01	 0.00000000E+00
	 4.96079000E-01	 2.65161000E-01	 2.50000000E-01
	 4.87137000E-01	 2.81250000E-01	 0.00000000E+00
	 4.87137000E-01	 2.81250000E-01	 2.50000000E-01
	 5.78125000E-01	 0.00000000E+00	 2.50000000E-01
	 5.78125000E-01	 0.00000000E+00	 0.00000000E+00
	 5.77815000E-01	 1.89157000E-02	 0.00000000E+00
	 5.77815000E-01	 1.89157000E-02	 2.50000000E-01
	 5.76887000E-01	 3.78112000E-02	 0.00000000E+00
	 5.76887000E-01	 3.78112000E-02	 2.50000000E-01
	 5.75341000E-01	 5.66662000E-02	 0.00000000E+00
	 5.75341000E-01	 5.66662000E-02	 2.50000000E-01
	 5.73179000E-01	 7.54605000E-02	 0.00000000E+00
	 5.73179000E-01	 7.54605000E-02	 2.50000000E-01
	 5.70403000E-01	 9.41739000E-02	 0.00000000E+00
	 5.70403000E-01	 9.41739000E-02	 2.50000000E-01
	 5.67016000E-01	 1.12787000E-01	 0.00000000E+00
	 5.67016000E-01	 1.12787000E-01	 2.50000000E-01
	 5.63022000E-01	 1.31278000E-01	 0.00000000E+00
	 5.63022000E-01	 1.31278000E-01	 2.50000000E-01
	 5.58425000E-01	 1.49630000E-01	 0.00000000E+00
	 5.58425000E-01	 1.49630000E-01	 2.50000000E-01
	 5.53230000E-01	 1.67821000E-01	 0.00000000E+00
	 5.53230000E-01	 1.67821000E-01	 2.50000000E-01
	 5.47443000E-01	 1.85832000E-01	 0.00000000E+00
	 5.47443000E-01	 1.85832000E-01	 2.50000000E-01
	 5.41070000E-01	 2.03645000E-01	 0.00000000E+00
	 5.41070000E-01	 2.03645000E-01	 2.50000000E-01
	 5.34117000E-01	 2.21239000E-01	 0.00000000E+00
	 5.34117000E-01	 2.21239000E-01	 2.50000000E-01
	 5.26592000E-01	 2.38596000E-01	 0.00000000E+00
	 5.26592000E-01	 2.38596000E-01	 2.50000000E-01
	 5.18503000E-01	 2.55698000E-01	 0.00000000E+00
	 5.18503000E-01	 2.55698000E-01	 2.50000000E-01
	 5.09859000E-01	 2.72526000E-01	 0.00000000E+00
	 5.09859000E-01	 2.72526000E-01	 2.50000000E-01
[...]
POINT_DATA 1156
FIELD U 1
	U 3 1156 double
		 0.00000000E+00	 0.00000000E+00	 0.00000000E+00
		 0.00000000E+00	 0.00000000E+00	 0.00000000E+00
		 0.00000000E+00	 0.00000000E+00	 0.00000000E+00
		 0.00000000E+00	 0.00000000E+00	 0.00000000E+00
		-2.33149000E-05	 0.00000000E+00	 0.00000000E+00
		-2.33149000E-05	 0.00000000E+00	 0.00000000E+00
		-2.33025000E-05	-7.62499000E-07	 0.00000000E+00
		-2.33025000E-05	-7.62498000E-07	 0.00000000E+00
		 0.00000000E+00	 0.00000000E+00	 0.00000000E+00
		 0.00000000E+00	 0.00000000E+00	 0.00000000E+00
		-2.32652000E-05	-1.52454000E-06	 0.00000000E+00
		-2.32652000E-05	-1.52454000E-06	 0.00000000E+00
		 0.00000000E+00	 0.00000000E+00	 0.00000000E+00
		 0.00000000E+00	 0.00000000E+00	 0.00000000E+00
		-2.32029000E-05	-2.28495000E-06	 0.00000000E+00
		-2.32029000E-05	-2.28495000E-06	 0.00000000E+00
		 0.00000000E+00	 0.00000000E+00	 0.00000000E+00
		 0.00000000E+00	 0.00000000E+00	 0.00000000E+00
		-2.31157000E-05	-3.04291000E-06	 0.00000000E+00
		-2.31157000E-05	-3.04291000E-06	 0.00000000E+00
		 0.00000000E+00	 0.00000000E+00	 0.00000000E+00
		 0.00000000E+00	 0.00000000E+00	 0.00000000E+00
		-2.30038000E-05	-3.79760000E-06	 0.00000000E+00
		-2.30038000E-05	-3.79760000E-06	 0.00000000E+00
		 0.00000000E+00	 0.00000000E+00	 0.00000000E+00
		 0.00000000E+00	 0.00000000E+00	 0.00000000E+00
		-2.28672000E-05	-4.54823000E-06	 0.00000000E+00
		-2.28672000E-05	-4.54823000E-06	 0.00000000E+00
		 0.00000000E+00	 0.00000000E+00	 0.00000000E+00
		 0.00000000E+00	 0.00000000E+00	 0.00000000E+00
		-2.27062000E-05	-5.29399000E-06	 0.00000000E+00
		-2.27062000E-05	-5.29399000E-06	 0.00000000E+00
		 0.00000000E+00	 0.00000000E+00	 0.00000000E+00
		 0.00000000E+00	 0.00000000E+00	 0.00000000E+00
		-2.25208000E-05	-6.03407000E-06	 0.00000000E+00
		-2.25208000E-05	-6.03407000E-06	 0.00000000E+00
		 0.00000000E+00	 0.00000000E+00	 0.00000000E+00
		 0.00000000E+00	 0.00000000E+00	 0.00000000E+00
		-2.23113000E-05	-6.76770000E-06	 0.00000000E+00
		-2.23113000E-05	-6.76770000E-06	 0.00000000E+00
		 0.00000000E+00	 0.00000000E+00	 0.00000000E+00
		 0.00000000E+00	 0.00000000E+00	 0.00000000E+00
		-2.20779000E-05	-7.49407000E-06	 0.00000000E+00
		-2.20779000E-05	-7.49407000E-06	 0.00000000E+00
		 0.00000000E+00	 0.00000000E+00	 0.00000000E+00
		 0.00000000E+00	 0.00000000E+00	 0.00000000E+00
		-2.18209000E-05	-8.21242000E-06	 0.00000000E+00
		-2.18209000E-05	-8.21242000E-06	 0.00000000E+00
		 0.00000000E+00	 0.00000000E+00	 0.00000000E+00
		 0.00000000E+00	 0.00000000E+00	 0.00000000E+00
		-2.15405000E-05	-8.92197000E-06	 0.00000000E+00
		-2.15405000E-05	-8.92197000E-06	 0.00000000E+00
		 0.00000000E+00	 0.00000000E+00	 0.00000000E+00
		 0.00000000E+00	 0.00000000E+00	 0.00000000E+00
		-2.12370000E-05	-9.62197000E-06	 0.00000000E+00
		-2.12371000E-05	-9.62197000E-06	 0.00000000E+00
		 0.00000000E+00	 0.00000000E+00	 0.00000000E+00
		 0.00000000E+00	 0.00000000E+00	 0.00000000E+00
		-2.09108000E-05	-1.03117000E-05	 0.00000000E+00
		-2.09108000E-05	-1.03117000E-05	 0.00000000E+00
		 0.00000000E+00	 0.00000000E+00	 0.00000000E+00
		 0.00000000E+00	 0.00000000E+00	 0.00000000E+00
		-2.05622000E-05	-1.09903000E-05	 0.00000000E+00
		-2.05622000E-05	-1.09903000E-05	 0.00000000E+00
		 0.00000000E+00	 0.00000000E+00	 0.00000000E+00
		 0.00000000E+00	 0.00000000E+00	 0.00000000E+00
		-2.01914000E-05	-1.16571000E-05	 0.00000000E+00
		-2.01914000E-05	-1.16571000E-05	 0.00000000E+00
		-4.59533000E-05	 0.00000000E+00	 0.00000000E+00
		-4.59533000E-05	 0.00000000E+00	 0.00000000E+00
		-4.59289000E-05	-1.50285000E-06	 0.00000000E+00
		-4.59289000E-05	-1.50284000E-06	 0.00000000E+00
		-4.58553000E-05	-3.00483000E-06	 0.00000000E+00
		-4.58553000E-05	-3.00483000E-06	 0.00000000E+00
		-4.57325000E-05	-4.50359000E-06	 0.00000000E+00
		-4.57325000E-05	-4.50359000E-06	 0.00000000E+00
		-4.55607000E-05	-5.99751000E-06	 0.00000000E+00
		-4.55607000E-05	-5.99751000E-06	 0.00000000E+00
		-4.53401000E-05	-7.48501000E-06	 0.00000000E+00
		-4.53401000E-05	-7.48501000E-06	 0.00000000E+00
		-4.50709000E-05	-8.96449000E-06	 0.00000000E+00
		-4.50709000E-05	-8.96449000E-06	 0.00000000E+00
		-4.47535000E-05	-1.04344000E-05	 0.00000000E+00
		-4.47535000E-05	-1.04344000E-05	 0.00000000E+00
		-4.43881000E-05	-1.18931000E-05	 0.00000000E+00
		-4.43881000E-05	-1.18931000E-05	 0.00000000E+00
		-4.39752000E-05	-1.33390000E-05	 0.00000000E+00
		-4.39752000E-05	-1.33390000E-05	 0.00000000E+00
		-4.35153000E-05	-1.47707000E-05	 0.00000000E+00
		-4.35153000E-05	-1.47707000E-05	 0.00000000E+00
		-4.30087000E-05	-1.61866000E-05	 0.00000000E+00
		-4.30087000E-05	-1.61866000E-05	 0.00000000E+00
		-4.24560000E-05	-1.75851000E-05	 0.00000000E+00
		-4.24560000E-05	-1.75851000E-05	 0.00000000E+00
		-4.18579000E-05	-1.89648000E-05	 0.00000000E+00
		-4.18579000E-05	-1.89648000E-05	 0.00000000E+00
		-4.12149000E-05	-2.03241000E-05	 0.00000000E+00
		-4.12149000E-05	-2.03241000E-05	 0.00000000E+00
		-4.05277000E-05	-2.16617000E-05	 0.00000000E+00
		-4.05277000E-05	-2.16617000E-05	 0.00000000E+00
		-3.97971000E-05	-2.29761000E-05	 0.00000000E+00
		-3.97971000E-05	-2.29761000E-05	 0.00000000E+00
		-6.79735000E-05	 1.11693000E-09	 0.00000000E+00
		-6.79735000E-05	 1.11475000E-09	 0.00000000E+00
		-6.79373000E-05	-2.22298000E-06	 0.00000000E+00
		-6.79373000E-05	-2.22297000E-06	 0.00000000E+00
		-6.78283000E-05	-4.44468000E-06	 0.00000000E+00
		-6.78283000E-05	-4.44468000E-06	 0.00000000E+00
		-6.76466000E-05	-6.66161000E-06	 0.00000000E+00
		-6.76466000E-05	-6.66161000E-06	 0.00000000E+00
		-6.73925000E-05	-8.87140000E-06	 0.00000000E+00
		-6.73925000E-05	-8.87140000E-06	 0.00000000E+00
		-6.70662000E-05	-1.10717000E-05	 0.00000000E+00
		-6.70662000E-05	-1.10717000E-05	 0.00000000E+00
		-6.66681000E-05	-1.32601000E-05	 0.00000000E+00
		-6.66681000E-05	-1.32601000E-05	 0.00000000E+00
		-6.61985000E-05	-1.54343000E-05	 0.00000000E+00
		-6.61985000E-05	-1.54343000E-05	 0.00000000E+00
		-6.56581000E-05	-1.75920000E-05	 0.00000000E+00
		-6.56581000E-05	-1.75920000E-05	 0.00000000E+00
		-6.50474000E-05	-1.97308000E-05	 0.00000000E+00
		-6.50474000E-05	-1.97309000E-05	 0.00000000E+00
		-6.43670000E-05	-2.18486000E-05	 0.00000000E+00
		-6.43670000E-05	-2.18486000E-05	 0.00000000E+00
		-6.36176000E-05	-2.39429000E-05	 0.00000000E+00
		-6.36176000E-05	-2.39429000E-05	 0.00000000E+00
		-6.28001000E-05	-2.60115000E-05	 0.00000000E+00
		-6.28001000E-05	-2.60115000E-05	 0.00000000E+00
		-6.19154000E-05	-2.80523000E-05	 0.00000000E+00
		-6.19154000E-05	-2.80523000E-05	 0.00000000E+00
		-6.09643000E-05	-3.00631000E-05	 0.00000000E+00
		-6.09643000E-05	-3.00631000E-05	 0.00000000E+00
		-5.99479000E-05	-3.20417000E-05	 0.00000000E+00
		-5.99479000E-05	-3.20417000E-05	 0.00000000E+00
		-5.88672000E-05	-3.39859000E-05	 0.00000000E+00
		-5.88672000E-05	-3.39859000E-05	 0.00000000E+00
		-8.94268000E-05	 1.44841000E-09	 0.00000000E+00
		-8.94268000E-05	 1.44544000E-09	 0.00000000E+00
		-8.93792000E-05	-2.92458000E-06	 0.00000000E+00
		-8.93792000E-05	-2.92458000E-06	 0.00000000E+00
		-8.92357000E-05	-5.84748000E-06	 0.00000000E+00
		-8.92357000E-05	-5.84747000E-06	 0.00000000E+00
		-8.89967000E-05	-8.76410000E-06	 0.00000000E+00
		-8.89967000E-05	-8.76410000E-06	 0.00000000E+00
		-8.86624000E-05	-1.16713000E-05	 0.00000000E+00
		-8.86624000E-05	-1.16713000E-05	 0.00000000E+00
		-8.82331000E-05	-1.45660000E-05	 0.00000000E+00
		-8.82331000E-05	-1.45660000E-05	 0.00000000E+00
		-8.77093000E-05	-1.74452000E-05	 0.00000000E+00
		-8.77093000E-05	-1.74452000E-05	 0.00000000E+00
		-8.70916000E-05	-2.03056000E-05	 0.00000000E+00
		-8.70916000E-05	-2.03056000E-05	 0.00000000E+00
		-8.63806000E-05	-2.31443000E-05	 0.00000000E+00
		-8.63806000E-05	-2.31443000E-05	 0.00000000E+00
		-8.55771000E-05	-2.59582000E-05	 0.00000000E+00
		-8.55771000E-05	-2.59582000E-05	 0.00000000E+00
		-8.46820000E-05	-2.87442000E-05	 0.00000000E+00
		-8.46820000E-05	-2.87442000E-05	 0.00000000E+00
		-8.36961000E-05	-3.14995000E-05	 0.00000000E+00
		-8.36961000E-05	-3.14995000E-05	 0.00000000E+00
		-8.26206000E-05	-3.42211000E-05	 0.00000000E+00
		-8.26206000E-05	-3.42211000E-05	 0.00000000E+00
		-8.14566000E-05	-3.69060000E-05	 0.00000000E+00
		-8.14566000E-05	-3.69060000E-05	 0.00000000E+00
		-8.02054000E-05	-3.95514000E-05	 0.00000000E+00
		-8.02054000E-05	-3.95514000E-05	 0.00000000E+00
		-7.88682000E-05	-4.21544000E-05	 0.00000000E+00
		-7.88682000E-05	-4.21544000E-05	 0.00000000E+00
		-7.74465000E-05	-4.47123000E-05	 0.00000000E+00
		-7.74465000E-05	-4.47123000E-05	 0.00000000E+00
		-1.10359000E-04	 1.75974000E-09	 0.00000000E+00
		-1.10359000E-04	 1.75584000E-09	 0.00000000E+00
		-1.10301000E-04	-3.60917000E-06	 0.00000000E+00
		-1.10301000E-04	-3.60917000E-06	 0.00000000E+00
		-1.10124000E-04	-7.21623000E-06	 0.00000000E+00
		-1.10124000E-04	-7.21623000E-06	 0.00000000E+00
		-1.09829000E-04	-1.08156000E-05	 0.00000000E+00
		-1.09829000E-04	-1.08156000E-05	 0.00000000E+00
		-1.09416000E-04	-1.44033000E-05	 0.00000000E+00
		-1.09416000E-04	-1.44033000E-05	 0.00000000E+00
		-1.08886000E-04	-1.79756000E-05	 0.00000000E+00
		-1.08886000E-04	-1.79756000E-05	 0.00000000E+00
		-1.08240000E-04	-2.15286000E-05	 0.00000000E+00
		-1.08240000E-04	-2.15286000E-05	 0.00000000E+00
		-1.07478000E-04	-2.50586000E-05	 0.00000000E+00
		-1.07478000E-04	-2.50586000E-05	 0.00000000E+00
		-1.06600000E-04	-2.85618000E-05	 0.00000000E+00
		-1.06600000E-04	-2.85618000E-05	 0.00000000E+00
		-1.05609000E-04	-3.20343000E-05	 0.00000000E+00
		-1.05609000E-04	-3.20343000E-05	 0.00000000E+00
		-1.04504000E-04	-3.54726000E-05	 0.00000000E+00
		-1.04504000E-04	-3.54726000E-05	 0.00000000E+00
		-1.03287000E-04	-3.88728000E-05	 0.00000000E+00
		-1.03287000E-04	-3.88728000E-05	 0.00000000E+00
		-1.01960000E-04	-4.22314000E-05	 0.00000000E+00
		-1.01960000E-04	-4.22314000E-05	 0.00000000E+00
		-1.00524000E-04	-4.55448000E-05	 0.00000000E+00
		-1.00524000E-04	-4.55448000E-05	 0.00000000E+00
		-9.89794000E-05	-4.88094000E-05	 0.00000000E+00
		-9.89794000E-05	-4.88094000E-05	 0.00000000E+00
		-9.73293000E-05	-5.20217000E-05	 0.00000000E+00
		-9.73293000E-05	-5.20217000E-05	 0.00000000E+00
		-9.55749000E-05	-5.51783000E-05	 0.00000000E+00
		-9.55749000E-05	-5.51783000E-05	 0.00000000E+00
		-1.30812000E-04	 2.05096000E-09	 0.00000000E+00
		-1.30812000E-04	 2.04595000E-09	 0.00000000E+00
		-1.30743000E-04	-4.27809000E-06	 0.00000000E+00
		-1.30743000E-04	-4.27808000E-06	 0.00000000E+00
		-1.30533000E-04	-8.55364000E-06	 0.00000000E+00
		-1.30533000E-04	-8.55363000E-06	 0.00000000E+00
		-1.30183000E-04	-1.28200000E-05	 0.00000000E+00
		-1.30183000E-04	-1.28200000E-05	 0.00000000E+00
		-1.29694000E-04	-1.70727000E-05	 0.00000000E+00
		-1.29694000E-04	-1.70727000E-05	 0.00000000E+00
		-1.29066000E-04	-2.13070000E-05	 0.00000000E+00
		-1.29066000E-04	-2.13070000E-05	 0.00000000E+00
		-1.28300000E-04	-2.55186000E-05	 0.00000000E+00
		-1.28300000E-04	-2.55186000E-05	 0.00000000E+00
		-1.27396000E-04	-2.97028000E-05	 0.00000000E+00
		-1.27396000E-04	-2.97028000E-05	 0.00000000E+00
		-1.26356000E-04	-3.38551000E-05	 0.00000000E+00
		-1.26356000E-04	-3.38551000E-05	 0.00000000E+00
		-1.25181000E-04	-3.79713000E-05	 0.00000000E+00
		-1.25181000E-04	-3.79713000E-05	 0.00000000E+00
		-1.23872000E-04	-4.20467000E-05	 0.00000000E+00
		-1.23872000E-04	-4.20467000E-05	 0.00000000E+00
		-1.22429000E-04	-4.60771000E-05	 0.00000000E+00
		-1.22429000E-04	-4.60771000E-05	 0.00000000E+00
		-1.20856000E-04	-5.00582000E-05	 0.00000000E+00
		-1.20856000E-04	-5.00582000E-05	 0.00000000E+00
		-1.19154000E-04	-5.39857000E-05	 0.00000000E+00
		-1.19154000E-04	-5.39857000E-05	 0.00000000E+00
		-1.17323000E-04	-5.78553000E-05	 0.00000000E+00
		-1.17323000E-04	-5.78553000E-05	 0.00000000E+00
		-1.15367000E-04	-6.16630000E-05	 0.00000000E+00
		-1.15367000E-04	-6.16630000E-05	 0.00000000E+00
		-1.13288000E-04	-6.54046000E-05	 0.00000000E+00
		-1.13288000E-04	-6.54046000E-05	 0.00000000E+00
		-1.50823000E-04	 2.32208000E-09	 0.00000000E+00
		-1.50823000E-04	 2.31578000E-09	 0.00000000E+00
		-1.50742000E-04	-4.93254000E-06	 0.00000000E+00
		-1.50742000E-04	-4.93253000E-06	 0.00000000E+00
		-1.50500000E-04	-9.86211000E-06	 0.00000000E+00
		-1.50500000E-04	-9.86211000E-06	 0.00000000E+00
		-1.50097000E-04	-1.47811000E-05	 0.00000000E+00
		-1.50097000E-04	-1.47811000E-05	 0.00000000E+00
		-1.49533000E-04	-1.96843000E-05	 0.00000000E+00
		-1.49533000E-04	-1.96843000E-05	 0.00000000E+00
		-1.48809000E-04	-2.45664000E-05	 0.00000000E+00
		-1.48809000E-04	-2.45664000E-05	 0.00000000E+00
		-1.47926000E-04	-2.94221000E-05	 0.00000000E+00
		-1.47926000E-04	-2.94222000E-05	 0.00000000E+00
		-1.46884000E-04	-3.42464000E-05	 0.00000000E+00
		-1.46884000E-04	-3.42464000E-05	 0.00000000E+00
		-1.45685000E-04	-3.90340000E-05	 0.00000000E+00
		-1.45685000E-04	-3.90340000E-05	 0.00000000E+00
		-1.44330000E-04	-4.37797000E-05	 0.00000000E+00
		-1.44330000E-04	-4.37798000E-05	 0.00000000E+00
		-1.42820000E-04	-4.84786000E-05	 0.00000000E+00
		-1.42820000E-04	-4.84786000E-05	 0.00000000E+00
		-1.41157000E-04	-5.31256000E-05	 0.00000000E+00
		-1.41157000E-04	-5.31256000E-05	 0.00000000E+00
		-1.39344000E-04	-5.77156000E-05	 0.00000000E+00
		-1.39344000E-04	-5.77156000E-05	 0.00000000E+00
		-1.37380000E-04	-6.22439000E-05	 0.00000000E+00
		-1.37380000E-04	-6.22439000E-05	 0.00000000E+00
		-1.35270000E-04	-6.67054000E-05	 0.00000000E+00
		-1.35270000E-04	-6.67054000E-05	 0.00000000E+00
		-1.33015000E-04	-7.10956000E-05	 0.00000000E+00
		-1.33015000E-04	-7.10956000E-05	 0.00000000E+00
		-1.30617000E-04	-7.54095000E-05	 0.00000000E+00
		-1.30617000E-04	-7.54095000E-05	 0.00000000E+00
		-1.70424000E-04	 2.57309000E-09	 0.00000000E+00
		-1.70424000E-04	 2.56534000E-09	 0.00000000E+00
		-1.70333000E-04	-5.57362000E-06	 0.00000000E+00
		-1.70333000E-04	-5.57361000E-06	 0.00000000E+00
		-1.70059000E-04	-1.11438000E-05	 0.00000000E+00
		-1.70059000E-04	-1.11438000E-05	 0.00000000E+00
		-1.69604000E-04	-1.67021000E-05	 0.00000000E+00
		-1.69604000E-04	-1.67021000E-05	 0.00000000E+00
		-1.68967000E-04	-2.22425000E-05	 0.00000000E+00
		-1.68967000E-04	-2.22425000E-05	 0.00000000E+00
		-1.68149000E-04	-2.77591000E-05	 0.00000000E+00
		-1.68149000E-04	-2.77591000E-05	 0.00000000E+00
		-1.67150000E-04	-3.32459000E-05	 0.00000000E+00
		-1.67150000E-04	-3.32459000E-05	 0.00000000E+00
		-1.65973000E-04	-3.86971000E-05	 0.00000000E+00
		-1.65973000E-04	-3.86971000E-05	 0.00000000E+00
		-1.64618000E-04	-4.41069000E-05	 0.00000000E+00
		-1.64618000E-04	-4.41069000E-05	 0.00000000E+00
		-1.63087000E-04	-4.94694000E-05	 0.00000000E+00
		-1.63087000E-04	-4.94694000E-05	 0.00000000E+00
		-1.61381000E-04	-5.47789000E-05	 0.00000000E+00
		-1.61381000E-04	-5.47790000E-05	 0.00000000E+00
		-1.59502000E-04	-6.00298000E-05	 0.00000000E+00
		-1.59502000E-04	-6.00298000E-05	 0.00000000E+00
		-1.57453000E-04	-6.52164000E-05	 0.00000000E+00
		-1.57453000E-04	-6.52164000E-05	 0.00000000E+00
		-1.55234000E-04	-7.03331000E-05	 0.00000000E+00
		-1.55234000E-04	-7.03331000E-05	 0.00000000E+00
		-1.52850000E-04	-7.53745000E-05	 0.00000000E+00
		-1.52850000E-04	-7.53745000E-05	 0.00000000E+00
		-1.50302000E-04	-8.03352000E-05	 0.00000000E+00
		-1.50302000E-04	-8.03352000E-05	 0.00000000E+00
		-1.47593000E-04	-8.52098000E-05	 0.00000000E+00
		-1.47593000E-04	-8.52098000E-05	 0.00000000E+00
		-1.89645000E-04	 2.80387000E-09	 0.00000000E+00
		-1.89645000E-04	 2.79460000E-09	 0.00000000E+00
		-1.89544000E-04	-6.20230000E-06	 0.00000000E+00
		-1.89544000E-04	-6.20230000E-06	 0.00000000E+00
		-1.89240000E-04	-1.24008000E-05	 0.00000000E+00
		-1.89240000E-04	-1.24008000E-05	 0.00000000E+00
		-1.88733000E-04	-1.85859000E-05	 0.00000000E+00
		-1.88733000E-04	-1.85859000E-05	 0.00000000E+00
		-1.88024000E-04	-2.47512000E-05	 0.00000000E+00
		-1.88024000E-04	-2.47512000E-05	 0.00000000E+00
		-1.87114000E-04	-3.08900000E-05	 0.00000000E+00
		-1.87114000E-04	-3.08900000E-05	 0.00000000E+00
		-1.86003000E-04	-3.69956000E-05	 0.00000000E+00
		-1.86003000E-04	-3.69956000E-05	 0.00000000E+00
		-1.84693000E-04	-4.30617000E-05	 0.00000000E+00
		-1.84693000E-04	-4.30617000E-05	 0.00000000E+00
		-1.83185000E-04	-4.90816000E-05	 0.00000000E+00
		-1.83185000E-04	-4.90816000E-05	 0.00000000E+00
		-1.81481000E-04	-5.50489000E-05	 0.00000000E+00
		-1.81481000E-04	-5.50489000E-05	 0.00000000E+00
		-1.79583000E-04	-6.09573000E-05	 0.00000000E+00
		-1.79583000E-04	-6.09573000E-05	 0.00000000E+00
		-1.77492000E-04	-6.68004000E-05	 0.00000000E+00
		-1.77492000E-04	-6.68004000E-05	 0.00000000E+00
		-1.75211000E-04	-7.25720000E-05	 0.00000000E+00
		-1.75211000E-04	-7.25720000E-05	 0.00000000E+00
		-1.72743000E-04	-7.82658000E-05	 0.00000000E+00
		-1.72743000E-04	-7.82658000E-05	 0.00000000E+00
		-1.70089000E-04	-8.38758000E-05	 0.00000000E+00
		-1.70089000E-04	-8.38758000E-05	 0.00000000E+00
		-1.67254000E-04	-8.93960000E-05	 0.00000000E+00
		-1.67254000E-04	-8.93960000E-05	 0.00000000E+00
		-1.64239000E-04	-9.48204000E-05	 0.00000000E+00
		-1.64239000E-04	-9.48204000E-05	 0.00000000E+00
		-2.08515000E-04	 3.01411000E-09	 0.00000000E+00
		-2.08515000E-04	 3.00344000E-09	 0.00000000E+00
		-2.08403000E-04	-6.81948000E-06	 0.00000000E+00
		-2.08403000E-04	-6.81947000E-06	 0.00000000E+00
		-2.08069000E-04	-1.36347000E-05	 0.00000000E+00
		-2.08069000E-04	-1.36347000E-05	 0.00000000E+00
		-2.07512000E-04	-2.04352000E-05	 0.00000000E+00
		-2.07511000E-04	-2.04352000E-05	 0.00000000E+00
		-2.06732000E-04	-2.72139000E-05	 0.00000000E+00
		-2.06732000E-04	-2.72139000E-05	 0.00000000E+00
		-2.05731000E-04	-3.39635000E-05	 0.00000000E+00
		-2.05731000E-04	-3.39635000E-05	 0.00000000E+00
		-2.04510000E-04	-4.06766000E-05	 0.00000000E+00
		-2.04510000E-04	-4.06767000E-05	 0.00000000E+00
		-2.03069000E-04	-4.73463000E-05	 0.00000000E+00
		-2.03069000E-04	-4.73463000E-05	 0.00000000E+00
		-2.01411000E-04	-5.39651000E-05	 0.00000000E+00
		-2.01411000E-04	-5.39652000E-05	 0.00000000E+00
		-1.99538000E-04	-6.05262000E-05	 0.00000000E+00
		-1.99538000E-04	-6.05263000E-05	 0.00000000E+00
		-1.97451000E-04	-6.70225000E-05	 0.00000000E+00
		-1.97451000E-04	-6.70225000E-05	 0.00000000E+00
		-1.95152000E-04	-7.34470000E-05	 0.00000000E+00
		-1.95152000E-04	-7.34470000E-05	 0.00000000E+00
		-1.92644000E-04	-7.97928000E-05	 0.00000000E+00
		-1.92644000E-04	-7.97928000E-05	 0.00000000E+00
		-1.89930000E-04	-8.60532000E-05	 0.00000000E+00
		-1.89930000E-04	-8.60532000E-05	 0.00000000E+00
		-1.87013000E-04	-9.22213000E-05	 0.00000000E+00
		-1.87013000E-04	-9.22213000E-05	 0.00000000E+00
		-1.83895000E-04	-9.82907000E-05	 0.00000000E+00
		-1.83895000E-04	-9.82907000E-05	 0.00000000E+00
		-1.80581000E-04	-1.04255000E-04	 0.00000000E+00
		-1.80581000E-04	-1.04255000E-04	 0.00000000E+00
		-2.27057000E-04	 3.20319000E-09	 0.00000000E+00
		-2.27057000E-04	 3.19164000E-09	 0.00000000E+00
		-2.26935000E-04	-7.42596000E-06	 0.00000000E+00
		-2.26935000E-04	-7.42595000E-06	 0.00000000E+00
		-2.26571000E-04	-1.48472000E-05	 0.00000000E+00
		-2.26571000E-04	-1.48471000E-05	 0.00000000E+00
		-2.25964000E-04	-2.22525000E-05	 0.00000000E+00
		-2.25964000E-04	-2.22524000E-05	 0.00000000E+00
		-2.25115000E-04	-2.96339000E-05	 0.00000000E+00
		-2.25115000E-04	-2.96339000E-05	 0.00000000E+00
		-2.24025000E-04	-3.69836000E-05	 0.00000000E+00
		-2.24025000E-04	-3.69836000E-05	 0.00000000E+00
		-2.22695000E-04	-4.42938000E-05	 0.00000000E+00
		-2.22695000E-04	-4.42938000E-05	 0.00000000E+00
		-2.21127000E-04	-5.15565000E-05	 0.00000000E+00
		-2.21127000E-04	-5.15565000E-05	 0.00000000E+00
		-2.19321000E-04	-5.87639000E-05	 0.00000000E+00
		-2.19321000E-04	-5.87639000E-05	 0.00000000E+00
		-2.17281000E-04	-6.59084000E-05	 0.00000000E+00
		-2.17281000E-04	-6.59085000E-05	 0.00000000E+00
		-2.15009000E-04	-7.29824000E-05	 0.00000000E+00
		-2.15009000E-04	-7.29824000E-05	 0.00000000E+00
		-2.12505000E-04	-7.99781000E-05	 0.00000000E+00
		-2.12505000E-04	-7.99782000E-05	 0.00000000E+00
		-2.09775000E-04	-8.68882000E-05	 0.00000000E+00