    1C
    1UUSER                                                              
    1UDATE              25.january.2020                                 
    1UTIME              14:53:40                                        
    1UHOST                                                              
    1UPGM               CalculiX                                        
    1UVERSION           Version 2.16                             
    1UCOMPILETIME       Tue  7 Jan 19:57:43 CET 2020                    
    1UDIR                                                               
    1UDBN                                                               
    1UMAT    1EL                                                        
    2C                           248                                     1
 -1        42 0.00000E+00-3.53553E-03 3.53553E-03
 -1        43 0.00000E+00-3.53553E-03-3.53553E-03
 -1        44 0.00000E+00 3.53553E-03-3.53553E-03
 -1        45 0.00000E+00 3.53553E-03 3.53553E-03
 -1        46 0.00000E+00-5.00000E-03 0.00000E+00
 -1        47 0.00000E+00 0.00000E+00-5.00000E-03
 -1        48 0.00000E+00 5.00000E-03 0.00000E+00
 -1        49 0.00000E+00 0.00000E+00 5.00000E-03
 -1        50 1.00000E-01-3.53553E-03 3.53553E-03
 -1        51 1.00000E-01-3.53553E-03-3.53553E-03
 -1        52 1.00000E-01 3.53553E-03-3.53553E-03
 -1        53 1.00000E-01 3.53553E-03 3.53553E-03
 -1        54 1.00000E-01-5.00000E-03 0.00000E+00
 -1        55 1.00000E-01 0.00000E+00-5.00000E-03
 -1        56 1.00000E-01 5.00000E-03 0.00000E+00
 -1        57 1.00000E-01 0.00000E+00 5.00000E-03
 -1        58 5.00000E-02-3.53553E-03 3.53553E-03
 -1        59 5.00000E-02-3.53553E-03-3.53553E-03
 -1        60 5.00000E-02 3.53553E-03-3.53553E-03
 -1        61 5.00000E-02 3.53553E-03 3.53553E-03
 -1        66 2.00000E-01-3.53553E-03 3.53553E-03
 -1        67 2.00000E-01-3.53553E-03-3.53553E-03
 -1        68 2.00000E-01 3.53553E-03-3.53553E-03
 -1        69 2.00000E-01 3.53553E-03 3.53553E-03
 -1        70 2.00000E-01-5.00000E-03 0.00000E+00
 -1        71 2.00000E-01 0.00000E+00-5.00000E-03
 -1        72 2.00000E-01 5.00000E-03 0.00000E+00
 -1        73 2.00000E-01 0.00000E+00 5.00000E-03
 -1        74 1.50000E-01-3.53553E-03 3.53553E-03
 -1        75 1.50000E-01-3.53553E-03-3.53553E-03
 -1        76 1.50000E-01 3.53553E-03-3.53553E-03
 -1        77 1.50000E-01 3.53553E-03 3.53553E-03
 -1        82 3.00000E-01-3.53553E-03 3.53553E-03
 -1        83 3.00000E-01-3.53553E-03-3.53553E-03
 -1        84 3.00000E-01 3.53553E-03-3.53553E-03
 -1        85 3.00000E-01 3.53553E-03 3.53553E-03
 -1        86 3.00000E-01-5.00000E-03 0.00000E+00
 -1        87 3.00000E-01 0.00000E+00-5.00000E-03
 -1        88 3.00000E-01 5.00000E-03 0.00000E+00
 -1        89 3.00000E-01 0.00000E+00 5.00000E-03
 -1        90 2.50000E-01-3.53553E-03 3.53553E-03
 -1        91 2.50000E-01-3.53553E-03-3.53553E-03
 -1        92 2.50000E-01 3.53553E-03-3.53553E-03
 -1        93 2.50000E-01 3.53553E-03 3.53553E-03
 -1        98 4.00000E-01-3.53553E-03 3.53553E-03
 -1        99 4.00000E-01-3.53553E-03-3.53553E-03
 -1       100 4.00000E-01 3.53553E-03-3.53553E-03
 -1       101 4.00000E-01 3.53553E-03 3.53553E-03
 -1       102 4.00000E-01-5.00000E-03 0.00000E+00
 -1       103 4.00000E-01 0.00000E+00-5.00000E-03
 -1       104 4.00000E-01 5.00000E-03 0.00000E+00
 -1       105 4.00000E-01 0.00000E+00 5.00000E-03
 -1       106 3.50000E-01-3.53553E-03 3.53553E-03
 -1       107 3.50000E-01-3.53553E-03-3.53553E-03
 -1       108 3.50000E-01 3.53553E-03-3.53553E-03
 -1       109 3.50000E-01 3.53553E-03 3.53553E-03
 -1       114 5.00000E-01-3.53553E-03 3.53553E-03
 -1       115 5.00000E-01-3.53553E-03-3.53553E-03
 -1       116 5.00000E-01 3.53553E-03-3.53553E-03
 -1       117 5.00000E-01 3.53553E-03 3.53553E-03
 -1       118 5.00000E-01-5.00000E-03 0.00000E+00
 -1       119 5.00000E-01 0.00000E+00-5.00000E-03
 -1       120 5.00000E-01 5.00000E-03 0.00000E+00
 -1       121 5.00000E-01 0.00000E+00 5.00000E-03
 -1       122 4.50000E-01-3.53553E-03 3.53553E-03
 -1       123 4.50000E-01-3.53553E-03-3.53553E-03
 -1       124 4.50000E-01 3.53553E-03-3.53553E-03
 -1       125 4.50000E-01 3.53553E-03 3.53553E-03
 -1       130 6.00000E-01-3.53553E-03 3.53553E-03
 -1       131 6.00000E-01-3.53553E-03-3.53553E-03
 -1       132 6.00000E-01 3.53553E-03-3.53553E-03
 -1       133 6.00000E-01 3.53553E-03 3.53553E-03
 -1       134 6.00000E-01-5.00000E-03 0.00000E+00
 -1       135 6.00000E-01 0.00000E+00-5.00000E-03
 -1       136 6.00000E-01 5.00000E-03 0.00000E+00
 -1       137 6.00000E-01 0.00000E+00 5.00000E-03
 -1       138 5.50000E-01-3.53553E-03 3.53553E-03
 -1       139 5.50000E-01-3.53553E-03-3.53553E-03
 -1       140 5.50000E-01 3.53553E-03-3.53553E-03
 -1       141 5.50000E-01 3.53553E-03 3.53553E-03
 -1       146 7.00000E-01-3.53553E-03 3.53553E-03
 -1       147 7.00000E-01-3.53553E-03-3.53553E-03
 -1       148 7.00000E-01 3.53553E-03-3.53553E-03
 -1       149 7.00000E-01 3.53553E-03 3.53553E-03
 -1       150 7.00000E-01-5.00000E-03 0.00000E+00
 -1       151 7.00000E-01 0.00000E+00-5.00000E-03
 -1       152 7.00000E-01 5.00000E-03 0.00000E+00
 -1       153 7.00000E-01 0.00000E+00 5.00000E-03
 -1       154 6.50000E-01-3.53553E-03 3.53553E-03
 -1       155 6.50000E-01-3.53553E-03-3.53553E-03
 -1       156 6.50000E-01 3.53553E-03-3.53553E-03
 -1       157 6.50000E-01 3.53553E-03 3.53553E-03
 -1       162 8.00000E-01-3.53553E-03 3.53553E-03
 -1       163 8.00000E-01-3.53553E-03-3.53553E-03
 -1       164 8.00000E-01 3.53553E-03-3.53553E-03
 -1       165 8.00000E-01 3.53553E-03 3.53553E-03
 -1       166 8.00000E-01-5.00000E-03 0.00000E+00
 -1       167 8.00000E-01 0.00000E+00-5.00000E-03
 -1       168 8.00000E-01 5.00000E-03 0.00000E+00
 -1       169 8.00000E-01 0.00000E+00 5.00000E-03
 -1       170 7.50000E-01-3.53553E-03 3.53553E-03
 -1       171 7.50000E-01-3.53553E-03-3.53553E-03
 -1       172 7.50000E-01 3.53553E-03-3.53553E-03
 -1       173 7.50000E-01 3.53553E-03 3.53553E-03
 -1       178 9.00000E-01-3.53553E-03 3.53553E-03
 -1       179 9.00000E-01-3.53553E-03-3.53553E-03
 -1       180 9.00000E-01 3.53553E-03-3.53553E-03
 -1       181 9.00000E-01 3.53553E-03 3.53553E-03
 -1       182 9.00000E-01-5.00000E-03 0.00000E+00
 -1       183 9.00000E-01 0.00000E+00-5.00000E-03
 -1       184 9.00000E-01 5.00000E-03 0.00000E+00
 -1       185 9.00000E-01 0.00000E+00 5.00000E-03
 -1       186 8.50000E-01-3.53553E-03 3.53553E-03
 -1       187 8.50000E-01-3.53553E-03-3.53553E-03
 -1       188 8.50000E-01 3.53553E-03-3.53553E-03
 -1       189 8.50000E-01 3.53553E-03 3.53553E-03
 -1       194 1.00000E+00-3.53553E-03 3.53553E-03
 -1       195 1.00000E+00-3.53553E-03-3.53553E-03
 -1       196 1.00000E+00 3.53553E-03-3.53553E-03
 -1       197 1.00000E+00 3.53553E-03 3.53553E-03
 -1       198 1.00000E+00-5.00000E-03 0.00000E+00
 -1       199 1.00000E+00 0.00000E+00-5.00000E-03
 -1       200 1.00000E+00 5.00000E-03 0.00000E+00
 -1       201 1.00000E+00 0.00000E+00 5.00000E-03
 -1       202 9.50000E-01-3.53553E-03 3.53553E-03
 -1       203 9.50000E-01-3.53553E-03-3.53553E-03
 -1       204 9.50000E-01 3.53553E-03-3.53553E-03
 -1       205 9.50000E-01 3.53553E-03 3.53553E-03
 -1       210 1.10000E+00-3.53553E-03 3.53553E-03
 -1       211 1.10000E+00-3.53553E-03-3.53553E-03
 -1       212 1.10000E+00 3.53553E-03-3.53553E-03
 -1       213 1.10000E+00 3.53553E-03 3.53553E-03
 -1       214 1.10000E+00-5.00000E-03 0.00000E+00
 -1       215 1.10000E+00 0.00000E+00-5.00000E-03
 -1       216 1.10000E+00 5.00000E-03 0.00000E+00
 -1       217 1.10000E+00 0.00000E+00 5.00000E-03
 -1       218 1.05000E+00-3.53553E-03 3.53553E-03
 -1       219 1.05000E+00-3.53553E-03-3.53553E-03
 -1       220 1.05000E+00 3.53553E-03-3.53553E-03
 -1       221 1.05000E+00 3.53553E-03 3.53553E-03
 -1       226 1.20000E+00-3.53553E-03 3.53553E-03
 -1       227 1.20000E+00-3.53553E-03-3.53553E-03
 -1       228 1.20000E+00 3.53553E-03-3.53553E-03
 -1       229 1.20000E+00 3.53553E-03 3.53553E-03
 -1       230 1.20000E+00-5.00000E-03 0.00000E+00
 -1       231 1.20000E+00 0.00000E+00-5.00000E-03
 -1       232 1.20000E+00 5.00000E-03 0.00000E+00
 -1       233 1.20000E+00 0.00000E+00 5.00000E-03
 -1       234 1.15000E+00-3.53553E-03 3.53553E-03
 -1       235 1.15000E+00-3.53553E-03-3.53553E-03
 -1       236 1.15000E+00 3.53553E-03-3.53553E-03
 -1       237 1.15000E+00 3.53553E-03 3.53553E-03
 -1       242 1.30000E+00-3.53553E-03 3.53553E-03
 -1       243 1.30000E+00-3.53553E-03-3.53553E-03
 -1       244 1.30000E+00 3.53553E-03-3.53553E-03
 -1       245 1.30000E+00 3.53553E-03 3.53553E-03
 -1       246 1.30000E+00-5.00000E-03 0.00000E+00
 -1       247 1.30000E+00 0.00000E+00-5.00000E-03
 -1       248 1.30000E+00 5.00000E-03 0.00000E+00
 -1       249 1.30000E+00 0.00000E+00 5.00000E-03
 -1       250 1.25000E+00-3.53553E-03 3.53553E-03
 -1       251 1.25000E+00-3.53553E-03-3.53553E-03
 -1       252 1.25000E+00 3.53553E-03-3.53553E-03
 -1       253 1.25000E+00 3.53553E-03 3.53553E-03
 -1       258 1.40000E+00-3.53553E-03 3.53553E-03
 -1       259 1.40000E+00-3.53553E-03-3.53553E-03
 -1       260 1.40000E+00 3.53553E-03-3.53553E-03
 -1       261 1.40000E+00 3.53553E-03 3.53553E-03
 -1       262 1.40000E+00-5.00000E-03 0.00000E+00
 -1       263 1.40000E+00 0.00000E+00-5.00000E-03
 -1       264 1.40000E+00 5.00000E-03 0.00000E+00
 -1       265 1.40000E+00 0.00000E+00 5.00000E-03
 -1       266 1.35000E+00-3.53553E-03 3.53553E-03
 -1       267 1.35000E+00-3.53553E-03-3.53553E-03
 -1       268 1.35000E+00 3.53553E-03-3.53553E-03
 -1       269 1.35000E+00 3.53553E-03 3.53553E-03
 -1       274 1.50000E+00-3.53553E-03 3.53553E-03
 -1       275 1.50000E+00-3.53553E-03-3.53553E-03
 -1       276 1.50000E+00 3.53553E-03-3.53553E-03
 -1       277 1.50000E+00 3.53553E-03 3.53553E-03
 -1       278 1.50000E+00-5.00000E-03 0.00000E+00
 -1       279 1.50000E+00 0.00000E+00-5.00000E-03
 -1       280 1.50000E+00 5.00000E-03 0.00000E+00
 -1       281 1.50000E+00 0.00000E+00 5.00000E-03
 -1       282 1.45000E+00-3.53553E-03 3.53553E-03
 -1       283 1.45000E+00-3.53553E-03-3.53553E-03
 -1       284 1.45000E+00 3.53553E-03-3.53553E-03
 -1       285 1.45000E+00 3.53553E-03 3.53553E-03
 -1       290 1.60000E+00-3.53553E-03 3.53553E-03
 -1       291 1.60000E+00-3.53553E-03-3.53553E-03
 -1       292 1.60000E+00 3.53553E-03-3.53553E-03
 -1       293 1.60000E+00 3.53553E-03 3.53553E-03
 -1       294 1.60000E+00-5.00000E-03 0.00000E+00
 -1       295 1.60000E+00 0.00000E+00-5.00000E-03
 -1       296 1.60000E+00 5.00000E-03 0.00000E+00
 -1       297 1.60000E+00 0.00000E+00 5.00000E-03
 -1       298 1.55000E+00-3.53553E-03 3.53553E-03
 -1       299 1.55000E+00-3.53553E-03-3.53553E-03
 -1       300 1.55000E+00 3.53553E-03-3.53553E-03
 -1       301 1.55000E+00 3.53553E-03 3.53553E-03
 -1       306 1.70000E+00-3.53553E-03 3.53553E-03
 -1       307 1.70000E+00-3.53553E-03-3.53553E-03
 -1       308 1.70000E+00 3.53553E-03-3.53553E-03
 -1       309 1.70000E+00 3.53553E-03 3.53553E-03
 -1       310 1.70000E+00-5.00000E-03 0.00000E+00
 -1       311 1.70000E+00 0.00000E+00-5.00000E-03
 -1       312 1.70000E+00 5.00000E-03 0.00000E+00
 -1       313 1.70000E+00 0.00000E+00 5.00000E-03
 -1       314 1.65000E+00-3.53553E-03 3.53553E-03
 -1       315 1.65000E+00-3.53553E-03-3.53553E-03
 -1       316 1.65000E+00 3.53553E-03-3.53553E-03
 -1       317 1.65000E+00 3.53553E-03 3.53553E-03
 -1       322 1.80000E+00-3.53553E-03 3.53553E-03
 -1       323 1.80000E+00-3.53553E-03-3.53553E-03
 -1       324 1.80000E+00 3.53553E-03-3.53553E-03
 -1       325 1.80000E+00 3.53553E-03 3.53553E-03
 -1       326 1.80000E+00-5.00000E-03 0.00000E+00
 -1       327 1.80000E+00 0.00000E+00-5.00000E-03
 -1       328 1.80000E+00 5.00000E-03 0.00000E+00
 -1       329 1.80000E+00 0.00000E+00 5.00000E-03
 -1       330 1.75000E+00-3.53553E-03 3.53553E-03
 -1       331 1.75000E+00-3.53553E-03-3.53553E-03
 -1       332 1.75000E+00 3.53553E-03-3.53553E-03
 -1       333 1.75000E+00 3.53553E-03 3.53553E-03
 -1       338 1.90000E+00-3.53553E-03 3.53553E-03
 -1       339 1.90000E+00-3.53553E-03-3.53553E-03
 -1       340 1.90000E+00 3.53553E-03-3.53553E-03
 -1       341 1.90000E+00 3.53553E-03 3.53553E-03
 -1       342 1.90000E+00-5.00000E-03 0.00000E+00
 -1       343 1.90000E+00 0.00000E+00-5.00000E-03
 -1       344 1.90000E+00 5.00000E-03 0.00000E+00
 -1       345 1.90000E+00 0.00000E+00 5.00000E-03
 -1       346 1.85000E+00-3.53553E-03 3.53553E-03
 -1       347 1.85000E+00-3.53553E-03-3.53553E-03
 -1       348 1.85000E+00 3.53553E-03-3.53553E-03
 -1       349 1.85000E+00 3.53553E-03 3.53553E-03
 -1       354 2.00000E+00-3.53553E-03 3.53553E-03
 -1       355 2.00000E+00-3.53553E-03-3.53553E-03
 -1       356 2.00000E+00 3.53553E-03-3.53553E-03
 -1       357 2.00000E+00 3.53553E-03 3.53553E-03
 -1       358 2.00000E+00-5.00000E-03 0.00000E+00
 -1       359 2.00000E+00 0.00000E+00-5.00000E-03
 -1       360 2.00000E+00 5.00000E-03 0.00000E+00
 -1       361 2.00000E+00 0.00000E+00 5.00000E-03
 -1       362 1.95000E+00-3.53553E-03 3.53553E-03
 -1       363 1.95000E+00-3.53553E-03-3.53553E-03
 -1       364 1.95000E+00 3.53553E-03-3.53553E-03
 -1       365 1.95000E+00 3.53553E-03 3.53553E-03
 -3
    3C                            20                                     1
 -1         1    4    0    1
 -2        42        50        51        43        45        53        52        44        58        54
 -2        59        46        49        57        55        47        61        56        60        48
 -1         2    4    0    1
 -2        50        66        67        51        53        69        68        52        74        70
 -2        75        54        57        73        71        55        77        72        76        56
 -1         3    4    0    1
 -2        66        82        83        67        69        85        84        68        90        86
 -2        91        70        73        89        87        71        93        88        92        72
 -1         4    4    0    1
 -2        82        98        99        83        85       101       100        84       106       102
 -2       107        86        89       105       103        87       109       104       108        88
 -1         5    4    0    1
 -2        98       114       115        99       101       117       116       100       122       118
 -2       123       102       105       121       119       103       125       120       124       104
 -1         6    4    0    1
 -2       114       130       131       115       117       133       132       116       138       134
 -2       139       118       121       137       135       119       141       136       140       120
 -1         7    4    0    1
 -2       130       146       147       131       133       149       148       132       154       150
 -2       155       134       137       153       151       135       157       152       156       136
 -1         8    4    0    1
 -2       146       162       163       147       149       165       164       148       170       166
 -2       171       150       153       169       167       151       173       168       172       152
 -1         9    4    0    1
 -2       162       178       179       163       165       181       180       164       186       182
 -2       187       166       169       185       183       167       189       184       188       168
 -1        10    4    0    1
 -2       178       194       195       179       181       197       196       180       202       198
 -2       203       182       185       201       199       183       205       200       204       184
 -1        11    4    0    1
 -2       194       210       211       195       197       213       212       196       218       214
 -2       219       198       201       217       215       199       221       216       220       200
 -1        12    4    0    1
 -2       210       226       227       211       213       229       228       212       234       230
 -2       235       214       217       233       231       215       237       232       236       216
 -1        13    4    0    1
 -2       226       242       243       227       229       245       244       228       250       246
 -2       251       230       233       249       247       231       253       248       252       232
 -1        14    4    0    1
 -2       242       258       259       243       245       261       260       244       266       262
 -2       267       246       249       265       263       247       269       264       268       248
 -1        15    4    0    1
 -2       258       274       275       259       261       277       276       260       282       278
 -2       283       262       265       281       279       263       285       280       284       264
 -1        16    4    0    1
 -2       274       290       291       275       277       293       292       276       298       294
 -2       299       278       281       297       295       279       301       296       300       280
 -1        17    4    0    1
 -2       290       306       307       291       293       309       308       292       314       310
 -2       315       294       297       313       311       295       317       312       316       296
 -1        18    4    0    1
 -2       306       322       323       307       309       325       324       308       330       326
 -2       331       310       313       329       327       311       333       328       332       312
 -1        19    4    0    1
 -2       322       338       339       323       325       341       340       324       346       342
 -2       347       326       329       345       343       327       349       344       348       328
 -1        20    4    0    1
 -2       338       354       355       339       341       357       356       340       362       358
 -2       363       342       345       361       359       343       365       360       364       344
 -3
 9999
