<?xml version="1.0"?>
<VTKFile type="UnstructuredGrid" version="0.1" byte_order="LittleEndian">
	<UnstructuredGrid>
		<Piece NumberOfPoints="12" NumberOfCells="2">
			<Points>
				<DataArray type="Float64" NumberOfComponents="3" format="ascii">
					 1.00000000E+02	 0.00000000E+00	 0.00000000E+00
					 0.00000000E+00	 0.00000000E+00	 0.00000000E+00
					 0.00000000E+00	 1.00000000E+02	 0.00000000E+00
					 1.00000000E+02	 1.00000000E+02	 0.00000000E+00
					 2.00000000E+02	 1.00000000E+02	 0.00000000E+00
					 2.00000000E+02	 0.00000000E+00	 0.00000000E+00
					 1.00000000E+02	 0.00000000E+00	-1.00000000E+02
					 1.00000000E+02	 1.00000000E+02	-1.00000000E+02
					 0.00000000E+00	 1.00000000E+02	-1.00000000E+02
					 0.00000000E+00	 0.00000000E+00	-1.00000000E+02
					 2.00000000E+02	 0.00000000E+00	-1.00000000E+02
					 2.00000000E+02	 1.00000000E+02	-1.00000000E+02

				</DataArray>
			</Points>
			<Cells>
				<DataArray type="Int32" Name="connectivity" format="ascii">
					5 0 3 4 10 6 7 11 0 1 2 3 6 9 8 7 
				</DataArray>
				<DataArray type="Int32" Name="offsets" format="ascii">
					8 16 
				</DataArray>
				<DataArray type="UInt8" Name="types" format="ascii">
					12 12 
				</DataArray>
			</Cells>
			<PointData>
				<DataArray type="Float32" Name="DOR1" NumberOfComponents="3" ComponentName0="dD1dRy" ComponentName1="dD2dRy" ComponentName2="dD3dRy" format="ascii">
					-1.52431000E-02	-2.67788000E-02	 2.51297000E-03
					 0.00000000E+00	 0.00000000E+00	 0.00000000E+00
					 0.00000000E+00	 0.00000000E+00	 0.00000000E+00
					 1.52431000E-02	-2.67788000E-02	-2.51297000E-03
					 1.96381000E-02	-6.72021000E-02	-1.41941000E-04
					-1.96381000E-02	-6.72021000E-02	 1.41941000E-04
					-1.52431000E-02	-2.67788000E-02	-2.51297000E-03
					 1.52431000E-02	-2.67788000E-02	 2.51297000E-03
					 0.00000000E+00	 0.00000000E+00	 0.00000000E+00
					 0.00000000E+00	 0.00000000E+00	 0.00000000E+00
					-1.96381000E-02	-6.72021000E-02	-1.41941000E-04
					 1.96381000E-02	-6.72021000E-02	 1.41941000E-04
				</DataArray>
			</PointData>
		</Piece>
	</UnstructuredGrid>
</VTKFile>