<?xml version="1.0"?>
<VTKFile type="UnstructuredGrid" version="0.1" byte_order="LittleEndian">
	<UnstructuredGrid>
		<Piece NumberOfPoints="8" NumberOfCells="1">
			<Points>
				<DataArray type="Float64" NumberOfComponents="3" format="ascii">
					 1.00000000E+02	 0.00000000E+00	 1.00000000E+02
					 0.00000000E+00	 0.00000000E+00	 1.00000000E+02
					 0.00000000E+00	 1.00000000E+02	 1.00000000E+02
					 1.00000000E+02	 1.00000000E+02	 1.00000000E+02
					 1.00000000E+02	 0.00000000E+00	 0.00000000E+00
					 1.00000000E+02	 1.00000000E+02	 0.00000000E+00
					 0.00000000E+00	 1.00000000E+02	 0.00000000E+00
					 0.00000000E+00	 0.00000000E+00	 0.00000000E+00

				</DataArray>
			</Points>
			<Cells>
				<DataArray type="Int32" Name="connectivity" format="ascii">
					0 1 2 3 4 7 6 5 
				</DataArray>
				<DataArray type="Int32" Name="offsets" format="ascii">
					8 
				</DataArray>
				<DataArray type="UInt8" Name="types" format="ascii">
					12 
				</DataArray>
			</Cells>
			<PointData>
				<DataArray type="Float32" Name="SENENER" NumberOfComponents="2" ComponentName0="DFDN" ComponentName1="DFDNFIL" format="ascii">
					 1.60952000E+01	 1.00000000E+00
					 0.00000000E+00	 0.00000000E+00
					 0.00000000E+00	 0.00000000E+00
					 1.60952000E+01	 1.00000000E+00
					 1.60952000E+01	 1.00000000E+00
					 1.60952000E+01	 1.00000000E+00
					 0.00000000E+00	 0.00000000E+00
					 0.00000000E+00	 0.00000000E+00
				</DataArray>
			</PointData>
		</Piece>
	</UnstructuredGrid>
</VTKFile>