# vtk DataFile Version 3.0

ASCII
DATASET UNSTRUCTURED_GRID

POINTS 8 double
	 1.00000000E+02	 0.00000000E+00	 1.00000000E+02
	 0.00000000E+00	 0.00000000E+00	 1.00000000E+02
	 0.00000000E+00	 1.00000000E+02	 1.00000000E+02
	 1.00000000E+02	 1.00000000E+02	 1.00000000E+02
	 1.00000000E+02	 0.00000000E+00	 0.00000000E+00
	 1.00000000E+02	 1.00000000E+02	 0.00000000E+00
	 0.00000000E+00	 1.00000000E+02	 0.00000000E+00
	 0.00000000E+00	 0.00000000E+00	 0.00000000E+00

CELLS 1 9
	8 0 1 2 3 4 7 6 5 

CELL_TYPES 1
	12

POINT_DATA 8
FIELD U 1
	U 3 8 double
		 0.00000000E+00	-3.71429000E+00	 0.00000000E+00
		 0.00000000E+00	 0.00000000E+00	 0.00000000E+00
		 0.00000000E+00	 0.00000000E+00	 0.00000000E+00
		 0.00000000E+00	-3.71429000E+00	 0.00000000E+00
		 0.00000000E+00	-3.71429000E+00	 0.00000000E+00
		 0.00000000E+00	-3.71429000E+00	 0.00000000E+00
		 0.00000000E+00	 0.00000000E+00	 0.00000000E+00
		 0.00000000E+00	 0.00000000E+00	 0.00000000E+00
FIELD S 1
	S 10 8 double
		 0.00000000E+00	 0.00000000E+00	 0.00000000E+00	-3.89984000E+03	 0.00000000E+00	 0.00000000E+00	 6.75472102E+03	-3.89984000E+03	 0.00000000E+00	 3.89984000E+03
		 0.00000000E+00	 0.00000000E+00	 0.00000000E+00	-3.89984000E+03	 0.00000000E+00	 0.00000000E+00	 6.75472102E+03	-3.89984000E+03	 0.00000000E+00	 3.89984000E+03
		 0.00000000E+00	 0.00000000E+00	 0.00000000E+00	-3.89984000E+03	 0.00000000E+00	 0.00000000E+00	 6.75472102E+03	-3.89984000E+03	 0.00000000E+00	 3.89984000E+03
		 0.00000000E+00	 0.00000000E+00	 0.00000000E+00	-3.89984000E+03	 0.00000000E+00	 0.00000000E+00	 6.75472102E+03	-3.89984000E+03	 0.00000000E+00	 3.89984000E+03
		 0.00000000E+00	 0.00000000E+00	 0.00000000E+00	-3.89984000E+03	 0.00000000E+00	 0.00000000E+00	 6.75472102E+03	-3.89984000E+03	 0.00000000E+00	 3.89984000E+03
		 0.00000000E+00	 0.00000000E+00	 0.00000000E+00	-3.89984000E+03	 0.00000000E+00	 0.00000000E+00	 6.75472102E+03	-3.89984000E+03	 0.00000000E+00	 3.89984000E+03
		 0.00000000E+00	 0.00000000E+00	 0.00000000E+00	-3.89984000E+03	 0.00000000E+00	 0.00000000E+00	 6.75472102E+03	-3.89984000E+03	 0.00000000E+00	 3.89984000E+03
		 0.00000000E+00	 0.00000000E+00	 0.00000000E+00	-3.89984000E+03	 0.00000000E+00	 0.00000000E+00	 6.75472102E+03	-3.89984000E+03	 0.00000000E+00	 3.89984000E+03
FIELD ERROR 1
	ERROR 1 8 double
		 0.00000000E+00
		 0.00000000E+00
		 0.00000000E+00
		 0.00000000E+00
		 0.00000000E+00
		 0.00000000E+00
		 0.00000000E+00
		 0.00000000E+00
