<?xml version="1.0"?>
<VTKFile type="UnstructuredGrid" version="0.1" byte_order="LittleEndian">
	<UnstructuredGrid>
		<Piece NumberOfPoints="18" NumberOfCells="4">
			<Points>
				<DataArray type="Float64" NumberOfComponents="3" format="ascii">
					-7.45058000E-09	-7.45058000E-09	-5.00000000E-03
					-7.45058000E-09	-7.45058000E-09	 5.00000000E-03
					 5.00000000E-01	-7.45058000E-09	-5.00000000E-03
					 5.00000000E-01	-7.45058000E-09	 5.00000000E-03
					 5.00000000E-01	 5.00000000E-01	-5.00000000E-03
					 5.00000000E-01	 5.00000000E-01	 5.00000000E-03
					-7.45058000E-09	 5.00000000E-01	-5.00000000E-03
					-7.45058000E-09	 5.00000000E-01	 5.00000000E-03
					 5.00000000E-01	 1.00000000E+00	-5.00000000E-03
					 5.00000000E-01	 1.00000000E+00	 5.00000000E-03
					-7.45058000E-09	 1.00000000E+00	-5.00000000E-03
					-7.45058000E-09	 1.00000000E+00	 5.00000000E-03
					 1.00000000E+00	-7.45058000E-09	-5.00000000E-03
					 1.00000000E+00	-7.45058000E-09	 5.00000000E-03
					 1.00000000E+00	 5.00000000E-01	-5.00000000E-03
					 1.00000000E+00	 5.00000000E-01	 5.00000000E-03
					 1.00000000E+00	 1.00000000E+00	-5.00000000E-03
					 1.00000000E+00	 1.00000000E+00	 5.00000000E-03

				</DataArray>
			</Points>
			<Cells>
				<DataArray type="Int32" Name="connectivity" format="ascii">
					0 2 4 6 1 3 5 7 6 4 8 10 7 5 9 11 2 12 14 4 3 13 15 5 4 14 16 8 5 15 17 9 
				</DataArray>
				<DataArray type="Int32" Name="offsets" format="ascii">
					8 16 24 32 
				</DataArray>
				<DataArray type="UInt8" Name="types" format="ascii">
					12 12 12 12 
				</DataArray>
			</Cells>
			<PointData>
				<DataArray type="Float32" Name="U" NumberOfComponents="3" ComponentName0="D1" ComponentName1="D2" ComponentName2="D3" format="ascii">
					 0.00000000E+00	 0.00000000E+00	 2.41885000E-07
					 0.00000000E+00	 0.00000000E+00	-2.41885000E-07
					 0.00000000E+00	 2.43761000E-04	-4.89396000E-07
					 0.00000000E+00	 2.43761000E-04	 4.89396000E-07
					 0.00000000E+00	 0.00000000E+00	 1.37068000E-06
					 0.00000000E+00	 0.00000000E+00	-1.37068000E-06
					-6.20027000E-04	 0.00000000E+00	 2.10197000E-06
					-6.20027000E-04	 0.00000000E+00	-2.10197000E-06
					 0.00000000E+00	-2.43761000E-04	-4.89396000E-07
					 0.00000000E+00	-2.43761000E-04	 4.89396000E-07
					 0.00000000E+00	 0.00000000E+00	 2.41885000E-07
					 0.00000000E+00	 0.00000000E+00	-2.41885000E-07
					 0.00000000E+00	 0.00000000E+00	 2.41885000E-07
					 0.00000000E+00	 0.00000000E+00	-2.41885000E-07
					 6.20027000E-04	 0.00000000E+00	 2.10197000E-06
					 6.20027000E-04	 0.00000000E+00	-2.10197000E-06
					 0.00000000E+00	 0.00000000E+00	 2.41885000E-07
					 0.00000000E+00	 0.00000000E+00	-2.41885000E-07
				</DataArray>
				<DataArray type="Float32" Name="S" NumberOfComponents="10" ComponentName0="xx" ComponentName1="yy" ComponentName2="zz" ComponentName3="xy" ComponentName4="yz" ComponentName5="zx" ComponentName6="Mises" ComponentName7="Min Principal" ComponentName8="Mid Principal" ComponentName9="Max Principal" format="ascii">
					-4.00249000E+00	 3.78624000E+01	 0.00000000E+00	-3.03895000E+01	 0.00000000E+00	 0.00000000E+00	 6.61187588E+01	-1.99711150E+01	 0.00000000E+00	 5.38310250E+01
					-4.00249000E+00	 3.78624000E+01	 0.00000000E+00	-3.03895000E+01	 0.00000000E+00	 0.00000000E+00	 6.61187588E+01	-1.99711150E+01	 0.00000000E+00	 5.38310250E+01
					-4.00249000E+00	-6.45164000E+01	 0.00000000E+00	 2.26429000E-07	 0.00000000E+00	 0.00000000E+00	 6.26111775E+01	-6.45164000E+01	-4.00249000E+00	 0.00000000E+00
					-4.00249000E+00	-6.45164000E+01	 0.00000000E+00	 2.26429000E-07	 0.00000000E+00	 0.00000000E+00	 6.26111775E+01	-6.45164000E+01	-4.00249000E+00	 0.00000000E+00
					 2.56407000E+02	-6.45164000E+01	 0.00000000E+00	 0.00000000E+00	 0.00000000E+00	 0.00000000E+00	 2.94022741E+02	-6.45164000E+01	 0.00000000E+00	 2.56407000E+02
					 2.56407000E+02	-6.45164000E+01	 0.00000000E+00	 0.00000000E+00	 0.00000000E+00	 0.00000000E+00	 2.94022741E+02	-6.45164000E+01	 0.00000000E+00	 2.56407000E+02
					 2.56407000E+02	 3.78624000E+01	 0.00000000E+00	 2.26416000E-07	 0.00000000E+00	 0.00000000E+00	 2.39728861E+02	 0.00000000E+00	 3.78624000E+01	 2.56407000E+02
					 2.56407000E+02	 3.78624000E+01	 0.00000000E+00	 2.26416000E-07	 0.00000000E+00	 0.00000000E+00	 2.39728861E+02	 0.00000000E+00	 3.78624000E+01	 2.56407000E+02
					-4.00249000E+00	-6.45164000E+01	 0.00000000E+00	-2.26429000E-07	 0.00000000E+00	 0.00000000E+00	 6.26111775E+01	-6.45164000E+01	-4.00249000E+00	 0.00000000E+00
					-4.00249000E+00	-6.45164000E+01	 0.00000000E+00	-2.26429000E-07	 0.00000000E+00	 0.00000000E+00	 6.26111775E+01	-6.45164000E+01	-4.00249000E+00	 0.00000000E+00
					-4.00249000E+00	 3.78624000E+01	 0.00000000E+00	 3.03895000E+01	 0.00000000E+00	 0.00000000E+00	 6.61187588E+01	-1.99711150E+01	 0.00000000E+00	 5.38310250E+01
					-4.00249000E+00	 3.78624000E+01	 0.00000000E+00	 3.03895000E+01	 0.00000000E+00	 0.00000000E+00	 6.61187588E+01	-1.99711150E+01	 0.00000000E+00	 5.38310250E+01
					-4.00249000E+00	 3.78624000E+01	 0.00000000E+00	 3.03895000E+01	 0.00000000E+00	 0.00000000E+00	 6.61187588E+01	-1.99711150E+01	 0.00000000E+00	 5.38310250E+01
					-4.00249000E+00	 3.78624000E+01	 0.00000000E+00	 3.03895000E+01	 0.00000000E+00	 0.00000000E+00	 6.61187588E+01	-1.99711150E+01	 0.00000000E+00	 5.38310250E+01
					 2.56407000E+02	 3.78624000E+01	 0.00000000E+00	-2.26416000E-07	 0.00000000E+00	 0.00000000E+00	 2.39728861E+02	 0.00000000E+00	 3.78624000E+01	 2.56407000E+02
					 2.56407000E+02	 3.78624000E+01	 0.00000000E+00	-2.26416000E-07	 0.00000000E+00	 0.00000000E+00	 2.39728861E+02	 0.00000000E+00	 3.78624000E+01	 2.56407000E+02
					-4.00249000E+00	 3.78624000E+01	 0.00000000E+00	-3.03895000E+01	 0.00000000E+00	 0.00000000E+00	 6.61187588E+01	-1.99711150E+01	 0.00000000E+00	 5.38310250E+01
					-4.00249000E+00	 3.78624000E+01	 0.00000000E+00	-3.03895000E+01	 0.00000000E+00	 0.00000000E+00	 6.61187588E+01	-1.99711150E+01	 0.00000000E+00	 5.38310250E+01
				</DataArray>
				<DataArray type="Float32" Name="ERROR" NumberOfComponents="1" ComponentName0="STR" format="ascii">
					 8.09120000E+01
					 8.09120000E+01
					 8.09120000E+01
					 8.09120000E+01
					 8.09120000E+01
					 8.09120000E+01
					 8.09120000E+01
					 8.09120000E+01
					 8.09120000E+01
					 8.09120000E+01
					 8.09120000E+01
					 8.09120000E+01
					 8.09120000E+01
					 8.09120000E+01
					 8.09120000E+01
					 8.09120000E+01
					 8.09120000E+01
					 8.09120000E+01
				</DataArray>
			</PointData>
		</Piece>
	</UnstructuredGrid>
</VTKFile>