# vtk DataFile Version 3.0

ASCII
DATASET UNSTRUCTURED_GRID

POINTS 18 double
	-7.45058000E-09	-7.45058000E-09	-5.00000000E-03
	-7.45058000E-09	-7.45058000E-09	 5.00000000E-03
	 5.00000000E-01	-7.45058000E-09	-5.00000000E-03
	 5.00000000E-01	-7.45058000E-09	 5.00000000E-03
	 5.00000000E-01	 5.00000000E-01	-5.00000000E-03
	 5.00000000E-01	 5.00000000E-01	 5.00000000E-03
	-7.45058000E-09	 5.00000000E-01	-5.00000000E-03
	-7.45058000E-09	 5.00000000E-01	 5.00000000E-03
	 5.00000000E-01	 1.00000000E+00	-5.00000000E-03
	 5.00000000E-01	 1.00000000E+00	 5.00000000E-03
	-7.45058000E-09	 1.00000000E+00	-5.00000000E-03
	-7.45058000E-09	 1.00000000E+00	 5.00000000E-03
	 1.00000000E+00	-7.45058000E-09	-5.00000000E-03
	 1.00000000E+00	-7.45058000E-09	 5.00000000E-03
	 1.00000000E+00	 5.00000000E-01	-5.00000000E-03
	 1.00000000E+00	 5.00000000E-01	 5.00000000E-03
	 1.00000000E+00	 1.00000000E+00	-5.00000000E-03
	 1.00000000E+00	 1.00000000E+00	 5.00000000E-03

CELLS 4 36
	8 0 2 4 6 1 3 5 7 
	8 6 4 8 10 7 5 9 11 
	8 2 12 14 4 3 13 15 5 
	8 4 14 16 8 5 15 17 9 

CELL_TYPES 4
	12
	12
	12
	12

POINT_DATA 18
FIELD U 1
	U 3 18 double
		 0.00000000E+00	 0.00000000E+00	 2.41885000E-07
		 0.00000000E+00	 0.00000000E+00	-2.41885000E-07
		 0.00000000E+00	 2.43761000E-04	-4.89396000E-07
		 0.00000000E+00	 2.43761000E-04	 4.89396000E-07
		 0.00000000E+00	 0.00000000E+00	 1.37068000E-06
		 0.00000000E+00	 0.00000000E+00	-1.37068000E-06
		-6.20027000E-04	 0.00000000E+00	 2.10197000E-06
		-6.20027000E-04	 0.00000000E+00	-2.10197000E-06
		 0.00000000E+00	-2.43761000E-04	-4.89396000E-07
		 0.00000000E+00	-2.43761000E-04	 4.89396000E-07
		 0.00000000E+00	 0.00000000E+00	 2.41885000E-07
		 0.00000000E+00	 0.00000000E+00	-2.41885000E-07
		 0.00000000E+00	 0.00000000E+00	 2.41885000E-07
		 0.00000000E+00	 0.00000000E+00	-2.41885000E-07
		 6.20027000E-04	 0.00000000E+00	 2.10197000E-06
		 6.20027000E-04	 0.00000000E+00	-2.10197000E-06
		 0.00000000E+00	 0.00000000E+00	 2.41885000E-07
		 0.00000000E+00	 0.00000000E+00	-2.41885000E-07
FIELD S 1
	S 10 18 double
		-4.00249000E+00	 3.78624000E+01	 0.00000000E+00	-3.03895000E+01	 0.00000000E+00	 0.00000000E+00	 6.61187588E+01	-1.99711150E+01	 0.00000000E+00	 5.38310250E+01
		-4.00249000E+00	 3.78624000E+01	 0.00000000E+00	-3.03895000E+01	 0.00000000E+00	 0.00000000E+00	 6.61187588E+01	-1.99711150E+01	 0.00000000E+00	 5.38310250E+01
		-4.00249000E+00	-6.45164000E+01	 0.00000000E+00	 2.26429000E-07	 0.00000000E+00	 0.00000000E+00	 6.26111775E+01	-6.45164000E+01	-4.00249000E+00	 0.00000000E+00
		-4.00249000E+00	-6.45164000E+01	 0.00000000E+00	 2.26429000E-07	 0.00000000E+00	 0.00000000E+00	 6.26111775E+01	-6.45164000E+01	-4.00249000E+00	 0.00000000E+00
		 2.56407000E+02	-6.45164000E+01	 0.00000000E+00	 0.00000000E+00	 0.00000000E+00	 0.00000000E+00	 2.94022741E+02	-6.45164000E+01	 0.00000000E+00	 2.56407000E+02
		 2.56407000E+02	-6.45164000E+01	 0.00000000E+00	 0.00000000E+00	 0.00000000E+00	 0.00000000E+00	 2.94022741E+02	-6.45164000E+01	 0.00000000E+00	 2.56407000E+02
		 2.56407000E+02	 3.78624000E+01	 0.00000000E+00	 2.26416000E-07	 0.00000000E+00	 0.00000000E+00	 2.39728861E+02	 0.00000000E+00	 3.78624000E+01	 2.56407000E+02
		 2.56407000E+02	 3.78624000E+01	 0.00000000E+00	 2.26416000E-07	 0.00000000E+00	 0.00000000E+00	 2.39728861E+02	 0.00000000E+00	 3.78624000E+01	 2.56407000E+02
		-4.00249000E+00	-6.45164000E+01	 0.00000000E+00	-2.26429000E-07	 0.00000000E+00	 0.00000000E+00	 6.26111775E+01	-6.45164000E+01	-4.00249000E+00	 0.00000000E+00
		-4.00249000E+00	-6.45164000E+01	 0.00000000E+00	-2.26429000E-07	 0.00000000E+00	 0.00000000E+00	 6.26111775E+01	-6.45164000E+01	-4.00249000E+00	 0.00000000E+00
		-4.00249000E+00	 3.78624000E+01	 0.00000000E+00	 3.03895000E+01	 0.00000000E+00	 0.00000000E+00	 6.61187588E+01	-1.99711150E+01	 0.00000000E+00	 5.38310250E+01
		-4.00249000E+00	 3.78624000E+01	 0.00000000E+00	 3.03895000E+01	 0.00000000E+00	 0.00000000E+00	 6.61187588E+01	-1.99711150E+01	 0.00000000E+00	 5.38310250E+01
		-4.00249000E+00	 3.78624000E+01	 0.00000000E+00	 3.03895000E+01	 0.00000000E+00	 0.00000000E+00	 6.61187588E+01	-1.99711150E+01	 0.00000000E+00	 5.38310250E+01
		-4.00249000E+00	 3.78624000E+01	 0.00000000E+00	 3.03895000E+01	 0.00000000E+00	 0.00000000E+00	 6.61187588E+01	-1.99711150E+01	 0.00000000E+00	 5.38310250E+01
		 2.56407000E+02	 3.78624000E+01	 0.00000000E+00	-2.26416000E-07	 0.00000000E+00	 0.00000000E+00	 2.39728861E+02	 0.00000000E+00	 3.78624000E+01	 2.56407000E+02
		 2.56407000E+02	 3.78624000E+01	 0.00000000E+00	-2.26416000E-07	 0.00000000E+00	 0.00000000E+00	 2.39728861E+02	 0.00000000E+00	 3.78624000E+01	 2.56407000E+02
		-4.00249000E+00	 3.78624000E+01	 0.00000000E+00	-3.03895000E+01	 0.00000000E+00	 0.00000000E+00	 6.61187588E+01	-1.99711150E+01	 0.00000000E+00	 5.38310250E+01
		-4.00249000E+00	 3.78624000E+01	 0.00000000E+00	-3.03895000E+01	 0.00000000E+00	 0.00000000E+00	 6.61187588E+01	-1.99711150E+01	 0.00000000E+00	 5.38310250E+01
FIELD ERROR 1
	ERROR 1 18 double
		 8.09120000E+01
		 8.09120000E+01
		 8.09120000E+01
		 8.09120000E+01
		 8.09120000E+01
		 8.09120000E+01
		 8.09120000E+01
		 8.09120000E+01
		 8.09120000E+01
		 8.09120000E+01
		 8.09120000E+01
		 8.09120000E+01
		 8.09120000E+01
		 8.09120000E+01
		 8.09120000E+01
		 8.09120000E+01
		 8.09120000E+01
		 8.09120000E+01
