# vtk DataFile Version 3.0

ASCII
DATASET UNSTRUCTURED_GRID

POINTS 51 double
	-7.45058000E-09	-7.45058000E-09	-5.00000000E-03
	-7.45058000E-09	-7.45058000E-09	 0.00000000E+00
	-7.45058000E-09	-7.45058000E-09	 5.00000000E-03
	 5.00000000E-01	-7.45058000E-09	-5.00000000E-03
	 5.00000000E-01	-7.45058000E-09	 0.00000000E+00
	 5.00000000E-01	-7.45058000E-09	 5.00000000E-03
	 5.00000000E-01	 5.00000000E-01	-5.00000000E-03
	 5.00000000E-01	 5.00000000E-01	 0.00000000E+00
	 5.00000000E-01	 5.00000000E-01	 5.00000000E-03
	-7.45058000E-09	 5.00000000E-01	-5.00000000E-03
	-7.45058000E-09	 5.00000000E-01	 0.00000000E+00
	-7.45058000E-09	 5.00000000E-01	 5.00000000E-03
	 2.50000000E-01	-7.45058000E-09	-5.00000000E-03
	 2.50000000E-01	-7.45058000E-09	 5.00000000E-03
	 5.00000000E-01	 2.50000000E-01	-5.00000000E-03
	 5.00000000E-01	 2.50000000E-01	 5.00000000E-03
	 2.50000000E-01	 5.00000000E-01	-5.00000000E-03
	 2.50000000E-01	 5.00000000E-01	 5.00000000E-03
	-7.45058000E-09	 2.50000000E-01	-5.00000000E-03
	-7.45058000E-09	 2.50000000E-01	 5.00000000E-03
	 5.00000000E-01	 1.00000000E+00	-5.00000000E-03
	 5.00000000E-01	 1.00000000E+00	 0.00000000E+00
	 5.00000000E-01	 1.00000000E+00	 5.00000000E-03
	-7.45058000E-09	 1.00000000E+00	-5.00000000E-03
	-7.45058000E-09	 1.00000000E+00	 0.00000000E+00
	-7.45058000E-09	 1.00000000E+00	 5.00000000E-03
	 5.00000000E-01	 7.50000000E-01	-5.00000000E-03
	 5.00000000E-01	 7.50000000E-01	 5.00000000E-03
	 2.50000000E-01	 1.00000000E+00	-5.00000000E-03
	 2.50000000E-01	 1.00000000E+00	 5.00000000E-03
	-7.45058000E-09	 7.50000000E-01	-5.00000000E-03
	-7.45058000E-09	 7.50000000E-01	 5.00000000E-03
	 1.00000000E+00	-7.45058000E-09	-5.00000000E-03
	 1.00000000E+00	-7.45058000E-09	 0.00000000E+00
	 1.00000000E+00	-7.45058000E-09	 5.00000000E-03
	 1.00000000E+00	 5.00000000E-01	-5.00000000E-03
	 1.00000000E+00	 5.00000000E-01	 0.00000000E+00
	 1.00000000E+00	 5.00000000E-01	 5.00000000E-03
	 7.50000000E-01	-7.45058000E-09	-5.00000000E-03
	 7.50000000E-01	-7.45058000E-09	 5.00000000E-03
	 1.00000000E+00	 2.50000000E-01	-5.00000000E-03
	 1.00000000E+00	 2.50000000E-01	 5.00000000E-03
	 7.50000000E-01	 5.00000000E-01	-5.00000000E-03
	 7.50000000E-01	 5.00000000E-01	 5.00000000E-03
	 1.00000000E+00	 1.00000000E+00	-5.00000000E-03
	 1.00000000E+00	 1.00000000E+00	 0.00000000E+00
	 1.00000000E+00	 1.00000000E+00	 5.00000000E-03
	 1.00000000E+00	 7.50000000E-01	-5.00000000E-03
	 1.00000000E+00	 7.50000000E-01	 5.00000000E-03
	 7.50000000E-01	 1.00000000E+00	-5.00000000E-03
	 7.50000000E-01	 1.00000000E+00	 5.00000000E-03

CELLS 4 84
	20 0 3 6 9 2 5 8 11 12 14 16 18 13 15 17 19 1 4 7 10 
	20 9 6 20 23 11 8 22 25 16 26 28 30 17 27 29 31 10 7 21 24 
	20 3 32 35 6 5 34 37 8 38 40 42 14 39 41 43 15 4 33 36 7 
	20 6 35 44 20 8 37 46 22 42 47 49 26 43 48 50 27 7 36 45 21 

CELL_TYPES 4
	25
	25
	25
	25

POINT_DATA 51
FIELD SENENER 1
	SENENER 2 51 double
		 0.00000000E+00	 0.00000000E+00
		 0.00000000E+00	 0.00000000E+00
		 0.00000000E+00	 0.00000000E+00
		 0.00000000E+00	 0.00000000E+00
		 0.00000000E+00	 0.00000000E+00
		 0.00000000E+00	 0.00000000E+00
		 2.89948000E-02	 1.00000000E+00
		 2.89948000E-02	 1.00000000E+00
		 2.89948000E-02	 1.00000000E+00
		 0.00000000E+00	 0.00000000E+00
		 0.00000000E+00	 0.00000000E+00
		 0.00000000E+00	 0.00000000E+00
		 0.00000000E+00	 0.00000000E+00
		 0.00000000E+00	 0.00000000E+00
		 0.00000000E+00	 0.00000000E+00
		 0.00000000E+00	 0.00000000E+00
		 0.00000000E+00	 0.00000000E+00
		 0.00000000E+00	 0.00000000E+00
		 0.00000000E+00	 0.00000000E+00
		 0.00000000E+00	 0.00000000E+00
		 0.00000000E+00	 0.00000000E+00
		 0.00000000E+00	 0.00000000E+00
		 0.00000000E+00	 0.00000000E+00
		 0.00000000E+00	 0.00000000E+00
		 0.00000000E+00	 0.00000000E+00
		 0.00000000E+00	 0.00000000E+00
		 0.00000000E+00	 0.00000000E+00
		 0.00000000E+00	 0.00000000E+00
		 0.00000000E+00	 0.00000000E+00
		 0.00000000E+00	 0.00000000E+00
		 0.00000000E+00	 0.00000000E+00
		 0.00000000E+00	 0.00000000E+00
		 0.00000000E+00	 0.00000000E+00
		 0.00000000E+00	 0.00000000E+00
		 0.00000000E+00	 0.00000000E+00
		 0.00000000E+00	 0.00000000E+00
		 0.00000000E+00	 0.00000000E+00
		 0.00000000E+00	 0.00000000E+00
		 0.00000000E+00	 0.00000000E+00
		 0.00000000E+00	 0.00000000E+00
		 0.00000000E+00	 0.00000000E+00
		 0.00000000E+00	 0.00000000E+00
		 0.00000000E+00	 0.00000000E+00
		 0.00000000E+00	 0.00000000E+00
		 0.00000000E+00	 0.00000000E+00
		 0.00000000E+00	 0.00000000E+00
		 0.00000000E+00	 0.00000000E+00
		 0.00000000E+00	 0.00000000E+00
		 0.00000000E+00	 0.00000000E+00
		 0.00000000E+00	 0.00000000E+00
		 0.00000000E+00	 0.00000000E+00
