    1C
    1UUSER                                                              
    1UDATE              25.january.2020                                 
    1UTIME              14:54:18                                        
    1UHOST                                                              
    1UPGM               CalculiX                                        
    1UVERSION           Version 2.16                             
    1UCOMPILETIME       Tue  7 Jan 19:57:43 CET 2020                    
    1UDIR                                                               
    1UDBN                                                               
    1UMAT    1EL                                                        
    2C                            21                                     1
 -1         1-7.45058E-09-7.45058E-09 0.00000E+00
 -1         2 5.00000E-01-7.45058E-09 0.00000E+00
 -1         3 5.00000E-01 5.00000E-01 0.00000E+00
 -1         4-7.45058E-09 5.00000E-01 0.00000E+00
 -1         5 2.50000E-01-7.45058E-09 0.00000E+00
 -1         6 5.00000E-01 2.50000E-01 0.00000E+00
 -1         7 2.50000E-01 5.00000E-01 0.00000E+00
 -1         8-7.45058E-09 2.50000E-01 0.00000E+00
 -1         9 5.00000E-01 1.00000E+00 0.00000E+00
 -1        10-7.45058E-09 1.00000E+00 0.00000E+00
 -1        11 5.00000E-01 7.50000E-01 0.00000E+00
 -1        12 2.50000E-01 1.00000E+00 0.00000E+00
 -1        13-7.45058E-09 7.50000E-01 0.00000E+00
 -1        14 1.00000E+00-7.45058E-09 0.00000E+00
 -1        15 1.00000E+00 5.00000E-01 0.00000E+00
 -1        16 7.50000E-01-7.45058E-09 0.00000E+00
 -1        17 1.00000E+00 2.50000E-01 0.00000E+00
 -1        18 7.50000E-01 5.00000E-01 0.00000E+00
 -1        19 1.00000E+00 1.00000E+00 0.00000E+00
 -1        20 1.00000E+00 7.50000E-01 0.00000E+00
 -1        21 7.50000E-01 1.00000E+00 0.00000E+00
 -3
    3C                             4                                     1
 -1         1   10    0    1
 -2         1         2         3         4         5         6         7         8
 -1         2   10    0    1
 -2         4         3         9        10         7        11        12        13
 -1         3   10    0    1
 -2         2        14        15         3        16        17        18         6
 -1         4   10    0    1
 -2         3        15        19         9        18        20        21        11
 -3
    1PSTEP                         1           1           1          
  100CL  101 1.000000000          21                     0    1           1
 -4  DISP        4    1
 -5  D1          1    2    1    0
 -5  D2          1    2    2    0
 -5  D3          1    2    3    0
 -5  ALL         1    2    0    0    1ALL
 -1         1 0.00000E+00 0.00000E+00 0.00000E+00
 -1         2-2.94357E-17-3.60237E-17-1.25744E-03
 -1         3-1.34430E-17-5.27058E-17-2.41789E-11
 -1         4 0.00000E+00 0.00000E+00 0.00000E+00
 -1         5-2.15816E-17-2.51548E-17-3.67906E-04
 -1         6-1.76395E-17-4.59761E-17-6.78630E-04
 -1         7-7.88451E-18-2.05996E-17-5.49966E-12
 -1         8 0.00000E+00 0.00000E+00 0.00000E+00
 -1         9-4.97293E-18-3.98260E-17 1.25744E-03
 -1        10 0.00000E+00 0.00000E+00 0.00000E+00
 -1        11-1.88202E-17-4.47640E-17 6.78630E-04
 -1        12 3.86501E-18-1.88224E-17 3.67906E-04
 -1        13 0.00000E+00 0.00000E+00 0.00000E+00
 -1        14-5.02435E-17-6.48599E-17-3.50176E-03
 -1        15-1.82020E-17-4.55246E-17-8.92656E-11
 -1        16-4.61074E-17-5.09541E-17-2.33717E-03
 -1        17-1.83357E-17-6.43813E-17-1.92073E-03
 -1        18-9.74418E-18-3.72508E-17-5.43662E-11
 -1        19-8.36174E-17 4.22093E-17 3.50176E-03
 -1        20-1.03990E-17-5.28549E-19 1.92073E-03
 -1        21-4.79183E-17-3.74795E-17 2.33717E-03
 -3
 9999
