<?xml version="1.0"?>
<VTKFile type="UnstructuredGrid" version="0.1" byte_order="LittleEndian">
	<UnstructuredGrid>
		<Piece NumberOfPoints="21" NumberOfCells="4">
			<Points>
				<DataArray type="Float64" NumberOfComponents="3" format="ascii">
					-7.45058000E-09	-7.45058000E-09	 0.00000000E+00
					 5.00000000E-01	-7.45058000E-09	 0.00000000E+00
					 5.00000000E-01	 5.00000000E-01	 0.00000000E+00
					-7.45058000E-09	 5.00000000E-01	 0.00000000E+00
					 2.50000000E-01	-7.45058000E-09	 0.00000000E+00
					 5.00000000E-01	 2.50000000E-01	 0.00000000E+00
					 2.50000000E-01	 5.00000000E-01	 0.00000000E+00
					-7.45058000E-09	 2.50000000E-01	 0.00000000E+00
					 5.00000000E-01	 1.00000000E+00	 0.00000000E+00
					-7.45058000E-09	 1.00000000E+00	 0.00000000E+00
					 5.00000000E-01	 7.50000000E-01	 0.00000000E+00
					 2.50000000E-01	 1.00000000E+00	 0.00000000E+00
					-7.45058000E-09	 7.50000000E-01	 0.00000000E+00
					 1.00000000E+00	-7.45058000E-09	 0.00000000E+00
					 1.00000000E+00	 5.00000000E-01	 0.00000000E+00
					 7.50000000E-01	-7.45058000E-09	 0.00000000E+00
					 1.00000000E+00	 2.50000000E-01	 0.00000000E+00
					 7.50000000E-01	 5.00000000E-01	 0.00000000E+00
					 1.00000000E+00	 1.00000000E+00	 0.00000000E+00
					 1.00000000E+00	 7.50000000E-01	 0.00000000E+00
					 7.50000000E-01	 1.00000000E+00	 0.00000000E+00

				</DataArray>
			</Points>
			<Cells>
				<DataArray type="Int32" Name="connectivity" format="ascii">
					0 1 2 3 4 5 6 7 3 2 8 9 6 10 11 12 1 13 14 2 15 16 17 5 2 14 18 8 17 19 20 10 
				</DataArray>
				<DataArray type="Int32" Name="offsets" format="ascii">
					8 16 24 32 
				</DataArray>
				<DataArray type="UInt8" Name="types" format="ascii">
					23 23 23 23 
				</DataArray>
			</Cells>
			<PointData>
				<DataArray type="Float32" Name="U" NumberOfComponents="3" ComponentName0="D1" ComponentName1="D2" ComponentName2="D3" format="ascii">
					 0.00000000E+00	 0.00000000E+00	 0.00000000E+00
					 0.00000000E+00	 0.00000000E+00	-1.86672000E-03
					 0.00000000E+00	 0.00000000E+00	-7.51753000E-04
					 0.00000000E+00	 0.00000000E+00	 0.00000000E+00
					 0.00000000E+00	 0.00000000E+00	-5.06628000E-04
					 0.00000000E+00	 0.00000000E+00	-1.38132000E-03
					 0.00000000E+00	 0.00000000E+00	-1.75676000E-04
					 0.00000000E+00	 0.00000000E+00	 0.00000000E+00
					 0.00000000E+00	 0.00000000E+00	 6.48152000E-04
					 0.00000000E+00	 0.00000000E+00	 0.00000000E+00
					 0.00000000E+00	 0.00000000E+00	-2.40565000E-05
					 0.00000000E+00	 0.00000000E+00	 2.29184000E-04
					 0.00000000E+00	 0.00000000E+00	 0.00000000E+00
					 0.00000000E+00	 0.00000000E+00	-6.19296000E-03
					 0.00000000E+00	 0.00000000E+00	-3.18160000E-03
					 0.00000000E+00	 0.00000000E+00	-3.81255000E-03
					 0.00000000E+00	 0.00000000E+00	-4.96823000E-03
					 0.00000000E+00	 0.00000000E+00	-1.71199000E-03
					 0.00000000E+00	 0.00000000E+00	 8.10562000E-04
					 0.00000000E+00	 0.00000000E+00	-1.12677000E-03
					 0.00000000E+00	 0.00000000E+00	 8.61788000E-04
				</DataArray>
			</PointData>
		</Piece>
	</UnstructuredGrid>
</VTKFile>