# vtk DataFile Version 3.0

ASCII
DATASET UNSTRUCTURED_GRID

POINTS 51 double
	-7.45058000E-09	-7.45058000E-09	-5.00000000E-03
	-7.45058000E-09	-7.45058000E-09	 0.00000000E+00
	-7.45058000E-09	-7.45058000E-09	 5.00000000E-03
	 5.00000000E-01	-7.45058000E-09	-5.00000000E-03
	 5.00000000E-01	-7.45058000E-09	 0.00000000E+00
	 5.00000000E-01	-7.45058000E-09	 5.00000000E-03
	 5.00000000E-01	 5.00000000E-01	-5.00000000E-03
	 5.00000000E-01	 5.00000000E-01	 0.00000000E+00
	 5.00000000E-01	 5.00000000E-01	 5.00000000E-03
	-7.45058000E-09	 5.00000000E-01	-5.00000000E-03
	-7.45058000E-09	 5.00000000E-01	 0.00000000E+00
	-7.45058000E-09	 5.00000000E-01	 5.00000000E-03
	 2.50000000E-01	-7.45058000E-09	-5.00000000E-03
	 2.50000000E-01	-7.45058000E-09	 5.00000000E-03
	 5.00000000E-01	 2.50000000E-01	-5.00000000E-03
	 5.00000000E-01	 2.50000000E-01	 5.00000000E-03
	 2.50000000E-01	 5.00000000E-01	-5.00000000E-03
	 2.50000000E-01	 5.00000000E-01	 5.00000000E-03
	-7.45058000E-09	 2.50000000E-01	-5.00000000E-03
	-7.45058000E-09	 2.50000000E-01	 5.00000000E-03
	 5.00000000E-01	 1.00000000E+00	-5.00000000E-03
	 5.00000000E-01	 1.00000000E+00	 0.00000000E+00
	 5.00000000E-01	 1.00000000E+00	 5.00000000E-03
	-7.45058000E-09	 1.00000000E+00	-5.00000000E-03
	-7.45058000E-09	 1.00000000E+00	 0.00000000E+00
	-7.45058000E-09	 1.00000000E+00	 5.00000000E-03
	 5.00000000E-01	 7.50000000E-01	-5.00000000E-03
	 5.00000000E-01	 7.50000000E-01	 5.00000000E-03
	 2.50000000E-01	 1.00000000E+00	-5.00000000E-03
	 2.50000000E-01	 1.00000000E+00	 5.00000000E-03
	-7.45058000E-09	 7.50000000E-01	-5.00000000E-03
	-7.45058000E-09	 7.50000000E-01	 5.00000000E-03
	 1.00000000E+00	-7.45058000E-09	-5.00000000E-03
	 1.00000000E+00	-7.45058000E-09	 0.00000000E+00
	 1.00000000E+00	-7.45058000E-09	 5.00000000E-03
	 1.00000000E+00	 5.00000000E-01	-5.00000000E-03
	 1.00000000E+00	 5.00000000E-01	 0.00000000E+00
	 1.00000000E+00	 5.00000000E-01	 5.00000000E-03
	 7.50000000E-01	-7.45058000E-09	-5.00000000E-03
	 7.50000000E-01	-7.45058000E-09	 5.00000000E-03
	 1.00000000E+00	 2.50000000E-01	-5.00000000E-03
	 1.00000000E+00	 2.50000000E-01	 5.00000000E-03
	 7.50000000E-01	 5.00000000E-01	-5.00000000E-03
	 7.50000000E-01	 5.00000000E-01	 5.00000000E-03
	 1.00000000E+00	 1.00000000E+00	-5.00000000E-03
	 1.00000000E+00	 1.00000000E+00	 0.00000000E+00
	 1.00000000E+00	 1.00000000E+00	 5.00000000E-03
	 1.00000000E+00	 7.50000000E-01	-5.00000000E-03
	 1.00000000E+00	 7.50000000E-01	 5.00000000E-03
	 7.50000000E-01	 1.00000000E+00	-5.00000000E-03
	 7.50000000E-01	 1.00000000E+00	 5.00000000E-03

CELLS 4 84
	20 0 3 6 9 2 5 8 11 12 14 16 18 13 15 17 19 1 4 7 10 
	20 9 6 20 23 11 8 22 25 16 26 28 30 17 27 29 31 10 7 21 24 
	20 3 32 35 6 5 34 37 8 38 40 42 14 39 41 43 15 4 33 36 7 
	20 6 35 44 20 8 37 46 22 42 47 49 26 43 48 50 27 7 36 45 21 

CELL_TYPES 4
	25
	25
	25
	25

POINT_DATA 51
FIELD U 1
	U 3 51 double
		 0.00000000E+00	 0.00000000E+00	-9.85961000E-07
		 0.00000000E+00	 0.00000000E+00	 0.00000000E+00
		 0.00000000E+00	 0.00000000E+00	 9.85961000E-07
		 0.00000000E+00	 8.78585000E-05	 1.54991000E-06
		 0.00000000E+00	 8.78558000E-05	 0.00000000E+00
		 0.00000000E+00	 8.78585000E-05	-1.54991000E-06
		 0.00000000E+00	 0.00000000E+00	 9.44546000E-07
		 0.00000000E+00	 0.00000000E+00	 0.00000000E+00
		 0.00000000E+00	 0.00000000E+00	-9.44546000E-07
		-7.31545000E-04	 0.00000000E+00	 3.99999000E-06
		-7.32084000E-04	 0.00000000E+00	 0.00000000E+00
		-7.31545000E-04	 0.00000000E+00	-3.99999000E-06
		-4.41396000E-05	 1.11353000E-04	-6.81744000E-09
		-4.41396000E-05	 1.11353000E-04	 6.81741000E-09
		 0.00000000E+00	 1.12202000E-04	 4.85724000E-07
		 0.00000000E+00	 1.12202000E-04	-4.85724000E-07
		-3.28263000E-04	 0.00000000E+00	 2.19117000E-06
		-3.28263000E-04	 0.00000000E+00	-2.19117000E-06
		-1.87977000E-04	-1.33766000E-05	 7.45469000E-07
		-1.87977000E-04	-1.33766000E-05	-7.45469000E-07
		 0.00000000E+00	-8.78585000E-05	 1.54991000E-06
		 0.00000000E+00	-8.78558000E-05	 0.00000000E+00
		 0.00000000E+00	-8.78585000E-05	-1.54991000E-06
		 0.00000000E+00	 0.00000000E+00	-9.85961000E-07
		 0.00000000E+00	 0.00000000E+00	 0.00000000E+00
		 0.00000000E+00	 0.00000000E+00	 9.85961000E-07
		 0.00000000E+00	-1.12202000E-04	 4.85724000E-07
		 0.00000000E+00	-1.12202000E-04	-4.85724000E-07
		-4.41396000E-05	-1.11353000E-04	-6.81746000E-09
		-4.41396000E-05	-1.11353000E-04	 6.81739000E-09
		-1.87977000E-04	 1.33765000E-05	 7.45469000E-07
		-1.87977000E-04	 1.33765000E-05	-7.45469000E-07
		 0.00000000E+00	 0.00000000E+00	-9.85961000E-07
		 0.00000000E+00	 0.00000000E+00	 0.00000000E+00
		 0.00000000E+00	 0.00000000E+00	 9.85961000E-07
		 7.31545000E-04	 0.00000000E+00	 3.99999000E-06
		 7.32084000E-04	 0.00000000E+00	 0.00000000E+00
		 7.31545000E-04	 0.00000000E+00	-3.99999000E-06
		 4.41396000E-05	 1.11353000E-04	-6.81743000E-09
		 4.41396000E-05	 1.11353000E-04	 6.81740000E-09
		 1.87977000E-04	-1.33766000E-05	 7.45469000E-07
		 1.87977000E-04	-1.33766000E-05	-7.45469000E-07
		 3.28263000E-04	 0.00000000E+00	 2.19117000E-06
		 3.28263000E-04	 0.00000000E+00	-2.19117000E-06
		 0.00000000E+00	 0.00000000E+00	-9.85961000E-07
		 0.00000000E+00	 0.00000000E+00	 0.00000000E+00
		 0.00000000E+00	 0.00000000E+00	 9.85961000E-07
		 1.87977000E-04	 1.33766000E-05	 7.45469000E-07
		 1.87977000E-04	 1.33766000E-05	-7.45469000E-07
		 4.41396000E-05	-1.11353000E-04	-6.81746000E-09
		 4.41396000E-05	-1.11353000E-04	 6.81738000E-09
FIELD S 1
	S 10 51 double
		-8.89035000E+01	-4.91430000E+01	-1.67916000E-03	 5.44714000E+01	 3.13348000E-01	 2.23025000E-01	 1.21866707E+02	-1.27009091E+02	-1.10507962E+01	 1.17081690E-02
		-8.88937000E+01	-4.91433000E+01	-1.67759000E-03	 5.43805000E+01	 0.00000000E+00	 0.00000000E+00	 1.21737869E+02	-1.26917225E+02	-1.11197750E+01	-1.67759000E-03
		-8.89035000E+01	-4.91430000E+01	-1.67916000E-03	 5.44714000E+01	-3.13348000E-01	-2.23025000E-01	 1.21866707E+02	-1.27009091E+02	-1.10507962E+01	 1.17081690E-02
		 1.07147000E+02	 1.09954000E+02	 3.47104000E-02	-1.64430000E-07	-6.79389000E-01	 1.25019000E-08	 1.08549393E+02	 3.05113938E-02	 1.07147000E+02	 1.09958199E+02
		 1.07157000E+02	 1.09955000E+02	 3.53835000E-02	-1.64913000E-07	 0.00000000E+00	 0.00000000E+00	 1.08547666E+02	 3.53835000E-02	 1.07157000E+02	 1.09955000E+02
		 1.07147000E+02	 1.09954000E+02	 3.47104000E-02	-1.64461000E-07	 6.79389000E-01	-1.25071000E-08	 1.08549393E+02	 3.05113938E-02	 1.07147000E+02	 1.09958199E+02
		 2.18423000E+02	-8.60589000E+01	 3.98226000E-02	 0.00000000E+00	 2.86423000E-09	-8.75673000E-08	 2.71857895E+02	-8.60589000E+01	 3.98226000E-02	 2.18423000E+02
		 2.18738000E+02	-8.59269000E+01	 1.71205000E-01	 0.00000000E+00	 0.00000000E+00	 0.00000000E+00	 2.72034032E+02	-8.59269000E+01	 1.71205000E-01	 2.18738000E+02
		 2.18423000E+02	-8.60589000E+01	 3.98226000E-02	 0.00000000E+00	-2.86316000E-09	 8.75830000E-08	 2.71857895E+02	-8.60589000E+01	 3.98226000E-02	 2.18423000E+02
		 4.14473000E+02	 1.46944000E+02	 4.26041000E-01	-1.74071000E-06	 1.23277000E-08	-1.81031000E+01	 3.64993490E+02	-3.63961483E-01	 1.46944000E+02	 4.15263002E+02
		 4.14787000E+02	 1.47074000E+02	 5.56751000E-01	-1.74125000E-06	 0.00000000E+00	 0.00000000E+00	 3.63816062E+02	 5.56751000E-01	 1.47074000E+02	 4.14787000E+02
		 4.14473000E+02	 1.46944000E+02	 4.26041000E-01	-1.74047000E-06	-1.23199000E-08	 1.81031000E+01	 3.64993490E+02	-3.63961483E-01	 1.46944000E+02	 4.15263002E+02
		-2.08433000E-01	-7.17878000E-01	 7.15965000E-03	 2.57358000E+01	-1.81776000E-01	 4.09661000E-01	 4.45871354E+01	-2.62068625E+01	 1.27518523E-02	 2.52749593E+01
		-2.08433000E-01	-7.17878000E-01	 7.15965000E-03	 2.57358000E+01	 1.81776000E-01	-4.09661000E-01	 4.45871354E+01	-2.62068625E+01	 1.27518523E-02	 2.52749593E+01
		 8.07229000E+01	-1.26824000E+01	 1.04266000E-02	 1.53036000E-07	-1.42564000E-01	-4.28058000E-08	 8.77504508E+01	-1.26840011E+01	 1.20276564E-02	 8.07229000E+01
		 8.07229000E+01	-1.26824000E+01	 1.04266000E-02	 1.53011000E-07	 1.42564000E-01	 4.28038000E-08	 8.77504508E+01	-1.26840011E+01	 1.20276564E-02	 8.07229000E+01
		 3.06931000E+02	-8.67219000E-01	-2.11822000E-01	-8.42677000E-07	 5.90218000E-09	-9.20755000E+00	 3.07884362E+02	-8.67219000E-01	-4.87598994E-01	 3.07206777E+02
		 3.06931000E+02	-8.67219000E-01	-2.11822000E-01	-8.42567000E-07	-5.90284000E-09	 9.20755000E+00	 3.07884362E+02	-8.67219000E-01	-4.87598994E-01	 3.07206777E+02
		 8.07237000E+01	 2.42717000E+01	 1.87578000E-01	-7.61057000E+01	 8.05428000E-01	-8.94005000E+00	 1.50812541E+02	-2.93508699E+01	 4.10300401E-01	 1.34123548E+02
		 8.07237000E+01	 2.42717000E+01	 1.87578000E-01	-7.61057000E+01	-8.05428000E-01	 8.94005000E+00	 1.50812541E+02	-2.93508699E+01	 4.10300401E-01	 1.34123548E+02
		 1.07147000E+02	 1.09954000E+02	 3.47107000E-02	 1.64404000E-07	 6.79389000E-01	 1.25038000E-08	 1.08549393E+02	 3.05116938E-02	 1.07147000E+02	 1.09958199E+02
		 1.07157000E+02	 1.09955000E+02	 3.53838000E-02	 1.64866000E-07	 0.00000000E+00	 0.00000000E+00	 1.08547666E+02	 3.53838000E-02	 1.07157000E+02	 1.09955000E+02
		 1.07147000E+02	 1.09954000E+02	 3.47107000E-02	 1.64392000E-07	-6.79389000E-01	-1.25067000E-08	 1.08549393E+02	 3.05116938E-02	 1.07147000E+02	 1.09958199E+02
		-8.89035000E+01	-4.91430000E+01	-1.67925000E-03	-5.44714000E+01	-3.13348000E-01	 2.23025000E-01	 1.21866707E+02	-1.27009091E+02	-1.10507962E+01	 1.17080791E-02
		-8.88937000E+01	-4.91433000E+01	-1.67768000E-03	-5.43805000E+01	 0.00000000E+00	 0.00000000E+00	 1.21737869E+02	-1.26917225E+02	-1.11197750E+01	-1.67768000E-03
		-8.89035000E+01	-4.91430000E+01	-1.67925000E-03	-5.44714000E+01	 3.13348000E-01	-2.23025000E-01	 1.21866707E+02	-1.27009091E+02	-1.10507962E+01	 1.17080791E-02
		 8.07229000E+01	-1.26824000E+01	 1.04265000E-02	-1.53029000E-07	 1.42564000E-01	-4.28064000E-08	 8.77504508E+01	-1.26840011E+01	 1.20275564E-02	 8.07229000E+01
		 8.07229000E+01	-1.26824000E+01	 1.04265000E-02	-1.53045000E-07	-1.42564000E-01	 4.28050000E-08	 8.77504508E+01	-1.26840011E+01	 1.20275564E-02	 8.07229000E+01
		-2.08432000E-01	-7.17877000E-01	 7.15983000E-03	-2.57358000E+01	 1.81776000E-01	 4.09661000E-01	 4.45871354E+01	-2.62068615E+01	 1.27520326E-02	 2.52749603E+01
		-2.08432000E-01	-7.17877000E-01	 7.15983000E-03	-2.57358000E+01	-1.81776000E-01	-4.09661000E-01	 4.45871354E+01	-2.62068615E+01	 1.27520326E-02	 2.52749603E+01
		 8.07237000E+01	 2.42717000E+01	 1.87578000E-01	 7.61057000E+01	-8.05428000E-01	-8.94005000E+00	 1.50812541E+02	-2.93508699E+01	 4.10300401E-01	 1.34123548E+02
		 8.07237000E+01	 2.42717000E+01	 1.87578000E-01	 7.61057000E+01	 8.05428000E-01	 8.94005000E+00	 1.50812541E+02	-2.93508699E+01	 4.10300401E-01	 1.34123548E+02
		-8.89035000E+01	-4.91430000E+01	-1.67986000E-03	-5.44714000E+01	 3.13348000E-01	-2.23025000E-01	 1.21866707E+02	-1.27009091E+02	-1.10507962E+01	 1.17074698E-02
		-8.88937000E+01	-4.91433000E+01	-1.67829000E-03	-5.43805000E+01	 0.00000000E+00	 0.00000000E+00	 1.21737869E+02	-1.26917225E+02	-1.11197750E+01	-1.67829000E-03
		-8.89035000E+01	-4.91430000E+01	-1.67986000E-03	-5.44714000E+01	-3.13348000E-01	 2.23025000E-01	 1.21866707E+02	-1.27009091E+02	-1.10507962E+01	 1.17074698E-02
		 4.14473000E+02	 1.46944000E+02	 4.26041000E-01	 1.74071000E-06	 1.23279000E-08	 1.81031000E+01	 3.64993490E+02	-3.63961483E-01	 1.46944000E+02	 4.15263002E+02
		 4.14787000E+02	 1.47074000E+02	 5.56751000E-01	 1.74127000E-06	 0.00000000E+00	 0.00000000E+00	 3.63816062E+02	 5.56751000E-01	 1.47074000E+02	 4.14787000E+02
		 4.14473000E+02	 1.46944000E+02	 4.26041000E-01	 1.74052000E-06	-1.23188000E-08	-1.81031000E+01	 3.64993490E+02	-3.63961483E-01	 1.46944000E+02	 4.15263002E+02
		-2.08431000E-01	-7.17877000E-01	 7.16000000E-03	-2.57358000E+01	-1.81776000E-01	-4.09661000E-01	 4.45871354E+01	-2.62068611E+01	 1.27522026E-02	 2.52749608E+01
		-2.08431000E-01	-7.17877000E-01	 7.16000000E-03	-2.57358000E+01	 1.81776000E-01	 4.09661000E-01	 4.45871354E+01	-2.62068611E+01	 1.27522026E-02	 2.52749608E+01
		 8.07237000E+01	 2.42717000E+01	 1.87578000E-01	 7.61057000E+01	 8.05428000E-01	 8.94005000E+00	 1.50812541E+02	-2.93508699E+01	 4.10300401E-01	 1.34123548E+02
		 8.07237000E+01	 2.42717000E+01	 1.87578000E-01	 7.61057000E+01	-8.05428000E-01	-8.94005000E+00	 1.50812541E+02	-2.93508699E+01	 4.10300401E-01	 1.34123548E+02
		 3.06931000E+02	-8.67216000E-01	-2.11822000E-01	 8.42700000E-07	 5.90317000E-09	 9.20755000E+00	 3.07884360E+02	-8.67216000E-01	-4.87598994E-01	 3.07206777E+02
		 3.06931000E+02	-8.67216000E-01	-2.11822000E-01	 8.42592000E-07	-5.90311000E-09	-9.20755000E+00	 3.07884360E+02	-8.67216000E-01	-4.87598994E-01	 3.07206777E+02
		-8.89035000E+01	-4.91430000E+01	-1.67996000E-03	 5.44714000E+01	-3.13348000E-01	-2.23025000E-01	 1.21866707E+02	-1.27009091E+02	-1.10507962E+01	 1.17073700E-02
		-8.88937000E+01	-4.91433000E+01	-1.67839000E-03	 5.43805000E+01	 0.00000000E+00	 0.00000000E+00	 1.21737869E+02	-1.26917225E+02	-1.11197750E+01	-1.67839000E-03
		-8.89035000E+01	-4.91430000E+01	-1.67996000E-03	 5.44714000E+01	 3.13348000E-01	 2.23025000E-01	 1.21866707E+02	-1.27009091E+02	-1.10507962E+01	 1.17073700E-02
		 8.07237000E+01	 2.42717000E+01	 1.87578000E-01	-7.61057000E+01	-8.05428000E-01	 8.94005000E+00	 1.50812541E+02	-2.93508699E+01	 4.10300401E-01	 1.34123548E+02
		 8.07237000E+01	 2.42717000E+01	 1.87578000E-01	-7.61057000E+01	 8.05428000E-01	-8.94005000E+00	 1.50812541E+02	-2.93508699E+01	 4.10300401E-01	 1.34123548E+02
		-2.08431000E-01	-7.17877000E-01	 7.16018000E-03	 2.57358000E+01	 1.81776000E-01	-4.09661000E-01	 4.45871354E+01	-2.62068611E+01	 1.27523825E-02	 2.52749608E+01
		-2.08431000E-01	-7.17877000E-01	 7.16018000E-03	 2.57358000E+01	-1.81776000E-01	 4.09661000E-01	 4.45871354E+01	-2.62068611E+01	 1.27523825E-02	 2.52749608E+01
FIELD ERROR 1
	ERROR 1 51 double
		 2.18951000E+01
		 2.18951000E+01
		 2.18951000E+01
		 2.18951000E+01
		 2.18951000E+01
		 2.18951000E+01
		 2.18951000E+01
		 2.18951000E+01
		 2.18951000E+01
		 2.18951000E+01
		 2.18951000E+01
		 2.18951000E+01
		 2.18951000E+01
		 2.18951000E+01
		 2.18951000E+01
		 2.18951000E+01
		 2.18951000E+01
		 2.18951000E+01
		 2.18951000E+01
		 2.18951000E+01
		 2.18951000E+01
		 2.18951000E+01
		 2.18951000E+01
		 2.18951000E+01
		 2.18951000E+01
		 2.18951000E+01
		 2.18951000E+01
		 2.18951000E+01
		 2.18951000E+01
		 2.18951000E+01
		 2.18951000E+01
		 2.18951000E+01
		 2.18951000E+01
		 2.18951000E+01
		 2.18951000E+01
		 2.18951000E+01
		 2.18951000E+01
		 2.18951000E+01
		 2.18951000E+01
		 2.18951000E+01
		 2.18951000E+01
		 2.18951000E+01
		 2.18951000E+01
		 2.18951000E+01
		 2.18951000E+01
		 2.18951000E+01
		 2.18951000E+01
		 2.18951000E+01
		 2.18951000E+01
		 2.18951000E+01
		 2.18951000E+01
