<?xml version="1.0"?>
<VTKFile type="UnstructuredGrid" version="0.1" byte_order="LittleEndian">
	<UnstructuredGrid>
		<Piece NumberOfPoints="51" NumberOfCells="4">
			<Points>
				<DataArray type="Float64" NumberOfComponents="3" format="ascii">
					-7.45058000E-09	-7.45058000E-09	-5.00000000E-03
					-7.45058000E-09	-7.45058000E-09	 0.00000000E+00
					-7.45058000E-09	-7.45058000E-09	 5.00000000E-03
					 5.00000000E-01	-7.45058000E-09	-5.00000000E-03
					 5.00000000E-01	-7.45058000E-09	 0.00000000E+00
					 5.00000000E-01	-7.45058000E-09	 5.00000000E-03
					 5.00000000E-01	 5.00000000E-01	-5.00000000E-03
					 5.00000000E-01	 5.00000000E-01	 0.00000000E+00
					 5.00000000E-01	 5.00000000E-01	 5.00000000E-03
					-7.45058000E-09	 5.00000000E-01	-5.00000000E-03
					-7.45058000E-09	 5.00000000E-01	 0.00000000E+00
					-7.45058000E-09	 5.00000000E-01	 5.00000000E-03
					 2.50000000E-01	-7.45058000E-09	-5.00000000E-03
					 2.50000000E-01	-7.45058000E-09	 5.00000000E-03
					 5.00000000E-01	 2.50000000E-01	-5.00000000E-03
					 5.00000000E-01	 2.50000000E-01	 5.00000000E-03
					 2.50000000E-01	 5.00000000E-01	-5.00000000E-03
					 2.50000000E-01	 5.00000000E-01	 5.00000000E-03
					-7.45058000E-09	 2.50000000E-01	-5.00000000E-03
					-7.45058000E-09	 2.50000000E-01	 5.00000000E-03
					 5.00000000E-01	 1.00000000E+00	-5.00000000E-03
					 5.00000000E-01	 1.00000000E+00	 0.00000000E+00
					 5.00000000E-01	 1.00000000E+00	 5.00000000E-03
					-7.45058000E-09	 1.00000000E+00	-5.00000000E-03
					-7.45058000E-09	 1.00000000E+00	 0.00000000E+00
					-7.45058000E-09	 1.00000000E+00	 5.00000000E-03
					 5.00000000E-01	 7.50000000E-01	-5.00000000E-03
					 5.00000000E-01	 7.50000000E-01	 5.00000000E-03
					 2.50000000E-01	 1.00000000E+00	-5.00000000E-03
					 2.50000000E-01	 1.00000000E+00	 5.00000000E-03
					-7.45058000E-09	 7.50000000E-01	-5.00000000E-03
					-7.45058000E-09	 7.50000000E-01	 5.00000000E-03
					 1.00000000E+00	-7.45058000E-09	-5.00000000E-03
					 1.00000000E+00	-7.45058000E-09	 0.00000000E+00
					 1.00000000E+00	-7.45058000E-09	 5.00000000E-03
					 1.00000000E+00	 5.00000000E-01	-5.00000000E-03
					 1.00000000E+00	 5.00000000E-01	 0.00000000E+00
					 1.00000000E+00	 5.00000000E-01	 5.00000000E-03
					 7.50000000E-01	-7.45058000E-09	-5.00000000E-03
					 7.50000000E-01	-7.45058000E-09	 5.00000000E-03
					 1.00000000E+00	 2.50000000E-01	-5.00000000E-03
					 1.00000000E+00	 2.50000000E-01	 5.00000000E-03
					 7.50000000E-01	 5.00000000E-01	-5.00000000E-03
					 7.50000000E-01	 5.00000000E-01	 5.00000000E-03
					 1.00000000E+00	 1.00000000E+00	-5.00000000E-03
					 1.00000000E+00	 1.00000000E+00	 0.00000000E+00
					 1.00000000E+00	 1.00000000E+00	 5.00000000E-03
					 1.00000000E+00	 7.50000000E-01	-5.00000000E-03
					 1.00000000E+00	 7.50000000E-01	 5.00000000E-03
					 7.50000000E-01	 1.00000000E+00	-5.00000000E-03
					 7.50000000E-01	 1.00000000E+00	 5.00000000E-03

				</DataArray>
			</Points>
			<Cells>
				<DataArray type="Int32" Name="connectivity" format="ascii">
					0 3 6 9 2 5 8 11 12 14 16 18 13 15 17 19 1 4 7 10 9 6 20 23 11 8 22 25 16 26 28 30 17 27 29 31 10 7 21 24 3 32 35 6 5 34 37 8 38 40 42 14 39 41 43 15 4 33 36 7 6 35 44 20 8 37 46 22 42 47 49 26 43 48 50 27 7 36 45 21 
				</DataArray>
				<DataArray type="Int32" Name="offsets" format="ascii">
					20 40 60 80 
				</DataArray>
				<DataArray type="UInt8" Name="types" format="ascii">
					25 25 25 25 
				</DataArray>
			</Cells>
			<PointData>
				<DataArray type="Float32" Name="NORM" NumberOfComponents="3" ComponentName0="x" ComponentName1="y" ComponentName2="z" format="ascii">
					 0.00000000E+00	 0.00000000E+00	-1.00000000E+00
					 0.00000000E+00	 0.00000000E+00	 0.00000000E+00
					 0.00000000E+00	 0.00000000E+00	 1.00000000E+00
					 0.00000000E+00	 0.00000000E+00	-1.00000000E+00
					 0.00000000E+00	 0.00000000E+00	 0.00000000E+00
					 0.00000000E+00	 0.00000000E+00	 1.00000000E+00
					 0.00000000E+00	 0.00000000E+00	-1.00000000E+00
					 0.00000000E+00	 0.00000000E+00	-1.00000000E+00
					 0.00000000E+00	 0.00000000E+00	-1.00000000E+00
					 0.00000000E+00	 0.00000000E+00	-1.00000000E+00
					 0.00000000E+00	 0.00000000E+00	 0.00000000E+00
					 0.00000000E+00	 0.00000000E+00	 1.00000000E+00
					 0.00000000E+00	 0.00000000E+00	-1.00000000E+00
					 0.00000000E+00	 0.00000000E+00	 1.00000000E+00
					 0.00000000E+00	 0.00000000E+00	-1.00000000E+00
					 0.00000000E+00	 0.00000000E+00	 1.00000000E+00
					 0.00000000E+00	 0.00000000E+00	-1.00000000E+00
					 0.00000000E+00	 0.00000000E+00	 1.00000000E+00
					 0.00000000E+00	 0.00000000E+00	-1.00000000E+00
					 0.00000000E+00	 0.00000000E+00	 1.00000000E+00
					 0.00000000E+00	 0.00000000E+00	-1.00000000E+00
					 0.00000000E+00	 0.00000000E+00	 0.00000000E+00
					 0.00000000E+00	 0.00000000E+00	 1.00000000E+00
					 0.00000000E+00	 0.00000000E+00	-1.00000000E+00
					 0.00000000E+00	 0.00000000E+00	 0.00000000E+00
					 0.00000000E+00	 0.00000000E+00	 1.00000000E+00
					 0.00000000E+00	 0.00000000E+00	-1.00000000E+00
					 0.00000000E+00	 0.00000000E+00	 1.00000000E+00
					 0.00000000E+00	 0.00000000E+00	-1.00000000E+00
					 0.00000000E+00	 0.00000000E+00	 1.00000000E+00
					 0.00000000E+00	 0.00000000E+00	-1.00000000E+00
					 0.00000000E+00	 0.00000000E+00	 1.00000000E+00
					 0.00000000E+00	 0.00000000E+00	-1.00000000E+00
					 0.00000000E+00	 0.00000000E+00	 0.00000000E+00
					 0.00000000E+00	 0.00000000E+00	 1.00000000E+00
					 0.00000000E+00	 0.00000000E+00	-1.00000000E+00
					 0.00000000E+00	 0.00000000E+00	 0.00000000E+00
					 0.00000000E+00	 0.00000000E+00	 1.00000000E+00
					 0.00000000E+00	 0.00000000E+00	-1.00000000E+00
					 0.00000000E+00	 0.00000000E+00	 1.00000000E+00
					 0.00000000E+00	 0.00000000E+00	-1.00000000E+00
					 0.00000000E+00	 0.00000000E+00	 1.00000000E+00
					 0.00000000E+00	 0.00000000E+00	-1.00000000E+00
					 0.00000000E+00	 0.00000000E+00	 1.00000000E+00
					 0.00000000E+00	 0.00000000E+00	-1.00000000E+00
					 0.00000000E+00	 0.00000000E+00	 0.00000000E+00
					 0.00000000E+00	 0.00000000E+00	 1.00000000E+00
					 0.00000000E+00	 0.00000000E+00	-1.00000000E+00
					 0.00000000E+00	 0.00000000E+00	 1.00000000E+00
					 0.00000000E+00	 0.00000000E+00	-1.00000000E+00
					 0.00000000E+00	 0.00000000E+00	 1.00000000E+00
				</DataArray>
			</PointData>
		</Piece>
	</UnstructuredGrid>
</VTKFile>