# vtk DataFile Version 3.0

ASCII
DATASET UNSTRUCTURED_GRID

POINTS 51 double
	-7.45058000E-09	-7.45058000E-09	-5.00000000E-03
	-7.45058000E-09	-7.45058000E-09	 0.00000000E+00
	-7.45058000E-09	-7.45058000E-09	 5.00000000E-03
	 5.00000000E-01	-7.45058000E-09	-1.50000000E-02
	 5.00000000E-01	-7.45058000E-09	 0.00000000E+00
	 5.00000000E-01	-7.45058000E-09	 1.50000000E-02
	 5.00000000E-01	 5.00000000E-01	-1.50000000E-02
	 5.00000000E-01	 5.00000000E-01	 0.00000000E+00
	 5.00000000E-01	 5.00000000E-01	 1.50000000E-02
	-7.45058000E-09	 5.00000000E-01	-5.00000000E-03
	-7.45058000E-09	 5.00000000E-01	 0.00000000E+00
	-7.45058000E-09	 5.00000000E-01	 5.00000000E-03
	 2.50000000E-01	-7.45058000E-09	-1.00000000E-02
	 2.50000000E-01	-7.45058000E-09	 1.00000000E-02
	 5.00000000E-01	 2.50000000E-01	-1.50000000E-02
	 5.00000000E-01	 2.50000000E-01	 1.50000000E-02
	 2.50000000E-01	 5.00000000E-01	-1.00000000E-02
	 2.50000000E-01	 5.00000000E-01	 1.00000000E-02
	-7.45058000E-09	 2.50000000E-01	-5.00000000E-03
	-7.45058000E-09	 2.50000000E-01	 5.00000000E-03
	 5.00000000E-01	 1.00000000E+00	-1.50000000E-02
	 5.00000000E-01	 1.00000000E+00	 0.00000000E+00
	 5.00000000E-01	 1.00000000E+00	 1.50000000E-02
	-7.45058000E-09	 1.00000000E+00	-5.00000000E-03
	-7.45058000E-09	 1.00000000E+00	 0.00000000E+00
	-7.45058000E-09	 1.00000000E+00	 5.00000000E-03
	 5.00000000E-01	 7.50000000E-01	-1.50000000E-02
	 5.00000000E-01	 7.50000000E-01	 1.50000000E-02
	 2.50000000E-01	 1.00000000E+00	-1.00000000E-02
	 2.50000000E-01	 1.00000000E+00	 1.00000000E-02
	-7.45058000E-09	 7.50000000E-01	-5.00000000E-03
	-7.45058000E-09	 7.50000000E-01	 5.00000000E-03
	 1.00000000E+00	-7.45058000E-09	-1.00000000E-02
	 1.00000000E+00	-7.45058000E-09	 0.00000000E+00
	 1.00000000E+00	-7.45058000E-09	 1.00000000E-02
	 1.00000000E+00	 5.00000000E-01	-1.00000000E-02
	 1.00000000E+00	 5.00000000E-01	 0.00000000E+00
	 1.00000000E+00	 5.00000000E-01	 1.00000000E-02
	 7.50000000E-01	-7.45058000E-09	-1.25000000E-02
	 7.50000000E-01	-7.45058000E-09	 1.25000000E-02
	 1.00000000E+00	 2.50000000E-01	-1.00000000E-02
	 1.00000000E+00	 2.50000000E-01	 1.00000000E-02
	 7.50000000E-01	 5.00000000E-01	-1.25000000E-02
	 7.50000000E-01	 5.00000000E-01	 1.25000000E-02
	 1.00000000E+00	 1.00000000E+00	-1.00000000E-02
	 1.00000000E+00	 1.00000000E+00	 0.00000000E+00
	 1.00000000E+00	 1.00000000E+00	 1.00000000E-02
	 1.00000000E+00	 7.50000000E-01	-1.00000000E-02
	 1.00000000E+00	 7.50000000E-01	 1.00000000E-02
	 7.50000000E-01	 1.00000000E+00	-1.25000000E-02
	 7.50000000E-01	 1.00000000E+00	 1.25000000E-02

CELLS 4 84
	20 0 3 6 9 2 5 8 11 12 14 16 18 13 15 17 19 1 4 7 10 
	20 9 6 20 23 11 8 22 25 16 26 28 30 17 27 29 31 10 7 21 24 
	20 3 32 35 6 5 34 37 8 38 40 42 14 39 41 43 15 4 33 36 7 
	20 6 35 44 20 8 37 46 22 42 47 49 26 43 48 50 27 7 36 45 21 

CELL_TYPES 4
	25
	25
	25
	25

POINT_DATA 51
FIELD U 1
	U 3 51 double
		 0.00000000E+00	 0.00000000E+00	-5.11192000E-06
		 0.00000000E+00	 0.00000000E+00	 0.00000000E+00
		 0.00000000E+00	 0.00000000E+00	 5.11192000E-06
		-6.95160000E-05	-4.13765000E-04	-1.48370000E-02
		 4.51069000E-04	-5.47108000E-04	-1.48378000E-02
		 9.71272000E-04	-6.80626000E-04	-1.48363000E-02
		 1.68149000E-04	 0.00000000E+00	-1.26941000E-02
		 6.34014000E-04	 0.00000000E+00	-1.26773000E-02
		 1.10127000E-03	 0.00000000E+00	-1.26583000E-02
		 0.00000000E+00	 0.00000000E+00	-1.43861000E-05
		 0.00000000E+00	 0.00000000E+00	 0.00000000E+00
		 0.00000000E+00	 0.00000000E+00	 1.43861000E-05
		-5.47821000E-05	-3.77939000E-04	-5.93020000E-03
		 5.99713000E-04	-4.66090000E-04	-5.91222000E-03
		 1.14346000E-04	-1.93503000E-04	-1.32173000E-02
		 1.12608000E-03	-3.17813000E-04	-1.31981000E-02
		 1.44673000E-04	 0.00000000E+00	-4.91665000E-03
		 6.94423000E-04	 0.00000000E+00	-4.90752000E-03
		 0.00000000E+00	 0.00000000E+00	-9.57725000E-06
		 0.00000000E+00	 0.00000000E+00	 9.57725000E-06
		-6.95160000E-05	 4.13765000E-04	-1.48370000E-02
		 4.51069000E-04	 5.47108000E-04	-1.48378000E-02
		 9.71272000E-04	 6.80626000E-04	-1.48363000E-02
		 0.00000000E+00	 0.00000000E+00	-5.11192000E-06
		 0.00000000E+00	 0.00000000E+00	 0.00000000E+00
		 0.00000000E+00	 0.00000000E+00	 5.11192000E-06
		 1.14346000E-04	 1.93503000E-04	-1.32173000E-02
		 1.12608000E-03	 3.17813000E-04	-1.31981000E-02
		-5.47821000E-05	 3.77939000E-04	-5.93020000E-03
		 5.99713000E-04	 4.66090000E-04	-5.91222000E-03
		 0.00000000E+00	 0.00000000E+00	-9.57725000E-06
		 0.00000000E+00	 0.00000000E+00	 9.57725000E-06
		 4.35479000E-04	-4.93977000E-04	-3.29926000E-02
		 8.08781000E-04	-6.16487000E-04	-3.29941000E-02
		 1.18443000E-03	-7.38835000E-04	-3.29929000E-02
		 1.02550000E-03	 0.00000000E+00	-2.84388000E-02
		 1.31673000E-03	 0.00000000E+00	-2.84273000E-02
		 1.60350000E-03	 0.00000000E+00	-2.84151000E-02
		 2.23120000E-04	-4.44730000E-04	-2.37915000E-02
		 1.11061000E-03	-7.01113000E-04	-2.37723000E-02
		 6.37793000E-04	-2.18186000E-04	-2.99687000E-02
		 1.30421000E-03	-4.31294000E-04	-2.99585000E-02
		 5.44652000E-04	 0.00000000E+00	-2.06987000E-02
		 1.32710000E-03	 0.00000000E+00	-2.06917000E-02
		 4.35479000E-04	 4.93977000E-04	-3.29926000E-02
		 8.08781000E-04	 6.16487000E-04	-3.29941000E-02
		 1.18443000E-03	 7.38835000E-04	-3.29929000E-02
		 6.37793000E-04	 2.18186000E-04	-2.99687000E-02
		 1.30421000E-03	 4.31294000E-04	-2.99585000E-02
		 2.23120000E-04	 4.44730000E-04	-2.37915000E-02
		 1.11061000E-03	 7.01113000E-04	-2.37723000E-02
FIELD NT 1
	NT 1 51 double
		 3.68000000E+02
		 3.73000000E+02
		 3.78000000E+02
		 3.58000000E+02
		 3.73000000E+02
		 3.88000000E+02
		 3.58000000E+02
		 3.73000000E+02
		 3.88000000E+02
		 3.68000000E+02
		 3.73000000E+02
		 3.78000000E+02
		 3.63000000E+02
		 3.83000000E+02
		 3.58000000E+02
		 3.88000000E+02
		 3.63000000E+02
		 3.83000000E+02
		 3.68000000E+02
		 3.78000000E+02
		 3.58000000E+02
		 3.73000000E+02
		 3.88000000E+02
		 3.68000000E+02
		 3.73000000E+02
		 3.78000000E+02
		 3.58000000E+02
		 3.88000000E+02
		 3.63000000E+02
		 3.83000000E+02
		 3.68000000E+02
		 3.78000000E+02
		 3.63000000E+02
		 3.73000000E+02
		 3.83000000E+02
		 3.63000000E+02
		 3.73000000E+02
		 3.83000000E+02
		 3.60500000E+02
		 3.85500000E+02
		 3.63000000E+02
		 3.83000000E+02
		 3.60500000E+02
		 3.85500000E+02
		 3.63000000E+02
		 3.73000000E+02
		 3.83000000E+02
		 3.63000000E+02
		 3.83000000E+02
		 3.60500000E+02
		 3.85500000E+02
FIELD S 1
	S 10 51 double
		-3.30192000E+02	-3.29160000E+02	-1.28262000E+02	-1.63413000E+02	 4.57034000E+00	-1.46559000E+00	 3.47489470E+02	-4.93102946E+02	-1.66736238E+02	-1.27774816E+02
		-5.72590000E+00	-2.12266000E+02	-1.50983000E-01	-1.73181000E+02	 3.81291000E+00	-3.16856000E+00	 3.65909889E+02	-3.10640050E+02	-3.72408646E-01	 9.28695753E+01
		 3.18740000E+02	-9.53716000E+01	 1.27960000E+02	-1.82950000E+02	 3.05549000E+00	-4.87154000E+00	 4.78949398E+02	-1.64622211E+02	 1.27842213E+02	 3.88108398E+02
		 1.39737000E+02	 6.21974000E+01	 3.45654000E+01	 7.16576000E+01	-1.86104000E+00	-1.65269000E+00	 1.56017661E+02	 1.94562598E+01	 3.45649232E+01	 1.82478617E+02
		 5.81515000E+01	 5.02488000E+01	 4.31012000E-01	 5.44642000E+01	-1.17114000E+00	-3.09704000E+00	 1.08949055E+02	-1.33779253E+00	 1.27496319E+00	 1.08894141E+02
		-2.34338000E+01	 3.83003000E+01	-3.37034000E+01	 3.72707000E+01	-4.81250000E-01	-4.54139000E+00	 9.37039541E+01	-4.26709705E+01	-3.20548522E+01	 5.58889226E+01
		 5.60824000E+01	-1.66319000E+01	 2.69174000E+01	-5.27781000E-08	 1.61337000E-08	-8.92352000E+00	 6.52391119E+01	-1.66319000E+01	 2.44037450E+01	 5.85960550E+01
		 1.26255000E+00	-3.37912000E+01	-3.12622000E-01	-3.04117000E-07	 2.83763000E-08	-2.19589000E-02	 3.42933276E+01	-3.37912000E+01	-3.12928062E-01	 1.26285606E+00
		-5.35573000E+01	-5.09505000E+01	-2.75426000E+01	-5.55457000E-07	 4.06190000E-08	 8.87960000E+00	 2.91939513E+01	-5.62991865E+01	-5.09505000E+01	-2.48007135E+01
		-8.96336000E+01	-2.47672000E+02	-1.00174000E+02	 1.62641000E-06	-5.83342000E-08	 3.03799000E+00	 1.53131108E+02	-2.47672000E+02	-1.00986923E+02	-8.88206765E+01
		 1.68732000E+02	-1.59234000E+02	-1.63620000E-01	 1.58410000E-06	-5.03549000E-08	-5.02477000E+00	 2.84202659E+02	-1.59234000E+02	-3.12978554E-01	 1.68881359E+02
		 4.27097000E+02	-7.07968000E+01	 9.98472000E+01	 1.54179000E-06	-4.23755000E-08	-1.30875000E+01	 4.38826696E+02	-7.07968000E+01	 9.93246341E+01	 4.27619566E+02
		-6.83042000E+01	-1.10294000E+02	-3.83812000E+01	-3.43331000E+01	 4.52961000E-01	 6.36942000E-01	 8.63313842E+01	-1.29548179E+02	-4.90659360E+01	-3.83652845E+01
		 1.30378000E+02	-2.69612000E+01	 3.84376000E+01	-6.91258000E+01	 7.46453000E-01	-7.44140000E+00	 1.82334187E+02	-5.30570511E+01	 3.80372671E+01	 1.56874184E+02
		 9.79095000E+01	 2.27827000E+01	 3.07414000E+01	 3.50264000E+01	-1.28245000E+00	-5.28810000E+00	 9.42275833E+01	 8.96021761E+00	 3.04099096E+01	 1.12063473E+02
		-3.84955000E+01	-6.32510000E+00	-3.06230000E+01	-1.78543000E+00	-9.34203000E-02	 2.16911000E+00	 2.94508743E+01	-3.91423457E+01	-3.00768133E+01	-6.22444101E+00
		-1.15628000E+01	-1.16069000E+02	-3.04314000E+01	 8.06652000E-07	-1.53165000E-08	-5.82374000E+00	 9.69919175E+01	-1.16069000E+02	-3.20841178E+01	-9.91008218E+00
		 1.66775000E+02	-5.89555000E+01	 3.09135000E+01	 5.03994000E-07	 3.30417000E-09	 1.73328000E+00	 1.96859174E+02	-5.89555000E+01	 3.08913909E+01	 1.66797109E+02
		-2.09913000E+02	-2.88416000E+02	-1.14218000E+02	-7.66557000E+01	 7.94170000E-01	 7.86201000E-01	 2.01158232E+02	-3.35290561E+02	-1.63045138E+02	-1.14211302E+02
		 3.72919000E+02	-8.30842000E+01	 1.13904000E+02	-8.87321000E+01	-2.83245000E-01	-8.97953000E+00	 4.25180330E+02	-9.97593214E+01	 1.13642616E+02	 3.89855506E+02
		 1.39737000E+02	 6.21974000E+01	 3.45654000E+01	-7.16576000E+01	 1.86104000E+00	-1.65269000E+00	 1.56017661E+02	 1.94562598E+01	 3.45649232E+01	 1.82478617E+02
		 5.81515000E+01	 5.02488000E+01	 4.31012000E-01	-5.44642000E+01	 1.17114000E+00	-3.09704000E+00	 1.08949055E+02	-1.33779253E+00	 1.27496319E+00	 1.08894141E+02
		-2.34338000E+01	 3.83003000E+01	-3.37034000E+01	-3.72707000E+01	 4.81250000E-01	-4.54139000E+00	 9.37039541E+01	-4.26709705E+01	-3.20548522E+01	 5.58889226E+01
		-3.30192000E+02	-3.29160000E+02	-1.28262000E+02	 1.63413000E+02	-4.57034000E+00	-1.46559000E+00	 3.47489470E+02	-4.93102946E+02	-1.66736238E+02	-1.27774816E+02
		-5.72589000E+00	-2.12266000E+02	-1.50983000E-01	 1.73181000E+02	-3.81291000E+00	-3.16856000E+00	 3.65909892E+02	-3.10640047E+02	-3.72408625E-01	 9.28695828E+01
		 3.18740000E+02	-9.53716000E+01	 1.27960000E+02	 1.82950000E+02	-3.05549000E+00	-4.87154000E+00	 4.78949398E+02	-1.64622211E+02	 1.27842213E+02	 3.88108398E+02
		 9.79095000E+01	 2.27827000E+01	 3.07414000E+01	-3.50264000E+01	 1.28245000E+00	-5.28810000E+00	 9.42275833E+01	 8.96021761E+00	 3.04099096E+01	 1.12063473E+02
		-3.84955000E+01	-6.32510000E+00	-3.06230000E+01	 1.78543000E+00	 9.34203000E-02	 2.16911000E+00	 2.94508743E+01	-3.91423457E+01	-3.00768133E+01	-6.22444101E+00
		-6.83042000E+01	-1.10294000E+02	-3.83812000E+01	 3.43331000E+01	-4.52961000E-01	 6.36942000E-01	 8.63313842E+01	-1.29548179E+02	-4.90659360E+01	-3.83652845E+01
		 1.30378000E+02	-2.69612000E+01	 3.84376000E+01	 6.91258000E+01	-7.46453000E-01	-7.44140000E+00	 1.82334187E+02	-5.30570511E+01	 3.80372671E+01	 1.56874184E+02
		-2.09913000E+02	-2.88416000E+02	-1.14218000E+02	 7.66557000E+01	-7.94170000E-01	 7.86201000E-01	 2.01158232E+02	-3.35290561E+02	-1.63045138E+02	-1.14211302E+02
		 3.72919000E+02	-8.30842000E+01	 1.13904000E+02	 8.87321000E+01	 2.83245000E-01	-8.97953000E+00	 4.25180330E+02	-9.97593214E+01	 1.13642616E+02	 3.89855506E+02
		-5.67648000E+01	 2.65738000E+01	-8.43187000E+00	-2.23097000E+01	-4.41809000E-01	-9.51118000E+00	 8.37767093E+01	-6.39317282E+01	-6.95082119E+00	 3.22596794E+01
		-7.39528000E+01	-2.60346000E+01	-4.66601000E-01	-4.87082000E+01	 1.97980000E-01	 2.13309000E+00	 1.06331007E+02	-1.04310959E+02	-6.18729632E-01	 4.47568763E+00
		-9.11408000E+01	-7.86430000E+01	 7.49867000E+00	-7.51067000E+01	 8.37770000E-01	 1.37774000E+01	 1.61702717E+02	-1.60940514E+02	-1.30802457E+01	 1.17356298E+01
		 2.05272000E+02	-1.26806000E+01	-7.51511000E+00	 3.41129000E-07	-1.29841000E-09	 2.29791000E+01	 2.19062327E+02	-1.26806000E+01	-9.96836286E+00	 2.07725253E+02
		 1.71157000E+02	 8.20359000E+01	 1.11473000E+00	 8.63715000E-09	 1.66683000E-08	-2.37894000E+00	 1.47375602E+02	 1.08145446E+00	 8.20359000E+01	 1.71190276E+02
		 1.37043000E+02	 1.76752000E+02	 9.74458000E+00	-3.23854000E-07	 3.46350000E-08	-2.77369000E+01	 1.58570465E+02	 3.96355483E+00	 1.42824025E+02	 1.76752000E+02
		 1.45623000E+01	 2.11986000E+01	 4.59971000E+00	 1.31293000E+01	-2.49729000E-01	-7.77802000E+00	 3.01367524E+01	-1.89081229E+00	 9.89385917E+00	 3.23575631E+01
		-4.00117000E+01	-2.17458000E+01	-4.41158000E+00	-2.26317000E+01	 7.18925000E-01	 7.35293000E+00	 5.14885642E+01	-5.61043308E+01	-8.80630015E+00	-1.25844908E+00
		 7.42538000E+01	 6.94662000E+00	-7.97349000E+00	 6.06528000E+01	 1.01103000E+00	 6.73394000E+00	 1.30124892E+02	-2.90747628E+01	-7.99963721E+00	 1.10301330E+02
		 2.29509000E+01	 4.90547000E+01	 8.62162000E+00	 1.39214000E+01	 2.24458000E+00	-6.97979000E+00	 4.47601190E+01	 4.36919361E+00	 2.11609762E+01	 5.50970502E+01
		 1.25465000E+02	-3.07387000E+01	 3.50397000E+00	 1.24340000E-07	 1.63389000E-09	 9.90874000E+00	 1.43240616E+02	-3.07387000E+01	 2.70417796E+00	 1.26264792E+02
		 6.17378000E+01	 6.09827000E+01	-3.66018000E+00	-4.50482000E-07	 3.34446000E-08	-1.32659000E+01	 6.89640215E+01	-6.24869558E+00	 6.09827000E+01	 6.43263156E+01
		-5.67648000E+01	 2.65738000E+01	-8.43187000E+00	 2.23097000E+01	 4.41809000E-01	-9.51118000E+00	 8.37767093E+01	-6.39317282E+01	-6.95082119E+00	 3.22596794E+01
		-7.39528000E+01	-2.60346000E+01	-4.66601000E-01	 4.87082000E+01	-1.97980000E-01	 2.13309000E+00	 1.06331007E+02	-1.04310959E+02	-6.18729632E-01	 4.47568763E+00
		-9.11408000E+01	-7.86430000E+01	 7.49867000E+00	 7.51067000E+01	-8.37769000E-01	 1.37774000E+01	 1.61702717E+02	-1.60940514E+02	-1.30802462E+01	 1.17356303E+01
		 7.42538000E+01	 6.94662000E+00	-7.97349000E+00	-6.06528000E+01	-1.01103000E+00	 6.73394000E+00	 1.30124892E+02	-2.90747628E+01	-7.99963721E+00	 1.10301330E+02
		 2.29509000E+01	 4.90547000E+01	 8.62162000E+00	-1.39214000E+01	-2.24458000E+00	-6.97979000E+00	 4.47601190E+01	 4.36919361E+00	 2.11609762E+01	 5.50970502E+01
		 1.45623000E+01	 2.11986000E+01	 4.59971000E+00	-1.31293000E+01	 2.49729000E-01	-7.77802000E+00	 3.01367524E+01	-1.89081229E+00	 9.89385917E+00	 3.23575631E+01
		-4.00117000E+01	-2.17458000E+01	-4.41158000E+00	 2.26317000E+01	-7.18925000E-01	 7.35293000E+00	 5.14885642E+01	-5.61043308E+01	-8.80630015E+00	-1.25844908E+00
FIELD RF 1
	RF 3 51 double
		 2.16954000E-01	 1.17074000E-01	 2.64701000E+00
		-6.11096000E-02	 2.91082000E-01	-5.29241000E+00
		 4.64403000E-02	 5.46824000E-02	 2.64697000E+00
		 5.20230000E-05	-1.14512000E-05	 2.14246000E-03
		-3.99351000E-06	-5.85035000E-06	-2.47819000E-05
		 2.20927000E-06	 2.92239000E-07	-3.01853000E-05
		 1.08057000E-04	 0.00000000E+00	 4.28986000E-03
		-7.98052000E-06	 0.00000000E+00	-4.52952000E-05
		 3.97732000E-06	 0.00000000E+00	-6.91235000E-05
		 2.76740000E-01	 0.00000000E+00	 4.89418000E+00
		-6.07308000E-01	-1.73528000E-09	-9.78270000E+00
		 1.72406000E-02	 0.00000000E+00	 4.89410000E+00
		-5.13476000E-06	-1.59097000E-06	-6.89906000E-05
		-2.65069000E-06	-1.87158000E-06	 6.91545000E-05
		-2.04661000E-04	 4.78375000E-05	-8.55923000E-03
		 8.71477000E-07	 9.00838000E-07	 2.09386000E-04
		-9.72020000E-06	 0.00000000E+00	-1.29048000E-04
		-5.32240000E-06	 0.00000000E+00	 1.29424000E-04
		 3.69152000E-02	 6.22584000E-02	 1.02991000E-02
		-5.81948000E-01	 6.64930000E-02	 1.03912000E-02
		 5.20230000E-05	 1.14512000E-05	 2.14246000E-03
		-3.99351000E-06	 5.85035000E-06	-2.47819000E-05
		 2.20927000E-06	-2.92239000E-07	-3.01852000E-05
		 2.16954000E-01	-1.17074000E-01	 2.64701000E+00
		-6.11096000E-02	-2.91082000E-01	-5.29241000E+00
		 4.64403000E-02	-5.46824000E-02	 2.64697000E+00
		-2.04661000E-04	-4.78375000E-05	-8.55923000E-03
		 8.71477000E-07	-9.00838000E-07	 2.09386000E-04
		-5.13476000E-06	 1.59097000E-06	-6.89906000E-05
		-2.65069000E-06	 1.87158000E-06	 6.91545000E-05
		 3.69152000E-02	-6.22584000E-02	 1.02991000E-02
		-5.81948000E-01	-6.64930000E-02	 1.03912000E-02
		 4.68115000E-05	-7.12642000E-06	 2.12190000E-03
		 4.87169000E-06	-3.70842000E-06	-1.44105000E-05
		-1.09282000E-06	 2.28458000E-07	-1.97558000E-05
		-4.99897000E-01	 0.00000000E+00	 4.25433000E-03
		 2.00001000E+00	 0.00000000E+00	-2.44735000E-05
		-5.00003000E-01	 0.00000000E+00	-5.55893000E-05
		-2.05740000E-04	 6.43854000E-05	-8.48431000E-03
		 3.69594000E-06	-4.10222000E-06	 1.34276000E-04
		-1.93771000E-04	 6.05994000E-05	-8.48160000E-03
		 8.89447000E-06	 4.10564000E-07	 1.30648000E-04
		-3.84360000E-04	 0.00000000E+00	-1.69378000E-02
		 6.01812000E-06	 0.00000000E+00	 2.35983000E-04
		 4.68115000E-05	 7.12642000E-06	 2.12190000E-03
		 4.87169000E-06	 3.70842000E-06	-1.44105000E-05
		-1.09282000E-06	-2.28457000E-07	-1.97558000E-05
		-1.93771000E-04	-6.05994000E-05	-8.48160000E-03
		 8.89447000E-06	-4.10564000E-07	 1.30648000E-04
		-2.05740000E-04	-6.43854000E-05	-8.48431000E-03
		 3.69594000E-06	 4.10222000E-06	 1.34276000E-04
