# vtk DataFile Version 3.0

ASCII
DATASET UNSTRUCTURED_GRID

POINTS 21 double
	-2.50000000E-01	 1.46447000E-01	-2.50000000E-01
	 1.03553000E-01	 1.46447000E-01	-6.03553000E-01
	 3.53553000E-01	 5.00000000E-01	-3.53553000E-01
	-5.26836000E-09	 5.00000000E-01	 5.26836000E-09
	-7.32233000E-02	 1.46447000E-01	-4.26777000E-01
	 2.28553000E-01	 3.23223000E-01	-4.78553000E-01
	 1.76777000E-01	 5.00000000E-01	-1.76777000E-01
	-1.25000000E-01	 3.23223000E-01	-1.25000000E-01
	 6.03553000E-01	 8.53553000E-01	-1.03553000E-01
	 2.50000000E-01	 8.53553000E-01	 2.50000000E-01
	 4.78553000E-01	 6.76777000E-01	-2.28553000E-01
	 4.26777000E-01	 8.53553000E-01	 7.32233000E-02
	 1.25000000E-01	 6.76777000E-01	 1.25000000E-01
	 4.57107000E-01	 1.46447000E-01	-9.57107000E-01
	 7.07107000E-01	 5.00000000E-01	-7.07107000E-01
	 2.80330000E-01	 1.46447000E-01	-7.80330000E-01
	 5.82107000E-01	 3.23223000E-01	-8.32107000E-01
	 5.30330000E-01	 5.00000000E-01	-5.30330000E-01
	 9.57107000E-01	 8.53553000E-01	-4.57107000E-01
	 8.32107000E-01	 6.76777000E-01	-5.82107000E-01
	 7.80330000E-01	 8.53553000E-01	-2.80330000E-01

CELLS 4 36
	8 0 1 2 3 4 5 6 7 
	8 3 2 8 9 6 10 11 12 
	8 1 13 14 2 15 16 17 5 
	8 2 14 18 8 17 19 20 10 

CELL_TYPES 4
	23
	23
	23
	23

POINT_DATA 21
FIELD U 1
	U 3 21 double
		 0.00000000E+00	 0.00000000E+00	 0.00000000E+00
		-6.28722000E-04	 8.89147000E-04	-6.28722000E-04
		 0.00000000E+00	 0.00000000E+00	 0.00000000E+00
		 0.00000000E+00	 0.00000000E+00	 0.00000000E+00
		-1.83954000E-04	 2.60150000E-04	-1.83954000E-04
		-3.39316000E-04	 4.79866000E-04	-3.39316000E-04
		 0.00000000E+00	 0.00000000E+00	 0.00000000E+00
		 0.00000000E+00	 0.00000000E+00	 0.00000000E+00
		 6.28722000E-04	-8.89147000E-04	 6.28722000E-04
		 0.00000000E+00	 0.00000000E+00	 0.00000000E+00
		 3.39316000E-04	-4.79866000E-04	 3.39316000E-04
		 1.83954000E-04	-2.60150000E-04	 1.83954000E-04
		 0.00000000E+00	 0.00000000E+00	 0.00000000E+00
		-1.75089000E-03	 2.47613000E-03	-1.75089000E-03
		 0.00000000E+00	 0.00000000E+00	 0.00000000E+00
		-1.16859000E-03	 1.65264000E-03	-1.16859000E-03
		-9.60369000E-04	 1.35817000E-03	-9.60369000E-04
		 0.00000000E+00	 0.00000000E+00	 0.00000000E+00
		 1.75089000E-03	-2.47613000E-03	 1.75089000E-03
		 9.60369000E-04	-1.35817000E-03	 9.60369000E-04
		 1.16859000E-03	-1.65264000E-03	 1.16859000E-03
