    1C
    1UUSER                                                              
    1UDATE              25.january.2020                                 
    1UTIME              14:54:25                                        
    1UHOST                                                              
    1UPGM               CalculiX                                        
    1UVERSION           Version 2.16                             
    1UCOMPILETIME       Tue  7 Jan 19:57:43 CET 2020                    
    1UDIR                                                               
    1UDBN                                                               
    1UMAT    1EL                                                        
    2C                           132                                     1
 -1         1 1.00000E+00 1.00000E+00-7.45058E-09
 -1         2 1.00000E+00 5.00000E-01-7.45058E-09
 -1         3 1.00000E+00 5.00000E-01 5.00000E-01
 -1         4 1.00000E+00 1.00000E+00 5.00000E-01
 -1         5 5.00000E-01 1.00000E+00-7.45058E-09
 -1         6 5.00000E-01 5.00000E-01-7.45058E-09
 -1         7 5.00000E-01 5.00000E-01 5.00000E-01
 -1         8 5.00000E-01 1.00000E+00 5.00000E-01
 -1         9 1.00000E+00 7.50000E-01-7.45058E-09
 -1        10 1.00000E+00 5.00000E-01 2.50000E-01
 -1        11 1.00000E+00 7.50000E-01 5.00000E-01
 -1        12 1.00000E+00 1.00000E+00 2.50000E-01
 -1        13 7.50000E-01 1.00000E+00-7.45058E-09
 -1        14 7.50000E-01 5.00000E-01-7.45058E-09
 -1        15 7.50000E-01 5.00000E-01 5.00000E-01
 -1        16 7.50000E-01 1.00000E+00 5.00000E-01
 -1        17 5.00000E-01 7.50000E-01-7.45058E-09
 -1        18 5.00000E-01 5.00000E-01 2.50000E-01
 -1        19 5.00000E-01 7.50000E-01 5.00000E-01
 -1        20 5.00000E-01 1.00000E+00 2.50000E-01
 -1        21 1.00000E+00-7.45058E-09-7.45058E-09
 -1        22 1.00000E+00-7.45058E-09 5.00000E-01
 -1        23 5.00000E-01-7.45058E-09-7.45058E-09
 -1        24 5.00000E-01-7.45058E-09 5.00000E-01
 -1        25 1.00000E+00 2.50000E-01-7.45058E-09
 -1        26 1.00000E+00-7.45058E-09 2.50000E-01
 -1        27 1.00000E+00 2.50000E-01 5.00000E-01
 -1        28 7.50000E-01-7.45058E-09-7.45058E-09
 -1        29 7.50000E-01-7.45058E-09 5.00000E-01
 -1        30 5.00000E-01 2.50000E-01-7.45058E-09
 -1        31 5.00000E-01-7.45058E-09 2.50000E-01
 -1        32 5.00000E-01 2.50000E-01 5.00000E-01
 -1        33-1.49012E-08 1.00000E+00-7.45058E-09
 -1        34-1.49012E-08 5.00000E-01-7.45058E-09
 -1        35-1.49012E-08 5.00000E-01 5.00000E-01
 -1        36-1.49012E-08 1.00000E+00 5.00000E-01
 -1        37 2.50000E-01 1.00000E+00-7.45058E-09
 -1        38 2.50000E-01 5.00000E-01-7.45058E-09
 -1        39 2.50000E-01 5.00000E-01 5.00000E-01
 -1        40 2.50000E-01 1.00000E+00 5.00000E-01
 -1        41-1.49012E-08 7.50000E-01-7.45058E-09
 -1        42-1.49012E-08 5.00000E-01 2.50000E-01
 -1        43-1.49012E-08 7.50000E-01 5.00000E-01
 -1        44-1.49012E-08 1.00000E+00 2.50000E-01
 -1        45-1.49012E-08-7.45058E-09-7.45058E-09
 -1        46-1.49012E-08-7.45058E-09 5.00000E-01
 -1        47 2.50000E-01-7.45058E-09-7.45058E-09
 -1        48 2.50000E-01-7.45058E-09 5.00000E-01
 -1        49-1.49012E-08 2.50000E-01-7.45058E-09
 -1        50-1.49012E-08-7.45058E-09 2.50000E-01
 -1        51-1.49012E-08 2.50000E-01 5.00000E-01
 -1        52 1.00000E+00 5.00000E-01 1.00000E+00
 -1        53 1.00000E+00 1.00000E+00 1.00000E+00
 -1        54 5.00000E-01 5.00000E-01 1.00000E+00
 -1        55 5.00000E-01 1.00000E+00 1.00000E+00
 -1        56 1.00000E+00 5.00000E-01 7.50000E-01
 -1        57 1.00000E+00 7.50000E-01 1.00000E+00
 -1        58 1.00000E+00 1.00000E+00 7.50000E-01
 -1        59 7.50000E-01 5.00000E-01 1.00000E+00
 -1        60 7.50000E-01 1.00000E+00 1.00000E+00
 -1        61 5.00000E-01 5.00000E-01 7.50000E-01
 -1        62 5.00000E-01 7.50000E-01 1.00000E+00
 -1        63 5.00000E-01 1.00000E+00 7.50000E-01
 -1        64 1.00000E+00-7.45058E-09 1.00000E+00
 -1        65 5.00000E-01-7.45058E-09 1.00000E+00
 -1        66 1.00000E+00-7.45058E-09 7.50000E-01
 -1        67 1.00000E+00 2.50000E-01 1.00000E+00
 -1        68 7.50000E-01-7.45058E-09 1.00000E+00
 -1        69 5.00000E-01-7.45058E-09 7.50000E-01
 -1        70 5.00000E-01 2.50000E-01 1.00000E+00
 -1        71-1.49012E-08 5.00000E-01 1.00000E+00
 -1        72-1.49012E-08 1.00000E+00 1.00000E+00
 -1        73 2.50000E-01 5.00000E-01 1.00000E+00
 -1        74 2.50000E-01 1.00000E+00 1.00000E+00
 -1        75-1.49012E-08 5.00000E-01 7.50000E-01
 -1        76-1.49012E-08 7.50000E-01 1.00000E+00
 -1        77-1.49012E-08 1.00000E+00 7.50000E-01
 -1        78-1.49012E-08-7.45058E-09 1.00000E+00
 -1        79 2.50000E-01-7.45058E-09 1.00000E+00
 -1        80-1.49012E-08-7.45058E-09 7.50000E-01
 -1        81-1.49012E-08 2.50000E-01 1.00000E+00
 -1        98 1.00000E+00 1.00000E+00-2.50000E-02
 -1        99 1.00000E+00 1.00000E+00-7.45058E-09
 -1       100 1.00000E+00 1.00000E+00 2.50000E-02
 -1       101 1.00000E+00 5.00000E-01-2.50000E-02
 -1       102 1.00000E+00 5.00000E-01-7.45058E-09
 -1       103 1.00000E+00 5.00000E-01 2.50000E-02
 -1       104 1.00000E+00 7.50000E-01-2.50000E-02
 -1       106 1.00000E+00 7.50000E-01 2.50000E-02
 -1       107 1.00000E+00-7.45058E-09-2.50000E-02
 -1       108 1.00000E+00-7.45058E-09-7.45058E-09
 -1       109 1.00000E+00-7.45058E-09 2.50000E-02
 -1       110 1.00000E+00 2.50000E-01-2.50000E-02
 -1       112 1.00000E+00 2.50000E-01 2.50000E-02
 -1       113 1.50000E+00 5.00000E-01-2.50000E-02
 -1       114 1.50000E+00 5.00000E-01-7.45058E-09
 -1       115 1.50000E+00 5.00000E-01 2.50000E-02
 -1       116 1.50000E+00 1.00000E+00-2.50000E-02
 -1       117 1.50000E+00 1.00000E+00-7.45058E-09
 -1       118 1.50000E+00 1.00000E+00 2.50000E-02
 -1       119 1.25000E+00 5.00000E-01-2.50000E-02
 -1       121 1.25000E+00 5.00000E-01 2.50000E-02
 -1       122 1.50000E+00 7.50000E-01-2.50000E-02
 -1       124 1.50000E+00 7.50000E-01 2.50000E-02
 -1       125 1.25000E+00 1.00000E+00-2.50000E-02
 -1       127 1.25000E+00 1.00000E+00 2.50000E-02
 -1       128 2.00000E+00 5.00000E-01-2.50000E-02
 -1       129 2.00000E+00 5.00000E-01-7.45058E-09
 -1       130 2.00000E+00 5.00000E-01 2.50000E-02
 -1       131 2.00000E+00 1.00000E+00-2.50000E-02
 -1       132 2.00000E+00 1.00000E+00-7.45058E-09
 -1       133 2.00000E+00 1.00000E+00 2.50000E-02
 -1       134 1.75000E+00 5.00000E-01-2.50000E-02
 -1       136 1.75000E+00 5.00000E-01 2.50000E-02
 -1       137 2.00000E+00 7.50000E-01-2.50000E-02
 -1       139 2.00000E+00 7.50000E-01 2.50000E-02
 -1       140 1.75000E+00 1.00000E+00-2.50000E-02
 -1       142 1.75000E+00 1.00000E+00 2.50000E-02
 -1       143 1.50000E+00-7.45058E-09-2.50000E-02
 -1       144 1.50000E+00-7.45058E-09-7.45058E-09
 -1       145 1.50000E+00-7.45058E-09 2.50000E-02
 -1       146 1.25000E+00-7.45058E-09-2.50000E-02
 -1       148 1.25000E+00-7.45058E-09 2.50000E-02
 -1       149 1.50000E+00 2.50000E-01-2.50000E-02
 -1       151 1.50000E+00 2.50000E-01 2.50000E-02
 -1       152 2.00000E+00-7.45058E-09-2.50000E-02
 -1       153 2.00000E+00-7.45058E-09-7.45058E-09
 -1       154 2.00000E+00-7.45058E-09 2.50000E-02
 -1       155 1.75000E+00-7.45058E-09-2.50000E-02
 -1       157 1.75000E+00-7.45058E-09 2.50000E-02
 -1       158 2.00000E+00 2.50000E-01-2.50000E-02
 -1       160 2.00000E+00 2.50000E-01 2.50000E-02
 -3
    3C                            12                                     1
 -1         1    4    0    1
 -2        98       101       113       116       100       103       115       118       104       119
 -2       122       125        99       102       114       117       106       121       124       127
 -1         2    4    0    1
 -2       116       113       128       131       118       115       130       133       122       134
 -2       137       140       117       114       129       132       124       136       139       142
 -1         3    4    0    1
 -2       101       107       143       113       103       109       145       115       110       146
 -2       149       119       102       108       144       114       112       148       151       121
 -1         4    4    0    1
 -2       113       143       152       128       115       145       154       130       149       155
 -2       158       134       114       144       153       129       151       157       160       136
 -1         5    4    0    1
 -2         1         2         3         4         5         6         7         8         9        10
 -2        11        12        13        14        15        16        17        18        19        20
 -1         6    4    0    1
 -2         2        21        22         3         6        23        24         7        25        26
 -2        27        10        14        28        29        15        30        31        32        18
 -1         7    4    0    1
 -2         5         6         7         8        33        34        35        36        17        18
 -2        19        20        37        38        39        40        41        42        43        44
 -1         8    4    0    1
 -2         6        23        24         7        34        45        46        35        30        31
 -2        32        18        38        47        48        39        49        50        51        42
 -1         9    4    0    1
 -2         4         3        52        53         8         7        54        55        11        56
 -2        57        58        16        15        59        60        19        61        62        63
 -1        10    4    0    1
 -2         3        22        64        52         7        24        65        54        27        66
 -2        67        56        15        29        68        59        32        69        70        61
 -1        11    4    0    1
 -2         8         7        54        55        36        35        71        72        19        61
 -2        62        63        40        39        73        74        43        75        76        77
 -1        12    4    0    1
 -2         7        24        65        54        35        46        78        71        32        69
 -2        70        61        39        48        79        73        51        80        81        75
 -3
 9999
