    1C
    1UUSER                                                              
    1UDATE              25.january.2020                                 
    1UTIME              14:54:25                                        
    1UHOST                                                              
    1UPGM               CalculiX                                        
    1UVERSION           Version 2.16                             
    1UCOMPILETIME       Tue  7 Jan 19:57:43 CET 2020                    
    1UDIR                                                               
    1UDBN                                                               
    1UMAT    1EL                                                        
    2C                           183                                     1
 -1         1 1.00000E+00 1.00000E+00-7.45058E-09
 -1         2 1.00000E+00 5.00000E-01-7.45058E-09
 -1         3 1.00000E+00 5.00000E-01 5.00000E-01
 -1         4 1.00000E+00 1.00000E+00 5.00000E-01
 -1         5 5.00000E-01 1.00000E+00-7.45058E-09
 -1         6 5.00000E-01 5.00000E-01-7.45058E-09
 -1         7 5.00000E-01 5.00000E-01 5.00000E-01
 -1         8 5.00000E-01 1.00000E+00 5.00000E-01
 -1         9 1.00000E+00 7.50000E-01-7.45058E-09
 -1        10 1.00000E+00 5.00000E-01 2.50000E-01
 -1        11 1.00000E+00 7.50000E-01 5.00000E-01
 -1        12 1.00000E+00 1.00000E+00 2.50000E-01
 -1        13 7.50000E-01 1.00000E+00-7.45058E-09
 -1        14 7.50000E-01 5.00000E-01-7.45058E-09
 -1        15 7.50000E-01 5.00000E-01 5.00000E-01
 -1        16 7.50000E-01 1.00000E+00 5.00000E-01
 -1        17 5.00000E-01 7.50000E-01-7.45058E-09
 -1        18 5.00000E-01 5.00000E-01 2.50000E-01
 -1        19 5.00000E-01 7.50000E-01 5.00000E-01
 -1        20 5.00000E-01 1.00000E+00 2.50000E-01
 -1        21 1.00000E+00-7.45058E-09-7.45058E-09
 -1        22 1.00000E+00-7.45058E-09 5.00000E-01
 -1        23 5.00000E-01-7.45058E-09-7.45058E-09
 -1        24 5.00000E-01-7.45058E-09 5.00000E-01
 -1        25 1.00000E+00 2.50000E-01-7.45058E-09
 -1        26 1.00000E+00-7.45058E-09 2.50000E-01
 -1        27 1.00000E+00 2.50000E-01 5.00000E-01
 -1        28 7.50000E-01-7.45058E-09-7.45058E-09
 -1        29 7.50000E-01-7.45058E-09 5.00000E-01
 -1        30 5.00000E-01 2.50000E-01-7.45058E-09
 -1        31 5.00000E-01-7.45058E-09 2.50000E-01
 -1        32 5.00000E-01 2.50000E-01 5.00000E-01
 -1        33-1.49012E-08 1.00000E+00-7.45058E-09
 -1        34-1.49012E-08 5.00000E-01-7.45058E-09
 -1        35-1.49012E-08 5.00000E-01 5.00000E-01
 -1        36-1.49012E-08 1.00000E+00 5.00000E-01
 -1        37 2.50000E-01 1.00000E+00-7.45058E-09
 -1        38 2.50000E-01 5.00000E-01-7.45058E-09
 -1        39 2.50000E-01 5.00000E-01 5.00000E-01
 -1        40 2.50000E-01 1.00000E+00 5.00000E-01
 -1        41-1.49012E-08 7.50000E-01-7.45058E-09
 -1        42-1.49012E-08 5.00000E-01 2.50000E-01
 -1        43-1.49012E-08 7.50000E-01 5.00000E-01
 -1        44-1.49012E-08 1.00000E+00 2.50000E-01
 -1        45-1.49012E-08-7.45058E-09-7.45058E-09
 -1        46-1.49012E-08-7.45058E-09 5.00000E-01
 -1        47 2.50000E-01-7.45058E-09-7.45058E-09
 -1        48 2.50000E-01-7.45058E-09 5.00000E-01
 -1        49-1.49012E-08 2.50000E-01-7.45058E-09
 -1        50-1.49012E-08-7.45058E-09 2.50000E-01
 -1        51-1.49012E-08 2.50000E-01 5.00000E-01
 -1        52 1.00000E+00 5.00000E-01 1.00000E+00
 -1        53 1.00000E+00 1.00000E+00 1.00000E+00
 -1        54 5.00000E-01 5.00000E-01 1.00000E+00
 -1        55 5.00000E-01 1.00000E+00 1.00000E+00
 -1        56 1.00000E+00 5.00000E-01 7.50000E-01
 -1        57 1.00000E+00 7.50000E-01 1.00000E+00
 -1        58 1.00000E+00 1.00000E+00 7.50000E-01
 -1        59 7.50000E-01 5.00000E-01 1.00000E+00
 -1        60 7.50000E-01 1.00000E+00 1.00000E+00
 -1        61 5.00000E-01 5.00000E-01 7.50000E-01
 -1        62 5.00000E-01 7.50000E-01 1.00000E+00
 -1        63 5.00000E-01 1.00000E+00 7.50000E-01
 -1        64 1.00000E+00-7.45058E-09 1.00000E+00
 -1        65 5.00000E-01-7.45058E-09 1.00000E+00
 -1        66 1.00000E+00-7.45058E-09 7.50000E-01
 -1        67 1.00000E+00 2.50000E-01 1.00000E+00
 -1        68 7.50000E-01-7.45058E-09 1.00000E+00
 -1        69 5.00000E-01-7.45058E-09 7.50000E-01
 -1        70 5.00000E-01 2.50000E-01 1.00000E+00
 -1        71-1.49012E-08 5.00000E-01 1.00000E+00
 -1        72-1.49012E-08 1.00000E+00 1.00000E+00
 -1        73 2.50000E-01 5.00000E-01 1.00000E+00
 -1        74 2.50000E-01 1.00000E+00 1.00000E+00
 -1        75-1.49012E-08 5.00000E-01 7.50000E-01
 -1        76-1.49012E-08 7.50000E-01 1.00000E+00
 -1        77-1.49012E-08 1.00000E+00 7.50000E-01
 -1        78-1.49012E-08-7.45058E-09 1.00000E+00
 -1        79 2.50000E-01-7.45058E-09 1.00000E+00
 -1        80-1.49012E-08-7.45058E-09 7.50000E-01
 -1        81-1.49012E-08 2.50000E-01 1.00000E+00
 -1        98 1.02500E+00 1.00000E+00-7.45058E-09
 -1        99 1.00000E+00 1.00000E+00-7.45058E-09
 -1       100 9.75000E-01 1.00000E+00-7.45058E-09
 -1       101 1.00000E+00 1.00000E+00-2.50000E-02
 -1       102 1.00000E+00 1.00000E+00-7.45058E-09
 -1       103 1.00000E+00 1.00000E+00 2.50000E-02
 -1       112 1.02500E+00 5.00000E-01-7.45058E-09
 -1       113 1.00000E+00 5.00000E-01-7.45058E-09
 -1       114 9.75000E-01 5.00000E-01-7.45058E-09
 -1       115 1.00000E+00 5.00000E-01-2.50000E-02
 -1       116 1.00000E+00 5.00000E-01-7.45058E-09
 -1       117 1.00000E+00 5.00000E-01 2.50000E-02
 -1       126 1.02500E+00 5.00000E-01 5.00000E-01
 -1       127 1.00000E+00 5.00000E-01 5.00000E-01
 -1       128 9.75000E-01 5.00000E-01 5.00000E-01
 -1       129 1.02500E+00 1.00000E+00 5.00000E-01
 -1       130 1.00000E+00 1.00000E+00 5.00000E-01
 -1       131 9.75000E-01 1.00000E+00 5.00000E-01
 -1       132 1.02500E+00 7.50000E-01-7.45058E-09
 -1       134 9.75000E-01 7.50000E-01-7.45058E-09
 -1       135 1.00000E+00 7.50000E-01-2.50000E-02
 -1       137 1.00000E+00 7.50000E-01 2.50000E-02
 -1       146 1.02500E+00 5.00000E-01 2.50000E-01
 -1       148 9.75000E-01 5.00000E-01 2.50000E-01
 -1       149 1.02500E+00 7.50000E-01 5.00000E-01
 -1       151 9.75000E-01 7.50000E-01 5.00000E-01
 -1       152 1.02500E+00 1.00000E+00 2.50000E-01
 -1       154 9.75000E-01 1.00000E+00 2.50000E-01
 -1       155 1.02500E+00-7.45058E-09-7.45058E-09
 -1       156 1.00000E+00-7.45058E-09-7.45058E-09
 -1       157 9.75000E-01-7.45058E-09-7.45058E-09
 -1       158 1.00000E+00-7.45058E-09-2.50000E-02
 -1       159 1.00000E+00-7.45058E-09-7.45058E-09
 -1       160 1.00000E+00-7.45058E-09 2.50000E-02
 -1       169 1.02500E+00-7.45058E-09 5.00000E-01
 -1       170 1.00000E+00-7.45058E-09 5.00000E-01
 -1       171 9.75000E-01-7.45058E-09 5.00000E-01
 -1       172 1.02500E+00 2.50000E-01-7.45058E-09
 -1       174 9.75000E-01 2.50000E-01-7.45058E-09
 -1       175 1.00000E+00 2.50000E-01-2.50000E-02
 -1       177 1.00000E+00 2.50000E-01 2.50000E-02
 -1       186 1.02500E+00-7.45058E-09 2.50000E-01
 -1       188 9.75000E-01-7.45058E-09 2.50000E-01
 -1       189 1.02500E+00 2.50000E-01 5.00000E-01
 -1       191 9.75000E-01 2.50000E-01 5.00000E-01
 -1       192 1.02500E+00 5.00000E-01 1.00000E+00
 -1       193 1.00000E+00 5.00000E-01 1.00000E+00
 -1       194 9.75000E-01 5.00000E-01 1.00000E+00
 -1       195 1.02500E+00 1.00000E+00 1.00000E+00
 -1       196 1.00000E+00 1.00000E+00 1.00000E+00
 -1       197 9.75000E-01 1.00000E+00 1.00000E+00
 -1       198 1.02500E+00 5.00000E-01 7.50000E-01
 -1       200 9.75000E-01 5.00000E-01 7.50000E-01
 -1       201 1.02500E+00 7.50000E-01 1.00000E+00
 -1       203 9.75000E-01 7.50000E-01 1.00000E+00
 -1       204 1.02500E+00 1.00000E+00 7.50000E-01
 -1       206 9.75000E-01 1.00000E+00 7.50000E-01
 -1       207 1.02500E+00-7.45058E-09 1.00000E+00
 -1       208 1.00000E+00-7.45058E-09 1.00000E+00
 -1       209 9.75000E-01-7.45058E-09 1.00000E+00
 -1       210 1.02500E+00-7.45058E-09 7.50000E-01
 -1       212 9.75000E-01-7.45058E-09 7.50000E-01
 -1       213 1.02500E+00 2.50000E-01 1.00000E+00
 -1       215 9.75000E-01 2.50000E-01 1.00000E+00
 -1       216 1.50000E+00 5.00000E-01-2.50000E-02
 -1       217 1.50000E+00 5.00000E-01-7.45058E-09
 -1       218 1.50000E+00 5.00000E-01 2.50000E-02
 -1       219 1.50000E+00 1.00000E+00-2.50000E-02
 -1       220 1.50000E+00 1.00000E+00-7.45058E-09
 -1       221 1.50000E+00 1.00000E+00 2.50000E-02
 -1       222 1.25000E+00 5.00000E-01-2.50000E-02
 -1       224 1.25000E+00 5.00000E-01 2.50000E-02
 -1       225 1.50000E+00 7.50000E-01-2.50000E-02
 -1       227 1.50000E+00 7.50000E-01 2.50000E-02
 -1       228 1.25000E+00 1.00000E+00-2.50000E-02
 -1       230 1.25000E+00 1.00000E+00 2.50000E-02
 -1       231 2.00000E+00 5.00000E-01-2.50000E-02
 -1       232 2.00000E+00 5.00000E-01-7.45058E-09
 -1       233 2.00000E+00 5.00000E-01 2.50000E-02
 -1       234 2.00000E+00 1.00000E+00-2.50000E-02
 -1       235 2.00000E+00 1.00000E+00-7.45058E-09
 -1       236 2.00000E+00 1.00000E+00 2.50000E-02
 -1       237 1.75000E+00 5.00000E-01-2.50000E-02
 -1       239 1.75000E+00 5.00000E-01 2.50000E-02
 -1       240 2.00000E+00 7.50000E-01-2.50000E-02
 -1       242 2.00000E+00 7.50000E-01 2.50000E-02
 -1       243 1.75000E+00 1.00000E+00-2.50000E-02
 -1       245 1.75000E+00 1.00000E+00 2.50000E-02
 -1       246 1.50000E+00-7.45058E-09-2.50000E-02
 -1       247 1.50000E+00-7.45058E-09-7.45058E-09
 -1       248 1.50000E+00-7.45058E-09 2.50000E-02
 -1       249 1.25000E+00-7.45058E-09-2.50000E-02
 -1       251 1.25000E+00-7.45058E-09 2.50000E-02
 -1       252 1.50000E+00 2.50000E-01-2.50000E-02
 -1       254 1.50000E+00 2.50000E-01 2.50000E-02
 -1       255 2.00000E+00-7.45058E-09-2.50000E-02
 -1       256 2.00000E+00-7.45058E-09-7.45058E-09
 -1       257 2.00000E+00-7.45058E-09 2.50000E-02
 -1       258 1.75000E+00-7.45058E-09-2.50000E-02
 -1       260 1.75000E+00-7.45058E-09 2.50000E-02
 -1       261 2.00000E+00 2.50000E-01-2.50000E-02
 -1       263 2.00000E+00 2.50000E-01 2.50000E-02
 -3
    3C                            16                                     1
 -1         1    4    0    1
 -2        98       112       126       129       100       114       128       131       132       146
 -2       149       152        99       113       127       130       134       148       151       154
 -1         2    4    0    1
 -2       129       126       192       195       131       128       194       197       149       198
 -2       201       204       130       127       193       196       151       200       203       206
 -1         3    4    0    1
 -2       112       155       169       126       114       157       171       128       172       186
 -2       189       146       113       156       170       127       174       188       191       148
 -1         4    4    0    1
 -2       126       169       207       192       128       171       209       194       189       210
 -2       213       198       127       170       208       193       191       212       215       200
 -1         5    4    0    1
 -2       101       115       216       219       103       117       218       221       135       222
 -2       225       228       102       116       217       220       137       224       227       230
 -1         6    4    0    1
 -2       219       216       231       234       221       218       233       236       225       237
 -2       240       243       220       217       232       235       227       239       242       245
 -1         7    4    0    1
 -2       115       158       246       216       117       160       248       218       175       249
 -2       252       222       116       159       247       217       177       251       254       224
 -1         8    4    0    1
 -2       216       246       255       231       218       248       257       233       252       258
 -2       261       237       217       247       256       232       254       260       263       239
 -1         9    4    0    1
 -2         1         2         3         4         5         6         7         8         9        10
 -2        11        12        13        14        15        16        17        18        19        20
 -1        10    4    0    1
 -2         2        21        22         3         6        23        24         7        25        26
 -2        27        10        14        28        29        15        30        31        32        18
 -1        11    4    0    1
 -2         5         6         7         8        33        34        35        36        17        18
 -2        19        20        37        38        39        40        41        42        43        44
 -1        12    4    0    1
 -2         6        23        24         7        34        45        46        35        30        31
 -2        32        18        38        47        48        39        49        50        51        42
 -1        13    4    0    1
 -2         4         3        52        53         8         7        54        55        11        56
 -2        57        58        16        15        59        60        19        61        62        63
 -1        14    4    0    1
 -2         3        22        64        52         7        24        65        54        27        66
 -2        67        56        15        29        68        59        32        69        70        61
 -1        15    4    0    1
 -2         8         7        54        55        36        35        71        72        19        61
 -2        62        63        40        39        73        74        43        75        76        77
 -1        16    4    0    1
 -2         7        24        65        54        35        46        78        71        32        69
 -2        70        61        39        48        79        73        51        80        81        75
 -3
 9999
