    1C
    1UUSER                                                              
    1UDATE              25.january.2020                                 
    1UTIME              14:54:25                                        
    1UHOST                                                              
    1UPGM               CalculiX                                        
    1UVERSION           Version 2.16                             
    1UCOMPILETIME       Tue  7 Jan 19:57:43 CET 2020                    
    1UDIR                                                               
    1UDBN                                                               
    1UMAT    1SPRING                                                    
    2C                             2                                     1
 -1         1 0.00000E+00 0.00000E+00 0.00000E+00
 -1         2 1.00000E+00 0.00000E+00 0.00000E+00
 -3
    3C                             1                                     1
 -1         1   11    0    1
 -2         1         2
 -3
 9999
