    1C
    1UModel: beam     Date: 10-Mar-1998                                 
