    1C
    1UUSER                                                              
    1UDATE              25.january.2020                                 
    1UTIME              14:54:28                                        
    1UHOST                                                              
    1UPGM               CalculiX                                        
    1UVERSION           Version 2.16                             
    1UCOMPILETIME       Tue  7 Jan 19:57:43 CET 2020                    
    1UDIR                                                               
    1UDBN                                                               
    1UMAT    1EL                                                        
    2C                           280                                     1
 -1        42 2.42536E-02-6.06341E-03-2.50000E-02
 -1        43-2.42536E-02 6.06338E-03-2.50000E-02
 -1        44-2.42536E-02 6.06338E-03 2.50000E-02
 -1        45 2.42536E-02-6.06341E-03 2.50000E-02
 -1        46-7.45058E-09-1.49012E-08-2.50000E-02
 -1        47-2.42536E-02 6.06338E-03 0.00000E+00
 -1        48-7.45058E-09-1.49012E-08 2.50000E-02
 -1        49 2.42536E-02-6.06341E-03 0.00000E+00
 -1        50 1.49254E-01 4.93937E-01-2.50000E-02
 -1        51 1.00746E-01 5.06063E-01-2.50000E-02
 -1        52 1.00746E-01 5.06063E-01 2.50000E-02
 -1        53 1.49254E-01 4.93937E-01 2.50000E-02
 -1        54 1.25000E-01 5.00000E-01-2.50000E-02
 -1        55 1.00746E-01 5.06063E-01 0.00000E+00
 -1        56 1.25000E-01 5.00000E-01 2.50000E-02
 -1        57 1.49254E-01 4.93937E-01 0.00000E+00
 -1        58 8.67536E-02 2.43937E-01-2.50000E-02
 -1        59 3.82464E-02 2.56063E-01-2.50000E-02
 -1        60 3.82464E-02 2.56063E-01 2.50000E-02
 -1        61 8.67536E-02 2.43937E-01 2.50000E-02
 -1        66 2.74254E-01 9.93937E-01-2.50000E-02
 -1        67 2.25746E-01 1.00606E+00-2.50000E-02
 -1        68 2.25746E-01 1.00606E+00 2.50000E-02
 -1        69 2.74254E-01 9.93937E-01 2.50000E-02
 -1        70 2.50000E-01 1.00000E+00-2.50000E-02
 -1        71 2.25746E-01 1.00606E+00 0.00000E+00
 -1        72 2.50000E-01 1.00000E+00 2.50000E-02
 -1        73 2.74254E-01 9.93937E-01 0.00000E+00
 -1        74 2.11754E-01 7.43937E-01-2.50000E-02
 -1        75 1.63246E-01 7.56063E-01-2.50000E-02
 -1        76 1.63246E-01 7.56063E-01 2.50000E-02
 -1        77 2.11754E-01 7.43937E-01 2.50000E-02
 -1        82 3.99254E-01 1.49394E+00-2.50000E-02
 -1        83 3.50746E-01 1.50606E+00-2.50000E-02
 -1        84 3.50746E-01 1.50606E+00 2.50000E-02
 -1        85 3.99254E-01 1.49394E+00 2.50000E-02
 -1        86 3.75000E-01 1.50000E+00-2.50000E-02
 -1        87 3.50746E-01 1.50606E+00 0.00000E+00
 -1        88 3.75000E-01 1.50000E+00 2.50000E-02
 -1        89 3.99254E-01 1.49394E+00 0.00000E+00
 -1        90 3.36754E-01 1.24394E+00-2.50000E-02
 -1        91 2.88246E-01 1.25606E+00-2.50000E-02
 -1        92 2.88246E-01 1.25606E+00 2.50000E-02
 -1        93 3.36754E-01 1.24394E+00 2.50000E-02
 -1        98 5.24254E-01 1.99394E+00-2.50000E-02
 -1        99 4.75746E-01 2.00606E+00-2.50000E-02
 -1       100 4.75746E-01 2.00606E+00 2.50000E-02
 -1       101 5.24254E-01 1.99394E+00 2.50000E-02
 -1       102 5.00000E-01 2.00000E+00-2.50000E-02
 -1       103 4.75746E-01 2.00606E+00 0.00000E+00
 -1       104 5.00000E-01 2.00000E+00 2.50000E-02
 -1       105 5.24254E-01 1.99394E+00 0.00000E+00
 -1       106 4.75746E-01 1.99394E+00-2.50000E-02
 -1       107 5.24254E-01 2.00606E+00-2.50000E-02
 -1       108 5.24254E-01 2.00606E+00 2.50000E-02
 -1       109 4.75746E-01 1.99394E+00 2.50000E-02
 -1       110 5.00000E-01 2.00000E+00-2.50000E-02
 -1       111 5.24254E-01 2.00606E+00 0.00000E+00
 -1       112 5.00000E-01 2.00000E+00 2.50000E-02
 -1       113 4.75746E-01 1.99394E+00 0.00000E+00
 -1       114 5.25000E-01 1.97500E+00 0.00000E+00
 -1       115 4.75000E-01 1.97500E+00 0.00000E+00
 -1       116 4.75000E-01 2.02500E+00 0.00000E+00
 -1       117 5.25000E-01 2.02500E+00 0.00000E+00
 -1       118 5.00000E-01 1.97500E+00 0.00000E+00
 -1       119 4.75000E-01 2.00000E+00 0.00000E+00
 -1       120 5.00000E-01 2.02500E+00 0.00000E+00
 -1       121 5.25000E-01 2.00000E+00 0.00000E+00
 -1       148 4.61754E-01 1.74394E+00-2.50000E-02
 -1       149 4.13246E-01 1.75606E+00-2.50000E-02
 -1       150 4.13246E-01 1.75606E+00 2.50000E-02
 -1       151 4.61754E-01 1.74394E+00 2.50000E-02
 -1       156 6.00746E-01 1.49394E+00-2.50000E-02
 -1       157 6.49254E-01 1.50606E+00-2.50000E-02
 -1       158 6.49254E-01 1.50606E+00 2.50000E-02
 -1       159 6.00746E-01 1.49394E+00 2.50000E-02
 -1       160 6.25000E-01 1.50000E+00-2.50000E-02
 -1       161 6.49254E-01 1.50606E+00 0.00000E+00
 -1       162 6.25000E-01 1.50000E+00 2.50000E-02
 -1       163 6.00746E-01 1.49394E+00 0.00000E+00
 -1       164 5.38246E-01 1.74394E+00-2.50000E-02
 -1       165 5.86754E-01 1.75606E+00-2.50000E-02
 -1       166 5.86754E-01 1.75606E+00 2.50000E-02
 -1       167 5.38246E-01 1.74394E+00 2.50000E-02
 -1       172 7.25746E-01 9.93937E-01-2.50000E-02
 -1       173 7.74254E-01 1.00606E+00-2.50000E-02
 -1       174 7.74254E-01 1.00606E+00 2.50000E-02
 -1       175 7.25746E-01 9.93937E-01 2.50000E-02
 -1       176 7.50000E-01 1.00000E+00-2.50000E-02
 -1       177 7.74254E-01 1.00606E+00 0.00000E+00
 -1       178 7.50000E-01 1.00000E+00 2.50000E-02
 -1       179 7.25746E-01 9.93937E-01 0.00000E+00
 -1       180 6.63246E-01 1.24394E+00-2.50000E-02
 -1       181 7.11754E-01 1.25606E+00-2.50000E-02
 -1       182 7.11754E-01 1.25606E+00 2.50000E-02
 -1       183 6.63246E-01 1.24394E+00 2.50000E-02
 -1       188 8.50746E-01 4.93937E-01-2.50000E-02
 -1       189 8.99254E-01 5.06063E-01-2.50000E-02
 -1       190 8.99254E-01 5.06063E-01 2.50000E-02
 -1       191 8.50746E-01 4.93937E-01 2.50000E-02
 -1       192 8.75000E-01 5.00000E-01-2.50000E-02
 -1       193 8.99254E-01 5.06063E-01 0.00000E+00
 -1       194 8.75000E-01 5.00000E-01 2.50000E-02
 -1       195 8.50746E-01 4.93937E-01 0.00000E+00
 -1       196 7.88246E-01 7.43937E-01-2.50000E-02
 -1       197 8.36754E-01 7.56063E-01-2.50000E-02
 -1       198 8.36754E-01 7.56063E-01 2.50000E-02
 -1       199 7.88246E-01 7.43937E-01 2.50000E-02
 -1       204 9.75746E-01-6.06340E-03-2.50000E-02
 -1       205 1.02425E+00 6.06338E-03-2.50000E-02
 -1       206 1.02425E+00 6.06338E-03 2.50000E-02
 -1       207 9.75746E-01-6.06340E-03 2.50000E-02
 -1       208 1.00000E+00-1.49012E-08-2.50000E-02
 -1       209 1.02425E+00 6.06338E-03 0.00000E+00
 -1       210 1.00000E+00-1.49012E-08 2.50000E-02
 -1       211 9.75746E-01-6.06340E-03 0.00000E+00
 -1       212 9.13246E-01 2.43937E-01-2.50000E-02
 -1       213 9.61754E-01 2.56063E-01-2.50000E-02
 -1       214 9.61754E-01 2.56063E-01 2.50000E-02
 -1       215 9.13246E-01 2.43937E-01 2.50000E-02
 -1       220 2.42536E-02-6.06341E-03 2.97500E+00
 -1       221-2.42536E-02 6.06338E-03 2.97500E+00
 -1       222-2.42536E-02 6.06338E-03 3.02500E+00
 -1       223 2.42536E-02-6.06341E-03 3.02500E+00
 -1       224-7.45058E-09-1.49012E-08 2.97500E+00
 -1       225-2.42536E-02 6.06338E-03 3.00000E+00
 -1       226-7.45058E-09-1.49012E-08 3.02500E+00
 -1       227 2.42536E-02-6.06341E-03 3.00000E+00
 -1       228 1.49254E-01 4.93937E-01 2.97500E+00
 -1       229 1.00746E-01 5.06063E-01 2.97500E+00
 -1       230 1.00746E-01 5.06063E-01 3.02500E+00
 -1       231 1.49254E-01 4.93937E-01 3.02500E+00
 -1       232 1.25000E-01 5.00000E-01 2.97500E+00
 -1       233 1.00746E-01 5.06063E-01 3.00000E+00
 -1       234 1.25000E-01 5.00000E-01 3.02500E+00
 -1       235 1.49254E-01 4.93937E-01 3.00000E+00
 -1       236 8.67536E-02 2.43937E-01 2.97500E+00
 -1       237 3.82464E-02 2.56063E-01 2.97500E+00
 -1       238 3.82464E-02 2.56063E-01 3.02500E+00
 -1       239 8.67536E-02 2.43937E-01 3.02500E+00
 -1       244 2.74254E-01 9.93937E-01 2.97500E+00
 -1       245 2.25746E-01 1.00606E+00 2.97500E+00
 -1       246 2.25746E-01 1.00606E+00 3.02500E+00
 -1       247 2.74254E-01 9.93937E-01 3.02500E+00
 -1       248 2.50000E-01 1.00000E+00 2.97500E+00
 -1       249 2.25746E-01 1.00606E+00 3.00000E+00
 -1       250 2.50000E-01 1.00000E+00 3.02500E+00
 -1       251 2.74254E-01 9.93937E-01 3.00000E+00
 -1       252 2.11754E-01 7.43937E-01 2.97500E+00
 -1       253 1.63246E-01 7.56063E-01 2.97500E+00
 -1       254 1.63246E-01 7.56063E-01 3.02500E+00
 -1       255 2.11754E-01 7.43937E-01 3.02500E+00
 -1       260 3.99254E-01 1.49394E+00 2.97500E+00
 -1       261 3.50746E-01 1.50606E+00 2.97500E+00
 -1       262 3.50746E-01 1.50606E+00 3.02500E+00
 -1       263 3.99254E-01 1.49394E+00 3.02500E+00
 -1       264 3.75000E-01 1.50000E+00 2.97500E+00
 -1       265 3.50746E-01 1.50606E+00 3.00000E+00
 -1       266 3.75000E-01 1.50000E+00 3.02500E+00
 -1       267 3.99254E-01 1.49394E+00 3.00000E+00
 -1       268 3.36754E-01 1.24394E+00 2.97500E+00
 -1       269 2.88246E-01 1.25606E+00 2.97500E+00
 -1       270 2.88246E-01 1.25606E+00 3.02500E+00
 -1       271 3.36754E-01 1.24394E+00 3.02500E+00
 -1       276 5.24254E-01 1.99394E+00 2.97500E+00
 -1       277 4.75746E-01 2.00606E+00 2.97500E+00
 -1       278 4.75746E-01 2.00606E+00 3.02500E+00
 -1       279 5.24254E-01 1.99394E+00 3.02500E+00
 -1       280 5.00000E-01 2.00000E+00 2.97500E+00
 -1       281 4.75746E-01 2.00606E+00 3.00000E+00
 -1       282 5.00000E-01 2.00000E+00 3.02500E+00
 -1       283 5.24254E-01 1.99394E+00 3.00000E+00
 -1       284 4.75746E-01 1.99394E+00 2.97500E+00
 -1       285 5.24254E-01 2.00606E+00 2.97500E+00
 -1       286 5.24254E-01 2.00606E+00 3.02500E+00
 -1       287 4.75746E-01 1.99394E+00 3.02500E+00
 -1       288 5.00000E-01 2.00000E+00 2.97500E+00
 -1       289 5.24254E-01 2.00606E+00 3.00000E+00
 -1       290 5.00000E-01 2.00000E+00 3.02500E+00
 -1       291 4.75746E-01 1.99394E+00 3.00000E+00
 -1       292 5.25000E-01 1.97500E+00 3.00000E+00
 -1       293 4.75000E-01 1.97500E+00 3.00000E+00
 -1       294 4.75000E-01 2.02500E+00 3.00000E+00
 -1       295 5.25000E-01 2.02500E+00 3.00000E+00
 -1       296 5.00000E-01 1.97500E+00 3.00000E+00
 -1       297 4.75000E-01 2.00000E+00 3.00000E+00
 -1       298 5.00000E-01 2.02500E+00 3.00000E+00
 -1       299 5.25000E-01 2.00000E+00 3.00000E+00
 -1       326 4.61754E-01 1.74394E+00 2.97500E+00
 -1       327 4.13246E-01 1.75606E+00 2.97500E+00
 -1       328 4.13246E-01 1.75606E+00 3.02500E+00
 -1       329 4.61754E-01 1.74394E+00 3.02500E+00
 -1       334 6.00746E-01 1.49394E+00 2.97500E+00
 -1       335 6.49254E-01 1.50606E+00 2.97500E+00
 -1       336 6.49254E-01 1.50606E+00 3.02500E+00
 -1       337 6.00746E-01 1.49394E+00 3.02500E+00
 -1       338 6.25000E-01 1.50000E+00 2.97500E+00
 -1       339 6.49254E-01 1.50606E+00 3.00000E+00
 -1       340 6.25000E-01 1.50000E+00 3.02500E+00
 -1       341 6.00746E-01 1.49394E+00 3.00000E+00
 -1       342 5.38246E-01 1.74394E+00 2.97500E+00
 -1       343 5.86754E-01 1.75606E+00 2.97500E+00
 -1       344 5.86754E-01 1.75606E+00 3.02500E+00
 -1       345 5.38246E-01 1.74394E+00 3.02500E+00
 -1       350 7.25746E-01 9.93937E-01 2.97500E+00
 -1       351 7.74254E-01 1.00606E+00 2.97500E+00
 -1       352 7.74254E-01 1.00606E+00 3.02500E+00
 -1       353 7.25746E-01 9.93937E-01 3.02500E+00
 -1       354 7.50000E-01 1.00000E+00 2.97500E+00
 -1       355 7.74254E-01 1.00606E+00 3.00000E+00
 -1       356 7.50000E-01 1.00000E+00 3.02500E+00
 -1       357 7.25746E-01 9.93937E-01 3.00000E+00
 -1       358 6.63246E-01 1.24394E+00 2.97500E+00
 -1       359 7.11754E-01 1.25606E+00 2.97500E+00
 -1       360 7.11754E-01 1.25606E+00 3.02500E+00
 -1       361 6.63246E-01 1.24394E+00 3.02500E+00
 -1       366 8.50746E-01 4.93937E-01 2.97500E+00
 -1       367 8.99254E-01 5.06063E-01 2.97500E+00
 -1       368 8.99254E-01 5.06063E-01 3.02500E+00
 -1       369 8.50746E-01 4.93937E-01 3.02500E+00
 -1       370 8.75000E-01 5.00000E-01 2.97500E+00
 -1       371 8.99254E-01 5.06063E-01 3.00000E+00
 -1       372 8.75000E-01 5.00000E-01 3.02500E+00
 -1       373 8.50746E-01 4.93937E-01 3.00000E+00
 -1       374 7.88246E-01 7.43937E-01 2.97500E+00
 -1       375 8.36754E-01 7.56063E-01 2.97500E+00
 -1       376 8.36754E-01 7.56063E-01 3.02500E+00
 -1       377 7.88246E-01 7.43937E-01 3.02500E+00
 -1       382 9.75746E-01-6.06340E-03 2.97500E+00
 -1       383 1.02425E+00 6.06338E-03 2.97500E+00
 -1       384 1.02425E+00 6.06338E-03 3.02500E+00
 -1       385 9.75746E-01-6.06340E-03 3.02500E+00
 -1       386 1.00000E+00-1.49012E-08 2.97500E+00
 -1       387 1.02425E+00 6.06338E-03 3.00000E+00
 -1       388 1.00000E+00-1.49012E-08 3.02500E+00
 -1       389 9.75746E-01-6.06340E-03 3.00000E+00
 -1       390 9.13246E-01 2.43937E-01 2.97500E+00
 -1       391 9.61754E-01 2.56063E-01 2.97500E+00
 -1       392 9.61754E-01 2.56063E-01 3.02500E+00
 -1       393 9.13246E-01 2.43937E-01 3.02500E+00
 -1       398 5.25000E-01 1.97500E+00 2.25000E+00
 -1       399 4.75000E-01 1.97500E+00 2.25000E+00
 -1       400 4.75000E-01 2.02500E+00 2.25000E+00
 -1       401 5.25000E-01 2.02500E+00 2.25000E+00
 -1       402 5.00000E-01 1.97500E+00 2.25000E+00
 -1       403 4.75000E-01 2.00000E+00 2.25000E+00
 -1       404 5.00000E-01 2.02500E+00 2.25000E+00
 -1       405 5.25000E-01 2.00000E+00 2.25000E+00
 -1       406 5.25000E-01 1.97500E+00 2.62500E+00
 -1       407 4.75000E-01 1.97500E+00 2.62500E+00
 -1       408 4.75000E-01 2.02500E+00 2.62500E+00
 -1       409 5.25000E-01 2.02500E+00 2.62500E+00
 -1       414 5.25000E-01 1.97500E+00 1.50000E+00
 -1       415 4.75000E-01 1.97500E+00 1.50000E+00
 -1       416 4.75000E-01 2.02500E+00 1.50000E+00
 -1       417 5.25000E-01 2.02500E+00 1.50000E+00
 -1       418 5.00000E-01 1.97500E+00 1.50000E+00
 -1       419 4.75000E-01 2.00000E+00 1.50000E+00
 -1       420 5.00000E-01 2.02500E+00 1.50000E+00
 -1       421 5.25000E-01 2.00000E+00 1.50000E+00
 -1       422 5.25000E-01 1.97500E+00 1.87500E+00
 -1       423 4.75000E-01 1.97500E+00 1.87500E+00
 -1       424 4.75000E-01 2.02500E+00 1.87500E+00
 -1       425 5.25000E-01 2.02500E+00 1.87500E+00
 -1       430 5.25000E-01 1.97500E+00 7.50000E-01
 -1       431 4.75000E-01 1.97500E+00 7.50000E-01
 -1       432 4.75000E-01 2.02500E+00 7.50000E-01
 -1       433 5.25000E-01 2.02500E+00 7.50000E-01
 -1       434 5.00000E-01 1.97500E+00 7.50000E-01
 -1       435 4.75000E-01 2.00000E+00 7.50000E-01
 -1       436 5.00000E-01 2.02500E+00 7.50000E-01
 -1       437 5.25000E-01 2.00000E+00 7.50000E-01
 -1       438 5.25000E-01 1.97500E+00 1.12500E+00
 -1       439 4.75000E-01 1.97500E+00 1.12500E+00
 -1       440 4.75000E-01 2.02500E+00 1.12500E+00
 -1       441 5.25000E-01 2.02500E+00 1.12500E+00
 -1       446 5.25000E-01 1.97500E+00 3.75000E-01
 -1       447 4.75000E-01 1.97500E+00 3.75000E-01
 -1       448 4.75000E-01 2.02500E+00 3.75000E-01
 -1       449 5.25000E-01 2.02500E+00 3.75000E-01
 -3
    3C                            20                                     1
 -1         1    4    0    1
 -2        42        50        51        43        45        53        52        44        58        54
 -2        59        46        49        57        55        47        61        56        60        48
 -1         2    4    0    1
 -2        50        66        67        51        53        69        68        52        74        70
 -2        75        54        57        73        71        55        77        72        76        56
 -1         3    4    0    1
 -2        66        82        83        67        69        85        84        68        90        86
 -2        91        70        73        89        87        71        93        88        92        72
 -1         4    4    0    1
 -2        82        98        99        83        85       101       100        84       148       102
 -2       149        86        89       105       103        87       151       104       150        88
 -1         5    4    0    1
 -2       106       156       157       107       109       159       158       108       164       160
 -2       165       110       113       163       161       111       167       162       166       112
 -1         6    4    0    1
 -2       156       172       173       157       159       175       174       158       180       176
 -2       181       160       163       179       177       161       183       178       182       162
 -1         7    4    0    1
 -2       172       188       189       173       175       191       190       174       196       192
 -2       197       176       179       195       193       177       199       194       198       178
 -1         8    4    0    1
 -2       188       204       205       189       191       207       206       190       212       208
 -2       213       192       195       211       209       193       215       210       214       194
 -1         9    4    0    1
 -2       220       228       229       221       223       231       230       222       236       232
 -2       237       224       227       235       233       225       239       234       238       226
 -1        10    4    0    1
 -2       228       244       245       229       231       247       246       230       252       248
 -2       253       232       235       251       249       233       255       250       254       234
 -1        11    4    0    1
 -2       244       260       261       245       247       263       262       246       268       264
 -2       269       248       251       267       265       249       271       266       270       250
 -1        12    4    0    1
 -2       260       276       277       261       263       279       278       262       326       280
 -2       327       264       267       283       281       265       329       282       328       266
 -1        13    4    0    1
 -2       284       334       335       285       287       337       336       286       342       338
 -2       343       288       291       341       339       289       345       340       344       290
 -1        14    4    0    1
 -2       334       350       351       335       337       353       352       336       358       354
 -2       359       338       341       357       355       339       361       356       360       340
 -1        15    4    0    1
 -2       350       366       367       351       353       369       368       352       374       370
 -2       375       354       357       373       371       355       377       372       376       356
 -1        16    4    0    1
 -2       366       382       383       367       369       385       384       368       390       386
 -2       391       370       373       389       387       371       393       388       392       372
 -1        17    4    0    1
 -2       292       398       399       293       295       401       400       294       406       402
 -2       407       296       299       405       403       297       409       404       408       298
 -1        18    4    0    1
 -2       398       414       415       399       401       417       416       400       422       418
 -2       423       402       405       421       419       403       425       420       424       404
 -1        19    4    0    1
 -2       414       430       431       415       417       433       432       416       438       434
 -2       439       418       421       437       435       419       441       436       440       420
 -1        20    4    0    1
 -2       430       114       115       431       433       117       116       432       446       118
 -2       447       434       437       121       119       435       449       120       448       436
 -3
 9999
