# vtk DataFile Version 3.0

ASCII
DATASET UNSTRUCTURED_GRID

POINTS 522 double
	 1.00000000E+00	 1.00000000E+00	 0.00000000E+00
	 1.00000000E+00	 5.00000000E-01	 0.00000000E+00
	 1.00000000E+00	 5.00000000E-01	 1.00000000E+00
	 1.00000000E+00	 1.00000000E+00	 1.00000000E+00
	 5.00000000E-01	 1.00000000E+00	 0.00000000E+00
	 5.00000000E-01	 5.00000000E-01	 0.00000000E+00
	 5.00000000E-01	 5.00000000E-01	 1.00000000E+00
	 5.00000000E-01	 1.00000000E+00	 1.00000000E+00
	 1.00000000E+00	 7.50000000E-01	 0.00000000E+00
	 1.00000000E+00	 5.00000000E-01	 5.00000000E-01
	 1.00000000E+00	 7.50000000E-01	 1.00000000E+00
	 1.00000000E+00	 1.00000000E+00	 5.00000000E-01
	 7.50000000E-01	 1.00000000E+00	 0.00000000E+00
	 7.50000000E-01	 5.00000000E-01	 0.00000000E+00
	 7.50000000E-01	 5.00000000E-01	 1.00000000E+00
	 7.50000000E-01	 1.00000000E+00	 1.00000000E+00
	 5.00000000E-01	 7.50000000E-01	 0.00000000E+00
	 5.00000000E-01	 5.00000000E-01	 5.00000000E-01
	 5.00000000E-01	 7.50000000E-01	 1.00000000E+00
	 5.00000000E-01	 1.00000000E+00	 5.00000000E-01
	 1.00000000E+00	 0.00000000E+00	 0.00000000E+00
	 1.00000000E+00	 0.00000000E+00	 1.00000000E+00
	 5.00000000E-01	 0.00000000E+00	 0.00000000E+00
	 5.00000000E-01	 0.00000000E+00	 1.00000000E+00
	 1.00000000E+00	 2.50000000E-01	 0.00000000E+00
	 1.00000000E+00	 0.00000000E+00	 5.00000000E-01
	 1.00000000E+00	 2.50000000E-01	 1.00000000E+00
	 7.50000000E-01	 0.00000000E+00	 0.00000000E+00
	 7.50000000E-01	 0.00000000E+00	 1.00000000E+00
	 5.00000000E-01	 2.50000000E-01	 0.00000000E+00
	 5.00000000E-01	 0.00000000E+00	 5.00000000E-01
	 5.00000000E-01	 2.50000000E-01	 1.00000000E+00
	 0.00000000E+00	 1.00000000E+00	 0.00000000E+00
	 0.00000000E+00	 5.00000000E-01	 0.00000000E+00
	 0.00000000E+00	 5.00000000E-01	 1.00000000E+00
	 0.00000000E+00	 1.00000000E+00	 1.00000000E+00
	 2.50000000E-01	 1.00000000E+00	 0.00000000E+00
	 2.50000000E-01	 5.00000000E-01	 0.00000000E+00
	 2.50000000E-01	 5.00000000E-01	 1.00000000E+00
	 2.50000000E-01	 1.00000000E+00	 1.00000000E+00
	 0.00000000E+00	 7.50000000E-01	 0.00000000E+00
	 0.00000000E+00	 5.00000000E-01	 5.00000000E-01
	 0.00000000E+00	 7.50000000E-01	 1.00000000E+00
	 0.00000000E+00	 1.00000000E+00	 5.00000000E-01
	 0.00000000E+00	 0.00000000E+00	 0.00000000E+00
	 0.00000000E+00	 0.00000000E+00	 1.00000000E+00
	 2.50000000E-01	 0.00000000E+00	 0.00000000E+00
	 2.50000000E-01	 0.00000000E+00	 1.00000000E+00
	 0.00000000E+00	 2.50000000E-01	 0.00000000E+00
	 0.00000000E+00	 0.00000000E+00	 5.00000000E-01
	 0.00000000E+00	 2.50000000E-01	 1.00000000E+00
	 1.00000000E+00	 5.00000000E-01	 2.00000000E+00
	 1.00000000E+00	 1.00000000E+00	 2.00000000E+00
	 5.00000000E-01	 5.00000000E-01	 2.00000000E+00
	 5.00000000E-01	 1.00000000E+00	 2.00000000E+00
	 1.00000000E+00	 5.00000000E-01	 1.50000000E+00
	 1.00000000E+00	 7.50000000E-01	 2.00000000E+00
	 1.00000000E+00	 1.00000000E+00	 1.50000000E+00
	 7.50000000E-01	 5.00000000E-01	 2.00000000E+00
	 7.50000000E-01	 1.00000000E+00	 2.00000000E+00
	 5.00000000E-01	 5.00000000E-01	 1.50000000E+00
	 5.00000000E-01	 7.50000000E-01	 2.00000000E+00
	 5.00000000E-01	 1.00000000E+00	 1.50000000E+00
	 1.00000000E+00	 0.00000000E+00	 2.00000000E+00
	 5.00000000E-01	 0.00000000E+00	 2.00000000E+00
	 1.00000000E+00	 0.00000000E+00	 1.50000000E+00
	 1.00000000E+00	 2.50000000E-01	 2.00000000E+00
	 7.50000000E-01	 0.00000000E+00	 2.00000000E+00
	 5.00000000E-01	 0.00000000E+00	 1.50000000E+00
	 5.00000000E-01	 2.50000000E-01	 2.00000000E+00
	 0.00000000E+00	 5.00000000E-01	 2.00000000E+00
	 0.00000000E+00	 1.00000000E+00	 2.00000000E+00
	 2.50000000E-01	 5.00000000E-01	 2.00000000E+00
	 2.50000000E-01	 1.00000000E+00	 2.00000000E+00
	 0.00000000E+00	 5.00000000E-01	 1.50000000E+00
	 0.00000000E+00	 7.50000000E-01	 2.00000000E+00
	 0.00000000E+00	 1.00000000E+00	 1.50000000E+00
	 0.00000000E+00	 0.00000000E+00	 2.00000000E+00
	 2.50000000E-01	 0.00000000E+00	 2.00000000E+00
	 0.00000000E+00	 0.00000000E+00	 1.50000000E+00
	 0.00000000E+00	 2.50000000E-01	 2.00000000E+00
	 1.00000000E+00	 5.00000000E-01	 3.00000000E+00
	 1.00000000E+00	 1.00000000E+00	 3.00000000E+00
	 5.00000000E-01	 5.00000000E-01	 3.00000000E+00
	 5.00000000E-01	 1.00000000E+00	 3.00000000E+00
	 1.00000000E+00	 5.00000000E-01	 2.50000000E+00
	 1.00000000E+00	 7.50000000E-01	 3.00000000E+00
	 1.00000000E+00	 1.00000000E+00	 2.50000000E+00
	 7.50000000E-01	 5.00000000E-01	 3.00000000E+00
	 7.50000000E-01	 1.00000000E+00	 3.00000000E+00
	 5.00000000E-01	 5.00000000E-01	 2.50000000E+00
	 5.00000000E-01	 7.50000000E-01	 3.00000000E+00
	 5.00000000E-01	 1.00000000E+00	 2.50000000E+00
	 1.00000000E+00	 0.00000000E+00	 3.00000000E+00
	 5.00000000E-01	 0.00000000E+00	 3.00000000E+00
	 1.00000000E+00	 0.00000000E+00	 2.50000000E+00
	 1.00000000E+00	 2.50000000E-01	 3.00000000E+00
	 7.50000000E-01	 0.00000000E+00	 3.00000000E+00
	 5.00000000E-01	 0.00000000E+00	 2.50000000E+00
	 5.00000000E-01	 2.50000000E-01	 3.00000000E+00
	 0.00000000E+00	 5.00000000E-01	 3.00000000E+00
	 0.00000000E+00	 1.00000000E+00	 3.00000000E+00
	 2.50000000E-01	 5.00000000E-01	 3.00000000E+00
	 2.50000000E-01	 1.00000000E+00	 3.00000000E+00
	 0.00000000E+00	 5.00000000E-01	 2.50000000E+00
	 0.00000000E+00	 7.50000000E-01	 3.00000000E+00
	 0.00000000E+00	 1.00000000E+00	 2.50000000E+00
	 0.00000000E+00	 0.00000000E+00	 3.00000000E+00
	 2.50000000E-01	 0.00000000E+00	 3.00000000E+00
	 0.00000000E+00	 0.00000000E+00	 2.50000000E+00
	 0.00000000E+00	 2.50000000E-01	 3.00000000E+00
	 1.00000000E+00	 5.00000000E-01	 4.00000000E+00
	 1.00000000E+00	 1.00000000E+00	 4.00000000E+00
	 5.00000000E-01	 5.00000000E-01	 4.00000000E+00
	 5.00000000E-01	 1.00000000E+00	 4.00000000E+00
	 1.00000000E+00	 5.00000000E-01	 3.50000000E+00
	 1.00000000E+00	 7.50000000E-01	 4.00000000E+00
	 1.00000000E+00	 1.00000000E+00	 3.50000000E+00
	 7.50000000E-01	 5.00000000E-01	 4.00000000E+00
	 7.50000000E-01	 1.00000000E+00	 4.00000000E+00
	 5.00000000E-01	 5.00000000E-01	 3.50000000E+00
	 5.00000000E-01	 7.50000000E-01	 4.00000000E+00
	 5.00000000E-01	 1.00000000E+00	 3.50000000E+00
	 1.00000000E+00	 0.00000000E+00	 4.00000000E+00
	 5.00000000E-01	 0.00000000E+00	 4.00000000E+00
	 1.00000000E+00	 0.00000000E+00	 3.50000000E+00
	 1.00000000E+00	 2.50000000E-01	 4.00000000E+00
	 7.50000000E-01	 0.00000000E+00	 4.00000000E+00
	 5.00000000E-01	 0.00000000E+00	 3.50000000E+00
	 5.00000000E-01	 2.50000000E-01	 4.00000000E+00
	 0.00000000E+00	 5.00000000E-01	 4.00000000E+00
	 0.00000000E+00	 1.00000000E+00	 4.00000000E+00
	 2.50000000E-01	 5.00000000E-01	 4.00000000E+00
	 2.50000000E-01	 1.00000000E+00	 4.00000000E+00
	 0.00000000E+00	 5.00000000E-01	 3.50000000E+00
	 0.00000000E+00	 7.50000000E-01	 4.00000000E+00
	 0.00000000E+00	 1.00000000E+00	 3.50000000E+00
	 0.00000000E+00	 0.00000000E+00	 4.00000000E+00
	 2.50000000E-01	 0.00000000E+00	 4.00000000E+00
	 0.00000000E+00	 0.00000000E+00	 3.50000000E+00
	 0.00000000E+00	 2.50000000E-01	 4.00000000E+00
	 1.00000000E+00	 5.00000000E-01	 5.00000000E+00
	 1.00000000E+00	 1.00000000E+00	 5.00000000E+00
	 5.00000000E-01	 5.00000000E-01	 5.00000000E+00
	 5.00000000E-01	 1.00000000E+00	 5.00000000E+00
	 1.00000000E+00	 5.00000000E-01	 4.50000000E+00
	 1.00000000E+00	 7.50000000E-01	 5.00000000E+00
	 1.00000000E+00	 1.00000000E+00	 4.50000000E+00
	 7.50000000E-01	 5.00000000E-01	 5.00000000E+00
	 7.50000000E-01	 1.00000000E+00	 5.00000000E+00
	 5.00000000E-01	 5.00000000E-01	 4.50000000E+00
	 5.00000000E-01	 7.50000000E-01	 5.00000000E+00
	 5.00000000E-01	 1.00000000E+00	 4.50000000E+00
	 1.00000000E+00	 0.00000000E+00	 5.00000000E+00
	 5.00000000E-01	 0.00000000E+00	 5.00000000E+00
	 1.00000000E+00	 0.00000000E+00	 4.50000000E+00
	 1.00000000E+00	 2.50000000E-01	 5.00000000E+00
	 7.50000000E-01	 0.00000000E+00	 5.00000000E+00
	 5.00000000E-01	 0.00000000E+00	 4.50000000E+00
	 5.00000000E-01	 2.50000000E-01	 5.00000000E+00
	 0.00000000E+00	 5.00000000E-01	 5.00000000E+00
	 0.00000000E+00	 1.00000000E+00	 5.00000000E+00
	 2.50000000E-01	 5.00000000E-01	 5.00000000E+00
	 2.50000000E-01	 1.00000000E+00	 5.00000000E+00
	 0.00000000E+00	 5.00000000E-01	 4.50000000E+00
	 0.00000000E+00	 7.50000000E-01	 5.00000000E+00
	 0.00000000E+00	 1.00000000E+00	 4.50000000E+00
	 0.00000000E+00	 0.00000000E+00	 5.00000000E+00
	 2.50000000E-01	 0.00000000E+00	 5.00000000E+00
	 0.00000000E+00	 0.00000000E+00	 4.50000000E+00
	 0.00000000E+00	 2.50000000E-01	 5.00000000E+00
	 1.00000000E+00	 5.00000000E-01	 6.00000000E+00
	 1.00000000E+00	 1.00000000E+00	 6.00000000E+00
	 5.00000000E-01	 5.00000000E-01	 6.00000000E+00
	 5.00000000E-01	 1.00000000E+00	 6.00000000E+00
	 1.00000000E+00	 5.00000000E-01	 5.50000000E+00
	 1.00000000E+00	 7.50000000E-01	 6.00000000E+00
	 1.00000000E+00	 1.00000000E+00	 5.50000000E+00
	 7.50000000E-01	 5.00000000E-01	 6.00000000E+00
	 7.50000000E-01	 1.00000000E+00	 6.00000000E+00
	 5.00000000E-01	 5.00000000E-01	 5.50000000E+00
	 5.00000000E-01	 7.50000000E-01	 6.00000000E+00
	 5.00000000E-01	 1.00000000E+00	 5.50000000E+00
	 1.00000000E+00	 0.00000000E+00	 6.00000000E+00
	 5.00000000E-01	 0.00000000E+00	 6.00000000E+00
	 1.00000000E+00	 0.00000000E+00	 5.50000000E+00
	 1.00000000E+00	 2.50000000E-01	 6.00000000E+00
	 7.50000000E-01	 0.00000000E+00	 6.00000000E+00
	 5.00000000E-01	 0.00000000E+00	 5.50000000E+00
	 5.00000000E-01	 2.50000000E-01	 6.00000000E+00
	 0.00000000E+00	 5.00000000E-01	 6.00000000E+00
	 0.00000000E+00	 1.00000000E+00	 6.00000000E+00
	 2.50000000E-01	 5.00000000E-01	 6.00000000E+00
	 2.50000000E-01	 1.00000000E+00	 6.00000000E+00
	 0.00000000E+00	 5.00000000E-01	 5.50000000E+00
	 0.00000000E+00	 7.50000000E-01	 6.00000000E+00
	 0.00000000E+00	 1.00000000E+00	 5.50000000E+00
	 0.00000000E+00	 0.00000000E+00	 6.00000000E+00
	 2.50000000E-01	 0.00000000E+00	 6.00000000E+00
	 0.00000000E+00	 0.00000000E+00	 5.50000000E+00
	 0.00000000E+00	 2.50000000E-01	 6.00000000E+00
	 1.00000000E+00	 5.00000000E-01	 7.00000000E+00
[...]
POINT_DATA 522
FIELD U 1
	U 3 522 double
		 1.24523000E-02	 1.24647000E-02	 0.00000000E+00
		 1.18229000E-02	 7.49787000E-03	 0.00000000E+00
		 1.43498000E-02	 7.49790000E-03	 9.92878000E-03
		 1.49781000E-02	 1.24689000E-02	 9.92451000E-03
		 6.85879000E-03	 1.37237000E-02	 0.00000000E+00
		 6.22619000E-03	 7.49785000E-03	 0.00000000E+00
		 8.75646000E-03	 7.49788000E-03	 1.24563000E-02
		 9.38810000E-03	 1.37256000E-02	 1.24524000E-02
		 1.19805000E-02	 9.98114000E-03	 0.00000000E+00
		 1.24552000E-02	 7.49787000E-03	 4.96529000E-03
		 1.45073000E-02	 9.98323000E-03	 9.92788000E-03
		 1.30843000E-02	 1.24663000E-02	 4.96300000E-03
		 9.81238000E-03	 1.30935000E-02	 0.00000000E+00
		 9.18171000E-03	 7.49785000E-03	 0.00000000E+00
		 1.17099000E-02	 7.49788000E-03	 1.11922000E-02
		 1.23395000E-02	 1.30965000E-02	 1.11879000E-02
		 6.38428000E-03	 1.06109000E-02	 0.00000000E+00
		 6.85886000E-03	 7.49786000E-03	 6.22938000E-03
		 8.91437000E-03	 1.06119000E-02	 1.24553000E-02
		 7.49116000E-03	 1.37247000E-02	 6.22731000E-03
		 1.24523000E-02	 2.53098000E-03	 0.00000000E+00
		 1.49781000E-02	 2.52684000E-03	 9.92455000E-03
		 6.85879000E-03	 1.27196000E-03	 0.00000000E+00
		 9.38810000E-03	 1.27012000E-03	 1.24524000E-02
		 1.19806000E-02	 5.01458000E-03	 0.00000000E+00
		 1.30844000E-02	 2.52939000E-03	 4.96302000E-03
		 1.45073000E-02	 5.01253000E-03	 9.92791000E-03
		 9.81239000E-03	 1.90218000E-03	 0.00000000E+00
		 1.23395000E-02	 1.89923000E-03	 1.11879000E-02
		 6.38429000E-03	 4.38475000E-03	 0.00000000E+00
		 7.49117000E-03	 1.27103000E-03	 6.22733000E-03
		 8.91437000E-03	 4.38382000E-03	 1.24553000E-02
		 0.00000000E+00	 1.49957000E-02	 0.00000000E+00
		-6.36031000E-04	 7.49785000E-03	 0.00000000E+00
		 1.89978000E-03	 7.49787000E-03	 1.49883000E-02
		 2.53497000E-03	 1.49958000E-02	 1.49847000E-02
		 3.58916000E-03	 1.43589000E-02	 0.00000000E+00
		 2.95453000E-03	 7.49785000E-03	 0.00000000E+00
		 5.48730000E-03	 7.49788000E-03	 1.37215000E-02
		 6.12105000E-03	 1.43598000E-02	 1.37179000E-02
		-4.77490000E-04	 1.12466000E-02	 0.00000000E+00
		-2.25068000E-06	 7.49785000E-03	 7.49577000E-03
		 2.05813000E-03	 1.12467000E-02	 1.49874000E-02
		 6.33511000E-04	 1.49960000E-02	 7.49392000E-03
		 0.00000000E+00	 0.00000000E+00	 0.00000000E+00
		 2.53497000E-03	 0.00000000E+00	 1.49848000E-02
		 3.58915000E-03	 6.36795000E-04	 0.00000000E+00
		 6.12105000E-03	 6.35923000E-04	 1.37180000E-02
		-4.77489000E-04	 3.74909000E-03	 0.00000000E+00
		 6.33510000E-04	-2.57922000E-07	 7.49394000E-03
		 2.05813000E-03	 3.74910000E-03	 1.49874000E-02
		 2.19185000E-02	 7.49798000E-03	 1.98452000E-02
		 2.25451000E-02	 1.24749000E-02	 1.98381000E-02
		 1.63398000E-02	 7.49796000E-03	 2.48920000E-02
		 1.69700000E-02	 1.37285000E-02	 2.48851000E-02
		 1.75056000E-02	 7.49793000E-03	 1.48906000E-02
		 2.20756000E-02	 9.98628000E-03	 1.98435000E-02
		 1.81329000E-02	 1.24726000E-02	 1.48848000E-02
		 1.92855000E-02	 7.49797000E-03	 2.23672000E-02
		 1.99136000E-02	 1.31009000E-02	 2.23602000E-02
		 1.19174000E-02	 7.49791000E-03	 1.86783000E-02
		 1.64974000E-02	 1.06134000E-02	 2.48903000E-02
		 1.25482000E-02	 1.37274000E-02	 1.86728000E-02
		 2.25452000E-02	 2.52100000E-03	 1.98383000E-02
		 1.69700000E-02	 1.26744000E-03	 2.48852000E-02
		 1.81330000E-02	 2.52316000E-03	 1.48848000E-02
		 2.20757000E-02	 5.00966000E-03	 1.98435000E-02
		 1.99136000E-02	 1.89500000E-03	 2.23603000E-02
		 1.25482000E-02	 1.26842000E-03	 1.86729000E-02
		 1.64974000E-02	 4.38251000E-03	 2.48903000E-02
		 9.50099000E-03	 7.49796000E-03	 2.99507000E-02
		 1.01348000E-02	 1.49959000E-02	 2.99439000E-02
		 1.30792000E-02	 7.49796000E-03	 2.74197000E-02
		 1.37116000E-02	 1.43613000E-02	 2.74130000E-02
		 5.06771000E-03	 7.49791000E-03	 2.24743000E-02
		 9.65901000E-03	 1.12468000E-02	 2.99489000E-02
		 5.70218000E-03	 1.49960000E-02	 2.24691000E-02
		 1.01348000E-02	 7.01827000E-08	 2.99441000E-02
		 1.37116000E-02	 6.34649000E-04	 2.74131000E-02
		 5.70217000E-03	-2.11912000E-07	 2.24692000E-02
		 9.65901000E-03	 3.74917000E-03	 2.99490000E-02
		 3.45138000E-02	 7.49814000E-03	 2.97181000E-02
		 3.51398000E-02	 1.24775000E-02	 2.97083000E-02
		 2.89649000E-02	 7.49812000E-03	 3.72806000E-02
		 2.95944000E-02	 1.37299000E-02	 3.72708000E-02
		 2.75883000E-02	 7.49805000E-03	 2.47889000E-02
		 3.46707000E-02	 9.98770000E-03	 2.97156000E-02
		 2.82146000E-02	 1.24766000E-02	 2.47804000E-02
		 3.18955000E-02	 7.49813000E-03	 3.34971000E-02
		 3.25230000E-02	 1.31030000E-02	 3.34872000E-02
		 2.20226000E-02	 7.49803000E-03	 3.10939000E-02
		 2.91223000E-02	 1.06142000E-02	 3.72781000E-02
		 2.26524000E-02	 1.37295000E-02	 3.10856000E-02
		 3.51399000E-02	 2.51865000E-03	 2.97084000E-02
		 2.95944000E-02	 1.26631000E-03	 3.72710000E-02
		 2.82146000E-02	 2.51946000E-03	 2.47806000E-02
		 3.46708000E-02	 5.00856000E-03	 2.97157000E-02
		 3.25230000E-02	 1.89325000E-03	 3.34874000E-02
		 2.26524000E-02	 1.26657000E-03	 3.10857000E-02
		 2.91223000E-02	 4.38203000E-03	 3.72782000E-02
		 2.21573000E-02	 7.49812000E-03	 4.48618000E-02
		 2.27904000E-02	 1.49960000E-02	 4.48520000E-02
		 2.57197000E-02	 7.49812000E-03	 4.10688000E-02
		 2.63514000E-02	 1.43621000E-02	 4.10590000E-02
		 1.51975000E-02	 7.49803000E-03	 3.74142000E-02
		 2.23152000E-02	 1.12469000E-02	 4.48593000E-02
		 1.58310000E-02	 1.49962000E-02	 3.74059000E-02
		 2.27904000E-02	 2.36354000E-07	 4.48522000E-02
		 2.63514000E-02	 6.34150000E-04	 4.10592000E-02
		 1.58310000E-02	-9.27524000E-08	 3.74061000E-02
		 2.23152000E-02	 3.74934000E-03	 4.48594000E-02
		 5.21312000E-02	 7.49838000E-03	 3.95186000E-02
		 5.27569000E-02	 1.24788000E-02	 3.95057000E-02
		 4.66259000E-02	 7.49836000E-03	 4.95948000E-02
		 4.72551000E-02	 1.37307000E-02	 4.95819000E-02
		 4.26951000E-02	 7.49825000E-03	 3.46291000E-02
		 5.22880000E-02	 9.98845000E-03	 3.95153000E-02
		 4.33209000E-02	 1.24784000E-02	 3.46178000E-02
		 4.95346000E-02	 7.49836000E-03	 4.45536000E-02
		 5.01617000E-02	 1.31040000E-02	 4.45407000E-02
		 3.71662000E-02	 7.49823000E-03	 4.34487000E-02
		 4.67832000E-02	 1.06147000E-02	 4.95916000E-02
		 3.77955000E-02	 1.37306000E-02	 4.34373000E-02
		 5.27570000E-02	 2.51786000E-03	 3.95060000E-02
		 4.72551000E-02	 1.26601000E-03	 4.95822000E-02
		 4.33210000E-02	 2.51797000E-03	 3.46180000E-02
		 5.22881000E-02	 5.00829000E-03	 3.95154000E-02
		 5.01618000E-02	 1.89270000E-03	 4.45410000E-02
		 3.77955000E-02	 1.26588000E-03	 4.34376000E-02
		 4.67832000E-02	 4.38200000E-03	 4.95917000E-02
		 3.98626000E-02	 7.49836000E-03	 5.96963000E-02
		 4.04954000E-02	 1.49963000E-02	 5.96833000E-02
		 4.34028000E-02	 7.49836000E-03	 5.46424000E-02
		 4.40341000E-02	 1.43626000E-02	 5.46294000E-02
		 3.03789000E-02	 7.49823000E-03	 5.22902000E-02
		 4.00203000E-02	 1.12471000E-02	 5.96930000E-02
		 3.10118000E-02	 1.49964000E-02	 5.22788000E-02
		 4.04954000E-02	 4.72921000E-07	 5.96836000E-02
		 4.40341000E-02	 6.34117000E-04	 5.46297000E-02
		 3.10118000E-02	 1.09291000E-07	 5.22791000E-02
		 4.00203000E-02	 3.74958000E-03	 5.96932000E-02
		 7.47681000E-02	 7.49870000E-03	 4.92191000E-02
		 7.53936000E-02	 1.24793000E-02	 4.92033000E-02
		 6.93196000E-02	 7.49868000E-03	 6.18080000E-02
		 6.99487000E-02	 1.37311000E-02	 6.17920000E-02
		 6.28225000E-02	 7.49853000E-03	 4.43830000E-02
		 7.49249000E-02	 9.98884000E-03	 4.92151000E-02
		 6.34481000E-02	 1.24793000E-02	 4.43687000E-02
		 7.21999000E-02	 7.49868000E-03	 5.55096000E-02
		 7.28269000E-02	 1.31044000E-02	 5.54937000E-02
		 5.73438000E-02	 7.49851000E-03	 5.57157000E-02
		 6.94769000E-02	 1.06151000E-02	 6.18040000E-02
		 5.79729000E-02	 1.37311000E-02	 5.57012000E-02
		 7.53937000E-02	 2.51803000E-03	 4.92036000E-02
		 6.99487000E-02	 1.26629000E-03	 6.17924000E-02
		 6.34482000E-02	 2.51766000E-03	 4.43690000E-02
		 7.49249000E-02	 5.00853000E-03	 4.92153000E-02
		 7.28269000E-02	 1.89292000E-03	 5.54941000E-02
		 5.79729000E-02	 1.26587000E-03	 5.57016000E-02
		 6.94769000E-02	 4.38230000E-03	 6.18042000E-02
		 6.26135000E-02	 7.49868000E-03	 7.44287000E-02
		 6.32463000E-02	 1.49966000E-02	 7.44126000E-02
		 6.61251000E-02	 7.49868000E-03	 6.81144000E-02
		 6.67563000E-02	 1.43629000E-02	 6.80983000E-02
		 5.06072000E-02	 7.49851000E-03	 6.70769000E-02
		 6.27713000E-02	 1.12475000E-02	 7.44247000E-02
		 5.12400000E-02	 1.49966000E-02	 6.70623000E-02
		 6.32463000E-02	 7.94007000E-07	 7.44130000E-02
		 6.67563000E-02	 6.34415000E-04	 6.80987000E-02
		 5.12400000E-02	 3.88033000E-07	 6.70626000E-02
		 6.27713000E-02	 3.74990000E-03	 7.44249000E-02
		 1.02423000E-01	 7.49910000E-03	 5.87923000E-02
		 1.03048000E-01	 1.24783000E-02	 5.87737000E-02
		 9.70448000E-02	 7.49908000E-03	 7.38936000E-02
		 9.76742000E-02	 1.37307000E-02	 7.38747000E-02
		 8.79683000E-02	 7.49889000E-03	 5.40235000E-02
		 1.02579000E-01	 9.98853000E-03	 5.87876000E-02
		 8.85939000E-02	 1.24791000E-02	 5.40063000E-02
		 9.98897000E-02	 7.49909000E-03	 6.63381000E-02
		 1.00517000E-01	 1.31037000E-02	 6.63194000E-02
		 8.25533000E-02	 7.49887000E-03	 6.78685000E-02
		 9.72022000E-02	 1.06151000E-02	 7.38888000E-02
		 8.31825000E-02	 1.37312000E-02	 6.78510000E-02
		 1.03048000E-01	 2.51986000E-03	 5.87742000E-02
		 9.76742000E-02	 1.26745000E-03	 7.38752000E-02
		 8.85940000E-02	 2.51857000E-03	 5.40067000E-02
		 1.02580000E-01	 5.00965000E-03	 5.87878000E-02
		 1.00517000E-01	 1.89444000E-03	 6.63199000E-02
		 8.31825000E-02	 1.26655000E-03	 6.78514000E-02
		 9.72022000E-02	 4.38308000E-03	 7.38891000E-02
		 9.04091000E-02	 7.49908000E-03	 8.90336000E-02
		 9.10421000E-02	 1.49970000E-02	 8.90144000E-02
		 9.38855000E-02	 7.49908000E-03	 8.14588000E-02
		 9.45171000E-02	 1.43629000E-02	 8.14397000E-02
		 7.58805000E-02	 7.49887000E-03	 8.17487000E-02
		 9.05669000E-02	 1.12479000E-02	 8.90288000E-02
		 7.65133000E-02	 1.49970000E-02	 8.17311000E-02
		 9.10421000E-02	 1.19442000E-06	 8.90148000E-02
		 9.45171000E-02	 6.35223000E-04	 8.14401000E-02
		 7.65133000E-02	 7.49402000E-07	 8.17315000E-02
		 9.05669000E-02	 3.75029000E-03	 8.90290000E-02
		 1.35094000E-01	 7.49958000E-03	 6.82086000E-02
		 1.35722000E-01	 1.24733000E-02	 6.81874000E-02
		 1.29803000E-01	 7.49956000E-03	 8.58238000E-02
		 1.30434000E-01	 1.37285000E-02	 8.58020000E-02
		 1.18131000E-01	 7.49933000E-03	 6.35221000E-02
		 1.35252000E-01	 9.98627000E-03	 6.82031000E-02
		 1.18758000E-01	 1.24766000E-02	 6.35023000E-02
		 1.32605000E-01	 7.49957000E-03	 7.70103000E-02
		 1.33234000E-01	 1.31001000E-02	 7.69890000E-02
		 1.12794000E-01	 7.49931000E-03	 7.98799000E-02
		 1.29961000E-01	 1.06143000E-02	 8.58183000E-02
		 1.13424000E-01	 1.37300000E-02	 7.98596000E-02
		 1.35722000E-01	 2.52583000E-03	 6.81879000E-02
		 1.30434000E-01	 1.27058000E-03	 8.58025000E-02
		 1.18758000E-01	 2.52197000E-03	 6.35028000E-02
		 1.35252000E-01	 5.01287000E-03	 6.82034000E-02
		 1.33234000E-01	 1.89895000E-03	 7.69895000E-02
		 1.13424000E-01	 1.26859000E-03	 7.98601000E-02
		 1.29961000E-01	 4.38487000E-03	 8.58186000E-02
		 1.23251000E-01	 7.49957000E-03	 1.03485000E-01
		 1.23886000E-01	 1.49975000E-02	 1.03463000E-01
		 1.26686000E-01	 7.49957000E-03	 9.46489000E-02
		 1.27319000E-01	 1.43621000E-02	 9.46267000E-02
		 1.06199000E-01	 7.49932000E-03	 9.62802000E-02
		 1.23409000E-01	 1.12484000E-02	 1.03480000E-01
		 1.06832000E-01	 1.49975000E-02	 9.62595000E-02
		 1.23886000E-01	 1.65322000E-06	 1.03463000E-01
		 1.27319000E-01	 6.36984000E-04	 9.46273000E-02
		 1.06832000E-01	 1.18302000E-06	 9.62600000E-02
		 1.23410000E-01	 3.75077000E-03	 1.03480000E-01
		 1.72795000E-01	 7.50014000E-03	 7.74365000E-02
		 1.73423000E-01	 1.24688000E-02	 7.74123000E-02
		 1.67603000E-01	 7.50012000E-03	 9.75686000E-02
		 1.68234000E-01	 1.37274000E-02	 9.75447000E-02
		 1.53316000E-01	 7.49985000E-03	 7.28464000E-02
		 1.72952000E-01	 9.98444000E-03	 7.74305000E-02
		 1.53944000E-01	 1.24708000E-02	 7.28234000E-02
		 1.70356000E-01	 7.50013000E-03	 8.74959000E-02
		 1.70985000E-01	 1.30974000E-02	 8.74720000E-02
		 1.48072000E-01	 7.49983000E-03	 9.17213000E-02
		 1.67761000E-01	 1.06139000E-02	 9.75628000E-02
		 1.48703000E-01	 1.37282000E-02	 9.16978000E-02
		 1.73423000E-01	 2.53141000E-03	 7.74129000E-02
		 1.68234000E-01	 1.27286000E-03	 9.75453000E-02
		 1.53944000E-01	 2.52886000E-03	 7.28239000E-02
		 1.72952000E-01	 5.01581000E-03	 7.74308000E-02
		 1.70985000E-01	 1.90281000E-03	 8.74726000E-02
		 1.48703000E-01	 1.27146000E-03	 9.16984000E-02
		 1.67761000E-01	 4.38630000E-03	 9.75631000E-02
		 1.61149000E-01	 7.50012000E-03	 1.17760000E-01
		 1.61784000E-01	 1.49973000E-02	 1.17735000E-01
		 1.64535000E-01	 7.50012000E-03	 1.07658000E-01
		 1.65168000E-01	 1.43616000E-02	 1.07633000E-01
		 1.41567000E-01	 7.49984000E-03	 1.10646000E-01
		 1.61307000E-01	 1.12487000E-02	 1.17754000E-01
		 1.42201000E-01	 1.49978000E-02	 1.10622000E-01
		 1.61784000E-01	 2.91415000E-06	 1.17736000E-01
		 1.65168000E-01	 6.38642000E-04	 1.07634000E-01
		 1.42201000E-01	 1.86129000E-06	 1.10623000E-01
		 1.61307000E-01	 3.75159000E-03	 1.17754000E-01
		 6.78821000E-04	 6.66237000E-04	 0.00000000E+00
		 5.07183000E-04	 6.66850000E-04	 0.00000000E+00
		 1.19968000E-03	 6.66285000E-04	 2.72066000E-06
		 1.38444000E-03	 6.66057000E-04	-2.87886000E-06
		 5.06207000E-04	 1.00574000E-03	 0.00000000E+00
		 3.36653000E-04	 6.67288000E-04	 0.00000000E+00
		 1.01600000E-03	 6.66725000E-04	 7.03706000E-04
		 1.20062000E-03	 1.03463000E-03	 6.93146000E-04
		 5.50545000E-04	 6.66369000E-04	 0.00000000E+00
		 6.79319000E-04	 6.66712000E-04	 1.26131000E-06
		 1.24607000E-03	 6.66140000E-04	 2.29404000E-07
		 8.55174000E-04	 6.66463000E-04	-2.09658000E-06
		 6.34625000E-04	 8.36832000E-04	 0.00000000E+00
		 4.63528000E-04	 6.67071000E-04	 0.00000000E+00
		 1.15377000E-03	 6.66507000E-04	 3.53420000E-04
		 1.33851000E-03	 8.50360000E-04	 3.47733000E-04
		 3.80131000E-04	 8.36112000E-04	 0.00000000E+00
		 5.04884000E-04	 6.67147000E-04	 3.46424000E-04
		 1.06231000E-03	 8.50643000E-04	 7.01689000E-04
		 6.79153000E-04	 1.01669000E-03	 3.39229000E-04
		 6.77887000E-04	 6.67357000E-04	 0.00000000E+00
		 1.38350000E-03	 6.66393000E-04	-4.04403000E-06
		 5.05287000E-04	 3.28974000E-04	 0.00000000E+00
		 1.19969000E-03	 2.98974000E-04	 6.92000000E-04
		 5.50103000E-04	 6.67300000E-04	 0.00000000E+00
		 8.54237000E-04	 6.66849000E-04	-2.66686000E-06
		 1.24562000E-03	 6.66393000E-04	-3.55366000E-07
		 6.33637000E-04	 4.97321000E-04	 0.00000000E+00
		 1.33751000E-03	 4.82668000E-04	 3.46571000E-04
		 3.79720000E-04	 4.98508000E-04	 0.00000000E+00
		 6.78229000E-04	 3.17749000E-04	 3.38671000E-04
		 1.06190000E-03	 4.82858000E-04	 7.01110000E-04
		 0.00000000E+00	 1.33593000E-03	 0.00000000E+00
		-1.64370000E-04	 6.67385000E-04	 0.00000000E+00
		 4.65708000E-04	 6.66787000E-04	 1.37740000E-03
		 6.49326000E-04	 1.40245000E-03	 1.36108000E-03
		 2.92534000E-04	 1.17163000E-03	 0.00000000E+00
		 1.25313000E-04	 6.67414000E-04	 0.00000000E+00
		 7.86879000E-04	 6.66847000E-04	 1.04739000E-03
		 9.71138000E-04	 1.21856000E-03	 1.03102000E-03
		-1.21990000E-04	 1.00165000E-03	 0.00000000E+00
		-1.33483000E-05	 6.67233000E-04	 6.77134000E-04
		 5.11451000E-04	 1.03446000E-03	 1.37637000E-03
		 1.56781000E-04	 1.35835000E-03	 6.66190000E-04
		 0.00000000E+00	 0.00000000E+00	 0.00000000E+00
		 6.49422000E-04	-6.75610000E-05	 1.36002000E-03
		 2.91839000E-04	 1.63753000E-04	 0.00000000E+00
		 9.70444000E-04	 1.15760000E-04	 1.02991000E-03
		-1.21807000E-04	 3.33540000E-04	 0.00000000E+00
		 1.56808000E-04	-2.26697000E-05	 6.65663000E-04
		 5.11714000E-04	 2.99582000E-04	 1.37584000E-03
		 3.37140000E-03	 6.64483000E-04	-2.09702000E-06
		 3.57526000E-03	 6.64462000E-04	-5.08325000E-06
		 3.16996000E-03	 6.64928000E-04	 1.48147000E-03
		 3.37518000E-03	 1.07331000E-03	 1.47566000E-03
		 2.08976000E-03	 6.65549000E-04	 2.25400000E-07
		 3.42238000E-03	 6.64543000E-04	-3.26755000E-06
		 2.28511000E-03	 6.65418000E-04	-4.50637000E-06
		 3.32202000E-03	 6.64707000E-04	 7.39771000E-04
		 3.52635000E-03	 8.68431000E-04	 7.36589000E-04
		 1.89559000E-03	 6.65995000E-04	 1.08446000E-03
		 3.22091000E-03	 8.69303000E-04	 1.48034000E-03
		 2.09218000E-03	 1.05636000E-03	 1.07483000E-03
		 3.57430000E-03	 6.64371000E-04	-7.56175000E-06
		 3.37423000E-03	 2.56713000E-04	 1.47319000E-03
		 2.28415000E-03	 6.65554000E-04	-6.31196000E-06
		 3.42193000E-03	 6.64383000E-04	-4.50785000E-06
		 3.52531000E-03	 4.61000000E-04	 7.34111000E-04
		 2.09124000E-03	 2.75791000E-04	 1.07303000E-03
		 3.22050000E-03	 4.60610000E-04	 1.47910000E-03
		 2.55584000E-03	 6.64947000E-04	 2.95564000E-03
		 2.76312000E-03	 1.48826000E-03	 2.94737000E-03
		 2.91571000E-03	 6.65041000E-04	 2.22108000E-03
		 3.12209000E-03	 1.28033000E-03	 2.21299000E-03
		 1.30612000E-03	 6.66029000E-04	 2.14903000E-03
		 2.60683000E-03	 1.07643000E-03	 2.95441000E-03
		 1.50469000E-03	 1.45444000E-03	 2.13444000E-03
		 2.76332000E-03	-1.56874000E-04	 2.94490000E-03
		 3.12140000E-03	 5.04557000E-05	 2.21052000E-03
		 1.50487000E-03	-1.20950000E-04	 2.13268000E-03
		 2.60717000E-03	 2.54002000E-04	 2.95317000E-03
		 7.16564000E-03	 6.61310000E-04	-1.12103000E-05
		 7.37770000E-03	 6.61137000E-04	-1.15557000E-05
		 6.95944000E-03	 6.61754000E-04	 2.30680000E-03
		 7.17223000E-03	 1.08538000E-03	 2.30532000E-03
		 5.05957000E-03	 6.63072000E-04	-6.17669000E-06
		 7.21876000E-03	 6.61242000E-04	-1.10872000E-05
		 5.26838000E-03	 6.62953000E-04	-7.67459000E-06
		 7.11551000E-03	 6.61534000E-04	 1.14762000E-03
		 7.32790000E-03	 8.73139000E-04	 1.14708000E-03
		 4.85477000E-03	 6.63516000E-04	 1.89063000E-03
		 7.01268000E-03	 8.73604000E-04	 2.30681000E-03
		 5.06449000E-03	 1.08050000E-03	 1.88761000E-03
		 7.37672000E-03	 6.61347000E-04	-1.54293000E-05
		 7.17127000E-03	 2.38301000E-04	 2.30144000E-03
		 5.26741000E-03	 6.63056000E-04	-1.08453000E-05
		 7.21830000E-03	 6.61337000E-04	-1.30245000E-05
		 7.32685000E-03	 4.49946000E-04	 1.14321000E-03
		 5.06354000E-03	 2.46705000E-04	 1.88444000E-03
		 7.01227000E-03	 4.49963000E-04	 2.30487000E-03
		 6.32714000E-03	 6.61762000E-04	 4.62211000E-03
		 6.54049000E-03	 1.51313000E-03	 4.61948000E-03
		 6.69665000E-03	 6.61863000E-04	 3.46517000E-03
		 6.90995000E-03	 1.29911000E-03	 3.46276000E-03
		 4.23099000E-03	 6.63531000E-04	 3.78123000E-03
		 6.38029000E-03	 1.08736000E-03	 4.62198000E-03
		 4.44168000E-03	 1.50223000E-03	 3.77660000E-03
		 6.54071000E-03	-1.88088000E-04	 4.61561000E-03
		 6.90926000E-03	 2.53363000E-05	 3.45888000E-03
		 4.44189000E-03	-1.73671000E-04	 3.77344000E-03
		 6.38065000E-03	 2.36713000E-04	 4.62004000E-03
		 1.26511000E-02	 6.56722000E-04	-2.74134000E-05
		 1.28662000E-02	 6.56572000E-04	-2.65941000E-05
		 1.24466000E-02	 6.57163000E-04	 3.14496000E-03
		 1.26623000E-02	 1.08667000E-03	 3.14539000E-03
		 9.69464000E-03	 6.59195000E-04	-1.81869000E-05
		 1.27050000E-02	 6.56654000E-04	-2.66442000E-05
		 9.90852000E-03	 6.59007000E-04	-1.78996000E-05
		 1.26026000E-02	 6.56944000E-04	 1.55846000E-03
		 1.28179000E-02	 8.71486000E-04	 1.55924000E-03
		 9.48867000E-03	 6.59637000E-04	 2.72533000E-03
		 1.25006000E-02	 8.71953000E-04	 3.14573000E-03
		 9.70316000E-03	 1.08653000E-03	 2.72498000E-03
		 1.28652000E-02	 6.56733000E-04	-3.18957000E-05
		 1.26613000E-02	 2.27830000E-04	 3.14009000E-03
		 9.90753000E-03	 6.59245000E-04	-2.24840000E-05
		 1.27045000E-02	 6.56747000E-04	-2.92955000E-05
		 1.28169000E-02	 4.42419000E-04	 1.55394000E-03
		 9.70220000E-03	 2.32923000E-04	 2.72039000E-03
		 1.25001000E-02	 4.42432000E-04	 3.14308000E-03
		 1.18110000E-02	 6.57160000E-04	 6.31838000E-03
		 1.20269000E-02	 1.51932000E-03	 6.31842000E-03
		 1.21830000E-02	 6.57268000E-04	 4.73172000E-03
		 1.23990000E-02	 1.30286000E-03	 4.73180000E-03
		 8.85457000E-03	 6.59640000E-04	 5.46842000E-03
		 1.18647000E-02	 1.08812000E-03	 6.31914000E-03
		 9.06935000E-03	 1.51677000E-03	 5.46748000E-03
		 1.20271000E-02	-2.03461000E-04	 6.31311000E-03