# vtk DataFile Version 3.0

ASCII
DATASET UNSTRUCTURED_GRID

POINTS 522 double
	 1.00000000E+00	 1.00000000E+00	 0.00000000E+00
	 1.00000000E+00	 5.00000000E-01	 0.00000000E+00
	 1.00000000E+00	 5.00000000E-01	 1.00000000E+00
	 1.00000000E+00	 1.00000000E+00	 1.00000000E+00
	 5.00000000E-01	 1.00000000E+00	 0.00000000E+00
	 5.00000000E-01	 5.00000000E-01	 0.00000000E+00
	 5.00000000E-01	 5.00000000E-01	 1.00000000E+00
	 5.00000000E-01	 1.00000000E+00	 1.00000000E+00
	 1.00000000E+00	 7.50000000E-01	 0.00000000E+00
	 1.00000000E+00	 5.00000000E-01	 5.00000000E-01
	 1.00000000E+00	 7.50000000E-01	 1.00000000E+00
	 1.00000000E+00	 1.00000000E+00	 5.00000000E-01
	 7.50000000E-01	 1.00000000E+00	 0.00000000E+00
	 7.50000000E-01	 5.00000000E-01	 0.00000000E+00
	 7.50000000E-01	 5.00000000E-01	 1.00000000E+00
	 7.50000000E-01	 1.00000000E+00	 1.00000000E+00
	 5.00000000E-01	 7.50000000E-01	 0.00000000E+00
	 5.00000000E-01	 5.00000000E-01	 5.00000000E-01
	 5.00000000E-01	 7.50000000E-01	 1.00000000E+00
	 5.00000000E-01	 1.00000000E+00	 5.00000000E-01
	 1.00000000E+00	 0.00000000E+00	 0.00000000E+00
	 1.00000000E+00	 0.00000000E+00	 1.00000000E+00
	 5.00000000E-01	 0.00000000E+00	 0.00000000E+00
	 5.00000000E-01	 0.00000000E+00	 1.00000000E+00
	 1.00000000E+00	 2.50000000E-01	 0.00000000E+00
	 1.00000000E+00	 0.00000000E+00	 5.00000000E-01
	 1.00000000E+00	 2.50000000E-01	 1.00000000E+00
	 7.50000000E-01	 0.00000000E+00	 0.00000000E+00
	 7.50000000E-01	 0.00000000E+00	 1.00000000E+00
	 5.00000000E-01	 2.50000000E-01	 0.00000000E+00
	 5.00000000E-01	 0.00000000E+00	 5.00000000E-01
	 5.00000000E-01	 2.50000000E-01	 1.00000000E+00
	 0.00000000E+00	 1.00000000E+00	 0.00000000E+00
	 0.00000000E+00	 5.00000000E-01	 0.00000000E+00
	 0.00000000E+00	 5.00000000E-01	 1.00000000E+00
	 0.00000000E+00	 1.00000000E+00	 1.00000000E+00
	 2.50000000E-01	 1.00000000E+00	 0.00000000E+00
	 2.50000000E-01	 5.00000000E-01	 0.00000000E+00
	 2.50000000E-01	 5.00000000E-01	 1.00000000E+00
	 2.50000000E-01	 1.00000000E+00	 1.00000000E+00
	 0.00000000E+00	 7.50000000E-01	 0.00000000E+00
	 0.00000000E+00	 5.00000000E-01	 5.00000000E-01
	 0.00000000E+00	 7.50000000E-01	 1.00000000E+00
	 0.00000000E+00	 1.00000000E+00	 5.00000000E-01
	 0.00000000E+00	 0.00000000E+00	 0.00000000E+00
	 0.00000000E+00	 0.00000000E+00	 1.00000000E+00
	 2.50000000E-01	 0.00000000E+00	 0.00000000E+00
	 2.50000000E-01	 0.00000000E+00	 1.00000000E+00
	 0.00000000E+00	 2.50000000E-01	 0.00000000E+00
	 0.00000000E+00	 0.00000000E+00	 5.00000000E-01
	 0.00000000E+00	 2.50000000E-01	 1.00000000E+00
	 1.00000000E+00	 5.00000000E-01	 2.00000000E+00
	 1.00000000E+00	 1.00000000E+00	 2.00000000E+00
	 5.00000000E-01	 5.00000000E-01	 2.00000000E+00
	 5.00000000E-01	 1.00000000E+00	 2.00000000E+00
	 1.00000000E+00	 5.00000000E-01	 1.50000000E+00
	 1.00000000E+00	 7.50000000E-01	 2.00000000E+00
	 1.00000000E+00	 1.00000000E+00	 1.50000000E+00
	 7.50000000E-01	 5.00000000E-01	 2.00000000E+00
	 7.50000000E-01	 1.00000000E+00	 2.00000000E+00
	 5.00000000E-01	 5.00000000E-01	 1.50000000E+00
	 5.00000000E-01	 7.50000000E-01	 2.00000000E+00
	 5.00000000E-01	 1.00000000E+00	 1.50000000E+00
	 1.00000000E+00	 0.00000000E+00	 2.00000000E+00
	 5.00000000E-01	 0.00000000E+00	 2.00000000E+00
	 1.00000000E+00	 0.00000000E+00	 1.50000000E+00
	 1.00000000E+00	 2.50000000E-01	 2.00000000E+00
	 7.50000000E-01	 0.00000000E+00	 2.00000000E+00
	 5.00000000E-01	 0.00000000E+00	 1.50000000E+00
	 5.00000000E-01	 2.50000000E-01	 2.00000000E+00
	 0.00000000E+00	 5.00000000E-01	 2.00000000E+00
	 0.00000000E+00	 1.00000000E+00	 2.00000000E+00
	 2.50000000E-01	 5.00000000E-01	 2.00000000E+00
	 2.50000000E-01	 1.00000000E+00	 2.00000000E+00
	 0.00000000E+00	 5.00000000E-01	 1.50000000E+00
	 0.00000000E+00	 7.50000000E-01	 2.00000000E+00
	 0.00000000E+00	 1.00000000E+00	 1.50000000E+00
	 0.00000000E+00	 0.00000000E+00	 2.00000000E+00
	 2.50000000E-01	 0.00000000E+00	 2.00000000E+00
	 0.00000000E+00	 0.00000000E+00	 1.50000000E+00
	 0.00000000E+00	 2.50000000E-01	 2.00000000E+00
	 1.00000000E+00	 5.00000000E-01	 3.00000000E+00
	 1.00000000E+00	 1.00000000E+00	 3.00000000E+00
	 5.00000000E-01	 5.00000000E-01	 3.00000000E+00
	 5.00000000E-01	 1.00000000E+00	 3.00000000E+00
	 1.00000000E+00	 5.00000000E-01	 2.50000000E+00
	 1.00000000E+00	 7.50000000E-01	 3.00000000E+00
	 1.00000000E+00	 1.00000000E+00	 2.50000000E+00
	 7.50000000E-01	 5.00000000E-01	 3.00000000E+00
	 7.50000000E-01	 1.00000000E+00	 3.00000000E+00
	 5.00000000E-01	 5.00000000E-01	 2.50000000E+00
	 5.00000000E-01	 7.50000000E-01	 3.00000000E+00
	 5.00000000E-01	 1.00000000E+00	 2.50000000E+00
	 1.00000000E+00	 0.00000000E+00	 3.00000000E+00
	 5.00000000E-01	 0.00000000E+00	 3.00000000E+00
	 1.00000000E+00	 0.00000000E+00	 2.50000000E+00
	 1.00000000E+00	 2.50000000E-01	 3.00000000E+00
	 7.50000000E-01	 0.00000000E+00	 3.00000000E+00
	 5.00000000E-01	 0.00000000E+00	 2.50000000E+00
	 5.00000000E-01	 2.50000000E-01	 3.00000000E+00
	 0.00000000E+00	 5.00000000E-01	 3.00000000E+00
	 0.00000000E+00	 1.00000000E+00	 3.00000000E+00
	 2.50000000E-01	 5.00000000E-01	 3.00000000E+00
	 2.50000000E-01	 1.00000000E+00	 3.00000000E+00
	 0.00000000E+00	 5.00000000E-01	 2.50000000E+00
	 0.00000000E+00	 7.50000000E-01	 3.00000000E+00
	 0.00000000E+00	 1.00000000E+00	 2.50000000E+00
	 0.00000000E+00	 0.00000000E+00	 3.00000000E+00
	 2.50000000E-01	 0.00000000E+00	 3.00000000E+00
	 0.00000000E+00	 0.00000000E+00	 2.50000000E+00
	 0.00000000E+00	 2.50000000E-01	 3.00000000E+00
	 1.00000000E+00	 5.00000000E-01	 4.00000000E+00
	 1.00000000E+00	 1.00000000E+00	 4.00000000E+00
	 5.00000000E-01	 5.00000000E-01	 4.00000000E+00
	 5.00000000E-01	 1.00000000E+00	 4.00000000E+00
	 1.00000000E+00	 5.00000000E-01	 3.50000000E+00
	 1.00000000E+00	 7.50000000E-01	 4.00000000E+00
	 1.00000000E+00	 1.00000000E+00	 3.50000000E+00
	 7.50000000E-01	 5.00000000E-01	 4.00000000E+00
	 7.50000000E-01	 1.00000000E+00	 4.00000000E+00
	 5.00000000E-01	 5.00000000E-01	 3.50000000E+00
	 5.00000000E-01	 7.50000000E-01	 4.00000000E+00
	 5.00000000E-01	 1.00000000E+00	 3.50000000E+00
	 1.00000000E+00	 0.00000000E+00	 4.00000000E+00
	 5.00000000E-01	 0.00000000E+00	 4.00000000E+00
	 1.00000000E+00	 0.00000000E+00	 3.50000000E+00
	 1.00000000E+00	 2.50000000E-01	 4.00000000E+00
	 7.50000000E-01	 0.00000000E+00	 4.00000000E+00
	 5.00000000E-01	 0.00000000E+00	 3.50000000E+00
	 5.00000000E-01	 2.50000000E-01	 4.00000000E+00
	 0.00000000E+00	 5.00000000E-01	 4.00000000E+00
	 0.00000000E+00	 1.00000000E+00	 4.00000000E+00
	 2.50000000E-01	 5.00000000E-01	 4.00000000E+00
	 2.50000000E-01	 1.00000000E+00	 4.00000000E+00
	 0.00000000E+00	 5.00000000E-01	 3.50000000E+00
	 0.00000000E+00	 7.50000000E-01	 4.00000000E+00
	 0.00000000E+00	 1.00000000E+00	 3.50000000E+00
	 0.00000000E+00	 0.00000000E+00	 4.00000000E+00
	 2.50000000E-01	 0.00000000E+00	 4.00000000E+00
	 0.00000000E+00	 0.00000000E+00	 3.50000000E+00
	 0.00000000E+00	 2.50000000E-01	 4.00000000E+00
	 1.00000000E+00	 5.00000000E-01	 5.00000000E+00
	 1.00000000E+00	 1.00000000E+00	 5.00000000E+00
	 5.00000000E-01	 5.00000000E-01	 5.00000000E+00
	 5.00000000E-01	 1.00000000E+00	 5.00000000E+00
	 1.00000000E+00	 5.00000000E-01	 4.50000000E+00
	 1.00000000E+00	 7.50000000E-01	 5.00000000E+00
	 1.00000000E+00	 1.00000000E+00	 4.50000000E+00
	 7.50000000E-01	 5.00000000E-01	 5.00000000E+00
	 7.50000000E-01	 1.00000000E+00	 5.00000000E+00
	 5.00000000E-01	 5.00000000E-01	 4.50000000E+00
	 5.00000000E-01	 7.50000000E-01	 5.00000000E+00
	 5.00000000E-01	 1.00000000E+00	 4.50000000E+00
	 1.00000000E+00	 0.00000000E+00	 5.00000000E+00
	 5.00000000E-01	 0.00000000E+00	 5.00000000E+00
	 1.00000000E+00	 0.00000000E+00	 4.50000000E+00
	 1.00000000E+00	 2.50000000E-01	 5.00000000E+00
	 7.50000000E-01	 0.00000000E+00	 5.00000000E+00
	 5.00000000E-01	 0.00000000E+00	 4.50000000E+00
	 5.00000000E-01	 2.50000000E-01	 5.00000000E+00
	 0.00000000E+00	 5.00000000E-01	 5.00000000E+00
	 0.00000000E+00	 1.00000000E+00	 5.00000000E+00
	 2.50000000E-01	 5.00000000E-01	 5.00000000E+00
	 2.50000000E-01	 1.00000000E+00	 5.00000000E+00
	 0.00000000E+00	 5.00000000E-01	 4.50000000E+00
	 0.00000000E+00	 7.50000000E-01	 5.00000000E+00
	 0.00000000E+00	 1.00000000E+00	 4.50000000E+00
	 0.00000000E+00	 0.00000000E+00	 5.00000000E+00
	 2.50000000E-01	 0.00000000E+00	 5.00000000E+00
	 0.00000000E+00	 0.00000000E+00	 4.50000000E+00
	 0.00000000E+00	 2.50000000E-01	 5.00000000E+00
	 1.00000000E+00	 5.00000000E-01	 6.00000000E+00
	 1.00000000E+00	 1.00000000E+00	 6.00000000E+00
	 5.00000000E-01	 5.00000000E-01	 6.00000000E+00
	 5.00000000E-01	 1.00000000E+00	 6.00000000E+00
	 1.00000000E+00	 5.00000000E-01	 5.50000000E+00
	 1.00000000E+00	 7.50000000E-01	 6.00000000E+00
	 1.00000000E+00	 1.00000000E+00	 5.50000000E+00
	 7.50000000E-01	 5.00000000E-01	 6.00000000E+00
	 7.50000000E-01	 1.00000000E+00	 6.00000000E+00
	 5.00000000E-01	 5.00000000E-01	 5.50000000E+00
	 5.00000000E-01	 7.50000000E-01	 6.00000000E+00
	 5.00000000E-01	 1.00000000E+00	 5.50000000E+00
	 1.00000000E+00	 0.00000000E+00	 6.00000000E+00
	 5.00000000E-01	 0.00000000E+00	 6.00000000E+00
	 1.00000000E+00	 0.00000000E+00	 5.50000000E+00
	 1.00000000E+00	 2.50000000E-01	 6.00000000E+00
	 7.50000000E-01	 0.00000000E+00	 6.00000000E+00
	 5.00000000E-01	 0.00000000E+00	 5.50000000E+00
	 5.00000000E-01	 2.50000000E-01	 6.00000000E+00
	 0.00000000E+00	 5.00000000E-01	 6.00000000E+00
	 0.00000000E+00	 1.00000000E+00	 6.00000000E+00
	 2.50000000E-01	 5.00000000E-01	 6.00000000E+00
	 2.50000000E-01	 1.00000000E+00	 6.00000000E+00
	 0.00000000E+00	 5.00000000E-01	 5.50000000E+00
	 0.00000000E+00	 7.50000000E-01	 6.00000000E+00
	 0.00000000E+00	 1.00000000E+00	 5.50000000E+00
	 0.00000000E+00	 0.00000000E+00	 6.00000000E+00
	 2.50000000E-01	 0.00000000E+00	 6.00000000E+00
	 0.00000000E+00	 0.00000000E+00	 5.50000000E+00
	 0.00000000E+00	 2.50000000E-01	 6.00000000E+00
	 1.00000000E+00	 5.00000000E-01	 7.00000000E+00
[...]
POINT_DATA 522
FIELD NT 1
	NT 1 522 double
		 3.97523000E+02
		 3.97526000E+02
		 3.97833000E+02
		 3.97830000E+02
		 4.98142000E+02
		 4.98143000E+02
		 4.98288000E+02
		 4.98287000E+02
		 3.97524000E+02
		 3.97549000E+02
		 3.97830000E+02
		 3.97547000E+02
		 4.47722000E+02
		 4.47724000E+02
		 4.47933000E+02
		 4.47932000E+02
		 4.98142000E+02
		 4.98189000E+02
		 4.98287000E+02
		 4.98188000E+02
		 3.97528000E+02
		 3.97836000E+02
		 4.98143000E+02
		 4.98289000E+02
		 3.97528000E+02
		 3.97552000E+02
		 3.97835000E+02
		 4.47725000E+02
		 4.47935000E+02
		 4.98143000E+02
		 4.98190000E+02
		 4.98288000E+02
		 6.00000000E+02
		 6.00000000E+02
		 6.00000000E+02
		 6.00000000E+02
		 5.48911000E+02
		 5.48912000E+02
		 5.48979000E+02
		 5.48979000E+02
		 6.00000000E+02
		 6.00000000E+02
		 6.00000000E+02
		 6.00000000E+02
		 6.00000000E+02
		 6.00000000E+02
		 5.48912000E+02
		 5.48979000E+02
		 6.00000000E+02
		 6.00000000E+02
		 6.00000000E+02
		 3.98282000E+02
		 3.98279000E+02
		 4.98504000E+02
		 4.98503000E+02
		 3.98125000E+02
		 3.98279000E+02
		 3.98122000E+02
		 4.48256000E+02
		 4.48254000E+02
		 4.98407000E+02
		 4.98503000E+02
		 4.98406000E+02
		 3.98286000E+02
		 4.98505000E+02
		 3.98129000E+02
		 3.98285000E+02
		 4.48257000E+02
		 4.98408000E+02
		 4.98504000E+02
		 6.00000000E+02
		 6.00000000E+02
		 5.49084000E+02
		 5.49083000E+02
		 6.00000000E+02
		 6.00000000E+02
		 6.00000000E+02
		 6.00000000E+02
		 5.49084000E+02
		 6.00000000E+02
		 6.00000000E+02
		 3.98487000E+02
		 3.98483000E+02
		 4.98607000E+02
		 4.98606000E+02
		 3.98420000E+02
		 3.98484000E+02
		 3.98416000E+02
		 4.48416000E+02
		 4.48414000E+02
		 4.98564000E+02
		 4.98606000E+02
		 4.98563000E+02
		 3.98491000E+02
		 4.98608000E+02
		 3.98424000E+02
		 3.98491000E+02
		 4.48418000E+02
		 4.98565000E+02
		 4.98608000E+02
		 6.00000000E+02
		 6.00000000E+02
		 5.49137000E+02
		 5.49137000E+02
		 6.00000000E+02
		 6.00000000E+02
		 6.00000000E+02
		 6.00000000E+02
		 5.49138000E+02
		 6.00000000E+02
		 6.00000000E+02
		 3.98573000E+02
		 3.98569000E+02
		 4.98651000E+02
		 4.98650000E+02
		 3.98547000E+02
		 3.98570000E+02
		 3.98542000E+02
		 4.48481000E+02
		 4.48479000E+02
		 4.98634000E+02
		 4.98650000E+02
		 4.98633000E+02
		 3.98578000E+02
		 4.98652000E+02
		 3.98551000E+02
		 3.98577000E+02
		 4.48483000E+02
		 4.98635000E+02
		 4.98652000E+02
		 6.00000000E+02
		 6.00000000E+02
		 5.49159000E+02
		 5.49159000E+02
		 6.00000000E+02
		 6.00000000E+02
		 6.00000000E+02
		 6.00000000E+02
		 5.49160000E+02
		 6.00000000E+02
		 6.00000000E+02
		 3.98581000E+02
		 3.98577000E+02
		 4.98653000E+02
		 4.98652000E+02
		 3.98594000E+02
		 3.98577000E+02
		 3.98589000E+02
		 4.48486000E+02
		 4.48484000E+02
		 4.98657000E+02
		 4.98653000E+02
		 4.98656000E+02
		 3.98585000E+02
		 4.98654000E+02
		 3.98598000E+02
		 3.98584000E+02
		 4.48488000E+02
		 4.98658000E+02
		 4.98654000E+02
		 6.00000000E+02
		 6.00000000E+02
		 5.49160000E+02
		 5.49160000E+02
		 6.00000000E+02
		 6.00000000E+02
		 6.00000000E+02
		 6.00000000E+02
		 5.49161000E+02
		 6.00000000E+02
		 6.00000000E+02
		 3.98460000E+02
		 3.98456000E+02
		 4.98592000E+02
		 4.98590000E+02
		 3.98560000E+02
		 3.98457000E+02
		 3.98555000E+02
		 4.48387000E+02
		 4.48385000E+02
		 4.98632000E+02
		 4.98591000E+02
		 4.98631000E+02
		 3.98465000E+02
		 4.98593000E+02
		 3.98564000E+02
		 3.98464000E+02
		 4.48389000E+02
		 4.98633000E+02
		 4.98592000E+02
		 6.00000000E+02
		 6.00000000E+02
		 5.49127000E+02
		 5.49127000E+02
		 6.00000000E+02
		 6.00000000E+02
		 6.00000000E+02
		 6.00000000E+02
		 5.49128000E+02
		 6.00000000E+02
		 6.00000000E+02
		 3.98044000E+02
		 3.98040000E+02
		 4.98392000E+02
		 4.98391000E+02
		 3.98338000E+02
		 3.98041000E+02
		 3.98334000E+02
		 4.48090000E+02
		 4.48088000E+02
		 4.98506000E+02
		 4.98392000E+02
		 4.98505000E+02
		 3.98047000E+02
		 4.98393000E+02
		 3.98342000E+02
		 3.98047000E+02
		 4.48092000E+02
		 4.98507000E+02
		 4.98393000E+02
		 6.00000000E+02
		 6.00000000E+02
		 5.49031000E+02
		 5.49031000E+02
		 6.00000000E+02
		 6.00000000E+02
		 6.00000000E+02
		 6.00000000E+02
		 5.49031000E+02
		 6.00000000E+02
		 6.00000000E+02
		 3.97732000E+02
		 3.97728000E+02
		 4.98245000E+02
		 4.98244000E+02
		 3.97756000E+02
		 3.97729000E+02
		 3.97753000E+02
		 4.47879000E+02
		 4.47877000E+02
		 4.98293000E+02
		 4.98245000E+02
		 4.98292000E+02
		 3.97735000E+02
		 4.98246000E+02
		 3.97759000E+02
		 3.97734000E+02
		 4.47880000E+02
		 4.98293000E+02
		 4.98246000E+02
		 6.00000000E+02
		 6.00000000E+02
		 5.48963000E+02
		 5.48963000E+02
		 6.00000000E+02
		 6.00000000E+02
		 6.00000000E+02
		 6.00000000E+02
		 5.48963000E+02
		 6.00000000E+02
		 6.00000000E+02
		 0.00000000E+00
		 0.00000000E+00
		 0.00000000E+00
		 0.00000000E+00
		 2.72008000E+01
		 2.71872000E+01
		 2.94734000E+01
		 2.94890000E+01
		 0.00000000E+00
		 0.00000000E+00
		 0.00000000E+00
		 0.00000000E+00
		 1.36877000E+01
		 1.36828000E+01
		 1.47372000E+01
		 1.47427000E+01
		 2.71951000E+01
		 2.79047000E+01
		 2.94824000E+01
		 2.79193000E+01
		 0.00000000E+00
		 0.00000000E+00
		 2.71736000E+01
		 2.94578000E+01
		 0.00000000E+00
		 0.00000000E+00
		 0.00000000E+00
		 1.36779000E+01
		 1.47316000E+01
		 2.71793000E+01
		 2.78901000E+01
		 2.94644000E+01
		 5.38691000E+01
		 5.38090000E+01
		 5.89117000E+01
		 5.89781000E+01
		 4.08176000E+01
		 4.07906000E+01
		 4.41898000E+01
		 4.42189000E+01
		 5.38540000E+01
		 5.45843000E+01
		 5.89625000E+01
		 5.46439000E+01
		 5.37486000E+01
		 5.88453000E+01
		 4.07635000E+01
		 4.41607000E+01
		 5.37638000E+01
		 5.45246000E+01
		 5.88609000E+01
		 0.00000000E+00
		 0.00000000E+00
		 3.26296000E+01
		 3.26472000E+01
		 0.00000000E+00
		 0.00000000E+00
		 0.00000000E+00
		 1.62636000E+01
		 1.62699000E+01
		 3.12584000E+01
		 3.26397000E+01
		 3.12751000E+01
		 0.00000000E+00
		 3.26120000E+01
		 0.00000000E+00
		 0.00000000E+00
		 1.62574000E+01
		 3.12417000E+01
		 3.26195000E+01
		 6.56784000E+01
		 6.57524000E+01
		 4.89874000E+01
		 4.90196000E+01
		 6.34711000E+01
		 6.57354000E+01
		 6.35441000E+01
		 6.56045000E+01
		 4.89552000E+01
		 6.33982000E+01
		 6.56214000E+01
		 0.00000000E+00
		 0.00000000E+00
		 3.38559000E+01
		 3.38737000E+01
		 0.00000000E+00
		 0.00000000E+00
		 0.00000000E+00
		 1.69126000E+01
		 1.69190000E+01
		 3.33750000E+01
		 3.38661000E+01
		 3.33928000E+01
		 0.00000000E+00
		 3.38380000E+01
		 0.00000000E+00
		 0.00000000E+00
		 1.69063000E+01
		 3.33573000E+01
		 3.38456000E+01
		 6.79970000E+01
		 6.80731000E+01
		 5.08841000E+01
		 5.09175000E+01
		 6.72201000E+01
		 6.80552000E+01
		 6.72955000E+01
		 6.79209000E+01
		 5.08506000E+01
		 6.71448000E+01
		 6.79388000E+01
		 0.00000000E+00
		 0.00000000E+00
		 3.43455000E+01
		 3.43638000E+01
		 0.00000000E+00
		 0.00000000E+00
		 0.00000000E+00
		 1.71567000E+01
		 1.71632000E+01
		 3.41565000E+01
		 3.43560000E+01
		 3.41745000E+01
		 0.00000000E+00
		 3.43273000E+01
		 0.00000000E+00
		 0.00000000E+00
		 1.71502000E+01
		 3.41384000E+01
		 3.43350000E+01
		 6.89100000E+01
		 6.89876000E+01
		 5.15806000E+01
		 5.16146000E+01
		 6.85766000E+01
		 6.89694000E+01
		 6.86533000E+01
		 6.88325000E+01
		 5.15465000E+01
		 6.84998000E+01
		 6.88507000E+01
		 0.00000000E+00
		 0.00000000E+00
		 3.44093000E+01
		 3.44279000E+01
		 0.00000000E+00
		 0.00000000E+00
		 0.00000000E+00
		 1.71900000E+01
		 1.71966000E+01
		 3.44303000E+01
		 3.44200000E+01
		 3.44488000E+01
		 0.00000000E+00
		 3.43907000E+01
		 0.00000000E+00
		 0.00000000E+00
		 1.71833000E+01
		 3.44119000E+01
		 3.43986000E+01
		 6.90975000E+01
		 6.91767000E+01
		 5.17129000E+01
		 5.17478000E+01
		 6.91182000E+01
		 6.91580000E+01
		 6.91965000E+01
		 6.90183000E+01
		 5.16781000E+01
		 6.90399000E+01
		 6.90370000E+01
		 0.00000000E+00
		 0.00000000E+00
		 3.37876000E+01
		 3.38068000E+01
		 0.00000000E+00
		 0.00000000E+00
		 0.00000000E+00
		 1.68441000E+01
		 1.68509000E+01
		 3.42233000E+01
		 3.37986000E+01
		 3.42422000E+01
		 0.00000000E+00
		 3.37685000E+01
		 0.00000000E+00
		 0.00000000E+00
		 1.68373000E+01
		 3.42044000E+01
		 3.37767000E+01
		 6.79951000E+01
		 6.80755000E+01
		 5.07303000E+01
		 5.07654000E+01
		 6.88956000E+01
		 6.80571000E+01
		 6.89757000E+01
		 6.79148000E+01
		 5.06953000E+01
		 6.88156000E+01
		 6.79332000E+01
		 0.00000000E+00
		 0.00000000E+00
		 3.12801000E+01
		 3.12980000E+01
		 0.00000000E+00
		 0.00000000E+00
		 0.00000000E+00
		 1.56351000E+01
		 1.56415000E+01
		 3.27468000E+01
		 3.12904000E+01
		 3.27653000E+01
		 0.00000000E+00
		 3.12622000E+01
		 0.00000000E+00
		 0.00000000E+00
		 1.56287000E+01
		 3.27282000E+01
		 3.12698000E+01
		 6.25865000E+01
		 6.26625000E+01
		 4.69144000E+01
		 4.69477000E+01
		 6.64514000E+01
		 6.26448000E+01
		 6.65326000E+01
		 6.25105000E+01
		 4.68811000E+01
		 6.63704000E+01
		 6.25282000E+01
		 0.00000000E+00
		 0.00000000E+00
		 2.93213000E+01
		 2.93377000E+01
		 0.00000000E+00
		 0.00000000E+00
		 0.00000000E+00
		 1.47369000E+01
		 1.47428000E+01
		 2.99409000E+01
		 2.93308000E+01
		 2.99580000E+01
		 0.00000000E+00
		 2.93050000E+01
		 0.00000000E+00
		 0.00000000E+00
		 1.47311000E+01
		 2.99238000E+01
		 2.93119000E+01
		 5.81904000E+01
		 5.82618000E+01
		 4.40074000E+01
		 4.40392000E+01
		 5.88572000E+01
		 5.82442000E+01
		 5.89281000E+01
		 5.81190000E+01
		 4.39755000E+01
		 5.87862000E+01
		 5.81366000E+01
FIELD FLUX 1
	FLUX 3 522 double
		 1.00175000E+04	-1.89975000E-02	 1.05493000E+01
		 1.00171000E+04	 5.55301000E-01	 1.05880000E+01
		 9.99439000E+03	 6.84642000E-01	-3.86872000E+01
		 9.99484000E+03	-5.47662000E-02	-3.86091000E+01
		 1.01136000E+04	 4.46733000E-02	-2.03372000E+00
		 1.01135000E+04	 7.78679000E-02	-2.04161000E+00
		 1.01004000E+04	 9.50058000E-02	-1.27311000E+01
		 1.01004000E+04	 5.85033000E-02	-1.27222000E+01
		 1.00183000E+04	 2.65092000E-01	 1.05781000E+01
		 1.00170000E+04	 5.88873000E-01	-1.53575000E+01
		 9.99561000E+03	 3.12755000E-01	-3.86382000E+01
		 1.00174000E+04	-6.81666000E-02	-1.53337000E+01
		 1.00624000E+04	-2.63180000E-02	 5.06620000E+00
		 1.00622000E+04	 2.74756000E-01	 5.08946000E+00
		 1.00460000E+04	 3.33449000E-01	-2.50370000E+01
		 1.00462000E+04	-5.29372000E-02	-2.50015000E+01
		 1.01145000E+04	 6.09780000E-02	-2.03808000E+00
		 1.01143000E+04	 8.64571000E-02	-7.26091000E+00
		 1.01014000E+04	 7.66478000E-02	-1.27272000E+01
		 1.01144000E+04	 5.16197000E-02	-7.25308000E+00
		 1.00167000E+04	-2.69133000E-03	 1.06287000E+01
		 9.99391000E+03	-4.54536000E-02	-3.87619000E+01
		 1.01134000E+04	 4.50121000E-02	-2.04926000E+00
		 1.01003000E+04	 5.88539000E-02	-1.27400000E+01
		 1.00178000E+04	 2.79391000E-01	 1.05967000E+01
		 1.00166000E+04	-5.49847000E-02	-1.53787000E+01
		 9.99497000E+03	 3.21807000E-01	-3.87371000E+01
		 1.00620000E+04	-2.33396000E-02	 5.11268000E+00
		 1.00458000E+04	-5.12441000E-02	-2.50717000E+01
		 1.01143000E+04	 6.17481000E-02	-2.04626000E+00
		 1.01143000E+04	 5.19420000E-02	-7.26857000E+00
		 1.01012000E+04	 7.70543000E-02	-1.27366000E+01
		 1.02492000E+04	-1.23856000E-06	 1.44876000E-04
		 1.02492000E+04	-1.31263000E-06	 1.44958000E-04
		 1.02367000E+04	-1.48933000E-06	 2.01776000E-04
		 1.02368000E+04	-1.41441000E-06	 2.01682000E-04
		 1.01863000E+04	 1.40307000E-02	-7.59870000E-01
		 1.01863000E+04	 3.05014000E-02	-7.62448000E-01
		 1.01717000E+04	 3.63968000E-02	-6.15153000E+00
		 1.01718000E+04	 1.82195000E-02	-6.14851000E+00
		 1.02501000E+04	 1.30113000E-06	-1.67726000E-04
		 1.02465000E+04	 1.25397000E-06	-1.58143000E-04
		 1.02377000E+04	 1.44137000E-06	-1.93045000E-04
		 1.02465000E+04	 1.31442000E-06	-1.58081000E-04
		 1.02492000E+04	-1.24721000E-06	 1.45039000E-04
		 1.02367000E+04	-1.42079000E-06	 2.01868000E-04
		 1.01862000E+04	 1.39462000E-02	-7.64965000E-01
		 1.01717000E+04	 1.82463000E-02	-6.15458000E+00
		 1.02501000E+04	 1.30777000E-06	-1.67869000E-04
		 1.02465000E+04	 1.32184000E-06	-1.58205000E-04
		 1.02376000E+04	 1.44757000E-06	-1.93210000E-04
		 9.96680000E+03	 8.46684000E-01	-1.31147000E+01
		 9.96737000E+03	-8.16875000E-02	-1.31009000E+01
		 1.00793000E+04	 1.17389000E-01	-7.71880000E+00
		 1.00794000E+04	 7.40770000E-02	-7.71289000E+00
		 9.97579000E+03	 7.83133000E-01	-2.24834000E+01
		 9.96810000E+03	 3.80993000E-01	-1.31015000E+01
		 9.97632000E+03	-5.03840000E-02	-2.24493000E+01
		 1.00227000E+04	 4.10096000E-01	-1.03004000E+01
		 1.00229000E+04	-7.48515000E-02	-1.02952000E+01
		 1.00873000E+04	 1.06462000E-01	-1.08059000E+01
		 1.00803000E+04	 9.57270000E-02	-7.71621000E+00
		 1.00874000E+04	 6.65144000E-02	-1.07964000E+01
		 9.96622000E+03	-7.72645000E-02	-1.31291000E+01
		 1.00792000E+04	 7.45004000E-02	-7.72458000E+00
		 9.97525000E+03	-4.42615000E-02	-2.25157000E+01
		 9.96730000E+03	 3.86250000E-01	-1.31304000E+01
		 1.00224000E+04	-7.42148000E-02	-1.03059000E+01
		 1.00873000E+04	 6.69823000E-02	-1.08154000E+01
		 1.00801000E+04	 9.59713000E-02	-7.72276000E+00
		 1.02165000E+04	-1.77425000E-06	 1.75356000E-04
		 1.02165000E+04	-1.69540000E-06	 1.75286000E-04
		 1.01501000E+04	 4.46691000E-02	-3.81987000E+00
		 1.01502000E+04	 2.30559000E-02	-3.81780000E+00
		 1.02264000E+04	 1.56341000E-06	-2.41797000E-04
		 1.02174000E+04	 1.70204000E-06	-1.81613000E-04
		 1.02265000E+04	 1.63433000E-06	-2.41716000E-04
		 1.02164000E+04	-1.69983000E-06	 1.75426000E-04
		 1.01500000E+04	 2.31816000E-02	-3.82188000E+00
		 1.02264000E+04	 1.63946000E-06	-2.41878000E-04
		 1.02174000E+04	 1.70646000E-06	-1.81740000E-04
		 9.95898000E+03	 9.00671000E-01	-5.35118000E+00
		 9.95959000E+03	-7.49688000E-02	-5.34442000E+00
		 1.00683000E+04	 1.25414000E-01	-3.30561000E+00
		 1.00683000E+04	 7.76991000E-02	-3.30323000E+00
		 9.96107000E+03	 8.80924000E-01	-1.02454000E+01
		 9.96030000E+03	 4.11066000E-01	-5.34566000E+00
		 9.96167000E+03	-7.12546000E-02	-1.02303000E+01
		 1.00125000E+04	 4.38246000E-01	-4.47845000E+00
		 1.00128000E+04	-7.21208000E-02	-4.47523000E+00
		 1.00729000E+04	 1.21306000E-01	-5.15870000E+00
		 1.00693000E+04	 1.01478000E-01	-3.30457000E+00
		 1.00730000E+04	 7.58202000E-02	-5.15582000E+00
		 9.95836000E+03	-6.81204000E-02	-5.35815000E+00
		 1.00682000E+04	 7.81361000E-02	-3.30806000E+00
		 9.96046000E+03	-6.52731000E-02	-1.02613000E+01
		 9.95946000E+03	 4.18099000E-01	-5.35776000E+00
		 1.00122000E+04	-7.10985000E-02	-4.48160000E+00
		 1.00728000E+04	 7.61957000E-02	-5.16165000E+00
		 1.00691000E+04	 1.01876000E-01	-3.30736000E+00
		 1.02054000E+04	-1.93088000E-06	 8.19215000E-05
		 1.02055000E+04	-1.84425000E-06	 8.18932000E-05
		 1.01398000E+04	 4.80571000E-02	-1.69861000E+00
		 1.01399000E+04	 2.42624000E-02	-1.69773000E+00
		 1.02111000E+04	 1.78265000E-06	-1.20583000E-04
		 1.02064000E+04	 1.86785000E-06	-8.61313000E-05
		 1.02111000E+04	 1.86496000E-06	-1.20554000E-04
		 1.02054000E+04	-1.84914000E-06	 8.19496000E-05
		 1.01397000E+04	 2.43551000E-02	-1.69953000E+00
		 1.02110000E+04	 1.86797000E-06	-1.20613000E-04
		 1.02063000E+04	 1.87178000E-06	-8.61834000E-05
		 9.95483000E+03	 9.35025000E-01	-2.38252000E+00
		 9.95546000E+03	-7.83643000E-02	-2.37647000E+00
		 1.00639000E+04	 1.30002000E-01	-1.17840000E+00
		 1.00640000E+04	 8.07425000E-02	-1.17697000E+00
		 9.95663000E+03	 9.20329000E-01	-4.29845000E+00
		 9.95616000E+03	 4.26480000E-01	-2.37794000E+00
		 9.95725000E+03	-7.41952000E-02	-4.29074000E+00
		 1.00083000E+04	 4.54768000E-01	-1.77903000E+00
		 1.00086000E+04	-7.52637000E-02	-1.77634000E+00
		 1.00662000E+04	 1.27619000E-01	-2.20229000E+00
		 1.00650000E+04	 1.05305000E-01	-1.17771000E+00
		 1.00663000E+04	 7.91329000E-02	-2.20038000E+00
		 9.95418000E+03	-7.11586000E-02	-2.38857000E+00
		 1.00639000E+04	 8.11156000E-02	-1.17983000E+00
		 9.95600000E+03	-6.71496000E-02	-4.30631000E+00
		 9.95529000E+03	 4.33824000E-01	-2.38742000E+00
		 1.00080000E+04	-7.40581000E-02	-1.78171000E+00
		 1.00661000E+04	 7.95365000E-02	-2.20418000E+00
		 1.00647000E+04	 1.05649000E-01	-1.17931000E+00
		 1.02010000E+04	-2.00714000E-06	 2.57006000E-05
		 1.02011000E+04	-1.91416000E-06	 2.56841000E-05
		 1.01354000E+04	 4.97526000E-02	-5.88523000E-01
		 1.01355000E+04	 2.51832000E-02	-5.88014000E-01
		 1.02037000E+04	 1.87161000E-06	-5.03454000E-05
		 1.02020000E+04	 1.93990000E-06	-2.64228000E-05
		 1.02037000E+04	 1.95864000E-06	-5.03291000E-05
		 1.02010000E+04	-1.91951000E-06	 2.57170000E-05
		 1.01353000E+04	 2.52488000E-02	-5.89034000E-01
		 1.02037000E+04	 1.96330000E-06	-5.03618000E-05
		 1.02019000E+04	 1.94477000E-06	-2.64527000E-05
		 9.95423000E+03	 9.51789000E-01	 5.69107000E-01
		 9.95487000E+03	-7.87420000E-02	 5.74817000E-01
		 1.00636000E+04	 1.32581000E-01	 1.02245000E+00
		 1.00637000E+04	 8.21064000E-02	 1.02296000E+00
		 9.95423000E+03	 9.46021000E-01	-3.84597000E-01
		 9.95557000E+03	 4.34723000E-01	 5.73089000E-01
		 9.95487000E+03	-7.59508000E-02	-3.80476000E-01
		 1.00077000E+04	 4.63185000E-01	 9.82915000E-01
		 1.00081000E+04	-7.59915000E-02	 9.85093000E-01
		 1.00638000E+04	 1.31185000E-01	-1.16837000E-01
		 1.00646000E+04	 1.07267000E-01	 1.02281000E+00
		 1.00639000E+04	 8.13190000E-02	-1.15857000E-01
		 9.95358000E+03	-7.19683000E-02	 5.63710000E-01
		 1.00635000E+04	 8.25709000E-02	 1.02204000E+00
		 9.95358000E+03	-6.89389000E-02	-3.88561000E-01
		 9.95468000E+03	 4.41752000E-01	 5.65648000E-01
		 1.00074000E+04	-7.50250000E-02	 9.80661000E-01
		 1.00637000E+04	 8.17368000E-02	-1.17852000E-01
		 1.00644000E+04	 1.07677000E-01	 1.02242000E+00
		 1.02008000E+04	-2.04082000E-06	-3.34725000E-05
		 1.02009000E+04	-1.94991000E-06	-3.34767000E-05
		 1.01352000E+04	 5.08189000E-02	 5.68986000E-01
		 1.01353000E+04	 2.56447000E-02	 5.69108000E-01
		 1.02014000E+04	 1.92392000E-06	-2.60021000E-06
		 1.02018000E+04	 1.97496000E-06	 3.65835000E-05
		 1.02014000E+04	 2.01341000E-06	-2.59057000E-06
		 1.02008000E+04	-1.95473000E-06	-3.34681000E-05
		 1.01351000E+04	 2.57496000E-02	 5.68902000E-01
		 1.02013000E+04	 2.01819000E-06	-2.60977000E-06
		 1.02017000E+04	 1.97861000E-06	 3.65769000E-05
		 9.95718000E+03	 9.48390000E-01	 8.75262000E+00
		 9.95782000E+03	-9.34870000E-02	 8.75250000E+00
		 1.00706000E+04	 1.31472000E-01	 6.02391000E+00
		 1.00707000E+04	 8.33002000E-02	 6.01993000E+00
		 9.95362000E+03	 9.58691000E-01	 6.03101000E+00
		 9.95852000E+03	 4.26127000E-01	 8.74839000E+00
		 9.95427000E+03	-7.77140000E-02	 6.02671000E+00
		 1.00136000E+04	 4.59028000E-01	 7.29925000E+00
		 1.00139000E+04	-8.52688000E-02	 7.30042000E+00
		 1.00660000E+04	 1.31877000E-01	 3.09196000E+00
		 1.00716000E+04	 1.07397000E-01	 6.02226000E+00
		 1.00661000E+04	 8.25836000E-02	 3.09202000E+00
		 9.95653000E+03	-8.97106000E-02	 8.75353000E+00
		 1.00705000E+04	 8.36460000E-02	 6.02768000E+00
		 9.95296000E+03	-7.20383000E-02	 6.03653000E+00
		 9.95763000E+03	 4.30704000E-01	 8.75905000E+00
		 1.00133000E+04	-8.46630000E-02	 7.29857000E+00
		 1.00660000E+04	 8.29283000E-02	 3.09201000E+00
		 1.00714000E+04	 1.07571000E-01	 6.02664000E+00
		 1.02079000E+04	-1.97771000E-06	-1.42958000E-04
		 1.02080000E+04	-1.89144000E-06	-1.42909000E-04
		 1.01414000E+04	 4.99832000E-02	 2.98111000E+00
		 1.01415000E+04	 2.59325000E-02	 2.97973000E+00
		 1.02043000E+04	 1.93905000E-06	 7.40403000E-05
		 1.02088000E+04	 1.89496000E-06	 1.49170000E-04
		 1.02044000E+04	 2.02869000E-06	 7.40360000E-05
		 1.02079000E+04	-1.89577000E-06	-1.43008000E-04
		 1.01412000E+04	 2.60341000E-02	 2.98240000E+00
		 1.02043000E+04	 2.03117000E-06	 7.40443000E-05
		 1.02088000E+04	 1.89945000E-06	 1.49260000E-04
		 9.98327000E+03	 8.02338000E-01	 3.99924000E+01
		 9.98381000E+03	-6.73833000E-02	 3.99077000E+01
		 1.00900000E+04	 1.11312000E-01	 1.27084000E+01
		 1.00900000E+04	 6.89270000E-02	 1.26997000E+01
		 9.96397000E+03	 9.00519000E-01	 2.08328000E+01
		 9.98455000E+03	 3.64989000E-01	 3.99400000E+01
		 9.96458000E+03	-5.47252000E-02	 2.08022000E+01
		 1.00354000E+04	 3.90285000E-01	 2.56246000E+01
		 1.00356000E+04	-6.40033000E-02	 2.55855000E+01