    1C
    1UUSER                                                              
    1UDATE              25.january.2020                                 
    1UTIME              14:54:52                                        
    1UHOST                                                              
    1UPGM               CalculiX                                        
    1UVERSION           Version 2.16                             
    1UCOMPILETIME       Tue  7 Jan 19:57:43 CET 2020                    
    1UDIR                                                               
    1UDBN                                                               
    1UMAT    1BOLT                                                      
    1UMAT    2FL                                                        
    1UMAT    3CC                                                        
    1UMAT    4NUT_FL                                                    
    2C                          2407                                     1
 -1         1 1.12530E+01 9.50000E+00 6.89048E-16
 -1         2 1.12530E+01 1.00250E+01 6.89048E-16
 -1         3 1.12530E+01 1.05500E+01 6.89048E-16
 -1         4 1.12530E+01 1.10750E+01 6.89048E-16
 -1         5 1.12530E+01 1.16000E+01 6.89048E-16
 -1         6 1.12530E+01 1.21250E+01 6.89048E-16
 -1         7 1.12530E+01 1.26500E+01 6.89048E-16
 -1         8 1.12530E+01 1.31750E+01 6.89048E-16
 -1         9 1.12530E+01 1.37000E+01 6.89048E-16
 -1        10 1.12530E+01 1.42250E+01 6.89048E-16
 -1        11 1.12530E+01 1.47500E+01 6.89048E-16
 -1        12 1.12530E+01 1.52750E+01 6.89048E-16
 -1        13 1.12530E+01 1.58000E+01 6.89048E-16
 -1        14 1.12530E+01 1.63250E+01 6.89048E-16
 -1        15 1.12530E+01 1.68500E+01 6.89048E-16
 -1        16 1.12530E+01 1.73750E+01 6.89048E-16
 -1        17 1.12530E+01 1.79000E+01 6.89048E-16
 -1        18 1.12530E+01 1.84250E+01 6.89048E-16
 -1        19 1.12530E+01 1.89500E+01 6.89048E-16
 -1        20 1.12530E+01 1.94750E+01 6.89048E-16
 -1        21 1.12530E+01 2.00000E+01 6.89048E-16
 -1        22 1.07530E+01 9.50000E+00 6.58431E-16
 -1        23 1.07530E+01 1.05500E+01 6.58431E-16
 -1        24 1.07530E+01 1.16000E+01 6.58431E-16
 -1        25 1.07530E+01 1.26500E+01 6.58431E-16
 -1        26 1.07530E+01 1.37000E+01 6.58431E-16
 -1        27 1.07530E+01 1.47500E+01 6.58431E-16
 -1        28 1.07530E+01 1.58000E+01 6.58431E-16
 -1        29 1.07530E+01 1.68500E+01 6.58431E-16
 -1        30 1.07530E+01 1.79000E+01 6.58431E-16
 -1        31 1.07530E+01 1.89500E+01 6.58431E-16
 -1        32 1.07530E+01 2.00000E+01 6.58431E-16
 -1        33 1.02530E+01 9.50000E+00 6.27815E-16
 -1        34 1.02530E+01 1.00250E+01 6.27815E-16
 -1        35 1.02530E+01 1.05500E+01 6.27815E-16
 -1        36 1.02530E+01 1.10750E+01 6.27815E-16
 -1        37 1.02530E+01 1.16000E+01 6.27815E-16
 -1        38 1.02530E+01 1.21250E+01 6.27815E-16
 -1        39 1.02530E+01 1.26500E+01 6.27815E-16
 -1        40 1.02530E+01 1.31750E+01 6.27815E-16
 -1        41 1.02530E+01 1.37000E+01 6.27815E-16
 -1        42 1.02530E+01 1.42250E+01 6.27815E-16
 -1        43 1.02530E+01 1.47500E+01 6.27815E-16
 -1        44 1.02530E+01 1.52750E+01 6.27815E-16
 -1        45 1.02530E+01 1.58000E+01 6.27815E-16
 -1        46 1.02530E+01 1.63250E+01 6.27815E-16
 -1        47 1.02530E+01 1.68500E+01 6.27815E-16
 -1        48 1.02530E+01 1.73750E+01 6.27815E-16
 -1        49 1.02530E+01 1.79000E+01 6.27815E-16
 -1        50 1.02530E+01 1.84250E+01 6.27815E-16
 -1        51 1.02530E+01 1.89500E+01 6.27815E-16
 -1        52 1.02530E+01 1.94750E+01 6.27815E-16
 -1        53 1.02530E+01 2.00000E+01 6.27815E-16
 -1        54 9.75300E+00 9.50000E+00 5.97199E-16
 -1        55 9.75300E+00 1.05500E+01 5.97199E-16
 -1        56 9.75300E+00 1.16000E+01 5.97199E-16
 -1        57 9.75300E+00 1.26500E+01 5.97199E-16
 -1        58 9.75300E+00 1.37000E+01 5.97199E-16
 -1        59 9.75300E+00 1.47500E+01 5.97199E-16
 -1        60 9.75300E+00 1.58000E+01 5.97199E-16
 -1        61 9.75300E+00 1.68500E+01 5.97199E-16
 -1        62 9.75300E+00 1.79000E+01 5.97199E-16
 -1        63 9.75300E+00 1.89500E+01 5.97199E-16
 -1        64 9.75300E+00 2.00000E+01 5.97199E-16
 -1        65 9.25300E+00 9.50000E+00 5.66583E-16
 -1        66 9.25300E+00 1.00250E+01 5.66583E-16
 -1        67 9.25300E+00 1.05500E+01 5.66583E-16
 -1        68 9.25300E+00 1.10750E+01 5.66583E-16
 -1        69 9.25300E+00 1.16000E+01 5.66583E-16
 -1        70 9.25300E+00 1.21250E+01 5.66583E-16
 -1        71 9.25300E+00 1.26500E+01 5.66583E-16
 -1        72 9.25300E+00 1.31750E+01 5.66583E-16
 -1        73 9.25300E+00 1.37000E+01 5.66583E-16
 -1        74 9.25300E+00 1.42250E+01 5.66583E-16
 -1        75 9.25300E+00 1.47500E+01 5.66583E-16
 -1        76 9.25300E+00 1.52750E+01 5.66583E-16
 -1        77 9.25300E+00 1.58000E+01 5.66583E-16
 -1        78 9.25300E+00 1.63250E+01 5.66583E-16
 -1        79 9.25300E+00 1.68500E+01 5.66583E-16
 -1        80 9.25300E+00 1.73750E+01 5.66583E-16
 -1        81 9.25300E+00 1.79000E+01 5.66583E-16
 -1        82 9.25300E+00 1.84250E+01 5.66583E-16
 -1        83 9.25300E+00 1.89500E+01 5.66583E-16
 -1        84 9.25300E+00 1.94750E+01 5.66583E-16
 -1        85 9.25300E+00 2.00000E+01 5.66583E-16
 -1        86 8.75300E+00 9.50000E+00 5.35967E-16
 -1        87 8.75300E+00 1.05500E+01 5.35967E-16
 -1        88 8.75300E+00 1.16000E+01 5.35967E-16
 -1        89 8.75300E+00 1.26500E+01 5.35967E-16
 -1        90 8.75300E+00 1.37000E+01 5.35967E-16
 -1        91 8.75300E+00 1.47500E+01 5.35967E-16
 -1        92 8.75300E+00 1.58000E+01 5.35967E-16
 -1        93 8.75300E+00 1.68500E+01 5.35967E-16
 -1        94 8.75300E+00 1.79000E+01 5.35967E-16
 -1        95 8.75300E+00 1.89500E+01 5.35967E-16
 -1        96 8.75300E+00 2.00000E+01 5.35967E-16
 -1        97 8.25300E+00 9.50000E+00 5.05350E-16
 -1        98 8.25300E+00 1.00250E+01 5.05350E-16
 -1        99 8.25300E+00 1.05500E+01 5.05350E-16
 -1       100 8.25300E+00 1.10750E+01 5.05350E-16
 -1       101 8.25300E+00 1.16000E+01 5.05350E-16
 -1       102 8.25300E+00 1.21250E+01 5.05350E-16
 -1       103 8.25300E+00 1.26500E+01 5.05350E-16
 -1       104 8.25300E+00 1.31750E+01 5.05350E-16
 -1       105 8.25300E+00 1.37000E+01 5.05350E-16
 -1       106 8.25300E+00 1.42250E+01 5.05350E-16
 -1       107 8.25300E+00 1.47500E+01 5.05350E-16
 -1       108 8.25300E+00 1.52750E+01 5.05350E-16
 -1       109 8.25300E+00 1.58000E+01 5.05350E-16
 -1       110 8.25300E+00 1.63250E+01 5.05350E-16
 -1       111 8.25300E+00 1.68500E+01 5.05350E-16
 -1       112 8.25300E+00 1.73750E+01 5.05350E-16
 -1       113 8.25300E+00 1.79000E+01 5.05350E-16
 -1       114 8.25300E+00 1.84250E+01 5.05350E-16
 -1       115 8.25300E+00 1.89500E+01 5.05350E-16
 -1       116 8.25300E+00 1.94750E+01 5.05350E-16
 -1       117 8.25300E+00 2.00000E+01 5.05350E-16
 -1       118 7.75300E+00 9.50000E+00 4.74734E-16
 -1       119 7.75300E+00 1.05500E+01 4.74734E-16
 -1       120 7.75300E+00 1.16000E+01 4.74734E-16
 -1       121 7.75300E+00 1.26500E+01 4.74734E-16
 -1       122 7.75300E+00 1.37000E+01 4.74734E-16
 -1       123 7.75300E+00 1.47500E+01 4.74734E-16
 -1       124 7.75300E+00 1.58000E+01 4.74734E-16
 -1       125 7.75300E+00 1.68500E+01 4.74734E-16
 -1       126 7.75300E+00 1.79000E+01 4.74734E-16
 -1       127 7.75300E+00 1.89500E+01 4.74734E-16
 -1       128 7.75300E+00 2.00000E+01 4.74734E-16
 -1       129 7.25300E+00 9.50000E+00 4.44118E-16
 -1       130 7.25300E+00 1.00250E+01 4.44118E-16
 -1       131 7.25300E+00 1.05500E+01 4.44118E-16
 -1       132 7.25300E+00 1.10750E+01 4.44118E-16
 -1       133 7.25300E+00 1.16000E+01 4.44118E-16
 -1       134 7.25300E+00 1.21250E+01 4.44118E-16
 -1       135 7.25300E+00 1.26500E+01 4.44118E-16
 -1       136 7.25300E+00 1.31750E+01 4.44118E-16
 -1       137 7.25300E+00 1.37000E+01 4.44118E-16
 -1       138 7.25300E+00 1.42250E+01 4.44118E-16
 -1       139 7.25300E+00 1.47500E+01 4.44118E-16
 -1       140 7.25300E+00 1.52750E+01 4.44118E-16
 -1       141 7.25300E+00 1.58000E+01 4.44118E-16
 -1       142 7.25300E+00 1.63250E+01 4.44118E-16
 -1       143 7.25300E+00 1.68500E+01 4.44118E-16
 -1       144 7.25300E+00 1.73750E+01 4.44118E-16
 -1       145 7.25300E+00 1.79000E+01 4.44118E-16
 -1       146 7.25300E+00 1.84250E+01 4.44118E-16
 -1       147 7.25300E+00 1.89500E+01 4.44118E-16
 -1       148 7.25300E+00 1.94750E+01 4.44118E-16
 -1       149 7.25300E+00 2.00000E+01 4.44118E-16
 -1       150 6.75300E+00 9.50000E+00 4.13502E-16
 -1       151 6.75300E+00 1.05500E+01 4.13502E-16
 -1       152 6.75300E+00 1.16000E+01 4.13502E-16
 -1       153 6.75300E+00 1.26500E+01 4.13502E-16
 -1       154 6.75300E+00 1.37000E+01 4.13502E-16
 -1       155 6.75300E+00 1.47500E+01 4.13502E-16
 -1       156 6.75300E+00 1.58000E+01 4.13502E-16
 -1       157 6.75300E+00 1.68500E+01 4.13502E-16
 -1       158 6.75300E+00 1.79000E+01 4.13502E-16
 -1       159 6.75300E+00 1.89500E+01 4.13502E-16
 -1       160 6.75300E+00 2.00000E+01 4.13502E-16
 -1       161 6.25300E+00 9.50000E+00 3.82886E-16
 -1       162 6.25300E+00 1.00250E+01 3.82886E-16
 -1       163 6.25300E+00 1.05500E+01 3.82886E-16
 -1       164 6.25300E+00 1.10750E+01 3.82886E-16
 -1       165 6.25300E+00 1.16000E+01 3.82886E-16
 -1       166 6.25300E+00 1.21250E+01 3.82886E-16
 -1       167 6.25300E+00 1.26500E+01 3.82886E-16
 -1       168 6.25300E+00 1.31750E+01 3.82886E-16
 -1       169 6.25300E+00 1.37000E+01 3.82886E-16
 -1       170 6.25300E+00 1.42250E+01 3.82886E-16
 -1       171 6.25300E+00 1.47500E+01 3.82886E-16
 -1       172 6.25300E+00 1.52750E+01 3.82886E-16
 -1       173 6.25300E+00 1.58000E+01 3.82886E-16
 -1       174 6.25300E+00 1.63250E+01 3.82886E-16
 -1       175 6.25300E+00 1.68500E+01 3.82886E-16
 -1       176 6.25300E+00 1.73750E+01 3.82886E-16
 -1       177 6.25300E+00 1.79000E+01 3.82886E-16
 -1       178 6.25300E+00 1.84250E+01 3.82886E-16
 -1       179 6.25300E+00 1.89500E+01 3.82886E-16
 -1       180 6.25300E+00 1.94750E+01 3.82886E-16
 -1       181 6.25300E+00 2.00000E+01 3.82886E-16
 -1       182 5.75300E+00 9.50000E+00 3.52270E-16
 -1       183 5.75300E+00 1.05500E+01 3.52270E-16
 -1       184 5.75300E+00 1.16000E+01 3.52270E-16
 -1       185 5.75300E+00 1.26500E+01 3.52270E-16
 -1       186 5.75300E+00 1.37000E+01 3.52270E-16
 -1       187 5.75300E+00 1.47500E+01 3.52270E-16
 -1       188 5.75300E+00 1.58000E+01 3.52270E-16
 -1       189 5.75300E+00 1.68500E+01 3.52270E-16
 -1       190 5.75300E+00 1.79000E+01 3.52270E-16
 -1       191 5.75300E+00 1.89500E+01 3.52270E-16
 -1       192 5.75300E+00 2.00000E+01 3.52270E-16
 -1       193 5.25300E+00 9.50000E+00 3.21653E-16
 -1       194 5.25300E+00 1.00250E+01 3.21653E-16
 -1       195 5.25300E+00 1.05500E+01 3.21653E-16
 -1       196 5.25300E+00 1.10750E+01 3.21653E-16
 -1       197 5.25300E+00 1.16000E+01 3.21653E-16
 -1       198 5.25300E+00 1.21250E+01 3.21653E-16
 -1       199 5.25300E+00 1.26500E+01 3.21653E-16
 -1       200 5.25300E+00 1.31750E+01 3.21653E-16
 -1       201 5.25300E+00 1.37000E+01 3.21653E-16
 -1       202 5.25300E+00 1.42250E+01 3.21653E-16
 -1       203 5.25300E+00 1.47500E+01 3.21653E-16
 -1       204 5.25300E+00 1.52750E+01 3.21653E-16
 -1       205 5.25300E+00 1.58000E+01 3.21653E-16
 -1       206 5.25300E+00 1.63250E+01 3.21653E-16
 -1       207 5.25300E+00 1.68500E+01 3.21653E-16
 -1       208 5.25300E+00 1.73750E+01 3.21653E-16
 -1       209 5.25300E+00 1.79000E+01 3.21653E-16
 -1       210 5.25300E+00 1.84250E+01 3.21653E-16
 -1       211 5.25300E+00 1.89500E+01 3.21653E-16
 -1       212 5.25300E+00 1.94750E+01 3.21653E-16
 -1       213 5.25300E+00 2.00000E+01 3.21653E-16
 -1       214 4.75300E+00 9.50000E+00 2.91037E-16
 -1       215 4.75300E+00 1.05500E+01 2.91037E-16
 -1       216 4.75300E+00 1.16000E+01 2.91037E-16
 -1       217 4.75300E+00 1.26500E+01 2.91037E-16
 -1       218 4.75300E+00 1.37000E+01 2.91037E-16
 -1       219 4.75300E+00 1.47500E+01 2.91037E-16
 -1       220 4.75300E+00 1.58000E+01 2.91037E-16
 -1       221 4.75300E+00 1.68500E+01 2.91037E-16
 -1       222 4.75300E+00 1.79000E+01 2.91037E-16
 -1       223 4.75300E+00 1.89500E+01 2.91037E-16
 -1       224 4.75300E+00 2.00000E+01 2.91037E-16
 -1       225 4.25300E+00 9.50000E+00 2.60421E-16
 -1       226 4.25300E+00 1.00250E+01 2.60421E-16
 -1       227 4.25300E+00 1.05500E+01 2.60421E-16
 -1       228 4.25300E+00 1.10750E+01 2.60421E-16
 -1       229 4.25300E+00 1.16000E+01 2.60421E-16
 -1       230 4.25300E+00 1.21250E+01 2.60421E-16
 -1       231 4.25300E+00 1.26500E+01 2.60421E-16
 -1       232 4.25300E+00 1.31750E+01 2.60421E-16
 -1       233 4.25300E+00 1.37000E+01 2.60421E-16
 -1       234 4.25300E+00 1.42250E+01 2.60421E-16
 -1       235 4.25300E+00 1.47500E+01 2.60421E-16
 -1       236 4.25300E+00 1.52750E+01 2.60421E-16
 -1       237 4.25300E+00 1.58000E+01 2.60421E-16
 -1       238 4.25300E+00 1.63250E+01 2.60421E-16
 -1       239 4.25300E+00 1.68500E+01 2.60421E-16
 -1       240 4.25300E+00 1.73750E+01 2.60421E-16
 -1       241 4.25300E+00 1.79000E+01 2.60421E-16
 -1       242 4.25300E+00 1.84250E+01 2.60421E-16
 -1       243 4.25300E+00 1.89500E+01 2.60421E-16
 -1       244 4.25300E+00 1.94750E+01 2.60421E-16
 -1       245 4.25300E+00 2.00000E+01 2.60421E-16
 -1       246 3.75300E+00 9.50000E+00 2.29805E-16
 -1       247 3.75300E+00 1.05500E+01 2.29805E-16
 -1       248 3.75300E+00 1.16000E+01 2.29805E-16
 -1       249 3.75300E+00 1.26500E+01 2.29805E-16
 -1       250 3.75300E+00 1.37000E+01 2.29805E-16
 -1       251 3.75300E+00 1.47500E+01 2.29805E-16
 -1       252 3.75300E+00 1.58000E+01 2.29805E-16
 -1       253 3.75300E+00 1.68500E+01 2.29805E-16
 -1       254 3.75300E+00 1.79000E+01 2.29805E-16
 -1       255 3.75300E+00 1.89500E+01 2.29805E-16
 -1       256 3.75300E+00 2.00000E+01 2.29805E-16
 -1       257 3.25300E+00 9.50000E+00 1.99189E-16
 -1       258 3.25300E+00 1.00250E+01 1.99189E-16
 -1       259 3.25300E+00 1.05500E+01 1.99189E-16
 -1       260 3.25300E+00 1.10750E+01 1.99189E-16
 -1       261 3.25300E+00 1.16000E+01 1.99189E-16
 -1       262 3.25300E+00 1.21250E+01 1.99189E-16
 -1       263 3.25300E+00 1.26500E+01 1.99189E-16
 -1       264 3.25300E+00 1.31750E+01 1.99189E-16
 -1       265 3.25300E+00 1.37000E+01 1.99189E-16
 -1       266 3.25300E+00 1.42250E+01 1.99189E-16
 -1       267 3.25300E+00 1.47500E+01 1.99189E-16
 -1       268 3.25300E+00 1.52750E+01 1.99189E-16
 -1       269 3.25300E+00 1.58000E+01 1.99189E-16
 -1       270 3.25300E+00 1.63250E+01 1.99189E-16
 -1       271 3.25300E+00 1.68500E+01 1.99189E-16
 -1       272 3.25300E+00 1.73750E+01 1.99189E-16
 -1       273 3.25300E+00 1.79000E+01 1.99189E-16
 -1       274 3.25300E+00 1.84250E+01 1.99189E-16
 -1       275 3.25300E+00 1.89500E+01 1.99189E-16
 -1       276 3.25300E+00 1.94750E+01 1.99189E-16
 -1       277 3.25300E+00 2.00000E+01 1.99189E-16
 -1       278 2.75300E+00 9.50000E+00 1.68573E-16
 -1       279 2.75300E+00 1.05500E+01 1.68573E-16
 -1       280 2.75300E+00 1.16000E+01 1.68573E-16
 -1       281 2.75300E+00 1.26500E+01 1.68573E-16
 -1       282 2.75300E+00 1.37000E+01 1.68573E-16
 -1       283 2.75300E+00 1.47500E+01 1.68573E-16
 -1       284 2.75300E+00 1.58000E+01 1.68573E-16
 -1       285 2.75300E+00 1.68500E+01 1.68573E-16
 -1       286 2.75300E+00 1.79000E+01 1.68573E-16
 -1       287 2.75300E+00 1.89500E+01 1.68573E-16
 -1       288 2.75300E+00 2.00000E+01 1.68573E-16
 -1       289 2.25300E+00 9.50000E+00 1.37956E-16
 -1       290 2.25300E+00 1.00250E+01 1.37956E-16
 -1       291 2.25300E+00 1.05500E+01 1.37956E-16
 -1       292 2.25300E+00 1.10750E+01 1.37956E-16
 -1       293 2.25300E+00 1.16000E+01 1.37956E-16
 -1       294 2.25300E+00 1.21250E+01 1.37956E-16
 -1       295 2.25300E+00 1.26500E+01 1.37956E-16
 -1       296 2.25300E+00 1.31750E+01 1.37956E-16
 -1       297 2.25300E+00 1.37000E+01 1.37956E-16
 -1       298 2.25300E+00 1.42250E+01 1.37956E-16
 -1       299 2.25300E+00 1.47500E+01 1.37956E-16
 -1       300 2.25300E+00 1.52750E+01 1.37956E-16
 -1       301 2.25300E+00 1.58000E+01 1.37956E-16
 -1       302 2.25300E+00 1.63250E+01 1.37956E-16
 -1       303 2.25300E+00 1.68500E+01 1.37956E-16
 -1       304 2.25300E+00 1.73750E+01 1.37956E-16
 -1       305 2.25300E+00 1.79000E+01 1.37956E-16
 -1       306 2.25300E+00 1.84250E+01 1.37956E-16
 -1       307 2.25300E+00 1.89500E+01 1.37956E-16
 -1       308 2.25300E+00 1.94750E+01 1.37956E-16
 -1       309 2.25300E+00 2.00000E+01 1.37956E-16
 -1       310 1.75300E+00 9.50000E+00 1.07340E-16
 -1       311 1.75300E+00 1.05500E+01 1.07340E-16
 -1       312 1.75300E+00 1.16000E+01 1.07340E-16
 -1       313 1.75300E+00 1.26500E+01 1.07340E-16
 -1       314 1.75300E+00 1.37000E+01 1.07340E-16
 -1       315 1.75300E+00 1.47500E+01 1.07340E-16
 -1       316 1.75300E+00 1.58000E+01 1.07340E-16
 -1       317 1.75300E+00 1.68500E+01 1.07340E-16
 -1       318 1.75300E+00 1.79000E+01 1.07340E-16
 -1       319 1.75300E+00 1.89500E+01 1.07340E-16
 -1       320 1.75300E+00 2.00000E+01 1.07340E-16
 -1       321 1.25300E+00 9.50000E+00 7.67241E-17
 -1       322 1.25300E+00 1.00250E+01 7.67241E-17
 -1       323 1.25300E+00 1.05500E+01 7.67241E-17
 -1       324 1.25300E+00 1.10750E+01 7.67241E-17
 -1       325 1.25300E+00 1.16000E+01 7.67241E-17
 -1       326 1.25300E+00 1.21250E+01 7.67241E-17
 -1       327 1.25300E+00 1.26500E+01 7.67241E-17
 -1       328 1.25300E+00 1.31750E+01 7.67241E-17
 -1       329 1.25300E+00 1.37000E+01 7.67241E-17
 -1       330 1.25300E+00 1.42250E+01 7.67241E-17
 -1       331 1.25300E+00 1.47500E+01 7.67241E-17
 -1       332 1.25300E+00 1.52750E+01 7.67241E-17
 -1       333 1.25300E+00 1.58000E+01 7.67241E-17
 -1       334 1.25300E+00 1.63250E+01 7.67241E-17
 -1       335 1.25300E+00 1.68500E+01 7.67241E-17
 -1       336 1.25300E+00 1.73750E+01 7.67241E-17
 -1       337 1.25300E+00 1.79000E+01 7.67241E-17
 -1       338 1.25300E+00 1.84250E+01 7.67241E-17
 -1       339 1.25300E+00 1.89500E+01 7.67241E-17
 -1       340 1.25300E+00 1.94750E+01 7.67241E-17
 -1       341 1.25300E+00 2.00000E+01 7.67241E-17
 -1       342 7.53000E-01 9.50000E+00 4.61080E-17
 -1       343 7.53000E-01 1.05500E+01 4.61080E-17
 -1       344 7.53000E-01 1.16000E+01 4.61080E-17
 -1       345 7.53000E-01 1.26500E+01 4.61080E-17
 -1       346 7.53000E-01 1.37000E+01 4.61080E-17
 -1       347 7.53000E-01 1.47500E+01 4.61080E-17
 -1       348 7.53000E-01 1.58000E+01 4.61080E-17
 -1       349 7.53000E-01 1.68500E+01 4.61080E-17
 -1       350 7.53000E-01 1.79000E+01 4.61080E-17
 -1       351 7.53000E-01 1.89500E+01 4.61080E-17
 -1       352 7.53000E-01 2.00000E+01 4.61080E-17
 -1       353 2.53000E-01 9.50000E+00 1.54918E-17
 -1       354 2.53000E-01 1.00250E+01 1.54918E-17
 -1       355 2.53000E-01 1.05500E+01 1.54918E-17
 -1       356 2.53000E-01 1.10750E+01 1.54918E-17
 -1       357 2.53000E-01 1.16000E+01 1.54918E-17
 -1       358 2.53000E-01 1.21250E+01 1.54918E-17
 -1       359 2.53000E-01 1.26500E+01 1.54918E-17
 -1       360 2.53000E-01 1.31750E+01 1.54918E-17
 -1       361 2.53000E-01 1.37000E+01 1.54918E-17
 -1       362 2.53000E-01 1.42250E+01 1.54918E-17
 -1       363 2.53000E-01 1.47500E+01 1.54918E-17
 -1       364 2.53000E-01 1.52750E+01 1.54918E-17
 -1       365 2.53000E-01 1.58000E+01 1.54918E-17
 -1       366 2.53000E-01 1.63250E+01 1.54918E-17
 -1       367 2.53000E-01 1.68500E+01 1.54918E-17
 -1       368 2.53000E-01 1.73750E+01 1.54918E-17
 -1       369 2.53000E-01 1.79000E+01 1.54918E-17
 -1       370 2.53000E-01 1.84250E+01 1.54918E-17
 -1       371 2.53000E-01 1.89500E+01 1.54918E-17
 -1       372 2.53000E-01 1.94750E+01 1.54918E-17
 -1       373 2.53000E-01 2.00000E+01 1.54918E-17
 -1      1046 1.12530E+01 2.00000E+01 6.89048E-16
 -1      1047 1.12530E+01 2.05250E+01 6.89048E-16
 -1      1048 1.12530E+01 2.10500E+01 6.89048E-16
 -1      1049 1.12530E+01 2.15750E+01 6.89048E-16
 -1      1050 1.12530E+01 2.21000E+01 6.89048E-16
 -1      1051 1.12530E+01 2.26250E+01 6.89048E-16
 -1      1052 1.12530E+01 2.31500E+01 6.89048E-16
 -1      1053 1.12530E+01 2.36750E+01 6.89048E-16
 -1      1054 1.12530E+01 2.42000E+01 6.89048E-16
 -1      1055 1.12530E+01 2.47250E+01 6.89048E-16
 -1      1056 1.12530E+01 2.52500E+01 6.89048E-16
 -1      1057 1.12530E+01 2.57750E+01 6.89048E-16
 -1      1058 1.12530E+01 2.63000E+01 6.89048E-16
 -1      1059 1.12530E+01 2.68250E+01 6.89048E-16
 -1      1060 1.12530E+01 2.73500E+01 6.89048E-16
 -1      1061 1.12530E+01 2.78750E+01 6.89048E-16
 -1      1062 1.12530E+01 2.84000E+01 6.89048E-16
 -1      1063 1.12530E+01 2.89250E+01 6.89048E-16
 -1      1064 1.12530E+01 2.94500E+01 6.89048E-16
 -1      1065 1.12530E+01 2.99750E+01 6.89048E-16
 -1      1066 1.12530E+01 3.05000E+01 6.89048E-16
 -1      1067 1.07530E+01 2.00000E+01 6.58431E-16
 -1      1068 1.07530E+01 2.10500E+01 6.58431E-16
 -1      1069 1.07530E+01 2.21000E+01 6.58431E-16
 -1      1070 1.07530E+01 2.31500E+01 6.58431E-16
 -1      1071 1.07530E+01 2.42000E+01 6.58431E-16
 -1      1072 1.07530E+01 2.52500E+01 6.58431E-16
 -1      1073 1.07530E+01 2.63000E+01 6.58431E-16
 -1      1074 1.07530E+01 2.73500E+01 6.58431E-16
 -1      1075 1.07530E+01 2.84000E+01 6.58431E-16
 -1      1076 1.07530E+01 2.94500E+01 6.58431E-16
 -1      1077 1.07530E+01 3.05000E+01 6.58431E-16
 -1      1078 1.02530E+01 2.00000E+01 6.27815E-16
 -1      1079 1.02530E+01 2.05250E+01 6.27815E-16
 -1      1080 1.02530E+01 2.10500E+01 6.27815E-16
 -1      1081 1.02530E+01 2.15750E+01 6.27815E-16
 -1      1082 1.02530E+01 2.21000E+01 6.27815E-16
 -1      1083 1.02530E+01 2.26250E+01 6.27815E-16
 -1      1084 1.02530E+01 2.31500E+01 6.27815E-16
 -1      1085 1.02530E+01 2.36750E+01 6.27815E-16
 -1      1086 1.02530E+01 2.42000E+01 6.27815E-16
 -1      1087 1.02530E+01 2.47250E+01 6.27815E-16
 -1      1088 1.02530E+01 2.52500E+01 6.27815E-16
 -1      1089 1.02530E+01 2.57750E+01 6.27815E-16
 -1      1090 1.02530E+01 2.63000E+01 6.27815E-16
 -1      1091 1.02530E+01 2.68250E+01 6.27815E-16
 -1      1092 1.02530E+01 2.73500E+01 6.27815E-16
 -1      1093 1.02530E+01 2.78750E+01 6.27815E-16
 -1      1094 1.02530E+01 2.84000E+01 6.27815E-16
 -1      1095 1.02530E+01 2.89250E+01 6.27815E-16
 -1      1096 1.02530E+01 2.94500E+01 6.27815E-16
 -1      1097 1.02530E+01 2.99750E+01 6.27815E-16
 -1      1098 1.02530E+01 3.05000E+01 6.27815E-16
 -1      1099 9.75300E+00 2.00000E+01 5.97199E-16
 -1      1100 9.75300E+00 2.10500E+01 5.97199E-16
 -1      1101 9.75300E+00 2.21000E+01 5.97199E-16
 -1      1102 9.75300E+00 2.31500E+01 5.97199E-16
 -1      1103 9.75300E+00 2.42000E+01 5.97199E-16
 -1      1104 9.75300E+00 2.52500E+01 5.97199E-16
 -1      1105 9.75300E+00 2.63000E+01 5.97199E-16
 -1      1106 9.75300E+00 2.73500E+01 5.97199E-16
 -1      1107 9.75300E+00 2.84000E+01 5.97199E-16
 -1      1108 9.75300E+00 2.94500E+01 5.97199E-16
 -1      1109 9.75300E+00 3.05000E+01 5.97199E-16
 -1      1110 9.25300E+00 2.00000E+01 5.66583E-16
 -1      1111 9.25300E+00 2.05250E+01 5.66583E-16
 -1      1112 9.25300E+00 2.10500E+01 5.66583E-16
 -1      1113 9.25300E+00 2.15750E+01 5.66583E-16
 -1      1114 9.25300E+00 2.21000E+01 5.66583E-16
 -1      1115 9.25300E+00 2.26250E+01 5.66583E-16
 -1      1116 9.25300E+00 2.31500E+01 5.66583E-16
 -1      1117 9.25300E+00 2.36750E+01 5.66583E-16
 -1      1118 9.25300E+00 2.42000E+01 5.66583E-16
 -1      1119 9.25300E+00 2.47250E+01 5.66583E-16
 -1      1120 9.25300E+00 2.52500E+01 5.66583E-16
 -1      1121 9.25300E+00 2.57750E+01 5.66583E-16
 -1      1122 9.25300E+00 2.63000E+01 5.66583E-16
 -1      1123 9.25300E+00 2.68250E+01 5.66583E-16
 -1      1124 9.25300E+00 2.73500E+01 5.66583E-16
 -1      1125 9.25300E+00 2.78750E+01 5.66583E-16
 -1      1126 9.25300E+00 2.84000E+01 5.66583E-16
 -1      1127 9.25300E+00 2.89250E+01 5.66583E-16
 -1      1128 9.25300E+00 2.94500E+01 5.66583E-16
 -1      1129 9.25300E+00 2.99750E+01 5.66583E-16
 -1      1130 9.25300E+00 3.05000E+01 5.66583E-16
 -1      1131 8.75300E+00 2.00000E+01 5.35967E-16
 -1      1132 8.75300E+00 2.10500E+01 5.35967E-16
 -1      1133 8.75300E+00 2.21000E+01 5.35967E-16
 -1      1134 8.75300E+00 2.31500E+01 5.35967E-16
 -1      1135 8.75300E+00 2.42000E+01 5.35967E-16
 -1      1136 8.75300E+00 2.52500E+01 5.35967E-16
 -1      1137 8.75300E+00 2.63000E+01 5.35967E-16
 -1      1138 8.75300E+00 2.73500E+01 5.35967E-16
 -1      1139 8.75300E+00 2.84000E+01 5.35967E-16
 -1      1140 8.75300E+00 2.94500E+01 5.35967E-16
 -1      1141 8.75300E+00 3.05000E+01 5.35967E-16
 -1      1142 8.25300E+00 2.00000E+01 5.05350E-16
 -1      1143 8.25300E+00 2.05250E+01 5.05350E-16
 -1      1144 8.25300E+00 2.10500E+01 5.05350E-16
 -1      1145 8.25300E+00 2.15750E+01 5.05350E-16
 -1      1146 8.25300E+00 2.21000E+01 5.05350E-16
 -1      1147 8.25300E+00 2.26250E+01 5.05350E-16
 -1      1148 8.25300E+00 2.31500E+01 5.05350E-16
 -1      1149 8.25300E+00 2.36750E+01 5.05350E-16
 -1      1150 8.25300E+00 2.42000E+01 5.05350E-16
 -1      1151 8.25300E+00 2.47250E+01 5.05350E-16
 -1      1152 8.25300E+00 2.52500E+01 5.05350E-16
 -1      1153 8.25300E+00 2.57750E+01 5.05350E-16
 -1      1154 8.25300E+00 2.63000E+01 5.05350E-16
 -1      1155 8.25300E+00 2.68250E+01 5.05350E-16
 -1      1156 8.25300E+00 2.73500E+01 5.05350E-16
 -1      1157 8.25300E+00 2.78750E+01 5.05350E-16
 -1      1158 8.25300E+00 2.84000E+01 5.05350E-16
 -1      1159 8.25300E+00 2.89250E+01 5.05350E-16
 -1      1160 8.25300E+00 2.94500E+01 5.05350E-16
 -1      1161 8.25300E+00 2.99750E+01 5.05350E-16
 -1      1162 8.25300E+00 3.05000E+01 5.05350E-16
 -1      1163 7.75300E+00 2.00000E+01 4.74734E-16
 -1      1164 7.75300E+00 2.10500E+01 4.74734E-16
 -1      1165 7.75300E+00 2.21000E+01 4.74734E-16
 -1      1166 7.75300E+00 2.31500E+01 4.74734E-16
 -1      1167 7.75300E+00 2.42000E+01 4.74734E-16
 -1      1168 7.75300E+00 2.52500E+01 4.74734E-16
 -1      1169 7.75300E+00 2.63000E+01 4.74734E-16
 -1      1170 7.75300E+00 2.73500E+01 4.74734E-16
 -1      1171 7.75300E+00 2.84000E+01 4.74734E-16
 -1      1172 7.75300E+00 2.94500E+01 4.74734E-16
 -1      1173 7.75300E+00 3.05000E+01 4.74734E-16
 -1      1174 7.25300E+00 2.00000E+01 4.44118E-16
 -1      1175 7.25300E+00 2.05250E+01 4.44118E-16
 -1      1176 7.25300E+00 2.10500E+01 4.44118E-16
 -1      1177 7.25300E+00 2.15750E+01 4.44118E-16
 -1      1178 7.25300E+00 2.21000E+01 4.44118E-16
 -1      1179 7.25300E+00 2.26250E+01 4.44118E-16
 -1      1180 7.25300E+00 2.31500E+01 4.44118E-16
 -1      1181 7.25300E+00 2.36750E+01 4.44118E-16
 -1      1182 7.25300E+00 2.42000E+01 4.44118E-16
 -1      1183 7.25300E+00 2.47250E+01 4.44118E-16
 -1      1184 7.25300E+00 2.52500E+01 4.44118E-16
 -1      1185 7.25300E+00 2.57750E+01 4.44118E-16
 -1      1186 7.25300E+00 2.63000E+01 4.44118E-16
 -1      1187 7.25300E+00 2.68250E+01 4.44118E-16
 -1      1188 7.25300E+00 2.73500E+01 4.44118E-16
 -1      1189 7.25300E+00 2.78750E+01 4.44118E-16
 -1      1190 7.25300E+00 2.84000E+01 4.44118E-16
 -1      1191 7.25300E+00 2.89250E+01 4.44118E-16
 -1      1192 7.25300E+00 2.94500E+01 4.44118E-16
 -1      1193 7.25300E+00 2.99750E+01 4.44118E-16
 -1      1194 7.25300E+00 3.05000E+01 4.44118E-16
 -1      1195 6.75300E+00 2.00000E+01 4.13502E-16
 -1      1196 6.75300E+00 2.10500E+01 4.13502E-16
 -1      1197 6.75300E+00 2.21000E+01 4.13502E-16
 -1      1198 6.75300E+00 2.31500E+01 4.13502E-16
 -1      1199 6.75300E+00 2.42000E+01 4.13502E-16
 -1      1200 6.75300E+00 2.52500E+01 4.13502E-16
 -1      1201 6.75300E+00 2.63000E+01 4.13502E-16
 -1      1202 6.75300E+00 2.73500E+01 4.13502E-16
 -1      1203 6.75300E+00 2.84000E+01 4.13502E-16
 -1      1204 6.75300E+00 2.94500E+01 4.13502E-16
 -1      1205 6.75300E+00 3.05000E+01 4.13502E-16
 -1      1206 6.25300E+00 2.00000E+01 3.82886E-16
 -1      1207 6.25300E+00 2.05250E+01 3.82886E-16
 -1      1208 6.25300E+00 2.10500E+01 3.82886E-16
 -1      1209 6.25300E+00 2.15750E+01 3.82886E-16
 -1      1210 6.25300E+00 2.21000E+01 3.82886E-16
 -1      1211 6.25300E+00 2.26250E+01 3.82886E-16
 -1      1212 6.25300E+00 2.31500E+01 3.82886E-16
 -1      1213 6.25300E+00 2.36750E+01 3.82886E-16
 -1      1214 6.25300E+00 2.42000E+01 3.82886E-16
 -1      1215 6.25300E+00 2.47250E+01 3.82886E-16
 -1      1216 6.25300E+00 2.52500E+01 3.82886E-16
 -1      1217 6.25300E+00 2.57750E+01 3.82886E-16
 -1      1218 6.25300E+00 2.63000E+01 3.82886E-16
 -1      1219 6.25300E+00 2.68250E+01 3.82886E-16
 -1      1220 6.25300E+00 2.73500E+01 3.82886E-16
 -1      1221 6.25300E+00 2.78750E+01 3.82886E-16
 -1      1222 6.25300E+00 2.84000E+01 3.82886E-16
 -1      1223 6.25300E+00 2.89250E+01 3.82886E-16
 -1      1224 6.25300E+00 2.94500E+01 3.82886E-16
 -1      1225 6.25300E+00 2.99750E+01 3.82886E-16
 -1      1226 6.25300E+00 3.05000E+01 3.82886E-16
 -1      1227 5.75300E+00 2.00000E+01 3.52270E-16
 -1      1228 5.75300E+00 2.10500E+01 3.52270E-16
 -1      1229 5.75300E+00 2.21000E+01 3.52270E-16
 -1      1230 5.75300E+00 2.31500E+01 3.52270E-16
 -1      1231 5.75300E+00 2.42000E+01 3.52270E-16
 -1      1232 5.75300E+00 2.52500E+01 3.52270E-16
 -1      1233 5.75300E+00 2.63000E+01 3.52270E-16
 -1      1234 5.75300E+00 2.73500E+01 3.52270E-16
 -1      1235 5.75300E+00 2.84000E+01 3.52270E-16
 -1      1236 5.75300E+00 2.94500E+01 3.52270E-16
 -1      1237 5.75300E+00 3.05000E+01 3.52270E-16
 -1      1238 5.25300E+00 2.00000E+01 3.21653E-16
 -1      1239 5.25300E+00 2.05250E+01 3.21653E-16
 -1      1240 5.25300E+00 2.10500E+01 3.21653E-16
 -1      1241 5.25300E+00 2.15750E+01 3.21653E-16
 -1      1242 5.25300E+00 2.21000E+01 3.21653E-16
 -1      1243 5.25300E+00 2.26250E+01 3.21653E-16
 -1      1244 5.25300E+00 2.31500E+01 3.21653E-16
 -1      1245 5.25300E+00 2.36750E+01 3.21653E-16
 -1      1246 5.25300E+00 2.42000E+01 3.21653E-16
 -1      1247 5.25300E+00 2.47250E+01 3.21653E-16
 -1      1248 5.25300E+00 2.52500E+01 3.21653E-16
 -1      1249 5.25300E+00 2.57750E+01 3.21653E-16
 -1      1250 5.25300E+00 2.63000E+01 3.21653E-16
 -1      1251 5.25300E+00 2.68250E+01 3.21653E-16