<?xml version="1.0"?>
<VTKFile type="UnstructuredGrid" version="0.1" byte_order="LittleEndian">
	<UnstructuredGrid>
		<Piece NumberOfPoints="21" NumberOfCells="10">
			<Points>
				<DataArray type="Float64" NumberOfComponents="3" format="ascii">
					 0.00000000E+00	 0.00000000E+00	 0.00000000E+00
					 1.00000000E+00	 0.00000000E+00	 0.00000000E+00
					 2.00000000E+00	 0.00000000E+00	 0.00000000E+00
					 3.00000000E+00	 0.00000000E+00	 0.00000000E+00
					 4.00000000E+00	 0.00000000E+00	 0.00000000E+00
					 5.00000000E+00	 0.00000000E+00	 0.00000000E+00
					 6.00000000E+00	 0.00000000E+00	 0.00000000E+00
					 7.00000000E+00	 0.00000000E+00	 0.00000000E+00
					 8.00000000E+00	 0.00000000E+00	 0.00000000E+00
					 9.00000000E+00	 0.00000000E+00	 0.00000000E+00
					 1.00000000E+01	 0.00000000E+00	 0.00000000E+00
					 1.10000000E+01	 0.00000000E+00	 0.00000000E+00
					 1.20000000E+01	 0.00000000E+00	 0.00000000E+00
					 1.30000000E+01	 0.00000000E+00	 0.00000000E+00
					 1.40000000E+01	 0.00000000E+00	 0.00000000E+00
					 1.50000000E+01	 0.00000000E+00	 0.00000000E+00
					 1.60000000E+01	 0.00000000E+00	 0.00000000E+00
					 1.70000000E+01	 0.00000000E+00	 0.00000000E+00
					 1.80000000E+01	 0.00000000E+00	 0.00000000E+00
					 1.90000000E+01	 0.00000000E+00	 0.00000000E+00
					 2.00000000E+01	 0.00000000E+00	 0.00000000E+00

				</DataArray>
			</Points>
			<Cells>
				<DataArray type="Int32" Name="connectivity" format="ascii">
					0 2 1 2 4 3 4 6 5 6 8 7 8 10 9 10 12 11 12 14 13 14 16 15 16 18 17 18 20 19 
				</DataArray>
				<DataArray type="Int32" Name="offsets" format="ascii">
					3 6 9 12 15 18 21 24 27 30 
				</DataArray>
				<DataArray type="UInt8" Name="types" format="ascii">
					21 21 21 21 21 21 21 21 21 21 
				</DataArray>
			</Cells>
			<PointData>
				<DataArray type="Float32" Name="U" NumberOfComponents="3" ComponentName0="D1" ComponentName1="D2" ComponentName2="D3" format="ascii">
					 0.00000000E+00	 0.00000000E+00	 0.00000000E+00
					 0.00000000E+00	 0.00000000E+00	-2.59208000E-06
					 0.00000000E+00	 0.00000000E+00	-5.18415000E-06
					 0.00000000E+00	 0.00000000E+00	-7.20004000E-06
					 0.00000000E+00	 0.00000000E+00	-9.21593000E-06
					 0.00000000E+00	 0.00000000E+00	-1.06556000E-05
					 0.00000000E+00	 0.00000000E+00	-1.20953000E-05
					 0.00000000E+00	 0.00000000E+00	-1.29589000E-05
					 0.00000000E+00	 0.00000000E+00	-1.38225000E-05
					 0.00000000E+00	 0.00000000E+00	-1.41101000E-05
					 0.00000000E+00	 0.00000000E+00	-1.43977000E-05
					 0.00000000E+00	 0.00000000E+00	-1.41089000E-05
					 0.00000000E+00	 0.00000000E+00	-1.38201000E-05
					 0.00000000E+00	 0.00000000E+00	-1.29561000E-05
					 0.00000000E+00	 0.00000000E+00	-1.20922000E-05
					 0.00000000E+00	 0.00000000E+00	-1.06524000E-05
					 0.00000000E+00	 0.00000000E+00	-9.21261000E-06
					 0.00000000E+00	 0.00000000E+00	-7.19716000E-06
					 0.00000000E+00	 0.00000000E+00	-5.18171000E-06
					 0.00000000E+00	 0.00000000E+00	-2.59086000E-06
					 0.00000000E+00	 0.00000000E+00	 0.00000000E+00
				</DataArray>
				<DataArray type="Float32" Name="S" NumberOfComponents="10" ComponentName0="xx" ComponentName1="yy" ComponentName2="zz" ComponentName3="xy" ComponentName4="yz" ComponentName5="zx" ComponentName6="Mises" ComponentName7="Min Principal" ComponentName8="Mid Principal" ComponentName9="Max Principal" format="ascii">
					-4.78339000E-09	 0.00000000E+00	 1.58316000E-02	 0.00000000E+00	 0.00000000E+00	 1.59221000E-09	 1.58316024E-02	-4.78339016E-09	 0.00000000E+00	 1.58316000E-02
					-2.39327000E-09	 0.00000000E+00	 1.58316000E-02	 0.00000000E+00	 0.00000000E+00	 1.59553000E-09	 1.58316012E-02	-2.39327017E-09	 0.00000000E+00	 1.58316000E-02
					 0.00000000E+00	 0.00000000E+00	 1.58316000E-02	 0.00000000E+00	 0.00000000E+00	 1.59885000E-09	 1.58316000E-02	 0.00000000E+00	 0.00000000E+00	 1.58316000E-02
					 0.00000000E+00	 0.00000000E+00	 1.58316000E-02	 0.00000000E+00	 0.00000000E+00	 1.59429000E-09	 1.58316000E-02	 0.00000000E+00	 0.00000000E+00	 1.58316000E-02
					 0.00000000E+00	 0.00000000E+00	 1.58316000E-02	 0.00000000E+00	 0.00000000E+00	 1.58973000E-09	 1.58316000E-02	 0.00000000E+00	 0.00000000E+00	 1.58316000E-02
					 0.00000000E+00	 0.00000000E+00	 1.58316000E-02	 0.00000000E+00	 0.00000000E+00	 1.58816000E-09	 1.58316000E-02	 0.00000000E+00	 0.00000000E+00	 1.58316000E-02
					 0.00000000E+00	 0.00000000E+00	 1.58316000E-02	 0.00000000E+00	 0.00000000E+00	 1.58660000E-09	 1.58316000E-02	 0.00000000E+00	 0.00000000E+00	 1.58316000E-02
					 0.00000000E+00	 0.00000000E+00	 1.58316000E-02	 0.00000000E+00	 0.00000000E+00	 1.58442000E-09	 1.58316000E-02	 0.00000000E+00	 0.00000000E+00	 1.58316000E-02
					 0.00000000E+00	 0.00000000E+00	 1.58316000E-02	 0.00000000E+00	 0.00000000E+00	 1.58225000E-09	 1.58316000E-02	 0.00000000E+00	 0.00000000E+00	 1.58316000E-02
					 0.00000000E+00	 0.00000000E+00	 1.58316000E-02	 0.00000000E+00	 0.00000000E+00	 1.58847000E-09	 1.58316000E-02	 0.00000000E+00	 0.00000000E+00	 1.58316000E-02
					 0.00000000E+00	 0.00000000E+00	 1.58316000E-02	 0.00000000E+00	 0.00000000E+00	 1.59469000E-09	 1.58316000E-02	 0.00000000E+00	 0.00000000E+00	 1.58316000E-02
					 0.00000000E+00	 0.00000000E+00	 1.58317000E-02	 0.00000000E+00	 0.00000000E+00	 1.58606000E-09	 1.58317000E-02	 0.00000000E+00	 0.00000000E+00	 1.58317000E-02
					 0.00000000E+00	 0.00000000E+00	 1.58317000E-02	 0.00000000E+00	 0.00000000E+00	 1.57742000E-09	 1.58317000E-02	 0.00000000E+00	 0.00000000E+00	 1.58317000E-02
					 0.00000000E+00	 0.00000000E+00	 1.58317000E-02	 0.00000000E+00	 0.00000000E+00	 1.58712000E-09	 1.58317000E-02	 0.00000000E+00	 0.00000000E+00	 1.58317000E-02
					 0.00000000E+00	 0.00000000E+00	 1.58318000E-02	 0.00000000E+00	 0.00000000E+00	 1.59683000E-09	 1.58318000E-02	 0.00000000E+00	 0.00000000E+00	 1.58318000E-02
					 0.00000000E+00	 0.00000000E+00	 1.58318000E-02	 0.00000000E+00	 0.00000000E+00	 1.59131000E-09	 1.58318000E-02	 0.00000000E+00	 0.00000000E+00	 1.58318000E-02
					 0.00000000E+00	 0.00000000E+00	 1.58317000E-02	 0.00000000E+00	 0.00000000E+00	 1.58578000E-09	 1.58317000E-02	 0.00000000E+00	 0.00000000E+00	 1.58317000E-02
					 0.00000000E+00	 0.00000000E+00	 1.58317000E-02	 0.00000000E+00	 0.00000000E+00	 1.58204000E-09	 1.58317000E-02	 0.00000000E+00	 0.00000000E+00	 1.58317000E-02
					 0.00000000E+00	 0.00000000E+00	 1.58317000E-02	 0.00000000E+00	 0.00000000E+00	 1.57829000E-09	 1.58317000E-02	 0.00000000E+00	 0.00000000E+00	 1.58317000E-02
					 2.39689000E-09	 0.00000000E+00	 1.58317000E-02	 0.00000000E+00	 0.00000000E+00	 1.57168000E-09	 1.58316988E-02	 0.00000000E+00	 2.39688992E-09	 1.58317000E-02
					 4.78503000E-09	 0.00000000E+00	 1.58318000E-02	 0.00000000E+00	 0.00000000E+00	 1.56507000E-09	 1.58317976E-02	 0.00000000E+00	 4.78503001E-09	 1.58318000E-02
				</DataArray>
			</PointData>
		</Piece>
	</UnstructuredGrid>
</VTKFile>