# vtk DataFile Version 3.0

ASCII
DATASET UNSTRUCTURED_GRID

POINTS 282 double
	 0.00000000E+00	 0.00000000E+00	 0.00000000E+00
	 1.00000000E+00	 0.00000000E+00	 0.00000000E+00
	 1.00000000E+00	 1.00000000E+00	 0.00000000E+00
	 0.00000000E+00	 1.00000000E+00	 0.00000000E+00
	 2.50000000E-01	 0.00000000E+00	 0.00000000E+00
	 5.00000000E-01	 0.00000000E+00	 0.00000000E+00
	 7.50000000E-01	 0.00000000E+00	 0.00000000E+00
	 1.00000000E+00	 2.50000000E-01	 0.00000000E+00
	 1.00000000E+00	 5.00000000E-01	 0.00000000E+00
	 1.00000000E+00	 7.50000000E-01	 0.00000000E+00
	 7.50000000E-01	 1.00000000E+00	 0.00000000E+00
	 5.00000000E-01	 1.00000000E+00	 0.00000000E+00
	 2.50000000E-01	 1.00000000E+00	 0.00000000E+00
	 0.00000000E+00	 7.50000000E-01	 0.00000000E+00
	 0.00000000E+00	 5.00000000E-01	 0.00000000E+00
	 0.00000000E+00	 2.50000000E-01	 0.00000000E+00
	 1.00000000E+00	 0.00000000E+00	 5.00000000E-01
	 1.00000000E+00	 0.00000000E+00	 1.00000000E+00
	 1.00000000E+00	 0.00000000E+00	 1.50000000E+00
	 1.00000000E+00	 0.00000000E+00	 2.00000000E+00
	 1.00000000E+00	 0.00000000E+00	 2.50000000E+00
	 1.00000000E+00	 0.00000000E+00	 3.00000000E+00
	 1.00000000E+00	 0.00000000E+00	 3.50000000E+00
	 1.00000000E+00	 0.00000000E+00	 4.00000000E+00
	 0.00000000E+00	 0.00000000E+00	 4.00000000E+00
	 0.00000000E+00	 0.00000000E+00	 3.50000000E+00
	 0.00000000E+00	 0.00000000E+00	 3.00000000E+00
	 0.00000000E+00	 0.00000000E+00	 2.50000000E+00
	 0.00000000E+00	 0.00000000E+00	 2.00000000E+00
	 0.00000000E+00	 0.00000000E+00	 1.50000000E+00
	 0.00000000E+00	 0.00000000E+00	 1.00000000E+00
	 0.00000000E+00	 0.00000000E+00	 5.00000000E-01
	 1.00000000E+00	 1.00000000E+00	 5.00000000E-01
	 1.00000000E+00	 1.00000000E+00	 1.00000000E+00
	 1.00000000E+00	 1.00000000E+00	 1.50000000E+00
	 1.00000000E+00	 1.00000000E+00	 2.00000000E+00
	 1.00000000E+00	 1.00000000E+00	 2.50000000E+00
	 1.00000000E+00	 1.00000000E+00	 3.00000000E+00
	 1.00000000E+00	 1.00000000E+00	 3.50000000E+00
	 1.00000000E+00	 1.00000000E+00	 4.00000000E+00
	 0.00000000E+00	 1.00000000E+00	 5.00000000E-01
	 0.00000000E+00	 1.00000000E+00	 1.00000000E+00
	 0.00000000E+00	 1.00000000E+00	 1.50000000E+00
	 0.00000000E+00	 1.00000000E+00	 2.00000000E+00
	 0.00000000E+00	 1.00000000E+00	 2.50000000E+00
	 0.00000000E+00	 1.00000000E+00	 3.00000000E+00
	 0.00000000E+00	 1.00000000E+00	 3.50000000E+00
	 0.00000000E+00	 1.00000000E+00	 4.00000000E+00
	 5.00000000E-01	 2.50000000E-01	 0.00000000E+00
	 2.50000000E-01	 5.00000000E-01	 0.00000000E+00
	 5.00000000E-01	 5.00000000E-01	 0.00000000E+00
	 7.50000000E-01	 5.00000000E-01	 0.00000000E+00
	 5.00000000E-01	 7.50000000E-01	 0.00000000E+00
	 5.00000000E-01	 0.00000000E+00	 5.00000000E-01
	 2.50000000E-01	 0.00000000E+00	 1.00000000E+00
	 5.00000000E-01	 0.00000000E+00	 1.00000000E+00
	 7.50000000E-01	 0.00000000E+00	 1.00000000E+00
	 5.00000000E-01	 0.00000000E+00	 1.50000000E+00
	 2.50000000E-01	 0.00000000E+00	 2.00000000E+00
	 5.00000000E-01	 0.00000000E+00	 2.00000000E+00
	 7.50000000E-01	 0.00000000E+00	 2.00000000E+00
	 5.00000000E-01	 0.00000000E+00	 2.50000000E+00
	 2.50000000E-01	 0.00000000E+00	 3.00000000E+00
	 5.00000000E-01	 0.00000000E+00	 3.00000000E+00
	 7.50000000E-01	 0.00000000E+00	 3.00000000E+00
	 5.00000000E-01	 0.00000000E+00	 3.50000000E+00
	 2.50000000E-01	 0.00000000E+00	 4.00000000E+00
	 5.00000000E-01	 0.00000000E+00	 4.00000000E+00
	 7.50000000E-01	 0.00000000E+00	 4.00000000E+00
	 1.00000000E+00	 5.00000000E-01	 5.00000000E-01
	 1.00000000E+00	 2.50000000E-01	 1.00000000E+00
	 1.00000000E+00	 5.00000000E-01	 1.00000000E+00
	 1.00000000E+00	 7.50000000E-01	 1.00000000E+00
	 1.00000000E+00	 5.00000000E-01	 1.50000000E+00
	 1.00000000E+00	 2.50000000E-01	 2.00000000E+00
	 1.00000000E+00	 5.00000000E-01	 2.00000000E+00
	 1.00000000E+00	 7.50000000E-01	 2.00000000E+00
	 1.00000000E+00	 5.00000000E-01	 2.50000000E+00
	 1.00000000E+00	 2.50000000E-01	 3.00000000E+00
	 1.00000000E+00	 5.00000000E-01	 3.00000000E+00
	 1.00000000E+00	 7.50000000E-01	 3.00000000E+00
	 1.00000000E+00	 5.00000000E-01	 3.50000000E+00
	 1.00000000E+00	 2.50000000E-01	 4.00000000E+00
	 1.00000000E+00	 5.00000000E-01	 4.00000000E+00
	 1.00000000E+00	 7.50000000E-01	 4.00000000E+00
	 5.00000000E-01	 1.00000000E+00	 5.00000000E-01
	 7.50000000E-01	 1.00000000E+00	 1.00000000E+00
	 5.00000000E-01	 1.00000000E+00	 1.00000000E+00
	 2.50000000E-01	 1.00000000E+00	 1.00000000E+00
	 5.00000000E-01	 1.00000000E+00	 1.50000000E+00
	 7.50000000E-01	 1.00000000E+00	 2.00000000E+00
	 5.00000000E-01	 1.00000000E+00	 2.00000000E+00
	 2.50000000E-01	 1.00000000E+00	 2.00000000E+00
	 5.00000000E-01	 1.00000000E+00	 2.50000000E+00
	 7.50000000E-01	 1.00000000E+00	 3.00000000E+00
	 5.00000000E-01	 1.00000000E+00	 3.00000000E+00
	 2.50000000E-01	 1.00000000E+00	 3.00000000E+00
	 5.00000000E-01	 1.00000000E+00	 3.50000000E+00
	 7.50000000E-01	 1.00000000E+00	 4.00000000E+00
	 5.00000000E-01	 1.00000000E+00	 4.00000000E+00
	 2.50000000E-01	 1.00000000E+00	 4.00000000E+00
	 0.00000000E+00	 5.00000000E-01	 5.00000000E-01
	 0.00000000E+00	 7.50000000E-01	 1.00000000E+00
	 0.00000000E+00	 5.00000000E-01	 1.00000000E+00
	 0.00000000E+00	 2.50000000E-01	 1.00000000E+00
	 0.00000000E+00	 5.00000000E-01	 1.50000000E+00
	 0.00000000E+00	 7.50000000E-01	 2.00000000E+00
	 0.00000000E+00	 5.00000000E-01	 2.00000000E+00
	 0.00000000E+00	 2.50000000E-01	 2.00000000E+00
	 0.00000000E+00	 5.00000000E-01	 2.50000000E+00
	 0.00000000E+00	 7.50000000E-01	 3.00000000E+00
	 0.00000000E+00	 5.00000000E-01	 3.00000000E+00
	 0.00000000E+00	 2.50000000E-01	 3.00000000E+00
	 0.00000000E+00	 5.00000000E-01	 3.50000000E+00
	 0.00000000E+00	 7.50000000E-01	 4.00000000E+00
	 0.00000000E+00	 5.00000000E-01	 4.00000000E+00
	 0.00000000E+00	 2.50000000E-01	 4.00000000E+00
	 5.00000000E-01	 5.00000000E-01	 5.00000000E-01
	 5.00000000E-01	 2.50000000E-01	 1.00000000E+00
	 2.50000000E-01	 5.00000000E-01	 1.00000000E+00
	 5.00000000E-01	 5.00000000E-01	 1.00000000E+00
	 7.50000000E-01	 5.00000000E-01	 1.00000000E+00
	 5.00000000E-01	 7.50000000E-01	 1.00000000E+00
	 5.00000000E-01	 5.00000000E-01	 1.50000000E+00
	 5.00000000E-01	 2.50000000E-01	 2.00000000E+00
	 2.50000000E-01	 5.00000000E-01	 2.00000000E+00
	 5.00000000E-01	 5.00000000E-01	 2.00000000E+00
	 7.50000000E-01	 5.00000000E-01	 2.00000000E+00
	 5.00000000E-01	 7.50000000E-01	 2.00000000E+00
	 5.00000000E-01	 5.00000000E-01	 2.50000000E+00
	 5.00000000E-01	 2.50000000E-01	 3.00000000E+00
	 2.50000000E-01	 5.00000000E-01	 3.00000000E+00
	 5.00000000E-01	 5.00000000E-01	 3.00000000E+00
	 7.50000000E-01	 5.00000000E-01	 3.00000000E+00
	 5.00000000E-01	 7.50000000E-01	 3.00000000E+00
	 5.00000000E-01	 5.00000000E-01	 3.50000000E+00
	 5.00000000E-01	 2.50000000E-01	 4.00000000E+00
	 2.50000000E-01	 5.00000000E-01	 4.00000000E+00
	 5.00000000E-01	 5.00000000E-01	 4.00000000E+00
	 7.50000000E-01	 5.00000000E-01	 4.00000000E+00
	 5.00000000E-01	 7.50000000E-01	 4.00000000E+00
	 0.00000000E+00	 0.00000000E+00	 8.00000000E+00
	 1.00000000E+00	 0.00000000E+00	 8.00000000E+00
	 1.00000000E+00	 1.00000000E+00	 8.00000000E+00
	 0.00000000E+00	 1.00000000E+00	 8.00000000E+00
	 2.50000000E-01	 0.00000000E+00	 8.00000000E+00
	 5.00000000E-01	 0.00000000E+00	 8.00000000E+00
	 7.50000000E-01	 0.00000000E+00	 8.00000000E+00
	 1.00000000E+00	 2.50000000E-01	 8.00000000E+00
	 1.00000000E+00	 5.00000000E-01	 8.00000000E+00
	 1.00000000E+00	 7.50000000E-01	 8.00000000E+00
	 7.50000000E-01	 1.00000000E+00	 8.00000000E+00
	 5.00000000E-01	 1.00000000E+00	 8.00000000E+00
	 2.50000000E-01	 1.00000000E+00	 8.00000000E+00
	 0.00000000E+00	 7.50000000E-01	 8.00000000E+00
	 0.00000000E+00	 5.00000000E-01	 8.00000000E+00
	 0.00000000E+00	 2.50000000E-01	 8.00000000E+00
	 1.00000000E+00	 0.00000000E+00	 4.00000000E+00
	 1.00000000E+00	 0.00000000E+00	 4.50000000E+00
	 1.00000000E+00	 0.00000000E+00	 5.00000000E+00
	 1.00000000E+00	 0.00000000E+00	 5.50000000E+00
	 1.00000000E+00	 0.00000000E+00	 6.00000000E+00
	 1.00000000E+00	 0.00000000E+00	 6.50000000E+00
	 1.00000000E+00	 0.00000000E+00	 7.00000000E+00
	 1.00000000E+00	 0.00000000E+00	 7.50000000E+00
	 0.00000000E+00	 0.00000000E+00	 7.50000000E+00
	 0.00000000E+00	 0.00000000E+00	 7.00000000E+00
	 0.00000000E+00	 0.00000000E+00	 6.50000000E+00
	 0.00000000E+00	 0.00000000E+00	 6.00000000E+00
	 0.00000000E+00	 0.00000000E+00	 5.50000000E+00
	 0.00000000E+00	 0.00000000E+00	 5.00000000E+00
	 0.00000000E+00	 0.00000000E+00	 4.50000000E+00
	 0.00000000E+00	 0.00000000E+00	 4.00000000E+00
	 1.00000000E+00	 1.00000000E+00	 4.00000000E+00
	 1.00000000E+00	 1.00000000E+00	 4.50000000E+00
	 1.00000000E+00	 1.00000000E+00	 5.00000000E+00
	 1.00000000E+00	 1.00000000E+00	 5.50000000E+00
	 1.00000000E+00	 1.00000000E+00	 6.00000000E+00
	 1.00000000E+00	 1.00000000E+00	 6.50000000E+00
	 1.00000000E+00	 1.00000000E+00	 7.00000000E+00
	 1.00000000E+00	 1.00000000E+00	 7.50000000E+00
	 0.00000000E+00	 1.00000000E+00	 4.00000000E+00
	 0.00000000E+00	 1.00000000E+00	 4.50000000E+00
	 0.00000000E+00	 1.00000000E+00	 5.00000000E+00
	 0.00000000E+00	 1.00000000E+00	 5.50000000E+00
	 0.00000000E+00	 1.00000000E+00	 6.00000000E+00
	 0.00000000E+00	 1.00000000E+00	 6.50000000E+00
	 0.00000000E+00	 1.00000000E+00	 7.00000000E+00
	 0.00000000E+00	 1.00000000E+00	 7.50000000E+00
	 5.00000000E-01	 2.50000000E-01	 8.00000000E+00
	 2.50000000E-01	 5.00000000E-01	 8.00000000E+00
	 5.00000000E-01	 5.00000000E-01	 8.00000000E+00
	 7.50000000E-01	 5.00000000E-01	 8.00000000E+00
	 5.00000000E-01	 7.50000000E-01	 8.00000000E+00
	 2.50000000E-01	 0.00000000E+00	 4.00000000E+00
	 5.00000000E-01	 0.00000000E+00	 4.00000000E+00
	 7.50000000E-01	 0.00000000E+00	 4.00000000E+00
	 5.00000000E-01	 0.00000000E+00	 4.50000000E+00
	 2.50000000E-01	 0.00000000E+00	 5.00000000E+00
	 5.00000000E-01	 0.00000000E+00	 5.00000000E+00
	 7.50000000E-01	 0.00000000E+00	 5.00000000E+00
	 5.00000000E-01	 0.00000000E+00	 5.50000000E+00
	 2.50000000E-01	 0.00000000E+00	 6.00000000E+00
	 5.00000000E-01	 0.00000000E+00	 6.00000000E+00
	 7.50000000E-01	 0.00000000E+00	 6.00000000E+00
	 5.00000000E-01	 0.00000000E+00	 6.50000000E+00
	 2.50000000E-01	 0.00000000E+00	 7.00000000E+00
	 5.00000000E-01	 0.00000000E+00	 7.00000000E+00
	 7.50000000E-01	 0.00000000E+00	 7.00000000E+00
	 5.00000000E-01	 0.00000000E+00	 7.50000000E+00
	 1.00000000E+00	 2.50000000E-01	 4.00000000E+00
	 1.00000000E+00	 5.00000000E-01	 4.00000000E+00
	 1.00000000E+00	 7.50000000E-01	 4.00000000E+00
	 1.00000000E+00	 5.00000000E-01	 4.50000000E+00
	 1.00000000E+00	 2.50000000E-01	 5.00000000E+00
	 1.00000000E+00	 5.00000000E-01	 5.00000000E+00
	 1.00000000E+00	 7.50000000E-01	 5.00000000E+00
	 1.00000000E+00	 5.00000000E-01	 5.50000000E+00
	 1.00000000E+00	 2.50000000E-01	 6.00000000E+00
	 1.00000000E+00	 5.00000000E-01	 6.00000000E+00
	 1.00000000E+00	 7.50000000E-01	 6.00000000E+00
	 1.00000000E+00	 5.00000000E-01	 6.50000000E+00
	 1.00000000E+00	 2.50000000E-01	 7.00000000E+00
	 1.00000000E+00	 5.00000000E-01	 7.00000000E+00
	 1.00000000E+00	 7.50000000E-01	 7.00000000E+00
	 1.00000000E+00	 5.00000000E-01	 7.50000000E+00
	 7.50000000E-01	 1.00000000E+00	 4.00000000E+00
	 5.00000000E-01	 1.00000000E+00	 4.00000000E+00
	 2.50000000E-01	 1.00000000E+00	 4.00000000E+00
	 5.00000000E-01	 1.00000000E+00	 4.50000000E+00
	 7.50000000E-01	 1.00000000E+00	 5.00000000E+00
	 5.00000000E-01	 1.00000000E+00	 5.00000000E+00
	 2.50000000E-01	 1.00000000E+00	 5.00000000E+00
	 5.00000000E-01	 1.00000000E+00	 5.50000000E+00
	 7.50000000E-01	 1.00000000E+00	 6.00000000E+00
	 5.00000000E-01	 1.00000000E+00	 6.00000000E+00
	 2.50000000E-01	 1.00000000E+00	 6.00000000E+00
	 5.00000000E-01	 1.00000000E+00	 6.50000000E+00
	 7.50000000E-01	 1.00000000E+00	 7.00000000E+00
	 5.00000000E-01	 1.00000000E+00	 7.00000000E+00
	 2.50000000E-01	 1.00000000E+00	 7.00000000E+00
	 5.00000000E-01	 1.00000000E+00	 7.50000000E+00
	 0.00000000E+00	 7.50000000E-01	 4.00000000E+00
	 0.00000000E+00	 5.00000000E-01	 4.00000000E+00
	 0.00000000E+00	 2.50000000E-01	 4.00000000E+00
	 0.00000000E+00	 5.00000000E-01	 4.50000000E+00
	 0.00000000E+00	 7.50000000E-01	 5.00000000E+00
	 0.00000000E+00	 5.00000000E-01	 5.00000000E+00
	 0.00000000E+00	 2.50000000E-01	 5.00000000E+00
	 0.00000000E+00	 5.00000000E-01	 5.50000000E+00
	 0.00000000E+00	 7.50000000E-01	 6.00000000E+00
	 0.00000000E+00	 5.00000000E-01	 6.00000000E+00
	 0.00000000E+00	 2.50000000E-01	 6.00000000E+00
	 0.00000000E+00	 5.00000000E-01	 6.50000000E+00
	 0.00000000E+00	 7.50000000E-01	 7.00000000E+00
	 0.00000000E+00	 5.00000000E-01	 7.00000000E+00
	 0.00000000E+00	 2.50000000E-01	 7.00000000E+00
	 0.00000000E+00	 5.00000000E-01	 7.50000000E+00
	 5.00000000E-01	 2.50000000E-01	 4.00000000E+00
	 2.50000000E-01	 5.00000000E-01	 4.00000000E+00
	 5.00000000E-01	 5.00000000E-01	 4.00000000E+00
	 7.50000000E-01	 5.00000000E-01	 4.00000000E+00
	 5.00000000E-01	 7.50000000E-01	 4.00000000E+00
	 5.00000000E-01	 5.00000000E-01	 4.50000000E+00
	 5.00000000E-01	 2.50000000E-01	 5.00000000E+00
	 2.50000000E-01	 5.00000000E-01	 5.00000000E+00
	 5.00000000E-01	 5.00000000E-01	 5.00000000E+00
	 7.50000000E-01	 5.00000000E-01	 5.00000000E+00
	 5.00000000E-01	 7.50000000E-01	 5.00000000E+00
	 5.00000000E-01	 5.00000000E-01	 5.50000000E+00
	 5.00000000E-01	 2.50000000E-01	 6.00000000E+00
	 2.50000000E-01	 5.00000000E-01	 6.00000000E+00
	 5.00000000E-01	 5.00000000E-01	 6.00000000E+00
	 7.50000000E-01	 5.00000000E-01	 6.00000000E+00
	 5.00000000E-01	 7.50000000E-01	 6.00000000E+00
	 5.00000000E-01	 5.00000000E-01	 6.50000000E+00
	 5.00000000E-01	 2.50000000E-01	 7.00000000E+00
	 2.50000000E-01	 5.00000000E-01	 7.00000000E+00
	 5.00000000E-01	 5.00000000E-01	 7.00000000E+00
	 7.50000000E-01	 5.00000000E-01	 7.00000000E+00
	 5.00000000E-01	 7.50000000E-01	 7.00000000E+00
	 5.00000000E-01	 5.00000000E-01	 7.50000000E+00

CELLS 32 672
	20 0 5 50 14 30 55 120 103 4 48 49 15 54 118 119 104 31 53 117 101 
	20 5 1 8 50 55 17 71 120 6 7 51 48 56 70 121 118 53 16 69 117 
	20 14 50 11 3 103 120 87 41 49 52 12 13 119 122 88 102 101 117 85 40 
	20 50 8 2 11 120 71 33 87 51 9 10 52 121 72 86 122 117 69 32 85 
	20 30 55 120 103 28 59 126 107 54 118 119 104 58 124 125 108 29 57 123 105 
	20 55 17 71 120 59 19 75 126 56 70 121 118 60 74 127 124 57 18 73 123 
	20 103 120 87 41 107 126 91 43 119 122 88 102 125 128 92 106 105 123 89 42 
	20 120 71 33 87 126 75 35 91 121 72 86 122 127 76 90 128 123 73 34 89 
	20 28 59 126 107 26 63 132 111 58 124 125 108 62 130 131 112 27 61 129 109 
	20 59 19 75 126 63 21 79 132 60 74 127 124 64 78 133 130 61 20 77 129 
	20 107 126 91 43 111 132 95 45 125 128 92 106 131 134 96 110 109 129 93 44 
	20 126 75 35 91 132 79 37 95 127 76 90 128 133 80 94 134 129 77 36 93 
	20 26 63 132 111 24 67 138 115 62 130 131 112 66 136 137 116 25 65 135 113 
	20 63 21 79 132 67 23 83 138 64 78 133 130 68 82 139 136 65 22 81 135 
	20 111 132 95 45 115 138 99 47 131 134 96 110 137 140 100 114 113 135 97 46 
	20 132 79 37 95 138 83 39 99 133 80 94 134 139 84 98 140 135 81 38 97 
	20 172 195 260 243 170 199 266 247 194 258 259 244 198 264 265 248 171 197 263 245 
	20 195 157 211 260 199 159 215 266 196 210 261 258 200 214 267 264 197 158 213 263 
	20 243 260 227 181 247 266 231 183 259 262 228 242 265 268 232 246 245 263 229 182 
	20 260 211 173 227 266 215 175 231 261 212 226 262 267 216 230 268 263 213 174 229 
	20 170 199 266 247 168 203 272 251 198 264 265 248 202 270 271 252 169 201 269 249 
	20 199 159 215 266 203 161 219 272 200 214 267 264 204 218 273 270 201 160 217 269 
	20 247 266 231 183 251 272 235 185 265 268 232 246 271 274 236 250 249 269 233 184 
	20 266 215 175 231 272 219 177 235 267 216 230 268 273 220 234 274 269 217 176 233 
	20 168 203 272 251 166 207 278 255 202 270 271 252 206 276 277 256 167 205 275 253 
	20 203 161 219 272 207 163 223 278 204 218 273 270 208 222 279 276 205 162 221 275 
	20 251 272 235 185 255 278 239 187 271 274 236 250 277 280 240 254 253 275 237 186 
	20 272 219 177 235 278 223 179 239 273 220 234 274 279 224 238 280 275 221 178 237 
	20 166 207 278 255 141 146 191 155 206 276 277 256 145 189 190 156 165 209 281 257 
	20 207 163 223 278 146 142 149 191 208 222 279 276 147 148 192 189 209 164 225 281 
	20 255 278 239 187 155 191 152 144 277 280 240 254 190 193 153 154 257 281 241 188 
	20 278 223 179 239 191 149 143 152 279 224 238 280 192 150 151 193 281 225 180 241 

CELL_TYPES 32
	25
	25
	25
	25
	25
	25
	25
	25
	25
	25
	25
	25
	25
	25
	25
	25
	25
	25
	25
	25
	25
	25
	25
	25
	25
	25
	25
	25
	25
	25
	25
	25

POINT_DATA 282
FIELD U 1
	U 3 282 double
		 0.00000000E+00	 0.00000000E+00	 0.00000000E+00
		 0.00000000E+00	 0.00000000E+00	 0.00000000E+00
		 0.00000000E+00	 0.00000000E+00	 0.00000000E+00
		 0.00000000E+00	 0.00000000E+00	 0.00000000E+00
		 0.00000000E+00	 0.00000000E+00	 0.00000000E+00
		 0.00000000E+00	 0.00000000E+00	 0.00000000E+00
		 0.00000000E+00	 0.00000000E+00	 0.00000000E+00
		 0.00000000E+00	 0.00000000E+00	 0.00000000E+00
		 0.00000000E+00	 0.00000000E+00	 0.00000000E+00
		 0.00000000E+00	 0.00000000E+00	 0.00000000E+00
		 0.00000000E+00	 0.00000000E+00	 0.00000000E+00
		 0.00000000E+00	 0.00000000E+00	 0.00000000E+00
		 0.00000000E+00	 0.00000000E+00	 0.00000000E+00
		 0.00000000E+00	 0.00000000E+00	 0.00000000E+00
		 0.00000000E+00	 0.00000000E+00	 0.00000000E+00
		 0.00000000E+00	 0.00000000E+00	 0.00000000E+00
		 8.14486000E-04	-8.14486000E-04	-1.95848000E-04
		 6.11865000E-04	-6.11865000E-04	-3.63700000E-04
		 7.48332000E-04	-7.48332000E-04	-6.75210000E-04
		 7.16970000E-04	-7.16970000E-04	-9.33562000E-04
		 7.34544000E-04	-7.34544000E-04	-1.21905000E-03
		 7.66018000E-04	-7.66018000E-04	-1.48443000E-03
		 6.96847000E-04	-6.96847000E-04	-1.84778000E-03
		 9.79969000E-04	-9.79969000E-04	-2.32987000E-03
		-9.79969000E-04	-9.79969000E-04	-2.32987000E-03
		-6.96847000E-04	-6.96847000E-04	-1.84778000E-03
		-7.66018000E-04	-7.66018000E-04	-1.48443000E-03
		-7.34544000E-04	-7.34544000E-04	-1.21905000E-03
		-7.16970000E-04	-7.16970000E-04	-9.33562000E-04
		-7.48332000E-04	-7.48332000E-04	-6.75210000E-04
		-6.11865000E-04	-6.11865000E-04	-3.63700000E-04
		-8.14486000E-04	-8.14486000E-04	-1.95848000E-04
		 8.14486000E-04	 8.14486000E-04	-1.95848000E-04
		 6.11865000E-04	 6.11865000E-04	-3.63700000E-04
		 7.48332000E-04	 7.48332000E-04	-6.75210000E-04
		 7.16970000E-04	 7.16970000E-04	-9.33562000E-04
		 7.34544000E-04	 7.34544000E-04	-1.21905000E-03
		 7.66018000E-04	 7.66018000E-04	-1.48443000E-03
		 6.96847000E-04	 6.96847000E-04	-1.84778000E-03
		 9.79969000E-04	 9.79969000E-04	-2.32987000E-03
		-8.14486000E-04	 8.14486000E-04	-1.95848000E-04
		-6.11865000E-04	 6.11865000E-04	-3.63700000E-04
		-7.48332000E-04	 7.48332000E-04	-6.75210000E-04
		-7.16970000E-04	 7.16970000E-04	-9.33562000E-04
		-7.34544000E-04	 7.34544000E-04	-1.21905000E-03
		-7.66018000E-04	 7.66018000E-04	-1.48443000E-03
		-6.96847000E-04	 6.96847000E-04	-1.84778000E-03
		-9.79969000E-04	 9.79969000E-04	-2.32987000E-03
		 0.00000000E+00	 0.00000000E+00	 0.00000000E+00
		 0.00000000E+00	 0.00000000E+00	 0.00000000E+00
		 0.00000000E+00	 0.00000000E+00	 0.00000000E+00
		 0.00000000E+00	 0.00000000E+00	 0.00000000E+00
		 0.00000000E+00	 0.00000000E+00	 0.00000000E+00
		 0.00000000E+00	-8.15545000E-04	-7.71461000E-05
		-3.07952000E-04	-6.24900000E-04	-3.84171000E-04
		 0.00000000E+00	-6.40485000E-04	-4.17392000E-04
		 3.07952000E-04	-6.24900000E-04	-3.84171000E-04
		 0.00000000E+00	-7.35468000E-04	-6.63295000E-04
		-3.58369000E-04	-7.26087000E-04	-9.40142000E-04
		 0.00000000E+00	-7.35091000E-04	-9.52276000E-04
		 3.58369000E-04	-7.26087000E-04	-9.40142000E-04
		 0.00000000E+00	-7.30501000E-04	-1.21429000E-03
		-3.79556000E-04	-7.74442000E-04	-1.50185000E-03
		 0.00000000E+00	-7.81496000E-04	-1.49717000E-03
		 3.79556000E-04	-7.74442000E-04	-1.50185000E-03
		 0.00000000E+00	-6.75881000E-04	-1.78827000E-03
		-4.89719000E-04	-9.83341000E-04	-2.20300000E-03
		 0.00000000E+00	-9.86586000E-04	-2.17301000E-03
		 4.89719000E-04	-9.83341000E-04	-2.20300000E-03
		 8.15545000E-04	 0.00000000E+00	-7.71461000E-05
		 6.24900000E-04	-3.07952000E-04	-3.84171000E-04
		 6.40485000E-04	 0.00000000E+00	-4.17392000E-04
		 6.24900000E-04	 3.07952000E-04	-3.84171000E-04
		 7.35468000E-04	 0.00000000E+00	-6.63295000E-04
		 7.26087000E-04	-3.58369000E-04	-9.40142000E-04
		 7.35091000E-04	 0.00000000E+00	-9.52276000E-04
		 7.26087000E-04	 3.58369000E-04	-9.40142000E-04
		 7.30501000E-04	 0.00000000E+00	-1.21429000E-03
		 7.74442000E-04	-3.79556000E-04	-1.50185000E-03
		 7.81496000E-04	 0.00000000E+00	-1.49717000E-03
		 7.74442000E-04	 3.79556000E-04	-1.50185000E-03
		 6.75881000E-04	 0.00000000E+00	-1.78827000E-03
		 9.83341000E-04	-4.89719000E-04	-2.20300000E-03
		 9.86586000E-04	 0.00000000E+00	-2.17301000E-03
		 9.83341000E-04	 4.89719000E-04	-2.20300000E-03
		 0.00000000E+00	 8.15545000E-04	-7.71461000E-05
		 3.07952000E-04	 6.24900000E-04	-3.84171000E-04
		 0.00000000E+00	 6.40485000E-04	-4.17392000E-04
		-3.07952000E-04	 6.24900000E-04	-3.84171000E-04
		 0.00000000E+00	 7.35468000E-04	-6.63295000E-04
		 3.58369000E-04	 7.26087000E-04	-9.40142000E-04
		 0.00000000E+00	 7.35091000E-04	-9.52276000E-04
		-3.58369000E-04	 7.26087000E-04	-9.40142000E-04
		 0.00000000E+00	 7.30501000E-04	-1.21429000E-03
		 3.79556000E-04	 7.74442000E-04	-1.50185000E-03
		 0.00000000E+00	 7.81496000E-04	-1.49717000E-03
		-3.79556000E-04	 7.74442000E-04	-1.50185000E-03
		 0.00000000E+00	 6.75881000E-04	-1.78827000E-03
		 4.89719000E-04	 9.83341000E-04	-2.20300000E-03
		 0.00000000E+00	 9.86586000E-04	-2.17301000E-03
		-4.89719000E-04	 9.83341000E-04	-2.20300000E-03
		-8.15545000E-04	 0.00000000E+00	-7.71461000E-05
		-6.24900000E-04	 3.07952000E-04	-3.84171000E-04
		-6.40485000E-04	 0.00000000E+00	-4.17392000E-04
		-6.24900000E-04	-3.07952000E-04	-3.84171000E-04
		-7.35468000E-04	 0.00000000E+00	-6.63295000E-04
		-7.26087000E-04	 3.58369000E-04	-9.40142000E-04
		-7.35091000E-04	 0.00000000E+00	-9.52276000E-04
		-7.26087000E-04	-3.58369000E-04	-9.40142000E-04
		-7.30501000E-04	 0.00000000E+00	-1.21429000E-03
		-7.74442000E-04	 3.79556000E-04	-1.50185000E-03
		-7.81496000E-04	 0.00000000E+00	-1.49717000E-03
		-7.74442000E-04	-3.79556000E-04	-1.50185000E-03
		-6.75881000E-04	 0.00000000E+00	-1.78827000E-03
		-9.83341000E-04	 4.89719000E-04	-2.20300000E-03
		-9.86586000E-04	 0.00000000E+00	-2.17301000E-03
		-9.83341000E-04	-4.89719000E-04	-2.20300000E-03
		 0.00000000E+00	 0.00000000E+00	 4.76208000E-05
		 0.00000000E+00	-3.20465000E-04	-4.42462000E-04
		-3.20465000E-04	 0.00000000E+00	-4.42462000E-04
		 0.00000000E+00	 0.00000000E+00	-4.78538000E-04
		 3.20465000E-04	 0.00000000E+00	-4.42462000E-04
		 0.00000000E+00	 3.20465000E-04	-4.42462000E-04
		 0.00000000E+00	 0.00000000E+00	-6.52456000E-04
		 0.00000000E+00	-3.67481000E-04	-9.55256000E-04
		-3.67481000E-04	 0.00000000E+00	-9.55256000E-04
		 0.00000000E+00	 0.00000000E+00	-9.66076000E-04
		 3.67481000E-04	 0.00000000E+00	-9.55256000E-04
		 0.00000000E+00	 3.67481000E-04	-9.55256000E-04
		 0.00000000E+00	 0.00000000E+00	-1.20944000E-03
		 0.00000000E+00	-3.88269000E-04	-1.51881000E-03
		-3.88269000E-04	 0.00000000E+00	-1.51881000E-03
		 0.00000000E+00	 0.00000000E+00	-1.51372000E-03
		 3.88269000E-04	 0.00000000E+00	-1.51881000E-03
		 0.00000000E+00	 3.88269000E-04	-1.51881000E-03
		 0.00000000E+00	 0.00000000E+00	-1.73201000E-03
		 0.00000000E+00	-4.93161000E-04	-2.03628000E-03
		-4.93161000E-04	 0.00000000E+00	-2.03628000E-03
		 0.00000000E+00	 0.00000000E+00	-2.00275000E-03
		 4.93161000E-04	 0.00000000E+00	-2.03628000E-03
		 0.00000000E+00	 4.93161000E-04	-2.03628000E-03
		 0.00000000E+00	 0.00000000E+00	 0.00000000E+00
		 0.00000000E+00	 0.00000000E+00	 0.00000000E+00
		 0.00000000E+00	 0.00000000E+00	 0.00000000E+00
		 0.00000000E+00	 0.00000000E+00	 0.00000000E+00
		 0.00000000E+00	 0.00000000E+00	 0.00000000E+00
		 0.00000000E+00	 0.00000000E+00	 0.00000000E+00
		 0.00000000E+00	 0.00000000E+00	 0.00000000E+00
		 0.00000000E+00	 0.00000000E+00	 0.00000000E+00
		 0.00000000E+00	 0.00000000E+00	 0.00000000E+00
		 0.00000000E+00	 0.00000000E+00	 0.00000000E+00
		 0.00000000E+00	 0.00000000E+00	 0.00000000E+00
		 0.00000000E+00	 0.00000000E+00	 0.00000000E+00
		 0.00000000E+00	 0.00000000E+00	 0.00000000E+00
		 0.00000000E+00	 0.00000000E+00	 0.00000000E+00
		 0.00000000E+00	 0.00000000E+00	 0.00000000E+00
		 0.00000000E+00	 0.00000000E+00	 0.00000000E+00
		 9.79969000E-04	-9.79969000E-04	-2.32987000E-03
		 1.27492000E-03	-1.27492000E-03	-1.90729000E-03
		 1.18626000E-03	-1.18626000E-03	-1.60620000E-03
		 1.24205000E-03	-1.24205000E-03	-1.39349000E-03
		 1.18623000E-03	-1.18623000E-03	-1.19840000E-03
		 1.26060000E-03	-1.26060000E-03	-9.45138000E-04
		 1.02606000E-03	-1.02606000E-03	-7.66501000E-04
		 1.36959000E-03	-1.36959000E-03	-3.59703000E-04
		-1.36959000E-03	-1.36959000E-03	-3.59703000E-04
		-1.02606000E-03	-1.02606000E-03	-7.66501000E-04
		-1.26060000E-03	-1.26060000E-03	-9.45138000E-04
		-1.18623000E-03	-1.18623000E-03	-1.19840000E-03
		-1.24205000E-03	-1.24205000E-03	-1.39349000E-03
		-1.18626000E-03	-1.18626000E-03	-1.60620000E-03
		-1.27492000E-03	-1.27492000E-03	-1.90729000E-03
		-9.79969000E-04	-9.79969000E-04	-2.32987000E-03
		 9.79969000E-04	 9.79969000E-04	-2.32987000E-03
		 1.27492000E-03	 1.27492000E-03	-1.90729000E-03
		 1.18626000E-03	 1.18626000E-03	-1.60620000E-03
		 1.24205000E-03	 1.24205000E-03	-1.39349000E-03
		 1.18623000E-03	 1.18623000E-03	-1.19840000E-03
		 1.26060000E-03	 1.26060000E-03	-9.45138000E-04
		 1.02606000E-03	 1.02606000E-03	-7.66501000E-04
		 1.36959000E-03	 1.36959000E-03	-3.59703000E-04
		-9.79969000E-04	 9.79969000E-04	-2.32987000E-03
		-1.27492000E-03	 1.27492000E-03	-1.90729000E-03
		-1.18626000E-03	 1.18626000E-03	-1.60620000E-03
		-1.24205000E-03	 1.24205000E-03	-1.39349000E-03
		-1.18623000E-03	 1.18623000E-03	-1.19840000E-03
		-1.26060000E-03	 1.26060000E-03	-9.45138000E-04
		-1.02606000E-03	 1.02606000E-03	-7.66501000E-04
		-1.36959000E-03	 1.36959000E-03	-3.59703000E-04
		 0.00000000E+00	 0.00000000E+00	 0.00000000E+00
		 0.00000000E+00	 0.00000000E+00	 0.00000000E+00
		 0.00000000E+00	 0.00000000E+00	 0.00000000E+00
		 0.00000000E+00	 0.00000000E+00	 0.00000000E+00
		 0.00000000E+00	 0.00000000E+00	 0.00000000E+00
		-4.89719000E-04	-9.83341000E-04	-2.20300000E-03
		 0.00000000E+00	-9.86586000E-04	-2.17301000E-03
		 4.89719000E-04	-9.83341000E-04	-2.20300000E-03
		 0.00000000E+00	-1.28946000E-03	-1.84827000E-03
		-5.97339000E-04	-1.18873000E-03	-1.62141000E-03
		 0.00000000E+00	-1.19320000E-03	-1.61234000E-03
		 5.97339000E-04	-1.18873000E-03	-1.62141000E-03
		 0.00000000E+00	-1.23134000E-03	-1.39786000E-03
		-5.89485000E-04	-1.20452000E-03	-1.18372000E-03
		 0.00000000E+00	-1.22142000E-03	-1.17883000E-03
		 5.89485000E-04	-1.20452000E-03	-1.18372000E-03
		 0.00000000E+00	-1.23808000E-03	-9.60876000E-04
		-5.17259000E-04	-1.04899000E-03	-7.34736000E-04
		 0.00000000E+00	-1.07660000E-03	-6.77036000E-04
		 5.17259000E-04	-1.04899000E-03	-7.34736000E-04
		 0.00000000E+00	-1.37048000E-03	-5.59271000E-04
		 9.83341000E-04	-4.89719000E-04	-2.20300000E-03
		 9.86586000E-04	 0.00000000E+00	-2.17301000E-03
		 9.83341000E-04	 4.89719000E-04	-2.20300000E-03
		 1.28946000E-03	 0.00000000E+00	-1.84827000E-03
		 1.18873000E-03	-5.97339000E-04	-1.62141000E-03
		 1.19320000E-03	 0.00000000E+00	-1.61234000E-03
		 1.18873000E-03	 5.97339000E-04	-1.62141000E-03
		 1.23134000E-03	 0.00000000E+00	-1.39786000E-03
		 1.20452000E-03	-5.89485000E-04	-1.18372000E-03
		 1.22142000E-03	 0.00000000E+00	-1.17883000E-03
		 1.20452000E-03	 5.89485000E-04	-1.18372000E-03
		 1.23808000E-03	 0.00000000E+00	-9.60876000E-04
		 1.04899000E-03	-5.17259000E-04	-7.34736000E-04
		 1.07660000E-03	 0.00000000E+00	-6.77036000E-04
		 1.04899000E-03	 5.17259000E-04	-7.34736000E-04
		 1.37048000E-03	 0.00000000E+00	-5.59271000E-04
		 4.89719000E-04	 9.83341000E-04	-2.20300000E-03
		 0.00000000E+00	 9.86586000E-04	-2.17301000E-03
		-4.89719000E-04	 9.83341000E-04	-2.20300000E-03
		 0.00000000E+00	 1.28946000E-03	-1.84827000E-03
		 5.97339000E-04	 1.18873000E-03	-1.62141000E-03
		 0.00000000E+00	 1.19320000E-03	-1.61234000E-03
		-5.97339000E-04	 1.18873000E-03	-1.62141000E-03
		 0.00000000E+00	 1.23134000E-03	-1.39786000E-03
		 5.89485000E-04	 1.20452000E-03	-1.18372000E-03
		 0.00000000E+00	 1.22142000E-03	-1.17883000E-03
		-5.89485000E-04	 1.20452000E-03	-1.18372000E-03
		 0.00000000E+00	 1.23808000E-03	-9.60876000E-04
		 5.17259000E-04	 1.04899000E-03	-7.34736000E-04
		 0.00000000E+00	 1.07660000E-03	-6.77036000E-04
		-5.17259000E-04	 1.04899000E-03	-7.34736000E-04
		 0.00000000E+00	 1.37048000E-03	-5.59271000E-04
		-9.83341000E-04	 4.89719000E-04	-2.20300000E-03
		-9.86586000E-04	 0.00000000E+00	-2.17301000E-03
		-9.83341000E-04	-4.89719000E-04	-2.20300000E-03
		-1.28946000E-03	 0.00000000E+00	-1.84827000E-03
		-1.18873000E-03	 5.97339000E-04	-1.62141000E-03
		-1.19320000E-03	 0.00000000E+00	-1.61234000E-03
		-1.18873000E-03	-5.97339000E-04	-1.62141000E-03
		-1.23134000E-03	 0.00000000E+00	-1.39786000E-03
		-1.20452000E-03	 5.89485000E-04	-1.18372000E-03
		-1.22142000E-03	 0.00000000E+00	-1.17883000E-03
		-1.20452000E-03	-5.89485000E-04	-1.18372000E-03
		-1.23808000E-03	 0.00000000E+00	-9.60876000E-04
		-1.04899000E-03	 5.17259000E-04	-7.34736000E-04
		-1.07660000E-03	 0.00000000E+00	-6.77036000E-04
		-1.04899000E-03	-5.17259000E-04	-7.34736000E-04
		-1.37048000E-03	 0.00000000E+00	-5.59271000E-04
		 0.00000000E+00	-4.93161000E-04	-2.03628000E-03
		-4.93161000E-04	 0.00000000E+00	-2.03628000E-03
		 0.00000000E+00	 0.00000000E+00	-2.00275000E-03
		 4.93161000E-04	 0.00000000E+00	-2.03628000E-03
		 0.00000000E+00	 4.93161000E-04	-2.03628000E-03
		 0.00000000E+00	 0.00000000E+00	-1.79054000E-03
		 0.00000000E+00	-5.99366000E-04	-1.63627000E-03
		-5.99366000E-04	 0.00000000E+00	-1.63627000E-03
		 0.00000000E+00	 0.00000000E+00	-1.63196000E-03