<?xml version="1.0"?>
<VTKFile type="UnstructuredGrid" version="0.1" byte_order="LittleEndian">
	<UnstructuredGrid>
		<Piece NumberOfPoints="68" NumberOfCells="5">
			<Points>
				<DataArray type="Float64" NumberOfComponents="3" format="ascii">
					-1.25000000E+01	 2.50000000E+01	 0.00000000E+00
					-1.25000000E+01	-2.50000000E+01	 0.00000000E+00
					 1.25000000E+01	-2.50000000E+01	 0.00000000E+00
					 1.25000000E+01	 2.50000000E+01	 0.00000000E+00
					-1.25000000E+01	 0.00000000E+00	 0.00000000E+00
					 0.00000000E+00	-2.50000000E+01	 0.00000000E+00
					 1.25000000E+01	 0.00000000E+00	 0.00000000E+00
					 0.00000000E+00	 2.50000000E+01	 0.00000000E+00
					-1.25000000E+01	 2.50000000E+01	 1.00000000E+02
					-1.25000000E+01	-2.50000000E+01	 1.00000000E+02
					 1.25000000E+01	-2.50000000E+01	 1.00000000E+02
					 1.25000000E+01	 2.50000000E+01	 1.00000000E+02
					-1.25000000E+01	 2.50000000E+01	 2.00000000E+02
					-1.25000000E+01	-2.50000000E+01	 2.00000000E+02
					 1.25000000E+01	-2.50000000E+01	 2.00000000E+02
					 1.25000000E+01	 2.50000000E+01	 2.00000000E+02
					-1.25000000E+01	 0.00000000E+00	 2.00000000E+02
					 0.00000000E+00	-2.50000000E+01	 2.00000000E+02
					 1.25000000E+01	 0.00000000E+00	 2.00000000E+02
					 0.00000000E+00	 2.50000000E+01	 2.00000000E+02
					-1.25000000E+01	 2.50000000E+01	 3.00000000E+02
					-1.25000000E+01	-2.50000000E+01	 3.00000000E+02
					 1.25000000E+01	-2.50000000E+01	 3.00000000E+02
					 1.25000000E+01	 2.50000000E+01	 3.00000000E+02
					-1.25000000E+01	 2.50000000E+01	 4.00000000E+02
					-1.25000000E+01	-2.50000000E+01	 4.00000000E+02
					 1.25000000E+01	-2.50000000E+01	 4.00000000E+02
					 1.25000000E+01	 2.50000000E+01	 4.00000000E+02
					-1.25000000E+01	 0.00000000E+00	 4.00000000E+02
					 0.00000000E+00	-2.50000000E+01	 4.00000000E+02
					 1.25000000E+01	 0.00000000E+00	 4.00000000E+02
					 0.00000000E+00	 2.50000000E+01	 4.00000000E+02
					-1.25000000E+01	 2.50000000E+01	 5.00000000E+02
					-1.25000000E+01	-2.50000000E+01	 5.00000000E+02
					 1.25000000E+01	-2.50000000E+01	 5.00000000E+02
					 1.25000000E+01	 2.50000000E+01	 5.00000000E+02
					-1.25000000E+01	 2.50000000E+01	 6.00000000E+02
					-1.25000000E+01	-2.50000000E+01	 6.00000000E+02
					 1.25000000E+01	-2.50000000E+01	 6.00000000E+02
					 1.25000000E+01	 2.50000000E+01	 6.00000000E+02
					-1.25000000E+01	 0.00000000E+00	 6.00000000E+02
					 0.00000000E+00	-2.50000000E+01	 6.00000000E+02
					 1.25000000E+01	 0.00000000E+00	 6.00000000E+02
					 0.00000000E+00	 2.50000000E+01	 6.00000000E+02
					-1.25000000E+01	 2.50000000E+01	 7.00000000E+02
					-1.25000000E+01	-2.50000000E+01	 7.00000000E+02
					 1.25000000E+01	-2.50000000E+01	 7.00000000E+02
					 1.25000000E+01	 2.50000000E+01	 7.00000000E+02
					-1.25000000E+01	 2.50000000E+01	 8.00000000E+02
					-1.25000000E+01	-2.50000000E+01	 8.00000000E+02
					 1.25000000E+01	-2.50000000E+01	 8.00000000E+02
					 1.25000000E+01	 2.50000000E+01	 8.00000000E+02
					-1.25000000E+01	 0.00000000E+00	 8.00000000E+02
					 0.00000000E+00	-2.50000000E+01	 8.00000000E+02
					 1.25000000E+01	 0.00000000E+00	 8.00000000E+02
					 0.00000000E+00	 2.50000000E+01	 8.00000000E+02
					-1.25000000E+01	 2.50000000E+01	 9.00000000E+02
					-1.25000000E+01	-2.50000000E+01	 9.00000000E+02
					 1.25000000E+01	-2.50000000E+01	 9.00000000E+02
					 1.25000000E+01	 2.50000000E+01	 9.00000000E+02
					-1.25000000E+01	 2.50000000E+01	 1.00000000E+03
					-1.25000000E+01	-2.50000000E+01	 1.00000000E+03
					 1.25000000E+01	-2.50000000E+01	 1.00000000E+03
					 1.25000000E+01	 2.50000000E+01	 1.00000000E+03
					-1.25000000E+01	 0.00000000E+00	 1.00000000E+03
					 0.00000000E+00	-2.50000000E+01	 1.00000000E+03
					 1.25000000E+01	 0.00000000E+00	 1.00000000E+03
					 0.00000000E+00	 2.50000000E+01	 1.00000000E+03

				</DataArray>
			</Points>
			<Cells>
				<DataArray type="Int32" Name="connectivity" format="ascii">
					0 12 13 1 3 15 14 2 8 16 9 4 11 18 10 6 7 19 17 5 12 24 25 13 15 27 26 14 20 28 21 16 23 30 22 18 19 31 29 17 24 36 37 25 27 39 38 26 32 40 33 28 35 42 34 30 31 43 41 29 36 48 49 37 39 51 50 38 44 52 45 40 47 54 46 42 43 55 53 41 48 60 61 49 51 63 62 50 56 64 57 52 59 66 58 54 55 67 65 53 
				</DataArray>
				<DataArray type="Int32" Name="offsets" format="ascii">
					20 40 60 80 100 
				</DataArray>
				<DataArray type="UInt8" Name="types" format="ascii">
					25 25 25 25 25 
				</DataArray>
			</Cells>
			<PointData>
				<DataArray type="Float32" Name="U" NumberOfComponents="3" ComponentName0="D1" ComponentName1="D2" ComponentName2="D3" format="ascii">
					-2.32970000E-01	 8.51820000E-01	 2.07314000E+00
					 2.32970000E-01	 8.51820000E-01	-2.07314000E+00
					 6.18850000E-01	-8.51820000E-01	 2.07314000E+00
					-6.18850000E-01	-8.51820000E-01	-2.07314000E+00
					 0.00000000E+00	 8.51820000E-01	 0.00000000E+00
					 4.25910000E-01	 0.00000000E+00	 0.00000000E+00
					 0.00000000E+00	-8.51820000E-01	 0.00000000E+00
					-4.25910000E-01	 0.00000000E+00	 0.00000000E+00
					 1.72078000E+01	 2.62400000E+00	 1.10287000E+00
					-1.72078000E+01	 2.62400000E+00	-1.10287000E+00
					-1.74190000E+01	-1.37518000E+01	 1.48591000E+00
					 1.74190000E+01	-1.37518000E+01	-1.48591000E+00
					 2.94382000E+01	 6.90824000E+00	 2.28842000E-01
					-2.94382000E+01	 6.90824000E+00	-2.28842000E-01
					-2.91571000E+01	-2.39040000E+01	 1.67748000E+00
					 2.91571000E+01	-2.39040000E+01	-1.67748000E+00
					 0.00000000E+00	 6.85497000E+00	 0.00000000E+00
					-2.93109000E+01	-8.50781000E+00	 7.56206000E-01
					 0.00000000E+00	-2.39051000E+01	 0.00000000E+00
					 2.93109000E+01	-8.50781000E+00	-7.56206000E-01
					 3.59229000E+01	 1.06325000E+01	-5.10839000E-01
					-3.59229000E+01	 1.06325000E+01	 5.10839000E-01
					-3.60185000E+01	-2.46337000E+01	 9.40673000E-01
					 3.60185000E+01	-2.46337000E+01	-9.40673000E-01
					 3.42394000E+01	 1.29940000E+01	-6.66328000E-01
					-3.42394000E+01	 1.29940000E+01	 6.66328000E-01
					-3.39410000E+01	-2.21881000E+01	-3.92976000E-01
					 3.39410000E+01	-2.21881000E+01	 3.92976000E-01
					 0.00000000E+00	 1.30022000E+01	 0.00000000E+00
					-3.41038000E+01	-4.62369000E+00	 1.22328000E-01
					 0.00000000E+00	-2.21260000E+01	 0.00000000E+00
					 3.41038000E+01	-4.62369000E+00	-1.22328000E-01
					 2.53734000E+01	 9.80549000E+00	-2.96984000E-01
					-2.53734000E+01	 9.80549000E+00	 2.96984000E-01
					-2.54047000E+01	-1.50553000E+01	-1.82962000E+00
					 2.54047000E+01	-1.50553000E+01	 1.82962000E+00
					 1.09034000E+01	 3.58802000E+00	-2.69217000E-01
					-1.09034000E+01	 3.58802000E+00	 2.69217000E-01
					-1.07078000E+01	-8.12351000E+00	-2.76227000E+00
					 1.07078000E+01	-8.12351000E+00	 2.76227000E+00
					 0.00000000E+00	 3.57900000E+00	 0.00000000E+00
					-1.08112000E+01	-2.27427000E+00	-1.28202000E+00
					 0.00000000E+00	-8.11110000E+00	 0.00000000E+00
					 1.08112000E+01	-2.27427000E+00	 1.28202000E+00
					-5.75628000E+00	-4.04523000E+00	-5.40810000E-01
					 5.75628000E+00	-4.04523000E+00	 5.40810000E-01
					 5.61721000E+00	 2.06499000E+00	-2.40808000E+00
					-5.61721000E+00	 2.06499000E+00	 2.40808000E+00
					-2.15530000E+01	-8.47978000E+00	-1.21839000E+00
					 2.15530000E+01	-8.47978000E+00	 1.21839000E+00
					 2.16498000E+01	 1.22485000E+01	-1.54335000E+00
					-2.16498000E+01	 1.22485000E+01	 1.54335000E+00
					 0.00000000E+00	-8.49223000E+00	 0.00000000E+00
					 2.16132000E+01	 1.90457000E+00	-1.95064000E-01
					 0.00000000E+00	 1.21913000E+01	 0.00000000E+00
					-2.16132000E+01	 1.90457000E+00	 1.95064000E-01
					-3.21653000E+01	-9.35926000E+00	-1.14278000E+00
					 3.21653000E+01	-9.35926000E+00	 1.14278000E+00
					 3.20469000E+01	 2.31108000E+01	-8.02039000E-02
					-3.20469000E+01	 2.31108000E+01	 8.02039000E-02
					-3.68129000E+01	-6.86080000E+00	-1.11974000E+00
					 3.68129000E+01	-6.86080000E+00	 1.11974000E+00
					 3.69665000E+01	 2.91082000E+01	 2.96981000E-01
					-3.69665000E+01	 2.91082000E+01	-2.96981000E-01
					 0.00000000E+00	-6.84133000E+00	 0.00000000E+00
					 3.68922000E+01	 1.11380000E+01	 7.18195000E-01
					 0.00000000E+00	 2.91115000E+01	 0.00000000E+00
					-3.68922000E+01	 1.11380000E+01	-7.18195000E-01
				</DataArray>
			</PointData>
		</Piece>
	</UnstructuredGrid>
</VTKFile>