# vtk DataFile Version 3.0

ASCII
DATASET UNSTRUCTURED_GRID

POINTS 261 double
	 0.00000000E+00	 0.00000000E+00	 0.00000000E+00
	 1.00000000E+00	 0.00000000E+00	 0.00000000E+00
	 1.00000000E+00	 1.50000000E+00	 0.00000000E+00
	 0.00000000E+00	 1.50000000E+00	 0.00000000E+00
	 0.00000000E+00	 0.00000000E+00	 8.00000000E+00
	 1.00000000E+00	 0.00000000E+00	 8.00000000E+00
	 1.00000000E+00	 1.50000000E+00	 8.00000000E+00
	 0.00000000E+00	 1.50000000E+00	 8.00000000E+00
	 2.50000000E-01	 0.00000000E+00	 0.00000000E+00
	 5.00000000E-01	 0.00000000E+00	 0.00000000E+00
	 7.50000000E-01	 0.00000000E+00	 0.00000000E+00
	 1.00000000E+00	 3.75000000E-01	 0.00000000E+00
	 1.00000000E+00	 7.50000000E-01	 0.00000000E+00
	 1.00000000E+00	 1.12500000E+00	 0.00000000E+00
	 7.50000000E-01	 1.50000000E+00	 0.00000000E+00
	 5.00000000E-01	 1.50000000E+00	 0.00000000E+00
	 2.50000000E-01	 1.50000000E+00	 0.00000000E+00
	 0.00000000E+00	 1.12500000E+00	 0.00000000E+00
	 0.00000000E+00	 7.50000000E-01	 0.00000000E+00
	 0.00000000E+00	 3.75000000E-01	 0.00000000E+00
	 2.50000000E-01	 0.00000000E+00	 8.00000000E+00
	 5.00000000E-01	 0.00000000E+00	 8.00000000E+00
	 7.50000000E-01	 0.00000000E+00	 8.00000000E+00
	 1.00000000E+00	 3.75000000E-01	 8.00000000E+00
	 1.00000000E+00	 7.50000000E-01	 8.00000000E+00
	 1.00000000E+00	 1.12500000E+00	 8.00000000E+00
	 7.50000000E-01	 1.50000000E+00	 8.00000000E+00
	 5.00000000E-01	 1.50000000E+00	 8.00000000E+00
	 2.50000000E-01	 1.50000000E+00	 8.00000000E+00
	 0.00000000E+00	 1.12500000E+00	 8.00000000E+00
	 0.00000000E+00	 7.50000000E-01	 8.00000000E+00
	 0.00000000E+00	 3.75000000E-01	 8.00000000E+00
	 1.00000000E+00	 0.00000000E+00	 5.00000000E-01
	 1.00000000E+00	 0.00000000E+00	 1.00000000E+00
	 1.00000000E+00	 0.00000000E+00	 1.50000000E+00
	 1.00000000E+00	 0.00000000E+00	 2.00000000E+00
	 1.00000000E+00	 0.00000000E+00	 2.50000000E+00
	 1.00000000E+00	 0.00000000E+00	 3.00000000E+00
	 1.00000000E+00	 0.00000000E+00	 3.50000000E+00
	 1.00000000E+00	 0.00000000E+00	 4.00000000E+00
	 1.00000000E+00	 0.00000000E+00	 4.50000000E+00
	 1.00000000E+00	 0.00000000E+00	 5.00000000E+00
	 1.00000000E+00	 0.00000000E+00	 5.50000000E+00
	 1.00000000E+00	 0.00000000E+00	 6.00000000E+00
	 1.00000000E+00	 0.00000000E+00	 6.50000000E+00
	 1.00000000E+00	 0.00000000E+00	 7.00000000E+00
	 1.00000000E+00	 0.00000000E+00	 7.50000000E+00
	 0.00000000E+00	 0.00000000E+00	 7.50000000E+00
	 0.00000000E+00	 0.00000000E+00	 7.00000000E+00
	 0.00000000E+00	 0.00000000E+00	 6.50000000E+00
	 0.00000000E+00	 0.00000000E+00	 6.00000000E+00
	 0.00000000E+00	 0.00000000E+00	 5.50000000E+00
	 0.00000000E+00	 0.00000000E+00	 5.00000000E+00
	 0.00000000E+00	 0.00000000E+00	 4.50000000E+00
	 0.00000000E+00	 0.00000000E+00	 4.00000000E+00
	 0.00000000E+00	 0.00000000E+00	 3.50000000E+00
	 0.00000000E+00	 0.00000000E+00	 3.00000000E+00
	 0.00000000E+00	 0.00000000E+00	 2.50000000E+00
	 0.00000000E+00	 0.00000000E+00	 2.00000000E+00
	 0.00000000E+00	 0.00000000E+00	 1.50000000E+00
	 0.00000000E+00	 0.00000000E+00	 1.00000000E+00
	 0.00000000E+00	 0.00000000E+00	 5.00000000E-01
	 1.00000000E+00	 1.50000000E+00	 5.00000000E-01
	 1.00000000E+00	 1.50000000E+00	 1.00000000E+00
	 1.00000000E+00	 1.50000000E+00	 1.50000000E+00
	 1.00000000E+00	 1.50000000E+00	 2.00000000E+00
	 1.00000000E+00	 1.50000000E+00	 2.50000000E+00
	 1.00000000E+00	 1.50000000E+00	 3.00000000E+00
	 1.00000000E+00	 1.50000000E+00	 3.50000000E+00
	 1.00000000E+00	 1.50000000E+00	 4.00000000E+00
	 1.00000000E+00	 1.50000000E+00	 4.50000000E+00
	 1.00000000E+00	 1.50000000E+00	 5.00000000E+00
	 1.00000000E+00	 1.50000000E+00	 5.50000000E+00
	 1.00000000E+00	 1.50000000E+00	 6.00000000E+00
	 1.00000000E+00	 1.50000000E+00	 6.50000000E+00
	 1.00000000E+00	 1.50000000E+00	 7.00000000E+00
	 1.00000000E+00	 1.50000000E+00	 7.50000000E+00
	 0.00000000E+00	 1.50000000E+00	 5.00000000E-01
	 0.00000000E+00	 1.50000000E+00	 1.00000000E+00
	 0.00000000E+00	 1.50000000E+00	 1.50000000E+00
	 0.00000000E+00	 1.50000000E+00	 2.00000000E+00
	 0.00000000E+00	 1.50000000E+00	 2.50000000E+00
	 0.00000000E+00	 1.50000000E+00	 3.00000000E+00
	 0.00000000E+00	 1.50000000E+00	 3.50000000E+00
	 0.00000000E+00	 1.50000000E+00	 4.00000000E+00
	 0.00000000E+00	 1.50000000E+00	 4.50000000E+00
	 0.00000000E+00	 1.50000000E+00	 5.00000000E+00
	 0.00000000E+00	 1.50000000E+00	 5.50000000E+00
	 0.00000000E+00	 1.50000000E+00	 6.00000000E+00
	 0.00000000E+00	 1.50000000E+00	 6.50000000E+00
	 0.00000000E+00	 1.50000000E+00	 7.00000000E+00
	 0.00000000E+00	 1.50000000E+00	 7.50000000E+00
	 5.00000000E-01	 3.75000000E-01	 0.00000000E+00
	 2.50000000E-01	 7.50000000E-01	 0.00000000E+00
	 5.00000000E-01	 7.50000000E-01	 0.00000000E+00
	 7.50000000E-01	 7.50000000E-01	 0.00000000E+00
	 5.00000000E-01	 1.12500000E+00	 0.00000000E+00
	 5.00000000E-01	 3.75000000E-01	 8.00000000E+00
	 2.50000000E-01	 7.50000000E-01	 8.00000000E+00
	 5.00000000E-01	 7.50000000E-01	 8.00000000E+00
	 7.50000000E-01	 7.50000000E-01	 8.00000000E+00
	 5.00000000E-01	 1.12500000E+00	 8.00000000E+00
	 5.00000000E-01	 0.00000000E+00	 5.00000000E-01
	 2.50000000E-01	 0.00000000E+00	 1.00000000E+00
	 5.00000000E-01	 0.00000000E+00	 1.00000000E+00
	 7.50000000E-01	 0.00000000E+00	 1.00000000E+00
	 5.00000000E-01	 0.00000000E+00	 1.50000000E+00
	 2.50000000E-01	 0.00000000E+00	 2.00000000E+00
	 5.00000000E-01	 0.00000000E+00	 2.00000000E+00
	 7.50000000E-01	 0.00000000E+00	 2.00000000E+00
	 5.00000000E-01	 0.00000000E+00	 2.50000000E+00
	 2.50000000E-01	 0.00000000E+00	 3.00000000E+00
	 5.00000000E-01	 0.00000000E+00	 3.00000000E+00
	 7.50000000E-01	 0.00000000E+00	 3.00000000E+00
	 5.00000000E-01	 0.00000000E+00	 3.50000000E+00
	 2.50000000E-01	 0.00000000E+00	 4.00000000E+00
	 5.00000000E-01	 0.00000000E+00	 4.00000000E+00
	 7.50000000E-01	 0.00000000E+00	 4.00000000E+00
	 5.00000000E-01	 0.00000000E+00	 4.50000000E+00
	 2.50000000E-01	 0.00000000E+00	 5.00000000E+00
	 5.00000000E-01	 0.00000000E+00	 5.00000000E+00
	 7.50000000E-01	 0.00000000E+00	 5.00000000E+00
	 5.00000000E-01	 0.00000000E+00	 5.50000000E+00
	 2.50000000E-01	 0.00000000E+00	 6.00000000E+00
	 5.00000000E-01	 0.00000000E+00	 6.00000000E+00
	 7.50000000E-01	 0.00000000E+00	 6.00000000E+00
	 5.00000000E-01	 0.00000000E+00	 6.50000000E+00
	 2.50000000E-01	 0.00000000E+00	 7.00000000E+00
	 5.00000000E-01	 0.00000000E+00	 7.00000000E+00
	 7.50000000E-01	 0.00000000E+00	 7.00000000E+00
	 5.00000000E-01	 0.00000000E+00	 7.50000000E+00
	 1.00000000E+00	 7.50000000E-01	 5.00000000E-01
	 1.00000000E+00	 3.75000000E-01	 1.00000000E+00
	 1.00000000E+00	 7.50000000E-01	 1.00000000E+00
	 1.00000000E+00	 1.12500000E+00	 1.00000000E+00
	 1.00000000E+00	 7.50000000E-01	 1.50000000E+00
	 1.00000000E+00	 3.75000000E-01	 2.00000000E+00
	 1.00000000E+00	 7.50000000E-01	 2.00000000E+00
	 1.00000000E+00	 1.12500000E+00	 2.00000000E+00
	 1.00000000E+00	 7.50000000E-01	 2.50000000E+00
	 1.00000000E+00	 3.75000000E-01	 3.00000000E+00
	 1.00000000E+00	 7.50000000E-01	 3.00000000E+00
	 1.00000000E+00	 1.12500000E+00	 3.00000000E+00
	 1.00000000E+00	 7.50000000E-01	 3.50000000E+00
	 1.00000000E+00	 3.75000000E-01	 4.00000000E+00
	 1.00000000E+00	 7.50000000E-01	 4.00000000E+00
	 1.00000000E+00	 1.12500000E+00	 4.00000000E+00
	 1.00000000E+00	 7.50000000E-01	 4.50000000E+00
	 1.00000000E+00	 3.75000000E-01	 5.00000000E+00
	 1.00000000E+00	 7.50000000E-01	 5.00000000E+00
	 1.00000000E+00	 1.12500000E+00	 5.00000000E+00
	 1.00000000E+00	 7.50000000E-01	 5.50000000E+00
	 1.00000000E+00	 3.75000000E-01	 6.00000000E+00
	 1.00000000E+00	 7.50000000E-01	 6.00000000E+00
	 1.00000000E+00	 1.12500000E+00	 6.00000000E+00
	 1.00000000E+00	 7.50000000E-01	 6.50000000E+00
	 1.00000000E+00	 3.75000000E-01	 7.00000000E+00
	 1.00000000E+00	 7.50000000E-01	 7.00000000E+00
	 1.00000000E+00	 1.12500000E+00	 7.00000000E+00
	 1.00000000E+00	 7.50000000E-01	 7.50000000E+00
	 5.00000000E-01	 1.50000000E+00	 5.00000000E-01
	 7.50000000E-01	 1.50000000E+00	 1.00000000E+00
	 5.00000000E-01	 1.50000000E+00	 1.00000000E+00
	 2.50000000E-01	 1.50000000E+00	 1.00000000E+00
	 5.00000000E-01	 1.50000000E+00	 1.50000000E+00
	 7.50000000E-01	 1.50000000E+00	 2.00000000E+00
	 5.00000000E-01	 1.50000000E+00	 2.00000000E+00
	 2.50000000E-01	 1.50000000E+00	 2.00000000E+00
	 5.00000000E-01	 1.50000000E+00	 2.50000000E+00
	 7.50000000E-01	 1.50000000E+00	 3.00000000E+00
	 5.00000000E-01	 1.50000000E+00	 3.00000000E+00
	 2.50000000E-01	 1.50000000E+00	 3.00000000E+00
	 5.00000000E-01	 1.50000000E+00	 3.50000000E+00
	 7.50000000E-01	 1.50000000E+00	 4.00000000E+00
	 5.00000000E-01	 1.50000000E+00	 4.00000000E+00
	 2.50000000E-01	 1.50000000E+00	 4.00000000E+00
	 5.00000000E-01	 1.50000000E+00	 4.50000000E+00
	 7.50000000E-01	 1.50000000E+00	 5.00000000E+00
	 5.00000000E-01	 1.50000000E+00	 5.00000000E+00
	 2.50000000E-01	 1.50000000E+00	 5.00000000E+00
	 5.00000000E-01	 1.50000000E+00	 5.50000000E+00
	 7.50000000E-01	 1.50000000E+00	 6.00000000E+00
	 5.00000000E-01	 1.50000000E+00	 6.00000000E+00
	 2.50000000E-01	 1.50000000E+00	 6.00000000E+00
	 5.00000000E-01	 1.50000000E+00	 6.50000000E+00
	 7.50000000E-01	 1.50000000E+00	 7.00000000E+00
	 5.00000000E-01	 1.50000000E+00	 7.00000000E+00
	 2.50000000E-01	 1.50000000E+00	 7.00000000E+00
	 5.00000000E-01	 1.50000000E+00	 7.50000000E+00
	 0.00000000E+00	 7.50000000E-01	 5.00000000E-01
	 0.00000000E+00	 1.12500000E+00	 1.00000000E+00
	 0.00000000E+00	 7.50000000E-01	 1.00000000E+00
	 0.00000000E+00	 3.75000000E-01	 1.00000000E+00
	 0.00000000E+00	 7.50000000E-01	 1.50000000E+00
	 0.00000000E+00	 1.12500000E+00	 2.00000000E+00
	 0.00000000E+00	 7.50000000E-01	 2.00000000E+00
	 0.00000000E+00	 3.75000000E-01	 2.00000000E+00
	 0.00000000E+00	 7.50000000E-01	 2.50000000E+00
	 0.00000000E+00	 1.12500000E+00	 3.00000000E+00
	 0.00000000E+00	 7.50000000E-01	 3.00000000E+00
	 0.00000000E+00	 3.75000000E-01	 3.00000000E+00
	 0.00000000E+00	 7.50000000E-01	 3.50000000E+00
	 0.00000000E+00	 1.12500000E+00	 4.00000000E+00
	 0.00000000E+00	 7.50000000E-01	 4.00000000E+00
	 0.00000000E+00	 3.75000000E-01	 4.00000000E+00
	 0.00000000E+00	 7.50000000E-01	 4.50000000E+00
	 0.00000000E+00	 1.12500000E+00	 5.00000000E+00
	 0.00000000E+00	 7.50000000E-01	 5.00000000E+00
	 0.00000000E+00	 3.75000000E-01	 5.00000000E+00
	 0.00000000E+00	 7.50000000E-01	 5.50000000E+00
	 0.00000000E+00	 1.12500000E+00	 6.00000000E+00
	 0.00000000E+00	 7.50000000E-01	 6.00000000E+00
	 0.00000000E+00	 3.75000000E-01	 6.00000000E+00
	 0.00000000E+00	 7.50000000E-01	 6.50000000E+00
	 0.00000000E+00	 1.12500000E+00	 7.00000000E+00
	 0.00000000E+00	 7.50000000E-01	 7.00000000E+00
	 0.00000000E+00	 3.75000000E-01	 7.00000000E+00
	 0.00000000E+00	 7.50000000E-01	 7.50000000E+00
	 5.00000000E-01	 7.50000000E-01	 5.00000000E-01
	 5.00000000E-01	 3.75000000E-01	 1.00000000E+00
	 2.50000000E-01	 7.50000000E-01	 1.00000000E+00
	 5.00000000E-01	 7.50000000E-01	 1.00000000E+00
	 7.50000000E-01	 7.50000000E-01	 1.00000000E+00
	 5.00000000E-01	 1.12500000E+00	 1.00000000E+00
	 5.00000000E-01	 7.50000000E-01	 1.50000000E+00
	 5.00000000E-01	 3.75000000E-01	 2.00000000E+00
	 2.50000000E-01	 7.50000000E-01	 2.00000000E+00
	 5.00000000E-01	 7.50000000E-01	 2.00000000E+00
	 7.50000000E-01	 7.50000000E-01	 2.00000000E+00
	 5.00000000E-01	 1.12500000E+00	 2.00000000E+00
	 5.00000000E-01	 7.50000000E-01	 2.50000000E+00
	 5.00000000E-01	 3.75000000E-01	 3.00000000E+00
	 2.50000000E-01	 7.50000000E-01	 3.00000000E+00
	 5.00000000E-01	 7.50000000E-01	 3.00000000E+00
	 7.50000000E-01	 7.50000000E-01	 3.00000000E+00
	 5.00000000E-01	 1.12500000E+00	 3.00000000E+00
	 5.00000000E-01	 7.50000000E-01	 3.50000000E+00
	 5.00000000E-01	 3.75000000E-01	 4.00000000E+00
	 2.50000000E-01	 7.50000000E-01	 4.00000000E+00
	 5.00000000E-01	 7.50000000E-01	 4.00000000E+00
	 7.50000000E-01	 7.50000000E-01	 4.00000000E+00
	 5.00000000E-01	 1.12500000E+00	 4.00000000E+00
	 5.00000000E-01	 7.50000000E-01	 4.50000000E+00
	 5.00000000E-01	 3.75000000E-01	 5.00000000E+00
	 2.50000000E-01	 7.50000000E-01	 5.00000000E+00
	 5.00000000E-01	 7.50000000E-01	 5.00000000E+00
	 7.50000000E-01	 7.50000000E-01	 5.00000000E+00
	 5.00000000E-01	 1.12500000E+00	 5.00000000E+00
	 5.00000000E-01	 7.50000000E-01	 5.50000000E+00
	 5.00000000E-01	 3.75000000E-01	 6.00000000E+00
	 2.50000000E-01	 7.50000000E-01	 6.00000000E+00
	 5.00000000E-01	 7.50000000E-01	 6.00000000E+00
	 7.50000000E-01	 7.50000000E-01	 6.00000000E+00
	 5.00000000E-01	 1.12500000E+00	 6.00000000E+00
	 5.00000000E-01	 7.50000000E-01	 6.50000000E+00
	 5.00000000E-01	 3.75000000E-01	 7.00000000E+00
	 2.50000000E-01	 7.50000000E-01	 7.00000000E+00
	 5.00000000E-01	 7.50000000E-01	 7.00000000E+00
	 7.50000000E-01	 7.50000000E-01	 7.00000000E+00
	 5.00000000E-01	 1.12500000E+00	 7.00000000E+00
	 5.00000000E-01	 7.50000000E-01	 7.50000000E+00

CELLS 32 672
	20 0 9 94 18 60 104 221 191 8 92 93 19 103 219 220 192 61 102 218 189 
	20 9 1 12 94 104 33 133 221 10 11 95 92 105 132 222 219 102 32 131 218 
	20 18 94 15 3 191 221 162 78 93 96 16 17 220 223 163 190 189 218 160 77 
	20 94 12 2 15 221 133 63 162 95 13 14 96 222 134 161 223 218 131 62 160 
	20 60 104 221 191 58 108 227 195 103 219 220 192 107 225 226 196 59 106 224 193 
	20 104 33 133 221 108 35 137 227 105 132 222 219 109 136 228 225 106 34 135 224 
	20 191 221 162 78 195 227 166 80 220 223 163 190 226 229 167 194 193 224 164 79 
	20 221 133 63 162 227 137 65 166 222 134 161 223 228 138 165 229 224 135 64 164 
	20 58 108 227 195 56 112 233 199 107 225 226 196 111 231 232 200 57 110 230 197 
	20 108 35 137 227 112 37 141 233 109 136 228 225 113 140 234 231 110 36 139 230 
	20 195 227 166 80 199 233 170 82 226 229 167 194 232 235 171 198 197 230 168 81 
	20 227 137 65 166 233 141 67 170 228 138 165 229 234 142 169 235 230 139 66 168 
	20 56 112 233 199 54 116 239 203 111 231 232 200 115 237 238 204 55 114 236 201 
	20 112 37 141 233 116 39 145 239 113 140 234 231 117 144 240 237 114 38 143 236 
	20 199 233 170 82 203 239 174 84 232 235 171 198 238 241 175 202 201 236 172 83 
	20 233 141 67 170 239 145 69 174 234 142 169 235 240 146 173 241 236 143 68 172 
	20 54 116 239 203 52 120 245 207 115 237 238 204 119 243 244 208 53 118 242 205 
	20 116 39 145 239 120 41 149 245 117 144 240 237 121 148 246 243 118 40 147 242 
	20 203 239 174 84 207 245 178 86 238 241 175 202 244 247 179 206 205 242 176 85 
	20 239 145 69 174 245 149 71 178 240 146 173 241 246 150 177 247 242 147 70 176 
	20 52 120 245 207 50 124 251 211 119 243 244 208 123 249 250 212 51 122 248 209 
	20 120 41 149 245 124 43 153 251 121 148 246 243 125 152 252 249 122 42 151 248 
	20 207 245 178 86 211 251 182 88 244 247 179 206 250 253 183 210 209 248 180 87 
	20 245 149 71 178 251 153 73 182 246 150 177 247 252 154 181 253 248 151 72 180 
	20 50 124 251 211 48 128 257 215 123 249 250 212 127 255 256 216 49 126 254 213 
	20 124 43 153 251 128 45 157 257 125 152 252 249 129 156 258 255 126 44 155 254 
	20 211 251 182 88 215 257 186 90 250 253 183 210 256 259 187 214 213 254 184 89 
	20 251 153 73 182 257 157 75 186 252 154 181 253 258 158 185 259 254 155 74 184 
	20 48 128 257 215 4 21 99 30 127 255 256 216 20 97 98 31 47 130 260 217 
	20 128 45 157 257 21 5 24 99 129 156 258 255 22 23 100 97 130 46 159 260 
	20 215 257 186 90 30 99 27 7 256 259 187 214 98 101 28 29 217 260 188 91 
	20 257 157 75 186 99 24 6 27 258 158 185 259 100 25 26 101 260 159 76 188 

CELL_TYPES 32
	25
	25
	25
	25
	25
	25
	25
	25
	25
	25
	25
	25
	25
	25
	25
	25
	25
	25
	25
	25
	25
	25
	25
	25
	25
	25
	25
	25
	25
	25
	25
	25

POINT_DATA 261
FIELD U 1
	U 3 261 double
		 0.00000000E+00	 0.00000000E+00	 0.00000000E+00
		 0.00000000E+00	 0.00000000E+00	 0.00000000E+00
		 0.00000000E+00	 0.00000000E+00	 0.00000000E+00
		 0.00000000E+00	 0.00000000E+00	 0.00000000E+00
		 6.78412000E+03	 1.19721000E+00	 5.70636000E+02
		 6.78412000E+03	-1.19721000E+00	-5.70636000E+02
		 6.32603000E+03	-4.38629000E-02	-5.71437000E+02
		 6.32603000E+03	 4.38629000E-02	 5.71437000E+02
		 0.00000000E+00	 0.00000000E+00	 0.00000000E+00
		 0.00000000E+00	 0.00000000E+00	 0.00000000E+00
		 0.00000000E+00	 0.00000000E+00	 0.00000000E+00
		 0.00000000E+00	 0.00000000E+00	 0.00000000E+00
		 0.00000000E+00	 0.00000000E+00	 0.00000000E+00
		 0.00000000E+00	 0.00000000E+00	 0.00000000E+00
		 0.00000000E+00	 0.00000000E+00	 0.00000000E+00
		 0.00000000E+00	 0.00000000E+00	 0.00000000E+00
		 0.00000000E+00	 0.00000000E+00	 0.00000000E+00
		 0.00000000E+00	 0.00000000E+00	 0.00000000E+00
		 0.00000000E+00	 0.00000000E+00	 0.00000000E+00
		 0.00000000E+00	 0.00000000E+00	 0.00000000E+00
		 6.78377000E+03	 2.00575000E-01	 2.84962000E+02
		 6.78321000E+03	-3.96449000E-09	 0.00000000E+00
		 6.78377000E+03	-2.00575000E-01	-2.84962000E+02
		 6.67060000E+03	-1.25167000E+00	-5.70905000E+02
		 6.55611000E+03	-7.96901000E-01	-5.71709000E+02
		 6.44260000E+03	-2.24404000E-01	-5.72049000E+02
		 6.32688000E+03	-3.22085000E-01	-2.85698000E+02
		 6.32752000E+03	-3.69914000E-09	 0.00000000E+00
		 6.32688000E+03	 3.22085000E-01	 2.85698000E+02
		 6.44260000E+03	 2.24404000E-01	 5.72049000E+02
		 6.55611000E+03	 7.96901000E-01	 5.71709000E+02
		 6.67060000E+03	 1.25167000E+00	 5.70905000E+02
		 6.42113000E+01	-2.06856000E+01	-7.82554000E+01
		 2.00200000E+02	-9.38276000E+00	-1.53676000E+02
		 4.22475000E+02	-3.57269000E+00	-2.21827000E+02
		 7.03525000E+02	 2.12175000E+00	-2.84213000E+02
		 1.04622000E+03	 4.44234000E+00	-3.39201000E+02
		 1.43761000E+03	 5.18554000E+00	-3.88422000E+02
		 1.87451000E+03	 4.52345000E+00	-4.30591000E+02
		 2.34812000E+03	 3.22064000E+00	-4.66504000E+02
		 2.85301000E+03	 1.64395000E+00	-4.96067000E+02
		 3.38247000E+03	 1.55623000E-01	-5.19945000E+02
		 3.93056000E+03	-9.86993000E-01	-5.38360000E+02
		 4.49233000E+03	-1.68631000E+00	-5.52024000E+02
		 5.06210000E+03	-1.89769000E+00	-5.61145000E+02
		 5.63714000E+03	-1.70001000E+00	-5.67184000E+02
		 6.21112000E+03	-1.61694000E+00	-5.69846000E+02
		 6.21112000E+03	 1.61694000E+00	 5.69846000E+02
		 5.63714000E+03	 1.70001000E+00	 5.67184000E+02
		 5.06210000E+03	 1.89769000E+00	 5.61145000E+02
		 4.49233000E+03	 1.68631000E+00	 5.52024000E+02
		 3.93056000E+03	 9.86993000E-01	 5.38360000E+02
		 3.38247000E+03	-1.55623000E-01	 5.19945000E+02
		 2.85301000E+03	-1.64395000E+00	 4.96067000E+02
		 2.34812000E+03	-3.22064000E+00	 4.66504000E+02
		 1.87451000E+03	-4.52345000E+00	 4.30591000E+02
		 1.43761000E+03	-5.18554000E+00	 3.88422000E+02
		 1.04622000E+03	-4.44234000E+00	 3.39201000E+02
		 7.03525000E+02	-2.12175000E+00	 2.84213000E+02
		 4.22475000E+02	 3.57269000E+00	 2.21827000E+02
		 2.00200000E+02	 9.38276000E+00	 1.53676000E+02
		 6.42113000E+01	 2.06856000E+01	 7.82554000E+01
		 1.69695000E+01	 4.11869000E+01	-7.35895000E+01
		 1.00686000E+02	 5.00218000E+01	-1.52995000E+02
		 2.72263000E+02	 5.76236000E+01	-2.26794000E+02
		 5.07726000E+02	 5.60514000E+01	-2.92539000E+02
		 8.09200000E+02	 5.26379000E+01	-3.50122000E+02
		 1.16208000E+03	 4.66666000E+01	-4.00538000E+02
		 1.56427000E+03	 3.99674000E+01	-4.43344000E+02
		 2.00665000E+03	 3.24805000E+01	-4.78959000E+02
		 2.48428000E+03	 2.52452000E+01	-5.07672000E+02
		 2.98984000E+03	 1.84743000E+01	-5.30178000E+02
		 3.51797000E+03	 1.26275000E+01	-5.46911000E+02
		 4.06304000E+03	 7.78448000E+00	-5.58685000E+02
		 4.62040000E+03	 4.16766000E+00	-5.66240000E+02
		 5.18561000E+03	 1.55074000E+00	-5.70233000E+02
		 5.75465000E+03	 5.11956000E-01	-5.71625000E+02
		 1.69695000E+01	-4.11869000E+01	 7.35895000E+01
		 1.00686000E+02	-5.00218000E+01	 1.52995000E+02
		 2.72263000E+02	-5.76236000E+01	 2.26794000E+02
		 5.07726000E+02	-5.60514000E+01	 2.92539000E+02
		 8.09200000E+02	-5.26379000E+01	 3.50122000E+02
		 1.16208000E+03	-4.66666000E+01	 4.00538000E+02
		 1.56427000E+03	-3.99674000E+01	 4.43344000E+02
		 2.00665000E+03	-3.24805000E+01	 4.78959000E+02
		 2.48428000E+03	-2.52452000E+01	 5.07672000E+02
		 2.98984000E+03	-1.84743000E+01	 5.30178000E+02
		 3.51797000E+03	-1.26275000E+01	 5.46911000E+02
		 4.06304000E+03	-7.78448000E+00	 5.58685000E+02
		 4.62040000E+03	-4.16766000E+00	 5.66240000E+02
		 5.18561000E+03	-1.55074000E+00	 5.70233000E+02
		 5.75465000E+03	-5.11956000E-01	 5.71625000E+02
		 0.00000000E+00	 0.00000000E+00	 0.00000000E+00
		 0.00000000E+00	 0.00000000E+00	 0.00000000E+00
		 0.00000000E+00	 0.00000000E+00	 0.00000000E+00
		 0.00000000E+00	 0.00000000E+00	 0.00000000E+00
		 0.00000000E+00	 0.00000000E+00	 0.00000000E+00
		 6.67144000E+03	-3.89218000E-09	 0.00000000E+00
		 6.55803000E+03	 4.44327000E-01	 2.86002000E+02
		 6.56012000E+03	-3.82693000E-09	 0.00000000E+00
		 6.55803000E+03	-4.44327000E-01	-2.86002000E+02
		 6.44127000E+03	-3.76440000E-09	 0.00000000E+00
		 4.70527000E+01	 0.00000000E+00	 0.00000000E+00
		 1.93841000E+02	 5.20616000E+00	 7.37034000E+01
		 1.94933000E+02	 0.00000000E+00	 0.00000000E+00
		 1.93841000E+02	-5.20616000E+00	-7.37034000E+01
		 4.09879000E+02	 0.00000000E+00	 0.00000000E+00
		 6.98139000E+02	-1.14121000E+00	 1.39970000E+02
		 6.96598000E+02	 0.00000000E+00	 0.00000000E+00
		 6.98139000E+02	 1.14121000E+00	-1.39970000E+02
		 1.03727000E+03	 0.00000000E+00	 0.00000000E+00
		 1.43268000E+03	-2.69376000E+00	 1.92515000E+02
		 1.43125000E+03	 0.00000000E+00	 0.00000000E+00
		 1.43268000E+03	 2.69376000E+00	-1.92515000E+02
		 1.86817000E+03	-1.13926000E-09	 0.00000000E+00
		 2.34457000E+03	-1.80090000E+00	 2.31916000E+02
		 2.34334000E+03	-1.42234000E-09	 0.00000000E+00
		 2.34457000E+03	 1.80090000E+00	-2.31916000E+02
		 2.84888000E+03	-1.72133000E-09	 0.00000000E+00
		 3.38014000E+03	-2.76981000E-01	 2.58945000E+02
		 3.37927000E+03	-2.03499000E-09	 0.00000000E+00
		 3.38014000E+03	 2.76981000E-01	-2.58945000E+02
		 3.92832000E+03	-2.34513000E-09	 0.00000000E+00
		 4.49106000E+03	 6.40253000E-01	 2.75227000E+02
		 4.49046000E+03	-2.66755000E-09	 0.00000000E+00
		 4.49106000E+03	-6.40253000E-01	-2.75227000E+02
		 5.06146000E+03	-2.98382000E-09	 0.00000000E+00
		 5.63619000E+03	 7.89423000E-01	 2.83178000E+02
		 5.63538000E+03	-3.31488000E-09	 0.00000000E+00
		 5.63619000E+03	-7.89423000E-01	-2.83178000E+02
		 6.21179000E+03	-3.63434000E-09	 0.00000000E+00
		 5.89330000E+01	 1.30573000E+01	-7.50860000E+01
		 1.94843000E+02	 6.62832000E+00	-1.58054000E+02
		 1.73718000E+02	 2.13678000E+01	-1.55354000E+02
		 1.43245000E+02	 3.52808000E+01	-1.48897000E+02
		 3.69672000E+02	 2.74173000E+01	-2.24679000E+02
		 6.70092000E+02	 1.54087000E+01	-2.89219000E+02
		 6.26419000E+02	 2.96742000E+01	-2.88689000E+02
		 5.71772000E+02	 4.31813000E+01	-2.89553000E+02
		 9.45797000E+02	 2.89771000E+01	-3.45113000E+02
		 1.38074000E+03	 1.54794000E+01	-3.93287000E+02
		 1.31586000E+03	 2.62684000E+01	-3.94942000E+02
		 1.24299000E+03	 3.65407000E+01	-3.97042000E+02
		 1.73300000E+03	 2.24446000E+01	-4.37341000E+02
		 2.27099000E+03	 1.03719000E+01	-4.70828000E+02
		 2.18881000E+03	 1.79988000E+01	-4.73055000E+02
		 2.10085000E+03	 2.52591000E+01	-4.76063000E+02
		 2.67793000E+03	 1.35312000E+01	-5.02202000E+02
		 3.28922000E+03	 4.59124000E+00	-5.23271000E+02
		 3.19334000E+03	 9.34891000E+00	-5.25327000E+02
		 3.09384000E+03	 1.38636000E+01	-5.28013000E+02
		 3.72980000E+03	 5.82908000E+00	-5.42901000E+02
		 4.38724000E+03	 5.55032000E-01	-5.54144000E+02
		 4.28128000E+03	 3.04631000E+00	-5.55480000E+02
		 4.17370000E+03	 5.36061000E+00	-5.57410000E+02
		 4.84391000E+03	 1.08938000E+00	-5.63969000E+02
		 5.52417000E+03	-9.65539000E-01	-5.68208000E+02
		 5.41221000E+03	-7.44002000E-02	-5.68737000E+02
		 5.29963000E+03	 7.18653000E-01	-5.69616000E+02
		 5.98452000E+03	-6.61463000E-01	-5.71164000E+02
		 7.02713000E-01	 0.00000000E+00	 0.00000000E+00
		 9.42547000E+01	 2.49535000E+01	-7.90396000E+01
		 9.51029000E+01	 0.00000000E+00	 0.00000000E+00
		 9.42547000E+01	-2.49535000E+01	 7.90396000E+01
		 2.61158000E+02	 0.00000000E+00	 0.00000000E+00
		 5.02411000E+02	 2.77335000E+01	-1.45743000E+02
		 5.01458000E+02	 0.00000000E+00	 0.00000000E+00
		 5.02411000E+02	-2.77335000E+01	 1.45743000E+02
		 8.00512000E+02	 0.00000000E+00	 0.00000000E+00
		 1.15718000E+03	 2.33024000E+01	-1.99784000E+02
		 1.15608000E+03	 0.00000000E+00	 0.00000000E+00
		 1.15718000E+03	-2.33024000E+01	 1.99784000E+02
		 1.55804000E+03	 0.00000000E+00	 0.00000000E+00
		 2.00301000E+03	 1.63177000E+01	-2.38606000E+02
		 2.00200000E+03	-1.24908000E-09	 0.00000000E+00
		 2.00301000E+03	-1.63177000E+01	 2.38606000E+02
		 2.48001000E+03	-1.52784000E-09	 0.00000000E+00
		 2.98738000E+03	 9.39752000E+00	-2.64237000E+02
		 2.98666000E+03	-1.81819000E-09	 0.00000000E+00
		 2.98738000E+03	-9.39752000E+00	 2.64237000E+02
		 3.51549000E+03	-2.12356000E-09	 0.00000000E+00
		 4.06177000E+03	 4.04169000E+00	-2.78629000E+02
		 4.06142000E+03	-2.42892000E-09	 0.00000000E+00
		 4.06177000E+03	-4.04169000E+00	 2.78629000E+02
		 4.61880000E+03	-2.73849000E-09	 0.00000000E+00
		 5.18476000E+03	 9.41783000E-01	-2.84676000E+02
		 5.18433000E+03	-3.05317000E-09	 0.00000000E+00
		 5.18476000E+03	-9.41783000E-01	 2.84676000E+02
		 5.75561000E+03	-3.37809000E-09	 0.00000000E+00
		 5.89330000E+01	-1.30573000E+01	 7.50860000E+01
		 1.43245000E+02	-3.52808000E+01	 1.48897000E+02
		 1.73718000E+02	-2.13678000E+01	 1.55354000E+02
		 1.94843000E+02	-6.62832000E+00	 1.58054000E+02
		 3.69672000E+02	-2.74173000E+01	 2.24679000E+02
		 5.71772000E+02	-4.31813000E+01	 2.89553000E+02
		 6.26419000E+02	-2.96742000E+01	 2.88689000E+02
		 6.70092000E+02	-1.54087000E+01	 2.89219000E+02
		 9.45797000E+02	-2.89771000E+01	 3.45113000E+02
		 1.24299000E+03	-3.65407000E+01	 3.97042000E+02
		 1.31586000E+03	-2.62684000E+01	 3.94942000E+02
		 1.38074000E+03	-1.54794000E+01	 3.93287000E+02
		 1.73300000E+03	-2.24446000E+01	 4.37341000E+02
		 2.10085000E+03	-2.52591000E+01	 4.76063000E+02
		 2.18881000E+03	-1.79988000E+01	 4.73055000E+02
		 2.27099000E+03	-1.03719000E+01	 4.70828000E+02
		 2.67793000E+03	-1.35312000E+01	 5.02202000E+02
		 3.09384000E+03	-1.38636000E+01	 5.28013000E+02
		 3.19334000E+03	-9.34891000E+00	 5.25327000E+02
		 3.28922000E+03	-4.59124000E+00	 5.23271000E+02
		 3.72980000E+03	-5.82908000E+00	 5.42901000E+02
		 4.17370000E+03	-5.36061000E+00	 5.57410000E+02
		 4.28128000E+03	-3.04631000E+00	 5.55480000E+02
		 4.38724000E+03	-5.55032000E-01	 5.54144000E+02
		 4.84391000E+03	-1.08938000E+00	 5.63969000E+02
		 5.29963000E+03	-7.18653000E-01	 5.69616000E+02
		 5.41221000E+03	 7.44002000E-02	 5.68737000E+02
		 5.52417000E+03	 9.65539000E-01	 5.68208000E+02
		 5.98452000E+03	 6.61463000E-01	 5.71164000E+02
		 4.21216000E+01	 0.00000000E+00	 0.00000000E+00
		 1.89658000E+02	 0.00000000E+00	 0.00000000E+00
		 1.66462000E+02	-9.89957000E+00	 7.63541000E+01
		 1.67120000E+02	 0.00000000E+00	 0.00000000E+00
		 1.66462000E+02	 9.89957000E+00	-7.63541000E+01
		 1.37581000E+02	 0.00000000E+00	 0.00000000E+00
		 3.57569000E+02	 0.00000000E+00	 0.00000000E+00
		 6.63287000E+02	 0.00000000E+00	 0.00000000E+00
		 6.20886000E+02	-1.43365000E+01	 1.43575000E+02
		 6.19354000E+02	 0.00000000E+00	 0.00000000E+00
		 6.20886000E+02	 1.43365000E+01	-1.43575000E+02
		 5.64718000E+02	 0.00000000E+00	 0.00000000E+00
		 9.37208000E+02	 0.00000000E+00	 0.00000000E+00
		 1.37459000E+03	 0.00000000E+00	 0.00000000E+00
		 1.31083000E+03	-1.28748000E+01	 1.96715000E+02
		 1.30948000E+03	 0.00000000E+00	 0.00000000E+00
		 1.31083000E+03	 1.28748000E+01	-1.96715000E+02
		 1.23668000E+03	 0.00000000E+00	 0.00000000E+00
		 1.72675000E+03	-1.05854000E-09	 0.00000000E+00
		 2.26636000E+03	-1.37368000E-09	 0.00000000E+00
		 2.18522000E+03	-8.92470000E+00	 2.35817000E+02
		 2.18410000E+03	-1.33184000E-09	 0.00000000E+00
		 2.18522000E+03	 8.92470000E+00	-2.35817000E+02
		 2.09603000E+03	-1.29239000E-09	 0.00000000E+00
		 2.67373000E+03	-1.62163000E-09	 0.00000000E+00
		 3.28625000E+03	-1.97838000E-09	 0.00000000E+00
		 3.19105000E+03	-4.71292000E+00	 2.62060000E+02
		 3.19035000E+03	-1.92335000E-09	 0.00000000E+00
		 3.19105000E+03	 4.71292000E+00	-2.62060000E+02
		 3.09070000E+03	-1.87003000E-09	 0.00000000E+00
		 3.72733000E+03	-2.23270000E-09	 0.00000000E+00
		 4.38567000E+03	-2.60638000E-09	 0.00000000E+00
		 4.28029000E+03	-1.60455000E+00	 2.77286000E+02
		 4.28011000E+03	-2.54624000E-09	 0.00000000E+00
		 4.28029000E+03	 1.60455000E+00	-2.77286000E+02
		 4.17204000E+03	-2.48815000E-09	 0.00000000E+00
		 4.84249000E+03	-2.86036000E-09	 0.00000000E+00
		 5.52371000E+03	-3.24917000E-09	 0.00000000E+00
		 5.41218000E+03	-5.30228000E-02	 2.84007000E+02
		 5.41229000E+03	-3.18391000E-09	 0.00000000E+00
		 5.41218000E+03	 5.30228000E-02	-2.84007000E+02
		 5.29980000E+03	-3.12161000E-09	 0.00000000E+00
		 5.98412000E+03	-3.50701000E-09	 0.00000000E+00
