<?xml version="1.0"?>
<VTKFile type="UnstructuredGrid" version="0.1" byte_order="LittleEndian">
	<UnstructuredGrid>
		<Piece NumberOfPoints="81" NumberOfCells="32">
			<Points>
				<DataArray type="Float64" NumberOfComponents="3" format="ascii">
					 0.00000000E+00	 0.00000000E+00	 0.00000000E+00
					 1.00000000E+00	 0.00000000E+00	 0.00000000E+00
					 1.00000000E+00	 1.00000000E+00	 0.00000000E+00
					 0.00000000E+00	 1.00000000E+00	 0.00000000E+00
					 0.00000000E+00	 0.00000000E+00	 8.00000000E+00
					 1.00000000E+00	 0.00000000E+00	 8.00000000E+00
					 1.00000000E+00	 1.00000000E+00	 8.00000000E+00
					 0.00000000E+00	 1.00000000E+00	 8.00000000E+00
					 5.00000000E-01	 0.00000000E+00	 0.00000000E+00
					 1.00000000E+00	 5.00000000E-01	 0.00000000E+00
					 5.00000000E-01	 1.00000000E+00	 0.00000000E+00
					 0.00000000E+00	 5.00000000E-01	 0.00000000E+00
					 5.00000000E-01	 0.00000000E+00	 8.00000000E+00
					 1.00000000E+00	 5.00000000E-01	 8.00000000E+00
					 5.00000000E-01	 1.00000000E+00	 8.00000000E+00
					 0.00000000E+00	 5.00000000E-01	 8.00000000E+00
					 1.00000000E+00	 0.00000000E+00	 1.00000000E+00
					 1.00000000E+00	 0.00000000E+00	 2.00000000E+00
					 1.00000000E+00	 0.00000000E+00	 3.00000000E+00
					 1.00000000E+00	 0.00000000E+00	 4.00000000E+00
					 1.00000000E+00	 0.00000000E+00	 5.00000000E+00
					 1.00000000E+00	 0.00000000E+00	 6.00000000E+00
					 1.00000000E+00	 0.00000000E+00	 7.00000000E+00
					 0.00000000E+00	 0.00000000E+00	 7.00000000E+00
					 0.00000000E+00	 0.00000000E+00	 6.00000000E+00
					 0.00000000E+00	 0.00000000E+00	 5.00000000E+00
					 0.00000000E+00	 0.00000000E+00	 4.00000000E+00
					 0.00000000E+00	 0.00000000E+00	 3.00000000E+00
					 0.00000000E+00	 0.00000000E+00	 2.00000000E+00
					 0.00000000E+00	 0.00000000E+00	 1.00000000E+00
					 1.00000000E+00	 1.00000000E+00	 1.00000000E+00
					 1.00000000E+00	 1.00000000E+00	 2.00000000E+00
					 1.00000000E+00	 1.00000000E+00	 3.00000000E+00
					 1.00000000E+00	 1.00000000E+00	 4.00000000E+00
					 1.00000000E+00	 1.00000000E+00	 5.00000000E+00
					 1.00000000E+00	 1.00000000E+00	 6.00000000E+00
					 1.00000000E+00	 1.00000000E+00	 7.00000000E+00
					 0.00000000E+00	 1.00000000E+00	 1.00000000E+00
					 0.00000000E+00	 1.00000000E+00	 2.00000000E+00
					 0.00000000E+00	 1.00000000E+00	 3.00000000E+00
					 0.00000000E+00	 1.00000000E+00	 4.00000000E+00
					 0.00000000E+00	 1.00000000E+00	 5.00000000E+00
					 0.00000000E+00	 1.00000000E+00	 6.00000000E+00
					 0.00000000E+00	 1.00000000E+00	 7.00000000E+00
					 5.00000000E-01	 5.00000000E-01	 0.00000000E+00
					 5.00000000E-01	 5.00000000E-01	 8.00000000E+00
					 5.00000000E-01	 0.00000000E+00	 1.00000000E+00
					 5.00000000E-01	 0.00000000E+00	 2.00000000E+00
					 5.00000000E-01	 0.00000000E+00	 3.00000000E+00
					 5.00000000E-01	 0.00000000E+00	 4.00000000E+00
					 5.00000000E-01	 0.00000000E+00	 5.00000000E+00
					 5.00000000E-01	 0.00000000E+00	 6.00000000E+00
					 5.00000000E-01	 0.00000000E+00	 7.00000000E+00
					 1.00000000E+00	 5.00000000E-01	 1.00000000E+00
					 1.00000000E+00	 5.00000000E-01	 2.00000000E+00
					 1.00000000E+00	 5.00000000E-01	 3.00000000E+00
					 1.00000000E+00	 5.00000000E-01	 4.00000000E+00
					 1.00000000E+00	 5.00000000E-01	 5.00000000E+00
					 1.00000000E+00	 5.00000000E-01	 6.00000000E+00
					 1.00000000E+00	 5.00000000E-01	 7.00000000E+00
					 5.00000000E-01	 1.00000000E+00	 1.00000000E+00
					 5.00000000E-01	 1.00000000E+00	 2.00000000E+00
					 5.00000000E-01	 1.00000000E+00	 3.00000000E+00
					 5.00000000E-01	 1.00000000E+00	 4.00000000E+00
					 5.00000000E-01	 1.00000000E+00	 5.00000000E+00
					 5.00000000E-01	 1.00000000E+00	 6.00000000E+00
					 5.00000000E-01	 1.00000000E+00	 7.00000000E+00
					 0.00000000E+00	 5.00000000E-01	 1.00000000E+00
					 0.00000000E+00	 5.00000000E-01	 2.00000000E+00
					 0.00000000E+00	 5.00000000E-01	 3.00000000E+00
					 0.00000000E+00	 5.00000000E-01	 4.00000000E+00
					 0.00000000E+00	 5.00000000E-01	 5.00000000E+00
					 0.00000000E+00	 5.00000000E-01	 6.00000000E+00
					 0.00000000E+00	 5.00000000E-01	 7.00000000E+00
					 5.00000000E-01	 5.00000000E-01	 1.00000000E+00
					 5.00000000E-01	 5.00000000E-01	 2.00000000E+00
					 5.00000000E-01	 5.00000000E-01	 3.00000000E+00
					 5.00000000E-01	 5.00000000E-01	 4.00000000E+00
					 5.00000000E-01	 5.00000000E-01	 5.00000000E+00
					 5.00000000E-01	 5.00000000E-01	 6.00000000E+00
					 5.00000000E-01	 5.00000000E-01	 7.00000000E+00

				</DataArray>
			</Points>
			<Cells>
				<DataArray type="Int32" Name="connectivity" format="ascii">
					0 8 44 11 29 46 74 67 8 1 9 44 46 16 53 74 11 44 10 3 67 74 60 37 44 9 2 10 74 53 30 60 29 46 74 67 28 47 75 68 46 16 53 74 47 17 54 75 67 74 60 37 68 75 61 38 74 53 30 60 75 54 31 61 28 47 75 68 27 48 76 69 47 17 54 75 48 18 55 76 68 75 61 38 69 76 62 39 75 54 31 61 76 55 32 62 27 48 76 69 26 49 77 70 48 18 55 76 49 19 56 77 69 76 62 39 70 77 63 40 76 55 32 62 77 56 33 63 26 49 77 70 25 50 78 71 49 19 56 77 50 20 57 78 70 77 63 40 71 78 64 41 77 56 33 63 78 57 34 64 25 50 78 71 24 51 79 72 50 20 57 78 51 21 58 79 71 78 64 41 72 79 65 42 78 57 34 64 79 58 35 65 24 51 79 72 23 52 80 73 51 21 58 79 52 22 59 80 72 79 65 42 73 80 66 43 79 58 35 65 80 59 36 66 23 52 80 73 4 12 45 15 52 22 59 80 12 5 13 45 73 80 66 43 15 45 14 7 80 59 36 66 45 13 6 14 
				</DataArray>
				<DataArray type="Int32" Name="offsets" format="ascii">
					8 16 24 32 40 48 56 64 72 80 88 96 104 112 120 128 136 144 152 160 168 176 184 192 200 208 216 224 232 240 248 256 
				</DataArray>
				<DataArray type="UInt8" Name="types" format="ascii">
					12 12 12 12 12 12 12 12 12 12 12 12 12 12 12 12 12 12 12 12 12 12 12 12 12 12 12 12 12 12 12 12 
				</DataArray>
			</Cells>
			<PointData>
				<DataArray type="Float32" Name="U" NumberOfComponents="3" ComponentName0="D1" ComponentName1="D2" ComponentName2="D3" format="ascii">
					 0.00000000E+00	 0.00000000E+00	 0.00000000E+00
					 0.00000000E+00	 0.00000000E+00	 0.00000000E+00
					 0.00000000E+00	 0.00000000E+00	 0.00000000E+00
					 0.00000000E+00	 0.00000000E+00	 0.00000000E+00
					 6.38978000E+02	 6.67236000E+03	 4.08600000E+02
					 2.76605000E+03	 7.19466000E+03	 2.47496000E+02
					 6.38978000E+02	 6.67236000E+03	-4.08600000E+02
					 2.76605000E+03	 7.19466000E+03	-2.47496000E+02
					 0.00000000E+00	 0.00000000E+00	 0.00000000E+00
					 0.00000000E+00	 0.00000000E+00	 0.00000000E+00
					 0.00000000E+00	 0.00000000E+00	 0.00000000E+00
					 0.00000000E+00	 0.00000000E+00	 0.00000000E+00
					 1.82301000E+03	 6.05543000E+03	 1.89539000E+02
					 1.48690000E+03	 7.42423000E+03	-4.65410000E+01
					 1.82301000E+03	 6.05543000E+03	-1.89539000E+02
					 1.48690000E+03	 7.42423000E+03	 4.65410000E+01
					 1.07533000E+03	 4.43439000E+03	 4.44625000E+02
					 1.72630000E+03	 5.80642000E+03	-2.55658000E+02
					 6.26210000E+02	 2.09393000E+03	-9.57325000E+02
					-1.07419000E+03	-3.56563000E+03	-8.15213000E+02
					-1.79732000E+03	-5.94081000E+03	 7.91976000E+01
					-8.66571000E+02	-2.83123000E+03	 8.68108000E+02
					 8.40804000E+02	 2.90186000E+03	 9.24866000E+02
					 5.67835000E+02	 2.83484000E+03	 1.52689000E+03
					-5.01846000E+02	-2.74167000E+03	 1.43319000E+03
					-1.07675000E+03	-5.76387000E+03	 1.30750000E+02
					-6.51390000E+02	-3.46181000E+03	-1.34586000E+03
					 3.87735000E+02	 2.03537000E+03	-1.58048000E+03
					 1.08665000E+03	 5.64935000E+03	-4.22074000E+02
					 1.10413000E+03	 4.44146000E+03	 7.34046000E+02
					 1.10413000E+03	 4.44146000E+03	-7.34046000E+02
					 1.08665000E+03	 5.64935000E+03	 4.22074000E+02
					 3.87735000E+02	 2.03537000E+03	 1.58048000E+03
					-6.51390000E+02	-3.46181000E+03	 1.34586000E+03
					-1.07675000E+03	-5.76387000E+03	-1.30750000E+02
					-5.01846000E+02	-2.74167000E+03	-1.43319000E+03
					 5.67835000E+02	 2.83484000E+03	-1.52689000E+03
					 1.07533000E+03	 4.43439000E+03	-4.44625000E+02
					 1.72630000E+03	 5.80642000E+03	 2.55658000E+02
					 6.26210000E+02	 2.09393000E+03	 9.57325000E+02
					-1.07419000E+03	-3.56563000E+03	 8.15213000E+02
					-1.79732000E+03	-5.94081000E+03	-7.91976000E+01
					-8.66571000E+02	-2.83123000E+03	-8.68108000E+02
					 8.40804000E+02	 2.90186000E+03	-9.24866000E+02
					 0.00000000E+00	 0.00000000E+00	 0.00000000E+00
					 1.32518000E+03	 5.39681000E+03	 0.00000000E+00
					 1.07125000E+03	 4.38150000E+03	 6.01928000E+02
					 1.45220000E+03	 5.59849000E+03	-3.25651000E+02
					 5.19559000E+02	 2.00155000E+03	-1.29958000E+03
					-8.87223000E+02	-3.40372000E+03	-1.09981000E+03
					-1.48126000E+03	-5.68885000E+03	 8.23896000E+01
					-6.94560000E+02	-2.67357000E+03	 1.28278000E+03
					 6.65973000E+02	 2.73525000E+03	 9.90562000E+02
					 1.07587000E+03	 4.36267000E+03	-1.47803000E+02
					 1.37470000E+03	 5.91409000E+03	 7.99632000E+01
					 4.91478000E+02	 2.11591000E+03	 3.19111000E+02
					-8.35778000E+02	-3.61323000E+03	 2.70058000E+02
					-1.39689000E+03	-6.03246000E+03	-2.02307000E+01
					-6.56492000E+02	-2.82861000E+03	-3.14984000E+02
					 6.71637000E+02	 2.71218000E+03	-2.43231000E+02
					 1.07125000E+03	 4.38150000E+03	-6.01928000E+02
					 1.45220000E+03	 5.59849000E+03	 3.25651000E+02
					 5.19559000E+02	 2.00155000E+03	 1.29958000E+03
					-8.87223000E+02	-3.40372000E+03	 1.09981000E+03
					-1.48126000E+03	-5.68885000E+03	-8.23896000E+01
					-6.94560000E+02	-2.67357000E+03	-1.28278000E+03
					 6.65973000E+02	 2.73525000E+03	-9.90562000E+02
					 1.07587000E+03	 4.36267000E+03	 1.47803000E+02
					 1.37470000E+03	 5.91409000E+03	-7.99632000E+01
					 4.91478000E+02	 2.11591000E+03	-3.19111000E+02
					-8.35778000E+02	-3.61323000E+03	-2.70058000E+02
					-1.39689000E+03	-6.03246000E+03	 2.02307000E+01
					-6.56492000E+02	-2.82861000E+03	 3.14984000E+02
					 6.71637000E+02	 2.71218000E+03	 2.43231000E+02
					 1.05755000E+03	 4.30687000E+03	 0.00000000E+00
					 1.42161000E+03	 5.78951000E+03	 0.00000000E+00
					 5.04851000E+02	 2.05601000E+03	 0.00000000E+00
					-8.62911000E+02	-3.51422000E+03	 0.00000000E+00
					-1.42995000E+03	-5.82348000E+03	 0.00000000E+00
					-7.08125000E+02	-2.88385000E+03	 0.00000000E+00
					 7.89105000E+02	 3.21364000E+03	 0.00000000E+00
				</DataArray>
			</PointData>
		</Piece>
	</UnstructuredGrid>
</VTKFile>