    1C
    1UUSER                                                              
    1UDATE              01.august.2019                                  
    1UTIME              09:27:06                                        
    1UHOST                                                              
    1UPGM               CalculiX                                        
    1UVERSION           Version 2.15                             
    1UCOMPILETIME       Fri 15 Mar 11:57:46 CET 2019                    
    1UDIR                                                               
    1UDBN                                                               
    1UMAT    1EL                                                        
    1UMAT    2SI1                                                       
    2C                           282                                     1
 -1         1 0.00000E+00 0.00000E+00 4.00000E+00
 -1         2 5.00000E-01 0.00000E+00 4.00000E+00
 -1         3 5.00000E-01 0.00000E+00 3.00000E+00
 -1         4 0.00000E+00 0.00000E+00 3.00000E+00
 -1         5 0.00000E+00 5.00000E-01 4.00000E+00
 -1         6 5.00000E-01 5.00000E-01 4.00000E+00
 -1         7 5.00000E-01 5.00000E-01 3.00000E+00
 -1         8 0.00000E+00 5.00000E-01 3.00000E+00
 -1         9 2.50000E-01 0.00000E+00 4.00000E+00
 -1        10 5.00000E-01 1.66533E-16 3.50000E+00
 -1        11 2.50000E-01 0.00000E+00 3.00000E+00
 -1        12 0.00000E+00 0.00000E+00 3.50000E+00
 -1        13 0.00000E+00 2.50000E-01 4.00000E+00
 -1        14 5.00000E-01 2.50000E-01 4.00000E+00
 -1        15 5.00000E-01 2.50000E-01 3.00000E+00
 -1        16 0.00000E+00 2.50000E-01 3.00000E+00
 -1        17 2.50000E-01 5.00000E-01 4.00000E+00
 -1        18 5.00000E-01 5.00000E-01 3.50000E+00
 -1        19 2.50000E-01 5.00000E-01 3.00000E+00
 -1        20 1.66533E-16 5.00000E-01 3.50000E+00
 -1        21 5.00000E-01-2.22045E-16 2.00000E+00
 -1        22 0.00000E+00 0.00000E+00 2.00000E+00
 -1        23 5.00000E-01 5.00000E-01 2.00000E+00
 -1        24-2.22045E-16 5.00000E-01 2.00000E+00
 -1        25 5.00000E-01 0.00000E+00 2.50000E+00
 -1        26 2.50000E-01 0.00000E+00 2.00000E+00
 -1        27 0.00000E+00 0.00000E+00 2.50000E+00
 -1        28 5.00000E-01 2.50000E-01 2.00000E+00
 -1        29-1.11022E-16 2.50000E-01 2.00000E+00
 -1        30 5.00000E-01 5.00000E-01 2.50000E+00
 -1        31 2.50000E-01 5.00000E-01 2.00000E+00
 -1        32 0.00000E+00 5.00000E-01 2.50000E+00
 -1        33 5.00000E-01 0.00000E+00 1.00000E+00
 -1        34 0.00000E+00 0.00000E+00 1.00000E+00
 -1        35 5.00000E-01 5.00000E-01 1.00000E+00
 -1        36 0.00000E+00 5.00000E-01 1.00000E+00
 -1        37 5.00000E-01 0.00000E+00 1.50000E+00
 -1        38 2.50000E-01-1.11022E-16 1.00000E+00
 -1        39 0.00000E+00 0.00000E+00 1.50000E+00
 -1        40 5.00000E-01 2.50000E-01 1.00000E+00
 -1        41 0.00000E+00 2.50000E-01 1.00000E+00
 -1        42 5.00000E-01 5.00000E-01 1.50000E+00
 -1        43 2.50000E-01 5.00000E-01 1.00000E+00
 -1        44 0.00000E+00 5.00000E-01 1.50000E+00
 -1        45 5.00000E-01 0.00000E+00 0.00000E+00
 -1        46 0.00000E+00 0.00000E+00 0.00000E+00
 -1        47 5.00000E-01 5.00000E-01-1.77636E-15
 -1        48 0.00000E+00 5.00000E-01 0.00000E+00
 -1        49 5.00000E-01 1.11022E-16 5.00000E-01
 -1        50 2.50000E-01 0.00000E+00 0.00000E+00
 -1        51 0.00000E+00 0.00000E+00 5.00000E-01
 -1        52 5.00000E-01 2.50000E-01 0.00000E+00
 -1        53 0.00000E+00 2.50000E-01 0.00000E+00
 -1        54 5.00000E-01 5.00000E-01 5.00000E-01
 -1        55 2.50000E-01 5.00000E-01 0.00000E+00
 -1        56 1.11022E-16 5.00000E-01 5.00000E-01
 -1        57 0.00000E+00 1.00000E+00 4.00000E+00
 -1        58 5.00000E-01 1.00000E+00 4.00000E+00
 -1        59 5.00000E-01 1.00000E+00 3.00000E+00
 -1        60 0.00000E+00 1.00000E+00 3.00000E+00
 -1        61 0.00000E+00 7.50000E-01 4.00000E+00
 -1        62 5.00000E-01 7.50000E-01 4.00000E+00
 -1        63 5.00000E-01 7.50000E-01 3.00000E+00
 -1        64 0.00000E+00 7.50000E-01 3.00000E+00
 -1        65 2.50000E-01 1.00000E+00 4.00000E+00
 -1        66 5.00000E-01 1.00000E+00 3.50000E+00
 -1        67 2.50000E-01 1.00000E+00 3.00000E+00
 -1        68 0.00000E+00 1.00000E+00 3.50000E+00
 -1        69 5.00000E-01 1.00000E+00 2.00000E+00
 -1        70 0.00000E+00 1.00000E+00 2.00000E+00
 -1        71 5.00000E-01 7.50000E-01 2.00000E+00
 -1        72 0.00000E+00 7.50000E-01 2.00000E+00
 -1        73 5.00000E-01 1.00000E+00 2.50000E+00
 -1        74 2.50000E-01 1.00000E+00 2.00000E+00
 -1        75 0.00000E+00 1.00000E+00 2.50000E+00
 -1        76 5.00000E-01 1.00000E+00 1.00000E+00
 -1        77 0.00000E+00 1.00000E+00 1.00000E+00
 -1        78 5.00000E-01 7.50000E-01 1.00000E+00
 -1        79-1.11022E-16 7.50000E-01 1.00000E+00
 -1        80 5.00000E-01 1.00000E+00 1.50000E+00
 -1        81 2.50000E-01 1.00000E+00 1.00000E+00
 -1        82 0.00000E+00 1.00000E+00 1.50000E+00
 -1        83 5.00000E-01 1.00000E+00 0.00000E+00
 -1        84 0.00000E+00 1.00000E+00 0.00000E+00
 -1        85 5.00000E-01 7.50000E-01 0.00000E+00
 -1        86 0.00000E+00 7.50000E-01 0.00000E+00
 -1        87 5.00000E-01 1.00000E+00 5.00000E-01
 -1        88 2.50000E-01 1.00000E+00 0.00000E+00
 -1        89 0.00000E+00 1.00000E+00 5.00000E-01
 -1        90 1.00000E+00 0.00000E+00 4.00000E+00
 -1        91 1.00000E+00 0.00000E+00 3.00000E+00
 -1        92 1.00000E+00 5.00000E-01 4.00000E+00
 -1        93 1.00000E+00 5.00000E-01 3.00000E+00
 -1        94 7.50000E-01 0.00000E+00 4.00000E+00
 -1        95 1.00000E+00 0.00000E+00 3.50000E+00
 -1        96 7.50000E-01 0.00000E+00 3.00000E+00
 -1        97 1.00000E+00 2.50000E-01 4.00000E+00
 -1        98 1.00000E+00 2.50000E-01 3.00000E+00
 -1        99 7.50000E-01 5.00000E-01 4.00000E+00
 -1       100 1.00000E+00 5.00000E-01 3.50000E+00
 -1       101 7.50000E-01 5.00000E-01 3.00000E+00
 -1       102 1.00000E+00 0.00000E+00 2.00000E+00
 -1       103 1.00000E+00 5.00000E-01 2.00000E+00
 -1       104 1.00000E+00 0.00000E+00 2.50000E+00
 -1       105 7.50000E-01-1.11022E-16 2.00000E+00
 -1       106 1.00000E+00 2.50000E-01 2.00000E+00
 -1       107 1.00000E+00 5.00000E-01 2.50000E+00
 -1       108 7.50000E-01 5.00000E-01 2.00000E+00
 -1       109 1.00000E+00 0.00000E+00 1.00000E+00
 -1       110 1.00000E+00 5.00000E-01 1.00000E+00
 -1       111 1.00000E+00 0.00000E+00 1.50000E+00
 -1       112 7.50000E-01 0.00000E+00 1.00000E+00
 -1       113 1.00000E+00 2.50000E-01 1.00000E+00
 -1       114 1.00000E+00 5.00000E-01 1.50000E+00
 -1       115 7.50000E-01 5.00000E-01 1.00000E+00
 -1       116 1.00000E+00 0.00000E+00 0.00000E+00
 -1       117 1.00000E+00 5.00000E-01 0.00000E+00
 -1       118 1.00000E+00 0.00000E+00 5.00000E-01
 -1       119 7.50000E-01 0.00000E+00 0.00000E+00
 -1       120 1.00000E+00 2.50000E-01 0.00000E+00
 -1       121 1.00000E+00 5.00000E-01 5.00000E-01
 -1       122 7.50000E-01 5.00000E-01-8.88178E-16
 -1       123 1.00000E+00 1.00000E+00 4.00000E+00
 -1       124 1.00000E+00 1.00000E+00 3.00000E+00
 -1       125 1.00000E+00 7.50000E-01 4.00000E+00
 -1       126 1.00000E+00 7.50000E-01 3.00000E+00
 -1       127 7.50000E-01 1.00000E+00 4.00000E+00
 -1       128 1.00000E+00 1.00000E+00 3.50000E+00
 -1       129 7.50000E-01 1.00000E+00 3.00000E+00
 -1       130 1.00000E+00 1.00000E+00 2.00000E+00
 -1       131 1.00000E+00 7.50000E-01 2.00000E+00
 -1       132 1.00000E+00 1.00000E+00 2.50000E+00
 -1       133 7.50000E-01 1.00000E+00 2.00000E+00
 -1       134 1.00000E+00 1.00000E+00 1.00000E+00
 -1       135 1.00000E+00 7.50000E-01 1.00000E+00
 -1       136 1.00000E+00 1.00000E+00 1.50000E+00
 -1       137 7.50000E-01 1.00000E+00 1.00000E+00
 -1       138 1.00000E+00 1.00000E+00 0.00000E+00
 -1       139 1.00000E+00 7.50000E-01 0.00000E+00
 -1       140 1.00000E+00 1.00000E+00 5.00000E-01
 -1       141 7.50000E-01 1.00000E+00 0.00000E+00
 -1       142 0.00000E+00 0.00000E+00 8.00000E+00
 -1       143 5.00000E-01 0.00000E+00 8.00000E+00
 -1       144 5.00000E-01 0.00000E+00 7.00000E+00
 -1       145 0.00000E+00 0.00000E+00 7.00000E+00
 -1       146 0.00000E+00 5.00000E-01 8.00000E+00
 -1       147 5.00000E-01 5.00000E-01 8.00000E+00
 -1       148 5.00000E-01 5.00000E-01 7.00000E+00
 -1       149 0.00000E+00 5.00000E-01 7.00000E+00
 -1       150 2.50000E-01 0.00000E+00 8.00000E+00
 -1       151 5.00000E-01 1.66533E-16 7.50000E+00
 -1       152 2.50000E-01 0.00000E+00 7.00000E+00
 -1       153 0.00000E+00 0.00000E+00 7.50000E+00
 -1       154 0.00000E+00 2.50000E-01 8.00000E+00
 -1       155 5.00000E-01 2.50000E-01 8.00000E+00
 -1       156 5.00000E-01 2.50000E-01 7.00000E+00
 -1       157 0.00000E+00 2.50000E-01 7.00000E+00
 -1       158 2.50000E-01 5.00000E-01 8.00000E+00
 -1       159 5.00000E-01 5.00000E-01 7.50000E+00
 -1       160 2.50000E-01 5.00000E-01 7.00000E+00
 -1       161 1.66533E-16 5.00000E-01 7.50000E+00
 -1       162 5.00000E-01-2.22045E-16 6.00000E+00
 -1       163 0.00000E+00 0.00000E+00 6.00000E+00
 -1       164 5.00000E-01 5.00000E-01 6.00000E+00
 -1       165-2.22045E-16 5.00000E-01 6.00000E+00
 -1       166 5.00000E-01 0.00000E+00 6.50000E+00
 -1       167 2.50000E-01 0.00000E+00 6.00000E+00
 -1       168 0.00000E+00 0.00000E+00 6.50000E+00
 -1       169 5.00000E-01 2.50000E-01 6.00000E+00
 -1       170-1.11022E-16 2.50000E-01 6.00000E+00
 -1       171 5.00000E-01 5.00000E-01 6.50000E+00
 -1       172 2.50000E-01 5.00000E-01 6.00000E+00
 -1       173 0.00000E+00 5.00000E-01 6.50000E+00
 -1       174 5.00000E-01 0.00000E+00 5.00000E+00
 -1       175 0.00000E+00 0.00000E+00 5.00000E+00
 -1       176 5.00000E-01 5.00000E-01 5.00000E+00
 -1       177 0.00000E+00 5.00000E-01 5.00000E+00
 -1       178 5.00000E-01 0.00000E+00 5.50000E+00
 -1       179 2.50000E-01-1.11022E-16 5.00000E+00
 -1       180 0.00000E+00 0.00000E+00 5.50000E+00
 -1       181 5.00000E-01 2.50000E-01 5.00000E+00
 -1       182 0.00000E+00 2.50000E-01 5.00000E+00
 -1       183 5.00000E-01 5.00000E-01 5.50000E+00
 -1       184 2.50000E-01 5.00000E-01 5.00000E+00
 -1       185 0.00000E+00 5.00000E-01 5.50000E+00
 -1       186 5.00000E-01 0.00000E+00 4.00000E+00
 -1       187 0.00000E+00 0.00000E+00 4.00000E+00
 -1       188 5.00000E-01 5.00000E-01 4.00000E+00
 -1       189 0.00000E+00 5.00000E-01 4.00000E+00
 -1       190 5.00000E-01 1.11022E-16 4.50000E+00
 -1       191 2.50000E-01 0.00000E+00 4.00000E+00
 -1       192 0.00000E+00 0.00000E+00 4.50000E+00
 -1       193 5.00000E-01 2.50000E-01 4.00000E+00
 -1       194 0.00000E+00 2.50000E-01 4.00000E+00
 -1       195 5.00000E-01 5.00000E-01 4.50000E+00
 -1       196 2.50000E-01 5.00000E-01 4.00000E+00
 -1       197 1.11022E-16 5.00000E-01 4.50000E+00
 -1       198 0.00000E+00 1.00000E+00 8.00000E+00
 -1       199 5.00000E-01 1.00000E+00 8.00000E+00
 -1       200 5.00000E-01 1.00000E+00 7.00000E+00
 -1       201 0.00000E+00 1.00000E+00 7.00000E+00
 -1       202 0.00000E+00 7.50000E-01 8.00000E+00
 -1       203 5.00000E-01 7.50000E-01 8.00000E+00
 -1       204 5.00000E-01 7.50000E-01 7.00000E+00
 -1       205 0.00000E+00 7.50000E-01 7.00000E+00
 -1       206 2.50000E-01 1.00000E+00 8.00000E+00
 -1       207 5.00000E-01 1.00000E+00 7.50000E+00
 -1       208 2.50000E-01 1.00000E+00 7.00000E+00
 -1       209 0.00000E+00 1.00000E+00 7.50000E+00
 -1       210 5.00000E-01 1.00000E+00 6.00000E+00
 -1       211 0.00000E+00 1.00000E+00 6.00000E+00
 -1       212 5.00000E-01 7.50000E-01 6.00000E+00
 -1       213 0.00000E+00 7.50000E-01 6.00000E+00
 -1       214 5.00000E-01 1.00000E+00 6.50000E+00
 -1       215 2.50000E-01 1.00000E+00 6.00000E+00
 -1       216 0.00000E+00 1.00000E+00 6.50000E+00
 -1       217 5.00000E-01 1.00000E+00 5.00000E+00
 -1       218 0.00000E+00 1.00000E+00 5.00000E+00
 -1       219 5.00000E-01 7.50000E-01 5.00000E+00
 -1       220-1.11022E-16 7.50000E-01 5.00000E+00
 -1       221 5.00000E-01 1.00000E+00 5.50000E+00
 -1       222 2.50000E-01 1.00000E+00 5.00000E+00
 -1       223 0.00000E+00 1.00000E+00 5.50000E+00
 -1       224 5.00000E-01 1.00000E+00 4.00000E+00
 -1       225 0.00000E+00 1.00000E+00 4.00000E+00
 -1       226 5.00000E-01 7.50000E-01 4.00000E+00
 -1       227 0.00000E+00 7.50000E-01 4.00000E+00
 -1       228 5.00000E-01 1.00000E+00 4.50000E+00
 -1       229 2.50000E-01 1.00000E+00 4.00000E+00
 -1       230 0.00000E+00 1.00000E+00 4.50000E+00
 -1       231 1.00000E+00 0.00000E+00 8.00000E+00
 -1       232 1.00000E+00 0.00000E+00 7.00000E+00
 -1       233 1.00000E+00 5.00000E-01 8.00000E+00
 -1       234 1.00000E+00 5.00000E-01 7.00000E+00
 -1       235 7.50000E-01 0.00000E+00 8.00000E+00
 -1       236 1.00000E+00 0.00000E+00 7.50000E+00
 -1       237 7.50000E-01 0.00000E+00 7.00000E+00
 -1       238 1.00000E+00 2.50000E-01 8.00000E+00
 -1       239 1.00000E+00 2.50000E-01 7.00000E+00
 -1       240 7.50000E-01 5.00000E-01 8.00000E+00
 -1       241 1.00000E+00 5.00000E-01 7.50000E+00
 -1       242 7.50000E-01 5.00000E-01 7.00000E+00
 -1       243 1.00000E+00 0.00000E+00 6.00000E+00
 -1       244 1.00000E+00 5.00000E-01 6.00000E+00
 -1       245 1.00000E+00 0.00000E+00 6.50000E+00
 -1       246 7.50000E-01-1.11022E-16 6.00000E+00
 -1       247 1.00000E+00 2.50000E-01 6.00000E+00
 -1       248 1.00000E+00 5.00000E-01 6.50000E+00
 -1       249 7.50000E-01 5.00000E-01 6.00000E+00
 -1       250 1.00000E+00 0.00000E+00 5.00000E+00
 -1       251 1.00000E+00 5.00000E-01 5.00000E+00
 -1       252 1.00000E+00 0.00000E+00 5.50000E+00
 -1       253 7.50000E-01 0.00000E+00 5.00000E+00
 -1       254 1.00000E+00 2.50000E-01 5.00000E+00
 -1       255 1.00000E+00 5.00000E-01 5.50000E+00
 -1       256 7.50000E-01 5.00000E-01 5.00000E+00
 -1       257 1.00000E+00 0.00000E+00 4.00000E+00
 -1       258 1.00000E+00 5.00000E-01 4.00000E+00
 -1       259 1.00000E+00 0.00000E+00 4.50000E+00
 -1       260 7.50000E-01 0.00000E+00 4.00000E+00
 -1       261 1.00000E+00 2.50000E-01 4.00000E+00
 -1       262 1.00000E+00 5.00000E-01 4.50000E+00
 -1       263 7.50000E-01 5.00000E-01 4.00000E+00
 -1       264 1.00000E+00 1.00000E+00 8.00000E+00
 -1       265 1.00000E+00 1.00000E+00 7.00000E+00
 -1       266 1.00000E+00 7.50000E-01 8.00000E+00
 -1       267 1.00000E+00 7.50000E-01 7.00000E+00
 -1       268 7.50000E-01 1.00000E+00 8.00000E+00
 -1       269 1.00000E+00 1.00000E+00 7.50000E+00
 -1       270 7.50000E-01 1.00000E+00 7.00000E+00
 -1       271 1.00000E+00 1.00000E+00 6.00000E+00
 -1       272 1.00000E+00 7.50000E-01 6.00000E+00
 -1       273 1.00000E+00 1.00000E+00 6.50000E+00
 -1       274 7.50000E-01 1.00000E+00 6.00000E+00
 -1       275 1.00000E+00 1.00000E+00 5.00000E+00
 -1       276 1.00000E+00 7.50000E-01 5.00000E+00
 -1       277 1.00000E+00 1.00000E+00 5.50000E+00
 -1       278 7.50000E-01 1.00000E+00 5.00000E+00
 -1       279 1.00000E+00 1.00000E+00 4.00000E+00
 -1       280 1.00000E+00 7.50000E-01 4.00000E+00
 -1       281 1.00000E+00 1.00000E+00 4.50000E+00
 -1       282 7.50000E-01 1.00000E+00 4.00000E+00
 -3
    3C                            32                                     1
 -1         1    4    0    1
 -2         1         2         3         4         5         6         7         8         9        10
 -2        11        12        13        14        15        16        17        18        19        20
 -1         2    4    0    1
 -2         4         3        21        22         8         7        23        24        11        25
 -2        26        27        16        15        28        29        19        30        31        32
 -1         3    4    0    1
 -2        22        21        33        34        24        23        35        36        26        37
 -2        38        39        29        28        40        41        31        42        43        44
 -1         4    4    0    1
 -2        34        33        45        46        36        35        47        48        38        49
 -2        50        51        41        40        52        53        43        54        55        56
 -1         5    4    0    1
 -2         5         6         7         8        57        58        59        60        17        18
 -2        19        20        61        62        63        64        65        66        67        68
 -1         6    4    0    1
 -2         8         7        23        24        60        59        69        70        19        30
 -2        31        32        64        63        71        72        67        73        74        75
 -1         7    4    0    1
 -2        24        23        35        36        70        69        76        77        31        42
 -2        43        44        72        71        78        79        74        80        81        82
 -1         8    4    0    1
 -2        36        35        47        48        77        76        83        84        43        54
 -2        55        56        79        78        85        86        81        87        88        89
 -1         9    4    0    1
 -2         2        90        91         3         6        92        93         7        94        95
 -2        96        10        14        97        98        15        99       100       101        18
 -1        10    4    0    1
 -2         3        91       102        21         7        93       103        23        96       104
 -2       105        25        15        98       106        28       101       107       108        30
 -1        11    4    0    1
 -2        21       102       109        33        23       103       110        35       105       111
 -2       112        37        28       106       113        40       108       114       115        42
 -1        12    4    0    1
 -2        33       109       116        45        35       110       117        47       112       118
 -2       119        49        40       113       120        52       115       121       122        54
 -1        13    4    0    1
 -2         6        92        93         7        58       123       124        59        99       100
 -2       101        18        62       125       126        63       127       128       129        66
 -1        14    4    0    1
 -2         7        93       103        23        59       124       130        69       101       107
 -2       108        30        63       126       131        71       129       132       133        73
 -1        15    4    0    1
 -2        23       103       110        35        69       130       134        76       108       114
 -2       115        42        71       131       135        78       133       136       137        80
 -1        16    4    0    1
 -2        35       110       117        47        76       134       138        83       115       121
 -2       122        54        78       135       139        85       137       140       141        87
 -1        17    4    0    1
 -2       142       143       144       145       146       147       148       149       150       151
 -2       152       153       154       155       156       157       158       159       160       161
 -1        18    4    0    1
 -2       145       144       162       163       149       148       164       165       152       166
 -2       167       168       157       156       169       170       160       171       172       173
 -1        19    4    0    1
 -2       163       162       174       175       165       164       176       177       167       178
 -2       179       180       170       169       181       182       172       183       184       185
 -1        20    4    0    1
 -2       175       174       186       187       177       176       188       189       179       190
 -2       191       192       182       181       193       194       184       195       196       197
 -1        21    4    0    1
 -2       146       147       148       149       198       199       200       201       158       159
 -2       160       161       202       203       204       205       206       207       208       209
 -1        22    4    0    1
 -2       149       148       164       165       201       200       210       211       160       171
 -2       172       173       205       204       212       213       208       214       215       216
 -1        23    4    0    1
 -2       165       164       176       177       211       210       217       218       172       183
 -2       184       185       213       212       219       220       215       221       222       223
 -1        24    4    0    1
 -2       177       176       188       189       218       217       224       225       184       195
 -2       196       197       220       219       226       227       222       228       229       230
 -1        25    4    0    1
 -2       143       231       232       144       147       233       234       148       235       236
 -2       237       151       155       238       239       156       240       241       242       159
 -1        26    4    0    1
 -2       144       232       243       162       148       234       244       164       237       245
 -2       246       166       156       239       247       169       242       248       249       171
 -1        27    4    0    1
 -2       162       243       250       174       164       244       251       176       246       252
 -2       253       178       169       247       254       181       249       255       256       183
 -1        28    4    0    1
 -2       174       250       257       186       176       251       258       188       253       259
 -2       260       190       181       254       261       193       256       262       263       195
 -1        29    4    0    1
 -2       147       233       234       148       199       264       265       200       240       241
 -2       242       159       203       266       267       204       268       269       270       207
 -1        30    4    0    1
 -2       148       234       244       164       200       265       271       210       242       248
 -2       249       171       204       267       272       212       270       273       274       214
 -1        31    4    0    1
 -2       164       244       251       176       210       271       275       217       249       255
 -2       256       183       212       272       276       219       274       277       278       221
 -1        32    4    0    1
 -2       176       251       258       188       217       275       279       224       256       262
 -2       263       195       219       276       280       226       278       281       282       228
 -3
 9999
