# vtk DataFile Version 3.0

ASCII
DATASET UNSTRUCTURED_GRID

POINTS 261 double
	 0.00000000E+00	 0.00000000E+00	 0.00000000E+00
	 1.00000000E+00	 0.00000000E+00	 0.00000000E+00
	 1.00000000E+00	 1.00000000E+00	 0.00000000E+00
	 0.00000000E+00	 1.00000000E+00	 0.00000000E+00
	 0.00000000E+00	 0.00000000E+00	 8.00000000E+00
	 1.00000000E+00	 0.00000000E+00	 8.00000000E+00
	 1.00000000E+00	 1.00000000E+00	 8.00000000E+00
	 0.00000000E+00	 1.00000000E+00	 8.00000000E+00
	 2.50000000E-01	 0.00000000E+00	 0.00000000E+00
	 5.00000000E-01	 0.00000000E+00	 0.00000000E+00
	 7.50000000E-01	 0.00000000E+00	 0.00000000E+00
	 1.00000000E+00	 2.50000000E-01	 0.00000000E+00
	 1.00000000E+00	 5.00000000E-01	 0.00000000E+00
	 1.00000000E+00	 7.50000000E-01	 0.00000000E+00
	 7.50000000E-01	 1.00000000E+00	 0.00000000E+00
	 5.00000000E-01	 1.00000000E+00	 0.00000000E+00
	 2.50000000E-01	 1.00000000E+00	 0.00000000E+00
	 0.00000000E+00	 7.50000000E-01	 0.00000000E+00
	 0.00000000E+00	 5.00000000E-01	 0.00000000E+00
	 0.00000000E+00	 2.50000000E-01	 0.00000000E+00
	 2.50000000E-01	 0.00000000E+00	 8.00000000E+00
	 5.00000000E-01	 0.00000000E+00	 8.00000000E+00
	 7.50000000E-01	 0.00000000E+00	 8.00000000E+00
	 1.00000000E+00	 2.50000000E-01	 8.00000000E+00
	 1.00000000E+00	 5.00000000E-01	 8.00000000E+00
	 1.00000000E+00	 7.50000000E-01	 8.00000000E+00
	 7.50000000E-01	 1.00000000E+00	 8.00000000E+00
	 5.00000000E-01	 1.00000000E+00	 8.00000000E+00
	 2.50000000E-01	 1.00000000E+00	 8.00000000E+00
	 0.00000000E+00	 7.50000000E-01	 8.00000000E+00
	 0.00000000E+00	 5.00000000E-01	 8.00000000E+00
	 0.00000000E+00	 2.50000000E-01	 8.00000000E+00
	 1.00000000E+00	 0.00000000E+00	 5.00000000E-01
	 1.00000000E+00	 0.00000000E+00	 1.00000000E+00
	 1.00000000E+00	 0.00000000E+00	 1.50000000E+00
	 1.00000000E+00	 0.00000000E+00	 2.00000000E+00
	 1.00000000E+00	 0.00000000E+00	 2.50000000E+00
	 1.00000000E+00	 0.00000000E+00	 3.00000000E+00
	 1.00000000E+00	 0.00000000E+00	 3.50000000E+00
	 1.00000000E+00	 0.00000000E+00	 4.00000000E+00
	 1.00000000E+00	 0.00000000E+00	 4.50000000E+00
	 1.00000000E+00	 0.00000000E+00	 5.00000000E+00
	 1.00000000E+00	 0.00000000E+00	 5.50000000E+00
	 1.00000000E+00	 0.00000000E+00	 6.00000000E+00
	 1.00000000E+00	 0.00000000E+00	 6.50000000E+00
	 1.00000000E+00	 0.00000000E+00	 7.00000000E+00
	 1.00000000E+00	 0.00000000E+00	 7.50000000E+00
	 0.00000000E+00	 0.00000000E+00	 7.50000000E+00
	 0.00000000E+00	 0.00000000E+00	 7.00000000E+00
	 0.00000000E+00	 0.00000000E+00	 6.50000000E+00
	 0.00000000E+00	 0.00000000E+00	 6.00000000E+00
	 0.00000000E+00	 0.00000000E+00	 5.50000000E+00
	 0.00000000E+00	 0.00000000E+00	 5.00000000E+00
	 0.00000000E+00	 0.00000000E+00	 4.50000000E+00
	 0.00000000E+00	 0.00000000E+00	 4.00000000E+00
	 0.00000000E+00	 0.00000000E+00	 3.50000000E+00
	 0.00000000E+00	 0.00000000E+00	 3.00000000E+00
	 0.00000000E+00	 0.00000000E+00	 2.50000000E+00
	 0.00000000E+00	 0.00000000E+00	 2.00000000E+00
	 0.00000000E+00	 0.00000000E+00	 1.50000000E+00
	 0.00000000E+00	 0.00000000E+00	 1.00000000E+00
	 0.00000000E+00	 0.00000000E+00	 5.00000000E-01
	 1.00000000E+00	 1.00000000E+00	 5.00000000E-01
	 1.00000000E+00	 1.00000000E+00	 1.00000000E+00
	 1.00000000E+00	 1.00000000E+00	 1.50000000E+00
	 1.00000000E+00	 1.00000000E+00	 2.00000000E+00
	 1.00000000E+00	 1.00000000E+00	 2.50000000E+00
	 1.00000000E+00	 1.00000000E+00	 3.00000000E+00
	 1.00000000E+00	 1.00000000E+00	 3.50000000E+00
	 1.00000000E+00	 1.00000000E+00	 4.00000000E+00
	 1.00000000E+00	 1.00000000E+00	 4.50000000E+00
	 1.00000000E+00	 1.00000000E+00	 5.00000000E+00
	 1.00000000E+00	 1.00000000E+00	 5.50000000E+00
	 1.00000000E+00	 1.00000000E+00	 6.00000000E+00
	 1.00000000E+00	 1.00000000E+00	 6.50000000E+00
	 1.00000000E+00	 1.00000000E+00	 7.00000000E+00
	 1.00000000E+00	 1.00000000E+00	 7.50000000E+00
	 0.00000000E+00	 1.00000000E+00	 5.00000000E-01
	 0.00000000E+00	 1.00000000E+00	 1.00000000E+00
	 0.00000000E+00	 1.00000000E+00	 1.50000000E+00
	 0.00000000E+00	 1.00000000E+00	 2.00000000E+00
	 0.00000000E+00	 1.00000000E+00	 2.50000000E+00
	 0.00000000E+00	 1.00000000E+00	 3.00000000E+00
	 0.00000000E+00	 1.00000000E+00	 3.50000000E+00
	 0.00000000E+00	 1.00000000E+00	 4.00000000E+00
	 0.00000000E+00	 1.00000000E+00	 4.50000000E+00
	 0.00000000E+00	 1.00000000E+00	 5.00000000E+00
	 0.00000000E+00	 1.00000000E+00	 5.50000000E+00
	 0.00000000E+00	 1.00000000E+00	 6.00000000E+00
	 0.00000000E+00	 1.00000000E+00	 6.50000000E+00
	 0.00000000E+00	 1.00000000E+00	 7.00000000E+00
	 0.00000000E+00	 1.00000000E+00	 7.50000000E+00
	 5.00000000E-01	 2.50000000E-01	 0.00000000E+00
	 2.50000000E-01	 5.00000000E-01	 0.00000000E+00
	 5.00000000E-01	 5.00000000E-01	 0.00000000E+00
	 7.50000000E-01	 5.00000000E-01	 0.00000000E+00
	 5.00000000E-01	 7.50000000E-01	 0.00000000E+00
	 5.00000000E-01	 2.50000000E-01	 8.00000000E+00
	 2.50000000E-01	 5.00000000E-01	 8.00000000E+00
	 5.00000000E-01	 5.00000000E-01	 8.00000000E+00
	 7.50000000E-01	 5.00000000E-01	 8.00000000E+00
	 5.00000000E-01	 7.50000000E-01	 8.00000000E+00
	 5.00000000E-01	 0.00000000E+00	 5.00000000E-01
	 2.50000000E-01	 0.00000000E+00	 1.00000000E+00
	 5.00000000E-01	 0.00000000E+00	 1.00000000E+00
	 7.50000000E-01	 0.00000000E+00	 1.00000000E+00
	 5.00000000E-01	 0.00000000E+00	 1.50000000E+00
	 2.50000000E-01	 0.00000000E+00	 2.00000000E+00
	 5.00000000E-01	 0.00000000E+00	 2.00000000E+00
	 7.50000000E-01	 0.00000000E+00	 2.00000000E+00
	 5.00000000E-01	 0.00000000E+00	 2.50000000E+00
	 2.50000000E-01	 0.00000000E+00	 3.00000000E+00
	 5.00000000E-01	 0.00000000E+00	 3.00000000E+00
	 7.50000000E-01	 0.00000000E+00	 3.00000000E+00
	 5.00000000E-01	 0.00000000E+00	 3.50000000E+00
	 2.50000000E-01	 0.00000000E+00	 4.00000000E+00
	 5.00000000E-01	 0.00000000E+00	 4.00000000E+00
	 7.50000000E-01	 0.00000000E+00	 4.00000000E+00
	 5.00000000E-01	 0.00000000E+00	 4.50000000E+00
	 2.50000000E-01	 0.00000000E+00	 5.00000000E+00
	 5.00000000E-01	 0.00000000E+00	 5.00000000E+00
	 7.50000000E-01	 0.00000000E+00	 5.00000000E+00
	 5.00000000E-01	 0.00000000E+00	 5.50000000E+00
	 2.50000000E-01	 0.00000000E+00	 6.00000000E+00
	 5.00000000E-01	 0.00000000E+00	 6.00000000E+00
	 7.50000000E-01	 0.00000000E+00	 6.00000000E+00
	 5.00000000E-01	 0.00000000E+00	 6.50000000E+00
	 2.50000000E-01	 0.00000000E+00	 7.00000000E+00
	 5.00000000E-01	 0.00000000E+00	 7.00000000E+00
	 7.50000000E-01	 0.00000000E+00	 7.00000000E+00
	 5.00000000E-01	 0.00000000E+00	 7.50000000E+00
	 1.00000000E+00	 5.00000000E-01	 5.00000000E-01
	 1.00000000E+00	 2.50000000E-01	 1.00000000E+00
	 1.00000000E+00	 5.00000000E-01	 1.00000000E+00
	 1.00000000E+00	 7.50000000E-01	 1.00000000E+00
	 1.00000000E+00	 5.00000000E-01	 1.50000000E+00
	 1.00000000E+00	 2.50000000E-01	 2.00000000E+00
	 1.00000000E+00	 5.00000000E-01	 2.00000000E+00
	 1.00000000E+00	 7.50000000E-01	 2.00000000E+00
	 1.00000000E+00	 5.00000000E-01	 2.50000000E+00
	 1.00000000E+00	 2.50000000E-01	 3.00000000E+00
	 1.00000000E+00	 5.00000000E-01	 3.00000000E+00
	 1.00000000E+00	 7.50000000E-01	 3.00000000E+00
	 1.00000000E+00	 5.00000000E-01	 3.50000000E+00
	 1.00000000E+00	 2.50000000E-01	 4.00000000E+00
	 1.00000000E+00	 5.00000000E-01	 4.00000000E+00
	 1.00000000E+00	 7.50000000E-01	 4.00000000E+00
	 1.00000000E+00	 5.00000000E-01	 4.50000000E+00
	 1.00000000E+00	 2.50000000E-01	 5.00000000E+00
	 1.00000000E+00	 5.00000000E-01	 5.00000000E+00
	 1.00000000E+00	 7.50000000E-01	 5.00000000E+00
	 1.00000000E+00	 5.00000000E-01	 5.50000000E+00
	 1.00000000E+00	 2.50000000E-01	 6.00000000E+00
	 1.00000000E+00	 5.00000000E-01	 6.00000000E+00
	 1.00000000E+00	 7.50000000E-01	 6.00000000E+00
	 1.00000000E+00	 5.00000000E-01	 6.50000000E+00
	 1.00000000E+00	 2.50000000E-01	 7.00000000E+00
	 1.00000000E+00	 5.00000000E-01	 7.00000000E+00
	 1.00000000E+00	 7.50000000E-01	 7.00000000E+00
	 1.00000000E+00	 5.00000000E-01	 7.50000000E+00
	 5.00000000E-01	 1.00000000E+00	 5.00000000E-01
	 7.50000000E-01	 1.00000000E+00	 1.00000000E+00
	 5.00000000E-01	 1.00000000E+00	 1.00000000E+00
	 2.50000000E-01	 1.00000000E+00	 1.00000000E+00
	 5.00000000E-01	 1.00000000E+00	 1.50000000E+00
	 7.50000000E-01	 1.00000000E+00	 2.00000000E+00
	 5.00000000E-01	 1.00000000E+00	 2.00000000E+00
	 2.50000000E-01	 1.00000000E+00	 2.00000000E+00
	 5.00000000E-01	 1.00000000E+00	 2.50000000E+00
	 7.50000000E-01	 1.00000000E+00	 3.00000000E+00
	 5.00000000E-01	 1.00000000E+00	 3.00000000E+00
	 2.50000000E-01	 1.00000000E+00	 3.00000000E+00
	 5.00000000E-01	 1.00000000E+00	 3.50000000E+00
	 7.50000000E-01	 1.00000000E+00	 4.00000000E+00
	 5.00000000E-01	 1.00000000E+00	 4.00000000E+00
	 2.50000000E-01	 1.00000000E+00	 4.00000000E+00
	 5.00000000E-01	 1.00000000E+00	 4.50000000E+00
	 7.50000000E-01	 1.00000000E+00	 5.00000000E+00
	 5.00000000E-01	 1.00000000E+00	 5.00000000E+00
	 2.50000000E-01	 1.00000000E+00	 5.00000000E+00
	 5.00000000E-01	 1.00000000E+00	 5.50000000E+00
	 7.50000000E-01	 1.00000000E+00	 6.00000000E+00
	 5.00000000E-01	 1.00000000E+00	 6.00000000E+00
	 2.50000000E-01	 1.00000000E+00	 6.00000000E+00
	 5.00000000E-01	 1.00000000E+00	 6.50000000E+00
	 7.50000000E-01	 1.00000000E+00	 7.00000000E+00
	 5.00000000E-01	 1.00000000E+00	 7.00000000E+00
	 2.50000000E-01	 1.00000000E+00	 7.00000000E+00
	 5.00000000E-01	 1.00000000E+00	 7.50000000E+00
	 0.00000000E+00	 5.00000000E-01	 5.00000000E-01
	 0.00000000E+00	 7.50000000E-01	 1.00000000E+00
	 0.00000000E+00	 5.00000000E-01	 1.00000000E+00
	 0.00000000E+00	 2.50000000E-01	 1.00000000E+00
	 0.00000000E+00	 5.00000000E-01	 1.50000000E+00
	 0.00000000E+00	 7.50000000E-01	 2.00000000E+00
	 0.00000000E+00	 5.00000000E-01	 2.00000000E+00
	 0.00000000E+00	 2.50000000E-01	 2.00000000E+00
	 0.00000000E+00	 5.00000000E-01	 2.50000000E+00
	 0.00000000E+00	 7.50000000E-01	 3.00000000E+00
	 0.00000000E+00	 5.00000000E-01	 3.00000000E+00
	 0.00000000E+00	 2.50000000E-01	 3.00000000E+00
	 0.00000000E+00	 5.00000000E-01	 3.50000000E+00
	 0.00000000E+00	 7.50000000E-01	 4.00000000E+00
	 0.00000000E+00	 5.00000000E-01	 4.00000000E+00
	 0.00000000E+00	 2.50000000E-01	 4.00000000E+00
	 0.00000000E+00	 5.00000000E-01	 4.50000000E+00
	 0.00000000E+00	 7.50000000E-01	 5.00000000E+00
	 0.00000000E+00	 5.00000000E-01	 5.00000000E+00
	 0.00000000E+00	 2.50000000E-01	 5.00000000E+00
	 0.00000000E+00	 5.00000000E-01	 5.50000000E+00
	 0.00000000E+00	 7.50000000E-01	 6.00000000E+00
	 0.00000000E+00	 5.00000000E-01	 6.00000000E+00
	 0.00000000E+00	 2.50000000E-01	 6.00000000E+00
	 0.00000000E+00	 5.00000000E-01	 6.50000000E+00
	 0.00000000E+00	 7.50000000E-01	 7.00000000E+00
	 0.00000000E+00	 5.00000000E-01	 7.00000000E+00
	 0.00000000E+00	 2.50000000E-01	 7.00000000E+00
	 0.00000000E+00	 5.00000000E-01	 7.50000000E+00
	 5.00000000E-01	 5.00000000E-01	 5.00000000E-01
	 5.00000000E-01	 2.50000000E-01	 1.00000000E+00
	 2.50000000E-01	 5.00000000E-01	 1.00000000E+00
	 5.00000000E-01	 5.00000000E-01	 1.00000000E+00
	 7.50000000E-01	 5.00000000E-01	 1.00000000E+00
	 5.00000000E-01	 7.50000000E-01	 1.00000000E+00
	 5.00000000E-01	 5.00000000E-01	 1.50000000E+00
	 5.00000000E-01	 2.50000000E-01	 2.00000000E+00
	 2.50000000E-01	 5.00000000E-01	 2.00000000E+00
	 5.00000000E-01	 5.00000000E-01	 2.00000000E+00
	 7.50000000E-01	 5.00000000E-01	 2.00000000E+00
	 5.00000000E-01	 7.50000000E-01	 2.00000000E+00
	 5.00000000E-01	 5.00000000E-01	 2.50000000E+00
	 5.00000000E-01	 2.50000000E-01	 3.00000000E+00
	 2.50000000E-01	 5.00000000E-01	 3.00000000E+00
	 5.00000000E-01	 5.00000000E-01	 3.00000000E+00
	 7.50000000E-01	 5.00000000E-01	 3.00000000E+00
	 5.00000000E-01	 7.50000000E-01	 3.00000000E+00
	 5.00000000E-01	 5.00000000E-01	 3.50000000E+00
	 5.00000000E-01	 2.50000000E-01	 4.00000000E+00
	 2.50000000E-01	 5.00000000E-01	 4.00000000E+00
	 5.00000000E-01	 5.00000000E-01	 4.00000000E+00
	 7.50000000E-01	 5.00000000E-01	 4.00000000E+00
	 5.00000000E-01	 7.50000000E-01	 4.00000000E+00
	 5.00000000E-01	 5.00000000E-01	 4.50000000E+00
	 5.00000000E-01	 2.50000000E-01	 5.00000000E+00
	 2.50000000E-01	 5.00000000E-01	 5.00000000E+00
	 5.00000000E-01	 5.00000000E-01	 5.00000000E+00
	 7.50000000E-01	 5.00000000E-01	 5.00000000E+00
	 5.00000000E-01	 7.50000000E-01	 5.00000000E+00
	 5.00000000E-01	 5.00000000E-01	 5.50000000E+00
	 5.00000000E-01	 2.50000000E-01	 6.00000000E+00
	 2.50000000E-01	 5.00000000E-01	 6.00000000E+00
	 5.00000000E-01	 5.00000000E-01	 6.00000000E+00
	 7.50000000E-01	 5.00000000E-01	 6.00000000E+00
	 5.00000000E-01	 7.50000000E-01	 6.00000000E+00
	 5.00000000E-01	 5.00000000E-01	 6.50000000E+00
	 5.00000000E-01	 2.50000000E-01	 7.00000000E+00
	 2.50000000E-01	 5.00000000E-01	 7.00000000E+00
	 5.00000000E-01	 5.00000000E-01	 7.00000000E+00
	 7.50000000E-01	 5.00000000E-01	 7.00000000E+00
	 5.00000000E-01	 7.50000000E-01	 7.00000000E+00
	 5.00000000E-01	 5.00000000E-01	 7.50000000E+00

CELLS 32 672
	20 0 9 94 18 60 104 221 191 8 92 93 19 103 219 220 192 61 102 218 189 
	20 9 1 12 94 104 33 133 221 10 11 95 92 105 132 222 219 102 32 131 218 
	20 18 94 15 3 191 221 162 78 93 96 16 17 220 223 163 190 189 218 160 77 
	20 94 12 2 15 221 133 63 162 95 13 14 96 222 134 161 223 218 131 62 160 
	20 60 104 221 191 58 108 227 195 103 219 220 192 107 225 226 196 59 106 224 193 
	20 104 33 133 221 108 35 137 227 105 132 222 219 109 136 228 225 106 34 135 224 
	20 191 221 162 78 195 227 166 80 220 223 163 190 226 229 167 194 193 224 164 79 
	20 221 133 63 162 227 137 65 166 222 134 161 223 228 138 165 229 224 135 64 164 
	20 58 108 227 195 56 112 233 199 107 225 226 196 111 231 232 200 57 110 230 197 
	20 108 35 137 227 112 37 141 233 109 136 228 225 113 140 234 231 110 36 139 230 
	20 195 227 166 80 199 233 170 82 226 229 167 194 232 235 171 198 197 230 168 81 
	20 227 137 65 166 233 141 67 170 228 138 165 229 234 142 169 235 230 139 66 168 
	20 56 112 233 199 54 116 239 203 111 231 232 200 115 237 238 204 55 114 236 201 
	20 112 37 141 233 116 39 145 239 113 140 234 231 117 144 240 237 114 38 143 236 
	20 199 233 170 82 203 239 174 84 232 235 171 198 238 241 175 202 201 236 172 83 
	20 233 141 67 170 239 145 69 174 234 142 169 235 240 146 173 241 236 143 68 172 
	20 54 116 239 203 52 120 245 207 115 237 238 204 119 243 244 208 53 118 242 205 
	20 116 39 145 239 120 41 149 245 117 144 240 237 121 148 246 243 118 40 147 242 
	20 203 239 174 84 207 245 178 86 238 241 175 202 244 247 179 206 205 242 176 85 
	20 239 145 69 174 245 149 71 178 240 146 173 241 246 150 177 247 242 147 70 176 
	20 52 120 245 207 50 124 251 211 119 243 244 208 123 249 250 212 51 122 248 209 
	20 120 41 149 245 124 43 153 251 121 148 246 243 125 152 252 249 122 42 151 248 
	20 207 245 178 86 211 251 182 88 244 247 179 206 250 253 183 210 209 248 180 87 
	20 245 149 71 178 251 153 73 182 246 150 177 247 252 154 181 253 248 151 72 180 
	20 50 124 251 211 48 128 257 215 123 249 250 212 127 255 256 216 49 126 254 213 
	20 124 43 153 251 128 45 157 257 125 152 252 249 129 156 258 255 126 44 155 254 
	20 211 251 182 88 215 257 186 90 250 253 183 210 256 259 187 214 213 254 184 89 
	20 251 153 73 182 257 157 75 186 252 154 181 253 258 158 185 259 254 155 74 184 
	20 48 128 257 215 4 21 99 30 127 255 256 216 20 97 98 31 47 130 260 217 
	20 128 45 157 257 21 5 24 99 129 156 258 255 22 23 100 97 130 46 159 260 
	20 215 257 186 90 30 99 27 7 256 259 187 214 98 101 28 29 217 260 188 91 
	20 257 157 75 186 99 24 6 27 258 158 185 259 100 25 26 101 260 159 76 188 

CELL_TYPES 32
	25
	25
	25
	25
	25
	25
	25
	25
	25
	25
	25
	25
	25
	25
	25
	25
	25
	25
	25
	25
	25
	25
	25
	25
	25
	25
	25
	25
	25
	25
	25
	25

POINT_DATA 261
FIELD NORM 1
	NORM 3 261 double
		 0.00000000E+00	 0.00000000E+00	 0.00000000E+00
		 0.00000000E+00	 0.00000000E+00	 0.00000000E+00
		 0.00000000E+00	 0.00000000E+00	 0.00000000E+00
		 0.00000000E+00	 0.00000000E+00	 0.00000000E+00
		-5.77350000E-01	-5.77350000E-01	 5.77350000E-01
		 5.77350000E-01	-5.77350000E-01	 5.77350000E-01
		 5.77350000E-01	 5.77350000E-01	 5.77350000E-01
		-5.77350000E-01	 5.77350000E-01	 5.77350000E-01
		 0.00000000E+00	 0.00000000E+00	 0.00000000E+00
		 0.00000000E+00	 0.00000000E+00	 0.00000000E+00
		 0.00000000E+00	 0.00000000E+00	 0.00000000E+00
		 0.00000000E+00	 0.00000000E+00	 0.00000000E+00
		 0.00000000E+00	 0.00000000E+00	 0.00000000E+00
		 0.00000000E+00	 0.00000000E+00	 0.00000000E+00
		 0.00000000E+00	 0.00000000E+00	 0.00000000E+00
		 0.00000000E+00	 0.00000000E+00	 0.00000000E+00
		 0.00000000E+00	 0.00000000E+00	 0.00000000E+00
		 0.00000000E+00	 0.00000000E+00	 0.00000000E+00
		 0.00000000E+00	 0.00000000E+00	 0.00000000E+00
		 0.00000000E+00	 0.00000000E+00	 0.00000000E+00
		 0.00000000E+00	-7.07107000E-01	 7.07107000E-01
		 0.00000000E+00	-7.07107000E-01	 7.07107000E-01
		 0.00000000E+00	-7.07107000E-01	 7.07107000E-01
		 7.07107000E-01	 0.00000000E+00	 7.07107000E-01
		 7.07107000E-01	 0.00000000E+00	 7.07107000E-01
		 7.07107000E-01	 0.00000000E+00	 7.07107000E-01
		 0.00000000E+00	 7.07107000E-01	 7.07107000E-01
		 0.00000000E+00	 7.07107000E-01	 7.07107000E-01
		 0.00000000E+00	 7.07107000E-01	 7.07107000E-01
		-7.07107000E-01	 0.00000000E+00	 7.07107000E-01
		-7.07107000E-01	 0.00000000E+00	 7.07107000E-01
		-7.07107000E-01	 0.00000000E+00	 7.07107000E-01
		 7.07107000E-01	-7.07107000E-01	 0.00000000E+00
		 7.07107000E-01	-7.07107000E-01	 0.00000000E+00
		 7.07107000E-01	-7.07107000E-01	 0.00000000E+00
		 7.07107000E-01	-7.07107000E-01	 0.00000000E+00
		 7.07107000E-01	-7.07107000E-01	 0.00000000E+00
		 7.07107000E-01	-7.07107000E-01	 0.00000000E+00
		 7.07107000E-01	-7.07107000E-01	 0.00000000E+00
		 7.07107000E-01	-7.07107000E-01	 0.00000000E+00
		 7.07107000E-01	-7.07107000E-01	 0.00000000E+00
		 7.07107000E-01	-7.07107000E-01	 0.00000000E+00
		 7.07107000E-01	-7.07107000E-01	 0.00000000E+00
		 7.07107000E-01	-7.07107000E-01	 0.00000000E+00
		 7.07107000E-01	-7.07107000E-01	 0.00000000E+00
		 7.07107000E-01	-7.07107000E-01	 0.00000000E+00
		 7.07107000E-01	-7.07107000E-01	 0.00000000E+00
		-7.07107000E-01	-7.07107000E-01	 0.00000000E+00
		-7.07107000E-01	-7.07107000E-01	 0.00000000E+00
		-7.07107000E-01	-7.07107000E-01	 0.00000000E+00
		-7.07107000E-01	-7.07107000E-01	 0.00000000E+00
		-7.07107000E-01	-7.07107000E-01	 0.00000000E+00
		-7.07107000E-01	-7.07107000E-01	 0.00000000E+00
		-7.07107000E-01	-7.07107000E-01	 0.00000000E+00
		-7.07107000E-01	-7.07107000E-01	 0.00000000E+00
		-7.07107000E-01	-7.07107000E-01	 0.00000000E+00
		-7.07107000E-01	-7.07107000E-01	 0.00000000E+00
		-7.07107000E-01	-7.07107000E-01	 0.00000000E+00
		-7.07107000E-01	-7.07107000E-01	 0.00000000E+00
		-7.07107000E-01	-7.07107000E-01	 0.00000000E+00
		-7.07107000E-01	-7.07107000E-01	 0.00000000E+00
		-7.07107000E-01	-7.07107000E-01	 0.00000000E+00
		 7.07107000E-01	 7.07107000E-01	 0.00000000E+00
		 7.07107000E-01	 7.07107000E-01	 0.00000000E+00
		 7.07107000E-01	 7.07107000E-01	 0.00000000E+00
		 7.07107000E-01	 7.07107000E-01	 0.00000000E+00
		 7.07107000E-01	 7.07107000E-01	 0.00000000E+00
		 7.07107000E-01	 7.07107000E-01	 0.00000000E+00
		 7.07107000E-01	 7.07107000E-01	 0.00000000E+00
		 7.07107000E-01	 7.07107000E-01	 0.00000000E+00
		 7.07107000E-01	 7.07107000E-01	 0.00000000E+00
		 7.07107000E-01	 7.07107000E-01	 0.00000000E+00
		 7.07107000E-01	 7.07107000E-01	 0.00000000E+00
		 7.07107000E-01	 7.07107000E-01	 0.00000000E+00
		 7.07107000E-01	 7.07107000E-01	 0.00000000E+00
		 7.07107000E-01	 7.07107000E-01	 0.00000000E+00
		 7.07107000E-01	 7.07107000E-01	 0.00000000E+00
		-7.07107000E-01	 7.07107000E-01	 0.00000000E+00
		-7.07107000E-01	 7.07107000E-01	 0.00000000E+00
		-7.07107000E-01	 7.07107000E-01	 0.00000000E+00
		-7.07107000E-01	 7.07107000E-01	 0.00000000E+00
		-7.07107000E-01	 7.07107000E-01	 0.00000000E+00
		-7.07107000E-01	 7.07107000E-01	 0.00000000E+00
		-7.07107000E-01	 7.07107000E-01	 0.00000000E+00
		-7.07107000E-01	 7.07107000E-01	 0.00000000E+00
		-7.07107000E-01	 7.07107000E-01	 0.00000000E+00
		-7.07107000E-01	 7.07107000E-01	 0.00000000E+00
		-7.07107000E-01	 7.07107000E-01	 0.00000000E+00
		-7.07107000E-01	 7.07107000E-01	 0.00000000E+00
		-7.07107000E-01	 7.07107000E-01	 0.00000000E+00
		-7.07107000E-01	 7.07107000E-01	 0.00000000E+00
		-7.07107000E-01	 7.07107000E-01	 0.00000000E+00
		 0.00000000E+00	 0.00000000E+00	 0.00000000E+00
		 0.00000000E+00	 0.00000000E+00	 0.00000000E+00
		 0.00000000E+00	 0.00000000E+00	 0.00000000E+00
		 0.00000000E+00	 0.00000000E+00	 0.00000000E+00
		 0.00000000E+00	 0.00000000E+00	 0.00000000E+00
		 0.00000000E+00	 0.00000000E+00	 1.00000000E+00
		 0.00000000E+00	 0.00000000E+00	 1.00000000E+00
		 0.00000000E+00	 0.00000000E+00	 1.00000000E+00
		 0.00000000E+00	 0.00000000E+00	 1.00000000E+00
		 0.00000000E+00	 0.00000000E+00	 1.00000000E+00
		 0.00000000E+00	-1.00000000E+00	 0.00000000E+00
		 0.00000000E+00	-1.00000000E+00	 0.00000000E+00
		 0.00000000E+00	-1.00000000E+00	 0.00000000E+00
		 0.00000000E+00	-1.00000000E+00	 0.00000000E+00
		 0.00000000E+00	-1.00000000E+00	 0.00000000E+00
		 0.00000000E+00	-1.00000000E+00	 0.00000000E+00
		 0.00000000E+00	-1.00000000E+00	 0.00000000E+00
		 0.00000000E+00	-1.00000000E+00	 0.00000000E+00
		 0.00000000E+00	-1.00000000E+00	 0.00000000E+00
		 0.00000000E+00	-1.00000000E+00	 0.00000000E+00
		 0.00000000E+00	-1.00000000E+00	 0.00000000E+00
		 0.00000000E+00	-1.00000000E+00	 0.00000000E+00
		 0.00000000E+00	-1.00000000E+00	 0.00000000E+00
		 0.00000000E+00	-1.00000000E+00	 0.00000000E+00
		 0.00000000E+00	-1.00000000E+00	 0.00000000E+00
		 0.00000000E+00	-1.00000000E+00	 0.00000000E+00
		 0.00000000E+00	-1.00000000E+00	 0.00000000E+00
		 0.00000000E+00	-1.00000000E+00	 0.00000000E+00
		 0.00000000E+00	-1.00000000E+00	 0.00000000E+00
		 0.00000000E+00	-1.00000000E+00	 0.00000000E+00
		 0.00000000E+00	-1.00000000E+00	 0.00000000E+00
		 0.00000000E+00	-1.00000000E+00	 0.00000000E+00
		 0.00000000E+00	-1.00000000E+00	 0.00000000E+00
		 0.00000000E+00	-1.00000000E+00	 0.00000000E+00
		 0.00000000E+00	-1.00000000E+00	 0.00000000E+00
		 0.00000000E+00	-1.00000000E+00	 0.00000000E+00
		 0.00000000E+00	-1.00000000E+00	 0.00000000E+00
		 0.00000000E+00	-1.00000000E+00	 0.00000000E+00
		 0.00000000E+00	-1.00000000E+00	 0.00000000E+00
		 1.00000000E+00	 0.00000000E+00	 0.00000000E+00
		 1.00000000E+00	 0.00000000E+00	 0.00000000E+00
		 1.00000000E+00	 0.00000000E+00	 0.00000000E+00
		 1.00000000E+00	 0.00000000E+00	 0.00000000E+00
		 1.00000000E+00	 0.00000000E+00	 0.00000000E+00
		 1.00000000E+00	 0.00000000E+00	 0.00000000E+00
		 1.00000000E+00	 0.00000000E+00	 0.00000000E+00
		 1.00000000E+00	 0.00000000E+00	 0.00000000E+00
		 1.00000000E+00	 0.00000000E+00	 0.00000000E+00
		 1.00000000E+00	 0.00000000E+00	 0.00000000E+00
		 1.00000000E+00	 0.00000000E+00	 0.00000000E+00
		 1.00000000E+00	 0.00000000E+00	 0.00000000E+00
		 1.00000000E+00	 0.00000000E+00	 0.00000000E+00
		 1.00000000E+00	 0.00000000E+00	 0.00000000E+00
		 1.00000000E+00	 0.00000000E+00	 0.00000000E+00
		 1.00000000E+00	 0.00000000E+00	 0.00000000E+00
		 1.00000000E+00	 0.00000000E+00	 0.00000000E+00
		 1.00000000E+00	 0.00000000E+00	 0.00000000E+00
		 1.00000000E+00	 0.00000000E+00	 0.00000000E+00
		 1.00000000E+00	 0.00000000E+00	 0.00000000E+00
		 1.00000000E+00	 0.00000000E+00	 0.00000000E+00
		 1.00000000E+00	 0.00000000E+00	 0.00000000E+00
		 1.00000000E+00	 0.00000000E+00	 0.00000000E+00
		 1.00000000E+00	 0.00000000E+00	 0.00000000E+00
		 1.00000000E+00	 0.00000000E+00	 0.00000000E+00
		 1.00000000E+00	 0.00000000E+00	 0.00000000E+00
		 1.00000000E+00	 0.00000000E+00	 0.00000000E+00
		 1.00000000E+00	 0.00000000E+00	 0.00000000E+00
		 1.00000000E+00	 0.00000000E+00	 0.00000000E+00
		 0.00000000E+00	 1.00000000E+00	 0.00000000E+00
		 0.00000000E+00	 1.00000000E+00	 0.00000000E+00
		 0.00000000E+00	 1.00000000E+00	 0.00000000E+00
		 0.00000000E+00	 1.00000000E+00	 0.00000000E+00
		 0.00000000E+00	 1.00000000E+00	 0.00000000E+00
		 0.00000000E+00	 1.00000000E+00	 0.00000000E+00
		 0.00000000E+00	 1.00000000E+00	 0.00000000E+00
		 0.00000000E+00	 1.00000000E+00	 0.00000000E+00
		 0.00000000E+00	 1.00000000E+00	 0.00000000E+00
		 0.00000000E+00	 1.00000000E+00	 0.00000000E+00
		 0.00000000E+00	 1.00000000E+00	 0.00000000E+00
		 0.00000000E+00	 1.00000000E+00	 0.00000000E+00
		 0.00000000E+00	 1.00000000E+00	 0.00000000E+00
		 0.00000000E+00	 1.00000000E+00	 0.00000000E+00
		 0.00000000E+00	 1.00000000E+00	 0.00000000E+00
		 0.00000000E+00	 1.00000000E+00	 0.00000000E+00
		 0.00000000E+00	 1.00000000E+00	 0.00000000E+00
		 0.00000000E+00	 1.00000000E+00	 0.00000000E+00
		 0.00000000E+00	 1.00000000E+00	 0.00000000E+00
		 0.00000000E+00	 1.00000000E+00	 0.00000000E+00
		 0.00000000E+00	 1.00000000E+00	 0.00000000E+00
		 0.00000000E+00	 1.00000000E+00	 0.00000000E+00
		 0.00000000E+00	 1.00000000E+00	 0.00000000E+00
		 0.00000000E+00	 1.00000000E+00	 0.00000000E+00
		 0.00000000E+00	 1.00000000E+00	 0.00000000E+00
		 0.00000000E+00	 1.00000000E+00	 0.00000000E+00
		 0.00000000E+00	 1.00000000E+00	 0.00000000E+00
		 0.00000000E+00	 1.00000000E+00	 0.00000000E+00
		 0.00000000E+00	 1.00000000E+00	 0.00000000E+00
		-1.00000000E+00	 0.00000000E+00	 0.00000000E+00
		-1.00000000E+00	 0.00000000E+00	 0.00000000E+00
		-1.00000000E+00	 0.00000000E+00	 0.00000000E+00
		-1.00000000E+00	 0.00000000E+00	 0.00000000E+00
		-1.00000000E+00	 0.00000000E+00	 0.00000000E+00
		-1.00000000E+00	 0.00000000E+00	 0.00000000E+00
		-1.00000000E+00	 0.00000000E+00	 0.00000000E+00
		-1.00000000E+00	 0.00000000E+00	 0.00000000E+00
		-1.00000000E+00	 0.00000000E+00	 0.00000000E+00
		-1.00000000E+00	 0.00000000E+00	 0.00000000E+00
		-1.00000000E+00	 0.00000000E+00	 0.00000000E+00
		-1.00000000E+00	 0.00000000E+00	 0.00000000E+00
		-1.00000000E+00	 0.00000000E+00	 0.00000000E+00
		-1.00000000E+00	 0.00000000E+00	 0.00000000E+00
		-1.00000000E+00	 0.00000000E+00	 0.00000000E+00
		-1.00000000E+00	 0.00000000E+00	 0.00000000E+00
		-1.00000000E+00	 0.00000000E+00	 0.00000000E+00
		-1.00000000E+00	 0.00000000E+00	 0.00000000E+00
		-1.00000000E+00	 0.00000000E+00	 0.00000000E+00
		-1.00000000E+00	 0.00000000E+00	 0.00000000E+00
		-1.00000000E+00	 0.00000000E+00	 0.00000000E+00
		-1.00000000E+00	 0.00000000E+00	 0.00000000E+00
		-1.00000000E+00	 0.00000000E+00	 0.00000000E+00
		-1.00000000E+00	 0.00000000E+00	 0.00000000E+00
		-1.00000000E+00	 0.00000000E+00	 0.00000000E+00
		-1.00000000E+00	 0.00000000E+00	 0.00000000E+00
		-1.00000000E+00	 0.00000000E+00	 0.00000000E+00
		-1.00000000E+00	 0.00000000E+00	 0.00000000E+00
		-1.00000000E+00	 0.00000000E+00	 0.00000000E+00
		 0.00000000E+00	 0.00000000E+00	 0.00000000E+00
		 0.00000000E+00	 0.00000000E+00	 0.00000000E+00
		 0.00000000E+00	 0.00000000E+00	 0.00000000E+00
		 0.00000000E+00	 0.00000000E+00	 0.00000000E+00
		 0.00000000E+00	 0.00000000E+00	 0.00000000E+00
		 0.00000000E+00	 0.00000000E+00	 0.00000000E+00
		 0.00000000E+00	 0.00000000E+00	 0.00000000E+00
		 0.00000000E+00	 0.00000000E+00	 0.00000000E+00
		 0.00000000E+00	 0.00000000E+00	 0.00000000E+00
		 0.00000000E+00	 0.00000000E+00	 0.00000000E+00
		 0.00000000E+00	 0.00000000E+00	 0.00000000E+00
		 0.00000000E+00	 0.00000000E+00	 0.00000000E+00
		 0.00000000E+00	 0.00000000E+00	 0.00000000E+00
		 0.00000000E+00	 0.00000000E+00	 0.00000000E+00
		 0.00000000E+00	 0.00000000E+00	 0.00000000E+00
		 0.00000000E+00	 0.00000000E+00	 0.00000000E+00
		 0.00000000E+00	 0.00000000E+00	 0.00000000E+00
		 0.00000000E+00	 0.00000000E+00	 0.00000000E+00
		 0.00000000E+00	 0.00000000E+00	 0.00000000E+00
		 0.00000000E+00	 0.00000000E+00	 0.00000000E+00
		 0.00000000E+00	 0.00000000E+00	 0.00000000E+00
		 0.00000000E+00	 0.00000000E+00	 0.00000000E+00
		 0.00000000E+00	 0.00000000E+00	 0.00000000E+00
		 0.00000000E+00	 0.00000000E+00	 0.00000000E+00
		 0.00000000E+00	 0.00000000E+00	 0.00000000E+00
		 0.00000000E+00	 0.00000000E+00	 0.00000000E+00
		 0.00000000E+00	 0.00000000E+00	 0.00000000E+00
		 0.00000000E+00	 0.00000000E+00	 0.00000000E+00
		 0.00000000E+00	 0.00000000E+00	 0.00000000E+00
		 0.00000000E+00	 0.00000000E+00	 0.00000000E+00
		 0.00000000E+00	 0.00000000E+00	 0.00000000E+00
		 0.00000000E+00	 0.00000000E+00	 0.00000000E+00
		 0.00000000E+00	 0.00000000E+00	 0.00000000E+00
		 0.00000000E+00	 0.00000000E+00	 0.00000000E+00
		 0.00000000E+00	 0.00000000E+00	 0.00000000E+00
		 0.00000000E+00	 0.00000000E+00	 0.00000000E+00
		 0.00000000E+00	 0.00000000E+00	 0.00000000E+00
		 0.00000000E+00	 0.00000000E+00	 0.00000000E+00
		 0.00000000E+00	 0.00000000E+00	 0.00000000E+00
		 0.00000000E+00	 0.00000000E+00	 0.00000000E+00
		 0.00000000E+00	 0.00000000E+00	 0.00000000E+00
		 0.00000000E+00	 0.00000000E+00	 0.00000000E+00
		 0.00000000E+00	 0.00000000E+00	 0.00000000E+00
FIELD RAND 1
	RAND 3 261 double
		 0.00000000E+00	 0.00000000E+00	 0.00000000E+00
		 0.00000000E+00	 0.00000000E+00	 0.00000000E+00
		 0.00000000E+00	 0.00000000E+00	 0.00000000E+00
		 0.00000000E+00	 0.00000000E+00	 0.00000000E+00
		-2.33178000E-02	-2.33178000E-02	 2.33178000E-02
		 2.34557000E-02	-2.34557000E-02	 2.34557000E-02
		 2.33161000E-02	 2.33161000E-02	 2.33161000E-02
		-1.82420000E-02	 1.82420000E-02	 1.82420000E-02
		 0.00000000E+00	 0.00000000E+00	 0.00000000E+00
		 0.00000000E+00	 0.00000000E+00	 0.00000000E+00
		 0.00000000E+00	 0.00000000E+00	 0.00000000E+00
		 0.00000000E+00	 0.00000000E+00	 0.00000000E+00
		 0.00000000E+00	 0.00000000E+00	 0.00000000E+00
		 0.00000000E+00	 0.00000000E+00	 0.00000000E+00
		 0.00000000E+00	 0.00000000E+00	 0.00000000E+00
		 0.00000000E+00	 0.00000000E+00	 0.00000000E+00
		 0.00000000E+00	 0.00000000E+00	 0.00000000E+00
		 0.00000000E+00	 0.00000000E+00	 0.00000000E+00
		 0.00000000E+00	 0.00000000E+00	 0.00000000E+00
		 0.00000000E+00	 0.00000000E+00	 0.00000000E+00
		 0.00000000E+00	-2.98604000E-02	 2.98604000E-02
		 0.00000000E+00	-3.03373000E-02	 3.03373000E-02
		 0.00000000E+00	-2.99487000E-02	 2.99487000E-02
		 2.99482000E-02	 0.00000000E+00	 2.99482000E-02
		 3.03363000E-02	 0.00000000E+00	 3.03363000E-02