# vtk DataFile Version 3.0

ASCII
DATASET UNSTRUCTURED_GRID

POINTS 261 double
	 0.00000000E+00	 0.00000000E+00	 0.00000000E+00
	 1.00000000E+00	 0.00000000E+00	 0.00000000E+00
	 1.00000000E+00	 1.00000000E+00	 0.00000000E+00
	 0.00000000E+00	 1.00000000E+00	 0.00000000E+00
	 0.00000000E+00	 0.00000000E+00	 8.00000000E+00
	 1.00000000E+00	 0.00000000E+00	 8.00000000E+00
	 1.00000000E+00	 1.00000000E+00	 8.00000000E+00
	 0.00000000E+00	 1.00000000E+00	 8.00000000E+00
	 2.50000000E-01	 0.00000000E+00	 0.00000000E+00
	 5.00000000E-01	 0.00000000E+00	 0.00000000E+00
	 7.50000000E-01	 0.00000000E+00	 0.00000000E+00
	 1.00000000E+00	 2.50000000E-01	 0.00000000E+00
	 1.00000000E+00	 5.00000000E-01	 0.00000000E+00
	 1.00000000E+00	 7.50000000E-01	 0.00000000E+00
	 7.50000000E-01	 1.00000000E+00	 0.00000000E+00
	 5.00000000E-01	 1.00000000E+00	 0.00000000E+00
	 2.50000000E-01	 1.00000000E+00	 0.00000000E+00
	 0.00000000E+00	 7.50000000E-01	 0.00000000E+00
	 0.00000000E+00	 5.00000000E-01	 0.00000000E+00
	 0.00000000E+00	 2.50000000E-01	 0.00000000E+00
	 2.50000000E-01	 0.00000000E+00	 8.00000000E+00
	 5.00000000E-01	 0.00000000E+00	 8.00000000E+00
	 7.50000000E-01	 0.00000000E+00	 8.00000000E+00
	 1.00000000E+00	 2.50000000E-01	 8.00000000E+00
	 1.00000000E+00	 5.00000000E-01	 8.00000000E+00
	 1.00000000E+00	 7.50000000E-01	 8.00000000E+00
	 7.50000000E-01	 1.00000000E+00	 8.00000000E+00
	 5.00000000E-01	 1.00000000E+00	 8.00000000E+00
	 2.50000000E-01	 1.00000000E+00	 8.00000000E+00
	 0.00000000E+00	 7.50000000E-01	 8.00000000E+00
	 0.00000000E+00	 5.00000000E-01	 8.00000000E+00
	 0.00000000E+00	 2.50000000E-01	 8.00000000E+00
	 1.00000000E+00	 0.00000000E+00	 5.00000000E-01
	 1.00000000E+00	 0.00000000E+00	 1.00000000E+00
	 1.00000000E+00	 0.00000000E+00	 1.50000000E+00
	 1.00000000E+00	 0.00000000E+00	 2.00000000E+00
	 1.00000000E+00	 0.00000000E+00	 2.50000000E+00
	 1.00000000E+00	 0.00000000E+00	 3.00000000E+00
	 1.00000000E+00	 0.00000000E+00	 3.50000000E+00
	 1.00000000E+00	 0.00000000E+00	 4.00000000E+00
	 1.00000000E+00	 0.00000000E+00	 4.50000000E+00
	 1.00000000E+00	 0.00000000E+00	 5.00000000E+00
	 1.00000000E+00	 0.00000000E+00	 5.50000000E+00
	 1.00000000E+00	 0.00000000E+00	 6.00000000E+00
	 1.00000000E+00	 0.00000000E+00	 6.50000000E+00
	 1.00000000E+00	 0.00000000E+00	 7.00000000E+00
	 1.00000000E+00	 0.00000000E+00	 7.50000000E+00
	 0.00000000E+00	 0.00000000E+00	 7.50000000E+00
	 0.00000000E+00	 0.00000000E+00	 7.00000000E+00
	 0.00000000E+00	 0.00000000E+00	 6.50000000E+00
	 0.00000000E+00	 0.00000000E+00	 6.00000000E+00
	 0.00000000E+00	 0.00000000E+00	 5.50000000E+00
	 0.00000000E+00	 0.00000000E+00	 5.00000000E+00
	 0.00000000E+00	 0.00000000E+00	 4.50000000E+00
	 0.00000000E+00	 0.00000000E+00	 4.00000000E+00
	 0.00000000E+00	 0.00000000E+00	 3.50000000E+00
	 0.00000000E+00	 0.00000000E+00	 3.00000000E+00
	 0.00000000E+00	 0.00000000E+00	 2.50000000E+00
	 0.00000000E+00	 0.00000000E+00	 2.00000000E+00
	 0.00000000E+00	 0.00000000E+00	 1.50000000E+00
	 0.00000000E+00	 0.00000000E+00	 1.00000000E+00
	 0.00000000E+00	 0.00000000E+00	 5.00000000E-01
	 1.00000000E+00	 1.00000000E+00	 5.00000000E-01
	 1.00000000E+00	 1.00000000E+00	 1.00000000E+00
	 1.00000000E+00	 1.00000000E+00	 1.50000000E+00
	 1.00000000E+00	 1.00000000E+00	 2.00000000E+00
	 1.00000000E+00	 1.00000000E+00	 2.50000000E+00
	 1.00000000E+00	 1.00000000E+00	 3.00000000E+00
	 1.00000000E+00	 1.00000000E+00	 3.50000000E+00
	 1.00000000E+00	 1.00000000E+00	 4.00000000E+00
	 1.00000000E+00	 1.00000000E+00	 4.50000000E+00
	 1.00000000E+00	 1.00000000E+00	 5.00000000E+00
	 1.00000000E+00	 1.00000000E+00	 5.50000000E+00
	 1.00000000E+00	 1.00000000E+00	 6.00000000E+00
	 1.00000000E+00	 1.00000000E+00	 6.50000000E+00
	 1.00000000E+00	 1.00000000E+00	 7.00000000E+00
	 1.00000000E+00	 1.00000000E+00	 7.50000000E+00
	 0.00000000E+00	 1.00000000E+00	 5.00000000E-01
	 0.00000000E+00	 1.00000000E+00	 1.00000000E+00
	 0.00000000E+00	 1.00000000E+00	 1.50000000E+00
	 0.00000000E+00	 1.00000000E+00	 2.00000000E+00
	 0.00000000E+00	 1.00000000E+00	 2.50000000E+00
	 0.00000000E+00	 1.00000000E+00	 3.00000000E+00
	 0.00000000E+00	 1.00000000E+00	 3.50000000E+00
	 0.00000000E+00	 1.00000000E+00	 4.00000000E+00
	 0.00000000E+00	 1.00000000E+00	 4.50000000E+00
	 0.00000000E+00	 1.00000000E+00	 5.00000000E+00
	 0.00000000E+00	 1.00000000E+00	 5.50000000E+00
	 0.00000000E+00	 1.00000000E+00	 6.00000000E+00
	 0.00000000E+00	 1.00000000E+00	 6.50000000E+00
	 0.00000000E+00	 1.00000000E+00	 7.00000000E+00
	 0.00000000E+00	 1.00000000E+00	 7.50000000E+00
	 5.00000000E-01	 2.50000000E-01	 0.00000000E+00
	 2.50000000E-01	 5.00000000E-01	 0.00000000E+00
	 5.00000000E-01	 5.00000000E-01	 0.00000000E+00
	 7.50000000E-01	 5.00000000E-01	 0.00000000E+00
	 5.00000000E-01	 7.50000000E-01	 0.00000000E+00
	 5.00000000E-01	 2.50000000E-01	 8.00000000E+00
	 2.50000000E-01	 5.00000000E-01	 8.00000000E+00
	 5.00000000E-01	 5.00000000E-01	 8.00000000E+00
	 7.50000000E-01	 5.00000000E-01	 8.00000000E+00
	 5.00000000E-01	 7.50000000E-01	 8.00000000E+00
	 5.00000000E-01	 0.00000000E+00	 5.00000000E-01
	 2.50000000E-01	 0.00000000E+00	 1.00000000E+00
	 5.00000000E-01	 0.00000000E+00	 1.00000000E+00
	 7.50000000E-01	 0.00000000E+00	 1.00000000E+00
	 5.00000000E-01	 0.00000000E+00	 1.50000000E+00
	 2.50000000E-01	 0.00000000E+00	 2.00000000E+00
	 5.00000000E-01	 0.00000000E+00	 2.00000000E+00
	 7.50000000E-01	 0.00000000E+00	 2.00000000E+00
	 5.00000000E-01	 0.00000000E+00	 2.50000000E+00
	 2.50000000E-01	 0.00000000E+00	 3.00000000E+00
	 5.00000000E-01	 0.00000000E+00	 3.00000000E+00
	 7.50000000E-01	 0.00000000E+00	 3.00000000E+00
	 5.00000000E-01	 0.00000000E+00	 3.50000000E+00
	 2.50000000E-01	 0.00000000E+00	 4.00000000E+00
	 5.00000000E-01	 0.00000000E+00	 4.00000000E+00
	 7.50000000E-01	 0.00000000E+00	 4.00000000E+00
	 5.00000000E-01	 0.00000000E+00	 4.50000000E+00
	 2.50000000E-01	 0.00000000E+00	 5.00000000E+00
	 5.00000000E-01	 0.00000000E+00	 5.00000000E+00
	 7.50000000E-01	 0.00000000E+00	 5.00000000E+00
	 5.00000000E-01	 0.00000000E+00	 5.50000000E+00
	 2.50000000E-01	 0.00000000E+00	 6.00000000E+00
	 5.00000000E-01	 0.00000000E+00	 6.00000000E+00
	 7.50000000E-01	 0.00000000E+00	 6.00000000E+00
	 5.00000000E-01	 0.00000000E+00	 6.50000000E+00
	 2.50000000E-01	 0.00000000E+00	 7.00000000E+00
	 5.00000000E-01	 0.00000000E+00	 7.00000000E+00
	 7.50000000E-01	 0.00000000E+00	 7.00000000E+00
	 5.00000000E-01	 0.00000000E+00	 7.50000000E+00
	 1.00000000E+00	 5.00000000E-01	 5.00000000E-01
	 1.00000000E+00	 2.50000000E-01	 1.00000000E+00
	 1.00000000E+00	 5.00000000E-01	 1.00000000E+00
	 1.00000000E+00	 7.50000000E-01	 1.00000000E+00
	 1.00000000E+00	 5.00000000E-01	 1.50000000E+00
	 1.00000000E+00	 2.50000000E-01	 2.00000000E+00
	 1.00000000E+00	 5.00000000E-01	 2.00000000E+00
	 1.00000000E+00	 7.50000000E-01	 2.00000000E+00
	 1.00000000E+00	 5.00000000E-01	 2.50000000E+00
	 1.00000000E+00	 2.50000000E-01	 3.00000000E+00
	 1.00000000E+00	 5.00000000E-01	 3.00000000E+00
	 1.00000000E+00	 7.50000000E-01	 3.00000000E+00
	 1.00000000E+00	 5.00000000E-01	 3.50000000E+00
	 1.00000000E+00	 2.50000000E-01	 4.00000000E+00
	 1.00000000E+00	 5.00000000E-01	 4.00000000E+00
	 1.00000000E+00	 7.50000000E-01	 4.00000000E+00
	 1.00000000E+00	 5.00000000E-01	 4.50000000E+00
	 1.00000000E+00	 2.50000000E-01	 5.00000000E+00
	 1.00000000E+00	 5.00000000E-01	 5.00000000E+00
	 1.00000000E+00	 7.50000000E-01	 5.00000000E+00
	 1.00000000E+00	 5.00000000E-01	 5.50000000E+00
	 1.00000000E+00	 2.50000000E-01	 6.00000000E+00
	 1.00000000E+00	 5.00000000E-01	 6.00000000E+00
	 1.00000000E+00	 7.50000000E-01	 6.00000000E+00
	 1.00000000E+00	 5.00000000E-01	 6.50000000E+00
	 1.00000000E+00	 2.50000000E-01	 7.00000000E+00
	 1.00000000E+00	 5.00000000E-01	 7.00000000E+00
	 1.00000000E+00	 7.50000000E-01	 7.00000000E+00
	 1.00000000E+00	 5.00000000E-01	 7.50000000E+00
	 5.00000000E-01	 1.00000000E+00	 5.00000000E-01
	 7.50000000E-01	 1.00000000E+00	 1.00000000E+00
	 5.00000000E-01	 1.00000000E+00	 1.00000000E+00
	 2.50000000E-01	 1.00000000E+00	 1.00000000E+00
	 5.00000000E-01	 1.00000000E+00	 1.50000000E+00
	 7.50000000E-01	 1.00000000E+00	 2.00000000E+00
	 5.00000000E-01	 1.00000000E+00	 2.00000000E+00
	 2.50000000E-01	 1.00000000E+00	 2.00000000E+00
	 5.00000000E-01	 1.00000000E+00	 2.50000000E+00
	 7.50000000E-01	 1.00000000E+00	 3.00000000E+00
	 5.00000000E-01	 1.00000000E+00	 3.00000000E+00
	 2.50000000E-01	 1.00000000E+00	 3.00000000E+00
	 5.00000000E-01	 1.00000000E+00	 3.50000000E+00
	 7.50000000E-01	 1.00000000E+00	 4.00000000E+00
	 5.00000000E-01	 1.00000000E+00	 4.00000000E+00
	 2.50000000E-01	 1.00000000E+00	 4.00000000E+00
	 5.00000000E-01	 1.00000000E+00	 4.50000000E+00
	 7.50000000E-01	 1.00000000E+00	 5.00000000E+00
	 5.00000000E-01	 1.00000000E+00	 5.00000000E+00
	 2.50000000E-01	 1.00000000E+00	 5.00000000E+00
	 5.00000000E-01	 1.00000000E+00	 5.50000000E+00
	 7.50000000E-01	 1.00000000E+00	 6.00000000E+00
	 5.00000000E-01	 1.00000000E+00	 6.00000000E+00
	 2.50000000E-01	 1.00000000E+00	 6.00000000E+00
	 5.00000000E-01	 1.00000000E+00	 6.50000000E+00
	 7.50000000E-01	 1.00000000E+00	 7.00000000E+00
	 5.00000000E-01	 1.00000000E+00	 7.00000000E+00
	 2.50000000E-01	 1.00000000E+00	 7.00000000E+00
	 5.00000000E-01	 1.00000000E+00	 7.50000000E+00
	 0.00000000E+00	 5.00000000E-01	 5.00000000E-01
	 0.00000000E+00	 7.50000000E-01	 1.00000000E+00
	 0.00000000E+00	 5.00000000E-01	 1.00000000E+00
	 0.00000000E+00	 2.50000000E-01	 1.00000000E+00
	 0.00000000E+00	 5.00000000E-01	 1.50000000E+00
	 0.00000000E+00	 7.50000000E-01	 2.00000000E+00
	 0.00000000E+00	 5.00000000E-01	 2.00000000E+00
	 0.00000000E+00	 2.50000000E-01	 2.00000000E+00
	 0.00000000E+00	 5.00000000E-01	 2.50000000E+00
	 0.00000000E+00	 7.50000000E-01	 3.00000000E+00
	 0.00000000E+00	 5.00000000E-01	 3.00000000E+00
	 0.00000000E+00	 2.50000000E-01	 3.00000000E+00
	 0.00000000E+00	 5.00000000E-01	 3.50000000E+00
	 0.00000000E+00	 7.50000000E-01	 4.00000000E+00
	 0.00000000E+00	 5.00000000E-01	 4.00000000E+00
	 0.00000000E+00	 2.50000000E-01	 4.00000000E+00
	 0.00000000E+00	 5.00000000E-01	 4.50000000E+00
	 0.00000000E+00	 7.50000000E-01	 5.00000000E+00
	 0.00000000E+00	 5.00000000E-01	 5.00000000E+00
	 0.00000000E+00	 2.50000000E-01	 5.00000000E+00
	 0.00000000E+00	 5.00000000E-01	 5.50000000E+00
	 0.00000000E+00	 7.50000000E-01	 6.00000000E+00
	 0.00000000E+00	 5.00000000E-01	 6.00000000E+00
	 0.00000000E+00	 2.50000000E-01	 6.00000000E+00
	 0.00000000E+00	 5.00000000E-01	 6.50000000E+00
	 0.00000000E+00	 7.50000000E-01	 7.00000000E+00
	 0.00000000E+00	 5.00000000E-01	 7.00000000E+00
	 0.00000000E+00	 2.50000000E-01	 7.00000000E+00
	 0.00000000E+00	 5.00000000E-01	 7.50000000E+00
	 5.00000000E-01	 5.00000000E-01	 5.00000000E-01
	 5.00000000E-01	 2.50000000E-01	 1.00000000E+00
	 2.50000000E-01	 5.00000000E-01	 1.00000000E+00
	 5.00000000E-01	 5.00000000E-01	 1.00000000E+00
	 7.50000000E-01	 5.00000000E-01	 1.00000000E+00
	 5.00000000E-01	 7.50000000E-01	 1.00000000E+00
	 5.00000000E-01	 5.00000000E-01	 1.50000000E+00
	 5.00000000E-01	 2.50000000E-01	 2.00000000E+00
	 2.50000000E-01	 5.00000000E-01	 2.00000000E+00
	 5.00000000E-01	 5.00000000E-01	 2.00000000E+00
	 7.50000000E-01	 5.00000000E-01	 2.00000000E+00
	 5.00000000E-01	 7.50000000E-01	 2.00000000E+00
	 5.00000000E-01	 5.00000000E-01	 2.50000000E+00
	 5.00000000E-01	 2.50000000E-01	 3.00000000E+00
	 2.50000000E-01	 5.00000000E-01	 3.00000000E+00
	 5.00000000E-01	 5.00000000E-01	 3.00000000E+00
	 7.50000000E-01	 5.00000000E-01	 3.00000000E+00
	 5.00000000E-01	 7.50000000E-01	 3.00000000E+00
	 5.00000000E-01	 5.00000000E-01	 3.50000000E+00
	 5.00000000E-01	 2.50000000E-01	 4.00000000E+00
	 2.50000000E-01	 5.00000000E-01	 4.00000000E+00
	 5.00000000E-01	 5.00000000E-01	 4.00000000E+00
	 7.50000000E-01	 5.00000000E-01	 4.00000000E+00
	 5.00000000E-01	 7.50000000E-01	 4.00000000E+00
	 5.00000000E-01	 5.00000000E-01	 4.50000000E+00
	 5.00000000E-01	 2.50000000E-01	 5.00000000E+00
	 2.50000000E-01	 5.00000000E-01	 5.00000000E+00
	 5.00000000E-01	 5.00000000E-01	 5.00000000E+00
	 7.50000000E-01	 5.00000000E-01	 5.00000000E+00
	 5.00000000E-01	 7.50000000E-01	 5.00000000E+00
	 5.00000000E-01	 5.00000000E-01	 5.50000000E+00
	 5.00000000E-01	 2.50000000E-01	 6.00000000E+00
	 2.50000000E-01	 5.00000000E-01	 6.00000000E+00
	 5.00000000E-01	 5.00000000E-01	 6.00000000E+00
	 7.50000000E-01	 5.00000000E-01	 6.00000000E+00
	 5.00000000E-01	 7.50000000E-01	 6.00000000E+00
	 5.00000000E-01	 5.00000000E-01	 6.50000000E+00
	 5.00000000E-01	 2.50000000E-01	 7.00000000E+00
	 2.50000000E-01	 5.00000000E-01	 7.00000000E+00
	 5.00000000E-01	 5.00000000E-01	 7.00000000E+00
	 7.50000000E-01	 5.00000000E-01	 7.00000000E+00
	 5.00000000E-01	 7.50000000E-01	 7.00000000E+00
	 5.00000000E-01	 5.00000000E-01	 7.50000000E+00

CELLS 32 672
	20 0 9 94 18 60 104 221 191 8 92 93 19 103 219 220 192 61 102 218 189 
	20 9 1 12 94 104 33 133 221 10 11 95 92 105 132 222 219 102 32 131 218 
	20 18 94 15 3 191 221 162 78 93 96 16 17 220 223 163 190 189 218 160 77 
	20 94 12 2 15 221 133 63 162 95 13 14 96 222 134 161 223 218 131 62 160 
	20 60 104 221 191 58 108 227 195 103 219 220 192 107 225 226 196 59 106 224 193 
	20 104 33 133 221 108 35 137 227 105 132 222 219 109 136 228 225 106 34 135 224 
	20 191 221 162 78 195 227 166 80 220 223 163 190 226 229 167 194 193 224 164 79 
	20 221 133 63 162 227 137 65 166 222 134 161 223 228 138 165 229 224 135 64 164 
	20 58 108 227 195 56 112 233 199 107 225 226 196 111 231 232 200 57 110 230 197 
	20 108 35 137 227 112 37 141 233 109 136 228 225 113 140 234 231 110 36 139 230 
	20 195 227 166 80 199 233 170 82 226 229 167 194 232 235 171 198 197 230 168 81 
	20 227 137 65 166 233 141 67 170 228 138 165 229 234 142 169 235 230 139 66 168 
	20 56 112 233 199 54 116 239 203 111 231 232 200 115 237 238 204 55 114 236 201 
	20 112 37 141 233 116 39 145 239 113 140 234 231 117 144 240 237 114 38 143 236 
	20 199 233 170 82 203 239 174 84 232 235 171 198 238 241 175 202 201 236 172 83 
	20 233 141 67 170 239 145 69 174 234 142 169 235 240 146 173 241 236 143 68 172 
	20 54 116 239 203 52 120 245 207 115 237 238 204 119 243 244 208 53 118 242 205 
	20 116 39 145 239 120 41 149 245 117 144 240 237 121 148 246 243 118 40 147 242 
	20 203 239 174 84 207 245 178 86 238 241 175 202 244 247 179 206 205 242 176 85 
	20 239 145 69 174 245 149 71 178 240 146 173 241 246 150 177 247 242 147 70 176 
	20 52 120 245 207 50 124 251 211 119 243 244 208 123 249 250 212 51 122 248 209 
	20 120 41 149 245 124 43 153 251 121 148 246 243 125 152 252 249 122 42 151 248 
	20 207 245 178 86 211 251 182 88 244 247 179 206 250 253 183 210 209 248 180 87 
	20 245 149 71 178 251 153 73 182 246 150 177 247 252 154 181 253 248 151 72 180 
	20 50 124 251 211 48 128 257 215 123 249 250 212 127 255 256 216 49 126 254 213 
	20 124 43 153 251 128 45 157 257 125 152 252 249 129 156 258 255 126 44 155 254 
	20 211 251 182 88 215 257 186 90 250 253 183 210 256 259 187 214 213 254 184 89 
	20 251 153 73 182 257 157 75 186 252 154 181 253 258 158 185 259 254 155 74 184 
	20 48 128 257 215 4 21 99 30 127 255 256 216 20 97 98 31 47 130 260 217 
	20 128 45 157 257 21 5 24 99 129 156 258 255 22 23 100 97 130 46 159 260 
	20 215 257 186 90 30 99 27 7 256 259 187 214 98 101 28 29 217 260 188 91 
	20 257 157 75 186 99 24 6 27 258 158 185 259 100 25 26 101 260 159 76 188 

CELL_TYPES 32
	25
	25
	25
	25
	25
	25
	25
	25
	25
	25
	25
	25
	25
	25
	25
	25
	25
	25
	25
	25
	25
	25
	25
	25
	25
	25
	25
	25
	25
	25
	25
	25

POINT_DATA 261
FIELD U 1
	U 3 261 double
		 0.00000000E+00	 0.00000000E+00	 0.00000000E+00
		 0.00000000E+00	 0.00000000E+00	 0.00000000E+00
		 0.00000000E+00	 0.00000000E+00	 0.00000000E+00
		 0.00000000E+00	 0.00000000E+00	 0.00000000E+00
		 4.99338000E-05	 9.55571000E-04	 3.63330000E-04
		-4.80629000E-05	 9.57411000E-04	 3.62562000E-04
		 4.73729000E-05	 9.61254000E-04	-3.64255000E-04
		-4.95180000E-05	 9.55908000E-04	-3.63517000E-04
		 0.00000000E+00	 0.00000000E+00	 0.00000000E+00
		 0.00000000E+00	 0.00000000E+00	 0.00000000E+00
		 0.00000000E+00	 0.00000000E+00	 0.00000000E+00
		 0.00000000E+00	 0.00000000E+00	 0.00000000E+00
		 0.00000000E+00	 0.00000000E+00	 0.00000000E+00
		 0.00000000E+00	 0.00000000E+00	 0.00000000E+00
		 0.00000000E+00	 0.00000000E+00	 0.00000000E+00
		 0.00000000E+00	 0.00000000E+00	 0.00000000E+00
		 0.00000000E+00	 0.00000000E+00	 0.00000000E+00
		 0.00000000E+00	 0.00000000E+00	 0.00000000E+00
		 0.00000000E+00	 0.00000000E+00	 0.00000000E+00
		 0.00000000E+00	 0.00000000E+00	 0.00000000E+00
		 4.18695000E-05	 9.97968000E-04	 3.63947000E-04
		 1.06557000E-06	 9.05073000E-04	 3.61092000E-04
		-3.97958000E-05	 9.99018000E-04	 3.63281000E-04
		-2.28442000E-06	 9.29085000E-04	 1.58133000E-04
		 3.19048000E-07	 8.74615000E-04	-6.07045000E-08
		 1.62783000E-06	 9.31175000E-04	-1.57839000E-04
		 3.97056000E-05	 1.00042000E-03	-3.65019000E-04
		-9.40325000E-07	 9.02729000E-04	-3.61121000E-04
		-4.17633000E-05	 9.96948000E-04	-3.64084000E-04
		-3.30354000E-06	 9.28700000E-04	-1.58962000E-04
		-2.01831000E-07	 8.75271000E-04	-2.25594000E-07
		 3.43253000E-06	 9.28503000E-04	 1.58769000E-04
		 5.87229000E-08	 2.50144000E-07	-5.56038000E-08
		 1.41828000E-07	 7.00779000E-07	-3.21477000E-07
		 3.08980000E-07	-1.28050000E-07	-1.21721000E-06
		 3.75909000E-07	-6.39128000E-07	-2.26735000E-06
		 5.50155000E-07	-4.83909000E-06	-4.23317000E-06
		 3.88065000E-07	-7.95601000E-06	-5.66316000E-06
		 2.84380000E-07	-1.89136000E-05	-7.72885000E-06
		-8.03261000E-07	-2.46617000E-05	-6.27149000E-06
		-2.50454000E-06	-4.17786000E-05	-3.11866000E-06
		-5.75385000E-06	-3.68816000E-05	 1.24245000E-05
		-1.02838000E-05	-4.43359000E-05	 3.53991000E-05
		-1.42616000E-05	 1.59576000E-05	 8.63901000E-05
		-2.60157000E-05	 8.96867000E-05	 1.43284000E-04
		-1.89483000E-05	 3.25168000E-04	 2.46434000E-04
		-4.72134000E-05	 5.47391000E-04	 3.25062000E-04
		 4.92560000E-05	 5.45804000E-04	 3.25608000E-04
		 1.91823000E-05	 3.26119000E-04	 2.47149000E-04
		 2.54158000E-05	 9.06774000E-05	 1.43720000E-04
		 1.35328000E-05	 1.62909000E-05	 8.62721000E-05
		 1.00184000E-05	-4.38824000E-05	 3.54672000E-05
		 5.50385000E-06	-3.68689000E-05	 1.23386000E-05
		 2.34816000E-06	-4.15144000E-05	-3.08934000E-06
		 6.14745000E-07	-2.46057000E-05	-6.29531000E-06
		-3.71556000E-07	-1.87898000E-05	-7.71995000E-06
		-4.73723000E-07	-7.93033000E-06	-5.67647000E-06
		-5.93570000E-07	-4.77963000E-06	-4.23042000E-06
		-4.20525000E-07	-6.20137000E-07	-2.27238000E-06
		-3.29613000E-07	-1.01496000E-07	-1.21624000E-06
		-1.58582000E-07	 7.08494000E-07	-3.24158000E-07
		-6.38670000E-08	 2.57059000E-07	-5.47467000E-08
		-5.97139000E-08	 2.48997000E-07	 5.84020000E-08
		-1.43044000E-07	 7.00748000E-07	 3.28189000E-07
		-3.10575000E-07	-1.29914000E-07	 1.22650000E-06
		-3.78336000E-07	-6.35478000E-07	 2.28259000E-06
		-5.54763000E-07	-4.84257000E-06	 4.24723000E-06
		-3.88145000E-07	-7.94185000E-06	 5.68570000E-06
		-2.88094000E-07	-1.89297000E-05	 7.75624000E-06
		 8.13657000E-07	-2.45964000E-05	 6.33266000E-06
		 2.46382000E-06	-4.18058000E-05	 3.11140000E-06
		 5.77026000E-06	-3.66028000E-05	-1.24867000E-05
		 1.03393000E-05	-4.45706000E-05	-3.52785000E-05
		 1.42004000E-05	 1.68865000E-05	-8.60511000E-05
		 2.57417000E-05	 8.91920000E-05	-1.43211000E-04
		 1.72071000E-05	 3.30101000E-04	-2.48885000E-04
		 4.86148000E-05	 5.43709000E-04	-3.26761000E-04
		 6.51052000E-08	 2.55948000E-07	 5.74668000E-08
		 1.57180000E-07	 7.08861000E-07	 3.29483000E-07
		 3.31282000E-07	-1.03444000E-07	 1.22485000E-06
		 4.14133000E-07	-6.17653000E-07	 2.28517000E-06
		 5.97857000E-07	-4.78346000E-06	 4.24670000E-06
		 4.58132000E-07	-7.91782000E-06	 5.69678000E-06
		 3.81555000E-07	-1.88032000E-05	 7.74653000E-06
		-6.60517000E-07	-2.45724000E-05	 6.33329000E-06
		-2.30194000E-06	-4.15397000E-05	 3.14296000E-06
		-5.53831000E-06	-3.67476000E-05	-1.23126000E-05
		-9.91887000E-06	-4.39615000E-05	-3.53829000E-05
		-1.36076000E-05	 1.65230000E-05	-8.62816000E-05
		-2.52509000E-05	 9.05895000E-05	-1.43381000E-04
		-1.78084000E-05	 3.26769000E-04	-2.47005000E-04
		-4.92588000E-05	 5.45170000E-04	-3.25686000E-04
		 0.00000000E+00	 0.00000000E+00	 0.00000000E+00
		 0.00000000E+00	 0.00000000E+00	 0.00000000E+00
		 0.00000000E+00	 0.00000000E+00	 0.00000000E+00
		 0.00000000E+00	 0.00000000E+00	 0.00000000E+00
		 0.00000000E+00	 0.00000000E+00	 0.00000000E+00
		 5.48348000E-07	 1.15265000E-03	 2.10499000E-04
		 7.87436000E-08	 1.05733000E-03	-2.37653000E-07
		 1.02148000E-07	 1.44460000E-03	-4.78724000E-07
		 1.67734000E-09	 1.05658000E-03	 1.36636000E-08
		-3.59287000E-07	 1.15148000E-03	-2.11402000E-04
		-3.37287000E-09	 3.42988000E-07	 2.19681000E-08
		-8.41248000E-08	 3.49350000E-07	-3.69244000E-07
		-5.46210000E-09	 3.37210000E-08	-4.53026000E-07
		 7.03569000E-08	 3.45273000E-07	-3.69332000E-07
		-1.25846000E-08	 1.94493000E-07	-1.10264000E-06
		-2.09429000E-07	-1.59997000E-06	-2.41380000E-06
		-1.34760000E-08	-2.48464000E-06	-2.58501000E-06
		 1.73515000E-07	-1.60862000E-06	-2.41334000E-06
		-2.84286000E-08	-3.93051000E-06	-3.98429000E-06
		-2.66819000E-07	-1.02041000E-05	-6.08621000E-06
		-2.71604000E-08	-1.22322000E-05	-6.50821000E-06
		 1.97241000E-07	-1.02204000E-05	-6.08172000E-06
		-5.35409000E-08	-1.61336000E-05	-7.43260000E-06
		 3.58629000E-07	-2.89705000E-05	-7.65447000E-06
		-4.59589000E-08	-3.36983000E-05	-8.68927000E-06
		-5.00090000E-07	-2.89852000E-05	-7.65557000E-06
		-1.14171000E-07	-3.40789000E-05	-1.87442000E-06
		 2.46581000E-06	-4.67241000E-05	 9.09409000E-06
		-8.25225000E-08	-5.65281000E-05	 6.69637000E-06
		-2.67064000E-06	-4.67788000E-05	 9.15937000E-06
		-1.61839000E-07	-2.26206000E-05	 3.62579000E-05
		 7.54721000E-06	 6.76428000E-07	 7.63971000E-05
		-7.05862000E-08	-2.43575000E-05	 6.81419000E-05
		-7.98627000E-06	 6.64229000E-07	 7.62990000E-05
		-5.53727000E-07	 1.31919000E-04	 1.60720000E-04
		 7.05540000E-06	 2.71111000E-04	 2.34627000E-04
		-1.32189000E-08	 2.32722000E-04	 2.25071000E-04
		-6.99518000E-06	 2.70207000E-04	 2.34528000E-04
		 7.67090000E-07	 6.62505000E-04	 3.33890000E-04
		 0.00000000E+00	 3.84957000E-07	 1.64808000E-09
		 7.09397000E-08	 5.20853000E-07	-2.35106000E-07
		 0.00000000E+00	 3.07236000E-07	 2.67145000E-09
		-7.17401000E-08	 5.20945000E-07	 2.40862000E-07
		-1.19799000E-09	 4.02278000E-07	 4.88625000E-09
		 1.83702000E-07	-1.13570000E-06	-1.19673000E-06
		 0.00000000E+00	-1.75369000E-06	 4.51612000E-09
		-1.84997000E-07	-1.13411000E-06	 1.20971000E-06
		-2.22782000E-09	-3.67199000E-06	 1.02242000E-08
		 1.85996000E-07	-9.41064000E-06	-2.77456000E-06
		 0.00000000E+00	-1.09986000E-05	 8.07293000E-09
		-1.86079000E-07	-9.40285000E-06	 2.79134000E-06
		-2.58514000E-09	-1.66586000E-05	 1.51540000E-08
		-4.24648000E-07	-2.84128000E-05	-2.47777000E-06
		 2.52133000E-09	-3.22026000E-05	-7.24008000E-09
		 4.27836000E-07	-2.83800000E-05	 2.50504000E-06
		 3.28739000E-09	-3.86562000E-05	 4.01584000E-08
		-2.95223000E-06	-4.83024000E-05	 8.19643000E-06
		 5.63629000E-09	-5.80886000E-05	 3.60924000E-08
		 2.99407000E-06	-4.81636000E-05	-8.21503000E-06
		 5.15303000E-09	-3.64105000E-05	 7.12274000E-08
		-6.70160000E-06	-6.94781000E-06	 4.64305000E-05
		 1.36616000E-07	-2.72578000E-05	-1.48009000E-07
		 6.68644000E-06	-6.43981000E-06	-4.64577000E-05
		 9.00698000E-08	 9.80252000E-05	 5.50641000E-07
		-1.17774000E-05	 2.52844000E-04	 1.25591000E-04
		 3.97349000E-07	 1.94490000E-04	 1.62679000E-06
		 1.15906000E-05	 2.55271000E-04	-1.26283000E-04
		-3.90451000E-07	 6.52427000E-04	 6.83128000E-07
		 3.04914000E-09	 3.42078000E-07	-1.92155000E-08
		-7.06197000E-08	 3.44565000E-07	 3.75445000E-07
		 6.08955000E-09	 3.19829000E-08	 4.58276000E-07
		 8.38473000E-08	 3.48624000E-07	 3.74697000E-07
		 1.12119000E-08	 1.94184000E-07	 1.11229000E-06
		-1.73782000E-07	-1.60964000E-06	 2.42579000E-06
		 1.54780000E-08	-2.48919000E-06	 2.59632000E-06
		 2.06841000E-07	-1.60076000E-06	 2.42530000E-06
		 2.35407000E-08	-3.92927000E-06	 4.00125000E-06
		-1.94757000E-07	-1.02204000E-05	 6.10443000E-06
		 3.20241000E-08	-1.22489000E-05	 6.52368000E-06
		 2.62773000E-07	-1.02075000E-05	 6.10607000E-06
		 4.71659000E-08	-1.61256000E-05	 7.46547000E-06
		 5.17207000E-07	-2.89822000E-05	 7.68184000E-06
		 7.02178000E-08	-3.37542000E-05	 8.71593000E-06
		-3.73335000E-07	-2.89775000E-05	 7.68162000E-06
		 8.71120000E-08	-3.40380000E-05	 1.91935000E-06
		 2.70612000E-06	-4.67715000E-05	-9.09913000E-06
		 1.49812000E-07	-5.67663000E-05	-6.64781000E-06
		-2.43470000E-06	-4.68082000E-05	-9.04053000E-06
		 1.49123000E-07	-2.24742000E-05	-3.61545000E-05
		 8.07476000E-06	 8.24856000E-07	-7.62296000E-05
		 2.82639000E-07	-2.51182000E-05	-6.77118000E-05
		-7.49610000E-06	 4.63400000E-07	-7.62085000E-05
		 1.93780000E-07	 1.32486000E-04	-1.61008000E-04
		 5.93072000E-06	 2.70840000E-04	-2.34854000E-04
		 7.62018000E-08	 2.29978000E-04	-2.24541000E-04
		-6.18127000E-06	 2.69685000E-04	-2.34159000E-04
		-7.47283000E-07	 6.63586000E-04	-3.33720000E-04
		 0.00000000E+00	 3.90384000E-07	 1.28346000E-09
		 7.94849000E-08	 5.33978000E-07	 2.42948000E-07
		 1.38004000E-09	 3.25426000E-07	 2.77449000E-09
		-7.89165000E-08	 5.33835000E-07	-2.37524000E-07
		 0.00000000E+00	 4.20748000E-07	 4.30290000E-09
		 2.04021000E-07	-1.10096000E-06	 1.21304000E-06
		 3.03559000E-09	-1.70590000E-06	 5.59533000E-09
		-2.03789000E-07	-1.10238000E-06	-1.20105000E-06
		-2.53539000E-09	-3.63332000E-06	 8.51714000E-09
		 2.27079000E-07	-9.33848000E-06	 2.80026000E-06
		 9.28249000E-09	-1.08921000E-05	 1.01496000E-08
		-2.27337000E-07	-9.34420000E-06	-2.77986000E-06
		-7.55178000E-09	-1.65903000E-05	 1.44499000E-08
		-3.48265000E-07	-2.82530000E-05	 2.52844000E-06
		 1.94609000E-08	-3.19742000E-05	 1.45607000E-08
		 3.50612000E-07	-2.82717000E-05	-2.49647000E-06
		-1.15416000E-08	-3.85345000E-05	 2.41053000E-08
		-2.82221000E-06	-4.79754000E-05	-8.15950000E-06
		 5.72888000E-08	-5.75728000E-05	 3.50572000E-08
		 2.83495000E-06	-4.80306000E-05	 8.21166000E-06
		-3.27618000E-08	-3.62693000E-05	 3.91733000E-08
		-6.42245000E-06	-6.10123000E-06	-4.62926000E-05
		 8.52219000E-09	-2.61366000E-05	 5.02893000E-08
		 6.46794000E-06	-6.24509000E-06	 4.62940000E-05
		-2.77738000E-08	 9.78523000E-05	-4.73655000E-08
		-1.18474000E-05	 2.55151000E-04	-1.26844000E-04
		-2.77784000E-07	 1.97326000E-04	 4.18004000E-08
		 1.18531000E-05	 2.54816000E-04	 1.26823000E-04
		 9.74159000E-08	 6.49331000E-04	 6.07281000E-09
		 0.00000000E+00	 2.49628000E-07	 1.21344000E-09
		-3.14826000E-09	 4.19357000E-07	-2.80153000E-07
		 0.00000000E+00	 5.30080000E-07	 2.95334000E-09
		 0.00000000E+00	 7.62889000E-07	 3.29519000E-09
		 0.00000000E+00	 5.20974000E-07	 2.92735000E-09
		 2.61490000E-09	 4.18531000E-07	 2.86077000E-07
		 0.00000000E+00	-1.55939000E-07	 4.13443000E-09
		-8.44406000E-09	-1.39602000E-06	-1.32707000E-06
		 0.00000000E+00	-1.12947000E-06	 6.63114000E-09
		-2.93909000E-09	-4.03332000E-07	 7.15485000E-09
		-1.48791000E-09	-1.15349000E-06	 6.10190000E-09
		 6.23157000E-09	-1.39849000E-06	 1.33991000E-06
		 0.00000000E+00	-5.00890000E-06	 7.84175000E-09
		-1.58871000E-08	-9.72261000E-06	-3.20327000E-06
		 0.00000000E+00	-9.17132000E-06	 1.18662000E-08
		-7.03291000E-09	-7.46097000E-06	 1.53343000E-08
		-3.98194000E-09	-9.22404000E-06	 1.02199000E-08
		 1.26078000E-08	-9.73074000E-06	 3.22549000E-06
		 2.98030000E-09	-1.92463000E-05	 7.63490000E-09
		-3.73568000E-08	-2.81842000E-05	-3.61771000E-06
		 2.25252000E-09	-2.74397000E-05	 2.04053000E-08
		-1.62671000E-08	-2.23850000E-05	 1.94066000E-08
		-6.58357000E-09	-2.75568000E-05	 1.22860000E-08
		 2.79907000E-08	-2.82133000E-05	 3.65803000E-06
		 1.17160000E-08	-4.37952000E-05	 1.47976000E-08
		-3.00525000E-08	-4.48064000E-05	 4.33468000E-06
		 5.71610000E-09	-4.32787000E-05	 4.37643000E-08
		-3.88500000E-08	-3.27837000E-05	 6.75491000E-08
		-1.37103000E-08	-4.35299000E-05	 2.45851000E-08
		 5.04048000E-08	-4.49325000E-05	-4.27028000E-06
		 4.48408000E-08	-4.61624000E-05	-5.40630000E-08
		-1.77222000E-07	 5.27898000E-06	 3.97676000E-05
		-2.25453000E-08	 4.70107000E-06	-3.57672000E-08
		-4.89321000E-08	 4.20088000E-05	-1.86579000E-07
		 4.30691000E-08	 4.10298000E-06	-5.75290000E-08
		 1.50614000E-07	 4.91390000E-06	-3.95291000E-05
		 6.98462000E-08	 6.72756000E-05	-2.20068000E-07
		 3.19953000E-07	 3.01985000E-04	 9.74129000E-05
		-3.16401000E-07	 3.09569000E-04	-2.41743000E-07
		-2.24373000E-07	 3.68372000E-04	-4.86898000E-07
		 2.36349000E-07	 3.08130000E-04	 2.81796000E-07
		-1.15331000E-07	 3.00309000E-04	-9.73286000E-05
		-2.88991000E-07	 5.68006000E-04	-2.74125000E-07
