# vtk DataFile Version 3.0

ASCII
DATASET UNSTRUCTURED_GRID

POINTS 81 double
	 0.00000000E+00	 0.00000000E+00	 0.00000000E+00
	 1.00000000E+00	 0.00000000E+00	 0.00000000E+00
	 1.00000000E+00	 1.00000000E+00	 0.00000000E+00
	 0.00000000E+00	 1.00000000E+00	 0.00000000E+00
	 0.00000000E+00	 0.00000000E+00	 8.00000000E+00
	 1.00000000E+00	 0.00000000E+00	 8.00000000E+00
	 1.00000000E+00	 1.00000000E+00	 8.00000000E+00
	 0.00000000E+00	 1.00000000E+00	 8.00000000E+00
	 5.00000000E-01	 0.00000000E+00	 0.00000000E+00
	 1.00000000E+00	 5.00000000E-01	 0.00000000E+00
	 5.00000000E-01	 1.00000000E+00	 0.00000000E+00
	 0.00000000E+00	 5.00000000E-01	 0.00000000E+00
	 5.00000000E-01	 0.00000000E+00	 8.00000000E+00
	 1.00000000E+00	 5.00000000E-01	 8.00000000E+00
	 5.00000000E-01	 1.00000000E+00	 8.00000000E+00
	 0.00000000E+00	 5.00000000E-01	 8.00000000E+00
	 1.00000000E+00	 0.00000000E+00	 1.00000000E+00
	 1.00000000E+00	 0.00000000E+00	 2.00000000E+00
	 1.00000000E+00	 0.00000000E+00	 3.00000000E+00
	 1.00000000E+00	 0.00000000E+00	 4.00000000E+00
	 1.00000000E+00	 0.00000000E+00	 5.00000000E+00
	 1.00000000E+00	 0.00000000E+00	 6.00000000E+00
	 1.00000000E+00	 0.00000000E+00	 7.00000000E+00
	 0.00000000E+00	 0.00000000E+00	 7.00000000E+00
	 0.00000000E+00	 0.00000000E+00	 6.00000000E+00
	 0.00000000E+00	 0.00000000E+00	 5.00000000E+00
	 0.00000000E+00	 0.00000000E+00	 4.00000000E+00
	 0.00000000E+00	 0.00000000E+00	 3.00000000E+00
	 0.00000000E+00	 0.00000000E+00	 2.00000000E+00
	 0.00000000E+00	 0.00000000E+00	 1.00000000E+00
	 1.00000000E+00	 1.00000000E+00	 1.00000000E+00
	 1.00000000E+00	 1.00000000E+00	 2.00000000E+00
	 1.00000000E+00	 1.00000000E+00	 3.00000000E+00
	 1.00000000E+00	 1.00000000E+00	 4.00000000E+00
	 1.00000000E+00	 1.00000000E+00	 5.00000000E+00
	 1.00000000E+00	 1.00000000E+00	 6.00000000E+00
	 1.00000000E+00	 1.00000000E+00	 7.00000000E+00
	 0.00000000E+00	 1.00000000E+00	 1.00000000E+00
	 0.00000000E+00	 1.00000000E+00	 2.00000000E+00
	 0.00000000E+00	 1.00000000E+00	 3.00000000E+00
	 0.00000000E+00	 1.00000000E+00	 4.00000000E+00
	 0.00000000E+00	 1.00000000E+00	 5.00000000E+00
	 0.00000000E+00	 1.00000000E+00	 6.00000000E+00
	 0.00000000E+00	 1.00000000E+00	 7.00000000E+00
	 5.00000000E-01	 5.00000000E-01	 0.00000000E+00
	 5.00000000E-01	 5.00000000E-01	 8.00000000E+00
	 5.00000000E-01	 0.00000000E+00	 1.00000000E+00
	 5.00000000E-01	 0.00000000E+00	 2.00000000E+00
	 5.00000000E-01	 0.00000000E+00	 3.00000000E+00
	 5.00000000E-01	 0.00000000E+00	 4.00000000E+00
	 5.00000000E-01	 0.00000000E+00	 5.00000000E+00
	 5.00000000E-01	 0.00000000E+00	 6.00000000E+00
	 5.00000000E-01	 0.00000000E+00	 7.00000000E+00
	 1.00000000E+00	 5.00000000E-01	 1.00000000E+00
	 1.00000000E+00	 5.00000000E-01	 2.00000000E+00
	 1.00000000E+00	 5.00000000E-01	 3.00000000E+00
	 1.00000000E+00	 5.00000000E-01	 4.00000000E+00
	 1.00000000E+00	 5.00000000E-01	 5.00000000E+00
	 1.00000000E+00	 5.00000000E-01	 6.00000000E+00
	 1.00000000E+00	 5.00000000E-01	 7.00000000E+00
	 5.00000000E-01	 1.00000000E+00	 1.00000000E+00
	 5.00000000E-01	 1.00000000E+00	 2.00000000E+00
	 5.00000000E-01	 1.00000000E+00	 3.00000000E+00
	 5.00000000E-01	 1.00000000E+00	 4.00000000E+00
	 5.00000000E-01	 1.00000000E+00	 5.00000000E+00
	 5.00000000E-01	 1.00000000E+00	 6.00000000E+00
	 5.00000000E-01	 1.00000000E+00	 7.00000000E+00
	 0.00000000E+00	 5.00000000E-01	 1.00000000E+00
	 0.00000000E+00	 5.00000000E-01	 2.00000000E+00
	 0.00000000E+00	 5.00000000E-01	 3.00000000E+00
	 0.00000000E+00	 5.00000000E-01	 4.00000000E+00
	 0.00000000E+00	 5.00000000E-01	 5.00000000E+00
	 0.00000000E+00	 5.00000000E-01	 6.00000000E+00
	 0.00000000E+00	 5.00000000E-01	 7.00000000E+00
	 5.00000000E-01	 5.00000000E-01	 1.00000000E+00
	 5.00000000E-01	 5.00000000E-01	 2.00000000E+00
	 5.00000000E-01	 5.00000000E-01	 3.00000000E+00
	 5.00000000E-01	 5.00000000E-01	 4.00000000E+00
	 5.00000000E-01	 5.00000000E-01	 5.00000000E+00
	 5.00000000E-01	 5.00000000E-01	 6.00000000E+00
	 5.00000000E-01	 5.00000000E-01	 7.00000000E+00

CELLS 32 288
	8 0 8 44 11 29 46 74 67 
	8 8 1 9 44 46 16 53 74 
	8 11 44 10 3 67 74 60 37 
	8 44 9 2 10 74 53 30 60 
	8 29 46 74 67 28 47 75 68 
	8 46 16 53 74 47 17 54 75 
	8 67 74 60 37 68 75 61 38 
	8 74 53 30 60 75 54 31 61 
	8 28 47 75 68 27 48 76 69 
	8 47 17 54 75 48 18 55 76 
	8 68 75 61 38 69 76 62 39 
	8 75 54 31 61 76 55 32 62 
	8 27 48 76 69 26 49 77 70 
	8 48 18 55 76 49 19 56 77 
	8 69 76 62 39 70 77 63 40 
	8 76 55 32 62 77 56 33 63 
	8 26 49 77 70 25 50 78 71 
	8 49 19 56 77 50 20 57 78 
	8 70 77 63 40 71 78 64 41 
	8 77 56 33 63 78 57 34 64 
	8 25 50 78 71 24 51 79 72 
	8 50 20 57 78 51 21 58 79 
	8 71 78 64 41 72 79 65 42 
	8 78 57 34 64 79 58 35 65 
	8 24 51 79 72 23 52 80 73 
	8 51 21 58 79 52 22 59 80 
	8 72 79 65 42 73 80 66 43 
	8 79 58 35 65 80 59 36 66 
	8 23 52 80 73 4 12 45 15 
	8 52 22 59 80 12 5 13 45 
	8 73 80 66 43 15 45 14 7 
	8 80 59 36 66 45 13 6 14 

CELL_TYPES 32
	12
	12
	12
	12
	12
	12
	12
	12
	12
	12
	12
	12
	12
	12
	12
	12
	12
	12
	12
	12
	12
	12
	12
	12
	12
	12
	12
	12
	12
	12
	12
	12

POINT_DATA 81
FIELD U 1
	U 3 81 double
		 0.00000000E+00	 0.00000000E+00	 0.00000000E+00
		 0.00000000E+00	 0.00000000E+00	 0.00000000E+00
		 0.00000000E+00	 0.00000000E+00	 0.00000000E+00
		 0.00000000E+00	 0.00000000E+00	 0.00000000E+00
		-2.37306000E+03	 5.37926000E+03	 6.61689000E+00
		-2.28857000E+03	 5.34253000E+03	 1.67967000E+01
		-2.37306000E+03	 5.37926000E+03	-6.61689000E+00
		-2.28857000E+03	 5.34253000E+03	-1.67967000E+01
		 0.00000000E+00	 0.00000000E+00	 0.00000000E+00
		 0.00000000E+00	 0.00000000E+00	 0.00000000E+00
		 0.00000000E+00	 0.00000000E+00	 0.00000000E+00
		 0.00000000E+00	 0.00000000E+00	 0.00000000E+00
		-2.33948000E+03	 5.32748000E+03	 5.22187000E+00
		-2.31629000E+03	 5.38082000E+03	 2.27037000E+00
		-2.33948000E+03	 5.32748000E+03	-5.22187000E+00
		-2.31629000E+03	 5.38082000E+03	-2.27037000E+00
		-3.96796000E+02	 8.10392000E+02	 3.23765000E+02
		-7.72839000E+02	 1.77740000E+03	 4.04964000E+02
		-1.19083000E+03	 2.75316000E+03	 3.80871000E+02
		-1.56341000E+03	 3.61698000E+03	 3.27915000E+02
		-1.87160000E+03	 4.33215000E+03	 2.60706000E+02
		-2.10347000E+03	 4.86520000E+03	 1.76520000E+02
		-2.24875000E+03	 5.19966000E+03	 9.68599000E+01
		-2.27826000E+03	 5.21249000E+03	 3.81571000E+01
		-2.13265000E+03	 4.87789000E+03	 6.95386000E+01
		-1.90104000E+03	 4.34495000E+03	 1.02703000E+02
		-1.58606000E+03	 3.62683000E+03	 1.29179000E+02
		-1.20610000E+03	 2.75980000E+03	 1.50041000E+02
		-7.72691000E+02	 1.77733000E+03	 1.59532000E+02
		-2.87166000E+02	 7.62727000E+02	 1.27544000E+02
		-2.87166000E+02	 7.62727000E+02	-1.27544000E+02
		-7.72691000E+02	 1.77733000E+03	-1.59532000E+02
		-1.20610000E+03	 2.75980000E+03	-1.50041000E+02
		-1.58606000E+03	 3.62683000E+03	-1.29179000E+02
		-1.90104000E+03	 4.34495000E+03	-1.02703000E+02
		-2.13265000E+03	 4.87789000E+03	-6.95386000E+01
		-2.27826000E+03	 5.21249000E+03	-3.81571000E+01
		-3.96796000E+02	 8.10392000E+02	-3.23765000E+02
		-7.72839000E+02	 1.77740000E+03	-4.04964000E+02
		-1.19083000E+03	 2.75316000E+03	-3.80871000E+02
		-1.56341000E+03	 3.61698000E+03	-3.27915000E+02
		-1.87160000E+03	 4.33215000E+03	-2.60706000E+02
		-2.10347000E+03	 4.86520000E+03	-1.76520000E+02
		-2.24875000E+03	 5.19966000E+03	-9.68599000E+01
		 0.00000000E+00	 0.00000000E+00	 0.00000000E+00
		-2.30746000E+03	 5.30717000E+03	 0.00000000E+00
		-3.25885000E+02	 8.07476000E+02	 2.25968000E+02
		-7.75206000E+02	 1.78086000E+03	 2.85169000E+02
		-1.19947000E+03	 2.75210000E+03	 2.65571000E+02
		-1.57742000E+03	 3.61678000E+03	 2.29590000E+02
		-1.88875000E+03	 4.33017000E+03	 1.79293000E+02
		-2.12228000E+03	 4.86598000E+03	 1.29782000E+02
		-2.26255000E+03	 5.19538000E+03	 5.55708000E+01
		-3.51075000E+02	 7.49537000E+02	 9.82466000E+01
		-7.74286000E+02	 1.78298000E+03	 1.23986000E+02
		-1.19656000E+03	 2.75879000E+03	 1.15465000E+02
		-1.57251000E+03	 3.62809000E+03	 9.98214000E+01
		-1.88268000E+03	 4.34414000E+03	 7.79533000E+01
		-2.11564000E+03	 4.88125000E+03	 5.64268000E+01
		-2.25885000E+03	 5.20388000E+03	 2.41611000E+01
		-3.25885000E+02	 8.07476000E+02	-2.25968000E+02
		-7.75206000E+02	 1.78086000E+03	-2.85169000E+02
		-1.19947000E+03	 2.75210000E+03	-2.65571000E+02
		-1.57742000E+03	 3.61678000E+03	-2.29590000E+02
		-1.88875000E+03	 4.33017000E+03	-1.79293000E+02
		-2.12228000E+03	 4.86598000E+03	-1.29782000E+02
		-2.26255000E+03	 5.19538000E+03	-5.55708000E+01
		-3.51075000E+02	 7.49537000E+02	-9.82466000E+01
		-7.74286000E+02	 1.78298000E+03	-1.23986000E+02
		-1.19656000E+03	 2.75879000E+03	-1.15465000E+02
		-1.57251000E+03	 3.62809000E+03	-9.98214000E+01
		-1.88268000E+03	 4.34414000E+03	-7.79533000E+01
		-2.11564000E+03	 4.88125000E+03	-5.64268000E+01
		-2.25885000E+03	 5.20388000E+03	-2.41611000E+01
		-3.35035000E+02	 7.70584000E+02	 0.00000000E+00
		-7.76649000E+02	 1.78630000E+03	 0.00000000E+00
		-1.19795000E+03	 2.75529000E+03	 0.00000000E+00
		-1.57448000E+03	 3.62132000E+03	 0.00000000E+00
		-1.88702000E+03	 4.34016000E+03	 0.00000000E+00
		-2.11559000E+03	 4.86587000E+03	 0.00000000E+00
		-2.26994000E+03	 5.22088000E+03	 0.00000000E+00
