# vtk DataFile Version 3.0

ASCII
DATASET UNSTRUCTURED_GRID

POINTS 90 double
	 0.00000000E+00	 0.00000000E+00	 0.00000000E+00
	 1.00000000E+00	 0.00000000E+00	 0.00000000E+00
	 1.00000000E+00	 1.00000000E+00	 0.00000000E+00
	 0.00000000E+00	 1.00000000E+00	 0.00000000E+00
	 0.00000000E+00	 0.00000000E+00	 8.00000000E+00
	 1.00000000E+00	 0.00000000E+00	 8.00000000E+00
	 1.00000000E+00	 1.00000000E+00	 8.00000000E+00
	 0.00000000E+00	 1.00000000E+00	 8.00000000E+00
	 5.00000000E-01	 0.00000000E+00	 0.00000000E+00
	 1.00000000E+00	 5.00000000E-01	 0.00000000E+00
	 5.00000000E-01	 1.00000000E+00	 0.00000000E+00
	 0.00000000E+00	 5.00000000E-01	 0.00000000E+00
	 5.00000000E-01	 0.00000000E+00	 8.00000000E+00
	 1.00000000E+00	 5.00000000E-01	 8.00000000E+00
	 5.00000000E-01	 1.00000000E+00	 8.00000000E+00
	 0.00000000E+00	 5.00000000E-01	 8.00000000E+00
	 1.00000000E+00	 0.00000000E+00	 1.00000000E+00
	 1.00000000E+00	 0.00000000E+00	 2.00000000E+00
	 1.00000000E+00	 0.00000000E+00	 3.00000000E+00
	 1.00000000E+00	 0.00000000E+00	 4.00000000E+00
	 1.00000000E+00	 0.00000000E+00	 5.00000000E+00
	 1.00000000E+00	 0.00000000E+00	 6.00000000E+00
	 1.00000000E+00	 0.00000000E+00	 7.00000000E+00
	 0.00000000E+00	 0.00000000E+00	 7.00000000E+00
	 0.00000000E+00	 0.00000000E+00	 6.00000000E+00
	 0.00000000E+00	 0.00000000E+00	 5.00000000E+00
	 0.00000000E+00	 0.00000000E+00	 4.00000000E+00
	 0.00000000E+00	 0.00000000E+00	 3.00000000E+00
	 0.00000000E+00	 0.00000000E+00	 2.00000000E+00
	 0.00000000E+00	 0.00000000E+00	 1.00000000E+00
	 1.00000000E+00	 1.00000000E+00	 1.00000000E+00
	 1.00000000E+00	 1.00000000E+00	 2.00000000E+00
	 1.00000000E+00	 1.00000000E+00	 3.00000000E+00
	 1.00000000E+00	 1.00000000E+00	 4.00000000E+00
	 1.00000000E+00	 1.00000000E+00	 5.00000000E+00
	 1.00000000E+00	 1.00000000E+00	 6.00000000E+00
	 1.00000000E+00	 1.00000000E+00	 7.00000000E+00
	 0.00000000E+00	 1.00000000E+00	 1.00000000E+00
	 0.00000000E+00	 1.00000000E+00	 2.00000000E+00
	 0.00000000E+00	 1.00000000E+00	 3.00000000E+00
	 0.00000000E+00	 1.00000000E+00	 4.00000000E+00
	 0.00000000E+00	 1.00000000E+00	 5.00000000E+00
	 0.00000000E+00	 1.00000000E+00	 6.00000000E+00
	 0.00000000E+00	 1.00000000E+00	 7.00000000E+00
	 5.00000000E-01	 5.00000000E-01	 0.00000000E+00
	 5.00000000E-01	 5.00000000E-01	 8.00000000E+00
	 5.00000000E-01	 0.00000000E+00	 1.00000000E+00
	 5.00000000E-01	 0.00000000E+00	 2.00000000E+00
	 5.00000000E-01	 0.00000000E+00	 3.00000000E+00
	 5.00000000E-01	 0.00000000E+00	 4.00000000E+00
	 5.00000000E-01	 0.00000000E+00	 5.00000000E+00
	 5.00000000E-01	 0.00000000E+00	 6.00000000E+00
	 5.00000000E-01	 0.00000000E+00	 7.00000000E+00
	 1.00000000E+00	 5.00000000E-01	 1.00000000E+00
	 1.00000000E+00	 5.00000000E-01	 2.00000000E+00
	 1.00000000E+00	 5.00000000E-01	 3.00000000E+00
	 1.00000000E+00	 5.00000000E-01	 4.00000000E+00
	 1.00000000E+00	 5.00000000E-01	 5.00000000E+00
	 1.00000000E+00	 5.00000000E-01	 6.00000000E+00
	 1.00000000E+00	 5.00000000E-01	 7.00000000E+00
	 5.00000000E-01	 1.00000000E+00	 1.00000000E+00
	 5.00000000E-01	 1.00000000E+00	 2.00000000E+00
	 5.00000000E-01	 1.00000000E+00	 3.00000000E+00
	 5.00000000E-01	 1.00000000E+00	 4.00000000E+00
	 5.00000000E-01	 1.00000000E+00	 5.00000000E+00
	 5.00000000E-01	 1.00000000E+00	 6.00000000E+00
	 5.00000000E-01	 1.00000000E+00	 7.00000000E+00
	 0.00000000E+00	 5.00000000E-01	 1.00000000E+00
	 0.00000000E+00	 5.00000000E-01	 2.00000000E+00
	 0.00000000E+00	 5.00000000E-01	 3.00000000E+00
	 0.00000000E+00	 5.00000000E-01	 4.00000000E+00
	 0.00000000E+00	 5.00000000E-01	 5.00000000E+00
	 0.00000000E+00	 5.00000000E-01	 6.00000000E+00
	 0.00000000E+00	 5.00000000E-01	 7.00000000E+00
	 5.00000000E-01	 5.00000000E-01	 1.00000000E+00
	 5.00000000E-01	 5.00000000E-01	 2.00000000E+00
	 5.00000000E-01	 5.00000000E-01	 3.00000000E+00
	 5.00000000E-01	 5.00000000E-01	 4.00000000E+00
	 5.00000000E-01	 5.00000000E-01	 5.00000000E+00
	 5.00000000E-01	 5.00000000E-01	 6.00000000E+00
	 5.00000000E-01	 5.00000000E-01	 7.00000000E+00
	 1.00000000E+00	 0.00000000E+00	 4.00000000E+00
	 0.00000000E+00	 0.00000000E+00	 4.00000000E+00
	 1.00000000E+00	 1.00000000E+00	 4.00000000E+00
	 0.00000000E+00	 1.00000000E+00	 4.00000000E+00
	 5.00000000E-01	 0.00000000E+00	 4.00000000E+00
	 1.00000000E+00	 5.00000000E-01	 4.00000000E+00
	 5.00000000E-01	 1.00000000E+00	 4.00000000E+00
	 0.00000000E+00	 5.00000000E-01	 4.00000000E+00
	 5.00000000E-01	 5.00000000E-01	 4.00000000E+00

CELLS 32 288
	8 0 8 44 11 29 46 74 67 
	8 8 1 9 44 46 16 53 74 
	8 11 44 10 3 67 74 60 37 
	8 44 9 2 10 74 53 30 60 
	8 29 46 74 67 28 47 75 68 
	8 46 16 53 74 47 17 54 75 
	8 67 74 60 37 68 75 61 38 
	8 74 53 30 60 75 54 31 61 
	8 28 47 75 68 27 48 76 69 
	8 47 17 54 75 48 18 55 76 
	8 68 75 61 38 69 76 62 39 
	8 75 54 31 61 76 55 32 62 
	8 27 48 76 69 26 49 77 70 
	8 48 18 55 76 49 19 56 77 
	8 69 76 62 39 70 77 63 40 
	8 76 55 32 62 77 56 33 63 
	8 82 85 89 88 25 50 78 71 
	8 85 81 86 89 50 20 57 78 
	8 88 89 87 84 71 78 64 41 
	8 89 86 83 87 78 57 34 64 
	8 25 50 78 71 24 51 79 72 
	8 50 20 57 78 51 21 58 79 
	8 71 78 64 41 72 79 65 42 
	8 78 57 34 64 79 58 35 65 
	8 24 51 79 72 23 52 80 73 
	8 51 21 58 79 52 22 59 80 
	8 72 79 65 42 73 80 66 43 
	8 79 58 35 65 80 59 36 66 
	8 23 52 80 73 4 12 45 15 
	8 52 22 59 80 12 5 13 45 
	8 73 80 66 43 15 45 14 7 
	8 80 59 36 66 45 13 6 14 

CELL_TYPES 32
	12
	12
	12
	12
	12
	12
	12
	12
	12
	12
	12
	12
	12
	12
	12
	12
	12
	12
	12
	12
	12
	12
	12
	12
	12
	12
	12
	12
	12
	12
	12
	12

POINT_DATA 90
FIELD U 1
	U 3 90 double
		 0.00000000E+00	 0.00000000E+00	 0.00000000E+00
		 0.00000000E+00	 0.00000000E+00	 0.00000000E+00
		 0.00000000E+00	 0.00000000E+00	 0.00000000E+00
		 0.00000000E+00	 0.00000000E+00	 0.00000000E+00
		-7.20434000E+03	 2.65409000E+03	-2.54294000E+02
		-6.71768000E+03	 5.18584000E+02	 4.04404000E+02
		-7.20434000E+03	 2.65409000E+03	 2.54294000E+02
		-6.71768000E+03	 5.18584000E+02	-4.04404000E+02
		 0.00000000E+00	 0.00000000E+00	 0.00000000E+00
		 0.00000000E+00	 0.00000000E+00	 0.00000000E+00
		 0.00000000E+00	 0.00000000E+00	 0.00000000E+00
		 0.00000000E+00	 0.00000000E+00	 0.00000000E+00
		-7.45367000E+03	 1.38544000E+03	 4.33652000E+01
		-6.07945000E+03	 1.69861000E+03	 1.90291000E+02
		-7.45367000E+03	 1.38544000E+03	-4.33652000E+01
		-6.07945000E+03	 1.69861000E+03	-1.90291000E+02
		-4.45882000E+03	 1.02982000E+03	 7.26508000E+02
		-5.67743000E+03	 9.89406000E+02	-4.17740000E+02
		-2.04556000E+03	 3.52667000E+02	-1.56425000E+03
		 3.47929000E+03	-5.91676000E+02	-1.33204000E+03
		 5.79312000E+03	-9.77257000E+02	 1.29407000E+02
		 2.75578000E+03	-4.54434000E+02	 1.41847000E+03
		-2.84850000E+03	 5.19233000E+02	 1.51121000E+03
		-2.91095000E+03	 7.93285000E+02	-9.50268000E+02
		 2.83922000E+03	-8.20606000E+02	-8.91952000E+02
		 5.95798000E+03	-1.70069000E+03	-8.13729000E+01
		 3.57602000E+03	-1.01615000E+03	 8.37603000E+02
		-2.10012000E+03	 5.92088000E+02	 9.83619000E+02
		-5.82378000E+03	 1.63160000E+03	 2.62680000E+02
		-4.45223000E+03	 1.00091000E+03	-4.56837000E+02
		-4.45223000E+03	 1.00091000E+03	 4.56837000E+02
		-5.82378000E+03	 1.63160000E+03	-2.62680000E+02
		-2.10012000E+03	 5.92088000E+02	-9.83619000E+02
		 3.57602000E+03	-1.01615000E+03	-8.37603000E+02
		 5.95798000E+03	-1.70069000E+03	 8.13729000E+01
		 2.83922000E+03	-8.20606000E+02	 8.91952000E+02
		-2.91095000E+03	 7.93285000E+02	 9.50268000E+02
		-4.45882000E+03	 1.02982000E+03	-7.26508000E+02
		-5.67743000E+03	 9.89406000E+02	 4.17740000E+02
		-2.04556000E+03	 3.52667000E+02	 1.56425000E+03
		 3.47929000E+03	-5.91676000E+02	 1.33204000E+03
		 5.79312000E+03	-9.77257000E+02	-1.29407000E+02
		 2.75578000E+03	-4.54434000E+02	-1.41847000E+03
		-2.84850000E+03	 5.19233000E+02	-1.51121000E+03
		 0.00000000E+00	 0.00000000E+00	 0.00000000E+00
		-5.41821000E+03	 1.23475000E+03	 0.00000000E+00
		-4.37997000E+03	 1.00246000E+03	 1.37717000E+02
		-5.93754000E+03	 1.28090000E+03	-7.45067000E+01
		-2.12430000E+03	 4.57941000E+02	-2.97335000E+02
		 3.62756000E+03	-7.78747000E+02	-2.51630000E+02
		 6.05639000E+03	-1.30157000E+03	 1.88502000E+01
		 2.83983000E+03	-6.11694000E+02	 2.93491000E+02
		-2.72294000E+03	 6.25806000E+02	 2.26634000E+02
		-4.39888000E+03	 9.98148000E+02	 6.04315000E+02
		-5.62070000E+03	 1.35310000E+03	-3.26943000E+02
		-2.00949000E+03	 4.84106000E+02	-1.30474000E+03
		 3.41722000E+03	-8.26681000E+02	-1.10418000E+03
		 5.71141000E+03	-1.38019000E+03	 8.27164000E+01
		 2.68417000E+03	-6.47165000E+02	 1.28787000E+03
		-2.74610000E+03	 6.20528000E+02	 9.94491000E+02
		-4.37997000E+03	 1.00246000E+03	-1.37717000E+02
		-5.93754000E+03	 1.28090000E+03	 7.45067000E+01
		-2.12430000E+03	 4.57941000E+02	 2.97335000E+02
		 3.62756000E+03	-7.78747000E+02	 2.51630000E+02
		 6.05639000E+03	-1.30157000E+03	-1.88502000E+01
		 2.83983000E+03	-6.11694000E+02	-2.93491000E+02
		-2.72294000E+03	 6.25806000E+02	-2.26634000E+02
		-4.39888000E+03	 9.98148000E+02	-6.04315000E+02
		-5.62070000E+03	 1.35310000E+03	 3.26943000E+02
		-2.00949000E+03	 4.84106000E+02	 1.30474000E+03
		 3.41722000E+03	-8.26681000E+02	 1.10418000E+03
		 5.71141000E+03	-1.38019000E+03	-8.27164000E+01
		 2.68417000E+03	-6.47165000E+02	-1.28787000E+03
		-2.74610000E+03	 6.20528000E+02	-9.94491000E+02
		-4.32395000E+03	 9.85381000E+02	 0.00000000E+00
		-5.81248000E+03	 1.32460000E+03	 0.00000000E+00
		-2.06417000E+03	 4.70401000E+02	 0.00000000E+00
		 3.52816000E+03	-8.04028000E+02	 0.00000000E+00
		 5.84658000E+03	-1.33237000E+03	 0.00000000E+00
		 2.89529000E+03	-6.59805000E+02	 0.00000000E+00
		-3.22638000E+03	 7.35258000E+02	 0.00000000E+00
		 3.47929000E+03	-5.91676000E+02	-1.33204000E+03
		 3.57602000E+03	-1.01615000E+03	 8.37603000E+02
		 3.57602000E+03	-1.01615000E+03	-8.37603000E+02
		 3.47929000E+03	-5.91676000E+02	 1.33204000E+03
		 3.62756000E+03	-7.78747000E+02	-2.51630000E+02
		 3.41722000E+03	-8.26681000E+02	-1.10418000E+03
		 3.62756000E+03	-7.78747000E+02	 2.51630000E+02
		 3.41722000E+03	-8.26681000E+02	 1.10418000E+03
		 3.52816000E+03	-8.04028000E+02	 0.00000000E+00
