<?xml version="1.0"?>
<VTKFile type="UnstructuredGrid" version="0.1" byte_order="LittleEndian">
	<UnstructuredGrid>
		<Piece NumberOfPoints="277" NumberOfCells="34">
			<Points>
				<DataArray type="Float64" NumberOfComponents="3" format="ascii">
					 0.00000000E+00	 0.00000000E+00	 0.00000000E+00
					 1.00000000E+00	 0.00000000E+00	 0.00000000E+00
					 1.00000000E+00	 1.50000000E+00	 0.00000000E+00
					 0.00000000E+00	 1.50000000E+00	 0.00000000E+00
					 0.00000000E+00	 0.00000000E+00	 8.00000000E+00
					 1.00000000E+00	 0.00000000E+00	 8.00000000E+00
					 1.00000000E+00	 1.50000000E+00	 8.00000000E+00
					 0.00000000E+00	 1.50000000E+00	 8.00000000E+00
					 2.50000000E-01	 0.00000000E+00	 0.00000000E+00
					 5.00000000E-01	 0.00000000E+00	 0.00000000E+00
					 7.50000000E-01	 0.00000000E+00	 0.00000000E+00
					 1.00000000E+00	 3.75000000E-01	 0.00000000E+00
					 1.00000000E+00	 7.50000000E-01	 0.00000000E+00
					 1.00000000E+00	 1.12500000E+00	 0.00000000E+00
					 7.50000000E-01	 1.50000000E+00	 0.00000000E+00
					 5.00000000E-01	 1.50000000E+00	 0.00000000E+00
					 2.50000000E-01	 1.50000000E+00	 0.00000000E+00
					 0.00000000E+00	 1.12500000E+00	 0.00000000E+00
					 0.00000000E+00	 7.50000000E-01	 0.00000000E+00
					 0.00000000E+00	 3.75000000E-01	 0.00000000E+00
					 2.50000000E-01	 0.00000000E+00	 8.00000000E+00
					 5.00000000E-01	 0.00000000E+00	 8.00000000E+00
					 7.50000000E-01	 0.00000000E+00	 8.00000000E+00
					 1.00000000E+00	 3.75000000E-01	 8.00000000E+00
					 1.00000000E+00	 7.50000000E-01	 8.00000000E+00
					 1.00000000E+00	 1.12500000E+00	 8.00000000E+00
					 7.50000000E-01	 1.50000000E+00	 8.00000000E+00
					 5.00000000E-01	 1.50000000E+00	 8.00000000E+00
					 2.50000000E-01	 1.50000000E+00	 8.00000000E+00
					 0.00000000E+00	 1.12500000E+00	 8.00000000E+00
					 0.00000000E+00	 7.50000000E-01	 8.00000000E+00
					 0.00000000E+00	 3.75000000E-01	 8.00000000E+00
					 1.00000000E+00	 0.00000000E+00	 5.00000000E-01
					 1.00000000E+00	 0.00000000E+00	 1.00000000E+00
					 1.00000000E+00	 0.00000000E+00	 1.50000000E+00
					 1.00000000E+00	 0.00000000E+00	 2.00000000E+00
					 1.00000000E+00	 0.00000000E+00	 2.50000000E+00
					 1.00000000E+00	 0.00000000E+00	 3.00000000E+00
					 1.00000000E+00	 0.00000000E+00	 3.50000000E+00
					 1.00000000E+00	 0.00000000E+00	 4.00000000E+00
					 1.00000000E+00	 0.00000000E+00	 4.50000000E+00
					 1.00000000E+00	 0.00000000E+00	 5.00000000E+00
					 1.00000000E+00	 0.00000000E+00	 5.50000000E+00
					 1.00000000E+00	 0.00000000E+00	 6.00000000E+00
					 1.00000000E+00	 0.00000000E+00	 6.50000000E+00
					 1.00000000E+00	 0.00000000E+00	 7.00000000E+00
					 1.00000000E+00	 0.00000000E+00	 7.50000000E+00
					 0.00000000E+00	 0.00000000E+00	 7.50000000E+00
					 0.00000000E+00	 0.00000000E+00	 7.00000000E+00
					 0.00000000E+00	 0.00000000E+00	 6.50000000E+00
					 0.00000000E+00	 0.00000000E+00	 6.00000000E+00
					 0.00000000E+00	 0.00000000E+00	 5.50000000E+00
					 0.00000000E+00	 0.00000000E+00	 5.00000000E+00
					 0.00000000E+00	 0.00000000E+00	 4.50000000E+00
					 0.00000000E+00	 0.00000000E+00	 4.00000000E+00
					 0.00000000E+00	 0.00000000E+00	 3.50000000E+00
					 0.00000000E+00	 0.00000000E+00	 3.00000000E+00
					 0.00000000E+00	 0.00000000E+00	 2.50000000E+00
					 0.00000000E+00	 0.00000000E+00	 2.00000000E+00
					 0.00000000E+00	 0.00000000E+00	 1.50000000E+00
					 0.00000000E+00	 0.00000000E+00	 1.00000000E+00
					 0.00000000E+00	 0.00000000E+00	 5.00000000E-01
					 1.00000000E+00	 1.50000000E+00	 5.00000000E-01
					 1.00000000E+00	 1.50000000E+00	 1.00000000E+00
					 1.00000000E+00	 1.50000000E+00	 1.50000000E+00
					 1.00000000E+00	 1.50000000E+00	 2.00000000E+00
					 1.00000000E+00	 1.50000000E+00	 2.50000000E+00
					 1.00000000E+00	 1.50000000E+00	 3.00000000E+00
					 1.00000000E+00	 1.50000000E+00	 3.50000000E+00
					 1.00000000E+00	 1.50000000E+00	 4.00000000E+00
					 1.00000000E+00	 1.50000000E+00	 4.50000000E+00
					 1.00000000E+00	 1.50000000E+00	 5.00000000E+00
					 1.00000000E+00	 1.50000000E+00	 5.50000000E+00
					 1.00000000E+00	 1.50000000E+00	 6.00000000E+00
					 1.00000000E+00	 1.50000000E+00	 6.50000000E+00
					 1.00000000E+00	 1.50000000E+00	 7.00000000E+00
					 1.00000000E+00	 1.50000000E+00	 7.50000000E+00
					 0.00000000E+00	 1.50000000E+00	 5.00000000E-01
					 0.00000000E+00	 1.50000000E+00	 1.00000000E+00
					 0.00000000E+00	 1.50000000E+00	 1.50000000E+00
					 0.00000000E+00	 1.50000000E+00	 2.00000000E+00
					 0.00000000E+00	 1.50000000E+00	 2.50000000E+00
					 0.00000000E+00	 1.50000000E+00	 3.00000000E+00
					 0.00000000E+00	 1.50000000E+00	 3.50000000E+00
					 0.00000000E+00	 1.50000000E+00	 4.00000000E+00
					 0.00000000E+00	 1.50000000E+00	 4.50000000E+00
					 0.00000000E+00	 1.50000000E+00	 5.00000000E+00
					 0.00000000E+00	 1.50000000E+00	 5.50000000E+00
					 0.00000000E+00	 1.50000000E+00	 6.00000000E+00
					 0.00000000E+00	 1.50000000E+00	 6.50000000E+00
					 0.00000000E+00	 1.50000000E+00	 7.00000000E+00
					 0.00000000E+00	 1.50000000E+00	 7.50000000E+00
					 5.00000000E-01	 3.75000000E-01	 0.00000000E+00
					 2.50000000E-01	 7.50000000E-01	 0.00000000E+00
					 5.00000000E-01	 7.50000000E-01	 0.00000000E+00
					 7.50000000E-01	 7.50000000E-01	 0.00000000E+00
					 5.00000000E-01	 1.12500000E+00	 0.00000000E+00
					 5.00000000E-01	 3.75000000E-01	 8.00000000E+00
					 2.50000000E-01	 7.50000000E-01	 8.00000000E+00
					 5.00000000E-01	 7.50000000E-01	 8.00000000E+00
					 7.50000000E-01	 7.50000000E-01	 8.00000000E+00
					 5.00000000E-01	 1.12500000E+00	 8.00000000E+00
					 5.00000000E-01	 0.00000000E+00	 5.00000000E-01
					 2.50000000E-01	 0.00000000E+00	 1.00000000E+00
					 5.00000000E-01	 0.00000000E+00	 1.00000000E+00
					 7.50000000E-01	 0.00000000E+00	 1.00000000E+00
					 5.00000000E-01	 0.00000000E+00	 1.50000000E+00
					 2.50000000E-01	 0.00000000E+00	 2.00000000E+00
					 5.00000000E-01	 0.00000000E+00	 2.00000000E+00
					 7.50000000E-01	 0.00000000E+00	 2.00000000E+00
					 5.00000000E-01	 0.00000000E+00	 2.50000000E+00
					 2.50000000E-01	 0.00000000E+00	 3.00000000E+00
					 5.00000000E-01	 0.00000000E+00	 3.00000000E+00
					 7.50000000E-01	 0.00000000E+00	 3.00000000E+00
					 5.00000000E-01	 0.00000000E+00	 3.50000000E+00
					 2.50000000E-01	 0.00000000E+00	 4.00000000E+00
					 5.00000000E-01	 0.00000000E+00	 4.00000000E+00
					 7.50000000E-01	 0.00000000E+00	 4.00000000E+00
					 5.00000000E-01	 0.00000000E+00	 4.50000000E+00
					 2.50000000E-01	 0.00000000E+00	 5.00000000E+00
					 5.00000000E-01	 0.00000000E+00	 5.00000000E+00
					 7.50000000E-01	 0.00000000E+00	 5.00000000E+00
					 5.00000000E-01	 0.00000000E+00	 5.50000000E+00
					 2.50000000E-01	 0.00000000E+00	 6.00000000E+00
					 5.00000000E-01	 0.00000000E+00	 6.00000000E+00
					 7.50000000E-01	 0.00000000E+00	 6.00000000E+00
					 5.00000000E-01	 0.00000000E+00	 6.50000000E+00
					 2.50000000E-01	 0.00000000E+00	 7.00000000E+00
					 5.00000000E-01	 0.00000000E+00	 7.00000000E+00
					 7.50000000E-01	 0.00000000E+00	 7.00000000E+00
					 5.00000000E-01	 0.00000000E+00	 7.50000000E+00
					 1.00000000E+00	 7.50000000E-01	 5.00000000E-01
					 1.00000000E+00	 3.75000000E-01	 1.00000000E+00
					 1.00000000E+00	 7.50000000E-01	 1.00000000E+00
					 1.00000000E+00	 1.12500000E+00	 1.00000000E+00
					 1.00000000E+00	 7.50000000E-01	 1.50000000E+00
					 1.00000000E+00	 3.75000000E-01	 2.00000000E+00
					 1.00000000E+00	 7.50000000E-01	 2.00000000E+00
					 1.00000000E+00	 1.12500000E+00	 2.00000000E+00
					 1.00000000E+00	 7.50000000E-01	 2.50000000E+00
					 1.00000000E+00	 3.75000000E-01	 3.00000000E+00
					 1.00000000E+00	 7.50000000E-01	 3.00000000E+00
					 1.00000000E+00	 1.12500000E+00	 3.00000000E+00
					 1.00000000E+00	 7.50000000E-01	 3.50000000E+00
					 1.00000000E+00	 3.75000000E-01	 4.00000000E+00
					 1.00000000E+00	 7.50000000E-01	 4.00000000E+00
					 1.00000000E+00	 1.12500000E+00	 4.00000000E+00
					 1.00000000E+00	 7.50000000E-01	 4.50000000E+00
					 1.00000000E+00	 3.75000000E-01	 5.00000000E+00
					 1.00000000E+00	 7.50000000E-01	 5.00000000E+00
					 1.00000000E+00	 1.12500000E+00	 5.00000000E+00
					 1.00000000E+00	 7.50000000E-01	 5.50000000E+00
					 1.00000000E+00	 3.75000000E-01	 6.00000000E+00
					 1.00000000E+00	 7.50000000E-01	 6.00000000E+00
					 1.00000000E+00	 1.12500000E+00	 6.00000000E+00
					 1.00000000E+00	 7.50000000E-01	 6.50000000E+00
					 1.00000000E+00	 3.75000000E-01	 7.00000000E+00
					 1.00000000E+00	 7.50000000E-01	 7.00000000E+00
					 1.00000000E+00	 1.12500000E+00	 7.00000000E+00
					 1.00000000E+00	 7.50000000E-01	 7.50000000E+00
					 5.00000000E-01	 1.50000000E+00	 5.00000000E-01
					 7.50000000E-01	 1.50000000E+00	 1.00000000E+00
					 5.00000000E-01	 1.50000000E+00	 1.00000000E+00
					 2.50000000E-01	 1.50000000E+00	 1.00000000E+00
					 5.00000000E-01	 1.50000000E+00	 1.50000000E+00
					 7.50000000E-01	 1.50000000E+00	 2.00000000E+00
					 5.00000000E-01	 1.50000000E+00	 2.00000000E+00
					 2.50000000E-01	 1.50000000E+00	 2.00000000E+00
					 5.00000000E-01	 1.50000000E+00	 2.50000000E+00
					 7.50000000E-01	 1.50000000E+00	 3.00000000E+00
					 5.00000000E-01	 1.50000000E+00	 3.00000000E+00
					 2.50000000E-01	 1.50000000E+00	 3.00000000E+00
					 5.00000000E-01	 1.50000000E+00	 3.50000000E+00
					 7.50000000E-01	 1.50000000E+00	 4.00000000E+00
					 5.00000000E-01	 1.50000000E+00	 4.00000000E+00
					 2.50000000E-01	 1.50000000E+00	 4.00000000E+00
					 5.00000000E-01	 1.50000000E+00	 4.50000000E+00
					 7.50000000E-01	 1.50000000E+00	 5.00000000E+00
					 5.00000000E-01	 1.50000000E+00	 5.00000000E+00
					 2.50000000E-01	 1.50000000E+00	 5.00000000E+00
					 5.00000000E-01	 1.50000000E+00	 5.50000000E+00
					 7.50000000E-01	 1.50000000E+00	 6.00000000E+00
					 5.00000000E-01	 1.50000000E+00	 6.00000000E+00
					 2.50000000E-01	 1.50000000E+00	 6.00000000E+00
					 5.00000000E-01	 1.50000000E+00	 6.50000000E+00
					 7.50000000E-01	 1.50000000E+00	 7.00000000E+00
					 5.00000000E-01	 1.50000000E+00	 7.00000000E+00
					 2.50000000E-01	 1.50000000E+00	 7.00000000E+00
					 5.00000000E-01	 1.50000000E+00	 7.50000000E+00
					 0.00000000E+00	 7.50000000E-01	 5.00000000E-01
					 0.00000000E+00	 1.12500000E+00	 1.00000000E+00
					 0.00000000E+00	 7.50000000E-01	 1.00000000E+00
					 0.00000000E+00	 3.75000000E-01	 1.00000000E+00
					 0.00000000E+00	 7.50000000E-01	 1.50000000E+00
					 0.00000000E+00	 1.12500000E+00	 2.00000000E+00
					 0.00000000E+00	 7.50000000E-01	 2.00000000E+00
					 0.00000000E+00	 3.75000000E-01	 2.00000000E+00
					 0.00000000E+00	 7.50000000E-01	 2.50000000E+00
					 0.00000000E+00	 1.12500000E+00	 3.00000000E+00
					 0.00000000E+00	 7.50000000E-01	 3.00000000E+00
					 0.00000000E+00	 3.75000000E-01	 3.00000000E+00
					 0.00000000E+00	 7.50000000E-01	 3.50000000E+00
					 0.00000000E+00	 1.12500000E+00	 4.00000000E+00
					 0.00000000E+00	 7.50000000E-01	 4.00000000E+00
					 0.00000000E+00	 3.75000000E-01	 4.00000000E+00
					 0.00000000E+00	 7.50000000E-01	 4.50000000E+00
					 0.00000000E+00	 1.12500000E+00	 5.00000000E+00
					 0.00000000E+00	 7.50000000E-01	 5.00000000E+00
					 0.00000000E+00	 3.75000000E-01	 5.00000000E+00
					 0.00000000E+00	 7.50000000E-01	 5.50000000E+00
					 0.00000000E+00	 1.12500000E+00	 6.00000000E+00
					 0.00000000E+00	 7.50000000E-01	 6.00000000E+00
					 0.00000000E+00	 3.75000000E-01	 6.00000000E+00
					 0.00000000E+00	 7.50000000E-01	 6.50000000E+00
					 0.00000000E+00	 1.12500000E+00	 7.00000000E+00
					 0.00000000E+00	 7.50000000E-01	 7.00000000E+00
					 0.00000000E+00	 3.75000000E-01	 7.00000000E+00
					 0.00000000E+00	 7.50000000E-01	 7.50000000E+00
					 5.00000000E-01	 7.50000000E-01	 5.00000000E-01
					 5.00000000E-01	 3.75000000E-01	 1.00000000E+00
					 2.50000000E-01	 7.50000000E-01	 1.00000000E+00
					 5.00000000E-01	 7.50000000E-01	 1.00000000E+00
					 7.50000000E-01	 7.50000000E-01	 1.00000000E+00
					 5.00000000E-01	 1.12500000E+00	 1.00000000E+00
					 5.00000000E-01	 7.50000000E-01	 1.50000000E+00
					 5.00000000E-01	 3.75000000E-01	 2.00000000E+00
					 2.50000000E-01	 7.50000000E-01	 2.00000000E+00
					 5.00000000E-01	 7.50000000E-01	 2.00000000E+00
					 7.50000000E-01	 7.50000000E-01	 2.00000000E+00
					 5.00000000E-01	 1.12500000E+00	 2.00000000E+00
					 5.00000000E-01	 7.50000000E-01	 2.50000000E+00
					 5.00000000E-01	 3.75000000E-01	 3.00000000E+00
					 2.50000000E-01	 7.50000000E-01	 3.00000000E+00
					 5.00000000E-01	 7.50000000E-01	 3.00000000E+00
					 7.50000000E-01	 7.50000000E-01	 3.00000000E+00
					 5.00000000E-01	 1.12500000E+00	 3.00000000E+00
					 5.00000000E-01	 7.50000000E-01	 3.50000000E+00
					 5.00000000E-01	 3.75000000E-01	 4.00000000E+00
					 2.50000000E-01	 7.50000000E-01	 4.00000000E+00
					 5.00000000E-01	 7.50000000E-01	 4.00000000E+00
					 7.50000000E-01	 7.50000000E-01	 4.00000000E+00
					 5.00000000E-01	 1.12500000E+00	 4.00000000E+00
					 5.00000000E-01	 7.50000000E-01	 4.50000000E+00
					 5.00000000E-01	 3.75000000E-01	 5.00000000E+00
					 2.50000000E-01	 7.50000000E-01	 5.00000000E+00
					 5.00000000E-01	 7.50000000E-01	 5.00000000E+00
					 7.50000000E-01	 7.50000000E-01	 5.00000000E+00
					 5.00000000E-01	 1.12500000E+00	 5.00000000E+00
					 5.00000000E-01	 7.50000000E-01	 5.50000000E+00
					 5.00000000E-01	 3.75000000E-01	 6.00000000E+00
					 2.50000000E-01	 7.50000000E-01	 6.00000000E+00
					 5.00000000E-01	 7.50000000E-01	 6.00000000E+00
					 7.50000000E-01	 7.50000000E-01	 6.00000000E+00
					 5.00000000E-01	 1.12500000E+00	 6.00000000E+00
					 5.00000000E-01	 7.50000000E-01	 6.50000000E+00
					 5.00000000E-01	 3.75000000E-01	 7.00000000E+00
					 2.50000000E-01	 7.50000000E-01	 7.00000000E+00
					 5.00000000E-01	 7.50000000E-01	 7.00000000E+00
					 7.50000000E-01	 7.50000000E-01	 7.00000000E+00
					 5.00000000E-01	 1.12500000E+00	 7.00000000E+00
					 5.00000000E-01	 7.50000000E-01	 7.50000000E+00
					 1.00000000E+00	 2.00000000E+00	 8.50000000E+00
					 1.00000000E+00	-5.00000000E-01	 8.50000000E+00
					 1.00000000E+00	-5.00000000E-01	 7.50000000E+00
					 1.00000000E+00	 2.00000000E+00	 7.50000000E+00
					 1.10000000E+00	 2.00000000E+00	 8.50000000E+00
					 1.10000000E+00	-5.00000000E-01	 8.50000000E+00
					 1.10000000E+00	-5.00000000E-01	 7.50000000E+00
					 1.10000000E+00	 2.00000000E+00	 7.50000000E+00
					-1.00000000E-01	 2.00000000E+00	 8.50000000E+00
					-1.00000000E-01	-5.00000000E-01	 8.50000000E+00
					-1.00000000E-01	-5.00000000E-01	 7.50000000E+00
					-1.00000000E-01	 2.00000000E+00	 7.50000000E+00
					 0.00000000E+00	 2.00000000E+00	 8.50000000E+00
					 0.00000000E+00	-5.00000000E-01	 8.50000000E+00
					 0.00000000E+00	-5.00000000E-01	 7.50000000E+00
					 0.00000000E+00	 2.00000000E+00	 7.50000000E+00

				</DataArray>
			</Points>
			<Cells>
				<DataArray type="Int32" Name="connectivity" format="ascii">
					0 9 94 18 60 104 221 191 8 92 93 19 103 219 220 192 61 102 218 189 9 1 12 94 104 33 133 221 10 11 95 92 105 132 222 219 102 32 131 218 18 94 15 3 191 221 162 78 93 96 16 17 220 223 163 190 189 218 160 77 94 12 2 15 221 133 63 162 95 13 14 96 222 134 161 223 218 131 62 160 60 104 221 191 58 108 227 195 103 219 220 192 107 225 226 196 59 106 224 193 104 33 133 221 108 35 137 227 105 132 222 219 109 136 228 225 106 34 135 224 191 221 162 78 195 227 166 80 220 223 163 190 226 229 167 194 193 224 164 79 221 133 63 162 227 137 65 166 222 134 161 223 228 138 165 229 224 135 64 164 58 108 227 195 56 112 233 199 107 225 226 196 111 231 232 200 57 110 230 197 108 35 137 227 112 37 141 233 109 136 228 225 113 140 234 231 110 36 139 230 195 227 166 80 199 233 170 82 226 229 167 194 232 235 171 198 197 230 168 81 227 137 65 166 233 141 67 170 228 138 165 229 234 142 169 235 230 139 66 168 56 112 233 199 54 116 239 203 111 231 232 200 115 237 238 204 55 114 236 201 112 37 141 233 116 39 145 239 113 140 234 231 117 144 240 237 114 38 143 236 199 233 170 82 203 239 174 84 232 235 171 198 238 241 175 202 201 236 172 83 233 141 67 170 239 145 69 174 234 142 169 235 240 146 173 241 236 143 68 172 54 116 239 203 52 120 245 207 115 237 238 204 119 243 244 208 53 118 242 205 116 39 145 239 120 41 149 245 117 144 240 237 121 148 246 243 118 40 147 242 203 239 174 84 207 245 178 86 238 241 175 202 244 247 179 206 205 242 176 85 239 145 69 174 245 149 71 178 240 146 173 241 246 150 177 247 242 147 70 176 52 120 245 207 50 124 251 211 119 243 244 208 123 249 250 212 51 122 248 209 120 41 149 245 124 43 153 251 121 148 246 243 125 152 252 249 122 42 151 248 207 245 178 86 211 251 182 88 244 247 179 206 250 253 183 210 209 248 180 87 245 149 71 178 251 153 73 182 246 150 177 247 252 154 181 253 248 151 72 180 50 124 251 211 48 128 257 215 123 249 250 212 127 255 256 216 49 126 254 213 124 43 153 251 128 45 157 257 125 152 252 249 129 156 258 255 126 44 155 254 211 251 182 88 215 257 186 90 250 253 183 210 256 259 187 214 213 254 184 89 251 153 73 182 257 157 75 186 252 154 181 253 258 158 185 259 254 155 74 184 48 128 257 215 4 21 99 30 127 255 256 216 20 97 98 31 47 130 260 217 128 45 157 257 21 5 24 99 129 156 258 255 22 23 100 97 130 46 159 260 215 257 186 90 30 99 27 7 256 259 187 214 98 101 28 29 217 260 188 91 257 157 75 186 99 24 6 27 258 158 185 259 100 25 26 101 260 159 76 188 261 262 263 264 265 266 267 268 269 270 271 272 273 274 275 276 
				</DataArray>
				<DataArray type="Int32" Name="offsets" format="ascii">
					20 40 60 80 100 120 140 160 180 200 220 240 260 280 300 320 340 360 380 400 420 440 460 480 500 520 540 560 580 600 620 640 648 656 
				</DataArray>
				<DataArray type="UInt8" Name="types" format="ascii">
					25 25 25 25 25 25 25 25 25 25 25 25 25 25 25 25 25 25 25 25 25 25 25 25 25 25 25 25 25 25 25 25 12 12 
				</DataArray>
			</Cells>
			<PointData>
				<DataArray type="Float32" Name="U" NumberOfComponents="3" ComponentName0="D1" ComponentName1="D2" ComponentName2="D3" format="ascii">
					 0.00000000E+00	 0.00000000E+00	 0.00000000E+00
					 0.00000000E+00	 0.00000000E+00	 0.00000000E+00
					 0.00000000E+00	 0.00000000E+00	 0.00000000E+00
					 0.00000000E+00	 0.00000000E+00	 0.00000000E+00
					 2.79652000E-03	-2.08949000E-03	-1.88396000E-03
					 8.97598000E-04	 1.10697000E-03	 1.86207000E-03
					-4.27911000E-03	 1.78570000E-03	 2.20006000E-03
					-8.32375000E-04	-1.02002000E-03	-1.21642000E-03
					 0.00000000E+00	 0.00000000E+00	 0.00000000E+00
					 0.00000000E+00	 0.00000000E+00	 0.00000000E+00
					 0.00000000E+00	 0.00000000E+00	 0.00000000E+00
					 0.00000000E+00	 0.00000000E+00	 0.00000000E+00
					 0.00000000E+00	 0.00000000E+00	 0.00000000E+00
					 0.00000000E+00	 0.00000000E+00	 0.00000000E+00
					 0.00000000E+00	 0.00000000E+00	 0.00000000E+00
					 0.00000000E+00	 0.00000000E+00	 0.00000000E+00
					 0.00000000E+00	 0.00000000E+00	 0.00000000E+00
					 0.00000000E+00	 0.00000000E+00	 0.00000000E+00
					 0.00000000E+00	 0.00000000E+00	 0.00000000E+00
					 0.00000000E+00	 0.00000000E+00	 0.00000000E+00
					 2.69545000E-03	-1.11728000E-03	-9.52582000E-04
					 2.59220000E-03	 1.55136000E-05	 1.59216000E-04
					 1.80610000E-03	 9.76228000E-04	 8.36329000E-04
					 2.76384000E-03	 1.70189000E-03	 1.22489000E-03
					 1.74166000E-03	 1.90934000E-03	 1.82408000E-04
					-7.43448000E-04	 1.85354000E-03	 1.26777000E-03
					-3.51376000E-03	 9.31030000E-04	 8.26032000E-04
					-2.69877000E-03	-7.52191000E-05	 8.01814000E-05
					-1.89779000E-03	-9.30531000E-04	-8.38631000E-04
					-1.79378000E-03	-1.65672000E-03	-1.63551000E-03
					-8.81789000E-04	-2.01851000E-03	-2.40934000E-03
					 7.76785000E-04	-2.08487000E-03	-2.11496000E-03
					 6.72778000E-04	-1.05696000E-04	-6.86051000E-04
					 1.90654000E-03	 1.27468000E-04	-1.21855000E-03
					 3.72597000E-03	 3.39473000E-04	-1.55466000E-03
					 5.69055000E-03	 5.80020000E-04	-1.69332000E-03
					 7.77390000E-03	 8.26464000E-04	-1.66390000E-03
					 9.65926000E-03	 1.06250000E-03	-1.43417000E-03
					 1.12508000E-02	 1.25343000E-03	-1.00869000E-03
					 1.22407000E-02	 1.43801000E-03	-4.14256000E-04
					 1.25811000E-02	 1.66971000E-03	 2.09021000E-04
					 1.22471000E-02	 1.85750000E-03	 7.27298000E-04
					 1.08800000E-02	 1.66313000E-03	 1.19994000E-03
					 9.27462000E-03	 1.55128000E-03	 1.51945000E-03
					 9.55629000E-03	 2.93257000E-03	 1.71446000E-03
					 1.01798000E-02	 4.40161000E-03	 1.84204000E-03
					 5.67308000E-03	 2.72529000E-03	 1.87861000E-03
					 4.42515000E-03	-2.17103000E-03	-1.93028000E-03
					 6.77924000E-03	-2.17688000E-03	-1.89731000E-03
					 8.45261000E-03	-2.18676000E-03	-1.73374000E-03
					 9.95585000E-03	-1.96795000E-03	-1.45930000E-03
					 1.11440000E-02	-1.84121000E-03	-1.14416000E-03
					 1.19195000E-02	-1.71397000E-03	-7.20708000E-04
					 1.26887000E-02	-1.66456000E-03	-1.93839000E-04
					 1.21950000E-02	-1.51785000E-03	 4.16773000E-04
					 1.14489000E-02	-1.31327000E-03	 9.80371000E-04
					 9.48231000E-03	-1.02539000E-03	 1.39830000E-03
					 7.75320000E-03	-7.87299000E-04	 1.62924000E-03
					 5.70244000E-03	-5.93724000E-04	 1.68354000E-03
					 3.74314000E-03	-3.41389000E-04	 1.54516000E-03
					 1.90146000E-03	-1.26413000E-04	 1.21298000E-03
					 6.71445000E-04	 1.07763000E-04	 6.83299000E-04
					 2.91185000E-04	 3.52446000E-04	-5.93368000E-04
					 1.06731000E-03	 4.39796000E-04	-1.09913000E-03
					 2.39766000E-03	 5.49375000E-04	-1.42323000E-03
					 3.89090000E-03	 6.23548000E-04	-1.55581000E-03
					 5.50032000E-03	 6.95243000E-04	-1.52632000E-03
					 6.90075000E-03	 7.76739000E-04	-1.29276000E-03
					 8.04951000E-03	 8.90708000E-04	-8.74616000E-04
					 8.55930000E-03	 1.00628000E-03	-2.80320000E-04
					 8.36743000E-03	 1.16811000E-03	 3.46455000E-04
					 7.40877000E-03	 1.31579000E-03	 8.86595000E-04
					 6.07607000E-03	 1.52879000E-03	 1.30726000E-03
					 4.17126000E-03	 1.68738000E-03	 1.59062000E-03
					 2.45354000E-03	 2.03344000E-03	 1.76106000E-03
					 3.46749000E-06	 1.96916000E-03	 1.77616000E-03
					-7.93581000E-04	 1.92627000E-03	 1.84592000E-03
					 2.89858000E-04	-3.54010000E-04	 5.91463000E-04
					 1.06187000E-03	-4.39690000E-04	 1.09620000E-03
					 2.41366000E-03	-5.44898000E-04	 1.41898000E-03
					 3.90084000E-03	-6.05363000E-04	 1.55382000E-03
					 5.47977000E-03	-7.24527000E-04	 1.50209000E-03
					 6.72544000E-03	-8.01842000E-04	 1.26854000E-03
					 8.23520000E-03	-8.24098000E-04	 8.55455000E-04
					 8.49172000E-03	-9.29656000E-04	 2.87706000E-04
					 8.51003000E-03	-1.12874000E-03	-3.24450000E-04
					 7.18141000E-03	-1.41051000E-03	-8.77592000E-04
					 6.15590000E-03	-1.48928000E-03	-1.26009000E-03
					 4.51860000E-03	-1.61036000E-03	-1.57367000E-03
					 2.09457000E-03	-2.16250000E-03	-1.77960000E-03
					-5.84017000E-04	-2.77928000E-03	-1.86148000E-03
					-1.43754000E-03	-1.87512000E-03	-1.65524000E-03
					 0.00000000E+00	 0.00000000E+00	 0.00000000E+00
					 0.00000000E+00	 0.00000000E+00	 0.00000000E+00
					 0.00000000E+00	 0.00000000E+00	 0.00000000E+00
					 0.00000000E+00	 0.00000000E+00	 0.00000000E+00
					 0.00000000E+00	 0.00000000E+00	 0.00000000E+00
					 7.18505000E-04	-1.19440000E-04	 2.28669000E-04
					-7.11615000E-04	-9.84963000E-04	-8.28185000E-04
					-6.70456000E-04	-7.77627000E-05	 4.84886000E-04
					 4.32714000E-04	 8.11361000E-04	 1.23321000E-03
					-1.71774000E-03	-1.62639000E-05	 1.83194000E-04
					 5.44975000E-04	-8.01064000E-07	 1.52447000E-07
					 1.88434000E-03	-6.16804000E-05	 5.41259000E-04
					 1.91923000E-03	 4.27709000E-08	-2.83910000E-06
					 1.88743000E-03	 6.21350000E-05	-5.47227000E-04
					 3.66042000E-03	 2.30146000E-06	-5.98092000E-06
					 5.71894000E-03	-2.90375000E-04	 7.83270000E-04
					 5.73149000E-03	 9.63171000E-06	-1.42269000E-05
					 5.71278000E-03	 2.93761000E-04	-8.00555000E-04
					 7.78167000E-03	-7.30664000E-06	-6.56102000E-06
					 9.64280000E-03	-5.31625000E-04	 6.23439000E-04
					 9.79181000E-03	-1.02252000E-05	-3.34438000E-05
					 9.73488000E-03	 5.31541000E-04	-6.76041000E-04
					 1.12638000E-02	 1.13794000E-05	-1.30474000E-05
					 1.22726000E-02	-7.27970000E-04	 1.76152000E-04
					 1.22621000E-02	 7.57747000E-06	-6.31770000E-06
					 1.22920000E-02	 7.11338000E-04	-1.76411000E-04
					 1.25106000E-02	 2.94993000E-06	 1.07025000E-05
					 1.20582000E-02	-8.75358000E-04	-3.39122000E-04
					 1.21745000E-02	-2.81238000E-05	 4.37578000E-05
					 1.22152000E-02	 8.54824000E-04	 3.75044000E-04
					 1.12890000E-02	 2.74282000E-05	 2.52695000E-06
					 1.00086000E-02	-1.02653000E-03	-7.47476000E-04
					 1.00271000E-02	 2.04743000E-06	-1.01485000E-07
					 9.71001000E-03	 1.07029000E-03	 7.91108000E-04
					 8.35533000E-03	-7.44538000E-05	 1.84046000E-05
					 6.49810000E-03	-1.04097000E-03	-9.08935000E-04
					 6.27553000E-03	-3.63681000E-04	-2.20108000E-05
					 8.04377000E-03	 7.56183000E-04	 9.35317000E-04
					 4.44897000E-03	-1.66445000E-04	-2.87935000E-05
					 6.07534000E-04	 1.48731000E-04	-6.31524000E-04
					 1.81395000E-03	 2.11913000E-04	-1.26129000E-03
					 1.63215000E-03	 2.81864000E-04	-1.18566000E-03
					 1.39437000E-03	 3.54823000E-04	-1.09517000E-03
					 3.12147000E-03	 4.42275000E-04	-1.49259000E-03
					 5.27053000E-03	 5.91641000E-04	-1.73717000E-03
					 4.85452000E-03	 6.01912000E-04	-1.65123000E-03
					 4.37038000E-03	 6.12667000E-04	-1.57966000E-03
					 6.56073000E-03	 7.59655000E-04	-1.59090000E-03
					 8.92893000E-03	 9.82866000E-04	-1.46723000E-03
					 8.23287000E-03	 9.18344000E-04	-1.39680000E-03
					 7.55662000E-03	 8.52979000E-04	-1.30633000E-03
					 9.50083000E-03	 1.07690000E-03	-9.27503000E-04
					 1.11912000E-02	 1.34707000E-03	-4.46317000E-04
					 1.02878000E-02	 1.23821000E-03	-3.53323000E-04
					 9.31861000E-03	 1.11971000E-03	-2.78356000E-04
					 1.02635000E-02	 1.38528000E-03	 2.65736000E-04
					 1.07892000E-02	 1.66582000E-03	 7.76667000E-04
					 9.75382000E-03	 1.53847000E-03	 8.37453000E-04
					 8.51530000E-03	 1.43227000E-03	 9.17446000E-04
					 8.35031000E-03	 1.71545000E-03	 1.22461000E-03
					 8.91441000E-03	 1.83241000E-03	 1.40981000E-03
					 7.02056000E-03	 1.90837000E-03	 1.52617000E-03
					 5.70202000E-03	 1.79883000E-03	 1.61454000E-03
					 5.49811000E-03	 1.90885000E-03	 1.83874000E-03
					 4.33316000E-03	 2.70361000E-03	 1.96715000E-03
					 5.05224000E-03	 1.80195000E-03	 2.09873000E-03
					 2.19144000E-03	 1.82995000E-03	 1.90204000E-03
					-2.30249000E-04	 1.83319000E-03	 1.57526000E-03
					 1.66329000E-04	 9.70704000E-07	 5.60736000E-07
					 1.04445000E-03	 2.23006000E-04	-5.47458000E-04
					 1.06753000E-03	 5.84910000E-07	-1.45171000E-06
					 1.04146000E-03	-2.22246000E-04	 5.44213000E-04
					 2.33743000E-03	-8.65637000E-07	-3.28620000E-06
					 3.91145000E-03	 3.09869000E-04	-7.72166000E-04
					 3.93046000E-03	-6.74656000E-06	-1.01473000E-05
					 3.91696000E-03	-3.07817000E-04	 7.62621000E-04
					 5.50801000E-03	 1.13752000E-05	-1.64155000E-06
					 6.98680000E-03	 3.87745000E-04	-6.48194000E-04
					 7.05278000E-03	 1.59518000E-05	-2.79409000E-05
					 6.89568000E-03	-3.77250000E-04	 6.07819000E-04
					 8.03485000E-03	-4.02971000E-06	-7.52416000E-06
					 8.60509000E-03	 5.30633000E-04	-1.55342000E-04
					 8.57515000E-03	 6.42975000E-07	-1.30312000E-06
					 8.57566000E-03	-4.99447000E-04	 1.59893000E-04
					 8.34044000E-03	-1.59460000E-06	 1.05479000E-05
					 7.52461000E-03	 6.59593000E-04	 4.19812000E-04
					 7.60953000E-03	 2.37689000E-05	 4.44667000E-05
					 7.41377000E-03	-6.57366000E-04	-3.73493000E-04
					 6.10684000E-03	-1.57461000E-05	-1.59950000E-06
					 4.33102000E-03	 8.69530000E-04	 7.49920000E-04
					 4.47443000E-03	 8.33277000E-06	 2.91683000E-05
					 4.48645000E-03	-8.91887000E-04	-7.32366000E-04
					 2.32555000E-03	-9.06494000E-06	-3.16327000E-05
					 2.16497000E-04	 9.21968000E-04	 9.97288000E-04
					 3.77325000E-04	 2.03001000E-04	 1.96444000E-05
					-3.85751000E-05	-9.30734000E-04	-8.63583000E-04
					-1.38474000E-03	 3.34907000E-05	-5.62134000E-06
					 6.06140000E-04	-1.48408000E-04	 6.29458000E-04
					 1.39989000E-03	-3.53543000E-04	 1.09309000E-03
					 1.63410000E-03	-2.81107000E-04	 1.17868000E-03
					 1.82021000E-03	-2.11806000E-04	 1.25772000E-03
					 3.13179000E-03	-4.40840000E-04	 1.48730000E-03
					 4.36945000E-03	-6.05353000E-04	 1.56176000E-03
					 4.90387000E-03	-5.99111000E-04	 1.63418000E-03
					 5.27039000E-03	-5.93822000E-04	 1.71514000E-03
					 6.52561000E-03	-7.56287000E-04	 1.57865000E-03
					 7.63404000E-03	-8.53371000E-04	 1.29071000E-03
					 8.31534000E-03	-9.13532000E-04	 1.35952000E-03
					 9.01008000E-03	-9.72286000E-04	 1.44791000E-03
					 9.50789000E-03	-1.07086000E-03	 9.29518000E-04
					 9.46611000E-03	-1.10640000E-03	 2.73364000E-04
					 1.15282000E-02	-1.22996000E-03	 3.59247000E-04
					 1.13302000E-02	-1.35349000E-03	 4.34186000E-04
					 1.02382000E-02	-1.38662000E-03	-2.70696000E-04
					 8.61405000E-03	-1.46048000E-03	-8.78225000E-04
					 9.74961000E-03	-1.54548000E-03	-7.97821000E-04
					 1.09306000E-02	-1.63248000E-03	-7.22025000E-04
					 8.43312000E-03	-1.70663000E-03	-1.23100000E-03
					 5.60754000E-03	-1.79742000E-03	-1.61918000E-03
					 7.23617000E-03	-1.87541000E-03	-1.48229000E-03
					 8.55238000E-03	-1.92044000E-03	-1.43476000E-03
					 5.18828000E-03	-1.98330000E-03	-1.79362000E-03
					 2.05119000E-03	-2.17554000E-03	-1.80558000E-03
					 2.99292000E-03	-2.02709000E-03	-1.77686000E-03
					 4.78228000E-03	-2.10739000E-03	-1.86089000E-03
					 1.95929000E-03	-1.94040000E-03	-1.88659000E-03
					 4.83097000E-04	 1.75822000E-07	-4.17259000E-07
					 1.79949000E-03	 8.40309000E-07	-2.53678000E-06
					 1.58681000E-03	-1.42070000E-04	 5.59464000E-04
					 1.59172000E-03	 3.24963000E-07	 2.37852000E-07
					 1.58592000E-03	 1.42782000E-04	-5.62938000E-04
					 1.37588000E-03	-1.49864000E-07	-1.78924000E-06