<?xml version="1.0"?>
<VTKFile type="UnstructuredGrid" version="0.1" byte_order="LittleEndian">
	<UnstructuredGrid>
		<Piece NumberOfPoints="261" NumberOfCells="32">
			<Points>
				<DataArray type="Float64" NumberOfComponents="3" format="ascii">
					 0.00000000E+00	 0.00000000E+00	 0.00000000E+00
					 1.00000000E+00	 0.00000000E+00	 0.00000000E+00
					 1.00000000E+00	 1.00000000E+00	 0.00000000E+00
					 0.00000000E+00	 1.00000000E+00	 0.00000000E+00
					 0.00000000E+00	 0.00000000E+00	 8.00000000E+00
					 1.00000000E+00	 0.00000000E+00	 8.00000000E+00
					 1.00000000E+00	 1.00000000E+00	 8.00000000E+00
					 0.00000000E+00	 1.00000000E+00	 8.00000000E+00
					 2.50000000E-01	 0.00000000E+00	 0.00000000E+00
					 5.00000000E-01	 0.00000000E+00	 0.00000000E+00
					 7.50000000E-01	 0.00000000E+00	 0.00000000E+00
					 1.00000000E+00	 2.50000000E-01	 0.00000000E+00
					 1.00000000E+00	 5.00000000E-01	 0.00000000E+00
					 1.00000000E+00	 7.50000000E-01	 0.00000000E+00
					 7.50000000E-01	 1.00000000E+00	 0.00000000E+00
					 5.00000000E-01	 1.00000000E+00	 0.00000000E+00
					 2.50000000E-01	 1.00000000E+00	 0.00000000E+00
					 0.00000000E+00	 7.50000000E-01	 0.00000000E+00
					 0.00000000E+00	 5.00000000E-01	 0.00000000E+00
					 0.00000000E+00	 2.50000000E-01	 0.00000000E+00
					 2.50000000E-01	 0.00000000E+00	 8.00000000E+00
					 5.00000000E-01	 0.00000000E+00	 8.00000000E+00
					 7.50000000E-01	 0.00000000E+00	 8.00000000E+00
					 1.00000000E+00	 2.50000000E-01	 8.00000000E+00
					 1.00000000E+00	 5.00000000E-01	 8.00000000E+00
					 1.00000000E+00	 7.50000000E-01	 8.00000000E+00
					 7.50000000E-01	 1.00000000E+00	 8.00000000E+00
					 5.00000000E-01	 1.00000000E+00	 8.00000000E+00
					 2.50000000E-01	 1.00000000E+00	 8.00000000E+00
					 0.00000000E+00	 7.50000000E-01	 8.00000000E+00
					 0.00000000E+00	 5.00000000E-01	 8.00000000E+00
					 0.00000000E+00	 2.50000000E-01	 8.00000000E+00
					 1.00000000E+00	 0.00000000E+00	 5.00000000E-01
					 1.00000000E+00	 0.00000000E+00	 1.00000000E+00
					 1.00000000E+00	 0.00000000E+00	 1.50000000E+00
					 1.00000000E+00	 0.00000000E+00	 2.00000000E+00
					 1.00000000E+00	 0.00000000E+00	 2.50000000E+00
					 1.00000000E+00	 0.00000000E+00	 3.00000000E+00
					 1.00000000E+00	 0.00000000E+00	 3.50000000E+00
					 1.00000000E+00	 0.00000000E+00	 4.00000000E+00
					 1.00000000E+00	 0.00000000E+00	 4.50000000E+00
					 1.00000000E+00	 0.00000000E+00	 5.00000000E+00
					 1.00000000E+00	 0.00000000E+00	 5.50000000E+00
					 1.00000000E+00	 0.00000000E+00	 6.00000000E+00
					 1.00000000E+00	 0.00000000E+00	 6.50000000E+00
					 1.00000000E+00	 0.00000000E+00	 7.00000000E+00
					 1.00000000E+00	 0.00000000E+00	 7.50000000E+00
					 0.00000000E+00	 0.00000000E+00	 7.50000000E+00
					 0.00000000E+00	 0.00000000E+00	 7.00000000E+00
					 0.00000000E+00	 0.00000000E+00	 6.50000000E+00
					 0.00000000E+00	 0.00000000E+00	 6.00000000E+00
					 0.00000000E+00	 0.00000000E+00	 5.50000000E+00
					 0.00000000E+00	 0.00000000E+00	 5.00000000E+00
					 0.00000000E+00	 0.00000000E+00	 4.50000000E+00
					 0.00000000E+00	 0.00000000E+00	 4.00000000E+00
					 0.00000000E+00	 0.00000000E+00	 3.50000000E+00
					 0.00000000E+00	 0.00000000E+00	 3.00000000E+00
					 0.00000000E+00	 0.00000000E+00	 2.50000000E+00
					 0.00000000E+00	 0.00000000E+00	 2.00000000E+00
					 0.00000000E+00	 0.00000000E+00	 1.50000000E+00
					 0.00000000E+00	 0.00000000E+00	 1.00000000E+00
					 0.00000000E+00	 0.00000000E+00	 5.00000000E-01
					 1.00000000E+00	 1.00000000E+00	 5.00000000E-01
					 1.00000000E+00	 1.00000000E+00	 1.00000000E+00
					 1.00000000E+00	 1.00000000E+00	 1.50000000E+00
					 1.00000000E+00	 1.00000000E+00	 2.00000000E+00
					 1.00000000E+00	 1.00000000E+00	 2.50000000E+00
					 1.00000000E+00	 1.00000000E+00	 3.00000000E+00
					 1.00000000E+00	 1.00000000E+00	 3.50000000E+00
					 1.00000000E+00	 1.00000000E+00	 4.00000000E+00
					 1.00000000E+00	 1.00000000E+00	 4.50000000E+00
					 1.00000000E+00	 1.00000000E+00	 5.00000000E+00
					 1.00000000E+00	 1.00000000E+00	 5.50000000E+00
					 1.00000000E+00	 1.00000000E+00	 6.00000000E+00
					 1.00000000E+00	 1.00000000E+00	 6.50000000E+00
					 1.00000000E+00	 1.00000000E+00	 7.00000000E+00
					 1.00000000E+00	 1.00000000E+00	 7.50000000E+00
					 0.00000000E+00	 1.00000000E+00	 5.00000000E-01
					 0.00000000E+00	 1.00000000E+00	 1.00000000E+00
					 0.00000000E+00	 1.00000000E+00	 1.50000000E+00
					 0.00000000E+00	 1.00000000E+00	 2.00000000E+00
					 0.00000000E+00	 1.00000000E+00	 2.50000000E+00
					 0.00000000E+00	 1.00000000E+00	 3.00000000E+00
					 0.00000000E+00	 1.00000000E+00	 3.50000000E+00
					 0.00000000E+00	 1.00000000E+00	 4.00000000E+00
					 0.00000000E+00	 1.00000000E+00	 4.50000000E+00
					 0.00000000E+00	 1.00000000E+00	 5.00000000E+00
					 0.00000000E+00	 1.00000000E+00	 5.50000000E+00
					 0.00000000E+00	 1.00000000E+00	 6.00000000E+00
					 0.00000000E+00	 1.00000000E+00	 6.50000000E+00
					 0.00000000E+00	 1.00000000E+00	 7.00000000E+00
					 0.00000000E+00	 1.00000000E+00	 7.50000000E+00
					 5.00000000E-01	 2.50000000E-01	 0.00000000E+00
					 2.50000000E-01	 5.00000000E-01	 0.00000000E+00
					 5.00000000E-01	 5.00000000E-01	 0.00000000E+00
					 7.50000000E-01	 5.00000000E-01	 0.00000000E+00
					 5.00000000E-01	 7.50000000E-01	 0.00000000E+00
					 5.00000000E-01	 2.50000000E-01	 8.00000000E+00
					 2.50000000E-01	 5.00000000E-01	 8.00000000E+00
					 5.00000000E-01	 5.00000000E-01	 8.00000000E+00
					 7.50000000E-01	 5.00000000E-01	 8.00000000E+00
					 5.00000000E-01	 7.50000000E-01	 8.00000000E+00
					 5.00000000E-01	 0.00000000E+00	 5.00000000E-01
					 2.50000000E-01	 0.00000000E+00	 1.00000000E+00
					 5.00000000E-01	 0.00000000E+00	 1.00000000E+00
					 7.50000000E-01	 0.00000000E+00	 1.00000000E+00
					 5.00000000E-01	 0.00000000E+00	 1.50000000E+00
					 2.50000000E-01	 0.00000000E+00	 2.00000000E+00
					 5.00000000E-01	 0.00000000E+00	 2.00000000E+00
					 7.50000000E-01	 0.00000000E+00	 2.00000000E+00
					 5.00000000E-01	 0.00000000E+00	 2.50000000E+00
					 2.50000000E-01	 0.00000000E+00	 3.00000000E+00
					 5.00000000E-01	 0.00000000E+00	 3.00000000E+00
					 7.50000000E-01	 0.00000000E+00	 3.00000000E+00
					 5.00000000E-01	 0.00000000E+00	 3.50000000E+00
					 2.50000000E-01	 0.00000000E+00	 4.00000000E+00
					 5.00000000E-01	 0.00000000E+00	 4.00000000E+00
					 7.50000000E-01	 0.00000000E+00	 4.00000000E+00
					 5.00000000E-01	 0.00000000E+00	 4.50000000E+00
					 2.50000000E-01	 0.00000000E+00	 5.00000000E+00
					 5.00000000E-01	 0.00000000E+00	 5.00000000E+00
					 7.50000000E-01	 0.00000000E+00	 5.00000000E+00
					 5.00000000E-01	 0.00000000E+00	 5.50000000E+00
					 2.50000000E-01	 0.00000000E+00	 6.00000000E+00
					 5.00000000E-01	 0.00000000E+00	 6.00000000E+00
					 7.50000000E-01	 0.00000000E+00	 6.00000000E+00
					 5.00000000E-01	 0.00000000E+00	 6.50000000E+00
					 2.50000000E-01	 0.00000000E+00	 7.00000000E+00
					 5.00000000E-01	 0.00000000E+00	 7.00000000E+00
					 7.50000000E-01	 0.00000000E+00	 7.00000000E+00
					 5.00000000E-01	 0.00000000E+00	 7.50000000E+00
					 1.00000000E+00	 5.00000000E-01	 5.00000000E-01
					 1.00000000E+00	 2.50000000E-01	 1.00000000E+00
					 1.00000000E+00	 5.00000000E-01	 1.00000000E+00
					 1.00000000E+00	 7.50000000E-01	 1.00000000E+00
					 1.00000000E+00	 5.00000000E-01	 1.50000000E+00
					 1.00000000E+00	 2.50000000E-01	 2.00000000E+00
					 1.00000000E+00	 5.00000000E-01	 2.00000000E+00
					 1.00000000E+00	 7.50000000E-01	 2.00000000E+00
					 1.00000000E+00	 5.00000000E-01	 2.50000000E+00
					 1.00000000E+00	 2.50000000E-01	 3.00000000E+00
					 1.00000000E+00	 5.00000000E-01	 3.00000000E+00
					 1.00000000E+00	 7.50000000E-01	 3.00000000E+00
					 1.00000000E+00	 5.00000000E-01	 3.50000000E+00
					 1.00000000E+00	 2.50000000E-01	 4.00000000E+00
					 1.00000000E+00	 5.00000000E-01	 4.00000000E+00
					 1.00000000E+00	 7.50000000E-01	 4.00000000E+00
					 1.00000000E+00	 5.00000000E-01	 4.50000000E+00
					 1.00000000E+00	 2.50000000E-01	 5.00000000E+00
					 1.00000000E+00	 5.00000000E-01	 5.00000000E+00
					 1.00000000E+00	 7.50000000E-01	 5.00000000E+00
					 1.00000000E+00	 5.00000000E-01	 5.50000000E+00
					 1.00000000E+00	 2.50000000E-01	 6.00000000E+00
					 1.00000000E+00	 5.00000000E-01	 6.00000000E+00
					 1.00000000E+00	 7.50000000E-01	 6.00000000E+00
					 1.00000000E+00	 5.00000000E-01	 6.50000000E+00
					 1.00000000E+00	 2.50000000E-01	 7.00000000E+00
					 1.00000000E+00	 5.00000000E-01	 7.00000000E+00
					 1.00000000E+00	 7.50000000E-01	 7.00000000E+00
					 1.00000000E+00	 5.00000000E-01	 7.50000000E+00
					 5.00000000E-01	 1.00000000E+00	 5.00000000E-01
					 7.50000000E-01	 1.00000000E+00	 1.00000000E+00
					 5.00000000E-01	 1.00000000E+00	 1.00000000E+00
					 2.50000000E-01	 1.00000000E+00	 1.00000000E+00
					 5.00000000E-01	 1.00000000E+00	 1.50000000E+00
					 7.50000000E-01	 1.00000000E+00	 2.00000000E+00
					 5.00000000E-01	 1.00000000E+00	 2.00000000E+00
					 2.50000000E-01	 1.00000000E+00	 2.00000000E+00
					 5.00000000E-01	 1.00000000E+00	 2.50000000E+00
					 7.50000000E-01	 1.00000000E+00	 3.00000000E+00
					 5.00000000E-01	 1.00000000E+00	 3.00000000E+00
					 2.50000000E-01	 1.00000000E+00	 3.00000000E+00
					 5.00000000E-01	 1.00000000E+00	 3.50000000E+00
					 7.50000000E-01	 1.00000000E+00	 4.00000000E+00
					 5.00000000E-01	 1.00000000E+00	 4.00000000E+00
					 2.50000000E-01	 1.00000000E+00	 4.00000000E+00
					 5.00000000E-01	 1.00000000E+00	 4.50000000E+00
					 7.50000000E-01	 1.00000000E+00	 5.00000000E+00
					 5.00000000E-01	 1.00000000E+00	 5.00000000E+00
					 2.50000000E-01	 1.00000000E+00	 5.00000000E+00
					 5.00000000E-01	 1.00000000E+00	 5.50000000E+00
					 7.50000000E-01	 1.00000000E+00	 6.00000000E+00
					 5.00000000E-01	 1.00000000E+00	 6.00000000E+00
					 2.50000000E-01	 1.00000000E+00	 6.00000000E+00
					 5.00000000E-01	 1.00000000E+00	 6.50000000E+00
					 7.50000000E-01	 1.00000000E+00	 7.00000000E+00
					 5.00000000E-01	 1.00000000E+00	 7.00000000E+00
					 2.50000000E-01	 1.00000000E+00	 7.00000000E+00
					 5.00000000E-01	 1.00000000E+00	 7.50000000E+00
					 0.00000000E+00	 5.00000000E-01	 5.00000000E-01
					 0.00000000E+00	 7.50000000E-01	 1.00000000E+00
					 0.00000000E+00	 5.00000000E-01	 1.00000000E+00
					 0.00000000E+00	 2.50000000E-01	 1.00000000E+00
					 0.00000000E+00	 5.00000000E-01	 1.50000000E+00
					 0.00000000E+00	 7.50000000E-01	 2.00000000E+00
					 0.00000000E+00	 5.00000000E-01	 2.00000000E+00
					 0.00000000E+00	 2.50000000E-01	 2.00000000E+00
					 0.00000000E+00	 5.00000000E-01	 2.50000000E+00
					 0.00000000E+00	 7.50000000E-01	 3.00000000E+00
					 0.00000000E+00	 5.00000000E-01	 3.00000000E+00
					 0.00000000E+00	 2.50000000E-01	 3.00000000E+00
					 0.00000000E+00	 5.00000000E-01	 3.50000000E+00
					 0.00000000E+00	 7.50000000E-01	 4.00000000E+00
					 0.00000000E+00	 5.00000000E-01	 4.00000000E+00
					 0.00000000E+00	 2.50000000E-01	 4.00000000E+00
					 0.00000000E+00	 5.00000000E-01	 4.50000000E+00
					 0.00000000E+00	 7.50000000E-01	 5.00000000E+00
					 0.00000000E+00	 5.00000000E-01	 5.00000000E+00
					 0.00000000E+00	 2.50000000E-01	 5.00000000E+00
					 0.00000000E+00	 5.00000000E-01	 5.50000000E+00
					 0.00000000E+00	 7.50000000E-01	 6.00000000E+00
					 0.00000000E+00	 5.00000000E-01	 6.00000000E+00
					 0.00000000E+00	 2.50000000E-01	 6.00000000E+00
					 0.00000000E+00	 5.00000000E-01	 6.50000000E+00
					 0.00000000E+00	 7.50000000E-01	 7.00000000E+00
					 0.00000000E+00	 5.00000000E-01	 7.00000000E+00
					 0.00000000E+00	 2.50000000E-01	 7.00000000E+00
					 0.00000000E+00	 5.00000000E-01	 7.50000000E+00
					 5.00000000E-01	 5.00000000E-01	 5.00000000E-01
					 5.00000000E-01	 2.50000000E-01	 1.00000000E+00
					 2.50000000E-01	 5.00000000E-01	 1.00000000E+00
					 5.00000000E-01	 5.00000000E-01	 1.00000000E+00
					 7.50000000E-01	 5.00000000E-01	 1.00000000E+00
					 5.00000000E-01	 7.50000000E-01	 1.00000000E+00
					 5.00000000E-01	 5.00000000E-01	 1.50000000E+00
					 5.00000000E-01	 2.50000000E-01	 2.00000000E+00
					 2.50000000E-01	 5.00000000E-01	 2.00000000E+00
					 5.00000000E-01	 5.00000000E-01	 2.00000000E+00
					 7.50000000E-01	 5.00000000E-01	 2.00000000E+00
					 5.00000000E-01	 7.50000000E-01	 2.00000000E+00
					 5.00000000E-01	 5.00000000E-01	 2.50000000E+00
					 5.00000000E-01	 2.50000000E-01	 3.00000000E+00
					 2.50000000E-01	 5.00000000E-01	 3.00000000E+00
					 5.00000000E-01	 5.00000000E-01	 3.00000000E+00
					 7.50000000E-01	 5.00000000E-01	 3.00000000E+00
					 5.00000000E-01	 7.50000000E-01	 3.00000000E+00
					 5.00000000E-01	 5.00000000E-01	 3.50000000E+00
					 5.00000000E-01	 2.50000000E-01	 4.00000000E+00
					 2.50000000E-01	 5.00000000E-01	 4.00000000E+00
					 5.00000000E-01	 5.00000000E-01	 4.00000000E+00
					 7.50000000E-01	 5.00000000E-01	 4.00000000E+00
					 5.00000000E-01	 7.50000000E-01	 4.00000000E+00
					 5.00000000E-01	 5.00000000E-01	 4.50000000E+00
					 5.00000000E-01	 2.50000000E-01	 5.00000000E+00
					 2.50000000E-01	 5.00000000E-01	 5.00000000E+00
					 5.00000000E-01	 5.00000000E-01	 5.00000000E+00
					 7.50000000E-01	 5.00000000E-01	 5.00000000E+00
					 5.00000000E-01	 7.50000000E-01	 5.00000000E+00
					 5.00000000E-01	 5.00000000E-01	 5.50000000E+00
					 5.00000000E-01	 2.50000000E-01	 6.00000000E+00
					 2.50000000E-01	 5.00000000E-01	 6.00000000E+00
					 5.00000000E-01	 5.00000000E-01	 6.00000000E+00
					 7.50000000E-01	 5.00000000E-01	 6.00000000E+00
					 5.00000000E-01	 7.50000000E-01	 6.00000000E+00
					 5.00000000E-01	 5.00000000E-01	 6.50000000E+00
					 5.00000000E-01	 2.50000000E-01	 7.00000000E+00
					 2.50000000E-01	 5.00000000E-01	 7.00000000E+00
					 5.00000000E-01	 5.00000000E-01	 7.00000000E+00
					 7.50000000E-01	 5.00000000E-01	 7.00000000E+00
					 5.00000000E-01	 7.50000000E-01	 7.00000000E+00
					 5.00000000E-01	 5.00000000E-01	 7.50000000E+00

				</DataArray>
			</Points>
			<Cells>
				<DataArray type="Int32" Name="connectivity" format="ascii">
					0 9 94 18 60 104 221 191 8 92 93 19 103 219 220 192 61 102 218 189 9 1 12 94 104 33 133 221 10 11 95 92 105 132 222 219 102 32 131 218 18 94 15 3 191 221 162 78 93 96 16 17 220 223 163 190 189 218 160 77 94 12 2 15 221 133 63 162 95 13 14 96 222 134 161 223 218 131 62 160 60 104 221 191 58 108 227 195 103 219 220 192 107 225 226 196 59 106 224 193 104 33 133 221 108 35 137 227 105 132 222 219 109 136 228 225 106 34 135 224 191 221 162 78 195 227 166 80 220 223 163 190 226 229 167 194 193 224 164 79 221 133 63 162 227 137 65 166 222 134 161 223 228 138 165 229 224 135 64 164 58 108 227 195 56 112 233 199 107 225 226 196 111 231 232 200 57 110 230 197 108 35 137 227 112 37 141 233 109 136 228 225 113 140 234 231 110 36 139 230 195 227 166 80 199 233 170 82 226 229 167 194 232 235 171 198 197 230 168 81 227 137 65 166 233 141 67 170 228 138 165 229 234 142 169 235 230 139 66 168 56 112 233 199 54 116 239 203 111 231 232 200 115 237 238 204 55 114 236 201 112 37 141 233 116 39 145 239 113 140 234 231 117 144 240 237 114 38 143 236 199 233 170 82 203 239 174 84 232 235 171 198 238 241 175 202 201 236 172 83 233 141 67 170 239 145 69 174 234 142 169 235 240 146 173 241 236 143 68 172 54 116 239 203 52 120 245 207 115 237 238 204 119 243 244 208 53 118 242 205 116 39 145 239 120 41 149 245 117 144 240 237 121 148 246 243 118 40 147 242 203 239 174 84 207 245 178 86 238 241 175 202 244 247 179 206 205 242 176 85 239 145 69 174 245 149 71 178 240 146 173 241 246 150 177 247 242 147 70 176 52 120 245 207 50 124 251 211 119 243 244 208 123 249 250 212 51 122 248 209 120 41 149 245 124 43 153 251 121 148 246 243 125 152 252 249 122 42 151 248 207 245 178 86 211 251 182 88 244 247 179 206 250 253 183 210 209 248 180 87 245 149 71 178 251 153 73 182 246 150 177 247 252 154 181 253 248 151 72 180 50 124 251 211 48 128 257 215 123 249 250 212 127 255 256 216 49 126 254 213 124 43 153 251 128 45 157 257 125 152 252 249 129 156 258 255 126 44 155 254 211 251 182 88 215 257 186 90 250 253 183 210 256 259 187 214 213 254 184 89 251 153 73 182 257 157 75 186 252 154 181 253 258 158 185 259 254 155 74 184 48 128 257 215 4 21 99 30 127 255 256 216 20 97 98 31 47 130 260 217 128 45 157 257 21 5 24 99 129 156 258 255 22 23 100 97 130 46 159 260 215 257 186 90 30 99 27 7 256 259 187 214 98 101 28 29 217 260 188 91 257 157 75 186 99 24 6 27 258 158 185 259 100 25 26 101 260 159 76 188 
				</DataArray>
				<DataArray type="Int32" Name="offsets" format="ascii">
					20 40 60 80 100 120 140 160 180 200 220 240 260 280 300 320 340 360 380 400 420 440 460 480 500 520 540 560 580 600 620 640 
				</DataArray>
				<DataArray type="UInt8" Name="types" format="ascii">
					25 25 25 25 25 25 25 25 25 25 25 25 25 25 25 25 25 25 25 25 25 25 25 25 25 25 25 25 25 25 25 25 
				</DataArray>
			</Cells>
			<PointData>
				<DataArray type="Float32" Name="U" NumberOfComponents="3" ComponentName0="D1" ComponentName1="D2" ComponentName2="D3" format="ascii">
					 0.00000000E+00	 0.00000000E+00	 0.00000000E+00
					 0.00000000E+00	 0.00000000E+00	 0.00000000E+00
					 0.00000000E+00	 0.00000000E+00	 0.00000000E+00
					 0.00000000E+00	 0.00000000E+00	 0.00000000E+00
					 1.42841000E-05	 9.82913000E-02	 8.74437000E-03
					-1.45934000E-05	 9.82914000E-02	 8.74487000E-03
					 1.42214000E-05	 9.81108000E-02	-1.02110000E-02
					-1.40367000E-05	 9.81116000E-02	-1.02113000E-02
					 0.00000000E+00	 0.00000000E+00	 0.00000000E+00
					 0.00000000E+00	 0.00000000E+00	 0.00000000E+00
					 0.00000000E+00	 0.00000000E+00	 0.00000000E+00
					 0.00000000E+00	 0.00000000E+00	 0.00000000E+00
					 0.00000000E+00	 0.00000000E+00	 0.00000000E+00
					 0.00000000E+00	 0.00000000E+00	 0.00000000E+00
					 0.00000000E+00	 0.00000000E+00	 0.00000000E+00
					 0.00000000E+00	 0.00000000E+00	 0.00000000E+00
					 0.00000000E+00	 0.00000000E+00	 0.00000000E+00
					 0.00000000E+00	 0.00000000E+00	 0.00000000E+00
					 0.00000000E+00	 0.00000000E+00	 0.00000000E+00
					 0.00000000E+00	 0.00000000E+00	 0.00000000E+00
					 1.30798000E-05	 9.83043000E-02	 8.74644000E-03
					-1.40335000E-07	 9.82552000E-02	 8.74437000E-03
					-1.33562000E-05	 9.83045000E-02	 8.74677000E-03
					 1.51182000E-06	 9.82312000E-02	 3.99267000E-03
					 4.56149000E-07	 9.81561000E-02	-7.33198000E-04
					-1.05268000E-06	 9.81415000E-02	-5.45855000E-03
					 1.31362000E-05	 9.81245000E-02	-1.02132000E-02
					 4.76608000E-08	 9.80765000E-02	-1.02108000E-02
					-1.29867000E-05	 9.81250000E-02	-1.02134000E-02
					 1.34627000E-06	 9.81417000E-02	-5.45816000E-03
					-3.40005000E-07	 9.81556000E-02	-7.32969000E-04
					-1.60598000E-06	 9.82310000E-02	 3.99243000E-03
					-3.15815000E-04	 5.07219000E-04	 9.34236000E-04
					-2.44354000E-04	 1.88819000E-03	 1.90353000E-03
					-2.80296000E-04	 4.35825000E-03	 2.84495000E-03
					-2.53637000E-04	 7.68986000E-03	 3.73252000E-03
					-2.43266000E-04	 1.19461000E-02	 4.54634000E-03
					-2.22209000E-04	 1.69757000E-02	 5.29861000E-03
					-2.08021000E-04	 2.27665000E-02	 5.98348000E-03
					-1.91750000E-04	 2.92383000E-02	 6.60908000E-03
					-1.75505000E-04	 3.63584000E-02	 7.17118000E-03
					-1.54434000E-04	 4.40732000E-02	 7.66453000E-03
					-1.31264000E-04	 5.23001000E-02	 8.07240000E-03
					-1.06124000E-04	 6.09805000E-02	 8.39814000E-03
					-8.35567000E-05	 7.00009000E-02	 8.62652000E-03
					-5.02108000E-05	 7.93306000E-02	 8.77194000E-03
					-3.05248000E-05	 8.87607000E-02	 8.80095000E-03
					 3.03706000E-05	 8.87608000E-02	 8.80072000E-03
					 5.01699000E-05	 7.93302000E-02	 8.77171000E-03
					 8.34900000E-05	 7.00008000E-02	 8.62623000E-03
					 1.05928000E-04	 6.09808000E-02	 8.39808000E-03
					 1.31151000E-04	 5.23002000E-02	 8.07238000E-03
					 1.54564000E-04	 4.40731000E-02	 7.66455000E-03
					 1.75745000E-04	 3.63582000E-02	 7.17118000E-03
					 1.91905000E-04	 2.92382000E-02	 6.60908000E-03
					 2.07950000E-04	 2.27665000E-02	 5.98347000E-03
					 2.21920000E-04	 1.69760000E-02	 5.29861000E-03
					 2.42795000E-04	 1.19466000E-02	 4.54634000E-03
					 2.53092000E-04	 7.69042000E-03	 3.73252000E-03
					 2.79771000E-04	 4.35877000E-03	 2.84495000E-03
					 2.43967000E-04	 1.88858000E-03	 1.90353000E-03
					 3.15621000E-04	 5.07410000E-04	 9.34234000E-04
					 3.15923000E-04	 5.04330000E-04	-9.35115000E-04
					 2.43979000E-04	 1.87963000E-03	-1.90895000E-03
					 2.80098000E-04	 4.34094000E-03	-2.86272000E-03
					 2.53369000E-04	 7.66040000E-03	-3.77261000E-03
					 2.42954000E-04	 1.19032000E-02	-4.62217000E-03
					 2.21821000E-04	 1.69172000E-02	-5.42437000E-03
					 2.07631000E-04	 2.26917000E-02	-6.17533000E-03
					 1.91293000E-04	 2.91464000E-02	-6.88360000E-03
					 1.75069000E-04	 3.62493000E-02	-7.54570000E-03
					 1.53918000E-04	 4.39472000E-02	-8.15662000E-03
					 1.30823000E-04	 5.21588000E-02	-8.69824000E-03
					 1.05511000E-04	 6.08251000E-02	-9.17311000E-03
					 8.33402000E-05	 6.98351000E-02	-9.56236000E-03
					 4.98304000E-05	 7.91552000E-02	-9.87981000E-03
					 2.99061000E-05	 8.85828000E-02	-1.00865000E-02
					-3.15735000E-04	 5.04523000E-04	-9.35120000E-04
					-2.43599000E-04	 1.88002000E-03	-1.90896000E-03
					-2.79578000E-04	 4.34145000E-03	-2.86272000E-03
					-2.52810000E-04	 7.66096000E-03	-3.77261000E-03
					-2.42457000E-04	 1.19036000E-02	-4.62217000E-03
					-2.21503000E-04	 1.69175000E-02	-5.42438000E-03
					-2.07546000E-04	 2.26917000E-02	-6.17533000E-03
					-1.91439000E-04	 2.91463000E-02	-6.88360000E-03
					-1.75305000E-04	 3.62491000E-02	-7.54569000E-03
					-1.54039000E-04	 4.39471000E-02	-8.15664000E-03
					-1.30692000E-04	 5.21589000E-02	-8.69827000E-03
					-1.05285000E-04	 6.08256000E-02	-9.17313000E-03
					-8.32092000E-05	 6.98350000E-02	-9.56216000E-03
					-4.98368000E-05	 7.91555000E-02	-9.87975000E-03
					-3.01112000E-05	 8.85821000E-02	-1.00865000E-02
					 0.00000000E+00	 0.00000000E+00	 0.00000000E+00
					 0.00000000E+00	 0.00000000E+00	 0.00000000E+00
					 0.00000000E+00	 0.00000000E+00	 0.00000000E+00
					 0.00000000E+00	 0.00000000E+00	 0.00000000E+00
					 0.00000000E+00	 0.00000000E+00	 0.00000000E+00
					-6.52254000E-08	 9.83286000E-02	 4.01671000E-03
					-4.88784000E-08	 9.82364000E-02	-7.33008000E-04
					 2.94480000E-08	 9.84249000E-02	-7.33449000E-04
					 1.33281000E-07	 9.82367000E-02	-7.33138000E-04
					 2.93224000E-08	 9.82384000E-02	-5.48465000E-03
					-1.01552000E-07	 6.43283000E-04	 9.05157000E-04
					 1.20675000E-04	 2.00421000E-03	 1.91248000E-03
					-1.94499000E-07	 2.03083000E-03	 1.92650000E-03
					-1.21063000E-04	 2.00402000E-03	 1.91244000E-03
					-2.56650000E-07	 4.49250000E-03	 2.84395000E-03
					 1.26402000E-04	 7.78817000E-03	 3.73800000E-03
					-2.72959000E-07	 7.82515000E-03	 3.73839000E-03
					-1.26947000E-04	 7.78789000E-03	 3.73801000E-03
					-2.29786000E-07	 1.20656000E-02	 4.54862000E-03
					 1.10763000E-04	 1.70610000E-02	 5.30166000E-03
					-1.47759000E-07	 1.70890000E-02	 5.30141000E-03
					-1.11055000E-04	 1.70608000E-02	 5.30170000E-03
					-3.25641000E-08	 2.28706000E-02	 5.98568000E-03
					 9.60055000E-05	 2.93091000E-02	 6.61121000E-03
					 6.55863000E-08	 2.93317000E-02	 6.61038000E-03
					-9.58614000E-05	 2.93092000E-02	 6.61125000E-03
					 1.16579000E-07	 3.64483000E-02	 7.17458000E-03
					 7.71918000E-05	 4.41259000E-02	 7.66788000E-03
					 5.69498000E-08	 4.41408000E-02	 7.66583000E-03
					-7.70712000E-05	 4.41259000E-02	 7.66782000E-03
					-4.39457000E-08	 5.23730000E-02	 8.07739000E-03
					 5.32509000E-05	 6.10124000E-02	 8.39919000E-03
					-1.24928000E-07	 6.10126000E-02	 8.39522000E-03
					-5.34680000E-05	 6.10123000E-02	 8.39925000E-03
					 1.46095000E-08	 7.00562000E-02	 8.63871000E-03
					 2.43383000E-05	 7.93165000E-02	 8.77348000E-03
					-4.77351000E-09	 7.93056000E-02	 8.76776000E-03
					-2.43676000E-05	 7.93168000E-02	 8.77367000E-03
					-1.72534000E-08	 8.88173000E-02	 8.80954000E-03
					 2.63808000E-07	 3.10568000E-04	-3.37803000E-07
					-1.23063000E-04	 1.80241000E-03	 9.48907000E-04
					 2.92924000E-07	 1.80920000E-03	-2.27821000E-06
					 1.23267000E-04	 1.79800000E-03	-9.53735000E-04
					 2.71669000E-07	 4.19070000E-03	-7.91763000E-06
					-1.26379000E-04	 7.60326000E-03	 1.84599000E-03
					 1.84307000E-07	 7.57669000E-03	-1.91654000E-05
					 1.26483000E-04	 7.58863000E-03	-1.88462000E-03
					 1.05636000E-07	 1.17950000E-02	-3.66414000E-05
					-1.11179000E-04	 1.68819000E-02	 2.60996000E-03
					 5.19743000E-08	 1.68454000E-02	-6.17221000E-05
					 1.11081000E-04	 1.68528000E-02	-2.73397000E-03
					 1.98218000E-09	 2.26226000E-02	-9.45756000E-05
					-9.58124000E-05	 2.91444000E-02	 3.22845000E-03
					-4.39143000E-08	 2.90985000E-02	-1.35912000E-04
					 9.55707000E-05	 2.90987000E-02	-3.50094000E-03
					-9.71817000E-08	 3.62177000E-02	-1.85950000E-04
					-7.73900000E-05	 4.39799000E-02	 3.69835000E-03
					-1.06861000E-07	 4.39263000E-02	-2.44653000E-04
					 7.70373000E-05	 4.39173000E-02	-4.18840000E-03
					-1.61114000E-07	 5.21704000E-02	-3.11883000E-04
					-5.25705000E-05	 6.08948000E-02	 3.99315000E-03
					-1.19148000E-07	 6.08353000E-02	-3.86131000E-04
					 5.21662000E-05	 6.08176000E-02	-4.76626000E-03
					-3.61912000E-07	 6.98856000E-02	-4.67443000E-04
					-2.71639000E-05	 7.92343000E-02	 4.09597000E-03
					 1.10848000E-08	 7.91555000E-02	-5.52786000E-04
					 2.68644000E-05	 7.91471000E-02	-5.20244000E-03
					-3.51978000E-07	 8.87125000E-02	-6.43154000E-04
					 9.90446000E-08	 6.40403000E-04	-9.06451000E-04
					 1.21018000E-04	 1.99515000E-03	-1.91879000E-03
					 1.88986000E-07	 2.02208000E-03	-1.93318000E-03
					-1.20639000E-04	 1.99535000E-03	-1.91882000E-03
					 2.55916000E-07	 4.47491000E-03	-2.86331000E-03
					 1.26888000E-04	 7.75824000E-03	-3.77970000E-03
					 2.78928000E-07	 7.79562000E-03	-3.78063000E-03
					-1.26329000E-04	 7.75852000E-03	-3.77970000E-03
					 2.44653000E-07	 1.20224000E-02	-4.62671000E-03
					 1.10932000E-04	 1.70021000E-02	-5.42931000E-03
					 1.61548000E-07	 1.70303000E-02	-5.42963000E-03
					-1.10610000E-04	 1.70023000E-02	-5.42928000E-03
					 4.04817000E-08	 2.27956000E-02	-6.18012000E-03
					 9.56753000E-05	 2.92170000E-02	-6.88770000E-03
					-6.90859000E-08	 2.92396000E-02	-6.88743000E-03
					-9.58189000E-05	 2.92170000E-02	-6.88767000E-03
					-1.10475000E-07	 3.63390000E-02	-7.55182000E-03
					 7.68412000E-05	 4.39998000E-02	-8.16163000E-03
					-6.07271000E-08	 4.40148000E-02	-8.16008000E-03
					-7.69611000E-05	 4.39998000E-02	-8.16168000E-03
					 6.52555000E-08	 5.22314000E-02	-8.70575000E-03
					 5.31625000E-05	 6.08572000E-02	-9.17522000E-03
					 9.56477000E-08	 6.08580000E-02	-9.17126000E-03
					-5.29601000E-05	 6.08574000E-02	-9.17522000E-03
					 4.81319000E-08	 6.98895000E-02	-9.57681000E-03
					 2.41454000E-05	 7.91424000E-02	-9.88178000E-03
					-8.40900000E-08	 7.91325000E-02	-9.87569000E-03
					-2.42282000E-05	 7.91425000E-02	-9.88169000E-03
					-1.47258000E-08	 8.86377000E-02	-1.00963000E-02
					-2.66572000E-07	 3.10769000E-04	-3.38196000E-07
					-1.23080000E-04	 1.79839000E-03	-9.53701000E-04
					-2.97809000E-07	 1.80958000E-03	-2.27790000E-06
					 1.22867000E-04	 1.80280000E-03	 9.48871000E-04
					-2.72657000E-07	 4.19122000E-03	-7.91538000E-06
					-1.26202000E-04	 7.58918000E-03	-1.88462000E-03
					-1.79683000E-07	 7.57723000E-03	-1.91625000E-05
					 1.26110000E-04	 7.60381000E-03	 1.84600000E-03
					-9.23656000E-08	 1.17955000E-02	-3.66425000E-05
					-1.10917000E-04	 1.68531000E-02	-2.73401000E-03
					-4.09830000E-08	 1.68457000E-02	-6.17278000E-05
					 1.11041000E-04	 1.68822000E-02	 2.60999000E-03
					 6.99816000E-09	 2.26227000E-02	-9.45821000E-05
					-9.56443000E-05	 2.90985000E-02	-3.50098000E-03
					 4.20811000E-08	 2.90984000E-02	-1.35918000E-04
					 9.58857000E-05	 2.91443000E-02	 3.22849000E-03
					 9.87757000E-08	 3.62175000E-02	-1.85940000E-04
					-7.70948000E-05	 4.39171000E-02	-4.18836000E-03
					 1.08155000E-07	 4.39261000E-02	-2.44642000E-04
					 7.74570000E-05	 4.39798000E-02	 3.69830000E-03
					 1.80825000E-07	 5.21706000E-02	-3.11884000E-04
					-5.20609000E-05	 6.08179000E-02	-4.76627000E-03
					 1.17924000E-07	 6.08354000E-02	-3.86175000E-04
					 5.24703000E-05	 6.08950000E-02	 3.99312000E-03
					 3.19497000E-07	 6.98858000E-02	-4.67369000E-04
					-2.68432000E-05	 7.91469000E-02	-5.20241000E-03
					-9.25808000E-09	 7.91548000E-02	-5.52704000E-04
					 2.71206000E-05	 7.92338000E-02	 4.09577000E-03
					 3.92946000E-07	 8.87127000E-02	-6.43100000E-04
					-1.54646000E-09	 4.46504000E-04	-6.04040000E-07
					-9.83148000E-08	 1.93840000E-03	 9.56915000E-04
					-1.69446000E-07	 1.92090000E-03	-2.68018000E-06
					-2.14135000E-09	 1.94123000E-03	-2.80903000E-06
					 1.64784000E-07	 1.92071000E-03	-2.68032000E-06
					 9.34097000E-08	 1.93386000E-03	-9.62912000E-04
					 0.00000000E+00	 4.32862000E-03	-8.73615000E-06
					-1.34654000E-07	 7.73479000E-03	 1.85101000E-03
					-1.01361000E-07	 7.67050000E-03	-1.99282000E-05
					 3.60051000E-09	 7.70385000E-03	-2.01595000E-05
					 1.07400000E-07	 7.67023000E-03	-1.99289000E-05
					 1.41090000E-07	 7.72004000E-03	-1.89170000E-03
					 6.28093000E-09	 1.19168000E-02	-3.77957000E-05
					-6.99803000E-08	 1.69943000E-02	 2.61249000E-03
					-2.66552000E-08	 1.69300000E-02	-6.26458000E-05
					 8.15642000E-09	 1.69571000E-02	-6.29455000E-05
					 4.07919000E-08	 1.69299000E-02	-6.26434000E-05
					 8.44958000E-08	 1.69651000E-02	-2.73895000E-03
					 2.98867000E-09	 2.27260000E-02	-9.58525000E-05
					 3.53532000E-08	 2.92405000E-02	 3.23013000E-03
					 1.40854000E-08	 2.91716000E-02	-1.36940000E-04
					 3.12305000E-09	 2.91975000E-02	-1.37288000E-04
					-1.25473000E-08	 2.91717000E-02	-1.36938000E-04
					-3.27448000E-08	 2.91946000E-02	-3.50526000E-03