    1C
    1UUSER                                                              
    1UDATE              01.august.2019                                  
    1UTIME              09:27:24                                        
    1UHOST                                                              
    1UPGM               CalculiX                                        
    1UVERSION           Version 2.15                             
    1UCOMPILETIME       Fri 15 Mar 11:57:46 CET 2019                    
    1UDIR                                                               
    1UDBN                                                               
    1UMAT    1STEEL                                                     
    1UMAT    2STEELRED                                                  
    1UMAT    3I1                                                        
    2C                          1203                                     1
 -1         1 3.54900E+02 3.51442E+02 2.17314E-14
 -1         2 3.55450E+02 3.51442E+02 2.17650E-14
 -1         3 3.55454E+02 3.50516E+02 2.17653E-14
 -1         4 3.54908E+02 3.50574E+02 2.17318E-14
 -1         5 3.55175E+02 3.51442E+02 2.17482E-14
 -1         6 3.55452E+02 3.50979E+02 2.17652E-14
 -1         7 3.55181E+02 3.50545E+02 2.17486E-14
 -1         8 3.54904E+02 3.51008E+02 2.17316E-14
 -1         9 3.55458E+02 3.49591E+02 2.17655E-14
 -1        10 3.54915E+02 3.49706E+02 2.17323E-14
 -1        11 3.55456E+02 3.50053E+02 2.17654E-14
 -1        12 3.55187E+02 3.49649E+02 2.17489E-14
 -1        13 3.54912E+02 3.50140E+02 2.17321E-14
 -1        14 3.55462E+02 3.48665E+02 2.17658E-14
 -1        15 3.54923E+02 3.48839E+02 2.17328E-14
 -1        16 3.55460E+02 3.49128E+02 2.17656E-14
 -1        17 3.55193E+02 3.48752E+02 2.17493E-14
 -1        18 3.54919E+02 3.49273E+02 2.17325E-14
 -1        19 3.55466E+02 3.47739E+02 2.17660E-14
 -1        20 3.54931E+02 3.47971E+02 2.17333E-14
 -1        21 3.55464E+02 3.48202E+02 2.17659E-14
 -1        22 3.55199E+02 3.47856E+02 2.17497E-14
 -1        23 3.54927E+02 3.48405E+02 2.17330E-14
 -1        24 3.55915E+02 3.46744E+02 2.17935E-14
 -1        25 3.54939E+02 3.47103E+02 2.17337E-14
 -1        26 3.55672E+02 3.47233E+02 2.17786E-14
 -1        27 3.55388E+02 3.46909E+02 2.17612E-14
 -1        28 3.54935E+02 3.47537E+02 2.17335E-14
 -1        29 3.56074E+02 3.46045E+02 2.18032E-14
 -1        30 3.54947E+02 3.46236E+02 2.17342E-14
 -1        31 3.56070E+02 3.46430E+02 2.18030E-14
 -1        32 3.55511E+02 3.46143E+02 2.17688E-14
 -1        33 3.54943E+02 3.46669E+02 2.17340E-14
 -1        34 3.56078E+02 3.45272E+02 2.18035E-14
 -1        35 3.54954E+02 3.45368E+02 2.17347E-14
 -1        36 3.56076E+02 3.45658E+02 2.18034E-14
 -1        37 3.55516E+02 3.45321E+02 2.17691E-14
 -1        38 3.54950E+02 3.45802E+02 2.17344E-14
 -1        39 3.56081E+02 3.44500E+02 2.18037E-14
 -1        40 3.54962E+02 3.44500E+02 2.17352E-14
 -1        41 3.56079E+02 3.44886E+02 2.18035E-14
 -1        42 3.55522E+02 3.44500E+02 2.17694E-14
 -1        43 3.54958E+02 3.44934E+02 2.17349E-14
 -1        44 3.56000E+02 3.51442E+02 2.17987E-14
 -1        45 3.56000E+02 3.50456E+02 2.17987E-14
 -1        46 3.55725E+02 3.51442E+02 2.17819E-14
 -1        47 3.56000E+02 3.50949E+02 2.17987E-14
 -1        48 3.55727E+02 3.50487E+02 2.17820E-14
 -1        49 3.56000E+02 3.49471E+02 2.17987E-14
 -1        50 3.56000E+02 3.49964E+02 2.17987E-14
 -1        51 3.55729E+02 3.49531E+02 2.17821E-14
 -1        52 3.56000E+02 3.48486E+02 2.17987E-14
 -1        53 3.56000E+02 3.48978E+02 2.17987E-14
 -1        54 3.55731E+02 3.48576E+02 2.17822E-14
 -1        55 3.56000E+02 3.47500E+02 2.17987E-14
 -1        56 3.56000E+02 3.47993E+02 2.17987E-14
 -1        57 3.55733E+02 3.47620E+02 2.17824E-14
 -1        58 3.57200E+02 3.46500E+02 2.18722E-14
 -1        59 3.56600E+02 3.47000E+02 2.18355E-14
 -1        60 3.56519E+02 3.46607E+02 2.18305E-14
 -1        61 3.57200E+02 3.45833E+02 2.18722E-14
 -1        62 3.57200E+02 3.46167E+02 2.18722E-14
 -1        63 3.56637E+02 3.45941E+02 2.18377E-14
 -1        64 3.57200E+02 3.45167E+02 2.18722E-14
 -1        65 3.57200E+02 3.45500E+02 2.18722E-14
 -1        66 3.56639E+02 3.45221E+02 2.18378E-14
 -1        67 3.57200E+02 3.44500E+02 2.18722E-14
 -1        68 3.57200E+02 3.44833E+02 2.18722E-14
 -1        69 3.56641E+02 3.44500E+02 2.18380E-14
 -1        70 3.54182E+02 3.50574E+02 2.16874E-14
 -1        71 3.54175E+02 3.51442E+02 2.16870E-14
 -1        72 3.54545E+02 3.50574E+02 2.17096E-14
 -1        73 3.54178E+02 3.51008E+02 2.16871E-14
 -1        74 3.54538E+02 3.51442E+02 2.17092E-14
 -1        75 3.53456E+02 3.50574E+02 2.16429E-14
 -1        76 3.53450E+02 3.51442E+02 2.16426E-14
 -1        77 3.53819E+02 3.50574E+02 2.16652E-14
 -1        78 3.53453E+02 3.51008E+02 2.16428E-14
 -1        79 3.53812E+02 3.51442E+02 2.16647E-14
 -1        80 3.52730E+02 3.50574E+02 2.15985E-14
 -1        81 3.52725E+02 3.51442E+02 2.15982E-14
 -1        82 3.53093E+02 3.50574E+02 2.16207E-14
 -1        83 3.52727E+02 3.51008E+02 2.15983E-14
 -1        84 3.53087E+02 3.51442E+02 2.16203E-14
 -1        85 3.52004E+02 3.50574E+02 2.15540E-14
 -1        86 3.52000E+02 3.51442E+02 2.15538E-14
 -1        87 3.52367E+02 3.50574E+02 2.15763E-14
 -1        88 3.52002E+02 3.51008E+02 2.15539E-14
 -1        89 3.52362E+02 3.51442E+02 2.15760E-14
 -1        90 3.51278E+02 3.50574E+02 2.15096E-14
 -1        91 3.51275E+02 3.51442E+02 2.15094E-14
 -1        92 3.51641E+02 3.50574E+02 2.15318E-14
 -1        93 3.51276E+02 3.51008E+02 2.15095E-14
 -1        94 3.51638E+02 3.51442E+02 2.15316E-14
 -1        95 3.50552E+02 3.50574E+02 2.14651E-14
 -1        96 3.50550E+02 3.51442E+02 2.14650E-14
 -1        97 3.50915E+02 3.50574E+02 2.14873E-14
 -1        98 3.50551E+02 3.51008E+02 2.14651E-14
 -1        99 3.50913E+02 3.51442E+02 2.14872E-14
 -1       100 3.49826E+02 3.50574E+02 2.14207E-14
 -1       101 3.49825E+02 3.51442E+02 2.14206E-14
 -1       102 3.50189E+02 3.50574E+02 2.14429E-14
 -1       103 3.49826E+02 3.51008E+02 2.14207E-14
 -1       104 3.50188E+02 3.51442E+02 2.14428E-14
 -1       105 3.49100E+02 3.50574E+02 2.13762E-14
 -1       106 3.49100E+02 3.51442E+02 2.13762E-14
 -1       107 3.49463E+02 3.50574E+02 2.13984E-14
 -1       108 3.49100E+02 3.51008E+02 2.13762E-14
 -1       109 3.49462E+02 3.51442E+02 2.13984E-14
 -1       110 3.54189E+02 3.49706E+02 2.16878E-14
 -1       111 3.54552E+02 3.49706E+02 2.17100E-14
 -1       112 3.54185E+02 3.50140E+02 2.16876E-14
 -1       113 3.53462E+02 3.49706E+02 2.16433E-14
 -1       114 3.53825E+02 3.49706E+02 2.16655E-14
 -1       115 3.53459E+02 3.50140E+02 2.16431E-14
 -1       116 3.52735E+02 3.49706E+02 2.15988E-14
 -1       117 3.53098E+02 3.49706E+02 2.16210E-14
 -1       118 3.52732E+02 3.50140E+02 2.15986E-14
 -1       119 3.52008E+02 3.49706E+02 2.15543E-14
 -1       120 3.52371E+02 3.49706E+02 2.15765E-14
 -1       121 3.52006E+02 3.50140E+02 2.15542E-14
 -1       122 3.51281E+02 3.49706E+02 2.15098E-14
 -1       123 3.51644E+02 3.49706E+02 2.15320E-14
 -1       124 3.51279E+02 3.50140E+02 2.15096E-14
 -1       125 3.50554E+02 3.49706E+02 2.14652E-14
 -1       126 3.50917E+02 3.49706E+02 2.14875E-14
 -1       127 3.50553E+02 3.50140E+02 2.14652E-14
 -1       128 3.49827E+02 3.49706E+02 2.14207E-14
 -1       129 3.50190E+02 3.49706E+02 2.14430E-14
 -1       130 3.49826E+02 3.50140E+02 2.14207E-14
 -1       131 3.49100E+02 3.49706E+02 2.13762E-14
 -1       132 3.49463E+02 3.49706E+02 2.13984E-14
 -1       133 3.49100E+02 3.50140E+02 2.13762E-14
 -1       134 3.54195E+02 3.48839E+02 2.16882E-14
 -1       135 3.54559E+02 3.48839E+02 2.17105E-14
 -1       136 3.54192E+02 3.49273E+02 2.16880E-14
 -1       137 3.53467E+02 3.48839E+02 2.16436E-14
 -1       138 3.53831E+02 3.48839E+02 2.16659E-14
 -1       139 3.53465E+02 3.49273E+02 2.16435E-14
 -1       140 3.52740E+02 3.48839E+02 2.15991E-14
 -1       141 3.53103E+02 3.48839E+02 2.16213E-14
 -1       142 3.52737E+02 3.49273E+02 2.15989E-14
 -1       143 3.52012E+02 3.48839E+02 2.15545E-14
 -1       144 3.52376E+02 3.48839E+02 2.15768E-14
 -1       145 3.52010E+02 3.49273E+02 2.15544E-14
 -1       146 3.51284E+02 3.48839E+02 2.15099E-14
 -1       147 3.51648E+02 3.48839E+02 2.15322E-14
 -1       148 3.51282E+02 3.49273E+02 2.15098E-14
 -1       149 3.50556E+02 3.48839E+02 2.14654E-14
 -1       150 3.50920E+02 3.48839E+02 2.14877E-14
 -1       151 3.50555E+02 3.49273E+02 2.14653E-14
 -1       152 3.49828E+02 3.48839E+02 2.14208E-14
 -1       153 3.50192E+02 3.48839E+02 2.14431E-14
 -1       154 3.49827E+02 3.49273E+02 2.14207E-14
 -1       155 3.49100E+02 3.48839E+02 2.13762E-14
 -1       156 3.49464E+02 3.48839E+02 2.13985E-14
 -1       157 3.49100E+02 3.49273E+02 2.13762E-14
 -1       158 3.54202E+02 3.47971E+02 2.16886E-14
 -1       159 3.54567E+02 3.47971E+02 2.17110E-14
 -1       160 3.54199E+02 3.48405E+02 2.16884E-14
 -1       161 3.53473E+02 3.47971E+02 2.16440E-14
 -1       162 3.53838E+02 3.47971E+02 2.16663E-14
 -1       163 3.53470E+02 3.48405E+02 2.16438E-14
 -1       164 3.52744E+02 3.47971E+02 2.15993E-14
 -1       165 3.53109E+02 3.47971E+02 2.16217E-14
 -1       166 3.52742E+02 3.48405E+02 2.15992E-14
 -1       167 3.52016E+02 3.47971E+02 2.15548E-14
 -1       168 3.52380E+02 3.47971E+02 2.15771E-14
 -1       169 3.52014E+02 3.48405E+02 2.15546E-14
 -1       170 3.51287E+02 3.47971E+02 2.15101E-14
 -1       171 3.51651E+02 3.47971E+02 2.15324E-14
 -1       172 3.51285E+02 3.48405E+02 2.15100E-14
 -1       173 3.50558E+02 3.47971E+02 2.14655E-14
 -1       174 3.50922E+02 3.47971E+02 2.14878E-14
 -1       175 3.50557E+02 3.48405E+02 2.14654E-14
 -1       176 3.49829E+02 3.47971E+02 2.14208E-14
 -1       177 3.50193E+02 3.47971E+02 2.14431E-14
 -1       178 3.49828E+02 3.48405E+02 2.14208E-14
 -1       179 3.49100E+02 3.47971E+02 2.13762E-14
 -1       180 3.49464E+02 3.47971E+02 2.13985E-14
 -1       181 3.49100E+02 3.48405E+02 2.13762E-14
 -1       182 3.54209E+02 3.47103E+02 2.16890E-14
 -1       183 3.54574E+02 3.47103E+02 2.17114E-14
 -1       184 3.54206E+02 3.47537E+02 2.16889E-14
 -1       185 3.53479E+02 3.47103E+02 2.16443E-14
 -1       186 3.53844E+02 3.47103E+02 2.16667E-14
 -1       187 3.53476E+02 3.47537E+02 2.16442E-14
 -1       188 3.52749E+02 3.47103E+02 2.15996E-14
 -1       189 3.53114E+02 3.47103E+02 2.16220E-14
 -1       190 3.52747E+02 3.47537E+02 2.15995E-14
 -1       191 3.52019E+02 3.47103E+02 2.15549E-14
 -1       192 3.52384E+02 3.47103E+02 2.15773E-14
 -1       193 3.52017E+02 3.47537E+02 2.15548E-14
 -1       194 3.51290E+02 3.47103E+02 2.15103E-14
 -1       195 3.51654E+02 3.47103E+02 2.15326E-14
 -1       196 3.51288E+02 3.47537E+02 2.15102E-14
 -1       197 3.50560E+02 3.47103E+02 2.14656E-14
 -1       198 3.50925E+02 3.47103E+02 2.14880E-14
 -1       199 3.50559E+02 3.47537E+02 2.14655E-14
 -1       200 3.49830E+02 3.47103E+02 2.14209E-14
 -1       201 3.50195E+02 3.47103E+02 2.14433E-14
 -1       202 3.49829E+02 3.47537E+02 2.14208E-14
 -1       203 3.49100E+02 3.47103E+02 2.13762E-14
 -1       204 3.49465E+02 3.47103E+02 2.13986E-14
 -1       205 3.49100E+02 3.47537E+02 2.13762E-14
 -1       206 3.54216E+02 3.46236E+02 2.16895E-14
 -1       207 3.54581E+02 3.46236E+02 2.17118E-14
 -1       208 3.54212E+02 3.46669E+02 2.16892E-14
 -1       209 3.53485E+02 3.46236E+02 2.16447E-14
 -1       210 3.53850E+02 3.46236E+02 2.16671E-14
 -1       211 3.53482E+02 3.46669E+02 2.16445E-14
 -1       212 3.52754E+02 3.46236E+02 2.16000E-14
 -1       213 3.53119E+02 3.46236E+02 2.16223E-14
 -1       214 3.52752E+02 3.46669E+02 2.15998E-14
 -1       215 3.52023E+02 3.46236E+02 2.15552E-14
 -1       216 3.52389E+02 3.46236E+02 2.15776E-14
 -1       217 3.52021E+02 3.46669E+02 2.15551E-14
 -1       218 3.51292E+02 3.46236E+02 2.15104E-14
 -1       219 3.51658E+02 3.46236E+02 2.15328E-14
 -1       220 3.51291E+02 3.46669E+02 2.15104E-14
 -1       221 3.50562E+02 3.46236E+02 2.14657E-14
 -1       222 3.50927E+02 3.46236E+02 2.14881E-14
 -1       223 3.50561E+02 3.46669E+02 2.14657E-14
 -1       224 3.49831E+02 3.46236E+02 2.14210E-14
 -1       225 3.50196E+02 3.46236E+02 2.14433E-14
 -1       226 3.49830E+02 3.46669E+02 2.14209E-14
 -1       227 3.49100E+02 3.46236E+02 2.13762E-14
 -1       228 3.49465E+02 3.46236E+02 2.13986E-14
 -1       229 3.49100E+02 3.46669E+02 2.13762E-14
 -1       230 3.54222E+02 3.45368E+02 2.16898E-14
 -1       231 3.54588E+02 3.45368E+02 2.17123E-14
 -1       232 3.54219E+02 3.45802E+02 2.16897E-14
 -1       233 3.53491E+02 3.45368E+02 2.16451E-14
 -1       234 3.53857E+02 3.45368E+02 2.16675E-14
 -1       235 3.53488E+02 3.45802E+02 2.16449E-14
 -1       236 3.52759E+02 3.45368E+02 2.16003E-14
 -1       237 3.53125E+02 3.45368E+02 2.16227E-14
 -1       238 3.52757E+02 3.45802E+02 2.16001E-14
 -1       239 3.52027E+02 3.45368E+02 2.15554E-14
 -1       240 3.52393E+02 3.45368E+02 2.15778E-14
 -1       241 3.52025E+02 3.45802E+02 2.15553E-14
 -1       242 3.51295E+02 3.45368E+02 2.15106E-14
 -1       243 3.51661E+02 3.45368E+02 2.15330E-14
 -1       244 3.51294E+02 3.45802E+02 2.15106E-14
 -1       245 3.50564E+02 3.45368E+02 2.14659E-14
 -1       246 3.50929E+02 3.45368E+02 2.14882E-14
 -1       247 3.50563E+02 3.45802E+02 2.14658E-14
 -1       248 3.49832E+02 3.45368E+02 2.14210E-14
 -1       249 3.50198E+02 3.45368E+02 2.14434E-14
 -1       250 3.49831E+02 3.45802E+02 2.14210E-14
 -1       251 3.49100E+02 3.45368E+02 2.13762E-14
 -1       252 3.49466E+02 3.45368E+02 2.13986E-14
 -1       253 3.49100E+02 3.45802E+02 2.13762E-14
 -1       254 3.54229E+02 3.44500E+02 2.16903E-14
 -1       255 3.54596E+02 3.44500E+02 2.17127E-14
 -1       256 3.54226E+02 3.44934E+02 2.16901E-14
 -1       257 3.53496E+02 3.44500E+02 2.16454E-14
 -1       258 3.53863E+02 3.44500E+02 2.16679E-14
 -1       259 3.53494E+02 3.44934E+02 2.16453E-14
 -1       260 3.52764E+02 3.44500E+02 2.16006E-14
 -1       261 3.53130E+02 3.44500E+02 2.16230E-14
 -1       262 3.52761E+02 3.44934E+02 2.16004E-14
 -1       263 3.52031E+02 3.44500E+02 2.15557E-14
 -1       264 3.52397E+02 3.44500E+02 2.15781E-14
 -1       265 3.52029E+02 3.44934E+02 2.15556E-14
 -1       266 3.51298E+02 3.44500E+02 2.15108E-14
 -1       267 3.51665E+02 3.44500E+02 2.15333E-14
 -1       268 3.51297E+02 3.44934E+02 2.15107E-14
 -1       269 3.50566E+02 3.44500E+02 2.14660E-14
 -1       270 3.50932E+02 3.44500E+02 2.14884E-14
 -1       271 3.50565E+02 3.44934E+02 2.14659E-14
 -1       272 3.49833E+02 3.44500E+02 2.14211E-14
 -1       273 3.50199E+02 3.44500E+02 2.14435E-14
 -1       274 3.49832E+02 3.44934E+02 2.14210E-14
 -1       275 3.49100E+02 3.44500E+02 2.13762E-14
 -1       276 3.49466E+02 3.44500E+02 2.13986E-14
 -1       277 3.49100E+02 3.44934E+02 2.13762E-14
 -1       278 3.48550E+02 3.50516E+02 2.13425E-14
 -1       279 3.48550E+02 3.51442E+02 2.13425E-14
 -1       280 3.48825E+02 3.50545E+02 2.13594E-14
 -1       281 3.48550E+02 3.50979E+02 2.13425E-14
 -1       282 3.48825E+02 3.51442E+02 2.13594E-14
 -1       283 3.48000E+02 3.50456E+02 2.13089E-14
 -1       284 3.48000E+02 3.51442E+02 2.13089E-14
 -1       285 3.48275E+02 3.50487E+02 2.13257E-14
 -1       286 3.48000E+02 3.50949E+02 2.13089E-14
 -1       287 3.48275E+02 3.51442E+02 2.13257E-14
 -1       288 3.48550E+02 3.49591E+02 2.13425E-14
 -1       289 3.48825E+02 3.49649E+02 2.13594E-14
 -1       290 3.48550E+02 3.50053E+02 2.13425E-14
 -1       291 3.48000E+02 3.49471E+02 2.13089E-14
 -1       292 3.48275E+02 3.49531E+02 2.13257E-14
 -1       293 3.48000E+02 3.49964E+02 2.13089E-14
 -1       294 3.48550E+02 3.48665E+02 2.13425E-14
 -1       295 3.48825E+02 3.48752E+02 2.13594E-14
 -1       296 3.48550E+02 3.49128E+02 2.13425E-14
 -1       297 3.48000E+02 3.48486E+02 2.13089E-14
 -1       298 3.48275E+02 3.48576E+02 2.13257E-14
 -1       299 3.48000E+02 3.48978E+02 2.13089E-14
 -1       300 3.48550E+02 3.47739E+02 2.13425E-14
 -1       301 3.48825E+02 3.47856E+02 2.13594E-14
 -1       302 3.48550E+02 3.48202E+02 2.13425E-14
 -1       303 3.48000E+02 3.47500E+02 2.13089E-14
 -1       304 3.48275E+02 3.47620E+02 2.13257E-14
 -1       305 3.48000E+02 3.47993E+02 2.13089E-14
 -1       306 3.48106E+02 3.46744E+02 2.13153E-14
 -1       307 3.48642E+02 3.46909E+02 2.13482E-14
 -1       308 3.48346E+02 3.47233E+02 2.13300E-14
 -1       309 3.46800E+02 3.46500E+02 2.12354E-14
 -1       310 3.47492E+02 3.46607E+02 2.12777E-14
 -1       311 3.47400E+02 3.47000E+02 2.12721E-14
 -1       312 3.47950E+02 3.46045E+02 2.13058E-14
 -1       313 3.48525E+02 3.46143E+02 2.13410E-14
 -1       314 3.47952E+02 3.46430E+02 2.13059E-14
 -1       315 3.46800E+02 3.45833E+02 2.12354E-14
 -1       316 3.47375E+02 3.45941E+02 2.12706E-14
 -1       317 3.46800E+02 3.46167E+02 2.12354E-14
 -1       318 3.47950E+02 3.45272E+02 2.13058E-14
 -1       319 3.48525E+02 3.45321E+02 2.13410E-14
 -1       320 3.47950E+02 3.45658E+02 2.13058E-14
 -1       321 3.46800E+02 3.45167E+02 2.12354E-14
 -1       322 3.47375E+02 3.45221E+02 2.12706E-14
 -1       323 3.46800E+02 3.45500E+02 2.12354E-14
 -1       324 3.47950E+02 3.44500E+02 2.13058E-14
 -1       325 3.48525E+02 3.44500E+02 2.13410E-14
 -1       326 3.47950E+02 3.44886E+02 2.13058E-14
 -1       327 3.46800E+02 3.44500E+02 2.12354E-14
 -1       328 3.47375E+02 3.44500E+02 2.12706E-14
 -1       329 3.46800E+02 3.44833E+02 2.12354E-14
 -1       330 3.49826E+02 3.43375E+02 2.14207E-14
 -1       331 3.49092E+02 3.43375E+02 2.13757E-14
 -1       332 3.49829E+02 3.43938E+02 2.14208E-14
 -1       333 3.49459E+02 3.43375E+02 2.13982E-14
 -1       334 3.49096E+02 3.43938E+02 2.13760E-14
 -1       335 3.49819E+02 3.42250E+02 2.14202E-14
 -1       336 3.49085E+02 3.42250E+02 2.13753E-14
 -1       337 3.49823E+02 3.42812E+02 2.14205E-14
 -1       338 3.49452E+02 3.42250E+02 2.13978E-14
 -1       339 3.49088E+02 3.42812E+02 2.13755E-14
 -1       340 3.49812E+02 3.41125E+02 2.14198E-14
 -1       341 3.49077E+02 3.41125E+02 2.13748E-14
 -1       342 3.49816E+02 3.41688E+02 2.14201E-14
 -1       343 3.49445E+02 3.41125E+02 2.13973E-14
 -1       344 3.49081E+02 3.41688E+02 2.13750E-14
 -1       345 3.49806E+02 3.40000E+02 2.14194E-14
 -1       346 3.49069E+02 3.40000E+02 2.13743E-14
 -1       347 3.49809E+02 3.40562E+02 2.14196E-14
 -1       348 3.49437E+02 3.40000E+02 2.13968E-14
 -1       349 3.49073E+02 3.40562E+02 2.13746E-14
 -1       350 3.49799E+02 3.38875E+02 2.14190E-14
 -1       351 3.49061E+02 3.38875E+02 2.13738E-14
 -1       352 3.49802E+02 3.39438E+02 2.14192E-14
 -1       353 3.49430E+02 3.38875E+02 2.13964E-14
 -1       354 3.49065E+02 3.39438E+02 2.13741E-14
 -1       355 3.49792E+02 3.37750E+02 2.14186E-14
 -1       356 3.49053E+02 3.37750E+02 2.13733E-14
 -1       357 3.49795E+02 3.38312E+02 2.14188E-14
 -1       358 3.49423E+02 3.37750E+02 2.13960E-14
 -1       359 3.49057E+02 3.38312E+02 2.13736E-14
 -1       360 3.49785E+02 3.36625E+02 2.14182E-14
 -1       361 3.49046E+02 3.36625E+02 2.13729E-14
 -1       362 3.49789E+02 3.37188E+02 2.14184E-14
 -1       363 3.49416E+02 3.36625E+02 2.13956E-14
 -1       364 3.49050E+02 3.37188E+02 2.13731E-14
 -1       365 3.49779E+02 3.35500E+02 2.14178E-14
 -1       366 3.49038E+02 3.35500E+02 2.13724E-14
 -1       367 3.49782E+02 3.36062E+02 2.14180E-14
 -1       368 3.49408E+02 3.35500E+02 2.13951E-14
 -1       369 3.49042E+02 3.36062E+02 2.13727E-14
 -1       370 3.50560E+02 3.43375E+02 2.14656E-14
 -1       371 3.50563E+02 3.43938E+02 2.14658E-14
 -1       372 3.50193E+02 3.43375E+02 2.14431E-14
 -1       373 3.50554E+02 3.42250E+02 2.14652E-14
 -1       374 3.50557E+02 3.42812E+02 2.14654E-14
 -1       375 3.50187E+02 3.42250E+02 2.14428E-14
 -1       376 3.50548E+02 3.41125E+02 2.14649E-14
 -1       377 3.50551E+02 3.41688E+02 2.14651E-14
 -1       378 3.50180E+02 3.41125E+02 2.14423E-14
 -1       379 3.50542E+02 3.40000E+02 2.14645E-14
 -1       380 3.50545E+02 3.40562E+02 2.14647E-14
 -1       381 3.50174E+02 3.40000E+02 2.14420E-14
 -1       382 3.50536E+02 3.38875E+02 2.14641E-14
 -1       383 3.50539E+02 3.39438E+02 2.14643E-14
 -1       384 3.50168E+02 3.38875E+02 2.14416E-14
 -1       385 3.50531E+02 3.37750E+02 2.14638E-14
 -1       386 3.50534E+02 3.38312E+02 2.14640E-14
 -1       387 3.50161E+02 3.37750E+02 2.14412E-14
 -1       388 3.50525E+02 3.36625E+02 2.14635E-14
 -1       389 3.50528E+02 3.37188E+02 2.14636E-14
 -1       390 3.50155E+02 3.36625E+02 2.14408E-14
 -1       391 3.50519E+02 3.35500E+02 2.14631E-14
 -1       392 3.50522E+02 3.36062E+02 2.14633E-14
 -1       393 3.50149E+02 3.35500E+02 2.14404E-14
 -1       394 3.51293E+02 3.43375E+02 2.15105E-14
 -1       395 3.51296E+02 3.43938E+02 2.15107E-14
 -1       396 3.50927E+02 3.43375E+02 2.14881E-14
 -1       397 3.51289E+02 3.42250E+02 2.15102E-14
 -1       398 3.51291E+02 3.42812E+02 2.15104E-14
 -1       399 3.50921E+02 3.42250E+02 2.14877E-14
 -1       400 3.51284E+02 3.41125E+02 2.15099E-14
 -1       401 3.51286E+02 3.41688E+02 2.15101E-14
 -1       402 3.50916E+02 3.41125E+02 2.14874E-14
 -1       403 3.51279E+02 3.40000E+02 2.15096E-14
 -1       404 3.51281E+02 3.40562E+02 2.15098E-14
 -1       405 3.50911E+02 3.40000E+02 2.14871E-14
 -1       406 3.51274E+02 3.38875E+02 2.15093E-14
 -1       407 3.51276E+02 3.39438E+02 2.15095E-14
 -1       408 3.50905E+02 3.38875E+02 2.14867E-14
 -1       409 3.51269E+02 3.37750E+02 2.15090E-14
 -1       410 3.51272E+02 3.38312E+02 2.15092E-14
 -1       411 3.50900E+02 3.37750E+02 2.14864E-14
 -1       412 3.51264E+02 3.36625E+02 2.15087E-14
 -1       413 3.51267E+02 3.37188E+02 2.15089E-14
 -1       414 3.50895E+02 3.36625E+02 2.14861E-14
 -1       415 3.51259E+02 3.35500E+02 2.15084E-14
 -1       416 3.51262E+02 3.36062E+02 2.15086E-14
 -1       417 3.50889E+02 3.35500E+02 2.14858E-14
 -1       418 3.52027E+02 3.43375E+02 2.15554E-14
 -1       419 3.52029E+02 3.43938E+02 2.15556E-14
 -1       420 3.51660E+02 3.43375E+02 2.15330E-14
 -1       421 3.52023E+02 3.42250E+02 2.15552E-14
 -1       422 3.52025E+02 3.42812E+02 2.15553E-14
 -1       423 3.51656E+02 3.42250E+02 2.15327E-14
 -1       424 3.52019E+02 3.41125E+02 2.15549E-14
 -1       425 3.52021E+02 3.41688E+02 2.15551E-14
 -1       426 3.51652E+02 3.41125E+02 2.15325E-14
 -1       427 3.52016E+02 3.40000E+02 2.15548E-14
 -1       428 3.52017E+02 3.40562E+02 2.15548E-14
 -1       429 3.51647E+02 3.40000E+02 2.15322E-14
 -1       430 3.52012E+02 3.38875E+02 2.15545E-14
 -1       431 3.52014E+02 3.39438E+02 2.15546E-14
 -1       432 3.51643E+02 3.38875E+02 2.15319E-14
 -1       433 3.52008E+02 3.37750E+02 2.15543E-14
 -1       434 3.52010E+02 3.38312E+02 2.15544E-14
 -1       435 3.51638E+02 3.37750E+02 2.15316E-14
 -1       436 3.52004E+02 3.36625E+02 2.15540E-14
 -1       437 3.52006E+02 3.37188E+02 2.15542E-14
 -1       438 3.51634E+02 3.36625E+02 2.15314E-14
 -1       439 3.52000E+02 3.35500E+02 2.15538E-14
 -1       440 3.52002E+02 3.36062E+02 2.15539E-14
 -1       441 3.51630E+02 3.35500E+02 2.15311E-14
 -1       442 3.52761E+02 3.43375E+02 2.16004E-14
 -1       443 3.52762E+02 3.43938E+02 2.16004E-14
 -1       444 3.52394E+02 3.43375E+02 2.15779E-14
 -1       445 3.52758E+02 3.42250E+02 2.16002E-14
 -1       446 3.52759E+02 3.42812E+02 2.16003E-14
 -1       447 3.52391E+02 3.42250E+02 2.15777E-14
 -1       448 3.52755E+02 3.41125E+02 2.16000E-14
 -1       449 3.52757E+02 3.41688E+02 2.16001E-14
 -1       450 3.52387E+02 3.41125E+02 2.15775E-14
 -1       451 3.52752E+02 3.40000E+02 2.15998E-14
 -1       452 3.52754E+02 3.40562E+02 2.16000E-14
 -1       453 3.52384E+02 3.40000E+02 2.15773E-14
 -1       454 3.52749E+02 3.38875E+02 2.15996E-14
 -1       455 3.52751E+02 3.39438E+02 2.15998E-14
 -1       456 3.52380E+02 3.38875E+02 2.15771E-14
 -1       457 3.52746E+02 3.37750E+02 2.15995E-14
 -1       458 3.52748E+02 3.38312E+02 2.15996E-14
 -1       459 3.52377E+02 3.37750E+02 2.15769E-14
 -1       460 3.52743E+02 3.36625E+02 2.15993E-14
 -1       461 3.52745E+02 3.37188E+02 2.15994E-14
 -1       462 3.52374E+02 3.36625E+02 2.15767E-14
 -1       463 3.52741E+02 3.35500E+02 2.15992E-14
 -1       464 3.52742E+02 3.36062E+02 2.15992E-14
 -1       465 3.52370E+02 3.35500E+02 2.15764E-14
 -1       466 3.53495E+02 3.43375E+02 2.16453E-14
 -1       467 3.53496E+02 3.43938E+02 2.16454E-14
 -1       468 3.53128E+02 3.43375E+02 2.16229E-14
 -1       469 3.53493E+02 3.42250E+02 2.16452E-14
 -1       470 3.53494E+02 3.42812E+02 2.16453E-14
 -1       471 3.53125E+02 3.42250E+02 2.16227E-14
 -1       472 3.53491E+02 3.41125E+02 2.16451E-14
 -1       473 3.53492E+02 3.41688E+02 2.16451E-14
 -1       474 3.53123E+02 3.41125E+02 2.16225E-14
 -1       475 3.53489E+02 3.40000E+02 2.16450E-14
 -1       476 3.53490E+02 3.40562E+02 2.16450E-14
 -1       477 3.53120E+02 3.40000E+02 2.16224E-14
 -1       478 3.53487E+02 3.38875E+02 2.16448E-14
 -1       479 3.53488E+02 3.39438E+02 2.16449E-14
 -1       480 3.53118E+02 3.38875E+02 2.16222E-14
 -1       481 3.53485E+02 3.37750E+02 2.16447E-14
 -1       482 3.53486E+02 3.38312E+02 2.16448E-14
 -1       483 3.53116E+02 3.37750E+02 2.16221E-14
 -1       484 3.53483E+02 3.36625E+02 2.16446E-14
 -1       485 3.53484E+02 3.37188E+02 2.16447E-14
 -1       486 3.53113E+02 3.36625E+02 2.16219E-14
 -1       487 3.53481E+02 3.35500E+02 2.16445E-14
 -1       488 3.53482E+02 3.36062E+02 2.16445E-14
 -1       489 3.53111E+02 3.35500E+02 2.16218E-14
 -1       490 3.54228E+02 3.43375E+02 2.16902E-14
 -1       491 3.54229E+02 3.43938E+02 2.16903E-14
 -1       492 3.53861E+02 3.43375E+02 2.16677E-14
 -1       493 3.54227E+02 3.42250E+02 2.16901E-14
 -1       494 3.54228E+02 3.42812E+02 2.16902E-14
 -1       495 3.53860E+02 3.42250E+02 2.16677E-14
 -1       496 3.54226E+02 3.41125E+02 2.16901E-14
 -1       497 3.54227E+02 3.41688E+02 2.16901E-14
 -1       498 3.53859E+02 3.41125E+02 2.16676E-14
 -1       499 3.54225E+02 3.40000E+02 2.16900E-14
 -1       500 3.54226E+02 3.40562E+02 2.16901E-14
 -1       501 3.53857E+02 3.40000E+02 2.16675E-14
 -1       502 3.54224E+02 3.38875E+02 2.16900E-14
 -1       503 3.54225E+02 3.39438E+02 2.16900E-14
 -1       504 3.53856E+02 3.38875E+02 2.16674E-14
 -1       505 3.54223E+02 3.37750E+02 2.16899E-14
 -1       506 3.54224E+02 3.38312E+02 2.16900E-14
 -1       507 3.53854E+02 3.37750E+02 2.16673E-14
 -1       508 3.54222E+02 3.36625E+02 2.16898E-14
 -1       509 3.54223E+02 3.37188E+02 2.16899E-14
 -1       510 3.53853E+02 3.36625E+02 2.16672E-14
 -1       511 3.54221E+02 3.35500E+02 2.16898E-14
 -1       512 3.54222E+02 3.36062E+02 2.16898E-14
 -1       513 3.53851E+02 3.35500E+02 2.16671E-14
 -1       514 3.54962E+02 3.43375E+02 2.17352E-14
 -1       515 3.54962E+02 3.43938E+02 2.17352E-14
 -1       516 3.54595E+02 3.43375E+02 2.17127E-14
 -1       517 3.54962E+02 3.42250E+02 2.17352E-14
 -1       518 3.54962E+02 3.42812E+02 2.17352E-14
 -1       519 3.54595E+02 3.42250E+02 2.17127E-14
 -1       520 3.54962E+02 3.41125E+02 2.17352E-14
 -1       521 3.54962E+02 3.41688E+02 2.17352E-14
 -1       522 3.54594E+02 3.41125E+02 2.17126E-14
 -1       523 3.54962E+02 3.40000E+02 2.17352E-14
 -1       524 3.54962E+02 3.40562E+02 2.17352E-14
 -1       525 3.54594E+02 3.40000E+02 2.17126E-14
 -1       526 3.54962E+02 3.38875E+02 2.17352E-14
 -1       527 3.54962E+02 3.39438E+02 2.17352E-14
 -1       528 3.54593E+02 3.38875E+02 2.17126E-14
 -1       529 3.54962E+02 3.37750E+02 2.17352E-14
 -1       530 3.54962E+02 3.38312E+02 2.17352E-14
 -1       531 3.54593E+02 3.37750E+02 2.17126E-14
 -1       532 3.54962E+02 3.36625E+02 2.17352E-14
 -1       533 3.54962E+02 3.37188E+02 2.17352E-14
 -1       534 3.54592E+02 3.36625E+02 2.17125E-14
 -1       535 3.54962E+02 3.35500E+02 2.17352E-14
 -1       536 3.54962E+02 3.36062E+02 2.17352E-14
 -1       537 3.54592E+02 3.35500E+02 2.17125E-14
 -1       538 3.56081E+02 3.35500E+02 2.18037E-14
 -1       539 3.56078E+02 3.34728E+02 2.18035E-14
 -1       540 3.54954E+02 3.34632E+02 2.17347E-14
 -1       541 3.55522E+02 3.35500E+02 2.17694E-14
 -1       542 3.56079E+02 3.35114E+02 2.18035E-14
 -1       543 3.55516E+02 3.34679E+02 2.17691E-14
 -1       544 3.54958E+02 3.35066E+02 2.17349E-14
 -1       545 3.56074E+02 3.33955E+02 2.18032E-14
 -1       546 3.54947E+02 3.33764E+02 2.17342E-14
 -1       547 3.56076E+02 3.34342E+02 2.18034E-14
 -1       548 3.55511E+02 3.33857E+02 2.17688E-14
 -1       549 3.54950E+02 3.34198E+02 2.17344E-14
 -1       550 3.55915E+02 3.33256E+02 2.17935E-14
 -1       551 3.54939E+02 3.32897E+02 2.17337E-14
 -1       552 3.56070E+02 3.33570E+02 2.18030E-14
 -1       553 3.55388E+02 3.33091E+02 2.17612E-14
 -1       554 3.54943E+02 3.33331E+02 2.17340E-14
 -1       555 3.55466E+02 3.32261E+02 2.17660E-14
 -1       556 3.54931E+02 3.32029E+02 2.17333E-14
 -1       557 3.55672E+02 3.32767E+02 2.17786E-14
 -1       558 3.55199E+02 3.32144E+02 2.17497E-14
 -1       559 3.54935E+02 3.32463E+02 2.17335E-14
 -1       560 3.55462E+02 3.31335E+02 2.17658E-14
 -1       561 3.54923E+02 3.31161E+02 2.17328E-14
 -1       562 3.55464E+02 3.31798E+02 2.17659E-14
 -1       563 3.55193E+02 3.31248E+02 2.17493E-14
 -1       564 3.54927E+02 3.31595E+02 2.17330E-14
 -1       565 3.55458E+02 3.30409E+02 2.17655E-14
 -1       566 3.54915E+02 3.30294E+02 2.17323E-14
 -1       567 3.55460E+02 3.30872E+02 2.17656E-14
 -1       568 3.55187E+02 3.30351E+02 2.17489E-14
 -1       569 3.54919E+02 3.30727E+02 2.17325E-14
 -1       570 3.55454E+02 3.29484E+02 2.17653E-14
 -1       571 3.54908E+02 3.29426E+02 2.17318E-14
 -1       572 3.55456E+02 3.29947E+02 2.17654E-14
 -1       573 3.55181E+02 3.29455E+02 2.17486E-14
 -1       574 3.54912E+02 3.29860E+02 2.17321E-14
 -1       575 3.55450E+02 3.28558E+02 2.17650E-14
 -1       576 3.54900E+02 3.28558E+02 2.17314E-14
 -1       577 3.55452E+02 3.29021E+02 2.17652E-14
 -1       578 3.55175E+02 3.28558E+02 2.17482E-14
 -1       579 3.54904E+02 3.28992E+02 2.17316E-14
 -1       580 3.57200E+02 3.35500E+02 2.18722E-14