    1C
    1Utry pressure on tri faces of wedge                                
    1UUSER                                                              
    1UDATE              01.august.2019                                  
    1UTIME              09:27:24                                        
    1UHOST                                                              
    1UPGM               CalculiX                                        
    1UVERSION           Version 2.15                             
    1UCOMPILETIME       Fri 15 Mar 11:57:46 CET 2019                    
    1UDIR                                                               
    1UDBN                                                               
    1UMAT    1M1                                                        
    2C                           127                                     1
 -1        10 0.00000E+00 0.00000E+00 0.00000E+00
 -1        11 5.00000E-01 0.00000E+00 0.00000E+00
 -1        12 1.00000E+00 0.00000E+00 0.00000E+00
 -1        13 1.00000E+00 5.00000E-01 0.00000E+00
 -1        14 1.00000E+00 1.00000E+00 0.00000E+00
 -1        15 5.00000E-01 1.00000E+00 0.00000E+00
 -1        16 0.00000E+00 1.00000E+00 0.00000E+00
 -1        17 0.00000E+00 5.00000E-01 0.00000E+00
 -1        18 5.00000E-01 5.00000E-01 0.00000E+00
 -1        19 2.50000E-01 0.00000E+00 0.00000E+00
 -1        20 0.00000E+00 2.50000E-01 0.00000E+00
 -1        21 2.50000E-01 2.50000E-01 0.00000E+00
 -1        22 7.50000E-01 0.00000E+00 0.00000E+00
 -1        23 5.00000E-01 2.50000E-01 0.00000E+00
 -1        24 1.00000E+00 2.50000E-01 0.00000E+00
 -1        25 7.50000E-01 2.50000E-01 0.00000E+00
 -1        26 1.00000E+00 7.50000E-01 0.00000E+00
 -1        27 7.50000E-01 5.00000E-01 0.00000E+00
 -1        28 7.50000E-01 1.00000E+00 0.00000E+00
 -1        29 7.50000E-01 7.50000E-01 0.00000E+00
 -1        30 2.50000E-01 1.00000E+00 0.00000E+00
 -1        31 5.00000E-01 7.50000E-01 0.00000E+00
 -1        32 0.00000E+00 7.50000E-01 0.00000E+00
 -1        33 2.50000E-01 7.50000E-01 0.00000E+00
 -1        34 2.50000E-01 5.00000E-01 0.00000E+00
 -1        35 0.00000E+00 0.00000E+00 2.50000E-01
 -1        36 5.00000E-01 0.00000E+00 2.50000E-01
 -1        37 1.00000E+00 0.00000E+00 2.50000E-01
 -1        38 1.00000E+00 5.00000E-01 2.50000E-01
 -1        39 1.00000E+00 1.00000E+00 2.50000E-01
 -1        40 5.00000E-01 1.00000E+00 2.50000E-01
 -1        41 0.00000E+00 1.00000E+00 2.50000E-01
 -1        42 0.00000E+00 5.00000E-01 2.50000E-01
 -1        43 5.00000E-01 5.00000E-01 2.50000E-01
 -1        44 0.00000E+00 0.00000E+00 5.00000E-01
 -1        45 5.00000E-01 0.00000E+00 5.00000E-01
 -1        46 1.00000E+00 0.00000E+00 5.00000E-01
 -1        47 1.00000E+00 5.00000E-01 5.00000E-01
 -1        48 1.00000E+00 1.00000E+00 5.00000E-01
 -1        49 5.00000E-01 1.00000E+00 5.00000E-01
 -1        50 0.00000E+00 1.00000E+00 5.00000E-01
 -1        51 0.00000E+00 5.00000E-01 5.00000E-01
 -1        52 5.00000E-01 5.00000E-01 5.00000E-01
 -1        53 2.50000E-01 0.00000E+00 5.00000E-01
 -1        54 0.00000E+00 2.50000E-01 5.00000E-01
 -1        55 2.50000E-01 2.50000E-01 5.00000E-01
 -1        56 7.50000E-01 0.00000E+00 5.00000E-01
 -1        57 5.00000E-01 2.50000E-01 5.00000E-01
 -1        58 1.00000E+00 2.50000E-01 5.00000E-01
 -1        59 7.50000E-01 2.50000E-01 5.00000E-01
 -1        60 1.00000E+00 7.50000E-01 5.00000E-01
 -1        61 7.50000E-01 5.00000E-01 5.00000E-01
 -1        62 7.50000E-01 1.00000E+00 5.00000E-01
 -1        63 7.50000E-01 7.50000E-01 5.00000E-01
 -1        64 2.50000E-01 1.00000E+00 5.00000E-01
 -1        65 5.00000E-01 7.50000E-01 5.00000E-01
 -1        66 0.00000E+00 7.50000E-01 5.00000E-01
 -1        67 2.50000E-01 7.50000E-01 5.00000E-01
 -1        68 2.50000E-01 5.00000E-01 5.00000E-01
 -1        69 0.00000E+00 0.00000E+00 7.50000E-01
 -1        70 5.00000E-01 0.00000E+00 7.50000E-01
 -1        71 1.00000E+00 0.00000E+00 7.50000E-01
 -1        72 1.00000E+00 5.00000E-01 7.50000E-01
 -1        73 1.00000E+00 1.00000E+00 7.50000E-01
 -1        74 5.00000E-01 1.00000E+00 7.50000E-01
 -1        75 0.00000E+00 1.00000E+00 7.50000E-01
 -1        76 0.00000E+00 5.00000E-01 7.50000E-01
 -1        77 5.00000E-01 5.00000E-01 7.50000E-01
 -1        78 0.00000E+00 0.00000E+00 1.00000E+00
 -1        79 5.00000E-01 0.00000E+00 1.00000E+00
 -1        80 1.00000E+00 0.00000E+00 1.00000E+00
 -1        81 1.00000E+00 5.00000E-01 1.00000E+00
 -1        82 1.00000E+00 1.00000E+00 1.00000E+00
 -1        83 5.00000E-01 1.00000E+00 1.00000E+00
 -1        84 0.00000E+00 1.00000E+00 1.00000E+00
 -1        85 0.00000E+00 5.00000E-01 1.00000E+00
 -1        86 5.00000E-01 5.00000E-01 1.00000E+00
 -1        87 2.50000E-01 0.00000E+00 1.00000E+00
 -1        88 0.00000E+00 2.50000E-01 1.00000E+00
 -1        89 2.50000E-01 2.50000E-01 1.00000E+00
 -1        90 7.50000E-01 0.00000E+00 1.00000E+00
 -1        91 5.00000E-01 2.50000E-01 1.00000E+00
 -1        92 1.00000E+00 2.50000E-01 1.00000E+00
 -1        93 7.50000E-01 2.50000E-01 1.00000E+00
 -1        94 1.00000E+00 7.50000E-01 1.00000E+00
 -1        95 7.50000E-01 5.00000E-01 1.00000E+00
 -1        96 7.50000E-01 1.00000E+00 1.00000E+00
 -1        97 7.50000E-01 7.50000E-01 1.00000E+00
 -1        98 2.50000E-01 1.00000E+00 1.00000E+00
 -1        99 5.00000E-01 7.50000E-01 1.00000E+00
 -1       100 0.00000E+00 7.50000E-01 1.00000E+00
 -1       101 2.50000E-01 7.50000E-01 1.00000E+00
 -1       102 2.50000E-01 5.00000E-01 1.00000E+00
 -1       103 0.00000E+00 0.00000E+00 1.25000E+00
 -1       104 5.00000E-01 0.00000E+00 1.25000E+00
 -1       105 1.00000E+00 0.00000E+00 1.25000E+00
 -1       106 1.00000E+00 5.00000E-01 1.25000E+00
 -1       107 1.00000E+00 1.00000E+00 1.25000E+00
 -1       108 5.00000E-01 1.00000E+00 1.25000E+00
 -1       109 0.00000E+00 1.00000E+00 1.25000E+00
 -1       110 0.00000E+00 5.00000E-01 1.25000E+00
 -1       111 5.00000E-01 5.00000E-01 1.25000E+00
 -1       112 0.00000E+00 0.00000E+00 1.50000E+00
 -1       113 5.00000E-01 0.00000E+00 1.50000E+00
 -1       114 1.00000E+00 0.00000E+00 1.50000E+00
 -1       115 1.00000E+00 5.00000E-01 1.50000E+00
 -1       116 1.00000E+00 1.00000E+00 1.50000E+00
 -1       117 5.00000E-01 1.00000E+00 1.50000E+00
 -1       118 0.00000E+00 1.00000E+00 1.50000E+00
 -1       119 0.00000E+00 5.00000E-01 1.50000E+00
 -1       120 5.00000E-01 5.00000E-01 1.50000E+00
 -1       121 2.50000E-01 0.00000E+00 1.50000E+00
 -1       122 0.00000E+00 2.50000E-01 1.50000E+00
 -1       123 2.50000E-01 2.50000E-01 1.50000E+00
 -1       124 7.50000E-01 0.00000E+00 1.50000E+00
 -1       125 5.00000E-01 2.50000E-01 1.50000E+00
 -1       126 1.00000E+00 2.50000E-01 1.50000E+00
 -1       127 7.50000E-01 2.50000E-01 1.50000E+00
 -1       128 1.00000E+00 7.50000E-01 1.50000E+00
 -1       129 7.50000E-01 5.00000E-01 1.50000E+00
 -1       130 7.50000E-01 1.00000E+00 1.50000E+00
 -1       131 7.50000E-01 7.50000E-01 1.50000E+00
 -1       132 2.50000E-01 1.00000E+00 1.50000E+00
 -1       133 5.00000E-01 7.50000E-01 1.50000E+00
 -1       134 0.00000E+00 7.50000E-01 1.50000E+00
 -1       135 2.50000E-01 7.50000E-01 1.50000E+00
 -1       136 2.50000E-01 5.00000E-01 1.50000E+00
 -3
    3C                            24                                     1
 -1        17    5    0    1
 -2        10        18        17        44        52        51        21        34        20        35
 -2        43        42        55        68        54
 -1        18    5    0    1
 -2        10        11        18        44        45        52        19        23        21        35
 -2        36        43        53        57        55
 -1        19    5    0    1
 -2        11        12        18        45        46        52        22        25        23        36
 -2        37        43        56        59        57
 -1        20    5    0    1
 -2        12        13        18        46        47        52        24        27        25        37
 -2        38        43        58        61        59
 -1        21    5    0    1
 -2        17        18        16        51        52        50        34        33        32        42
 -2        43        41        68        67        66
 -1        22    5    0    1
 -2        18        15        16        52        49        50        31        30        33        43
 -2        40        41        65        64        67
 -1        23    5    0    1
 -2        18        14        15        52        48        49        29        28        31        43
 -2        39        40        63        62        65
 -1        24    5    0    1
 -2        18        13        14        52        47        48        27        26        29        43
 -2        38        39        61        60        63
 -1        25    5    0    1
 -2        44        52        51        78        86        85        55        68        54        69
 -2        77        76        89       102        88
 -1        26    5    0    1
 -2        44        45        52        78        79        86        53        57        55        69
 -2        70        77        87        91        89
 -1        27    5    0    1
 -2        45        46        52        79        80        86        56        59        57        70
 -2        71        77        90        93        91
 -1        28    5    0    1
 -2        46        47        52        80        81        86        58        61        59        71
 -2        72        77        92        95        93
 -1        29    5    0    1
 -2        51        52        50        85        86        84        68        67        66        76
 -2        77        75       102       101       100
 -1        30    5    0    1
 -2        52        49        50        86        83        84        65        64        67        77
 -2        74        75        99        98       101
 -1        31    5    0    1
 -2        52        48        49        86        82        83        63        62        65        77
 -2        73        74        97        96        99
 -1        32    5    0    1
 -2        52        47        48        86        81        82        61        60        63        77
 -2        72        73        95        94        97
 -1        33    5    0    1
 -2        78        86        85       112       120       119        89       102        88       103
 -2       111       110       123       136       122
 -1        34    5    0    1
 -2        78        79        86       112       113       120        87        91        89       103
 -2       104       111       121       125       123
 -1        35    5    0    1
 -2        79        80        86       113       114       120        90        93        91       104
 -2       105       111       124       127       125
 -1        36    5    0    1
 -2        80        81        86       114       115       120        92        95        93       105
 -2       106       111       126       129       127
 -1        37    5    0    1
 -2        85        86        84       119       120       118       102       101       100       110
 -2       111       109       136       135       134
 -1        38    5    0    1
 -2        86        83        84       120       117       118        99        98       101       111
 -2       108       109       133       132       135
 -1        39    5    0    1
 -2        86        82        83       120       116       117        97        96        99       111
 -2       107       108       131       130       133
 -1        40    5    0    1
 -2        86        81        82       120       115       116        95        94        97       111
 -2       106       107       129       128       131
 -3
 9999
