    1C
    1UUSER                                                              
    1UDATE              01.august.2019                                  
    1UTIME              09:25:07                                        
    1UHOST                                                              
    1UPGM               CalculiX                                        
    1UVERSION           Version 2.15                             
    1UCOMPILETIME       Fri 15 Mar 11:57:46 CET 2019                    
    1UDIR                                                               
    1UDBN                                                               
    1UMAT    1WATER                                                     
    2C                            29                                     1
 -1         1 1.99900E+02 2.44395E-03 0.00000E+00
 -1         2 2.00000E+02 0.00000E+00 0.00000E+00
 -1         3 1.99950E+02 1.22197E-03 0.00000E+00
 -1         4 1.00000E-01 4.88545E+00 0.00000E+00
 -1         5 5.81131E+00 4.74587E+00 0.00000E+00
 -1         6 2.95565E+00 4.81566E+00 0.00000E+00
 -1         7 1.30088E+01 4.56997E+00 0.00000E+00
 -1         8 9.41006E+00 4.65792E+00 0.00000E+00
 -1         9 2.20793E+01 4.34829E+00 0.00000E+00
 -1        10 1.75440E+01 4.45913E+00 0.00000E+00
 -1        11 3.35100E+01 4.06893E+00 0.00000E+00
 -1        12 2.77946E+01 4.20861E+00 0.00000E+00
 -1        13 4.79153E+01 3.71687E+00 0.00000E+00
 -1        14 4.07127E+01 3.89290E+00 0.00000E+00
 -1        15 6.60691E+01 3.27320E+00 0.00000E+00
 -1        16 5.69922E+01 3.49503E+00 0.00000E+00
 -1        17 8.89470E+01 2.71408E+00 0.00000E+00
 -1        18 7.75081E+01 2.99364E+00 0.00000E+00
 -1        19 1.17778E+02 2.00946E+00 0.00000E+00
 -1        20 1.03363E+02 2.36177E+00 0.00000E+00
 -1        21 1.54112E+02 1.12149E+00 0.00000E+00
 -1        22 1.35945E+02 1.56547E+00 0.00000E+00
 -1        23 1.77006E+02 5.61965E-01 0.00000E+00
 -1        24 0.00000E+00 4.88789E+00 0.00000E+00
 -1        25 5.00000E-02 4.88667E+00 0.00000E+00
 -1        26-1.00000E-01 4.88789E+00 0.00000E+00
 -1        27-5.00000E-02 4.88789E+00 0.00000E+00
 -1        29-1.50000E-01 4.88789E+00 0.00000E+00
 -1        31 2.00050E+02 0.00000E+00 0.00000E+00
 -3
    3C                            15                                     1
 -1         1   12    0    1
 -2         1         2         3
 -1         2   12    0    1
 -2         4         5         6
 -1         3   12    0    1
 -2         5         7         8
 -1         4   12    0    1
 -2         7         9        10
 -1         5   12    0    1
 -2         9        11        12
 -1         6   12    0    1
 -2        11        13        14
 -1         7   12    0    1
 -2        13        15        16
 -1         8   12    0    1
 -2        15        17        18
 -1         9   12    0    1
 -2        17        19        20
 -1        10   12    0    1
 -2        19        21        22
 -1        11   12    0    1
 -2        21         1        23
 -1        12   12    0    1
 -2        24         4        25
 -1        13   12    0    1
 -2        26        24        27
 -1        14   11    0    1
 -2        29        26
 -1        15   11    0    1
 -2         2        31
 -3
 9999
