# vtk DataFile Version 3.0

ASCII
DATASET UNSTRUCTURED_GRID

POINTS 16 double
	 1.00000000E+00	 1.00000000E+00	-1.49012000E-08
	 1.00000000E+00	 0.00000000E+00	-1.49012000E-08
	 1.00000000E+00	 0.00000000E+00	 1.00000000E+00
	 1.00000000E+00	 1.00000000E+00	 1.00000000E+00
	-7.45058000E-09	 1.00000000E+00	-1.49012000E-08
	-7.45058000E-09	 0.00000000E+00	-1.49012000E-08
	-7.45058000E-09	 0.00000000E+00	 1.00000000E+00
	-7.45058000E-09	 1.00000000E+00	 1.00000000E+00
	 5.00000000E-01	 6.41421000E-01	 1.00000000E+00
	 6.41421000E-01	 5.00000000E-01	 1.00000000E+00
	 6.41421000E-01	 5.00000000E-01	 1.20000000E+00
	 5.00000000E-01	 6.41421000E-01	 1.20000000E+00
	 3.58579000E-01	 5.00000000E-01	 1.00000000E+00
	 5.00000000E-01	 3.58579000E-01	 1.00000000E+00
	 5.00000000E-01	 3.58579000E-01	 1.20000000E+00
	 3.58579000E-01	 5.00000000E-01	 1.20000000E+00

CELLS 2 18
	8 0 1 2 3 4 5 6 7 
	8 8 9 10 11 12 13 14 15 

CELL_TYPES 2
	12
	12

POINT_DATA 16
FIELD U 1
	U 3 16 double
		 0.00000000E+00	 0.00000000E+00	 0.00000000E+00
		 0.00000000E+00	 0.00000000E+00	 0.00000000E+00
		 3.71336000E-07	-3.70543000E-07	-1.73293000E-06
		 3.71549000E-07	 3.72332000E-07	-1.73383000E-06
		 0.00000000E+00	 0.00000000E+00	 0.00000000E+00
		 0.00000000E+00	 0.00000000E+00	 0.00000000E+00
		-3.71336000E-07	-3.70543000E-07	-1.73293000E-06
		-3.71549000E-07	 3.72332000E-07	-1.73383000E-06
		 0.00000000E+00	 4.03279000E-06	-2.73412000E-06
		 2.01992000E-06	 2.01217000E-06	-2.73359000E-06
		 2.02109000E-06	 2.01578000E-06	-1.22585000E-05
		 0.00000000E+00	 4.03798000E-06	-1.22610000E-05
		-2.01992000E-06	 2.01217000E-06	-2.73359000E-06
		 0.00000000E+00	-9.29506000E-09	-2.73234000E-06
		 0.00000000E+00	 0.00000000E+00	-1.22537000E-05
		-2.02109000E-06	 2.01578000E-06	-1.22585000E-05
FIELD S 1
	S 10 16 double
		-2.10057000E-01	-2.10057000E-01	-4.90123000E-01	 2.23909000E-08	 3.00726000E-02	 3.00094000E-02	 2.89571650E-01	-4.96425800E-01	-2.10057022E-01	-2.03754178E-01
		-2.09948000E-01	-2.09948000E-01	-4.89868000E-01	-2.21827000E-08	-2.99281000E-02	 2.99922000E-02	 2.89380158E-01	-4.96140776E-01	-2.09948022E-01	-2.03675202E-01
		 9.00007000E-02	 9.00334000E-02	-3.09889000E-01	 1.71818000E-05	-3.00009000E-02	 2.99922000E-02	 4.06600060E-01	-3.14339680E-01	 9.00341672E-02	 9.44506131E-02
		 9.00120000E-02	 8.99759000E-02	-3.10092000E-01	 1.72286000E-05	 2.99999000E-02	 3.00094000E-02	 4.06780584E-01	-3.14542725E-01	 8.99766439E-02	 9.44619809E-02
		-2.10057000E-01	-2.10057000E-01	-4.90123000E-01	-2.23908000E-08	 3.00726000E-02	-3.00094000E-02	 2.89571650E-01	-4.96425800E-01	-2.10057022E-01	-2.03754178E-01
		-2.09948000E-01	-2.09948000E-01	-4.89868000E-01	 2.21827000E-08	-2.99281000E-02	-2.99922000E-02	 2.89380158E-01	-4.96140776E-01	-2.09948022E-01	-2.03675202E-01
		 9.00007000E-02	 9.00334000E-02	-3.09889000E-01	-1.71840000E-05	-3.00009000E-02	-2.99922000E-02	 4.06600060E-01	-3.14339680E-01	 9.00341694E-02	 9.44506109E-02
		 9.00120000E-02	 8.99759000E-02	-3.10092000E-01	-1.72263000E-05	 2.99999000E-02	-3.00094000E-02	 4.06780584E-01	-3.14542725E-01	 8.99766462E-02	 9.44619786E-02
		-2.16785000E-03	-1.37552000E-03	-1.00029000E+01	 0.00000000E+00	 1.79317000E-03	 0.00000000E+00	 1.00011288E+01	-1.00029003E+01	-2.16785000E-03	-1.37519850E-03
		-6.27670000E-04	 6.49678000E-04	-9.99979000E+00	 2.42506000E-04	 9.50053000E-04	 2.63262000E-04	 9.99980122E+00	-9.99979010E+00	-6.72159664E-04	 6.94264850E-04
		-6.55895000E-05	-2.45934000E-03	-1.00006000E+01	-1.83184000E-03	-6.21709000E-04	-1.99424000E-04	 9.99933832E+00	-1.00006000E+01	-3.45060732E-03	 9.25720458E-04
		 1.50574000E-03	 2.77567000E-03	-1.00006000E+01	 0.00000000E+00	 6.84098000E-04	 0.00000000E+00	 1.00027408E+01	-1.00006000E+01	 1.50574000E-03	 2.77571678E-03
		-6.27670000E-04	 6.49678000E-04	-9.99979000E+00	-2.42506000E-04	 9.50053000E-04	-2.63262000E-04	 9.99980122E+00	-9.99979010E+00	-6.72159664E-04	 6.94264850E-04
		 1.89407000E-03	 3.65644000E-03	-9.99439000E+00	 0.00000000E+00	 3.03994000E-03	 0.00000000E+00	 9.99716676E+00	-9.99439092E+00	 1.89407000E-03	 3.65736430E-03
		-6.55358000E-04	-6.71278000E-03	-9.99827000E+00	 0.00000000E+00	 1.00550000E-03	 0.00000000E+00	 9.99458746E+00	-9.99827010E+00	-6.71267881E-03	-6.55358000E-04
		-6.55898000E-05	-2.45934000E-03	-1.00006000E+01	 1.83184000E-03	-6.21709000E-04	 1.99424000E-04	 9.99933832E+00	-1.00006000E+01	-3.45060739E-03	 9.25720226E-04
FIELD CONTACT 1
	CONTACT 6 16 double
		 0.00000000E+00	 0.00000000E+00	 0.00000000E+00	 0.00000000E+00	 0.00000000E+00	 0.00000000E+00
		 0.00000000E+00	 0.00000000E+00	 0.00000000E+00	 0.00000000E+00	 0.00000000E+00	 0.00000000E+00
		 0.00000000E+00	 0.00000000E+00	 0.00000000E+00	 0.00000000E+00	 0.00000000E+00	 0.00000000E+00
		 0.00000000E+00	 0.00000000E+00	 0.00000000E+00	 0.00000000E+00	 0.00000000E+00	 0.00000000E+00
		 0.00000000E+00	 0.00000000E+00	 0.00000000E+00	 0.00000000E+00	 0.00000000E+00	 0.00000000E+00
		 0.00000000E+00	 0.00000000E+00	 0.00000000E+00	 0.00000000E+00	 0.00000000E+00	 0.00000000E+00
		 0.00000000E+00	 0.00000000E+00	 0.00000000E+00	 0.00000000E+00	 0.00000000E+00	 0.00000000E+00
		 0.00000000E+00	 0.00000000E+00	 0.00000000E+00	 0.00000000E+00	 0.00000000E+00	 0.00000000E+00
		-1.00052000E-06	 0.00000000E+00	 3.53879000E-06	 1.00052000E+01	 0.00000000E+00	 9.99577000E-04
		-1.00021000E-06	 1.52697000E-06	 2.01128000E-06	 1.00021000E+01	 6.43375000E-04	 9.08877000E-04
		 0.00000000E+00	 0.00000000E+00	 0.00000000E+00	 0.00000000E+00	 0.00000000E+00	 0.00000000E+00
		 0.00000000E+00	 0.00000000E+00	 0.00000000E+00	 0.00000000E+00	 0.00000000E+00	 0.00000000E+00
		-1.00021000E-06	-1.52697000E-06	 2.01128000E-06	 1.00021000E+01	-6.43375000E-04	 9.08877000E-04
		-9.99309000E-07	 0.00000000E+00	 4.83074000E-07	 9.99308000E+00	 0.00000000E+00	 6.58175000E-04
		 0.00000000E+00	 0.00000000E+00	 0.00000000E+00	 0.00000000E+00	 0.00000000E+00	 0.00000000E+00
		 0.00000000E+00	 0.00000000E+00	 0.00000000E+00	 0.00000000E+00	 0.00000000E+00	 0.00000000E+00
