    1C
    1UModel: linear net 3 elements Dtype                                
    1UUSER                                                              
    1UDATE              01.august.2019                                  
    1UTIME              09:27:26                                        
    1UHOST                                                              
    1UPGM               CalculiX                                        
    1UVERSION           Version 2.15                             
    1UCOMPILETIME       Fri 15 Mar 11:57:46 CET 2019                    
    1UDIR                                                               
    1UDBN                                                               
    1UMAT    1GAS                                                       
    2C                             7                                     1
 -1         1 1.00000E+00 0.00000E+00 0.00000E+00
 -1         2 2.00000E+00 0.00000E+00 0.00000E+00
 -1         3 3.00000E+00 0.00000E+00 0.00000E+00
 -1         4 4.00000E+00 0.00000E+00 0.00000E+00
 -1         5 5.00000E+00 0.00000E+00 0.00000E+00
 -1         6 6.00000E+00 0.00000E+00 0.00000E+00
 -1         7 7.00000E+00 0.00000E+00 0.00000E+00
 -3
    3C                             4                                     1
 -1         1   11    0    1
 -2         1         2
 -1         2   12    0    1
 -2         2         4         3
 -1         3   12    0    1
 -2         4         6         5
 -1         4   11    0    1
 -2         6         7
 -3
 9999
