    1C
    1UUSER                                                              
    1UDATE              01.august.2019                                  
    1UTIME              09:27:33                                        
    1UHOST                                                              
    1UPGM               CalculiX                                        
    1UVERSION           Version 2.15                             
    1UCOMPILETIME       Fri 15 Mar 11:57:46 CET 2019                    
    1UDIR                                                               
    1UDBN                                                               
    1UMAT    1EL                                                        
    1UMAT    2SI1                                                       
    2C                            28                                     1
 -1         1 1.00000E+00 1.00000E+00-1.49012E-08
 -1         2 1.00000E+00 0.00000E+00-1.49012E-08
 -1         3 1.00000E+00 0.00000E+00 1.00000E+00
 -1         4 1.00000E+00 1.00000E+00 1.00000E+00
 -1         5-7.45058E-09 1.00000E+00-1.49012E-08
 -1         6-7.45058E-09 0.00000E+00-1.49012E-08
 -1         7-7.45058E-09 0.00000E+00 1.00000E+00
 -1         8-7.45058E-09 1.00000E+00 1.00000E+00
 -1        18 6.41422E-01 5.00000E-01 1.20000E+00
 -1        19 5.00000E-01 3.58578E-01 1.20000E+00
 -1        20 5.00000E-01 3.58578E-01 1.00000E+00
 -1        21 6.41422E-01 5.00000E-01 1.00000E+00
 -1        22 5.70711E-01 4.29289E-01 1.20000E+00
 -1        23 5.00000E-01 3.58578E-01 1.10000E+00
 -1        24 5.70711E-01 4.29289E-01 1.00000E+00
 -1        25 6.41422E-01 5.00000E-01 1.10000E+00
 -1        26 5.00000E-01 6.41422E-01 1.20000E+00
 -1        27 3.58578E-01 5.00000E-01 1.20000E+00
 -1        28 3.58578E-01 5.00000E-01 1.00000E+00
 -1        29 5.00000E-01 6.41422E-01 1.00000E+00
 -1        30 4.29289E-01 5.70711E-01 1.20000E+00
 -1        31 3.58578E-01 5.00000E-01 1.10000E+00
 -1        32 4.29289E-01 5.70711E-01 1.00000E+00
 -1        33 5.00000E-01 6.41422E-01 1.10000E+00
 -1        34 5.70711E-01 5.70711E-01 1.20000E+00
 -1        35 4.29289E-01 4.29289E-01 1.20000E+00
 -1        36 4.29289E-01 4.29289E-01 1.00000E+00
 -1        37 5.70711E-01 5.70711E-01 1.00000E+00
 -3
    3C                             2                                     1
 -1         1    1    0    1
 -2         1         2         3         4         5         6         7         8
 -1         2    4    0    1
 -2        26        18        19        27        29        21        20        28        34        22
 -2        35        30        33        25        23        31        37        24        36        32
 -3
    1PSTEP                         1           1           1          
  100CL  101 6.25000E-02          28                     0    1           1
 -4  DISP        4    1
 -5  D1          1    2    1    0
 -5  D2          1    2    2    0
 -5  D3          1    2    3    0
 -5  ALL         1    2    0    0    1ALL
 -1         1 0.00000E+00 0.00000E+00 0.00000E+00
 -1         2 0.00000E+00 0.00000E+00 0.00000E+00
 -1         3 0.00000E+00 0.00000E+00-1.00468E-05
 -1         4 0.00000E+00 0.00000E+00-1.00014E-05
 -1         5 0.00000E+00 0.00000E+00 0.00000E+00
 -1         6 0.00000E+00 0.00000E+00 0.00000E+00
 -1         7 0.00000E+00 0.00000E+00-1.45592E-05
 -1         8 0.00000E+00 0.00000E+00-1.45015E-05
 -1        18-3.12464E-03-2.78737E-05 3.97938E-03
 -1        19-2.96911E-03-5.89801E-05-4.80512E-04
 -1        20 3.14170E-03 3.68791E-05-3.43432E-04
 -1        21 2.95206E-03 4.99746E-05 3.91299E-03
 -1        22-3.05840E-03-2.89708E-05 1.72727E-03
 -1        23 2.22536E-05 5.63347E-06-4.01624E-04
 -1        24 3.02620E-03 5.09768E-05 1.85224E-03
 -1        25-4.44488E-05-7.05605E-06 3.93922E-03
 -1        26-3.07033E-03-4.22045E-05-3.01977E-04
 -1        27-3.00315E-03-1.52502E-05-4.75066E-03
 -1        28 3.02825E-03 6.59291E-05-4.42192E-03
 -1        29 3.04523E-03-8.47443E-06-3.60132E-04
 -1        30-3.02229E-03-4.08847E-05-2.50764E-03
 -1        31 8.07731E-05-1.05582E-05-4.59846E-03
 -1        32 3.05507E-03 1.82087E-05-2.43437E-03
 -1        33-5.88746E-05 1.23346E-05-3.18597E-04
 -1        34-3.07677E-03-1.86290E-05 1.75271E-03
 -1        35-2.99658E-03-4.64704E-05-2.52868E-03
 -1        36 3.07445E-03 2.83573E-05-2.50802E-03
 -1        37 2.99890E-03 3.67421E-05 1.92106E-03
 -3
    1PSTEP                         2           1           1          
  100CL  101 6.25000E-02          28                     0    1           1
 -4  FORC        4    1
 -5  F1          1    2    1    0
 -5  F2          1    2    2    0
 -5  F3          1    2    3    0
 -5  ALL         1    2    0    0    1ALL
 -1         1 0.00000E+00 0.00000E+00 0.00000E+00
 -1         2 0.00000E+00 0.00000E+00 0.00000E+00
 -1         3 0.00000E+00 0.00000E+00-4.19624E-11
 -1         4 0.00000E+00 0.00000E+00-4.11006E-11
 -1         5 0.00000E+00 0.00000E+00 0.00000E+00
 -1         6 0.00000E+00 0.00000E+00 0.00000E+00
 -1         7 0.00000E+00 0.00000E+00-7.70953E-11
 -1         8 0.00000E+00 0.00000E+00-7.59215E-11
 -1        18 0.00000E+00 0.00000E+00 3.19161E-06
 -1        19-4.35121E-06-2.67862E-06 3.13053E-06
 -1        20-4.26520E-06-2.51710E-06-2.91372E-06
 -1        21 2.18930E-07-4.03379E-08-2.91176E-06
 -1        22-8.20133E-06 5.03662E-06-1.24420E-05
 -1        23 1.96814E-07 1.03353E-05-1.32574E-07
 -1        24-9.02890E-06 5.07012E-06 1.19357E-05
 -1        25-1.72640E-05-1.60928E-07-5.26190E-07
 -1        26 0.00000E+00 0.00000E+00 3.04853E-06
 -1        27-4.28922E-06-2.61650E-06 2.83094E-06
 -1        28-4.43258E-06-2.60326E-06-3.34172E-06
 -1        29 1.17880E-07-5.58283E-08-2.99696E-06
 -1        30 8.83784E-06-5.16712E-06-1.19309E-05
 -1        31 1.72031E-05 1.57781E-07 7.54885E-07
 -1        32 8.35622E-06-4.97407E-06-3.00820E-03
 -1        33-1.16995E-07-1.03379E-05-1.25665E-07
 -1        34 0.00000E+00 0.00000E+00-1.24817E-05
 -1        35 1.73119E-05 1.05571E-05-1.18869E-05
 -1        36 1.69867E-05 1.04579E-05-3.10566E-03
 -1        37-7.29982E-07 1.71489E-07 1.18817E-05
 -3
