    1C
    1UUSER                                                              
    1UDATE              01.august.2019                                  
    1UTIME              09:27:31                                        
    1UHOST                                                              
    1UPGM               CalculiX                                        
    1UVERSION           Version 2.15                             
    1UCOMPILETIME       Fri 15 Mar 11:57:46 CET 2019                    
    1UDIR                                                               
    1UDBN                                                               
    1UMAT    1EL                                                        
    1UMAT    2SI1                                                       
    2C                            40                                     1
 -1         1 1.00000E+00 1.00000E+00 0.00000E+00
 -1         2 1.00000E+00 0.00000E+00 0.00000E+00
 -1         3 1.00000E+00 0.00000E+00 1.00000E+00
 -1         4 1.00000E+00 1.00000E+00 1.00000E+00
 -1         5 0.00000E+00 1.00000E+00 0.00000E+00
 -1         6 0.00000E+00 0.00000E+00 0.00000E+00
 -1         7 0.00000E+00 0.00000E+00 1.00000E+00
 -1         8 0.00000E+00 1.00000E+00 1.00000E+00
 -1         9 1.00000E+00 5.00000E-01 0.00000E+00
 -1        10 1.00000E+00 0.00000E+00 5.00000E-01
 -1        11 1.00000E+00 5.00000E-01 1.00000E+00
 -1        12 1.00000E+00 1.00000E+00 5.00000E-01
 -1        13 5.00000E-01 1.00000E+00 0.00000E+00
 -1        14 5.00000E-01 0.00000E+00 0.00000E+00
 -1        15 5.00000E-01 0.00000E+00 1.00000E+00
 -1        16 5.00000E-01 1.00000E+00 1.00000E+00
 -1        17 0.00000E+00 5.00000E-01 0.00000E+00
 -1        18 0.00000E+00 0.00000E+00 5.00000E-01
 -1        19 0.00000E+00 5.00000E-01 1.00000E+00
 -1        20 0.00000E+00 1.00000E+00 5.00000E-01
 -1        21 7.50000E-01 7.50000E-01 1.00000E+00
 -1        22 7.50000E-01 2.50000E-01 1.00000E+00
 -1        23 7.50000E-01 2.50000E-01 1.50000E+00
 -1        24 7.50000E-01 7.50000E-01 1.50000E+00
 -1        25 2.50000E-01 7.50000E-01 1.00000E+00
 -1        26 2.50000E-01 2.50000E-01 1.00000E+00
 -1        27 2.50000E-01 2.50000E-01 1.50000E+00
 -1        28 2.50000E-01 7.50000E-01 1.50000E+00
 -1        29 7.50000E-01 5.00000E-01 1.00000E+00
 -1        30 7.50000E-01 2.50000E-01 1.25000E+00
 -1        31 7.50000E-01 5.00000E-01 1.50000E+00
 -1        32 7.50000E-01 7.50000E-01 1.25000E+00
 -1        33 5.00000E-01 7.50000E-01 1.00000E+00
 -1        34 5.00000E-01 2.50000E-01 1.00000E+00
 -1        35 5.00000E-01 2.50000E-01 1.50000E+00
 -1        36 5.00000E-01 7.50000E-01 1.50000E+00
 -1        37 2.50000E-01 5.00000E-01 1.00000E+00
 -1        38 2.50000E-01 2.50000E-01 1.25000E+00
 -1        39 2.50000E-01 5.00000E-01 1.50000E+00
 -1        40 2.50000E-01 7.50000E-01 1.25000E+00
 -3
    3C                             2                                     1
 -1         1    4    0    1
 -2         1         2         3         4         5         6         7         8         9        10
 -2        11        12        13        14        15        16        17        18        19        20
 -1         2    4    0    1
 -2        21        22        23        24        25        26        27        28        29        30
 -2        31        32        33        34        35        36        37        38        39        40
 -3
    1PSTEP                         1           1           1          
  100CL  101 3.12500E-02          40                     0    1           1
 -4  DISP        4    1
 -5  D1          1    2    1    0
 -5  D2          1    2    2    0
 -5  D3          1    2    3    0
 -5  ALL         1    2    0    0    1ALL
 -1         1 0.00000E+00 0.00000E+00 0.00000E+00
 -1         2 0.00000E+00 0.00000E+00 0.00000E+00
 -1         3 7.39921E-05-3.86797E-06-1.40558E-04
 -1         4 7.39921E-05 3.86797E-06-1.40558E-04
 -1         5 0.00000E+00 0.00000E+00 0.00000E+00
 -1         6 0.00000E+00 0.00000E+00 0.00000E+00
 -1         7 7.65172E-05 2.92074E-06-3.24160E-06
 -1         8 7.65172E-05-2.92074E-06-3.24160E-06
 -1         9 0.00000E+00 0.00000E+00 0.00000E+00
 -1        10 3.23837E-05-3.51612E-05-6.66336E-05
 -1        11 8.44550E-05-1.09090E-18-1.98589E-04
 -1        12 3.23837E-05 3.51612E-05-6.66336E-05
 -1        13 0.00000E+00 0.00000E+00 0.00000E+00
 -1        14 0.00000E+00 0.00000E+00 0.00000E+00
 -1        15 6.73732E-05-2.86039E-06-1.05253E-04
 -1        16 6.73732E-05 2.86039E-06-1.05253E-04
 -1        17 0.00000E+00 0.00000E+00 0.00000E+00
 -1        18 1.11382E-06-6.38825E-06-4.66209E-06
 -1        19 8.25528E-05-1.23869E-18-1.67293E-05
 -1        20 1.11382E-06 6.38825E-06-4.66209E-06
 -1        21-2.44252E-03-1.73262E-05-3.14691E-03
 -1        22-2.44252E-03 1.73262E-05-3.14691E-03
 -1        23 1.56250E-03 0.00000E+00-3.12157E-03
 -1        24 1.56250E-03 0.00000E+00-3.12157E-03
 -1        25-2.41934E-03 7.95733E-06 8.93394E-04
 -1        26-2.41934E-03-7.95733E-06 8.93394E-04
 -1        27 1.56250E-03 0.00000E+00 8.57420E-04
 -1        28 1.56250E-03 0.00000E+00 8.57420E-04
 -1        29-2.43853E-03 1.28508E-16-3.09744E-03
 -1        30-4.42239E-04-7.98960E-06-3.13071E-03
 -1        31 1.56250E-03 0.00000E+00-3.14071E-03
 -1        32-4.42239E-04 7.98960E-06-3.13071E-03
 -1        33-2.43089E-03-5.93207E-06-1.11865E-03
 -1        34-2.43089E-03 5.93207E-06-1.11865E-03
 -1        35 1.56250E-03 0.00000E+00-1.13073E-03
 -1        36 1.56250E-03 0.00000E+00-1.13073E-03
 -1        37-2.42251E-03 1.28571E-16 8.75016E-04
 -1        38-4.26366E-04 5.98922E-07 8.75736E-04
 -1        39 1.56250E-03 0.00000E+00 8.63877E-04
 -1        40-4.26366E-04-5.98922E-07 8.75736E-04
 -3
    1PSTEP                         2           1           1          
  100CL  101 3.12500E-02          40                     0    1           1
 -4  FORC        4    1
 -5  F1          1    2    1    0
 -5  F2          1    2    2    0
 -5  F3          1    2    3    0
 -5  ALL         1    2    0    0    1ALL
 -1         1 0.00000E+00 0.00000E+00 0.00000E+00
 -1         2 0.00000E+00 0.00000E+00 0.00000E+00
 -1         3-1.19702E-04-6.16415E-07 3.18905E-03
 -1         4-1.19702E-04 6.16415E-07 3.18905E-03
 -1         5 0.00000E+00 0.00000E+00 0.00000E+00
 -1         6 0.00000E+00 0.00000E+00 0.00000E+00
 -1         7-8.20858E-05-2.02936E-07 3.13701E-03
 -1         8-8.20858E-05 2.02936E-07 3.13701E-03
 -1         9 0.00000E+00 0.00000E+00 0.00000E+00
 -1        10-4.86374E-06 2.80218E-06 2.62533E-06
 -1        11 1.86428E-04 1.76676E-15-5.02281E-03
 -1        12-4.86374E-06-2.80218E-06 2.62533E-06
 -1        13 0.00000E+00 0.00000E+00 0.00000E+00
 -1        14 0.00000E+00 0.00000E+00 0.00000E+00
 -1        15 3.72006E-04 3.29043E-06-6.52260E-03
 -1        16 3.72006E-04-3.29043E-06-6.52260E-03
 -1        17 0.00000E+00 0.00000E+00 0.00000E+00
 -1        18 3.17677E-06 2.50850E-06 5.31921E-06
 -1        19 2.32814E-04 9.90568E-16-8.63238E-03
 -1        20 3.17677E-06-2.50850E-06 5.31921E-06
 -1        21 1.95154E-03 9.44785E-04-3.74021E-03
 -1        22 1.95154E-03-9.44785E-04-3.74021E-03
 -1        23 0.00000E+00 0.00000E+00 1.33811E-03
 -1        24 0.00000E+00 0.00000E+00 1.33811E-03
 -1        25 8.99297E-03 9.40197E-04 2.69793E-01
 -1        26 8.99297E-03-9.40197E-04 2.69793E-01
 -1        27 0.00000E+00 0.00000E+00 1.39560E-03
 -1        28 0.00000E+00 0.00000E+00 1.39560E-03
 -1        29-4.63014E-02 4.87764E-15-1.31966E+00
 -1        30-7.87146E-03 3.78005E-03 9.67593E-05
 -1        31 0.00000E+00 0.00000E+00-5.43133E-03
 -1        32-7.87146E-03-3.78005E-03 9.67593E-05
 -1        33-2.92731E-02-3.78268E-03-6.63281E-01
 -1        34-2.92731E-02 3.78268E-03-6.63281E-01
 -1        35 0.00000E+00 0.00000E+00-5.48476E-03
 -1        36 0.00000E+00 0.00000E+00-5.48476E-03
 -1        37-5.85523E-03-1.51208E-14-2.75387E-01
 -1        38 7.89934E-03 3.76506E-03-7.91685E-05
 -1        39 0.00000E+00 0.00000E+00-5.54118E-03
 -1        40 7.89934E-03-3.76506E-03-7.91685E-05
 -3
