# vtk DataFile Version 3.0

ASCII
DATASET UNSTRUCTURED_GRID

POINTS 320 double
	-1.00000000E+00	 0.00000000E+00	 0.00000000E+00
	-9.80785000E-01	 1.95090000E-01	 0.00000000E+00
	-9.80785000E-01	 1.95090000E-01	 1.00000000E-01
	-1.00000000E+00	 0.00000000E+00	 1.00000000E-01
	-8.75000000E-01	 0.00000000E+00	 0.00000000E+00
	-8.58187000E-01	 1.70704000E-01	-2.22045000E-16
	-8.58187000E-01	 1.70704000E-01	 1.00000000E-01
	-8.75000000E-01	 0.00000000E+00	 1.00000000E-01
	-7.50000000E-01	 0.00000000E+00	 0.00000000E+00
	-7.35589000E-01	 1.46318000E-01	 5.55112000E-17
	-7.35589000E-01	 1.46318000E-01	 1.00000000E-01
	-7.50000000E-01	 0.00000000E+00	 1.00000000E-01
	-6.25000000E-01	 0.00000000E+00	 0.00000000E+00
	-6.12991000E-01	 1.21931000E-01	 0.00000000E+00
	-6.12991000E-01	 1.21931000E-01	 1.00000000E-01
	-6.25000000E-01	 0.00000000E+00	 1.00000000E-01
	-5.00000000E-01	 0.00000000E+00	 0.00000000E+00
	-4.90393000E-01	 9.75452000E-02	 0.00000000E+00
	-4.90393000E-01	 9.75452000E-02	 1.00000000E-01
	-5.00000000E-01	 0.00000000E+00	 1.00000000E-01
	-9.23880000E-01	 3.82683000E-01	 0.00000000E+00
	-9.23880000E-01	 3.82683000E-01	 1.00000000E-01
	-8.08395000E-01	 3.34848000E-01	 0.00000000E+00
	-8.08395000E-01	 3.34848000E-01	 1.00000000E-01
	-6.92910000E-01	 2.87013000E-01	 1.11022000E-16
	-6.92910000E-01	 2.87013000E-01	 1.00000000E-01
	-5.77425000E-01	 2.39177000E-01	 1.11022000E-16
	-5.77425000E-01	 2.39177000E-01	 1.00000000E-01
	-4.61940000E-01	 1.91342000E-01	 0.00000000E+00
	-4.61940000E-01	 1.91342000E-01	 1.00000000E-01
	-8.31470000E-01	 5.55570000E-01	 0.00000000E+00
	-8.31470000E-01	 5.55570000E-01	 1.00000000E-01
	-7.27536000E-01	 4.86124000E-01	 0.00000000E+00
	-7.27536000E-01	 4.86124000E-01	 1.00000000E-01
	-6.23602000E-01	 4.16678000E-01	 0.00000000E+00
	-6.23602000E-01	 4.16678000E-01	 1.00000000E-01
	-5.19669000E-01	 3.47231000E-01	 0.00000000E+00
	-5.19669000E-01	 3.47231000E-01	 1.00000000E-01
	-4.15735000E-01	 2.77785000E-01	 0.00000000E+00
	-4.15735000E-01	 2.77785000E-01	 1.00000000E-01
	-7.07107000E-01	 7.07107000E-01	 0.00000000E+00
	-7.07107000E-01	 7.07107000E-01	 1.00000000E-01
	-6.18718000E-01	 6.18718000E-01	-1.11022000E-16
	-6.18718000E-01	 6.18718000E-01	 1.00000000E-01
	-5.30330000E-01	 5.30330000E-01	 5.55112000E-17
	-5.30330000E-01	 5.30330000E-01	 1.00000000E-01
	-4.41942000E-01	 4.41942000E-01	-2.22045000E-16
	-4.41942000E-01	 4.41942000E-01	 1.00000000E-01
	-3.53553000E-01	 3.53553000E-01	 0.00000000E+00
	-3.53553000E-01	 3.53553000E-01	 1.00000000E-01
	-5.55570000E-01	 8.31470000E-01	 0.00000000E+00
	-5.55570000E-01	 8.31470000E-01	 1.00000000E-01
	-4.86124000E-01	 7.27536000E-01	-1.11022000E-16
	-4.86124000E-01	 7.27536000E-01	 1.00000000E-01
	-4.16678000E-01	 6.23602000E-01	 0.00000000E+00
	-4.16678000E-01	 6.23602000E-01	 1.00000000E-01
	-3.47231000E-01	 5.19669000E-01	 0.00000000E+00
	-3.47231000E-01	 5.19669000E-01	 1.00000000E-01
	-2.77785000E-01	 4.15735000E-01	 0.00000000E+00
	-2.77785000E-01	 4.15735000E-01	 1.00000000E-01
	-3.82683000E-01	 9.23880000E-01	 0.00000000E+00
	-3.82683000E-01	 9.23880000E-01	 1.00000000E-01
	-3.34848000E-01	 8.08395000E-01	 5.55112000E-17
	-3.34848000E-01	 8.08395000E-01	 1.00000000E-01
	-2.87013000E-01	 6.92910000E-01	 5.55112000E-17
	-2.87013000E-01	 6.92910000E-01	 1.00000000E-01
	-2.39177000E-01	 5.77425000E-01	 1.11022000E-16
	-2.39177000E-01	 5.77425000E-01	 1.00000000E-01
	-1.91342000E-01	 4.61940000E-01	 0.00000000E+00
	-1.91342000E-01	 4.61940000E-01	 1.00000000E-01
	-1.95090000E-01	 9.80785000E-01	 0.00000000E+00
	-1.95090000E-01	 9.80785000E-01	 1.00000000E-01
	-1.70704000E-01	 8.58187000E-01	 5.55112000E-17
	-1.70704000E-01	 8.58187000E-01	 1.00000000E-01
	-1.46318000E-01	 7.35589000E-01	 0.00000000E+00
	-1.46318000E-01	 7.35589000E-01	 1.00000000E-01
	-1.21931000E-01	 6.12991000E-01	 0.00000000E+00
	-1.21931000E-01	 6.12991000E-01	 1.00000000E-01
	-9.75452000E-02	 4.90393000E-01	 0.00000000E+00
	-9.75452000E-02	 4.90393000E-01	 1.00000000E-01
	 0.00000000E+00	 1.00000000E+00	 0.00000000E+00
	 0.00000000E+00	 1.00000000E+00	 1.00000000E-01
	 0.00000000E+00	 8.75000000E-01	 0.00000000E+00
	 0.00000000E+00	 8.75000000E-01	 1.00000000E-01
	 0.00000000E+00	 7.50000000E-01	 0.00000000E+00
	 0.00000000E+00	 7.50000000E-01	 1.00000000E-01
	 0.00000000E+00	 6.25000000E-01	 0.00000000E+00
	 0.00000000E+00	 6.25000000E-01	 1.00000000E-01
	 0.00000000E+00	 5.00000000E-01	 0.00000000E+00
	 0.00000000E+00	 5.00000000E-01	 1.00000000E-01
	 0.00000000E+00	-1.00000000E+00	 0.00000000E+00
	-1.95090000E-01	-9.80785000E-01	 0.00000000E+00
	-1.95090000E-01	-9.80785000E-01	 1.00000000E-01
	 0.00000000E+00	-1.00000000E+00	 1.00000000E-01
	 0.00000000E+00	-8.75000000E-01	 0.00000000E+00
	-1.70704000E-01	-8.58187000E-01	-2.22045000E-16
	-1.70704000E-01	-8.58187000E-01	 1.00000000E-01
	 0.00000000E+00	-8.75000000E-01	 1.00000000E-01
	 0.00000000E+00	-7.50000000E-01	 0.00000000E+00
	-1.46318000E-01	-7.35589000E-01	 5.55112000E-17
	-1.46318000E-01	-7.35589000E-01	 1.00000000E-01
	 0.00000000E+00	-7.50000000E-01	 1.00000000E-01
	 0.00000000E+00	-6.25000000E-01	 0.00000000E+00
	-1.21931000E-01	-6.12991000E-01	 0.00000000E+00
	-1.21931000E-01	-6.12991000E-01	 1.00000000E-01
	 0.00000000E+00	-6.25000000E-01	 1.00000000E-01
	 0.00000000E+00	-5.00000000E-01	 0.00000000E+00
	-9.75452000E-02	-4.90393000E-01	 0.00000000E+00
	-9.75452000E-02	-4.90393000E-01	 1.00000000E-01
	 0.00000000E+00	-5.00000000E-01	 1.00000000E-01
	-3.82683000E-01	-9.23880000E-01	 0.00000000E+00
	-3.82683000E-01	-9.23880000E-01	 1.00000000E-01
	-3.34848000E-01	-8.08395000E-01	 0.00000000E+00
	-3.34848000E-01	-8.08395000E-01	 1.00000000E-01
	-2.87013000E-01	-6.92910000E-01	 1.11022000E-16
	-2.87013000E-01	-6.92910000E-01	 1.00000000E-01
	-2.39177000E-01	-5.77425000E-01	 1.11022000E-16
	-2.39177000E-01	-5.77425000E-01	 1.00000000E-01
	-1.91342000E-01	-4.61940000E-01	 0.00000000E+00
	-1.91342000E-01	-4.61940000E-01	 1.00000000E-01
	-5.55570000E-01	-8.31470000E-01	 0.00000000E+00
	-5.55570000E-01	-8.31470000E-01	 1.00000000E-01
	-4.86124000E-01	-7.27536000E-01	 0.00000000E+00
	-4.86124000E-01	-7.27536000E-01	 1.00000000E-01
	-4.16678000E-01	-6.23602000E-01	 0.00000000E+00
	-4.16678000E-01	-6.23602000E-01	 1.00000000E-01
	-3.47231000E-01	-5.19669000E-01	 0.00000000E+00
	-3.47231000E-01	-5.19669000E-01	 1.00000000E-01
	-2.77785000E-01	-4.15735000E-01	 0.00000000E+00
	-2.77785000E-01	-4.15735000E-01	 1.00000000E-01
	-7.07107000E-01	-7.07107000E-01	 0.00000000E+00
	-7.07107000E-01	-7.07107000E-01	 1.00000000E-01
	-6.18718000E-01	-6.18718000E-01	-1.11022000E-16
	-6.18718000E-01	-6.18718000E-01	 1.00000000E-01
	-5.30330000E-01	-5.30330000E-01	 5.55112000E-17
	-5.30330000E-01	-5.30330000E-01	 1.00000000E-01
	-4.41942000E-01	-4.41942000E-01	-2.22045000E-16
	-4.41942000E-01	-4.41942000E-01	 1.00000000E-01
	-3.53553000E-01	-3.53553000E-01	 0.00000000E+00
	-3.53553000E-01	-3.53553000E-01	 1.00000000E-01
	-8.31470000E-01	-5.55570000E-01	 0.00000000E+00
	-8.31470000E-01	-5.55570000E-01	 1.00000000E-01
	-7.27536000E-01	-4.86124000E-01	-1.11022000E-16
	-7.27536000E-01	-4.86124000E-01	 1.00000000E-01
	-6.23602000E-01	-4.16678000E-01	 0.00000000E+00
	-6.23602000E-01	-4.16678000E-01	 1.00000000E-01
	-5.19669000E-01	-3.47231000E-01	 0.00000000E+00
	-5.19669000E-01	-3.47231000E-01	 1.00000000E-01
	-4.15735000E-01	-2.77785000E-01	 0.00000000E+00
	-4.15735000E-01	-2.77785000E-01	 1.00000000E-01
	-9.23880000E-01	-3.82683000E-01	 0.00000000E+00
	-9.23880000E-01	-3.82683000E-01	 1.00000000E-01
	-8.08395000E-01	-3.34848000E-01	 5.55112000E-17
	-8.08395000E-01	-3.34848000E-01	 1.00000000E-01
	-6.92910000E-01	-2.87013000E-01	 5.55112000E-17
	-6.92910000E-01	-2.87013000E-01	 1.00000000E-01
	-5.77425000E-01	-2.39177000E-01	 1.11022000E-16
	-5.77425000E-01	-2.39177000E-01	 1.00000000E-01
	-4.61940000E-01	-1.91342000E-01	 0.00000000E+00
	-4.61940000E-01	-1.91342000E-01	 1.00000000E-01
	-9.80785000E-01	-1.95090000E-01	 0.00000000E+00
	-9.80785000E-01	-1.95090000E-01	 1.00000000E-01
	-8.58187000E-01	-1.70704000E-01	 5.55112000E-17
	-8.58187000E-01	-1.70704000E-01	 1.00000000E-01
	-7.35589000E-01	-1.46318000E-01	 0.00000000E+00
	-7.35589000E-01	-1.46318000E-01	 1.00000000E-01
	-6.12991000E-01	-1.21931000E-01	 0.00000000E+00
	-6.12991000E-01	-1.21931000E-01	 1.00000000E-01
	-4.90393000E-01	-9.75452000E-02	 0.00000000E+00
	-4.90393000E-01	-9.75452000E-02	 1.00000000E-01
	 1.00000000E+00	 0.00000000E+00	 0.00000000E+00
	 9.80785000E-01	-1.95090000E-01	 0.00000000E+00
	 9.80785000E-01	-1.95090000E-01	 1.00000000E-01
	 1.00000000E+00	 0.00000000E+00	 1.00000000E-01
	 8.75000000E-01	 0.00000000E+00	 0.00000000E+00
	 8.58187000E-01	-1.70704000E-01	-2.22045000E-16
	 8.58187000E-01	-1.70704000E-01	 1.00000000E-01
	 8.75000000E-01	 0.00000000E+00	 1.00000000E-01
	 7.50000000E-01	 0.00000000E+00	 0.00000000E+00
	 7.35589000E-01	-1.46318000E-01	 5.55112000E-17
	 7.35589000E-01	-1.46318000E-01	 1.00000000E-01
	 7.50000000E-01	 0.00000000E+00	 1.00000000E-01
	 6.25000000E-01	 0.00000000E+00	 0.00000000E+00
	 6.12991000E-01	-1.21931000E-01	 0.00000000E+00
	 6.12991000E-01	-1.21931000E-01	 1.00000000E-01
	 6.25000000E-01	 0.00000000E+00	 1.00000000E-01
	 5.00000000E-01	 0.00000000E+00	 0.00000000E+00
	 4.90393000E-01	-9.75452000E-02	 0.00000000E+00
	 4.90393000E-01	-9.75452000E-02	 1.00000000E-01
	 5.00000000E-01	 0.00000000E+00	 1.00000000E-01
	 9.23880000E-01	-3.82683000E-01	 0.00000000E+00
	 9.23880000E-01	-3.82683000E-01	 1.00000000E-01
	 8.08395000E-01	-3.34848000E-01	 0.00000000E+00
	 8.08395000E-01	-3.34848000E-01	 1.00000000E-01
	 6.92910000E-01	-2.87013000E-01	 1.11022000E-16
	 6.92910000E-01	-2.87013000E-01	 1.00000000E-01
	 5.77425000E-01	-2.39177000E-01	 1.11022000E-16
	 5.77425000E-01	-2.39177000E-01	 1.00000000E-01
	 4.61940000E-01	-1.91342000E-01	 0.00000000E+00
	 4.61940000E-01	-1.91342000E-01	 1.00000000E-01
	 8.31470000E-01	-5.55570000E-01	 0.00000000E+00
	 8.31470000E-01	-5.55570000E-01	 1.00000000E-01
[...]
POINT_DATA 320
FIELD V3DF 1
	V3DF 3 320 double
		 0.00000000E+00	-9.95185000E-01	 0.00000000E+00
		-1.94151000E-01	-9.76063000E-01	 0.00000000E+00
		-1.94151000E-01	-9.76063000E-01	 0.00000000E+00
		 0.00000000E+00	-9.95185000E-01	 0.00000000E+00
		-2.13500000E-02	-1.11978000E+00	 0.00000000E+00
		-2.39333000E-01	-1.09414000E+00	 0.00000000E+00
		-2.39333000E-01	-1.09414000E+00	 0.00000000E+00
		-2.13500000E-02	-1.11978000E+00	 0.00000000E+00
		-3.47026000E-02	-1.29185000E+00	 0.00000000E+00
		-2.85995000E-01	-1.26030000E+00	 0.00000000E+00
		-2.85995000E-01	-1.26030000E+00	 0.00000000E+00
		-3.47026000E-02	-1.29185000E+00	 0.00000000E+00
		-4.50110000E-02	-1.54446000E+00	 0.00000000E+00
		-3.45383000E-01	-1.50604000E+00	 0.00000000E+00
		-3.45383000E-01	-1.50604000E+00	 0.00000000E+00
		-4.50110000E-02	-1.54446000E+00	 0.00000000E+00
		 0.00000000E+00	-1.99037000E+00	 0.00000000E+00
		-3.88302000E-01	-1.95213000E+00	 0.00000000E+00
		-3.88302000E-01	-1.95213000E+00	 0.00000000E+00
		 0.00000000E+00	-1.99037000E+00	 0.00000000E+00
		-3.80841000E-01	-9.19431000E-01	 0.00000000E+00
		-3.80841000E-01	-9.19431000E-01	 0.00000000E+00
		-4.48141000E-01	-1.02644000E+00	 0.00000000E+00
		-4.48141000E-01	-1.02644000E+00	 0.00000000E+00
		-5.26320000E-01	-1.18031000E+00	 0.00000000E+00
		-5.26320000E-01	-1.18031000E+00	 0.00000000E+00
		-6.32505000E-01	-1.40974000E+00	 0.00000000E+00
		-6.32505000E-01	-1.40974000E+00	 0.00000000E+00
		-7.61681000E-01	-1.83886000E+00	 0.00000000E+00
		-7.61681000E-01	-1.83886000E+00	 0.00000000E+00
		-5.52895000E-01	-8.27466000E-01	 0.00000000E+00
		-5.52895000E-01	-8.27466000E-01	 0.00000000E+00
		-6.39782000E-01	-9.19258000E-01	 0.00000000E+00
		-6.39782000E-01	-9.19258000E-01	 0.00000000E+00
		-7.46490000E-01	-1.05491000E+00	 0.00000000E+00
		-7.46490000E-01	-1.05491000E+00	 0.00000000E+00
		-8.95400000E-01	-1.25921000E+00	 0.00000000E+00
		-8.95400000E-01	-1.25921000E+00	 0.00000000E+00
		-1.10579000E+00	-1.65493000E+00	 0.00000000E+00
		-1.10579000E+00	-1.65493000E+00	 0.00000000E+00
		-7.03702000E-01	-7.03702000E-01	 0.00000000E+00
		-7.03702000E-01	-7.03702000E-01	 0.00000000E+00
		-8.06864000E-01	-7.76731000E-01	 0.00000000E+00
		-8.06864000E-01	-7.76731000E-01	 0.00000000E+00
		-9.37985000E-01	-8.88973000E-01	 0.00000000E+00
		-9.37985000E-01	-8.88973000E-01	 0.00000000E+00
		-1.12389000E+00	-1.06030000E+00	 0.00000000E+00
		-1.12389000E+00	-1.06030000E+00	 0.00000000E+00
		-1.40740000E+00	-1.40740000E+00	 0.00000000E+00
		-1.40740000E+00	-1.40740000E+00	 0.00000000E+00
		-8.27466000E-01	-5.52895000E-01	 0.00000000E+00
		-8.27466000E-01	-5.52895000E-01	 0.00000000E+00
		-9.42891000E-01	-6.04434000E-01	 0.00000000E+00
		-9.42891000E-01	-6.04434000E-01	 0.00000000E+00
		-1.09338000E+00	-6.88956000E-01	 0.00000000E+00
		-1.09338000E+00	-6.88956000E-01	 0.00000000E+00
		-1.30912000E+00	-8.20727000E-01	 0.00000000E+00
		-1.30912000E+00	-8.20727000E-01	 0.00000000E+00
		-1.65493000E+00	-1.10579000E+00	 0.00000000E+00
		-1.65493000E+00	-1.10579000E+00	 0.00000000E+00
		-9.19431000E-01	-3.80841000E-01	 0.00000000E+00
		-9.19431000E-01	-3.80841000E-01	 0.00000000E+00
		-1.04264000E+00	-4.08929000E-01	 0.00000000E+00
		-1.04264000E+00	-4.08929000E-01	 0.00000000E+00
		-1.20672000E+00	-4.62450000E-01	 0.00000000E+00
		-1.20672000E+00	-4.62450000E-01	 0.00000000E+00
		-1.44404000E+00	-5.49588000E-01	 0.00000000E+00
		-1.44404000E+00	-5.49588000E-01	 0.00000000E+00
		-1.83886000E+00	-7.61681000E-01	 0.00000000E+00
		-1.83886000E+00	-7.61681000E-01	 0.00000000E+00
		-9.76063000E-01	-1.94151000E-01	 0.00000000E+00
		-9.76063000E-01	-1.94151000E-01	 0.00000000E+00
		-1.10234000E+00	-1.97606000E-01	 0.00000000E+00
		-1.10234000E+00	-1.97606000E-01	 0.00000000E+00
		-1.27370000E+00	-2.18065000E-01	 0.00000000E+00
		-1.27370000E+00	-2.18065000E-01	 0.00000000E+00
		-1.52346000E+00	-2.57218000E-01	 0.00000000E+00
		-1.52346000E+00	-2.57218000E-01	 0.00000000E+00
		-1.95213000E+00	-3.88302000E-01	 0.00000000E+00
		-1.95213000E+00	-3.88302000E-01	 0.00000000E+00
		-9.95185000E-01	 0.00000000E+00	 0.00000000E+00
		-9.95185000E-01	 0.00000000E+00	 0.00000000E+00
		-1.11970000E+00	 2.13239000E-02	 0.00000000E+00
		-1.11970000E+00	 2.13239000E-02	 0.00000000E+00
		-1.29175000E+00	 3.47193000E-02	 0.00000000E+00
		-1.29175000E+00	 3.47193000E-02	 0.00000000E+00
		-1.54435000E+00	 4.50644000E-02	 0.00000000E+00
		-1.54435000E+00	 4.50644000E-02	 0.00000000E+00
		-1.99037000E+00	 0.00000000E+00	 0.00000000E+00
		-1.99037000E+00	 0.00000000E+00	 0.00000000E+00
		 9.95185000E-01	 0.00000000E+00	 0.00000000E+00
		 9.76063000E-01	-1.94151000E-01	 0.00000000E+00
		 9.76063000E-01	-1.94151000E-01	 0.00000000E+00
		 9.95185000E-01	 0.00000000E+00	 0.00000000E+00
		 1.11974000E+00	-2.14185000E-02	 0.00000000E+00
		 1.09409000E+00	-2.39441000E-01	 0.00000000E+00
		 1.09409000E+00	-2.39441000E-01	 0.00000000E+00
		 1.11974000E+00	-2.14185000E-02	 0.00000000E+00
		 1.29184000E+00	-3.47697000E-02	 0.00000000E+00
		 1.26029000E+00	-2.86098000E-01	 0.00000000E+00
		 1.26029000E+00	-2.86098000E-01	 0.00000000E+00
		 1.29184000E+00	-3.47697000E-02	 0.00000000E+00
		 1.54448000E+00	-4.50400000E-02	 0.00000000E+00
		 1.50606000E+00	-3.45443000E-01	 0.00000000E+00
		 1.50606000E+00	-3.45443000E-01	 0.00000000E+00
		 1.54448000E+00	-4.50400000E-02	 0.00000000E+00
		 1.99037000E+00	 0.00000000E+00	 0.00000000E+00
		 1.95213000E+00	-3.88302000E-01	 0.00000000E+00
		 1.95213000E+00	-3.88302000E-01	 0.00000000E+00
		 1.99037000E+00	 0.00000000E+00	 0.00000000E+00
		 9.19431000E-01	-3.80841000E-01	 0.00000000E+00
		 9.19431000E-01	-3.80841000E-01	 0.00000000E+00
		 1.02641000E+00	-4.48205000E-01	 0.00000000E+00
		 1.02641000E+00	-4.48205000E-01	 0.00000000E+00
		 1.18031000E+00	-5.26378000E-01	 0.00000000E+00
		 1.18031000E+00	-5.26378000E-01	 0.00000000E+00
		 1.40976000E+00	-6.32553000E-01	 0.00000000E+00
		 1.40976000E+00	-6.32553000E-01	 0.00000000E+00
		 1.83886000E+00	-7.61681000E-01	 0.00000000E+00
		 1.83886000E+00	-7.61681000E-01	 0.00000000E+00
		 8.27466000E-01	-5.52895000E-01	 0.00000000E+00
		 8.27466000E-01	-5.52895000E-01	 0.00000000E+00
		 9.19233000E-01	-6.39805000E-01	 0.00000000E+00
		 9.19233000E-01	-6.39805000E-01	 0.00000000E+00
		 1.05491000E+00	-7.46509000E-01	 0.00000000E+00
		 1.05491000E+00	-7.46509000E-01	 0.00000000E+00
		 1.25921000E+00	-8.95442000E-01	 0.00000000E+00
		 1.25921000E+00	-8.95442000E-01	 0.00000000E+00
		 1.65493000E+00	-1.10579000E+00	 0.00000000E+00
		 1.65493000E+00	-1.10579000E+00	 0.00000000E+00
		 7.03702000E-01	-7.03702000E-01	 0.00000000E+00
		 7.03702000E-01	-7.03702000E-01	 0.00000000E+00
		 7.76685000E-01	-8.06859000E-01	 0.00000000E+00
		 7.76685000E-01	-8.06859000E-01	 0.00000000E+00
		 8.88907000E-01	-9.37990000E-01	 0.00000000E+00
		 8.88907000E-01	-9.37990000E-01	 0.00000000E+00
		 1.06022000E+00	-1.12394000E+00	 0.00000000E+00
		 1.06022000E+00	-1.12394000E+00	 0.00000000E+00
		 1.40740000E+00	-1.40740000E+00	 0.00000000E+00
		 1.40740000E+00	-1.40740000E+00	 0.00000000E+00
		 5.52895000E-01	-8.27466000E-01	 0.00000000E+00
		 5.52895000E-01	-8.27466000E-01	 0.00000000E+00
		 6.04325000E-01	-9.42897000E-01	 0.00000000E+00
		 6.04325000E-01	-9.42897000E-01	 0.00000000E+00
		 6.88803000E-01	-1.09341000E+00	 0.00000000E+00
		 6.88803000E-01	-1.09341000E+00	 0.00000000E+00
		 8.20579000E-01	-1.30919000E+00	 0.00000000E+00
		 8.20579000E-01	-1.30919000E+00	 0.00000000E+00
		 1.10579000E+00	-1.65493000E+00	 0.00000000E+00
		 1.10579000E+00	-1.65493000E+00	 0.00000000E+00
		 3.80841000E-01	-9.19431000E-01	 0.00000000E+00
		 3.80841000E-01	-9.19431000E-01	 0.00000000E+00
		 4.08797000E-01	-1.04268000E+00	 0.00000000E+00
		 4.08797000E-01	-1.04268000E+00	 0.00000000E+00
		 4.62314000E-01	-1.20677000E+00	 0.00000000E+00
		 4.62314000E-01	-1.20677000E+00	 0.00000000E+00
		 5.49480000E-01	-1.44411000E+00	 0.00000000E+00
		 5.49480000E-01	-1.44411000E+00	 0.00000000E+00
		 7.61681000E-01	-1.83886000E+00	 0.00000000E+00
		 7.61681000E-01	-1.83886000E+00	 0.00000000E+00
		 1.94151000E-01	-9.76063000E-01	 0.00000000E+00
		 1.94151000E-01	-9.76063000E-01	 0.00000000E+00
		 1.97514000E-01	-1.10240000E+00	 0.00000000E+00
		 1.97514000E-01	-1.10240000E+00	 0.00000000E+00
		 2.17996000E-01	-1.27377000E+00	 0.00000000E+00
		 2.17996000E-01	-1.27377000E+00	 0.00000000E+00
		 2.57177000E-01	-1.52355000E+00	 0.00000000E+00
		 2.57177000E-01	-1.52355000E+00	 0.00000000E+00
		 3.88302000E-01	-1.95213000E+00	 0.00000000E+00
		 3.88302000E-01	-1.95213000E+00	 0.00000000E+00
		 0.00000000E+00	 9.95185000E-01	 0.00000000E+00
		 1.94151000E-01	 9.76063000E-01	 0.00000000E+00
		 1.94151000E-01	 9.76063000E-01	 0.00000000E+00
		 0.00000000E+00	 9.95185000E-01	 0.00000000E+00
		 2.14215000E-02	 1.11970000E+00	 0.00000000E+00
		 2.39436000E-01	 1.09410000E+00	 0.00000000E+00
		 2.39436000E-01	 1.09410000E+00	 0.00000000E+00
		 2.14215000E-02	 1.11970000E+00	 0.00000000E+00
		 3.47892000E-02	 1.29175000E+00	 0.00000000E+00
		 2.86109000E-01	 1.26026000E+00	 0.00000000E+00
		 2.86109000E-01	 1.26026000E+00	 0.00000000E+00
		 3.47892000E-02	 1.29175000E+00	 0.00000000E+00
		 4.51039000E-02	 1.54437000E+00	 0.00000000E+00
		 3.45501000E-01	 1.50599000E+00	 0.00000000E+00
		 3.45501000E-01	 1.50599000E+00	 0.00000000E+00
		 4.51039000E-02	 1.54437000E+00	 0.00000000E+00
		 0.00000000E+00	 1.99037000E+00	 0.00000000E+00
		 3.88302000E-01	 1.95213000E+00	 0.00000000E+00
		 3.88302000E-01	 1.95213000E+00	 0.00000000E+00
		 0.00000000E+00	 1.99037000E+00	 0.00000000E+00
		 3.80841000E-01	 9.19431000E-01	 0.00000000E+00
		 3.80841000E-01	 9.19431000E-01	 0.00000000E+00
		 4.48202000E-01	 1.02646000E+00	 0.00000000E+00
		 4.48202000E-01	 1.02646000E+00	 0.00000000E+00
		 5.26375000E-01	 1.18035000E+00	 0.00000000E+00
		 5.26375000E-01	 1.18035000E+00	 0.00000000E+00
		 6.32549000E-01	 1.40977000E+00	 0.00000000E+00
		 6.32549000E-01	 1.40977000E+00	 0.00000000E+00
		 7.61681000E-01	 1.83886000E+00	 0.00000000E+00
		 7.61681000E-01	 1.83886000E+00	 0.00000000E+00
		 5.52895000E-01	 8.27466000E-01	 0.00000000E+00
		 5.52895000E-01	 8.27466000E-01	 0.00000000E+00
		 6.39785000E-01	 9.19348000E-01	 0.00000000E+00
		 6.39785000E-01	 9.19348000E-01	 0.00000000E+00
		 7.46473000E-01	 1.05503000E+00	 0.00000000E+00
		 7.46473000E-01	 1.05503000E+00	 0.00000000E+00
		 8.95362000E-01	 1.25934000E+00	 0.00000000E+00
		 8.95362000E-01	 1.25934000E+00	 0.00000000E+00
		 1.10579000E+00	 1.65493000E+00	 0.00000000E+00
		 1.10579000E+00	 1.65493000E+00	 0.00000000E+00
		 7.03702000E-01	 7.03702000E-01	 0.00000000E+00
		 7.03702000E-01	 7.03702000E-01	 0.00000000E+00
		 8.06831000E-01	 7.76831000E-01	 0.00000000E+00
		 8.06831000E-01	 7.76831000E-01	 0.00000000E+00
		 9.37955000E-01	 8.89081000E-01	 0.00000000E+00
		 9.37955000E-01	 8.89081000E-01	 0.00000000E+00
		 1.12386000E+00	 1.06041000E+00	 0.00000000E+00
		 1.12386000E+00	 1.06041000E+00	 0.00000000E+00
		 1.40740000E+00	 1.40740000E+00	 0.00000000E+00
		 1.40740000E+00	 1.40740000E+00	 0.00000000E+00
		 8.27466000E-01	 5.52895000E-01	 0.00000000E+00
		 8.27466000E-01	 5.52895000E-01	 0.00000000E+00
		 9.42894000E-01	 6.04415000E-01	 0.00000000E+00
		 9.42894000E-01	 6.04415000E-01	 0.00000000E+00
		 1.09341000E+00	 6.88939000E-01	 0.00000000E+00
		 1.09341000E+00	 6.88939000E-01	 0.00000000E+00
		 1.30917000E+00	 8.20721000E-01	 0.00000000E+00
		 1.30917000E+00	 8.20721000E-01	 0.00000000E+00
		 1.65493000E+00	 1.10579000E+00	 0.00000000E+00
		 1.65493000E+00	 1.10579000E+00	 0.00000000E+00
		 9.19431000E-01	 3.80841000E-01	 0.00000000E+00
		 9.19431000E-01	 3.80841000E-01	 0.00000000E+00
		 1.04270000E+00	 4.08831000E-01	 0.00000000E+00
		 1.04270000E+00	 4.08831000E-01	 0.00000000E+00
		 1.20681000E+00	 4.62386000E-01	 0.00000000E+00
		 1.20681000E+00	 4.62386000E-01	 0.00000000E+00
		 1.44414000E+00	 5.49550000E-01	 0.00000000E+00
		 1.44414000E+00	 5.49550000E-01	 0.00000000E+00
		 1.83886000E+00	 7.61681000E-01	 0.00000000E+00
		 1.83886000E+00	 7.61681000E-01	 0.00000000E+00
		 9.76063000E-01	 1.94151000E-01	 0.00000000E+00
		 9.76063000E-01	 1.94151000E-01	 0.00000000E+00
		 1.10240000E+00	 1.97530000E-01	 0.00000000E+00
		 1.10240000E+00	 1.97530000E-01	 0.00000000E+00
		 1.27380000E+00	 2.18023000E-01	 0.00000000E+00
		 1.27380000E+00	 2.18023000E-01	 0.00000000E+00
		 1.52358000E+00	 2.57211000E-01	 0.00000000E+00
		 1.52358000E+00	 2.57211000E-01	 0.00000000E+00
		 1.95213000E+00	 3.88302000E-01	 0.00000000E+00
		 1.95213000E+00	 3.88302000E-01	 0.00000000E+00
		-9.76063000E-01	 1.94151000E-01	 0.00000000E+00
		-9.76063000E-01	 1.94151000E-01	 0.00000000E+00
		-1.09403000E+00	 2.39398000E-01	 0.00000000E+00
		-1.09403000E+00	 2.39398000E-01	 0.00000000E+00
		-1.26019000E+00	 2.86104000E-01	 0.00000000E+00
		-1.26019000E+00	 2.86104000E-01	 0.00000000E+00
		-1.50594000E+00	 3.45507000E-01	 0.00000000E+00
		-1.50594000E+00	 3.45507000E-01	 0.00000000E+00
		-1.95213000E+00	 3.88302000E-01	 0.00000000E+00
		-1.95213000E+00	 3.88302000E-01	 0.00000000E+00
		-9.19431000E-01	 3.80841000E-01	 0.00000000E+00
		-9.19431000E-01	 3.80841000E-01	 0.00000000E+00
		-1.02637000E+00	 4.48214000E-01	 0.00000000E+00
		-1.02637000E+00	 4.48214000E-01	 0.00000000E+00
		-1.18025000E+00	 5.26397000E-01	 0.00000000E+00
		-1.18025000E+00	 5.26397000E-01	 0.00000000E+00
		-1.40970000E+00	 6.32560000E-01	 0.00000000E+00
		-1.40970000E+00	 6.32560000E-01	 0.00000000E+00
		-1.83886000E+00	 7.61681000E-01	 0.00000000E+00
		-1.83886000E+00	 7.61681000E-01	 0.00000000E+00
		-8.27466000E-01	 5.52895000E-01	 0.00000000E+00
		-8.27466000E-01	 5.52895000E-01	 0.00000000E+00
		-9.19284000E-01	 6.39761000E-01	 0.00000000E+00
		-9.19284000E-01	 6.39761000E-01	 0.00000000E+00
		-1.05496000E+00	 7.46441000E-01	 0.00000000E+00
		-1.05496000E+00	 7.46441000E-01	 0.00000000E+00
		-1.25928000E+00	 8.95335000E-01	 0.00000000E+00
		-1.25928000E+00	 8.95335000E-01	 0.00000000E+00
		-1.65493000E+00	 1.10579000E+00	 0.00000000E+00
		-1.65493000E+00	 1.10579000E+00	 0.00000000E+00
		-7.03702000E-01	 7.03702000E-01	 0.00000000E+00
		-7.03702000E-01	 7.03702000E-01	 0.00000000E+00
		-7.76810000E-01	 8.06760000E-01	 0.00000000E+00
		-7.76810000E-01	 8.06760000E-01	 0.00000000E+00
		-8.89046000E-01	 9.37864000E-01	 0.00000000E+00
		-8.89046000E-01	 9.37864000E-01	 0.00000000E+00
		-1.06037000E+00	 1.12379000E+00	 0.00000000E+00
		-1.06037000E+00	 1.12379000E+00	 0.00000000E+00
		-1.40740000E+00	 1.40740000E+00	 0.00000000E+00
		-1.40740000E+00	 1.40740000E+00	 0.00000000E+00
		-5.52895000E-01	 8.27466000E-01	 0.00000000E+00
		-5.52895000E-01	 8.27466000E-01	 0.00000000E+00
		-6.04410000E-01	 9.42786000E-01	 0.00000000E+00
		-6.04410000E-01	 9.42786000E-01	 0.00000000E+00
		-6.88878000E-01	 1.09327000E+00	 0.00000000E+00
		-6.88878000E-01	 1.09327000E+00	 0.00000000E+00
		-8.20620000E-01	 1.30908000E+00	 0.00000000E+00
		-8.20620000E-01	 1.30908000E+00	 0.00000000E+00
		-1.10579000E+00	 1.65493000E+00	 0.00000000E+00
		-1.10579000E+00	 1.65493000E+00	 0.00000000E+00
		-3.80841000E-01	 9.19431000E-01	 0.00000000E+00
		-3.80841000E-01	 9.19431000E-01	 0.00000000E+00
		-4.08794000E-01	 1.04258000E+00	 0.00000000E+00
		-4.08794000E-01	 1.04258000E+00	 0.00000000E+00
		-4.62270000E-01	 1.20667000E+00	 0.00000000E+00
		-4.62270000E-01	 1.20667000E+00	 0.00000000E+00
		-5.49408000E-01	 1.44403000E+00	 0.00000000E+00
		-5.49408000E-01	 1.44403000E+00	 0.00000000E+00
		-7.61681000E-01	 1.83886000E+00	 0.00000000E+00
		-7.61681000E-01	 1.83886000E+00	 0.00000000E+00
		-1.94151000E-01	 9.76063000E-01	 0.00000000E+00
		-1.94151000E-01	 9.76063000E-01	 0.00000000E+00
		-1.97487000E-01	 1.10231000E+00	 0.00000000E+00
		-1.97487000E-01	 1.10231000E+00	 0.00000000E+00
		-2.17942000E-01	 1.27367000E+00	 0.00000000E+00
		-2.17942000E-01	 1.27367000E+00	 0.00000000E+00
		-2.57118000E-01	 1.52346000E+00	 0.00000000E+00
		-2.57118000E-01	 1.52346000E+00	 0.00000000E+00
		-3.88302000E-01	 1.95213000E+00	 0.00000000E+00
		-3.88302000E-01	 1.95213000E+00	 0.00000000E+00
FIELD PS3DF 1
	PS3DF 1 320 double
		 2.72323000E+00
		 2.72323000E+00
		 2.72323000E+00
		 2.72323000E+00
		 1.69207000E+00
		 1.69202000E+00
		 1.69202000E+00
		 1.69207000E+00
		 9.80292000E-01
		 9.80254000E-01
		 9.80254000E-01
		 9.80292000E-01
		 5.78157000E-01
		 5.78149000E-01
		 5.78149000E-01
		 5.78157000E-01
		 1.09899000E-01
		 1.09894000E-01
		 1.09894000E-01
		 1.09899000E-01
		 2.72359000E+00
		 2.72359000E+00
		 1.69212000E+00
		 1.69212000E+00
		 9.80219000E-01
		 9.80219000E-01
		 5.78137000E-01
		 5.78137000E-01
		 1.09884000E-01
		 1.09884000E-01
		 2.72407000E+00
		 2.72407000E+00
		 1.69227000E+00
		 1.69227000E+00
		 9.80188000E-01
		 9.80188000E-01
		 5.78115000E-01
		 5.78115000E-01
		 1.09867000E-01
		 1.09867000E-01
		 2.72436000E+00
		 2.72436000E+00
		 1.69236000E+00
		 1.69236000E+00
		 9.80166000E-01
		 9.80166000E-01
		 5.78088000E-01
		 5.78088000E-01
		 1.09847000E-01
		 1.09847000E-01
		 2.72438000E+00
		 2.72438000E+00
		 1.69239000E+00
		 1.69239000E+00
		 9.80185000E-01
		 9.80185000E-01
		 5.78075000E-01
		 5.78075000E-01
		 1.09824000E-01
		 1.09824000E-01
		 2.72451000E+00
		 2.72451000E+00
		 1.69248000E+00
		 1.69248000E+00
		 9.80223000E-01
		 9.80223000E-01
		 5.78069000E-01
		 5.78069000E-01
		 1.09799000E-01
		 1.09799000E-01
		 2.72478000E+00
		 2.72478000E+00
		 1.69259000E+00
		 1.69259000E+00
		 9.80230000E-01
		 9.80230000E-01
		 5.78063000E-01
		 5.78063000E-01
		 1.09775000E-01
		 1.09775000E-01
		 2.72469000E+00
		 2.72469000E+00
		 1.69255000E+00
		 1.69255000E+00
		 9.80167000E-01
		 9.80167000E-01
		 5.77948000E-01
		 5.77948000E-01
		 1.09649000E-01
		 1.09649000E-01
		 2.72431000E+00
		 2.72386000E+00
		 2.72386000E+00
		 2.72431000E+00
		 1.69250000E+00
		 1.69239000E+00
		 1.69239000E+00
		 1.69250000E+00
		 9.80187000E-01
		 9.80272000E-01
		 9.80272000E-01
		 9.80187000E-01
		 5.77875000E-01
		 5.77945000E-01
		 5.77945000E-01
		 5.77875000E-01
		 1.09629000E-01
		 1.09667000E-01
		 1.09667000E-01
		 1.09629000E-01
		 2.72359000E+00
		 2.72359000E+00
		 1.69235000E+00
		 1.69235000E+00
		 9.80360000E-01
		 9.80360000E-01
		 5.78016000E-01
		 5.78016000E-01
		 1.09709000E-01
		 1.09709000E-01
		 2.72374000E+00
		 2.72374000E+00
		 1.69244000E+00
		 1.69244000E+00
		 9.80404000E-01
		 9.80404000E-01
		 5.78064000E-01
		 5.78064000E-01
		 1.09756000E-01
		 1.09756000E-01
		 2.72389000E+00
		 2.72389000E+00
		 1.69248000E+00
		 1.69248000E+00
		 9.80402000E-01
		 9.80402000E-01
		 5.78092000E-01
		 5.78092000E-01
		 1.09803000E-01
		 1.09803000E-01
		 2.72374000E+00
		 2.72374000E+00
		 1.69239000E+00
		 1.69239000E+00
		 9.80381000E-01
		 9.80381000E-01
		 5.78118000E-01
		 5.78118000E-01
		 1.09848000E-01
		 1.09848000E-01
		 2.72348000E+00
		 2.72348000E+00
		 1.69225000E+00
		 1.69225000E+00
		 9.80363000E-01
		 9.80363000E-01
		 5.78147000E-01
		 5.78147000E-01
		 1.09882000E-01
		 1.09882000E-01
		 2.72336000E+00
		 2.72336000E+00
		 1.69217000E+00
		 1.69217000E+00
		 9.80333000E-01
		 9.80333000E-01
		 5.78161000E-01
		 5.78161000E-01
		 1.09897000E-01
		 1.09897000E-01
		 2.72348000E+00
		 2.72287000E+00
		 2.72287000E+00
		 2.72348000E+00
		 1.69193000E+00
		 1.69167000E+00
		 1.69167000E+00
		 1.69193000E+00
		 9.79861000E-01
		 9.79781000E-01
		 9.79781000E-01
		 9.79861000E-01
		 5.77700000E-01
		 5.77601000E-01
		 5.77601000E-01
		 5.77700000E-01
		 1.09535000E-01
		 1.09462000E-01
		 1.09462000E-01
		 1.09535000E-01
		 2.72267000E+00
		 2.72267000E+00
		 1.69160000E+00
		 1.69160000E+00
		 9.79790000E-01
		 9.79790000E-01
		 5.77627000E-01
		 5.77627000E-01
		 1.09497000E-01
		 1.09497000E-01
		 2.72318000E+00
		 2.72318000E+00
		 1.69181000E+00
		 1.69181000E+00
		 9.79825000E-01
		 9.79825000E-01
		 5.77651000E-01
		 5.77651000E-01
		 1.09522000E-01
		 1.09522000E-01
		 2.72396000E+00
		 2.72396000E+00
		 1.69214000E+00
		 1.69214000E+00
		 9.79877000E-01
		 9.79877000E-01
		 5.77675000E-01