<?xml version="1.0"?>
<VTKFile type="UnstructuredGrid" version="0.1" byte_order="LittleEndian">
	<UnstructuredGrid>
		<Piece NumberOfPoints="128" NumberOfCells="54">
			<Points>
				<DataArray type="Float64" NumberOfComponents="3" format="ascii">
					 1.00000000E+00	 1.00000000E+00	 0.00000000E+00
					 1.00000000E+00	 6.66667000E-01	 0.00000000E+00
					 1.00000000E+00	 6.66667000E-01	 3.33333000E-01
					 1.00000000E+00	 1.00000000E+00	 3.33333000E-01
					 6.66667000E-01	 1.00000000E+00	 0.00000000E+00
					 6.66667000E-01	 6.66667000E-01	 0.00000000E+00
					 6.66667000E-01	 6.66667000E-01	 3.33333000E-01
					 6.66667000E-01	 1.00000000E+00	 3.33333000E-01
					 1.00000000E+00	 6.66667000E-01	 6.66667000E-01
					 1.00000000E+00	 1.00000000E+00	 6.66667000E-01
					 6.66667000E-01	 6.66667000E-01	 6.66667000E-01
					 6.66667000E-01	 1.00000000E+00	 6.66667000E-01
					 1.00000000E+00	 6.66667000E-01	 1.00000000E+00
					 1.00000000E+00	 1.00000000E+00	 1.00000000E+00
					 6.66667000E-01	 6.66667000E-01	 1.00000000E+00
					 6.66667000E-01	 1.00000000E+00	 1.00000000E+00
					 3.33333000E-01	 1.00000000E+00	 0.00000000E+00
					 3.33333000E-01	 6.66667000E-01	 0.00000000E+00
					 3.33333000E-01	 6.66667000E-01	 3.33333000E-01
					 3.33333000E-01	 1.00000000E+00	 3.33333000E-01
					 3.33333000E-01	 6.66667000E-01	 6.66667000E-01
					 3.33333000E-01	 1.00000000E+00	 6.66667000E-01
					 3.33333000E-01	 6.66667000E-01	 1.00000000E+00
					 3.33333000E-01	 1.00000000E+00	 1.00000000E+00
					 0.00000000E+00	 1.00000000E+00	 0.00000000E+00
					 0.00000000E+00	 6.66667000E-01	 0.00000000E+00
					 0.00000000E+00	 6.66667000E-01	 3.33333000E-01
					 0.00000000E+00	 1.00000000E+00	 3.33333000E-01
					 0.00000000E+00	 6.66667000E-01	 6.66667000E-01
					 0.00000000E+00	 1.00000000E+00	 6.66667000E-01
					 0.00000000E+00	 6.66667000E-01	 1.00000000E+00
					 0.00000000E+00	 1.00000000E+00	 1.00000000E+00
					 1.00000000E+00	 3.33333000E-01	 0.00000000E+00
					 1.00000000E+00	 3.33333000E-01	 3.33333000E-01
					 6.66667000E-01	 3.33333000E-01	 0.00000000E+00
					 6.66667000E-01	 3.33333000E-01	 3.33333000E-01
					 1.00000000E+00	 3.33333000E-01	 6.66667000E-01
					 6.66667000E-01	 3.33333000E-01	 6.66667000E-01
					 1.00000000E+00	 3.33333000E-01	 1.00000000E+00
					 6.66667000E-01	 3.33333000E-01	 1.00000000E+00
					 3.33333000E-01	 3.33333000E-01	 0.00000000E+00
					 3.33333000E-01	 3.33333000E-01	 3.33333000E-01
					 3.33333000E-01	 3.33333000E-01	 6.66667000E-01
					 3.33333000E-01	 3.33333000E-01	 1.00000000E+00
					 0.00000000E+00	 3.33333000E-01	 0.00000000E+00
					 0.00000000E+00	 3.33333000E-01	 3.33333000E-01
					 0.00000000E+00	 3.33333000E-01	 6.66667000E-01
					 0.00000000E+00	 3.33333000E-01	 1.00000000E+00
					 1.00000000E+00	 0.00000000E+00	 0.00000000E+00
					 1.00000000E+00	 0.00000000E+00	 3.33333000E-01
					 6.66667000E-01	 0.00000000E+00	 0.00000000E+00
					 6.66667000E-01	 0.00000000E+00	 3.33333000E-01
					 1.00000000E+00	 0.00000000E+00	 6.66667000E-01
					 6.66667000E-01	 0.00000000E+00	 6.66667000E-01
					 1.00000000E+00	 0.00000000E+00	 1.00000000E+00
					 6.66667000E-01	 0.00000000E+00	 1.00000000E+00
					 3.33333000E-01	 0.00000000E+00	 0.00000000E+00
					 3.33333000E-01	 0.00000000E+00	 3.33333000E-01
					 3.33333000E-01	 0.00000000E+00	 6.66667000E-01
					 3.33333000E-01	 0.00000000E+00	 1.00000000E+00
					 0.00000000E+00	 0.00000000E+00	 0.00000000E+00
					 0.00000000E+00	 0.00000000E+00	 3.33333000E-01
					 0.00000000E+00	 0.00000000E+00	 6.66667000E-01
					 0.00000000E+00	 0.00000000E+00	 1.00000000E+00
					 5.00000000E-01	 5.00000000E-01	 1.00000000E+00
					 5.00000000E-01	 3.33333000E-01	 1.00000000E+00
					 5.00000000E-01	 3.33333000E-01	 1.16667000E+00
					 5.00000000E-01	 5.00000000E-01	 1.16667000E+00
					 3.33333000E-01	 5.00000000E-01	 1.00000000E+00
					 3.33333000E-01	 3.33333000E-01	 1.00000000E+00
					 3.33333000E-01	 3.33333000E-01	 1.16667000E+00
					 3.33333000E-01	 5.00000000E-01	 1.16667000E+00
					 5.00000000E-01	 3.33333000E-01	 1.33333000E+00
					 5.00000000E-01	 5.00000000E-01	 1.33333000E+00
					 3.33333000E-01	 3.33333000E-01	 1.33333000E+00
					 3.33333000E-01	 5.00000000E-01	 1.33333000E+00
					 5.00000000E-01	 3.33333000E-01	 1.50000000E+00
					 5.00000000E-01	 5.00000000E-01	 1.50000000E+00
					 3.33333000E-01	 3.33333000E-01	 1.50000000E+00
					 3.33333000E-01	 5.00000000E-01	 1.50000000E+00
					 1.66667000E-01	 5.00000000E-01	 1.00000000E+00
					 1.66667000E-01	 3.33333000E-01	 1.00000000E+00
					 1.66667000E-01	 3.33333000E-01	 1.16667000E+00
					 1.66667000E-01	 5.00000000E-01	 1.16667000E+00
					 1.66667000E-01	 3.33333000E-01	 1.33333000E+00
					 1.66667000E-01	 5.00000000E-01	 1.33333000E+00
					 1.66667000E-01	 3.33333000E-01	 1.50000000E+00
					 1.66667000E-01	 5.00000000E-01	 1.50000000E+00
					 0.00000000E+00	 5.00000000E-01	 1.00000000E+00
					 0.00000000E+00	 3.33333000E-01	 1.00000000E+00
					 0.00000000E+00	 3.33333000E-01	 1.16667000E+00
					 0.00000000E+00	 5.00000000E-01	 1.16667000E+00
					 0.00000000E+00	 3.33333000E-01	 1.33333000E+00
					 0.00000000E+00	 5.00000000E-01	 1.33333000E+00
					 0.00000000E+00	 3.33333000E-01	 1.50000000E+00
					 0.00000000E+00	 5.00000000E-01	 1.50000000E+00
					 5.00000000E-01	 1.66667000E-01	 1.00000000E+00
					 5.00000000E-01	 1.66667000E-01	 1.16667000E+00
					 3.33333000E-01	 1.66667000E-01	 1.00000000E+00
					 3.33333000E-01	 1.66667000E-01	 1.16667000E+00
					 5.00000000E-01	 1.66667000E-01	 1.33333000E+00
					 3.33333000E-01	 1.66667000E-01	 1.33333000E+00
					 5.00000000E-01	 1.66667000E-01	 1.50000000E+00
					 3.33333000E-01	 1.66667000E-01	 1.50000000E+00
					 1.66667000E-01	 1.66667000E-01	 1.00000000E+00
					 1.66667000E-01	 1.66667000E-01	 1.16667000E+00
					 1.66667000E-01	 1.66667000E-01	 1.33333000E+00
					 1.66667000E-01	 1.66667000E-01	 1.50000000E+00
					 0.00000000E+00	 1.66667000E-01	 1.00000000E+00
					 0.00000000E+00	 1.66667000E-01	 1.16667000E+00
					 0.00000000E+00	 1.66667000E-01	 1.33333000E+00
					 0.00000000E+00	 1.66667000E-01	 1.50000000E+00
					 5.00000000E-01	 0.00000000E+00	 1.00000000E+00
					 5.00000000E-01	 0.00000000E+00	 1.16667000E+00
					 3.33333000E-01	 0.00000000E+00	 1.00000000E+00
					 3.33333000E-01	 0.00000000E+00	 1.16667000E+00
					 5.00000000E-01	 0.00000000E+00	 1.33333000E+00
					 3.33333000E-01	 0.00000000E+00	 1.33333000E+00
					 5.00000000E-01	 0.00000000E+00	 1.50000000E+00
					 3.33333000E-01	 0.00000000E+00	 1.50000000E+00
					 1.66667000E-01	 0.00000000E+00	 1.00000000E+00
					 1.66667000E-01	 0.00000000E+00	 1.16667000E+00
					 1.66667000E-01	 0.00000000E+00	 1.33333000E+00
					 1.66667000E-01	 0.00000000E+00	 1.50000000E+00
					 0.00000000E+00	 0.00000000E+00	 1.00000000E+00
					 0.00000000E+00	 0.00000000E+00	 1.16667000E+00
					 0.00000000E+00	 0.00000000E+00	 1.33333000E+00
					 0.00000000E+00	 0.00000000E+00	 1.50000000E+00

				</DataArray>
			</Points>
			<Cells>
				<DataArray type="Int32" Name="connectivity" format="ascii">
					0 1 2 3 4 5 6 7 3 2 8 9 7 6 10 11 9 8 12 13 11 10 14 15 4 5 6 7 16 17 18 19 7 6 10 11 19 18 20 21 11 10 14 15 21 20 22 23 16 17 18 19 24 25 26 27 19 18 20 21 27 26 28 29 21 20 22 23 29 28 30 31 1 32 33 2 5 34 35 6 2 33 36 8 6 35 37 10 8 36 38 12 10 37 39 14 5 34 35 6 17 40 41 18 6 35 37 10 18 41 42 20 10 37 39 14 20 42 43 22 17 40 41 18 25 44 45 26 18 41 42 20 26 45 46 28 20 42 43 22 28 46 47 30 32 48 49 33 34 50 51 35 33 49 52 36 35 51 53 37 36 52 54 38 37 53 55 39 34 50 51 35 40 56 57 41 35 51 53 37 41 57 58 42 37 53 55 39 42 58 59 43 40 56 57 41 44 60 61 45 41 57 58 42 45 61 62 46 42 58 59 43 46 62 63 47 64 65 66 67 68 69 70 71 67 66 72 73 71 70 74 75 73 72 76 77 75 74 78 79 68 69 70 71 80 81 82 83 71 70 74 75 83 82 84 85 75 74 78 79 85 84 86 87 80 81 82 83 88 89 90 91 83 82 84 85 91 90 92 93 85 84 86 87 93 92 94 95 65 96 97 66 69 98 99 70 66 97 100 72 70 99 101 74 72 100 102 76 74 101 103 78 69 98 99 70 81 104 105 82 70 99 101 74 82 105 106 84 74 101 103 78 84 106 107 86 81 104 105 82 89 108 109 90 82 105 106 84 90 109 110 92 84 106 107 86 92 110 111 94 96 112 113 97 98 114 115 99 97 113 116 100 99 115 117 101 100 116 118 102 101 117 119 103 98 114 115 99 104 120 121 105 99 115 117 101 105 121 122 106 101 117 119 103 106 122 123 107 104 120 121 105 108 124 125 109 105 121 122 106 109 125 126 110 106 122 123 107 110 126 127 111 
				</DataArray>
				<DataArray type="Int32" Name="offsets" format="ascii">
					8 16 24 32 40 48 56 64 72 80 88 96 104 112 120 128 136 144 152 160 168 176 184 192 200 208 216 224 232 240 248 256 264 272 280 288 296 304 312 320 328 336 344 352 360 368 376 384 392 400 408 416 424 432 
				</DataArray>
				<DataArray type="UInt8" Name="types" format="ascii">
					12 12 12 12 12 12 12 12 12 12 12 12 12 12 12 12 12 12 12 12 12 12 12 12 12 12 12 12 12 12 12 12 12 12 12 12 12 12 12 12 12 12 12 12 12 12 12 12 12 12 12 12 12 12 
				</DataArray>
			</Cells>
			<PointData>
				<DataArray type="Float32" Name="U" NumberOfComponents="3" ComponentName0="D1" ComponentName1="D2" ComponentName2="D3" format="ascii">
					 0.00000000E+00	 0.00000000E+00	 0.00000000E+00
					 0.00000000E+00	 0.00000000E+00	 0.00000000E+00
					-2.13196000E-05	-2.27446000E-05	 3.06887000E-05
					-2.30907000E-05	-2.30907000E-05	 6.42215000E-05
					 0.00000000E+00	 0.00000000E+00	 0.00000000E+00
					 0.00000000E+00	 0.00000000E+00	 0.00000000E+00
					-2.14253000E-05	-2.14253000E-05	-4.92065000E-06
					-2.27446000E-05	-2.13196000E-05	 3.06887000E-05
					-7.75662000E-05	-7.91065000E-05	 5.31245000E-05
					-7.85290000E-05	-7.85290000E-05	 1.04997000E-04
					-7.69521000E-05	-7.69521000E-05	-1.00703000E-05
					-7.91065000E-05	-7.75662000E-05	 5.31245000E-05
					-1.52022000E-04	-1.44866000E-04	 6.14333000E-05
					-1.44524000E-04	-1.44524000E-04	 1.17554000E-04
					-1.52766000E-04	-1.52766000E-04	-1.27116000E-05
					-1.44866000E-04	-1.52022000E-04	 6.14333000E-05
					 0.00000000E+00	 0.00000000E+00	 0.00000000E+00
					 0.00000000E+00	 0.00000000E+00	 0.00000000E+00
					-2.13300000E-05	-1.62815000E-05	-3.72647000E-05
					-2.26568000E-05	-1.62004000E-05	 2.71546000E-06
					-7.67527000E-05	-7.14108000E-05	-7.20331000E-05
					-7.90624000E-05	-7.61238000E-05	 1.19318000E-05
					-1.53356000E-04	-1.81107000E-04	-8.92803000E-05
					-1.45162000E-04	-1.71670000E-04	 1.87855000E-05
					 0.00000000E+00	 0.00000000E+00	 0.00000000E+00
					 0.00000000E+00	 0.00000000E+00	 0.00000000E+00
					-2.11264000E-05	-1.50049000E-05	-7.28410000E-05
					-2.29128000E-05	-1.44354000E-05	-3.09061000E-05
					-7.71616000E-05	-6.90057000E-05	-1.36101000E-04
					-7.84350000E-05	-7.49641000E-05	-4.03676000E-05
					-1.53191000E-04	-1.89440000E-04	-1.66689000E-04
					-1.45111000E-04	-1.79552000E-04	-3.73728000E-05
					 0.00000000E+00	 0.00000000E+00	 0.00000000E+00
					-1.62004000E-05	-2.26568000E-05	 2.71546000E-06
					 0.00000000E+00	 0.00000000E+00	 0.00000000E+00
					-1.62815000E-05	-2.13300000E-05	-3.72647000E-05
					-7.61238000E-05	-7.90624000E-05	 1.19318000E-05
					-7.14108000E-05	-7.67527000E-05	-7.20331000E-05
					-1.71670000E-04	-1.45162000E-04	 1.87855000E-05
					-1.81107000E-04	-1.53356000E-04	-8.92803000E-05
					 0.00000000E+00	 0.00000000E+00	 0.00000000E+00
					-1.61874000E-05	-1.61874000E-05	-7.93988000E-05
					-7.10796000E-05	-7.10796000E-05	-1.62411000E-04
					-1.81882000E-04	-1.81882000E-04	-2.79759000E-04
					 0.00000000E+00	 0.00000000E+00	 0.00000000E+00
					-1.60103000E-05	-1.48679000E-05	-1.19289000E-04
					-7.54482000E-05	-6.89498000E-05	-2.47238000E-04
					-1.73253000E-04	-1.89706000E-04	-3.94889000E-04
					 0.00000000E+00	 0.00000000E+00	 0.00000000E+00
					-1.44354000E-05	-2.29128000E-05	-3.09061000E-05
					 0.00000000E+00	 0.00000000E+00	 0.00000000E+00
					-1.50049000E-05	-2.11264000E-05	-7.28410000E-05
					-7.49641000E-05	-7.84350000E-05	-4.03676000E-05
					-6.90057000E-05	-7.71616000E-05	-1.36101000E-04
					-1.79552000E-04	-1.45111000E-04	-3.73728000E-05
					-1.89440000E-04	-1.53191000E-04	-1.66689000E-04
					 0.00000000E+00	 0.00000000E+00	 0.00000000E+00
					-1.48679000E-05	-1.60103000E-05	-1.19289000E-04
					-6.89498000E-05	-7.54482000E-05	-2.47238000E-04
					-1.89706000E-04	-1.73253000E-04	-3.94889000E-04
					 0.00000000E+00	 0.00000000E+00	 0.00000000E+00
					-1.41597000E-05	-1.41597000E-05	-1.61335000E-04
					-7.48362000E-05	-7.48362000E-05	-3.43725000E-04
					-1.80143000E-04	-1.80143000E-04	-5.22289000E-04
					 2.06465000E-04	 2.06465000E-04	-2.22207000E-04
					 2.09068000E-04	 2.04661000E-04	-2.88624000E-04
					 1.35341000E-04	 1.37100000E-04	-3.70729000E-04
					 1.36436000E-04	 1.36436000E-04	-3.02204000E-04
					 2.04661000E-04	 2.09068000E-04	-2.88624000E-04
					 2.06206000E-04	 2.06206000E-04	-3.71142000E-04
					 1.36461000E-04	 1.36461000E-04	-4.40812000E-04
					 1.37100000E-04	 1.35341000E-04	-3.70729000E-04
					 6.79590000E-05	 6.83307000E-05	-4.50036000E-04
					 6.80456000E-05	 6.80456000E-05	-3.81890000E-04
					 6.82684000E-05	 6.82684000E-05	-5.18083000E-04
					 6.83307000E-05	 6.79590000E-05	-4.50036000E-04
					 0.00000000E+00	 0.00000000E+00	-5.29273000E-04
					 0.00000000E+00	 0.00000000E+00	-4.61267000E-04
					 0.00000000E+00	 0.00000000E+00	-5.97269000E-04
					 0.00000000E+00	 0.00000000E+00	-5.29273000E-04
					 2.01898000E-04	 2.12293000E-04	-3.46423000E-04
					 2.02602000E-04	 2.08871000E-04	-4.34091000E-04
					 1.37600000E-04	 1.36042000E-04	-5.08126000E-04
					 1.37860000E-04	 1.34642000E-04	-4.35456000E-04
					 6.89193000E-05	 6.77259000E-05	-5.86041000E-04
					 6.89498000E-05	 6.73721000E-05	-5.17624000E-04
					 0.00000000E+00	 0.00000000E+00	-6.65392000E-04
					 0.00000000E+00	 0.00000000E+00	-5.97434000E-04
					 2.00947000E-04	 2.13675000E-04	-4.02727000E-04
					 2.01868000E-04	 2.09784000E-04	-4.95903000E-04
					 1.37637000E-04	 1.35838000E-04	-5.73561000E-04
					 1.37970000E-04	 1.34305000E-04	-4.99993000E-04
					 6.92769000E-05	 6.75874000E-05	-6.54253000E-04
					 6.93002000E-05	 6.71821000E-05	-5.85702000E-04
					 0.00000000E+00	 0.00000000E+00	-7.34156000E-04
					 0.00000000E+00	 0.00000000E+00	-6.66197000E-04
					 2.12293000E-04	 2.01898000E-04	-3.46423000E-04
					 1.34642000E-04	 1.37860000E-04	-4.35456000E-04
					 2.08871000E-04	 2.02602000E-04	-4.34091000E-04
					 1.36042000E-04	 1.37600000E-04	-5.08126000E-04
					 6.73721000E-05	 6.89498000E-05	-5.17624000E-04
					 6.77259000E-05	 6.89193000E-05	-5.86041000E-04
					 0.00000000E+00	 0.00000000E+00	-5.97434000E-04
					 0.00000000E+00	 0.00000000E+00	-6.65392000E-04
					 2.04414000E-04	 2.04414000E-04	-4.99450000E-04
					 1.37475000E-04	 1.37475000E-04	-5.77595000E-04
					 6.85183000E-05	 6.85183000E-05	-6.55025000E-04
					 0.00000000E+00	 0.00000000E+00	-7.34019000E-04
					 2.03388000E-04	 2.04933000E-04	-5.63210000E-04
					 1.37524000E-04	 1.37402000E-04	-6.44294000E-04
					 6.89727000E-05	 6.84326000E-05	-7.23647000E-04
					 0.00000000E+00	 0.00000000E+00	-8.02920000E-04
					 2.13675000E-04	 2.00947000E-04	-4.02727000E-04
					 1.34305000E-04	 1.37970000E-04	-4.99993000E-04
					 2.09784000E-04	 2.01868000E-04	-4.95903000E-04
					 1.35838000E-04	 1.37637000E-04	-5.73561000E-04
					 6.71821000E-05	 6.93002000E-05	-5.85702000E-04
					 6.75874000E-05	 6.92769000E-05	-6.54253000E-04
					 0.00000000E+00	 0.00000000E+00	-6.66197000E-04
					 0.00000000E+00	 0.00000000E+00	-7.34156000E-04
					 2.04933000E-04	 2.03388000E-04	-5.63210000E-04
					 1.37402000E-04	 1.37524000E-04	-6.44294000E-04
					 6.84326000E-05	 6.89727000E-05	-7.23647000E-04
					 0.00000000E+00	 0.00000000E+00	-8.02920000E-04
					 2.03984000E-04	 2.03984000E-04	-6.28917000E-04
					 1.37451000E-04	 1.37451000E-04	-7.11551000E-04
					 6.88883000E-05	 6.88883000E-05	-7.92453000E-04
					 0.00000000E+00	 0.00000000E+00	-8.71864000E-04
				</DataArray>
				<DataArray type="Float32" Name="S" NumberOfComponents="10" ComponentName0="xx" ComponentName1="yy" ComponentName2="zz" ComponentName3="xy" ComponentName4="yz" ComponentName5="zx" ComponentName6="Mises" ComponentName7="Min Principal" ComponentName8="Mid Principal" ComponentName9="Max Principal" format="ascii">
					 8.28039000E-04	 8.28039000E-04	 4.04696000E+01	 8.45615000E-04	-7.27624000E+00	-7.27624000E+00	 4.42197186E+01	-2.46459671E+00	-1.75760000E-05	 4.29358704E+01
					 6.49114000E-04	 8.23855000E-04	 1.93353000E+01	 7.69153000E-04	-7.16570000E+00	-6.71679000E+00	 2.57529206E+01	-4.11242919E+00	-3.67059737E-05	 2.34492389E+01
					 6.84609000E-02	-1.34667000E-01	 1.67374000E+01	-1.49872000E+00	-2.77304000E+00	-1.00063000E+00	 1.77226476E+01	-1.93684796E+00	 1.39337192E+00	 1.72146699E+01
					-2.16166000E-01	-2.16166000E-01	 3.30833000E+01	-1.11373000E+00	-1.80730000E+00	-1.80730000E+00	 3.36477877E+01	-1.51869053E+00	 8.97564000E-01	 3.32720945E+01
					 8.23855000E-04	 6.49114000E-04	 1.93353000E+01	 7.69153000E-04	-6.71679000E+00	-7.16570000E+00	 2.57529206E+01	-4.11242919E+00	-3.67059737E-05	 2.34492389E+01
					 6.72545000E-04	 6.72545000E-04	-3.10080000E+00	 7.20604000E-04	-6.74862000E+00	-6.74862000E+00	 1.68191071E+01	-1.12189146E+01	-4.80590000E-05	 8.11950773E+00
					 5.13671000E-03	 5.13671000E-03	-3.17073000E+00	-2.03403000E+00	-1.41702000E+00	-1.41702000E+00	 5.87755371E+00	-4.68351967E+00	-5.16103621E-01	 2.03916671E+00
					-1.34667000E-01	 6.84609000E-02	 1.67374000E+01	-1.49872000E+00	-1.00063000E+00	-2.77304000E+00	 1.77226476E+01	-1.93684796E+00	 1.39337192E+00	 1.72146699E+01
					-3.82851000E-01	 1.71691000E-01	 9.69082000E+00	-1.05358000E+00	-4.57726000E+00	-6.80044000E-01	 1.27973235E+01	-2.41847617E+00	 3.58728409E-01	 1.15394078E+01
					 3.67292000E-01	 3.67292000E-01	 1.68068000E+01	-6.02950000E-01	-2.78724000E+00	-2.78724000E+00	 1.78314416E+01	-1.10318596E+00	 9.70242000E-01	 1.76743280E+01
					-2.52258000E-01	-2.52258000E-01	-2.44711000E+00	-2.41998000E+00	-9.73757000E-01	-9.73757000E-01	 5.29863200E+00	-3.94136718E+00	-1.17798082E+00	 2.16772200E+00
					 1.71691000E-01	-3.82851000E-01	 9.69082000E+00	-1.05358000E+00	-6.80044000E-01	-4.57726000E+00	 1.27973235E+01	-2.41847617E+00	 3.58728409E-01	 1.15394078E+01
					 4.74200000E-01	 2.05895000E-01	 5.24203000E+00	 6.76832000E+00	-5.15817000E+00	-9.82323000E-02	 1.55358615E+01	-7.53225710E+00	 3.16670746E+00	 1.02876746E+01
					 2.19932000E-01	 2.19932000E-01	 7.91682000E+00	 4.72782000E+00	-3.11086000E+00	-3.11086000E+00	 1.35780569E+01	-4.50788800E+00	 1.78914686E+00	 1.10754251E+01
					 4.26512000E-01	 4.26512000E-01	-1.65479000E+00	 1.14212000E+01	-1.42475000E-01	-1.42475000E-01	 1.98943470E+01	-1.09946880E+01	-1.65779605E+00	 1.18507181E+01
					 2.05895000E-01	 4.74200000E-01	 5.24203000E+00	 6.76832000E+00	-9.82323000E-02	-5.15817000E+00	 1.55358615E+01	-7.53225710E+00	 3.16670746E+00	 1.02876746E+01
					 8.15578000E-04	 2.31134000E-04	 1.70986000E+00	 5.25230000E-04	-5.10314000E+00	-7.13685000E+00	 1.52922147E+01	-7.95964832E+00	-6.81512813E-05	 9.67062318E+00
					 6.65115000E-04	 2.21176000E-04	-2.34734000E+01	 4.71302000E-04	-5.12744000E+00	-6.71727000E+00	 2.76633039E+01	-2.61990607E+01	-7.00101796E-05	 2.72661702E+00
					-9.23175000E-02	-2.40298000E-03	-2.26847000E+01	-2.02861000E+00	 1.68676000E+00	-1.38970000E+00	 2.32191789E+01	-2.28771131E+01	-2.07488085E+00	 2.17257348E+00
					 5.50179000E-02	 5.31100000E-02	 3.76030000E+00	-1.50017000E+00	 6.03940000E-01	-2.75143000E+00	 6.65530241E+00	-1.99810922E+00	 3.52922105E-01	 5.51361501E+00
					 7.00376000E-02	-1.58196000E+00	-1.63737000E+01	-2.50356000E+00	 1.49986000E+00	-9.43537000E-01	 1.65584888E+01	-1.65535692E+01	-3.35981832E+00	 2.02776513E+00
					-2.07802000E-01	-2.96307000E+00	 5.07063000E+00	-1.13288000E+00	 1.96151000E+00	-4.57034000E+00	 1.13160806E+01	-3.42394689E+00	-2.84622423E+00	 8.16992913E+00
					 1.40569000E-01	 3.23151000E+00	-1.08384000E+01	 1.15678000E+01	 1.24690000E+01	 1.26927000E-01	 3.21239043E+01	-2.00594206E+01	-4.30703528E+00	 1.69001349E+01
					 8.20947000E-02	 5.95422000E+00	 4.33100000E+00	 6.92245000E+00	 3.94412000E+00	-5.25879000E+00	 1.73487393E+01	-7.99663310E+00	 7.78266272E+00	 1.05812851E+01
					 8.11046000E-04	 1.10404000E-04	-1.94689000E+01	 4.19986000E-04	-4.54631000E+00	-7.21605000E+00	 2.44392501E+01	-2.26764997E+01	-6.93489681E-05	 3.20859052E+00
					 6.34125000E-04	 1.11645000E-04	-4.58752000E+01	 3.76597000E-04	-4.72447000E+00	-6.65173000E+00	 4.80027767E+01	-4.72829995E+01	-6.87532324E-05	 1.40861400E+00
					-1.26447000E-01	 1.37781000E-01	-4.28563000E+01	-1.48791000E+00	 3.05327000E+00	-9.44055000E-01	 4.32953034E+01	-4.30883697E+01	-1.44599431E+00	 1.68939802E+00
					 1.63203000E-01	 3.60795000E-01	-1.27125000E+01	-1.11685000E+00	 1.40284000E+00	-1.76216000E+00	 1.36867992E+01	-1.30652030E+01	-8.50384431E-01	 1.72708546E+00
					 2.61735000E-01	-1.88611000E+00	-2.95435000E+01	-1.22239000E+00	 5.11003000E+00	-6.16668000E-01	 3.02143843E+01	-3.04624439E+01	-1.80337936E+00	 1.09794825E+00
					-3.91700000E-01	-3.74659000E+00	-2.02639000E+00	-7.61662000E-01	 4.14925000E+00	-2.77199000E+00	 9.21326720E+00	-7.34227683E+00	-2.11812714E+00	 3.29572398E+00
					-9.77005000E-02	 3.21724000E+00	-1.92291000E+01	 7.06632000E+00	 1.83747000E+01	 4.40386000E-01	 4.00460733E+01	-2.98646473E+01	-2.31845943E+00	 1.60735462E+01
					-2.76787000E-02	 6.24006000E+00	 1.90522000E+00	 5.03414000E+00	 7.79047000E+00	-3.31195000E+00	 1.79419828E+01	-8.10975352E+00	 3.68968849E+00	 1.25376663E+01
					 2.31134000E-04	 8.15578000E-04	 1.70986000E+00	 5.25230000E-04	-7.13685000E+00	-5.10314000E+00	 1.52922147E+01	-7.95964832E+00	-6.81512813E-05	 9.67062318E+00
					 5.31100000E-02	 5.50179000E-02	 3.76030000E+00	-1.50017000E+00	-2.75143000E+00	 6.03940000E-01	 6.65530241E+00	-1.99810922E+00	 3.52922105E-01	 5.51361501E+00
					 2.21176000E-04	 6.65115000E-04	-2.34734000E+01	 4.71302000E-04	-6.71727000E+00	-5.12744000E+00	 2.76633039E+01	-2.61990607E+01	-7.00101796E-05	 2.72661702E+00
					-2.40298000E-03	-9.23175000E-02	-2.26847000E+01	-2.02861000E+00	-1.38970000E+00	 1.68676000E+00	 2.32191789E+01	-2.28771131E+01	-2.07488085E+00	 2.17257348E+00
					-2.96307000E+00	-2.07802000E-01	 5.07063000E+00	-1.13288000E+00	-4.57034000E+00	 1.96151000E+00	 1.13160806E+01	-3.42394689E+00	-2.84622423E+00	 8.16992913E+00
					-1.58196000E+00	 7.00376000E-02	-1.63737000E+01	-2.50356000E+00	-9.43537000E-01	 1.49986000E+00	 1.65584888E+01	-1.65535692E+01	-3.35981832E+00	 2.02776513E+00
					 5.95422000E+00	 8.20947000E-02	 4.33100000E+00	 6.92245000E+00	-5.25879000E+00	 3.94412000E+00	 1.73487393E+01	-7.99663310E+00	 7.78266272E+00	 1.05812851E+01
					 3.23151000E+00	 1.40569000E-01	-1.08384000E+01	 1.15678000E+01	 1.26927000E-01	 1.24690000E+01	 3.21239043E+01	-2.00594206E+01	-4.30703528E+00	 1.69001349E+01
					 2.18984000E-04	 2.18984000E-04	-5.00035000E+01	 2.64783000E-04	-5.09650000E+00	-5.09650000E+00	 5.15385078E+01	-5.10216584E+01	-4.57990000E-05	 1.01864220E+00
					-8.37812000E-02	-8.37812000E-02	-5.11379000E+01	-2.03437000E+00	 1.72598000E+00	 1.72598000E+00	 5.13499082E+01	-5.12591433E+01	-1.99690794E+00	 1.95058880E+00
					 1.27929000E+00	 1.27929000E+00	-6.30712000E+01	-2.45120000E+00	 1.50534000E+00	 1.50534000E+00	 6.45957197E+01	-6.31443309E+01	-1.09877913E+00	 3.73049000E+00
					-2.45981000E+00	-2.45981000E+00	-7.38466000E+01	 1.14667000E+01	 1.32420000E+01	 1.32420000E+01	 8.08865427E+01	-7.78827666E+01	-1.39265100E+01	 1.30430566E+01
					 2.26710000E-04	 1.06481000E-04	-7.51114000E+01	 1.96367000E-04	-4.68000000E+00	-5.03952000E+00	 7.60502789E+01	-7.57359244E+01	-3.36792961E-05	 6.24891270E-01
					-1.09651000E-01	-2.64806000E-01	-7.78333000E+01	-1.51170000E+00	 3.08103000E+00	 6.86363000E-01	 7.78824608E+01	-7.79626321E+01	-1.60594445E+00	 1.36081953E+00
					 2.75945000E+00	 1.84600000E+00	-8.67421000E+01	-1.03019000E+00	 5.17344000E+00	 1.96426000E+00	 8.95804606E+01	-8.70886544E+01	 1.50454255E+00	 3.44746188E+00
					-5.42840000E+00	-2.91125000E+00	-9.29154000E+01	 6.72401000E+00	 1.79783000E+01	 5.47140000E+00	 9.52661142E+01	-9.65596135E+01	-1.05076060E+01	 5.81216953E+00
					 1.10404000E-04	 8.11046000E-04	-1.94689000E+01	 4.19986000E-04	-7.21605000E+00	-4.54631000E+00	 2.44392501E+01	-2.26764997E+01	-6.93489681E-05	 3.20859052E+00
					 3.60795000E-01	 1.63203000E-01	-1.27125000E+01	-1.11685000E+00	-1.76216000E+00	 1.40284000E+00	 1.36867992E+01	-1.30652030E+01	-8.50384431E-01	 1.72708546E+00
					 1.11645000E-04	 6.34125000E-04	-4.58752000E+01	 3.76597000E-04	-6.65173000E+00	-4.72447000E+00	 4.80027767E+01	-4.72829995E+01	-6.87532324E-05	 1.40861400E+00
					 1.37781000E-01	-1.26447000E-01	-4.28563000E+01	-1.48791000E+00	-9.44055000E-01	 3.05327000E+00	 4.32953034E+01	-4.30883697E+01	-1.44599431E+00	 1.68939802E+00
					-3.74659000E+00	-3.91700000E-01	-2.02639000E+00	-7.61662000E-01	-2.77199000E+00	 4.14925000E+00	 9.21326720E+00	-7.34227683E+00	-2.11812714E+00	 3.29572398E+00
					-1.88611000E+00	 2.61735000E-01	-2.95435000E+01	-1.22239000E+00	-6.16668000E-01	 5.11003000E+00	 3.02143843E+01	-3.04624439E+01	-1.80337936E+00	 1.09794825E+00
					 6.24006000E+00	-2.76787000E-02	 1.90522000E+00	 5.03414000E+00	-3.31195000E+00	 7.79047000E+00	 1.79419828E+01	-8.10975352E+00	 3.68968849E+00	 1.25376663E+01
					 3.21724000E+00	-9.77005000E-02	-1.92291000E+01	 7.06632000E+00	 4.40386000E-01	 1.83747000E+01	 4.00460733E+01	-2.98646473E+01	-2.31845943E+00	 1.60735462E+01
					 1.06481000E-04	 2.26710000E-04	-7.51114000E+01	 1.96367000E-04	-5.03952000E+00	-4.68000000E+00	 7.60502789E+01	-7.57359244E+01	-3.36792961E-05	 6.24891270E-01
					-2.64806000E-01	-1.09651000E-01	-7.78333000E+01	-1.51170000E+00	 6.86363000E-01	 3.08103000E+00	 7.78824608E+01	-7.79626321E+01	-1.60594445E+00	 1.36081953E+00
					 1.84600000E+00	 2.75945000E+00	-8.67421000E+01	-1.03019000E+00	 1.96426000E+00	 5.17344000E+00	 8.95804606E+01	-8.70886544E+01	 1.50454255E+00	 3.44746188E+00
					-2.91125000E+00	-5.42840000E+00	-9.29154000E+01	 6.72401000E+00	 5.47140000E+00	 1.79783000E+01	 9.52661142E+01	-9.65596135E+01	-1.05076060E+01	 5.81216953E+00
					 1.00643000E-04	 1.00643000E-04	-1.01566000E+02	 1.14607000E-04	-4.45595000E+00	-4.45595000E+00	 1.02150897E+02	-1.01955492E+02	-1.39640000E-05	 3.89707724E-01
					-4.44377000E-01	-4.44377000E-01	-1.08186000E+02	-1.16442000E+00	 1.46325000E+00	 1.46325000E+00	 1.07820089E+02	-1.08226164E+02	-1.56863280E+00	 7.20043000E-01
					 3.71763000E+00	 3.71763000E+00	-1.13585000E+02	-3.78436000E-01	 4.26328000E+00	 4.26328000E+00	 1.17768374E+02	-1.13895072E+02	 3.64926642E+00	 4.09606600E+00
					-6.01694000E+00	-6.01694000E+00	-1.12377000E+02	 4.35329000E+00	 6.97334000E+00	 6.97334000E+00	 1.07986483E+02	-1.13248578E+02	-1.03702300E+01	-7.92072239E-01
					 2.29247000E+00	 2.29247000E+00	-1.00685000E+02	-3.26207000E+00	-2.25305000E+00	-2.25305000E+00	 1.03279911E+02	-1.00786711E+02	-8.67889296E-01	 5.55454000E+00
					 3.62812000E+00	 2.89590000E+00	-1.03328000E+02	-2.79159000E+00	-3.41271000E+00	 5.55867000E+00	 1.07297938E+02	-1.03716100E+02	 4.57419553E-01	 6.45470062E+00
					-1.39216000E+00	-8.80071000E-01	-1.01578000E+02	 9.86723000E-01	-9.48332000E-01	-2.75258000E-01	 1.00471961E+02	-1.01587636E+02	-2.15420113E+00	-1.08393652E-01
					-8.19389000E-01	-8.19389000E-01	-1.00490000E+02	 1.39809000E+00	-4.10115000E-01	-4.10115000E-01	 9.97050843E+01	-1.00493328E+02	-2.21747900E+00	 5.82029207E-01
					 2.89590000E+00	 3.62812000E+00	-1.03328000E+02	-2.79159000E+00	 5.55867000E+00	-3.41271000E+00	 1.07297938E+02	-1.03716100E+02	 4.57419553E-01	 6.45470062E+00
					 4.09390000E+00	 4.09390000E+00	-8.76817000E+01	-2.63482000E+00	 1.90004000E+00	 1.90004000E+00	 9.20067851E+01	-8.77626254E+01	 1.54000542E+00	 6.72872000E+00
					-1.40592000E+00	-1.40592000E+00	-9.24736000E+01	 6.84902000E-01	-1.51211000E-01	-1.51211000E-01	 9.10761593E+01	-9.24740984E+01	-2.09082200E+00	-7.20519602E-01
					-8.80071000E-01	-1.39216000E+00	-1.01578000E+02	 9.86723000E-01	-2.75258000E-01	-9.48332000E-01	 1.00471961E+02	-1.01587636E+02	-2.15420113E+00	-1.08393652E-01
					-3.72603000E-01	-5.52125000E-01	-9.97728000E+01	 2.69089000E-01	-4.09622000E-01	 2.57211000E-01	 9.93151848E+01	-9.97751624E+01	-7.43676372E-01	-1.78689270E-01
					-3.41838000E-01	-3.41838000E-01	-1.00099000E+02	 1.26718000E-01	-2.47240000E-02	-2.47240000E-02	 9.97574218E+01	-1.00099012E+02	-4.68556000E-01	-2.15107760E-01
					-5.87599000E-01	-5.87599000E-01	-9.84598000E+01	 3.98797000E-01	-1.23582000E-01	-1.23582000E-01	 9.78751065E+01	-9.84601108E+01	-9.86396000E-01	-1.88491177E-01
					-5.52125000E-01	-3.72603000E-01	-9.97728000E+01	 2.69089000E-01	 2.57211000E-01	-4.09622000E-01	 9.93151848E+01	-9.97751624E+01	-7.43676372E-01	-1.78689270E-01
					 1.74714000E-02	 1.76662000E-02	-9.97277000E+01	 1.75574000E-02	-1.35272000E-01	 4.37144000E-02	 9.97455774E+01	-9.97279026E+01	 1.71096460E-04	 3.51691346E-02
					 1.75160000E-02	 1.75160000E-02	-9.99046000E+01	 1.75084000E-02	-4.68910000E-03	-4.68910000E-03	 9.99221213E+01	-9.99046004E+01	 7.60000000E-06	 3.50248400E-02
					 1.76342000E-02	 1.76342000E-02	-9.96637000E+01	 1.76199000E-02	-1.11093000E-01	-1.11093000E-01	 9.96817103E+01	-9.96639476E+01	 1.43000000E-05	 3.55016778E-02
					 1.76662000E-02	 1.74714000E-02	-9.97277000E+01	 1.75574000E-02	 4.37144000E-02	-1.35272000E-01	 9.97455774E+01	-9.97279026E+01	 1.71096460E-04	 3.51691346E-02
					 2.35692000E+00	 4.33690000E+00	-1.12044000E+02	-1.87683000E+00	 6.33411000E+00	-4.37756000E+00	 1.16217132E+02	-1.12546414E+02	 1.22677487E+00	 5.96945884E+00
					 2.75012000E+00	 4.98667000E+00	-9.31781000E+01	-1.90242000E+00	 2.34130000E+00	-1.63180000E+00	 9.72474410E+01	-9.32601197E+01	 1.66231155E+00	 6.15649815E+00