# vtk DataFile Version 3.0

ASCII
DATASET UNSTRUCTURED_GRID

POINTS 1200 double
	 5.55112000E-17	 1.10000000E+00	 0.00000000E+00
	 4.20952000E-01	 1.01627000E+00	 0.00000000E+00
	 4.20952000E-01	 1.01627000E+00	 8.00000000E-01
	 5.55112000E-17	 1.10000000E+00	 8.00000000E-01
	 5.55112000E-17	 1.00000000E+00	 0.00000000E+00
	 3.82683000E-01	 9.23880000E-01	 0.00000000E+00
	 3.82683000E-01	 9.23880000E-01	 8.00000000E-01
	 5.55112000E-17	 1.00000000E+00	 8.00000000E-01
	 2.14599000E-01	 1.07886000E+00	 0.00000000E+00
	 4.20952000E-01	 1.01627000E+00	 4.00000000E-01
	 2.14599000E-01	 1.07886000E+00	 8.00000000E-01
	 5.55112000E-17	 1.10000000E+00	 4.00000000E-01
	 5.55112000E-17	 1.05000000E+00	 0.00000000E+00
	 4.01818000E-01	 9.70074000E-01	 8.88178000E-16
	 4.01818000E-01	 9.70074000E-01	 8.00000000E-01
	 5.55112000E-17	 1.05000000E+00	 8.00000000E-01
	 1.95090000E-01	 9.80785000E-01	 0.00000000E+00
	 3.82683000E-01	 9.23880000E-01	 4.00000000E-01
	 1.95090000E-01	 9.80785000E-01	 8.00000000E-01
	 5.55112000E-17	 1.00000000E+00	 4.00000000E-01
	 4.20952000E-01	 1.01627000E+00	 1.60000000E+00
	 5.55112000E-17	 1.10000000E+00	 1.60000000E+00
	 3.82683000E-01	 9.23880000E-01	 1.60000000E+00
	 5.55112000E-17	 1.00000000E+00	 1.60000000E+00
	 4.20952000E-01	 1.01627000E+00	 1.20000000E+00
	 2.14599000E-01	 1.07886000E+00	 1.60000000E+00
	 5.55112000E-17	 1.10000000E+00	 1.20000000E+00
	 4.01818000E-01	 9.70074000E-01	 1.60000000E+00
	 5.55112000E-17	 1.05000000E+00	 1.60000000E+00
	 3.82683000E-01	 9.23880000E-01	 1.20000000E+00
	 1.95090000E-01	 9.80785000E-01	 1.60000000E+00
	 5.55112000E-17	 1.00000000E+00	 1.20000000E+00
	 4.20952000E-01	 1.01627000E+00	 2.40000000E+00
	 5.55112000E-17	 1.10000000E+00	 2.40000000E+00
	 3.82683000E-01	 9.23880000E-01	 2.40000000E+00
	 5.55112000E-17	 1.00000000E+00	 2.40000000E+00
	 4.20952000E-01	 1.01627000E+00	 2.00000000E+00
	 2.14599000E-01	 1.07886000E+00	 2.40000000E+00
	 5.55112000E-17	 1.10000000E+00	 2.00000000E+00
	 4.01818000E-01	 9.70074000E-01	 2.40000000E+00
	 5.55112000E-17	 1.05000000E+00	 2.40000000E+00
	 3.82683000E-01	 9.23880000E-01	 2.00000000E+00
	 1.95090000E-01	 9.80785000E-01	 2.40000000E+00
	 5.55112000E-17	 1.00000000E+00	 2.00000000E+00
	 4.20952000E-01	 1.01627000E+00	 3.20000000E+00
	 5.55112000E-17	 1.10000000E+00	 3.20000000E+00
	 3.82683000E-01	 9.23880000E-01	 3.20000000E+00
	 5.55112000E-17	 1.00000000E+00	 3.20000000E+00
	 4.20952000E-01	 1.01627000E+00	 2.80000000E+00
	 2.14599000E-01	 1.07886000E+00	 3.20000000E+00
	 5.55112000E-17	 1.10000000E+00	 2.80000000E+00
	 4.01818000E-01	 9.70074000E-01	 3.20000000E+00
	 5.55112000E-17	 1.05000000E+00	 3.20000000E+00
	 3.82683000E-01	 9.23880000E-01	 2.80000000E+00
	 1.95090000E-01	 9.80785000E-01	 3.20000000E+00
	 5.55112000E-17	 1.00000000E+00	 2.80000000E+00
	 4.20952000E-01	 1.01627000E+00	 4.00000000E+00
	 5.55112000E-17	 1.10000000E+00	 4.00000000E+00
	 3.82683000E-01	 9.23880000E-01	 4.00000000E+00
	 5.55112000E-17	 1.00000000E+00	 4.00000000E+00
	 4.20952000E-01	 1.01627000E+00	 3.60000000E+00
	 2.14599000E-01	 1.07886000E+00	 4.00000000E+00
	 5.55112000E-17	 1.10000000E+00	 3.60000000E+00
	 4.01818000E-01	 9.70074000E-01	 4.00000000E+00
	 5.55112000E-17	 1.05000000E+00	 4.00000000E+00
	 3.82683000E-01	 9.23880000E-01	 3.60000000E+00
	 1.95090000E-01	 9.80785000E-01	 4.00000000E+00
	 5.55112000E-17	 1.00000000E+00	 3.60000000E+00
	 4.20952000E-01	 1.01627000E+00	 4.80000000E+00
	 5.55112000E-17	 1.10000000E+00	 4.80000000E+00
	 3.82683000E-01	 9.23880000E-01	 4.80000000E+00
	 5.55112000E-17	 1.00000000E+00	 4.80000000E+00
	 4.20952000E-01	 1.01627000E+00	 4.40000000E+00
	 2.14599000E-01	 1.07886000E+00	 4.80000000E+00
	 5.55112000E-17	 1.10000000E+00	 4.40000000E+00
	 4.01818000E-01	 9.70074000E-01	 4.80000000E+00
	 5.55112000E-17	 1.05000000E+00	 4.80000000E+00
	 3.82683000E-01	 9.23880000E-01	 4.40000000E+00
	 1.95090000E-01	 9.80785000E-01	 4.80000000E+00
	 5.55112000E-17	 1.00000000E+00	 4.40000000E+00
	 4.20952000E-01	 1.01627000E+00	 5.60000000E+00
	 5.55112000E-17	 1.10000000E+00	 5.60000000E+00
	 3.82683000E-01	 9.23880000E-01	 5.60000000E+00
	 5.55112000E-17	 1.00000000E+00	 5.60000000E+00
	 4.20952000E-01	 1.01627000E+00	 5.20000000E+00
	 2.14599000E-01	 1.07886000E+00	 5.60000000E+00
	 5.55112000E-17	 1.10000000E+00	 5.20000000E+00
	 4.01818000E-01	 9.70074000E-01	 5.60000000E+00
	 5.55112000E-17	 1.05000000E+00	 5.60000000E+00
	 3.82683000E-01	 9.23880000E-01	 5.20000000E+00
	 1.95090000E-01	 9.80785000E-01	 5.60000000E+00
	 5.55112000E-17	 1.00000000E+00	 5.20000000E+00
	 4.20952000E-01	 1.01627000E+00	 6.40000000E+00
	 5.55112000E-17	 1.10000000E+00	 6.40000000E+00
	 3.82683000E-01	 9.23880000E-01	 6.40000000E+00
	 5.55112000E-17	 1.00000000E+00	 6.40000000E+00
	 4.20952000E-01	 1.01627000E+00	 6.00000000E+00
	 2.14599000E-01	 1.07886000E+00	 6.40000000E+00
	 5.55112000E-17	 1.10000000E+00	 6.00000000E+00
	 4.01818000E-01	 9.70074000E-01	 6.40000000E+00
	 5.55112000E-17	 1.05000000E+00	 6.40000000E+00
	 3.82683000E-01	 9.23880000E-01	 6.00000000E+00
	 1.95090000E-01	 9.80785000E-01	 6.40000000E+00
	 5.55112000E-17	 1.00000000E+00	 6.00000000E+00
	 4.20952000E-01	 1.01627000E+00	 7.20000000E+00
	 5.55112000E-17	 1.10000000E+00	 7.20000000E+00
	 3.82683000E-01	 9.23880000E-01	 7.20000000E+00
	 5.55112000E-17	 1.00000000E+00	 7.20000000E+00
	 4.20952000E-01	 1.01627000E+00	 6.80000000E+00
	 2.14599000E-01	 1.07886000E+00	 7.20000000E+00
	 5.55112000E-17	 1.10000000E+00	 6.80000000E+00
	 4.01818000E-01	 9.70074000E-01	 7.20000000E+00
	 5.55112000E-17	 1.05000000E+00	 7.20000000E+00
	 3.82683000E-01	 9.23880000E-01	 6.80000000E+00
	 1.95090000E-01	 9.80785000E-01	 7.20000000E+00
	 5.55112000E-17	 1.00000000E+00	 6.80000000E+00
	 4.20952000E-01	 1.01627000E+00	 8.00000000E+00
	 5.55112000E-17	 1.10000000E+00	 8.00000000E+00
	 3.82683000E-01	 9.23880000E-01	 8.00000000E+00
	 5.55112000E-17	 1.00000000E+00	 8.00000000E+00
	 4.20952000E-01	 1.01627000E+00	 7.60000000E+00
	 2.14599000E-01	 1.07886000E+00	 8.00000000E+00
	 5.55112000E-17	 1.10000000E+00	 7.60000000E+00
	 4.01818000E-01	 9.70074000E-01	 8.00000000E+00
	 5.55112000E-17	 1.05000000E+00	 8.00000000E+00
	 3.82683000E-01	 9.23880000E-01	 7.60000000E+00
	 1.95090000E-01	 9.80785000E-01	 8.00000000E+00
	 5.55112000E-17	 1.00000000E+00	 7.60000000E+00
	 7.77817000E-01	 7.77817000E-01	 0.00000000E+00
	 7.77817000E-01	 7.77817000E-01	 8.00000000E-01
	 7.07107000E-01	 7.07107000E-01	 0.00000000E+00
	 7.07107000E-01	 7.07107000E-01	 8.00000000E-01
	 6.11127000E-01	 9.14617000E-01	 0.00000000E+00
	 7.77817000E-01	 7.77817000E-01	 4.00000000E-01
	 6.11127000E-01	 9.14617000E-01	 8.00000000E-01
	 7.42462000E-01	 7.42462000E-01	-1.77636000E-15
	 7.42462000E-01	 7.42462000E-01	 8.00000000E-01
	 5.55570000E-01	 8.31470000E-01	 0.00000000E+00
	 7.07107000E-01	 7.07107000E-01	 4.00000000E-01
	 5.55570000E-01	 8.31470000E-01	 8.00000000E-01
	 7.77817000E-01	 7.77817000E-01	 1.60000000E+00
	 7.07107000E-01	 7.07107000E-01	 1.60000000E+00
	 7.77817000E-01	 7.77817000E-01	 1.20000000E+00
	 6.11127000E-01	 9.14617000E-01	 1.60000000E+00
	 7.42462000E-01	 7.42462000E-01	 1.60000000E+00
	 7.07107000E-01	 7.07107000E-01	 1.20000000E+00
	 5.55570000E-01	 8.31470000E-01	 1.60000000E+00
	 7.77817000E-01	 7.77817000E-01	 2.40000000E+00
	 7.07107000E-01	 7.07107000E-01	 2.40000000E+00
	 7.77817000E-01	 7.77817000E-01	 2.00000000E+00
	 6.11127000E-01	 9.14617000E-01	 2.40000000E+00
	 7.42462000E-01	 7.42462000E-01	 2.40000000E+00
	 7.07107000E-01	 7.07107000E-01	 2.00000000E+00
	 5.55570000E-01	 8.31470000E-01	 2.40000000E+00
	 7.77817000E-01	 7.77817000E-01	 3.20000000E+00
	 7.07107000E-01	 7.07107000E-01	 3.20000000E+00
	 7.77817000E-01	 7.77817000E-01	 2.80000000E+00
	 6.11127000E-01	 9.14617000E-01	 3.20000000E+00
	 7.42462000E-01	 7.42462000E-01	 3.20000000E+00
	 7.07107000E-01	 7.07107000E-01	 2.80000000E+00
	 5.55570000E-01	 8.31470000E-01	 3.20000000E+00
	 7.77817000E-01	 7.77817000E-01	 4.00000000E+00
	 7.07107000E-01	 7.07107000E-01	 4.00000000E+00
	 7.77817000E-01	 7.77817000E-01	 3.60000000E+00
	 6.11127000E-01	 9.14617000E-01	 4.00000000E+00
	 7.42462000E-01	 7.42462000E-01	 4.00000000E+00
	 7.07107000E-01	 7.07107000E-01	 3.60000000E+00
	 5.55570000E-01	 8.31470000E-01	 4.00000000E+00
	 7.77817000E-01	 7.77817000E-01	 4.80000000E+00
	 7.07107000E-01	 7.07107000E-01	 4.80000000E+00
	 7.77817000E-01	 7.77817000E-01	 4.40000000E+00
	 6.11127000E-01	 9.14617000E-01	 4.80000000E+00
	 7.42462000E-01	 7.42462000E-01	 4.80000000E+00
	 7.07107000E-01	 7.07107000E-01	 4.40000000E+00
	 5.55570000E-01	 8.31470000E-01	 4.80000000E+00
	 7.77817000E-01	 7.77817000E-01	 5.60000000E+00
	 7.07107000E-01	 7.07107000E-01	 5.60000000E+00
	 7.77817000E-01	 7.77817000E-01	 5.20000000E+00
	 6.11127000E-01	 9.14617000E-01	 5.60000000E+00
	 7.42462000E-01	 7.42462000E-01	 5.60000000E+00
	 7.07107000E-01	 7.07107000E-01	 5.20000000E+00
	 5.55570000E-01	 8.31470000E-01	 5.60000000E+00
	 7.77817000E-01	 7.77817000E-01	 6.40000000E+00
	 7.07107000E-01	 7.07107000E-01	 6.40000000E+00
	 7.77817000E-01	 7.77817000E-01	 6.00000000E+00
	 6.11127000E-01	 9.14617000E-01	 6.40000000E+00
	 7.42462000E-01	 7.42462000E-01	 6.40000000E+00
	 7.07107000E-01	 7.07107000E-01	 6.00000000E+00
	 5.55570000E-01	 8.31470000E-01	 6.40000000E+00
	 7.77817000E-01	 7.77817000E-01	 7.20000000E+00
	 7.07107000E-01	 7.07107000E-01	 7.20000000E+00
	 7.77817000E-01	 7.77817000E-01	 6.80000000E+00
	 6.11127000E-01	 9.14617000E-01	 7.20000000E+00
	 7.42462000E-01	 7.42462000E-01	 7.20000000E+00
	 7.07107000E-01	 7.07107000E-01	 6.80000000E+00
	 5.55570000E-01	 8.31470000E-01	 7.20000000E+00
	 7.77817000E-01	 7.77817000E-01	 8.00000000E+00
	 7.07107000E-01	 7.07107000E-01	 8.00000000E+00
	 7.77817000E-01	 7.77817000E-01	 7.60000000E+00
	 6.11127000E-01	 9.14617000E-01	 8.00000000E+00
	 7.42462000E-01	 7.42462000E-01	 8.00000000E+00
	 7.07107000E-01	 7.07107000E-01	 7.60000000E+00
[...]
POINT_DATA 1200
FIELD U 1
	U 3 1200 double
		 0.00000000E+00	 0.00000000E+00	 0.00000000E+00
		 0.00000000E+00	 0.00000000E+00	 0.00000000E+00
		-1.01627000E-03	 4.20952000E-04	 0.00000000E+00
		-1.10000000E-03	 0.00000000E+00	 0.00000000E+00
		 0.00000000E+00	 0.00000000E+00	 0.00000000E+00
		 0.00000000E+00	 0.00000000E+00	 0.00000000E+00
		-9.23880000E-04	 3.82683000E-04	 0.00000000E+00
		-1.00000000E-03	 0.00000000E+00	 0.00000000E+00
		 0.00000000E+00	 0.00000000E+00	 0.00000000E+00
		-5.08134000E-04	 2.10476000E-04	 0.00000000E+00
		-1.07886000E-03	 2.14599000E-04	 0.00000000E+00
		-5.50000000E-04	 0.00000000E+00	 0.00000000E+00
		 0.00000000E+00	 0.00000000E+00	 0.00000000E+00
		 0.00000000E+00	 0.00000000E+00	 0.00000000E+00
		-9.70074000E-04	 4.01818000E-04	 0.00000000E+00
		-1.05000000E-03	 0.00000000E+00	 0.00000000E+00
		 0.00000000E+00	 0.00000000E+00	 0.00000000E+00
		-4.61940000E-04	 1.91342000E-04	 0.00000000E+00
		-9.80785000E-04	 1.95090000E-04	 0.00000000E+00
		-5.00000000E-04	 0.00000000E+00	 0.00000000E+00
		-2.03253000E-03	 8.41904000E-04	 0.00000000E+00
		-2.20000000E-03	 0.00000000E+00	 0.00000000E+00
		-1.84776000E-03	 7.65367000E-04	 0.00000000E+00
		-2.00000000E-03	 0.00000000E+00	 0.00000000E+00
		-1.52440000E-03	 6.31428000E-04	 0.00000000E+00
		-2.15773000E-03	 4.29199000E-04	 0.00000000E+00
		-1.65000000E-03	 0.00000000E+00	 0.00000000E+00
		-1.94015000E-03	 8.03635000E-04	 0.00000000E+00
		-2.10000000E-03	 0.00000000E+00	 0.00000000E+00
		-1.38582000E-03	 5.74025000E-04	 0.00000000E+00
		-1.96157000E-03	 3.90181000E-04	 0.00000000E+00
		-1.50000000E-03	 0.00000000E+00	 0.00000000E+00
		-3.04880000E-03	 1.26286000E-03	 0.00000000E+00
		-3.30000000E-03	 0.00000000E+00	 0.00000000E+00
		-2.77164000E-03	 1.14805000E-03	 0.00000000E+00
		-3.00000000E-03	 0.00000000E+00	 0.00000000E+00
		-2.54067000E-03	 1.05238000E-03	 0.00000000E+00
		-3.23659000E-03	 6.43798000E-04	 0.00000000E+00
		-2.75000000E-03	 0.00000000E+00	 0.00000000E+00
		-2.91022000E-03	 1.20545000E-03	 0.00000000E+00
		-3.15000000E-03	 0.00000000E+00	 0.00000000E+00
		-2.30970000E-03	 9.56709000E-04	 0.00000000E+00
		-2.94236000E-03	 5.85271000E-04	 0.00000000E+00
		-2.50000000E-03	 0.00000000E+00	 0.00000000E+00
		-4.06507000E-03	 1.68381000E-03	 0.00000000E+00
		-4.40000000E-03	 0.00000000E+00	 0.00000000E+00
		-3.69552000E-03	 1.53073000E-03	 0.00000000E+00
		-4.00000000E-03	 0.00000000E+00	 0.00000000E+00
		-3.55694000E-03	 1.47333000E-03	 0.00000000E+00
		-4.31546000E-03	 8.58397000E-04	 0.00000000E+00
		-3.85000000E-03	 0.00000000E+00	 0.00000000E+00
		-3.88029000E-03	 1.60727000E-03	 0.00000000E+00
		-4.20000000E-03	 0.00000000E+00	 0.00000000E+00
		-3.23358000E-03	 1.33939000E-03	 0.00000000E+00
		-3.92314000E-03	 7.80361000E-04	 0.00000000E+00
		-3.50000000E-03	 0.00000000E+00	 0.00000000E+00
		-5.08134000E-03	 2.10476000E-03	 0.00000000E+00
		-5.50000000E-03	 0.00000000E+00	 0.00000000E+00
		-4.61940000E-03	 1.91342000E-03	 0.00000000E+00
		-5.00000000E-03	 0.00000000E+00	 0.00000000E+00
		-4.57320000E-03	 1.89428000E-03	 0.00000000E+00
		-5.39432000E-03	 1.07300000E-03	 0.00000000E+00
		-4.95000000E-03	 0.00000000E+00	 0.00000000E+00
		-4.85037000E-03	 2.00909000E-03	 0.00000000E+00
		-5.25000000E-03	 0.00000000E+00	 0.00000000E+00
		-4.15746000E-03	 1.72208000E-03	 0.00000000E+00
		-4.90393000E-03	 9.75452000E-04	 0.00000000E+00
		-4.50000000E-03	 0.00000000E+00	 0.00000000E+00
		-6.09760000E-03	 2.52571000E-03	 0.00000000E+00
		-6.60000000E-03	 0.00000000E+00	 0.00000000E+00
		-5.54328000E-03	 2.29610000E-03	 0.00000000E+00
		-6.00000000E-03	 0.00000000E+00	 0.00000000E+00
		-5.58947000E-03	 2.31523000E-03	 0.00000000E+00
		-6.47318000E-03	 1.28760000E-03	 0.00000000E+00
		-6.05000000E-03	 0.00000000E+00	 0.00000000E+00
		-5.82044000E-03	 2.41091000E-03	 0.00000000E+00
		-6.30000000E-03	 0.00000000E+00	 0.00000000E+00
		-5.08134000E-03	 2.10476000E-03	 0.00000000E+00
		-5.88471000E-03	 1.17054000E-03	 0.00000000E+00
		-5.50000000E-03	 0.00000000E+00	 0.00000000E+00
		-7.11387000E-03	 2.94666000E-03	 0.00000000E+00
		-7.70000000E-03	 0.00000000E+00	 0.00000000E+00
		-6.46716000E-03	 2.67878000E-03	 0.00000000E+00
		-7.00000000E-03	 0.00000000E+00	 0.00000000E+00
		-6.60574000E-03	 2.73619000E-03	 0.00000000E+00
		-7.55205000E-03	 1.50220000E-03	 0.00000000E+00
		-7.15000000E-03	 0.00000000E+00	 0.00000000E+00
		-6.79051000E-03	 2.81272000E-03	 0.00000000E+00
		-7.35000000E-03	 0.00000000E+00	 0.00000000E+00
		-6.00522000E-03	 2.48744000E-03	 0.00000000E+00
		-6.86550000E-03	 1.36563000E-03	 0.00000000E+00
		-6.50000000E-03	 0.00000000E+00	 0.00000000E+00
		-8.13014000E-03	 3.36761000E-03	 0.00000000E+00
		-8.80000000E-03	 0.00000000E+00	 0.00000000E+00
		-7.39104000E-03	 3.06147000E-03	 0.00000000E+00
		-8.00000000E-03	 0.00000000E+00	 0.00000000E+00
		-7.62201000E-03	 3.15714000E-03	 0.00000000E+00
		-8.63091000E-03	 1.71679000E-03	 0.00000000E+00
		-8.25000000E-03	 0.00000000E+00	 0.00000000E+00
		-7.76059000E-03	 3.21454000E-03	 0.00000000E+00
		-8.40000000E-03	 0.00000000E+00	 0.00000000E+00
		-6.92910000E-03	 2.87013000E-03	 0.00000000E+00
		-7.84628000E-03	 1.56072000E-03	 0.00000000E+00
		-7.50000000E-03	 0.00000000E+00	 0.00000000E+00
		-9.14641000E-03	 3.78857000E-03	 0.00000000E+00
		-9.90000000E-03	 0.00000000E+00	 0.00000000E+00
		-8.31492000E-03	 3.44415000E-03	 0.00000000E+00
		-9.00000000E-03	 0.00000000E+00	 0.00000000E+00
		-8.63827000E-03	 3.57809000E-03	 0.00000000E+00
		-9.70977000E-03	 1.93139000E-03	 0.00000000E+00
		-9.35000000E-03	 0.00000000E+00	 0.00000000E+00
		-8.73066000E-03	 3.61636000E-03	 0.00000000E+00
		-9.45000000E-03	 0.00000000E+00	 0.00000000E+00
		-7.85298000E-03	 3.25281000E-03	 0.00000000E+00
		-8.82707000E-03	 1.75581000E-03	 0.00000000E+00
		-8.50000000E-03	 0.00000000E+00	 0.00000000E+00
		-1.01627000E-02	 4.20952000E-03	 0.00000000E+00
		-1.10000000E-02	 0.00000000E+00	 0.00000000E+00
		-9.23880000E-03	 3.82683000E-03	 0.00000000E+00
		-1.00000000E-02	 0.00000000E+00	 0.00000000E+00
		-9.65454000E-03	 3.99904000E-03	 0.00000000E+00
		-1.07886000E-02	 2.14599000E-03	 0.00000000E+00
		-1.04500000E-02	 0.00000000E+00	 0.00000000E+00
		-9.70074000E-03	 4.01818000E-03	 0.00000000E+00
		-1.05000000E-02	 0.00000000E+00	 0.00000000E+00
		-8.77686000E-03	 3.63549000E-03	 0.00000000E+00
		-9.80785000E-03	 1.95090000E-03	 0.00000000E+00
		-9.50000000E-03	 0.00000000E+00	 0.00000000E+00
		 0.00000000E+00	 0.00000000E+00	 0.00000000E+00
		-7.77817000E-04	 7.77817000E-04	 0.00000000E+00
		 0.00000000E+00	 0.00000000E+00	 0.00000000E+00
		-7.07107000E-04	 7.07107000E-04	 0.00000000E+00
		 0.00000000E+00	 0.00000000E+00	 0.00000000E+00
		-3.88909000E-04	 3.88909000E-04	 0.00000000E+00
		-9.14617000E-04	 6.11127000E-04	 0.00000000E+00
		 0.00000000E+00	 0.00000000E+00	 0.00000000E+00
		-7.42462000E-04	 7.42462000E-04	 0.00000000E+00
		 0.00000000E+00	 0.00000000E+00	 0.00000000E+00
		-3.53553000E-04	 3.53553000E-04	 0.00000000E+00
		-8.31470000E-04	 5.55570000E-04	 0.00000000E+00
		-1.55563000E-03	 1.55563000E-03	 0.00000000E+00
		-1.41421000E-03	 1.41421000E-03	 0.00000000E+00
		-1.16673000E-03	 1.16673000E-03	 0.00000000E+00
		-1.82923000E-03	 1.22225000E-03	 0.00000000E+00
		-1.48492000E-03	 1.48492000E-03	 0.00000000E+00
		-1.06066000E-03	 1.06066000E-03	 0.00000000E+00
		-1.66294000E-03	 1.11114000E-03	 0.00000000E+00
		-2.33345000E-03	 2.33345000E-03	 0.00000000E+00
		-2.12132000E-03	 2.12132000E-03	 0.00000000E+00
		-1.94454000E-03	 1.94454000E-03	 0.00000000E+00
		-2.74385000E-03	 1.83338000E-03	 0.00000000E+00
		-2.22739000E-03	 2.22739000E-03	 0.00000000E+00
		-1.76777000E-03	 1.76777000E-03	 0.00000000E+00
		-2.49441000E-03	 1.66671000E-03	 0.00000000E+00
		-3.11127000E-03	 3.11127000E-03	 0.00000000E+00
		-2.82843000E-03	 2.82843000E-03	 0.00000000E+00
		-2.72236000E-03	 2.72236000E-03	 0.00000000E+00
		-3.65847000E-03	 2.44451000E-03	 0.00000000E+00
		-2.96985000E-03	 2.96985000E-03	 0.00000000E+00
		-2.47487000E-03	 2.47487000E-03	 0.00000000E+00
		-3.32588000E-03	 2.22228000E-03	 0.00000000E+00
		-3.88909000E-03	 3.88909000E-03	 0.00000000E+00
		-3.53553000E-03	 3.53553000E-03	 0.00000000E+00
		-3.50018000E-03	 3.50018000E-03	 0.00000000E+00
		-4.57308000E-03	 3.05564000E-03	 0.00000000E+00
		-3.71231000E-03	 3.71231000E-03	 0.00000000E+00
		-3.18198000E-03	 3.18198000E-03	 0.00000000E+00
		-4.15735000E-03	 2.77785000E-03	 0.00000000E+00
		-4.66690000E-03	 4.66690000E-03	 0.00000000E+00
		-4.24264000E-03	 4.24264000E-03	 0.00000000E+00
		-4.27800000E-03	 4.27800000E-03	 0.00000000E+00
		-5.48770000E-03	 3.66676000E-03	 0.00000000E+00
		-4.45477000E-03	 4.45477000E-03	 0.00000000E+00
		-3.88909000E-03	 3.88909000E-03	 0.00000000E+00
		-4.98882000E-03	 3.33342000E-03	 0.00000000E+00
		-5.44472000E-03	 5.44472000E-03	 0.00000000E+00
		-4.94975000E-03	 4.94975000E-03	 0.00000000E+00
		-5.05581000E-03	 5.05581000E-03	 0.00000000E+00
		-6.40232000E-03	 4.27789000E-03	 0.00000000E+00
		-5.19723000E-03	 5.19723000E-03	 0.00000000E+00
		-4.59619000E-03	 4.59619000E-03	 0.00000000E+00
		-5.82029000E-03	 3.88899000E-03	 0.00000000E+00
		-6.22254000E-03	 6.22254000E-03	 0.00000000E+00
		-5.65685000E-03	 5.65685000E-03	 0.00000000E+00
		-5.83363000E-03	 5.83363000E-03	 0.00000000E+00
		-7.31693000E-03	 4.88902000E-03	 0.00000000E+00
		-5.93970000E-03	 5.93970000E-03	 0.00000000E+00
		-5.30330000E-03	 5.30330000E-03	 0.00000000E+00
		-6.65176000E-03	 4.44456000E-03	 0.00000000E+00
		-7.00036000E-03	 7.00036000E-03	 0.00000000E+00
		-6.36396000E-03	 6.36396000E-03	 0.00000000E+00
		-6.61145000E-03	 6.61145000E-03	 0.00000000E+00
		-8.23155000E-03	 5.50015000E-03	 0.00000000E+00
		-6.68216000E-03	 6.68216000E-03	 0.00000000E+00
		-6.01041000E-03	 6.01041000E-03	 0.00000000E+00
		-7.48323000E-03	 5.00013000E-03	 0.00000000E+00
		-7.77817000E-03	 7.77817000E-03	 0.00000000E+00
		-7.07107000E-03	 7.07107000E-03	 0.00000000E+00
		-7.38927000E-03	 7.38927000E-03	 0.00000000E+00
		-9.14617000E-03	 6.11127000E-03	 0.00000000E+00
		-7.42462000E-03	 7.42462000E-03	 0.00000000E+00
		-6.71751000E-03	 6.71751000E-03	 0.00000000E+00
		-8.31470000E-03	 5.55570000E-03	 0.00000000E+00
		 0.00000000E+00	 0.00000000E+00	 0.00000000E+00
		-4.20952000E-04	 1.01627000E-03	 0.00000000E+00
		 0.00000000E+00	 0.00000000E+00	 0.00000000E+00
		-3.82683000E-04	 9.23880000E-04	 0.00000000E+00
		 0.00000000E+00	 0.00000000E+00	 0.00000000E+00
		-2.10476000E-04	 5.08134000E-04	 0.00000000E+00
		-6.11127000E-04	 9.14617000E-04	 0.00000000E+00
		 0.00000000E+00	 0.00000000E+00	 0.00000000E+00
		-4.01818000E-04	 9.70074000E-04	 0.00000000E+00
		 0.00000000E+00	 0.00000000E+00	 0.00000000E+00
		-1.91342000E-04	 4.61940000E-04	 0.00000000E+00
		-5.55570000E-04	 8.31470000E-04	 0.00000000E+00
		-8.41904000E-04	 2.03253000E-03	 0.00000000E+00
		-7.65367000E-04	 1.84776000E-03	 0.00000000E+00
		-6.31428000E-04	 1.52440000E-03	 0.00000000E+00
		-1.22225000E-03	 1.82923000E-03	 0.00000000E+00
		-8.03635000E-04	 1.94015000E-03	 0.00000000E+00
		-5.74025000E-04	 1.38582000E-03	 0.00000000E+00
		-1.11114000E-03	 1.66294000E-03	 0.00000000E+00
		-1.26286000E-03	 3.04880000E-03	 0.00000000E+00
		-1.14805000E-03	 2.77164000E-03	 0.00000000E+00
		-1.05238000E-03	 2.54067000E-03	 0.00000000E+00
		-1.83338000E-03	 2.74385000E-03	 0.00000000E+00
		-1.20545000E-03	 2.91022000E-03	 0.00000000E+00
		-9.56709000E-04	 2.30970000E-03	 0.00000000E+00
		-1.66671000E-03	 2.49441000E-03	 0.00000000E+00
		-1.68381000E-03	 4.06507000E-03	 0.00000000E+00
		-1.53073000E-03	 3.69552000E-03	 0.00000000E+00
		-1.47333000E-03	 3.55694000E-03	 0.00000000E+00
		-2.44451000E-03	 3.65847000E-03	 0.00000000E+00
		-1.60727000E-03	 3.88029000E-03	 0.00000000E+00
		-1.33939000E-03	 3.23358000E-03	 0.00000000E+00
		-2.22228000E-03	 3.32588000E-03	 0.00000000E+00
		-2.10476000E-03	 5.08134000E-03	 0.00000000E+00
		-1.91342000E-03	 4.61940000E-03	 0.00000000E+00
		-1.89428000E-03	 4.57320000E-03	 0.00000000E+00
		-3.05564000E-03	 4.57308000E-03	 0.00000000E+00
		-2.00909000E-03	 4.85037000E-03	 0.00000000E+00
		-1.72208000E-03	 4.15746000E-03	 0.00000000E+00
		-2.77785000E-03	 4.15735000E-03	 0.00000000E+00
		-2.52571000E-03	 6.09760000E-03	 0.00000000E+00
		-2.29610000E-03	 5.54328000E-03	 0.00000000E+00
		-2.31523000E-03	 5.58947000E-03	 0.00000000E+00
		-3.66676000E-03	 5.48770000E-03	 0.00000000E+00
		-2.41091000E-03	 5.82044000E-03	 0.00000000E+00
		-2.10476000E-03	 5.08134000E-03	 0.00000000E+00
		-3.33342000E-03	 4.98882000E-03	 0.00000000E+00
		-2.94666000E-03	 7.11387000E-03	 0.00000000E+00
		-2.67878000E-03	 6.46716000E-03	 0.00000000E+00
		-2.73619000E-03	 6.60574000E-03	 0.00000000E+00
		-4.27789000E-03	 6.40232000E-03	 0.00000000E+00
		-2.81272000E-03	 6.79051000E-03	 0.00000000E+00
		-2.48744000E-03	 6.00522000E-03	 0.00000000E+00
		-3.88899000E-03	 5.82029000E-03	 0.00000000E+00
		-3.36761000E-03	 8.13014000E-03	 0.00000000E+00
		-3.06147000E-03	 7.39104000E-03	 0.00000000E+00
		-3.15714000E-03	 7.62201000E-03	 0.00000000E+00
		-4.88902000E-03	 7.31693000E-03	 0.00000000E+00
		-3.21454000E-03	 7.76059000E-03	 0.00000000E+00
		-2.87013000E-03	 6.92910000E-03	 0.00000000E+00
		-4.44456000E-03	 6.65176000E-03	 0.00000000E+00
		-3.78857000E-03	 9.14641000E-03	 0.00000000E+00
		-3.44415000E-03	 8.31492000E-03	 0.00000000E+00
		-3.57809000E-03	 8.63827000E-03	 0.00000000E+00
		-5.50015000E-03	 8.23155000E-03	 0.00000000E+00
		-3.61636000E-03	 8.73066000E-03	 0.00000000E+00
		-3.25281000E-03	 7.85298000E-03	 0.00000000E+00
		-5.00013000E-03	 7.48323000E-03	 0.00000000E+00
		-4.20952000E-03	 1.01627000E-02	 0.00000000E+00
		-3.82683000E-03	 9.23880000E-03	 0.00000000E+00
		-3.99904000E-03	 9.65454000E-03	 0.00000000E+00
		-6.11127000E-03	 9.14617000E-03	 0.00000000E+00
		-4.01818000E-03	 9.70074000E-03	 0.00000000E+00
		-3.63549000E-03	 8.77686000E-03	 0.00000000E+00
		-5.55570000E-03	 8.31470000E-03	 0.00000000E+00
		 0.00000000E+00	 0.00000000E+00	 0.00000000E+00
		 0.00000000E+00	 1.10000000E-03	 0.00000000E+00
		 0.00000000E+00	 0.00000000E+00	 0.00000000E+00
		 0.00000000E+00	 1.00000000E-03	 0.00000000E+00
		 0.00000000E+00	 0.00000000E+00	 0.00000000E+00
		 0.00000000E+00	 5.50000000E-04	 0.00000000E+00
		-2.14599000E-04	 1.07886000E-03	 0.00000000E+00
		 0.00000000E+00	 0.00000000E+00	 0.00000000E+00
		 0.00000000E+00	 1.05000000E-03	 0.00000000E+00
		 0.00000000E+00	 0.00000000E+00	 0.00000000E+00
		 0.00000000E+00	 5.00000000E-04	 0.00000000E+00
		-1.95090000E-04	 9.80785000E-04	 0.00000000E+00
		 0.00000000E+00	 2.20000000E-03	 0.00000000E+00
		 0.00000000E+00	 2.00000000E-03	 0.00000000E+00
		 0.00000000E+00	 1.65000000E-03	 0.00000000E+00
		-4.29199000E-04	 2.15773000E-03	 0.00000000E+00
		 0.00000000E+00	 2.10000000E-03	 0.00000000E+00
		 0.00000000E+00	 1.50000000E-03	 0.00000000E+00
		-3.90181000E-04	 1.96157000E-03	 0.00000000E+00
		 0.00000000E+00	 3.30000000E-03	 0.00000000E+00
		 0.00000000E+00	 3.00000000E-03	 0.00000000E+00
		 0.00000000E+00	 2.75000000E-03	 0.00000000E+00
		-6.43798000E-04	 3.23659000E-03	 0.00000000E+00
		 0.00000000E+00	 3.15000000E-03	 0.00000000E+00
		 0.00000000E+00	 2.50000000E-03	 0.00000000E+00
		-5.85271000E-04	 2.94236000E-03	 0.00000000E+00
		 0.00000000E+00	 4.40000000E-03	 0.00000000E+00
		 0.00000000E+00	 4.00000000E-03	 0.00000000E+00
		 0.00000000E+00	 3.85000000E-03	 0.00000000E+00
		-8.58397000E-04	 4.31546000E-03	 0.00000000E+00
		 0.00000000E+00	 4.20000000E-03	 0.00000000E+00
		 0.00000000E+00	 3.50000000E-03	 0.00000000E+00
		-7.80361000E-04	 3.92314000E-03	 0.00000000E+00
		 0.00000000E+00	 5.50000000E-03	 0.00000000E+00
		 0.00000000E+00	 5.00000000E-03	 0.00000000E+00
		 0.00000000E+00	 4.95000000E-03	 0.00000000E+00
		-1.07300000E-03	 5.39432000E-03	 0.00000000E+00
		 0.00000000E+00	 5.25000000E-03	 0.00000000E+00
		 0.00000000E+00	 4.50000000E-03	 0.00000000E+00
		-9.75452000E-04	 4.90393000E-03	 0.00000000E+00
		 0.00000000E+00	 6.60000000E-03	 0.00000000E+00
		 0.00000000E+00	 6.00000000E-03	 0.00000000E+00
		 0.00000000E+00	 6.05000000E-03	 0.00000000E+00
		-1.28760000E-03	 6.47318000E-03	 0.00000000E+00
		 0.00000000E+00	 6.30000000E-03	 0.00000000E+00
		 0.00000000E+00	 5.50000000E-03	 0.00000000E+00
		-1.17054000E-03	 5.88471000E-03	 0.00000000E+00
		 0.00000000E+00	 7.70000000E-03	 0.00000000E+00
		 0.00000000E+00	 7.00000000E-03	 0.00000000E+00
		 0.00000000E+00	 7.15000000E-03	 0.00000000E+00
		-1.50220000E-03	 7.55205000E-03	 0.00000000E+00
		 0.00000000E+00	 7.35000000E-03	 0.00000000E+00
		 0.00000000E+00	 6.50000000E-03	 0.00000000E+00
		-1.36563000E-03	 6.86550000E-03	 0.00000000E+00
		 0.00000000E+00	 8.80000000E-03	 0.00000000E+00
		 0.00000000E+00	 8.00000000E-03	 0.00000000E+00
		 0.00000000E+00	 8.25000000E-03	 0.00000000E+00
		-1.71679000E-03	 8.63091000E-03	 0.00000000E+00
		 0.00000000E+00	 8.40000000E-03	 0.00000000E+00
		 0.00000000E+00	 7.50000000E-03	 0.00000000E+00
		-1.56072000E-03	 7.84628000E-03	 0.00000000E+00
		 0.00000000E+00	 9.90000000E-03	 0.00000000E+00
		 0.00000000E+00	 9.00000000E-03	 0.00000000E+00
		 0.00000000E+00	 9.35000000E-03	 0.00000000E+00
		-1.93139000E-03	 9.70977000E-03	 0.00000000E+00
		 0.00000000E+00	 9.45000000E-03	 0.00000000E+00
		 0.00000000E+00	 8.50000000E-03	 0.00000000E+00
		-1.75581000E-03	 8.82707000E-03	 0.00000000E+00
		 0.00000000E+00	 1.10000000E-02	 0.00000000E+00
		 0.00000000E+00	 1.00000000E-02	 0.00000000E+00
		 0.00000000E+00	 1.04500000E-02	 0.00000000E+00
		-2.14599000E-03	 1.07886000E-02	 0.00000000E+00
		 0.00000000E+00	 1.05000000E-02	 0.00000000E+00
		 0.00000000E+00	 9.50000000E-03	 0.00000000E+00
		-1.95090000E-03	 9.80785000E-03	 0.00000000E+00
		 0.00000000E+00	 0.00000000E+00	 0.00000000E+00
		 0.00000000E+00	 0.00000000E+00	 0.00000000E+00
		-4.20952000E-04	-1.01627000E-03	 0.00000000E+00
		 0.00000000E+00	-1.10000000E-03	 0.00000000E+00
		 0.00000000E+00	 0.00000000E+00	 0.00000000E+00
		 0.00000000E+00	 0.00000000E+00	 0.00000000E+00
		-3.82683000E-04	-9.23880000E-04	 0.00000000E+00
		 0.00000000E+00	-1.00000000E-03	 0.00000000E+00
		 0.00000000E+00	 0.00000000E+00	 0.00000000E+00
		-2.10476000E-04	-5.08134000E-04	 0.00000000E+00
		-2.14599000E-04	-1.07886000E-03	 0.00000000E+00
		 0.00000000E+00	-5.50000000E-04	 0.00000000E+00
		 0.00000000E+00	 0.00000000E+00	 0.00000000E+00
		 0.00000000E+00	 0.00000000E+00	 0.00000000E+00
		-4.01818000E-04	-9.70074000E-04	 0.00000000E+00
		 0.00000000E+00	-1.05000000E-03	 0.00000000E+00
		 0.00000000E+00	 0.00000000E+00	 0.00000000E+00
		-1.91342000E-04	-4.61940000E-04	 0.00000000E+00
		-1.95090000E-04	-9.80785000E-04	 0.00000000E+00
		 0.00000000E+00	-5.00000000E-04	 0.00000000E+00
		-8.41904000E-04	-2.03253000E-03	 0.00000000E+00
		 0.00000000E+00	-2.20000000E-03	 0.00000000E+00
		-7.65367000E-04	-1.84776000E-03	 0.00000000E+00
		 0.00000000E+00	-2.00000000E-03	 0.00000000E+00
		-6.31428000E-04	-1.52440000E-03	 0.00000000E+00
		-4.29199000E-04	-2.15773000E-03	 0.00000000E+00
		 0.00000000E+00	-1.65000000E-03	 0.00000000E+00
		-8.03635000E-04	-1.94015000E-03	 0.00000000E+00
		 0.00000000E+00	-2.10000000E-03	 0.00000000E+00
		-5.74025000E-04	-1.38582000E-03	 0.00000000E+00
		-3.90181000E-04	-1.96157000E-03	 0.00000000E+00
		 0.00000000E+00	-1.50000000E-03	 0.00000000E+00
		-1.26286000E-03	-3.04880000E-03	 0.00000000E+00
		 0.00000000E+00	-3.30000000E-03	 0.00000000E+00
		-1.14805000E-03	-2.77164000E-03	 0.00000000E+00
		 0.00000000E+00	-3.00000000E-03	 0.00000000E+00
		-1.05238000E-03	-2.54067000E-03	 0.00000000E+00
		-6.43798000E-04	-3.23659000E-03	 0.00000000E+00
		 0.00000000E+00	-2.75000000E-03	 0.00000000E+00
		-1.20545000E-03	-2.91022000E-03	 0.00000000E+00
		 0.00000000E+00	-3.15000000E-03	 0.00000000E+00
		-9.56709000E-04	-2.30970000E-03	 0.00000000E+00
		-5.85271000E-04	-2.94236000E-03	 0.00000000E+00
		 0.00000000E+00	-2.50000000E-03	 0.00000000E+00
		-1.68381000E-03	-4.06507000E-03	 0.00000000E+00
		 0.00000000E+00	-4.40000000E-03	 0.00000000E+00