# vtk DataFile Version 3.0

ASCII
DATASET UNSTRUCTURED_GRID

POINTS 16 double
	 1.00000000E+00	 1.00000000E+00	-1.49012000E-08
	 1.00000000E+00	 0.00000000E+00	-1.49012000E-08
	 1.00000000E+00	 0.00000000E+00	 1.00000000E+00
	 1.00000000E+00	 1.00000000E+00	 1.00000000E+00
	-7.45058000E-09	 1.00000000E+00	-1.49012000E-08
	-7.45058000E-09	 0.00000000E+00	-1.49012000E-08
	-7.45058000E-09	 0.00000000E+00	 1.00000000E+00
	-7.45058000E-09	 1.00000000E+00	 1.00000000E+00
	 5.00000000E-01	 6.41421000E-01	 1.00000000E+00
	 6.41421000E-01	 5.00000000E-01	 1.00000000E+00
	 6.41421000E-01	 5.00000000E-01	 1.20000000E+00
	 5.00000000E-01	 6.41421000E-01	 1.20000000E+00
	 3.58579000E-01	 5.00000000E-01	 1.00000000E+00
	 5.00000000E-01	 3.58579000E-01	 1.00000000E+00
	 5.00000000E-01	 3.58579000E-01	 1.20000000E+00
	 3.58579000E-01	 5.00000000E-01	 1.20000000E+00

CELLS 2 18
	8 0 1 2 3 4 5 6 7 
	8 8 9 10 11 12 13 14 15 

CELL_TYPES 2
	12
	12

POINT_DATA 16
FIELD U 1
	U 3 16 double
		 0.00000000E+00	 0.00000000E+00	 0.00000000E+00
		 0.00000000E+00	 0.00000000E+00	 0.00000000E+00
		 3.57617000E-06	-1.30909000E-05	-1.74731000E-05
		 3.57620000E-06	-4.76247000E-06	-1.74731000E-05
		 0.00000000E+00	 0.00000000E+00	 0.00000000E+00
		 0.00000000E+00	 0.00000000E+00	 0.00000000E+00
		-3.57617000E-06	-1.30909000E-05	-1.74731000E-05
		-3.57620000E-06	-4.76247000E-06	-1.74731000E-05
		 0.00000000E+00	-9.78219000E-02	-2.74747000E-05
		 2.55906000E-05	-9.78403000E-02	-2.74747000E-05
		 9.69590000E-06	-9.78875000E-02	-1.16488000E-04
		 0.00000000E+00	-9.79041000E-02	-8.10732000E-05
		-2.55906000E-05	-9.78403000E-02	-2.74747000E-05
		 0.00000000E+00	-9.78413000E-02	-2.74747000E-05
		 0.00000000E+00	-9.80000000E-02	-1.91904000E-04
		-9.69590000E-06	-9.78875000E-02	-1.16488000E-04
FIELD S 1
	S 10 16 double
		-2.11692000E+00	-2.11692000E+00	-4.93922000E+00	-2.75123000E-06	-3.84611000E-01	 2.88827000E-01	 2.94268878E+00	-5.01893913E+00	-2.11692264E+00	-2.03719823E+00
		-2.11691000E+00	-2.11689000E+00	-4.93919000E+00	-7.56231000E-06	-1.05725000E+00	 2.88825000E-01	 3.40131051E+00	-5.31480827E+00	-2.11691246E+00	-1.74126928E+00
		 9.14064000E-01	 1.10407000E+00	-3.06363000E+00	-5.18642000E-06	-1.05727000E+00	 2.88831000E-01	 4.49640603E+00	-3.33507269E+00	 9.22293224E-01	 1.36728347E+00
		 9.14072000E-01	 1.10405000E+00	-3.06364000E+00	-3.72747000E-07	-3.84620000E-01	 2.88834000E-01	 4.16029266E+00	-3.11935032E+00	 9.31269067E-01	 1.14256326E+00
		-2.11692000E+00	-2.11692000E+00	-4.93922000E+00	 2.75123000E-06	-3.84611000E-01	-2.88827000E-01	 2.94268878E+00	-5.01893913E+00	-2.11692264E+00	-2.03719823E+00
		-2.11691000E+00	-2.11689000E+00	-4.93919000E+00	 7.56231000E-06	-1.05724000E+00	-2.88825000E-01	 3.40130118E+00	-5.31480235E+00	-2.11691246E+00	-1.74127519E+00
		 9.14064000E-01	 1.10407000E+00	-3.06363000E+00	 5.17488000E-06	-1.05727000E+00	-2.88831000E-01	 4.49640603E+00	-3.33507269E+00	 9.22293227E-01	 1.36728347E+00
		 9.14072000E-01	 1.10405000E+00	-3.06364000E+00	 3.66268000E-07	-3.84620000E-01	-2.88834000E-01	 4.16029266E+00	-3.11935032E+00	 9.31269069E-01	 1.14256326E+00
		 3.44175000E+01	 2.61416000E+01	-3.80781000E+01	 0.00000000E+00	-3.31749000E+01	 0.00000000E+00	 8.95871541E+01	-5.21376821E+01	 3.44175000E+01	 4.02011821E+01
		 5.54251000E+00	-1.26425000E+01	-9.55178000E+01	-4.93788000E+00	-1.90872000E+01	-6.41179000E+00	 9.99777117E+01	-1.00209884E+02	-9.23241213E+00	 6.82450612E+00
		 6.55820000E+00	 5.02503000E+01	-7.63394000E+01	 3.68820000E+01	 1.25614000E+01	 5.00227000E+00	 1.30507709E+02	-7.75994238E+01	-1.44073433E+01	 7.24758671E+01
		-2.73082000E+01	-5.73508000E+01	-8.16281000E+01	 0.00000000E+00	-1.29601000E+01	 0.00000000E+00	 5.22033610E+01	-8.72464491E+01	-5.17324509E+01	-2.73082000E+01
		 5.54251000E+00	-1.26425000E+01	-9.55178000E+01	 4.93788000E+00	-1.90872000E+01	 6.41179000E+00	 9.99777117E+01	-1.00209884E+02	-9.23241213E+00	 6.82450612E+00
		-4.75279000E+01	-7.55387000E+01	-2.09240000E+02	 0.00000000E+00	-6.39550000E+01	 0.00000000E+00	 1.86216135E+02	-2.34905573E+02	-4.98731275E+01	-4.75279000E+01
		 1.62259000E+01	 1.33820000E+02	-1.27383000E+02	 0.00000000E+00	-2.09585000E+01	 0.00000000E+00	 2.29471619E+02	-1.29053986E+02	 1.62259000E+01	 1.35490986E+02
		 6.55820000E+00	 5.02503000E+01	-7.63394000E+01	-3.68820000E+01	 1.25614000E+01	-5.00227000E+00	 1.30507709E+02	-7.75994238E+01	-1.44073433E+01	 7.24758671E+01
FIELD CONTACT 1
	CONTACT 6 16 double
		 0.00000000E+00	 0.00000000E+00	 0.00000000E+00	 0.00000000E+00	 0.00000000E+00	 0.00000000E+00
		 0.00000000E+00	 0.00000000E+00	 0.00000000E+00	 0.00000000E+00	 0.00000000E+00	 0.00000000E+00
		 0.00000000E+00	 0.00000000E+00	 0.00000000E+00	 0.00000000E+00	 0.00000000E+00	 0.00000000E+00
		 0.00000000E+00	 0.00000000E+00	 0.00000000E+00	 0.00000000E+00	 0.00000000E+00	 0.00000000E+00
		 0.00000000E+00	 0.00000000E+00	 0.00000000E+00	 0.00000000E+00	 0.00000000E+00	 0.00000000E+00
		 0.00000000E+00	 0.00000000E+00	 0.00000000E+00	 0.00000000E+00	 0.00000000E+00	 0.00000000E+00
		 0.00000000E+00	 0.00000000E+00	 0.00000000E+00	 0.00000000E+00	 0.00000000E+00	 0.00000000E+00
		 0.00000000E+00	 0.00000000E+00	 0.00000000E+00	 0.00000000E+00	 0.00000000E+00	 0.00000000E+00
		-1.00016000E-05	 0.00000000E+00	-9.78167000E-02	 1.00016000E+02	 0.00000000E+00	-1.80193000E+01
		-1.00016000E-05	 1.95999000E-05	-9.78303000E-02	 1.00016000E+02	-3.28031000E-04	-1.80194000E+01
		 0.00000000E+00	 0.00000000E+00	 0.00000000E+00	 0.00000000E+00	 0.00000000E+00	 0.00000000E+00
		 0.00000000E+00	 0.00000000E+00	 0.00000000E+00	 0.00000000E+00	 0.00000000E+00	 0.00000000E+00
		-1.00016000E-05	-1.95999000E-05	-9.78303000E-02	 1.00016000E+02	 3.28031000E-04	-1.80194000E+01
		-1.00016000E-05	 0.00000000E+00	-9.78303000E-02	 1.00016000E+02	 0.00000000E+00	-1.80211000E+01
		 0.00000000E+00	 0.00000000E+00	 0.00000000E+00	 0.00000000E+00	 0.00000000E+00	 0.00000000E+00
		 0.00000000E+00	 0.00000000E+00	 0.00000000E+00	 0.00000000E+00	 0.00000000E+00	 0.00000000E+00
