# vtk DataFile Version 3.0

ASCII
DATASET UNSTRUCTURED_GRID

POINTS 16 double
	 1.00000000E+00	 1.00000000E+00	-1.49012000E-08
	 1.00000000E+00	 0.00000000E+00	-1.49012000E-08
	 1.00000000E+00	 0.00000000E+00	 1.00000000E+00
	 1.00000000E+00	 1.00000000E+00	 1.00000000E+00
	-7.45058000E-09	 1.00000000E+00	-1.49012000E-08
	-7.45058000E-09	 0.00000000E+00	-1.49012000E-08
	-7.45058000E-09	 0.00000000E+00	 1.00000000E+00
	-7.45058000E-09	 1.00000000E+00	 1.00000000E+00
	 5.00000000E-01	 6.41421000E-01	 1.00000000E+00
	 6.41421000E-01	 5.00000000E-01	 1.00000000E+00
	 6.41421000E-01	 5.00000000E-01	 1.20000000E+00
	 5.00000000E-01	 6.41421000E-01	 1.20000000E+00
	 3.58579000E-01	 5.00000000E-01	 1.00000000E+00
	 5.00000000E-01	 3.58579000E-01	 1.00000000E+00
	 5.00000000E-01	 3.58579000E-01	 1.20000000E+00
	 3.58579000E-01	 5.00000000E-01	 1.20000000E+00

CELLS 2 18
	8 0 1 2 3 4 5 6 7 
	8 8 9 10 11 12 13 14 15 

CELL_TYPES 2
	12
	12

POINT_DATA 16
FIELD U 1
	U 3 16 double
		 0.00000000E+00	 0.00000000E+00	 0.00000000E+00
		 0.00000000E+00	 0.00000000E+00	 0.00000000E+00
		 3.65259000E-06	 3.40964000E-07	-1.73970000E-05
		 3.65259000E-06	 8.17330000E-06	-1.73970000E-05
		 0.00000000E+00	 0.00000000E+00	 0.00000000E+00
		 0.00000000E+00	 0.00000000E+00	 0.00000000E+00
		-3.65259000E-06	 3.40964000E-07	-1.73970000E-05
		-3.65259000E-06	 8.17330000E-06	-1.73970000E-05
		 0.00000000E+00	 8.84748000E-02	-2.73961000E-05
		 1.76552000E-05	 8.84536000E-02	-2.73961000E-05
		 2.52350000E-05	 8.84762000E-02	-1.25752000E-04
		 0.00000000E+00	 8.85140000E-02	-1.42651000E-04
		-1.76552000E-05	 8.84536000E-02	-2.73961000E-05
		 0.00000000E+00	 8.84243000E-02	-2.73961000E-05
		 0.00000000E+00	 8.85000000E-02	-8.97888000E-05
		-2.52350000E-05	 8.84762000E-02	-1.25752000E-04
FIELD S 1
	S 10 16 double
		-2.10769000E+00	-2.10769000E+00	-4.91769000E+00	 4.82242000E-06	 6.60095000E-01	 2.94997000E-01	 3.07641771E+00	-5.09280804E+00	-2.10769359E+00	-1.93256837E+00
		-2.10770000E+00	-2.10770000E+00	-4.91770000E+00	 2.01190000E-07	 2.75260000E-02	 2.94997000E-01	 2.85647383E+00	-4.94859899E+00	-2.10770004E+00	-2.07680097E+00
		 9.06382000E-01	 9.91537000E-01	-3.08372000E+00	 5.69305000E-07	 2.75266000E-02	 2.95004000E-01	 4.06586986E+00	-3.10559682E+00	 9.28010877E-01	 9.91784939E-01
		 9.06389000E-01	 9.91553000E-01	-3.08371000E+00	 5.19172000E-06	 6.60111000E-01	 2.95004000E-01	 4.22330172E+00	-3.20860403E+00	 9.15342706E-01	 1.10749332E+00
		-2.10769000E+00	-2.10769000E+00	-4.91769000E+00	-4.82242000E-06	 6.60095000E-01	-2.94997000E-01	 3.07641771E+00	-5.09280804E+00	-2.10769359E+00	-1.93256837E+00
		-2.10770000E+00	-2.10770000E+00	-4.91770000E+00	-2.01190000E-07	 2.75259000E-02	-2.94997000E-01	 2.85647383E+00	-4.94859899E+00	-2.10770004E+00	-2.07680097E+00
		 9.06382000E-01	 9.91537000E-01	-3.08372000E+00	-5.66154000E-07	 2.75266000E-02	-2.95004000E-01	 4.06586986E+00	-3.10559682E+00	 9.28010877E-01	 9.91784939E-01
		 9.06389000E-01	 9.91553000E-01	-3.08371000E+00	-5.18630000E-06	 6.60111000E-01	-2.95004000E-01	 4.22330172E+00	-3.20860403E+00	 9.15342709E-01	 1.10749332E+00
		-1.64147000E+01	-1.24470000E+01	-1.29521000E+02	 0.00000000E+00	 1.58133000E+01	 0.00000000E+00	 1.18354261E+02	-1.31619310E+02	-1.64147000E+01	-1.03486899E+01
		-2.65263000E+00	 6.01287000E+00	-1.02159000E+02	 2.35269000E+00	 9.09363000E+00	 3.05710000E+00	 1.05506428E+02	-1.02999180E+02	-3.24533106E+00	 7.44575153E+00
		-3.12859000E+00	-2.39835000E+01	-1.11294000E+02	-1.75954000E+01	-5.98796000E+00	-2.38413000E+00	 1.04557720E+02	-1.11824295E+02	-3.34856683E+01	 6.90387358E+00
		 1.30289000E+01	 2.73715000E+01	-1.08751000E+02	 0.00000000E+00	 6.16844000E+00	 0.00000000E+00	 1.29987859E+02	-1.09029953E+02	 1.30289000E+01	 2.76504534E+01
		-2.65263000E+00	 6.01287000E+00	-1.02159000E+02	-2.35269000E+00	 9.09363000E+00	-3.05710000E+00	 1.05506428E+02	-1.02999180E+02	-3.24533106E+00	 7.44575153E+00
		 2.26666000E+01	 3.60488000E+01	-4.78554000E+01	 0.00000000E+00	 3.05499000E+01	 0.00000000E+00	 9.43189506E+01	-5.78000734E+01	 2.26666000E+01	 4.59934734E+01
		-7.72972000E+00	-6.37441000E+01	-8.69057000E+01	 0.00000000E+00	 1.00120000E+01	 0.00000000E+00	 7.26097347E+01	-9.06335601E+01	-6.00162399E+01	-7.72972000E+00
		-3.12859000E+00	-2.39835000E+01	-1.11294000E+02	 1.75954000E+01	-5.98796000E+00	 2.38413000E+00	 1.04557720E+02	-1.11824295E+02	-3.34856683E+01	 6.90387358E+00
FIELD CONTACT 1
	CONTACT 6 16 double
		 0.00000000E+00	 0.00000000E+00	 0.00000000E+00	 0.00000000E+00	 0.00000000E+00	 0.00000000E+00
		 0.00000000E+00	 0.00000000E+00	 0.00000000E+00	 0.00000000E+00	 0.00000000E+00	 0.00000000E+00
		 0.00000000E+00	 0.00000000E+00	 0.00000000E+00	 0.00000000E+00	 0.00000000E+00	 0.00000000E+00
		 0.00000000E+00	 0.00000000E+00	 0.00000000E+00	 0.00000000E+00	 0.00000000E+00	 0.00000000E+00
		 0.00000000E+00	 0.00000000E+00	 0.00000000E+00	 0.00000000E+00	 0.00000000E+00	 0.00000000E+00
		 0.00000000E+00	 0.00000000E+00	 0.00000000E+00	 0.00000000E+00	 0.00000000E+00	 0.00000000E+00
		 0.00000000E+00	 0.00000000E+00	 0.00000000E+00	 0.00000000E+00	 0.00000000E+00	 0.00000000E+00
		 0.00000000E+00	 0.00000000E+00	 0.00000000E+00	 0.00000000E+00	 0.00000000E+00	 0.00000000E+00
		-9.99916000E-06	 0.00000000E+00	 8.84646000E-02	 9.99916000E+01	 0.00000000E+00	 8.58958000E+00
		-9.99916000E-06	 1.32548000E-05	 8.84487000E-02	 9.99916000E+01	 3.36437000E-03	 8.59041000E+00
		 0.00000000E+00	 0.00000000E+00	 0.00000000E+00	 0.00000000E+00	 0.00000000E+00	 0.00000000E+00
		 0.00000000E+00	 0.00000000E+00	 0.00000000E+00	 0.00000000E+00	 0.00000000E+00	 0.00000000E+00
		-9.99916000E-06	-1.32548000E-05	 8.84487000E-02	 9.99916000E+01	-3.36437000E-03	 8.59041000E+00
		-9.99916000E-06	 0.00000000E+00	 8.84261000E-02	 9.99916000E+01	 0.00000000E+00	 8.60010000E+00
		 0.00000000E+00	 0.00000000E+00	 0.00000000E+00	 0.00000000E+00	 0.00000000E+00	 0.00000000E+00
		 0.00000000E+00	 0.00000000E+00	 0.00000000E+00	 0.00000000E+00	 0.00000000E+00	 0.00000000E+00
