    1C
    1UUSER                                                              
    1UDATE              01.august.2019                                  
    1UTIME              09:37:09                                        
    1UHOST                                                              
    1UPGM               CalculiX                                        
    1UVERSION           Version 2.15                             
    1UCOMPILETIME       Fri 15 Mar 11:57:46 CET 2019                    
    1UDIR                                                               
    1UDBN                                                               
    1UMAT    1EL                                                        
    2C                          1013                                     1
 -1         1 1.86265E-09 9.65573E-01 2.60134E-01
 -1         2 1.86265E-09 9.80586E-01 1.96092E-01
 -1         3 5.00000E-02 9.80586E-01 1.96092E-01
 -1         4 5.00000E-02 9.65573E-01 2.60134E-01
 -1         5-8.19564E-08 9.07479E-01 2.45329E-01
 -1         6-5.86733E-08 9.17553E-01 1.84823E-01
 -1         7 4.99999E-02 9.17553E-01 1.84823E-01
 -1         8 4.99999E-02 9.07479E-01 2.45329E-01
 -1         9 1.86265E-09 9.73606E-01 2.28236E-01
 -1        10 2.50000E-02 9.80586E-01 1.96092E-01
 -1        11 5.00000E-02 9.73606E-01 2.28236E-01
 -1        12 2.50000E-02 9.65573E-01 2.60134E-01
 -1        13-4.00469E-08 9.36526E-01 2.52732E-01
 -1        14-3.07336E-08 9.49069E-01 1.90457E-01
 -1        15 5.00000E-02 9.49069E-01 1.90457E-01
 -1        16 5.00000E-02 9.36526E-01 2.52732E-01
 -1        17-7.26432E-08 9.12955E-01 2.15179E-01
 -1        18 2.49999E-02 9.17553E-01 1.84823E-01
 -1        19 4.99999E-02 9.12955E-01 2.15179E-01
 -1        20 2.49999E-02 9.07479E-01 2.45329E-01
 -1        21 1.86265E-09 9.91356E-01 1.31201E-01
 -1        22 5.00000E-02 9.91356E-01 1.31201E-01
 -1        23-4.00469E-08 9.24092E-01 1.23610E-01
 -1        24 5.00000E-02 9.24092E-01 1.23610E-01
 -1        25 1.86265E-09 9.86504E-01 1.63735E-01
 -1        26 2.50000E-02 9.91356E-01 1.31201E-01
 -1        27 5.00000E-02 9.86504E-01 1.63735E-01
 -1        28-2.14204E-08 9.57724E-01 1.27405E-01
 -1        29 5.00000E-02 9.57724E-01 1.27405E-01
 -1        30-4.93601E-08 9.21268E-01 1.54290E-01
 -1        31 2.50000E-02 9.24092E-01 1.23610E-01
 -1        32 4.99999E-02 9.21268E-01 1.54290E-01
 -1        33 1.86265E-09 9.97837E-01 6.57427E-02
 -1        34 5.00000E-02 9.97837E-01 6.57427E-02
 -1        35-2.14204E-08 9.27057E-01 6.19234E-02
 -1        36 5.00000E-02 9.27057E-01 6.19234E-02
 -1        37 1.86265E-09 9.95135E-01 9.85252E-02
 -1        38 2.50000E-02 9.97837E-01 6.57427E-02
 -1        39 5.00000E-02 9.95135E-01 9.85252E-02
 -1        40-7.45058E-09 9.62447E-01 6.38331E-02
 -1        41 5.00000E-02 9.62447E-01 6.38331E-02
 -1        42-3.07336E-08 9.26023E-01 9.28111E-02
 -1        43 2.50000E-02 9.27057E-01 6.19234E-02
 -1        44 5.00000E-02 9.26023E-01 9.28111E-02
 -1        45 1.86265E-09 1.00000E+00 0.00000E+00
 -1        46 5.00000E-02 1.00000E+00 0.00000E+00
 -1        47 1.86265E-09 9.26423E-01 0.00000E+00
 -1        48 5.00000E-02 9.26423E-01 0.00000E+00
 -1        49 1.86265E-09 9.99459E-01 3.28892E-02
 -1        50 2.50000E-02 1.00000E+00 0.00000E+00
 -1        51 5.00000E-02 9.99459E-01 3.28892E-02
 -1        52 1.86265E-09 9.63211E-01 0.00000E+00
 -1        53 5.00000E-02 9.63211E-01 0.00000E+00
 -1        54-7.45058E-09 9.27190E-01 3.09765E-02
 -1        55 2.50000E-02 9.26423E-01 0.00000E+00
 -1        56 5.00000E-02 9.27190E-01 3.09765E-02
 -1        57-1.65775E-07 8.49385E-01 2.30525E-01
 -1        58-1.23866E-07 8.54521E-01 1.73555E-01
 -1        59 4.99999E-02 8.54521E-01 1.73555E-01
 -1        60 4.99998E-02 8.49385E-01 2.30525E-01
 -1        61-1.23866E-07 8.78432E-01 2.37927E-01
 -1        62-9.12696E-08 8.86037E-01 1.79189E-01
 -1        63 4.99999E-02 8.86037E-01 1.79189E-01
 -1        64 4.99999E-02 8.78432E-01 2.37927E-01
 -1        65-1.47149E-07 8.52305E-01 2.02122E-01
 -1        66 2.49999E-02 8.54521E-01 1.73555E-01
 -1        67 4.99999E-02 8.52305E-01 2.02122E-01
 -1        68 2.49998E-02 8.49385E-01 2.30525E-01
 -1        69-8.19564E-08 8.56829E-01 1.16019E-01
 -1        70 4.99999E-02 8.56829E-01 1.16019E-01
 -1        71-6.33299E-08 8.90460E-01 1.19814E-01
 -1        72 4.99999E-02 8.90460E-01 1.19814E-01
 -1        73-1.05239E-07 8.56031E-01 1.44846E-01
 -1        74 2.49999E-02 8.56829E-01 1.16019E-01
 -1        75 4.99999E-02 8.56031E-01 1.44846E-01
 -1        76-4.00469E-08 8.56277E-01 5.81042E-02
 -1        77 5.00000E-02 8.56277E-01 5.81042E-02
 -1        78-3.07336E-08 8.91667E-01 6.00138E-02
 -1        79 5.00000E-02 8.91667E-01 6.00138E-02
 -1        80-5.86733E-08 8.56912E-01 8.70969E-02
 -1        81 2.50000E-02 8.56277E-01 5.81042E-02
 -1        82 4.99999E-02 8.56912E-01 8.70969E-02
 -1        83 1.86265E-09 8.52846E-01 0.00000E+00
 -1        84 5.00000E-02 8.52846E-01 0.00000E+00
 -1        85 1.86265E-09 8.89634E-01 0.00000E+00
 -1        86 5.00000E-02 8.89634E-01 0.00000E+00
 -1        87-1.67638E-08 8.54922E-01 2.90639E-02
 -1        88 2.50000E-02 8.52846E-01 0.00000E+00
 -1        89 5.00000E-02 8.54922E-01 2.90639E-02
 -1        90-2.49594E-07 7.91292E-01 2.15721E-01
 -1        91-1.84402E-07 7.91489E-01 1.62286E-01
 -1        92 4.99998E-02 7.91489E-01 1.62286E-01
 -1        93 4.99998E-02 7.91292E-01 2.15721E-01
 -1        94-2.07685E-07 8.20339E-01 2.23123E-01
 -1        95-1.56462E-07 8.23005E-01 1.67921E-01
 -1        96 4.99998E-02 8.23005E-01 1.67921E-01
 -1        97 4.99998E-02 8.20339E-01 2.23123E-01
 -1        98-2.16998E-07 7.91654E-01 1.89065E-01
 -1        99 2.49998E-02 7.91489E-01 1.62286E-01
 -1       100 4.99998E-02 7.91654E-01 1.89065E-01
 -1       101 2.49997E-02 7.91292E-01 2.15721E-01
 -1       102-1.23866E-07 7.89565E-01 1.08427E-01
 -1       103 4.99999E-02 7.89565E-01 1.08427E-01
 -1       104-1.05239E-07 8.23197E-01 1.12223E-01
 -1       105 4.99999E-02 8.23197E-01 1.12223E-01
 -1       106-1.56462E-07 7.90794E-01 1.35401E-01
 -1       107 2.49999E-02 7.89565E-01 1.08427E-01
 -1       108 4.99998E-02 7.90794E-01 1.35401E-01
 -1       109-6.33299E-08 7.85496E-01 5.42849E-02
 -1       110 4.99999E-02 7.85496E-01 5.42849E-02
 -1       111-4.93601E-08 8.20886E-01 5.61945E-02
 -1       112 4.99999E-02 8.20886E-01 5.61945E-02
 -1       113-9.12696E-08 7.87800E-01 8.13828E-02
 -1       114 2.49999E-02 7.85496E-01 5.42849E-02
 -1       115 4.99999E-02 7.87800E-01 8.13828E-02
 -1       116 1.86265E-09 7.79269E-01 0.00000E+00
 -1       117 5.00000E-02 7.79269E-01 0.00000E+00
 -1       118 1.86265E-09 8.16058E-01 0.00000E+00
 -1       119 5.00000E-02 8.16058E-01 0.00000E+00
 -1       120-3.07336E-08 7.82653E-01 2.71513E-02
 -1       121 2.50000E-02 7.79269E-01 0.00000E+00
 -1       122 5.00000E-02 7.82653E-01 2.71513E-02
 -1       123-3.28757E-07 7.33198E-01 2.00917E-01
 -1       124-2.44938E-07 7.28457E-01 1.51018E-01
 -1       125 4.99998E-02 7.28457E-01 1.51018E-01
 -1       126 4.99997E-02 7.33198E-01 2.00917E-01
 -1       127-2.86847E-07 7.62245E-01 2.08319E-01
 -1       128-2.12342E-07 7.59973E-01 1.56652E-01
 -1       129 4.99998E-02 7.59973E-01 1.56652E-01
 -1       130 4.99997E-02 7.62245E-01 2.08319E-01
 -1       131-2.86847E-07 7.31003E-01 1.76008E-01
 -1       132 2.49998E-02 7.28457E-01 1.51018E-01
 -1       133 4.99997E-02 7.31003E-01 1.76008E-01
 -1       134 2.49997E-02 7.33198E-01 2.00917E-01
 -1       135-1.65775E-07 7.22302E-01 1.00836E-01
 -1       136 4.99998E-02 7.22302E-01 1.00836E-01
 -1       137-1.42492E-07 7.55933E-01 1.04632E-01
 -1       138 4.99999E-02 7.55933E-01 1.04632E-01
 -1       139-2.03028E-07 7.25557E-01 1.25957E-01
 -1       140 2.49998E-02 7.22302E-01 1.00836E-01
 -1       141 4.99998E-02 7.25557E-01 1.25957E-01
 -1       142-8.19564E-08 7.14716E-01 5.04656E-02
 -1       143 4.99999E-02 7.14716E-01 5.04656E-02
 -1       144-7.26432E-08 7.50106E-01 5.23752E-02
 -1       145 4.99999E-02 7.50106E-01 5.23752E-02
 -1       146-1.23866E-07 7.18689E-01 7.56687E-02
 -1       147 2.49999E-02 7.14716E-01 5.04656E-02
 -1       148 4.99999E-02 7.18689E-01 7.56687E-02
 -1       149 1.86265E-09 7.05692E-01 0.00000E+00
 -1       150 5.00000E-02 7.05692E-01 0.00000E+00
 -1       151 1.86265E-09 7.42481E-01 0.00000E+00
 -1       152 5.00000E-02 7.42481E-01 0.00000E+00
 -1       153-4.00469E-08 7.10384E-01 2.52387E-02
 -1       154 2.50000E-02 7.05692E-01 0.00000E+00
 -1       155 5.00000E-02 7.10384E-01 2.52387E-02
 -1       156-4.12576E-07 6.75105E-01 1.86112E-01
 -1       157-3.10130E-07 6.65425E-01 1.39749E-01
 -1       158 4.99997E-02 6.65425E-01 1.39749E-01
 -1       159 4.99996E-02 6.75105E-01 1.86112E-01
 -1       160-3.70666E-07 7.04152E-01 1.93514E-01
 -1       161-2.77534E-07 6.96941E-01 1.45384E-01
 -1       162 4.99997E-02 6.96941E-01 1.45384E-01
 -1       163 4.99996E-02 7.04152E-01 1.93514E-01
 -1       164-3.61353E-07 6.70353E-01 1.62951E-01
 -1       165 2.49997E-02 6.65425E-01 1.39749E-01
 -1       166 4.99996E-02 6.70353E-01 1.62951E-01
 -1       167 2.49996E-02 6.75105E-01 1.86112E-01
 -1       168-2.07685E-07 6.55038E-01 9.32451E-02
 -1       169 4.99998E-02 6.55038E-01 9.32451E-02
 -1       170-1.84402E-07 6.88670E-01 9.70407E-02
 -1       171 4.99998E-02 6.88670E-01 9.70407E-02
 -1       172-2.58908E-07 6.60321E-01 1.16512E-01
 -1       173 2.49998E-02 6.55038E-01 9.32451E-02
 -1       174 4.99997E-02 6.60321E-01 1.16512E-01
 -1       175-1.00583E-07 6.43936E-01 4.66463E-02
 -1       176 4.99999E-02 6.43936E-01 4.66463E-02
 -1       177-9.12696E-08 6.79326E-01 4.85559E-02
 -1       178 4.99999E-02 6.79326E-01 4.85559E-02
 -1       179-1.51806E-07 6.49577E-01 6.99546E-02
 -1       180 2.49999E-02 6.43936E-01 4.66463E-02
 -1       181 4.99998E-02 6.49577E-01 6.99546E-02
 -1       182 1.86265E-09 6.32115E-01 0.00000E+00
 -1       183 5.00000E-02 6.32115E-01 0.00000E+00
 -1       184 1.86265E-09 6.68904E-01 0.00000E+00
 -1       185 5.00000E-02 6.68904E-01 0.00000E+00
 -1       186-4.93601E-08 6.38116E-01 2.33261E-02
 -1       187 2.50000E-02 6.32115E-01 0.00000E+00
 -1       188 4.99999E-02 6.38116E-01 2.33261E-02
 -1       189-4.96395E-07 6.17011E-01 1.71308E-01
 -1       190-3.70666E-07 6.02393E-01 1.28481E-01
 -1       191 4.99996E-02 6.02393E-01 1.28481E-01
 -1       192 4.99995E-02 6.17011E-01 1.71308E-01
 -1       193-4.54485E-07 6.46058E-01 1.78710E-01
 -1       194-3.38070E-07 6.33909E-01 1.34115E-01
 -1       195 4.99997E-02 6.33909E-01 1.34115E-01
 -1       196 4.99995E-02 6.46058E-01 1.78710E-01
 -1       197-4.35859E-07 6.09702E-01 1.49894E-01
 -1       198 2.49996E-02 6.02393E-01 1.28481E-01
 -1       199 4.99996E-02 6.09702E-01 1.49894E-01
 -1       200 2.49995E-02 6.17011E-01 1.71308E-01
 -1       201-2.49594E-07 5.87775E-01 8.56540E-02
 -1       202 4.99998E-02 5.87775E-01 8.56540E-02
 -1       203-2.26311E-07 6.21406E-01 8.94495E-02
 -1       204 4.99998E-02 6.21406E-01 8.94495E-02
 -1       205-3.10130E-07 5.95084E-01 1.07067E-01
 -1       206 2.49997E-02 5.87775E-01 8.56540E-02
 -1       207 4.99997E-02 5.95084E-01 1.07067E-01
 -1       208-1.23866E-07 5.73156E-01 4.28270E-02
 -1       209 4.99999E-02 5.73156E-01 4.28270E-02
 -1       210-1.14553E-07 6.08546E-01 4.47366E-02
 -1       211 4.99999E-02 6.08546E-01 4.47366E-02
 -1       212-1.84402E-07 5.80465E-01 6.42405E-02
 -1       213 2.49999E-02 5.73156E-01 4.28270E-02
 -1       214 4.99998E-02 5.80465E-01 6.42405E-02
 -1       215 1.86265E-09 5.58538E-01 0.00000E+00
 -1       216 5.00000E-02 5.58538E-01 0.00000E+00
 -1       217 1.86265E-09 5.95327E-01 0.00000E+00
 -1       218 5.00000E-02 5.95327E-01 0.00000E+00
 -1       219-5.86733E-08 5.65847E-01 2.14135E-02
 -1       220 2.50000E-02 5.58538E-01 0.00000E+00
 -1       221 4.99999E-02 5.65847E-01 2.14135E-02
 -1       222 1.00000E-01 9.80586E-01 1.96092E-01
 -1       223 1.00000E-01 9.65573E-01 2.60134E-01
 -1       224 9.99999E-02 9.17553E-01 1.84823E-01
 -1       225 9.99999E-02 9.07479E-01 2.45329E-01
 -1       226 7.50000E-02 9.80586E-01 1.96092E-01
 -1       227 1.00000E-01 9.73606E-01 2.28236E-01
 -1       228 7.50000E-02 9.65573E-01 2.60134E-01
 -1       229 1.00000E-01 9.49069E-01 1.90457E-01
 -1       230 1.00000E-01 9.36526E-01 2.52732E-01
 -1       231 7.49999E-02 9.17553E-01 1.84823E-01
 -1       232 9.99999E-02 9.12955E-01 2.15179E-01
 -1       233 7.49999E-02 9.07479E-01 2.45329E-01
 -1       234 1.00000E-01 9.91356E-01 1.31201E-01
 -1       235 1.00000E-01 9.24092E-01 1.23610E-01
 -1       236 7.50000E-02 9.91356E-01 1.31201E-01
 -1       237 1.00000E-01 9.86504E-01 1.63735E-01
 -1       238 1.00000E-01 9.57724E-01 1.27405E-01
 -1       239 7.50000E-02 9.24092E-01 1.23610E-01
 -1       240 9.99999E-02 9.21268E-01 1.54290E-01
 -1       241 1.00000E-01 9.97837E-01 6.57427E-02
 -1       242 1.00000E-01 9.27057E-01 6.19234E-02
 -1       243 7.50000E-02 9.97837E-01 6.57427E-02
 -1       244 1.00000E-01 9.95135E-01 9.85252E-02
 -1       245 1.00000E-01 9.62447E-01 6.38331E-02
 -1       246 7.50000E-02 9.27057E-01 6.19234E-02
 -1       247 1.00000E-01 9.26023E-01 9.28111E-02
 -1       248 1.00000E-01 1.00000E+00 0.00000E+00
 -1       249 1.00000E-01 9.26423E-01 0.00000E+00
 -1       250 7.50000E-02 1.00000E+00 0.00000E+00
 -1       251 1.00000E-01 9.99459E-01 3.28892E-02
 -1       252 1.00000E-01 9.63211E-01 0.00000E+00
 -1       253 7.50000E-02 9.26423E-01 0.00000E+00
 -1       254 1.00000E-01 9.27190E-01 3.09765E-02
 -1       255 9.99999E-02 8.54521E-01 1.73555E-01
 -1       256 9.99998E-02 8.49385E-01 2.30525E-01
 -1       257 9.99999E-02 8.86037E-01 1.79189E-01
 -1       258 9.99999E-02 8.78432E-01 2.37927E-01
 -1       259 7.49999E-02 8.54521E-01 1.73555E-01
 -1       260 9.99999E-02 8.52305E-01 2.02122E-01
 -1       261 7.49998E-02 8.49385E-01 2.30525E-01
 -1       262 9.99999E-02 8.56829E-01 1.16019E-01
 -1       263 9.99999E-02 8.90460E-01 1.19814E-01
 -1       264 7.49999E-02 8.56829E-01 1.16019E-01
 -1       265 9.99999E-02 8.56031E-01 1.44846E-01
 -1       266 1.00000E-01 8.56277E-01 5.81042E-02
 -1       267 1.00000E-01 8.91667E-01 6.00138E-02
 -1       268 7.50000E-02 8.56277E-01 5.81042E-02
 -1       269 9.99999E-02 8.56912E-01 8.70969E-02
 -1       270 1.00000E-01 8.52846E-01 0.00000E+00
 -1       271 1.00000E-01 8.89634E-01 0.00000E+00
 -1       272 7.50000E-02 8.52846E-01 0.00000E+00
 -1       273 1.00000E-01 8.54922E-01 2.90639E-02
 -1       274 9.99998E-02 7.91489E-01 1.62286E-01
 -1       275 9.99997E-02 7.91292E-01 2.15721E-01
 -1       276 9.99998E-02 8.23005E-01 1.67921E-01
 -1       277 9.99998E-02 8.20339E-01 2.23123E-01
 -1       278 7.49998E-02 7.91489E-01 1.62286E-01
 -1       279 9.99998E-02 7.91654E-01 1.89065E-01
 -1       280 7.49997E-02 7.91292E-01 2.15721E-01
 -1       281 9.99999E-02 7.89565E-01 1.08427E-01
 -1       282 9.99999E-02 8.23197E-01 1.12223E-01
 -1       283 7.49999E-02 7.89565E-01 1.08427E-01
 -1       284 9.99998E-02 7.90794E-01 1.35401E-01
 -1       285 9.99999E-02 7.85496E-01 5.42849E-02
 -1       286 9.99999E-02 8.20886E-01 5.61945E-02
 -1       287 7.49999E-02 7.85496E-01 5.42849E-02
 -1       288 9.99999E-02 7.87800E-01 8.13828E-02
 -1       289 1.00000E-01 7.79269E-01 0.00000E+00
 -1       290 1.00000E-01 8.16058E-01 0.00000E+00
 -1       291 7.50000E-02 7.79269E-01 0.00000E+00
 -1       292 1.00000E-01 7.82653E-01 2.71513E-02
 -1       293 9.99998E-02 7.28457E-01 1.51018E-01
 -1       294 9.99997E-02 7.33198E-01 2.00917E-01
 -1       295 9.99998E-02 7.59973E-01 1.56652E-01
 -1       296 9.99997E-02 7.62245E-01 2.08319E-01
 -1       297 7.49997E-02 7.28457E-01 1.51018E-01
 -1       298 9.99997E-02 7.31003E-01 1.76008E-01
 -1       299 7.49997E-02 7.33198E-01 2.00917E-01
 -1       300 9.99998E-02 7.22302E-01 1.00836E-01
 -1       301 9.99999E-02 7.55933E-01 1.04632E-01
 -1       302 7.49998E-02 7.22302E-01 1.00836E-01
 -1       303 9.99998E-02 7.25557E-01 1.25957E-01
 -1       304 9.99999E-02 7.14716E-01 5.04656E-02
 -1       305 9.99999E-02 7.50106E-01 5.23752E-02
 -1       306 7.49999E-02 7.14716E-01 5.04656E-02
 -1       307 9.99999E-02 7.18689E-01 7.56687E-02
 -1       308 1.00000E-01 7.05692E-01 0.00000E+00
 -1       309 1.00000E-01 7.42481E-01 0.00000E+00
 -1       310 7.50000E-02 7.05692E-01 0.00000E+00
 -1       311 1.00000E-01 7.10384E-01 2.52387E-02
 -1       312 9.99997E-02 6.65425E-01 1.39749E-01
 -1       313 9.99996E-02 6.75105E-01 1.86112E-01
 -1       314 9.99997E-02 6.96941E-01 1.45384E-01
 -1       315 9.99996E-02 7.04152E-01 1.93514E-01
 -1       316 7.49997E-02 6.65425E-01 1.39749E-01
 -1       317 9.99996E-02 6.70353E-01 1.62951E-01
 -1       318 7.49996E-02 6.75105E-01 1.86112E-01
 -1       319 9.99998E-02 6.55038E-01 9.32451E-02
 -1       320 9.99998E-02 6.88670E-01 9.70407E-02
 -1       321 7.49998E-02 6.55038E-01 9.32451E-02
 -1       322 9.99997E-02 6.60321E-01 1.16512E-01
 -1       323 9.99999E-02 6.43936E-01 4.66463E-02
 -1       324 9.99999E-02 6.79326E-01 4.85559E-02
 -1       325 7.49999E-02 6.43936E-01 4.66463E-02
 -1       326 9.99998E-02 6.49577E-01 6.99546E-02
 -1       327 1.00000E-01 6.32115E-01 0.00000E+00
 -1       328 1.00000E-01 6.68904E-01 0.00000E+00
 -1       329 7.50000E-02 6.32115E-01 0.00000E+00
 -1       330 9.99999E-02 6.38116E-01 2.33261E-02
 -1       331 9.99996E-02 6.02393E-01 1.28481E-01
 -1       332 9.99995E-02 6.17011E-01 1.71308E-01
 -1       333 9.99997E-02 6.33909E-01 1.34115E-01
 -1       334 9.99995E-02 6.46058E-01 1.78710E-01
 -1       335 7.49996E-02 6.02393E-01 1.28481E-01
 -1       336 9.99996E-02 6.09702E-01 1.49894E-01
 -1       337 7.49995E-02 6.17011E-01 1.71308E-01
 -1       338 9.99997E-02 5.87775E-01 8.56540E-02
 -1       339 9.99998E-02 6.21406E-01 8.94495E-02
 -1       340 7.49997E-02 5.87775E-01 8.56540E-02
 -1       341 9.99997E-02 5.95084E-01 1.07067E-01
 -1       342 9.99999E-02 5.73156E-01 4.28270E-02
 -1       343 9.99999E-02 6.08546E-01 4.47366E-02
 -1       344 7.49999E-02 5.73156E-01 4.28270E-02
 -1       345 9.99998E-02 5.80465E-01 6.42405E-02
 -1       346 1.00000E-01 5.58538E-01 0.00000E+00
 -1       347 1.00000E-01 5.95327E-01 0.00000E+00
 -1       348 7.50000E-02 5.58538E-01 0.00000E+00
 -1       349 9.99999E-02 5.65847E-01 2.14135E-02
 -1       350 1.86265E-09 8.66025E-01 5.00000E-01
 -1       351 1.86265E-09 8.96722E-01 4.42594E-01
 -1       352 5.00000E-02 8.96722E-01 4.42594E-01
 -1       353 5.00000E-02 8.66025E-01 5.00000E-01
 -1       354 1.86265E-09 8.00702E-01 4.62285E-01
 -1       355-2.14204E-08 8.32238E-01 4.10180E-01
 -1       356 5.00000E-02 8.32238E-01 4.10180E-01
 -1       357 5.00000E-02 8.00702E-01 4.62285E-01
 -1       358 1.86265E-09 8.81841E-01 4.71547E-01
 -1       359 2.50000E-02 8.96722E-01 4.42594E-01
 -1       360 5.00000E-02 8.81841E-01 4.71547E-01
 -1       361 2.50000E-02 8.66025E-01 5.00000E-01
 -1       362 1.86265E-09 8.33364E-01 4.81143E-01
 -1       363-7.45058E-09 8.64480E-01 4.26387E-01
 -1       364 5.00000E-02 8.64480E-01 4.26387E-01
 -1       365 5.00000E-02 8.33364E-01 4.81143E-01
 -1       366-7.45058E-09 8.16859E-01 4.36441E-01
 -1       367 2.50000E-02 8.32238E-01 4.10180E-01
 -1       368 5.00000E-02 8.16859E-01 4.36441E-01
 -1       369 2.50000E-02 8.00702E-01 4.62285E-01
 -1       370 1.86265E-09 9.23619E-01 3.83312E-01
 -1       371 5.00000E-02 9.23619E-01 3.83312E-01
 -1       372-4.00469E-08 8.60607E-01 3.56512E-01
 -1       373 5.00000E-02 8.60607E-01 3.56512E-01
 -1       374 1.86265E-09 9.10653E-01 4.13172E-01
 -1       375 2.50000E-02 9.23619E-01 3.83312E-01
 -1       376 5.00000E-02 9.10653E-01 4.13172E-01
 -1       377-2.14204E-08 8.92113E-01 3.69912E-01
 -1       378 5.00000E-02 8.92113E-01 3.69912E-01
 -1       379-3.07336E-08 8.46825E-01 3.83529E-01
 -1       380 2.50000E-02 8.60607E-01 3.56512E-01
 -1       381 5.00000E-02 8.46825E-01 3.83529E-01
 -1       382 1.86265E-09 9.46601E-01 3.22406E-01
 -1       383 5.00000E-02 9.46601E-01 3.22406E-01
 -1       384-5.86733E-08 8.85714E-01 3.01490E-01
 -1       385 4.99999E-02 8.85714E-01 3.01490E-01
 -1       386 1.86265E-09 9.35606E-01 3.53046E-01
 -1       387 2.50000E-02 9.46601E-01 3.22406E-01
 -1       388 5.00000E-02 9.35606E-01 3.53046E-01
 -1       389-3.07336E-08 9.16158E-01 3.11948E-01
 -1       390 5.00000E-02 9.16158E-01 3.11948E-01
 -1       391-4.93601E-08 8.73574E-01 3.29157E-01
 -1       392 2.49999E-02 8.85714E-01 3.01490E-01
 -1       393 4.99999E-02 8.73574E-01 3.29157E-01
 -1       394 1.86265E-09 9.56594E-01 2.91424E-01
 -1       395 5.00000E-02 9.56594E-01 2.91424E-01
 -1       396-7.26432E-08 8.97019E-01 2.73538E-01
 -1       397 4.99999E-02 8.97019E-01 2.73538E-01
 -1       398 1.86265E-09 7.35378E-01 4.24571E-01
 -1       399-4.00469E-08 7.67753E-01 3.77766E-01
 -1       400 5.00000E-02 7.67753E-01 3.77766E-01
 -1       401 5.00000E-02 7.35378E-01 4.24571E-01
 -1       402 1.86265E-09 7.68040E-01 4.43428E-01
 -1       403-3.07336E-08 7.99996E-01 3.93973E-01
 -1       404 5.00000E-02 7.99996E-01 3.93973E-01
 -1       405 5.00000E-02 7.68040E-01 4.43428E-01
 -1       406-1.67638E-08 7.51877E-01 4.01335E-01
 -1       407 2.50000E-02 7.67753E-01 3.77766E-01
 -1       408 5.00000E-02 7.51877E-01 4.01335E-01
 -1       409 2.50000E-02 7.35378E-01 4.24571E-01
 -1       410-8.19564E-08 7.97595E-01 3.29712E-01
 -1       411 4.99999E-02 7.97595E-01 3.29712E-01
 -1       412-6.33299E-08 8.29101E-01 3.43112E-01
 -1       413 4.99999E-02 8.29101E-01 3.43112E-01
 -1       414-5.86733E-08 7.82996E-01 3.53885E-01
 -1       415 2.49999E-02 7.97595E-01 3.29712E-01
 -1       416 4.99999E-02 7.82996E-01 3.53885E-01
 -1       417-1.23866E-07 8.24827E-01 2.80574E-01
 -1       418 4.99999E-02 8.24827E-01 2.80574E-01
 -1       419-9.12696E-08 8.55271E-01 2.91032E-01
 -1       420 4.99999E-02 8.55271E-01 2.91032E-01
 -1       421-1.05239E-07 8.11542E-01 3.05267E-01
 -1       422 2.49999E-02 8.24827E-01 2.80574E-01
 -1       423 4.99999E-02 8.11542E-01 3.05267E-01
 -1       424-1.47149E-07 8.37444E-01 2.55652E-01
 -1       425 4.99999E-02 8.37444E-01 2.55652E-01
 -1       426 1.86265E-09 6.70055E-01 3.86856E-01
 -1       427-6.33299E-08 7.03269E-01 3.45353E-01
 -1       428 4.99999E-02 7.03269E-01 3.45353E-01
 -1       429 5.00000E-02 6.70055E-01 3.86856E-01
 -1       430 1.86265E-09 7.02717E-01 4.05714E-01
 -1       431-4.93601E-08 7.35511E-01 3.61560E-01
 -1       432 4.99999E-02 7.35511E-01 3.61560E-01
 -1       433 5.00000E-02 7.02717E-01 4.05714E-01
 -1       434-3.07336E-08 6.86896E-01 3.66230E-01
 -1       435 2.49999E-02 7.03269E-01 3.45353E-01
 -1       436 5.00000E-02 6.86896E-01 3.66230E-01
 -1       437 2.50000E-02 6.70055E-01 3.86856E-01
 -1       438-1.23866E-07 7.34583E-01 3.02911E-01
 -1       439 4.99999E-02 7.34583E-01 3.02911E-01
 -1       440-1.05239E-07 7.66089E-01 3.16311E-01
 -1       441 4.99999E-02 7.66089E-01 3.16311E-01
 -1       442-9.12696E-08 7.19168E-01 3.24242E-01
 -1       443 2.49999E-02 7.34583E-01 3.02911E-01
 -1       444 4.99999E-02 7.19168E-01 3.24242E-01
 -1       445-1.84402E-07 7.63941E-01 2.59658E-01
 -1       446 4.99998E-02 7.63941E-01 2.59658E-01
 -1       447-1.56462E-07 7.94384E-01 2.70116E-01
 -1       448 4.99998E-02 7.94384E-01 2.70116E-01
 -1       449-1.56462E-07 7.49510E-01 2.81378E-01
 -1       450 2.49998E-02 7.63941E-01 2.59658E-01
 -1       451 4.99998E-02 7.49510E-01 2.81378E-01
 -1       452-2.16998E-07 7.77870E-01 2.37766E-01
 -1       453 4.99998E-02 7.77870E-01 2.37766E-01
 -1       454 1.86265E-09 6.04731E-01 3.49142E-01
 -1       455-8.19564E-08 6.38785E-01 3.12939E-01
 -1       456 4.99999E-02 6.38785E-01 3.12939E-01
 -1       457 5.00000E-02 6.04731E-01 3.49142E-01
 -1       458 1.86265E-09 6.37393E-01 3.67999E-01
 -1       459-7.26432E-08 6.71027E-01 3.29146E-01
 -1       460 4.99999E-02 6.71027E-01 3.29146E-01
 -1       461 5.00000E-02 6.37393E-01 3.67999E-01
 -1       462-4.00469E-08 6.21914E-01 3.31124E-01
 -1       463 2.49999E-02 6.38785E-01 3.12939E-01
 -1       464 5.00000E-02 6.21914E-01 3.31124E-01
 -1       465 2.50000E-02 6.04731E-01 3.49142E-01
 -1       466-1.65775E-07 6.71572E-01 2.76111E-01
 -1       467 4.99998E-02 6.71572E-01 2.76111E-01
 -1       468-1.42492E-07 7.03077E-01 2.89511E-01
 -1       469 4.99999E-02 7.03077E-01 2.89511E-01
 -1       470-1.23866E-07 6.55339E-01 2.94598E-01
 -1       471 2.49998E-02 6.71572E-01 2.76111E-01
 -1       472 4.99999E-02 6.55339E-01 2.94598E-01
 -1       473-2.44938E-07 7.03054E-01 2.38741E-01
 -1       474 4.99998E-02 7.03054E-01 2.38741E-01
 -1       475-2.12342E-07 7.33497E-01 2.49200E-01
 -1       476 4.99998E-02 7.33497E-01 2.49200E-01
 -1       477-2.03028E-07 6.87478E-01 2.57489E-01
 -1       478 2.49998E-02 7.03054E-01 2.38741E-01
 -1       479 4.99998E-02 6.87478E-01 2.57489E-01
 -1       480-2.86847E-07 7.18295E-01 2.19880E-01
 -1       481 4.99997E-02 7.18295E-01 2.19880E-01
 -1       482 1.86265E-09 5.39408E-01 3.11427E-01
 -1       483-1.00583E-07 5.74300E-01 2.80525E-01
 -1       484 4.99999E-02 5.74300E-01 2.80525E-01
 -1       485 5.00000E-02 5.39408E-01 3.11427E-01
 -1       486 1.86265E-09 5.72070E-01 3.30285E-01
 -1       487-9.12696E-08 6.06543E-01 2.96732E-01
 -1       488 4.99999E-02 6.06543E-01 2.96732E-01
 -1       489 5.00000E-02 5.72070E-01 3.30285E-01
 -1       490-4.93601E-08 5.56932E-01 2.96018E-01
 -1       491 2.49999E-02 5.74300E-01 2.80525E-01
 -1       492 4.99999E-02 5.56932E-01 2.96018E-01
 -1       493 2.50000E-02 5.39408E-01 3.11427E-01
 -1       494-2.07685E-07 6.08560E-01 2.49311E-01
 -1       495 4.99998E-02 6.08560E-01 2.49311E-01
 -1       496-1.84402E-07 6.40066E-01 2.62711E-01
 -1       497 4.99998E-02 6.40066E-01 2.62711E-01
 -1       498-1.51806E-07 5.91511E-01 2.64954E-01
 -1       499 2.49998E-02 6.08560E-01 2.49311E-01
 -1       500 4.99998E-02 5.91511E-01 2.64954E-01
 -1       501-3.10130E-07 6.42167E-01 2.17825E-01
 -1       502 4.99997E-02 6.42167E-01 2.17825E-01
 -1       503-2.77534E-07 6.72610E-01 2.28283E-01
 -1       504 4.99997E-02 6.72610E-01 2.28283E-01
 -1       505-2.58908E-07 6.25446E-01 2.33599E-01
 -1       506 2.49997E-02 6.42167E-01 2.17825E-01
 -1       507 4.99997E-02 6.25446E-01 2.33599E-01
 -1       508-3.61353E-07 6.58720E-01 2.01995E-01
 -1       509 4.99996E-02 6.58720E-01 2.01995E-01
 -1       510 1.86265E-09 4.74084E-01 2.73713E-01
 -1       511-1.23866E-07 5.09816E-01 2.48112E-01
 -1       512 4.99999E-02 5.09816E-01 2.48112E-01
 -1       513 5.00000E-02 4.74084E-01 2.73713E-01
 -1       514 1.86265E-09 5.06746E-01 2.92570E-01
 -1       515-1.14553E-07 5.42058E-01 2.64318E-01
 -1       516 4.99999E-02 5.42058E-01 2.64318E-01
 -1       517 5.00000E-02 5.06746E-01 2.92570E-01
 -1       518-5.86733E-08 4.91950E-01 2.60912E-01
 -1       519 2.49999E-02 5.09816E-01 2.48112E-01
 -1       520 4.99999E-02 4.91950E-01 2.60912E-01
 -1       521 2.50000E-02 4.74084E-01 2.73713E-01
 -1       522-2.49594E-07 5.45548E-01 2.22510E-01
 -1       523 4.99998E-02 5.45548E-01 2.22510E-01
 -1       524-2.26311E-07 5.77054E-01 2.35911E-01
 -1       525 4.99998E-02 5.77054E-01 2.35911E-01
 -1       526-1.84402E-07 5.27682E-01 2.35311E-01
 -1       527 2.49997E-02 5.45548E-01 2.22510E-01
 -1       528 4.99998E-02 5.27682E-01 2.35311E-01
 -1       529-3.70666E-07 5.81280E-01 1.96909E-01
 -1       530 4.99996E-02 5.81280E-01 1.96909E-01
 -1       531-3.38070E-07 6.11723E-01 2.07367E-01
 -1       532 4.99997E-02 6.11723E-01 2.07367E-01
 -1       533-3.10130E-07 5.63414E-01 2.09710E-01
 -1       534 2.49996E-02 5.81280E-01 1.96909E-01
 -1       535 4.99997E-02 5.63414E-01 2.09710E-01
 -1       536-4.35859E-07 5.99145E-01 1.84109E-01
 -1       537 4.99996E-02 5.99145E-01 1.84109E-01
 -1       538 1.00000E-01 8.96722E-01 4.42594E-01
 -1       539 1.00000E-01 8.66025E-01 5.00000E-01
 -1       540 1.00000E-01 8.32238E-01 4.10180E-01
 -1       541 1.00000E-01 8.00702E-01 4.62285E-01
 -1       542 7.50000E-02 8.96722E-01 4.42594E-01
 -1       543 1.00000E-01 8.81841E-01 4.71547E-01
 -1       544 7.50000E-02 8.66025E-01 5.00000E-01
 -1       545 1.00000E-01 8.64480E-01 4.26387E-01
 -1       546 1.00000E-01 8.33364E-01 4.81143E-01
 -1       547 7.50000E-02 8.32238E-01 4.10180E-01
 -1       548 1.00000E-01 8.16859E-01 4.36441E-01
 -1       549 7.50000E-02 8.00702E-01 4.62285E-01
 -1       550 1.00000E-01 9.23619E-01 3.83312E-01
 -1       551 1.00000E-01 8.60607E-01 3.56512E-01
 -1       552 7.50000E-02 9.23619E-01 3.83312E-01
 -1       553 1.00000E-01 9.10653E-01 4.13172E-01
 -1       554 1.00000E-01 8.92113E-01 3.69912E-01
 -1       555 7.50000E-02 8.60607E-01 3.56512E-01
 -1       556 1.00000E-01 8.46825E-01 3.83529E-01
 -1       557 1.00000E-01 9.46601E-01 3.22406E-01
 -1       558 9.99999E-02 8.85714E-01 3.01490E-01
 -1       559 7.50000E-02 9.46601E-01 3.22406E-01
 -1       560 1.00000E-01 9.35606E-01 3.53046E-01
 -1       561 1.00000E-01 9.16158E-01 3.11948E-01
 -1       562 7.49999E-02 8.85714E-01 3.01490E-01
 -1       563 9.99999E-02 8.73574E-01 3.29157E-01
 -1       564 1.00000E-01 9.56594E-01 2.91424E-01
 -1       565 9.99999E-02 8.97019E-01 2.73538E-01
 -1       566 1.00000E-01 7.67753E-01 3.77766E-01
 -1       567 1.00000E-01 7.35378E-01 4.24571E-01
 -1       568 1.00000E-01 7.99996E-01 3.93973E-01
 -1       569 1.00000E-01 7.68040E-01 4.43428E-01
 -1       570 7.50000E-02 7.67753E-01 3.77766E-01
 -1       571 1.00000E-01 7.51877E-01 4.01335E-01
 -1       572 7.50000E-02 7.35378E-01 4.24571E-01
 -1       573 9.99999E-02 7.97595E-01 3.29712E-01
 -1       574 9.99999E-02 8.29101E-01 3.43112E-01
 -1       575 7.49999E-02 7.97595E-01 3.29712E-01
 -1       576 9.99999E-02 7.82996E-01 3.53885E-01
 -1       577 9.99999E-02 8.24827E-01 2.80574E-01
 -1       578 9.99999E-02 8.55271E-01 2.91032E-01
 -1       579 7.49999E-02 8.24827E-01 2.80574E-01
 -1       580 9.99999E-02 8.11542E-01 3.05267E-01
 -1       581 9.99999E-02 8.37444E-01 2.55652E-01
 -1       582 9.99999E-02 7.03269E-01 3.45353E-01
 -1       583 1.00000E-01 6.70055E-01 3.86856E-01