    1C
    1UUSER                                                              
    1UDATE              01.august.2019                                  
    1UTIME              09:37:33                                        
    1UHOST                                                              
    1UPGM               CalculiX                                        
    1UVERSION           Version 2.15                             
    1UCOMPILETIME       Fri 15 Mar 11:57:46 CET 2019                    
    1UDIR                                                               
    1UDBN                                                               
    1UMAT    1EL                                                        
    1UMAT    2GAS                                                       
    2C                            13                                     1
 -1         1 0.00000E+00 0.00000E+00 0.00000E+00
 -1         2 0.00000E+00 5.00000E-01 0.00000E+00
 -1         3 0.00000E+00 1.00000E+00 0.00000E+00
 -1         4 1.00000E-01 0.00000E+00 6.12323E-18
 -1         5 1.00000E-01 5.00000E-01 6.12323E-18
 -1         6 1.00000E-01 1.00000E+00 6.12323E-18
 -1         7 1.05000E-01 1.00000E+00 6.42940E-18
 -1         8 1.10000E-01 1.00000E+00 6.73556E-18
 -1         9 1.10000E-01 5.00000E-01 6.73556E-18
 -1        10 1.10000E-01 0.00000E+00 6.73556E-18
 -1        11 1.05000E-01 0.00000E+00 6.42940E-18
 -1        12 0.00000E+00-5.00000E-01 0.00000E+00
 -1        13 0.00000E+00 1.50000E+00 0.00000E+00
 -3
    3C                             4                                     1
 -1         1   10    0    1
 -2         4        10         8         6        11         9         7         5
 -1         2   12    0    2
 -2         1         3         2
 -1         3   11    0    2
 -2        12         1
 -1         4   11    0    2
 -2         3        13
 -3
 9999
