<?xml version="1.0"?>
<VTKFile type="UnstructuredGrid" version="0.1" byte_order="LittleEndian">
	<UnstructuredGrid>
		<Piece NumberOfPoints="803" NumberOfCells="100">
			<Points>
				<DataArray type="Float64" NumberOfComponents="3" format="ascii">
					 2.29000000E+02	 2.85248000E-08	 3.81238000E-02
					 2.29000000E+02	 0.00000000E+00	 2.37788000E-05
					 2.29000000E+02	-2.85248000E-08	-3.80762000E-02
					 2.06100000E+02	 1.57244000E-07	 3.81291000E-02
					 2.06100000E+02	 0.00000000E+00	 2.91066000E-05
					 2.06100000E+02	-1.57244000E-07	-3.80709000E-02
					 2.06100000E+02	 2.29000000E+01	 3.81846000E-02
					 2.06100000E+02	 2.29000000E+01	 8.45814000E-05
					 2.06100000E+02	 2.29000000E+01	-3.80154000E-02
					 2.29000000E+02	 2.29000000E+01	 3.81152000E-02
					 2.29000000E+02	 2.29000000E+01	 1.52208000E-05
					 2.29000000E+02	 2.29000000E+01	-3.80848000E-02
					 2.17550000E+02	 9.44644000E-08	 3.81586000E-02
					 2.17550000E+02	-9.44644000E-08	-3.80414000E-02
					 2.06100000E+02	 1.14500000E+01	 3.81193000E-02
					 2.06100000E+02	 1.14500000E+01	-3.80807000E-02
					 2.17550000E+02	 2.29000000E+01	 3.81811000E-02
					 2.17550000E+02	 2.29000000E+01	-3.80189000E-02
					 2.29000000E+02	 1.14500000E+01	 3.81174000E-02
					 2.29000000E+02	 1.14500000E+01	-3.80826000E-02
					 2.06100000E+02	 4.58000000E+01	 3.81485000E-02
					 2.06100000E+02	 4.58000000E+01	 4.84983000E-05
					 2.06100000E+02	 4.58000000E+01	-3.80515000E-02
					 2.29000000E+02	 4.58000000E+01	 3.81152000E-02
					 2.29000000E+02	 4.58000000E+01	 1.51863000E-05
					 2.29000000E+02	 4.58000000E+01	-3.80848000E-02
					 2.06100000E+02	 3.43500000E+01	 3.81367000E-02
					 2.06100000E+02	 3.43500000E+01	-3.80633000E-02
					 2.17550000E+02	 4.58000000E+01	 3.81492000E-02
					 2.17550000E+02	 4.58000000E+01	-3.80508000E-02
					 2.29000000E+02	 3.43500000E+01	 3.81910000E-02
					 2.29000000E+02	 3.43500000E+01	-3.80090000E-02
					 2.06100000E+02	 6.87000000E+01	 3.81265000E-02
					 2.06100000E+02	 6.87000000E+01	 2.65257000E-05
					 2.06100000E+02	 6.87000000E+01	-3.80735000E-02
					 2.29000000E+02	 6.87000000E+01	 3.81893000E-02
					 2.29000000E+02	 6.87000000E+01	 8.93188000E-05
					 2.29000000E+02	 6.87000000E+01	-3.80107000E-02
					 2.06100000E+02	 5.72500000E+01	 3.81220000E-02
					 2.06100000E+02	 5.72500000E+01	-3.80780000E-02
					 2.17550000E+02	 6.87000000E+01	 3.81632000E-02
					 2.17550000E+02	 6.87000000E+01	-3.80368000E-02
					 2.29000000E+02	 5.72500000E+01	 3.81571000E-02
					 2.29000000E+02	 5.72500000E+01	-3.80429000E-02
					 2.06100000E+02	 9.16000000E+01	 3.81332000E-02
					 2.06100000E+02	 9.16000000E+01	 3.32158000E-05
					 2.06100000E+02	 9.16000000E+01	-3.80668000E-02
					 2.29000000E+02	 9.16000000E+01	 3.81104000E-02
					 2.29000000E+02	 9.16000000E+01	 1.04455000E-05
					 2.29000000E+02	 9.16000000E+01	-3.80896000E-02
					 2.06100000E+02	 8.01500000E+01	 3.81503000E-02
					 2.06100000E+02	 8.01500000E+01	-3.80497000E-02
					 2.17550000E+02	 9.16000000E+01	 3.81567000E-02
					 2.17550000E+02	 9.16000000E+01	-3.80433000E-02
					 2.29000000E+02	 8.01500000E+01	 3.81854000E-02
					 2.29000000E+02	 8.01500000E+01	-3.80146000E-02
					 2.06100000E+02	 1.14500000E+02	 3.81040000E-02
					 2.06100000E+02	 1.14500000E+02	 4.01409000E-06
					 2.06100000E+02	 1.14500000E+02	-3.80960000E-02
					 2.29000000E+02	 1.14500000E+02	 3.81108000E-02
					 2.29000000E+02	 1.14500000E+02	 1.08022000E-05
					 2.29000000E+02	 1.14500000E+02	-3.80892000E-02
					 2.06100000E+02	 1.03050000E+02	 3.81639000E-02
					 2.06100000E+02	 1.03050000E+02	-3.80361000E-02
					 2.17550000E+02	 1.14500000E+02	 3.81013000E-02
					 2.17550000E+02	 1.14500000E+02	-3.80987000E-02
					 2.29000000E+02	 1.03050000E+02	 3.81720000E-02
					 2.29000000E+02	 1.03050000E+02	-3.80280000E-02
					 2.06100000E+02	 1.37400000E+02	 3.81102000E-02
					 2.06100000E+02	 1.37400000E+02	 1.01814000E-05
					 2.06100000E+02	 1.37400000E+02	-3.80898000E-02
					 2.29000000E+02	 1.37400000E+02	 3.81483000E-02
					 2.29000000E+02	 1.37400000E+02	 4.82945000E-05
					 2.29000000E+02	 1.37400000E+02	-3.80517000E-02
					 2.06100000E+02	 1.25950000E+02	 3.81254000E-02
					 2.06100000E+02	 1.25950000E+02	-3.80746000E-02
					 2.17550000E+02	 1.37400000E+02	 3.81677000E-02
					 2.17550000E+02	 1.37400000E+02	-3.80323000E-02
					 2.29000000E+02	 1.25950000E+02	 3.81897000E-02
					 2.29000000E+02	 1.25950000E+02	-3.80103000E-02
					 2.06100000E+02	 1.60300000E+02	 3.81760000E-02
					 2.06100000E+02	 1.60300000E+02	 7.59896000E-05
					 2.06100000E+02	 1.60300000E+02	-3.80240000E-02
					 2.29000000E+02	 1.60300000E+02	 3.81720000E-02
					 2.29000000E+02	 1.60300000E+02	 7.20292000E-05
					 2.29000000E+02	 1.60300000E+02	-3.80280000E-02
					 2.06100000E+02	 1.48850000E+02	 3.81908000E-02
					 2.06100000E+02	 1.48850000E+02	-3.80092000E-02
					 2.17550000E+02	 1.60300000E+02	 3.81929000E-02
					 2.17550000E+02	 1.60300000E+02	-3.80071000E-02
					 2.29000000E+02	 1.48850000E+02	 3.81378000E-02
					 2.29000000E+02	 1.48850000E+02	-3.80622000E-02
					 2.06100000E+02	 1.83200000E+02	 3.81900000E-02
					 2.06100000E+02	 1.83200000E+02	 8.99756000E-05
					 2.06100000E+02	 1.83200000E+02	-3.80100000E-02
					 2.29000000E+02	 1.83200000E+02	 3.81779000E-02
					 2.29000000E+02	 1.83200000E+02	 7.78880000E-05
					 2.29000000E+02	 1.83200000E+02	-3.80221000E-02
					 2.06100000E+02	 1.71750000E+02	 3.81324000E-02
					 2.06100000E+02	 1.71750000E+02	-3.80676000E-02
					 2.17550000E+02	 1.83200000E+02	 3.81194000E-02
					 2.17550000E+02	 1.83200000E+02	-3.80806000E-02
					 2.29000000E+02	 1.71750000E+02	 3.81996000E-02
					 2.29000000E+02	 1.71750000E+02	-3.80004000E-02
					 2.06100000E+02	 2.06100000E+02	 3.81161000E-02
					 2.06100000E+02	 2.06100000E+02	 1.61296000E-05
					 2.06100000E+02	 2.06100000E+02	-3.80839000E-02
					 2.29000000E+02	 2.06100000E+02	 3.81708000E-02
					 2.29000000E+02	 2.06100000E+02	 7.08034000E-05
					 2.29000000E+02	 2.06100000E+02	-3.80292000E-02
					 2.06100000E+02	 1.94650000E+02	 3.81502000E-02
					 2.06100000E+02	 1.94650000E+02	-3.80498000E-02
					 2.17550000E+02	 2.06100000E+02	 3.81936000E-02
					 2.17550000E+02	 2.06100000E+02	-3.80064000E-02
					 2.29000000E+02	 1.94650000E+02	 3.81716000E-02
					 2.29000000E+02	 1.94650000E+02	-3.80284000E-02
					 2.06100000E+02	 2.29000000E+02	 3.81105000E-02
					 2.06100000E+02	 2.29000000E+02	 1.05190000E-05
					 2.06100000E+02	 2.29000000E+02	-3.80895000E-02
					 2.29000000E+02	 2.29000000E+02	 3.81209000E-02
					 2.29000000E+02	 2.29000000E+02	 2.09205000E-05
					 2.29000000E+02	 2.29000000E+02	-3.80791000E-02
					 2.06100000E+02	 2.17550000E+02	 3.81559000E-02
					 2.06100000E+02	 2.17550000E+02	-3.80441000E-02
					 2.17550000E+02	 2.29000000E+02	 3.81705000E-02
					 2.17550000E+02	 2.29000000E+02	-3.80295000E-02
					 2.29000000E+02	 2.17550000E+02	 3.81078000E-02
					 2.29000000E+02	 2.17550000E+02	-3.80922000E-02
					 1.83200000E+02	-1.37530000E-07	 3.81511000E-02
					 1.83200000E+02	 0.00000000E+00	 5.10530000E-05
					 1.83200000E+02	 1.37530000E-07	-3.80489000E-02
					 1.83200000E+02	 2.29000000E+01	 3.81196000E-02
					 1.83200000E+02	 2.29000000E+01	 1.96197000E-05
					 1.83200000E+02	 2.29000000E+01	-3.80804000E-02
					 1.94650000E+02	 9.07745000E-10	 3.81274000E-02
					 1.94650000E+02	-9.07745000E-10	-3.80726000E-02
					 1.83200000E+02	 1.14500000E+01	 3.81639000E-02
					 1.83200000E+02	 1.14500000E+01	-3.80361000E-02
					 1.94650000E+02	 2.29000000E+01	 3.81448000E-02
					 1.94650000E+02	 2.29000000E+01	-3.80552000E-02
					 1.83200000E+02	 4.58000000E+01	 3.81040000E-02
					 1.83200000E+02	 4.58000000E+01	 3.98718000E-06
					 1.83200000E+02	 4.58000000E+01	-3.80960000E-02
					 1.83200000E+02	 3.43500000E+01	 3.81467000E-02
					 1.83200000E+02	 3.43500000E+01	-3.80533000E-02
					 1.94650000E+02	 4.58000000E+01	 3.81078000E-02
					 1.94650000E+02	 4.58000000E+01	-3.80922000E-02
					 1.83200000E+02	 6.87000000E+01	 3.81038000E-02
					 1.83200000E+02	 6.87000000E+01	 3.81004000E-06
					 1.83200000E+02	 6.87000000E+01	-3.80962000E-02
					 1.83200000E+02	 5.72500000E+01	 3.81160000E-02
					 1.83200000E+02	 5.72500000E+01	-3.80840000E-02
					 1.94650000E+02	 6.87000000E+01	 3.81398000E-02
					 1.94650000E+02	 6.87000000E+01	-3.80602000E-02
					 1.83200000E+02	 9.16000000E+01	 3.81689000E-02
					 1.83200000E+02	 9.16000000E+01	 6.88898000E-05
					 1.83200000E+02	 9.16000000E+01	-3.80311000E-02
					 1.83200000E+02	 8.01500000E+01	 3.81535000E-02
					 1.83200000E+02	 8.01500000E+01	-3.80465000E-02
					 1.94650000E+02	 9.16000000E+01	 3.81687000E-02
					 1.94650000E+02	 9.16000000E+01	-3.80313000E-02
					 1.83200000E+02	 1.14500000E+02	 3.81272000E-02
					 1.83200000E+02	 1.14500000E+02	 2.72457000E-05
					 1.83200000E+02	 1.14500000E+02	-3.80728000E-02
					 1.83200000E+02	 1.03050000E+02	 3.81466000E-02
					 1.83200000E+02	 1.03050000E+02	-3.80534000E-02
					 1.94650000E+02	 1.14500000E+02	 3.81277000E-02
					 1.94650000E+02	 1.14500000E+02	-3.80723000E-02
					 1.83200000E+02	 1.37400000E+02	 3.81450000E-02
					 1.83200000E+02	 1.37400000E+02	 4.50086000E-05
					 1.83200000E+02	 1.37400000E+02	-3.80550000E-02
					 1.83200000E+02	 1.25950000E+02	 3.81935000E-02
					 1.83200000E+02	 1.25950000E+02	-3.80065000E-02
					 1.94650000E+02	 1.37400000E+02	 3.81087000E-02
					 1.94650000E+02	 1.37400000E+02	-3.80913000E-02
					 1.83200000E+02	 1.60300000E+02	 3.81454000E-02
					 1.83200000E+02	 1.60300000E+02	 4.53889000E-05
					 1.83200000E+02	 1.60300000E+02	-3.80546000E-02
					 1.83200000E+02	 1.48850000E+02	 3.81946000E-02
					 1.83200000E+02	 1.48850000E+02	-3.80054000E-02
					 1.94650000E+02	 1.60300000E+02	 3.81856000E-02
					 1.94650000E+02	 1.60300000E+02	-3.80144000E-02
					 1.83200000E+02	 1.83200000E+02	 3.81121000E-02
					 1.83200000E+02	 1.83200000E+02	 1.20976000E-05
[...]
			<PointData>
				<DataArray type="Float32" Name="U" NumberOfComponents="3" ComponentName0="D1" ComponentName1="D2" ComponentName2="D3" format="ascii">
					-2.62120000E-07	-1.00000000E+00	 0.00000000E+00
					 0.00000000E+00	-1.00000000E+00	 0.00000000E+00
					 2.62120000E-07	-1.00000000E+00	 0.00000000E+00
					-1.27199000E-01	-8.99648000E-01	-6.48640000E-05
					-1.27199000E-01	-8.99648000E-01	-6.48640000E-05
					-1.27199000E-01	-8.99648000E-01	-6.48640000E-05
					-4.41717000E-02	-8.96358000E-01	-3.87472000E-05
					-4.41718000E-02	-8.96358000E-01	-3.87472000E-05
					-4.41718000E-02	-8.96358000E-01	-3.87472000E-05
					-1.75879000E-07	-1.00000000E+00	 0.00000000E+00
					 0.00000000E+00	-1.00000000E+00	 0.00000000E+00
					 1.75879000E-07	-1.00000000E+00	 0.00000000E+00
					-7.31269000E-02	-9.59788000E-01	-5.57418000E-05
					-7.31267000E-02	-9.59788000E-01	-5.57418000E-05
					-7.49325000E-02	-8.98408000E-01	-6.51586000E-05
					-7.49325000E-02	-8.98408000E-01	-6.51586000E-05
					-1.95641000E-02	-9.51148000E-01	-3.59761000E-05
					-1.95640000E-02	-9.51148000E-01	-3.59761000E-05
					-2.42089000E-07	-1.00000000E+00	 0.00000000E+00
					 2.42089000E-07	-1.00000000E+00	 0.00000000E+00
					-1.27130000E-02	-9.03977000E-01	 2.22379000E-05
					-1.27131000E-02	-9.03977000E-01	 2.22379000E-05
					-1.27131000E-02	-9.03977000E-01	 2.22379000E-05
					-1.62897000E-08	-1.00000000E+00	 0.00000000E+00
					 0.00000000E+00	-1.00000000E+00	 0.00000000E+00
					 1.62897000E-08	-1.00000000E+00	 0.00000000E+00
					-2.14927000E-02	-8.96401000E-01	-2.82990000E-06
					-2.14929000E-02	-8.96400000E-01	-2.82990000E-06
					-7.40807000E-03	-9.57118000E-01	 3.42547000E-06
					-7.40815000E-03	-9.57117000E-01	 3.42547000E-06
					-8.46675000E-08	-1.00000000E+00	 0.00000000E+00
					 8.46675000E-08	-1.00000000E+00	 0.00000000E+00
					-1.19719000E-02	-9.21914000E-01	 5.42936000E-05
					-1.19720000E-02	-9.21914000E-01	 5.42936000E-05
					-1.19721000E-02	-9.21914000E-01	 5.42936000E-05
					 6.85401000E-08	-1.00000000E+00	 0.00000000E+00
					 0.00000000E+00	-1.00000000E+00	 0.00000000E+00
					-6.85401000E-08	-1.00000000E+00	 0.00000000E+00
					-1.17741000E-02	-9.14513000E-01	 4.11571000E-05
					-1.17743000E-02	-9.14513000E-01	 4.11571000E-05
					-6.46840000E-03	-9.63313000E-01	 2.40086000E-05
					-6.46858000E-03	-9.63313000E-01	 2.40086000E-05
					 3.32307000E-08	-1.00000000E+00	 0.00000000E+00
					-3.32307000E-08	-1.00000000E+00	 0.00000000E+00
					-9.13670000E-03	-9.28960000E-01	 6.41106000E-05
					-9.13679000E-03	-9.28960000E-01	 6.41106000E-05
					-9.13689000E-03	-9.28960000E-01	 6.41106000E-05
					 1.17291000E-07	-1.00000000E+00	 0.00000000E+00
					 0.00000000E+00	-1.00000000E+00	 0.00000000E+00
					-1.17291000E-07	-1.00000000E+00	 0.00000000E+00
					-1.09982000E-02	-9.25983000E-01	 6.19104000E-05
					-1.09984000E-02	-9.25983000E-01	 6.19104000E-05
					-4.39775000E-03	-9.66020000E-01	 3.32793000E-05
					-4.39796000E-03	-9.66020000E-01	 3.32793000E-05
					 9.58254000E-08	-1.00000000E+00	 0.00000000E+00
					-9.58254000E-08	-1.00000000E+00	 0.00000000E+00
					-1.86568000E-03	-9.32762000E-01	 6.29693000E-05
					-1.86570000E-03	-9.32762000E-01	 6.29693000E-05
					-1.86573000E-03	-9.32762000E-01	 6.29693000E-05
					 1.83657000E-07	-1.00000000E+00	 0.00000000E+00
					 0.00000000E+00	-1.00000000E+00	 0.00000000E+00
					-1.83657000E-07	-1.00000000E+00	 0.00000000E+00
					-6.12000000E-03	-9.31024000E-01	 6.24142000E-05
					-6.12013000E-03	-9.31024000E-01	 6.24142000E-05
					-1.99797000E-04	-9.67851000E-01	 4.30154000E-05
					-2.00005000E-04	-9.67851000E-01	 4.30154000E-05
					 1.44609000E-07	-1.00000000E+00	 0.00000000E+00
					-1.44609000E-07	-1.00000000E+00	 0.00000000E+00
					 1.23559000E-02	-9.34895000E-01	 9.32714000E-05
					 1.23559000E-02	-9.34895000E-01	 9.32714000E-05
					 1.23559000E-02	-9.34895000E-01	 9.32714000E-05
					 3.13216000E-07	-1.00000000E+00	 0.00000000E+00
					 0.00000000E+00	-1.00000000E+00	 0.00000000E+00
					-3.13216000E-07	-1.00000000E+00	 0.00000000E+00
					 4.02879000E-03	-9.34004000E-01	 7.03791000E-05
					 4.02879000E-03	-9.34004000E-01	 7.03791000E-05
					 8.66091000E-03	-9.69035000E-01	 7.03201000E-05
					 8.66060000E-03	-9.69035000E-01	 7.03201000E-05
					 2.33933000E-07	-1.00000000E+00	 0.00000000E+00
					-2.33933000E-07	-1.00000000E+00	 0.00000000E+00
					 3.85386000E-02	-9.35503000E-01	 1.58912000E-04
					 3.85385000E-02	-9.35503000E-01	 1.58912000E-04
					 3.85384000E-02	-9.35503000E-01	 1.58912000E-04
					 4.45304000E-07	-1.00000000E+00	 0.00000000E+00
					 0.00000000E+00	-1.00000000E+00	 0.00000000E+00
					-4.45304000E-07	-1.00000000E+00	 0.00000000E+00
					 2.34951000E-02	-9.35281000E-01	 1.25522000E-04
					 2.34950000E-02	-9.35281000E-01	 1.25522000E-04
					 2.62797000E-02	-9.69974000E-01	 1.07220000E-04
					 2.62791000E-02	-9.69974000E-01	 1.07220000E-04
					 3.82043000E-07	-1.00000000E+00	 0.00000000E+00
					-3.82043000E-07	-1.00000000E+00	 0.00000000E+00
					 8.01821000E-02	-9.35655000E-01	 1.64005000E-04
					 8.01819000E-02	-9.35655000E-01	 1.64005000E-04
					 8.01817000E-02	-9.35655000E-01	 1.64005000E-04
					 3.74094000E-07	-1.00000000E+00	 0.00000000E+00
					 0.00000000E+00	-1.00000000E+00	 0.00000000E+00
					-3.74094000E-07	-1.00000000E+00	 0.00000000E+00
					 5.72059000E-02	-9.35557000E-01	 1.80391000E-04
					 5.72057000E-02	-9.35557000E-01	 1.80391000E-04
					 5.60221000E-02	-9.70742000E-01	 9.84633000E-05
					 5.60215000E-02	-9.70742000E-01	 9.84633000E-05
					 4.50442000E-07	-1.00000000E+00	 0.00000000E+00
					-4.50442000E-07	-1.00000000E+00	 0.00000000E+00
					 1.36441000E-01	-9.35886000E-01	 4.73544000E-05
					 1.36441000E-01	-9.35887000E-01	 4.73544000E-05
					 1.36441000E-01	-9.35887000E-01	 4.73544000E-05
					 3.10632000E-08	-1.00000000E+00	 0.00000000E+00
					 0.00000000E+00	-1.00000000E+00	 0.00000000E+00
					-3.10632000E-08	-1.00000000E+00	 0.00000000E+00
					 1.06438000E-01	-9.35751000E-01	 1.20139000E-04
					 1.06438000E-01	-9.35751000E-01	 1.20139000E-04
					 9.88531000E-02	-9.71491000E-01	 1.58578000E-05
					 9.88529000E-02	-9.71492000E-01	 1.58578000E-05
					 2.31316000E-07	-1.00000000E+00	 0.00000000E+00
					-2.31316000E-07	-1.00000000E+00	 0.00000000E+00
					 2.04873000E-01	-9.36088000E-01	-2.04449000E-04
					 2.04873000E-01	-9.36089000E-01	-2.04449000E-04
					 2.04873000E-01	-9.36089000E-01	-2.04449000E-04
					-5.87555000E-07	-1.00000000E+00	 0.00000000E+00
					 0.00000000E+00	-1.00000000E+00	 0.00000000E+00
					 5.87555000E-07	-1.00000000E+00	 0.00000000E+00
					 1.69094000E-01	-9.36008000E-01	-5.79214000E-05
					 1.69093000E-01	-9.36009000E-01	-5.79214000E-05
					 1.56030000E-01	-9.71987000E-01	-1.39513000E-04
					 1.56031000E-01	-9.71988000E-01	-1.39513000E-04
					-2.36478000E-07	-1.00000000E+00	 0.00000000E+00
					 2.36478000E-07	-1.00000000E+00	 0.00000000E+00
					-1.87229000E-01	-7.71142000E-01	-1.15320000E-04
					-1.87229000E-01	-7.71142000E-01	-1.15320000E-04
					-1.87229000E-01	-7.71142000E-01	-1.15320000E-04
					-8.50290000E-02	-7.71501000E-01	-1.00177000E-04
					-8.50288000E-02	-7.71500000E-01	-1.00177000E-04
					-8.50285000E-02	-7.71500000E-01	-1.00177000E-04
					-1.61722000E-01	-8.34927000E-01	-7.21918000E-05
					-1.61722000E-01	-8.34928000E-01	-7.21918000E-05
					-1.30710000E-01	-7.71194000E-01	-1.29216000E-04
					-1.30709000E-01	-7.71194000E-01	-1.29216000E-04
					-6.53563000E-02	-8.35160000E-01	-4.70968000E-05
					-6.53561000E-02	-8.35160000E-01	-4.70968000E-05
					-2.48772000E-02	-7.78305000E-01	-1.99956000E-05
					-2.48769000E-02	-7.78305000E-01	-1.99956000E-05
					-2.48767000E-02	-7.78305000E-01	-1.99956000E-05
					-4.97048000E-02	-7.72712000E-01	-5.50240000E-05
					-4.97044000E-02	-7.72712000E-01	-5.50240000E-05
					-1.76819000E-02	-8.42746000E-01	 2.66678000E-05
					-1.76818000E-02	-8.42746000E-01	 2.66678000E-05
					-1.43109000E-02	-8.12747000E-01	 5.15692000E-05
					-1.43107000E-02	-8.12747000E-01	 5.15692000E-05
					-1.43106000E-02	-8.12747000E-01	 5.15692000E-05
					-1.42128000E-02	-7.92820000E-01	 1.29548000E-05
					-1.42124000E-02	-7.92820000E-01	 1.29548000E-05
					-1.52101000E-02	-8.72627000E-01	 7.05367000E-05
					-1.52101000E-02	-8.72627000E-01	 7.05367000E-05
					-1.76627000E-02	-8.42812000E-01	 1.00251000E-04
					-1.76628000E-02	-8.42812000E-01	 1.00251000E-04
					-1.76628000E-02	-8.42812000E-01	 1.00251000E-04
					-1.74924000E-02	-8.31252000E-01	 8.60643000E-05
					-1.74923000E-02	-8.31251000E-01	 8.60643000E-05
					-1.37740000E-02	-8.88102000E-01	 8.64221000E-05
					-1.37741000E-02	-8.88102000E-01	 8.64221000E-05
					-8.28517000E-03	-8.53592000E-01	 8.33056000E-05
					-8.28521000E-03	-8.53592000E-01	 8.33056000E-05
					-8.28525000E-03	-8.53592000E-01	 8.33056000E-05
					-1.41865000E-02	-8.49192000E-01	 9.87662000E-05
					-1.41866000E-02	-8.49192000E-01	 9.87662000E-05
					-4.72374000E-03	-8.94692000E-01	 7.12763000E-05
					-4.72381000E-03	-8.94692000E-01	 7.12763000E-05
					 1.16622000E-02	-8.58690000E-01	 8.83867000E-05
					 1.16623000E-02	-8.58690000E-01	 8.83867000E-05
					 1.16623000E-02	-8.58690000E-01	 8.83867000E-05
					 2.20541000E-04	-8.56620000E-01	 7.18963000E-05
					 2.20526000E-04	-8.56620000E-01	 7.18963000E-05
					 1.29074000E-02	-8.98178000E-01	 9.20795000E-05
					 1.29074000E-02	-8.98178000E-01	 9.20795000E-05
					 4.51024000E-02	-8.60492000E-01	 1.81962000E-04
					 4.51024000E-02	-8.60492000E-01	 1.81962000E-04
					 4.51024000E-02	-8.60492000E-01	 1.81962000E-04
					 2.64982000E-02	-8.59949000E-01	 1.25146000E-04
					 2.64982000E-02	-8.59948000E-01	 1.25146000E-04
					 4.33001000E-02	-8.99283000E-01	 1.79107000E-04
					 4.33000000E-02	-8.99282000E-01	 1.79107000E-04
					 9.42954000E-02	-8.60512000E-01	 2.43600000E-04
					 9.42953000E-02	-8.60512000E-01	 2.43600000E-04
					 9.42953000E-02	-8.60512000E-01	 2.43600000E-04
					 6.77651000E-02	-8.60622000E-01	 2.30147000E-04
					 6.77650000E-02	-8.60621000E-01	 2.30147000E-04
					 8.92628000E-02	-8.99206000E-01	 2.10965000E-04
					 8.92626000E-02	-8.99206000E-01	 2.10965000E-04
					 1.58137000E-01	-8.60292000E-01	 1.61722000E-04
					 1.58136000E-01	-8.60293000E-01	 1.61722000E-04
					 1.58136000E-01	-8.60293000E-01	 1.61722000E-04
					 1.24627000E-01	-8.60372000E-01	 2.21562000E-04
					 1.24627000E-01	-8.60373000E-01	 2.21562000E-04
					 1.49698000E-01	-8.99054000E-01	 9.70942000E-05
					 1.49698000E-01	-8.99055000E-01	 9.70942000E-05
					 2.33255000E-01	-8.60324000E-01	-1.42581000E-04
					 2.33254000E-01	-8.60325000E-01	-1.42581000E-04
					 2.33254000E-01	-8.60326000E-01	-1.42581000E-04
					 1.94608000E-01	-8.60271000E-01	 4.61414000E-05
					 1.94607000E-01	-8.60272000E-01	 4.61414000E-05
					 2.21199000E-01	-8.99062000E-01	-2.00504000E-04
					 2.21199000E-01	-8.99064000E-01	-2.00504000E-04
					-2.23591000E-01	-6.46448000E-01	-1.57272000E-04
					-2.23591000E-01	-6.46449000E-01	-1.57272000E-04
					-2.23591000E-01	-6.46449000E-01	-1.57272000E-04
					-1.18419000E-01	-6.46706000E-01	-1.83618000E-04
					-1.18419000E-01	-6.46706000E-01	-1.83618000E-04
					-1.18419000E-01	-6.46706000E-01	-1.83618000E-04
					-2.07830000E-01	-7.08294000E-01	-1.57053000E-04
					-2.07830000E-01	-7.08294000E-01	-1.57053000E-04
					-1.66981000E-01	-6.46559000E-01	-1.95215000E-04
					-1.66981000E-01	-6.46559000E-01	-1.95215000E-04
					-1.03074000E-01	-7.08502000E-01	-1.58888000E-04
					-1.03074000E-01	-7.08501000E-01	-1.58888000E-04
					-4.38311000E-02	-6.49655000E-01	-1.18742000E-04
					-4.38310000E-02	-6.49655000E-01	-1.18742000E-04
					-4.38309000E-02	-6.49655000E-01	-1.18742000E-04
					-7.74958000E-02	-6.47418000E-01	-1.49911000E-04
					-7.74957000E-02	-6.47418000E-01	-1.49911000E-04
					-3.35400000E-02	-7.13016000E-01	-8.05861000E-05
					-3.35397000E-02	-7.13016000E-01	-8.05861000E-05
					-9.22029000E-03	-6.75238000E-01	-1.46336000E-05
					-9.22019000E-03	-6.75237000E-01	-1.46336000E-05
					-9.22008000E-03	-6.75237000E-01	-1.46336000E-05
					-1.98786000E-02	-6.57335000E-01	-7.86479000E-05
					-1.98784000E-02	-6.57335000E-01	-7.86479000E-05
					-1.14367000E-02	-7.45635000E-01	 1.79894000E-05
					-1.14365000E-02	-7.45634000E-01	 1.79894000E-05
					-1.58873000E-02	-7.28037000E-01	 9.07144000E-05
					-1.58872000E-02	-7.28037000E-01	 9.07144000E-05
					-1.58871000E-02	-7.28036000E-01	 9.07144000E-05
					-1.02875000E-02	-7.01419000E-01	 4.97798000E-05
					-1.02873000E-02	-7.01418000E-01	 4.97798000E-05
					-1.90705000E-02	-7.90262000E-01	 1.03651000E-04
					-1.90704000E-02	-7.90262000E-01	 1.03651000E-04
					-1.56694000E-02	-7.60966000E-01	 9.66873000E-05
					-1.56694000E-02	-7.60966000E-01	 9.66873000E-05
					-1.56694000E-02	-7.60966000E-01	 9.66873000E-05
					-1.88788000E-02	-7.48772000E-01	 1.08568000E-04
					-1.88788000E-02	-7.48772000E-01	 1.08568000E-04
					-1.20670000E-02	-8.09117000E-01	 9.24538000E-05
					-1.20670000E-02	-8.09117000E-01	 9.24538000E-05
					 5.61033000E-03	-7.71668000E-01	 8.81200000E-05
					 5.61032000E-03	-7.71667000E-01	 8.81200000E-05
					 5.61030000E-03	-7.71667000E-01	 8.81200000E-05
					-6.94454000E-03	-7.67447000E-01	 8.21111000E-05
					-6.94459000E-03	-7.67447000E-01	 8.21111000E-05
					 9.12603000E-03	-8.16532000E-01	 8.41985000E-05
					 9.12603000E-03	-8.16532000E-01	 8.41985000E-05
					 4.28425000E-02	-7.75661000E-01	 1.56759000E-04
					 4.28425000E-02	-7.75660000E-01	 1.56759000E-04
					 4.28426000E-02	-7.75660000E-01	 1.56759000E-04
					 2.21681000E-02	-7.74235000E-01	 1.12422000E-04
					 2.21681000E-02	-7.74234000E-01	 1.12422000E-04
					 4.48283000E-02	-8.19291000E-01	 1.72373000E-04
					 4.48284000E-02	-8.19291000E-01	 1.72373000E-04
					 9.67305000E-02	-7.76386000E-01	 2.15529000E-04
					 9.67306000E-02	-7.76386000E-01	 2.15529000E-04
					 9.67308000E-02	-7.76386000E-01	 2.15529000E-04
					 6.77407000E-02	-7.76245000E-01	 1.97508000E-04
					 6.77409000E-02	-7.76245000E-01	 1.97508000E-04
					 9.65908000E-02	-8.19589000E-01	 2.49797000E-04
					 9.65909000E-02	-8.19589000E-01	 2.49797000E-04
					 1.66245000E-01	-7.76256000E-01	 1.32773000E-04
					 1.66245000E-01	-7.76256000E-01	 1.32773000E-04
					 1.66246000E-01	-7.76257000E-01	 1.32773000E-04
					 1.29665000E-01	-7.76318000E-01	 1.97796000E-04
					 1.29665000E-01	-7.76318000E-01	 1.97796000E-04
					 1.63416000E-01	-8.19379000E-01	 1.90355000E-04
					 1.63416000E-01	-8.19380000E-01	 1.90355000E-04
					 2.48996000E-01	-7.76341000E-01	-2.56529000E-04
					 2.48996000E-01	-7.76342000E-01	-2.56529000E-04
					 2.48997000E-01	-7.76343000E-01	-2.56529000E-04
					 2.06122000E-01	-7.76265000E-01	-9.20493000E-06
					 2.06123000E-01	-7.76266000E-01	-9.20491000E-06
					 2.42411000E-01	-8.19456000E-01	-1.29169000E-04
					 2.42411000E-01	-8.19457000E-01	-1.29169000E-04
					-2.44221000E-01	-5.28096000E-01	-1.51145000E-04
					-2.44221000E-01	-5.28096000E-01	-1.51145000E-04
					-2.44221000E-01	-5.28096000E-01	-1.51145000E-04
					-1.42315000E-01	-5.28431000E-01	-2.07735000E-04
					-1.42315000E-01	-5.28431000E-01	-2.07735000E-04
					-1.42315000E-01	-5.28431000E-01	-2.07735000E-04
					-2.35518000E-01	-5.86298000E-01	-1.46181000E-04
					-2.35518000E-01	-5.86298000E-01	-1.46181000E-04
					-1.90261000E-01	-5.28223000E-01	-2.04126000E-04
					-1.90261000E-01	-5.28223000E-01	-2.04126000E-04
					-1.31503000E-01	-5.86652000E-01	-1.93971000E-04
					-1.31503000E-01	-5.86652000E-01	-1.93971000E-04
					-6.40300000E-02	-5.29996000E-01	-1.73805000E-04
					-6.40299000E-02	-5.29996000E-01	-1.73805000E-04
					-6.40298000E-02	-5.29996000E-01	-1.73805000E-04
					-1.00282000E-01	-5.28867000E-01	-1.89260000E-04
					-1.00282000E-01	-5.28867000E-01	-1.89260000E-04
					-5.43365000E-02	-5.88842000E-01	-1.47360000E-04
					-5.43363000E-02	-5.88842000E-01	-1.47360000E-04
					-1.16813000E-02	-5.40008000E-01	-9.82074000E-05
					-1.16811000E-02	-5.40008000E-01	-9.82074000E-05
					-1.16809000E-02	-5.40008000E-01	-9.82074000E-05
					-3.41319000E-02	-5.32998000E-01	-1.48820000E-04
					-3.41316000E-02	-5.32998000E-01	-1.48820000E-04
					-8.49928000E-03	-6.04939000E-01	-5.16094000E-05
					-8.49900000E-03	-6.04939000E-01	-5.16094000E-05
					-1.96395000E-03	-5.84320000E-01	 1.36893000E-05
					-1.96376000E-03	-5.84320000E-01	 1.36893000E-05
					-1.96356000E-03	-5.84320000E-01	 1.36893000E-05
					-6.05568000E-04	-5.56280000E-01	-3.99866000E-05
					-6.05157000E-04	-5.56279000E-01	-3.99866000E-05
					-9.85552000E-03	-6.58782000E-01	 6.29118000E-05
					-9.85526000E-03	-6.58781000E-01	 6.29118000E-05
					-1.50662000E-02	-6.44691000E-01	 7.56160000E-05
					-1.50661000E-02	-6.44691000E-01	 7.56160000E-05
					-1.50660000E-02	-6.44691000E-01	 7.56160000E-05
					-9.77910000E-03	-6.17176000E-01	 5.64361000E-05
					-9.77881000E-03	-6.17176000E-01	 5.64361000E-05
					-1.72585000E-02	-7.06740000E-01	 9.30386000E-05
					-1.72584000E-02	-7.06740000E-01	 9.30386000E-05
					-2.91831000E-03	-6.73189000E-01	 1.01486000E-04
					-2.91834000E-03	-6.73189000E-01	 1.01486000E-04
					-2.91837000E-03	-6.73189000E-01	 1.01486000E-04
					-1.29627000E-02	-6.63105000E-01	 8.62093000E-05
					-1.29627000E-02	-6.63105000E-01	 8.62093000E-05
					 1.53567000E-03	-7.23892000E-01	 9.40441000E-05
					 1.53562000E-03	-7.23892000E-01	 9.40441000E-05
					 3.49385000E-02	-6.81098000E-01	 1.49949000E-04
					 3.49384000E-02	-6.81098000E-01	 1.49949000E-04
					 3.49384000E-02	-6.81097000E-01	 1.49949000E-04
					 1.36164000E-02	-6.78179000E-01	 1.23264000E-04
					 1.36163000E-02	-6.78179000E-01	 1.23264000E-04
					 3.94709000E-02	-7.29590000E-01	 1.45001000E-04
					 3.94709000E-02	-7.29590000E-01	 1.45001000E-04
					 9.16594000E-02	-6.83183000E-01	 1.80472000E-04
					 9.16593000E-02	-6.83183000E-01	 1.80472000E-04
					 9.16593000E-02	-6.83183000E-01	 1.80472000E-04
					 6.10337000E-02	-6.82568000E-01	 1.72873000E-04
					 6.10336000E-02	-6.82568000E-01	 1.72873000E-04
					 9.50288000E-02	-7.30906000E-01	 1.79494000E-04
					 9.50290000E-02	-7.30906000E-01	 1.79494000E-04
					 1.65722000E-01	-6.83405000E-01	 6.04663000E-05
					 1.65722000E-01	-6.83405000E-01	 6.04663000E-05
					 1.65722000E-01	-6.83405000E-01	 6.04663000E-05
					 1.26643000E-01	-6.83364000E-01	 1.51175000E-04
					 1.26643000E-01	-6.83364000E-01	 1.51175000E-04
					 1.66944000E-01	-7.30925000E-01	 6.41366000E-05
					 1.66944000E-01	-7.30926000E-01	 6.41366000E-05
					 2.55521000E-01	-6.83531000E-01	-4.50462000E-04
					 2.55521000E-01	-6.83532000E-01	-4.50462000E-04
					 2.55521000E-01	-6.83534000E-01	-4.50462000E-04
					 2.08764000E-01	-6.83445000E-01	-1.26881000E-04
					 2.08764000E-01	-6.83447000E-01	-1.26881000E-04
					 2.53283000E-01	-7.31021000E-01	-4.03615000E-04
					 2.53284000E-01	-7.31023000E-01	-4.03615000E-04
					-2.54124000E-01	-4.17962000E-01	-1.92848000E-04
					-2.54124000E-01	-4.17962000E-01	-1.92848000E-04
					-2.54124000E-01	-4.17962000E-01	-1.92848000E-04
					-1.57800000E-01	-4.18198000E-01	-2.27147000E-04
					-1.57800000E-01	-4.18197000E-01	-2.27147000E-04
					-1.57800000E-01	-4.18197000E-01	-2.27147000E-04
					-2.50359000E-01	-4.71970000E-01	-1.68677000E-04
					-2.50359000E-01	-4.71970000E-01	-1.68677000E-04
					-2.03618000E-01	-4.18076000E-01	-2.32220000E-04
					-2.03618000E-01	-4.18076000E-01	-2.32220000E-04
					-1.51053000E-01	-4.72256000E-01	-2.20726000E-04
					-1.51053000E-01	-4.72256000E-01	-2.20726000E-04
					-8.04701000E-02	-4.18980000E-01	-1.95826000E-04
					-8.04701000E-02	-4.18980000E-01	-1.95826000E-04
					-8.04701000E-02	-4.18980000E-01	-1.95826000E-04
					-1.16743000E-01	-4.18417000E-01	-2.05399000E-04
					-1.16743000E-01	-4.18417000E-01	-2.05399000E-04
					-7.28958000E-02	-4.73443000E-01	-1.92716000E-04
					-7.28958000E-02	-4.73443000E-01	-1.92716000E-04
					-2.33177000E-02	-4.23319000E-01	-1.65613000E-04
					-2.33176000E-02	-4.23319000E-01	-1.65613000E-04