<?xml version="1.0"?>
<VTKFile type="UnstructuredGrid" version="0.1" byte_order="LittleEndian">
	<UnstructuredGrid>
		<Piece NumberOfPoints="32" NumberOfCells="4">
			<Points>
				<DataArray type="Float64" NumberOfComponents="3" format="ascii">
					 0.00000000E+00	 0.00000000E+00	-5.00000000E-03
					 0.00000000E+00	 0.00000000E+00	 5.00000000E-03
					 0.00000000E+00	 0.00000000E+00	-5.00000000E-03
					 0.00000000E+00	 0.00000000E+00	 5.00000000E-03
					 0.00000000E+00	 0.00000000E+00	-5.00000000E-03
					 0.00000000E+00	 0.00000000E+00	 5.00000000E-03
					 0.00000000E+00	 0.00000000E+00	-5.00000000E-03
					 0.00000000E+00	 0.00000000E+00	 5.00000000E-03
					 1.00000000E+00	 0.00000000E+00	-5.00000000E-03
					 1.00000000E+00	 0.00000000E+00	 5.00000000E-03
					 1.00000000E+00	 0.00000000E+00	-5.00000000E-03
					 1.00000000E+00	 0.00000000E+00	 5.00000000E-03
					 1.00000000E+00	 1.00000000E+00	-5.00000000E-03
					 1.00000000E+00	 1.00000000E+00	 5.00000000E-03
					 0.00000000E+00	 1.00000000E+00	-5.00000000E-03
					 0.00000000E+00	 1.00000000E+00	 5.00000000E-03
					 0.00000000E+00	 1.00000000E+00	-5.00000000E-03
					 0.00000000E+00	 1.00000000E+00	 5.00000000E-03
					-1.00000000E+00	 1.00000000E+00	-5.00000000E-03
					-1.00000000E+00	 1.00000000E+00	 5.00000000E-03
					-1.00000000E+00	 0.00000000E+00	-5.00000000E-03
					-1.00000000E+00	 0.00000000E+00	 5.00000000E-03
					-1.00000000E+00	 0.00000000E+00	-5.00000000E-03
					-1.00000000E+00	 0.00000000E+00	 5.00000000E-03
					-1.00000000E+00	-1.00000000E+00	-5.00000000E-03
					-1.00000000E+00	-1.00000000E+00	 5.00000000E-03
					 0.00000000E+00	-1.00000000E+00	-5.00000000E-03
					 0.00000000E+00	-1.00000000E+00	 5.00000000E-03
					 0.00000000E+00	-1.00000000E+00	-5.00000000E-03
					 0.00000000E+00	-1.00000000E+00	 5.00000000E-03
					 1.00000000E+00	-1.00000000E+00	-5.00000000E-03
					 1.00000000E+00	-1.00000000E+00	 5.00000000E-03

				</DataArray>
			</Points>
			<Cells>
				<DataArray type="Int32" Name="connectivity" format="ascii">
					0 8 12 14 1 9 13 15 2 16 18 20 3 17 19 21 4 22 24 26 5 23 25 27 6 28 30 10 7 29 31 11 
				</DataArray>
				<DataArray type="Int32" Name="offsets" format="ascii">
					8 16 24 32 
				</DataArray>
				<DataArray type="UInt8" Name="types" format="ascii">
					12 12 12 12 
				</DataArray>
			</Cells>
			<PointData>
				<DataArray type="Float32" Name="U" NumberOfComponents="3" ComponentName0="D1" ComponentName1="D2" ComponentName2="D3" format="ascii">
					 2.66329000E-05	 2.66329000E-05	-5.32711000E-03
					-2.66329000E-05	-2.66329000E-05	-5.32745000E-03
					-2.66329000E-05	 2.66329000E-05	-5.32711000E-03
					 2.66329000E-05	-2.66329000E-05	-5.32745000E-03
					-2.66329000E-05	-2.66329000E-05	-5.32711000E-03
					 2.66329000E-05	 2.66329000E-05	-5.32745000E-03
					 2.66329000E-05	-2.66329000E-05	-5.32711000E-03
					-2.66329000E-05	 2.66329000E-05	-5.32745000E-03
					 2.66335000E-05	 2.75310000E-09	 6.75681000E-08
					-2.66335000E-05	-2.75310000E-09	-6.75681000E-08
					 2.66335000E-05	-2.75310000E-09	 6.75681000E-08
					-2.66335000E-05	 2.75310000E-09	-6.75681000E-08
					 2.75305000E-09	 2.75305000E-09	-3.37730000E-08
					-2.75305000E-09	-2.75305000E-09	 3.37730000E-08
					 2.75310000E-09	 2.66335000E-05	 6.75681000E-08
					-2.75310000E-09	-2.66335000E-05	-6.75681000E-08
					-2.75310000E-09	 2.66335000E-05	 6.75681000E-08
					 2.75310000E-09	-2.66335000E-05	-6.75681000E-08
					-2.75305000E-09	 2.75305000E-09	-3.37730000E-08
					 2.75305000E-09	-2.75305000E-09	 3.37730000E-08
					-2.66335000E-05	 2.75310000E-09	 6.75681000E-08
					 2.66335000E-05	-2.75310000E-09	-6.75681000E-08
					-2.66335000E-05	-2.75310000E-09	 6.75681000E-08
					 2.66335000E-05	 2.75310000E-09	-6.75681000E-08
					-2.75305000E-09	-2.75305000E-09	-3.37730000E-08
					 2.75305000E-09	 2.75305000E-09	 3.37730000E-08
					-2.75310000E-09	-2.66335000E-05	 6.75681000E-08
					 2.75310000E-09	 2.66335000E-05	-6.75681000E-08
					 2.75310000E-09	-2.66335000E-05	 6.75681000E-08
					-2.75310000E-09	 2.66335000E-05	-6.75681000E-08
					 2.75305000E-09	-2.75305000E-09	-3.37730000E-08
					-2.75305000E-09	 2.75305000E-09	 3.37730000E-08
				</DataArray>
				<DataArray type="Float32" Name="S" NumberOfComponents="10" ComponentName0="xx" ComponentName1="yy" ComponentName2="zz" ComponentName3="xy" ComponentName4="yz" ComponentName5="zx" ComponentName6="Mises" ComponentName7="Min Principal" ComponentName8="Mid Principal" ComponentName9="Max Principal" format="ascii">
					 3.54701000E+00	 3.54701000E+00	 6.36946000E-04	-2.01030000E+00	 4.95358000E-02	 4.95358000E-02	 4.97145883E+00	-2.55133065E-03	 1.53989828E+00	 5.55731000E+00
					 3.54733000E+00	 3.54733000E+00	 9.85848000E-04	 6.59370000E+00	 8.88308000E-02	 8.88308000E-02	 1.19605410E+01	-3.04637000E+00	-5.70299116E-04	 1.01425861E+01
					 3.54701000E+00	 3.54701000E+00	 6.36946000E-04	 2.01030000E+00	 4.95358000E-02	-4.95358000E-02	 4.97145883E+00	-2.55133065E-03	 1.53989828E+00	 5.55731000E+00
					 3.54733000E+00	 3.54733000E+00	 9.85848000E-04	-6.59370000E+00	 8.88308000E-02	-8.88308000E-02	 1.19605410E+01	-3.04637000E+00	-5.70299116E-04	 1.01425861E+01
					 3.54701000E+00	 3.54701000E+00	 6.36946000E-04	-2.01030000E+00	-4.95358000E-02	-4.95358000E-02	 4.97145883E+00	-2.55133065E-03	 1.53989828E+00	 5.55731000E+00
					 3.54733000E+00	 3.54733000E+00	 9.85848000E-04	 6.59370000E+00	-8.88308000E-02	-8.88308000E-02	 1.19605410E+01	-3.04637000E+00	-5.70299116E-04	 1.01425861E+01
					 3.54701000E+00	 3.54701000E+00	 6.36946000E-04	 2.01030000E+00	-4.95358000E-02	 4.95358000E-02	 4.97145883E+00	-2.55133065E-03	 1.53989828E+00	 5.55731000E+00
					 3.54733000E+00	 3.54733000E+00	 9.85848000E-04	-6.59370000E+00	-8.88308000E-02	 8.88308000E-02	 1.19605410E+01	-3.04637000E+00	-5.70299116E-04	 1.01425861E+01
					 2.56490000E+00	 2.73070000E-01	-3.24521000E-07	-4.30169000E+00	-6.55715000E-02	 4.35576000E-02	 7.84124251E+00	-3.03293144E+00	-7.31796687E-04	 5.87163291E+00
					 2.56472000E+00	 2.73070000E-01	 1.74055000E-04	 4.30212000E+00	-2.62793000E-02	 5.99226000E-02	 7.84149650E+00	-3.03428414E+00	 1.08901644E-03	 5.87115918E+00
					 2.56490000E+00	 2.73070000E-01	-3.24526000E-07	 4.30169000E+00	 6.55715000E-02	 4.35576000E-02	 7.84124251E+00	-3.03293144E+00	-7.31796692E-04	 5.87163291E+00
					 2.56472000E+00	 2.73070000E-01	 1.74055000E-04	-4.30212000E+00	 2.62793000E-02	 5.99226000E-02	 7.84149650E+00	-3.03428414E+00	 1.08901644E-03	 5.87115918E+00
					-7.09326000E-01	-7.09326000E-01	-4.51799000E-04	-4.30183000E+00	-5.41087000E-02	-5.41087000E-02	 7.48580611E+00	-5.01232433E+00	 7.16527369E-04	 3.59250400E+00
					-7.09326000E-01	-7.09326000E-01	-4.51806000E-04	 4.30179000E+00	-3.77430000E-02	-3.77430000E-02	 7.48513470E+00	-5.01111600E+00	-1.24459930E-03	 3.59325679E+00
					 2.73070000E-01	 2.56490000E+00	-3.24531000E-07	-4.30169000E+00	 4.35576000E-02	-6.55715000E-02	 7.84124251E+00	-3.03293144E+00	-7.31796697E-04	 5.87163291E+00
					 2.73070000E-01	 2.56472000E+00	 1.74055000E-04	 4.30212000E+00	 5.99226000E-02	-2.62793000E-02	 7.84149650E+00	-3.03428414E+00	 1.08901644E-03	 5.87115918E+00
					 2.73070000E-01	 2.56490000E+00	-3.24515000E-07	 4.30169000E+00	 4.35576000E-02	 6.55715000E-02	 7.84124251E+00	-3.03293144E+00	-7.31796681E-04	 5.87163291E+00
					 2.73070000E-01	 2.56472000E+00	 1.74055000E-04	-4.30212000E+00	 5.99226000E-02	 2.62793000E-02	 7.84149650E+00	-3.03428414E+00	 1.08901644E-03	 5.87115918E+00
					-7.09326000E-01	-7.09326000E-01	-4.51799000E-04	 4.30183000E+00	-5.41087000E-02	 5.41087000E-02	 7.48580611E+00	-5.01232433E+00	 7.16527369E-04	 3.59250400E+00
					-7.09326000E-01	-7.09326000E-01	-4.51806000E-04	-4.30179000E+00	-3.77430000E-02	 3.77430000E-02	 7.48513470E+00	-5.01111600E+00	-1.24459930E-03	 3.59325679E+00
					 2.56490000E+00	 2.73070000E-01	-3.24526000E-07	 4.30169000E+00	-6.55715000E-02	-4.35576000E-02	 7.84124251E+00	-3.03293144E+00	-7.31796692E-04	 5.87163291E+00
					 2.56472000E+00	 2.73070000E-01	 1.74055000E-04	-4.30212000E+00	-2.62793000E-02	-5.99226000E-02	 7.84149650E+00	-3.03428414E+00	 1.08901644E-03	 5.87115918E+00
					 2.56490000E+00	 2.73070000E-01	-3.24522000E-07	-4.30169000E+00	 6.55715000E-02	-4.35576000E-02	 7.84124251E+00	-3.03293144E+00	-7.31796688E-04	 5.87163291E+00
					 2.56472000E+00	 2.73070000E-01	 1.74055000E-04	 4.30212000E+00	 2.62793000E-02	-5.99226000E-02	 7.84149650E+00	-3.03428414E+00	 1.08901644E-03	 5.87115918E+00
					-7.09326000E-01	-7.09326000E-01	-4.51799000E-04	-4.30183000E+00	 5.41087000E-02	 5.41087000E-02	 7.48580611E+00	-5.01232433E+00	 7.16527369E-04	 3.59250400E+00
					-7.09326000E-01	-7.09326000E-01	-4.51806000E-04	 4.30179000E+00	 3.77430000E-02	 3.77430000E-02	 7.48513470E+00	-5.01111600E+00	-1.24459930E-03	 3.59325679E+00
					 2.73070000E-01	 2.56490000E+00	-3.24533000E-07	-4.30169000E+00	-4.35576000E-02	 6.55715000E-02	 7.84124251E+00	-3.03293144E+00	-7.31796699E-04	 5.87163291E+00
					 2.73070000E-01	 2.56472000E+00	 1.74055000E-04	 4.30212000E+00	-5.99226000E-02	 2.62793000E-02	 7.84149650E+00	-3.03428414E+00	 1.08901644E-03	 5.87115918E+00
					 2.73070000E-01	 2.56490000E+00	-3.24515000E-07	 4.30169000E+00	-4.35576000E-02	-6.55715000E-02	 7.84124251E+00	-3.03293144E+00	-7.31796681E-04	 5.87163291E+00
					 2.73070000E-01	 2.56472000E+00	 1.74055000E-04	-4.30212000E+00	-5.99226000E-02	-2.62793000E-02	 7.84149650E+00	-3.03428414E+00	 1.08901644E-03	 5.87115918E+00
					-7.09326000E-01	-7.09326000E-01	-4.51799000E-04	 4.30183000E+00	 5.41087000E-02	-5.41087000E-02	 7.48580611E+00	-5.01232433E+00	 7.16527369E-04	 3.59250400E+00
					-7.09326000E-01	-7.09326000E-01	-4.51806000E-04	-4.30179000E+00	 3.77430000E-02	-3.77430000E-02	 7.48513470E+00	-5.01111600E+00	-1.24459930E-03	 3.59325679E+00
				</DataArray>
				<DataArray type="Float32" Name="RF" NumberOfComponents="3" ComponentName0="F1" ComponentName1="F2" ComponentName2="F3" format="ascii">
					-6.82192000E-03	-6.82192000E-03	-1.25059000E-04
					-6.82192000E-03	-6.82192000E-03	-1.24941000E-04
					 6.82192000E-03	-6.82192000E-03	-1.25059000E-04
					 6.82192000E-03	-6.82192000E-03	-1.24941000E-04
					 6.82192000E-03	 6.82192000E-03	-1.25059000E-04
					 6.82192000E-03	 6.82192000E-03	-1.24941000E-04
					-6.82192000E-03	 6.82192000E-03	-1.25059000E-04
					-6.82192000E-03	 6.82192000E-03	-1.24941000E-04
					 3.95664000E-03	-2.73073000E-04	 8.86187000E-05
					 3.95664000E-03	-2.73073000E-04	 8.86968000E-05
					 3.95664000E-03	 2.73073000E-04	 8.86187000E-05
					 3.95664000E-03	 2.73073000E-04	 8.86968000E-05
					 3.13835000E-03	 3.13835000E-03	-5.23350000E-05
					 3.13835000E-03	 3.13835000E-03	-5.22960000E-05
					-2.73073000E-04	 3.95664000E-03	 8.86187000E-05
					-2.73073000E-04	 3.95664000E-03	 8.86968000E-05
					 2.73073000E-04	 3.95664000E-03	 8.86187000E-05
					 2.73073000E-04	 3.95664000E-03	 8.86968000E-05
					-3.13835000E-03	 3.13835000E-03	-5.23350000E-05
					-3.13835000E-03	 3.13835000E-03	-5.22960000E-05
					-3.95664000E-03	-2.73073000E-04	 8.86187000E-05
					-3.95664000E-03	-2.73073000E-04	 8.86968000E-05
					-3.95664000E-03	 2.73073000E-04	 8.86187000E-05
					-3.95664000E-03	 2.73073000E-04	 8.86968000E-05
					-3.13835000E-03	-3.13835000E-03	-5.23350000E-05
					-3.13835000E-03	-3.13835000E-03	-5.22960000E-05
					 2.73073000E-04	-3.95664000E-03	 8.86187000E-05
					 2.73073000E-04	-3.95664000E-03	 8.86968000E-05
					-2.73073000E-04	-3.95664000E-03	 8.86187000E-05
					-2.73073000E-04	-3.95664000E-03	 8.86968000E-05
					 3.13835000E-03	-3.13835000E-03	-5.23350000E-05
					 3.13835000E-03	-3.13835000E-03	-5.22960000E-05
				</DataArray>
			</PointData>
		</Piece>
	</UnstructuredGrid>
</VTKFile>