# vtk DataFile Version 3.0

ASCII
DATASET UNSTRUCTURED_GRID

POINTS 40 double
	 5.00000000E+00	-5.00000000E+00	 0.00000000E+00
	-5.00000000E+00	-5.00000000E+00	 0.00000000E+00
	-5.00000000E+00	 5.00000000E+00	 0.00000000E+00
	 5.00000000E+00	 5.00000000E+00	 0.00000000E+00
	 0.00000000E+00	-5.00000000E+00	 0.00000000E+00
	-5.00000000E+00	 0.00000000E+00	 0.00000000E+00
	 0.00000000E+00	 5.00000000E+00	 0.00000000E+00
	 5.00000000E+00	 0.00000000E+00	 0.00000000E+00
	 5.00000000E+00	-5.00000000E+00	-1.50000000E+01
	-5.00000000E+00	-5.00000000E+00	-1.50000000E+01
	-5.00000000E+00	 5.00000000E+00	-1.50000000E+01
	 5.00000000E+00	 5.00000000E+00	-1.50000000E+01
	 5.00000000E+00	-5.00000000E+00	-3.00000000E+01
	-5.00000000E+00	-5.00000000E+00	-3.00000000E+01
	-5.00000000E+00	 5.00000000E+00	-3.00000000E+01
	 5.00000000E+00	 5.00000000E+00	-3.00000000E+01
	 0.00000000E+00	-5.00000000E+00	-3.00000000E+01
	-5.00000000E+00	 0.00000000E+00	-3.00000000E+01
	 0.00000000E+00	 5.00000000E+00	-3.00000000E+01
	 5.00000000E+00	 0.00000000E+00	-3.00000000E+01
	 5.00000000E+00	-5.00000000E+00	-3.00000000E+01
	-5.00000000E+00	-5.00000000E+00	-3.00000000E+01
	-5.00000000E+00	 5.00000000E+00	-3.00000000E+01
	 5.00000000E+00	 5.00000000E+00	-3.00000000E+01
	 0.00000000E+00	-5.00000000E+00	-3.00000000E+01
	-5.00000000E+00	 0.00000000E+00	-3.00000000E+01
	 0.00000000E+00	 5.00000000E+00	-3.00000000E+01
	 5.00000000E+00	 0.00000000E+00	-3.00000000E+01
	 5.00000000E+00	-5.00000000E+00	-1.80000000E+02
	-5.00000000E+00	-5.00000000E+00	-1.80000000E+02
	-5.00000000E+00	 5.00000000E+00	-1.80000000E+02
	 5.00000000E+00	 5.00000000E+00	-1.80000000E+02
	 5.00000000E+00	-5.00000000E+00	-3.30000000E+02
	-5.00000000E+00	-5.00000000E+00	-3.30000000E+02
	-5.00000000E+00	 5.00000000E+00	-3.30000000E+02
	 5.00000000E+00	 5.00000000E+00	-3.30000000E+02
	 0.00000000E+00	-5.00000000E+00	-3.30000000E+02
	-5.00000000E+00	 0.00000000E+00	-3.30000000E+02
	 0.00000000E+00	 5.00000000E+00	-3.30000000E+02
	 5.00000000E+00	 0.00000000E+00	-3.30000000E+02

CELLS 2 42
	20 0 12 13 1 3 15 14 2 8 16 9 4 11 18 10 6 7 19 17 5 
	20 20 32 33 21 23 35 34 22 28 36 29 24 31 38 30 26 27 39 37 25 

CELL_TYPES 2
	25
	25

POINT_DATA 40
FIELD U 1
	U 3 40 double
		-7.19026000E+00	-9.33593000E-08	 4.49475000E+00
		 7.19026000E+00	-9.33593000E-08	-4.49475000E+00
		 7.19026000E+00	 9.33593000E-08	-4.49475000E+00
		-7.19026000E+00	 9.33593000E-08	 4.49475000E+00
		 0.00000000E+00	-9.33593000E-08	 0.00000000E+00
		 7.19026000E+00	 0.00000000E+00	-4.49475000E+00
		 0.00000000E+00	 9.33593000E-08	 0.00000000E+00
		-7.19026000E+00	 0.00000000E+00	 4.49475000E+00
		 6.29401000E+00	-9.02060000E-08	 2.60655000E+01
		 2.06745000E+01	-9.02060000E-08	 1.70760000E+01
		 2.06745000E+01	 9.02060000E-08	 1.70760000E+01
		 6.29401000E+00	 9.02060000E-08	 2.60655000E+01
		 1.97783000E+01	-8.70466000E-08	 4.76362000E+01
		 3.41588000E+01	-8.70466000E-08	 3.86467000E+01
		 3.41588000E+01	 8.70466000E-08	 3.86467000E+01
		 1.97783000E+01	 8.70466000E-08	 4.76362000E+01
		 2.69685000E+01	-8.70466000E-08	 4.31415000E+01
		 3.41588000E+01	 0.00000000E+00	 3.86467000E+01
		 2.69685000E+01	 8.70466000E-08	 4.31415000E+01
		 1.97783000E+01	 0.00000000E+00	 4.76362000E+01
		 2.68959000E+01	 1.66400000E-07	 4.22922000E+01
		 2.70412000E+01	 1.66400000E-07	 4.39907000E+01
		 2.70412000E+01	-1.66400000E-07	 4.39907000E+01
		 2.68959000E+01	-1.66400000E-07	 4.22922000E+01
		 2.69685000E+01	 1.66400000E-07	 4.31415000E+01
		 2.70412000E+01	 0.00000000E+00	 4.39907000E+01
		 2.69685000E+01	-1.66400000E-07	 4.31415000E+01
		 2.68959000E+01	 0.00000000E+00	 4.22922000E+01
		 1.41851000E+00	 8.38483000E-08	 4.44717000E+01
		 1.56381000E+00	 8.38483000E-08	 4.61702000E+01
		 1.56381000E+00	-8.38483000E-08	 4.61702000E+01
		 1.41851000E+00	-8.38483000E-08	 4.44717000E+01
		-2.40592000E+01	 1.30662000E-09	 4.66512000E+01
		-2.39139000E+01	 1.30662000E-09	 4.83498000E+01
		-2.39139000E+01	-1.30662000E-09	 4.83498000E+01
		-2.40592000E+01	-1.30662000E-09	 4.66512000E+01
		-2.39866000E+01	 1.30662000E-09	 4.75005000E+01
		-2.39139000E+01	 0.00000000E+00	 4.83498000E+01
		-2.39866000E+01	-1.30662000E-09	 4.75005000E+01
		-2.40592000E+01	 0.00000000E+00	 4.66512000E+01
