# vtk DataFile Version 3.0

ASCII
DATASET UNSTRUCTURED_GRID

POINTS 40 double
	 5.00000000E+00	-5.00000000E+00	 0.00000000E+00
	-5.00000000E+00	-5.00000000E+00	 0.00000000E+00
	-5.00000000E+00	 5.00000000E+00	 0.00000000E+00
	 5.00000000E+00	 5.00000000E+00	 0.00000000E+00
	 0.00000000E+00	-5.00000000E+00	 0.00000000E+00
	-5.00000000E+00	 0.00000000E+00	 0.00000000E+00
	 0.00000000E+00	 5.00000000E+00	 0.00000000E+00
	 5.00000000E+00	 0.00000000E+00	 0.00000000E+00
	 5.00000000E+00	-5.00000000E+00	-1.50000000E+01
	-5.00000000E+00	-5.00000000E+00	-1.50000000E+01
	-5.00000000E+00	 5.00000000E+00	-1.50000000E+01
	 5.00000000E+00	 5.00000000E+00	-1.50000000E+01
	 5.00000000E+00	-5.00000000E+00	-3.00000000E+01
	-5.00000000E+00	-5.00000000E+00	-3.00000000E+01
	-5.00000000E+00	 5.00000000E+00	-3.00000000E+01
	 5.00000000E+00	 5.00000000E+00	-3.00000000E+01
	 0.00000000E+00	-5.00000000E+00	-3.00000000E+01
	-5.00000000E+00	 0.00000000E+00	-3.00000000E+01
	 0.00000000E+00	 5.00000000E+00	-3.00000000E+01
	 5.00000000E+00	 0.00000000E+00	-3.00000000E+01
	 5.00000000E+00	-5.00000000E+00	-3.00000000E+01
	-5.00000000E+00	-5.00000000E+00	-3.00000000E+01
	-5.00000000E+00	 5.00000000E+00	-3.00000000E+01
	 5.00000000E+00	 5.00000000E+00	-3.00000000E+01
	 0.00000000E+00	-5.00000000E+00	-3.00000000E+01
	-5.00000000E+00	 0.00000000E+00	-3.00000000E+01
	 0.00000000E+00	 5.00000000E+00	-3.00000000E+01
	 5.00000000E+00	 0.00000000E+00	-3.00000000E+01
	 5.00000000E+00	-5.00000000E+00	-1.80000000E+02
	-5.00000000E+00	-5.00000000E+00	-1.80000000E+02
	-5.00000000E+00	 5.00000000E+00	-1.80000000E+02
	 5.00000000E+00	 5.00000000E+00	-1.80000000E+02
	 5.00000000E+00	-5.00000000E+00	-3.30000000E+02
	-5.00000000E+00	-5.00000000E+00	-3.30000000E+02
	-5.00000000E+00	 5.00000000E+00	-3.30000000E+02
	 5.00000000E+00	 5.00000000E+00	-3.30000000E+02
	 0.00000000E+00	-5.00000000E+00	-3.30000000E+02
	-5.00000000E+00	 0.00000000E+00	-3.30000000E+02
	 0.00000000E+00	 5.00000000E+00	-3.30000000E+02
	 5.00000000E+00	 0.00000000E+00	-3.30000000E+02

CELLS 2 42
	20 0 12 13 1 3 15 14 2 8 16 9 4 11 18 10 6 7 19 17 5 
	20 20 32 33 21 23 35 34 22 28 36 29 24 31 38 30 26 27 39 37 25 

CELL_TYPES 2
	25
	25

POINT_DATA 40
FIELD U 1
	U 3 40 double
		-1.41487000E+00	 1.83101000E-07	 3.48523000E+00
		 1.41487000E+00	 1.83101000E-07	-3.48523000E+00
		 1.41487000E+00	-1.83101000E-07	-3.48523000E+00
		-1.41487000E+00	-1.83101000E-07	 3.48523000E+00
		 0.00000000E+00	 1.83101000E-07	 0.00000000E+00
		 1.41487000E+00	 0.00000000E+00	-3.48523000E+00
		 0.00000000E+00	-1.83101000E-07	 0.00000000E+00
		-1.41487000E+00	 0.00000000E+00	 3.48523000E+00
		 9.04082000E+00	 1.76601000E-07	 7.72982000E+00
		 1.18705000E+01	 1.76601000E-07	 7.59369000E-01
		 1.18705000E+01	-1.76601000E-07	 7.59369000E-01
		 9.04082000E+00	-1.76601000E-07	 7.72982000E+00
		 1.94965000E+01	 1.70103000E-07	 1.19744000E+01
		 2.23262000E+01	 1.70103000E-07	 5.00395000E+00
		 2.23262000E+01	-1.70103000E-07	 5.00395000E+00
		 1.94965000E+01	-1.70103000E-07	 1.19744000E+01
		 2.09113000E+01	 1.70103000E-07	 8.48917000E+00
		 2.23262000E+01	 0.00000000E+00	 5.00395000E+00
		 2.09113000E+01	-1.70103000E-07	 8.48917000E+00
		 1.94965000E+01	 0.00000000E+00	 1.19744000E+01
		 2.06855000E+01	 1.97709000E-07	 9.97495000E+00
		 2.11372000E+01	 1.97709000E-07	 7.00339000E+00
		 2.11372000E+01	-1.97709000E-07	 7.00339000E+00
		 2.06855000E+01	-1.97709000E-07	 9.97495000E+00
		 2.09113000E+01	 1.97709000E-07	 8.48917000E+00
		 2.11372000E+01	 0.00000000E+00	 7.00339000E+00
		 2.09113000E+01	-1.97709000E-07	 8.48917000E+00
		 2.06855000E+01	 0.00000000E+00	 9.97495000E+00
		 6.52591000E+01	 9.99195000E-08	 1.67507000E+01
		 6.57108000E+01	 9.99195000E-08	 1.37791000E+01
		 6.57108000E+01	-9.99195000E-08	 1.37791000E+01
		 6.52591000E+01	-9.99195000E-08	 1.67507000E+01
		 1.09833000E+02	 2.13818000E-09	 2.35265000E+01
		 1.10285000E+02	 2.13818000E-09	 2.05549000E+01
		 1.10285000E+02	-2.13818000E-09	 2.05549000E+01
		 1.09833000E+02	-2.13818000E-09	 2.35265000E+01
		 1.10059000E+02	 2.13818000E-09	 2.20407000E+01
		 1.10285000E+02	 0.00000000E+00	 2.05549000E+01
		 1.10059000E+02	-2.13818000E-09	 2.20407000E+01
		 1.09833000E+02	 0.00000000E+00	 2.35265000E+01
