# vtk DataFile Version 3.0

ASCII
DATASET UNSTRUCTURED_GRID

POINTS 40 double
	 5.00000000E+00	-5.00000000E+00	 0.00000000E+00
	-5.00000000E+00	-5.00000000E+00	 0.00000000E+00
	-5.00000000E+00	 5.00000000E+00	 0.00000000E+00
	 5.00000000E+00	 5.00000000E+00	 0.00000000E+00
	 0.00000000E+00	-5.00000000E+00	 0.00000000E+00
	-5.00000000E+00	 0.00000000E+00	 0.00000000E+00
	 0.00000000E+00	 5.00000000E+00	 0.00000000E+00
	 5.00000000E+00	 0.00000000E+00	 0.00000000E+00
	 5.00000000E+00	-5.00000000E+00	-1.50000000E+01
	-5.00000000E+00	-5.00000000E+00	-1.50000000E+01
	-5.00000000E+00	 5.00000000E+00	-1.50000000E+01
	 5.00000000E+00	 5.00000000E+00	-1.50000000E+01
	 5.00000000E+00	-5.00000000E+00	-3.00000000E+01
	-5.00000000E+00	-5.00000000E+00	-3.00000000E+01
	-5.00000000E+00	 5.00000000E+00	-3.00000000E+01
	 5.00000000E+00	 5.00000000E+00	-3.00000000E+01
	 0.00000000E+00	-5.00000000E+00	-3.00000000E+01
	-5.00000000E+00	 0.00000000E+00	-3.00000000E+01
	 0.00000000E+00	 5.00000000E+00	-3.00000000E+01
	 5.00000000E+00	 0.00000000E+00	-3.00000000E+01
	 5.00000000E+00	-5.00000000E+00	-3.00000000E+01
	-5.00000000E+00	-5.00000000E+00	-3.00000000E+01
	-5.00000000E+00	 5.00000000E+00	-3.00000000E+01
	 5.00000000E+00	 5.00000000E+00	-3.00000000E+01
	 0.00000000E+00	-5.00000000E+00	-3.00000000E+01
	-5.00000000E+00	 0.00000000E+00	-3.00000000E+01
	 0.00000000E+00	 5.00000000E+00	-3.00000000E+01
	 5.00000000E+00	 0.00000000E+00	-3.00000000E+01
	 5.00000000E+00	-5.00000000E+00	-1.80000000E+02
	-5.00000000E+00	-5.00000000E+00	-1.80000000E+02
	-5.00000000E+00	 5.00000000E+00	-1.80000000E+02
	 5.00000000E+00	 5.00000000E+00	-1.80000000E+02
	 5.00000000E+00	-5.00000000E+00	-3.30000000E+02
	-5.00000000E+00	-5.00000000E+00	-3.30000000E+02
	-5.00000000E+00	 5.00000000E+00	-3.30000000E+02
	 5.00000000E+00	 5.00000000E+00	-3.30000000E+02
	 0.00000000E+00	-5.00000000E+00	-3.30000000E+02
	-5.00000000E+00	 0.00000000E+00	-3.30000000E+02
	 0.00000000E+00	 5.00000000E+00	-3.30000000E+02
	 5.00000000E+00	 0.00000000E+00	-3.30000000E+02

CELLS 2 42
	20 0 12 13 1 3 15 14 2 8 16 9 4 11 18 10 6 7 19 17 5 
	20 20 32 33 21 23 35 34 22 28 36 29 24 31 38 30 26 27 39 37 25 

CELL_TYPES 2
	25
	25

POINT_DATA 40
FIELD U 1
	U 3 40 double
		-5.95024000E-01	 1.99659000E-07	 2.36563000E+00
		 5.95024000E-01	 1.99659000E-07	-2.36563000E+00
		 5.95024000E-01	-1.99659000E-07	-2.36563000E+00
		-5.95024000E-01	-1.99659000E-07	 2.36563000E+00
		 0.00000000E+00	 1.99659000E-07	 0.00000000E+00
		 5.95024000E-01	 0.00000000E+00	-2.36563000E+00
		 0.00000000E+00	-1.99659000E-07	 0.00000000E+00
		-5.95024000E-01	 0.00000000E+00	 2.36563000E+00
		 6.50185000E+00	 1.91789000E-07	 4.15069000E+00
		 7.69190000E+00	 1.91789000E-07	-5.80555000E-01
		 7.69190000E+00	-1.91789000E-07	-5.80555000E-01
		 6.50185000E+00	-1.91789000E-07	 4.15069000E+00
		 1.35987000E+01	 1.83919000E-07	 5.93575000E+00
		 1.47888000E+01	 1.83919000E-07	 1.20451000E+00
		 1.47888000E+01	-1.83919000E-07	 1.20451000E+00
		 1.35987000E+01	-1.83919000E-07	 5.93575000E+00
		 1.41937000E+01	 1.83919000E-07	 3.57013000E+00
		 1.47888000E+01	 0.00000000E+00	 1.20451000E+00
		 1.41937000E+01	-1.83919000E-07	 3.57013000E+00
		 1.35987000E+01	 0.00000000E+00	 5.93575000E+00
		 1.38295000E+01	 1.87269000E-07	 5.44356000E+00
		 1.45580000E+01	 1.87269000E-07	 1.69671000E+00
		 1.45580000E+01	-1.87269000E-07	 1.69671000E+00
		 1.38295000E+01	-1.87269000E-07	 5.44356000E+00
		 1.41937000E+01	 1.87269000E-07	 3.57013000E+00
		 1.45580000E+01	 0.00000000E+00	 1.69671000E+00
		 1.41937000E+01	-1.87269000E-07	 3.57013000E+00
		 1.38295000E+01	 0.00000000E+00	 5.44356000E+00
		 7.00325000E+01	 9.41371000E-08	 1.63709000E+01
		 7.07610000E+01	 9.41371000E-08	 1.26240000E+01
		 7.07610000E+01	-9.41371000E-08	 1.26240000E+01
		 7.00325000E+01	-9.41371000E-08	 1.63709000E+01
		 1.26236000E+02	 1.02338000E-09	 2.72984000E+01
		 1.26965000E+02	 1.02338000E-09	 2.35514000E+01
		 1.26965000E+02	-1.02338000E-09	 2.35514000E+01
		 1.26236000E+02	-1.02338000E-09	 2.72984000E+01
		 1.26600000E+02	 1.02338000E-09	 2.54249000E+01
		 1.26965000E+02	 0.00000000E+00	 2.35514000E+01
		 1.26600000E+02	-1.02338000E-09	 2.54249000E+01
		 1.26236000E+02	 0.00000000E+00	 2.72984000E+01
