<?xml version="1.0"?>
<VTKFile type="UnstructuredGrid" version="0.1" byte_order="LittleEndian">
	<UnstructuredGrid>
		<Piece NumberOfPoints="40" NumberOfCells="2">
			<Points>
				<DataArray type="Float64" NumberOfComponents="3" format="ascii">
					 5.00000000E+00	-5.00000000E+00	 0.00000000E+00
					-5.00000000E+00	-5.00000000E+00	 0.00000000E+00
					-5.00000000E+00	 5.00000000E+00	 0.00000000E+00
					 5.00000000E+00	 5.00000000E+00	 0.00000000E+00
					 0.00000000E+00	-5.00000000E+00	 0.00000000E+00
					-5.00000000E+00	 0.00000000E+00	 0.00000000E+00
					 0.00000000E+00	 5.00000000E+00	 0.00000000E+00
					 5.00000000E+00	 0.00000000E+00	 0.00000000E+00
					 5.00000000E+00	-5.00000000E+00	-1.50000000E+01
					-5.00000000E+00	-5.00000000E+00	-1.50000000E+01
					-5.00000000E+00	 5.00000000E+00	-1.50000000E+01
					 5.00000000E+00	 5.00000000E+00	-1.50000000E+01
					 5.00000000E+00	-5.00000000E+00	-3.00000000E+01
					-5.00000000E+00	-5.00000000E+00	-3.00000000E+01
					-5.00000000E+00	 5.00000000E+00	-3.00000000E+01
					 5.00000000E+00	 5.00000000E+00	-3.00000000E+01
					 0.00000000E+00	-5.00000000E+00	-3.00000000E+01
					-5.00000000E+00	 0.00000000E+00	-3.00000000E+01
					 0.00000000E+00	 5.00000000E+00	-3.00000000E+01
					 5.00000000E+00	 0.00000000E+00	-3.00000000E+01
					 5.00000000E+00	-5.00000000E+00	-3.00000000E+01
					-5.00000000E+00	-5.00000000E+00	-3.00000000E+01
					-5.00000000E+00	 5.00000000E+00	-3.00000000E+01
					 5.00000000E+00	 5.00000000E+00	-3.00000000E+01
					 0.00000000E+00	-5.00000000E+00	-3.00000000E+01
					-5.00000000E+00	 0.00000000E+00	-3.00000000E+01
					 0.00000000E+00	 5.00000000E+00	-3.00000000E+01
					 5.00000000E+00	 0.00000000E+00	-3.00000000E+01
					 5.00000000E+00	-5.00000000E+00	-1.80000000E+02
					-5.00000000E+00	-5.00000000E+00	-1.80000000E+02
					-5.00000000E+00	 5.00000000E+00	-1.80000000E+02
					 5.00000000E+00	 5.00000000E+00	-1.80000000E+02
					 5.00000000E+00	-5.00000000E+00	-3.30000000E+02
					-5.00000000E+00	-5.00000000E+00	-3.30000000E+02
					-5.00000000E+00	 5.00000000E+00	-3.30000000E+02
					 5.00000000E+00	 5.00000000E+00	-3.30000000E+02
					 0.00000000E+00	-5.00000000E+00	-3.30000000E+02
					-5.00000000E+00	 0.00000000E+00	-3.30000000E+02
					 0.00000000E+00	 5.00000000E+00	-3.30000000E+02
					 5.00000000E+00	 0.00000000E+00	-3.30000000E+02

				</DataArray>
			</Points>
			<Cells>
				<DataArray type="Int32" Name="connectivity" format="ascii">
					0 12 13 1 3 15 14 2 8 16 9 4 11 18 10 6 7 19 17 5 20 32 33 21 23 35 34 22 28 36 29 24 31 38 30 26 27 39 37 25 
				</DataArray>
				<DataArray type="Int32" Name="offsets" format="ascii">
					20 40 
				</DataArray>
				<DataArray type="UInt8" Name="types" format="ascii">
					25 25 
				</DataArray>
			</Cells>
			<PointData>
				<DataArray type="Float32" Name="U" NumberOfComponents="3" ComponentName0="D1" ComponentName1="D2" ComponentName2="D3" format="ascii">
					-1.08386000E-07	 6.89476000E-08	-6.28000000E-04
					 1.08386000E-07	 6.89476000E-08	 6.28000000E-04
					 1.08386000E-07	-6.89476000E-08	 6.28000000E-04
					-1.08386000E-07	-6.89476000E-08	-6.28000000E-04
					 0.00000000E+00	 6.89476000E-08	 0.00000000E+00
					 1.08386000E-07	 0.00000000E+00	 6.28000000E-04
					 0.00000000E+00	-6.89476000E-08	 0.00000000E+00
					-1.08386000E-07	 0.00000000E+00	-6.28000000E-04
					-7.54440000E-04	 5.38590000E-08	-2.80580000E-05
					-7.54332000E-04	 5.38590000E-08	 2.69023000E-05
					-7.54332000E-04	-5.38590000E-08	 2.69023000E-05
					-7.54440000E-04	-5.38590000E-08	-2.80580000E-05
					-1.14322000E-04	 5.18863000E-08	 2.84425000E-04
					-1.14202000E-04	 5.18863000E-08	-2.86544000E-04
					-1.14202000E-04	-5.18863000E-08	-2.86544000E-04
					-1.14322000E-04	-5.18863000E-08	 2.84425000E-04
					-1.14262000E-04	 5.18863000E-08	-1.05987000E-06
					-1.14202000E-04	 0.00000000E+00	-2.86544000E-04
					-1.14262000E-04	-5.18863000E-08	-1.05987000E-06
					-1.14322000E-04	 0.00000000E+00	 2.84425000E-04
					-1.14277000E-04	 1.54307000E-08	 6.33875000E-06
					-1.14247000E-04	 1.54307000E-08	-8.45849000E-06
					-1.14247000E-04	-1.54307000E-08	-8.45849000E-06
					-1.14277000E-04	-1.54307000E-08	 6.33875000E-06
					-1.14262000E-04	 1.54307000E-08	-1.05987000E-06
					-1.14247000E-04	 0.00000000E+00	-8.45849000E-06
					-1.14262000E-04	-1.54307000E-08	-1.05987000E-06
					-1.14277000E-04	 0.00000000E+00	 6.33875000E-06
					 1.89153000E-05	 3.66737000E-09	-7.75005000E-07
					 1.89226000E-05	 3.66737000E-09	-3.25960000E-06
					 1.89226000E-05	-3.66737000E-09	-3.25960000E-06
					 1.89153000E-05	-3.66737000E-09	-7.75005000E-07
					-3.78713000E-05	-8.09359000E-09	-6.70945000E-06
					-3.78875000E-05	-8.09359000E-09	 3.11861000E-06
					-3.78875000E-05	 8.09359000E-09	 3.11861000E-06
					-3.78713000E-05	 8.09359000E-09	-6.70945000E-06
					-3.78794000E-05	-8.09359000E-09	-1.79542000E-06
					-3.78875000E-05	 0.00000000E+00	 3.11861000E-06
					-3.78794000E-05	 8.09359000E-09	-1.79542000E-06
					-3.78713000E-05	 0.00000000E+00	-6.70945000E-06
				</DataArray>
			</PointData>
		</Piece>
	</UnstructuredGrid>
</VTKFile>