<?xml version="1.0"?>
<VTKFile type="UnstructuredGrid" version="0.1" byte_order="LittleEndian">
	<UnstructuredGrid>
		<Piece NumberOfPoints="40" NumberOfCells="2">
			<Points>
				<DataArray type="Float64" NumberOfComponents="3" format="ascii">
					 5.00000000E+00	-5.00000000E+00	 0.00000000E+00
					-5.00000000E+00	-5.00000000E+00	 0.00000000E+00
					-5.00000000E+00	 5.00000000E+00	 0.00000000E+00
					 5.00000000E+00	 5.00000000E+00	 0.00000000E+00
					 0.00000000E+00	-5.00000000E+00	 0.00000000E+00
					-5.00000000E+00	 0.00000000E+00	 0.00000000E+00
					 0.00000000E+00	 5.00000000E+00	 0.00000000E+00
					 5.00000000E+00	 0.00000000E+00	 0.00000000E+00
					 5.00000000E+00	-5.00000000E+00	-1.50000000E+01
					-5.00000000E+00	-5.00000000E+00	-1.50000000E+01
					-5.00000000E+00	 5.00000000E+00	-1.50000000E+01
					 5.00000000E+00	 5.00000000E+00	-1.50000000E+01
					 5.00000000E+00	-5.00000000E+00	-3.00000000E+01
					-5.00000000E+00	-5.00000000E+00	-3.00000000E+01
					-5.00000000E+00	 5.00000000E+00	-3.00000000E+01
					 5.00000000E+00	 5.00000000E+00	-3.00000000E+01
					 0.00000000E+00	-5.00000000E+00	-3.00000000E+01
					-5.00000000E+00	 0.00000000E+00	-3.00000000E+01
					 0.00000000E+00	 5.00000000E+00	-3.00000000E+01
					 5.00000000E+00	 0.00000000E+00	-3.00000000E+01
					 5.00000000E+00	-5.00000000E+00	-3.00000000E+01
					-5.00000000E+00	-5.00000000E+00	-3.00000000E+01
					-5.00000000E+00	 5.00000000E+00	-3.00000000E+01
					 5.00000000E+00	 5.00000000E+00	-3.00000000E+01
					 0.00000000E+00	-5.00000000E+00	-3.00000000E+01
					-5.00000000E+00	 0.00000000E+00	-3.00000000E+01
					 0.00000000E+00	 5.00000000E+00	-3.00000000E+01
					 5.00000000E+00	 0.00000000E+00	-3.00000000E+01
					 5.00000000E+00	-5.00000000E+00	-1.80000000E+02
					-5.00000000E+00	-5.00000000E+00	-1.80000000E+02
					-5.00000000E+00	 5.00000000E+00	-1.80000000E+02
					 5.00000000E+00	 5.00000000E+00	-1.80000000E+02
					 5.00000000E+00	-5.00000000E+00	-3.30000000E+02
					-5.00000000E+00	-5.00000000E+00	-3.30000000E+02
					-5.00000000E+00	 5.00000000E+00	-3.30000000E+02
					 5.00000000E+00	 5.00000000E+00	-3.30000000E+02
					 0.00000000E+00	-5.00000000E+00	-3.30000000E+02
					-5.00000000E+00	 0.00000000E+00	-3.30000000E+02
					 0.00000000E+00	 5.00000000E+00	-3.30000000E+02
					 5.00000000E+00	 0.00000000E+00	-3.30000000E+02

				</DataArray>
			</Points>
			<Cells>
				<DataArray type="Int32" Name="connectivity" format="ascii">
					0 12 13 1 3 15 14 2 8 16 9 4 11 18 10 6 7 19 17 5 20 32 33 21 23 35 34 22 28 36 29 24 31 38 30 26 27 39 37 25 
				</DataArray>
				<DataArray type="Int32" Name="offsets" format="ascii">
					20 40 
				</DataArray>
				<DataArray type="UInt8" Name="types" format="ascii">
					25 25 
				</DataArray>
			</Cells>
			<PointData>
				<DataArray type="Float32" Name="U" NumberOfComponents="3" ComponentName0="D1" ComponentName1="D2" ComponentName2="D3" format="ascii">
					-6.12300000E-01	 1.72443000E-07	-2.39752000E+00
					 6.12300000E-01	 1.72443000E-07	 2.39752000E+00
					 6.12300000E-01	-1.72443000E-07	 2.39752000E+00
					-6.12300000E-01	-1.72443000E-07	-2.39752000E+00
					 0.00000000E+00	 1.72443000E-07	 0.00000000E+00
					 6.12300000E-01	 0.00000000E+00	 2.39752000E+00
					 0.00000000E+00	-1.72443000E-07	 0.00000000E+00
					-6.12300000E-01	 0.00000000E+00	-2.39752000E+00
					-7.80483000E+00	 1.64657000E-07	-5.60619000E-01
					-6.58024000E+00	 1.64657000E-07	 4.23440000E+00
					-6.58024000E+00	-1.64657000E-07	 4.23440000E+00
					-7.80483000E+00	-1.64657000E-07	-5.60619000E-01
					-1.49973000E+01	 1.56876000E-07	 1.27626000E+00
					-1.37728000E+01	 1.56876000E-07	 6.07127000E+00
					-1.37728000E+01	-1.56876000E-07	 6.07127000E+00
					-1.49973000E+01	-1.56876000E-07	 1.27626000E+00
					-1.43850000E+01	 1.56876000E-07	 3.67377000E+00
					-1.37728000E+01	 0.00000000E+00	 6.07127000E+00
					-1.43850000E+01	-1.56876000E-07	 3.67377000E+00
					-1.49973000E+01	 0.00000000E+00	 1.27626000E+00
					-1.43965000E+01	 1.92095000E-07	 4.01162000E+00
					-1.43736000E+01	 1.92095000E-07	 3.33591000E+00
					-1.43736000E+01	-1.92095000E-07	 3.33591000E+00
					-1.43965000E+01	-1.92095000E-07	 4.01162000E+00
					-1.43850000E+01	 1.92095000E-07	 3.67377000E+00
					-1.43736000E+01	 0.00000000E+00	 3.33591000E+00
					-1.43850000E+01	-1.92095000E-07	 3.67377000E+00
					-1.43965000E+01	 0.00000000E+00	 4.01162000E+00
					-4.26116000E+00	 9.57306000E-08	 4.35439000E+00
					-4.23831000E+00	 9.57306000E-08	 3.67873000E+00
					-4.23831000E+00	-9.57306000E-08	 3.67873000E+00
					-4.26116000E+00	-9.57306000E-08	 4.35439000E+00
					 5.87344000E+00	 0.00000000E+00	 4.69712000E+00
					 5.89629000E+00	 0.00000000E+00	 4.02150000E+00
					 5.89629000E+00	 0.00000000E+00	 4.02150000E+00
					 5.87344000E+00	 0.00000000E+00	 4.69712000E+00
					 5.88486000E+00	 0.00000000E+00	 4.35931000E+00
					 5.89629000E+00	 0.00000000E+00	 4.02150000E+00
					 5.88486000E+00	 0.00000000E+00	 4.35931000E+00
					 5.87344000E+00	 0.00000000E+00	 4.69712000E+00
				</DataArray>
			</PointData>
		</Piece>
	</UnstructuredGrid>
</VTKFile>