    1C
    1UUSER                                                              
    1UDATE              01.august.2019                                  
    1UTIME              09:25:11                                        
    1UHOST                                                              
    1UPGM               CalculiX                                        
    1UVERSION           Version 2.15                             
    1UCOMPILETIME       Fri 15 Mar 11:57:46 CET 2019                    
    1UDIR                                                               
    1UDBN                                                               
    1UMAT    1WATER                                                     
    2C                            12                                     1
 -1         1 0.00000E+00 0.00000E+00 0.00000E+00
 -1         2 1.00000E+00 1.00000E+00 0.00000E+00
 -1         3 1.00000E+00-1.00000E+00 0.00000E+00
 -1         4-5.00000E-01 0.00000E+00 0.00000E+00
 -1         5 5.00000E-01 5.00000E-01 0.00000E+00
 -1         6 5.00000E-01-5.00000E-01 0.00000E+00
 -1         7 1.50000E+00 1.00000E+00 0.00000E+00
 -1         8 1.50000E+00-1.00000E+00 0.00000E+00
 -1         9 5.00000E-01 0.00000E+00 0.00000E+00
 -1        10 1.00000E+00 0.00000E+00 0.00000E+00
 -1        11 1.50000E+00 0.00000E+00 0.00000E+00
 -1        12 0.00000E+00 0.00000E+00 0.00000E+00
 -3
    3C                             7                                     1
 -1         1   11    0    1
 -2         4         1
 -1         2   12    0    1
 -2         1         2         5
 -1         3   12    0    1
 -2         1         3         6
 -1         4   11    0    1
 -2         2         7
 -1         5   11    0    1
 -2         3         8
 -1         6   12    0    1
 -2         1        10         9
 -1         7   11    0    1
 -2        10        11
 -3
 9999
