<?xml version="1.0"?>
<VTKFile type="UnstructuredGrid" version="0.1" byte_order="LittleEndian">
	<UnstructuredGrid>
		<Piece NumberOfPoints="8" NumberOfCells="1">
			<Points>
				<DataArray type="Float64" NumberOfComponents="3" format="ascii">
					 1.00000000E+00	 0.00000000E+00	-5.00000000E-03
					 1.00000000E+00	 0.00000000E+00	 5.00000000E-03
					 0.00000000E+00	 0.00000000E+00	-5.00000000E-03
					 0.00000000E+00	 0.00000000E+00	 5.00000000E-03
					 0.00000000E+00	 1.00000000E+00	-5.00000000E-03
					 0.00000000E+00	 1.00000000E+00	 5.00000000E-03
					 1.00000000E+00	 1.00000000E+00	-5.00000000E-03
					 1.00000000E+00	 1.00000000E+00	 5.00000000E-03

				</DataArray>
			</Points>
			<Cells>
				<DataArray type="Int32" Name="connectivity" format="ascii">
					0 6 4 2 1 7 5 3 
				</DataArray>
				<DataArray type="Int32" Name="offsets" format="ascii">
					8 
				</DataArray>
				<DataArray type="UInt8" Name="types" format="ascii">
					12 
				</DataArray>
			</Cells>
			<PointData>
				<DataArray type="Float32" Name="U" NumberOfComponents="3" ComponentName0="D1" ComponentName1="D2" ComponentName2="D3" format="ascii">
					 0.00000000E+00	 0.00000000E+00	 0.00000000E+00
					 0.00000000E+00	 0.00000000E+00	 0.00000000E+00
					 1.85714000E-04	 0.00000000E+00	 0.00000000E+00
					 1.85714000E-04	 0.00000000E+00	 0.00000000E+00
					 1.85714000E-04	 4.33333000E-04	 0.00000000E+00
					 1.85714000E-04	 4.33333000E-04	 0.00000000E+00
					 0.00000000E+00	 4.33333000E-04	 0.00000000E+00
					 0.00000000E+00	 4.33333000E-04	 0.00000000E+00
				</DataArray>
				<DataArray type="Float32" Name="S" NumberOfComponents="10" ComponentName0="xx" ComponentName1="yy" ComponentName2="zz" ComponentName3="xy" ComponentName4="yz" ComponentName5="zx" ComponentName6="Mises" ComponentName7="Min Principal" ComponentName8="Mid Principal" ComponentName9="Max Principal" format="ascii">
					 0.00000000E+00	 9.99960000E+01	 2.99988000E+01	 0.00000000E+00	 0.00000000E+00	 0.00000000E+00	 8.88783889E+01	 0.00000000E+00	 2.99988000E+01	 9.99960000E+01
					 0.00000000E+00	 9.99960000E+01	 2.99988000E+01	 0.00000000E+00	 0.00000000E+00	 0.00000000E+00	 8.88783889E+01	 0.00000000E+00	 2.99988000E+01	 9.99960000E+01
					 0.00000000E+00	 9.99960000E+01	 2.99988000E+01	 0.00000000E+00	 0.00000000E+00	 0.00000000E+00	 8.88783889E+01	 0.00000000E+00	 2.99988000E+01	 9.99960000E+01
					 0.00000000E+00	 9.99960000E+01	 2.99988000E+01	 0.00000000E+00	 0.00000000E+00	 0.00000000E+00	 8.88783889E+01	 0.00000000E+00	 2.99988000E+01	 9.99960000E+01
					 0.00000000E+00	 9.99960000E+01	 2.99988000E+01	 0.00000000E+00	 0.00000000E+00	 0.00000000E+00	 8.88783889E+01	 0.00000000E+00	 2.99988000E+01	 9.99960000E+01
					 0.00000000E+00	 9.99960000E+01	 2.99988000E+01	 0.00000000E+00	 0.00000000E+00	 0.00000000E+00	 8.88783889E+01	 0.00000000E+00	 2.99988000E+01	 9.99960000E+01
					 0.00000000E+00	 9.99960000E+01	 2.99988000E+01	 0.00000000E+00	 0.00000000E+00	 0.00000000E+00	 8.88783889E+01	 0.00000000E+00	 2.99988000E+01	 9.99960000E+01
					 0.00000000E+00	 9.99960000E+01	 2.99988000E+01	 0.00000000E+00	 0.00000000E+00	 0.00000000E+00	 8.88783889E+01	 0.00000000E+00	 2.99988000E+01	 9.99960000E+01
				</DataArray>
				<DataArray type="Float32" Name="RF" NumberOfComponents="3" ComponentName0="F1" ComponentName1="F2" ComponentName2="F3" format="ascii">
					 0.00000000E+00	-2.50000000E-01	-7.50000000E+00
					 0.00000000E+00	-2.50000000E-01	 7.50000000E+00
					 0.00000000E+00	-2.50000000E-01	-7.50000000E+00
					 0.00000000E+00	-2.50000000E-01	 7.50000000E+00
					 0.00000000E+00	 2.50000000E-01	-7.50000000E+00
					 0.00000000E+00	 2.50000000E-01	 7.50000000E+00
					 0.00000000E+00	 2.50000000E-01	-7.50000000E+00
					 0.00000000E+00	 2.50000000E-01	 7.50000000E+00
				</DataArray>
			</PointData>
		</Piece>
	</UnstructuredGrid>
</VTKFile>