    1C
    1UUSER                                                              
    1UDATE              01.august.2019                                  
    1UTIME              09:38:42                                        
    1UHOST                                                              
    1UPGM               CalculiX                                        
    1UVERSION           Version 2.15                             
    1UCOMPILETIME       Fri 15 Mar 11:57:46 CET 2019                    
    1UDIR                                                               
    1UDBN                                                               
    1UMAT    1STEEL                                                     
    1UMAT    2IN1                                                       
    2C                            16                                     1
 -1         1 1.81225E+02 4.00000E+00 0.00000E+00
 -1         2 1.81225E+02 0.00000E+00 0.00000E+00
 -1         3 1.85050E+02 0.00000E+00 0.00000E+00
 -1         4 1.85050E+02 4.00000E+00 0.00000E+00
 -1         5 1.81225E+02 2.00000E+00 0.00000E+00
 -1         6 1.83137E+02 0.00000E+00 0.00000E+00
 -1         7 1.85050E+02 2.00000E+00 0.00000E+00
 -1         8 1.83137E+02 4.00000E+00 0.00000E+00
 -1         9 1.81225E+02 0.00000E+00 0.00000E+00
 -1        10 1.81225E+02-4.00000E+00 0.00000E+00
 -1        11 1.85050E+02-4.00000E+00 0.00000E+00
 -1        12 1.85050E+02 0.00000E+00 0.00000E+00
 -1        13 1.81225E+02-2.00000E+00 0.00000E+00
 -1        14 1.83137E+02-4.00000E+00 0.00000E+00
 -1        15 1.85050E+02-2.00000E+00 0.00000E+00
 -1        16 1.83137E+02 0.00000E+00 0.00000E+00
 -3
    3C                             2                                     1
 -1         1   10    0    1
 -2         1         2         3         4         5         6         7         8
 -1         2   10    0    1
 -2         9        10        11        12        13        14        15        16
 -3
    1PSTEP                         1           1           1          
  100CL  101 6.25000E-06          16                     0    1           1
 -4  DISP        4    1
 -5  D1          1    2    1    0
 -5  D2          1    2    2    0
 -5  D3          1    2    3    0
 -5  ALL         1    2    0    0    1ALL
 -1         1 0.00000E+00-1.37892E-07 2.84343E-25
 -1         2 2.09558E-08-1.73320E-07-5.42837E-25
 -1         3-2.09558E-08-1.73320E-07-2.06795E-25
 -1         4 0.00000E+00-1.37892E-07-2.84343E-25
 -1         5-9.84611E-09-1.53947E-07 2.74779E-23
 -1         6 1.23180E-21-1.34601E-07-2.24373E-23
 -1         7 9.84611E-09-1.53947E-07-1.07986E-23
 -1         8 0.00000E+00-1.59454E-07 2.07829E-23
 -1         9-3.32235E-08-1.60362E-07 0.00000E+00
 -1        10 0.00000E+00 0.00000E+00 0.00000E+00
 -1        11 0.00000E+00 0.00000E+00 0.00000E+00
 -1        12 3.32235E-08-1.60362E-07-2.06795E-25
 -1        13-1.66935E-08-7.75513E-08-7.44463E-24
 -1        14 0.00000E+00 0.00000E+00 9.09899E-24
 -1        15 1.66935E-08-7.75513E-08 1.65436E-24
 -1        16-3.26543E-22-1.29867E-07-7.85822E-24
 -3
    1PSTEP                         2           1           1          
  100CL  101 6.25000E-06          16                     0    1           1
 -4  FORC        4    1
 -5  F1          1    2    1    0
 -5  F2          1    2    2    0
 -5  F3          1    2    3    0
 -5  ALL         1    2    0    0    1ALL
 -1         1 0.00000E+00 5.49533E-14 0.00000E+00
 -1         2 0.00000E+00 0.00000E+00 0.00000E+00
 -1         3 0.00000E+00 0.00000E+00 0.00000E+00
 -1         4 0.00000E+00 5.49637E-14 0.00000E+00
 -1         5 0.00000E+00 0.00000E+00 0.00000E+00
 -1         6 0.00000E+00 0.00000E+00 0.00000E+00
 -1         7 0.00000E+00 0.00000E+00 0.00000E+00
 -1         8 0.00000E+00-1.65299E-13 0.00000E+00
 -1         9 0.00000E+00 0.00000E+00 0.00000E+00
 -1        10 0.00000E+00 0.00000E+00 0.00000E+00
 -1        11 0.00000E+00 0.00000E+00 0.00000E+00
 -1        12 0.00000E+00 0.00000E+00 0.00000E+00
 -1        13 0.00000E+00 0.00000E+00 0.00000E+00
 -1        14 0.00000E+00 0.00000E+00 0.00000E+00
 -1        15 0.00000E+00 0.00000E+00 0.00000E+00
 -1        16 0.00000E+00 0.00000E+00 0.00000E+00
 -3
