# vtk DataFile Version 3.0

ASCII
DATASET UNSTRUCTURED_GRID

POINTS 16 double
	 1.81225000E+02	 4.00000000E+00	 0.00000000E+00
	 1.81225000E+02	 0.00000000E+00	 0.00000000E+00
	 1.85050000E+02	 0.00000000E+00	 0.00000000E+00
	 1.85050000E+02	 4.00000000E+00	 0.00000000E+00
	 1.81225000E+02	 2.00000000E+00	 0.00000000E+00
	 1.83137000E+02	 0.00000000E+00	 0.00000000E+00
	 1.85050000E+02	 2.00000000E+00	 0.00000000E+00
	 1.83137000E+02	 4.00000000E+00	 0.00000000E+00
	 1.81225000E+02	 0.00000000E+00	 0.00000000E+00
	 1.81225000E+02	-4.00000000E+00	 0.00000000E+00
	 1.85050000E+02	-4.00000000E+00	 0.00000000E+00
	 1.85050000E+02	 0.00000000E+00	 0.00000000E+00
	 1.81225000E+02	-2.00000000E+00	 0.00000000E+00
	 1.83137000E+02	-4.00000000E+00	 0.00000000E+00
	 1.85050000E+02	-2.00000000E+00	 0.00000000E+00
	 1.83137000E+02	 0.00000000E+00	 0.00000000E+00

CELLS 2 18
	8 0 1 2 3 4 5 6 7 
	8 8 9 10 11 12 13 14 15 

CELL_TYPES 2
	23
	23

POINT_DATA 16
FIELD U 1
	U 3 16 double
		 0.00000000E+00	-1.37892000E-07	 0.00000000E+00
		 2.09558000E-08	-1.73320000E-07	 0.00000000E+00
		-2.09558000E-08	-1.73320000E-07	 0.00000000E+00
		 0.00000000E+00	-1.37892000E-07	 0.00000000E+00
		-9.84611000E-09	-1.53947000E-07	 0.00000000E+00
		 0.00000000E+00	-1.34601000E-07	 0.00000000E+00
		 9.84611000E-09	-1.53947000E-07	 0.00000000E+00
		 0.00000000E+00	-1.59454000E-07	 0.00000000E+00
		-3.32235000E-08	-1.60362000E-07	 0.00000000E+00
		 0.00000000E+00	 0.00000000E+00	 0.00000000E+00
		 0.00000000E+00	 0.00000000E+00	 0.00000000E+00
		 3.32235000E-08	-1.60362000E-07	 0.00000000E+00
		-1.66935000E-08	-7.75513000E-08	 0.00000000E+00
		 0.00000000E+00	 0.00000000E+00	 0.00000000E+00
		 1.66935000E-08	-7.75513000E-08	 0.00000000E+00
		 0.00000000E+00	-1.29867000E-07	 0.00000000E+00
FIELD RF 1
	RF 3 16 double
		 0.00000000E+00	 0.00000000E+00	 0.00000000E+00
		 0.00000000E+00	 0.00000000E+00	 0.00000000E+00
		 0.00000000E+00	 0.00000000E+00	 0.00000000E+00
		 0.00000000E+00	 0.00000000E+00	 0.00000000E+00
		 0.00000000E+00	 0.00000000E+00	 0.00000000E+00
		 0.00000000E+00	 0.00000000E+00	 0.00000000E+00
		 0.00000000E+00	 0.00000000E+00	 0.00000000E+00
		 0.00000000E+00	 0.00000000E+00	 0.00000000E+00
		 0.00000000E+00	 0.00000000E+00	 0.00000000E+00
		 0.00000000E+00	 0.00000000E+00	 0.00000000E+00
		 0.00000000E+00	 0.00000000E+00	 0.00000000E+00
		 0.00000000E+00	 0.00000000E+00	 0.00000000E+00
		 0.00000000E+00	 0.00000000E+00	 0.00000000E+00
		 0.00000000E+00	 0.00000000E+00	 0.00000000E+00
		 0.00000000E+00	 0.00000000E+00	 0.00000000E+00
		 0.00000000E+00	 0.00000000E+00	 0.00000000E+00
