<?xml version="1.0"?>
<VTKFile type="UnstructuredGrid" version="0.1" byte_order="LittleEndian">
	<UnstructuredGrid>
		<Piece NumberOfPoints="16" NumberOfCells="2">
			<Points>
				<DataArray type="Float64" NumberOfComponents="3" format="ascii">
					 1.81225000E+02	 4.00000000E+00	 0.00000000E+00
					 1.81225000E+02	 0.00000000E+00	 0.00000000E+00
					 1.85050000E+02	 0.00000000E+00	 0.00000000E+00
					 1.85050000E+02	 4.00000000E+00	 0.00000000E+00
					 1.81225000E+02	 2.00000000E+00	 0.00000000E+00
					 1.83137000E+02	 0.00000000E+00	 0.00000000E+00
					 1.85050000E+02	 2.00000000E+00	 0.00000000E+00
					 1.83137000E+02	 4.00000000E+00	 0.00000000E+00
					 1.81225000E+02	 0.00000000E+00	 0.00000000E+00
					 1.81225000E+02	-4.00000000E+00	 0.00000000E+00
					 1.85050000E+02	-4.00000000E+00	 0.00000000E+00
					 1.85050000E+02	 0.00000000E+00	 0.00000000E+00
					 1.81225000E+02	-2.00000000E+00	 0.00000000E+00
					 1.83137000E+02	-4.00000000E+00	 0.00000000E+00
					 1.85050000E+02	-2.00000000E+00	 0.00000000E+00
					 1.83137000E+02	 0.00000000E+00	 0.00000000E+00

				</DataArray>
			</Points>
			<Cells>
				<DataArray type="Int32" Name="connectivity" format="ascii">
					0 1 2 3 4 5 6 7 8 9 10 11 12 13 14 15 
				</DataArray>
				<DataArray type="Int32" Name="offsets" format="ascii">
					8 16 
				</DataArray>
				<DataArray type="UInt8" Name="types" format="ascii">
					23 23 
				</DataArray>
			</Cells>
			<PointData>
				<DataArray type="Float32" Name="U" NumberOfComponents="3" ComponentName0="D1" ComponentName1="D2" ComponentName2="D3" format="ascii">
					 0.00000000E+00	-1.37892000E-07	 0.00000000E+00
					 2.09558000E-08	-1.73320000E-07	 0.00000000E+00
					-2.09558000E-08	-1.73320000E-07	 0.00000000E+00
					 0.00000000E+00	-1.37892000E-07	 0.00000000E+00
					-9.84611000E-09	-1.53947000E-07	 0.00000000E+00
					 0.00000000E+00	-1.34601000E-07	 0.00000000E+00
					 9.84611000E-09	-1.53947000E-07	 0.00000000E+00
					 0.00000000E+00	-1.59454000E-07	 0.00000000E+00
					-3.32235000E-08	-1.60362000E-07	 0.00000000E+00
					 0.00000000E+00	 0.00000000E+00	 0.00000000E+00
					 0.00000000E+00	 0.00000000E+00	 0.00000000E+00
					 3.32235000E-08	-1.60362000E-07	 0.00000000E+00
					-1.66935000E-08	-7.75513000E-08	 0.00000000E+00
					 0.00000000E+00	 0.00000000E+00	 0.00000000E+00
					 1.66935000E-08	-7.75513000E-08	 0.00000000E+00
					 0.00000000E+00	-1.29867000E-07	 0.00000000E+00
				</DataArray>
				<DataArray type="Float32" Name="RF" NumberOfComponents="3" ComponentName0="F1" ComponentName1="F2" ComponentName2="F3" format="ascii">
					 0.00000000E+00	 0.00000000E+00	 0.00000000E+00
					 0.00000000E+00	 0.00000000E+00	 0.00000000E+00
					 0.00000000E+00	 0.00000000E+00	 0.00000000E+00
					 0.00000000E+00	 0.00000000E+00	 0.00000000E+00
					 0.00000000E+00	 0.00000000E+00	 0.00000000E+00
					 0.00000000E+00	 0.00000000E+00	 0.00000000E+00
					 0.00000000E+00	 0.00000000E+00	 0.00000000E+00
					 0.00000000E+00	 0.00000000E+00	 0.00000000E+00
					 0.00000000E+00	 0.00000000E+00	 0.00000000E+00
					 0.00000000E+00	 0.00000000E+00	 0.00000000E+00
					 0.00000000E+00	 0.00000000E+00	 0.00000000E+00
					 0.00000000E+00	 0.00000000E+00	 0.00000000E+00
					 0.00000000E+00	 0.00000000E+00	 0.00000000E+00
					 0.00000000E+00	 0.00000000E+00	 0.00000000E+00
					 0.00000000E+00	 0.00000000E+00	 0.00000000E+00
					 0.00000000E+00	 0.00000000E+00	 0.00000000E+00
				</DataArray>
			</PointData>
		</Piece>
	</UnstructuredGrid>
</VTKFile>