    1C
    1UUSER                                                              
    1UDATE              01.august.2019                                  
    1UTIME              09:38:49                                        
    1UHOST                                                              
    1UPGM               CalculiX                                        
    1UVERSION           Version 2.15                             
    1UCOMPILETIME       Fri 15 Mar 11:57:46 CET 2019                    
    1UDIR                                                               
    1UDBN                                                               
    1UMAT    1EL                                                        
    1UMAT    2SI1                                                       
    2C                           461                                     1
 -1         1 1.00000E+00 1.00000E+00 4.00000E+00
 -1         2 5.00000E-01 1.00000E+00 4.00000E+00
 -1         3 5.00000E-01 1.00000E+00 3.00000E+00
 -1         4 1.00000E+00 1.00000E+00 3.00000E+00
 -1         5 1.00000E+00 5.00000E-01 4.00000E+00
 -1         6 5.00000E-01 5.00000E-01 4.00000E+00
 -1         7 5.00000E-01 5.00000E-01 3.00000E+00
 -1         8 1.00000E+00 5.00000E-01 3.00000E+00
 -1         9 7.50000E-01 1.00000E+00 4.00000E+00
 -1        10 5.00000E-01 1.00000E+00 3.50000E+00
 -1        11 7.50000E-01 1.00000E+00 3.00000E+00
 -1        12 1.00000E+00 1.00000E+00 3.50000E+00
 -1        13 1.00000E+00 7.50000E-01 4.00000E+00
 -1        14 5.00000E-01 7.50000E-01 4.00000E+00
 -1        15 5.00000E-01 7.50000E-01 3.00000E+00
 -1        16 1.00000E+00 7.50000E-01 3.00000E+00
 -1        17 7.50000E-01 5.00000E-01 4.00000E+00
 -1        18 5.00000E-01 5.00000E-01 3.50000E+00
 -1        19 7.50000E-01 5.00000E-01 3.00000E+00
 -1        20 1.00000E+00 5.00000E-01 3.50000E+00
 -1        21 5.00000E-01 1.00000E+00 2.00000E+00
 -1        22 1.00000E+00 1.00000E+00 2.00000E+00
 -1        23 5.00000E-01 5.00000E-01 2.00000E+00
 -1        24 1.00000E+00 5.00000E-01 2.00000E+00
 -1        25 5.00000E-01 1.00000E+00 2.50000E+00
 -1        26 7.50000E-01 1.00000E+00 2.00000E+00
 -1        27 1.00000E+00 1.00000E+00 2.50000E+00
 -1        28 5.00000E-01 7.50000E-01 2.00000E+00
 -1        29 1.00000E+00 7.50000E-01 2.00000E+00
 -1        30 5.00000E-01 5.00000E-01 2.50000E+00
 -1        31 7.50000E-01 5.00000E-01 2.00000E+00
 -1        32 1.00000E+00 5.00000E-01 2.50000E+00
 -1        33 5.00000E-01 1.00000E+00 1.00000E+00
 -1        34 1.00000E+00 1.00000E+00 1.00000E+00
 -1        35 5.00000E-01 5.00000E-01 1.00000E+00
 -1        36 1.00000E+00 5.00000E-01 1.00000E+00
 -1        37 5.00000E-01 1.00000E+00 1.50000E+00
 -1        38 7.50000E-01 1.00000E+00 1.00000E+00
 -1        39 1.00000E+00 1.00000E+00 1.50000E+00
 -1        40 5.00000E-01 7.50000E-01 1.00000E+00
 -1        41 1.00000E+00 7.50000E-01 1.00000E+00
 -1        42 5.00000E-01 5.00000E-01 1.50000E+00
 -1        43 7.50000E-01 5.00000E-01 1.00000E+00
 -1        44 1.00000E+00 5.00000E-01 1.50000E+00
 -1        45 5.00000E-01 1.00000E+00 0.00000E+00
 -1        46 1.00000E+00 1.00000E+00 0.00000E+00
 -1        47 5.00000E-01 5.00000E-01-1.77636E-15
 -1        48 1.00000E+00 5.00000E-01 0.00000E+00
 -1        49 5.00000E-01 1.00000E+00 5.00000E-01
 -1        50 7.50000E-01 1.00000E+00 0.00000E+00
 -1        51 1.00000E+00 1.00000E+00 5.00000E-01
 -1        52 5.00000E-01 7.50000E-01-1.77636E-15
 -1        53 1.00000E+00 7.50000E-01 0.00000E+00
 -1        54 5.00000E-01 5.00000E-01 5.00000E-01
 -1        55 7.50000E-01 5.00000E-01-1.77636E-15
 -1        56 1.00000E+00 5.00000E-01 5.00000E-01
 -1        57 1.00000E+00 0.00000E+00 4.00000E+00
 -1        58 5.00000E-01 0.00000E+00 4.00000E+00
 -1        59 5.00000E-01-2.22045E-16 3.00000E+00
 -1        60 1.00000E+00 0.00000E+00 3.00000E+00
 -1        61 1.00000E+00 2.50000E-01 4.00000E+00
 -1        62 5.00000E-01 2.50000E-01 4.00000E+00
 -1        63 5.00000E-01 2.50000E-01 3.00000E+00
 -1        64 1.00000E+00 2.50000E-01 3.00000E+00
 -1        65 7.50000E-01 0.00000E+00 4.00000E+00
 -1        66 5.00000E-01 1.11022E-16 3.50000E+00
 -1        67 7.50000E-01 0.00000E+00 3.00000E+00
 -1        68 1.00000E+00 0.00000E+00 3.50000E+00
 -1        69 5.00000E-01-2.22045E-16 2.00000E+00
 -1        70 1.00000E+00 0.00000E+00 2.00000E+00
 -1        71 5.00000E-01 2.50000E-01 2.00000E+00
 -1        72 1.00000E+00 2.50000E-01 2.00000E+00
 -1        73 5.00000E-01-2.22045E-16 2.50000E+00
 -1        74 7.50000E-01 0.00000E+00 2.00000E+00
 -1        75 1.00000E+00 0.00000E+00 2.50000E+00
 -1        76 5.00000E-01-1.11022E-16 1.00000E+00
 -1        77 1.00000E+00 0.00000E+00 1.00000E+00
 -1        78 5.00000E-01 2.50000E-01 1.00000E+00
 -1        79 1.00000E+00 2.50000E-01 1.00000E+00
 -1        80 5.00000E-01-1.11022E-16 1.50000E+00
 -1        81 7.50000E-01-1.11022E-16 1.00000E+00
 -1        82 1.00000E+00 0.00000E+00 1.50000E+00
 -1        83 5.00000E-01 0.00000E+00 0.00000E+00
 -1        84 1.00000E+00 0.00000E+00 0.00000E+00
 -1        85 5.00000E-01 2.50000E-01 4.44089E-16
 -1        86 1.00000E+00 2.50000E-01 0.00000E+00
 -1        87 5.00000E-01 1.11022E-16 5.00000E-01
 -1        88 7.50000E-01 0.00000E+00 0.00000E+00
 -1        89 1.00000E+00 0.00000E+00 5.00000E-01
 -1        90 0.00000E+00 1.00000E+00 4.00000E+00
 -1        91 0.00000E+00 1.00000E+00 3.00000E+00
 -1        92 0.00000E+00 5.00000E-01 4.00000E+00
 -1        93-2.22045E-16 5.00000E-01 3.00000E+00
 -1        94 2.50000E-01 1.00000E+00 4.00000E+00
 -1        95 0.00000E+00 1.00000E+00 3.50000E+00
 -1        96 2.50000E-01 1.00000E+00 3.00000E+00
 -1        97 0.00000E+00 7.50000E-01 4.00000E+00
 -1        98 0.00000E+00 7.50000E-01 3.00000E+00
 -1        99 2.50000E-01 5.00000E-01 4.00000E+00
 -1       100 1.11022E-16 5.00000E-01 3.50000E+00
 -1       101 2.50000E-01 5.00000E-01 3.00000E+00
 -1       102 0.00000E+00 1.00000E+00 2.00000E+00
 -1       103-2.22045E-16 5.00000E-01 2.00000E+00
 -1       104 0.00000E+00 1.00000E+00 2.50000E+00
 -1       105 2.50000E-01 1.00000E+00 2.00000E+00
 -1       106-2.22045E-16 7.50000E-01 2.00000E+00
 -1       107-2.22045E-16 5.00000E-01 2.50000E+00
 -1       108 2.50000E-01 5.00000E-01 2.00000E+00
 -1       109 0.00000E+00 1.00000E+00 1.00000E+00
 -1       110-1.11022E-16 5.00000E-01 1.00000E+00
 -1       111 0.00000E+00 1.00000E+00 1.50000E+00
 -1       112 2.50000E-01 1.00000E+00 1.00000E+00
 -1       113 0.00000E+00 7.50000E-01 1.00000E+00
 -1       114-1.11022E-16 5.00000E-01 1.50000E+00
 -1       115 2.50000E-01 5.00000E-01 1.00000E+00
 -1       116 0.00000E+00 1.00000E+00 0.00000E+00
 -1       117 0.00000E+00 5.00000E-01 0.00000E+00
 -1       118 0.00000E+00 1.00000E+00 5.00000E-01
 -1       119 2.50000E-01 1.00000E+00 0.00000E+00
 -1       120 0.00000E+00 7.50000E-01 0.00000E+00
 -1       121 1.11022E-16 5.00000E-01 5.00000E-01
 -1       122 2.50000E-01 5.00000E-01 0.00000E+00
 -1       123 0.00000E+00 0.00000E+00 4.00000E+00
 -1       124 0.00000E+00 0.00000E+00 3.00000E+00
 -1       125 0.00000E+00 2.50000E-01 4.00000E+00
 -1       126 0.00000E+00 2.50000E-01 3.00000E+00
 -1       127 2.50000E-01 0.00000E+00 4.00000E+00
 -1       128 0.00000E+00 0.00000E+00 3.50000E+00
 -1       129 2.50000E-01 0.00000E+00 3.00000E+00
 -1       130 0.00000E+00 0.00000E+00 2.00000E+00
 -1       131 0.00000E+00 2.50000E-01 2.00000E+00
 -1       132 0.00000E+00 0.00000E+00 2.50000E+00
 -1       133 2.50000E-01-2.22045E-16 2.00000E+00
 -1       134 0.00000E+00 0.00000E+00 1.00000E+00
 -1       135-1.11022E-16 2.50000E-01 1.00000E+00
 -1       136 0.00000E+00 0.00000E+00 1.50000E+00
 -1       137 2.50000E-01 0.00000E+00 1.00000E+00
 -1       138 0.00000E+00 0.00000E+00 0.00000E+00
 -1       139 0.00000E+00 2.50000E-01 0.00000E+00
 -1       140 0.00000E+00 0.00000E+00 5.00000E-01
 -1       141 2.50000E-01 0.00000E+00 0.00000E+00
 -1       142 1.00000E+00 1.00000E+00 8.00000E+00
 -1       143 6.66667E-01 1.00000E+00 8.00000E+00
 -1       144 6.66667E-01 1.00000E+00 7.20000E+00
 -1       145 1.00000E+00 1.00000E+00 7.20000E+00
 -1       146 1.00000E+00 6.66667E-01 8.00000E+00
 -1       147 6.66667E-01 6.66667E-01 8.00000E+00
 -1       148 6.66667E-01 6.66667E-01 7.20000E+00
 -1       149 1.00000E+00 6.66667E-01 7.20000E+00
 -1       150 8.33333E-01 1.00000E+00 8.00000E+00
 -1       151 6.66667E-01 1.00000E+00 7.60000E+00
 -1       152 8.33333E-01 1.00000E+00 7.20000E+00
 -1       153 1.00000E+00 1.00000E+00 7.60000E+00
 -1       154 1.00000E+00 8.33333E-01 8.00000E+00
 -1       155 6.66667E-01 8.33333E-01 8.00000E+00
 -1       156 6.66667E-01 8.33333E-01 7.20000E+00
 -1       157 1.00000E+00 8.33333E-01 7.20000E+00
 -1       158 8.33333E-01 6.66667E-01 8.00000E+00
 -1       159 6.66667E-01 6.66667E-01 7.60000E+00
 -1       160 8.33333E-01 6.66667E-01 7.20000E+00
 -1       161 1.00000E+00 6.66667E-01 7.60000E+00
 -1       162 6.66667E-01 1.00000E+00 6.40000E+00
 -1       163 1.00000E+00 1.00000E+00 6.40000E+00
 -1       164 6.66667E-01 6.66667E-01 6.40000E+00
 -1       165 1.00000E+00 6.66667E-01 6.40000E+00
 -1       166 6.66667E-01 1.00000E+00 6.80000E+00
 -1       167 8.33333E-01 1.00000E+00 6.40000E+00
 -1       168 1.00000E+00 1.00000E+00 6.80000E+00
 -1       169 6.66667E-01 8.33333E-01 6.40000E+00
 -1       170 1.00000E+00 8.33333E-01 6.40000E+00
 -1       171 6.66667E-01 6.66667E-01 6.80000E+00
 -1       172 8.33333E-01 6.66667E-01 6.40000E+00
 -1       173 1.00000E+00 6.66667E-01 6.80000E+00
 -1       174 6.66667E-01 1.00000E+00 5.60000E+00
 -1       175 1.00000E+00 1.00000E+00 5.60000E+00
 -1       176 6.66667E-01 6.66667E-01 5.60000E+00
 -1       177 1.00000E+00 6.66667E-01 5.60000E+00
 -1       178 6.66667E-01 1.00000E+00 6.00000E+00
 -1       179 8.33333E-01 1.00000E+00 5.60000E+00
 -1       180 1.00000E+00 1.00000E+00 6.00000E+00
 -1       181 6.66667E-01 8.33333E-01 5.60000E+00
 -1       182 1.00000E+00 8.33333E-01 5.60000E+00
 -1       183 6.66667E-01 6.66667E-01 6.00000E+00
 -1       184 8.33333E-01 6.66667E-01 5.60000E+00
 -1       185 1.00000E+00 6.66667E-01 6.00000E+00
 -1       186 6.66667E-01 1.00000E+00 4.80000E+00
 -1       187 1.00000E+00 1.00000E+00 4.80000E+00
 -1       188 6.66667E-01 6.66667E-01 4.80000E+00
 -1       189 1.00000E+00 6.66667E-01 4.80000E+00
 -1       190 6.66667E-01 1.00000E+00 5.20000E+00
 -1       191 8.33333E-01 1.00000E+00 4.80000E+00
 -1       192 1.00000E+00 1.00000E+00 5.20000E+00
 -1       193 6.66667E-01 8.33333E-01 4.80000E+00
 -1       194 1.00000E+00 8.33333E-01 4.80000E+00
 -1       195 6.66667E-01 6.66667E-01 5.20000E+00
 -1       196 8.33333E-01 6.66667E-01 4.80000E+00
 -1       197 1.00000E+00 6.66667E-01 5.20000E+00
 -1       198 6.66667E-01 1.00000E+00 4.00000E+00
 -1       199 1.00000E+00 1.00000E+00 4.00000E+00
 -1       200 6.66667E-01 6.66667E-01 4.00000E+00
 -1       201 1.00000E+00 6.66667E-01 4.00000E+00
 -1       202 6.66667E-01 1.00000E+00 4.40000E+00
 -1       203 8.33333E-01 1.00000E+00 4.00000E+00
 -1       204 1.00000E+00 1.00000E+00 4.40000E+00
 -1       205 6.66667E-01 8.33333E-01 4.00000E+00
 -1       206 1.00000E+00 8.33333E-01 4.00000E+00
 -1       207 6.66667E-01 6.66667E-01 4.40000E+00
 -1       208 8.33333E-01 6.66667E-01 4.00000E+00
 -1       209 1.00000E+00 6.66667E-01 4.40000E+00
 -1       210 1.00000E+00 3.33333E-01 8.00000E+00
 -1       211 6.66667E-01 3.33333E-01 8.00000E+00
 -1       212 6.66667E-01 3.33333E-01 7.20000E+00
 -1       213 1.00000E+00 3.33333E-01 7.20000E+00
 -1       214 1.00000E+00 5.00000E-01 8.00000E+00
 -1       215 6.66667E-01 5.00000E-01 8.00000E+00
 -1       216 6.66667E-01 5.00000E-01 7.20000E+00
 -1       217 1.00000E+00 5.00000E-01 7.20000E+00
 -1       218 8.33333E-01 3.33333E-01 8.00000E+00
 -1       219 6.66667E-01 3.33333E-01 7.60000E+00
 -1       220 8.33333E-01 3.33333E-01 7.20000E+00
 -1       221 1.00000E+00 3.33333E-01 7.60000E+00
 -1       222 6.66667E-01 3.33333E-01 6.40000E+00
 -1       223 1.00000E+00 3.33333E-01 6.40000E+00
 -1       224 6.66667E-01 5.00000E-01 6.40000E+00
 -1       225 1.00000E+00 5.00000E-01 6.40000E+00
 -1       226 6.66667E-01 3.33333E-01 6.80000E+00
 -1       227 8.33333E-01 3.33333E-01 6.40000E+00
 -1       228 1.00000E+00 3.33333E-01 6.80000E+00
 -1       229 6.66667E-01 3.33333E-01 5.60000E+00
 -1       230 1.00000E+00 3.33333E-01 5.60000E+00
 -1       231 6.66667E-01 5.00000E-01 5.60000E+00
 -1       232 1.00000E+00 5.00000E-01 5.60000E+00
 -1       233 6.66667E-01 3.33333E-01 6.00000E+00
 -1       234 8.33333E-01 3.33333E-01 5.60000E+00
 -1       235 1.00000E+00 3.33333E-01 6.00000E+00
 -1       236 6.66667E-01 3.33333E-01 4.80000E+00
 -1       237 1.00000E+00 3.33333E-01 4.80000E+00
 -1       238 6.66667E-01 5.00000E-01 4.80000E+00
 -1       239 1.00000E+00 5.00000E-01 4.80000E+00
 -1       240 6.66667E-01 3.33333E-01 5.20000E+00
 -1       241 8.33333E-01 3.33333E-01 4.80000E+00
 -1       242 1.00000E+00 3.33333E-01 5.20000E+00
 -1       243 6.66667E-01 3.33333E-01 4.00000E+00
 -1       244 1.00000E+00 3.33333E-01 4.00000E+00
 -1       245 6.66667E-01 5.00000E-01 4.00000E+00
 -1       246 1.00000E+00 5.00000E-01 4.00000E+00
 -1       247 6.66667E-01 3.33333E-01 4.40000E+00
 -1       248 8.33333E-01 3.33333E-01 4.00000E+00
 -1       249 1.00000E+00 3.33333E-01 4.40000E+00
 -1       250 1.00000E+00 0.00000E+00 8.00000E+00
 -1       251 6.66667E-01 0.00000E+00 8.00000E+00
 -1       252 6.66667E-01 1.11022E-16 7.20000E+00
 -1       253 1.00000E+00 0.00000E+00 7.20000E+00
 -1       254 1.00000E+00 1.66667E-01 8.00000E+00
 -1       255 6.66667E-01 1.66667E-01 8.00000E+00
 -1       256 6.66667E-01 1.66667E-01 7.20000E+00
 -1       257 1.00000E+00 1.66667E-01 7.20000E+00
 -1       258 8.33333E-01 0.00000E+00 8.00000E+00
 -1       259 6.66667E-01 0.00000E+00 7.60000E+00
 -1       260 8.33333E-01-2.22045E-16 7.20000E+00
 -1       261 1.00000E+00 0.00000E+00 7.60000E+00
 -1       262 6.66667E-01 5.55112E-17 6.40000E+00
 -1       263 1.00000E+00 0.00000E+00 6.40000E+00
 -1       264 6.66667E-01 1.66667E-01 6.40000E+00
 -1       265 1.00000E+00 1.66667E-01 6.40000E+00
 -1       266 6.66667E-01-2.22045E-16 6.80000E+00
 -1       267 8.33333E-01-1.11022E-16 6.40000E+00
 -1       268 1.00000E+00 0.00000E+00 6.80000E+00
 -1       269 6.66667E-01-1.11022E-16 5.60000E+00
 -1       270 1.00000E+00 0.00000E+00 5.60000E+00
 -1       271 6.66667E-01 1.66667E-01 5.60000E+00
 -1       272 1.00000E+00 1.66667E-01 5.60000E+00
 -1       273 6.66667E-01-2.22045E-16 6.00000E+00
 -1       274 8.33333E-01-1.11022E-16 5.60000E+00
 -1       275 1.00000E+00 0.00000E+00 6.00000E+00
 -1       276 6.66667E-01 5.55112E-17 4.80000E+00
 -1       277 1.00000E+00 0.00000E+00 4.80000E+00
 -1       278 6.66667E-01 1.66667E-01 4.80000E+00
 -1       279 1.00000E+00 1.66667E-01 4.80000E+00
 -1       280 6.66667E-01 1.11022E-16 5.20000E+00
 -1       281 8.33333E-01 0.00000E+00 4.80000E+00
 -1       282 1.00000E+00 0.00000E+00 5.20000E+00
 -1       283 6.66667E-01 0.00000E+00 4.00000E+00
 -1       284 1.00000E+00 0.00000E+00 4.00000E+00
 -1       285 6.66667E-01 1.66667E-01 4.00000E+00
 -1       286 1.00000E+00 1.66667E-01 4.00000E+00
 -1       287 6.66667E-01-2.22045E-16 4.40000E+00
 -1       288 8.33333E-01 0.00000E+00 4.00000E+00
 -1       289 1.00000E+00 0.00000E+00 4.40000E+00
 -1       290 3.33333E-01 1.00000E+00 8.00000E+00
 -1       291 3.33333E-01 1.00000E+00 7.20000E+00
 -1       292 3.33333E-01 6.66667E-01 8.00000E+00
 -1       293 3.33333E-01 6.66667E-01 7.20000E+00
 -1       294 5.00000E-01 1.00000E+00 8.00000E+00
 -1       295 3.33333E-01 1.00000E+00 7.60000E+00
 -1       296 5.00000E-01 1.00000E+00 7.20000E+00
 -1       297 3.33333E-01 8.33333E-01 8.00000E+00
 -1       298 3.33333E-01 8.33333E-01 7.20000E+00
 -1       299 5.00000E-01 6.66667E-01 8.00000E+00
 -1       300 3.33333E-01 6.66667E-01 7.60000E+00
 -1       301 5.00000E-01 6.66667E-01 7.20000E+00
 -1       302 3.33333E-01 1.00000E+00 6.40000E+00
 -1       303 3.33333E-01 6.66667E-01 6.40000E+00
 -1       304 3.33333E-01 1.00000E+00 6.80000E+00
 -1       305 5.00000E-01 1.00000E+00 6.40000E+00
 -1       306 3.33333E-01 8.33333E-01 6.40000E+00
 -1       307 3.33333E-01 6.66667E-01 6.80000E+00
 -1       308 5.00000E-01 6.66667E-01 6.40000E+00
 -1       309 3.33333E-01 1.00000E+00 5.60000E+00
 -1       310 3.33333E-01 6.66667E-01 5.60000E+00
 -1       311 3.33333E-01 1.00000E+00 6.00000E+00
 -1       312 5.00000E-01 1.00000E+00 5.60000E+00
 -1       313 3.33333E-01 8.33333E-01 5.60000E+00
 -1       314 3.33333E-01 6.66667E-01 6.00000E+00
 -1       315 5.00000E-01 6.66667E-01 5.60000E+00
 -1       316 3.33333E-01 1.00000E+00 4.80000E+00
 -1       317 3.33333E-01 6.66667E-01 4.80000E+00
 -1       318 3.33333E-01 1.00000E+00 5.20000E+00
 -1       319 5.00000E-01 1.00000E+00 4.80000E+00
 -1       320 3.33333E-01 8.33333E-01 4.80000E+00
 -1       321 3.33333E-01 6.66667E-01 5.20000E+00
 -1       322 5.00000E-01 6.66667E-01 4.80000E+00
 -1       323 3.33333E-01 1.00000E+00 4.00000E+00
 -1       324 3.33333E-01 6.66667E-01 4.00000E+00
 -1       325 3.33333E-01 1.00000E+00 4.40000E+00
 -1       326 5.00000E-01 1.00000E+00 4.00000E+00
 -1       327 3.33333E-01 8.33333E-01 4.00000E+00
 -1       328 3.33333E-01 6.66667E-01 4.40000E+00
 -1       329 5.00000E-01 6.66667E-01 4.00000E+00
 -1       330 3.33333E-01 3.33333E-01 8.00000E+00
 -1       331 3.33333E-01 3.33333E-01 7.20000E+00
 -1       332 3.33333E-01 5.00000E-01 8.00000E+00
 -1       333 3.33333E-01 5.00000E-01 7.20000E+00
 -1       334 5.00000E-01 3.33333E-01 8.00000E+00
 -1       335 3.33333E-01 3.33333E-01 7.60000E+00
 -1       336 5.00000E-01 3.33333E-01 7.20000E+00
 -1       337 3.33333E-01 3.33333E-01 6.40000E+00
 -1       338 3.33333E-01 5.00000E-01 6.40000E+00
 -1       339 3.33333E-01 3.33333E-01 6.80000E+00
 -1       340 5.00000E-01 3.33333E-01 6.40000E+00
 -1       341 3.33333E-01 3.33333E-01 5.60000E+00
 -1       342 3.33333E-01 5.00000E-01 5.60000E+00
 -1       343 3.33333E-01 3.33333E-01 6.00000E+00
 -1       344 5.00000E-01 3.33333E-01 5.60000E+00
 -1       345 3.33333E-01 3.33333E-01 4.80000E+00
 -1       346 3.33333E-01 5.00000E-01 4.80000E+00
 -1       347 3.33333E-01 3.33333E-01 5.20000E+00
 -1       348 5.00000E-01 3.33333E-01 4.80000E+00
 -1       349 3.33333E-01 3.33333E-01 4.00000E+00
 -1       350 3.33333E-01 5.00000E-01 4.00000E+00
 -1       351 3.33333E-01 3.33333E-01 4.40000E+00
 -1       352 5.00000E-01 3.33333E-01 4.00000E+00
 -1       353 3.33333E-01 0.00000E+00 8.00000E+00
 -1       354 3.33333E-01 5.55112E-17 7.20000E+00
 -1       355 3.33333E-01 1.66667E-01 8.00000E+00
 -1       356 3.33333E-01 1.66667E-01 7.20000E+00
 -1       357 5.00000E-01 0.00000E+00 8.00000E+00
 -1       358 3.33333E-01 0.00000E+00 7.60000E+00
 -1       359 5.00000E-01 1.11022E-16 7.20000E+00
 -1       360 3.33333E-01 0.00000E+00 6.40000E+00
 -1       361 3.33333E-01 1.66667E-01 6.40000E+00
 -1       362 3.33333E-01 0.00000E+00 6.80000E+00
 -1       363 5.00000E-01 0.00000E+00 6.40000E+00
 -1       364 3.33333E-01 0.00000E+00 5.60000E+00
 -1       365 3.33333E-01 1.66667E-01 5.60000E+00
 -1       366 3.33333E-01-1.11022E-16 6.00000E+00
 -1       367 5.00000E-01-1.11022E-16 5.60000E+00
 -1       368 3.33333E-01 0.00000E+00 4.80000E+00
 -1       369 3.33333E-01 1.66667E-01 4.80000E+00
 -1       370 3.33333E-01 0.00000E+00 5.20000E+00
 -1       371 5.00000E-01-1.11022E-16 4.80000E+00
 -1       372 3.33333E-01 0.00000E+00 4.00000E+00
 -1       373 3.33333E-01 1.66667E-01 4.00000E+00
 -1       374 3.33333E-01 0.00000E+00 4.40000E+00
 -1       375 5.00000E-01 0.00000E+00 4.00000E+00
 -1       376 0.00000E+00 1.00000E+00 8.00000E+00
 -1       377 0.00000E+00 1.00000E+00 7.20000E+00
 -1       378 0.00000E+00 6.66667E-01 8.00000E+00
 -1       379 5.55112E-17 6.66667E-01 7.20000E+00
 -1       380 1.66667E-01 1.00000E+00 8.00000E+00
 -1       381 0.00000E+00 1.00000E+00 7.60000E+00
 -1       382 1.66667E-01 1.00000E+00 7.20000E+00
 -1       383 0.00000E+00 8.33333E-01 8.00000E+00
 -1       384-1.11022E-16 8.33333E-01 7.20000E+00
 -1       385 1.66667E-01 6.66667E-01 8.00000E+00
 -1       386 0.00000E+00 6.66667E-01 7.60000E+00
 -1       387 1.66667E-01 6.66667E-01 7.20000E+00
 -1       388 0.00000E+00 1.00000E+00 6.40000E+00
 -1       389 0.00000E+00 6.66667E-01 6.40000E+00
 -1       390 0.00000E+00 1.00000E+00 6.80000E+00
 -1       391 1.66667E-01 1.00000E+00 6.40000E+00
 -1       392-1.11022E-16 8.33333E-01 6.40000E+00
 -1       393 0.00000E+00 6.66667E-01 6.80000E+00
 -1       394 1.66667E-01 6.66667E-01 6.40000E+00
 -1       395 0.00000E+00 1.00000E+00 5.60000E+00
 -1       396 0.00000E+00 6.66667E-01 5.60000E+00
 -1       397 0.00000E+00 1.00000E+00 6.00000E+00
 -1       398 1.66667E-01 1.00000E+00 5.60000E+00
 -1       399 0.00000E+00 8.33333E-01 5.60000E+00
 -1       400-1.11022E-16 6.66667E-01 6.00000E+00
 -1       401 1.66667E-01 6.66667E-01 5.60000E+00
 -1       402 0.00000E+00 1.00000E+00 4.80000E+00
 -1       403 0.00000E+00 6.66667E-01 4.80000E+00
 -1       404 0.00000E+00 1.00000E+00 5.20000E+00
 -1       405 1.66667E-01 1.00000E+00 4.80000E+00
 -1       406 0.00000E+00 8.33333E-01 4.80000E+00
 -1       407 0.00000E+00 6.66667E-01 5.20000E+00
 -1       408 1.66667E-01 6.66667E-01 4.80000E+00
 -1       409 0.00000E+00 1.00000E+00 4.00000E+00
 -1       410 0.00000E+00 6.66667E-01 4.00000E+00
 -1       411 0.00000E+00 1.00000E+00 4.40000E+00
 -1       412 1.66667E-01 1.00000E+00 4.00000E+00
 -1       413 0.00000E+00 8.33333E-01 4.00000E+00
 -1       414 0.00000E+00 6.66667E-01 4.40000E+00
 -1       415 1.66667E-01 6.66667E-01 4.00000E+00
 -1       416 0.00000E+00 3.33333E-01 8.00000E+00
 -1       417 1.11022E-16 3.33333E-01 7.20000E+00
 -1       418 0.00000E+00 5.00000E-01 8.00000E+00
 -1       419 1.11022E-16 5.00000E-01 7.20000E+00
 -1       420 1.66667E-01 3.33333E-01 8.00000E+00
 -1       421 0.00000E+00 3.33333E-01 7.60000E+00
 -1       422 1.66667E-01 3.33333E-01 7.20000E+00
 -1       423 5.55112E-17 3.33333E-01 6.40000E+00
 -1       424 0.00000E+00 5.00000E-01 6.40000E+00
 -1       425-2.22045E-16 3.33333E-01 6.80000E+00
 -1       426 1.66667E-01 3.33333E-01 6.40000E+00
 -1       427-1.11022E-16 3.33333E-01 5.60000E+00
 -1       428-1.11022E-16 5.00000E-01 5.60000E+00
 -1       429-2.22045E-16 3.33333E-01 6.00000E+00
 -1       430 1.66667E-01 3.33333E-01 5.60000E+00
 -1       431 5.55112E-17 3.33333E-01 4.80000E+00
 -1       432-1.11022E-16 5.00000E-01 4.80000E+00
 -1       433 1.11022E-16 3.33333E-01 5.20000E+00
 -1       434 1.66667E-01 3.33333E-01 4.80000E+00
 -1       435 0.00000E+00 3.33333E-01 4.00000E+00
 -1       436 0.00000E+00 5.00000E-01 4.00000E+00
 -1       437-2.22045E-16 3.33333E-01 4.40000E+00
 -1       438 1.66667E-01 3.33333E-01 4.00000E+00
 -1       439 0.00000E+00 0.00000E+00 8.00000E+00
 -1       440 0.00000E+00 0.00000E+00 7.20000E+00
 -1       441 0.00000E+00 1.66667E-01 8.00000E+00
 -1       442-2.22045E-16 1.66667E-01 7.20000E+00
 -1       443 1.66667E-01 0.00000E+00 8.00000E+00
 -1       444 0.00000E+00 0.00000E+00 7.60000E+00
 -1       445 1.66667E-01-1.11022E-16 7.20000E+00
 -1       446 0.00000E+00 0.00000E+00 6.40000E+00
 -1       447-1.11022E-16 1.66667E-01 6.40000E+00
 -1       448 0.00000E+00 0.00000E+00 6.80000E+00
 -1       449 1.66667E-01-1.11022E-16 6.40000E+00
 -1       450 0.00000E+00 0.00000E+00 5.60000E+00
 -1       451-1.11022E-16 1.66667E-01 5.60000E+00
 -1       452 0.00000E+00 0.00000E+00 6.00000E+00
 -1       453 1.66667E-01 0.00000E+00 5.60000E+00
 -1       454 0.00000E+00 0.00000E+00 4.80000E+00
 -1       455 0.00000E+00 1.66667E-01 4.80000E+00
 -1       456 0.00000E+00 0.00000E+00 5.20000E+00
 -1       457 1.66667E-01 0.00000E+00 4.80000E+00
 -1       458 0.00000E+00 0.00000E+00 4.00000E+00
 -1       459 0.00000E+00 1.66667E-01 4.00000E+00
 -1       460 0.00000E+00 0.00000E+00 4.40000E+00
 -1       461 1.66667E-01 0.00000E+00 4.00000E+00
 -3
    3C                            61                                     1
 -1         1    4    0    1
 -2         1         2         3         4         5         6         7         8         9        10
 -2        11        12        13        14        15        16        17        18        19        20
 -1         2    4    0    1
 -2         4         3        21        22         8         7        23        24        11        25
 -2        26        27        16        15        28        29        19        30        31        32
 -1         3    4    0    1
 -2        22        21        33        34        24        23        35        36        26        37
 -2        38        39        29        28        40        41        31        42        43        44
 -1         4    4    0    1
 -2        34        33        45        46        36        35        47        48        38        49
 -2        50        51        41        40        52        53        43        54        55        56
 -1         5    4    0    1
 -2         5         6         7         8        57        58        59        60        17        18
 -2        19        20        61        62        63        64        65        66        67        68
 -1         6    4    0    1
 -2         8         7        23        24        60        59        69        70        19        30
 -2        31        32        64        63        71        72        67        73        74        75
 -1         7    4    0    1
 -2        24        23        35        36        70        69        76        77        31        42
 -2        43        44        72        71        78        79        74        80        81        82
 -1         8    4    0    1
 -2        36        35        47        48        77        76        83        84        43        54
 -2        55        56        79        78        85        86        81        87        88        89
 -1         9    4    0    1
 -2         2        90        91         3         6        92        93         7        94        95
 -2        96        10        14        97        98        15        99       100       101        18
 -1        10    4    0    1
 -2         3        91       102        21         7        93       103        23        96       104
 -2       105        25        15        98       106        28       101       107       108        30
 -1        11    4    0    1
 -2        21       102       109        33        23       103       110        35       105       111
 -2       112        37        28       106       113        40       108       114       115        42
 -1        12    4    0    1
 -2        33       109       116        45        35       110       117        47       112       118
 -2       119        49        40       113       120        52       115       121       122        54
 -1        13    4    0    1
 -2         6        92        93         7        58       123       124        59        99       100
 -2       101        18        62       125       126        63       127       128       129        66
 -1        14    4    0    1
 -2         7        93       103        23        59       124       130        69       101       107
 -2       108        30        63       126       131        71       129       132       133        73
 -1        15    4    0    1
 -2        23       103       110        35        69       130       134        76       108       114
 -2       115        42        71       131       135        78       133       136       137        80
 -1        16    4    0    1
 -2        35       110       117        47        76       134       138        83       115       121
 -2       122        54        78       135       139        85       137       140       141        87
 -1        17    4    0    1
 -2       142       143       144       145       146       147       148       149       150       151
 -2       152       153       154       155       156       157       158       159       160       161
 -1        18    4    0    1
 -2       145       144       162       163       149       148       164       165       152       166
 -2       167       168       157       156       169       170       160       171       172       173
 -1        19    4    0    1
 -2       163       162       174       175       165       164       176       177       167       178
 -2       179       180       170       169       181       182       172       183       184       185
 -1        20    4    0    1
 -2       175       174       186       187       177       176       188       189       179       190
 -2       191       192       182       181       193       194       184       195       196       197
 -1        21    4    0    1
 -2       187       186       198       199       189       188       200       201       191       202
 -2       203       204       194       193       205       206       196       207       208       209
 -1        22    4    0    1
 -2       146       147       148       149       210       211       212       213       158       159
 -2       160       161       214       215       216       217       218       219       220       221
 -1        23    4    0    1
 -2       149       148       164       165       213       212       222       223       160       171
 -2       172       173       217       216       224       225       220       226       227       228
 -1        24    4    0    1
 -2       165       164       176       177       223       222       229       230       172       183
 -2       184       185       225       224       231       232       227       233       234       235
 -1        25    4    0    1
 -2       177       176       188       189       230       229       236       237       184       195
 -2       196       197       232       231       238       239       234       240       241       242
 -1        26    4    0    1