<?xml version="1.0"?>
<VTKFile type="UnstructuredGrid" version="0.1" byte_order="LittleEndian">
	<UnstructuredGrid>
		<Piece NumberOfPoints="168" NumberOfCells="14">
			<Points>
				<DataArray type="Float64" NumberOfComponents="3" format="ascii">
					 2.50000000E-01	 3.00000000E-01	 0.00000000E+00
					 2.50000000E-01	 0.00000000E+00	 0.00000000E+00
					 2.50000000E-01	 0.00000000E+00	 3.00000000E-01
					 2.50000000E-01	 3.00000000E-01	 3.00000000E-01
					 0.00000000E+00	 3.00000000E-01	 0.00000000E+00
					 0.00000000E+00	 0.00000000E+00	 0.00000000E+00
					 0.00000000E+00	 0.00000000E+00	 3.00000000E-01
					 0.00000000E+00	 3.00000000E-01	 3.00000000E-01
					 2.50000000E-01	 1.50000000E-01	 0.00000000E+00
					 2.50000000E-01	 0.00000000E+00	 1.50000000E-01
					 2.50000000E-01	 1.50000000E-01	 3.00000000E-01
					 2.50000000E-01	 3.00000000E-01	 1.50000000E-01
					 1.25000000E-01	 3.00000000E-01	 0.00000000E+00
					 1.25000000E-01	 0.00000000E+00	 0.00000000E+00
					 1.25000000E-01	 0.00000000E+00	 3.00000000E-01
					 1.25000000E-01	 3.00000000E-01	 3.00000000E-01
					 0.00000000E+00	 1.50000000E-01	 0.00000000E+00
					 0.00000000E+00	 0.00000000E+00	 1.50000000E-01
					 0.00000000E+00	 1.50000000E-01	 3.00000000E-01
					 0.00000000E+00	 3.00000000E-01	 1.50000000E-01
					 7.50000000E-01	 3.00000000E-01	 0.00000000E+00
					 7.50000000E-01	 0.00000000E+00	 0.00000000E+00
					 7.50000000E-01	 0.00000000E+00	 3.00000000E-01
					 7.50000000E-01	 3.00000000E-01	 3.00000000E-01
					 7.50000000E-01	 1.50000000E-01	 0.00000000E+00
					 7.50000000E-01	 0.00000000E+00	 1.50000000E-01
					 7.50000000E-01	 1.50000000E-01	 3.00000000E-01
					 7.50000000E-01	 3.00000000E-01	 1.50000000E-01
					 5.00000000E-01	 3.00000000E-01	 0.00000000E+00
					 5.00000000E-01	 0.00000000E+00	 0.00000000E+00
					 5.00000000E-01	 0.00000000E+00	 3.00000000E-01
					 5.00000000E-01	 3.00000000E-01	 3.00000000E-01
					 1.00000000E+00	 3.00000000E-01	 0.00000000E+00
					 1.00000000E+00	 0.00000000E+00	 0.00000000E+00
					 1.00000000E+00	 0.00000000E+00	 3.00000000E-01
					 1.00000000E+00	 3.00000000E-01	 3.00000000E-01
					 1.00000000E+00	 1.50000000E-01	 0.00000000E+00
					 1.00000000E+00	 0.00000000E+00	 1.50000000E-01
					 1.00000000E+00	 1.50000000E-01	 3.00000000E-01
					 1.00000000E+00	 3.00000000E-01	 1.50000000E-01
					 8.75000000E-01	 3.00000000E-01	 0.00000000E+00
					 8.75000000E-01	 0.00000000E+00	 0.00000000E+00
					 8.75000000E-01	 0.00000000E+00	 3.00000000E-01
					 8.75000000E-01	 3.00000000E-01	 3.00000000E-01
					 2.50000000E-01	 3.50000000E-01	 0.00000000E+00
					 2.50000000E-01	 3.50000000E-01	 3.00000000E-01
					 0.00000000E+00	 3.50000000E-01	 0.00000000E+00
					 0.00000000E+00	 3.50000000E-01	 3.00000000E-01
					 2.50000000E-01	 3.25000000E-01	 0.00000000E+00
					 2.50000000E-01	 3.25000000E-01	 3.00000000E-01
					 2.50000000E-01	 3.50000000E-01	 1.50000000E-01
					 1.25000000E-01	 3.50000000E-01	 0.00000000E+00
					 1.25000000E-01	 3.50000000E-01	 3.00000000E-01
					 0.00000000E+00	 3.25000000E-01	 0.00000000E+00
					 0.00000000E+00	 3.25000000E-01	 3.00000000E-01
					 0.00000000E+00	 3.50000000E-01	 1.50000000E-01
					 1.00000000E+00	 3.50000000E-01	 0.00000000E+00
					 1.00000000E+00	 3.50000000E-01	 3.00000000E-01
					 7.50000000E-01	 3.50000000E-01	 0.00000000E+00
					 7.50000000E-01	 3.50000000E-01	 3.00000000E-01
					 1.00000000E+00	 3.25000000E-01	 0.00000000E+00
					 1.00000000E+00	 3.25000000E-01	 3.00000000E-01
					 1.00000000E+00	 3.50000000E-01	 1.50000000E-01
					 8.75000000E-01	 3.50000000E-01	 0.00000000E+00
					 8.75000000E-01	 3.50000000E-01	 3.00000000E-01
					 7.50000000E-01	 3.25000000E-01	 0.00000000E+00
					 7.50000000E-01	 3.25000000E-01	 3.00000000E-01
					 7.50000000E-01	 3.50000000E-01	 1.50000000E-01
					 2.50000000E-01	 6.50000000E-01	 0.00000000E+00
					 2.50000000E-01	 6.50000000E-01	 3.00000000E-01
					 0.00000000E+00	 6.50000000E-01	 0.00000000E+00
					 0.00000000E+00	 6.50000000E-01	 3.00000000E-01
					 2.50000000E-01	 5.00000000E-01	 0.00000000E+00
					 2.50000000E-01	 5.00000000E-01	 3.00000000E-01
					 2.50000000E-01	 6.50000000E-01	 1.50000000E-01
					 1.25000000E-01	 6.50000000E-01	 0.00000000E+00
					 1.25000000E-01	 6.50000000E-01	 3.00000000E-01
					 0.00000000E+00	 5.00000000E-01	 0.00000000E+00
					 0.00000000E+00	 5.00000000E-01	 3.00000000E-01
					 0.00000000E+00	 6.50000000E-01	 1.50000000E-01
					 7.50000000E-01	 6.50000000E-01	 0.00000000E+00
					 7.50000000E-01	 6.50000000E-01	 3.00000000E-01
					 5.00000000E-01	 6.50000000E-01	 0.00000000E+00
					 5.00000000E-01	 3.50000000E-01	 0.00000000E+00
					 5.00000000E-01	 3.50000000E-01	 3.00000000E-01
					 5.00000000E-01	 6.50000000E-01	 3.00000000E-01
					 7.50000000E-01	 5.00000000E-01	 0.00000000E+00
					 7.50000000E-01	 5.00000000E-01	 3.00000000E-01
					 7.50000000E-01	 6.50000000E-01	 1.50000000E-01
					 6.25000000E-01	 6.50000000E-01	 0.00000000E+00
					 6.25000000E-01	 3.50000000E-01	 0.00000000E+00
					 6.25000000E-01	 3.50000000E-01	 3.00000000E-01
					 6.25000000E-01	 6.50000000E-01	 3.00000000E-01
					 5.00000000E-01	 5.00000000E-01	 0.00000000E+00
					 5.00000000E-01	 3.50000000E-01	 1.50000000E-01
					 5.00000000E-01	 5.00000000E-01	 3.00000000E-01
					 5.00000000E-01	 6.50000000E-01	 1.50000000E-01
					 3.75000000E-01	 6.50000000E-01	 0.00000000E+00
					 3.75000000E-01	 3.50000000E-01	 0.00000000E+00
					 3.75000000E-01	 3.50000000E-01	 3.00000000E-01
					 3.75000000E-01	 6.50000000E-01	 3.00000000E-01
					 1.00000000E+00	 6.50000000E-01	 0.00000000E+00
					 1.00000000E+00	 6.50000000E-01	 3.00000000E-01
					 1.00000000E+00	 5.00000000E-01	 0.00000000E+00
					 1.00000000E+00	 5.00000000E-01	 3.00000000E-01
					 1.00000000E+00	 6.50000000E-01	 1.50000000E-01
					 8.75000000E-01	 6.50000000E-01	 0.00000000E+00
					 8.75000000E-01	 6.50000000E-01	 3.00000000E-01
					 2.50000000E-01	 7.00000000E-01	 0.00000000E+00
					 2.50000000E-01	 7.00000000E-01	 3.00000000E-01
					 0.00000000E+00	 7.00000000E-01	 0.00000000E+00
					 0.00000000E+00	 7.00000000E-01	 3.00000000E-01
					 2.50000000E-01	 6.75000000E-01	 0.00000000E+00
					 2.50000000E-01	 6.75000000E-01	 3.00000000E-01
					 2.50000000E-01	 7.00000000E-01	 1.50000000E-01
					 1.25000000E-01	 7.00000000E-01	 0.00000000E+00
					 1.25000000E-01	 7.00000000E-01	 3.00000000E-01
					 0.00000000E+00	 6.75000000E-01	 0.00000000E+00
					 0.00000000E+00	 6.75000000E-01	 3.00000000E-01
					 0.00000000E+00	 7.00000000E-01	 1.50000000E-01
					 1.00000000E+00	 7.00000000E-01	 0.00000000E+00
					 1.00000000E+00	 7.00000000E-01	 3.00000000E-01
					 7.50000000E-01	 7.00000000E-01	 0.00000000E+00
					 7.50000000E-01	 7.00000000E-01	 3.00000000E-01
					 1.00000000E+00	 6.75000000E-01	 0.00000000E+00
					 1.00000000E+00	 6.75000000E-01	 3.00000000E-01
					 1.00000000E+00	 7.00000000E-01	 1.50000000E-01
					 8.75000000E-01	 7.00000000E-01	 0.00000000E+00
					 8.75000000E-01	 7.00000000E-01	 3.00000000E-01
					 7.50000000E-01	 6.75000000E-01	 0.00000000E+00
					 7.50000000E-01	 6.75000000E-01	 3.00000000E-01
					 7.50000000E-01	 7.00000000E-01	 1.50000000E-01
					 2.50000000E-01	 1.00000000E+00	 0.00000000E+00
					 2.50000000E-01	 1.00000000E+00	 3.00000000E-01
					 0.00000000E+00	 1.00000000E+00	 0.00000000E+00
					 0.00000000E+00	 1.00000000E+00	 3.00000000E-01
					 2.50000000E-01	 8.50000000E-01	 0.00000000E+00
					 2.50000000E-01	 8.50000000E-01	 3.00000000E-01
					 2.50000000E-01	 1.00000000E+00	 1.50000000E-01
					 1.25000000E-01	 1.00000000E+00	 0.00000000E+00
					 1.25000000E-01	 1.00000000E+00	 3.00000000E-01
					 0.00000000E+00	 8.50000000E-01	 0.00000000E+00
					 0.00000000E+00	 8.50000000E-01	 3.00000000E-01
					 0.00000000E+00	 1.00000000E+00	 1.50000000E-01
					 7.50000000E-01	 1.00000000E+00	 0.00000000E+00
					 7.50000000E-01	 1.00000000E+00	 3.00000000E-01
					 7.50000000E-01	 8.50000000E-01	 0.00000000E+00
					 7.50000000E-01	 8.50000000E-01	 3.00000000E-01
					 7.50000000E-01	 1.00000000E+00	 1.50000000E-01
					 5.00000000E-01	 1.00000000E+00	 0.00000000E+00
					 5.00000000E-01	 7.00000000E-01	 0.00000000E+00
					 5.00000000E-01	 7.00000000E-01	 3.00000000E-01
					 5.00000000E-01	 1.00000000E+00	 3.00000000E-01
					 1.00000000E+00	 1.00000000E+00	 0.00000000E+00
					 1.00000000E+00	 1.00000000E+00	 3.00000000E-01
					 1.00000000E+00	 8.50000000E-01	 0.00000000E+00
					 1.00000000E+00	 8.50000000E-01	 3.00000000E-01
					 1.00000000E+00	 1.00000000E+00	 1.50000000E-01
					 8.75000000E-01	 1.00000000E+00	 0.00000000E+00
					 8.75000000E-01	 1.00000000E+00	 3.00000000E-01
					 5.00000000E-01	 6.50000000E-01	 0.00000000E+00
					 5.00000000E-01	 3.50000000E-01	 0.00000000E+00
					 5.00000000E-01	 3.50000000E-01	 3.00000000E-01
					 5.00000000E-01	 6.50000000E-01	 3.00000000E-01
					 5.00000000E-01	 5.00000000E-01	 0.00000000E+00
					 5.00000000E-01	 3.50000000E-01	 1.50000000E-01
					 5.00000000E-01	 5.00000000E-01	 3.00000000E-01
					 5.00000000E-01	 6.50000000E-01	 1.50000000E-01

				</DataArray>
			</Points>
			<Cells>
				<DataArray type="Int32" Name="connectivity" format="ascii">
					0 1 2 3 4 5 6 7 8 9 10 11 16 17 18 19 12 13 14 15 20 21 22 23 0 1 2 3 24 25 26 27 8 9 10 11 28 29 30 31 32 33 34 35 20 21 22 23 36 37 38 39 24 25 26 27 40 41 42 43 44 0 3 45 46 4 7 47 48 11 49 50 53 19 54 55 51 12 15 52 56 32 35 57 58 20 23 59 60 39 61 62 65 27 66 67 63 40 43 64 68 44 45 69 70 46 47 71 72 50 73 74 77 55 78 79 75 51 52 76 80 58 59 81 160 161 162 163 86 67 87 88 164 165 166 167 89 90 91 92 82 83 84 85 68 44 45 69 93 94 95 96 72 50 73 74 97 98 99 100 101 56 57 102 80 58 59 81 103 62 104 105 86 67 87 88 106 63 64 107 108 68 69 109 110 70 71 111 112 74 113 114 117 79 118 119 115 75 76 116 120 101 102 121 122 80 81 123 124 105 125 126 129 88 130 131 127 106 107 128 132 108 109 133 134 110 111 135 136 114 137 138 141 119 142 143 139 115 116 140 144 122 123 145 132 108 109 133 146 131 147 148 136 114 137 138 149 150 151 152 153 120 121 154 144 122 123 145 155 126 156 157 146 131 147 148 158 127 128 159 
				</DataArray>
				<DataArray type="Int32" Name="offsets" format="ascii">
					20 40 60 80 100 120 140 160 180 200 220 240 260 280 
				</DataArray>
				<DataArray type="UInt8" Name="types" format="ascii">
					25 25 25 25 25 25 25 25 25 25 25 25 25 25 
				</DataArray>
			</Cells>
			<PointData>
				<DataArray type="Float32" Name="NT" NumberOfComponents="1" ComponentName0="T" format="ascii">
					 4.73000000E+02
					 4.73000000E+02
					 4.73000000E+02
					 4.73000000E+02
					 4.73000000E+02
					 4.73000000E+02
					 4.73000000E+02
					 4.73000000E+02
					 4.73000000E+02
					 4.73000000E+02
					 4.73000000E+02
					 4.73000000E+02
					 4.73000000E+02
					 4.73000000E+02
					 4.73000000E+02
					 4.73000000E+02
					 4.73000000E+02
					 4.73000000E+02
					 4.73000000E+02
					 4.73000000E+02
					 4.73000000E+02
					 4.73000000E+02
					 4.73000000E+02
					 4.73000000E+02
					 4.73000000E+02
					 4.73000000E+02
					 4.73000000E+02
					 4.73000000E+02
					 4.73000000E+02
					 4.73000000E+02
					 4.73000000E+02
					 4.73000000E+02
					 4.73000000E+02
					 4.73000000E+02
					 4.73000000E+02
					 4.73000000E+02
					 4.73000000E+02
					 4.73000000E+02
					 4.73000000E+02
					 4.73000000E+02
					 4.73000000E+02
					 4.73000000E+02
					 4.73000000E+02
					 4.73000000E+02
					 4.73000000E+02
					 4.73000000E+02
					 4.73000000E+02
					 4.73000000E+02
					 4.73000000E+02
					 4.73000000E+02
					 4.73000000E+02
					 4.73000000E+02
					 4.73000000E+02
					 4.73000000E+02
					 4.73000000E+02
					 4.73000000E+02
					 4.73000000E+02
					 4.73000000E+02
					 4.73000000E+02
					 4.73000000E+02
					 4.73000000E+02
					 4.73000000E+02
					 4.73000000E+02
					 4.73000000E+02
					 4.73000000E+02
					 4.73000000E+02
					 4.73000000E+02
					 4.73000000E+02
					 4.73000000E+02
					 4.73000000E+02
					 4.73000000E+02
					 4.73000000E+02
					 4.73000000E+02
					 4.73000000E+02
					 4.73000000E+02
					 4.73000000E+02
					 4.73000000E+02
					 4.73000000E+02
					 4.73000000E+02
					 4.73000000E+02
					 4.73000000E+02
					 4.73000000E+02
					 4.73000000E+02
					 4.73000000E+02
					 4.73000000E+02
					 4.73000000E+02
					 4.73000000E+02
					 4.73000000E+02
					 4.73000000E+02
					 4.73000000E+02
					 4.73000000E+02
					 4.73000000E+02
					 4.73000000E+02
					 4.73000000E+02
					 4.73000000E+02
					 4.73000000E+02
					 4.73000000E+02
					 4.73000000E+02
					 4.73000000E+02
					 4.73000000E+02
					 4.73000000E+02
					 4.73000000E+02
					 4.73000000E+02
					 4.73000000E+02
					 4.73000000E+02
					 4.73000000E+02
					 4.73000000E+02
					 4.73000000E+02
					 4.73000000E+02
					 4.73000000E+02
					 4.73000000E+02
					 4.73000000E+02
					 4.73000000E+02
					 4.73000000E+02
					 4.73000000E+02
					 4.73000000E+02
					 4.73000000E+02
					 4.73000000E+02
					 4.73000000E+02
					 4.73000000E+02
					 4.73000000E+02
					 4.73000000E+02
					 4.73000000E+02
					 4.73000000E+02
					 4.73000000E+02
					 4.73000000E+02
					 4.73000000E+02
					 4.73000000E+02
					 4.73000000E+02
					 4.73000000E+02
					 4.73000000E+02
					 4.73000000E+02
					 4.73000000E+02
					 4.73000000E+02
					 4.73000000E+02
					 4.73000000E+02
					 4.73000000E+02
					 4.73000000E+02
					 4.73000000E+02
					 4.73000000E+02
					 4.73000000E+02
					 4.73000000E+02
					 4.73000000E+02
					 4.73000000E+02
					 4.73000000E+02
					 4.73000000E+02
					 4.73000000E+02
					 4.73000000E+02
					 4.73000000E+02
					 4.73000000E+02
					 4.73000000E+02
					 4.73000000E+02
					 4.73000000E+02
					 4.73000000E+02
					 4.73000000E+02
					 4.73000000E+02
					 4.73000000E+02
					 4.73000000E+02
					 4.73000000E+02
					 4.73000000E+02
					 4.73000000E+02
					 4.73000000E+02
					 4.73000000E+02
					 4.73000000E+02
					 4.73000000E+02
					 4.73000000E+02
					 4.73000000E+02
					 4.73000000E+02
				</DataArray>
			</PointData>
		</Piece>
	</UnstructuredGrid>
</VTKFile>