<?xml version="1.0"?>
<VTKFile type="UnstructuredGrid" version="0.1" byte_order="LittleEndian">
	<UnstructuredGrid>
		<Piece NumberOfPoints="416" NumberOfCells="54">
			<Points>
				<DataArray type="Float64" NumberOfComponents="3" format="ascii">
					 0.00000000E+00	 0.00000000E+00	 1.00000000E+00
					 0.00000000E+00	 0.00000000E+00	 6.66667000E-01
					 0.00000000E+00	 3.33333000E-01	 6.66667000E-01
					 0.00000000E+00	 3.33333000E-01	 1.00000000E+00
					 3.33333000E-01	 0.00000000E+00	 1.00000000E+00
					 3.33333000E-01	 0.00000000E+00	 6.66667000E-01
					 3.33333000E-01	 3.33333000E-01	 6.66667000E-01
					 3.33333000E-01	 3.33333000E-01	 1.00000000E+00
					 0.00000000E+00	 0.00000000E+00	 8.33333000E-01
					 0.00000000E+00	 1.66667000E-01	 6.66667000E-01
					 0.00000000E+00	 3.33333000E-01	 8.33333000E-01
					 0.00000000E+00	 1.66667000E-01	 1.00000000E+00
					 1.66667000E-01	 0.00000000E+00	 1.00000000E+00
					 1.66667000E-01	 0.00000000E+00	 6.66667000E-01
					 1.66667000E-01	 3.33333000E-01	 6.66667000E-01
					 1.66667000E-01	 3.33333000E-01	 1.00000000E+00
					 3.33333000E-01	 0.00000000E+00	 8.33333000E-01
					 3.33333000E-01	 1.66667000E-01	 6.66667000E-01
					 3.33333000E-01	 3.33333000E-01	 8.33333000E-01
					 3.33333000E-01	 1.66667000E-01	 1.00000000E+00
					 0.00000000E+00	 6.66667000E-01	 6.66667000E-01
					 0.00000000E+00	 6.66667000E-01	 1.00000000E+00
					 3.33333000E-01	 6.66667000E-01	 6.66667000E-01
					 3.33333000E-01	 6.66667000E-01	 1.00000000E+00
					 0.00000000E+00	 5.00000000E-01	 6.66667000E-01
					 0.00000000E+00	 6.66667000E-01	 8.33333000E-01
					 0.00000000E+00	 5.00000000E-01	 1.00000000E+00
					 1.66667000E-01	 6.66667000E-01	 6.66667000E-01
					 1.66667000E-01	 6.66667000E-01	 1.00000000E+00
					 3.33333000E-01	 5.00000000E-01	 6.66667000E-01
					 3.33333000E-01	 6.66667000E-01	 8.33333000E-01
					 3.33333000E-01	 5.00000000E-01	 1.00000000E+00
					 0.00000000E+00	 1.00000000E+00	 6.66667000E-01
					 0.00000000E+00	 1.00000000E+00	 1.00000000E+00
					 3.33333000E-01	 1.00000000E+00	 6.66667000E-01
					 3.33333000E-01	 1.00000000E+00	 1.00000000E+00
					 0.00000000E+00	 8.33333000E-01	 6.66667000E-01
					 0.00000000E+00	 1.00000000E+00	 8.33333000E-01
					 0.00000000E+00	 8.33333000E-01	 1.00000000E+00
					 1.66667000E-01	 1.00000000E+00	 6.66667000E-01
					 1.66667000E-01	 1.00000000E+00	 1.00000000E+00
					 3.33333000E-01	 8.33333000E-01	 6.66667000E-01
					 3.33333000E-01	 1.00000000E+00	 8.33333000E-01
					 3.33333000E-01	 8.33333000E-01	 1.00000000E+00
					 6.66667000E-01	 0.00000000E+00	 1.00000000E+00
					 6.66667000E-01	 0.00000000E+00	 6.66667000E-01
					 6.66667000E-01	 3.33333000E-01	 6.66667000E-01
					 6.66667000E-01	 3.33333000E-01	 1.00000000E+00
					 5.00000000E-01	 0.00000000E+00	 1.00000000E+00
					 5.00000000E-01	 0.00000000E+00	 6.66667000E-01
					 5.00000000E-01	 3.33333000E-01	 6.66667000E-01
					 5.00000000E-01	 3.33333000E-01	 1.00000000E+00
					 6.66667000E-01	 0.00000000E+00	 8.33333000E-01
					 6.66667000E-01	 1.66667000E-01	 6.66667000E-01
					 6.66667000E-01	 3.33333000E-01	 8.33333000E-01
					 6.66667000E-01	 1.66667000E-01	 1.00000000E+00
					 6.66667000E-01	 6.66667000E-01	 6.66667000E-01
					 6.66667000E-01	 6.66667000E-01	 1.00000000E+00
					 5.00000000E-01	 6.66667000E-01	 6.66667000E-01
					 5.00000000E-01	 6.66667000E-01	 1.00000000E+00
					 6.66667000E-01	 5.00000000E-01	 6.66667000E-01
					 6.66667000E-01	 6.66667000E-01	 8.33333000E-01
					 6.66667000E-01	 5.00000000E-01	 1.00000000E+00
					 6.66667000E-01	 1.00000000E+00	 6.66667000E-01
					 6.66667000E-01	 1.00000000E+00	 1.00000000E+00
					 5.00000000E-01	 1.00000000E+00	 6.66667000E-01
					 5.00000000E-01	 1.00000000E+00	 1.00000000E+00
					 6.66667000E-01	 8.33333000E-01	 6.66667000E-01
					 6.66667000E-01	 1.00000000E+00	 8.33333000E-01
					 6.66667000E-01	 8.33333000E-01	 1.00000000E+00
					 1.00000000E+00	 0.00000000E+00	 1.00000000E+00
					 1.00000000E+00	 0.00000000E+00	 6.66667000E-01
					 1.00000000E+00	 3.33333000E-01	 6.66667000E-01
					 1.00000000E+00	 3.33333000E-01	 1.00000000E+00
					 8.33333000E-01	 0.00000000E+00	 1.00000000E+00
					 8.33333000E-01	 0.00000000E+00	 6.66667000E-01
					 8.33333000E-01	 3.33333000E-01	 6.66667000E-01
					 8.33333000E-01	 3.33333000E-01	 1.00000000E+00
					 1.00000000E+00	 0.00000000E+00	 8.33333000E-01
					 1.00000000E+00	 1.66667000E-01	 6.66667000E-01
					 1.00000000E+00	 3.33333000E-01	 8.33333000E-01
					 1.00000000E+00	 1.66667000E-01	 1.00000000E+00
					 1.00000000E+00	 6.66667000E-01	 6.66667000E-01
					 1.00000000E+00	 6.66667000E-01	 1.00000000E+00
					 8.33333000E-01	 6.66667000E-01	 6.66667000E-01
					 8.33333000E-01	 6.66667000E-01	 1.00000000E+00
					 1.00000000E+00	 5.00000000E-01	 6.66667000E-01
					 1.00000000E+00	 6.66667000E-01	 8.33333000E-01
					 1.00000000E+00	 5.00000000E-01	 1.00000000E+00
					 1.00000000E+00	 1.00000000E+00	 6.66667000E-01
					 1.00000000E+00	 1.00000000E+00	 1.00000000E+00
					 8.33333000E-01	 1.00000000E+00	 6.66667000E-01
					 8.33333000E-01	 1.00000000E+00	 1.00000000E+00
					 1.00000000E+00	 8.33333000E-01	 6.66667000E-01
					 1.00000000E+00	 1.00000000E+00	 8.33333000E-01
					 1.00000000E+00	 8.33333000E-01	 1.00000000E+00
					 0.00000000E+00	 0.00000000E+00	 3.33333000E-01
					 0.00000000E+00	 3.33333000E-01	 3.33333000E-01
					 3.33333000E-01	 0.00000000E+00	 3.33333000E-01
					 3.33333000E-01	 3.33333000E-01	 3.33333000E-01
					 0.00000000E+00	 0.00000000E+00	 5.00000000E-01
					 0.00000000E+00	 1.66667000E-01	 3.33333000E-01
					 0.00000000E+00	 3.33333000E-01	 5.00000000E-01
					 1.66667000E-01	 0.00000000E+00	 3.33333000E-01
					 1.66667000E-01	 3.33333000E-01	 3.33333000E-01
					 3.33333000E-01	 0.00000000E+00	 5.00000000E-01
					 3.33333000E-01	 1.66667000E-01	 3.33333000E-01
					 3.33333000E-01	 3.33333000E-01	 5.00000000E-01
					 0.00000000E+00	 6.66667000E-01	 3.33333000E-01
					 3.33333000E-01	 6.66667000E-01	 3.33333000E-01
					 0.00000000E+00	 5.00000000E-01	 3.33333000E-01
					 0.00000000E+00	 6.66667000E-01	 5.00000000E-01
					 1.66667000E-01	 6.66667000E-01	 3.33333000E-01
					 3.33333000E-01	 5.00000000E-01	 3.33333000E-01
					 3.33333000E-01	 6.66667000E-01	 5.00000000E-01
					 0.00000000E+00	 1.00000000E+00	 3.33333000E-01
					 3.33333000E-01	 1.00000000E+00	 3.33333000E-01
					 0.00000000E+00	 8.33333000E-01	 3.33333000E-01
					 0.00000000E+00	 1.00000000E+00	 5.00000000E-01
					 1.66667000E-01	 1.00000000E+00	 3.33333000E-01
					 3.33333000E-01	 8.33333000E-01	 3.33333000E-01
					 3.33333000E-01	 1.00000000E+00	 5.00000000E-01
					 6.66667000E-01	 0.00000000E+00	 3.33333000E-01
					 6.66667000E-01	 3.33333000E-01	 3.33333000E-01
					 5.00000000E-01	 0.00000000E+00	 3.33333000E-01
					 5.00000000E-01	 3.33333000E-01	 3.33333000E-01
					 6.66667000E-01	 0.00000000E+00	 5.00000000E-01
					 6.66667000E-01	 1.66667000E-01	 3.33333000E-01
					 6.66667000E-01	 3.33333000E-01	 5.00000000E-01
					 6.66667000E-01	 6.66667000E-01	 3.33333000E-01
					 5.00000000E-01	 6.66667000E-01	 3.33333000E-01
					 6.66667000E-01	 5.00000000E-01	 3.33333000E-01
					 6.66667000E-01	 6.66667000E-01	 5.00000000E-01
					 6.66667000E-01	 1.00000000E+00	 3.33333000E-01
					 5.00000000E-01	 1.00000000E+00	 3.33333000E-01
					 6.66667000E-01	 8.33333000E-01	 3.33333000E-01
					 6.66667000E-01	 1.00000000E+00	 5.00000000E-01
					 1.00000000E+00	 0.00000000E+00	 3.33333000E-01
					 1.00000000E+00	 3.33333000E-01	 3.33333000E-01
					 8.33333000E-01	 0.00000000E+00	 3.33333000E-01
					 8.33333000E-01	 3.33333000E-01	 3.33333000E-01
					 1.00000000E+00	 0.00000000E+00	 5.00000000E-01
					 1.00000000E+00	 1.66667000E-01	 3.33333000E-01
					 1.00000000E+00	 3.33333000E-01	 5.00000000E-01
					 1.00000000E+00	 6.66667000E-01	 3.33333000E-01
					 8.33333000E-01	 6.66667000E-01	 3.33333000E-01
					 1.00000000E+00	 5.00000000E-01	 3.33333000E-01
					 1.00000000E+00	 6.66667000E-01	 5.00000000E-01
					 1.00000000E+00	 1.00000000E+00	 3.33333000E-01
					 8.33333000E-01	 1.00000000E+00	 3.33333000E-01
					 1.00000000E+00	 8.33333000E-01	 3.33333000E-01
					 1.00000000E+00	 1.00000000E+00	 5.00000000E-01
					 0.00000000E+00	 0.00000000E+00	 0.00000000E+00
					 0.00000000E+00	 3.33333000E-01	 0.00000000E+00
					 3.33333000E-01	 0.00000000E+00	 0.00000000E+00
					 3.33333000E-01	 3.33333000E-01	 0.00000000E+00
					 0.00000000E+00	 0.00000000E+00	 1.66667000E-01
					 0.00000000E+00	 1.66667000E-01	 0.00000000E+00
					 0.00000000E+00	 3.33333000E-01	 1.66667000E-01
					 1.66667000E-01	 0.00000000E+00	 0.00000000E+00
					 1.66667000E-01	 3.33333000E-01	 0.00000000E+00
					 3.33333000E-01	 0.00000000E+00	 1.66667000E-01
					 3.33333000E-01	 1.66667000E-01	 0.00000000E+00
					 3.33333000E-01	 3.33333000E-01	 1.66667000E-01
					 0.00000000E+00	 6.66667000E-01	 0.00000000E+00
					 3.33333000E-01	 6.66667000E-01	 0.00000000E+00
					 0.00000000E+00	 5.00000000E-01	 0.00000000E+00
					 0.00000000E+00	 6.66667000E-01	 1.66667000E-01
					 1.66667000E-01	 6.66667000E-01	 0.00000000E+00
					 3.33333000E-01	 5.00000000E-01	 0.00000000E+00
					 3.33333000E-01	 6.66667000E-01	 1.66667000E-01
					 0.00000000E+00	 1.00000000E+00	 0.00000000E+00
					 3.33333000E-01	 1.00000000E+00	 0.00000000E+00
					 0.00000000E+00	 8.33333000E-01	 0.00000000E+00
					 0.00000000E+00	 1.00000000E+00	 1.66667000E-01
					 1.66667000E-01	 1.00000000E+00	 0.00000000E+00
					 3.33333000E-01	 8.33333000E-01	 0.00000000E+00
					 3.33333000E-01	 1.00000000E+00	 1.66667000E-01
					 6.66667000E-01	 0.00000000E+00	 0.00000000E+00
					 6.66667000E-01	 3.33333000E-01	 0.00000000E+00
					 5.00000000E-01	 0.00000000E+00	 0.00000000E+00
					 5.00000000E-01	 3.33333000E-01	 0.00000000E+00
					 6.66667000E-01	 0.00000000E+00	 1.66667000E-01
					 6.66667000E-01	 1.66667000E-01	 0.00000000E+00
[...]
			<PointData>
				<DataArray type="Float32" Name="U" NumberOfComponents="3" ComponentName0="D1" ComponentName1="D2" ComponentName2="D3" format="ascii">
					 1.09088000E-04	-4.75687000E-04	-3.78712000E-04
					-2.26809000E-05	-1.99820000E-04	-3.56632000E-04
					-1.39344000E-05	-2.03747000E-04	-1.60491000E-04
					 8.88747000E-05	-4.57066000E-04	-1.45909000E-04
					 2.45519000E-04	-6.15358000E-04	-9.54645000E-04
					-1.15730000E-05	-1.94113000E-04	-5.51154000E-04
					-1.15376000E-05	-2.00138000E-04	-2.45636000E-04
					 9.16309000E-05	-5.45885000E-04	-3.29316000E-04
					 4.68544000E-05	-3.48550000E-04	-4.12682000E-04
					-2.14681000E-05	-2.01610000E-04	-2.49996000E-04
					 2.74609000E-05	-3.46139000E-04	-1.53978000E-04
					 1.08972000E-04	-4.69261000E-04	-2.46398000E-04
					 1.83373000E-04	-5.24524000E-04	-5.44159000E-04
					-1.48108000E-05	-2.07438000E-04	-4.40799000E-04
					-1.43228000E-05	-2.09764000E-04	-1.97552000E-04
					 9.90042000E-05	-4.82241000E-04	-2.20174000E-04
					-2.88531000E-05	-3.22652000E-04	-7.13192000E-04
					-2.25058000E-05	-1.92162000E-04	-4.09879000E-04
					 8.03955000E-06	-3.25782000E-04	-2.99055000E-04
					 1.91647000E-04	-5.92973000E-04	-6.25390000E-04
					-2.80609000E-06	-2.16438000E-04	-3.68996000E-06
					 2.91073000E-05	-4.16881000E-04	 1.09922000E-05
					-2.65650000E-06	-2.10834000E-04	-2.52562000E-05
					 1.32717000E-05	-4.22244000E-04	-3.00427000E-05
					-4.26321000E-06	-2.10228000E-04	-7.72145000E-05
					 1.02087000E-05	-3.22837000E-04	 5.68370000E-06
					 4.95947000E-05	-4.37046000E-04	-7.30270000E-05
					-3.10458000E-06	-2.14908000E-04	-1.48370000E-05
					 2.38971000E-05	-4.14396000E-04	-1.49723000E-05
					-4.07121000E-06	-2.08729000E-04	-1.21953000E-04
					 7.68996000E-06	-3.21552000E-04	-2.83556000E-05
					 4.65259000E-05	-4.77782000E-04	-1.29112000E-04
					-8.81221000E-07	-2.17881000E-04	 1.50661000E-04
					 1.14982000E-05	-4.07216000E-04	 1.63917000E-04
					-3.86242000E-07	-2.15844000E-04	 1.40927000E-04
					 7.66279000E-06	-4.09083000E-04	 1.53366000E-04
					-1.03259000E-06	-2.17203000E-04	 6.67694000E-05
					 3.92683000E-06	-3.14654000E-04	 1.61692000E-04
					 1.69507000E-05	-4.09087000E-04	 8.07423000E-05
					-8.30502000E-07	-2.16668000E-04	 1.45541000E-04
					 1.07576000E-05	-4.07824000E-04	 1.57878000E-04
					-5.27434000E-07	-2.15056000E-04	 5.58272000E-05
					 2.37050000E-06	-3.13139000E-04	 1.51469000E-04
					 7.38337000E-06	-4.09666000E-04	 6.14719000E-05
					-2.45438000E-04	-6.15389000E-04	-9.54878000E-04
					 1.16026000E-05	-1.94112000E-04	-5.51192000E-04
					 1.15661000E-05	-2.00138000E-04	-2.45659000E-04
					-9.15607000E-05	-5.45913000E-04	-3.29384000E-04
					 5.30507000E-08	-6.65437000E-04	-1.52247000E-03
					 7.53736000E-09	-1.66877000E-04	-5.45842000E-04
					 1.17913000E-08	-1.86136000E-04	-2.64477000E-04
					 3.97887000E-08	-5.72382000E-04	-4.22714000E-04
					 2.88913000E-05	-3.22652000E-04	-7.13290000E-04
					 2.25335000E-05	-1.92161000E-04	-4.09913000E-04
					-7.99525000E-06	-3.25782000E-04	-2.99096000E-04
					-1.91567000E-04	-5.93004000E-04	-6.25544000E-04
					 2.68566000E-06	-2.10834000E-04	-2.52660000E-05
					-1.32167000E-05	-4.22249000E-04	-3.00523000E-05
					 1.47529000E-08	-2.09123000E-04	-2.91762000E-05
					 2.72719000E-08	-4.26330000E-04	-2.22414000E-05
					 4.10077000E-06	-2.08729000E-04	-1.21969000E-04
					-7.64689000E-06	-3.21555000E-04	-2.83672000E-05
					-4.64645000E-05	-4.77798000E-04	-1.29135000E-04
					 4.18313000E-07	-2.15845000E-04	 1.40921000E-04
					-7.60882000E-06	-4.09088000E-04	 1.53358000E-04
					 1.59443000E-08	-2.16421000E-04	 1.40171000E-04
					 2.71868000E-08	-4.08180000E-04	 1.47999000E-04
					 5.58033000E-07	-2.15059000E-04	 5.58196000E-05
					-2.32668000E-06	-3.13142000E-04	 1.51462000E-04
					-7.33067000E-06	-4.09670000E-04	 6.14637000E-05
					-1.09060000E-04	-4.75712000E-04	-3.78778000E-04
					 2.27018000E-05	-1.99818000E-04	-3.56690000E-04
					 1.39639000E-05	-2.03745000E-04	-1.60538000E-04
					-8.88298000E-05	-4.57087000E-04	-1.45955000E-04
					-1.83332000E-04	-5.24554000E-04	-5.44272000E-04
					 1.48433000E-05	-2.07436000E-04	-4.40859000E-04
					 1.43542000E-05	-2.09763000E-04	-1.97589000E-04
					-9.89513000E-05	-4.82267000E-04	-2.20228000E-04
					-4.68026000E-05	-3.48561000E-04	-4.12769000E-04
					 2.14951000E-05	-2.01608000E-04	-2.50050000E-04
					-2.74141000E-05	-3.46148000E-04	-1.54030000E-04
					-1.08938000E-04	-4.69285000E-04	-2.46451000E-04
					 2.83716000E-06	-2.16439000E-04	-3.72178000E-06
					-2.90535000E-05	-4.16893000E-04	 1.09603000E-05
					 3.13454000E-06	-2.14909000E-04	-1.48567000E-05
					-2.38424000E-05	-4.14406000E-04	-1.49947000E-05
					 4.29217000E-06	-2.10228000E-04	-7.72518000E-05
					-1.01668000E-05	-3.22843000E-04	 5.65192000E-06
					-4.95428000E-05	-4.37063000E-04	-7.30670000E-05
					 9.11854000E-07	-2.17884000E-04	 1.50637000E-04
					-1.14447000E-05	-4.07225000E-04	 1.63892000E-04
					 8.61710000E-07	-2.16669000E-04	 1.45527000E-04
					-1.07040000E-05	-4.07832000E-04	 1.57863000E-04
					 1.06331000E-06	-2.17205000E-04	 6.67423000E-05
					-3.88390000E-06	-3.14660000E-04	 1.61667000E-04
					-1.68975000E-05	-4.09097000E-04	 8.07145000E-05
					-1.65546000E-05	-4.60687000E-05	-2.17603000E-04
					-1.43828000E-05	-4.70955000E-05	-1.11164000E-04
					-9.83929000E-06	-4.10211000E-05	-2.29107000E-04
					-8.32735000E-06	-4.55472000E-05	-1.21352000E-04
					-3.66158000E-05	-1.07275000E-04	-3.09053000E-04
					-1.73291000E-05	-4.55877000E-05	-1.65960000E-04
					-2.16519000E-05	-1.10486000E-04	-1.47810000E-04
					-1.81645000E-05	-4.34912000E-05	-2.17829000E-04
					-1.36216000E-05	-4.80005000E-05	-1.11452000E-04
					-1.09753000E-05	-1.01526000E-04	-3.69411000E-04
					-9.50758000E-06	-4.24543000E-05	-1.78168000E-04
					-1.27297000E-05	-1.07606000E-04	-1.83220000E-04
					-5.73188000E-06	-5.53739000E-05	-1.19096000E-05
					-3.00404000E-06	-5.65656000E-05	-1.47789000E-05
					-9.43180000E-06	-5.11098000E-05	-5.94343000E-05
					-6.59001000E-06	-1.24436000E-04	-9.50259000E-06
					-5.04898000E-06	-5.71361000E-05	-1.18974000E-05
					-5.76681000E-06	-5.09239000E-05	-6.61669000E-05
					-4.32189000E-06	-1.22733000E-04	-2.18948000E-05
					-2.68573000E-06	-5.93762000E-05	 8.58608000E-05
					-1.83912000E-06	-5.94988000E-05	 8.42292000E-05
					-3.35359000E-06	-5.84932000E-05	 3.40384000E-05
					-3.07416000E-06	-1.28730000E-04	 1.22918000E-04
					-2.60510000E-06	-5.96922000E-05	 8.56762000E-05
					-1.89390000E-06	-5.89941000E-05	 3.23478000E-05
					-1.71851000E-06	-1.27687000E-04	 1.17470000E-04
					 9.84452000E-06	-4.10197000E-05	-2.29119000E-04
					 8.33343000E-06	-4.55459000E-05	-1.21361000E-04
					 3.58637000E-09	-4.32242000E-05	-2.37409000E-04
					 3.20175000E-09	-4.62040000E-05	-1.25298000E-04
					 1.09897000E-05	-1.01524000E-04	-3.69430000E-04
					 9.51260000E-06	-4.24530000E-05	-1.78178000E-04
					 1.27447000E-05	-1.07604000E-04	-1.83234000E-04
					 3.01280000E-06	-5.65652000E-05	-1.47848000E-05
					 4.31489000E-09	-5.59146000E-05	-1.61302000E-05
					 5.77415000E-06	-5.09229000E-05	-6.61742000E-05
					 4.33974000E-06	-1.22732000E-04	-2.19031000E-05
					 1.84900000E-06	-5.94985000E-05	 8.42248000E-05
					 4.99998000E-09	-5.90780000E-05	 8.37108000E-05
					 1.90369000E-06	-5.89937000E-05	 3.23431000E-05
					 1.73827000E-06	-1.27687000E-04	 1.17464000E-04
					 1.65634000E-05	-4.60655000E-05	-2.17634000E-04
					 1.43903000E-05	-4.70932000E-05	-1.11190000E-04
					 1.81706000E-05	-4.34885000E-05	-2.17850000E-04
					 1.36283000E-05	-4.79981000E-05	-1.11469000E-04
					 3.66333000E-05	-1.07271000E-04	-3.09098000E-04
					 1.73368000E-05	-4.55847000E-05	-1.65990000E-04
					 2.16693000E-05	-1.10482000E-04	-1.47848000E-04
					 5.74057000E-06	-5.53729000E-05	-1.19288000E-05
					 5.05777000E-06	-5.71349000E-05	-1.19094000E-05
					 9.44001000E-06	-5.11082000E-05	-5.94564000E-05
					 6.60859000E-06	-1.24435000E-04	-9.52932000E-06
					 2.69567000E-06	-5.93755000E-05	 8.58440000E-05
					 2.61495000E-06	-5.96915000E-05	 8.56666000E-05
					 3.36313000E-06	-5.84925000E-05	 3.40209000E-05
					 3.09371000E-06	-1.28730000E-04	 1.22897000E-04
					 0.00000000E+00	 0.00000000E+00	 0.00000000E+00
					 0.00000000E+00	 0.00000000E+00	 0.00000000E+00
					 0.00000000E+00	 0.00000000E+00	 0.00000000E+00
					 0.00000000E+00	 0.00000000E+00	 0.00000000E+00
					-6.47400000E-06	-1.00055000E-05	-1.11905000E-04
					 0.00000000E+00	 0.00000000E+00	 0.00000000E+00
					-6.16443000E-06	-9.90184000E-06	-6.00224000E-05
					 0.00000000E+00	 0.00000000E+00	 0.00000000E+00
					 0.00000000E+00	 0.00000000E+00	 0.00000000E+00
					-4.95989000E-06	-8.74419000E-06	-1.10258000E-04
					 0.00000000E+00	 0.00000000E+00	 0.00000000E+00
					-3.97622000E-06	-1.03438000E-05	-5.98308000E-05
					 0.00000000E+00	 0.00000000E+00	 0.00000000E+00
					 0.00000000E+00	 0.00000000E+00	 0.00000000E+00
					 0.00000000E+00	 0.00000000E+00	 0.00000000E+00
					-2.78698000E-06	-1.44584000E-05	-7.83530000E-06
					 0.00000000E+00	 0.00000000E+00	 0.00000000E+00
					 0.00000000E+00	 0.00000000E+00	 0.00000000E+00
					-1.70955000E-06	-1.53044000E-05	-7.80236000E-06
					 0.00000000E+00	 0.00000000E+00	 0.00000000E+00
					 0.00000000E+00	 0.00000000E+00	 0.00000000E+00
					 0.00000000E+00	 0.00000000E+00	 0.00000000E+00
					-1.19710000E-06	-1.61228000E-05	 4.42716000E-05
					 0.00000000E+00	 0.00000000E+00	 0.00000000E+00
					 0.00000000E+00	 0.00000000E+00	 0.00000000E+00
					-1.00730000E-06	-1.63809000E-05	 4.41758000E-05
					 0.00000000E+00	 0.00000000E+00	 0.00000000E+00
					 0.00000000E+00	 0.00000000E+00	 0.00000000E+00
					 0.00000000E+00	 0.00000000E+00	 0.00000000E+00
					 0.00000000E+00	 0.00000000E+00	 0.00000000E+00
					 4.96072000E-06	-8.74330000E-06	-1.10263000E-04
					 0.00000000E+00	 0.00000000E+00	 0.00000000E+00
					 3.97734000E-06	-1.03429000E-05	-5.98353000E-05
					 0.00000000E+00	 0.00000000E+00	 0.00000000E+00
					 0.00000000E+00	 0.00000000E+00	 0.00000000E+00
					 0.00000000E+00	 0.00000000E+00	 0.00000000E+00
					 1.71226000E-06	-1.53038000E-05	-7.80542000E-06
					 0.00000000E+00	 0.00000000E+00	 0.00000000E+00
					 0.00000000E+00	 0.00000000E+00	 0.00000000E+00
					 0.00000000E+00	 0.00000000E+00	 0.00000000E+00
					 1.01063000E-06	-1.63806000E-05	 4.41733000E-05
					 0.00000000E+00	 0.00000000E+00	 0.00000000E+00
					 0.00000000E+00	 0.00000000E+00	 0.00000000E+00
					 0.00000000E+00	 0.00000000E+00	 0.00000000E+00
					 0.00000000E+00	 0.00000000E+00	 0.00000000E+00
					 6.47516000E-06	-1.00040000E-05	-1.11918000E-04
					 0.00000000E+00	 0.00000000E+00	 0.00000000E+00
					 6.16582000E-06	-9.90048000E-06	-6.00350000E-05
					 0.00000000E+00	 0.00000000E+00	 0.00000000E+00
					 0.00000000E+00	 0.00000000E+00	 0.00000000E+00
					 0.00000000E+00	 0.00000000E+00	 0.00000000E+00
					 2.78952000E-06	-1.44576000E-05	-7.84545000E-06
					 0.00000000E+00	 0.00000000E+00	 0.00000000E+00
					 0.00000000E+00	 0.00000000E+00	 0.00000000E+00
					 0.00000000E+00	 0.00000000E+00	 0.00000000E+00
					 1.20027000E-06	-1.61222000E-05	 4.42623000E-05
					 0.00000000E+00	 0.00000000E+00	-1.53155000E-02
					 0.00000000E+00	 0.00000000E+00	-1.53074000E-02
					 0.00000000E+00	 0.00000000E+00	-1.02194000E-02
					 0.00000000E+00	 0.00000000E+00	-1.02269000E-02
					-6.10285000E-06	 4.62468000E-03	-1.51747000E-02
					-6.82949000E-06	 5.06770000E-03	-1.51546000E-02
					-6.45868000E-06	 4.97144000E-03	-1.01278000E-02
					-5.21405000E-06	 4.52976000E-03	-1.01433000E-02
					 0.00000000E+00	 0.00000000E+00	-1.53124000E-02
					 0.00000000E+00	 0.00000000E+00	-1.27373000E-02
					 0.00000000E+00	 0.00000000E+00	-1.02232000E-02
					 0.00000000E+00	 0.00000000E+00	-1.27440000E-02
					-2.59388000E-06	 2.34430000E-03	-1.52472000E-02
					-3.50939000E-06	 2.56900000E-03	-1.52334000E-02
					-3.25535000E-06	 2.48836000E-03	-1.01718000E-02
					-2.73373000E-06	 2.26652000E-03	-1.01829000E-02
					-5.14467000E-06	 4.90032000E-03	-1.51618000E-02
					-6.51846000E-06	 5.01592000E-03	-1.26396000E-02
					-5.59863000E-06	 4.80465000E-03	-1.01354000E-02
					-5.73409000E-06	 4.57330000E-03	-1.26575000E-02
					 0.00000000E+00	 0.00000000E+00	-5.23373000E-03
					 0.00000000E+00	 0.00000000E+00	-5.24118000E-03
					-6.83722000E-06	 4.88385000E-03	-5.14374000E-03
					-5.87980000E-06	 4.44600000E-03	-5.15912000E-03
					 0.00000000E+00	 0.00000000E+00	-7.71909000E-03
					 0.00000000E+00	 0.00000000E+00	-5.23761000E-03
					 0.00000000E+00	 0.00000000E+00	-7.72634000E-03
					-3.39150000E-06	 2.43793000E-03	-5.18726000E-03
					-2.94330000E-06	 2.22024000E-03	-5.19837000E-03
					-6.70646000E-06	 4.92751000E-03	-7.62834000E-03
					-6.24740000E-06	 4.71831000E-03	-5.15069000E-03
					-5.57915000E-06	 4.48764000E-03	-7.64425000E-03
					 0.00000000E+00	 0.00000000E+00	-3.48594000E-04
					 0.00000000E+00	 0.00000000E+00	-3.56069000E-04
					-6.84847000E-06	 4.79153000E-03	-1.99379000E-04
					-5.99504000E-06	 4.35465000E-03	-2.20011000E-04
					 0.00000000E+00	 0.00000000E+00	-2.76506000E-03
					 0.00000000E+00	 0.00000000E+00	-3.52452000E-04
					 0.00000000E+00	 0.00000000E+00	-2.77195000E-03
					-3.39105000E-06	 2.36183000E-03	-2.78761000E-04
					-2.89860000E-06	 2.14720000E-03	-2.92590000E-04
					-6.91141000E-06	 4.84061000E-03	-2.67143000E-03
					-6.44711000E-06	 4.62617000E-03	-2.08395000E-04
					-6.06014000E-06	 4.40353000E-03	-2.68813000E-03
					-3.69992000E-06	 9.12185000E-03	-1.50647000E-02
					-1.05169000E-05	 9.99658000E-03	-1.50204000E-02
					-1.36065000E-05	 9.90604000E-03	-1.00249000E-02
					-1.13498000E-05	 9.02668000E-03	-1.00641000E-02
					-6.63200000E-06	 6.87742000E-03	-1.51137000E-02
					-8.45702000E-06	 7.53854000E-03	-1.50838000E-02
					-9.61916000E-06	 7.43980000E-03	-1.00798000E-02
					-7.42558000E-06	 6.77998000E-03	-1.01044000E-02
					-9.43187000E-06	 9.66794000E-03	-1.50536000E-02
					-1.20226000E-05	 9.95251000E-03	-1.25340000E-02
					-1.24357000E-05	 9.57379000E-03	-1.00431000E-02
					-6.81276000E-06	 9.07501000E-03	-1.25679000E-02
					-1.40647000E-05	 9.80888000E-03	-5.04770000E-03
					-1.23317000E-05	 8.92829000E-03	-5.07769000E-03
					-1.03598000E-05	 7.34425000E-03	-5.09734000E-03
					-8.83843000E-06	 6.68489000E-03	-5.11936000E-03
					-1.37986000E-05	 9.85780000E-03	-7.53447000E-03
					-1.34532000E-05	 9.47563000E-03	-5.06162000E-03
					-1.19259000E-05	 8.97780000E-03	-7.56618000E-03
					-1.38654000E-05	 9.71071000E-03	-8.22035000E-05
					-1.23960000E-05	 8.83014000E-03	-1.08978000E-04
					-1.01724000E-05	 7.24743000E-03	-1.37256000E-04
					-9.18418000E-06	 6.58824000E-03	-1.61883000E-04
					-1.44258000E-05	 9.75861000E-03	-2.56804000E-03
					-1.31921000E-05	 9.37773000E-03	-9.31404000E-05
					-1.27009000E-05	 8.87832000E-03	-2.59487000E-03
					-4.13999000E-05	 1.36467000E-02	-1.50614000E-02
					-3.53531000E-05	 1.51859000E-02	-1.50558000E-02
					-3.63597000E-05	 1.50122000E-02	-9.91612000E-03
					-2.75347000E-05	 1.35255000E-02	-9.97699000E-03
					-9.75142000E-06	 1.13736000E-02	-1.50623000E-02
					-1.91621000E-05	 1.24694000E-02	-1.50360000E-02
					-1.93214000E-05	 1.23793000E-02	-9.97616000E-03
					-1.70598000E-05	 1.12752000E-02	-1.00204000E-02
					-3.78909000E-05	 1.44912000E-02	-1.50036000E-02
					-3.81448000E-05	 1.50996000E-02	-1.24216000E-02
					-3.39359000E-05	 1.43473000E-02	-9.95241000E-03
					-3.79543000E-05	 1.35875000E-02	-1.25104000E-02
					-2.75094000E-05	 1.48927000E-02	-4.95081000E-03
					-2.28560000E-05	 1.34125000E-02	-4.99269000E-03
					-1.87520000E-05	 1.22716000E-02	-5.00077000E-03
					-1.70975000E-05	 1.11710000E-02	-5.03506000E-03
					-3.19002000E-05	 1.49508000E-02	-7.41982000E-03
					-2.54881000E-05	 1.42314000E-02	-4.97013000E-03
					-2.51993000E-05	 1.34681000E-02	-7.48378000E-03
					-2.09806000E-05	 1.47934000E-02	 1.07044000E-05
					-2.01461000E-05	 1.33127000E-02	-1.91551000E-05
					-1.87187000E-05	 1.21719000E-02	-3.52844000E-05
					-1.62476000E-05	 1.10721000E-02	-6.34870000E-05
					-2.34071000E-05	 1.48420000E-02	-2.46959000E-03
					-2.08610000E-05	 1.41314000E-02	-1.23368000E-06
					-2.11129000E-05	 1.33616000E-02	-2.50632000E-03
					 0.00000000E+00	 0.00000000E+00	-1.52998000E-02
					 0.00000000E+00	 0.00000000E+00	-1.02119000E-02
					-8.41394000E-06	 5.06759000E-03	-1.51470000E-02
					-8.47585000E-06	 4.97133000E-03	-1.01202000E-02
					 0.00000000E+00	 0.00000000E+00	-1.53042000E-02
					 0.00000000E+00	 0.00000000E+00	-1.27298000E-02
					 0.00000000E+00	 0.00000000E+00	-1.02155000E-02
					-4.20694000E-06	 2.56894000E-03	-1.52258000E-02
					-4.20992000E-06	 2.48831000E-03	-1.01643000E-02
					-7.70775000E-06	 5.12363000E-03	-1.51464000E-02
					-8.54529000E-06	 5.01581000E-03	-1.26320000E-02
					-7.55076000E-06	 5.02717000E-03	-1.01229000E-02
					 0.00000000E+00	 0.00000000E+00	-5.22629000E-03
					-7.84093000E-06	 4.88374000E-03	-5.13624000E-03
					 0.00000000E+00	 0.00000000E+00	-7.71161000E-03
					 0.00000000E+00	 0.00000000E+00	-5.23007000E-03
					-3.94622000E-06	 2.43788000E-03	-5.17979000E-03
					-8.09883000E-06	 4.92740000E-03	-7.62080000E-03
					-7.42274000E-06	 4.93928000E-03	-5.13869000E-03
					 0.00000000E+00	 0.00000000E+00	-3.41252000E-04
					-7.53541000E-06	 4.79142000E-03	-1.91942000E-04
					 0.00000000E+00	 0.00000000E+00	-2.75766000E-03
					 0.00000000E+00	 0.00000000E+00	-3.44870000E-04
					-3.71202000E-06	 2.36178000E-03	-2.71378000E-04
					-7.64389000E-06	 4.84050000E-03	-2.66396000E-03
					-7.27345000E-06	 4.84656000E-03	-1.94094000E-04
					-1.95973000E-05	 9.99643000E-03	-1.50127000E-02
					-1.61738000E-05	 9.90590000E-03	-1.00173000E-02
					-1.42333000E-05	 7.53841000E-03	-1.50762000E-02
					-1.27450000E-05	 7.43967000E-03	-1.00722000E-02
					-1.52267000E-05	 1.01084000E-02	-1.50250000E-02
					-1.79296000E-05	 9.95237000E-03	-1.25264000E-02
					-1.50629000E-05	 1.00182000E-02	-1.00158000E-02
					-1.53792000E-05	 9.80875000E-03	-5.04014000E-03
					-1.16967000E-05	 7.34412000E-03	-5.08981000E-03
					-1.58110000E-05	 9.85767000E-03	-7.52690000E-03
					-1.48916000E-05	 9.92080000E-03	-5.04157000E-03
					-1.52619000E-05	 9.71058000E-03	-7.46707000E-05
					-1.15712000E-05	 7.24731000E-03	-1.29766000E-04
					-1.48528000E-05	 9.75848000E-03	-2.56050000E-03
					-1.47322000E-05	 9.82308000E-03	-7.54726000E-05
					-1.00754000E-05	 1.51857000E-02	-1.50483000E-02
					-8.71838000E-06	 1.50120000E-02	-9.90860000E-03
					-1.83960000E-05	 1.24692000E-02	-1.50284000E-02
					-1.78695000E-05	 1.23791000E-02	-9.96858000E-03
					-2.26957000E-05	 1.51820000E-02	-1.49675000E-02
					-7.13670000E-06	 1.50995000E-02	-1.24140000E-02
					-2.25306000E-05	 1.50110000E-02	-9.89834000E-03
					-1.71795000E-05	 1.48926000E-02	-4.94327000E-03
					-1.80770000E-05	 1.22715000E-02	-4.99321000E-03
					-1.29799000E-05	 1.49507000E-02	-7.41227000E-03
					-2.23386000E-05	 1.48921000E-02	-4.93765000E-03
					-2.33719000E-05	 1.47932000E-02	 1.82714000E-05
					-1.77820000E-05	 1.21718000E-02	-2.77297000E-05
					-2.11049000E-05	 1.48419000E-02	-2.46203000E-03
					-2.21738000E-05	 1.47923000E-02	 8.81630000E-06
					 0.00000000E+00	 0.00000000E+00	-1.52925000E-02
					 0.00000000E+00	 0.00000000E+00	-1.02043000E-02
					-7.79361000E-06	 4.62432000E-03	-1.51520000E-02
					-8.38818000E-06	 4.52939000E-03	-1.01207000E-02
					 0.00000000E+00	 0.00000000E+00	-1.52971000E-02
					 0.00000000E+00	 0.00000000E+00	-1.27212000E-02
					 0.00000000E+00	 0.00000000E+00	-1.02082000E-02
					-4.43947000E-06	 2.34402000E-03	-1.52243000E-02
					-4.06683000E-06	 2.26625000E-03	-1.01603000E-02
					-9.58596000E-06	 4.90009000E-03	-1.51465000E-02
					-7.99638000E-06	 4.57293000E-03	-1.26348000E-02
					-8.83425000E-06	 4.80443000E-03	-1.01203000E-02
					 0.00000000E+00	 0.00000000E+00	-5.21888000E-03
					-7.48339000E-06	 4.44563000E-03	-5.13679000E-03