# vtk DataFile Version 3.0

ASCII
DATASET UNSTRUCTURED_GRID

POINTS 12 double
	 1.00000000E+02	 0.00000000E+00	 0.00000000E+00
	 0.00000000E+00	 0.00000000E+00	 0.00000000E+00
	 0.00000000E+00	 1.00000000E+02	 0.00000000E+00
	 1.00000000E+02	 1.00000000E+02	 0.00000000E+00
	 2.00000000E+02	 1.00000000E+02	 0.00000000E+00
	 2.00000000E+02	 0.00000000E+00	 0.00000000E+00
	 1.00000000E+02	 0.00000000E+00	-1.00000000E+02
	 1.00000000E+02	 1.00000000E+02	-1.00000000E+02
	 0.00000000E+00	 1.00000000E+02	-1.00000000E+02
	 0.00000000E+00	 0.00000000E+00	-1.00000000E+02
	 2.00000000E+02	 0.00000000E+00	-1.00000000E+02
	 2.00000000E+02	 1.00000000E+02	-1.00000000E+02

CELLS 2 18
	8 5 0 3 4 10 6 7 11 
	8 0 1 2 3 6 9 8 7 

CELL_TYPES 2
	12
	12

POINT_DATA 12
FIELD SOR1 1
	SOR1 6 12 double
		 1.20148000E+00	 2.96872000E-01	-1.27092000E+00	 1.49508000E-01	 2.14026000E-01	 1.21233000E+00
		 1.02855000E-01	 3.23361000E-02	 3.23366000E-02	 1.15019000E-01	 7.59108000E-07	-1.59839000E-02
		 1.02855000E-01	 3.23361000E-02	 3.23366000E-02	-1.15019000E-01	-7.59110000E-07	-1.59839000E-02
		 1.20148000E+00	 2.96872000E-01	-1.27092000E+00	-1.49508000E-01	-2.14026000E-01	 1.21233000E+00
		 2.12839000E+00	 1.27857000E-01	-2.72597000E+00	-1.83996000E-01	-5.60556000E-01	-2.36589000E+00
		 2.12839000E+00	 1.27857000E-01	-2.72597000E+00	 1.83996000E-01	 5.60556000E-01	-2.36589000E+00
		-1.23057000E+00	-2.93257000E-01	 1.22790000E+00	-1.30769000E-01	 2.14026000E-01	 1.19087000E+00
		-1.23057000E+00	-2.93257000E-01	 1.22790000E+00	 1.30769000E-01	-2.14026000E-01	 1.19087000E+00
		-1.10014000E-01	-3.45858000E-02	-3.45882000E-02	 9.90051000E-02	-7.59110000E-07	-3.77447000E-02
		-1.10014000E-01	-3.45858000E-02	-3.45882000E-02	-9.90051000E-02	 7.59108000E-07	-3.77447000E-02
		-2.19273000E+00	-1.45518000E-01	 2.66870000E+00	-1.62532000E-01	 5.60556000E-01	-2.38705000E+00
		-2.19273000E+00	-1.45518000E-01	 2.66870000E+00	 1.62532000E-01	-5.60556000E-01	-2.38705000E+00
