# vtk DataFile Version 3.0

ASCII
DATASET UNSTRUCTURED_GRID

POINTS 12 double
	 1.00000000E+02	 0.00000000E+00	 0.00000000E+00
	 0.00000000E+00	 0.00000000E+00	 0.00000000E+00
	 0.00000000E+00	 1.00000000E+02	 0.00000000E+00
	 1.00000000E+02	 1.00000000E+02	 0.00000000E+00
	 2.00000000E+02	 1.00000000E+02	 0.00000000E+00
	 2.00000000E+02	 0.00000000E+00	 0.00000000E+00
	 1.00000000E+02	 0.00000000E+00	-1.00000000E+02
	 1.00000000E+02	 1.00000000E+02	-1.00000000E+02
	 0.00000000E+00	 1.00000000E+02	-1.00000000E+02
	 0.00000000E+00	 0.00000000E+00	-1.00000000E+02
	 2.00000000E+02	 0.00000000E+00	-1.00000000E+02
	 2.00000000E+02	 1.00000000E+02	-1.00000000E+02

CELLS 2 18
	8 5 0 3 4 10 6 7 11 
	8 0 1 2 3 6 9 8 7 

CELL_TYPES 2
	12
	12

POINT_DATA 12
FIELD DOR1 1
	DOR1 3 12 double
		 5.26744000E-02	 7.12156000E-03	-9.28710000E-02
		 0.00000000E+00	 0.00000000E+00	 0.00000000E+00
		 0.00000000E+00	 0.00000000E+00	 0.00000000E+00
		 5.26744000E-02	-7.12156000E-03	-9.28710000E-02
		 6.74857000E-02	-1.89058000E-04	-2.32328000E-01
		 6.74857000E-02	 1.89058000E-04	-2.32328000E-01
		-5.26744000E-02	-7.12156000E-03	-9.28710000E-02
		-5.26744000E-02	 7.12156000E-03	-9.28710000E-02
		 0.00000000E+00	 0.00000000E+00	 0.00000000E+00
		 0.00000000E+00	 0.00000000E+00	 0.00000000E+00
		-6.74857000E-02	-1.89058000E-04	-2.32328000E-01
		-6.74857000E-02	 1.89058000E-04	-2.32328000E-01
