<?xml version="1.0"?>
<VTKFile type="UnstructuredGrid" version="0.1" byte_order="LittleEndian">
	<UnstructuredGrid>
		<Piece NumberOfPoints="12" NumberOfCells="2">
			<Points>
				<DataArray type="Float64" NumberOfComponents="3" format="ascii">
					 1.00000000E+02	 0.00000000E+00	 0.00000000E+00
					 0.00000000E+00	 0.00000000E+00	 0.00000000E+00
					 0.00000000E+00	 1.00000000E+02	 0.00000000E+00
					 1.00000000E+02	 1.00000000E+02	 0.00000000E+00
					 2.00000000E+02	 1.00000000E+02	 0.00000000E+00
					 2.00000000E+02	 0.00000000E+00	 0.00000000E+00
					 1.00000000E+02	 0.00000000E+00	-1.00000000E+02
					 1.00000000E+02	 1.00000000E+02	-1.00000000E+02
					 0.00000000E+00	 1.00000000E+02	-1.00000000E+02
					 0.00000000E+00	 0.00000000E+00	-1.00000000E+02
					 2.00000000E+02	 0.00000000E+00	-1.00000000E+02
					 2.00000000E+02	 1.00000000E+02	-1.00000000E+02

				</DataArray>
			</Points>
			<Cells>
				<DataArray type="Int32" Name="connectivity" format="ascii">
					5 0 3 4 10 6 7 11 0 1 2 3 6 9 8 7 
				</DataArray>
				<DataArray type="Int32" Name="offsets" format="ascii">
					8 16 
				</DataArray>
				<DataArray type="UInt8" Name="types" format="ascii">
					12 12 
				</DataArray>
			</Cells>
			<PointData>
				<DataArray type="Float32" Name="SOR1" NumberOfComponents="6" ComponentName0="dSXXdRz" ComponentName1="dSYYdRz" ComponentName2="dSZZdRz" ComponentName3="dSXYdRz" ComponentName4="dSYZdRz" ComponentName5="dSZXdRz" format="ascii">
					-2.10328000E-01	 1.41492000E-01	 1.56968000E-01	 2.00495000E-01	 1.21672000E-01	-8.09392000E-02
					 7.76562000E-02	 2.44158000E-02	 2.44147000E-02	 2.61099000E-02	 4.31546000E-07	-6.37650000E-02
					-4.33583000E-02	-1.36304000E-02	-1.36305000E-02	 4.43441000E-03	 4.31548000E-07	 5.79063000E-02
					 1.53539000E-01	-1.35682000E-01	-1.50573000E-01	 1.74519000E-01	 1.21672000E-01	 7.42010000E-02
					 4.19892000E-01	-2.15841000E-01	-1.48457000E-01	-4.05449000E-01	 3.10282000E-01	 9.04958000E-02
					-5.95617000E-01	 1.33698000E-01	 1.10334000E-01	-3.75172000E-01	 3.10282000E-01	-9.81134000E-02
					-2.10328000E-01	 1.41492000E-01	 1.56968000E-01	 2.00495000E-01	-1.21672000E-01	 8.09392000E-02
					 1.53539000E-01	-1.35682000E-01	-1.50573000E-01	 1.74519000E-01	-1.21672000E-01	-7.42010000E-02
					-4.33583000E-02	-1.36304000E-02	-1.36305000E-02	 4.43441000E-03	-4.31547000E-07	-5.79063000E-02
					 7.76562000E-02	 2.44158000E-02	 2.44147000E-02	 2.61099000E-02	-4.31551000E-07	 6.37650000E-02
					-5.95617000E-01	 1.33698000E-01	 1.10334000E-01	-3.75172000E-01	-3.10282000E-01	 9.81134000E-02
					 4.19892000E-01	-2.15841000E-01	-1.48457000E-01	-4.05449000E-01	-3.10282000E-01	-9.04958000E-02
				</DataArray>
			</PointData>
		</Piece>
	</UnstructuredGrid>
</VTKFile>