# vtk DataFile Version 3.0

ASCII
DATASET UNSTRUCTURED_GRID

POINTS 1001 double
	 1.00000000E+01	-1.49699000E+01	 2.01445000E+02
	 7.50000000E+00	-1.74693000E+01	 2.01196000E+02
	 7.50000000E+00	-1.24616000E+01	 2.01583000E+02
	 1.00000000E+01	-1.03958000E+01	 2.01732000E+02
	 1.00000000E+01	-1.48958000E+01	 2.00447000E+02
	 7.50000000E+00	-1.73828000E+01	 2.00200000E+02
	 7.50000000E+00	-1.23999000E+01	 2.00585000E+02
	 1.00000000E+01	-1.03444000E+01	 2.00734000E+02
	 7.50000000E+00	-7.44523000E+00	 2.01843000E+02
	 1.00000000E+01	-5.81638000E+00	 2.01916000E+02
	 7.50000000E+00	-7.40838000E+00	 2.00844000E+02
	 1.00000000E+01	-5.78758000E+00	 2.00917000E+02
	 1.00000000E+01	-1.48217000E+01	 1.99450000E+02
	 7.50000000E+00	-1.72963000E+01	 1.99204000E+02
	 7.50000000E+00	-1.23382000E+01	 1.99587000E+02
	 1.00000000E+01	-1.02929000E+01	 1.99735000E+02
	 7.50000000E+00	-7.37152000E+00	 1.99845000E+02
	 1.00000000E+01	-5.75879000E+00	 1.99917000E+02
	 5.00000000E+00	-1.99687000E+01	 2.00948000E+02
	 5.00000000E+00	-1.45273000E+01	 2.01434000E+02
	 5.00000000E+00	-1.98698000E+01	 1.99953000E+02
	 5.00000000E+00	-1.44554000E+01	 2.00437000E+02
	 5.00000000E+00	-9.07409000E+00	 2.01770000E+02
	 5.00000000E+00	-9.02917000E+00	 2.00771000E+02
	 5.00000000E+00	-1.97710000E+01	 1.98958000E+02
	 5.00000000E+00	-1.43835000E+01	 1.99440000E+02
	 5.00000000E+00	-8.98425000E+00	 1.99772000E+02
	 2.50000000E+00	-2.24681000E+01	 2.00699000E+02
	 2.50000000E+00	-1.65931000E+01	 2.01285000E+02
	 2.50000000E+00	-2.23569000E+01	 1.99706000E+02
	 2.50000000E+00	-1.65110000E+01	 2.00289000E+02
	 2.50000000E+00	-1.07029000E+01	 2.01696000E+02
	 2.50000000E+00	-1.06500000E+01	 2.00698000E+02
	 2.50000000E+00	-2.22456000E+01	 1.98712000E+02
	 2.50000000E+00	-1.64288000E+01	 1.99292000E+02
	 2.50000000E+00	-1.05970000E+01	 1.99699000E+02
	 0.00000000E+00	-2.49675000E+01	 2.00451000E+02
	 0.00000000E+00	-1.86589000E+01	 2.01136000E+02
	 0.00000000E+00	-2.48439000E+01	 1.99459000E+02
	 8.88178000E-16	-1.85665000E+01	 2.00141000E+02
	 0.00000000E+00	-1.23318000E+01	 2.01623000E+02
	 0.00000000E+00	-1.22708000E+01	 2.00625000E+02
	 0.00000000E+00	-2.47203000E+01	 1.98466000E+02
	 0.00000000E+00	-1.84741000E+01	 1.99145000E+02
	 0.00000000E+00	-1.22097000E+01	 1.99627000E+02
	 1.00000000E+01	-5.22936000E+00	 5.97717000E+01
	 1.00000000E+01	-6.10091000E+00	 6.97336000E+01
	 1.00000000E+01	-4.88296000E+00	 6.98295000E+01
	 1.00000000E+01	-4.18540000E+00	 5.98538000E+01
	 7.50000000E+00	-5.22936000E+00	 5.97717000E+01
	 7.50000000E+00	-6.20949000E+00	 6.97232000E+01
	 7.50000000E+00	-4.99171000E+00	 6.98209000E+01
	 7.50000000E+00	-4.18540000E+00	 5.98538000E+01
	 1.00000000E+01	-3.66352000E+00	 6.99041000E+01
	 1.00000000E+01	-3.14016000E+00	 5.99178000E+01
	 7.50000000E+00	-3.77240000E+00	 6.98974000E+01
	 7.50000000E+00	-3.14016000E+00	 5.99178000E+01
	 5.00000000E+00	-5.22936000E+00	 5.97717000E+01
	 5.00000000E+00	-6.31807000E+00	 6.97127000E+01
	 5.00000000E+00	-5.10045000E+00	 6.98124000E+01
	 5.00000000E+00	-4.18540000E+00	 5.98538000E+01
	 5.00000000E+00	-3.88128000E+00	 6.98908000E+01
	 5.00000000E+00	-3.14016000E+00	 5.99178000E+01
	 2.50000000E+00	-5.22936000E+00	 5.97717000E+01
	 2.50000000E+00	-6.42665000E+00	 6.97023000E+01
	 2.50000000E+00	-5.20920000E+00	 6.98038000E+01
	 2.50000000E+00	-4.18540000E+00	 5.98538000E+01
	 2.50000000E+00	-3.99015000E+00	 6.98841000E+01
	 2.50000000E+00	-3.14016000E+00	 5.99178000E+01
	 0.00000000E+00	-5.22936000E+00	 5.97717000E+01
	 0.00000000E+00	-6.53523000E+00	 6.96918000E+01
	 0.00000000E+00	-5.31794000E+00	 6.97952000E+01
	 0.00000000E+00	-4.18540000E+00	 5.98538000E+01
	 0.00000000E+00	-4.09903000E+00	 6.98774000E+01
	 0.00000000E+00	-3.14016000E+00	 5.99178000E+01
	 1.00000000E+01	-6.97247000E+00	 7.96956000E+01
	 1.00000000E+01	-5.58052000E+00	 7.98051000E+01
	 7.50000000E+00	-7.18962000E+00	 7.96747000E+01
	 7.50000000E+00	-5.79801000E+00	 7.97880000E+01
	 1.00000000E+01	-4.18688000E+00	 7.98904000E+01
	 7.50000000E+00	-4.40464000E+00	 7.98770000E+01
	 5.00000000E+00	-7.40678000E+00	 7.96538000E+01
	 5.00000000E+00	-6.01550000E+00	 7.97709000E+01
	 5.00000000E+00	-4.62239000E+00	 7.98637000E+01
	 2.50000000E+00	-7.62394000E+00	 7.96328000E+01
	 2.50000000E+00	-6.23299000E+00	 7.97538000E+01
	 2.50000000E+00	-4.84015000E+00	 7.98504000E+01
	 0.00000000E+00	-7.84110000E+00	 7.96119000E+01
	 8.88178000E-16	-6.45048000E+00	 7.97367000E+01
	 0.00000000E+00	-5.05791000E+00	 7.98371000E+01
	 1.00000000E+01	-7.84402000E+00	 8.96575000E+01
	 1.00000000E+01	-6.27808000E+00	 8.97808000E+01
	 7.50000000E+00	-8.16976000E+00	 8.96262000E+01
	 7.50000000E+00	-6.60432000E+00	 8.97551000E+01
	 1.00000000E+01	-4.71024000E+00	 8.98767000E+01
	 7.50000000E+00	-5.03687000E+00	 8.98567000E+01
	 5.00000000E+00	-8.49549000E+00	 8.95948000E+01
	 5.00000000E+00	-6.93056000E+00	 8.97294000E+01
	 5.00000000E+00	-5.36351000E+00	 8.98367000E+01
	 2.50000000E+00	-8.82123000E+00	 8.95634000E+01
	 2.50000000E+00	-7.25679000E+00	 8.97037000E+01
	 2.50000000E+00	-5.69014000E+00	 8.98167000E+01
	 0.00000000E+00	-9.14697000E+00	 8.95321000E+01
	-8.88178000E-16	-7.58303000E+00	 8.96781000E+01
	 0.00000000E+00	-6.01678000E+00	 8.97967000E+01
	 1.00000000E+01	-8.71557000E+00	 9.96195000E+01
	 1.00000000E+01	-6.97565000E+00	 9.97564000E+01
	 7.50000000E+00	-9.14989000E+00	 9.95777000E+01
	 7.50000000E+00	-7.41063000E+00	 9.97222000E+01
	 1.00000000E+01	-5.23360000E+00	 9.98630000E+01
	 7.50000000E+00	-5.66911000E+00	 9.98363000E+01
	 5.00000000E+00	-9.58420000E+00	 9.95358000E+01
	 5.00000000E+00	-7.84561000E+00	 9.96879000E+01
	 5.00000000E+00	-6.10463000E+00	 9.98097000E+01
	 2.50000000E+00	-1.00185000E+01	 9.94940000E+01
	 2.50000000E+00	-8.28059000E+00	 9.96537000E+01
	 2.50000000E+00	-6.54014000E+00	 9.97830000E+01
	 0.00000000E+00	-1.04528000E+01	 9.94522000E+01
	 0.00000000E+00	-8.71557000E+00	 9.96195000E+01
	 0.00000000E+00	-6.97565000E+00	 9.97564000E+01
	 7.50000000E+00	-6.74063000E+00	 2.01868000E+02
	 1.00000000E+01	-5.11153000E+00	 2.01935000E+02
	 7.50000000E+00	-6.70726000E+00	 2.00868000E+02
	 1.00000000E+01	-5.08622000E+00	 2.00936000E+02
	 7.50000000E+00	-6.03594000E+00	 2.01890000E+02
	 1.00000000E+01	-4.40661000E+00	 2.01952000E+02
	 7.50000000E+00	-6.00606000E+00	 2.00891000E+02
	 1.00000000E+01	-4.38480000E+00	 2.00952000E+02
	 7.50000000E+00	-6.67389000E+00	 1.99869000E+02
	 1.00000000E+01	-5.06092000E+00	 1.99936000E+02
	 7.50000000E+00	-5.97617000E+00	 1.99891000E+02
	 1.00000000E+01	-4.36298000E+00	 1.99952000E+02
	 5.00000000E+00	-8.36973000E+00	 2.01800000E+02
	 5.00000000E+00	-8.32829000E+00	 2.00801000E+02
	 5.00000000E+00	-7.66527000E+00	 2.01828000E+02
	 5.00000000E+00	-7.62732000E+00	 2.00829000E+02
	 5.00000000E+00	-8.28686000E+00	 1.99802000E+02
	 5.00000000E+00	-7.58937000E+00	 1.99830000E+02
	 2.50000000E+00	-9.99883000E+00	 2.01733000E+02
	 2.50000000E+00	-9.94933000E+00	 2.00734000E+02
	 2.50000000E+00	-9.29459000E+00	 2.01766000E+02
	 2.50000000E+00	-9.24858000E+00	 2.00767000E+02
	 2.50000000E+00	-9.89983000E+00	 1.99735000E+02
	 2.50000000E+00	-9.20257000E+00	 1.99769000E+02
	 0.00000000E+00	-1.16279000E+01	 2.01665000E+02
	 0.00000000E+00	-1.15704000E+01	 2.00667000E+02
	 0.00000000E+00	-1.09239000E+01	 2.01704000E+02
	 0.00000000E+00	-1.08698000E+01	 2.00706000E+02
	 0.00000000E+00	-1.15128000E+01	 1.99668000E+02
	 0.00000000E+00	-1.08158000E+01	 1.99707000E+02
	 1.00000000E+01	-5.29925000E+00	 1.12370000E+02
	 1.00000000E+01	-4.44931000E+00	 1.12409000E+02
	 1.00000000E+01	-4.36194000E+00	 9.99048000E+01
	 7.50000000E+00	-5.88191000E+00	 1.12337000E+02
	 7.50000000E+00	-5.03220000E+00	 1.12380000E+02
	 7.50000000E+00	-4.79767000E+00	 9.98820000E+01
	 1.00000000E+01	-3.59908000E+00	 1.12441000E+02
	 1.00000000E+01	-3.48995000E+00	 9.99391000E+01
	 7.50000000E+00	-4.18215000E+00	 1.12416000E+02
	 7.50000000E+00	-3.92586000E+00	 9.99200000E+01
	 5.00000000E+00	-6.46458000E+00	 1.12305000E+02
	 5.00000000E+00	-5.61508000E+00	 1.12352000E+02
	 5.00000000E+00	-5.23340000E+00	 9.98591000E+01
	 5.00000000E+00	-4.76522000E+00	 1.12392000E+02
	 5.00000000E+00	-4.36177000E+00	 9.99010000E+01
	 2.50000000E+00	-7.04724000E+00	 1.12273000E+02
	 2.50000000E+00	-6.19797000E+00	 1.12324000E+02
	 2.50000000E+00	-5.66913000E+00	 9.98363000E+01
	 2.50000000E+00	-5.34830000E+00	 1.12368000E+02
	 2.50000000E+00	-4.79769000E+00	 9.98820000E+01
	 0.00000000E+00	-7.62991000E+00	 1.12240000E+02
	 0.00000000E+00	-6.78085000E+00	 1.12295000E+02
	 0.00000000E+00	-6.10486000E+00	 9.98135000E+01
	 0.00000000E+00	-5.93137000E+00	 1.12343000E+02
	 0.00000000E+00	-5.23360000E+00	 9.98630000E+01
	 1.00000000E+01	-5.36490000E+00	 1.24876000E+02
	 1.00000000E+01	-4.53668000E+00	 1.24913000E+02
	 7.50000000E+00	-6.09471000E+00	 1.24838000E+02
	 7.50000000E+00	-5.26672000E+00	 1.24879000E+02
	 1.00000000E+01	-3.70821000E+00	 1.24942000E+02
	 7.50000000E+00	-4.43844000E+00	 1.24913000E+02
	 5.00000000E+00	-6.82453000E+00	 1.24800000E+02
	 5.00000000E+00	-5.99676000E+00	 1.24845000E+02
	 5.00000000E+00	-5.16867000E+00	 1.24883000E+02
	 2.50000000E+00	-7.55435000E+00	 1.24762000E+02
	 2.50000000E+00	-6.72680000E+00	 1.24811000E+02
	 2.50000000E+00	-5.89891000E+00	 1.24854000E+02
	 0.00000000E+00	-8.28417000E+00	 1.24724000E+02
	 8.88178000E-16	-7.45684000E+00	 1.24777000E+02
	 0.00000000E+00	-6.62914000E+00	 1.24824000E+02
	 1.00000000E+01	-5.43055000E+00	 1.37383000E+02
	 1.00000000E+01	-4.62406000E+00	 1.37417000E+02
	 7.50000000E+00	-6.30752000E+00	 1.37339000E+02
	 7.50000000E+00	-5.50125000E+00	 1.37377000E+02
	 1.00000000E+01	-3.81734000E+00	 1.37444000E+02
	 7.50000000E+00	-4.69473000E+00	 1.37409000E+02
	 5.00000000E+00	-7.18448000E+00	 1.37296000E+02
	 5.00000000E+00	-6.37845000E+00	 1.37338000E+02
	 5.00000000E+00	-5.57212000E+00	 1.37374000E+02
	 2.50000000E+00	-8.06145000E+00	 1.37252000E+02
	 2.50000000E+00	-7.25564000E+00	 1.37298000E+02
	 2.50000000E+00	-6.44952000E+00	 1.37339000E+02
[...]
POINT_DATA 1001
FIELD SENFREQ 1
	SENFREQ 2 1001 double
		-6.58125000E+04	-1.56152000E-01
		-8.31833000E+04	-1.97368000E-01
		-1.01154000E+05	-2.40006000E-01
		-6.83836000E+04	-1.62252000E-01
		-9.12807000E+04	-2.16580000E-01
		-1.14779000E+05	-2.72335000E-01
		 0.00000000E+00	 0.00000000E+00
		-8.40976000E+04	-1.99537000E-01
		-9.41228000E+04	-2.23323000E-01
		-6.64632000E+04	-1.57696000E-01
		 0.00000000E+00	 0.00000000E+00
		-8.25667000E+04	-1.95904000E-01
		-5.40295000E+04	-1.28195000E-01
		-6.64596000E+04	-1.57687000E-01
		-7.42861000E+04	-1.76257000E-01
		-5.18505000E+04	-1.23025000E-01
		-2.97619000E+04	-7.06156000E-02
		-2.50842000E+04	-5.95169000E-02
		-9.27886000E+04	-2.20158000E-01
		-1.06299000E+05	-2.52214000E-01
		-1.31483000E+05	-3.11968000E-01
		 0.00000000E+00	 0.00000000E+00
		-9.31546000E+04	-2.21026000E-01
		 0.00000000E+00	 0.00000000E+00
		-7.54752000E+04	-1.79078000E-01
		-7.96115000E+04	-1.88893000E-01
		-3.10281000E+04	-7.36198000E-02
		-1.04879000E+05	-2.48844000E-01
		-1.13900000E+05	-2.70249000E-01
		-1.52251000E+05	-3.61243000E-01
		 0.00000000E+00	 0.00000000E+00
		-9.33758000E+04	-2.21551000E-01
		 0.00000000E+00	 0.00000000E+00
		-8.69938000E+04	-2.06409000E-01
		-8.73147000E+04	-2.07170000E-01
		-3.22280000E+04	-7.64668000E-02
		-1.16323000E+05	-2.75998000E-01
		-1.20318000E+05	-2.85477000E-01
		-1.30018000E+05	-3.08490000E-01
		 0.00000000E+00	 0.00000000E+00
		-9.42006000E+04	-2.23508000E-01
		 0.00000000E+00	 0.00000000E+00
		-9.82425000E+04	-2.33098000E-01
		-9.39102000E+04	-2.22819000E-01
		-3.27230000E+04	-7.76412000E-02
		 0.00000000E+00	 0.00000000E+00
		 0.00000000E+00	 0.00000000E+00
		 2.66739000E+02	 6.32886000E-04
		 1.22067000E+02	 2.89626000E-04
		 0.00000000E+00	 0.00000000E+00
		 0.00000000E+00	 0.00000000E+00
		 0.00000000E+00	 0.00000000E+00
		 1.73008000E+03	 4.10492000E-03
		 3.27535000E+02	 7.77135000E-04
		 1.26601000E+02	 3.00383000E-04
		 0.00000000E+00	 0.00000000E+00
		 1.97311000E+02	 4.68155000E-04
		 0.00000000E+00	 0.00000000E+00
		 0.00000000E+00	 0.00000000E+00
		 0.00000000E+00	 0.00000000E+00
		-9.24967000E+02	-2.19465000E-03
		 0.00000000E+00	 0.00000000E+00
		 2.33877000E+02	 5.54916000E-04
		 0.00000000E+00	 0.00000000E+00
		 0.00000000E+00	 0.00000000E+00
		 0.00000000E+00	 0.00000000E+00
		-7.95764000E+02	-1.88809000E-03
		 0.00000000E+00	 0.00000000E+00
		 3.26491000E+02	 7.74660000E-04
		 0.00000000E+00	 0.00000000E+00
		 0.00000000E+00	 0.00000000E+00
		 0.00000000E+00	 0.00000000E+00
		-4.38662000E+02	-1.04080000E-03
		 0.00000000E+00	 0.00000000E+00
		 4.13944000E+02	 9.82156000E-04
		 0.00000000E+00	 0.00000000E+00
		 8.33594000E+02	 1.97785000E-03
		 0.00000000E+00	 0.00000000E+00
		 0.00000000E+00	 0.00000000E+00
		 1.17043000E+03	 2.77706000E-03
		 0.00000000E+00	 0.00000000E+00
		 0.00000000E+00	 0.00000000E+00
		 0.00000000E+00	 0.00000000E+00
		 0.00000000E+00	 0.00000000E+00
		 0.00000000E+00	 0.00000000E+00
		 0.00000000E+00	 0.00000000E+00
		 0.00000000E+00	 0.00000000E+00
		 0.00000000E+00	 0.00000000E+00
		 0.00000000E+00	 0.00000000E+00
		 0.00000000E+00	 0.00000000E+00
		 0.00000000E+00	 0.00000000E+00
		 1.31562000E+04	 3.12156000E-02
		 0.00000000E+00	 0.00000000E+00
		 0.00000000E+00	 0.00000000E+00
		 6.43642000E+03	 1.52716000E-02
		 0.00000000E+00	 0.00000000E+00
		 0.00000000E+00	 0.00000000E+00
		 0.00000000E+00	 0.00000000E+00
		 0.00000000E+00	 0.00000000E+00
		 0.00000000E+00	 0.00000000E+00
		 0.00000000E+00	 0.00000000E+00
		 0.00000000E+00	 0.00000000E+00
		 0.00000000E+00	 0.00000000E+00
		 0.00000000E+00	 0.00000000E+00
		 0.00000000E+00	 0.00000000E+00
		 0.00000000E+00	 0.00000000E+00
		 2.82017000E+04	 6.69136000E-02
		 0.00000000E+00	 0.00000000E+00
		 5.27491000E+04	 1.25157000E-01
		 1.33979000E+05	 3.17889000E-01
		 3.68125000E+05	 8.73442000E-01
		 0.00000000E+00	 0.00000000E+00
		 8.03489000E+04	 1.90642000E-01
		 4.09735000E+05	 9.72171000E-01
		 0.00000000E+00	 0.00000000E+00
		 8.38442000E+04	 1.98936000E-01
		 4.20844000E+05	 9.98529000E-01
		 0.00000000E+00	 0.00000000E+00
		 8.59523000E+04	 2.03937000E-01
		 4.21464000E+05	 1.00000000E+00
		-9.61790000E+04	-2.28202000E-01
		-6.91045000E+04	-1.63963000E-01
		 0.00000000E+00	 0.00000000E+00
		-8.58078000E+04	-2.03595000E-01
		-1.01846000E+05	-2.41649000E-01
		-7.39685000E+04	-1.75504000E-01
		 0.00000000E+00	 0.00000000E+00
		-9.38236000E+04	-2.22613000E-01
		 0.00000000E+00	 0.00000000E+00
		-2.57361000E+04	-6.10636000E-02
		-3.22998000E+04	-7.66371000E-02
		-8.52999000E+03	-2.02390000E-02
		-9.25602000E+04	-2.19616000E-01
		 0.00000000E+00	 0.00000000E+00
		-9.67048000E+04	-2.29450000E-01
		 0.00000000E+00	 0.00000000E+00
		 0.00000000E+00	 0.00000000E+00
		-3.91277000E+04	-9.28376000E-02
		-8.94597000E+04	-2.12259000E-01
		 0.00000000E+00	 0.00000000E+00
		-9.30419000E+04	-2.20759000E-01
		 0.00000000E+00	 0.00000000E+00
		 0.00000000E+00	 0.00000000E+00
		-3.93397000E+04	-9.33406000E-02
		-8.74035000E+04	-2.07381000E-01
		 0.00000000E+00	 0.00000000E+00
		-9.04110000E+04	-2.14516000E-01
		 0.00000000E+00	 0.00000000E+00
		 0.00000000E+00	 0.00000000E+00
		-4.09338000E+04	-9.71228000E-02
		 3.80069000E+04	 9.01783000E-02
		 5.44496000E+04	 1.29192000E-01
		 1.32405000E+05	 3.14154000E-01
		 4.01052000E+04	 9.51568000E-02
		 0.00000000E+00	 0.00000000E+00
		 0.00000000E+00	 0.00000000E+00
		 2.03868000E+04	 4.83714000E-02
		 6.82051000E+04	 1.61829000E-01
		 2.42357000E+04	 5.75036000E-02
		 3.14724000E+05	 7.46740000E-01
		 3.81788000E+04	 9.05862000E-02
		 0.00000000E+00	 0.00000000E+00
		 0.00000000E+00	 0.00000000E+00
		 1.95498000E+04	 4.63855000E-02
		 3.20053000E+05	 7.59384000E-01
		 3.80108000E+04	 9.01876000E-02
		 0.00000000E+00	 0.00000000E+00
		 0.00000000E+00	 0.00000000E+00
		 1.76145000E+04	 4.17937000E-02
		 2.91629000E+05	 6.91944000E-01
		 3.67869000E+04	 8.72836000E-02
		 0.00000000E+00	 0.00000000E+00
		 0.00000000E+00	 0.00000000E+00
		 1.76631000E+04	 4.19088000E-02
		 2.69961000E+05	 6.40530000E-01
		-4.46239000E+04	-1.05878000E-01
		-3.23002000E+04	-7.66381000E-02
		-6.29785000E+04	-1.49428000E-01
		 0.00000000E+00	 0.00000000E+00
		-2.78570000E+04	-6.60957000E-02
		-5.61617000E+04	-1.33254000E-01
		-6.35953000E+04	-1.50891000E-01
		 0.00000000E+00	 0.00000000E+00
		-6.06212000E+04	-1.43835000E-01
		-6.32447000E+04	-1.50059000E-01
		 0.00000000E+00	 0.00000000E+00
		-6.31674000E+04	-1.49876000E-01
		-6.19379000E+04	-1.46959000E-01
		 0.00000000E+00	 0.00000000E+00
		-6.37892000E+04	-1.51351000E-01
		-5.29132000E+04	-1.25546000E-01
		-3.25453000E+04	-7.72195000E-02
		-6.94711000E+04	-1.64833000E-01
		 0.00000000E+00	 0.00000000E+00
		-1.23211000E+03	-2.92341000E-03
		-2.15493000E+04	-5.11296000E-02
		-6.89644000E+04	-1.63631000E-01
		 0.00000000E+00	 0.00000000E+00
		-4.37673000E+04	-1.03846000E-01
		-6.26458000E+04	-1.48639000E-01
		 0.00000000E+00	 0.00000000E+00
		-5.83651000E+04	-1.38482000E-01
		-5.21016000E+04	-1.23620000E-01
		 0.00000000E+00	 0.00000000E+00
		-6.49858000E+04	-1.54191000E-01
		-2.34586000E+04	-5.56598000E-02
		 1.08706000E+04	 2.57924000E-02
		-3.36564000E+04	-7.98559000E-02
		 0.00000000E+00	 0.00000000E+00
		 4.60754000E+04	 1.09322000E-01
		 5.11416000E+04	 1.21343000E-01
		-3.17745000E+04	-7.53908000E-02
		 0.00000000E+00	 0.00000000E+00
		 9.69276000E+03	 2.29978000E-02
		-1.78649000E+04	-4.23877000E-02
		 0.00000000E+00	 0.00000000E+00
		-1.75084000E+04	-4.15420000E-02
		 3.66072000E+03	 8.68573000E-03
		 0.00000000E+00	 0.00000000E+00
		-3.01666000E+04	-7.15757000E-02
		 1.43978000E+04	 3.41615000E-02
		 5.91344000E+04	 1.40307000E-01
		 8.95939000E+03	 2.12578000E-02
		 0.00000000E+00	 0.00000000E+00
		 7.14553000E+04	 1.69541000E-01
		 9.71392000E+04	 2.30480000E-01
		 1.05574000E+04	 2.50493000E-02
		 0.00000000E+00	 0.00000000E+00
		 5.12459000E+04	 1.21590000E-01
		 2.68813000E+04	 6.37808000E-02
		 0.00000000E+00	 0.00000000E+00
		 2.20823000E+04	 5.23943000E-02
		 5.19225000E+04	 1.23196000E-01
		 0.00000000E+00	 0.00000000E+00
		 9.25517000E+03	 2.19596000E-02
		 3.72838000E+04	 8.84624000E-02
		 7.79356000E+04	 1.84916000E-01
		 3.53413000E+04	 8.38536000E-02
		 0.00000000E+00	 0.00000000E+00
		 6.09385000E+04	 1.44588000E-01
		 9.12141000E+04	 2.16422000E-01
		 3.63872000E+04	 8.63352000E-02
		 0.00000000E+00	 0.00000000E+00
		 5.98596000E+04	 1.42028000E-01
		 4.78524000E+04	 1.13538000E-01
		 0.00000000E+00	 0.00000000E+00
		 4.07942000E+04	 9.67915000E-02
		 6.50895000E+04	 1.54437000E-01
		 0.00000000E+00	 0.00000000E+00
		 3.27082000E+04	 7.76062000E-02
		 1.95641000E+04	 4.64193000E-02
		 4.24965000E+04	 1.00831000E-01
		 1.88390000E+04	 4.46988000E-02
		 0.00000000E+00	 0.00000000E+00
		 2.14502000E+04	 5.08945000E-02
		 3.42906000E+04	 8.13607000E-02
		 2.05984000E+04	 4.88735000E-02
		 0.00000000E+00	 0.00000000E+00
		 2.49995000E+04	 5.93159000E-02
		 2.53295000E+04	 6.00987000E-02
		 0.00000000E+00	 0.00000000E+00
		 1.99235000E+04	 4.72720000E-02
		 3.06999000E+04	 7.28411000E-02
		 0.00000000E+00	 0.00000000E+00
		 1.77939000E+04	 4.22193000E-02
		 2.65667000E+02	 6.30342000E-04
		 1.25985000E+02	 2.98922000E-04
		 0.00000000E+00	 0.00000000E+00
		 1.71454000E+02	 4.06806000E-04
		 2.30795000E+02	 5.47603000E-04
		 1.31360000E+02	 3.11676000E-04
		 0.00000000E+00	 0.00000000E+00
		 1.55774000E+02	 3.69602000E-04
		 0.00000000E+00	 0.00000000E+00
		 2.17241000E+02	 5.15444000E-04
		 0.00000000E+00	 0.00000000E+00
		 2.20518000E+02	 5.23220000E-04
		 0.00000000E+00	 0.00000000E+00
		 3.57112000E+02	 8.47313000E-04
		 0.00000000E+00	 0.00000000E+00
		 3.32629000E+02	 7.89221000E-04
		 0.00000000E+00	 0.00000000E+00
		 5.15248000E+02	 1.22252000E-03
		 0.00000000E+00	 0.00000000E+00
		 3.98792000E+02	 9.46207000E-04
		 1.76903000E+03	 4.19734000E-03
		 0.00000000E+00	 0.00000000E+00
		 1.42255000E+03	 3.37525000E-03
		 0.00000000E+00	 0.00000000E+00
		 0.00000000E+00	 0.00000000E+00
		 0.00000000E+00	 0.00000000E+00
		 0.00000000E+00	 0.00000000E+00
		 0.00000000E+00	 0.00000000E+00
		 0.00000000E+00	 0.00000000E+00
		 0.00000000E+00	 0.00000000E+00
		 1.60800000E+04	 3.81527000E-02
		 0.00000000E+00	 0.00000000E+00
		 1.31499000E+04	 3.12006000E-02
		 0.00000000E+00	 0.00000000E+00
		 0.00000000E+00	 0.00000000E+00
		 0.00000000E+00	 0.00000000E+00
		 0.00000000E+00	 0.00000000E+00
		 0.00000000E+00	 0.00000000E+00
		 0.00000000E+00	 0.00000000E+00
		 0.00000000E+00	 0.00000000E+00
		-1.14748000E+05	-2.72261000E-01
		-8.54647000E+04	-2.02781000E-01
		 0.00000000E+00	 0.00000000E+00
		-1.11866000E+05	-2.65422000E-01
		-9.29874000E+04	-2.20629000E-01
		-7.57663000E+04	-1.79769000E-01
		-1.24254000E+05	-2.94816000E-01
		-5.16878000E+04	-1.22639000E-01
		-8.77027000E+04	-2.08091000E-01
		-6.92013000E+04	-1.64193000E-01
		-7.50319000E+04	-1.78027000E-01
		-6.25658000E+04	-1.48449000E-01
		-1.05375000E+05	-2.50021000E-01
		 0.00000000E+00	 0.00000000E+00
		-8.21209000E+04	-1.94847000E-01
		-1.07267000E+05	-2.54511000E-01
		-7.86112000E+04	-1.86519000E-01
		-6.48972000E+04	-1.53980000E-01
		-9.83651000E+04	-2.33389000E-01
		 0.00000000E+00	 0.00000000E+00
		-7.34597000E+04	-1.74296000E-01
		-9.41983000E+04	-2.23502000E-01
		-7.19915000E+04	-1.70813000E-01
		-5.72870000E+04	-1.35924000E-01
		-9.39408000E+04	-2.22891000E-01
		 0.00000000E+00	 0.00000000E+00
		-6.48540000E+04	-1.53878000E-01
		-6.75636000E+04	-1.60307000E-01
		-6.84089000E+04	-1.62312000E-01
		-4.95746000E+04	-1.17625000E-01
		 5.19334000E+02	 1.23221000E-03
		 2.39563000E+02	 5.68406000E-04
		 0.00000000E+00	 0.00000000E+00
		 5.81661000E+02	 1.38010000E-03
		 0.00000000E+00	 0.00000000E+00
		 0.00000000E+00	 0.00000000E+00
		 0.00000000E+00	 0.00000000E+00
		 0.00000000E+00	 0.00000000E+00
		 0.00000000E+00	 0.00000000E+00
		 1.35751000E+03	 3.22095000E-03
		 0.00000000E+00	 0.00000000E+00
		 0.00000000E+00	 0.00000000E+00
		 0.00000000E+00	 0.00000000E+00
		 1.46090000E+03	 3.46626000E-03
		 0.00000000E+00	 0.00000000E+00
		 0.00000000E+00	 0.00000000E+00
		 0.00000000E+00	 0.00000000E+00
		 1.33170000E+03	 3.15971000E-03
		 0.00000000E+00	 0.00000000E+00
		 0.00000000E+00	 0.00000000E+00
		 9.46562000E+02	 2.24589000E-03
		 0.00000000E+00	 0.00000000E+00
		 0.00000000E+00	 0.00000000E+00
		 0.00000000E+00	 0.00000000E+00
		 0.00000000E+00	 0.00000000E+00
		 0.00000000E+00	 0.00000000E+00
		 0.00000000E+00	 0.00000000E+00
		 0.00000000E+00	 0.00000000E+00
		 0.00000000E+00	 0.00000000E+00
		 0.00000000E+00	 0.00000000E+00
		 5.68627000E+03	 1.34917000E-02
		 0.00000000E+00	 0.00000000E+00
		 0.00000000E+00	 0.00000000E+00
		 0.00000000E+00	 0.00000000E+00
		 0.00000000E+00	 0.00000000E+00
		 0.00000000E+00	 0.00000000E+00
		 0.00000000E+00	 0.00000000E+00
		 0.00000000E+00	 0.00000000E+00
		 0.00000000E+00	 0.00000000E+00
		 0.00000000E+00	 0.00000000E+00
		 1.37688000E+04	 3.26689000E-02
		 2.74578000E+04	 6.51486000E-02
		 0.00000000E+00	 0.00000000E+00
		 0.00000000E+00	 0.00000000E+00
		 2.97240000E+04	 7.05255000E-02
		 0.00000000E+00	 0.00000000E+00
		 3.07300000E+04	 7.29126000E-02
		 0.00000000E+00	 0.00000000E+00
		 2.98857000E+04	 7.09093000E-02
		 0.00000000E+00	 0.00000000E+00
		-5.08295000E+04	-1.20602000E-01
		-6.12737000E+04	-1.45383000E-01
		-7.41443000E+04	-1.75921000E-01
		-6.99774000E+04	-1.66034000E-01
		-7.04877000E+04	-1.67245000E-01
		-1.01953000E+05	-2.41902000E-01
		 0.00000000E+00	 0.00000000E+00
		 0.00000000E+00	 0.00000000E+00
		-4.13213000E+04	-9.80424000E-02
		-4.27686000E+04	-1.01476000E-01
		 0.00000000E+00	 0.00000000E+00
		 0.00000000E+00	 0.00000000E+00
		-6.45768000E+04	-1.53220000E-01
		-7.68334000E+04	-1.82301000E-01
		-9.81196000E+04	-2.32807000E-01
		-9.32765000E+04	-2.21315000E-01
		-8.92679000E+04	-2.11804000E-01
		-8.80953000E+04	-2.09022000E-01
		-7.18808000E+04	-1.70550000E-01
		-8.05135000E+04	-1.91033000E-01
		-1.21506000E+05	-2.88294000E-01
		 0.00000000E+00	 0.00000000E+00
		-3.78695000E+04	-8.98522000E-02
		 0.00000000E+00	 0.00000000E+00
		-8.87785000E+04	-2.10643000E-01
		-1.05736000E+05	-2.50877000E-01
		-9.10032000E+04	-2.15922000E-01
		-8.53533000E+04	-2.02516000E-01
		-8.84178000E+04	-2.09787000E-01
		-1.46656000E+05	-3.47967000E-01
		 0.00000000E+00	 0.00000000E+00
		-3.58210000E+04	-8.49918000E-02
		 0.00000000E+00	 0.00000000E+00
		-1.02510000E+05	-2.43224000E-01
		-1.14392000E+05	-2.71417000E-01
		-9.29079000E+04	-2.20441000E-01
		 0.00000000E+00	 0.00000000E+00
		 0.00000000E+00	 0.00000000E+00
		 0.00000000E+00	 0.00000000E+00
		 1.06775000E+02	 2.53342000E-04
		 0.00000000E+00	 0.00000000E+00
		 2.82758000E+02	 6.70895000E-04
		 0.00000000E+00	 0.00000000E+00
		 0.00000000E+00	 0.00000000E+00
		 0.00000000E+00	 0.00000000E+00
		 4.10946000E+02	 9.75043000E-04
		 0.00000000E+00	 0.00000000E+00
		 2.45563000E+02	 5.82643000E-04
		 0.00000000E+00	 0.00000000E+00
		 0.00000000E+00	 0.00000000E+00
		 0.00000000E+00	 0.00000000E+00
		 5.99610000E+02	 1.42268000E-03
		 0.00000000E+00	 0.00000000E+00
		 2.17033000E+02	 5.14950000E-04
		 0.00000000E+00	 0.00000000E+00
		 0.00000000E+00	 0.00000000E+00
		 0.00000000E+00	 0.00000000E+00
		 7.68915000E+02	 1.82439000E-03
		 0.00000000E+00	 0.00000000E+00
		 1.93370000E+02	 4.58806000E-04
		 0.00000000E+00	 0.00000000E+00
		 0.00000000E+00	 0.00000000E+00
		 0.00000000E+00	 0.00000000E+00
		 0.00000000E+00	 0.00000000E+00
		 0.00000000E+00	 0.00000000E+00
		 0.00000000E+00	 0.00000000E+00
		 0.00000000E+00	 0.00000000E+00
		 0.00000000E+00	 0.00000000E+00
		 0.00000000E+00	 0.00000000E+00
		 0.00000000E+00	 0.00000000E+00
		 0.00000000E+00	 0.00000000E+00
		 0.00000000E+00	 0.00000000E+00
		 0.00000000E+00	 0.00000000E+00
		 0.00000000E+00	 0.00000000E+00
		 0.00000000E+00	 0.00000000E+00
		 0.00000000E+00	 0.00000000E+00
		 0.00000000E+00	 0.00000000E+00
		 0.00000000E+00	 0.00000000E+00
		 0.00000000E+00	 0.00000000E+00
		 0.00000000E+00	 0.00000000E+00
		 0.00000000E+00	 0.00000000E+00
		 0.00000000E+00	 0.00000000E+00
		 0.00000000E+00	 0.00000000E+00
		 0.00000000E+00	 0.00000000E+00
		 0.00000000E+00	 0.00000000E+00
		 7.12906000E+04	 1.69150000E-01
		 3.93625000E+05	 9.33947000E-01
		 0.00000000E+00	 0.00000000E+00
		 5.95103000E+04	 1.41199000E-01
		 3.71666000E+05	 8.81845000E-01
		 0.00000000E+00	 0.00000000E+00
		 5.14648000E+04	 1.22109000E-01
		 3.52297000E+05	 8.35889000E-01
		 0.00000000E+00	 0.00000000E+00
		 4.16671000E+04	 9.88628000E-02
		 3.30849000E+05	 7.84999000E-01
		 0.00000000E+00	 0.00000000E+00
		 0.00000000E+00	 0.00000000E+00
		 0.00000000E+00	 0.00000000E+00
		 0.00000000E+00	 0.00000000E+00
		-3.59324000E+04	-8.52562000E-02
		-3.43529000E+04	-8.15084000E-02
		 0.00000000E+00	 0.00000000E+00
		 0.00000000E+00	 0.00000000E+00
		-8.58719000E+04	-2.03747000E-01
		-8.51613000E+04	-2.02061000E-01
		-8.82456000E+04	-2.09379000E-01
		-8.78275000E+04	-2.08387000E-01
		 0.00000000E+00	 0.00000000E+00
		 0.00000000E+00	 0.00000000E+00
		-3.84008000E+04	-9.11129000E-02
		 0.00000000E+00	 0.00000000E+00
		-8.64979000E+04	-2.05232000E-01
		-8.86402000E+04	-2.10315000E-01
		 0.00000000E+00	 0.00000000E+00
		 0.00000000E+00	 0.00000000E+00
		-4.05799000E+04	-9.62831000E-02
		 0.00000000E+00	 0.00000000E+00
		-8.68629000E+04	-2.06098000E-01
		-8.92143000E+04	-2.11677000E-01
		 3.25317000E+04	 7.71873000E-02
		 0.00000000E+00	 0.00000000E+00
		 0.00000000E+00	 0.00000000E+00
		 1.88659000E+04	 4.47627000E-02
		 2.78899000E+05	 6.61738000E-01
		 2.86933000E+04	 6.80801000E-02
		 0.00000000E+00	 0.00000000E+00
		 0.00000000E+00	 0.00000000E+00
		 2.11939000E+04	 5.02863000E-02
		 2.83830000E+05	 6.73439000E-01
		 2.59919000E+04	 6.16705000E-02
		 0.00000000E+00	 0.00000000E+00
		 0.00000000E+00	 0.00000000E+00
		 2.41113000E+04	 5.72083000E-02
		 2.87292000E+05	 6.81652000E-01
		 2.31533000E+04	 5.49353000E-02
		 0.00000000E+00	 0.00000000E+00
		 0.00000000E+00	 0.00000000E+00
		 2.85614000E+04	 6.77670000E-02
		 2.92043000E+05	 6.92924000E-01
		-6.07413000E+04	-1.44120000E-01
		 0.00000000E+00	 0.00000000E+00
		-6.29366000E+04	-1.49328000E-01
		-5.88092000E+04	-1.39536000E-01
		 0.00000000E+00	 0.00000000E+00
		-6.12666000E+04	-1.45366000E-01
		-5.62505000E+04	-1.33464000E-01
		 0.00000000E+00	 0.00000000E+00
		-5.90296000E+04	-1.40058000E-01
		-5.33526000E+04	-1.26589000E-01
		 0.00000000E+00	 0.00000000E+00
		-5.61652000E+04	-1.33262000E-01
		-4.72794000E+04	-1.12179000E-01
		 0.00000000E+00	 0.00000000E+00
		-6.54517000E+04	-1.55296000E-01
		-4.37919000E+04	-1.03904000E-01
		 0.00000000E+00	 0.00000000E+00
		-6.49922000E+04	-1.54206000E-01
		-3.98924000E+04	-9.46520000E-02
		 0.00000000E+00	 0.00000000E+00
		-6.44512000E+04	-1.52922000E-01
		-3.74754000E+04	-8.89171000E-02
		 0.00000000E+00	 0.00000000E+00
		-6.34016000E+04	-1.50432000E-01
		 1.04779000E+04	 2.48607000E-02
		 0.00000000E+00	 0.00000000E+00
		-3.19682000E+04	-7.58504000E-02
		 1.35228000E+04	 3.20854000E-02
		 0.00000000E+00	 0.00000000E+00
		-3.22629000E+04	-7.65495000E-02
		 1.76961000E+04	 4.19873000E-02
		 0.00000000E+00	 0.00000000E+00
		-3.24420000E+04	-7.69746000E-02
		 1.80265000E+04	 4.27712000E-02
		 0.00000000E+00	 0.00000000E+00
		-3.19394000E+04	-7.57820000E-02
		 5.90714000E+04	 1.40157000E-01
		 0.00000000E+00	 0.00000000E+00
		 7.82141000E+03	 1.85577000E-02
		 6.15126000E+04	 1.45950000E-01
		 0.00000000E+00	 0.00000000E+00
		 7.78419000E+03	 1.84694000E-02
		 6.55358000E+04	 1.55496000E-01
		 0.00000000E+00	 0.00000000E+00
		 7.91586000E+03	 1.87818000E-02
		 6.43871000E+04	 1.52770000E-01
		 0.00000000E+00	 0.00000000E+00
		 8.46609000E+03	 2.00873000E-02
		 6.95490000E+04	 1.65018000E-01
		 0.00000000E+00	 0.00000000E+00
		 3.22196000E+04	 7.64468000E-02
		 7.12573000E+04	 1.69071000E-01
		 0.00000000E+00	 0.00000000E+00
		 3.27547000E+04	 7.77164000E-02
		 7.42731000E+04	 1.76226000E-01
		 0.00000000E+00	 0.00000000E+00
		 3.36072000E+04	 7.97391000E-02
		 7.31311000E+04	 1.73517000E-01
		 0.00000000E+00	 0.00000000E+00
		 3.41380000E+04	 8.09986000E-02
		 3.20030000E+04	 7.59329000E-02