<?xml version="1.0"?>
<VTKFile type="UnstructuredGrid" version="0.1" byte_order="LittleEndian">
	<UnstructuredGrid>
		<Piece NumberOfPoints="1001" NumberOfCells="624">
			<Points>
				<DataArray type="Float64" NumberOfComponents="3" format="ascii">
					 1.00000000E+01	-1.49699000E+01	 2.01445000E+02
					 7.50000000E+00	-1.74693000E+01	 2.01196000E+02
					 7.50000000E+00	-1.24616000E+01	 2.01583000E+02
					 1.00000000E+01	-1.03958000E+01	 2.01732000E+02
					 1.00000000E+01	-1.48958000E+01	 2.00447000E+02
					 7.50000000E+00	-1.73828000E+01	 2.00200000E+02
					 7.50000000E+00	-1.23999000E+01	 2.00585000E+02
					 1.00000000E+01	-1.03444000E+01	 2.00734000E+02
					 7.50000000E+00	-7.44523000E+00	 2.01843000E+02
					 1.00000000E+01	-5.81638000E+00	 2.01916000E+02
					 7.50000000E+00	-7.40838000E+00	 2.00844000E+02
					 1.00000000E+01	-5.78758000E+00	 2.00917000E+02
					 1.00000000E+01	-1.48217000E+01	 1.99450000E+02
					 7.50000000E+00	-1.72963000E+01	 1.99204000E+02
					 7.50000000E+00	-1.23382000E+01	 1.99587000E+02
					 1.00000000E+01	-1.02929000E+01	 1.99735000E+02
					 7.50000000E+00	-7.37152000E+00	 1.99845000E+02
					 1.00000000E+01	-5.75879000E+00	 1.99917000E+02
					 5.00000000E+00	-1.99687000E+01	 2.00948000E+02
					 5.00000000E+00	-1.45273000E+01	 2.01434000E+02
					 5.00000000E+00	-1.98698000E+01	 1.99953000E+02
					 5.00000000E+00	-1.44554000E+01	 2.00437000E+02
					 5.00000000E+00	-9.07409000E+00	 2.01770000E+02
					 5.00000000E+00	-9.02917000E+00	 2.00771000E+02
					 5.00000000E+00	-1.97710000E+01	 1.98958000E+02
					 5.00000000E+00	-1.43835000E+01	 1.99440000E+02
					 5.00000000E+00	-8.98425000E+00	 1.99772000E+02
					 2.50000000E+00	-2.24681000E+01	 2.00699000E+02
					 2.50000000E+00	-1.65931000E+01	 2.01285000E+02
					 2.50000000E+00	-2.23569000E+01	 1.99706000E+02
					 2.50000000E+00	-1.65110000E+01	 2.00289000E+02
					 2.50000000E+00	-1.07029000E+01	 2.01696000E+02
					 2.50000000E+00	-1.06500000E+01	 2.00698000E+02
					 2.50000000E+00	-2.22456000E+01	 1.98712000E+02
					 2.50000000E+00	-1.64288000E+01	 1.99292000E+02
					 2.50000000E+00	-1.05970000E+01	 1.99699000E+02
					 0.00000000E+00	-2.49675000E+01	 2.00451000E+02
					 0.00000000E+00	-1.86589000E+01	 2.01136000E+02
					 0.00000000E+00	-2.48439000E+01	 1.99459000E+02
					 8.88178000E-16	-1.85665000E+01	 2.00141000E+02
					 0.00000000E+00	-1.23318000E+01	 2.01623000E+02
					 0.00000000E+00	-1.22708000E+01	 2.00625000E+02
					 0.00000000E+00	-2.47203000E+01	 1.98466000E+02
					 0.00000000E+00	-1.84741000E+01	 1.99145000E+02
					 0.00000000E+00	-1.22097000E+01	 1.99627000E+02
					 1.00000000E+01	-5.22936000E+00	 5.97717000E+01
					 1.00000000E+01	-6.10091000E+00	 6.97336000E+01
					 1.00000000E+01	-4.88296000E+00	 6.98295000E+01
					 1.00000000E+01	-4.18540000E+00	 5.98538000E+01
					 7.50000000E+00	-5.22936000E+00	 5.97717000E+01
					 7.50000000E+00	-6.20949000E+00	 6.97232000E+01
					 7.50000000E+00	-4.99171000E+00	 6.98209000E+01
					 7.50000000E+00	-4.18540000E+00	 5.98538000E+01
					 1.00000000E+01	-3.66352000E+00	 6.99041000E+01
					 1.00000000E+01	-3.14016000E+00	 5.99178000E+01
					 7.50000000E+00	-3.77240000E+00	 6.98974000E+01
					 7.50000000E+00	-3.14016000E+00	 5.99178000E+01
					 5.00000000E+00	-5.22936000E+00	 5.97717000E+01
					 5.00000000E+00	-6.31807000E+00	 6.97127000E+01
					 5.00000000E+00	-5.10045000E+00	 6.98124000E+01
					 5.00000000E+00	-4.18540000E+00	 5.98538000E+01
					 5.00000000E+00	-3.88128000E+00	 6.98908000E+01
					 5.00000000E+00	-3.14016000E+00	 5.99178000E+01
					 2.50000000E+00	-5.22936000E+00	 5.97717000E+01
					 2.50000000E+00	-6.42665000E+00	 6.97023000E+01
					 2.50000000E+00	-5.20920000E+00	 6.98038000E+01
					 2.50000000E+00	-4.18540000E+00	 5.98538000E+01
					 2.50000000E+00	-3.99015000E+00	 6.98841000E+01
					 2.50000000E+00	-3.14016000E+00	 5.99178000E+01
					 0.00000000E+00	-5.22936000E+00	 5.97717000E+01
					 0.00000000E+00	-6.53523000E+00	 6.96918000E+01
					 0.00000000E+00	-5.31794000E+00	 6.97952000E+01
					 0.00000000E+00	-4.18540000E+00	 5.98538000E+01
					 0.00000000E+00	-4.09903000E+00	 6.98774000E+01
					 0.00000000E+00	-3.14016000E+00	 5.99178000E+01
					 1.00000000E+01	-6.97247000E+00	 7.96956000E+01
					 1.00000000E+01	-5.58052000E+00	 7.98051000E+01
					 7.50000000E+00	-7.18962000E+00	 7.96747000E+01
					 7.50000000E+00	-5.79801000E+00	 7.97880000E+01
					 1.00000000E+01	-4.18688000E+00	 7.98904000E+01
					 7.50000000E+00	-4.40464000E+00	 7.98770000E+01
					 5.00000000E+00	-7.40678000E+00	 7.96538000E+01
					 5.00000000E+00	-6.01550000E+00	 7.97709000E+01
					 5.00000000E+00	-4.62239000E+00	 7.98637000E+01
					 2.50000000E+00	-7.62394000E+00	 7.96328000E+01
					 2.50000000E+00	-6.23299000E+00	 7.97538000E+01
					 2.50000000E+00	-4.84015000E+00	 7.98504000E+01
					 0.00000000E+00	-7.84110000E+00	 7.96119000E+01
					 8.88178000E-16	-6.45048000E+00	 7.97367000E+01
					 0.00000000E+00	-5.05791000E+00	 7.98371000E+01
					 1.00000000E+01	-7.84402000E+00	 8.96575000E+01
					 1.00000000E+01	-6.27808000E+00	 8.97808000E+01
					 7.50000000E+00	-8.16976000E+00	 8.96262000E+01
					 7.50000000E+00	-6.60432000E+00	 8.97551000E+01
					 1.00000000E+01	-4.71024000E+00	 8.98767000E+01
					 7.50000000E+00	-5.03687000E+00	 8.98567000E+01
					 5.00000000E+00	-8.49549000E+00	 8.95948000E+01
					 5.00000000E+00	-6.93056000E+00	 8.97294000E+01
					 5.00000000E+00	-5.36351000E+00	 8.98367000E+01
					 2.50000000E+00	-8.82123000E+00	 8.95634000E+01
					 2.50000000E+00	-7.25679000E+00	 8.97037000E+01
					 2.50000000E+00	-5.69014000E+00	 8.98167000E+01
					 0.00000000E+00	-9.14697000E+00	 8.95321000E+01
					-8.88178000E-16	-7.58303000E+00	 8.96781000E+01
					 0.00000000E+00	-6.01678000E+00	 8.97967000E+01
					 1.00000000E+01	-8.71557000E+00	 9.96195000E+01
					 1.00000000E+01	-6.97565000E+00	 9.97564000E+01
					 7.50000000E+00	-9.14989000E+00	 9.95777000E+01
					 7.50000000E+00	-7.41063000E+00	 9.97222000E+01
					 1.00000000E+01	-5.23360000E+00	 9.98630000E+01
					 7.50000000E+00	-5.66911000E+00	 9.98363000E+01
					 5.00000000E+00	-9.58420000E+00	 9.95358000E+01
					 5.00000000E+00	-7.84561000E+00	 9.96879000E+01
					 5.00000000E+00	-6.10463000E+00	 9.98097000E+01
					 2.50000000E+00	-1.00185000E+01	 9.94940000E+01
					 2.50000000E+00	-8.28059000E+00	 9.96537000E+01
					 2.50000000E+00	-6.54014000E+00	 9.97830000E+01
					 0.00000000E+00	-1.04528000E+01	 9.94522000E+01
					 0.00000000E+00	-8.71557000E+00	 9.96195000E+01
					 0.00000000E+00	-6.97565000E+00	 9.97564000E+01
					 7.50000000E+00	-6.74063000E+00	 2.01868000E+02
					 1.00000000E+01	-5.11153000E+00	 2.01935000E+02
					 7.50000000E+00	-6.70726000E+00	 2.00868000E+02
					 1.00000000E+01	-5.08622000E+00	 2.00936000E+02
					 7.50000000E+00	-6.03594000E+00	 2.01890000E+02
					 1.00000000E+01	-4.40661000E+00	 2.01952000E+02
					 7.50000000E+00	-6.00606000E+00	 2.00891000E+02
					 1.00000000E+01	-4.38480000E+00	 2.00952000E+02
					 7.50000000E+00	-6.67389000E+00	 1.99869000E+02
					 1.00000000E+01	-5.06092000E+00	 1.99936000E+02
					 7.50000000E+00	-5.97617000E+00	 1.99891000E+02
					 1.00000000E+01	-4.36298000E+00	 1.99952000E+02
					 5.00000000E+00	-8.36973000E+00	 2.01800000E+02
					 5.00000000E+00	-8.32829000E+00	 2.00801000E+02
					 5.00000000E+00	-7.66527000E+00	 2.01828000E+02
					 5.00000000E+00	-7.62732000E+00	 2.00829000E+02
					 5.00000000E+00	-8.28686000E+00	 1.99802000E+02
					 5.00000000E+00	-7.58937000E+00	 1.99830000E+02
					 2.50000000E+00	-9.99883000E+00	 2.01733000E+02
					 2.50000000E+00	-9.94933000E+00	 2.00734000E+02
					 2.50000000E+00	-9.29459000E+00	 2.01766000E+02
					 2.50000000E+00	-9.24858000E+00	 2.00767000E+02
					 2.50000000E+00	-9.89983000E+00	 1.99735000E+02
					 2.50000000E+00	-9.20257000E+00	 1.99769000E+02
					 0.00000000E+00	-1.16279000E+01	 2.01665000E+02
					 0.00000000E+00	-1.15704000E+01	 2.00667000E+02
					 0.00000000E+00	-1.09239000E+01	 2.01704000E+02
					 0.00000000E+00	-1.08698000E+01	 2.00706000E+02
					 0.00000000E+00	-1.15128000E+01	 1.99668000E+02
					 0.00000000E+00	-1.08158000E+01	 1.99707000E+02
					 1.00000000E+01	-5.29925000E+00	 1.12370000E+02
					 1.00000000E+01	-4.44931000E+00	 1.12409000E+02
					 1.00000000E+01	-4.36194000E+00	 9.99048000E+01
					 7.50000000E+00	-5.88191000E+00	 1.12337000E+02
					 7.50000000E+00	-5.03220000E+00	 1.12380000E+02
					 7.50000000E+00	-4.79767000E+00	 9.98820000E+01
					 1.00000000E+01	-3.59908000E+00	 1.12441000E+02
					 1.00000000E+01	-3.48995000E+00	 9.99391000E+01
					 7.50000000E+00	-4.18215000E+00	 1.12416000E+02
					 7.50000000E+00	-3.92586000E+00	 9.99200000E+01
					 5.00000000E+00	-6.46458000E+00	 1.12305000E+02
					 5.00000000E+00	-5.61508000E+00	 1.12352000E+02
					 5.00000000E+00	-5.23340000E+00	 9.98591000E+01
					 5.00000000E+00	-4.76522000E+00	 1.12392000E+02
					 5.00000000E+00	-4.36177000E+00	 9.99010000E+01
					 2.50000000E+00	-7.04724000E+00	 1.12273000E+02
					 2.50000000E+00	-6.19797000E+00	 1.12324000E+02
					 2.50000000E+00	-5.66913000E+00	 9.98363000E+01
					 2.50000000E+00	-5.34830000E+00	 1.12368000E+02
					 2.50000000E+00	-4.79769000E+00	 9.98820000E+01
					 0.00000000E+00	-7.62991000E+00	 1.12240000E+02
					 0.00000000E+00	-6.78085000E+00	 1.12295000E+02
					 0.00000000E+00	-6.10486000E+00	 9.98135000E+01
					 0.00000000E+00	-5.93137000E+00	 1.12343000E+02
					 0.00000000E+00	-5.23360000E+00	 9.98630000E+01
					 1.00000000E+01	-5.36490000E+00	 1.24876000E+02
					 1.00000000E+01	-4.53668000E+00	 1.24913000E+02
					 7.50000000E+00	-6.09471000E+00	 1.24838000E+02
					 7.50000000E+00	-5.26672000E+00	 1.24879000E+02
					 1.00000000E+01	-3.70821000E+00	 1.24942000E+02
					 7.50000000E+00	-4.43844000E+00	 1.24913000E+02
					 5.00000000E+00	-6.82453000E+00	 1.24800000E+02
					 5.00000000E+00	-5.99676000E+00	 1.24845000E+02
[...]
			<PointData>
				<DataArray type="Float32" Name="SENFREQ" NumberOfComponents="2" ComponentName0="DFDN" ComponentName1="DFDNFIL" format="ascii">
					-3.05328000E+03	-2.85528000E-01
					-3.53969000E+03	-3.31014000E-01
					-5.03662000E+03	-4.71000000E-01
					-3.55894000E+03	-3.32814000E-01
					-4.56959000E+03	-4.27325000E-01
					-4.91358000E+03	-4.59494000E-01
					 0.00000000E+00	 0.00000000E+00
					-4.95659000E+03	-4.63516000E-01
					-5.03655000E+03	-4.70993000E-01
					-3.57367000E+03	-3.34192000E-01
					 0.00000000E+00	 0.00000000E+00
					-4.96969000E+03	-4.64741000E-01
					-3.01156000E+03	-2.81626000E-01
					-3.40532000E+03	-3.18449000E-01
					-4.76379000E+03	-4.45486000E-01
					-3.43185000E+03	-3.20930000E-01
					-2.80737000E+03	-2.62532000E-01
					-2.91222000E+03	-2.72336000E-01
					-3.51955000E+03	-3.29131000E-01
					-4.98081000E+03	-4.65781000E-01
					-4.88732000E+03	-4.57038000E-01
					 0.00000000E+00	 0.00000000E+00
					-4.97946000E+03	-4.65654000E-01
					 0.00000000E+00	 0.00000000E+00
					-3.35905000E+03	-3.14121000E-01
					-4.71196000E+03	-4.40640000E-01
					-2.64924000E+03	-2.47744000E-01
					-3.49659000E+03	-3.26984000E-01
					-4.92555000E+03	-4.60613000E-01
					-4.82550000E+03	-4.51257000E-01
					 0.00000000E+00	 0.00000000E+00
					-4.92229000E+03	-4.60308000E-01
					 0.00000000E+00	 0.00000000E+00
					-3.32108000E+03	-3.10571000E-01
					-4.66256000E+03	-4.36019000E-01
					-2.67179000E+03	-2.49852000E-01
					-3.57936000E+03	-3.34724000E-01
					-4.87790000E+03	-4.56157000E-01
					-3.71306000E+03	-3.47227000E-01
					 0.00000000E+00	 0.00000000E+00
					-4.86663000E+03	-4.55104000E-01
					 0.00000000E+00	 0.00000000E+00
					-3.42798000E+03	-3.20568000E-01
					-4.61664000E+03	-4.31726000E-01
					-2.68029000E+03	-2.50647000E-01
					 0.00000000E+00	 0.00000000E+00
					 0.00000000E+00	 0.00000000E+00
					 1.44952000E+01	 1.35552000E-03
					 2.25346000E+01	 2.10732000E-03
					 0.00000000E+00	 0.00000000E+00
					 0.00000000E+00	 0.00000000E+00
					 0.00000000E+00	 0.00000000E+00
					 2.37484000E+01	 2.22083000E-03
					 1.82063000E+00	 1.70256000E-04
					 8.63542000E-01	 8.07542000E-05
					 0.00000000E+00	 0.00000000E+00
					 1.44462000E+00	 1.35094000E-04
					 0.00000000E+00	 0.00000000E+00
					 0.00000000E+00	 0.00000000E+00
					 0.00000000E+00	 0.00000000E+00
					-8.90079000E-01	-8.32358000E-05
					 0.00000000E+00	 0.00000000E+00
					 1.45066000E+00	 1.35658000E-04
					 0.00000000E+00	 0.00000000E+00
					 0.00000000E+00	 0.00000000E+00
					 0.00000000E+00	 0.00000000E+00
					-2.64466000E-01	-2.47316000E-05
					 0.00000000E+00	 0.00000000E+00
					 1.59835000E+00	 1.49470000E-04
					 0.00000000E+00	 0.00000000E+00
					 0.00000000E+00	 0.00000000E+00
					 0.00000000E+00	 0.00000000E+00
					 1.37356000E+00	 1.28449000E-04
					 0.00000000E+00	 0.00000000E+00
					 2.04860000E+00	 1.91575000E-04
					 0.00000000E+00	 0.00000000E+00
					 4.80461000E+00	 4.49303000E-04
					 0.00000000E+00	 0.00000000E+00
					 0.00000000E+00	 0.00000000E+00
					 8.87404000E+00	 8.29857000E-04
					 0.00000000E+00	 0.00000000E+00
					 0.00000000E+00	 0.00000000E+00
					 0.00000000E+00	 0.00000000E+00
					 0.00000000E+00	 0.00000000E+00
					 0.00000000E+00	 0.00000000E+00
					 0.00000000E+00	 0.00000000E+00
					 0.00000000E+00	 0.00000000E+00
					 0.00000000E+00	 0.00000000E+00
					 0.00000000E+00	 0.00000000E+00
					 0.00000000E+00	 0.00000000E+00
					 0.00000000E+00	 0.00000000E+00
					 9.15339000E+01	 8.55980000E-03
					 0.00000000E+00	 0.00000000E+00
					 0.00000000E+00	 0.00000000E+00
					 1.32548000E+02	 1.23953000E-02
					 0.00000000E+00	 0.00000000E+00
					 0.00000000E+00	 0.00000000E+00
					 0.00000000E+00	 0.00000000E+00
					 0.00000000E+00	 0.00000000E+00
					 0.00000000E+00	 0.00000000E+00
					 0.00000000E+00	 0.00000000E+00
					 0.00000000E+00	 0.00000000E+00
					 0.00000000E+00	 0.00000000E+00
					 0.00000000E+00	 0.00000000E+00
					 0.00000000E+00	 0.00000000E+00
					 0.00000000E+00	 0.00000000E+00
					 2.64079000E+02	 2.46954000E-02
					 0.00000000E+00	 0.00000000E+00
					 6.09567000E+02	 5.70037000E-02
					 2.45535000E+03	 2.29612000E-01
					 6.27762000E+03	 5.87052000E-01
					 0.00000000E+00	 0.00000000E+00
					 8.92350000E+02	 8.34481000E-02
					 8.23191000E+03	 7.69808000E-01
					 0.00000000E+00	 0.00000000E+00
					 1.11363000E+03	 1.04141000E-01
					 9.54344000E+03	 8.92455000E-01
					 0.00000000E+00	 0.00000000E+00
					 1.28535000E+03	 1.20199000E-01
					 1.06641000E+04	 9.97250000E-01
					-5.03472000E+03	-4.70822000E-01
					-3.58331000E+03	-3.35093000E-01
					 0.00000000E+00	 0.00000000E+00
					-4.87322000E+03	-4.55719000E-01
					-5.06344000E+03	-4.73508000E-01
					-3.59479000E+03	-3.36167000E-01
					 0.00000000E+00	 0.00000000E+00
					-4.98865000E+03	-4.66514000E-01
					 0.00000000E+00	 0.00000000E+00
					-4.34909000E+03	-4.06706000E-01
					-2.88580000E+03	-2.69866000E-01
					-5.53227000E+02	-5.17350000E-02
					-4.99769000E+03	-4.67359000E-01
					 0.00000000E+00	 0.00000000E+00
					-4.98326000E+03	-4.66010000E-01
					 0.00000000E+00	 0.00000000E+00
					 0.00000000E+00	 0.00000000E+00
					-2.65286000E+03	-2.48082000E-01
					-4.93322000E+03	-4.61330000E-01
					 0.00000000E+00	 0.00000000E+00
					-4.93221000E+03	-4.61236000E-01
					 0.00000000E+00	 0.00000000E+00
					 0.00000000E+00	 0.00000000E+00
					-2.60413000E+03	-2.43526000E-01
					-4.87601000E+03	-4.55981000E-01
					 0.00000000E+00	 0.00000000E+00
					-4.86099000E+03	-4.54576000E-01
					 0.00000000E+00	 0.00000000E+00
					 0.00000000E+00	 0.00000000E+00
					-2.56738000E+03	-2.40088000E-01
					 3.69274000E+03	 3.45327000E-01
					 4.91601000E+03	 4.59721000E-01
					 4.33065000E+03	 4.04981000E-01
					 4.64535000E+03	 4.34410000E-01
					 0.00000000E+00	 0.00000000E+00
					 0.00000000E+00	 0.00000000E+00
					 3.94569000E+03	 3.68982000E-01
					 2.74295000E+03	 2.56508000E-01
					 5.91708000E+03	 5.53336000E-01
					 1.06192000E+04	 9.93059000E-01
					 4.69375000E+03	 4.38936000E-01
					 0.00000000E+00	 0.00000000E+00
					 0.00000000E+00	 0.00000000E+00
					 5.17483000E+03	 4.83924000E-01
					 9.98337000E+03	 9.33596000E-01
					 4.95576000E+03	 4.63438000E-01
					 0.00000000E+00	 0.00000000E+00
					 0.00000000E+00	 0.00000000E+00
					 4.67342000E+03	 4.37035000E-01
					 8.61184000E+03	 8.05337000E-01
					 5.24778000E+03	 4.90746000E-01
					 0.00000000E+00	 0.00000000E+00
					 0.00000000E+00	 0.00000000E+00
					 4.38392000E+03	 4.09963000E-01
					 7.41494000E+03	 6.93408000E-01
					 2.46281000E+03	 2.30310000E-01
					 3.58559000E+03	 3.35306000E-01
					 3.05795000E+03	 2.85964000E-01
					 0.00000000E+00	 0.00000000E+00
					 2.70678000E+03	 2.53124000E-01
					 4.16395000E+03	 3.89392000E-01
					 3.16169000E+03	 2.95666000E-01
					 0.00000000E+00	 0.00000000E+00
					 3.60710000E+03	 3.37318000E-01
					 3.36765000E+03	 3.14926000E-01
					 0.00000000E+00	 0.00000000E+00
					 3.16507000E+03	 2.95982000E-01
					 3.62145000E+03	 3.38660000E-01
					 0.00000000E+00	 0.00000000E+00
					 2.87072000E+03	 2.68456000E-01
					 1.41441000E+03	 1.32268000E-01
					 2.17120000E+03	 2.03040000E-01
					 1.68424000E+03	 1.57502000E-01
					 0.00000000E+00	 0.00000000E+00
					 1.58649000E+03	 1.48361000E-01
					 2.46268000E+03	 2.30297000E-01
					 1.75878000E+03	 1.64472000E-01
					 0.00000000E+00	 0.00000000E+00
					 2.07750000E+03	 1.94277000E-01
					 1.93655000E+03	 1.81097000E-01
					 0.00000000E+00	 0.00000000E+00
					 1.79725000E+03	 1.68070000E-01
					 2.15183000E+03	 2.01229000E-01
					 0.00000000E+00	 0.00000000E+00
					 1.63214000E+03	 1.52630000E-01
					 4.10281000E+02	 3.83674000E-02
					 8.23138000E+02	 7.69759000E-02
					 4.55020000E+02	 4.25513000E-02
					 0.00000000E+00	 0.00000000E+00
					 6.31046000E+02	 5.90123000E-02
					 9.38545000E+02	 8.77681000E-02
					 5.11731000E+02	 4.78546000E-02
					 0.00000000E+00	 0.00000000E+00
					 7.00682000E+02	 6.55244000E-02
					 6.42592000E+02	 6.00920000E-02
					 0.00000000E+00	 0.00000000E+00
					 5.43194000E+02	 5.07969000E-02
					 8.08391000E+02	 7.55967000E-02
					 0.00000000E+00	 0.00000000E+00
					 4.67881000E+02	 4.37540000E-02
					-5.86768000E+02	-5.48716000E-02
					-4.74442000E+02	-4.43674000E-02
					-7.12843000E+02	-6.66616000E-02
					 0.00000000E+00	 0.00000000E+00
					-1.92282000E+02	-1.79813000E-02
					-4.76198000E+02	-4.45317000E-02
					-6.66463000E+02	-6.23243000E-02
					 0.00000000E+00	 0.00000000E+00
					-5.89011000E+02	-5.50814000E-02
					-5.79334000E+02	-5.41765000E-02
					 0.00000000E+00	 0.00000000E+00
					-6.50956000E+02	-6.08742000E-02
					-4.66620000E+02	-4.36360000E-02
					 0.00000000E+00	 0.00000000E+00
					-6.58502000E+02	-6.15799000E-02
					-1.65872000E+03	-1.55115000E-01
					-1.85717000E+03	-1.73673000E-01
					-1.92856000E+03	-1.80350000E-01
					 0.00000000E+00	 0.00000000E+00
					-9.32116000E+02	-8.71669000E-02
					-1.84827000E+03	-1.72841000E-01
					-1.87735000E+03	-1.75561000E-01
					 0.00000000E+00	 0.00000000E+00
					-1.86850000E+03	-1.74733000E-01
					-1.82271000E+03	-1.70450000E-01
					 0.00000000E+00	 0.00000000E+00
					-1.87355000E+03	-1.75205000E-01
					-1.74492000E+03	-1.63177000E-01
					 0.00000000E+00	 0.00000000E+00
					-1.84067000E+03	-1.72131000E-01
					-2.86315000E+03	-2.67748000E-01
					-3.30385000E+03	-3.08959000E-01
					-3.26542000E+03	-3.05366000E-01
					 0.00000000E+00	 0.00000000E+00
					-1.62658000E+03	-1.52110000E-01
					-3.27845000E+03	-3.06585000E-01
					-3.21779000E+03	-3.00911000E-01
					 0.00000000E+00	 0.00000000E+00
					-3.22998000E+03	-3.02052000E-01
					-3.17582000E+03	-2.96987000E-01
					 0.00000000E+00	 0.00000000E+00
					-3.19559000E+03	-2.98836000E-01
					-3.09250000E+03	-2.89195000E-01
					 0.00000000E+00	 0.00000000E+00
					-3.13083000E+03	-2.92780000E-01
					 1.88461000E+00	 1.76239000E-04
					 8.38727000E-01	 7.84336000E-05
					 0.00000000E+00	 0.00000000E+00
					 1.25656000E+00	 1.17507000E-04
					 1.85675000E+00	 1.73634000E-04
					 9.03157000E-01	 8.44588000E-05
					 0.00000000E+00	 0.00000000E+00
					 1.33868000E+00	 1.25186000E-04
					 0.00000000E+00	 0.00000000E+00
					 1.24836000E+00	 1.16740000E-04
					 0.00000000E+00	 0.00000000E+00
					 1.41296000E+00	 1.32133000E-04
					 0.00000000E+00	 0.00000000E+00
					 1.30029000E+00	 1.21597000E-04
					 0.00000000E+00	 0.00000000E+00
					 1.58541000E+00	 1.48260000E-04
					 0.00000000E+00	 0.00000000E+00
					 1.45847000E+00	 1.36389000E-04
					 0.00000000E+00	 0.00000000E+00
					 1.85141000E+00	 1.73134000E-04
					 2.04897000E+01	 1.91610000E-03
					 0.00000000E+00	 0.00000000E+00
					 1.59018000E+01	 1.48706000E-03
					 0.00000000E+00	 0.00000000E+00
					 0.00000000E+00	 0.00000000E+00
					 0.00000000E+00	 0.00000000E+00
					 0.00000000E+00	 0.00000000E+00
					 0.00000000E+00	 0.00000000E+00
					 0.00000000E+00	 0.00000000E+00
					 0.00000000E+00	 0.00000000E+00
					 3.75218000E+02	 3.50886000E-02
					 0.00000000E+00	 0.00000000E+00
					 2.49480000E+02	 2.33301000E-02
					 0.00000000E+00	 0.00000000E+00
					 0.00000000E+00	 0.00000000E+00
					 0.00000000E+00	 0.00000000E+00
					 0.00000000E+00	 0.00000000E+00
					 0.00000000E+00	 0.00000000E+00
					 0.00000000E+00	 0.00000000E+00
					 0.00000000E+00	 0.00000000E+00
					-5.08157000E+03	-4.75204000E-01
					-3.60080000E+03	-3.36729000E-01
					 0.00000000E+00	 0.00000000E+00
					-5.02145000E+03	-4.69581000E-01
					-3.61765000E+03	-3.38305000E-01
					-2.76171000E+03	-2.58262000E-01
					-4.98266000E+03	-4.65954000E-01
					-1.93190000E+03	-1.80662000E-01
					-4.81578000E+03	-4.50348000E-01
					-3.47926000E+03	-3.25363000E-01
					-3.42099000E+03	-3.19914000E-01
					-2.65543000E+03	-2.48322000E-01
					-5.01028000E+03	-4.68537000E-01
					 0.00000000E+00	 0.00000000E+00
					-3.55369000E+03	-3.32323000E-01
					-4.90671000E+03	-4.58852000E-01
					-4.74394000E+03	-4.43630000E-01
					-3.37346000E+03	-3.15469000E-01
					-4.93885000E+03	-4.61857000E-01
					 0.00000000E+00	 0.00000000E+00
					-3.48477000E+03	-3.25879000E-01
					-4.82425000E+03	-4.51140000E-01
					-4.67795000E+03	-4.37459000E-01
					-3.33317000E+03	-3.11702000E-01
					-4.86837000E+03	-4.55266000E-01
					 0.00000000E+00	 0.00000000E+00
					-3.24581000E+03	-3.03532000E-01
					-3.70356000E+03	-3.46338000E-01
					-4.61418000E+03	-4.31495000E-01
					-3.09779000E+03	-2.89690000E-01
					 2.58715000E+00	 2.41938000E-04
					 1.66523000E+00	 1.55724000E-04
					 0.00000000E+00	 0.00000000E+00
					 3.18208000E+00	 2.97572000E-04
					 0.00000000E+00	 0.00000000E+00
					 0.00000000E+00	 0.00000000E+00
					 0.00000000E+00	 0.00000000E+00
					 0.00000000E+00	 0.00000000E+00
					 0.00000000E+00	 0.00000000E+00
					 3.85745000E+00	 3.60730000E-04
					 0.00000000E+00	 0.00000000E+00
					 0.00000000E+00	 0.00000000E+00
					 0.00000000E+00	 0.00000000E+00
					 3.65764000E+00	 3.42045000E-04
					 0.00000000E+00	 0.00000000E+00
					 0.00000000E+00	 0.00000000E+00
					 0.00000000E+00	 0.00000000E+00
					 2.78413000E+00	 2.60358000E-04
					 0.00000000E+00	 0.00000000E+00
					 0.00000000E+00	 0.00000000E+00
					 7.26356000E+00	 6.79253000E-04
					 0.00000000E+00	 0.00000000E+00
					 0.00000000E+00	 0.00000000E+00
					 0.00000000E+00	 0.00000000E+00
					 0.00000000E+00	 0.00000000E+00
					 0.00000000E+00	 0.00000000E+00
					 0.00000000E+00	 0.00000000E+00
					 0.00000000E+00	 0.00000000E+00
					 0.00000000E+00	 0.00000000E+00
					 0.00000000E+00	 0.00000000E+00
					 1.28053000E+02	 1.19749000E-02
					 0.00000000E+00	 0.00000000E+00
					 0.00000000E+00	 0.00000000E+00
					 0.00000000E+00	 0.00000000E+00
					 0.00000000E+00	 0.00000000E+00
					 0.00000000E+00	 0.00000000E+00
					 0.00000000E+00	 0.00000000E+00
					 0.00000000E+00	 0.00000000E+00
					 0.00000000E+00	 0.00000000E+00
					 0.00000000E+00	 0.00000000E+00
					 4.36804000E+02	 4.08477000E-02
					 1.00076000E+03	 9.35857000E-02
					 0.00000000E+00	 0.00000000E+00
					 0.00000000E+00	 0.00000000E+00
					 9.81559000E+02	 9.17906000E-02
					 0.00000000E+00	 0.00000000E+00
					 8.39815000E+02	 7.85354000E-02
					 0.00000000E+00	 0.00000000E+00
					 7.04434000E+02	 6.58752000E-02
					 0.00000000E+00	 0.00000000E+00
					-2.88879000E+03	-2.70145000E-01
					-3.15254000E+03	-2.94810000E-01
					-4.44239000E+03	-4.15430000E-01
					-4.38012000E+03	-4.09608000E-01
					-3.51521000E+03	-3.28726000E-01
					-4.57363000E+03	-4.27703000E-01
					 0.00000000E+00	 0.00000000E+00
					 0.00000000E+00	 0.00000000E+00
					-2.61226000E+03	-2.44286000E-01
					-2.54943000E+03	-2.38410000E-01
					 0.00000000E+00	 0.00000000E+00
					 0.00000000E+00	 0.00000000E+00
					-3.05178000E+03	-2.85387000E-01
					-3.31815000E+03	-3.10297000E-01
					-4.69900000E+03	-4.39428000E-01
					-4.63306000E+03	-4.33261000E-01
					-4.69760000E+03	-4.39297000E-01
					-4.63952000E+03	-4.33865000E-01
					-3.20169000E+03	-2.99407000E-01
					-4.50169000E+03	-4.20976000E-01
					-4.65280000E+03	-4.35107000E-01
					 0.00000000E+00	 0.00000000E+00
					-2.64423000E+03	-2.47275000E-01
					 0.00000000E+00	 0.00000000E+00
					-3.36638000E+03	-3.14807000E-01
					-4.75956000E+03	-4.45091000E-01
					-4.75415000E+03	-4.44585000E-01
					-3.25463000E+03	-3.04357000E-01
					-4.56024000E+03	-4.26451000E-01
					-4.70200000E+03	-4.39708000E-01
					 0.00000000E+00	 0.00000000E+00
					-2.68104000E+03	-2.50718000E-01
					 0.00000000E+00	 0.00000000E+00
					-3.41064000E+03	-3.18946000E-01
					-4.81951000E+03	-4.50697000E-01
					-4.80728000E+03	-4.49553000E-01
					 0.00000000E+00	 0.00000000E+00
					 0.00000000E+00	 0.00000000E+00
					 0.00000000E+00	 0.00000000E+00
					 2.99638000E+00	 2.80207000E-04
					 0.00000000E+00	 0.00000000E+00
					 1.69650000E+00	 1.58648000E-04
					 0.00000000E+00	 0.00000000E+00
					 0.00000000E+00	 0.00000000E+00
					 0.00000000E+00	 0.00000000E+00
					 3.51208000E+00	 3.28432000E-04
					 0.00000000E+00	 0.00000000E+00
					 1.49454000E+00	 1.39762000E-04
					 0.00000000E+00	 0.00000000E+00
					 0.00000000E+00	 0.00000000E+00
					 0.00000000E+00	 0.00000000E+00
					 3.61223000E+00	 3.37798000E-04
					 0.00000000E+00	 0.00000000E+00
					 1.40756000E+00	 1.31628000E-04
					 0.00000000E+00	 0.00000000E+00
					 0.00000000E+00	 0.00000000E+00
					 0.00000000E+00	 0.00000000E+00
					 3.62389000E+00	 3.38888000E-04
					 0.00000000E+00	 0.00000000E+00
					 1.33626000E+00	 1.24961000E-04
					 0.00000000E+00	 0.00000000E+00
					 0.00000000E+00	 0.00000000E+00
					 0.00000000E+00	 0.00000000E+00
					 0.00000000E+00	 0.00000000E+00
					 0.00000000E+00	 0.00000000E+00
					 0.00000000E+00	 0.00000000E+00
					 0.00000000E+00	 0.00000000E+00
					 0.00000000E+00	 0.00000000E+00
					 0.00000000E+00	 0.00000000E+00
					 0.00000000E+00	 0.00000000E+00
					 0.00000000E+00	 0.00000000E+00
					 0.00000000E+00	 0.00000000E+00
					 0.00000000E+00	 0.00000000E+00
					 0.00000000E+00	 0.00000000E+00
					 0.00000000E+00	 0.00000000E+00
					 0.00000000E+00	 0.00000000E+00
					 0.00000000E+00	 0.00000000E+00
					 0.00000000E+00	 0.00000000E+00
					 0.00000000E+00	 0.00000000E+00
					 0.00000000E+00	 0.00000000E+00
					 0.00000000E+00	 0.00000000E+00
					 0.00000000E+00	 0.00000000E+00
					 0.00000000E+00	 0.00000000E+00
					 0.00000000E+00	 0.00000000E+00
					 0.00000000E+00	 0.00000000E+00
					 1.23292000E+03	 1.15297000E-01
					 1.06935000E+04	 1.00000000E+00
					 0.00000000E+00	 0.00000000E+00
					 1.15913000E+03	 1.08396000E-01
					 1.05482000E+04	 9.86416000E-01
					 0.00000000E+00	 0.00000000E+00
					 1.11005000E+03	 1.03806000E-01
					 1.04076000E+04	 9.73267000E-01
					 0.00000000E+00	 0.00000000E+00
					 1.01959000E+03	 9.53472000E-02
					 1.00920000E+04	 9.43758000E-01
					 0.00000000E+00	 0.00000000E+00
					 0.00000000E+00	 0.00000000E+00
					 0.00000000E+00	 0.00000000E+00
					 0.00000000E+00	 0.00000000E+00
					-2.65093000E+03	-2.47902000E-01
					-2.61009000E+03	-2.44083000E-01
					 0.00000000E+00	 0.00000000E+00
					 0.00000000E+00	 0.00000000E+00
					-4.70076000E+03	-4.39592000E-01
					-4.65334000E+03	-4.35158000E-01
					-4.70503000E+03	-4.39991000E-01
					-4.65088000E+03	-4.34927000E-01
					 0.00000000E+00	 0.00000000E+00
					 0.00000000E+00	 0.00000000E+00
					-2.64884000E+03	-2.47706000E-01
					 0.00000000E+00	 0.00000000E+00
					-4.75724000E+03	-4.44873000E-01
					-4.75305000E+03	-4.44482000E-01
					 0.00000000E+00	 0.00000000E+00
					 0.00000000E+00	 0.00000000E+00
					-2.61909000E+03	-2.44924000E-01
					 0.00000000E+00	 0.00000000E+00
					-4.80246000E+03	-4.49103000E-01
					-4.80806000E+03	-4.49626000E-01
					 5.26845000E+03	 4.92679000E-01
					 0.00000000E+00	 0.00000000E+00
					 0.00000000E+00	 0.00000000E+00
					 4.28275000E+03	 4.00502000E-01
					 7.19262000E+03	 6.72619000E-01
					 5.17302000E+03	 4.83755000E-01
					 0.00000000E+00	 0.00000000E+00
					 0.00000000E+00	 0.00000000E+00
					 4.21656000E+03	 3.94312000E-01
					 6.99332000E+03	 6.53981000E-01
					 5.06691000E+03	 4.73833000E-01
					 0.00000000E+00	 0.00000000E+00
					 0.00000000E+00	 0.00000000E+00
					 4.14182000E+03	 3.87322000E-01
					 6.70853000E+03	 6.27348000E-01
					 4.85335000E+03	 4.53861000E-01
					 0.00000000E+00	 0.00000000E+00
					 0.00000000E+00	 0.00000000E+00
					 4.09647000E+03	 3.83081000E-01
					 6.48141000E+03	 6.06110000E-01
					 3.62560000E+03	 3.39048000E-01
					 0.00000000E+00	 0.00000000E+00
					 2.79030000E+03	 2.60935000E-01
					 3.57249000E+03	 3.34082000E-01
					 0.00000000E+00	 0.00000000E+00
					 2.75087000E+03	 2.57248000E-01
					 3.54039000E+03	 3.31079000E-01
					 0.00000000E+00	 0.00000000E+00
					 2.72594000E+03	 2.54916000E-01
					 3.45719000E+03	 3.23299000E-01
					 0.00000000E+00	 0.00000000E+00