# vtk DataFile Version 3.0

ASCII
DATASET UNSTRUCTURED_GRID

POINTS 12 double
	 1.00000000E+02	 0.00000000E+00	 0.00000000E+00
	 0.00000000E+00	 0.00000000E+00	 0.00000000E+00
	 0.00000000E+00	 1.00000000E+02	 0.00000000E+00
	 1.00000000E+02	 1.00000000E+02	 0.00000000E+00
	 2.00000000E+02	 1.00000000E+02	 0.00000000E+00
	 2.00000000E+02	 0.00000000E+00	 0.00000000E+00
	 1.00000000E+02	 0.00000000E+00	-1.00000000E+02
	 1.00000000E+02	 1.00000000E+02	-1.00000000E+02
	 0.00000000E+00	 1.00000000E+02	-1.00000000E+02
	 0.00000000E+00	 0.00000000E+00	-1.00000000E+02
	 2.00000000E+02	 0.00000000E+00	-1.00000000E+02
	 2.00000000E+02	 1.00000000E+02	-1.00000000E+02

CELLS 2 18
	8 5 0 3 4 10 6 7 11 
	8 0 1 2 3 6 9 8 7 

CELL_TYPES 2
	12
	12

POINT_DATA 12
FIELD SOR1 1
	SOR1 6 12 double
		 8.22640000E+00	 2.58090000E+00	 2.58584000E+00	 2.12936000E-02	-3.51106000E+00	 2.49845000E-04
		 1.32269000E+01	 4.14622000E+00	 4.14799000E+00	 5.06147000E+00	 4.51759000E-03	-5.04063000E+00
		-1.32360000E+01	-4.14906000E+00	-4.15080000E+00	 5.04649000E+00	 4.51883000E-03	 5.06290000E+00
		-8.22702000E+00	-2.57872000E+00	-2.57239000E+00	 4.54688000E-03	-3.51106000E+00	 2.42251000E-02
		-3.21503000E+00	-1.01995000E+00	-9.49886000E-01	 1.33419000E-02	 1.31521000E+01	 3.58626000E-02
		 3.22515000E+00	 9.96326000E-01	 1.06562000E+00	 3.18757000E-02	 1.31521000E+01	-9.12318000E-03
		-8.22702000E+00	-2.57872000E+00	-2.57239000E+00	-4.54688000E-03	-3.51106000E+00	-2.42251000E-02
		 8.22640000E+00	 2.58090000E+00	 2.58584000E+00	-2.12936000E-02	-3.51106000E+00	-2.49845000E-04
		 1.32269000E+01	 4.14622000E+00	 4.14799000E+00	-5.06147000E+00	 4.51759000E-03	 5.04063000E+00
		-1.32360000E+01	-4.14906000E+00	-4.15080000E+00	-5.04649000E+00	 4.51883000E-03	-5.06290000E+00
		-3.21503000E+00	-1.01995000E+00	-9.49886000E-01	-1.33419000E-02	 1.31521000E+01	-3.58626000E-02
		 3.22515000E+00	 9.96326000E-01	 1.06562000E+00	-3.18757000E-02	 1.31521000E+01	 9.12318000E-03
