    1C
    1UUSER                                                              
    1UDATE              01.august.2019                                  
    1UTIME              09:56:22                                        
    1UHOST                                                              
    1UPGM               CalculiX                                        
    1UVERSION           Version 2.15                             
    1UCOMPILETIME       Fri 15 Mar 11:57:46 CET 2019                    
    1UDIR                                                               
    1UDBN                                                               
    1UMAT    1EL                                                        
    2C                            40                                     1
 -1        14 9.97512E-01 7.51241E-02 0.00000E+00
 -1        15 1.00000E+00 1.00000E-01 0.00000E+00
 -1        16 1.00249E+00 1.24876E-01 0.00000E+00
 -1        17 1.00249E+00 7.51241E-02 0.00000E+00
 -1        18 1.00000E+00 1.00000E-01 0.00000E+00
 -1        19 9.97512E-01 1.24876E-01 0.00000E+00
 -1        28 2.48758E-03-2.48759E-02 0.00000E+00
 -1        29-1.49012E-08 1.86265E-09 0.00000E+00
 -1        30-2.48761E-03 2.48759E-02 0.00000E+00
 -1        31 2.48758E-03-2.48759E-02 1.00000E+00
 -1        32-1.49012E-08 1.86265E-09 1.00000E+00
 -1        33-2.48761E-03 2.48759E-02 1.00000E+00
 -1        34 9.97512E-01 7.51241E-02 1.00000E+00
 -1        35 1.00000E+00 1.00000E-01 1.00000E+00
 -1        36 1.00249E+00 1.24876E-01 1.00000E+00
 -1        37 1.00249E+00 7.51241E-02 1.00000E+00
 -1        38 1.00000E+00 1.00000E-01 1.00000E+00
 -1        39 9.97512E-01 1.24876E-01 1.00000E+00
 -1        48 5.02488E-01 2.51241E-02 0.00000E+00
 -1        50 4.97512E-01 7.48759E-02 0.00000E+00
 -1        51 2.48758E-03-2.48759E-02 5.00000E-01
 -1        53-2.48761E-03 2.48759E-02 5.00000E-01
 -1        54 5.02488E-01 2.51241E-02 1.00000E+00
 -1        56 4.97512E-01 7.48759E-02 1.00000E+00
 -1        57 9.97512E-01 7.51241E-02 5.00000E-01
 -1        59 1.00249E+00 1.24876E-01 5.00000E-01
 -1        60 1.00249E+00 7.51241E-02 5.00000E-01
 -1        62 9.97512E-01 1.24876E-01 5.00000E-01
 -1        71 1.99751E+00-2.48759E-02 0.00000E+00
 -1        72 2.00000E+00 1.86265E-09 0.00000E+00
 -1        73 2.00249E+00 2.48759E-02 0.00000E+00
 -1        74 1.99751E+00-2.48759E-02 1.00000E+00
 -1        75 2.00000E+00 1.86265E-09 1.00000E+00
 -1        76 2.00249E+00 2.48759E-02 1.00000E+00
 -1        77 1.49751E+00 2.51241E-02 2.39906E-20
 -1        79 1.50249E+00 7.48759E-02-2.39906E-20
 -1        80 1.49751E+00 2.51241E-02 1.00000E+00
 -1        82 1.50249E+00 7.48759E-02 1.00000E+00
 -1        83 1.99751E+00-2.48759E-02 5.00000E-01
 -1        85 2.00249E+00 2.48759E-02 5.00000E-01
 -3
    3C                             2                                     1
 -1         1    4    0    1
 -2        17        28        31        37        19        30        33        39        48        51
 -2        54        60        18        29        32        38        50        53        56        62
 -1         2    4    0    1
 -2        71        14        34        74        73        16        36        76        77        57
 -2        80        83        72        15        35        75        79        59        82        85
 -3
 9999
