# vtk DataFile Version 3.0

ASCII
DATASET UNSTRUCTURED_GRID

POINTS 522 double
	 1.00000000E+00	 1.00000000E+00	 0.00000000E+00
	 1.00000000E+00	 5.00000000E-01	 0.00000000E+00
	 1.00000000E+00	 5.00000000E-01	 1.00000000E+00
	 1.00000000E+00	 1.00000000E+00	 1.00000000E+00
	 5.00000000E-01	 1.00000000E+00	 0.00000000E+00
	 5.00000000E-01	 5.00000000E-01	 0.00000000E+00
	 5.00000000E-01	 5.00000000E-01	 1.00000000E+00
	 5.00000000E-01	 1.00000000E+00	 1.00000000E+00
	 1.00000000E+00	 7.50000000E-01	 0.00000000E+00
	 1.00000000E+00	 5.00000000E-01	 5.00000000E-01
	 1.00000000E+00	 7.50000000E-01	 1.00000000E+00
	 1.00000000E+00	 1.00000000E+00	 5.00000000E-01
	 7.50000000E-01	 1.00000000E+00	 0.00000000E+00
	 7.50000000E-01	 5.00000000E-01	 0.00000000E+00
	 7.50000000E-01	 5.00000000E-01	 1.00000000E+00
	 7.50000000E-01	 1.00000000E+00	 1.00000000E+00
	 5.00000000E-01	 7.50000000E-01	 0.00000000E+00
	 5.00000000E-01	 5.00000000E-01	 5.00000000E-01
	 5.00000000E-01	 7.50000000E-01	 1.00000000E+00
	 5.00000000E-01	 1.00000000E+00	 5.00000000E-01
	 1.00000000E+00	 0.00000000E+00	 0.00000000E+00
	 1.00000000E+00	 0.00000000E+00	 1.00000000E+00
	 5.00000000E-01	 0.00000000E+00	 0.00000000E+00
	 5.00000000E-01	 0.00000000E+00	 1.00000000E+00
	 1.00000000E+00	 2.50000000E-01	 0.00000000E+00
	 1.00000000E+00	 0.00000000E+00	 5.00000000E-01
	 1.00000000E+00	 2.50000000E-01	 1.00000000E+00
	 7.50000000E-01	 0.00000000E+00	 0.00000000E+00
	 7.50000000E-01	 0.00000000E+00	 1.00000000E+00
	 5.00000000E-01	 2.50000000E-01	 0.00000000E+00
	 5.00000000E-01	 0.00000000E+00	 5.00000000E-01
	 5.00000000E-01	 2.50000000E-01	 1.00000000E+00
	 0.00000000E+00	 1.00000000E+00	 0.00000000E+00
	 0.00000000E+00	 5.00000000E-01	 0.00000000E+00
	 0.00000000E+00	 5.00000000E-01	 1.00000000E+00
	 0.00000000E+00	 1.00000000E+00	 1.00000000E+00
	 2.50000000E-01	 1.00000000E+00	 0.00000000E+00
	 2.50000000E-01	 5.00000000E-01	 0.00000000E+00
	 2.50000000E-01	 5.00000000E-01	 1.00000000E+00
	 2.50000000E-01	 1.00000000E+00	 1.00000000E+00
	 0.00000000E+00	 7.50000000E-01	 0.00000000E+00
	 0.00000000E+00	 5.00000000E-01	 5.00000000E-01
	 0.00000000E+00	 7.50000000E-01	 1.00000000E+00
	 0.00000000E+00	 1.00000000E+00	 5.00000000E-01
	 0.00000000E+00	 0.00000000E+00	 0.00000000E+00
	 0.00000000E+00	 0.00000000E+00	 1.00000000E+00
	 2.50000000E-01	 0.00000000E+00	 0.00000000E+00
	 2.50000000E-01	 0.00000000E+00	 1.00000000E+00
	 0.00000000E+00	 2.50000000E-01	 0.00000000E+00
	 0.00000000E+00	 0.00000000E+00	 5.00000000E-01
	 0.00000000E+00	 2.50000000E-01	 1.00000000E+00
	 1.00000000E+00	 5.00000000E-01	 2.00000000E+00
	 1.00000000E+00	 1.00000000E+00	 2.00000000E+00
	 5.00000000E-01	 5.00000000E-01	 2.00000000E+00
	 5.00000000E-01	 1.00000000E+00	 2.00000000E+00
	 1.00000000E+00	 5.00000000E-01	 1.50000000E+00
	 1.00000000E+00	 7.50000000E-01	 2.00000000E+00
	 1.00000000E+00	 1.00000000E+00	 1.50000000E+00
	 7.50000000E-01	 5.00000000E-01	 2.00000000E+00
	 7.50000000E-01	 1.00000000E+00	 2.00000000E+00
	 5.00000000E-01	 5.00000000E-01	 1.50000000E+00
	 5.00000000E-01	 7.50000000E-01	 2.00000000E+00
	 5.00000000E-01	 1.00000000E+00	 1.50000000E+00
	 1.00000000E+00	 0.00000000E+00	 2.00000000E+00
	 5.00000000E-01	 0.00000000E+00	 2.00000000E+00
	 1.00000000E+00	 0.00000000E+00	 1.50000000E+00
	 1.00000000E+00	 2.50000000E-01	 2.00000000E+00
	 7.50000000E-01	 0.00000000E+00	 2.00000000E+00
	 5.00000000E-01	 0.00000000E+00	 1.50000000E+00
	 5.00000000E-01	 2.50000000E-01	 2.00000000E+00
	 0.00000000E+00	 5.00000000E-01	 2.00000000E+00
	 0.00000000E+00	 1.00000000E+00	 2.00000000E+00
	 2.50000000E-01	 5.00000000E-01	 2.00000000E+00
	 2.50000000E-01	 1.00000000E+00	 2.00000000E+00
	 0.00000000E+00	 5.00000000E-01	 1.50000000E+00
	 0.00000000E+00	 7.50000000E-01	 2.00000000E+00
	 0.00000000E+00	 1.00000000E+00	 1.50000000E+00
	 0.00000000E+00	 0.00000000E+00	 2.00000000E+00
	 2.50000000E-01	 0.00000000E+00	 2.00000000E+00
	 0.00000000E+00	 0.00000000E+00	 1.50000000E+00
	 0.00000000E+00	 2.50000000E-01	 2.00000000E+00
	 1.00000000E+00	 5.00000000E-01	 3.00000000E+00
	 1.00000000E+00	 1.00000000E+00	 3.00000000E+00
	 5.00000000E-01	 5.00000000E-01	 3.00000000E+00
	 5.00000000E-01	 1.00000000E+00	 3.00000000E+00
	 1.00000000E+00	 5.00000000E-01	 2.50000000E+00
	 1.00000000E+00	 7.50000000E-01	 3.00000000E+00
	 1.00000000E+00	 1.00000000E+00	 2.50000000E+00
	 7.50000000E-01	 5.00000000E-01	 3.00000000E+00
	 7.50000000E-01	 1.00000000E+00	 3.00000000E+00
	 5.00000000E-01	 5.00000000E-01	 2.50000000E+00
	 5.00000000E-01	 7.50000000E-01	 3.00000000E+00
	 5.00000000E-01	 1.00000000E+00	 2.50000000E+00
	 1.00000000E+00	 0.00000000E+00	 3.00000000E+00
	 5.00000000E-01	 0.00000000E+00	 3.00000000E+00
	 1.00000000E+00	 0.00000000E+00	 2.50000000E+00
	 1.00000000E+00	 2.50000000E-01	 3.00000000E+00
	 7.50000000E-01	 0.00000000E+00	 3.00000000E+00
	 5.00000000E-01	 0.00000000E+00	 2.50000000E+00
	 5.00000000E-01	 2.50000000E-01	 3.00000000E+00
	 0.00000000E+00	 5.00000000E-01	 3.00000000E+00
	 0.00000000E+00	 1.00000000E+00	 3.00000000E+00
	 2.50000000E-01	 5.00000000E-01	 3.00000000E+00
	 2.50000000E-01	 1.00000000E+00	 3.00000000E+00
	 0.00000000E+00	 5.00000000E-01	 2.50000000E+00
	 0.00000000E+00	 7.50000000E-01	 3.00000000E+00
	 0.00000000E+00	 1.00000000E+00	 2.50000000E+00
	 0.00000000E+00	 0.00000000E+00	 3.00000000E+00
	 2.50000000E-01	 0.00000000E+00	 3.00000000E+00
	 0.00000000E+00	 0.00000000E+00	 2.50000000E+00
	 0.00000000E+00	 2.50000000E-01	 3.00000000E+00
	 1.00000000E+00	 5.00000000E-01	 4.00000000E+00
	 1.00000000E+00	 1.00000000E+00	 4.00000000E+00
	 5.00000000E-01	 5.00000000E-01	 4.00000000E+00
	 5.00000000E-01	 1.00000000E+00	 4.00000000E+00
	 1.00000000E+00	 5.00000000E-01	 3.50000000E+00
	 1.00000000E+00	 7.50000000E-01	 4.00000000E+00
	 1.00000000E+00	 1.00000000E+00	 3.50000000E+00
	 7.50000000E-01	 5.00000000E-01	 4.00000000E+00
	 7.50000000E-01	 1.00000000E+00	 4.00000000E+00
	 5.00000000E-01	 5.00000000E-01	 3.50000000E+00
	 5.00000000E-01	 7.50000000E-01	 4.00000000E+00
	 5.00000000E-01	 1.00000000E+00	 3.50000000E+00
	 1.00000000E+00	 0.00000000E+00	 4.00000000E+00
	 5.00000000E-01	 0.00000000E+00	 4.00000000E+00
	 1.00000000E+00	 0.00000000E+00	 3.50000000E+00
	 1.00000000E+00	 2.50000000E-01	 4.00000000E+00
	 7.50000000E-01	 0.00000000E+00	 4.00000000E+00
	 5.00000000E-01	 0.00000000E+00	 3.50000000E+00
	 5.00000000E-01	 2.50000000E-01	 4.00000000E+00
	 0.00000000E+00	 5.00000000E-01	 4.00000000E+00
	 0.00000000E+00	 1.00000000E+00	 4.00000000E+00
	 2.50000000E-01	 5.00000000E-01	 4.00000000E+00
	 2.50000000E-01	 1.00000000E+00	 4.00000000E+00
	 0.00000000E+00	 5.00000000E-01	 3.50000000E+00
	 0.00000000E+00	 7.50000000E-01	 4.00000000E+00
	 0.00000000E+00	 1.00000000E+00	 3.50000000E+00
	 0.00000000E+00	 0.00000000E+00	 4.00000000E+00
	 2.50000000E-01	 0.00000000E+00	 4.00000000E+00
	 0.00000000E+00	 0.00000000E+00	 3.50000000E+00
	 0.00000000E+00	 2.50000000E-01	 4.00000000E+00
	 1.00000000E+00	 5.00000000E-01	 5.00000000E+00
	 1.00000000E+00	 1.00000000E+00	 5.00000000E+00
	 5.00000000E-01	 5.00000000E-01	 5.00000000E+00
	 5.00000000E-01	 1.00000000E+00	 5.00000000E+00
	 1.00000000E+00	 5.00000000E-01	 4.50000000E+00
	 1.00000000E+00	 7.50000000E-01	 5.00000000E+00
	 1.00000000E+00	 1.00000000E+00	 4.50000000E+00
	 7.50000000E-01	 5.00000000E-01	 5.00000000E+00
	 7.50000000E-01	 1.00000000E+00	 5.00000000E+00
	 5.00000000E-01	 5.00000000E-01	 4.50000000E+00
	 5.00000000E-01	 7.50000000E-01	 5.00000000E+00
	 5.00000000E-01	 1.00000000E+00	 4.50000000E+00
	 1.00000000E+00	 0.00000000E+00	 5.00000000E+00
	 5.00000000E-01	 0.00000000E+00	 5.00000000E+00
	 1.00000000E+00	 0.00000000E+00	 4.50000000E+00
	 1.00000000E+00	 2.50000000E-01	 5.00000000E+00
	 7.50000000E-01	 0.00000000E+00	 5.00000000E+00
	 5.00000000E-01	 0.00000000E+00	 4.50000000E+00
	 5.00000000E-01	 2.50000000E-01	 5.00000000E+00
	 0.00000000E+00	 5.00000000E-01	 5.00000000E+00
	 0.00000000E+00	 1.00000000E+00	 5.00000000E+00
	 2.50000000E-01	 5.00000000E-01	 5.00000000E+00
	 2.50000000E-01	 1.00000000E+00	 5.00000000E+00
	 0.00000000E+00	 5.00000000E-01	 4.50000000E+00
	 0.00000000E+00	 7.50000000E-01	 5.00000000E+00
	 0.00000000E+00	 1.00000000E+00	 4.50000000E+00
	 0.00000000E+00	 0.00000000E+00	 5.00000000E+00
	 2.50000000E-01	 0.00000000E+00	 5.00000000E+00
	 0.00000000E+00	 0.00000000E+00	 4.50000000E+00
	 0.00000000E+00	 2.50000000E-01	 5.00000000E+00
	 1.00000000E+00	 5.00000000E-01	 6.00000000E+00
	 1.00000000E+00	 1.00000000E+00	 6.00000000E+00
	 5.00000000E-01	 5.00000000E-01	 6.00000000E+00
	 5.00000000E-01	 1.00000000E+00	 6.00000000E+00
	 1.00000000E+00	 5.00000000E-01	 5.50000000E+00
	 1.00000000E+00	 7.50000000E-01	 6.00000000E+00
	 1.00000000E+00	 1.00000000E+00	 5.50000000E+00
	 7.50000000E-01	 5.00000000E-01	 6.00000000E+00
	 7.50000000E-01	 1.00000000E+00	 6.00000000E+00
	 5.00000000E-01	 5.00000000E-01	 5.50000000E+00
	 5.00000000E-01	 7.50000000E-01	 6.00000000E+00
	 5.00000000E-01	 1.00000000E+00	 5.50000000E+00
	 1.00000000E+00	 0.00000000E+00	 6.00000000E+00
	 5.00000000E-01	 0.00000000E+00	 6.00000000E+00
	 1.00000000E+00	 0.00000000E+00	 5.50000000E+00
	 1.00000000E+00	 2.50000000E-01	 6.00000000E+00
	 7.50000000E-01	 0.00000000E+00	 6.00000000E+00
	 5.00000000E-01	 0.00000000E+00	 5.50000000E+00
	 5.00000000E-01	 2.50000000E-01	 6.00000000E+00
	 0.00000000E+00	 5.00000000E-01	 6.00000000E+00
	 0.00000000E+00	 1.00000000E+00	 6.00000000E+00
	 2.50000000E-01	 5.00000000E-01	 6.00000000E+00
	 2.50000000E-01	 1.00000000E+00	 6.00000000E+00
	 0.00000000E+00	 5.00000000E-01	 5.50000000E+00
	 0.00000000E+00	 7.50000000E-01	 6.00000000E+00
	 0.00000000E+00	 1.00000000E+00	 5.50000000E+00
	 0.00000000E+00	 0.00000000E+00	 6.00000000E+00
	 2.50000000E-01	 0.00000000E+00	 6.00000000E+00
	 0.00000000E+00	 0.00000000E+00	 5.50000000E+00
	 0.00000000E+00	 2.50000000E-01	 6.00000000E+00
	 1.00000000E+00	 5.00000000E-01	 7.00000000E+00
[...]
POINT_DATA 522
FIELD NT 1
	NT 1 522 double
		 3.97529000E+02
		 3.97532000E+02
		 3.97839000E+02
		 3.97836000E+02
		 4.98145000E+02
		 4.98146000E+02
		 4.98291000E+02
		 4.98290000E+02
		 3.97530000E+02
		 3.97556000E+02
		 3.97836000E+02
		 3.97553000E+02
		 4.47727000E+02
		 4.47728000E+02
		 4.47938000E+02
		 4.47937000E+02
		 4.98145000E+02
		 4.98192000E+02
		 4.98290000E+02
		 4.98191000E+02
		 3.97535000E+02
		 3.97842000E+02
		 4.98146000E+02
		 4.98292000E+02
		 3.97534000E+02
		 3.97558000E+02
		 3.97841000E+02
		 4.47730000E+02
		 4.47939000E+02
		 4.98146000E+02
		 4.98193000E+02
		 4.98291000E+02
		 6.00000000E+02
		 6.00000000E+02
		 6.00000000E+02
		 6.00000000E+02
		 5.48913000E+02
		 5.48913000E+02
		 5.48981000E+02
		 5.48980000E+02
		 6.00000000E+02
		 6.00000000E+02
		 6.00000000E+02
		 6.00000000E+02
		 6.00000000E+02
		 6.00000000E+02
		 5.48913000E+02
		 5.48981000E+02
		 6.00000000E+02
		 6.00000000E+02
		 6.00000000E+02
		 3.98288000E+02
		 3.98284000E+02
		 4.98507000E+02
		 4.98506000E+02
		 3.98132000E+02
		 3.98285000E+02
		 3.98128000E+02
		 4.48260000E+02
		 4.48258000E+02
		 4.98410000E+02
		 4.98506000E+02
		 4.98409000E+02
		 3.98292000E+02
		 4.98508000E+02
		 3.98135000E+02
		 3.98291000E+02
		 4.48262000E+02
		 4.98411000E+02
		 4.98507000E+02
		 6.00000000E+02
		 6.00000000E+02
		 5.49085000E+02
		 5.49085000E+02
		 6.00000000E+02
		 6.00000000E+02
		 6.00000000E+02
		 6.00000000E+02
		 5.49086000E+02
		 6.00000000E+02
		 6.00000000E+02
		 3.98493000E+02
		 3.98489000E+02
		 4.98610000E+02
		 4.98609000E+02
		 3.98426000E+02
		 3.98489000E+02
		 3.98422000E+02
		 4.48420000E+02
		 4.48418000E+02
		 4.98566000E+02
		 4.98609000E+02
		 4.98566000E+02
		 3.98497000E+02
		 4.98611000E+02
		 3.98430000E+02
		 3.98496000E+02
		 4.48421000E+02
		 4.98567000E+02
		 4.98610000E+02
		 6.00000000E+02
		 6.00000000E+02
		 5.49138000E+02
		 5.49138000E+02
		 6.00000000E+02
		 6.00000000E+02
		 6.00000000E+02
		 6.00000000E+02
		 5.49139000E+02
		 6.00000000E+02
		 6.00000000E+02
		 3.98578000E+02
		 3.98574000E+02
		 4.98653000E+02
		 4.98652000E+02
		 3.98552000E+02
		 3.98574000E+02
		 3.98547000E+02
		 4.48484000E+02
		 4.48482000E+02
		 4.98636000E+02
		 4.98653000E+02
		 4.98635000E+02
		 3.98582000E+02
		 4.98654000E+02
		 3.98556000E+02
		 3.98581000E+02
		 4.48486000E+02
		 4.98637000E+02
		 4.98654000E+02
		 6.00000000E+02
		 6.00000000E+02
		 5.49160000E+02
		 5.49160000E+02
		 6.00000000E+02
		 6.00000000E+02
		 6.00000000E+02
		 6.00000000E+02
		 5.49161000E+02
		 6.00000000E+02
		 6.00000000E+02
		 3.98585000E+02
		 3.98580000E+02
		 4.98655000E+02
		 4.98654000E+02
		 3.98598000E+02
		 3.98581000E+02
		 3.98594000E+02
		 4.48488000E+02
		 4.48487000E+02
		 4.98659000E+02
		 4.98655000E+02
		 4.98658000E+02
		 3.98589000E+02
		 4.98656000E+02
		 3.98602000E+02
		 3.98588000E+02
		 4.48490000E+02
		 4.98660000E+02
		 4.98656000E+02
		 6.00000000E+02
		 6.00000000E+02
		 5.49161000E+02
		 5.49161000E+02
		 6.00000000E+02
		 6.00000000E+02
		 6.00000000E+02
		 6.00000000E+02
		 5.49162000E+02
		 6.00000000E+02
		 6.00000000E+02
		 3.98463000E+02
		 3.98459000E+02
		 4.98593000E+02
		 4.98592000E+02
		 3.98563000E+02
		 3.98460000E+02
		 3.98559000E+02
		 4.48389000E+02
		 4.48387000E+02
		 4.98633000E+02
		 4.98592000E+02
		 4.98632000E+02
		 3.98467000E+02
		 4.98594000E+02
		 3.98568000E+02
		 3.98466000E+02
		 4.48391000E+02
		 4.98635000E+02
		 4.98594000E+02
		 6.00000000E+02
		 6.00000000E+02
		 5.49128000E+02
		 5.49127000E+02
		 6.00000000E+02
		 6.00000000E+02
		 6.00000000E+02
		 6.00000000E+02
		 5.49128000E+02
		 6.00000000E+02
		 6.00000000E+02
		 3.98046000E+02
		 3.98042000E+02
		 4.98393000E+02
		 4.98392000E+02
		 3.98340000E+02
		 3.98043000E+02
		 3.98336000E+02
		 4.48092000E+02
		 4.48090000E+02
		 4.98508000E+02
		 4.98393000E+02
		 4.98507000E+02
		 3.98050000E+02
		 4.98394000E+02
		 3.98345000E+02
		 3.98049000E+02
		 4.48093000E+02
		 4.98509000E+02
		 4.98394000E+02
		 6.00000000E+02
		 6.00000000E+02
		 5.49032000E+02
		 5.49031000E+02
		 6.00000000E+02
		 6.00000000E+02
		 6.00000000E+02
		 6.00000000E+02
		 5.49032000E+02
		 6.00000000E+02
		 6.00000000E+02
		 3.97734000E+02
		 3.97731000E+02
		 4.98246000E+02
		 4.98246000E+02
		 3.97758000E+02
		 3.97732000E+02
		 3.97755000E+02
		 4.47880000E+02
		 4.47879000E+02
		 4.98294000E+02
		 4.98246000E+02
		 4.98293000E+02
		 3.97737000E+02
		 4.98247000E+02
		 3.97761000E+02
		 3.97736000E+02
		 4.47882000E+02
		 4.98295000E+02
		 4.98247000E+02
		 6.00000000E+02
		 6.00000000E+02
		 5.48964000E+02
		 5.48964000E+02
		 6.00000000E+02
		 6.00000000E+02
		 6.00000000E+02
		 6.00000000E+02
		 5.48964000E+02
		 6.00000000E+02
		 6.00000000E+02
		 0.00000000E+00
		 0.00000000E+00
		 0.00000000E+00
		 0.00000000E+00
		 2.71987000E+01
		 2.71852000E+01
		 2.94708000E+01
		 2.94863000E+01
		 0.00000000E+00
		 0.00000000E+00
		 0.00000000E+00
		 0.00000000E+00
		 1.36866000E+01
		 1.36818000E+01
		 1.47358000E+01
		 1.47413000E+01
		 2.71930000E+01
		 2.79025000E+01
		 2.94797000E+01
		 2.79170000E+01
		 0.00000000E+00
		 0.00000000E+00
		 2.71717000E+01
		 2.94553000E+01
		 0.00000000E+00
		 0.00000000E+00
		 0.00000000E+00
		 1.36769000E+01
		 1.47303000E+01
		 2.71774000E+01
		 2.78881000E+01
		 2.94619000E+01
		 5.38647000E+01
		 5.38051000E+01
		 5.89067000E+01
		 5.89725000E+01
		 4.08144000E+01
		 4.07876000E+01
		 4.41859000E+01
		 4.42148000E+01
		 5.38498000E+01
		 5.45803000E+01
		 5.89571000E+01
		 5.46394000E+01
		 5.37452000E+01
		 5.88408000E+01
		 4.07607000E+01
		 4.41570000E+01
		 5.37603000E+01
		 5.45209000E+01
		 5.88563000E+01
		 0.00000000E+00
		 0.00000000E+00
		 3.26255000E+01
		 3.26430000E+01
		 0.00000000E+00
		 0.00000000E+00
		 0.00000000E+00
		 1.62615000E+01
		 1.62677000E+01
		 3.12551000E+01
		 3.26355000E+01
		 3.12717000E+01
		 0.00000000E+00
		 3.26080000E+01
		 0.00000000E+00
		 0.00000000E+00
		 1.62553000E+01
		 3.12386000E+01
		 3.26154000E+01
		 6.56703000E+01
		 6.57437000E+01
		 4.89812000E+01
		 4.90132000E+01
		 6.34648000E+01
		 6.57269000E+01
		 6.35372000E+01
		 6.55970000E+01
		 4.89493000E+01
		 6.33925000E+01
		 6.56137000E+01
		 0.00000000E+00
		 0.00000000E+00
		 3.38493000E+01
		 3.38670000E+01
		 0.00000000E+00
		 0.00000000E+00
		 0.00000000E+00
		 1.69093000E+01
		 1.69156000E+01
		 3.33698000E+01
		 3.38595000E+01
		 3.33874000E+01
		 0.00000000E+00
		 3.38315000E+01
		 0.00000000E+00
		 0.00000000E+00
		 1.69030000E+01
		 3.33522000E+01
		 3.38391000E+01
		 6.79840000E+01
		 6.80595000E+01
		 5.08742000E+01
		 5.09075000E+01
		 6.72099000E+01
		 6.80418000E+01
		 6.72848000E+01
		 6.79085000E+01
		 5.08410000E+01
		 6.71351000E+01
		 6.79263000E+01
		 0.00000000E+00
		 0.00000000E+00
		 3.43355000E+01
		 3.43536000E+01
		 0.00000000E+00
		 0.00000000E+00
		 0.00000000E+00
		 1.71516000E+01
		 1.71581000E+01
		 3.41483000E+01
		 3.43459000E+01
		 3.41662000E+01
		 0.00000000E+00
		 3.43173000E+01
		 0.00000000E+00
		 0.00000000E+00
		 1.71452000E+01
		 3.41303000E+01
		 3.43250000E+01
		 6.88900000E+01
		 6.89670000E+01
		 5.15655000E+01
		 5.15993000E+01
		 6.85605000E+01
		 6.89490000E+01
		 6.86367000E+01
		 6.88131000E+01
		 5.15317000E+01
		 6.84843000E+01
		 6.88311000E+01
		 0.00000000E+00
		 0.00000000E+00
		 3.43945000E+01
		 3.44129000E+01
		 0.00000000E+00
		 0.00000000E+00
		 0.00000000E+00
		 1.71825000E+01
		 1.71891000E+01
		 3.44180000E+01
		 3.44051000E+01
		 3.44363000E+01
		 0.00000000E+00
		 3.43760000E+01
		 0.00000000E+00
		 0.00000000E+00
		 1.71759000E+01
		 3.43997000E+01
		 3.43838000E+01
		 6.90680000E+01
		 6.91465000E+01
		 5.16907000E+01
		 5.17253000E+01
		 6.90939000E+01
		 6.91280000E+01
		 6.91717000E+01
		 6.89894000E+01
		 5.16562000E+01
		 6.90162000E+01
		 6.90079000E+01
		 0.00000000E+00
		 0.00000000E+00
		 3.37666000E+01
		 3.37856000E+01
		 0.00000000E+00
		 0.00000000E+00
		 0.00000000E+00
		 1.68336000E+01
		 1.68403000E+01
		 3.42055000E+01
		 3.37775000E+01
		 3.42242000E+01
		 0.00000000E+00
		 3.37477000E+01
		 0.00000000E+00
		 0.00000000E+00
		 1.68269000E+01
		 3.41868000E+01
		 3.37558000E+01
		 6.79531000E+01
		 6.80328000E+01
		 5.06988000E+01
		 5.07335000E+01
		 6.88604000E+01
		 6.80145000E+01
		 6.89399000E+01
		 6.78734000E+01
		 5.06641000E+01
		 6.87811000E+01
		 6.78917000E+01
		 0.00000000E+00
		 0.00000000E+00
		 3.12527000E+01
		 3.12705000E+01
		 0.00000000E+00
		 0.00000000E+00
		 0.00000000E+00
		 1.56215000E+01
		 1.56278000E+01
		 3.27224000E+01
		 3.12629000E+01
		 3.27409000E+01
		 0.00000000E+00
		 3.12349000E+01
		 0.00000000E+00
		 0.00000000E+00
		 1.56152000E+01
		 3.27040000E+01
		 3.12425000E+01
		 6.25311000E+01
		 6.26064000E+01
		 4.68732000E+01
		 4.69062000E+01
		 6.64024000E+01
		 6.25889000E+01
		 6.64829000E+01
		 6.24557000E+01
		 4.68401000E+01
		 6.63220000E+01
		 6.24733000E+01
		 0.00000000E+00
		 0.00000000E+00
		 2.92910000E+01
		 2.93072000E+01
		 0.00000000E+00
		 0.00000000E+00
		 0.00000000E+00
		 1.47219000E+01
		 1.47277000E+01
		 2.99114000E+01
		 2.93004000E+01
		 2.99284000E+01
		 0.00000000E+00
		 2.92748000E+01
		 0.00000000E+00
		 0.00000000E+00
		 1.47161000E+01
		 2.98945000E+01
		 2.92816000E+01
		 5.81287000E+01
		 5.81994000E+01
		 4.39617000E+01
		 4.39933000E+01
		 5.87964000E+01
		 5.81820000E+01
		 5.88667000E+01
		 5.80579000E+01
		 4.39301000E+01
		 5.87260000E+01
		 5.80753000E+01
FIELD FLUX 1
	FLUX 3 522 double
		 1.00172000E+04	-2.05509000E-02	 1.05449000E+01
		 1.00168000E+04	 5.52196000E-01	 1.05831000E+01
		 9.99408000E+03	 6.79565000E-01	-3.86720000E+01
		 9.99453000E+03	-5.56083000E-02	-3.85951000E+01
		 1.01132000E+04	 4.43825000E-02	-2.03313000E+00
		 1.01132000E+04	 7.74230000E-02	-2.04089000E+00
		 1.01001000E+04	 9.43065000E-02	-1.27248000E+01
		 1.01001000E+04	 5.79905000E-02	-1.27160000E+01
		 1.00180000E+04	 2.62099000E-01	 1.05733000E+01
		 1.00167000E+04	 5.85217000E-01	-1.53508000E+01
		 9.99529000E+03	 3.09128000E-01	-3.86238000E+01
		 1.00171000E+04	-6.89302000E-02	-1.53272000E+01
		 1.00621000E+04	-2.65808000E-02	 5.06427000E+00
		 1.00619000E+04	 2.73172000E-01	 5.08720000E+00
		 1.00457000E+04	 3.30991000E-01	-2.50263000E+01
		 1.00459000E+04	-5.27087000E-02	-2.49914000E+01
		 1.01142000E+04	 6.05793000E-02	-2.03743000E+00
		 1.01140000E+04	 8.58863000E-02	-7.25757000E+00
		 1.01010000E+04	 7.60095000E-02	-1.27209000E+01
		 1.01141000E+04	 5.12194000E-02	-7.24985000E+00
		 1.00164000E+04	-1.66330000E-03	 1.06232000E+01
		 9.99360000E+03	-4.36655000E-02	-3.87455000E+01
		 1.01131000E+04	 4.48603000E-02	-2.04843000E+00
		 1.01000000E+04	 5.84784000E-02	-1.27335000E+01
		 1.00174000E+04	 2.79015000E-01	 1.05917000E+01
		 1.00163000E+04	-5.31410000E-02	-1.53717000E+01
		 9.99466000E+03	 3.20829000E-01	-3.87212000E+01
		 1.00617000E+04	-2.31791000E-02	 5.11007000E+00
		 1.00455000E+04	-5.05817000E-02	-2.50605000E+01
		 1.01140000E+04	 6.14805000E-02	-2.04549000E+00
		 1.01140000E+04	 5.16794000E-02	-7.26510000E+00
		 1.01009000E+04	 7.65490000E-02	-1.27302000E+01
		 1.02489000E+04	-1.22964000E-06	 1.44809000E-04
		 1.02489000E+04	-1.30418000E-06	 1.44890000E-04
		 1.02364000E+04	-1.47862000E-06	 2.01648000E-04
		 1.02365000E+04	-1.40316000E-06	 2.01555000E-04
		 1.01860000E+04	 1.39484000E-02	-7.59597000E-01
		 1.01859000E+04	 3.03197000E-02	-7.62138000E-01
		 1.01714000E+04	 3.61317000E-02	-6.14839000E+00
		 1.01715000E+04	 1.80703000E-02	-6.14541000E+00
		 1.02498000E+04	 1.29160000E-06	-1.67647000E-04
		 1.02462000E+04	 1.24575000E-06	-1.58068000E-04
		 1.02374000E+04	 1.43027000E-06	-1.92916000E-04
		 1.02462000E+04	 1.30491000E-06	-1.58007000E-04
		 1.02488000E+04	-1.24020000E-06	 1.44970000E-04
		 1.02364000E+04	-1.41145000E-06	 2.01739000E-04
		 1.01859000E+04	 1.38887000E-02	-7.64618000E-01
		 1.01714000E+04	 1.81205000E-02	-6.15140000E+00
		 1.02498000E+04	 1.29985000E-06	-1.67788000E-04
		 1.02461000E+04	 1.31402000E-06	-1.58129000E-04
		 1.02373000E+04	 1.43808000E-06	-1.93079000E-04
		 9.96651000E+03	 8.40091000E-01	-1.30960000E+01
		 9.96707000E+03	-8.23018000E-02	-1.30819000E+01
		 1.00790000E+04	 1.16477000E-01	-7.70891000E+00
		 1.00791000E+04	 7.34224000E-02	-7.70303000E+00
		 9.97549000E+03	 7.76857000E-01	-2.24670000E+01
		 9.96780000E+03	 3.76720000E-01	-1.30827000E+01
		 9.97601000E+03	-5.15551000E-02	-2.24332000E+01
		 1.00224000E+04	 4.06916000E-01	-1.02861000E+01
		 1.00226000E+04	-7.44375000E-02	-1.02807000E+01
		 1.00870000E+04	 1.05651000E-01	-1.07977000E+01
		 1.00800000E+04	 9.49114000E-02	-7.70635000E+00
		 1.00871000E+04	 6.59254000E-02	-1.07883000E+01
		 9.96593000E+03	-7.52249000E-02	-1.31108000E+01
		 1.00790000E+04	 7.39809000E-02	-7.71466000E+00
		 9.97494000E+03	-4.27858000E-02	-2.24989000E+01
		 9.96701000E+03	 3.84642000E-01	-1.31119000E+01
		 1.00221000E+04	-7.33600000E-02	-1.02918000E+01
		 1.00870000E+04	 6.65291000E-02	-1.08071000E+01
		 1.00798000E+04	 9.52887000E-02	-7.71285000E+00
		 1.02162000E+04	-1.76078000E-06	 1.75131000E-04
		 1.02162000E+04	-1.68154000E-06	 1.75061000E-04
		 1.01498000E+04	 4.43244000E-02	-3.81492000E+00
		 1.01499000E+04	 2.28622000E-02	-3.81287000E+00
		 1.02261000E+04	 1.55147000E-06	-2.41610000E-04
		 1.02171000E+04	 1.68834000E-06	-1.81380000E-04
		 1.02262000E+04	 1.62099000E-06	-2.41530000E-04
		 1.02162000E+04	-1.68776000E-06	 1.75201000E-04
		 1.01497000E+04	 2.30100000E-02	-3.81692000E+00
		 1.02261000E+04	 1.62779000E-06	-2.41691000E-04
		 1.02171000E+04	 1.69443000E-06	-1.81507000E-04
		 9.95872000E+03	 8.94111000E-01	-5.32221000E+00
		 9.95931000E+03	-7.58677000E-02	-5.31562000E+00
		 1.00680000E+04	 1.24497000E-01	-3.29101000E+00
		 1.00681000E+04	 7.70736000E-02	-3.28866000E+00
		 9.96079000E+03	 8.74435000E-01	-1.02211000E+01
		 9.96003000E+03	 4.06673000E-01	-5.31679000E+00
		 9.96138000E+03	-7.19209000E-02	-1.02061000E+01
		 1.00122000E+04	 4.35037000E-01	-4.45664000E+00
		 1.00125000E+04	-7.18817000E-02	-4.45351000E+00
		 1.00726000E+04	 1.20395000E-01	-5.14656000E+00
		 1.00690000E+04	 1.00675000E-01	-3.28999000E+00
		 1.00727000E+04	 7.51828000E-02	-5.14368000E+00
		 9.95810000E+03	-6.63968000E-02	-5.32899000E+00
		 1.00679000E+04	 7.76456000E-02	-3.29344000E+00
		 9.96018000E+03	-6.33058000E-02	-1.02370000E+01
		 9.95919000E+03	 4.16344000E-01	-5.32868000E+00
		 1.00119000E+04	-7.04242000E-02	-4.45970000E+00
		 1.00726000E+04	 7.56940000E-02	-5.14952000E+00
		 1.00688000E+04	 1.01204000E-01	-3.29275000E+00
		 1.02052000E+04	-1.91647000E-06	 8.15965000E-05
		 1.02052000E+04	-1.82946000E-06	 8.15685000E-05
		 1.01395000E+04	 4.77032000E-02	-1.69131000E+00
		 1.01396000E+04	 2.40765000E-02	-1.69043000E+00
		 1.02108000E+04	 1.76927000E-06	-1.20305000E-04
		 1.02061000E+04	 1.85290000E-06	-8.57960000E-05
		 1.02108000E+04	 1.85012000E-06	-1.20276000E-04
		 1.02051000E+04	-1.83634000E-06	 8.16245000E-05
		 1.01394000E+04	 2.41918000E-02	-1.69222000E+00
		 1.02107000E+04	 1.85478000E-06	-1.20334000E-04
		 1.02061000E+04	 1.85851000E-06	-8.58477000E-05
		 9.95459000E+03	 9.27793000E-01	-2.34265000E+00
		 9.95521000E+03	-7.90862000E-02	-2.33674000E+00
		 1.00637000E+04	 1.28998000E-01	-1.15857000E+00
		 1.00638000E+04	 8.00485000E-02	-1.15718000E+00
		 9.95638000E+03	 9.13439000E-01	-4.26396000E+00
		 9.95592000E+03	 4.21841000E-01	-2.33818000E+00
		 9.95699000E+03	-7.49991000E-02	-4.25638000E+00
		 1.00081000E+04	 4.51252000E-01	-1.74919000E+00
		 1.00084000E+04	-7.48989000E-02	-1.74656000E+00
		 1.00659000E+04	 1.26659000E-01	-2.18509000E+00
		 1.00647000E+04	 1.04425000E-01	-1.15790000E+00
		 1.00660000E+04	 7.84730000E-02	-2.18321000E+00
		 9.95395000E+03	-6.92646000E-02	-2.34856000E+00
		 1.00636000E+04	 8.05566000E-02	-1.15997000E+00
		 9.95574000E+03	-6.53349000E-02	-4.27170000E+00
		 9.95505000E+03	 4.31816000E-01	-2.34743000E+00
		 1.00077000E+04	-7.32601000E-02	-1.75182000E+00
		 1.00659000E+04	 7.90116000E-02	-2.18694000E+00
		 1.00645000E+04	 1.04900000E-01	-1.15946000E+00
		 1.02008000E+04	-1.99157000E-06	 2.52659000E-05
		 1.02008000E+04	-1.89840000E-06	 2.52499000E-05
		 1.01352000E+04	 4.93693000E-02	-5.78618000E-01
		 1.01353000E+04	 2.49768000E-02	-5.78120000E-01
		 1.02035000E+04	 1.85755000E-06	-4.99529000E-05
		 1.02017000E+04	 1.92405000E-06	-2.59757000E-05
		 1.02035000E+04	 1.94308000E-06	-4.99369000E-05
		 1.02008000E+04	-1.90565000E-06	 2.52819000E-05
		 1.01351000E+04	 2.50650000E-02	-5.79116000E-01
		 1.02034000E+04	 1.94941000E-06	-4.99689000E-05
		 1.02017000E+04	 1.93058000E-06	-2.60048000E-05
		 9.95404000E+03	 9.43992000E-01	 6.20774000E-01
		 9.95467000E+03	-7.94290000E-02	 6.26304000E-01
		 1.00634000E+04	 1.31496000E-01	 1.04672000E+00
		 1.00635000E+04	 8.13638000E-02	 1.04720000E+00
		 9.95402000E+03	 9.38503000E-01	-3.40012000E-01
		 9.95538000E+03	 4.29816000E-01	 6.24634000E-01
		 9.95465000E+03	-7.66587000E-02	-3.36024000E-01
		 1.00076000E+04	 4.59391000E-01	 1.02037000E+00
		 1.00079000E+04	-7.55874000E-02	 1.02247000E+00
		 1.00636000E+04	 1.30142000E-01	-9.48076000E-02
		 1.00644000E+04	 1.06321000E-01	 1.04707000E+00
		 1.00637000E+04	 8.06013000E-02	-9.38594000E-02
		 9.95339000E+03	-7.00327000E-02	 6.15559000E-01
		 1.00633000E+04	 8.19633000E-02	 1.04634000E+00
		 9.95337000E+03	-6.70271000E-02	-3.43846000E-01
		 9.95450000E+03	 4.39485000E-01	 6.17445000E-01
		 1.00072000E+04	-7.41858000E-02	 1.01820000E+00
		 1.00635000E+04	 8.11540000E-02	-9.57890000E-02
		 1.00642000E+04	 1.06863000E-01	 1.04671000E+00
		 1.02006000E+04	-2.02410000E-06	-3.39794000E-05
		 1.02007000E+04	-1.93306000E-06	-3.39834000E-05
		 1.01350000E+04	 5.04031000E-02	 5.80957000E-01
		 1.01351000E+04	 2.54226000E-02	 5.81069000E-01
		 1.02012000E+04	 1.90860000E-06	-2.09692000E-06
		 1.02016000E+04	 1.95792000E-06	 3.71005000E-05
		 1.02012000E+04	 1.99653000E-06	-2.08758000E-06
		 1.02006000E+04	-1.93965000E-06	-3.39754000E-05
		 1.01349000E+04	 2.55500000E-02	 5.80883000E-01
		 1.02011000E+04	 2.00295000E-06	-2.10620000E-06
		 1.02015000E+04	 1.96329000E-06	 3.70944000E-05
		 9.95705000E+03	 9.40208000E-01	 8.80982000E+00
		 9.95768000E+03	-9.40280000E-02	 8.80963000E+00
		 1.00705000E+04	 1.30338000E-01	 6.04522000E+00
		 1.00706000E+04	 8.25133000E-02	 6.04124000E+00
		 9.95346000E+03	 9.50612000E-01	 6.08002000E+00
		 9.95839000E+03	 4.21103000E-01	 8.80556000E+00
		 9.95410000E+03	-7.84145000E-02	 6.07567000E+00
		 1.00135000E+04	 4.55065000E-01	 7.33800000E+00
		 1.00138000E+04	-8.47635000E-02	 7.33914000E+00
		 1.00659000E+04	 1.30768000E-01	 3.11585000E+00
		 1.00715000E+04	 1.06404000E-01	 6.04357000E+00
		 1.00660000E+04	 8.18196000E-02	 3.11589000E+00
		 9.95640000E+03	-8.76163000E-02	 8.81075000E+00
		 1.00704000E+04	 8.29941000E-02	 6.04897000E+00
		 9.95280000E+03	-7.01149000E-02	 6.08561000E+00
		 9.95750000E+03	 4.28322000E-01	 8.81625000E+00
		 1.00132000E+04	-8.37205000E-02	 7.33735000E+00
		 1.00658000E+04	 8.22997000E-02	 3.11593000E+00
		 1.00713000E+04	 1.06711000E-01	 6.04794000E+00
		 1.02078000E+04	-1.96054000E-06	-1.43347000E-04
		 1.02078000E+04	-1.87417000E-06	-1.43298000E-04
		 1.01412000E+04	 4.95517000E-02	 2.99161000E+00
		 1.01413000E+04	 2.56972000E-02	 2.99022000E+00
		 1.02042000E+04	 1.92274000E-06	 7.45763000E-05
		 1.02087000E+04	 1.87766000E-06	 1.49556000E-04
		 1.02042000E+04	 2.01082000E-06	 7.45718000E-05
		 1.02077000E+04	-1.88025000E-06	-1.43397000E-04
		 1.01411000E+04	 2.58211000E-02	 2.99290000E+00
		 1.02041000E+04	 2.01491000E-06	 7.45805000E-05
		 1.02086000E+04	 1.88383000E-06	 1.49645000E-04
		 9.98317000E+03	 7.94856000E-01	 3.99770000E+01
		 9.98369000E+03	-6.81422000E-02	 3.98928000E+01
		 1.00899000E+04	 1.10274000E-01	 1.27092000E+01
		 1.00899000E+04	 6.82119000E-02	 1.27005000E+01
		 9.96387000E+03	 8.92514000E-01	 2.08549000E+01
		 9.98443000E+03	 3.60188000E-01	 3.99249000E+01
		 9.96447000E+03	-5.55628000E-02	 2.08245000E+01
		 1.00352000E+04	 3.86647000E-01	 2.56179000E+01
		 1.00355000E+04	-6.36285000E-02	 2.55791000E+01