# vtk DataFile Version 3.0

ASCII
DATASET UNSTRUCTURED_GRID

POINTS 16 double
	 8.83883000E-02	-1.25000000E-01	-8.83883000E-02
	 8.83883000E-02	 1.25000000E-01	-8.83883000E-02
	-8.83883000E-02	 1.25000000E-01	 8.83883000E-02
	-8.83883000E-02	-1.25000000E-01	 8.83883000E-02
	 5.08839000E+00	-1.25000000E-01	 4.91161000E+00
	 5.08839000E+00	 1.25000000E-01	 4.91161000E+00
	 4.91161000E+00	 1.25000000E-01	 5.08839000E+00
	 4.91161000E+00	-1.25000000E-01	 5.08839000E+00
	 5.08839000E+00	-1.25000000E-01	 5.08839000E+00
	 5.08839000E+00	 1.25000000E-01	 5.08839000E+00
	 4.91161000E+00	 1.25000000E-01	 4.91161000E+00
	 4.91161000E+00	-1.25000000E-01	 4.91161000E+00
	 8.83883000E-02	-1.25000000E-01	 1.00884000E+01
	 8.83883000E-02	 1.25000000E-01	 1.00884000E+01
	-8.83883000E-02	 1.25000000E-01	 9.91161000E+00
	-8.83883000E-02	-1.25000000E-01	 9.91161000E+00

CELLS 2 18
	8 0 4 5 1 3 7 6 2 
	8 8 12 13 9 11 15 14 10 

CELL_TYPES 2
	12
	12

POINT_DATA 16
FIELD U 1
	U 3 16 double
		-1.05232000E-07	 4.24264000E-08	-4.52316000E-08
		-1.54768000E-07	-4.24264000E-08	-9.47684000E-08
		 1.05232000E-07	-4.24264000E-08	 4.52316000E-08
		 1.54768000E-07	 4.24264000E-08	 9.47684000E-08
		 1.12085000E-05	 2.02390000E-06	-4.52316000E-08
		 1.11589000E-05	 1.93905000E-06	-9.47684000E-08
		 1.14189000E-05	 1.93905000E-06	 4.52316000E-08
		 1.14685000E-05	 2.02390000E-06	 9.47684000E-08
		 1.12085000E-05	 2.02390000E-06	 4.52316000E-08
		 1.11589000E-05	 1.93905000E-06	 9.47684000E-08
		 1.14189000E-05	 1.93905000E-06	-4.52316000E-08
		 1.14685000E-05	 2.02390000E-06	-9.47684000E-08
		-1.05232000E-07	 4.24264000E-08	 4.52316000E-08
		-1.54768000E-07	-4.24264000E-08	 9.47684000E-08
		 1.05232000E-07	-4.24264000E-08	-4.52316000E-08
		 1.54768000E-07	 4.24264000E-08	-9.47684000E-08
FIELD S 1
	S 10 16 double
		 5.65663000E+00	 0.00000000E+00	 5.65663000E+00	 0.00000000E+00	 0.00000000E+00	 5.65663000E+00	 1.13132600E+01	 0.00000000E+00	 0.00000000E+00	 1.13132600E+01
		 5.65663000E+00	 0.00000000E+00	 5.65663000E+00	 0.00000000E+00	 0.00000000E+00	 5.65663000E+00	 1.13132600E+01	 0.00000000E+00	 0.00000000E+00	 1.13132600E+01
		 5.65663000E+00	 0.00000000E+00	 5.65663000E+00	 0.00000000E+00	 0.00000000E+00	 5.65663000E+00	 1.13132600E+01	 0.00000000E+00	 0.00000000E+00	 1.13132600E+01
		 5.65663000E+00	 0.00000000E+00	 5.65663000E+00	 0.00000000E+00	 0.00000000E+00	 5.65663000E+00	 1.13132600E+01	 0.00000000E+00	 0.00000000E+00	 1.13132600E+01
		 5.65663000E+00	 0.00000000E+00	 5.65663000E+00	 0.00000000E+00	 0.00000000E+00	 5.65663000E+00	 1.13132600E+01	 0.00000000E+00	 0.00000000E+00	 1.13132600E+01
		 5.65663000E+00	 0.00000000E+00	 5.65663000E+00	 0.00000000E+00	 0.00000000E+00	 5.65663000E+00	 1.13132600E+01	 0.00000000E+00	 0.00000000E+00	 1.13132600E+01
		 5.65663000E+00	 0.00000000E+00	 5.65663000E+00	 0.00000000E+00	 0.00000000E+00	 5.65663000E+00	 1.13132600E+01	 0.00000000E+00	 0.00000000E+00	 1.13132600E+01
		 5.65663000E+00	 0.00000000E+00	 5.65663000E+00	 0.00000000E+00	 0.00000000E+00	 5.65663000E+00	 1.13132600E+01	 0.00000000E+00	 0.00000000E+00	 1.13132600E+01
		 5.65663000E+00	 0.00000000E+00	 5.65663000E+00	 0.00000000E+00	 0.00000000E+00	-5.65663000E+00	 1.13132600E+01	 0.00000000E+00	 0.00000000E+00	 1.13132600E+01
		 5.65663000E+00	 0.00000000E+00	 5.65663000E+00	 0.00000000E+00	 0.00000000E+00	-5.65663000E+00	 1.13132600E+01	 0.00000000E+00	 0.00000000E+00	 1.13132600E+01
		 5.65663000E+00	 0.00000000E+00	 5.65663000E+00	 0.00000000E+00	 0.00000000E+00	-5.65663000E+00	 1.13132600E+01	 0.00000000E+00	 0.00000000E+00	 1.13132600E+01
		 5.65663000E+00	 0.00000000E+00	 5.65663000E+00	 0.00000000E+00	 0.00000000E+00	-5.65663000E+00	 1.13132600E+01	 0.00000000E+00	 0.00000000E+00	 1.13132600E+01
		 5.65663000E+00	 0.00000000E+00	 5.65663000E+00	 0.00000000E+00	 0.00000000E+00	-5.65663000E+00	 1.13132600E+01	 0.00000000E+00	 0.00000000E+00	 1.13132600E+01
		 5.65663000E+00	 0.00000000E+00	 5.65663000E+00	 0.00000000E+00	 0.00000000E+00	-5.65663000E+00	 1.13132600E+01	 0.00000000E+00	 0.00000000E+00	 1.13132600E+01
		 5.65663000E+00	 0.00000000E+00	 5.65663000E+00	 0.00000000E+00	 0.00000000E+00	-5.65663000E+00	 1.13132600E+01	 0.00000000E+00	 0.00000000E+00	 1.13132600E+01
		 5.65663000E+00	 0.00000000E+00	 5.65663000E+00	 0.00000000E+00	 0.00000000E+00	-5.65663000E+00	 1.13132600E+01	 0.00000000E+00	 0.00000000E+00	 1.13132600E+01
