    1C
    1UUSER                                                              
    1UDATE              01.august.2019                                  
    1UTIME              09:58:32                                        
    1UHOST                                                              
    1UPGM               CalculiX                                        
    1UVERSION           Version 2.15                             
    1UCOMPILETIME       Fri 15 Mar 11:57:46 CET 2019                    
    1UDIR                                                               
    1UDBN                                                               
    1UMAT    1EL                                                        
    2C                             0                                     1
 -3
    3C                             0                                     1
 -3
 9999
