# vtk DataFile Version 3.0

ASCII
DATASET UNSTRUCTURED_GRID

POINTS 4812 double
	 1.25000000E-01	 1.25000000E-01	 0.00000000E+00
	 1.25000000E-01	 1.25000000E-01	 1.50000000E-02
	 1.25000000E-01	-1.25000000E-01	 0.00000000E+00
	 1.25000000E-01	-1.25000000E-01	 1.50000000E-02
	-1.25000000E-01	 1.25000000E-01	 0.00000000E+00
	-1.25000000E-01	 1.25000000E-01	 1.50000000E-02
	-1.25000000E-01	-1.25000000E-01	 0.00000000E+00
	-1.25000000E-01	-1.25000000E-01	 1.50000000E-02
	-1.25000000E-01	-1.10294000E-01	 1.50000000E-02
	-1.25000000E-01	-9.55882000E-02	 1.50000000E-02
	-1.25000000E-01	-8.08823000E-02	 1.50000000E-02
	-1.25000000E-01	-6.61765000E-02	 1.50000000E-02
	-1.25000000E-01	-5.14706000E-02	 1.50000000E-02
	-1.25000000E-01	-3.67647000E-02	 1.50000000E-02
	-1.25000000E-01	-2.20588000E-02	 1.50000000E-02
	-1.25000000E-01	-7.35294000E-03	 1.50000000E-02
	-1.25000000E-01	 7.35294000E-03	 1.50000000E-02
	-1.25000000E-01	 2.20588000E-02	 1.50000000E-02
	-1.25000000E-01	 3.67647000E-02	 1.50000000E-02
	-1.25000000E-01	 5.14706000E-02	 1.50000000E-02
	-1.25000000E-01	 6.61765000E-02	 1.50000000E-02
	-1.25000000E-01	 8.08823000E-02	 1.50000000E-02
	-1.25000000E-01	 9.55882000E-02	 1.50000000E-02
	-1.25000000E-01	 1.10294000E-01	 1.50000000E-02
	-1.10294000E-01	 1.25000000E-01	 1.50000000E-02
	-9.55882000E-02	 1.25000000E-01	 1.50000000E-02
	-8.08823000E-02	 1.25000000E-01	 1.50000000E-02
	-6.61765000E-02	 1.25000000E-01	 1.50000000E-02
	-5.14706000E-02	 1.25000000E-01	 1.50000000E-02
	-3.67647000E-02	 1.25000000E-01	 1.50000000E-02
	-2.20588000E-02	 1.25000000E-01	 1.50000000E-02
	-7.35294000E-03	 1.25000000E-01	 1.50000000E-02
	 7.35294000E-03	 1.25000000E-01	 1.50000000E-02
	 2.20588000E-02	 1.25000000E-01	 1.50000000E-02
	 3.67647000E-02	 1.25000000E-01	 1.50000000E-02
	 5.14706000E-02	 1.25000000E-01	 1.50000000E-02
	 6.61765000E-02	 1.25000000E-01	 1.50000000E-02
	 8.08823000E-02	 1.25000000E-01	 1.50000000E-02
	 9.55882000E-02	 1.25000000E-01	 1.50000000E-02
	 1.10294000E-01	 1.25000000E-01	 1.50000000E-02
	 1.25000000E-01	-1.10294000E-01	 1.50000000E-02
	 1.25000000E-01	-9.55882000E-02	 1.50000000E-02
	 1.25000000E-01	-8.08823000E-02	 1.50000000E-02
	 1.25000000E-01	-6.61765000E-02	 1.50000000E-02
	 1.25000000E-01	-5.14706000E-02	 1.50000000E-02
	 1.25000000E-01	-3.67647000E-02	 1.50000000E-02
	 1.25000000E-01	-2.20588000E-02	 1.50000000E-02
	 1.25000000E-01	-7.35294000E-03	 1.50000000E-02
	 1.25000000E-01	 7.35294000E-03	 1.50000000E-02
	 1.25000000E-01	 2.20588000E-02	 1.50000000E-02
	 1.25000000E-01	 3.67647000E-02	 1.50000000E-02
	 1.25000000E-01	 5.14706000E-02	 1.50000000E-02
	 1.25000000E-01	 6.61765000E-02	 1.50000000E-02
	 1.25000000E-01	 8.08823000E-02	 1.50000000E-02
	 1.25000000E-01	 9.55882000E-02	 1.50000000E-02
	 1.25000000E-01	 1.10294000E-01	 1.50000000E-02
	-1.10294000E-01	-1.25000000E-01	 1.50000000E-02
	-9.55882000E-02	-1.25000000E-01	 1.50000000E-02
	-8.08823000E-02	-1.25000000E-01	 1.50000000E-02
	-6.61765000E-02	-1.25000000E-01	 1.50000000E-02
	-5.14706000E-02	-1.25000000E-01	 1.50000000E-02
	-3.67647000E-02	-1.25000000E-01	 1.50000000E-02
	-2.20588000E-02	-1.25000000E-01	 1.50000000E-02
	-7.35294000E-03	-1.25000000E-01	 1.50000000E-02
	 7.35294000E-03	-1.25000000E-01	 1.50000000E-02
	 2.20588000E-02	-1.25000000E-01	 1.50000000E-02
	 3.67647000E-02	-1.25000000E-01	 1.50000000E-02
	 5.14706000E-02	-1.25000000E-01	 1.50000000E-02
	 6.61765000E-02	-1.25000000E-01	 1.50000000E-02
	 8.08823000E-02	-1.25000000E-01	 1.50000000E-02
	 9.55882000E-02	-1.25000000E-01	 1.50000000E-02
	 1.10294000E-01	-1.25000000E-01	 1.50000000E-02
	-1.25000000E-01	-1.10294000E-01	 0.00000000E+00
	-1.25000000E-01	-9.55882000E-02	 0.00000000E+00
	-1.25000000E-01	-8.08823000E-02	 0.00000000E+00
	-1.25000000E-01	-6.61765000E-02	 0.00000000E+00
	-1.25000000E-01	-5.14706000E-02	 0.00000000E+00
	-1.25000000E-01	-3.67647000E-02	 0.00000000E+00
	-1.25000000E-01	-2.20588000E-02	 0.00000000E+00
	-1.25000000E-01	-7.35294000E-03	 0.00000000E+00
	-1.25000000E-01	 7.35294000E-03	 0.00000000E+00
	-1.25000000E-01	 2.20588000E-02	 0.00000000E+00
	-1.25000000E-01	 3.67647000E-02	 0.00000000E+00
	-1.25000000E-01	 5.14706000E-02	 0.00000000E+00
	-1.25000000E-01	 6.61765000E-02	 0.00000000E+00
	-1.25000000E-01	 8.08823000E-02	 0.00000000E+00
	-1.25000000E-01	 9.55882000E-02	 0.00000000E+00
	-1.25000000E-01	 1.10294000E-01	 0.00000000E+00
	-1.10294000E-01	 1.25000000E-01	 0.00000000E+00
	-9.55882000E-02	 1.25000000E-01	 0.00000000E+00
	-8.08823000E-02	 1.25000000E-01	 0.00000000E+00
	-6.61765000E-02	 1.25000000E-01	 0.00000000E+00
	-5.14706000E-02	 1.25000000E-01	 0.00000000E+00
	-3.67647000E-02	 1.25000000E-01	 0.00000000E+00
	-2.20588000E-02	 1.25000000E-01	 0.00000000E+00
	-7.35294000E-03	 1.25000000E-01	 0.00000000E+00
	 7.35294000E-03	 1.25000000E-01	 0.00000000E+00
	 2.20588000E-02	 1.25000000E-01	 0.00000000E+00
	 3.67647000E-02	 1.25000000E-01	 0.00000000E+00
	 5.14706000E-02	 1.25000000E-01	 0.00000000E+00
	 6.61765000E-02	 1.25000000E-01	 0.00000000E+00
	 8.08823000E-02	 1.25000000E-01	 0.00000000E+00
	 9.55882000E-02	 1.25000000E-01	 0.00000000E+00
	 1.10294000E-01	 1.25000000E-01	 0.00000000E+00
	 1.25000000E-01	-1.10294000E-01	 0.00000000E+00
	 1.25000000E-01	-9.55882000E-02	 0.00000000E+00
	 1.25000000E-01	-8.08823000E-02	 0.00000000E+00
	 1.25000000E-01	-6.61765000E-02	 0.00000000E+00
	 1.25000000E-01	-5.14706000E-02	 0.00000000E+00
	 1.25000000E-01	-3.67647000E-02	 0.00000000E+00
	 1.25000000E-01	-2.20588000E-02	 0.00000000E+00
	 1.25000000E-01	-7.35294000E-03	 0.00000000E+00
	 1.25000000E-01	 7.35294000E-03	 0.00000000E+00
	 1.25000000E-01	 2.20588000E-02	 0.00000000E+00
	 1.25000000E-01	 3.67647000E-02	 0.00000000E+00
	 1.25000000E-01	 5.14706000E-02	 0.00000000E+00
	 1.25000000E-01	 6.61765000E-02	 0.00000000E+00
	 1.25000000E-01	 8.08823000E-02	 0.00000000E+00
	 1.25000000E-01	 9.55882000E-02	 0.00000000E+00
	 1.25000000E-01	 1.10294000E-01	 0.00000000E+00
	-1.10294000E-01	-1.25000000E-01	 0.00000000E+00
	-9.55882000E-02	-1.25000000E-01	 0.00000000E+00
	-8.08823000E-02	-1.25000000E-01	 0.00000000E+00
	-6.61765000E-02	-1.25000000E-01	 0.00000000E+00
	-5.14706000E-02	-1.25000000E-01	 0.00000000E+00
	-3.67647000E-02	-1.25000000E-01	 0.00000000E+00
	-2.20588000E-02	-1.25000000E-01	 0.00000000E+00
	-7.35294000E-03	-1.25000000E-01	 0.00000000E+00
	 7.35294000E-03	-1.25000000E-01	 0.00000000E+00
	 2.20588000E-02	-1.25000000E-01	 0.00000000E+00
	 3.67647000E-02	-1.25000000E-01	 0.00000000E+00
	 5.14706000E-02	-1.25000000E-01	 0.00000000E+00
	 6.61765000E-02	-1.25000000E-01	 0.00000000E+00
	 8.08823000E-02	-1.25000000E-01	 0.00000000E+00
	 9.55882000E-02	-1.25000000E-01	 0.00000000E+00
	 1.10294000E-01	-1.25000000E-01	 0.00000000E+00
	-1.12691000E-01	-1.00676000E-01	 1.50000000E-02
	-1.12480000E-01	-8.78239000E-02	 1.50000000E-02
	-1.12499000E-01	-7.35753000E-02	 1.50000000E-02
	-1.11896000E-01	-5.92220000E-02	 1.50000000E-02
	-1.11817000E-01	-4.44982000E-02	 1.50000000E-02
	-1.11896000E-01	-2.96596000E-02	 1.50000000E-02
	-1.11956000E-01	-1.48424000E-02	 1.50000000E-02
	-1.11981000E-01	-6.86688000E-05	 1.50000000E-02
	-1.11984000E-01	 1.46761000E-02	 1.50000000E-02
	-1.11981000E-01	 2.93807000E-02	 1.50000000E-02
	-1.12010000E-01	 4.40322000E-02	 1.50000000E-02
	-1.12061000E-01	 5.87089000E-02	 1.50000000E-02
	-1.11913000E-01	 7.36279000E-02	 1.50000000E-02
	-1.11394000E-01	 8.89844000E-02	 1.50000000E-02
	-1.11944000E-01	 1.04616000E-01	 1.50000000E-02
	-1.00679000E-01	 1.12543000E-01	 1.50000000E-02
	-8.75069000E-02	 1.11847000E-01	 1.50000000E-02
	-7.29850000E-02	 1.12227000E-01	 1.50000000E-02
	-5.83200000E-02	 1.12315000E-01	 1.50000000E-02
	-4.37561000E-02	 1.12181000E-01	 1.50000000E-02
	-2.92029000E-02	 1.12073000E-01	 1.50000000E-02
	-1.45989000E-02	 1.12031000E-01	 1.50000000E-02
	 5.28481000E-05	 1.12019000E-01	 1.50000000E-02
	 1.47228000E-02	 1.12022000E-01	 1.50000000E-02
	 2.93846000E-02	 1.12039000E-01	 1.50000000E-02
	 4.40390000E-02	 1.12026000E-01	 1.50000000E-02
	 5.87398000E-02	 1.11884000E-01	 1.50000000E-02
	 7.36211000E-02	 1.11501000E-01	 1.50000000E-02
	 8.89018000E-02	 1.10951000E-01	 1.50000000E-02
	 1.04525000E-01	 1.11735000E-01	 1.50000000E-02
	 1.13641000E-01	-1.05420000E-01	 1.50000000E-02
	 1.10503000E-01	-7.55273000E-02	 1.50000000E-02
	 1.11373000E-01	-4.47522000E-02	 1.50000000E-02
	 1.12007000E-01	-1.48999000E-02	 1.50000000E-02
	 1.12342000E-01	 1.42322000E-02	 1.50000000E-02
	 1.13012000E-01	 4.31662000E-02	 1.50000000E-02
	 1.12377000E-01	 7.25149000E-02	 1.50000000E-02
	 1.12407000E-01	 1.00420000E-01	 1.50000000E-02
	-1.04689000E-01	-1.11803000E-01	 1.50000000E-02
	-7.39103000E-02	-1.11300000E-01	 1.50000000E-02
	-4.41583000E-02	-1.11761000E-01	 1.50000000E-02
	-1.47069000E-02	-1.11933000E-01	 1.50000000E-02
	 1.47602000E-02	-1.11864000E-01	 1.50000000E-02
	 4.44803000E-02	-1.11043000E-01	 1.50000000E-02
	 7.38990000E-02	-1.11060000E-01	 1.50000000E-02
	 9.96676000E-02	-1.05638000E-01	 1.50000000E-02
	 1.11812000E-01	-2.97300000E-02	 1.50000000E-02
	 1.11143000E-01	-9.11213000E-02	 1.50000000E-02
	 1.10755000E-01	-6.00419000E-02	 1.50000000E-02
	 1.12131000E-01	-2.85896000E-04	 1.50000000E-02
	 1.12742000E-01	 2.86292000E-02	 1.50000000E-02
	 1.12924000E-01	 5.78017000E-02	 1.50000000E-02
	 1.11730000E-01	 8.70821000E-02	 1.50000000E-02
	-8.91706000E-02	-1.10878000E-01	 1.50000000E-02
	-5.89327000E-02	-1.11645000E-01	 1.50000000E-02
	-2.94282000E-02	-1.11855000E-01	 1.50000000E-02
	 1.74572000E-06	-1.11954000E-01	 1.50000000E-02
	 2.95919000E-02	-1.11536000E-01	 1.50000000E-02
	 5.93599000E-02	-1.10665000E-01	 1.50000000E-02
	 8.71431000E-02	-1.12724000E-01	 1.50000000E-02
	-1.01139000E-01	-8.10779000E-02	 1.50000000E-02
	-9.88853000E-02	-6.76141000E-02	 1.50000000E-02
	-9.85641000E-02	-5.26361000E-02	 1.50000000E-02
	-9.87848000E-02	-3.74631000E-02	 1.50000000E-02
	-9.89192000E-02	-2.24371000E-02	 1.50000000E-02
	-9.89578000E-02	-7.56375000E-03	 1.50000000E-02
[...]
POINT_DATA 4812
FIELD U 1
	U 3 4812 double
		 0.00000000E+00	 0.00000000E+00	 0.00000000E+00
		 9.10579000E-12	 7.54808000E-12	-3.83763000E-11
		 0.00000000E+00	 0.00000000E+00	 0.00000000E+00
		 7.74813000E-12	-1.04229000E-11	-4.21504000E-11
		 0.00000000E+00	 0.00000000E+00	 0.00000000E+00
		-8.70365000E-12	 7.83996000E-12	-3.82698000E-11
		 0.00000000E+00	 0.00000000E+00	 0.00000000E+00
		-9.41067000E-12	-7.85066000E-12	-3.88064000E-11
		-1.20985000E-11	-6.12183000E-12	-4.06840000E-11
		-1.10085000E-11	-2.50298000E-12	-3.77049000E-11
		-1.17186000E-11	-1.12434000E-12	-3.77583000E-11
		-1.19855000E-11	-4.56687000E-13	-3.78386000E-11
		-1.16323000E-11	-2.78316000E-13	-3.76939000E-11
		-1.30063000E-11	-2.32772000E-13	-3.91699000E-11
		-1.29806000E-11	-1.73172000E-13	-3.91259000E-11
		-1.34817000E-11	-1.01729000E-13	-3.93787000E-11
		-1.22006000E-11	-4.43859000E-14	-3.79543000E-11
		-1.23121000E-11	-7.15040000E-14	-3.80059000E-11
		-1.22303000E-11	 4.34121000E-14	-3.79896000E-11
		-1.16151000E-11	 9.64952000E-14	-3.76932000E-11
		-1.32664000E-11	 5.48570000E-13	-3.96482000E-11
		-1.21942000E-11	 1.14185000E-12	-3.93592000E-11
		-1.13267000E-11	 2.56976000E-12	-3.91506000E-11
		-1.06827000E-11	 6.26432000E-12	-4.10026000E-11
		-5.65553000E-12	 1.09667000E-11	-3.95463000E-11
		-2.41627000E-12	 1.24375000E-11	-3.92114000E-11
		-8.50023000E-13	 1.25971000E-11	-3.90770000E-11
		-3.47958000E-13	 1.15213000E-11	-3.76698000E-11
		-2.17045000E-13	 1.21204000E-11	-3.79363000E-11
		-7.77076000E-14	 1.37806000E-11	-3.88600000E-11
		 1.71812000E-14	 1.14363000E-11	-3.73589000E-11
		 8.11194000E-14	 1.23310000E-11	-3.79401000E-11
		 1.25743000E-13	 1.22998000E-11	-3.79448000E-11
		 1.70407000E-13	 1.22548000E-11	-3.79762000E-11
		 4.59157000E-13	 1.19842000E-11	-3.81087000E-11
		-1.33506000E-13	 9.47064000E-12	-3.70642000E-11
		 5.26905000E-13	 1.26904000E-11	-3.95519000E-11
		 1.07593000E-12	 1.23212000E-11	-3.94357000E-11
		 2.43114000E-12	 1.18214000E-11	-3.95383000E-11
		 5.48612000E-12	 1.17028000E-11	-3.99341000E-11
		 1.16229000E-11	-5.55041000E-12	-3.96220000E-11
		 1.05910000E-11	-2.59419000E-12	-3.75144000E-11
		 1.34056000E-11	-1.20948000E-12	-3.94632000E-11
		 1.22909000E-11	-5.23199000E-13	-3.81793000E-11
		 1.24521000E-11	-2.95740000E-13	-3.81750000E-11
		 1.14622000E-11	-1.40939000E-13	-3.74229000E-11
		 1.38050000E-11	-5.16853000E-14	-3.88425000E-11
		 1.22585000E-11	-5.68264000E-14	-3.79197000E-11
		 1.22672000E-11	-9.39471000E-14	-3.78705000E-11
		 1.22267000E-11	-7.47473000E-14	-3.78062000E-11
		 1.21837000E-11	-1.81903000E-14	-3.77555000E-11
		 1.21358000E-11	 1.18369000E-13	-3.77532000E-11
		 1.20043000E-11	 4.36519000E-13	-3.78137000E-11
		 1.12413000E-11	 9.41369000E-13	-3.76020000E-11
		 1.22300000E-11	 2.52948000E-12	-3.95366000E-11
		 1.09023000E-11	 5.74652000E-12	-4.11255000E-11
		-5.51334000E-12	-1.12894000E-11	-3.96313000E-11
		-2.42944000E-12	-1.14703000E-11	-3.92153000E-11
		-1.00925000E-12	-1.21591000E-11	-3.93189000E-11
		-4.23405000E-13	-1.24579000E-11	-3.93949000E-11
		-1.51049000E-13	-1.25546000E-11	-3.94010000E-11
		-4.04041000E-14	-1.25763000E-11	-3.94018000E-11
		 6.28832000E-15	-1.25961000E-11	-3.94091000E-11
		 3.10067000E-14	-1.26029000E-11	-3.94116000E-11
		 4.69515000E-14	-1.26044000E-11	-3.94123000E-11
		 5.99031000E-14	-1.26031000E-11	-3.94080000E-11
		 1.02168000E-13	-1.25727000E-11	-3.93652000E-11
		 2.12289000E-13	-1.24929000E-11	-3.93035000E-11
		 4.30071000E-13	-1.22582000E-11	-3.91936000E-11
		 8.57983000E-13	-1.16555000E-11	-3.88640000E-11
		 2.59629000E-12	-1.14214000E-11	-3.93122000E-11
		 5.75059000E-12	-1.17420000E-11	-3.99072000E-11
		 0.00000000E+00	 0.00000000E+00	 0.00000000E+00
		 0.00000000E+00	 0.00000000E+00	 0.00000000E+00
		 0.00000000E+00	 0.00000000E+00	 0.00000000E+00
		 0.00000000E+00	 0.00000000E+00	 0.00000000E+00
		 0.00000000E+00	 0.00000000E+00	 0.00000000E+00
		 0.00000000E+00	 0.00000000E+00	 0.00000000E+00
		 0.00000000E+00	 0.00000000E+00	 0.00000000E+00
		 0.00000000E+00	 0.00000000E+00	 0.00000000E+00
		 0.00000000E+00	 0.00000000E+00	 0.00000000E+00
		 0.00000000E+00	 0.00000000E+00	 0.00000000E+00
		 0.00000000E+00	 0.00000000E+00	 0.00000000E+00
		 0.00000000E+00	 0.00000000E+00	 0.00000000E+00
		 0.00000000E+00	 0.00000000E+00	 0.00000000E+00
		 0.00000000E+00	 0.00000000E+00	 0.00000000E+00
		 0.00000000E+00	 0.00000000E+00	 0.00000000E+00
		 0.00000000E+00	 0.00000000E+00	 0.00000000E+00
		 0.00000000E+00	 0.00000000E+00	 0.00000000E+00
		 0.00000000E+00	 0.00000000E+00	 0.00000000E+00
		 0.00000000E+00	 0.00000000E+00	 0.00000000E+00
		 0.00000000E+00	 0.00000000E+00	 0.00000000E+00
		 0.00000000E+00	 0.00000000E+00	 0.00000000E+00
		 0.00000000E+00	 0.00000000E+00	 0.00000000E+00
		 0.00000000E+00	 0.00000000E+00	 0.00000000E+00
		 0.00000000E+00	 0.00000000E+00	 0.00000000E+00
		 0.00000000E+00	 0.00000000E+00	 0.00000000E+00
		 0.00000000E+00	 0.00000000E+00	 0.00000000E+00
		 0.00000000E+00	 0.00000000E+00	 0.00000000E+00
		 0.00000000E+00	 0.00000000E+00	 0.00000000E+00
		 0.00000000E+00	 0.00000000E+00	 0.00000000E+00
		 0.00000000E+00	 0.00000000E+00	 0.00000000E+00
		 0.00000000E+00	 0.00000000E+00	 0.00000000E+00
		 0.00000000E+00	 0.00000000E+00	 0.00000000E+00
		 0.00000000E+00	 0.00000000E+00	 0.00000000E+00
		 0.00000000E+00	 0.00000000E+00	 0.00000000E+00
		 0.00000000E+00	 0.00000000E+00	 0.00000000E+00
		 0.00000000E+00	 0.00000000E+00	 0.00000000E+00
		 0.00000000E+00	 0.00000000E+00	 0.00000000E+00
		 0.00000000E+00	 0.00000000E+00	 0.00000000E+00
		 0.00000000E+00	 0.00000000E+00	 0.00000000E+00
		 0.00000000E+00	 0.00000000E+00	 0.00000000E+00
		 0.00000000E+00	 0.00000000E+00	 0.00000000E+00
		 0.00000000E+00	 0.00000000E+00	 0.00000000E+00
		 0.00000000E+00	 0.00000000E+00	 0.00000000E+00
		 0.00000000E+00	 0.00000000E+00	 0.00000000E+00
		 0.00000000E+00	 0.00000000E+00	 0.00000000E+00
		 0.00000000E+00	 0.00000000E+00	 0.00000000E+00
		 0.00000000E+00	 0.00000000E+00	 0.00000000E+00
		 0.00000000E+00	 0.00000000E+00	 0.00000000E+00
		 0.00000000E+00	 0.00000000E+00	 0.00000000E+00
		 0.00000000E+00	 0.00000000E+00	 0.00000000E+00
		 0.00000000E+00	 0.00000000E+00	 0.00000000E+00
		 0.00000000E+00	 0.00000000E+00	 0.00000000E+00
		 0.00000000E+00	 0.00000000E+00	 0.00000000E+00
		 0.00000000E+00	 0.00000000E+00	 0.00000000E+00
		 0.00000000E+00	 0.00000000E+00	 0.00000000E+00
		 0.00000000E+00	 0.00000000E+00	 0.00000000E+00
		 0.00000000E+00	 0.00000000E+00	 0.00000000E+00
		 0.00000000E+00	 0.00000000E+00	 0.00000000E+00
		 0.00000000E+00	 0.00000000E+00	 0.00000000E+00
		 0.00000000E+00	 0.00000000E+00	 0.00000000E+00
		 0.00000000E+00	 0.00000000E+00	 0.00000000E+00
		 0.00000000E+00	 0.00000000E+00	 0.00000000E+00
		 0.00000000E+00	 0.00000000E+00	 0.00000000E+00
		 0.00000000E+00	 0.00000000E+00	 0.00000000E+00
		-7.68882000E-12	-3.20917000E-12	-3.69440000E-11
		-7.97914000E-12	-1.44922000E-12	-3.66600000E-11
		-8.24986000E-12	-6.39138000E-13	-3.65676000E-11
		-7.63989000E-12	-3.65856000E-13	-3.63063000E-11
		-7.87956000E-12	-3.58489000E-13	-3.59924000E-11
		-7.60952000E-12	-1.68198000E-13	-3.60384000E-11
		-7.74740000E-12	-7.77054000E-14	-3.60319000E-11
		-7.80838000E-12	 1.67782000E-13	-3.63125000E-11
		-8.11607000E-12	 4.61662000E-14	-3.62632000E-11
		-8.11425000E-12	 4.14378000E-14	-3.62529000E-11
		-7.97204000E-12	 6.84048000E-15	-3.62911000E-11
		-7.86149000E-12	-2.08857000E-14	-3.59591000E-11
		-7.24830000E-12	 5.81157000E-13	-3.59863000E-11
		-6.79920000E-12	 1.54734000E-12	-3.60590000E-11
		-6.62848000E-12	 4.34126000E-12	-3.66544000E-11
		-3.36259000E-12	 7.31356000E-12	-3.69293000E-11
		-1.32479000E-12	 7.29828000E-12	-3.61669000E-11
		-3.39852000E-13	 7.93170000E-12	-3.61186000E-11
		-1.83573000E-13	 8.06087000E-12	-3.64146000E-11
		-1.13155000E-13	 8.13584000E-12	-3.62355000E-11
		-7.53968000E-15	 8.21457000E-12	-3.63240000E-11
		-3.22545000E-14	 8.18764000E-12	-3.63773000E-11
		-2.43103000E-14	 7.94996000E-12	-3.62543000E-11
		 1.97888000E-14	 8.22505000E-12	-3.62949000E-11
		 2.18255000E-14	 8.16465000E-12	-3.63090000E-11
		 5.74548000E-14	 8.16238000E-12	-3.62196000E-11
		 3.67846000E-14	 7.84741000E-12	-3.59202000E-11
		 5.87089000E-13	 7.16684000E-12	-3.59083000E-11
		 1.53003000E-12	 6.56754000E-12	-3.59140000E-11
		 4.21145000E-12	 6.51872000E-12	-3.66182000E-11
		 7.36156000E-12	-4.22912000E-12	-3.75332000E-11
		 6.88459000E-12	-5.37776000E-13	-3.60304000E-11
		 7.83798000E-12	-7.95050000E-14	-3.63039000E-11
		 8.06744000E-12	 8.05223000E-15	-3.62673000E-11
		 8.26832000E-12	 3.93590000E-14	-3.64683000E-11
		 8.57395000E-12	 1.17972000E-13	-3.66652000E-11
		 7.99046000E-12	 4.74654000E-13	-3.64665000E-11
		 7.16736000E-12	 3.27819000E-12	-3.64062000E-11
		-4.26216000E-12	-6.49282000E-12	-3.68716000E-11
		-5.96106000E-13	-6.92824000E-12	-3.58899000E-11
		-1.02947000E-13	-7.20477000E-12	-3.58753000E-11
		 2.01644000E-14	-7.39161000E-12	-3.58852000E-11
		 4.62748000E-14	-7.36328000E-12	-3.58728000E-11
		 1.35665000E-13	-6.97894000E-12	-3.58189000E-11
		 6.56836000E-13	-6.90047000E-12	-3.59630000E-11
		 3.03279000E-12	-4.75405000E-12	-3.54697000E-11
		 8.06017000E-12	-7.02983000E-14	-3.63566000E-11
		 7.21522000E-12	-1.78938000E-12	-3.60824000E-11
		 7.49462000E-12	-1.99794000E-13	-3.60488000E-11
		 8.15562000E-12	 3.70649000E-14	-3.63960000E-11
		 8.45694000E-12	 5.99901000E-14	-3.65900000E-11
		 8.48629000E-12	 2.48607000E-13	-3.66187000E-11
		 7.43332000E-12	 1.13687000E-12	-3.60139000E-11
		-1.55403000E-12	-6.61593000E-12	-3.59729000E-11
		-2.38168000E-13	-7.13673000E-12	-3.58818000E-11
		-9.05253000E-15	-7.35133000E-12	-3.58749000E-11
		 3.35180000E-14	-7.40101000E-12	-3.58867000E-11
		 9.34012000E-14	-7.25181000E-12	-3.58453000E-11
		 2.99763000E-13	-6.81355000E-12	-3.58103000E-11
		 1.35645000E-12	-7.26349000E-12	-3.63162000E-11
		-3.89656000E-12	-9.70146000E-13	-3.48623000E-11
		-3.28904000E-12	-4.38568000E-13	-3.46877000E-11
		-3.42459000E-12	-2.33825000E-13	-3.45824000E-11
		-3.41540000E-12	-1.20279000E-13	-3.45612000E-11
		-3.44708000E-12	-4.22394000E-14	-3.45609000E-11
		-3.41030000E-12	 9.45711000E-15	-3.46307000E-11
		-3.48670000E-12	 1.19200000E-14	-3.46279000E-11
		-3.50171000E-12	 1.17187000E-14	-3.46144000E-11
		-3.47042000E-12	 3.50263000E-14	-3.46139000E-11
		-3.46147000E-12	 1.47631000E-13	-3.46382000E-11
		-3.52178000E-12	 3.70703000E-13	-3.46470000E-11
		-3.27851000E-12	 1.00939000E-12	-3.46453000E-11
		-2.61812000E-12	 2.85732000E-12	-3.48703000E-11
		 3.38828000E-12	-8.40226000E-14	-3.46416000E-11
		 3.73727000E-12	 2.59565000E-14	-3.46837000E-11
		-8.91194000E-13	 3.43748000E-12	-3.46855000E-11
		-3.59798000E-13	 3.68547000E-12	-3.46444000E-11
		-1.34421000E-13	 3.55804000E-12	-3.46639000E-11
		-3.85203000E-14	 3.52910000E-12	-3.46265000E-11
		 3.92613000E-15	 3.55748000E-12	-3.46432000E-11
		 8.20513000E-15	 3.47397000E-12	-3.46404000E-11
		-2.39884000E-14	 3.56026000E-12	-3.46389000E-11
		-3.02208000E-15	 3.53180000E-12	-3.46246000E-11
		 4.07354000E-14	 3.50878000E-12	-3.46156000E-11
		 1.21545000E-13	 3.51607000E-12	-3.44983000E-11
		 3.46947000E-13	 3.31353000E-12	-3.45867000E-11
		 9.62112000E-13	 2.97349000E-12	-3.46132000E-11
		 2.79097000E-12	 2.45772000E-12	-3.48539000E-11
		 3.84942000E-12	 3.20770000E-13	-3.47601000E-11
		 2.76163000E-12	-1.35532000E-12	-3.46372000E-11
		 3.58397000E-12	 8.81471000E-15	-3.46557000E-11
		-2.99236000E-12	-2.49167000E-12	-3.48743000E-11
		 4.09402000E-12	 1.37057000E-13	-3.47670000E-11
		-1.95064000E-13	-3.25250000E-12	-3.45586000E-11
		 3.09637000E-12	-1.67881000E-13	-3.46015000E-11
		-4.10352000E-13	-3.19298000E-12	-3.45582000E-11
		 2.67205000E-12	-4.65619000E-13	-3.45687000E-11
		-5.69948000E-14	-3.36578000E-12	-3.45825000E-11
		-2.49141000E-14	-3.40764000E-12	-3.45887000E-11
		 7.64405000E-14	-3.14065000E-12	-3.45099000E-11
		 4.85398000E-13	-2.71575000E-12	-3.45237000E-11
		 3.99786000E-12	 5.96463000E-14	-3.47335000E-11
		-1.03562000E-12	-2.87545000E-12	-3.45962000E-11
		 3.50719000E-12	-4.92782000E-15	-3.46388000E-11
		 1.18715000E-12	-3.00042000E-12	-3.47076000E-11
		 3.44170000E-12	 8.28258000E-13	-3.46683000E-11
		 3.47159000E-12	-3.93655000E-14	-3.46246000E-11
		-3.90639000E-15	-3.32981000E-12	-3.45712000E-11
		-1.08740000E-13	-3.31850000E-12	-3.45792000E-11
		-3.71117000E-14	-3.38612000E-12	-3.45847000E-11
		 1.79829000E-13	-2.86819000E-12	-3.44981000E-11
		 1.43350000E-12	-1.12487000E-13	-3.42885000E-11
		-1.45505000E-12	-3.45928000E-13	-3.43003000E-11
		-1.51332000E-12	-1.44290000E-13	-3.42764000E-11
		-1.54210000E-12	-5.85650000E-14	-3.42625000E-11
		-1.50321000E-12	-1.25581000E-14	-3.42971000E-11
		-1.52643000E-12	 2.89466000E-15	-3.42968000E-11
		-1.53470000E-12	 1.25898000E-14	-3.42983000E-11
		-1.51365000E-12	 2.32061000E-14	-3.42967000E-11
		-1.49990000E-12	 9.42142000E-14	-3.42978000E-11
		-1.54799000E-12	 2.62107000E-13	-3.43235000E-11
		-1.61800000E-12	 6.05692000E-13	-3.43979000E-11
		-1.40226000E-12	 1.48346000E-12	-3.44041000E-11
		-2.51061000E-13	 1.60465000E-12	-3.43384000E-11
		-9.71603000E-14	 1.54446000E-12	-3.43140000E-11
		-2.88257000E-14	 1.55408000E-12	-3.43028000E-11
		-6.30313000E-16	 1.53374000E-12	-3.43031000E-11
		-1.27114000E-14	 1.58759000E-12	-3.43077000E-11
		-1.27765000E-15	 1.57348000E-12	-3.43014000E-11
		 2.63704000E-14	 1.56609000E-12	-3.43057000E-11
		 9.34411000E-14	 1.59383000E-12	-3.42659000E-11
		 2.44794000E-13	 1.50838000E-12	-3.42877000E-11
		 5.67669000E-13	 1.40303000E-12	-3.43155000E-11
		 1.38553000E-12	 1.17159000E-12	-3.44005000E-11
		 1.62513000E-12	 1.96110000E-14	-3.42898000E-11
		 1.73323000E-12	 4.84891000E-13	-3.43483000E-11
		-5.78113000E-13	 1.72592000E-12	-3.43461000E-11
		 8.20503000E-15	-1.51359000E-12	-3.42583000E-11
		 1.98715000E-12	 2.02466000E-13	-3.43695000E-11
		-1.50522000E-12	-9.28285000E-13	-3.43865000E-11
		-5.53989000E-14	-1.45168000E-12	-3.42556000E-11
		 9.43136000E-13	-9.69079000E-13	-3.43206000E-11
		-3.05296000E-13	-1.38430000E-12	-3.42439000E-11
		 1.15836000E-12	-3.00874000E-13	-3.42926000E-11
		-8.16052000E-15	-1.47051000E-12	-3.42522000E-11
		 3.00207000E-13	-1.10472000E-12	-3.42712000E-11
		 1.26332000E-13	-1.24902000E-12	-3.42261000E-11
		-2.39673000E-14	-1.45965000E-12	-3.42520000E-11
		 4.24206000E-14	-1.43122000E-12	-3.42530000E-11
		-1.37037000E-13	-1.42265000E-12	-3.42603000E-11
		-6.44029000E-13	-1.42559000E-12	-3.43425000E-11
		 1.56735000E-12	 2.78857000E-15	-3.42865000E-11
		 1.54240000E-12	-1.45101000E-14	-3.42850000E-11
		 1.55511000E-12	-4.55269000E-14	-3.42897000E-11
		 1.76977000E-12	 4.76882000E-14	-3.43037000E-11
		 2.00846000E-12	 9.21550000E-14	-3.43346000E-11
		-7.40234000E-13	-8.15826000E-14	-3.41589000E-11
		-7.01730000E-13	-3.02906000E-14	-3.41727000E-11
		-7.06110000E-13	-6.92038000E-15	-3.41695000E-11
		-7.13492000E-13	 3.72529000E-15	-3.41703000E-11
		-7.41900000E-13	 1.73265000E-14	-3.41528000E-11
		-6.91244000E-13	 7.21922000E-14	-3.41629000E-11
		-6.62869000E-13	 1.80497000E-13	-3.41986000E-11
		-7.47542000E-13	 4.21537000E-13	-3.42310000E-11
		-8.18540000E-13	 8.88624000E-13	-3.42925000E-11
		-1.78040000E-13	 7.07723000E-13	-3.41978000E-11
		-6.59051000E-14	 7.08378000E-13	-3.41773000E-11
		-1.69541000E-14	 7.22733000E-13	-3.41744000E-11
		-1.24918000E-14	 7.48541000E-13	-3.41761000E-11
		-1.08933000E-15	 7.41613000E-13	-3.41729000E-11
		 2.03435000E-14	 7.40092000E-13	-3.41769000E-11
		 6.39845000E-14	 7.46646000E-13	-3.41850000E-11
		 1.52419000E-13	 7.52214000E-13	-3.41737000E-11
		 3.58479000E-13	 6.85597000E-13	-3.41989000E-11
		 7.65865000E-13	 6.28911000E-13	-3.42358000E-11
		 9.69688000E-13	 2.74099000E-13	-3.42180000E-11
		 7.11216000E-13	-3.15848000E-14	-3.41586000E-11
		 7.44594000E-13	 1.05879000E-14	-3.41559000E-11
		 4.39390000E-13	-4.27145000E-13	-3.41986000E-11
		 3.85018000E-15	-6.56162000E-13	-3.41497000E-11
		 1.68333000E-13	-4.96933000E-13	-3.41613000E-11
		 7.74494000E-13	-6.86742000E-14	-3.41681000E-11
		 7.23559000E-13	-8.91272000E-15	-3.41557000E-11
		 5.79132000E-13	-1.56160000E-13	-3.41691000E-11
		-4.02118000E-13	 7.87192000E-13	-3.42379000E-11
		-7.00299000E-13	-2.18924000E-13	-3.41696000E-11
		 7.85017000E-13	 3.33802000E-14	-3.41614000E-11
		-3.28304000E-14	-6.60974000E-13	-3.41526000E-11
		 2.65747000E-14	-7.42233000E-13	-3.41612000E-11
		 6.38420000E-14	-5.73790000E-13	-3.41582000E-11
		-5.68561000E-13	-5.84062000E-13	-3.42069000E-11
		 1.16751000E-12	 1.33052000E-13	-3.41914000E-11
		-2.12362000E-13	-6.31249000E-13	-3.41703000E-11
		-1.15969000E-14	-6.48501000E-13	-3.41489000E-11
		-8.25791000E-14	-6.55671000E-13	-3.41587000E-11
		-3.29407000E-13	-2.06417000E-14	-3.41081000E-11
		-3.19747000E-13	-2.49728000E-15	-3.41037000E-11
		-3.53871000E-13	 1.07365000E-14	-3.40984000E-11
		-3.55039000E-13	 4.43227000E-14	-3.41108000E-11
		-2.94963000E-13	 1.31380000E-13	-3.41041000E-11
		-3.20065000E-13	 3.37419000E-13	-3.41633000E-11
		-1.25225000E-13	 2.90501000E-13	-3.41221000E-11
		 3.36254000E-13	-1.99705000E-14	-3.40991000E-11
		-3.83580000E-14	 3.64278000E-13	-3.41182000E-11
		-1.77702000E-14	 3.59077000E-13	-3.41148000E-11
		-6.07935000E-15	 3.50900000E-13	-3.41128000E-11
		 1.29905000E-14	 3.51429000E-13	-3.41132000E-11
		 4.20475000E-14	 3.57711000E-13	-3.41208000E-11
		 9.86420000E-14	 3.84832000E-13	-3.41145000E-11
		 2.28049000E-13	 3.43390000E-13	-3.41324000E-11
		 4.73271000E-13	 3.17600000E-13	-3.41602000E-11
		-3.79836000E-13	-1.26899000E-13	-3.41315000E-11
		-2.97437000E-13	-2.68138000E-13	-3.41449000E-11
		 2.28979000E-13	-1.91714000E-13	-3.41141000E-11
		-3.43986000E-13	-5.78279000E-14	-3.41137000E-11
		 3.23152000E-13	-6.76156000E-14	-3.41059000E-11
		 9.25494000E-13	 6.45506000E-14	-3.41601000E-11
		 3.42000000E-13	 5.36550000E-16	-3.41060000E-11
		-1.25544000E-13	-2.95160000E-13	-3.41163000E-11
		 2.04742000E-14	-2.97373000E-13	-3.41016000E-11
		 8.34910000E-14	-2.35565000E-13	-3.41031000E-11
		 5.09842000E-17	-2.84354000E-13	-3.40998000E-11
		 5.99533000E-13	 1.33826000E-13	-3.41776000E-11
		-1.86451000E-14	-2.95589000E-13	-3.41025000E-11
		 3.58271000E-13	 1.83151000E-14	-3.41019000E-11
		-6.18906000E-14	 1.86708000E-13	-3.40878000E-11
		 1.17017000E-13	-8.92866000E-14	-3.40803000E-11
		-1.56267000E-13	 3.73674000E-15	-3.40808000E-11
		-1.66429000E-13	 2.43060000E-14	-3.40788000E-11
		-1.77679000E-13	 6.31079000E-14	-3.40947000E-11
		-2.63932000E-14	 1.68146000E-13	-3.40786000E-11
		-1.03460000E-14	 1.66735000E-13	-3.40753000E-11
		 4.60003000E-15	 1.55708000E-13	-3.40829000E-11
		 2.76531000E-14	 1.66503000E-13	-3.40851000E-11
		 7.25009000E-14	 1.79801000E-13	-3.40861000E-11
		 1.44847000E-13	 1.92930000E-13	-3.41016000E-11
		 2.76030000E-13	 1.49455000E-13	-3.41305000E-11
		-4.87279000E-14	-3.13278000E-13	-3.41037000E-11
		-1.51514000E-13	-3.76461000E-14	-3.40899000E-11
		-1.74368000E-13	-1.13457000E-13	-3.40895000E-11
		 1.66071000E-13	-7.84071000E-15	-3.40670000E-11
		 1.48348000E-13	-3.52285000E-14	-3.40777000E-11
		-1.39172000E-13	-1.12017000E-14	-3.40802000E-11
		-3.34515000E-14	-1.39416000E-13	-3.40812000E-11
		 3.82132000E-14	-1.11004000E-13	-3.40750000E-11
		 3.78012000E-13	 5.46488000E-14	-3.41032000E-11
		-1.14126000E-13	 1.13618000E-13	-3.40956000E-11
		 8.47670000E-15	-1.17651000E-13	-3.40756000E-11
		 1.68496000E-13	 7.85251000E-15	-3.40693000E-11
		-7.88763000E-14	-1.56772000E-13	-3.40932000E-11
		-8.49013000E-15	-1.22314000E-13	-3.40765000E-11
		-8.50936000E-14	 4.65619000E-14	-3.40667000E-11
		 5.65888000E-14	-3.89288000E-14	-3.40830000E-11
		-1.73386000E-14	 7.52836000E-14	-3.40660000E-11
		-1.23225000E-15	 6.35631000E-14	-3.40670000E-11
		 1.49316000E-14	 6.55833000E-14	-3.40710000E-11
		 5.02549000E-14	 8.22825000E-14	-3.40750000E-11
		 1.41018000E-13	 8.35417000E-14	-3.40804000E-11
		-5.77444000E-14	-2.23082000E-14	-3.40657000E-11
		-6.09487000E-14	-3.82075000E-15	-3.40661000E-11
		-7.41595000E-14	 1.41979000E-14	-3.40624000E-11
		-4.60742000E-14	 8.65607000E-14	-3.40753000E-11
		 1.52279000E-14	-4.00711000E-14	-3.40706000E-11