# vtk DataFile Version 3.0

ASCII
DATASET UNSTRUCTURED_GRID

POINTS 14836 double
	 8.28240000E+02	-1.52455000E+03	 5.00000000E-01
	 8.28240000E+02	-1.52455000E+03	-5.00000000E-01
	-8.28240000E+02	-1.52455000E+03	 5.00000000E-01
	-8.28240000E+02	-1.52455000E+03	-5.00000000E-01
	 8.11987000E+02	-1.49640000E+03	 5.00000000E-01
	 8.11987000E+02	-1.49640000E+03	-5.00000000E-01
	 8.50959000E+02	-1.47390000E+03	 5.00000000E-01
	 8.50959000E+02	-1.47390000E+03	-5.00000000E-01
	 8.42500000E+02	-1.45925000E+03	 5.00000000E-01
	 8.42500000E+02	-1.45925000E+03	-5.00000000E-01
	 7.77500000E+02	-1.34667000E+03	 5.00000000E-01
	 7.77500000E+02	-1.34667000E+03	-5.00000000E-01
	 7.68500000E+02	-1.33108000E+03	 5.00000000E-01
	 7.68500000E+02	-1.33108000E+03	-5.00000000E-01
	 7.08000000E+02	-1.36601000E+03	 5.00000000E-01
	 7.08000000E+02	-1.36601000E+03	-5.00000000E-01
	 7.08000000E+02	-1.50227000E+03	 5.00000000E-01
	 7.08000000E+02	-1.50227000E+03	-5.00000000E-01
	 5.90000000E+02	-1.57039000E+03	 5.00000000E-01
	 5.90000000E+02	-1.57039000E+03	-5.00000000E-01
	 4.72000000E+02	-1.50227000E+03	 5.00000000E-01
	 4.72000000E+02	-1.50227000E+03	-5.00000000E-01
	 3.54000000E+02	-1.57039000E+03	 5.00000000E-01
	 3.54000000E+02	-1.57039000E+03	-5.00000000E-01
	 2.36000000E+02	-1.50227000E+03	 5.00000000E-01
	 2.36000000E+02	-1.50227000E+03	-5.00000000E-01
	 1.18000000E+02	-1.57039000E+03	 5.00000000E-01
	 1.18000000E+02	-1.57039000E+03	-5.00000000E-01
	 0.00000000E+00	-1.50227000E+03	 5.00000000E-01
	 0.00000000E+00	-1.50227000E+03	-5.00000000E-01
	-1.18000000E+02	-1.57039000E+03	 5.00000000E-01
	-1.18000000E+02	-1.57039000E+03	-5.00000000E-01
	-2.36000000E+02	-1.50227000E+03	 5.00000000E-01
	-2.36000000E+02	-1.50227000E+03	-5.00000000E-01
	-3.54000000E+02	-1.57039000E+03	 5.00000000E-01
	-3.54000000E+02	-1.57039000E+03	-5.00000000E-01
	-4.72000000E+02	-1.50227000E+03	 5.00000000E-01
	-4.72000000E+02	-1.50227000E+03	-5.00000000E-01
	-5.90000000E+02	-1.57039000E+03	 5.00000000E-01
	-5.90000000E+02	-1.57039000E+03	-5.00000000E-01
	-7.08000000E+02	-1.50227000E+03	 5.00000000E-01
	-7.08000000E+02	-1.50227000E+03	-5.00000000E-01
	-7.08000000E+02	-1.36601000E+03	 5.00000000E-01
	-7.08000000E+02	-1.36601000E+03	-5.00000000E-01
	-7.68500000E+02	-1.33108000E+03	 5.00000000E-01
	-7.68500000E+02	-1.33108000E+03	-5.00000000E-01
	-7.77500000E+02	-1.34667000E+03	 5.00000000E-01
	-7.77500000E+02	-1.34667000E+03	-5.00000000E-01
	-8.42500000E+02	-1.45925000E+03	 5.00000000E-01
	-8.42500000E+02	-1.45925000E+03	-5.00000000E-01
	-8.50959000E+02	-1.47390000E+03	 5.00000000E-01
	-8.50959000E+02	-1.47390000E+03	-5.00000000E-01
	-8.11987000E+02	-1.49640000E+03	 5.00000000E-01
	-8.11987000E+02	-1.49640000E+03	-5.00000000E-01
	 2.14313000E-15	-1.70700000E+03	 5.00000000E-01
	 2.14313000E-15	-1.70700000E+03	-5.00000000E-01
	 2.14313000E-15	-1.62040000E+03	 5.00000000E-01
	 2.14313000E-15	-1.62040000E+03	-5.00000000E-01
	-7.48000000E+01	-1.66370000E+03	 5.00000000E-01
	-7.48000000E+01	-1.66370000E+03	-5.00000000E-01
	 7.48000000E+01	-1.66370000E+03	 5.00000000E-01
	 7.48000000E+01	-1.66370000E+03	-5.00000000E-01
	-1.61200000E+02	-1.66370000E+03	 5.00000000E-01
	-1.61200000E+02	-1.66370000E+03	-5.00000000E-01
	 1.61200000E+02	-1.66370000E+03	 5.00000000E-01
	 1.61200000E+02	-1.66370000E+03	-5.00000000E-01
	-2.36000000E+02	-1.62040000E+03	 5.00000000E-01
	-2.36000000E+02	-1.62040000E+03	-5.00000000E-01
	 2.36000000E+02	-1.62040000E+03	 5.00000000E-01
	 2.36000000E+02	-1.62040000E+03	-5.00000000E-01
	-3.10800000E+02	-1.66370000E+03	 5.00000000E-01
	-3.10800000E+02	-1.66370000E+03	-5.00000000E-01
	 3.10800000E+02	-1.66370000E+03	 5.00000000E-01
	 3.10800000E+02	-1.66370000E+03	-5.00000000E-01
	-3.97200000E+02	-1.66370000E+03	 5.00000000E-01
	-3.97200000E+02	-1.66370000E+03	-5.00000000E-01
	 3.97200000E+02	-1.66370000E+03	 5.00000000E-01
	 3.97200000E+02	-1.66370000E+03	-5.00000000E-01
	-4.72000000E+02	-1.62040000E+03	 5.00000000E-01
	-4.72000000E+02	-1.62040000E+03	-5.00000000E-01
	 4.72000000E+02	-1.62040000E+03	 5.00000000E-01
	 4.72000000E+02	-1.62040000E+03	-5.00000000E-01
	 8.23143000E+02	-1.52730000E+03	 5.00000000E-01
	 8.23143000E+02	-1.52730000E+03	-5.00000000E-01
	 8.18037000E+02	-1.53005000E+03	 5.00000000E-01
	 8.18037000E+02	-1.53005000E+03	-5.00000000E-01
	 8.12922000E+02	-1.53277000E+03	 5.00000000E-01
	 8.12922000E+02	-1.53277000E+03	-5.00000000E-01
	 8.07799000E+02	-1.53548000E+03	 5.00000000E-01
	 8.07799000E+02	-1.53548000E+03	-5.00000000E-01
	 8.02666000E+02	-1.53817000E+03	 5.00000000E-01
	 8.02666000E+02	-1.53817000E+03	-5.00000000E-01
	 7.97524000E+02	-1.54084000E+03	 5.00000000E-01
	 7.97524000E+02	-1.54084000E+03	-5.00000000E-01
	 7.92373000E+02	-1.54349000E+03	 5.00000000E-01
	 7.92373000E+02	-1.54349000E+03	-5.00000000E-01
	 7.87213000E+02	-1.54613000E+03	 5.00000000E-01
	 7.87213000E+02	-1.54613000E+03	-5.00000000E-01
	 7.82045000E+02	-1.54875000E+03	 5.00000000E-01
	 7.82045000E+02	-1.54875000E+03	-5.00000000E-01
	 7.76867000E+02	-1.55135000E+03	 5.00000000E-01
	 7.76867000E+02	-1.55135000E+03	-5.00000000E-01
	 7.71682000E+02	-1.55394000E+03	 5.00000000E-01
	 7.71682000E+02	-1.55394000E+03	-5.00000000E-01
	 7.66487000E+02	-1.55651000E+03	 5.00000000E-01
	 7.66487000E+02	-1.55651000E+03	-5.00000000E-01
	 7.61284000E+02	-1.55906000E+03	 5.00000000E-01
	 7.61284000E+02	-1.55906000E+03	-5.00000000E-01
	 7.56073000E+02	-1.56160000E+03	 5.00000000E-01
	 7.56073000E+02	-1.56160000E+03	-5.00000000E-01
	 7.50853000E+02	-1.56411000E+03	 5.00000000E-01
	 7.50853000E+02	-1.56411000E+03	-5.00000000E-01
	 7.45624000E+02	-1.56661000E+03	 5.00000000E-01
	 7.45624000E+02	-1.56661000E+03	-5.00000000E-01
	 7.40388000E+02	-1.56909000E+03	 5.00000000E-01
	 7.40388000E+02	-1.56909000E+03	-5.00000000E-01
	 7.35143000E+02	-1.57156000E+03	 5.00000000E-01
	 7.35143000E+02	-1.57156000E+03	-5.00000000E-01
	 7.29890000E+02	-1.57400000E+03	 5.00000000E-01
	 7.29890000E+02	-1.57400000E+03	-5.00000000E-01
	 7.24628000E+02	-1.57643000E+03	 5.00000000E-01
	 7.24628000E+02	-1.57643000E+03	-5.00000000E-01
	 7.19359000E+02	-1.57884000E+03	 5.00000000E-01
	 7.19359000E+02	-1.57884000E+03	-5.00000000E-01
	 7.14082000E+02	-1.58124000E+03	 5.00000000E-01
	 7.14082000E+02	-1.58124000E+03	-5.00000000E-01
	 7.08796000E+02	-1.58361000E+03	 5.00000000E-01
	 7.08796000E+02	-1.58361000E+03	-5.00000000E-01
	 7.03503000E+02	-1.58597000E+03	 5.00000000E-01
	 7.03503000E+02	-1.58597000E+03	-5.00000000E-01
	 6.98202000E+02	-1.58831000E+03	 5.00000000E-01
	 6.98202000E+02	-1.58831000E+03	-5.00000000E-01
	 6.92893000E+02	-1.59064000E+03	 5.00000000E-01
	 6.92893000E+02	-1.59064000E+03	-5.00000000E-01
	 6.87577000E+02	-1.59294000E+03	 5.00000000E-01
	 6.87577000E+02	-1.59294000E+03	-5.00000000E-01
	 6.82252000E+02	-1.59523000E+03	 5.00000000E-01
	 6.82252000E+02	-1.59523000E+03	-5.00000000E-01
	 6.76920000E+02	-1.59750000E+03	 5.00000000E-01
	 6.76920000E+02	-1.59750000E+03	-5.00000000E-01
	 6.71581000E+02	-1.59975000E+03	 5.00000000E-01
	 6.71581000E+02	-1.59975000E+03	-5.00000000E-01
	 6.66234000E+02	-1.60199000E+03	 5.00000000E-01
	 6.66234000E+02	-1.60199000E+03	-5.00000000E-01
	 6.60880000E+02	-1.60420000E+03	 5.00000000E-01
	 6.60880000E+02	-1.60420000E+03	-5.00000000E-01
	 6.55518000E+02	-1.60640000E+03	 5.00000000E-01
	 6.55518000E+02	-1.60640000E+03	-5.00000000E-01
	 6.50149000E+02	-1.60858000E+03	 5.00000000E-01
	 6.50149000E+02	-1.60858000E+03	-5.00000000E-01
	 6.44773000E+02	-1.61074000E+03	 5.00000000E-01
	 6.44773000E+02	-1.61074000E+03	-5.00000000E-01
	 6.39389000E+02	-1.61289000E+03	 5.00000000E-01
	 6.39389000E+02	-1.61289000E+03	-5.00000000E-01
	 6.33999000E+02	-1.61501000E+03	 5.00000000E-01
	 6.33999000E+02	-1.61501000E+03	-5.00000000E-01
	 6.28601000E+02	-1.61712000E+03	 5.00000000E-01
	 6.28601000E+02	-1.61712000E+03	-5.00000000E-01
	 6.23196000E+02	-1.61921000E+03	 5.00000000E-01
	 6.23196000E+02	-1.61921000E+03	-5.00000000E-01
	 6.17785000E+02	-1.62129000E+03	 5.00000000E-01
	 6.17785000E+02	-1.62129000E+03	-5.00000000E-01
	 6.12366000E+02	-1.62334000E+03	 5.00000000E-01
	 6.12366000E+02	-1.62334000E+03	-5.00000000E-01
	 6.06941000E+02	-1.62538000E+03	 5.00000000E-01
	 6.06941000E+02	-1.62538000E+03	-5.00000000E-01
	 6.01509000E+02	-1.62739000E+03	 5.00000000E-01
	 6.01509000E+02	-1.62739000E+03	-5.00000000E-01
	 5.96070000E+02	-1.62939000E+03	 5.00000000E-01
	 5.96070000E+02	-1.62939000E+03	-5.00000000E-01
	 5.90624000E+02	-1.63138000E+03	 5.00000000E-01
	 5.90624000E+02	-1.63138000E+03	-5.00000000E-01
	 5.85172000E+02	-1.63334000E+03	 5.00000000E-01
	 5.85172000E+02	-1.63334000E+03	-5.00000000E-01
	 5.79713000E+02	-1.63529000E+03	 5.00000000E-01
	 5.79713000E+02	-1.63529000E+03	-5.00000000E-01
	 5.74248000E+02	-1.63721000E+03	 5.00000000E-01
	 5.74248000E+02	-1.63721000E+03	-5.00000000E-01
	 5.68777000E+02	-1.63912000E+03	 5.00000000E-01
	 5.68777000E+02	-1.63912000E+03	-5.00000000E-01
	 5.63299000E+02	-1.64101000E+03	 5.00000000E-01
	 5.63299000E+02	-1.64101000E+03	-5.00000000E-01
	 5.57815000E+02	-1.64288000E+03	 5.00000000E-01
	 5.57815000E+02	-1.64288000E+03	-5.00000000E-01
	 5.52325000E+02	-1.64474000E+03	 5.00000000E-01
	 5.52325000E+02	-1.64474000E+03	-5.00000000E-01
	 5.46828000E+02	-1.64657000E+03	 5.00000000E-01
	 5.46828000E+02	-1.64657000E+03	-5.00000000E-01
	 5.41325000E+02	-1.64839000E+03	 5.00000000E-01
	 5.41325000E+02	-1.64839000E+03	-5.00000000E-01
	 5.35817000E+02	-1.65019000E+03	 5.00000000E-01
	 5.35817000E+02	-1.65019000E+03	-5.00000000E-01
	 5.30302000E+02	-1.65197000E+03	 5.00000000E-01
	 5.30302000E+02	-1.65197000E+03	-5.00000000E-01
	 5.24782000E+02	-1.65373000E+03	 5.00000000E-01
	 5.24782000E+02	-1.65373000E+03	-5.00000000E-01
	 5.19255000E+02	-1.65548000E+03	 5.00000000E-01
	 5.19255000E+02	-1.65548000E+03	-5.00000000E-01
	 5.13723000E+02	-1.65720000E+03	 5.00000000E-01
	 5.13723000E+02	-1.65720000E+03	-5.00000000E-01
	 5.08185000E+02	-1.65891000E+03	 5.00000000E-01
	 5.08185000E+02	-1.65891000E+03	-5.00000000E-01
[...]
POINT_DATA 14836
FIELD NT 1
	NT 1 14836 double
		 2.92760000E+02
		 2.92760000E+02
		 2.92744000E+02
		 2.92744000E+02
		 3.06682000E+02
		 3.06682000E+02
		 2.93642000E+02
		 2.93642000E+02
		 2.93823000E+02
		 2.93823000E+02
		 3.07768000E+02
		 3.07768000E+02
		 3.20201000E+02
		 3.20201000E+02
		 3.20673000E+02
		 3.20673000E+02
		 3.23255000E+02
		 3.23255000E+02
		 3.22752000E+02
		 3.22752000E+02
		 3.20936000E+02
		 3.20936000E+02
		 3.24729000E+02
		 3.24729000E+02
		 3.21261000E+02
		 3.21261000E+02
		 3.25623000E+02
		 3.25623000E+02
		 3.21251000E+02
		 3.21251000E+02
		 3.25623000E+02
		 3.25623000E+02
		 3.21256000E+02
		 3.21256000E+02
		 3.24602000E+02
		 3.24602000E+02
		 3.20926000E+02
		 3.20926000E+02
		 3.22753000E+02
		 3.22753000E+02
		 3.23252000E+02
		 3.23252000E+02
		 3.20670000E+02
		 3.20670000E+02
		 3.20197000E+02
		 3.20197000E+02
		 3.07716000E+02
		 3.07716000E+02
		 2.93817000E+02
		 2.93817000E+02
		 2.93638000E+02
		 2.93638000E+02
		 3.06738000E+02
		 3.06738000E+02
		 2.99084000E+02
		 2.99084000E+02
		 3.08561000E+02
		 3.08561000E+02
		 3.12366000E+02
		 3.12366000E+02
		 3.12104000E+02
		 3.12104000E+02
		 3.11171000E+02
		 3.11171000E+02
		 3.11233000E+02
		 3.11233000E+02
		 3.22499000E+02
		 3.22499000E+02
		 3.22838000E+02
		 3.22838000E+02
		 3.06690000E+02
		 3.06690000E+02
		 3.06811000E+02
		 3.06811000E+02
		 3.00814000E+02
		 3.00814000E+02
		 3.00913000E+02
		 3.00913000E+02
		 3.09229000E+02
		 3.09229000E+02
		 3.09169000E+02
		 3.09169000E+02
		 2.94340000E+02
		 2.94340000E+02
		 2.95742000E+02
		 2.95742000E+02
		 2.97027000E+02
		 2.97027000E+02
		 2.98103000E+02
		 2.98103000E+02
		 2.99051000E+02
		 2.99051000E+02
		 2.99891000E+02
		 2.99891000E+02
		 3.00643000E+02
		 3.00643000E+02
		 3.01325000E+02
		 3.01325000E+02
		 3.01952000E+02
		 3.01952000E+02
		 3.02547000E+02
		 3.02547000E+02
		 3.03105000E+02
		 3.03105000E+02
		 3.03634000E+02
		 3.03634000E+02
		 3.04176000E+02
		 3.04176000E+02
		 3.04704000E+02
		 3.04704000E+02
		 3.05194000E+02
		 3.05194000E+02
		 3.05680000E+02
		 3.05680000E+02
		 3.06264000E+02
		 3.06264000E+02
		 3.06674000E+02
		 3.06674000E+02
		 3.06853000E+02
		 3.06853000E+02
		 3.06906000E+02
		 3.06906000E+02
		 3.06885000E+02
		 3.06885000E+02
		 3.06844000E+02
		 3.06844000E+02
		 3.06857000E+02
		 3.06857000E+02
		 3.06721000E+02
		 3.06721000E+02
		 3.06616000E+02
		 3.06616000E+02
		 3.06534000E+02
		 3.06534000E+02
		 3.06450000E+02
		 3.06450000E+02
		 3.06366000E+02
		 3.06366000E+02
		 3.06287000E+02
		 3.06287000E+02
		 3.06214000E+02
		 3.06214000E+02
		 3.06120000E+02
		 3.06120000E+02
		 3.06022000E+02
		 3.06022000E+02
		 3.05957000E+02
		 3.05957000E+02
		 3.05913000E+02
		 3.05913000E+02
		 3.05878000E+02
		 3.05878000E+02
		 3.05884000E+02
		 3.05884000E+02
		 3.05907000E+02
		 3.05907000E+02
		 3.05922000E+02
		 3.05922000E+02
		 3.05929000E+02
		 3.05929000E+02
		 3.06205000E+02
		 3.06205000E+02
		 3.06196000E+02
		 3.06196000E+02
		 3.06429000E+02
		 3.06429000E+02
		 3.06632000E+02
		 3.06632000E+02
		 3.06835000E+02
		 3.06835000E+02
		 3.07031000E+02
		 3.07031000E+02
		 3.07206000E+02
		 3.07206000E+02
		 3.07341000E+02
		 3.07341000E+02
		 3.07426000E+02
		 3.07426000E+02
		 3.07427000E+02
		 3.07427000E+02
		 3.07625000E+02
		 3.07625000E+02
		 3.07240000E+02
		 3.07240000E+02
		 3.07091000E+02
		 3.07091000E+02
		 3.06832000E+02
		 3.06832000E+02
		 3.06492000E+02
		 3.06492000E+02
		 3.06092000E+02
		 3.06092000E+02
		 3.05656000E+02
		 3.05656000E+02
		 3.05202000E+02
		 3.05202000E+02
		 3.04801000E+02
		 3.04801000E+02
		 3.04412000E+02
		 3.04412000E+02
		 3.03900000E+02
		 3.03900000E+02
		 3.03690000E+02
		 3.03690000E+02
		 3.03511000E+02
		 3.03511000E+02
		 3.03317000E+02
		 3.03317000E+02
		 3.03173000E+02
		 3.03173000E+02
		 3.03081000E+02
		 3.03081000E+02
		 3.02994000E+02
		 3.02994000E+02
		 3.02878000E+02
		 3.02878000E+02
		 3.02705000E+02
		 3.02705000E+02
		 3.02264000E+02
		 3.02264000E+02
		 3.01891000E+02
		 3.01891000E+02
		 3.01255000E+02
		 3.01255000E+02
		 3.00733000E+02
		 3.00733000E+02
		 3.00117000E+02
		 3.00117000E+02
		 2.99481000E+02
		 2.99481000E+02
		 2.98968000E+02
		 2.98968000E+02
		 2.98589000E+02
		 2.98589000E+02
		 2.98363000E+02
		 2.98363000E+02
		 2.98330000E+02
		 2.98330000E+02
		 2.98488000E+02
		 2.98488000E+02
		 2.98846000E+02
		 2.98846000E+02
		 2.99364000E+02
		 2.99364000E+02
		 2.99935000E+02
		 2.99935000E+02
		 3.00510000E+02
		 3.00510000E+02
		 3.01000000E+02
		 3.01000000E+02
		 3.01396000E+02
		 3.01396000E+02
		 3.01681000E+02
		 3.01681000E+02
		 3.01861000E+02
		 3.01861000E+02
		 3.01935000E+02
		 3.01935000E+02
		 3.01938000E+02
		 3.01938000E+02
		 3.01905000E+02
		 3.01905000E+02
		 3.01881000E+02
		 3.01881000E+02
		 3.01852000E+02
		 3.01852000E+02
		 3.01805000E+02
		 3.01805000E+02
		 3.01668000E+02
		 3.01668000E+02
		 3.01307000E+02
		 3.01307000E+02
		 3.00969000E+02
		 3.00969000E+02
		 3.00893000E+02
		 3.00893000E+02
		 3.00948000E+02
		 3.00948000E+02
		 3.01060000E+02
		 3.01060000E+02
		 3.01188000E+02
		 3.01188000E+02
		 3.01319000E+02
		 3.01319000E+02
		 3.01479000E+02
		 3.01479000E+02
		 3.01604000E+02
		 3.01604000E+02
		 3.01707000E+02
		 3.01707000E+02
		 3.01782000E+02
		 3.01782000E+02
		 3.01821000E+02
		 3.01821000E+02
		 3.01822000E+02
		 3.01822000E+02
		 3.01783000E+02
		 3.01783000E+02
		 3.01705000E+02
		 3.01705000E+02
		 3.01591000E+02
		 3.01591000E+02
		 3.01447000E+02
		 3.01447000E+02
		 3.01276000E+02
		 3.01276000E+02
		 3.01089000E+02
		 3.01089000E+02
		 3.00894000E+02
		 3.00894000E+02
		 3.00699000E+02
		 3.00699000E+02
		 3.00514000E+02
		 3.00514000E+02
		 3.00344000E+02
		 3.00344000E+02
		 3.00196000E+02
		 3.00196000E+02
		 3.00081000E+02
		 3.00081000E+02
		 2.99991000E+02
		 2.99991000E+02
		 2.99914000E+02
		 2.99914000E+02
		 2.99878000E+02
		 2.99878000E+02
		 2.99872000E+02
		 2.99872000E+02
		 2.99882000E+02
		 2.99882000E+02
		 2.99905000E+02
		 2.99905000E+02
		 2.99938000E+02
		 2.99938000E+02
		 2.99978000E+02
		 2.99978000E+02
		 3.00015000E+02
		 3.00015000E+02
		 3.00040000E+02
		 3.00040000E+02
		 3.00056000E+02
		 3.00056000E+02
		 3.00055000E+02
		 3.00055000E+02
		 3.00032000E+02
		 3.00032000E+02
		 2.99990000E+02
		 2.99990000E+02
		 2.99932000E+02
		 2.99932000E+02
		 2.99854000E+02
		 2.99854000E+02
		 2.99756000E+02
		 2.99756000E+02
		 2.99635000E+02
		 2.99635000E+02
		 2.99482000E+02
		 2.99482000E+02
		 2.99286000E+02
		 2.99286000E+02
		 2.99039000E+02
		 2.99039000E+02
		 2.98746000E+02
		 2.98746000E+02
		 2.98427000E+02
		 2.98427000E+02
		 2.98103000E+02
		 2.98103000E+02
		 2.97809000E+02
		 2.97809000E+02
		 2.97702000E+02
		 2.97702000E+02
		 2.97673000E+02
		 2.97673000E+02
		 2.97801000E+02
		 2.97801000E+02
		 2.97830000E+02
		 2.97830000E+02
		 2.97812000E+02
		 2.97812000E+02
		 2.97864000E+02
		 2.97864000E+02
		 2.97783000E+02
		 2.97783000E+02
		 2.97567000E+02
		 2.97567000E+02
		 2.97591000E+02
		 2.97591000E+02
		 2.97774000E+02
		 2.97774000E+02
		 2.98058000E+02
		 2.98058000E+02
		 2.98364000E+02
		 2.98364000E+02
		 2.98681000E+02
		 2.98681000E+02
		 2.98980000E+02
		 2.98980000E+02
		 2.99237000E+02
		 2.99237000E+02
		 2.99443000E+02
		 2.99443000E+02
		 2.99601000E+02
		 2.99601000E+02
		 2.99723000E+02
		 2.99723000E+02
		 2.99824000E+02
		 2.99824000E+02
		 2.99898000E+02
		 2.99898000E+02
		 2.99957000E+02
		 2.99957000E+02
		 2.99999000E+02
		 2.99999000E+02
		 3.00029000E+02
		 3.00029000E+02
		 3.00042000E+02
		 3.00042000E+02
		 3.00018000E+02
		 3.00018000E+02
		 2.99993000E+02
		 2.99993000E+02
		 2.99960000E+02
		 2.99960000E+02
		 2.99922000E+02
		 2.99922000E+02
		 2.99888000E+02
		 2.99888000E+02
		 2.99864000E+02
		 2.99864000E+02
		 2.99859000E+02
		 2.99859000E+02
		 2.99877000E+02
		 2.99877000E+02
		 2.99924000E+02
		 2.99924000E+02
		 3.00000000E+02
		 3.00000000E+02
		 3.00101000E+02
		 3.00101000E+02
		 3.00222000E+02
		 3.00222000E+02
		 3.00366000E+02
		 3.00366000E+02
		 3.00534000E+02
		 3.00534000E+02
		 3.00716000E+02
		 3.00716000E+02
		 3.00907000E+02
		 3.00907000E+02
		 3.01099000E+02
		 3.01099000E+02
		 3.01282000E+02
		 3.01282000E+02
		 3.01448000E+02
		 3.01448000E+02
		 3.01590000E+02
		 3.01590000E+02
		 3.01705000E+02
		 3.01705000E+02
		 3.01781000E+02
		 3.01781000E+02
		 3.01810000E+02
		 3.01810000E+02
		 3.01807000E+02
		 3.01807000E+02
		 3.01767000E+02
		 3.01767000E+02
		 3.01694000E+02
		 3.01694000E+02
		 3.01597000E+02
		 3.01597000E+02
		 3.01454000E+02
		 3.01454000E+02
		 3.01317000E+02
		 3.01317000E+02
		 3.01192000E+02
		 3.01192000E+02
		 3.01073000E+02
		 3.01073000E+02
		 3.00967000E+02
		 3.00967000E+02
		 3.00909000E+02
		 3.00909000E+02
		 3.00972000E+02
		 3.00972000E+02
		 3.01352000E+02
		 3.01352000E+02
		 3.01735000E+02
		 3.01735000E+02
		 3.01827000E+02
		 3.01827000E+02
		 3.01873000E+02
		 3.01873000E+02
		 3.01903000E+02
		 3.01903000E+02
		 3.01935000E+02
		 3.01935000E+02
		 3.01956000E+02
		 3.01956000E+02
		 3.01938000E+02
		 3.01938000E+02
		 3.01847000E+02
		 3.01847000E+02
		 3.01670000E+02
		 3.01670000E+02
		 3.01382000E+02
		 3.01382000E+02
		 3.00982000E+02
		 3.00982000E+02
		 3.00485000E+02
		 3.00485000E+02
		 2.99936000E+02
		 2.99936000E+02
		 2.99396000E+02
		 2.99396000E+02
		 2.98923000E+02
		 2.98923000E+02
		 2.98567000E+02
		 2.98567000E+02
		 2.98377000E+02
		 2.98377000E+02
		 2.98381000E+02
		 2.98381000E+02
		 2.98589000E+02
		 2.98589000E+02
		 2.98969000E+02
		 2.98969000E+02
		 2.99476000E+02
		 2.99476000E+02
		 3.00081000E+02
		 3.00081000E+02
		 3.00732000E+02
		 3.00732000E+02
		 3.01279000E+02
		 3.01279000E+02
		 3.01913000E+02
		 3.01913000E+02
		 3.02264000E+02
		 3.02264000E+02
		 3.02704000E+02
		 3.02704000E+02
		 3.02870000E+02
		 3.02870000E+02
		 3.02989000E+02
		 3.02989000E+02
		 3.03078000E+02
		 3.03078000E+02
		 3.03166000E+02
		 3.03166000E+02
		 3.03302000E+02
		 3.03302000E+02
		 3.03498000E+02
		 3.03498000E+02
		 3.03696000E+02
		 3.03696000E+02
		 3.03896000E+02
		 3.03896000E+02
		 3.04373000E+02
		 3.04373000E+02
		 3.04747000E+02
		 3.04747000E+02
		 3.05189000E+02
		 3.05189000E+02
		 3.05685000E+02
		 3.05685000E+02
		 3.06136000E+02
		 3.06136000E+02
		 3.06520000E+02
		 3.06520000E+02
		 3.06847000E+02
		 3.06847000E+02
		 3.07104000E+02
		 3.07104000E+02
		 3.07252000E+02
		 3.07252000E+02
		 3.07638000E+02
		 3.07638000E+02
		 3.07437000E+02
		 3.07437000E+02
		 3.07436000E+02
		 3.07436000E+02
		 3.07351000E+02
		 3.07351000E+02
		 3.07215000E+02
		 3.07215000E+02
		 3.07037000E+02
		 3.07037000E+02
		 3.06837000E+02
		 3.06837000E+02
		 3.06632000E+02
		 3.06632000E+02
		 3.06430000E+02
		 3.06430000E+02
		 3.06197000E+02
		 3.06197000E+02
		 3.06206000E+02
		 3.06206000E+02
		 3.05929000E+02
		 3.05929000E+02
		 3.05922000E+02
		 3.05922000E+02
		 3.05907000E+02
		 3.05907000E+02
		 3.05884000E+02
		 3.05884000E+02
		 3.05876000E+02
		 3.05876000E+02
		 3.05911000E+02
		 3.05911000E+02
		 3.05954000E+02
		 3.05954000E+02
		 3.06018000E+02
		 3.06018000E+02
		 3.06117000E+02
		 3.06117000E+02
		 3.06217000E+02
		 3.06217000E+02
		 3.06294000E+02
		 3.06294000E+02
		 3.06348000E+02
		 3.06348000E+02
		 3.06398000E+02
		 3.06398000E+02
		 3.06478000E+02
		 3.06478000E+02
		 3.06842000E+02
		 3.06842000E+02
		 3.06707000E+02
		 3.06707000E+02
		 3.06749000E+02
		 3.06749000E+02
		 3.06825000E+02
		 3.06825000E+02
		 3.06879000E+02
		 3.06879000E+02
		 3.06896000E+02
		 3.06896000E+02
		 3.06863000E+02
		 3.06863000E+02
		 3.06610000E+02
		 3.06610000E+02
		 3.06137000E+02
		 3.06137000E+02
		 3.05677000E+02
		 3.05677000E+02
		 3.05184000E+02
		 3.05184000E+02
		 3.04691000E+02
		 3.04691000E+02
		 3.04176000E+02
		 3.04176000E+02
		 3.03656000E+02
		 3.03656000E+02
		 3.03098000E+02
		 3.03098000E+02
		 3.02521000E+02
		 3.02521000E+02
		 3.01929000E+02
		 3.01929000E+02
		 3.01296000E+02
		 3.01296000E+02
		 3.00610000E+02
		 3.00610000E+02
		 2.99853000E+02
		 2.99853000E+02
		 2.99004000E+02
		 2.99004000E+02
		 2.98068000E+02
		 2.98068000E+02
		 2.96981000E+02
		 2.96981000E+02
		 2.95728000E+02
		 2.95728000E+02
		 2.94328000E+02
		 2.94328000E+02
		 2.94321000E+02
		 2.94321000E+02
		 2.95902000E+02
		 2.95902000E+02
		 2.97548000E+02
		 2.97548000E+02
		 2.99516000E+02
		 2.99516000E+02
		 3.02097000E+02
		 3.02097000E+02
		 3.01341000E+02
		 3.01341000E+02
		 2.99220000E+02
		 2.99220000E+02
		 2.97757000E+02
		 2.97757000E+02
		 2.96539000E+02
		 2.96539000E+02
		 2.95678000E+02
		 2.95678000E+02
		 2.94962000E+02
		 2.94962000E+02
		 2.94124000E+02
		 2.94124000E+02
		 2.94426000E+02
		 2.94426000E+02
		 2.95274000E+02
		 2.95274000E+02
		 2.96168000E+02
		 2.96168000E+02
		 2.97633000E+02
		 2.97633000E+02
		 2.98852000E+02
		 2.98852000E+02
		 3.00656000E+02
		 3.00656000E+02
		 3.02540000E+02
		 3.02540000E+02
		 3.04460000E+02
		 3.04460000E+02
		 3.06418000E+02
		 3.06418000E+02
		 3.08271000E+02
		 3.08271000E+02
		 3.09780000E+02
		 3.09780000E+02
		 3.11121000E+02
		 3.11121000E+02
		 3.12012000E+02
		 3.12012000E+02
		 3.12992000E+02
		 3.12992000E+02
		 3.13416000E+02
		 3.13416000E+02
		 3.13741000E+02
		 3.13741000E+02
		 3.13877000E+02
		 3.13877000E+02
		 3.13923000E+02
		 3.13923000E+02
		 3.14073000E+02
		 3.14073000E+02
		 3.14423000E+02
		 3.14423000E+02
		 3.14824000E+02
		 3.14824000E+02
		 3.15215000E+02
		 3.15215000E+02
		 3.15634000E+02
		 3.15634000E+02
		 3.15436000E+02
		 3.15436000E+02
		 3.15633000E+02
		 3.15633000E+02
		 3.15912000E+02
		 3.15912000E+02
		 3.16074000E+02
		 3.16074000E+02
		 3.16147000E+02
		 3.16147000E+02
		 3.15839000E+02
		 3.15839000E+02
		 3.14882000E+02
		 3.14882000E+02
		 3.13510000E+02
		 3.13510000E+02
		 3.12136000E+02
		 3.12136000E+02
		 3.11030000E+02
		 3.11030000E+02
		 3.09463000E+02
		 3.09463000E+02
		 3.08261000E+02
		 3.08261000E+02
		 2.95211000E+02
		 2.95211000E+02
		 2.95987000E+02
		 2.95987000E+02
		 2.95555000E+02
		 2.95555000E+02
		 3.16838000E+02
		 3.16838000E+02
		 3.21240000E+02
		 3.21240000E+02
		 3.21736000E+02
		 3.21736000E+02
		 3.20627000E+02
		 3.20627000E+02
		 3.20947000E+02
		 3.20947000E+02
		 3.21376000E+02
		 3.21376000E+02
		 3.21287000E+02
		 3.21287000E+02
		 3.21639000E+02
		 3.21639000E+02
		 3.21843000E+02
		 3.21843000E+02
		 3.21967000E+02
		 3.21967000E+02
		 3.22160000E+02
		 3.22160000E+02
		 3.22286000E+02
		 3.22286000E+02
		 3.22231000E+02
		 3.22231000E+02
		 3.22061000E+02
		 3.22061000E+02
		 3.21999000E+02
		 3.21999000E+02
		 3.22191000E+02
		 3.22191000E+02
		 3.22276000E+02
		 3.22276000E+02
		 3.22286000E+02
		 3.22286000E+02
		 3.22244000E+02
		 3.22244000E+02
		 3.22131000E+02
		 3.22131000E+02
		 3.22093000E+02
		 3.22093000E+02
		 3.21988000E+02
		 3.21988000E+02
		 3.22001000E+02
		 3.22001000E+02
		 3.22013000E+02
		 3.22013000E+02
		 3.22017000E+02
		 3.22017000E+02
		 3.22008000E+02
		 3.22008000E+02
		 3.21985000E+02
		 3.21985000E+02
		 3.21915000E+02
		 3.21915000E+02
		 3.21873000E+02
		 3.21873000E+02
		 3.21904000E+02
		 3.21904000E+02
		 3.21918000E+02
		 3.21918000E+02
		 3.21932000E+02
		 3.21932000E+02
		 3.21943000E+02
		 3.21943000E+02
		 3.21946000E+02
		 3.21946000E+02
		 3.21931000E+02
		 3.21931000E+02
		 3.21921000E+02
		 3.21921000E+02
		 3.21915000E+02
		 3.21915000E+02
		 3.21689000E+02
		 3.21689000E+02
		 3.21751000E+02
		 3.21751000E+02
		 3.21653000E+02
		 3.21653000E+02
		 3.21642000E+02
		 3.21642000E+02
		 3.21624000E+02
		 3.21624000E+02
		 3.21603000E+02
		 3.21603000E+02
		 3.21588000E+02
		 3.21588000E+02
		 3.21589000E+02
		 3.21589000E+02
		 3.21592000E+02
		 3.21592000E+02
		 3.21540000E+02
		 3.21540000E+02
		 3.21658000E+02
		 3.21658000E+02
		 3.21527000E+02
		 3.21527000E+02
		 3.21581000E+02
		 3.21581000E+02
		 3.21620000E+02
		 3.21620000E+02
		 3.21558000E+02
		 3.21558000E+02
		 3.21546000E+02
		 3.21546000E+02
		 3.21529000E+02
		 3.21529000E+02
		 3.21508000E+02
		 3.21508000E+02
		 3.21488000E+02
		 3.21488000E+02
		 3.21473000E+02
		 3.21473000E+02
		 3.21462000E+02
		 3.21462000E+02
		 3.21519000E+02
		 3.21519000E+02
		 3.21485000E+02
		 3.21485000E+02
		 3.21771000E+02
		 3.21771000E+02
		 3.21903000E+02
		 3.21903000E+02
		 3.21938000E+02
		 3.21938000E+02
		 3.22009000E+02
		 3.22009000E+02
		 3.22064000E+02
		 3.22064000E+02
		 3.22108000E+02
		 3.22108000E+02
		 3.22145000E+02
		 3.22145000E+02
		 3.22187000E+02
		 3.22187000E+02
		 3.22298000E+02
		 3.22298000E+02
		 3.22394000E+02
		 3.22394000E+02
		 3.22417000E+02
		 3.22417000E+02
		 3.22432000E+02
		 3.22432000E+02
		 3.22457000E+02
		 3.22457000E+02
		 3.22542000E+02
		 3.22542000E+02
		 3.22665000E+02
		 3.22665000E+02
		 3.22748000E+02
		 3.22748000E+02
		 3.22814000E+02
		 3.22814000E+02
		 3.22872000E+02
		 3.22872000E+02
		 3.23012000E+02
		 3.23012000E+02
		 3.23144000E+02
		 3.23144000E+02
		 3.23447000E+02
		 3.23447000E+02
		 3.23107000E+02
		 3.23107000E+02
		 3.22940000E+02
		 3.22940000E+02
		 3.22984000E+02
		 3.22984000E+02
		 3.23388000E+02
		 3.23388000E+02
		 3.23607000E+02
		 3.23607000E+02
		 3.23719000E+02
		 3.23719000E+02
		 3.23778000E+02
		 3.23778000E+02
		 3.23791000E+02
		 3.23791000E+02
		 3.23788000E+02
		 3.23788000E+02
		 3.23780000E+02
		 3.23780000E+02
		 3.23765000E+02
		 3.23765000E+02
		 3.23739000E+02
		 3.23739000E+02
		 3.23712000E+02
		 3.23712000E+02
		 3.23664000E+02
		 3.23664000E+02
		 3.23592000E+02
		 3.23592000E+02
		 3.23536000E+02
		 3.23536000E+02
		 3.23474000E+02
		 3.23474000E+02
		 3.23403000E+02
		 3.23403000E+02
		 3.23257000E+02
		 3.23257000E+02
		 3.23157000E+02
		 3.23157000E+02
		 3.22924000E+02
		 3.22924000E+02
		 3.22912000E+02
		 3.22912000E+02
		 3.22762000E+02
		 3.22762000E+02
		 3.22777000E+02
		 3.22777000E+02
		 3.22598000E+02
		 3.22598000E+02
		 3.22677000E+02
		 3.22677000E+02
		 3.22893000E+02
		 3.22893000E+02
		 3.22904000E+02
		 3.22904000E+02
		 3.23048000E+02
		 3.23048000E+02
		 3.23233000E+02
		 3.23233000E+02
		 3.23436000E+02
		 3.23436000E+02
		 3.23489000E+02
		 3.23489000E+02
		 3.23961000E+02
		 3.23961000E+02
		 3.23839000E+02
		 3.23839000E+02
		 3.24109000E+02
		 3.24109000E+02
		 3.24189000E+02
		 3.24189000E+02
		 3.24246000E+02
		 3.24246000E+02
		 3.24258000E+02
		 3.24258000E+02
		 3.24251000E+02
		 3.24251000E+02
		 3.24260000E+02
		 3.24260000E+02
		 3.24259000E+02
		 3.24259000E+02
		 3.24142000E+02
		 3.24142000E+02
		 3.24560000E+02
		 3.24560000E+02
		 3.24267000E+02
		 3.24267000E+02
		 3.24439000E+02
		 3.24439000E+02
		 3.24328000E+02
		 3.24328000E+02
		 3.24087000E+02
		 3.24087000E+02
		 3.23597000E+02
		 3.23597000E+02
		 3.23593000E+02
		 3.23593000E+02
		 3.24080000E+02
		 3.24080000E+02
		 3.24388000E+02
		 3.24388000E+02
		 3.24482000E+02
		 3.24482000E+02
		 3.24492000E+02
		 3.24492000E+02
		 3.24465000E+02
		 3.24465000E+02
		 3.24411000E+02
		 3.24411000E+02
		 3.24356000E+02
		 3.24356000E+02
		 3.24245000E+02
		 3.24245000E+02
		 3.24602000E+02
		 3.24602000E+02
		 3.24419000E+02
		 3.24419000E+02
		 3.24480000E+02
		 3.24480000E+02
		 3.24497000E+02
		 3.24497000E+02
		 3.24490000E+02
		 3.24490000E+02
		 3.24425000E+02
		 3.24425000E+02
		 3.24313000E+02
		 3.24313000E+02
		 3.24166000E+02
		 3.24166000E+02
		 3.24003000E+02
		 3.24003000E+02
		 3.23809000E+02
		 3.23809000E+02
		 3.23577000E+02
		 3.23577000E+02
		 3.23419000E+02
		 3.23419000E+02
		 3.23383000E+02
		 3.23383000E+02
		 3.23450000E+02
		 3.23450000E+02
		 3.23305000E+02
		 3.23305000E+02
		 3.23480000E+02
		 3.23480000E+02
		 3.23507000E+02
		 3.23507000E+02
		 3.23710000E+02
		 3.23710000E+02
		 3.23904000E+02
		 3.23904000E+02
		 3.24087000E+02
		 3.24087000E+02
		 3.24120000E+02
		 3.24120000E+02
		 3.24637000E+02
		 3.24637000E+02
		 3.24427000E+02
		 3.24427000E+02
		 3.24548000E+02
		 3.24548000E+02
		 3.24579000E+02
		 3.24579000E+02
		 3.24586000E+02
		 3.24586000E+02
		 3.24560000E+02
		 3.24560000E+02
		 3.24572000E+02
		 3.24572000E+02