# vtk DataFile Version 3.0

ASCII
DATASET UNSTRUCTURED_GRID

POINTS 1221 double
	 1.00000000E-02	 1.00000000E-02	 0.00000000E+00
	 1.00000000E-02	 5.00000000E-03	 0.00000000E+00
	 1.00000000E-02	 5.00000000E-03	 5.00000000E-03
	 1.00000000E-02	 1.00000000E-02	 5.00000000E-03
	 5.00000000E-03	 1.00000000E-02	 0.00000000E+00
	 5.00000000E-03	 5.00000000E-03	 0.00000000E+00
	 5.00000000E-03	 5.00000000E-03	 5.00000000E-03
	 5.00000000E-03	 1.00000000E-02	 5.00000000E-03
	 1.00000000E-02	 7.50000000E-03	 0.00000000E+00
	 1.00000000E-02	 5.00000000E-03	 2.50000000E-03
	 1.00000000E-02	 7.50000000E-03	 5.00000000E-03
	 1.00000000E-02	 1.00000000E-02	 2.50000000E-03
	 7.50000000E-03	 1.00000000E-02	 0.00000000E+00
	 7.50000000E-03	 5.00000000E-03	 0.00000000E+00
	 7.50000000E-03	 5.00000000E-03	 5.00000000E-03
	 7.50000000E-03	 1.00000000E-02	 5.00000000E-03
	 5.00000000E-03	 7.50000000E-03	 0.00000000E+00
	 5.00000000E-03	 5.00000000E-03	 2.50000000E-03
	 5.00000000E-03	 7.50000000E-03	 5.00000000E-03
	 5.00000000E-03	 1.00000000E-02	 2.50000000E-03
	 1.00000000E-02	 5.00000000E-03	 1.00000000E-02
	 1.00000000E-02	 1.00000000E-02	 1.00000000E-02
	 5.00000000E-03	 5.00000000E-03	 1.00000000E-02
	 5.00000000E-03	 1.00000000E-02	 1.00000000E-02
	 1.00000000E-02	 5.00000000E-03	 7.50000000E-03
	 1.00000000E-02	 7.50000000E-03	 1.00000000E-02
	 1.00000000E-02	 1.00000000E-02	 7.50000000E-03
	 7.50000000E-03	 5.00000000E-03	 1.00000000E-02
	 7.50000000E-03	 1.00000000E-02	 1.00000000E-02
	 5.00000000E-03	 5.00000000E-03	 7.50000000E-03
	 5.00000000E-03	 7.50000000E-03	 1.00000000E-02
	 5.00000000E-03	 1.00000000E-02	 7.50000000E-03
	 1.00000000E-02	 5.00000000E-03	 1.50000000E-02
	 1.00000000E-02	 1.00000000E-02	 1.50000000E-02
	 5.00000000E-03	 5.00000000E-03	 1.50000000E-02
	 5.00000000E-03	 1.00000000E-02	 1.50000000E-02
	 1.00000000E-02	 5.00000000E-03	 1.25000000E-02
	 1.00000000E-02	 7.50000000E-03	 1.50000000E-02
	 1.00000000E-02	 1.00000000E-02	 1.25000000E-02
	 7.50000000E-03	 5.00000000E-03	 1.50000000E-02
	 7.50000000E-03	 1.00000000E-02	 1.50000000E-02
	 5.00000000E-03	 5.00000000E-03	 1.25000000E-02
	 5.00000000E-03	 7.50000000E-03	 1.50000000E-02
	 5.00000000E-03	 1.00000000E-02	 1.25000000E-02
	 1.00000000E-02	 5.00000000E-03	 2.00000000E-02
	 1.00000000E-02	 1.00000000E-02	 2.00000000E-02
	 5.00000000E-03	 5.00000000E-03	 2.00000000E-02
	 5.00000000E-03	 1.00000000E-02	 2.00000000E-02
	 1.00000000E-02	 5.00000000E-03	 1.75000000E-02
	 1.00000000E-02	 7.50000000E-03	 2.00000000E-02
	 1.00000000E-02	 1.00000000E-02	 1.75000000E-02
	 7.50000000E-03	 5.00000000E-03	 2.00000000E-02
	 7.50000000E-03	 1.00000000E-02	 2.00000000E-02
	 5.00000000E-03	 5.00000000E-03	 1.75000000E-02
	 5.00000000E-03	 7.50000000E-03	 2.00000000E-02
	 5.00000000E-03	 1.00000000E-02	 1.75000000E-02
	 1.00000000E-02	 5.00000000E-03	 2.50000000E-02
	 1.00000000E-02	 1.00000000E-02	 2.50000000E-02
	 5.00000000E-03	 5.00000000E-03	 2.50000000E-02
	 5.00000000E-03	 1.00000000E-02	 2.50000000E-02
	 1.00000000E-02	 5.00000000E-03	 2.25000000E-02
	 1.00000000E-02	 7.50000000E-03	 2.50000000E-02
	 1.00000000E-02	 1.00000000E-02	 2.25000000E-02
	 7.50000000E-03	 5.00000000E-03	 2.50000000E-02
	 7.50000000E-03	 1.00000000E-02	 2.50000000E-02
	 5.00000000E-03	 5.00000000E-03	 2.25000000E-02
	 5.00000000E-03	 7.50000000E-03	 2.50000000E-02
	 5.00000000E-03	 1.00000000E-02	 2.25000000E-02
	 1.00000000E-02	 5.00000000E-03	 3.00000000E-02
	 1.00000000E-02	 1.00000000E-02	 3.00000000E-02
	 5.00000000E-03	 5.00000000E-03	 3.00000000E-02
	 5.00000000E-03	 1.00000000E-02	 3.00000000E-02
	 1.00000000E-02	 5.00000000E-03	 2.75000000E-02
	 1.00000000E-02	 7.50000000E-03	 3.00000000E-02
	 1.00000000E-02	 1.00000000E-02	 2.75000000E-02
	 7.50000000E-03	 5.00000000E-03	 3.00000000E-02
	 7.50000000E-03	 1.00000000E-02	 3.00000000E-02
	 5.00000000E-03	 5.00000000E-03	 2.75000000E-02
	 5.00000000E-03	 7.50000000E-03	 3.00000000E-02
	 5.00000000E-03	 1.00000000E-02	 2.75000000E-02
	 1.00000000E-02	 5.00000000E-03	 3.50000000E-02
	 1.00000000E-02	 1.00000000E-02	 3.50000000E-02
	 5.00000000E-03	 5.00000000E-03	 3.50000000E-02
	 5.00000000E-03	 1.00000000E-02	 3.50000000E-02
	 1.00000000E-02	 5.00000000E-03	 3.25000000E-02
	 1.00000000E-02	 7.50000000E-03	 3.50000000E-02
	 1.00000000E-02	 1.00000000E-02	 3.25000000E-02
	 7.50000000E-03	 5.00000000E-03	 3.50000000E-02
	 7.50000000E-03	 1.00000000E-02	 3.50000000E-02
	 5.00000000E-03	 5.00000000E-03	 3.25000000E-02
	 5.00000000E-03	 7.50000000E-03	 3.50000000E-02
	 5.00000000E-03	 1.00000000E-02	 3.25000000E-02
	 1.00000000E-02	 5.00000000E-03	 4.00000000E-02
	 1.00000000E-02	 1.00000000E-02	 4.00000000E-02
	 5.00000000E-03	 5.00000000E-03	 4.00000000E-02
	 5.00000000E-03	 1.00000000E-02	 4.00000000E-02
	 1.00000000E-02	 5.00000000E-03	 3.75000000E-02
	 1.00000000E-02	 7.50000000E-03	 4.00000000E-02
	 1.00000000E-02	 1.00000000E-02	 3.75000000E-02
	 7.50000000E-03	 5.00000000E-03	 4.00000000E-02
	 7.50000000E-03	 1.00000000E-02	 4.00000000E-02
	 5.00000000E-03	 5.00000000E-03	 3.75000000E-02
	 5.00000000E-03	 7.50000000E-03	 4.00000000E-02
	 5.00000000E-03	 1.00000000E-02	 3.75000000E-02
	 1.00000000E-02	 5.00000000E-03	 4.50000000E-02
	 1.00000000E-02	 1.00000000E-02	 4.50000000E-02
	 5.00000000E-03	 5.00000000E-03	 4.50000000E-02
	 5.00000000E-03	 1.00000000E-02	 4.50000000E-02
	 1.00000000E-02	 5.00000000E-03	 4.25000000E-02
	 1.00000000E-02	 7.50000000E-03	 4.50000000E-02
	 1.00000000E-02	 1.00000000E-02	 4.25000000E-02
	 7.50000000E-03	 5.00000000E-03	 4.50000000E-02
	 7.50000000E-03	 1.00000000E-02	 4.50000000E-02
	 5.00000000E-03	 5.00000000E-03	 4.25000000E-02
	 5.00000000E-03	 7.50000000E-03	 4.50000000E-02
	 5.00000000E-03	 1.00000000E-02	 4.25000000E-02
	 1.00000000E-02	 5.00000000E-03	 5.00000000E-02
	 1.00000000E-02	 1.00000000E-02	 5.00000000E-02
	 5.00000000E-03	 5.00000000E-03	 5.00000000E-02
	 5.00000000E-03	 1.00000000E-02	 5.00000000E-02
	 1.00000000E-02	 5.00000000E-03	 4.75000000E-02
	 1.00000000E-02	 7.50000000E-03	 5.00000000E-02
	 1.00000000E-02	 1.00000000E-02	 4.75000000E-02
	 7.50000000E-03	 5.00000000E-03	 5.00000000E-02
	 7.50000000E-03	 1.00000000E-02	 5.00000000E-02
	 5.00000000E-03	 5.00000000E-03	 4.75000000E-02
	 5.00000000E-03	 7.50000000E-03	 5.00000000E-02
	 5.00000000E-03	 1.00000000E-02	 4.75000000E-02
	 1.00000000E-02	 5.00000000E-03	 5.50000000E-02
	 1.00000000E-02	 1.00000000E-02	 5.50000000E-02
	 5.00000000E-03	 5.00000000E-03	 5.50000000E-02
	 5.00000000E-03	 1.00000000E-02	 5.50000000E-02
	 1.00000000E-02	 5.00000000E-03	 5.25000000E-02
	 1.00000000E-02	 7.50000000E-03	 5.50000000E-02
	 1.00000000E-02	 1.00000000E-02	 5.25000000E-02
	 7.50000000E-03	 5.00000000E-03	 5.50000000E-02
	 7.50000000E-03	 1.00000000E-02	 5.50000000E-02
	 5.00000000E-03	 5.00000000E-03	 5.25000000E-02
	 5.00000000E-03	 7.50000000E-03	 5.50000000E-02
	 5.00000000E-03	 1.00000000E-02	 5.25000000E-02
	 1.00000000E-02	 5.00000000E-03	 6.00000000E-02
	 1.00000000E-02	 1.00000000E-02	 6.00000000E-02
	 5.00000000E-03	 5.00000000E-03	 6.00000000E-02
	 5.00000000E-03	 1.00000000E-02	 6.00000000E-02
	 1.00000000E-02	 5.00000000E-03	 5.75000000E-02
	 1.00000000E-02	 7.50000000E-03	 6.00000000E-02
	 1.00000000E-02	 1.00000000E-02	 5.75000000E-02
	 7.50000000E-03	 5.00000000E-03	 6.00000000E-02
	 7.50000000E-03	 1.00000000E-02	 6.00000000E-02
	 5.00000000E-03	 5.00000000E-03	 5.75000000E-02
	 5.00000000E-03	 7.50000000E-03	 6.00000000E-02
	 5.00000000E-03	 1.00000000E-02	 5.75000000E-02
	 1.00000000E-02	 5.00000000E-03	 6.50000000E-02
	 1.00000000E-02	 1.00000000E-02	 6.50000000E-02
	 5.00000000E-03	 5.00000000E-03	 6.50000000E-02
	 5.00000000E-03	 1.00000000E-02	 6.50000000E-02
	 1.00000000E-02	 5.00000000E-03	 6.25000000E-02
	 1.00000000E-02	 7.50000000E-03	 6.50000000E-02
	 1.00000000E-02	 1.00000000E-02	 6.25000000E-02
	 7.50000000E-03	 5.00000000E-03	 6.50000000E-02
	 7.50000000E-03	 1.00000000E-02	 6.50000000E-02
	 5.00000000E-03	 5.00000000E-03	 6.25000000E-02
	 5.00000000E-03	 7.50000000E-03	 6.50000000E-02
	 5.00000000E-03	 1.00000000E-02	 6.25000000E-02
	 1.00000000E-02	 5.00000000E-03	 7.00000000E-02
	 1.00000000E-02	 1.00000000E-02	 7.00000000E-02
	 5.00000000E-03	 5.00000000E-03	 7.00000000E-02
	 5.00000000E-03	 1.00000000E-02	 7.00000000E-02
	 1.00000000E-02	 5.00000000E-03	 6.75000000E-02
	 1.00000000E-02	 7.50000000E-03	 7.00000000E-02
	 1.00000000E-02	 1.00000000E-02	 6.75000000E-02
	 7.50000000E-03	 5.00000000E-03	 7.00000000E-02
	 7.50000000E-03	 1.00000000E-02	 7.00000000E-02
	 5.00000000E-03	 5.00000000E-03	 6.75000000E-02
	 5.00000000E-03	 7.50000000E-03	 7.00000000E-02
	 5.00000000E-03	 1.00000000E-02	 6.75000000E-02
	 1.00000000E-02	 5.00000000E-03	 7.50000000E-02
	 1.00000000E-02	 1.00000000E-02	 7.50000000E-02
	 5.00000000E-03	 5.00000000E-03	 7.50000000E-02
	 5.00000000E-03	 1.00000000E-02	 7.50000000E-02
	 1.00000000E-02	 5.00000000E-03	 7.25000000E-02
	 1.00000000E-02	 7.50000000E-03	 7.50000000E-02
	 1.00000000E-02	 1.00000000E-02	 7.25000000E-02
	 7.50000000E-03	 5.00000000E-03	 7.50000000E-02
	 7.50000000E-03	 1.00000000E-02	 7.50000000E-02
	 5.00000000E-03	 5.00000000E-03	 7.25000000E-02
	 5.00000000E-03	 7.50000000E-03	 7.50000000E-02
	 5.00000000E-03	 1.00000000E-02	 7.25000000E-02
	 1.00000000E-02	 5.00000000E-03	 8.00000000E-02
	 1.00000000E-02	 1.00000000E-02	 8.00000000E-02
	 5.00000000E-03	 5.00000000E-03	 8.00000000E-02
	 5.00000000E-03	 1.00000000E-02	 8.00000000E-02
	 1.00000000E-02	 5.00000000E-03	 7.75000000E-02
	 1.00000000E-02	 7.50000000E-03	 8.00000000E-02
	 1.00000000E-02	 1.00000000E-02	 7.75000000E-02
	 7.50000000E-03	 5.00000000E-03	 8.00000000E-02
	 7.50000000E-03	 1.00000000E-02	 8.00000000E-02
	 5.00000000E-03	 5.00000000E-03	 7.75000000E-02
	 5.00000000E-03	 7.50000000E-03	 8.00000000E-02
	 5.00000000E-03	 1.00000000E-02	 7.75000000E-02
	 1.00000000E-02	 5.00000000E-03	 8.50000000E-02
	 1.00000000E-02	 1.00000000E-02	 8.50000000E-02
[...]
POINT_DATA 1221
FIELD U 1
	U 3 1221 double
		 0.00000000E+00	 0.00000000E+00	 0.00000000E+00
		 0.00000000E+00	 0.00000000E+00	 0.00000000E+00
		 9.72586000E-03	 5.41692000E-01	-8.75549000E-03
		 1.24564000E-01	 5.88065000E-01	-5.74500000E-01
		 0.00000000E+00	 0.00000000E+00	 0.00000000E+00
		 0.00000000E+00	 0.00000000E+00	 0.00000000E+00
		 8.83594000E-03	 5.85389000E-01	-1.30451000E-14
		 8.17637000E-03	 6.44347000E-01	-5.80059000E-01
		 0.00000000E+00	 0.00000000E+00	 0.00000000E+00
		 4.30800000E-03	 1.64875000E-01	-4.52884000E-03
		 6.61318000E-02	 5.41269000E-01	-2.40102000E-01
		 1.30768000E-01	 2.38450000E-01	-3.12641000E-01
		 0.00000000E+00	 0.00000000E+00	 0.00000000E+00
		 0.00000000E+00	 0.00000000E+00	 0.00000000E+00
		 8.87492000E-03	 5.81045000E-01	-3.61450000E-03
		 6.12791000E-02	 6.35059000E-01	-5.79639000E-01
		 0.00000000E+00	 0.00000000E+00	 0.00000000E+00
		 3.12950000E-03	 2.07332000E-01	-4.15640000E-15
		 8.77037000E-03	 5.87971000E-01	-2.39464000E-01
		 2.48865000E-03	 2.85409000E-01	-3.00039000E-01
		 2.40548000E-02	 1.56401000E+00	-1.24281000E-02
		 5.11931000E-02	 1.58075000E+00	-8.19205000E-01
		 2.38184000E-02	 1.57799000E+00	-2.39808000E-14
		 2.36074000E-02	 1.59365000E+00	-8.23375000E-01
		 1.65390000E-02	 1.01990000E+00	-1.11934000E-02
		 3.89300000E-02	 1.57145000E+00	-3.68344000E-01
		 9.01667000E-02	 1.05903000E+00	-7.36046000E-01
		 2.39333000E-02	 1.57385000E+00	-5.62498000E-03
		 3.87567000E-02	 1.58963000E+00	-8.31548000E-01
		 1.58841000E-02	 1.05234000E+00	-1.68754000E-14
		 2.37560000E-02	 1.58560000E+00	-3.72660000E-01
		 1.53945000E-02	 1.09573000E+00	-7.41570000E-01
		 3.93139000E-02	 2.65413000E+00	-1.16114000E-02
		-1.51082000E-02	 2.63106000E+00	-7.64392000E-01
		 3.96858000E-02	 2.62922000E+00	-2.40918000E-14
		 4.00618000E-02	 2.60458000E+00	-7.69265000E-01
		 3.18736000E-02	 2.12267000E+00	-1.25388000E-02
		 1.28485000E-02	 2.64926000E+00	-3.51034000E-01
		 1.67413000E-02	 2.11969000E+00	-8.24945000E-01
		 3.96029000E-02	 2.63534000E+00	-5.34891000E-03
		 1.25245000E-02	 2.61061000E+00	-7.74532000E-01
		 3.19538000E-02	 2.11697000E+00	-2.40918000E-14
		 3.97782000E-02	 2.62373000E+00	-3.54370000E-01
		 3.20399000E-02	 2.11165000E+00	-8.30707000E-01
		 5.09966000E-02	 3.48800000E+00	-7.10525000E-03
		-6.39803000E-02	 3.43476000E+00	-4.67403000E-01
		 5.18231000E-02	 3.43333000E+00	-3.50830000E-14
		 5.26484000E-02	 3.37857000E+00	-4.70729000E-01
		 4.58373000E-02	 3.11865000E+00	-9.73619000E-03
		-5.60140000E-03	 3.47648000E+00	-2.13252000E-01
		-4.16864000E-02	 3.07967000E+00	-6.41127000E-01
		 5.16440000E-02	 3.44645000E+00	-3.25492000E-03
		-5.27095000E-03	 3.39155000E+00	-4.74020000E-01
		 4.64488000E-02	 3.07728000E+00	-2.64233000E-14
		 5.20212000E-02	 3.42146000E+00	-2.15642000E-01
		 4.70733000E-02	 3.03676000E+00	-6.45031000E-01
		 5.58800000E-02	 3.84228000E+00	-2.24910000E-04
		-9.04070000E-02	 3.77357000E+00	-1.16330000E-02
		 5.69377000E-02	 3.77217000E+00	-3.59712000E-14
		 5.79959000E-02	 3.70210000E+00	-1.49005000E-02
		 5.44418000E-02	 3.73427000E+00	-3.85984000E-03
		-1.62899000E-02	 3.82683000E+00	 2.08440000E-03
		-7.94901000E-02	 3.67252000E+00	-2.52474000E-01
		 5.67005000E-02	 3.78919000E+00	-1.28780000E-05
		-1.57856000E-02	 3.71873000E+00	-1.48892000E-02
		 5.53956000E-02	 3.67001000E+00	-2.97540000E-14
		 5.71945000E-02	 3.75646000E+00	-8.53176000E-04
		 5.63655000E-02	 3.60682000E+00	-2.55718000E-01
		 5.22705000E-02	 3.60265000E+00	 7.42390000E-03
		-9.30284000E-02	 3.53396000E+00	 4.95654000E-01
		 5.33245000E-02	 3.53279000E+00	-3.61378000E-14
		 5.43789000E-02	 3.46297000E+00	 4.91840000E-01
		 5.51765000E-02	 3.79816000E+00	 3.60544000E-03
		-1.94940000E-02	 3.58709000E+00	 2.43434000E-01
		-9.39974000E-02	 3.72865000E+00	 2.42326000E-01
		 5.30870000E-02	 3.54976000E+00	 3.61254000E-03
		-1.89137000E-02	 3.47953000E+00	 4.95542000E-01
		 5.62448000E-02	 3.72627000E+00	-3.75255000E-14
		 5.35806000E-02	 3.51706000E+00	 2.39334000E-01
		 5.73299000E-02	 3.65549000E+00	 2.38864000E-01
		 4.02925000E-02	 2.77914000E+00	 1.42191000E-02
		-7.37577000E-02	 2.72514000E+00	 9.46553000E-01
		 4.11204000E-02	 2.72426000E+00	-4.01901000E-14
		 4.19487000E-02	 2.66941000E+00	 9.42026000E-01
		 4.72554000E-02	 3.25775000E+00	 1.10161000E-02
		-1.60511000E-02	 2.76687000E+00	 4.58448000E-01
		-8.53175000E-02	 3.19572000E+00	 7.33918000E-01
		 4.09334000E-02	 2.73760000E+00	 6.83927000E-03
		-1.55856000E-02	 2.68242000E+00	 9.49010000E-01
		 4.82068000E-02	 3.19375000E+00	-4.42979000E-14
		 4.13217000E-02	 2.71187000E+00	 4.53108000E-01
		 4.91729000E-02	 3.13071000E+00	 7.29828000E-01
		 2.17595000E-02	 1.49868000E+00	 1.87647000E-02
		-3.76760000E-02	 1.47063000E+00	 1.24817000E+00
		 2.21903000E-02	 1.47013000E+00	-3.57492000E-14
		 2.26212000E-02	 1.44159000E+00	 1.24318000E+00
		 3.16776000E-02	 2.18365000E+00	 1.68320000E-02
		-7.58711000E-03	 1.49234000E+00	 6.02263000E-01
		-5.70087000E-02	 2.14216000E+00	 1.11981000E+00
		 2.20934000E-02	 1.47706000E+00	 8.99763000E-03
		-7.35816000E-03	 1.44836000E+00	 1.25236000E+00
		 3.23141000E-02	 2.14084000E+00	-3.88578000E-14
		 2.22949000E-02	 1.46371000E+00	 5.96101000E-01
		 3.29602000E-02	 2.09867000E+00	 1.11514000E+00
		-2.04246000E-04	-2.13289000E-02	 2.01259000E-02
		 7.56393000E-03	-1.73315000E-02	 1.33831000E+00
		-2.63001000E-04	-1.74240000E-02	-4.72955000E-14
		-3.21941000E-04	-1.35315000E-02	 1.33336000E+00
		 1.09766000E-02	 7.52399000E-01	 1.98639000E-02
		 3.68863000E-03	-2.03093000E-02	 6.44806000E-01
		-1.55242000E-02	 7.40211000E-01	 1.32089000E+00
		-2.48419000E-04	-1.83994000E-02	 9.63861000E-03
		 3.60904000E-03	-1.44488000E-02	 1.34319000E+00
		 1.11651000E-02	 7.39699000E-01	-4.66294000E-14
		-2.77723000E-04	-1.64580000E-02	 6.38566000E-01
		 1.13568000E-02	 7.27211000E-01	 1.31600000E+00
		-2.17715000E-02	-1.51490000E+00	 1.79816000E-02
		 5.29952000E-02	-1.47892000E+00	 1.19556000E+00
		-2.23185000E-02	-1.47862000E+00	-4.06342000E-14
		-2.28662000E-02	-1.44238000E+00	 1.19129000E+00
		-1.12858000E-02	-7.88414000E-01	 1.94711000E-02
		 1.52663000E-02	-1.50653000E+00	 5.75680000E-01
		 3.06890000E-02	-7.68268000E-01	 1.29450000E+00
		-2.21926000E-02	-1.48749000E+00	 8.60731000E-03
		 1.48732000E-02	-1.45096000E+00	 1.20007000E+00
		-1.15912000E-02	-7.67926000E-01	-3.33067000E-14
		-2.24524000E-02	-1.47028000E+00	 5.70242000E-01
		-1.19004000E-02	-7.47696000E-01	 1.28998000E+00
		-3.91328000E-02	-2.71750000E+00	 1.26718000E-02
		 8.98497000E-02	-2.65562000E+00	 8.42517000E-01
		-4.00751000E-02	-2.65501000E+00	-4.03566000E-14
		-4.10183000E-02	-2.59258000E+00	 8.39518000E-01
		-3.11983000E-02	-2.16718000E+00	 1.56644000E-02
		 2.47281000E-02	-2.70316000E+00	 4.05656000E-01
		 7.26140000E-02	-2.11781000E+00	 1.04135000E+00
		-3.98590000E-02	-2.67027000E+00	 6.06533000E-03
		 2.40796000E-02	-2.60738000E+00	 8.45704000E-01
		-3.19499000E-02	-2.11671000E+00	-4.47420000E-14
		-4.03054000E-02	-2.64069000E+00	 4.01834000E-01
		-3.27117000E-02	-2.06692000E+00	 1.03778000E+00
		-4.92076000E-02	-3.41521000E+00	 5.12882000E-03
		 1.11081000E-01	-3.33838000E+00	 3.41093000E-01
		-5.03781000E-02	-3.33759000E+00	-4.16889000E-14
		-5.15497000E-02	-3.26005000E+00	 3.39789000E-01
		-4.52326000E-02	-3.13897000E+00	 9.09531000E-03
		 3.01407000E-02	-3.39743000E+00	 1.64441000E-01
		 1.02208000E-01	-3.06898000E+00	 6.04686000E-01
		-5.01099000E-02	-3.35654000E+00	 2.45750000E-03
		 2.93457000E-02	-3.27842000E+00	 3.42296000E-01
		-4.62990000E-02	-3.06735000E+00	-4.05787000E-14
		-5.06640000E-02	-3.31983000E+00	 1.62812000E-01
		-4.73801000E-02	-2.99670000E+00	 6.02573000E-01
		-5.02159000E-02	-3.48442000E+00	-3.29803000E-03
		 1.12593000E-01	-3.40642000E+00	-2.19040000E-01
		-5.14046000E-02	-3.40560000E+00	-3.76366000E-14
		-5.25944000E-02	-3.32685000E+00	-2.18497000E-01
		-5.08996000E-02	-3.53103000E+00	 9.31089000E-04
		 3.03750000E-02	-3.46638000E+00	-1.04911000E-01
		 1.13804000E-01	-3.45289000E+00	 6.20590000E-02
		-5.11324000E-02	-3.42484000E+00	-1.57177000E-03
		 2.95719000E-02	-3.34551000E+00	-2.20099000E-01
		-5.20904000E-02	-3.45104000E+00	-3.53051000E-14
		-5.16950000E-02	-3.38757000E+00	-1.04131000E-01
		-5.32978000E-02	-3.37214000E+00	 6.16855000E-02
		-4.20106000E-02	-2.91482000E+00	-1.10911000E-02
		 9.39527000E-02	-2.84969000E+00	-7.37031000E-01
		-4.30033000E-02	-2.84900000E+00	-3.11418000E-14
		-4.39967000E-02	-2.78324000E+00	-7.34798000E-01
		-4.72122000E-02	-3.27476000E+00	-7.36182000E-03
		 2.52901000E-02	-2.89976000E+00	-3.53956000E-01
		 1.05099000E-01	-3.20251000E+00	-4.89091000E-01
		-4.27759000E-02	-2.86507000E+00	-5.29752000E-03
		 2.46208000E-02	-2.79882000E+00	-7.40198000E-01
		-4.83132000E-02	-3.20079000E+00	-3.35287000E-14
		-4.32457000E-02	-2.83394000E+00	-3.50965000E-01
		-4.94296000E-02	-3.12785000E+00	-4.87727000E-01
		-2.61095000E-02	-1.81161000E+00	-1.68432000E-02
		 5.84438000E-02	-1.77110000E+00	-1.11935000E+00
		-2.67268000E-02	-1.77067000E+00	-4.05231000E-14
		-2.73446000E-02	-1.72978000E+00	-1.11588000E+00
		-3.48712000E-02	-2.41867000E+00	-1.42874000E-02
		 1.57440000E-02	-1.80224000E+00	-5.37766000E-01
		 7.75477000E-02	-2.36536000E+00	-9.49360000E-01
		-2.65854000E-02	-1.78066000E+00	-8.04738000E-03
		 1.53275000E-02	-1.73947000E+00	-1.12408000E+00
		-3.56838000E-02	-2.36409000E+00	-2.79776000E-14
		-2.68776000E-02	-1.76131000E+00	-5.33146000E-01
		-3.65078000E-02	-2.31025000E+00	-9.46553000E-01
		-5.42269000E-03	-3.76571000E-01	-1.95147000E-02
		 1.24530000E-02	-3.67994000E-01	-1.29693000E+00
		-5.55329000E-03	-3.67911000E-01	-4.37428000E-14
		-5.68401000E-03	-3.59258000E-01	-1.29287000E+00
		-1.61427000E-02	-1.11983000E+00	-1.85943000E-02
		 3.42781000E-03	-3.74583000E-01	-6.23155000E-01
		 3.60723000E-02	-1.09506000E+00	-1.23559000E+00
		-5.52333000E-03	-3.70025000E-01	-9.32474000E-03
		 3.33793000E-03	-3.61308000E-01	-1.30237000E+00
		-1.65202000E-02	-1.09448000E+00	-4.54081000E-14
		-5.58521000E-03	-3.65926000E-01	-6.17772000E-01
		-1.69029000E-02	-1.06947000E+00	-1.23189000E+00
		 1.62739000E-02	 1.12844000E+00	-1.86244000E-02
		-3.57027000E-02	 1.10356000E+00	-1.23777000E+00
		 1.66532000E-02	 1.10329000E+00	-4.43534000E-14
		 1.70328000E-02	 1.07816000E+00	-1.23389000E+00
		 5.55155000E-03	 3.84550000E-01	-1.95047000E-02
		-9.44942000E-03	 1.12269000E+00	-5.94760000E-01
		-1.18421000E-02	 3.76322000E-01	-1.29611000E+00
		 1.65664000E-02	 1.10942000E+00	-8.89968000E-03
		-9.19759000E-03	 1.08412000E+00	-1.24296000E+00
		 5.67711000E-03	 3.76114000E-01	-4.13003000E-14
		 1.67458000E-02	 1.09754000E+00	-5.89612000E-01
		 5.80445000E-03	 3.67795000E-01	-1.29220000E+00
		 3.50243000E-02	 2.42905000E+00	-1.43375000E-02
		-7.72972000E-02	 2.37528000E+00	-9.52867000E-01
		 3.58440000E-02	 2.37470000E+00	-3.52496000E-14
		 3.66645000E-02	 2.32039000E+00	-9.49873000E-01
		 2.62543000E-02	 1.82014000E+00	-1.68569000E-02
		-2.05670000E-02	 2.41663000E+00	-4.57862000E-01
		-5.75202000E-02	 1.78044000E+00	-1.12017000E+00
		 3.56565000E-02	 2.38796000E+00	-6.85120000E-03
		-2.00201000E-02	 2.33326000E+00	-9.56857000E-01
		 2.68596000E-02	 1.77947000E+00	-4.94049000E-14
		 3.60442000E-02	 2.36227000E+00	-4.53898000E-01
		 2.74734000E-02	 1.73937000E+00	-1.11678000E+00
		 4.74108000E-02	 3.28825000E+00	-7.43592000E-03
		-1.04789000E-01	 3.21539000E+00	-4.94181000E-01
		 4.85216000E-02	 3.21460000E+00	-2.25653000E-14
		 4.96333000E-02	 3.14101000E+00	-4.92636000E-01
		 4.21917000E-02	 2.92527000E+00	-1.11351000E-02
		-2.79183000E-02	 3.27142000E+00	-2.37440000E-01
		-9.26813000E-02	 2.86136000E+00	-7.39943000E-01
		 4.82674000E-02	 3.23257000E+00	-3.55303000E-03
		-2.71763000E-02	 3.15844000E+00	-4.96258000E-01
		 4.31662000E-02	 2.85980000E+00	-3.15858000E-14
		 4.87928000E-02	 3.19776000E+00	-2.35392000E-01
		 4.41545000E-02	 2.79524000E+00	-7.37712000E-01
		 5.11748000E-02	 3.54940000E+00	 8.23501000E-04
		-1.13195000E-01	 3.47071000E+00	 5.47515000E-02
		 5.23745000E-02	 3.46986000E+00	-3.37230000E-14
		 5.35752000E-02	 3.39038000E+00	 5.45576000E-02
		 5.04585000E-02	 3.49855000E+00	-3.38203000E-03
		-3.01786000E-02	 3.53122000E+00	 2.63595000E-02
		-1.10951000E-01	 3.42205000E+00	-2.24726000E-01
		 5.21000000E-02	 3.48926000E+00	 3.94138000E-04
		-2.93768000E-02	 3.40921000E+00	 5.49596000E-02
		 5.16249000E-02	 3.42019000E+00	-1.79579000E-14
		 5.26674000E-02	 3.45167000E+00	 2.61120000E-02
		 5.28076000E-02	 3.34292000E+00	-2.24062000E-01
		 4.56276000E-02	 3.16473000E+00	 8.93757000E-03
		-1.01005000E-01	 3.09452000E+00	 5.94027000E-01
		 4.66978000E-02	 3.09377000E+00	-5.58997000E-14
		 4.77689000E-02	 3.02287000E+00	 5.92122000E-01
		 4.95463000E-02	 3.43538000E+00	 4.99102000E-03
		-2.69476000E-02	 3.14851000E+00	 2.85525000E-01
		-1.09023000E-01	 3.36022000E+00	 3.31691000E-01
		 4.64529000E-02	 3.11108000E+00	 4.27193000E-03
		-2.62318000E-02	 3.03967000E+00	 5.96477000E-01
		 5.06922000E-02	 3.35840000E+00	-5.73430000E-14
		 4.69591000E-02	 3.07754000E+00	 2.83019000E-01
		 5.18541000E-02	 3.28249000E+00	 3.30660000E-01
		 3.17742000E-02	 2.20398000E+00	 1.54302000E-02
		-7.04545000E-02	 2.15503000E+00	 1.02554000E+00
		 3.25203000E-02	 2.15450000E+00	-2.50910000E-14
		 3.32671000E-02	 2.10507000E+00	 1.02227000E+00
		 3.96171000E-02	 2.74701000E+00	 1.24605000E-02
		-1.88241000E-02	 2.19267000E+00	 4.92913000E-01
		-8.72672000E-02	 2.68687000E+00	 8.28066000E-01
		 3.23496000E-02	 2.16657000E+00	 7.37494000E-03
		-1.83244000E-02	 2.11678000E+00	 1.02978000E+00
		 4.05340000E-02	 2.68541000E+00	-4.76286000E-14
		 3.27026000E-02	 2.14319000E+00	 4.88596000E-01
		 4.14638000E-02	 2.62467000E+00	 8.25519000E-01
		 1.21307000E-02	 8.41660000E-01	 1.91212000E-02
		-2.71220000E-02	 8.22855000E-01	 1.27086000E+00
		 1.24173000E-02	 8.22658000E-01	-3.95239000E-14
		 1.27041000E-02	 8.03672000E-01	 1.26679000E+00
		 2.24732000E-02	 1.55843000E+00	 1.76680000E-02
		-7.29899000E-03	 8.37311000E-01	 6.10825000E-01
		-4.96595000E-02	 1.52423000E+00	 1.17413000E+00
		 1.23517000E-02	 8.27295000E-01	 9.13911000E-03
		-7.10581000E-03	 8.08171000E-01	 1.27611000E+00
		 2.29945000E-02	 1.52341000E+00	-7.10543000E-15
		 1.24873000E-02	 8.18310000E-01	 6.05474000E-01
		 2.35231000E-02	 1.48887000E+00	 1.17052000E+00
		-9.73455000E-03	-6.74719000E-01	 1.93407000E-02
		 2.10817000E-02	-6.59982000E-01	 1.28546000E+00
		-9.95933000E-03	-6.59815000E-01	-3.15963000E-14
		-1.01843000E-02	-6.44923000E-01	 1.28134000E+00
		 1.22879000E-03	 8.55647000E-02	 1.96674000E-02
		 5.51463000E-03	-6.71320000E-01	 6.17876000E-01
		-3.06607000E-03	 8.35136000E-02	 1.30701000E+00
		-9.90797000E-03	-6.63449000E-01	 9.24443000E-03
		 5.36693000E-03	-6.48452000E-01	 1.29076000E+00
		 1.25995000E-03	 8.34729000E-02	-6.42819000E-14
		-1.00142000E-02	-6.56412000E-01	 6.12452000E-01
		 1.29153000E-03	 8.14084000E-02	 1.30298000E+00
		-2.98514000E-02	-2.06976000E+00	 1.60520000E-02
		 6.53502000E-02	-2.02421000E+00	 1.06691000E+00
		-3.05460000E-02	-2.02370000E+00	-2.28706000E-14
		-3.12412000E-02	-1.97768000E+00	 1.06346000E+00
		-2.02576000E-02	-1.40402000E+00	 1.80974000E-02
		 1.72632000E-02	-2.05924000E+00	 5.12897000E-01
		 4.40050000E-02	-1.37359000E+00	 1.20270000E+00
		-3.03872000E-02	-2.03494000E+00	 7.67337000E-03
		 1.68027000E-02	-1.98859000E+00	 1.07128000E+00
		-2.07217000E-02	-1.37283000E+00	-5.55112000E-16
		-3.07156000E-02	-2.01318000E+00	 5.08368000E-01
		-2.11924000E-02	-1.34208000E+00	 1.19897000E+00
		-4.45710000E-02	-3.09035000E+00	 9.85824000E-03
		 9.75781000E-02	-3.02234000E+00	 6.55297000E-01
		-4.56082000E-02	-3.02158000E+00	-2.77556000E-14
		-4.66462000E-02	-2.95287000E+00	 6.53117000E-01
		-3.80860000E-02	-2.63989000E+00	 1.32476000E-02
		 2.57776000E-02	-3.07465000E+00	 3.15158000E-01
		 8.29466000E-02	-2.58257000E+00	 8.80432000E-01
		-4.53710000E-02	-3.03836000E+00	 4.71425000E-03
		 2.50900000E-02	-2.96915000E+00	 6.57924000E-01
		-3.89603000E-02	-2.58116000E+00	-1.47660000E-14
		-4.58614000E-02	-3.00587000E+00	 3.12323000E-01
		-3.98469000E-02	-2.52323000E+00	 8.77664000E-01
		-5.12319000E-02	-3.55186000E+00	 1.89337000E-03
		 1.11829000E-01	-3.47385000E+00	 1.25987000E-01
		-5.24216000E-02	-3.47297000E+00	-2.37588000E-14
		-5.36122000E-02	-3.39416000E+00	 1.25438000E-01
		-4.90265000E-02	-3.39806000E+00	 6.00606000E-03
		 2.94633000E-02	-3.53385000E+00	 6.08955000E-02
		 1.06612000E-01	-3.32435000E+00	 3.99248000E-01
		-5.21496000E-02	-3.49222000E+00	 9.09163000E-04
		 2.86766000E-02	-3.41284000E+00	 1.26366000E-01
		-5.01508000E-02	-3.32253000E+00	-3.34177000E-14
		-5.27120000E-02	-3.45496000E+00	 6.02329000E-02
		-5.12908000E-02	-3.24805000E+00	 3.97907000E-01
		-4.86465000E-02	-3.37182000E+00	-6.38284000E-03
		 1.05402000E-01	-3.29815000E+00	-4.23993000E-01
		-4.97702000E-02	-3.29732000E+00	-1.22125000E-14
		-5.08948000E-02	-3.22287000E+00	-4.22869000E-01
		-5.11087000E-02	-3.54184000E+00	-2.30088000E-03
		 2.75836000E-02	-3.35483000E+00	-2.03248000E-01
		 1.10608000E-01	-3.46528000E+00	-1.52719000E-01
		-4.95134000E-02	-3.31549000E+00	-3.04407000E-03
		 2.68450000E-02	-3.24052000E+00	-4.25970000E-01
		-5.22766000E-02	-3.46337000E+00	-8.43769000E-15
		-5.00444000E-02	-3.28031000E+00	-2.01672000E-01
		-5.34611000E-02	-3.38600000E+00	-1.52435000E-01
		-3.73210000E-02	-2.58526000E+00	-1.34491000E-02
		 7.93121000E-02	-2.52954000E+00	-8.93523000E-01
		-3.81713000E-02	-2.52888000E+00	 1.71529000E-14
		-3.90222000E-02	-2.47255000E+00	-8.91013000E-01
		-4.39831000E-02	-3.04692000E+00	-1.01490000E-02
		 2.03836000E-02	-2.57243000E+00	-4.28653000E-01
		 9.40775000E-02	-2.98161000E+00	-6.74170000E-01
		-3.79772000E-02	-2.54262000E+00	-6.41809000E-03
		 1.98336000E-02	-2.48590000E+00	-8.97553000E-01
		-4.49798000E-02	-2.97995000E+00	-1.26565000E-14
		-3.83787000E-02	-2.51602000E+00	-4.25205000E-01
		-4.59907000E-02	-2.91392000E+00	-6.72382000E-01
		-1.93685000E-02	-1.33857000E+00	-1.79968000E-02
		 3.80769000E-02	-1.31125000E+00	-1.19562000E+00
		-1.97864000E-02	-1.31087000E+00	-2.19269000E-14
		-2.02045000E-02	-1.28318000E+00	-1.19231000E+00
		-2.89897000E-02	-2.00607000E+00	-1.60916000E-02
		 9.03136000E-03	-1.33232000E+00	-5.73482000E-01
		 5.98390000E-02	-1.96414000E+00	-1.06895000E+00
		-1.96915000E-02	-1.31761000E+00	-8.58714000E-03
		 8.77903000E-03	-1.28974000E+00	-1.20106000E+00
		-2.96302000E-02	-1.96303000E+00	 3.16275000E-14
		-1.98882000E-02	-1.30458000E+00	-5.68905000E-01
		-3.02800000E-02	-1.92059000E+00	-1.06609000E+00
		 1.86730000E-03	 1.36569000E-01	-1.91652000E-02
		-1.11367000E-02	 1.30069000E-01	-1.27305000E+00
		 1.96424000E-03	 1.30133000E-01	-3.67484000E-14
		 2.06139000E-03	 1.23711000E-01	-1.26971000E+00
		-8.92009000E-03	-6.12669000E-01	-1.90198000E-02
		-4.61626000E-03	 1.34973000E-01	-6.10172000E-01
		 1.38446000E-02	-6.02129000E-01	-1.26336000E+00
		 1.94094000E-03	 1.31725000E-01	-9.13909000E-03
		-4.51180000E-03	 1.25227000E-01	-1.27902000E+00
		-9.08257000E-03	-6.01729000E-01	-6.03961000E-14
		 1.98828000E-03	 1.28589000E-01	-6.05473000E-01
		-9.24771000E-03	-5.90964000E-01	-1.26008000E+00
		 2.24093000E-02	 1.56464000E+00	-1.66922000E-02
		-5.98680000E-02	 1.52485000E+00	-1.10837000E+00
		 2.30128000E-02	 1.52462000E+00	 4.66294000E-15
		 2.36170000E-02	 1.48464000E+00	-1.10588000E+00
		 1.24805000E-02	 8.73896000E-01	-1.83602000E-02
		-1.83827000E-02	 1.55531000E+00	-5.30268000E-01
		-3.59453000E-02	 8.50579000E-01	-1.21925000E+00
		 2.28730000E-02	 1.53441000E+00	-7.94786000E-03
		-1.79210000E-02	 1.49410000E+00	-1.11397000E+00
		 1.28334000E-02	 8.50226000E-01	 6.86118000E-14
		 2.31607000E-02	 1.51536000E+00	-5.26553000E-01
		 1.31907000E-02	 8.26846000E-01	-1.21638000E+00
		 3.83534000E-02	 2.67537000E+00	-1.09557000E-02
		-9.99757000E-02	 2.60855000E+00	-7.26625000E-01
		 3.93673000E-02	 2.60812000E+00	-9.21485000E-15
		 4.03824000E-02	 2.54094000E+00	-7.25825000E-01
		 3.11810000E-02	 2.17453000E+00	-1.41732000E-02
		-3.02136000E-02	 2.65973000E+00	-3.45691000E-01
		-8.10712000E-02	 2.12079000E+00	-9.40609000E-01