<?xml version="1.0"?>
<VTKFile type="UnstructuredGrid" version="0.1" byte_order="LittleEndian">
	<UnstructuredGrid>
		<Piece NumberOfPoints="321" NumberOfCells="40">
			<Points>
				<DataArray type="Float64" NumberOfComponents="3" format="ascii">
					 1.00000000E-02	 1.00000000E-02	 0.00000000E+00
					 1.00000000E-02	 5.00000000E-03	 0.00000000E+00
					 1.00000000E-02	 5.00000000E-03	 1.00000000E-02
					 1.00000000E-02	 1.00000000E-02	 1.00000000E-02
					 5.00000000E-03	 1.00000000E-02	 0.00000000E+00
					 5.00000000E-03	 5.00000000E-03	 0.00000000E+00
					 5.00000000E-03	 5.00000000E-03	 1.00000000E-02
					 5.00000000E-03	 1.00000000E-02	 1.00000000E-02
					 1.00000000E-02	 7.50000000E-03	 0.00000000E+00
					 1.00000000E-02	 5.00000000E-03	 5.00000000E-03
					 1.00000000E-02	 7.50000000E-03	 1.00000000E-02
					 1.00000000E-02	 1.00000000E-02	 5.00000000E-03
					 7.50000000E-03	 1.00000000E-02	 0.00000000E+00
					 7.50000000E-03	 5.00000000E-03	 0.00000000E+00
					 7.50000000E-03	 5.00000000E-03	 1.00000000E-02
					 7.50000000E-03	 1.00000000E-02	 1.00000000E-02
					 5.00000000E-03	 7.50000000E-03	 0.00000000E+00
					 5.00000000E-03	 5.00000000E-03	 5.00000000E-03
					 5.00000000E-03	 7.50000000E-03	 1.00000000E-02
					 5.00000000E-03	 1.00000000E-02	 5.00000000E-03
					 1.00000000E-02	 5.00000000E-03	 2.00000000E-02
					 1.00000000E-02	 1.00000000E-02	 2.00000000E-02
					 5.00000000E-03	 5.00000000E-03	 2.00000000E-02
					 5.00000000E-03	 1.00000000E-02	 2.00000000E-02
					 1.00000000E-02	 5.00000000E-03	 1.50000000E-02
					 1.00000000E-02	 7.50000000E-03	 2.00000000E-02
					 1.00000000E-02	 1.00000000E-02	 1.50000000E-02
					 7.50000000E-03	 5.00000000E-03	 2.00000000E-02
					 7.50000000E-03	 1.00000000E-02	 2.00000000E-02
					 5.00000000E-03	 5.00000000E-03	 1.50000000E-02
					 5.00000000E-03	 7.50000000E-03	 2.00000000E-02
					 5.00000000E-03	 1.00000000E-02	 1.50000000E-02
					 1.00000000E-02	 5.00000000E-03	 3.00000000E-02
					 1.00000000E-02	 1.00000000E-02	 3.00000000E-02
					 5.00000000E-03	 5.00000000E-03	 3.00000000E-02
					 5.00000000E-03	 1.00000000E-02	 3.00000000E-02
					 1.00000000E-02	 5.00000000E-03	 2.50000000E-02
					 1.00000000E-02	 7.50000000E-03	 3.00000000E-02
					 1.00000000E-02	 1.00000000E-02	 2.50000000E-02
					 7.50000000E-03	 5.00000000E-03	 3.00000000E-02
					 7.50000000E-03	 1.00000000E-02	 3.00000000E-02
					 5.00000000E-03	 5.00000000E-03	 2.50000000E-02
					 5.00000000E-03	 7.50000000E-03	 3.00000000E-02
					 5.00000000E-03	 1.00000000E-02	 2.50000000E-02
					 1.00000000E-02	 5.00000000E-03	 4.00000000E-02
					 1.00000000E-02	 1.00000000E-02	 4.00000000E-02
					 5.00000000E-03	 5.00000000E-03	 4.00000000E-02
					 5.00000000E-03	 1.00000000E-02	 4.00000000E-02
					 1.00000000E-02	 5.00000000E-03	 3.50000000E-02
					 1.00000000E-02	 7.50000000E-03	 4.00000000E-02
					 1.00000000E-02	 1.00000000E-02	 3.50000000E-02
					 7.50000000E-03	 5.00000000E-03	 4.00000000E-02
					 7.50000000E-03	 1.00000000E-02	 4.00000000E-02
					 5.00000000E-03	 5.00000000E-03	 3.50000000E-02
					 5.00000000E-03	 7.50000000E-03	 4.00000000E-02
					 5.00000000E-03	 1.00000000E-02	 3.50000000E-02
					 1.00000000E-02	 5.00000000E-03	 5.00000000E-02
					 1.00000000E-02	 1.00000000E-02	 5.00000000E-02
					 5.00000000E-03	 5.00000000E-03	 5.00000000E-02
					 5.00000000E-03	 1.00000000E-02	 5.00000000E-02
					 1.00000000E-02	 5.00000000E-03	 4.50000000E-02
					 1.00000000E-02	 7.50000000E-03	 5.00000000E-02
					 1.00000000E-02	 1.00000000E-02	 4.50000000E-02
					 7.50000000E-03	 5.00000000E-03	 5.00000000E-02
					 7.50000000E-03	 1.00000000E-02	 5.00000000E-02
					 5.00000000E-03	 5.00000000E-03	 4.50000000E-02
					 5.00000000E-03	 7.50000000E-03	 5.00000000E-02
					 5.00000000E-03	 1.00000000E-02	 4.50000000E-02
					 1.00000000E-02	 5.00000000E-03	 6.00000000E-02
					 1.00000000E-02	 1.00000000E-02	 6.00000000E-02
					 5.00000000E-03	 5.00000000E-03	 6.00000000E-02
					 5.00000000E-03	 1.00000000E-02	 6.00000000E-02
					 1.00000000E-02	 5.00000000E-03	 5.50000000E-02
					 1.00000000E-02	 7.50000000E-03	 6.00000000E-02
					 1.00000000E-02	 1.00000000E-02	 5.50000000E-02
					 7.50000000E-03	 5.00000000E-03	 6.00000000E-02
					 7.50000000E-03	 1.00000000E-02	 6.00000000E-02
					 5.00000000E-03	 5.00000000E-03	 5.50000000E-02
					 5.00000000E-03	 7.50000000E-03	 6.00000000E-02
					 5.00000000E-03	 1.00000000E-02	 5.50000000E-02
					 1.00000000E-02	 5.00000000E-03	 7.00000000E-02
					 1.00000000E-02	 1.00000000E-02	 7.00000000E-02
					 5.00000000E-03	 5.00000000E-03	 7.00000000E-02
					 5.00000000E-03	 1.00000000E-02	 7.00000000E-02
					 1.00000000E-02	 5.00000000E-03	 6.50000000E-02
					 1.00000000E-02	 7.50000000E-03	 7.00000000E-02
					 1.00000000E-02	 1.00000000E-02	 6.50000000E-02
					 7.50000000E-03	 5.00000000E-03	 7.00000000E-02
					 7.50000000E-03	 1.00000000E-02	 7.00000000E-02
					 5.00000000E-03	 5.00000000E-03	 6.50000000E-02
					 5.00000000E-03	 7.50000000E-03	 7.00000000E-02
					 5.00000000E-03	 1.00000000E-02	 6.50000000E-02
					 1.00000000E-02	 5.00000000E-03	 8.00000000E-02
					 1.00000000E-02	 1.00000000E-02	 8.00000000E-02
					 5.00000000E-03	 5.00000000E-03	 8.00000000E-02
					 5.00000000E-03	 1.00000000E-02	 8.00000000E-02
					 1.00000000E-02	 5.00000000E-03	 7.50000000E-02
					 1.00000000E-02	 7.50000000E-03	 8.00000000E-02
					 1.00000000E-02	 1.00000000E-02	 7.50000000E-02
					 7.50000000E-03	 5.00000000E-03	 8.00000000E-02
					 7.50000000E-03	 1.00000000E-02	 8.00000000E-02
					 5.00000000E-03	 5.00000000E-03	 7.50000000E-02
					 5.00000000E-03	 7.50000000E-03	 8.00000000E-02
					 5.00000000E-03	 1.00000000E-02	 7.50000000E-02
					 1.00000000E-02	 5.00000000E-03	 9.00000000E-02
					 1.00000000E-02	 1.00000000E-02	 9.00000000E-02
					 5.00000000E-03	 5.00000000E-03	 9.00000000E-02
					 5.00000000E-03	 1.00000000E-02	 9.00000000E-02
					 1.00000000E-02	 5.00000000E-03	 8.50000000E-02
					 1.00000000E-02	 7.50000000E-03	 9.00000000E-02
					 1.00000000E-02	 1.00000000E-02	 8.50000000E-02
					 7.50000000E-03	 5.00000000E-03	 9.00000000E-02
					 7.50000000E-03	 1.00000000E-02	 9.00000000E-02
					 5.00000000E-03	 5.00000000E-03	 8.50000000E-02
					 5.00000000E-03	 7.50000000E-03	 9.00000000E-02
					 5.00000000E-03	 1.00000000E-02	 8.50000000E-02
					 1.00000000E-02	 5.00000000E-03	 1.00000000E-01
					 1.00000000E-02	 1.00000000E-02	 1.00000000E-01
					 5.00000000E-03	 5.00000000E-03	 1.00000000E-01
					 5.00000000E-03	 1.00000000E-02	 1.00000000E-01
					 1.00000000E-02	 5.00000000E-03	 9.50000000E-02
					 1.00000000E-02	 7.50000000E-03	 1.00000000E-01
					 1.00000000E-02	 1.00000000E-02	 9.50000000E-02
					 7.50000000E-03	 5.00000000E-03	 1.00000000E-01
					 7.50000000E-03	 1.00000000E-02	 1.00000000E-01
					 5.00000000E-03	 5.00000000E-03	 9.50000000E-02
					 5.00000000E-03	 7.50000000E-03	 1.00000000E-01
					 5.00000000E-03	 1.00000000E-02	 9.50000000E-02
					 0.00000000E+00	 1.00000000E-02	 0.00000000E+00
					 0.00000000E+00	 5.00000000E-03	 0.00000000E+00
					 0.00000000E+00	 5.00000000E-03	 1.00000000E-02
					 0.00000000E+00	 1.00000000E-02	 1.00000000E-02
					 2.50000000E-03	 1.00000000E-02	 0.00000000E+00
					 2.50000000E-03	 5.00000000E-03	 0.00000000E+00
					 2.50000000E-03	 5.00000000E-03	 1.00000000E-02
					 2.50000000E-03	 1.00000000E-02	 1.00000000E-02
					 0.00000000E+00	 7.50000000E-03	 0.00000000E+00
					 0.00000000E+00	 5.00000000E-03	 5.00000000E-03
					 0.00000000E+00	 7.50000000E-03	 1.00000000E-02
					 0.00000000E+00	 1.00000000E-02	 5.00000000E-03
					 0.00000000E+00	 5.00000000E-03	 2.00000000E-02
					 0.00000000E+00	 1.00000000E-02	 2.00000000E-02
					 2.50000000E-03	 5.00000000E-03	 2.00000000E-02
					 2.50000000E-03	 1.00000000E-02	 2.00000000E-02
					 0.00000000E+00	 5.00000000E-03	 1.50000000E-02
					 0.00000000E+00	 7.50000000E-03	 2.00000000E-02
					 0.00000000E+00	 1.00000000E-02	 1.50000000E-02
					 0.00000000E+00	 5.00000000E-03	 3.00000000E-02
					 0.00000000E+00	 1.00000000E-02	 3.00000000E-02
					 2.50000000E-03	 5.00000000E-03	 3.00000000E-02
					 2.50000000E-03	 1.00000000E-02	 3.00000000E-02
					 0.00000000E+00	 5.00000000E-03	 2.50000000E-02
					 0.00000000E+00	 7.50000000E-03	 3.00000000E-02
					 0.00000000E+00	 1.00000000E-02	 2.50000000E-02
					 0.00000000E+00	 5.00000000E-03	 4.00000000E-02
					 0.00000000E+00	 1.00000000E-02	 4.00000000E-02
					 2.50000000E-03	 5.00000000E-03	 4.00000000E-02
					 2.50000000E-03	 1.00000000E-02	 4.00000000E-02
					 0.00000000E+00	 5.00000000E-03	 3.50000000E-02
					 0.00000000E+00	 7.50000000E-03	 4.00000000E-02
					 0.00000000E+00	 1.00000000E-02	 3.50000000E-02
					 0.00000000E+00	 5.00000000E-03	 5.00000000E-02
					 0.00000000E+00	 1.00000000E-02	 5.00000000E-02
					 2.50000000E-03	 5.00000000E-03	 5.00000000E-02
					 2.50000000E-03	 1.00000000E-02	 5.00000000E-02
					 0.00000000E+00	 5.00000000E-03	 4.50000000E-02
					 0.00000000E+00	 7.50000000E-03	 5.00000000E-02
					 0.00000000E+00	 1.00000000E-02	 4.50000000E-02
					 0.00000000E+00	 5.00000000E-03	 6.00000000E-02
					 0.00000000E+00	 1.00000000E-02	 6.00000000E-02
					 2.50000000E-03	 5.00000000E-03	 6.00000000E-02
					 2.50000000E-03	 1.00000000E-02	 6.00000000E-02
					 0.00000000E+00	 5.00000000E-03	 5.50000000E-02
					 0.00000000E+00	 7.50000000E-03	 6.00000000E-02
					 0.00000000E+00	 1.00000000E-02	 5.50000000E-02
					 0.00000000E+00	 5.00000000E-03	 7.00000000E-02
					 0.00000000E+00	 1.00000000E-02	 7.00000000E-02
					 2.50000000E-03	 5.00000000E-03	 7.00000000E-02
					 2.50000000E-03	 1.00000000E-02	 7.00000000E-02
					 0.00000000E+00	 5.00000000E-03	 6.50000000E-02
					 0.00000000E+00	 7.50000000E-03	 7.00000000E-02
					 0.00000000E+00	 1.00000000E-02	 6.50000000E-02
					 0.00000000E+00	 5.00000000E-03	 8.00000000E-02
					 0.00000000E+00	 1.00000000E-02	 8.00000000E-02
[...]
			<PointData>
				<DataArray type="Float32" Name="U" NumberOfComponents="3" ComponentName0="D1" ComponentName1="D2" ComponentName2="D3" format="ascii">
					 0.00000000E+00	 0.00000000E+00	 0.00000000E+00
					 0.00000000E+00	 0.00000000E+00	 0.00000000E+00
					-6.62600000E-01	-4.37659000E+00	 1.78330000E-01
					-4.18939000E-01	-4.18328000E+00	 1.19062000E+00
					 0.00000000E+00	 0.00000000E+00	 0.00000000E+00
					 0.00000000E+00	 0.00000000E+00	 0.00000000E+00
					-6.87555000E-01	-4.26800000E+00	 2.26485000E-14
					-7.05048000E-01	-4.11309000E+00	 1.10698000E+00
					 0.00000000E+00	 0.00000000E+00	 0.00000000E+00
					-3.29762000E-01	-1.92320000E+00	 1.78160000E-01
					-5.38667000E-01	-4.29601000E+00	 4.77003000E-01
					-4.87167000E-01	-2.01171000E+00	 1.24694000E+00
					 0.00000000E+00	 0.00000000E+00	 0.00000000E+00
					 0.00000000E+00	 0.00000000E+00	 0.00000000E+00
					-6.77609000E-01	-4.30513000E+00	 5.97074000E-02
					-5.63826000E-01	-4.13054000E+00	 1.15772000E+00
					 0.00000000E+00	 0.00000000E+00	 0.00000000E+00
					-3.17316000E-01	-1.96974000E+00	 8.63198000E-15
					-6.93536000E-01	-4.20626000E+00	 3.70634000E-01
					-3.09819000E-01	-2.04700000E+00	 1.10593000E+00
					-6.46600000E-01	-4.36610000E+00	-2.69249000E-01
					-2.93118000E-01	-4.14278000E+00	-1.90210000E+00
					-6.76097000E-01	-4.19688000E+00	 5.06262000E-14
					-7.03359000E-01	-4.01378000E+00	-1.67137000E+00
					-8.16511000E-01	-5.40547000E+00	-3.00441000E-02
					-4.71253000E-01	-4.31712000E+00	-9.88000000E-01
					-4.29239000E-01	-5.21521000E+00	-2.33059000E-01
					-6.72015000E-01	-4.22699000E+00	-1.21290000E-01
					-5.08975000E-01	-4.01583000E+00	-1.79592000E+00
					-8.40525000E-01	-5.21757000E+00	 3.95239000E-14
					-6.80948000E-01	-4.17154000E+00	-7.52907000E-01
					-8.70796000E-01	-5.06850000E+00	-1.86499000E-01
					 2.92469000E-01	 2.03269000E+00	-3.75432000E-01
					 7.86778000E-02	 1.89467000E+00	-2.63812000E+00
					 3.10443000E-01	 1.92708000E+00	 6.52811000E-14
					 3.27456000E-01	 1.81550000E+00	-2.33050000E+00
					-2.16059000E-01	-1.42647000E+00	-3.99792000E-01
					 1.84823000E-01	 1.99844000E+00	-1.35315000E+00
					-1.24264000E-01	-1.37719000E+00	-2.80197000E+00
					 3.07292000E-01	 1.94851000E+00	-1.66925000E-01
					 2.08804000E-01	 1.82026000E+00	-2.49678000E+00
					-2.22700000E-01	-1.38241000E+00	 6.35048000E-14
					 3.13895000E-01	 1.90752000E+00	-1.03619000E+00
					-2.29797000E-01	-1.34119000E+00	-2.48171000E+00
					 6.96672000E-01	 4.79053000E+00	 1.00810000E-01
					 2.36964000E-01	 4.49240000E+00	 7.05734000E-01
					 7.35373000E-01	 4.56484000E+00	 6.66134000E-14
					 7.71731000E-01	 4.32460000E+00	 6.25781000E-01
					 6.51659000E-01	 4.44260000E+00	-1.71074000E-01
					 4.63734000E-01	 4.71259000E+00	 3.56379000E-01
					 2.38053000E-01	 4.20174000E+00	-1.19795000E+00
					 7.27944000E-01	 4.61234000E+00	 4.40423000E-02
					 5.16090000E-01	 4.33706000E+00	 6.69368000E-01
					 6.82121000E-01	 4.23427000E+00	 6.35048000E-14
					 7.43026000E-01	 4.51872000E+00	 2.73393000E-01
					 7.15682000E-01	 4.04518000E+00	-1.06195000E+00
					-6.80620000E-02	-4.61165000E-01	 3.99392000E-01
					-2.94190000E-02	-4.36494000E-01	 2.80147000E+00
					-7.12912000E-02	-4.42541000E-01	 5.14033000E-14
					-7.42916000E-02	-4.22495000E-01	 2.47923000E+00
					 4.13097000E-01	 2.81293000E+00	 3.18427000E-01
					-4.85239000E-02	-4.54827000E-01	 1.42546000E+00
					 1.53686000E-01	 2.66230000E+00	 2.22425000E+00
					-7.06866000E-02	-4.46372000E-01	 1.75990000E-01
					-5.28620000E-02	-4.23481000E-01	 2.65482000E+00
					 4.32112000E-01	 2.68234000E+00	 6.83897000E-14
					-7.19084000E-02	-4.38787000E-01	 1.09246000E+00
					 4.53150000E-01	 2.56430000E+00	 1.97664000E+00
					-7.32340000E-01	-5.01595000E+00	 3.90720000E-02
					-2.66910000E-01	-4.71584000E+00	 2.75500000E-01
					-7.71426000E-01	-4.78863000E+00	 2.66454000E-14
					-8.08046000E-01	-4.54600000E+00	 2.42539000E-01
					-5.20677000E-01	-3.53051000E+00	 2.77713000E-01
					-4.97028000E-01	-4.93873000E+00	 1.43012000E-01
					-2.07717000E-01	-3.35050000E+00	 1.94108000E+00
					-7.64109000E-01	-4.83584000E+00	 1.76066000E-02
					-5.49565000E-01	-4.55782000E+00	 2.60258000E-01
					-5.43472000E-01	-3.37361000E+00	 3.37508000E-14
					-7.79031000E-01	-4.74321000E+00	 1.09293000E-01
					-5.68748000E-01	-3.23211000E+00	 1.72391000E+00
					-2.07764000E-01	-1.39971000E+00	-3.74429000E-01
					-9.70504000E-02	-1.32984000E+00	-2.62169000E+00
					-2.16984000E-01	-1.34693000E+00	-5.21805000E-15
					-2.25487000E-01	-1.28970000E+00	-2.32427000E+00
					-6.08971000E-01	-4.12165000E+00	-2.16295000E-01
					-1.52082000E-01	-1.38255000E+00	-1.32408000E+00
					-2.49889000E-01	-3.91612000E+00	-1.50860000E+00
					-2.15381000E-01	-1.35736000E+00	-1.63628000E-01
					-1.64258000E-01	-1.29202000E+00	-2.48711000E+00
					-6.35030000E-01	-3.94195000E+00	 1.32117000E-14
					-2.18665000E-01	-1.33698000E+00	-1.01572000E+00
					-6.63978000E-01	-3.78019000E+00	-1.34265000E+00
					 6.06882000E-01	 4.24182000E+00	-1.32596000E-01
					 1.44619000E-01	 3.93694000E+00	-9.15685000E-01
					 6.46149000E-01	 4.01098000E+00	-5.10703000E-14
					 6.83337000E-01	 3.76722000E+00	-8.23089000E-01
					 2.76285000E-01	 1.92040000E+00	-3.32164000E-01
					 3.72196000E-01	 4.16073000E+00	-4.38802000E-01
					 6.60539000E-02	 1.79441000E+00	-2.31244000E+00
					 6.38450000E-01	 4.06046000E+00	-5.46688000E-02
					 4.25538000E-01	 3.78044000E+00	-8.75555000E-01
					 2.92064000E-01	 1.81299000E+00	-3.15303000E-14
					 6.54120000E-01	 3.96318000E+00	-3.39357000E-01
					 3.09367000E-01	 1.71504000E+00	-2.06191000E+00
					 2.67527000E-01	 2.06366000E+00	 4.38733000E-01
					-1.09097000E-01	 1.80096000E+00	 3.11695000E+00
					 3.00152000E-01	 1.86319000E+00	-6.72795000E-14
					 3.32446000E-01	 1.66068000E+00	 2.72344000E+00
					 6.16237000E-01	 4.31532000E+00	 1.64626000E-01
					 7.24746000E-02	 1.98600000E+00	 1.67638000E+00
					 1.19956000E-01	 4.01156000E+00	 1.17400000E+00
					 2.92618000E-01	 1.91092000E+00	 2.05677000E-01
					 1.20023000E-01	 1.67642000E+00	 2.93000000E+00
					 6.54107000E-01	 4.06037000E+00	-7.10543000E-14
					 3.07840000E-01	 1.81643000E+00	 1.27674000E+00
					 6.95177000E-01	 3.82530000E+00	 1.02192000E+00
					-9.72393000E-01	-5.96033000E+00	 6.24765000E-01
					-9.72721000E-01	-6.00976000E+00	 4.44798000E+00
					-9.66696000E-01	-6.00077000E+00	-7.94920000E-14
					-9.60181000E-01	-6.03614000E+00	 3.87823000E+00
					-3.22582000E-01	-1.81775000E+00	 5.82763000E-01
					-9.70457000E-01	-5.99211000E+00	 2.48884000E+00
					-4.87935000E-01	-1.93853000E+00	 4.14415000E+00
					-9.70927000E-01	-5.97794000E+00	 3.06496000E-01
					-9.72143000E-01	-6.01997000E+00	 4.17297000E+00
					-3.08120000E-01	-1.91266000E+00	-9.63674000E-14
					-9.63018000E-01	-6.02704000E+00	 1.90258000E+00
					-2.92831000E-01	-2.00243000E+00	 3.61750000E+00
					 0.00000000E+00	 0.00000000E+00	 0.00000000E+00
					 0.00000000E+00	 0.00000000E+00	 0.00000000E+00
					-6.62600000E-01	-4.37659000E+00	-1.78330000E-01
					-9.42461000E-01	-4.26762000E+00	 8.60240000E-01
					 0.00000000E+00	 0.00000000E+00	 0.00000000E+00
					 0.00000000E+00	 0.00000000E+00	 0.00000000E+00
					-6.77609000E-01	-4.30513000E+00	-5.97074000E-02
					-8.27143000E-01	-4.17246000E+00	 1.06163000E+00
					 0.00000000E+00	 0.00000000E+00	 0.00000000E+00
					-3.29762000E-01	-1.92320000E+00	-1.78160000E-01
					-7.98907000E-01	-4.33843000E+00	 1.19475000E-01
					-1.52295000E-01	-1.95776000E+00	 9.00927000E-01
					-6.46600000E-01	-4.36610000E+00	 2.69249000E-01
					-1.06159000E+00	-4.26657000E+00	-1.37429000E+00
					-6.72015000E-01	-4.22699000E+00	 1.21290000E-01
					-8.91898000E-01	-4.07394000E+00	-1.56482000E+00
					-8.16511000E-01	-5.40547000E+00	 3.00441000E-02
					-8.31972000E-01	-4.37881000E+00	-4.46601000E-01
					-1.27295000E+00	-5.35113000E+00	-1.68388000E-01
					 2.92469000E-01	 2.03269000E+00	 3.75432000E-01
					 5.43840000E-01	 1.96961000E+00	-1.90607000E+00
					 3.07292000E-01	 1.94851000E+00	 1.66925000E-01
					 4.41105000E-01	 1.85612000E+00	-2.18224000E+00
					-2.16059000E-01	-1.42647000E+00	 3.99792000E-01
					 4.07425000E-01	 2.03587000E+00	-5.99382000E-01
					-3.24654000E-01	-1.40947000E+00	-2.02446000E+00
					 6.96672000E-01	 4.79053000E+00	-1.00810000E-01
					 1.23638000E+00	 4.65340000E+00	 5.09901000E-01
					 7.27944000E-01	 4.61234000E+00	-4.40423000E-02
					 1.01522000E+00	 4.41477000E+00	 5.87155000E-01
					 6.51659000E-01	 4.44260000E+00	 1.71074000E-01
					 9.46145000E-01	 4.79300000E+00	 1.53959000E-01
					 1.13909000E+00	 4.34690000E+00	-8.65534000E-01
					-6.80620000E-02	-4.61165000E-01	-3.99392000E-01
					-1.13395000E-01	-4.50022000E-01	 2.02410000E+00
					-7.06866000E-02	-4.46372000E-01	-1.75990000E-01
					-9.47663000E-02	-4.29996000E-01	 2.32478000E+00
					 4.13097000E-01	 2.81293000E+00	-3.18427000E-01
					-8.89671000E-02	-4.61577000E-01	 6.23267000E-01
					 7.18746000E-01	 2.75333000E+00	 1.60705000E+00
					-7.32340000E-01	-5.01595000E+00	-3.90720000E-02
					-1.27875000E+00	-4.87884000E+00	 1.99052000E-01
					-7.64109000E-01	-4.83584000E+00	-1.76066000E-02
					-1.05476000E+00	-4.63629000E+00	 2.26822000E-01
					-5.20677000E-01	-3.53051000E+00	-2.77713000E-01
					-9.84099000E-01	-5.02011000E+00	 6.45455000E-02
					-8.89474000E-01	-3.46032000E+00	 1.40245000E+00
					-2.07764000E-01	-1.39971000E+00	 3.74429000E-01
					-3.37657000E-01	-1.36860000E+00	-1.89420000E+00
					-2.15381000E-01	-1.35736000E+00	 1.63628000E-01
					-2.84301000E-01	-1.31056000E+00	-2.18166000E+00
					-6.08971000E-01	-4.12165000E+00	 2.16295000E-01
					-2.67181000E-01	-1.40189000E+00	-5.71960000E-01
					-1.03215000E+00	-4.04214000E+00	-1.08998000E+00
					 6.06882000E-01	 4.24182000E+00	 1.32596000E-01
					 1.14991000E+00	 4.09888000E+00	-6.61593000E-01
					 6.38450000E-01	 4.06046000E+00	 5.46688000E-02
					 9.28053000E-01	 3.85877000E+00	-7.77065000E-01
					 2.76285000E-01	 1.92040000E+00	 3.32164000E-01
					 8.58445000E-01	 4.24169000E+00	-1.72573000E-01
					 5.23971000E-01	 1.86818000E+00	-1.67077000E+00
					 2.67527000E-01	 2.06366000E+00	-4.38733000E-01
					 7.10624000E-01	 1.93302000E+00	 2.25203000E+00
					 2.92618000E-01	 1.91092000E+00	-2.05677000E-01
					 5.30499000E-01	 1.74178000E+00	 2.53163000E+00
					 6.16237000E-01	 4.31532000E+00	-1.64626000E-01
					 4.78181000E-01	 2.05212000E+00	 7.96535000E-01
					 1.20058000E+00	 4.18565000E+00	 8.48230000E-01
					-9.72393000E-01	-5.96033000E+00	-6.24765000E-01
					-9.63321000E-01	-6.00824000E+00	 3.21371000E+00
					-9.70927000E-01	-5.97794000E+00	-3.06496000E-01
					-9.58093000E-01	-6.01975000E+00	 3.57208000E+00
					-3.22582000E-01	-1.81775000E+00	-5.82763000E-01
					-9.69086000E-01	-5.98985000E+00	 1.24115000E+00
					-1.27280000E-01	-1.88043000E+00	 2.99420000E+00
					 0.00000000E+00	 0.00000000E+00	 0.00000000E+00
					-9.42461000E-01	-4.26762000E+00	-8.60240000E-01
					 0.00000000E+00	 0.00000000E+00	 0.00000000E+00
					-7.05048000E-01	-4.11309000E+00	-1.10698000E+00
					 0.00000000E+00	 0.00000000E+00	 0.00000000E+00
					-1.52295000E-01	-1.95776000E+00	-9.00927000E-01
					-7.98907000E-01	-4.33843000E+00	-1.19475000E-01
					 0.00000000E+00	 0.00000000E+00	 0.00000000E+00
					-8.27143000E-01	-4.17246000E+00	-1.06163000E+00
					 0.00000000E+00	 0.00000000E+00	 0.00000000E+00
					-3.09819000E-01	-2.04700000E+00	-1.10593000E+00
					-6.93536000E-01	-4.20626000E+00	-3.70634000E-01
					-1.06159000E+00	-4.26657000E+00	 1.37429000E+00
					-7.03359000E-01	-4.01378000E+00	 1.67137000E+00
					-1.27295000E+00	-5.35113000E+00	 1.68388000E-01
					-8.31972000E-01	-4.37881000E+00	 4.46601000E-01
					-8.91898000E-01	-4.07394000E+00	 1.56482000E+00
					-8.70796000E-01	-5.06850000E+00	 1.86499000E-01
					-6.80948000E-01	-4.17154000E+00	 7.52907000E-01
					 5.43840000E-01	 1.96961000E+00	 1.90607000E+00
					 3.27456000E-01	 1.81550000E+00	 2.33050000E+00
					-3.24654000E-01	-1.40947000E+00	 2.02446000E+00
					 4.07425000E-01	 2.03587000E+00	 5.99382000E-01
					 4.41105000E-01	 1.85612000E+00	 2.18224000E+00
					-2.29797000E-01	-1.34119000E+00	 2.48171000E+00
					 3.13895000E-01	 1.90752000E+00	 1.03619000E+00
					 1.23638000E+00	 4.65340000E+00	-5.09901000E-01
					 7.71731000E-01	 4.32460000E+00	-6.25781000E-01
					 1.13909000E+00	 4.34690000E+00	 8.65534000E-01
					 9.46145000E-01	 4.79300000E+00	-1.53959000E-01
					 1.01522000E+00	 4.41477000E+00	-5.87155000E-01
					 7.15682000E-01	 4.04518000E+00	 1.06195000E+00
					 7.43026000E-01	 4.51872000E+00	-2.73393000E-01
					-1.13395000E-01	-4.50022000E-01	-2.02410000E+00
					-7.42916000E-02	-4.22495000E-01	-2.47923000E+00
					 7.18746000E-01	 2.75333000E+00	-1.60705000E+00
					-8.89671000E-02	-4.61577000E-01	-6.23267000E-01
					-9.47663000E-02	-4.29996000E-01	-2.32478000E+00
					 4.53150000E-01	 2.56430000E+00	-1.97664000E+00
					-7.19084000E-02	-4.38787000E-01	-1.09246000E+00
					-1.27875000E+00	-4.87884000E+00	-1.99052000E-01
					-8.08046000E-01	-4.54600000E+00	-2.42539000E-01
					-8.89474000E-01	-3.46032000E+00	-1.40245000E+00
					-9.84099000E-01	-5.02011000E+00	-6.45455000E-02
					-1.05476000E+00	-4.63629000E+00	-2.26822000E-01
					-5.68748000E-01	-3.23211000E+00	-1.72391000E+00
					-7.79031000E-01	-4.74321000E+00	-1.09293000E-01
					-3.37657000E-01	-1.36860000E+00	 1.89420000E+00
					-2.25487000E-01	-1.28970000E+00	 2.32427000E+00
					-1.03215000E+00	-4.04214000E+00	 1.08998000E+00
					-2.67181000E-01	-1.40189000E+00	 5.71960000E-01
					-2.84301000E-01	-1.31056000E+00	 2.18166000E+00
					-6.63978000E-01	-3.78019000E+00	 1.34265000E+00
					-2.18665000E-01	-1.33698000E+00	 1.01572000E+00
					 1.14991000E+00	 4.09888000E+00	 6.61593000E-01
					 6.83337000E-01	 3.76722000E+00	 8.23089000E-01
					 5.23971000E-01	 1.86818000E+00	 1.67077000E+00
					 8.58445000E-01	 4.24169000E+00	 1.72573000E-01
					 9.28053000E-01	 3.85877000E+00	 7.77065000E-01
					 3.09367000E-01	 1.71504000E+00	 2.06191000E+00
					 6.54120000E-01	 3.96318000E+00	 3.39357000E-01
					 7.10624000E-01	 1.93302000E+00	-2.25203000E+00
					 3.32446000E-01	 1.66068000E+00	-2.72344000E+00
					 1.20058000E+00	 4.18565000E+00	-8.48230000E-01
					 4.78181000E-01	 2.05212000E+00	-7.96535000E-01
					 5.30499000E-01	 1.74178000E+00	-2.53163000E+00
					 6.95177000E-01	 3.82530000E+00	-1.02192000E+00
					 3.07840000E-01	 1.81643000E+00	-1.27674000E+00
					-9.63321000E-01	-6.00824000E+00	-3.21371000E+00
					-9.60181000E-01	-6.03614000E+00	-3.87823000E+00
					-1.27280000E-01	-1.88043000E+00	-2.99420000E+00
					-9.69086000E-01	-5.98985000E+00	-1.24115000E+00
					-9.58093000E-01	-6.01975000E+00	-3.57208000E+00
					-2.92831000E-01	-2.00243000E+00	-3.61750000E+00
					-9.63018000E-01	-6.02704000E+00	-1.90258000E+00
					 0.00000000E+00	 0.00000000E+00	 0.00000000E+00
					-4.18939000E-01	-4.18328000E+00	-1.19062000E+00
					 0.00000000E+00	 0.00000000E+00	 0.00000000E+00
					-5.63826000E-01	-4.13054000E+00	-1.15772000E+00
					 0.00000000E+00	 0.00000000E+00	 0.00000000E+00
					-4.87167000E-01	-2.01171000E+00	-1.24694000E+00
					-5.38667000E-01	-4.29601000E+00	-4.77003000E-01
					-2.93118000E-01	-4.14278000E+00	 1.90210000E+00
					-5.08975000E-01	-4.01583000E+00	 1.79592000E+00
					-4.29239000E-01	-5.21521000E+00	 2.33059000E-01
					-4.71253000E-01	-4.31712000E+00	 9.88000000E-01
					 7.86778000E-02	 1.89467000E+00	 2.63812000E+00
					 2.08804000E-01	 1.82026000E+00	 2.49678000E+00
					-1.24264000E-01	-1.37719000E+00	 2.80197000E+00
					 1.84823000E-01	 1.99844000E+00	 1.35315000E+00
					 2.36964000E-01	 4.49240000E+00	-7.05734000E-01
					 5.16090000E-01	 4.33706000E+00	-6.69368000E-01
					 2.38053000E-01	 4.20174000E+00	 1.19795000E+00
					 4.63734000E-01	 4.71259000E+00	-3.56379000E-01
					-2.94190000E-02	-4.36494000E-01	-2.80147000E+00
					-5.28620000E-02	-4.23481000E-01	-2.65482000E+00
					 1.53686000E-01	 2.66230000E+00	-2.22425000E+00
					-4.85239000E-02	-4.54827000E-01	-1.42546000E+00
					-2.66910000E-01	-4.71584000E+00	-2.75500000E-01
					-5.49565000E-01	-4.55782000E+00	-2.60258000E-01
					-2.07717000E-01	-3.35050000E+00	-1.94108000E+00
					-4.97028000E-01	-4.93873000E+00	-1.43012000E-01
					-9.70504000E-02	-1.32984000E+00	 2.62169000E+00
					-1.64258000E-01	-1.29202000E+00	 2.48711000E+00
					-2.49889000E-01	-3.91612000E+00	 1.50860000E+00
					-1.52082000E-01	-1.38255000E+00	 1.32408000E+00
					 1.44619000E-01	 3.93694000E+00	 9.15685000E-01
					 4.25538000E-01	 3.78044000E+00	 8.75555000E-01
					 6.60539000E-02	 1.79441000E+00	 2.31244000E+00
					 3.72196000E-01	 4.16073000E+00	 4.38802000E-01
					-1.09097000E-01	 1.80096000E+00	-3.11695000E+00
					 1.20023000E-01	 1.67642000E+00	-2.93000000E+00
					 1.19956000E-01	 4.01156000E+00	-1.17400000E+00
					 7.24746000E-02	 1.98600000E+00	-1.67638000E+00
					-9.72721000E-01	-6.00976000E+00	-4.44798000E+00
					-9.72143000E-01	-6.01997000E+00	-4.17297000E+00
					-4.87935000E-01	-1.93853000E+00	-4.14415000E+00
					-9.70457000E-01	-5.99211000E+00	-2.48884000E+00
				</DataArray>
				<DataArray type="Float32" Name="S" NumberOfComponents="10" ComponentName0="xx" ComponentName1="yy" ComponentName2="zz" ComponentName3="xy" ComponentName4="yz" ComponentName5="zx" ComponentName6="Mises" ComponentName7="Min Principal" ComponentName8="Mid Principal" ComponentName9="Max Principal" format="ascii">
					 4.60036000E+13	 4.60036000E+13	 1.07342000E+14	-1.00121000E+06	-3.12048000E+13	-1.23554000E+13	 8.45079030E+13	 3.12085796E+13	 4.60036007E+13	 1.22137020E+14
					 6.47339000E+12	 6.47339000E+12	 1.51046000E+13	-1.80086000E+06	-2.67840000E+13	-5.30196000E+12	 4.80726335E+13	-1.68536877E+13	 6.47339069E+12	 3.84316770E+13
					-3.96644000E+11	-1.51440000E+11	-6.08186000E+12	 1.31567000E+12	-3.59132000E+13	-4.67380000E+11	 6.25211799E+13	-3.91597898E+13	-4.38361853E+11	 3.29682076E+13
					-1.50639000E+12	-2.66360000E+12	-4.34386000E+13	 1.52614000E+12	-5.25944000E+12	 2.89440000E+12	 4.27344134E+13	-4.43254128E+13	-2.84176075E+12	-4.41416444E+11
					 4.01836000E+13	 4.01836000E+13	 9.37617000E+13	-2.90110000E+05	-3.29120000E+13	-4.31478000E+12	 7.85879381E+13	 2.43174009E+13	 4.01836001E+13	 1.09627899E+14
					 1.31632000E-01	 1.38962000E-01	 3.32298000E-01	-5.02384000E-03	-2.91646000E+13	-4.69827000E+12	 5.11658373E+13	-2.95406099E+13	 1.33613872E-01	 2.95406099E+13
					-1.67969000E-01	-3.90991000E-01	 6.02173000E-01	 2.20657000E-01	-2.94490000E+13	-4.74409000E+12	 5.16647846E+13	-2.98286773E+13	-2.41687582E-01	 2.98286773E+13
					-9.40063000E+11	-2.46217000E+12	-3.77532000E+13	 2.11949000E+11	-2.90126000E+12	-5.78544000E+12	 3.77795047E+13	-3.88619656E+13	-2.41851113E+12	 1.25043770E+11
					 2.37251000E+13	 2.37251000E+13	 5.53588000E+13	-2.26545000E+07	-2.91261000E+13	-8.81200000E+12	 6.14705955E+13	 5.24684221E+12	 2.37251126E+13	 7.38370452E+13
					 1.09557000E+12	 4.70784000E+11	 4.21492000E+12	-2.53236000E+12	-2.49315000E+13	-1.52224000E+12	 4.36233755E+13	-2.30059062E+13	 1.42855293E+12	 2.73586273E+13
					 6.48730000E+11	 1.60877000E+12	-2.23504000E+13	 1.36132000E+12	-2.07204000E+13	 8.10063000E+11	 4.29824947E+13	-3.43595774E+13	 6.56900286E+11	 1.36097771E+13
					 3.23981000E+12	 7.03067000E+12	 2.80848000E+13	-2.61067000E+12	-9.82107000E+12	-1.39425000E+12	 2.92078604E+13	 2.58179589E+11	 6.13833356E+12	 3.19587669E+13
					 4.32020000E+13	 4.32021000E+13	 1.00805000E+14	-1.44252000E+07	-3.19177000E+13	-8.35019000E+12	 8.11387428E+13	 2.82086902E+13	 4.32020135E+13	 1.15798396E+14
					 2.87984000E+12	 2.87984000E+12	 6.71965000E+12	-1.19659000E+07	-2.78374000E+13	-5.02085000E+12	 4.91440074E+13	-2.35519028E+13	 2.87984418E+12	 3.31513887E+13
					 2.98727000E+11	 1.77820000E+11	-2.67582000E+12	 3.48063000E+11	-3.17598000E+13	-2.64898000E+12	 5.52808495E+13	-3.31248617E+13	 2.39873002E+11	 3.06857157E+13