<?xml version="1.0"?>
<VTKFile type="UnstructuredGrid" version="0.1" byte_order="LittleEndian">
	<UnstructuredGrid>
		<Piece NumberOfPoints="321" NumberOfCells="40">
			<Points>
				<DataArray type="Float64" NumberOfComponents="3" format="ascii">
					 1.00000000E-02	 1.00000000E-02	 0.00000000E+00
					 1.00000000E-02	 5.00000000E-03	 0.00000000E+00
					 1.00000000E-02	 5.00000000E-03	 1.00000000E-02
					 1.00000000E-02	 1.00000000E-02	 1.00000000E-02
					 5.00000000E-03	 1.00000000E-02	 0.00000000E+00
					 5.00000000E-03	 5.00000000E-03	 0.00000000E+00
					 5.00000000E-03	 5.00000000E-03	 1.00000000E-02
					 5.00000000E-03	 1.00000000E-02	 1.00000000E-02
					 1.00000000E-02	 7.50000000E-03	 0.00000000E+00
					 1.00000000E-02	 5.00000000E-03	 5.00000000E-03
					 1.00000000E-02	 7.50000000E-03	 1.00000000E-02
					 1.00000000E-02	 1.00000000E-02	 5.00000000E-03
					 7.50000000E-03	 1.00000000E-02	 0.00000000E+00
					 7.50000000E-03	 5.00000000E-03	 0.00000000E+00
					 7.50000000E-03	 5.00000000E-03	 1.00000000E-02
					 7.50000000E-03	 1.00000000E-02	 1.00000000E-02
					 5.00000000E-03	 7.50000000E-03	 0.00000000E+00
					 5.00000000E-03	 5.00000000E-03	 5.00000000E-03
					 5.00000000E-03	 7.50000000E-03	 1.00000000E-02
					 5.00000000E-03	 1.00000000E-02	 5.00000000E-03
					 1.00000000E-02	 5.00000000E-03	 2.00000000E-02
					 1.00000000E-02	 1.00000000E-02	 2.00000000E-02
					 5.00000000E-03	 5.00000000E-03	 2.00000000E-02
					 5.00000000E-03	 1.00000000E-02	 2.00000000E-02
					 1.00000000E-02	 5.00000000E-03	 1.50000000E-02
					 1.00000000E-02	 7.50000000E-03	 2.00000000E-02
					 1.00000000E-02	 1.00000000E-02	 1.50000000E-02
					 7.50000000E-03	 5.00000000E-03	 2.00000000E-02
					 7.50000000E-03	 1.00000000E-02	 2.00000000E-02
					 5.00000000E-03	 5.00000000E-03	 1.50000000E-02
					 5.00000000E-03	 7.50000000E-03	 2.00000000E-02
					 5.00000000E-03	 1.00000000E-02	 1.50000000E-02
					 1.00000000E-02	 5.00000000E-03	 3.00000000E-02
					 1.00000000E-02	 1.00000000E-02	 3.00000000E-02
					 5.00000000E-03	 5.00000000E-03	 3.00000000E-02
					 5.00000000E-03	 1.00000000E-02	 3.00000000E-02
					 1.00000000E-02	 5.00000000E-03	 2.50000000E-02
					 1.00000000E-02	 7.50000000E-03	 3.00000000E-02
					 1.00000000E-02	 1.00000000E-02	 2.50000000E-02
					 7.50000000E-03	 5.00000000E-03	 3.00000000E-02
					 7.50000000E-03	 1.00000000E-02	 3.00000000E-02
					 5.00000000E-03	 5.00000000E-03	 2.50000000E-02
					 5.00000000E-03	 7.50000000E-03	 3.00000000E-02
					 5.00000000E-03	 1.00000000E-02	 2.50000000E-02
					 1.00000000E-02	 5.00000000E-03	 4.00000000E-02
					 1.00000000E-02	 1.00000000E-02	 4.00000000E-02
					 5.00000000E-03	 5.00000000E-03	 4.00000000E-02
					 5.00000000E-03	 1.00000000E-02	 4.00000000E-02
					 1.00000000E-02	 5.00000000E-03	 3.50000000E-02
					 1.00000000E-02	 7.50000000E-03	 4.00000000E-02
					 1.00000000E-02	 1.00000000E-02	 3.50000000E-02
					 7.50000000E-03	 5.00000000E-03	 4.00000000E-02
					 7.50000000E-03	 1.00000000E-02	 4.00000000E-02
					 5.00000000E-03	 5.00000000E-03	 3.50000000E-02
					 5.00000000E-03	 7.50000000E-03	 4.00000000E-02
					 5.00000000E-03	 1.00000000E-02	 3.50000000E-02
					 1.00000000E-02	 5.00000000E-03	 5.00000000E-02
					 1.00000000E-02	 1.00000000E-02	 5.00000000E-02
					 5.00000000E-03	 5.00000000E-03	 5.00000000E-02
					 5.00000000E-03	 1.00000000E-02	 5.00000000E-02
					 1.00000000E-02	 5.00000000E-03	 4.50000000E-02
					 1.00000000E-02	 7.50000000E-03	 5.00000000E-02
					 1.00000000E-02	 1.00000000E-02	 4.50000000E-02
					 7.50000000E-03	 5.00000000E-03	 5.00000000E-02
					 7.50000000E-03	 1.00000000E-02	 5.00000000E-02
					 5.00000000E-03	 5.00000000E-03	 4.50000000E-02
					 5.00000000E-03	 7.50000000E-03	 5.00000000E-02
					 5.00000000E-03	 1.00000000E-02	 4.50000000E-02
					 1.00000000E-02	 5.00000000E-03	 6.00000000E-02
					 1.00000000E-02	 1.00000000E-02	 6.00000000E-02
					 5.00000000E-03	 5.00000000E-03	 6.00000000E-02
					 5.00000000E-03	 1.00000000E-02	 6.00000000E-02
					 1.00000000E-02	 5.00000000E-03	 5.50000000E-02
					 1.00000000E-02	 7.50000000E-03	 6.00000000E-02
					 1.00000000E-02	 1.00000000E-02	 5.50000000E-02
					 7.50000000E-03	 5.00000000E-03	 6.00000000E-02
					 7.50000000E-03	 1.00000000E-02	 6.00000000E-02
					 5.00000000E-03	 5.00000000E-03	 5.50000000E-02
					 5.00000000E-03	 7.50000000E-03	 6.00000000E-02
					 5.00000000E-03	 1.00000000E-02	 5.50000000E-02
					 1.00000000E-02	 5.00000000E-03	 7.00000000E-02
					 1.00000000E-02	 1.00000000E-02	 7.00000000E-02
					 5.00000000E-03	 5.00000000E-03	 7.00000000E-02
					 5.00000000E-03	 1.00000000E-02	 7.00000000E-02
					 1.00000000E-02	 5.00000000E-03	 6.50000000E-02
					 1.00000000E-02	 7.50000000E-03	 7.00000000E-02
					 1.00000000E-02	 1.00000000E-02	 6.50000000E-02
					 7.50000000E-03	 5.00000000E-03	 7.00000000E-02
					 7.50000000E-03	 1.00000000E-02	 7.00000000E-02
					 5.00000000E-03	 5.00000000E-03	 6.50000000E-02
					 5.00000000E-03	 7.50000000E-03	 7.00000000E-02
					 5.00000000E-03	 1.00000000E-02	 6.50000000E-02
					 1.00000000E-02	 5.00000000E-03	 8.00000000E-02
					 1.00000000E-02	 1.00000000E-02	 8.00000000E-02
					 5.00000000E-03	 5.00000000E-03	 8.00000000E-02
					 5.00000000E-03	 1.00000000E-02	 8.00000000E-02
					 1.00000000E-02	 5.00000000E-03	 7.50000000E-02
					 1.00000000E-02	 7.50000000E-03	 8.00000000E-02
					 1.00000000E-02	 1.00000000E-02	 7.50000000E-02
					 7.50000000E-03	 5.00000000E-03	 8.00000000E-02
					 7.50000000E-03	 1.00000000E-02	 8.00000000E-02
					 5.00000000E-03	 5.00000000E-03	 7.50000000E-02
					 5.00000000E-03	 7.50000000E-03	 8.00000000E-02
					 5.00000000E-03	 1.00000000E-02	 7.50000000E-02
					 1.00000000E-02	 5.00000000E-03	 9.00000000E-02
					 1.00000000E-02	 1.00000000E-02	 9.00000000E-02
					 5.00000000E-03	 5.00000000E-03	 9.00000000E-02
					 5.00000000E-03	 1.00000000E-02	 9.00000000E-02
					 1.00000000E-02	 5.00000000E-03	 8.50000000E-02
					 1.00000000E-02	 7.50000000E-03	 9.00000000E-02
					 1.00000000E-02	 1.00000000E-02	 8.50000000E-02
					 7.50000000E-03	 5.00000000E-03	 9.00000000E-02
					 7.50000000E-03	 1.00000000E-02	 9.00000000E-02
					 5.00000000E-03	 5.00000000E-03	 8.50000000E-02
					 5.00000000E-03	 7.50000000E-03	 9.00000000E-02
					 5.00000000E-03	 1.00000000E-02	 8.50000000E-02
					 1.00000000E-02	 5.00000000E-03	 1.00000000E-01
					 1.00000000E-02	 1.00000000E-02	 1.00000000E-01
					 5.00000000E-03	 5.00000000E-03	 1.00000000E-01
					 5.00000000E-03	 1.00000000E-02	 1.00000000E-01
					 1.00000000E-02	 5.00000000E-03	 9.50000000E-02
					 1.00000000E-02	 7.50000000E-03	 1.00000000E-01
					 1.00000000E-02	 1.00000000E-02	 9.50000000E-02
					 7.50000000E-03	 5.00000000E-03	 1.00000000E-01
					 7.50000000E-03	 1.00000000E-02	 1.00000000E-01
					 5.00000000E-03	 5.00000000E-03	 9.50000000E-02
					 5.00000000E-03	 7.50000000E-03	 1.00000000E-01
					 5.00000000E-03	 1.00000000E-02	 9.50000000E-02
					 0.00000000E+00	 1.00000000E-02	 0.00000000E+00
					 0.00000000E+00	 5.00000000E-03	 0.00000000E+00
					 0.00000000E+00	 5.00000000E-03	 1.00000000E-02
					 0.00000000E+00	 1.00000000E-02	 1.00000000E-02
					 2.50000000E-03	 1.00000000E-02	 0.00000000E+00
					 2.50000000E-03	 5.00000000E-03	 0.00000000E+00
					 2.50000000E-03	 5.00000000E-03	 1.00000000E-02
					 2.50000000E-03	 1.00000000E-02	 1.00000000E-02
					 0.00000000E+00	 7.50000000E-03	 0.00000000E+00
					 0.00000000E+00	 5.00000000E-03	 5.00000000E-03
					 0.00000000E+00	 7.50000000E-03	 1.00000000E-02
					 0.00000000E+00	 1.00000000E-02	 5.00000000E-03
					 0.00000000E+00	 5.00000000E-03	 2.00000000E-02
					 0.00000000E+00	 1.00000000E-02	 2.00000000E-02
					 2.50000000E-03	 5.00000000E-03	 2.00000000E-02
					 2.50000000E-03	 1.00000000E-02	 2.00000000E-02
					 0.00000000E+00	 5.00000000E-03	 1.50000000E-02
					 0.00000000E+00	 7.50000000E-03	 2.00000000E-02
					 0.00000000E+00	 1.00000000E-02	 1.50000000E-02
					 0.00000000E+00	 5.00000000E-03	 3.00000000E-02
					 0.00000000E+00	 1.00000000E-02	 3.00000000E-02
					 2.50000000E-03	 5.00000000E-03	 3.00000000E-02
					 2.50000000E-03	 1.00000000E-02	 3.00000000E-02
					 0.00000000E+00	 5.00000000E-03	 2.50000000E-02
					 0.00000000E+00	 7.50000000E-03	 3.00000000E-02
					 0.00000000E+00	 1.00000000E-02	 2.50000000E-02
					 0.00000000E+00	 5.00000000E-03	 4.00000000E-02
					 0.00000000E+00	 1.00000000E-02	 4.00000000E-02
					 2.50000000E-03	 5.00000000E-03	 4.00000000E-02
					 2.50000000E-03	 1.00000000E-02	 4.00000000E-02
					 0.00000000E+00	 5.00000000E-03	 3.50000000E-02
					 0.00000000E+00	 7.50000000E-03	 4.00000000E-02
					 0.00000000E+00	 1.00000000E-02	 3.50000000E-02
					 0.00000000E+00	 5.00000000E-03	 5.00000000E-02
					 0.00000000E+00	 1.00000000E-02	 5.00000000E-02
					 2.50000000E-03	 5.00000000E-03	 5.00000000E-02
					 2.50000000E-03	 1.00000000E-02	 5.00000000E-02
					 0.00000000E+00	 5.00000000E-03	 4.50000000E-02
					 0.00000000E+00	 7.50000000E-03	 5.00000000E-02
					 0.00000000E+00	 1.00000000E-02	 4.50000000E-02
					 0.00000000E+00	 5.00000000E-03	 6.00000000E-02
					 0.00000000E+00	 1.00000000E-02	 6.00000000E-02
					 2.50000000E-03	 5.00000000E-03	 6.00000000E-02
					 2.50000000E-03	 1.00000000E-02	 6.00000000E-02
					 0.00000000E+00	 5.00000000E-03	 5.50000000E-02
					 0.00000000E+00	 7.50000000E-03	 6.00000000E-02
					 0.00000000E+00	 1.00000000E-02	 5.50000000E-02
					 0.00000000E+00	 5.00000000E-03	 7.00000000E-02
					 0.00000000E+00	 1.00000000E-02	 7.00000000E-02
					 2.50000000E-03	 5.00000000E-03	 7.00000000E-02
					 2.50000000E-03	 1.00000000E-02	 7.00000000E-02
					 0.00000000E+00	 5.00000000E-03	 6.50000000E-02
					 0.00000000E+00	 7.50000000E-03	 7.00000000E-02
					 0.00000000E+00	 1.00000000E-02	 6.50000000E-02
					 0.00000000E+00	 5.00000000E-03	 8.00000000E-02
					 0.00000000E+00	 1.00000000E-02	 8.00000000E-02
[...]
			<PointData>
				<DataArray type="Float32" Name="U" NumberOfComponents="3" ComponentName0="D1" ComponentName1="D2" ComponentName2="D3" format="ascii">
					 0.00000000E+00	 0.00000000E+00	 0.00000000E+00
					 0.00000000E+00	 0.00000000E+00	 0.00000000E+00
					 4.16355000E-03	-1.09715000E-01	-3.74889000E-03
					-1.16672000E-02	-1.16151000E-01	 1.07650000E-01
					 0.00000000E+00	 0.00000000E+00	 0.00000000E+00
					 0.00000000E+00	 0.00000000E+00	 0.00000000E+00
					 3.91501000E-03	-1.17347000E-01	 5.33766000E-17
					 3.66038000E-03	-1.24797000E-01	 1.12368000E-01
					 0.00000000E+00	 0.00000000E+00	 0.00000000E+00
					 1.30677000E-03	-2.21020000E-02	-1.78127000E-03
					-3.70244000E-03	-1.10282000E-01	 5.12982000E-02
					-1.57461000E-02	-3.09949000E-02	 5.32350000E-02
					 0.00000000E+00	 0.00000000E+00	 0.00000000E+00
					 0.00000000E+00	 0.00000000E+00	 0.00000000E+00
					 3.94763000E-03	-1.16077000E-01	-1.84748000E-03
					-4.00312000E-03	-1.23002000E-01	 1.09928000E-01
					 0.00000000E+00	 0.00000000E+00	 0.00000000E+00
					 9.89048000E-04	-2.96454000E-02	 2.80808000E-17
					 3.87263000E-03	-1.18325000E-01	 5.53757000E-02
					 7.37378000E-04	-3.91689000E-02	 5.33911000E-02
					 1.52734000E-02	-4.44224000E-01	-7.07494000E-03
					 1.28444000E-03	-4.50428000E-01	 2.04751000E-01
					 1.50476000E-02	-4.51033000E-01	 3.84783000E-16
					 1.48205000E-02	-4.57800000E-01	 2.12062000E-01
					 8.89370000E-03	-2.51419000E-01	-5.47379000E-03
					 8.33699000E-03	-4.45772000E-01	 9.81031000E-02
					-6.30214000E-03	-2.58610000E-01	 1.58287000E-01
					 1.51096000E-02	-4.49207000E-01	-3.51892000E-03
					 7.98673000E-03	-4.55703000E-01	 2.08611000E-01
					 8.63774000E-03	-2.58905000E-01	 1.77457000E-16
					 1.49867000E-02	-4.52890000E-01	 1.05475000E-01
					 8.38799000E-03	-2.66577000E-01	 1.64070000E-01
					 3.24794000E-02	-9.62332000E-01	-9.84125000E-03
					 2.11123000E-02	-9.67554000E-01	 2.84859000E-01
					 3.22924000E-02	-9.67923000E-01	 1.09916000E-15
					 3.21059000E-02	-9.73528000E-01	 2.94979000E-01
					 2.31865000E-02	-6.82528000E-01	-8.52310000E-03
					 2.68400000E-02	-9.63503000E-01	 1.36864000E-01
					 1.05205000E-02	-6.88358000E-01	 2.46672000E-01
					 3.23376000E-02	-9.66562000E-01	-4.90286000E-03
					 2.65647000E-02	-9.71970000E-01	 2.90077000E-01
					 2.29791000E-02	-6.88768000E-01	 8.33518000E-16
					 3.22470000E-02	-9.69278000E-01	 1.46957000E-01
					 2.27709000E-02	-6.94985000E-01	 2.55469000E-01
					 5.46547000E-02	-1.62946000E+00	-1.20563000E-02
					 4.57687000E-02	-1.63354000E+00	 3.49060000E-01
					 5.45090000E-02	-1.63384000E+00	 1.18395000E-15
					 5.43631000E-02	-1.63820000E+00	 3.61373000E-01
					 4.30145000E-02	-1.27934000E+00	-1.10137000E-02
					 5.02476000E-02	-1.63042000E+00	 1.67863000E-01
					 3.28966000E-02	-1.28400000E+00	 3.18839000E-01
					 5.45459000E-02	-1.63273000E+00	-6.01081000E-03
					 5.00287000E-02	-1.63696000E+00	 3.55373000E-01
					 4.28482000E-02	-1.28432000E+00	 1.23339000E-15
					 5.44722000E-02	-1.63494000E+00	 1.80166000E-01
					 4.26821000E-02	-1.28930000E+00	 3.30120000E-01
					 8.07112000E-02	-2.41276000E+00	-1.37395000E-02
					 7.41696000E-02	-2.41578000E+00	 3.97845000E-01
					 8.06037000E-02	-2.41599000E+00	 1.23686000E-15
					 8.04961000E-02	-2.41921000E+00	 4.11823000E-01
					 6.72642000E-02	-2.00857000E+00	-1.29583000E-02
					 7.74645000E-02	-2.41347000E+00	 1.91472000E-01
					 5.95674000E-02	-2.01212000E+00	 3.75200000E-01
					 8.06306000E-02	-2.41518000E+00	-6.85395000E-03
					 7.73058000E-02	-2.41830000E+00	 4.04978000E-01
					 6.71377000E-02	-2.01236000E+00	 5.34729000E-16
					 8.05768000E-02	-2.41680000E+00	 2.05438000E-01
					 6.70112000E-02	-2.01616000E+00	 3.88409000E-01
					 1.09620000E-01	-3.28135000E+00	-1.49348000E-02
					 1.05189000E-01	-3.28340000E+00	 4.32506000E-01
					 1.09548000E-01	-3.28354000E+00	 1.16400000E-15
					 1.09474000E-01	-3.28573000E+00	 4.47650000E-01
					 9.48698000E-02	-2.83821000E+00	-1.43918000E-02
					 1.07420000E-01	-3.28184000E+00	 2.08272000E-01
					 8.94068000E-02	-2.84073000E+00	 4.16757000E-01
					 1.09566000E-01	-3.28299000E+00	-7.45342000E-03
					 1.07313000E-01	-3.28511000E+00	 4.40204000E-01
					 9.47798000E-02	-2.84090000E+00	 2.05998000E-15
					 1.09529000E-01	-3.28410000E+00	 2.23407000E-01
					 9.46899000E-02	-2.84360000E+00	 4.31374000E-01
					 1.40456000E-01	-4.20737000E+00	-1.57002000E-02
					 1.37826000E-01	-4.20859000E+00	 4.54722000E-01
					 1.40412000E-01	-4.20867000E+00	 1.90126000E-15
					 1.40369000E-01	-4.20997000E+00	 4.70594000E-01
					 1.24850000E-01	-3.73876000E+00	-1.53641000E-02
					 1.39147000E-01	-4.20766000E+00	 2.19091000E-01
					 1.21351000E-01	-3.74039000E+00	 4.44961000E-01
					 1.40423000E-01	-4.20834000E+00	-7.83870000E-03
					 1.39086000E-01	-4.20960000E+00	 4.62762000E-01
					 1.24792000E-01	-3.74049000E+00	 1.67834000E-15
					 1.40401000E-01	-4.20901000E+00	 2.34955000E-01
					 1.24735000E-01	-3.74223000E+00	 4.60518000E-01
					 1.72425000E-01	-5.16699000E+00	-1.61136000E-02
					 1.71198000E-01	-5.16757000E+00	 4.66748000E-01
					 1.72405000E-01	-5.16761000E+00	 2.93689000E-15
					 1.72384000E-01	-5.16822000E+00	 4.82985000E-01
					 1.56342000E-01	-4.68425000E+00	-1.59432000E-02
					 1.71812000E-01	-5.16714000E+00	 2.25012000E-01
					 1.54452000E-01	-4.68515000E+00	 4.61784000E-01
					 1.72410000E-01	-5.16745000E+00	-8.04852000E-03
					 1.71785000E-01	-5.16804000E+00	 4.74943000E-01
					 1.56310000E-01	-4.68519000E+00	 4.18589000E-15
					 1.72399000E-01	-5.16777000E+00	 2.41244000E-01
					 1.56279000E-01	-4.68614000E+00	 4.77877000E-01
					 2.04912000E-01	-6.14162000E+00	-1.62719000E-02
					 2.04598000E-01	-6.14180000E+00	 4.71390000E-01
					 2.04906000E-01	-6.14180000E+00	 4.11997000E-15
					 2.04900000E-01	-6.14196000E+00	 4.87730000E-01
					 1.88635000E-01	-5.65333000E+00	-1.62164000E-02
					 2.04750000E-01	-6.14168000E+00	 2.27397000E-01
					 1.87911000E-01	-5.65370000E+00	 4.69751000E-01
					 2.04908000E-01	-6.14175000E+00	-8.13154000E-03
					 2.04747000E-01	-6.14191000E+00	 4.79599000E-01
					 1.88622000E-01	-5.65370000E+00	 2.71484000E-15
					 2.04905000E-01	-6.14185000E+00	 2.43732000E-01
					 1.88610000E-01	-5.65408000E+00	 4.86065000E-01
					 2.37513000E-01	-7.11911000E+00	-1.62932000E-02
					 2.37538000E-01	-7.11913000E+00	 4.72038000E-01
					 2.37512000E-01	-7.11912000E+00	 2.82413000E-15
					 2.37512000E-01	-7.11914000E+00	 4.88367000E-01
					 2.21214000E-01	-6.63046000E+00	-1.62908000E-02
					 2.37522000E-01	-7.11913000E+00	 2.27857000E-01
					 2.21114000E-01	-6.63054000E+00	 4.71967000E-01
					 2.37513000E-01	-7.11911000E+00	-8.14628000E-03
					 2.37523000E-01	-7.11913000E+00	 4.80210000E-01
					 2.21211000E-01	-6.63052000E+00	 4.39579000E-15
					 2.37512000E-01	-7.11914000E+00	 2.44174000E-01
					 2.21209000E-01	-6.63059000E+00	 4.88297000E-01
					 0.00000000E+00	 0.00000000E+00	 0.00000000E+00
					 0.00000000E+00	 0.00000000E+00	 0.00000000E+00
					 4.16355000E-03	-1.09715000E-01	 3.74889000E-03
					 1.94520000E-02	-1.17189000E-01	 1.15080000E-01
					 0.00000000E+00	 0.00000000E+00	 0.00000000E+00
					 0.00000000E+00	 0.00000000E+00	 0.00000000E+00
					 3.94763000E-03	-1.16077000E-01	 1.84748000E-03
					 1.13788000E-02	-1.23524000E-01	 1.13599000E-01
					 0.00000000E+00	 0.00000000E+00	 0.00000000E+00
					 1.30677000E-03	-2.21020000E-02	 1.78127000E-03
					 1.19272000E-02	-1.10795000E-01	 5.87556000E-02
					 1.78517000E-02	-3.21158000E-02	 5.69097000E-02
					 1.52734000E-02	-4.44224000E-01	 7.07494000E-03
					 2.88010000E-02	-4.51346000E-01	 2.18885000E-01
					 1.51096000E-02	-4.49207000E-01	 3.51892000E-03
					 2.17728000E-02	-4.56162000E-01	 2.15629000E-01
					 8.89370000E-03	-2.51419000E-01	 5.47379000E-03
					 2.20852000E-02	-4.46232000E-01	 1.12257000E-01
					 2.35912000E-02	-2.59608000E-01	 1.69213000E-01
					 3.24794000E-02	-9.62332000E-01	 9.84125000E-03
					 4.34728000E-02	-9.68300000E-01	 3.04522000E-01
					 3.23376000E-02	-9.66562000E-01	 4.90286000E-03
					 3.77376000E-02	-9.72343000E-01	 2.99866000E-01
					 2.31865000E-02	-6.82528000E-01	 8.52310000E-03
					 3.80274000E-02	-9.63876000E-01	 1.56546000E-01
					 3.54380000E-02	-6.89189000E-01	 2.63699000E-01
					 5.46547000E-02	-1.62946000E+00	 1.20563000E-02
					 6.32491000E-02	-1.63412000E+00	 3.73155000E-01
					 5.45459000E-02	-1.63273000E+00	 6.01081000E-03
					 5.87712000E-02	-1.63725000E+00	 3.67378000E-01
					 4.30145000E-02	-1.27934000E+00	 1.10137000E-02
					 5.89883000E-02	-1.63071000E+00	 1.91976000E-01
					 5.28004000E-02	-1.28466000E+00	 3.40848000E-01
					 8.07112000E-02	-2.41276000E+00	 1.37395000E-02
					 8.70380000E-02	-2.41621000E+00	 4.25308000E-01
					 8.06306000E-02	-2.41518000E+00	 6.85395000E-03
					 8.37403000E-02	-2.41851000E+00	 4.18671000E-01
					 6.72642000E-02	-2.00857000E+00	 1.29583000E-02
					 8.39041000E-02	-2.41368000E+00	 2.18951000E-01
					 7.47085000E-02	-2.01262000E+00	 4.01100000E-01
					 1.09620000E-01	-3.28135000E+00	 1.49348000E-02
					 1.13906000E-01	-3.28369000E+00	 4.62361000E-01
					 1.09566000E-01	-3.28299000E+00	 7.45342000E-03
					 1.11673000E-01	-3.28525000E+00	 4.55098000E-01
					 9.48698000E-02	-2.83821000E+00	 1.43918000E-02
					 1.11784000E-01	-3.28198000E+00	 2.38142000E-01
					 1.00154000E-01	-2.84109000E+00	 4.45525000E-01
					 1.40456000E-01	-4.20737000E+00	 1.57002000E-02
					 1.42999000E-01	-4.20876000E+00	 4.86111000E-01
					 1.40423000E-01	-4.20834000E+00	 7.83870000E-03
					 1.41674000E-01	-4.20969000E+00	 4.78429000E-01
					 1.24850000E-01	-3.73876000E+00	 1.53641000E-02
					 1.41742000E-01	-4.20775000E+00	 2.50492000E-01
					 1.28235000E-01	-3.74062000E+00	 4.75676000E-01
					 1.72425000E-01	-5.16699000E+00	 1.61136000E-02
					 1.73612000E-01	-5.16765000E+00	 4.98967000E-01
					 1.72410000E-01	-5.16745000E+00	 8.04852000E-03
					 1.72994000E-01	-5.16808000E+00	 4.91032000E-01
					 1.56342000E-01	-4.68425000E+00	 1.59432000E-02
					 1.73028000E-01	-5.16718000E+00	 2.57239000E-01
					 1.58170000E-01	-4.68527000E+00	 4.93660000E-01
					 2.04912000E-01	-6.14162000E+00	 1.62719000E-02
					 2.05215000E-01	-6.14182000E+00	 5.03930000E-01
					 2.04908000E-01	-6.14175000E+00	 8.13154000E-03
					 2.05058000E-01	-6.14192000E+00	 4.95858000E-01
					 1.88635000E-01	-5.65333000E+00	 1.62164000E-02
					 2.05071000E-01	-6.14169000E+00	 2.59941000E-01
					 1.89335000E-01	-5.65375000E+00	 5.02177000E-01
					 2.37513000E-01	-7.11911000E+00	 1.62932000E-02
					 2.37487000E-01	-7.11913000E+00	 5.04621000E-01
					 2.37513000E-01	-7.11911000E+00	 8.14628000E-03
					 2.37502000E-01	-7.11913000E+00	 4.96501000E-01
					 2.21214000E-01	-6.63046000E+00	 1.62908000E-02
					 2.37503000E-01	-7.11913000E+00	 2.60443000E-01
					 2.21310000E-01	-6.63054000E+00	 5.04546000E-01
					 0.00000000E+00	 0.00000000E+00	 0.00000000E+00
					 1.94520000E-02	-1.17189000E-01	-1.15080000E-01
					 0.00000000E+00	 0.00000000E+00	 0.00000000E+00
					 3.66038000E-03	-1.24797000E-01	-1.12368000E-01
					 0.00000000E+00	 0.00000000E+00	 0.00000000E+00
					 1.78517000E-02	-3.21158000E-02	-5.69097000E-02
					 1.19272000E-02	-1.10795000E-01	-5.87556000E-02
					 0.00000000E+00	 0.00000000E+00	 0.00000000E+00
					 1.13788000E-02	-1.23524000E-01	-1.13599000E-01
					 0.00000000E+00	 0.00000000E+00	 0.00000000E+00
					 7.37378000E-04	-3.91689000E-02	-5.33911000E-02
					 3.87263000E-03	-1.18325000E-01	-5.53757000E-02
					 2.88010000E-02	-4.51346000E-01	-2.18885000E-01
					 1.48205000E-02	-4.57800000E-01	-2.12062000E-01
					 2.35912000E-02	-2.59608000E-01	-1.69213000E-01
					 2.20852000E-02	-4.46232000E-01	-1.12257000E-01
					 2.17728000E-02	-4.56162000E-01	-2.15629000E-01
					 8.38799000E-03	-2.66577000E-01	-1.64070000E-01
					 1.49867000E-02	-4.52890000E-01	-1.05475000E-01
					 4.34728000E-02	-9.68300000E-01	-3.04522000E-01
					 3.21059000E-02	-9.73528000E-01	-2.94979000E-01
					 3.54380000E-02	-6.89189000E-01	-2.63699000E-01
					 3.80274000E-02	-9.63876000E-01	-1.56546000E-01
					 3.77376000E-02	-9.72343000E-01	-2.99866000E-01
					 2.27709000E-02	-6.94985000E-01	-2.55469000E-01
					 3.22470000E-02	-9.69278000E-01	-1.46957000E-01
					 6.32491000E-02	-1.63412000E+00	-3.73155000E-01
					 5.43631000E-02	-1.63820000E+00	-3.61373000E-01
					 5.28004000E-02	-1.28466000E+00	-3.40848000E-01
					 5.89883000E-02	-1.63071000E+00	-1.91976000E-01
					 5.87712000E-02	-1.63725000E+00	-3.67378000E-01
					 4.26821000E-02	-1.28930000E+00	-3.30120000E-01
					 5.44722000E-02	-1.63494000E+00	-1.80166000E-01
					 8.70380000E-02	-2.41621000E+00	-4.25308000E-01
					 8.04961000E-02	-2.41921000E+00	-4.11823000E-01
					 7.47085000E-02	-2.01262000E+00	-4.01100000E-01
					 8.39041000E-02	-2.41368000E+00	-2.18951000E-01
					 8.37403000E-02	-2.41851000E+00	-4.18671000E-01
					 6.70112000E-02	-2.01616000E+00	-3.88409000E-01
					 8.05768000E-02	-2.41680000E+00	-2.05438000E-01
					 1.13906000E-01	-3.28369000E+00	-4.62361000E-01
					 1.09474000E-01	-3.28573000E+00	-4.47650000E-01
					 1.00154000E-01	-2.84109000E+00	-4.45525000E-01
					 1.11784000E-01	-3.28198000E+00	-2.38142000E-01
					 1.11673000E-01	-3.28525000E+00	-4.55098000E-01
					 9.46899000E-02	-2.84360000E+00	-4.31374000E-01
					 1.09529000E-01	-3.28410000E+00	-2.23407000E-01
					 1.42999000E-01	-4.20876000E+00	-4.86111000E-01
					 1.40369000E-01	-4.20997000E+00	-4.70594000E-01
					 1.28235000E-01	-3.74062000E+00	-4.75676000E-01
					 1.41742000E-01	-4.20775000E+00	-2.50492000E-01
					 1.41674000E-01	-4.20969000E+00	-4.78429000E-01
					 1.24735000E-01	-3.74223000E+00	-4.60518000E-01
					 1.40401000E-01	-4.20901000E+00	-2.34955000E-01
					 1.73612000E-01	-5.16765000E+00	-4.98967000E-01
					 1.72384000E-01	-5.16822000E+00	-4.82985000E-01
					 1.58170000E-01	-4.68527000E+00	-4.93660000E-01
					 1.73028000E-01	-5.16718000E+00	-2.57239000E-01
					 1.72994000E-01	-5.16808000E+00	-4.91032000E-01
					 1.56279000E-01	-4.68614000E+00	-4.77877000E-01
					 1.72399000E-01	-5.16777000E+00	-2.41244000E-01
					 2.05215000E-01	-6.14182000E+00	-5.03930000E-01
					 2.04900000E-01	-6.14196000E+00	-4.87730000E-01
					 1.89335000E-01	-5.65375000E+00	-5.02177000E-01
					 2.05071000E-01	-6.14169000E+00	-2.59941000E-01
					 2.05058000E-01	-6.14192000E+00	-4.95858000E-01
					 1.88610000E-01	-5.65408000E+00	-4.86065000E-01
					 2.04905000E-01	-6.14185000E+00	-2.43732000E-01
					 2.37487000E-01	-7.11913000E+00	-5.04621000E-01
					 2.37512000E-01	-7.11914000E+00	-4.88367000E-01
					 2.21310000E-01	-6.63054000E+00	-5.04546000E-01
					 2.37503000E-01	-7.11913000E+00	-2.60443000E-01
					 2.37502000E-01	-7.11913000E+00	-4.96501000E-01
					 2.21209000E-01	-6.63059000E+00	-4.88297000E-01
					 2.37512000E-01	-7.11914000E+00	-2.44174000E-01
					 0.00000000E+00	 0.00000000E+00	 0.00000000E+00
					-1.16672000E-02	-1.16151000E-01	-1.07650000E-01
					 0.00000000E+00	 0.00000000E+00	 0.00000000E+00
					-4.00312000E-03	-1.23002000E-01	-1.09928000E-01
					 0.00000000E+00	 0.00000000E+00	 0.00000000E+00
					-1.57461000E-02	-3.09949000E-02	-5.32350000E-02
					-3.70244000E-03	-1.10282000E-01	-5.12982000E-02
					 1.28444000E-03	-4.50428000E-01	-2.04751000E-01
					 7.98673000E-03	-4.55703000E-01	-2.08611000E-01
					-6.30214000E-03	-2.58610000E-01	-1.58287000E-01
					 8.33699000E-03	-4.45772000E-01	-9.81031000E-02
					 2.11123000E-02	-9.67554000E-01	-2.84859000E-01
					 2.65647000E-02	-9.71970000E-01	-2.90077000E-01
					 1.05205000E-02	-6.88358000E-01	-2.46672000E-01
					 2.68400000E-02	-9.63503000E-01	-1.36864000E-01
					 4.57687000E-02	-1.63354000E+00	-3.49060000E-01
					 5.00287000E-02	-1.63696000E+00	-3.55373000E-01
					 3.28966000E-02	-1.28400000E+00	-3.18839000E-01
					 5.02476000E-02	-1.63042000E+00	-1.67863000E-01
					 7.41696000E-02	-2.41578000E+00	-3.97845000E-01
					 7.73058000E-02	-2.41830000E+00	-4.04978000E-01
					 5.95674000E-02	-2.01212000E+00	-3.75200000E-01
					 7.74645000E-02	-2.41347000E+00	-1.91472000E-01
					 1.05189000E-01	-3.28340000E+00	-4.32506000E-01
					 1.07313000E-01	-3.28511000E+00	-4.40204000E-01
					 8.94068000E-02	-2.84073000E+00	-4.16757000E-01
					 1.07420000E-01	-3.28184000E+00	-2.08272000E-01
					 1.37826000E-01	-4.20859000E+00	-4.54722000E-01
					 1.39086000E-01	-4.20960000E+00	-4.62762000E-01
					 1.21351000E-01	-3.74039000E+00	-4.44961000E-01
					 1.39147000E-01	-4.20766000E+00	-2.19091000E-01
					 1.71198000E-01	-5.16757000E+00	-4.66748000E-01
					 1.71785000E-01	-5.16804000E+00	-4.74943000E-01
					 1.54452000E-01	-4.68515000E+00	-4.61784000E-01
					 1.71812000E-01	-5.16714000E+00	-2.25012000E-01
					 2.04598000E-01	-6.14180000E+00	-4.71390000E-01
					 2.04747000E-01	-6.14191000E+00	-4.79599000E-01
					 1.87911000E-01	-5.65370000E+00	-4.69751000E-01
					 2.04750000E-01	-6.14168000E+00	-2.27397000E-01
					 2.37538000E-01	-7.11913000E+00	-4.72038000E-01
					 2.37523000E-01	-7.11913000E+00	-4.80210000E-01
					 2.21114000E-01	-6.63054000E+00	-4.71967000E-01
					 2.37522000E-01	-7.11913000E+00	-2.27857000E-01
				</DataArray>
				<DataArray type="Float32" Name="S" NumberOfComponents="10" ComponentName0="xx" ComponentName1="yy" ComponentName2="zz" ComponentName3="xy" ComponentName4="yz" ComponentName5="zx" ComponentName6="Mises" ComponentName7="Min Principal" ComponentName8="Mid Principal" ComponentName9="Max Principal" format="ascii">
					 1.27563000E+12	 1.27564000E+12	 2.97644000E+12	-5.41030000E+03	-6.32304000E+10	-4.14487000E+11	 1.84935943E+12	 1.17788638E+12	 1.27563977E+12	 3.07418385E+12
					-4.09037000E+10	-4.09036000E+10	-9.54405000E+10	 1.81764000E+04	 1.72102000E+11	 8.59016000E+09	 3.03402267E+11	-2.42632525E+11	-4.09037016E+10	 1.06288427E+11
					 4.54544000E+08	-3.03051000E+09	-8.15707000E+10	 3.41802000E+10	-1.53762000E+11	-1.42469000E+09	 2.84418054E+11	-2.02956898E+11	-3.99783450E+09	 1.22808067E+11
					 2.56214000E+10	-2.96311000E+10	 2.26104000E+12	 4.41189000E+10	-1.61705000E+10	 7.63884000E+10	 2.26887441E+12	-5.52053782E+10	 4.84946879E+10	 2.26374099E+12
					 1.22603000E+12	 1.22603000E+12	 2.86070000E+12	-6.06412000E+02	-2.57479000E+11	-5.74175000E+09	 1.69444127E+12	 1.18641406E+12	 1.22603000E+12	 2.90031594E+12
					 5.82337000E-04	 8.86202000E-04	 1.30844000E-03	 1.39296000E-04	-9.96823000E+09	 3.32566000E+08	 1.72750869E+10	-9.97377609E+09	 5.91921935E-04	 9.97377609E+09
					 3.37601000E-04	-9.36890000E-03	-2.68936000E-04	-1.10741000E-02	-1.18998000E+11	 3.97007000E+09	 2.06225256E+11	-1.19064207E+11	-4.11470218E-04	 1.19064207E+11
					 9.08356000E+10	-1.36244000E+10	 2.44498000E+12	-1.14034000E+09	 4.27031000E+10	 5.12991000E+09	 2.40922709E+12	-1.43802420E+10	 9.08388769E+10	 2.44573257E+12
					 6.09471000E+11	 6.09470000E+11	 1.42214000E+12	-6.74606000E+05	 7.58411000E+10	-2.02551000E+11	 8.94856445E+11	 5.55494487E+11	 6.09469680E+11	 1.47611683E+12
					-3.65605000E+09	-1.92728000E+09	-8.04038000E+10	-6.83911000E+10	-1.77149000E+10	 3.98320000E+09	 1.45075716E+11	-8.75873287E+10	-6.56193404E+10	 6.72195391E+10
					 5.09279000E+10	 8.18374000E+10	 1.12290000E+12	 3.81334000E+10	-7.83145000E+10	 4.02383000E+10	 1.06984334E+12	 1.97415733E+10	 1.05875524E+11	 1.13004820E+12
					 2.82878000E+10	 1.02255000E+11	 2.29987000E+12	-6.33413000E+10	-2.83481000E+10	-9.41387000E+10	 2.24467542E+12	-1.20481112E+10	 1.38395945E+11	 2.30406497E+12
					 1.24986000E+12	 1.24986000E+12	 2.91639000E+12	-3.72224000E+05	-1.80781000E+11	-2.10113000E+11	 1.73430389E+12	 1.20496759E+12	 1.24986037E+12	 2.96128204E+12
					-2.01253000E+10	-2.01253000E+10	-4.69606000E+10	-3.67309000E+05	 6.04985000E+10	 3.72133000E+09	 1.08359973E+11	-9.56231588E+10	-2.01252550E+10	 2.85372138E+10
					-2.96895000E+09	-2.76707000E+09	-4.19275000E+10	-2.08219000E+09	-1.44424000E+11	 1.06712000E+09	 2.53213294E+11	-1.68094472E+11	-3.00777888E+09	 1.23438731E+11