<?xml version="1.0"?>
<VTKFile type="UnstructuredGrid" version="0.1" byte_order="LittleEndian">
	<UnstructuredGrid>
		<Piece NumberOfPoints="1221" NumberOfCells="160">
			<Points>
				<DataArray type="Float64" NumberOfComponents="3" format="ascii">
					 1.00000000E-02	 1.00000000E-02	 0.00000000E+00
					 1.00000000E-02	 5.00000000E-03	 0.00000000E+00
					 1.00000000E-02	 5.00000000E-03	 5.00000000E-03
					 1.00000000E-02	 1.00000000E-02	 5.00000000E-03
					 5.00000000E-03	 1.00000000E-02	 0.00000000E+00
					 5.00000000E-03	 5.00000000E-03	 0.00000000E+00
					 5.00000000E-03	 5.00000000E-03	 5.00000000E-03
					 5.00000000E-03	 1.00000000E-02	 5.00000000E-03
					 1.00000000E-02	 7.50000000E-03	 0.00000000E+00
					 1.00000000E-02	 5.00000000E-03	 2.50000000E-03
					 1.00000000E-02	 7.50000000E-03	 5.00000000E-03
					 1.00000000E-02	 1.00000000E-02	 2.50000000E-03
					 7.50000000E-03	 1.00000000E-02	 0.00000000E+00
					 7.50000000E-03	 5.00000000E-03	 0.00000000E+00
					 7.50000000E-03	 5.00000000E-03	 5.00000000E-03
					 7.50000000E-03	 1.00000000E-02	 5.00000000E-03
					 5.00000000E-03	 7.50000000E-03	 0.00000000E+00
					 5.00000000E-03	 5.00000000E-03	 2.50000000E-03
					 5.00000000E-03	 7.50000000E-03	 5.00000000E-03
					 5.00000000E-03	 1.00000000E-02	 2.50000000E-03
					 1.00000000E-02	 5.00000000E-03	 1.00000000E-02
					 1.00000000E-02	 1.00000000E-02	 1.00000000E-02
					 5.00000000E-03	 5.00000000E-03	 1.00000000E-02
					 5.00000000E-03	 1.00000000E-02	 1.00000000E-02
					 1.00000000E-02	 5.00000000E-03	 7.50000000E-03
					 1.00000000E-02	 7.50000000E-03	 1.00000000E-02
					 1.00000000E-02	 1.00000000E-02	 7.50000000E-03
					 7.50000000E-03	 5.00000000E-03	 1.00000000E-02
					 7.50000000E-03	 1.00000000E-02	 1.00000000E-02
					 5.00000000E-03	 5.00000000E-03	 7.50000000E-03
					 5.00000000E-03	 7.50000000E-03	 1.00000000E-02
					 5.00000000E-03	 1.00000000E-02	 7.50000000E-03
					 1.00000000E-02	 5.00000000E-03	 1.50000000E-02
					 1.00000000E-02	 1.00000000E-02	 1.50000000E-02
					 5.00000000E-03	 5.00000000E-03	 1.50000000E-02
					 5.00000000E-03	 1.00000000E-02	 1.50000000E-02
					 1.00000000E-02	 5.00000000E-03	 1.25000000E-02
					 1.00000000E-02	 7.50000000E-03	 1.50000000E-02
					 1.00000000E-02	 1.00000000E-02	 1.25000000E-02
					 7.50000000E-03	 5.00000000E-03	 1.50000000E-02
					 7.50000000E-03	 1.00000000E-02	 1.50000000E-02
					 5.00000000E-03	 5.00000000E-03	 1.25000000E-02
					 5.00000000E-03	 7.50000000E-03	 1.50000000E-02
					 5.00000000E-03	 1.00000000E-02	 1.25000000E-02
					 1.00000000E-02	 5.00000000E-03	 2.00000000E-02
					 1.00000000E-02	 1.00000000E-02	 2.00000000E-02
					 5.00000000E-03	 5.00000000E-03	 2.00000000E-02
					 5.00000000E-03	 1.00000000E-02	 2.00000000E-02
					 1.00000000E-02	 5.00000000E-03	 1.75000000E-02
					 1.00000000E-02	 7.50000000E-03	 2.00000000E-02
					 1.00000000E-02	 1.00000000E-02	 1.75000000E-02
					 7.50000000E-03	 5.00000000E-03	 2.00000000E-02
					 7.50000000E-03	 1.00000000E-02	 2.00000000E-02
					 5.00000000E-03	 5.00000000E-03	 1.75000000E-02
					 5.00000000E-03	 7.50000000E-03	 2.00000000E-02
					 5.00000000E-03	 1.00000000E-02	 1.75000000E-02
					 1.00000000E-02	 5.00000000E-03	 2.50000000E-02
					 1.00000000E-02	 1.00000000E-02	 2.50000000E-02
					 5.00000000E-03	 5.00000000E-03	 2.50000000E-02
					 5.00000000E-03	 1.00000000E-02	 2.50000000E-02
					 1.00000000E-02	 5.00000000E-03	 2.25000000E-02
					 1.00000000E-02	 7.50000000E-03	 2.50000000E-02
					 1.00000000E-02	 1.00000000E-02	 2.25000000E-02
					 7.50000000E-03	 5.00000000E-03	 2.50000000E-02
					 7.50000000E-03	 1.00000000E-02	 2.50000000E-02
					 5.00000000E-03	 5.00000000E-03	 2.25000000E-02
					 5.00000000E-03	 7.50000000E-03	 2.50000000E-02
					 5.00000000E-03	 1.00000000E-02	 2.25000000E-02
					 1.00000000E-02	 5.00000000E-03	 3.00000000E-02
					 1.00000000E-02	 1.00000000E-02	 3.00000000E-02
					 5.00000000E-03	 5.00000000E-03	 3.00000000E-02
					 5.00000000E-03	 1.00000000E-02	 3.00000000E-02
					 1.00000000E-02	 5.00000000E-03	 2.75000000E-02
					 1.00000000E-02	 7.50000000E-03	 3.00000000E-02
					 1.00000000E-02	 1.00000000E-02	 2.75000000E-02
					 7.50000000E-03	 5.00000000E-03	 3.00000000E-02
					 7.50000000E-03	 1.00000000E-02	 3.00000000E-02
					 5.00000000E-03	 5.00000000E-03	 2.75000000E-02
					 5.00000000E-03	 7.50000000E-03	 3.00000000E-02
					 5.00000000E-03	 1.00000000E-02	 2.75000000E-02
					 1.00000000E-02	 5.00000000E-03	 3.50000000E-02
					 1.00000000E-02	 1.00000000E-02	 3.50000000E-02
					 5.00000000E-03	 5.00000000E-03	 3.50000000E-02
					 5.00000000E-03	 1.00000000E-02	 3.50000000E-02
					 1.00000000E-02	 5.00000000E-03	 3.25000000E-02
					 1.00000000E-02	 7.50000000E-03	 3.50000000E-02
					 1.00000000E-02	 1.00000000E-02	 3.25000000E-02
					 7.50000000E-03	 5.00000000E-03	 3.50000000E-02
					 7.50000000E-03	 1.00000000E-02	 3.50000000E-02
					 5.00000000E-03	 5.00000000E-03	 3.25000000E-02
					 5.00000000E-03	 7.50000000E-03	 3.50000000E-02
					 5.00000000E-03	 1.00000000E-02	 3.25000000E-02
					 1.00000000E-02	 5.00000000E-03	 4.00000000E-02
					 1.00000000E-02	 1.00000000E-02	 4.00000000E-02
					 5.00000000E-03	 5.00000000E-03	 4.00000000E-02
					 5.00000000E-03	 1.00000000E-02	 4.00000000E-02
					 1.00000000E-02	 5.00000000E-03	 3.75000000E-02
					 1.00000000E-02	 7.50000000E-03	 4.00000000E-02
					 1.00000000E-02	 1.00000000E-02	 3.75000000E-02
					 7.50000000E-03	 5.00000000E-03	 4.00000000E-02
					 7.50000000E-03	 1.00000000E-02	 4.00000000E-02
					 5.00000000E-03	 5.00000000E-03	 3.75000000E-02
					 5.00000000E-03	 7.50000000E-03	 4.00000000E-02
					 5.00000000E-03	 1.00000000E-02	 3.75000000E-02
					 1.00000000E-02	 5.00000000E-03	 4.50000000E-02
					 1.00000000E-02	 1.00000000E-02	 4.50000000E-02
					 5.00000000E-03	 5.00000000E-03	 4.50000000E-02
					 5.00000000E-03	 1.00000000E-02	 4.50000000E-02
					 1.00000000E-02	 5.00000000E-03	 4.25000000E-02
					 1.00000000E-02	 7.50000000E-03	 4.50000000E-02
					 1.00000000E-02	 1.00000000E-02	 4.25000000E-02
					 7.50000000E-03	 5.00000000E-03	 4.50000000E-02
					 7.50000000E-03	 1.00000000E-02	 4.50000000E-02
					 5.00000000E-03	 5.00000000E-03	 4.25000000E-02
					 5.00000000E-03	 7.50000000E-03	 4.50000000E-02
					 5.00000000E-03	 1.00000000E-02	 4.25000000E-02
					 1.00000000E-02	 5.00000000E-03	 5.00000000E-02
					 1.00000000E-02	 1.00000000E-02	 5.00000000E-02
					 5.00000000E-03	 5.00000000E-03	 5.00000000E-02
					 5.00000000E-03	 1.00000000E-02	 5.00000000E-02
					 1.00000000E-02	 5.00000000E-03	 4.75000000E-02
					 1.00000000E-02	 7.50000000E-03	 5.00000000E-02
					 1.00000000E-02	 1.00000000E-02	 4.75000000E-02
					 7.50000000E-03	 5.00000000E-03	 5.00000000E-02
					 7.50000000E-03	 1.00000000E-02	 5.00000000E-02
					 5.00000000E-03	 5.00000000E-03	 4.75000000E-02
					 5.00000000E-03	 7.50000000E-03	 5.00000000E-02
					 5.00000000E-03	 1.00000000E-02	 4.75000000E-02
					 1.00000000E-02	 5.00000000E-03	 5.50000000E-02
					 1.00000000E-02	 1.00000000E-02	 5.50000000E-02
					 5.00000000E-03	 5.00000000E-03	 5.50000000E-02
					 5.00000000E-03	 1.00000000E-02	 5.50000000E-02
					 1.00000000E-02	 5.00000000E-03	 5.25000000E-02
					 1.00000000E-02	 7.50000000E-03	 5.50000000E-02
					 1.00000000E-02	 1.00000000E-02	 5.25000000E-02
					 7.50000000E-03	 5.00000000E-03	 5.50000000E-02
					 7.50000000E-03	 1.00000000E-02	 5.50000000E-02
					 5.00000000E-03	 5.00000000E-03	 5.25000000E-02
					 5.00000000E-03	 7.50000000E-03	 5.50000000E-02
					 5.00000000E-03	 1.00000000E-02	 5.25000000E-02
					 1.00000000E-02	 5.00000000E-03	 6.00000000E-02
					 1.00000000E-02	 1.00000000E-02	 6.00000000E-02
					 5.00000000E-03	 5.00000000E-03	 6.00000000E-02
					 5.00000000E-03	 1.00000000E-02	 6.00000000E-02
					 1.00000000E-02	 5.00000000E-03	 5.75000000E-02
					 1.00000000E-02	 7.50000000E-03	 6.00000000E-02
					 1.00000000E-02	 1.00000000E-02	 5.75000000E-02
					 7.50000000E-03	 5.00000000E-03	 6.00000000E-02
					 7.50000000E-03	 1.00000000E-02	 6.00000000E-02
					 5.00000000E-03	 5.00000000E-03	 5.75000000E-02
					 5.00000000E-03	 7.50000000E-03	 6.00000000E-02
					 5.00000000E-03	 1.00000000E-02	 5.75000000E-02
					 1.00000000E-02	 5.00000000E-03	 6.50000000E-02
					 1.00000000E-02	 1.00000000E-02	 6.50000000E-02
					 5.00000000E-03	 5.00000000E-03	 6.50000000E-02
					 5.00000000E-03	 1.00000000E-02	 6.50000000E-02
					 1.00000000E-02	 5.00000000E-03	 6.25000000E-02
					 1.00000000E-02	 7.50000000E-03	 6.50000000E-02
					 1.00000000E-02	 1.00000000E-02	 6.25000000E-02
					 7.50000000E-03	 5.00000000E-03	 6.50000000E-02
					 7.50000000E-03	 1.00000000E-02	 6.50000000E-02
					 5.00000000E-03	 5.00000000E-03	 6.25000000E-02
					 5.00000000E-03	 7.50000000E-03	 6.50000000E-02
					 5.00000000E-03	 1.00000000E-02	 6.25000000E-02
					 1.00000000E-02	 5.00000000E-03	 7.00000000E-02
					 1.00000000E-02	 1.00000000E-02	 7.00000000E-02
					 5.00000000E-03	 5.00000000E-03	 7.00000000E-02
					 5.00000000E-03	 1.00000000E-02	 7.00000000E-02
					 1.00000000E-02	 5.00000000E-03	 6.75000000E-02
					 1.00000000E-02	 7.50000000E-03	 7.00000000E-02
					 1.00000000E-02	 1.00000000E-02	 6.75000000E-02
					 7.50000000E-03	 5.00000000E-03	 7.00000000E-02
					 7.50000000E-03	 1.00000000E-02	 7.00000000E-02
					 5.00000000E-03	 5.00000000E-03	 6.75000000E-02
					 5.00000000E-03	 7.50000000E-03	 7.00000000E-02
					 5.00000000E-03	 1.00000000E-02	 6.75000000E-02
					 1.00000000E-02	 5.00000000E-03	 7.50000000E-02
					 1.00000000E-02	 1.00000000E-02	 7.50000000E-02
					 5.00000000E-03	 5.00000000E-03	 7.50000000E-02
					 5.00000000E-03	 1.00000000E-02	 7.50000000E-02
					 1.00000000E-02	 5.00000000E-03	 7.25000000E-02
					 1.00000000E-02	 7.50000000E-03	 7.50000000E-02
					 1.00000000E-02	 1.00000000E-02	 7.25000000E-02
[...]
			<PointData>
				<DataArray type="Float32" Name="U" NumberOfComponents="3" ComponentName0="D1" ComponentName1="D2" ComponentName2="D3" format="ascii">
					 0.00000000E+00	 0.00000000E+00	 0.00000000E+00
					 0.00000000E+00	 0.00000000E+00	 0.00000000E+00
					-7.04116000E-03	 2.89197000E-02	 9.45777000E-03
					 1.08408000E-02	 3.42533000E-02	-5.10709000E-02
					 0.00000000E+00	 0.00000000E+00	 0.00000000E+00
					 0.00000000E+00	 0.00000000E+00	 0.00000000E+00
					-5.62817000E-03	 3.60221000E-02	-7.57380000E-15
					-4.51849000E-03	 4.50657000E-02	-6.05328000E-02
					 0.00000000E+00	 0.00000000E+00	 0.00000000E+00
					-2.87829000E-03	 3.28519000E-03	 4.41952000E-03
					 1.60622000E-03	 2.87684000E-02	-1.99068000E-02
					 1.21781000E-02	 1.05797000E-02	-2.52935000E-02
					 0.00000000E+00	 0.00000000E+00	 0.00000000E+00
					 0.00000000E+00	 0.00000000E+00	 0.00000000E+00
					-5.83800000E-03	 3.48956000E-02	 4.48073000E-03
					 3.12496000E-03	 4.20350000E-02	-5.53389000E-02
					 0.00000000E+00	 0.00000000E+00	 0.00000000E+00
					-1.38541000E-03	 8.86704000E-03	-3.16414000E-15
					-5.45217000E-03	 3.73651000E-02	-2.86781000E-02
					-5.13286000E-04	 1.84220000E-02	-2.82863000E-02
					-2.17886000E-02	 1.24180000E-01	 1.80625000E-02
					-5.16341000E-03	 1.29364000E-01	-9.73854000E-02
					-2.05811000E-02	 1.31726000E-01	-1.58901000E-14
					-1.94021000E-02	 1.39454000E-01	-1.15606000E-01
					-1.33790000E-02	 6.92344000E-02	 1.39162000E-02
					-1.37590000E-02	 1.25004000E-01	-3.82570000E-02
					 4.34775000E-03	 7.48250000E-02	-7.50770000E-02
					-2.09177000E-02	 1.29794000E-01	 8.85761000E-03
					-1.18928000E-02	 1.36299000E-01	-1.07051000E-01
					-1.20197000E-02	 7.69301000E-02	-1.17267000E-14
					-2.02793000E-02	 1.33880000E-01	-5.66915000E-02
					-1.08173000E-02	 8.56301000E-02	-8.90679000E-02
					-4.46023000E-02	 2.72379000E-01	 2.55005000E-02
					-3.05273000E-02	 2.76896000E-01	-1.37242000E-01
					-4.35772000E-02	 2.78908000E-01	-2.43000000E-14
					-4.25572000E-02	 2.85469000E-01	-1.63211000E-01
					-3.22717000E-02	 1.92310000E-01	 2.19417000E-02
					-3.78122000E-02	 2.72965000E-01	-5.45887000E-02
					-1.68953000E-02	 1.97225000E-01	-1.18066000E-01
					-4.38264000E-02	 2.77303000E-01	 1.25915000E-02
					-3.62970000E-02	 2.82817000E-01	-1.50687000E-01
					-3.11594000E-02	 1.99430000E-01	-2.01263000E-14
					-4.33265000E-02	 2.80503000E-01	-8.05899000E-02
					-3.00470000E-02	 2.06549000E-01	-1.40434000E-01
					-7.41659000E-02	 4.64032000E-01	 3.16776000E-02
					-6.26744000E-02	 4.67692000E-01	-1.70620000E-01
					-7.33342000E-02	 4.69362000E-01	-3.24636000E-14
					-7.25015000E-02	 4.74685000E-01	-2.02747000E-01
					-5.86118000E-02	 3.63276000E-01	 2.87436000E-02
					-6.86301000E-02	 4.64541000E-01	-6.81704000E-02
					-4.58365000E-02	 3.67355000E-01	-1.54772000E-01
					-7.35440000E-02	 4.68022000E-01	 1.56770000E-02
					-6.73780000E-02	 4.72520000E-01	-1.87150000E-01
					-5.76850000E-02	 3.69202000E-01	-2.84980000E-14
					-7.31249000E-02	 4.70705000E-01	-1.00338000E-01
					-5.67590000E-02	 3.75134000E-01	-1.83968000E-01
					-1.09281000E-01	 6.91135000E-01	 3.66055000E-02
					-1.00350000E-01	 6.93994000E-01	-1.97234000E-01
					-1.08632000E-01	 6.95282000E-01	-4.05231000E-14
					-1.07984000E-01	 6.99430000E-01	-2.34287000E-01
					-9.11091000E-02	 5.73653000E-01	 3.42937000E-02
					-1.04974000E-01	 6.91527000E-01	-7.90375000E-02
					-8.09006000E-02	 5.76914000E-01	-1.84746000E-01
					-1.08794000E-01	 6.94246000E-01	 1.81443000E-02
					-1.04005000E-01	 6.97746000E-01	-2.16220000E-01
					-9.03689000E-02	 5.78390000E-01	-3.63876000E-14
					-1.08471000E-01	 6.96319000E-01	-1.16129000E-01
					-8.96288000E-02	 5.83127000E-01	-2.19491000E-01
					-1.48692000E-01	 9.45716000E-01	 4.03084000E-02
					-1.42277000E-01	 9.47773000E-01	-2.17240000E-01
					-1.48227000E-01	 9.48698000E-01	-4.82392000E-14
					-1.47761000E-01	 9.51678000E-01	-2.57986000E-01
					-1.28526000E-01	 8.15482000E-01	 3.86067000E-02
					-1.45599000E-01	 9.46002000E-01	-8.72126000E-02
					-1.20858000E-01	 8.17939000E-01	-2.08046000E-01
					-1.48344000E-01	 9.47951000E-01	 1.99985000E-02
					-1.44902000E-01	 9.50468000E-01	-2.38064000E-01
					-1.27969000E-01	 8.19043000E-01	-4.44783000E-14
					-1.48110000E-01	 9.49447000E-01	-1.27997000E-01
					-1.27413000E-01	 8.22606000E-01	-2.47095000E-01
					-1.91184000E-01	 1.21995000E+00	 4.28077000E-02
					-1.87228000E-01	 1.22123000E+00	-2.30749000E-01
					-1.90896000E-01	 1.22180000E+00	-5.59414000E-14
					-1.90608000E-01	 1.22364000E+00	-2.73983000E-01
					-1.69629000E-01	 1.08086000E+00	 4.17044000E-02
					-1.89275000E-01	 1.22013000E+00	-9.27503000E-02
					-1.64450000E-01	 1.08253000E+00	-2.24784000E-01
					-1.90969000E-01	 1.22133000E+00	 2.12523000E-02
					-1.88846000E-01	 1.22289000E+00	-2.52805000E-01
					-1.69252000E-01	 1.08327000E+00	-5.19723000E-14
					-1.90824000E-01	 1.22226000E+00	-1.36022000E-01
					-1.68876000E-01	 1.08568000E+00	-2.66921000E-01
					-2.35561000E-01	 1.50619000E+00	 4.41353000E-02
					-2.33992000E-01	 1.50671000E+00	-2.37933000E-01
					-2.35446000E-01	 1.50693000E+00	-6.37268000E-14
					-2.35331000E-01	 1.50767000E+00	-2.82480000E-01
					-2.13210000E-01	 1.36204000E+00	 4.36135000E-02
					-2.34801000E-01	 1.50627000E+00	-9.57198000E-02
					-2.10456000E-01	 1.36294000E+00	-2.35107000E-01
					-2.35475000E-01	 1.50674000E+00	 2.19213000E-02
					-2.34632000E-01	 1.50737000E+00	-2.60630000E-01
					-2.13009000E-01	 1.36333000E+00	-5.97994000E-14
					-2.35417000E-01	 1.50712000E+00	-1.40303000E-01
					-2.12808000E-01	 1.36461000E+00	-2.79140000E-01
					-2.80665000E-01	 1.79700000E+00	 4.43307000E-02
					-2.81391000E-01	 1.79679000E+00	-2.39005000E-01
					-2.80716000E-01	 1.79667000E+00	-7.25808000E-14
					-2.80767000E-01	 1.79635000E+00	-2.83730000E-01
					-2.58093000E-01	 1.65147000E+00	 4.43696000E-02
					-2.81011000E-01	 1.79698000E+00	-9.62085000E-02
					-2.57682000E-01	 1.65163000E+00	-2.39206000E-01
					-2.80704000E-01	 1.79675000E+00	 2.20252000E-02
					-2.81092000E-01	 1.79648000E+00	-2.61774000E-01
					-2.58061000E-01	 1.65167000E+00	-6.83620000E-14
					-2.80728000E-01	 1.79660000E+00	-1.40968000E-01
					-2.58030000E-01	 1.65188000E+00	-2.83980000E-01
					-3.25381000E-01	 2.08522000E+00	 4.34418000E-02
					-3.28295000E-01	 2.08432000E+00	-2.34225000E-01
					-3.25590000E-01	 2.08388000E+00	-7.84373000E-14
					-3.25799000E-01	 2.08254000E+00	-2.78041000E-01
					-3.03140000E-01	 1.94186000E+00	 4.40164000E-02
					-3.26780000E-01	 2.08511000E+00	-9.43219000E-02
					-3.04972000E-01	 1.94131000E+00	-2.37318000E-01
					-3.25539000E-01	 2.08421000E+00	 2.15880000E-02
					-3.27099000E-01	 2.08309000E+00	-2.56518000E-01
					-3.03270000E-01	 1.94102000E+00	-7.62168000E-14
					-3.25642000E-01	 2.08355000E+00	-1.38170000E-01
					-3.03401000E-01	 1.94019000E+00	-2.81719000E-01
					-3.68647000E-01	 2.36404000E+00	 4.15250000E-02
					-3.73623000E-01	 2.36249000E+00	-2.23898000E-01
					-3.69005000E-01	 2.36175000E+00	-8.69027000E-14
					-3.69363000E-01	 2.35946000E+00	-2.65773000E-01
					-3.47260000E-01	 2.22621000E+00	 4.26061000E-02
					-3.71039000E-01	 2.36384000E+00	-9.01840000E-02
					-3.51219000E-01	 2.22498000E+00	-2.29724000E-01
					-3.68917000E-01	 2.36232000E+00	 2.06380000E-02
					-3.71583000E-01	 2.36039000E+00	-2.45196000E-01
					-3.47544000E-01	 2.22439000E+00	-8.23230000E-14
					-3.69094000E-01	 2.36118000E+00	-1.32090000E-01
					-3.47829000E-01	 2.22257000E+00	-2.72693000E-01
					-4.09460000E-01	 2.62704000E+00	 3.86452000E-02
					-4.16356000E-01	 2.62487000E+00	-2.08372000E-01
					-4.09957000E-01	 2.62386000E+00	-9.68114000E-14
					-4.10454000E-01	 2.62068000E+00	-2.47341000E-01
					-3.89420000E-01	 2.49790000E+00	 4.01994000E-02
					-4.12777000E-01	 2.62676000E+00	-8.39368000E-02
					-3.95372000E-01	 2.49604000E+00	-2.16752000E-01
					-4.09834000E-01	 2.62465000E+00	 1.92075000E-02
					-4.13529000E-01	 2.62197000E+00	-2.28190000E-01
					-3.89849000E-01	 2.49516000E+00	-9.20652000E-14
					-4.10081000E-01	 2.62307000E+00	-1.22934000E-01
					-3.90278000E-01	 2.49241000E+00	-2.57289000E-01
					-4.46889000E-01	 2.86822000E+00	 3.48749000E-02
					-4.55546000E-01	 2.86550000E+00	-1.88041000E-01
					-4.47513000E-01	 2.86423000E+00	-1.04666000E-13
					-4.48137000E-01	 2.86023000E+00	-2.23211000E-01
					-4.28653000E-01	 2.75071000E+00	 3.68649000E-02
					-4.51053000E-01	 2.86787000E+00	-7.57395000E-02
					-4.36447000E-01	 2.74826000E+00	-1.98773000E-01
					-4.47358000E-01	 2.86522000E+00	 1.73327000E-02
					-4.51998000E-01	 2.86186000E+00	-2.05929000E-01
					-4.29215000E-01	 2.74711000E+00	-1.01058000E-13
					-4.47669000E-01	 2.86324000E+00	-1.10935000E-01
					-4.29777000E-01	 2.74352000E+00	-2.35947000E-01
					-4.80076000E-01	 3.08210000E+00	 3.02943000E-02
					-4.90322000E-01	 3.07888000E+00	-1.63336000E-01
					-4.80815000E-01	 3.07737000E+00	-1.12355000E-13
					-4.81555000E-01	 3.07264000E+00	-1.93893000E-01
					-4.64063000E-01	 2.97889000E+00	 3.26792000E-02
					-4.85006000E-01	 3.08168000E+00	-6.57674000E-02
					-4.73533000E-01	 2.97592000E+00	-1.76199000E-01
					-4.80632000E-01	 3.07855000E+00	 1.50536000E-02
					-4.86123000E-01	 3.07456000E+00	-1.78885000E-01
					-4.64746000E-01	 2.97452000E+00	-1.08746000E-13
					-4.81000000E-01	 3.07620000E+00	-9.63480000E-02
					-4.65429000E-01	 2.97015000E+00	-2.09157000E-01
					-5.08251000E-01	 3.26373000E+00	 2.49900000E-02
					-5.19900000E-01	 3.26006000E+00	-1.34724000E-01
					-5.09092000E-01	 3.25835000E+00	-1.21680000E-13
					-5.09932000E-01	 3.25297000E+00	-1.59944000E-01
					-4.94835000E-01	 3.17723000E+00	 2.77257000E-02
					-5.13856000E-01	 3.26325000E+00	-5.42100000E-02
					-5.05803000E-01	 3.17378000E+00	-1.49481000E-01
					-5.08883000E-01	 3.25969000E+00	 1.24134000E-02
					-5.15126000E-01	 3.25515000E+00	-1.47571000E-01
					-4.95626000E-01	 3.17216000E+00	-1.16629000E-13
					-5.09301000E-01	 3.25701000E+00	-7.94498000E-02
					-4.96418000E-01	 3.16710000E+00	-1.77453000E-01
					-5.30731000E-01	 3.40873000E+00	 1.90545000E-02
					-5.43586000E-01	 3.40467000E+00	-1.02706000E-01
					-5.31659000E-01	 3.40279000E+00	-1.28286000E-13
					-5.32587000E-01	 3.39685000E+00	-1.21955000E-01
					-5.20242000E-01	 3.34105000E+00	 2.20941000E-02
					-5.36918000E-01	 3.40819000E+00	-4.12699000E-02
					-5.32515000E-01	 3.33718000E+00	-1.19103000E-01
					-5.31429000E-01	 3.40427000E+00	 9.45823000E-03
					-5.38319000E-01	 3.39926000E+00	-1.12531000E-01
					-5.21127000E-01	 3.33538000E+00	-1.25844000E-13
					-5.31891000E-01	 3.40131000E+00	-6.05357000E-02
					-5.22013000E-01	 3.32971000E+00	-1.41409000E-01
					-5.46931000E-01	 3.51334000E+00	 1.25852000E-02
					-5.60788000E-01	 3.50897000E+00	-6.78063000E-02
					-5.47931000E-01	 3.50694000E+00	-1.32061000E-13
					-5.48932000E-01	 3.50053000E+00	-8.05490000E-02
					-5.39649000E-01	 3.46629000E+00	 1.58795000E-02
					-5.53600000E-01	 3.51276000E+00	-2.71594000E-02
					-5.53027000E-01	 3.46207000E+00	-8.55780000E-02
					-5.47683000E-01	 3.50853000E+00	 6.23656000E-03
					-5.55110000E-01	 3.50314000E+00	-7.43399000E-02
					-5.40614000E-01	 3.46010000E+00	-1.29341000E-13
					-5.48181000E-01	 3.50535000E+00	-3.99160000E-02
					-5.41580000E-01	 3.45392000E+00	-1.01634000E-01
					-5.56365000E-01	 3.57445000E+00	 5.68280000E-03
					-5.71011000E-01	 3.56983000E+00	-3.05689000E-02
					-5.57423000E-01	 3.56768000E+00	-1.37335000E-13
					-5.58480000E-01	 3.56091000E+00	-3.63717000E-02
					-5.52520000E-01	 3.54950000E+00	 9.18099000E-03
					-5.63414000E-01	 3.57384000E+00	-1.20993000E-02
					-5.66795000E-01	 3.54499000E+00	-4.94413000E-02
					-5.57160000E-01	 3.56937000E+00	 2.79871000E-03
					-5.65010000E-01	 3.56366000E+00	-3.35938000E-02
					-5.53550000E-01	 3.54290000E+00	-1.35281000E-13
					-5.57686000E-01	 3.56600000E+00	-1.79126000E-02
					-5.54581000E-01	 3.53630000E+00	-5.87612000E-02
					-5.58650000E-01	 3.58961000E+00	-1.54918000E-03
					-5.73871000E-01	 3.58480000E+00	 8.44814000E-03
					-5.59749000E-01	 3.58257000E+00	-1.42664000E-13
					-5.60849000E-01	 3.57554000E+00	 9.91523000E-03
					-5.58421000E-01	 3.58790000E+00	 2.10100000E-03
					-5.65976000E-01	 3.58897000E+00	 3.68463000E-03
					-5.73378000E-01	 3.58318000E+00	-1.12450000E-02
					-5.59476000E-01	 3.58433000E+00	-8.03802000E-04
					-5.67635000E-01	 3.57840000E+00	 9.09725000E-03
					-5.59501000E-01	 3.58098000E+00	-1.39555000E-13
					-5.60024000E-01	 3.58083000E+00	 5.14459000E-03
					-5.60581000E-01	 3.57407000E+00	-1.34471000E-02
					-5.53509000E-01	 3.55704000E+00	-9.00629000E-03
					-5.69088000E-01	 3.55211000E+00	 4.86810000E-02
					-5.54634000E-01	 3.54983000E+00	-1.49658000E-13
					-5.55759000E-01	 3.54263000E+00	 5.76431000E-02
					-5.57021000E-01	 3.57937000E+00	-5.25642000E-03
					-5.61007000E-01	 3.55638000E+00	 1.99642000E-02
					-5.72444000E-01	 3.57450000E+00	 2.84494000E-02
					-5.54355000E-01	 3.55163000E+00	-4.51891000E-03
					-5.62705000E-01	 3.54556000E+00	 5.31166000E-02
					-5.58134000E-01	 3.57224000E+00	-1.46883000E-13
					-5.54915000E-01	 3.54805000E+00	 2.89225000E-02
					-5.59249000E-01	 3.56511000E+00	 3.36427000E-02
					-5.40769000E-01	 3.47563000E+00	-1.65843000E-02
					-5.56491000E-01	 3.47066000E+00	 8.95673000E-02
					-5.41905000E-01	 3.46836000E+00	-1.51712000E-13
					-5.43040000E-01	 3.46109000E+00	 1.06145000E-01
					-5.48096000E-01	 3.52247000E+00	-1.27867000E-02
					-5.48337000E-01	 3.47497000E+00	 3.65118000E-02
					-5.63769000E-01	 3.51753000E+00	 6.90778000E-02
					-5.41623000E-01	 3.47018000E+00	-8.29468000E-03
					-5.50050000E-01	 3.46405000E+00	 9.78489000E-02
					-5.49227000E-01	 3.51523000E+00	-1.50713000E-13
					-5.42188000E-01	 3.46656000E+00	 5.30886000E-02
					-5.50359000E-01	 3.50799000E+00	 8.18391000E-02
					-5.20363000E-01	 3.34496000E+00	-2.41805000E-02
					-5.36019000E-01	 3.34001000E+00	 1.30553000E-01
					-5.21494000E-01	 3.33773000E+00	-1.55986000E-13
					-5.22625000E-01	 3.33049000E+00	 1.54763000E-01
					-5.31524000E-01	 3.41645000E+00	-2.03863000E-02
					-5.27899000E-01	 3.34431000E+00	 5.31034000E-02
					-5.47236000E-01	 3.41149000E+00	 1.10081000E-01
					-5.21213000E-01	 3.33953000E+00	-1.20800000E-02
					-5.29605000E-01	 3.33343000E+00	 1.42688000E-01
					-5.32659000E-01	 3.40919000E+00	-1.53821000E-13
					-5.21776000E-01	 3.33593000E+00	 7.73158000E-02
					-5.33794000E-01	 3.40193000E+00	 1.30479000E-01
					-4.92324000E-01	 3.16527000E+00	-3.16956000E-02
					-5.07714000E-01	 3.16040000E+00	 1.71102000E-01
					-4.93436000E-01	 3.15815000E+00	-1.58928000E-13
					-4.94548000E-01	 3.15103000E+00	 2.02862000E-01
					-5.07292000E-01	 3.26120000E+00	-2.79540000E-02
					-4.99733000E-01	 3.16462000E+00	 6.95217000E-02
					-5.22835000E-01	 3.25629000E+00	 1.50914000E-01
					-4.93160000E-01	 3.15992000E+00	-1.58253000E-02
					-5.01409000E-01	 3.15393000E+00	 1.87048000E-01
					-5.08414000E-01	 3.25401000E+00	-1.57596000E-13
					-4.93714000E-01	 3.15638000E+00	 1.01287000E-01
					-5.09537000E-01	 3.24683000E+00	 1.78914000E-01
					-4.56787000E-01	 2.93739000E+00	-3.90343000E-02
					-4.71718000E-01	 2.93267000E+00	 2.10702000E-01
					-4.57866000E-01	 2.93049000E+00	-1.62093000E-13
					-4.58945000E-01	 2.92358000E+00	 2.49832000E-01
					-4.75481000E-01	 3.05727000E+00	-3.53922000E-02
					-4.63975000E-01	 2.93677000E+00	 8.55596000E-02
					-4.90661000E-01	 3.05247000E+00	 1.91049000E-01
					-4.57598000E-01	 2.93221000E+00	-1.94832000E-02
					-4.65601000E-01	 2.92639000E+00	 2.30366000E-01
					-4.76578000E-01	 3.05025000E+00	-1.60427000E-13
					-4.58135000E-01	 2.92877000E+00	 1.24698000E-01
					-4.77675000E-01	 3.04323000E+00	 2.26521000E-01
					-4.13977000E-01	 2.66281000E+00	-4.61078000E-02
					-4.28273000E-01	 2.65828000E+00	 2.48871000E-01
					-4.15010000E-01	 2.65619000E+00	-1.63869000E-13
					-4.16043000E-01	 2.64958000E+00	 2.95105000E-01
					-4.36274000E-01	 2.80582000E+00	-4.26089000E-02
					-4.20859000E-01	 2.66220000E+00	 1.01023000E-01
					-4.50905000E-01	 2.80120000E+00	 2.29990000E-01
					-4.14753000E-01	 2.65785000E+00	-2.30094000E-02
					-4.22416000E-01	 2.65227000E+00	 2.72117000E-01
					-4.37330000E-01	 2.79905000E+00	-1.62537000E-13
					-4.15268000E-01	 2.65455000E+00	 1.47267000E-01
					-4.38388000E-01	 2.79229000E+00	 2.72710000E-01
					-3.64206000E-01	 2.34352000E+00	-5.28342000E-02
					-3.77706000E-01	 2.33925000E+00	 2.85169000E-01
					-3.65181000E-01	 2.33728000E+00	-1.64757000E-13
					-3.66157000E-01	 2.33103000E+00	 3.38156000E-01
					-3.89939000E-01	 2.50860000E+00	-4.95184000E-02
					-3.70706000E-01	 2.34295000E+00	 1.15733000E-01
					-4.03853000E-01	 2.50420000E+00	 2.67275000E-01
					-3.64939000E-01	 2.33884000E+00	-2.63631000E-02
					-3.72176000E-01	 2.33357000E+00	 3.11819000E-01
					-3.90944000E-01	 2.50216000E+00	-1.64480000E-13
					-3.65425000E-01	 2.33572000E+00	 1.68732000E-01
					-3.91950000E-01	 2.49573000E+00	 3.16933000E-01
					-3.07865000E-01	 1.98206000E+00	-5.91403000E-02
					-3.20428000E-01	 1.97808000E+00	 3.19202000E-01
					-3.08773000E-01	 1.97625000E+00	-1.66978000E-13
					-3.09682000E-01	 1.97043000E+00	 3.78517000E-01
					-3.36829000E-01	 2.16789000E+00	-5.60430000E-02
					-3.13914000E-01	 1.98153000E+00	 1.29530000E-01
					-3.49875000E-01	 2.16376000E+00	 3.02486000E-01
					-3.08547000E-01	 1.97770000E+00	-2.95081000E-02
					-3.15282000E-01	 1.97280000E+00	 3.49040000E-01
					-3.37772000E-01	 2.16185000E+00	-1.65756000E-13
					-3.09000000E-01	 1.97480000E+00	 1.88861000E-01
					-3.38715000E-01	 2.15581000E+00	 3.58693000E-01
					-2.45414000E-01	 1.58138000E+00	-6.49631000E-02
					-2.56921000E-01	 1.57773000E+00	 3.50627000E-01
					-2.46247000E-01	 1.57606000E+00	-1.67644000E-13
					-2.47079000E-01	 1.57073000E+00	 4.15785000E-01
					-2.77372000E-01	 1.78642000E+00	-6.21146000E-02
					-2.50956000E-01	 1.58089000E+00	 1.42278000E-01
					-2.89419000E-01	 1.78260000E+00	 3.35253000E-01
					-2.46039000E-01	 1.57739000E+00	-3.24128000E-02
					-2.52208000E-01	 1.57290000E+00	 3.83406000E-01
					-2.78243000E-01	 1.78084000E+00	-1.67644000E-13
					-2.46455000E-01	 1.57473000E+00	 2.07452000E-01
					-2.79114000E-01	 1.77527000E+00	 3.97553000E-01
					-1.77373000E-01	 1.14483000E+00	-7.02504000E-02
					-1.87728000E-01	 1.14155000E+00	 3.79166000E-01
					-1.78122000E-01	 1.14004000E+00	-1.66367000E-13
					-1.78871000E-01	 1.13524000E+00	 4.49625000E-01
					-2.12058000E-01	 1.36737000E+00	-6.76753000E-02
					-1.82360000E-01	 1.14439000E+00	 1.53862000E-01
					-2.22998000E-01	 1.36390000E+00	 3.65266000E-01
					-1.77936000E-01	 1.14124000E+00	-3.50513000E-02
					-1.83487000E-01	 1.13719000E+00	 4.14610000E-01
					-2.12849000E-01	 1.36230000E+00	-1.66755000E-13
					-1.78309000E-01	 1.13884000E+00	 2.24339000E-01
					-2.13641000E-01	 1.35724000E+00	 4.33143000E-01
					-1.04306000E-01	 6.76056000E-01	-7.49622000E-02
					-1.13440000E-01	 6.73153000E-01	 4.04602000E-01
					-1.04967000E-01	 6.71825000E-01	-1.67089000E-13
					-1.05629000E-01	 6.67593000E-01	 4.79782000E-01
					-1.41431000E-01	 9.14235000E-01	-7.26790000E-02
					-1.08706000E-01	 6.75664000E-01	 1.64196000E-01
					-1.51182000E-01	 9.11139000E-01	 3.92275000E-01
					-1.04802000E-01	 6.72882000E-01	-3.74038000E-02
					-1.09700000E-01	 6.69313000E-01	 4.42417000E-01
					-1.42137000E-01	 9.09719000E-01	-1.66700000E-13
					-1.05133000E-01	 6.70769000E-01	 2.39396000E-01
					-1.42842000E-01	 9.05204000E-01	 4.65169000E-01
					-2.68132000E-02	 1.78912000E-01	-7.90719000E-02
					-3.46854000E-02	 1.76405000E-01	 4.26791000E-01
					-2.73834000E-02	 1.75263000E-01	-1.66478000E-13
					-2.79537000E-02	 1.71613000E-01	 5.06086000E-01
					-6.60746000E-02	 4.30782000E-01	-7.70922000E-02
					-3.06062000E-02	 1.78571000E-01	 1.73223000E-01