<?xml version="1.0"?>
<VTKFile type="UnstructuredGrid" version="0.1" byte_order="LittleEndian">
	<UnstructuredGrid>
		<Piece NumberOfPoints="321" NumberOfCells="40">
			<Points>
				<DataArray type="Float64" NumberOfComponents="3" format="ascii">
					 1.00000000E-02	 1.00000000E-02	 0.00000000E+00
					 1.00000000E-02	 5.00000000E-03	 0.00000000E+00
					 1.00000000E-02	 5.00000000E-03	 1.00000000E-02
					 1.00000000E-02	 1.00000000E-02	 1.00000000E-02
					 5.00000000E-03	 1.00000000E-02	 0.00000000E+00
					 5.00000000E-03	 5.00000000E-03	 0.00000000E+00
					 5.00000000E-03	 5.00000000E-03	 1.00000000E-02
					 5.00000000E-03	 1.00000000E-02	 1.00000000E-02
					 1.00000000E-02	 7.50000000E-03	 0.00000000E+00
					 1.00000000E-02	 5.00000000E-03	 5.00000000E-03
					 1.00000000E-02	 7.50000000E-03	 1.00000000E-02
					 1.00000000E-02	 1.00000000E-02	 5.00000000E-03
					 7.50000000E-03	 1.00000000E-02	 0.00000000E+00
					 7.50000000E-03	 5.00000000E-03	 0.00000000E+00
					 7.50000000E-03	 5.00000000E-03	 1.00000000E-02
					 7.50000000E-03	 1.00000000E-02	 1.00000000E-02
					 5.00000000E-03	 7.50000000E-03	 0.00000000E+00
					 5.00000000E-03	 5.00000000E-03	 5.00000000E-03
					 5.00000000E-03	 7.50000000E-03	 1.00000000E-02
					 5.00000000E-03	 1.00000000E-02	 5.00000000E-03
					 1.00000000E-02	 5.00000000E-03	 2.00000000E-02
					 1.00000000E-02	 1.00000000E-02	 2.00000000E-02
					 5.00000000E-03	 5.00000000E-03	 2.00000000E-02
					 5.00000000E-03	 1.00000000E-02	 2.00000000E-02
					 1.00000000E-02	 5.00000000E-03	 1.50000000E-02
					 1.00000000E-02	 7.50000000E-03	 2.00000000E-02
					 1.00000000E-02	 1.00000000E-02	 1.50000000E-02
					 7.50000000E-03	 5.00000000E-03	 2.00000000E-02
					 7.50000000E-03	 1.00000000E-02	 2.00000000E-02
					 5.00000000E-03	 5.00000000E-03	 1.50000000E-02
					 5.00000000E-03	 7.50000000E-03	 2.00000000E-02
					 5.00000000E-03	 1.00000000E-02	 1.50000000E-02
					 1.00000000E-02	 5.00000000E-03	 3.00000000E-02
					 1.00000000E-02	 1.00000000E-02	 3.00000000E-02
					 5.00000000E-03	 5.00000000E-03	 3.00000000E-02
					 5.00000000E-03	 1.00000000E-02	 3.00000000E-02
					 1.00000000E-02	 5.00000000E-03	 2.50000000E-02
					 1.00000000E-02	 7.50000000E-03	 3.00000000E-02
					 1.00000000E-02	 1.00000000E-02	 2.50000000E-02
					 7.50000000E-03	 5.00000000E-03	 3.00000000E-02
					 7.50000000E-03	 1.00000000E-02	 3.00000000E-02
					 5.00000000E-03	 5.00000000E-03	 2.50000000E-02
					 5.00000000E-03	 7.50000000E-03	 3.00000000E-02
					 5.00000000E-03	 1.00000000E-02	 2.50000000E-02
					 1.00000000E-02	 5.00000000E-03	 4.00000000E-02
					 1.00000000E-02	 1.00000000E-02	 4.00000000E-02
					 5.00000000E-03	 5.00000000E-03	 4.00000000E-02
					 5.00000000E-03	 1.00000000E-02	 4.00000000E-02
					 1.00000000E-02	 5.00000000E-03	 3.50000000E-02
					 1.00000000E-02	 7.50000000E-03	 4.00000000E-02
					 1.00000000E-02	 1.00000000E-02	 3.50000000E-02
					 7.50000000E-03	 5.00000000E-03	 4.00000000E-02
					 7.50000000E-03	 1.00000000E-02	 4.00000000E-02
					 5.00000000E-03	 5.00000000E-03	 3.50000000E-02
					 5.00000000E-03	 7.50000000E-03	 4.00000000E-02
					 5.00000000E-03	 1.00000000E-02	 3.50000000E-02
					 1.00000000E-02	 5.00000000E-03	 5.00000000E-02
					 1.00000000E-02	 1.00000000E-02	 5.00000000E-02
					 5.00000000E-03	 5.00000000E-03	 5.00000000E-02
					 5.00000000E-03	 1.00000000E-02	 5.00000000E-02
					 1.00000000E-02	 5.00000000E-03	 4.50000000E-02
					 1.00000000E-02	 7.50000000E-03	 5.00000000E-02
					 1.00000000E-02	 1.00000000E-02	 4.50000000E-02
					 7.50000000E-03	 5.00000000E-03	 5.00000000E-02
					 7.50000000E-03	 1.00000000E-02	 5.00000000E-02
					 5.00000000E-03	 5.00000000E-03	 4.50000000E-02
					 5.00000000E-03	 7.50000000E-03	 5.00000000E-02
					 5.00000000E-03	 1.00000000E-02	 4.50000000E-02
					 1.00000000E-02	 5.00000000E-03	 6.00000000E-02
					 1.00000000E-02	 1.00000000E-02	 6.00000000E-02
					 5.00000000E-03	 5.00000000E-03	 6.00000000E-02
					 5.00000000E-03	 1.00000000E-02	 6.00000000E-02
					 1.00000000E-02	 5.00000000E-03	 5.50000000E-02
					 1.00000000E-02	 7.50000000E-03	 6.00000000E-02
					 1.00000000E-02	 1.00000000E-02	 5.50000000E-02
					 7.50000000E-03	 5.00000000E-03	 6.00000000E-02
					 7.50000000E-03	 1.00000000E-02	 6.00000000E-02
					 5.00000000E-03	 5.00000000E-03	 5.50000000E-02
					 5.00000000E-03	 7.50000000E-03	 6.00000000E-02
					 5.00000000E-03	 1.00000000E-02	 5.50000000E-02
					 1.00000000E-02	 5.00000000E-03	 7.00000000E-02
					 1.00000000E-02	 1.00000000E-02	 7.00000000E-02
					 5.00000000E-03	 5.00000000E-03	 7.00000000E-02
					 5.00000000E-03	 1.00000000E-02	 7.00000000E-02
					 1.00000000E-02	 5.00000000E-03	 6.50000000E-02
					 1.00000000E-02	 7.50000000E-03	 7.00000000E-02
					 1.00000000E-02	 1.00000000E-02	 6.50000000E-02
					 7.50000000E-03	 5.00000000E-03	 7.00000000E-02
					 7.50000000E-03	 1.00000000E-02	 7.00000000E-02
					 5.00000000E-03	 5.00000000E-03	 6.50000000E-02
					 5.00000000E-03	 7.50000000E-03	 7.00000000E-02
					 5.00000000E-03	 1.00000000E-02	 6.50000000E-02
					 1.00000000E-02	 5.00000000E-03	 8.00000000E-02
					 1.00000000E-02	 1.00000000E-02	 8.00000000E-02
					 5.00000000E-03	 5.00000000E-03	 8.00000000E-02
					 5.00000000E-03	 1.00000000E-02	 8.00000000E-02
					 1.00000000E-02	 5.00000000E-03	 7.50000000E-02
					 1.00000000E-02	 7.50000000E-03	 8.00000000E-02
					 1.00000000E-02	 1.00000000E-02	 7.50000000E-02
					 7.50000000E-03	 5.00000000E-03	 8.00000000E-02
					 7.50000000E-03	 1.00000000E-02	 8.00000000E-02
					 5.00000000E-03	 5.00000000E-03	 7.50000000E-02
					 5.00000000E-03	 7.50000000E-03	 8.00000000E-02
					 5.00000000E-03	 1.00000000E-02	 7.50000000E-02
					 1.00000000E-02	 5.00000000E-03	 9.00000000E-02
					 1.00000000E-02	 1.00000000E-02	 9.00000000E-02
					 5.00000000E-03	 5.00000000E-03	 9.00000000E-02
					 5.00000000E-03	 1.00000000E-02	 9.00000000E-02
					 1.00000000E-02	 5.00000000E-03	 8.50000000E-02
					 1.00000000E-02	 7.50000000E-03	 9.00000000E-02
					 1.00000000E-02	 1.00000000E-02	 8.50000000E-02
					 7.50000000E-03	 5.00000000E-03	 9.00000000E-02
					 7.50000000E-03	 1.00000000E-02	 9.00000000E-02
					 5.00000000E-03	 5.00000000E-03	 8.50000000E-02
					 5.00000000E-03	 7.50000000E-03	 9.00000000E-02
					 5.00000000E-03	 1.00000000E-02	 8.50000000E-02
					 1.00000000E-02	 5.00000000E-03	 1.00000000E-01
					 1.00000000E-02	 1.00000000E-02	 1.00000000E-01
					 5.00000000E-03	 5.00000000E-03	 1.00000000E-01
					 5.00000000E-03	 1.00000000E-02	 1.00000000E-01
					 1.00000000E-02	 5.00000000E-03	 9.50000000E-02
					 1.00000000E-02	 7.50000000E-03	 1.00000000E-01
					 1.00000000E-02	 1.00000000E-02	 9.50000000E-02
					 7.50000000E-03	 5.00000000E-03	 1.00000000E-01
					 7.50000000E-03	 1.00000000E-02	 1.00000000E-01
					 5.00000000E-03	 5.00000000E-03	 9.50000000E-02
					 5.00000000E-03	 7.50000000E-03	 1.00000000E-01
					 5.00000000E-03	 1.00000000E-02	 9.50000000E-02
					 0.00000000E+00	 1.00000000E-02	 0.00000000E+00
					 0.00000000E+00	 5.00000000E-03	 0.00000000E+00
					 0.00000000E+00	 5.00000000E-03	 1.00000000E-02
					 0.00000000E+00	 1.00000000E-02	 1.00000000E-02
					 2.50000000E-03	 1.00000000E-02	 0.00000000E+00
					 2.50000000E-03	 5.00000000E-03	 0.00000000E+00
					 2.50000000E-03	 5.00000000E-03	 1.00000000E-02
					 2.50000000E-03	 1.00000000E-02	 1.00000000E-02
					 0.00000000E+00	 7.50000000E-03	 0.00000000E+00
					 0.00000000E+00	 5.00000000E-03	 5.00000000E-03
					 0.00000000E+00	 7.50000000E-03	 1.00000000E-02
					 0.00000000E+00	 1.00000000E-02	 5.00000000E-03
					 0.00000000E+00	 5.00000000E-03	 2.00000000E-02
					 0.00000000E+00	 1.00000000E-02	 2.00000000E-02
					 2.50000000E-03	 5.00000000E-03	 2.00000000E-02
					 2.50000000E-03	 1.00000000E-02	 2.00000000E-02
					 0.00000000E+00	 5.00000000E-03	 1.50000000E-02
					 0.00000000E+00	 7.50000000E-03	 2.00000000E-02
					 0.00000000E+00	 1.00000000E-02	 1.50000000E-02
					 0.00000000E+00	 5.00000000E-03	 3.00000000E-02
					 0.00000000E+00	 1.00000000E-02	 3.00000000E-02
					 2.50000000E-03	 5.00000000E-03	 3.00000000E-02
					 2.50000000E-03	 1.00000000E-02	 3.00000000E-02
					 0.00000000E+00	 5.00000000E-03	 2.50000000E-02
					 0.00000000E+00	 7.50000000E-03	 3.00000000E-02
					 0.00000000E+00	 1.00000000E-02	 2.50000000E-02
					 0.00000000E+00	 5.00000000E-03	 4.00000000E-02
					 0.00000000E+00	 1.00000000E-02	 4.00000000E-02
					 2.50000000E-03	 5.00000000E-03	 4.00000000E-02
					 2.50000000E-03	 1.00000000E-02	 4.00000000E-02
					 0.00000000E+00	 5.00000000E-03	 3.50000000E-02
					 0.00000000E+00	 7.50000000E-03	 4.00000000E-02
					 0.00000000E+00	 1.00000000E-02	 3.50000000E-02
					 0.00000000E+00	 5.00000000E-03	 5.00000000E-02
					 0.00000000E+00	 1.00000000E-02	 5.00000000E-02
					 2.50000000E-03	 5.00000000E-03	 5.00000000E-02
					 2.50000000E-03	 1.00000000E-02	 5.00000000E-02
					 0.00000000E+00	 5.00000000E-03	 4.50000000E-02
					 0.00000000E+00	 7.50000000E-03	 5.00000000E-02
					 0.00000000E+00	 1.00000000E-02	 4.50000000E-02
					 0.00000000E+00	 5.00000000E-03	 6.00000000E-02
					 0.00000000E+00	 1.00000000E-02	 6.00000000E-02
					 2.50000000E-03	 5.00000000E-03	 6.00000000E-02
					 2.50000000E-03	 1.00000000E-02	 6.00000000E-02
					 0.00000000E+00	 5.00000000E-03	 5.50000000E-02
					 0.00000000E+00	 7.50000000E-03	 6.00000000E-02
					 0.00000000E+00	 1.00000000E-02	 5.50000000E-02
					 0.00000000E+00	 5.00000000E-03	 7.00000000E-02
					 0.00000000E+00	 1.00000000E-02	 7.00000000E-02
					 2.50000000E-03	 5.00000000E-03	 7.00000000E-02
					 2.50000000E-03	 1.00000000E-02	 7.00000000E-02
					 0.00000000E+00	 5.00000000E-03	 6.50000000E-02
					 0.00000000E+00	 7.50000000E-03	 7.00000000E-02
					 0.00000000E+00	 1.00000000E-02	 6.50000000E-02
					 0.00000000E+00	 5.00000000E-03	 8.00000000E-02
					 0.00000000E+00	 1.00000000E-02	 8.00000000E-02
[...]
			<PointData>
				<DataArray type="Float32" Name="U" NumberOfComponents="3" ComponentName0="D1" ComponentName1="D2" ComponentName2="D3" format="ascii">
					 0.00000000E+00	 0.00000000E+00	 0.00000000E+00
					 0.00000000E+00	 0.00000000E+00	 0.00000000E+00
					 3.13083000E-14	-9.22319000E-01	-1.93734000E-14
					 9.15782000E-01	-9.15782000E-01	-9.72555000E-14
					 0.00000000E+00	 0.00000000E+00	 0.00000000E+00
					 0.00000000E+00	 0.00000000E+00	 0.00000000E+00
					 3.10862000E-14	 8.61533000E-14	-1.11022000E-15
					 9.22319000E-01	 9.14824000E-14	-7.99361000E-14
					 0.00000000E+00	 0.00000000E+00	 0.00000000E+00
					 1.25455000E-14	-4.48409000E-01	-1.15741000E-14
					 4.59843000E-01	-9.18464000E-01	-8.53654000E-02
					 4.30322000E-01	-4.30322000E-01	-5.05151000E-14
					 0.00000000E+00	 0.00000000E+00	 0.00000000E+00
					 0.00000000E+00	 0.00000000E+00	 0.00000000E+00
					 3.01981000E-14	-4.60062000E-01	-9.21485000E-15
					 9.18464000E-01	-4.59843000E-01	 8.53654000E-02
					 0.00000000E+00	 0.00000000E+00	 0.00000000E+00
					 1.11022000E-14	 2.19269000E-14	-2.77556000E-16
					 4.60062000E-01	 8.61533000E-14	-3.97460000E-14
					 4.48409000E-01	 2.87548000E-14	-3.86358000E-14
					 7.63833000E-14	-1.88138000E+00	-1.77636000E-14
					 1.88370000E+00	-1.88370000E+00	-1.59206000E-13
					 7.68274000E-14	 3.21521000E-13	-2.22045000E-15
					 1.88138000E+00	 3.26850000E-13	-1.45439000E-13
					 5.41789000E-14	-1.40787000E+00	-2.04281000E-14
					 9.40800000E-01	-1.88288000E+00	-6.40362000E-02
					 1.41189000E+00	-1.41189000E+00	-1.33005000E-13
					 7.81597000E-14	-9.41298000E-01	-8.88178000E-15
					 1.88288000E+00	-9.40800000E-01	 6.40362000E-02
					 5.37348000E-14	 1.86962000E-13	-8.88178000E-16
					 9.41298000E-01	 3.23297000E-13	-7.21645000E-14
					 1.40787000E+00	 1.92291000E-13	-1.13687000E-13
					 1.01807000E-13	-2.78416000E+00	-8.88178000E-16
					 2.78471000E+00	-2.78471000E+00	-1.66978000E-13
					 1.01252000E-13	 6.63691000E-13	-4.44089000E-16
					 2.78416000E+00	 6.65801000E-13	-1.66755000E-13
					 9.23706000E-14	-2.33955000E+00	-1.24345000E-14
					 1.39249000E+00	-2.78438000E+00	-6.37970000E-02
					 2.34000000E+00	-2.34000000E+00	-1.70974000E-13
					 1.00586000E-13	-1.39199000E+00	-8.88178000E-16
					 2.78438000E+00	-1.39249000E+00	 6.37970000E-02
					 9.19265000E-14	 4.87832000E-13	-1.77636000E-15
					 1.39199000E+00	 6.63025000E-13	-8.39329000E-14
					 2.33955000E+00	 4.88720000E-13	-1.62981000E-13
					 7.91034000E-14	-3.61947000E+00	 2.70894000E-14
					 3.62102000E+00	-3.62102000E+00	-1.27010000E-13
					 7.79654000E-14	 9.90985000E-13	-2.66454000E-15
					 3.61947000E+00	 9.83214000E-13	-1.55431000E-13
					 9.28424000E-14	-3.21189000E+00	 1.42109000E-14
					 1.81017000E+00	-3.62035000E+00	-5.72023000E-02
					 3.21320000E+00	-3.21320000E+00	-1.50102000E-13
					 7.79377000E-14	-1.80992000E+00	 1.24345000E-14
					 3.62035000E+00	-1.81017000E+00	 5.72023000E-02
					 9.36959000E-14	 8.28670000E-13	-8.88178000E-16
					 1.80992000E+00	 9.89431000E-13	-7.77156000E-14
					 3.21189000E+00	 8.30447000E-13	-1.65201000E-13
					-1.74305000E-14	-4.36461000E+00	 6.30607000E-14
					 4.36628000E+00	-4.36628000E+00	-5.50671000E-14
					-1.53211000E-14	 1.29008000E-12	 0.00000000E+00
					 4.36461000E+00	 1.28120000E-12	-1.18128000E-13
					 3.81917000E-14	-4.00448000E+00	 4.21885000E-14
					 2.18288000E+00	-4.36552000E+00	-5.01656000E-02
					 4.00606000E+00	-4.00606000E+00	-9.41469000E-14
					-1.67644000E-14	-2.18244000E+00	 2.97540000E-14
					 4.36552000E+00	-2.18288000E+00	 5.01656000E-02
					 4.05231000E-14	 1.15198000E-12	-1.77636000E-15
					 2.18244000E+00	 1.28297000E-12	-5.63993000E-14
					 4.00448000E+00	 1.14966000E-12	-1.40332000E-13
					-1.74444000E-13	-5.00130000E+00	 6.17284000E-14
					 5.00327000E+00	-5.00327000E+00	 1.42109000E-14
					-1.71474000E-13	 1.46860000E-12	 4.44089000E-16
					 5.00130000E+00	 1.46749000E-12	-4.35207000E-14
					-9.58122000E-14	-4.69757000E+00	 6.83897000E-14
					 2.50129000E+00	-5.00238000E+00	-4.16915000E-02
					 4.69941000E+00	-4.69941000E+00	-1.37668000E-14
					-1.75693000E-13	-2.50083000E+00	 2.93099000E-14
					 5.00238000E+00	-2.50129000E+00	 4.16915000E-02
					-9.76996000E-14	 1.39710000E-12	 0.00000000E+00
					 2.50083000E+00	 1.47349000E-12	-2.15383000E-14
					 4.69757000E+00	 1.39133000E-12	-8.26006000E-14
					-2.66454000E-13	-5.51371000E+00	 1.46549000E-14
					 5.51585000E+00	-5.51585000E+00	 6.56697000E-14
					-2.69340000E-13	 1.46327000E-12	-2.10942000E-15
					 5.51371000E+00	 1.45794000E-12	 4.83225000E-14
					-2.31037000E-13	-5.27391000E+00	 3.99680000E-14
					 2.75757000E+00	-5.51488000E+00	-3.22040000E-02
					 5.27599000E+00	-5.27599000E+00	 4.49640000E-14
					-2.68674000E-13	-2.75705000E+00	 6.32827000E-15
					 5.51488000E+00	-2.75757000E+00	 3.22040000E-02
					-2.33147000E-13	 1.49009000E-12	 0.00000000E+00
					 2.75705000E+00	 1.46061000E-12	 2.27596000E-14
					 5.27391000E+00	 1.48226000E-12	 2.99760000E-15
					-2.44915000E-13	-5.88911000E+00	-3.77476000E-14
					 5.89143000E+00	-5.89143000E+00	 9.61453000E-14
					-2.54241000E-13	 1.27276000E-12	 3.33067000E-16
					 5.88911000E+00	 1.26432000E-12	 1.26843000E-13
					-2.67564000E-13	-5.71919000E+00	-1.02834000E-14
					 2.94532000E+00	-5.89038000E+00	-2.19744000E-02
					 5.72143000E+00	-5.72143000E+00	 7.51621000E-14
					-2.45359000E-13	-2.94477000E+00	-1.77636000E-14
					 5.89038000E+00	-2.94532000E+00	 2.19744000E-02
					-2.69118000E-13	 1.39000000E-12	-1.94289000E-15
					 2.94477000E+00	 1.27098000E-12	 6.16035000E-14
					 5.71919000E+00	 1.37890000E-12	 8.74578000E-14
					-1.30729000E-13	-6.11798000E+00	-7.63833000E-14
					 6.12039000E+00	-6.12039000E+00	 9.17044000E-14
					-1.29619000E-13	 9.39998000E-13	-2.55351000E-15
					 6.11798000E+00	 9.31005000E-13	 1.67866000E-13
					-1.95621000E-13	-6.02232000E+00	-5.41789000E-14
					 3.05978000E+00	-6.11930000E+00	-1.09045000E-02
					 6.02474000E+00	-6.02474000E+00	 9.94760000E-14
					-1.34059000E-13	-3.05921000E+00	-3.81917000E-14
					 6.11930000E+00	-3.05978000E+00	 1.09045000E-02
					-1.97398000E-13	 1.11422000E-12	-1.11022000E-15
					 3.05921000E+00	 9.39415000E-13	 8.10185000E-14
					 6.02232000E+00	 1.11045000E-12	 1.58096000E-13
					 6.21725000E-14	-6.19544000E+00	-9.28146000E-14
					 6.19835000E+00	-6.19835000E+00	 6.08402000E-14
					 6.30607000E-14	 5.97300000E-13	-3.77476000E-15
					 6.19544000E+00	 5.92415000E-13	 1.72390000E-13
					-3.24185000E-14	-6.17594000E+00	-9.19265000E-14
					 3.09890000E+00	-6.19697000E+00	-9.22476000E-04
					 6.17802000E+00	-6.17802000E+00	 7.90479000E-14
					 6.30607000E-14	-3.09788000E+00	-4.88498000E-14
					 6.19697000E+00	-3.09890000E+00	 9.22476000E-04
					-3.50830000E-14	 7.68274000E-13	-2.22045000E-15
					 3.09788000E+00	 5.92415000E-13	 8.48766000E-14
					 6.17594000E+00	 7.66942000E-13	 1.68532000E-13
					 0.00000000E+00	 0.00000000E+00	 0.00000000E+00
					 0.00000000E+00	 0.00000000E+00	 0.00000000E+00
					 3.15303000E-14	 9.22319000E-01	 1.82077000E-14
					 9.15782000E-01	 9.15782000E-01	-6.03961000E-14
					 0.00000000E+00	 0.00000000E+00	 0.00000000E+00
					 0.00000000E+00	 0.00000000E+00	 0.00000000E+00
					 3.01981000E-14	 4.60062000E-01	 8.21565000E-15
					 9.18464000E-01	 4.59843000E-01	-8.53654000E-02
					 0.00000000E+00	 0.00000000E+00	 0.00000000E+00
					 1.24345000E-14	 4.48409000E-01	 1.02141000E-14
					 4.59843000E-01	 9.18464000E-01	 8.53654000E-02
					 4.30322000E-01	 4.30322000E-01	-2.77556000E-14
					 7.37188000E-14	 1.88138000E+00	 1.50990000E-14
					 1.88370000E+00	 1.88370000E+00	-1.27676000E-13
					 7.68274000E-14	 9.41298000E-01	 7.54952000E-15
					 1.88288000E+00	 9.40800000E-01	-6.40362000E-02
					 5.37348000E-14	 1.40787000E+00	 1.90958000E-14
					 9.40800000E-01	 1.88288000E+00	 6.40362000E-02
					 1.41189000E+00	 1.41189000E+00	-9.59233000E-14
					 1.00475000E-13	 2.78416000E+00	-3.55271000E-15
					 2.78471000E+00	 2.78471000E+00	-1.69420000E-13
					 1.02141000E-13	 1.39199000E+00	-3.10862000E-15
					 2.78438000E+00	 1.39249000E+00	-6.37970000E-02
					 9.10383000E-14	 2.33955000E+00	 7.99361000E-15
					 1.39249000E+00	 2.78438000E+00	 6.37970000E-02
					 2.34000000E+00	 2.34000000E+00	-1.53877000E-13
					 7.35523000E-14	 3.61947000E+00	-2.84217000E-14
					 3.62102000E+00	 3.62102000E+00	-1.84297000E-13
					 7.57727000E-14	 1.80992000E+00	-1.59872000E-14
					 3.62035000E+00	 1.81017000E+00	-5.72023000E-02
					 9.40081000E-14	 3.21189000E+00	-1.64313000E-14
					 1.81017000E+00	 3.62035000E+00	 5.72023000E-02
					 3.21320000E+00	 3.21320000E+00	-1.74083000E-13
					-2.00950000E-14	 4.36461000E+00	-6.39488000E-14
					 4.36628000E+00	 4.36628000E+00	-1.77636000E-13
					-1.70974000E-14	 2.18244000E+00	-2.97540000E-14
					 4.36552000E+00	 2.18288000E+00	-5.01656000E-02
					 3.90243000E-14	 4.00448000E+00	-4.70735000E-14
					 2.18288000E+00	 4.36552000E+00	 5.01656000E-02
					 4.00606000E+00	 4.00606000E+00	-1.90070000E-13
					-1.70419000E-13	 5.00130000E+00	-6.10623000E-14
					 5.00327000E+00	 5.00327000E+00	-1.05943000E-13
					-1.70530000E-13	 2.50083000E+00	-2.88658000E-14
					 5.00238000E+00	 2.50129000E+00	-4.16915000E-02
					-9.64229000E-14	 4.69757000E+00	-7.14984000E-14
					 2.50129000E+00	 5.00238000E+00	 4.16915000E-02
					 4.69941000E+00	 4.69941000E+00	-1.52323000E-13
					-2.68230000E-13	 5.51371000E+00	-1.70974000E-14
					 5.51585000E+00	 5.51585000E+00	 2.87548000E-14
					-2.71116000E-13	 2.75705000E+00	-8.43769000E-15
					 5.51488000E+00	 2.75757000E+00	-3.22040000E-02
					-2.29150000E-13	 5.27391000E+00	-3.97460000E-14
					 2.75757000E+00	 5.51488000E+00	 3.22040000E-02
					 5.27599000E+00	 5.27599000E+00	-4.41591000E-14
					-2.42695000E-13	 5.88911000E+00	 3.52218000E-14
					 5.89143000E+00	 5.89143000E+00	 1.61982000E-13
					-2.46692000E-13	 2.94477000E+00	 1.64591000E-14
					 5.89038000E+00	 2.94532000E+00	-2.19744000E-02
					-2.69118000E-13	 5.71919000E+00	 7.99361000E-15
					 2.94532000E+00	 5.89038000E+00	 2.19744000E-02
					 5.72143000E+00	 5.72143000E+00	 1.01197000E-13
					-1.28730000E-13	 6.11798000E+00	 7.23865000E-14
					 6.12039000E+00	 6.12039000E+00	 2.46025000E-13
					-1.25067000E-13	 3.05921000E+00	 3.55826000E-14
					 6.11930000E+00	 3.05978000E+00	-1.09045000E-02
					-1.94733000E-13	 6.02232000E+00	 5.55112000E-14
					 3.05978000E+00	 6.11930000E+00	 1.09045000E-02
					 6.02474000E+00	 6.02474000E+00	 2.08500000E-13
					 5.50671000E-14	 6.19544000E+00	 9.05942000E-14
					 6.19835000E+00	 6.19835000E+00	 2.68230000E-13
					 5.68434000E-14	 3.09788000E+00	 4.11893000E-14
					 6.19697000E+00	 3.09890000E+00	-9.22476000E-04
					-4.10783000E-14	 6.17594000E+00	 8.43769000E-14
					 3.09890000E+00	 6.19697000E+00	 9.22476000E-04
					 6.17802000E+00	 6.17802000E+00	 2.63789000E-13
					 0.00000000E+00	 0.00000000E+00	 0.00000000E+00
					-9.15782000E-01	-9.15782000E-01	 5.87308000E-14
					 0.00000000E+00	 0.00000000E+00	 0.00000000E+00
					-9.22319000E-01	 9.05942000E-14	 7.88258000E-14
					 0.00000000E+00	 0.00000000E+00	 0.00000000E+00
					-4.30322000E-01	-4.30322000E-01	 2.75335000E-14
					-4.59843000E-01	-9.18464000E-01	 8.53654000E-02
					 0.00000000E+00	 0.00000000E+00	 0.00000000E+00
					-9.18464000E-01	-4.59843000E-01	-8.53654000E-02
					 0.00000000E+00	 0.00000000E+00	 0.00000000E+00
					-4.48409000E-01	 2.88103000E-14	 3.74423000E-14
					-4.60062000E-01	 8.59313000E-14	 3.84137000E-14
					-1.88370000E+00	-1.88370000E+00	 1.25677000E-13
					-1.88138000E+00	 3.24407000E-13	 1.41220000E-13
					-1.41189000E+00	-1.41189000E+00	 9.15934000E-14
					-9.40800000E-01	-1.88288000E+00	 6.40362000E-02
					-1.88288000E+00	-9.40800000E-01	-6.40362000E-02
					-1.40787000E+00	 1.92291000E-13	 1.13465000E-13
					-9.41298000E-01	 3.21965000E-13	 6.79456000E-14
					-2.78471000E+00	-2.78471000E+00	 1.64313000E-13
					-2.78416000E+00	 6.63025000E-13	 1.62537000E-13
					-2.34000000E+00	-2.34000000E+00	 1.49214000E-13
					-1.39249000E+00	-2.78438000E+00	 6.37970000E-02
					-2.78438000E+00	-1.39249000E+00	-6.37970000E-02
					-2.33955000E+00	 4.86944000E-13	 1.58984000E-13
					-1.39199000E+00	 6.64802000E-13	 7.86038000E-14
					-3.62102000E+00	-3.62102000E+00	 1.80078000E-13
					-3.61947000E+00	 9.89431000E-13	 1.52545000E-13
					-3.21320000E+00	-3.21320000E+00	 1.69642000E-13
					-1.81017000E+00	-3.62035000E+00	 5.72023000E-02
					-3.62035000E+00	-1.81017000E+00	-5.72023000E-02
					-3.21189000E+00	 8.29559000E-13	 1.58984000E-13
					-1.80992000E+00	 9.90763000E-13	 7.54952000E-14
					-4.36628000E+00	-4.36628000E+00	 1.77414000E-13
					-4.36461000E+00	 1.28564000E-12	 1.14797000E-13
					-4.00606000E+00	-4.00606000E+00	 1.89182000E-13
					-2.18288000E+00	-4.36552000E+00	 5.01656000E-02
					-4.36552000E+00	-2.18288000E+00	-5.01656000E-02
					-4.00448000E+00	 1.14719000E-12	 1.39222000E-13
					-2.18244000E+00	 1.28786000E-12	 5.63993000E-14
					-5.00327000E+00	-5.00327000E+00	 1.03029000E-13
					-5.00130000E+00	 1.46239000E-12	 4.30767000E-14
					-4.69941000E+00	-4.69941000E+00	 1.46549000E-13
					-2.50129000E+00	-5.00238000E+00	 4.16915000E-02
					-5.00238000E+00	-2.50129000E+00	-4.16915000E-02
					-4.69757000E+00	 1.39222000E-12	 8.39329000E-14
					-2.50083000E+00	 1.46549000E-12	 2.17604000E-14
					-5.51585000E+00	-5.51585000E+00	-3.01981000E-14
					-5.51371000E+00	 1.45550000E-12	-4.75175000E-14
					-5.27599000E+00	-5.27599000E+00	 3.73035000E-14
					-2.75757000E+00	-5.51488000E+00	 3.22040000E-02
					-5.51488000E+00	-2.75757000E+00	-3.22040000E-02
					-5.27391000E+00	 1.48412000E-12	-3.10862000E-15
					-2.75705000E+00	 1.45794000E-12	-2.44249000E-14
					-5.89143000E+00	-5.89143000E+00	-1.67200000E-13
					-5.88911000E+00	 1.27498000E-12	-1.27787000E-13
					-5.72143000E+00	-5.72143000E+00	-1.02696000E-13
					-2.94532000E+00	-5.89038000E+00	 2.19744000E-02
					-5.89038000E+00	-2.94532000E+00	-2.19744000E-02
					-5.71919000E+00	 1.38378000E-12	-8.94840000E-14
					-2.94477000E+00	 1.27542000E-12	-6.29496000E-14
					-6.12039000E+00	-6.12039000E+00	-2.42473000E-13
					-6.11798000E+00	 9.39249000E-13	-1.71863000E-13
					-6.02474000E+00	-6.02474000E+00	-2.12275000E-13
					-3.05978000E+00	-6.11930000E+00	 1.09045000E-02
					-6.11930000E+00	-3.05978000E+00	-1.09045000E-02
					-6.02232000E+00	 1.11378000E-12	-1.56986000E-13
					-3.05921000E+00	 9.38916000E-13	-8.39329000E-14
					-6.19835000E+00	-6.19835000E+00	-2.62013000E-13
					-6.19544000E+00	 5.99520000E-13	-1.70086000E-13
					-6.17802000E+00	-6.17802000E+00	-2.52243000E-13
					-3.09890000E+00	-6.19697000E+00	 9.22476000E-04
					-6.19697000E+00	-3.09890000E+00	-9.22476000E-04
					-6.17594000E+00	 7.62945000E-13	-1.70530000E-13
					-3.09788000E+00	 5.99076000E-13	-8.70415000E-14
					 0.00000000E+00	 0.00000000E+00	 0.00000000E+00
					-9.15782000E-01	 9.15782000E-01	 9.61453000E-14
					 0.00000000E+00	 0.00000000E+00	 0.00000000E+00
					-9.18464000E-01	 4.59843000E-01	 8.53654000E-02
					 0.00000000E+00	 0.00000000E+00	 0.00000000E+00
					-4.30322000E-01	 4.30322000E-01	 5.05151000E-14
					-4.59843000E-01	 9.18464000E-01	-8.53654000E-02
					-1.88370000E+00	 1.88370000E+00	 1.58096000E-13
					-1.88288000E+00	 9.40800000E-01	 6.40362000E-02
					-1.41189000E+00	 1.41189000E+00	 1.31894000E-13
					-9.40800000E-01	 1.88288000E+00	-6.40362000E-02
					-2.78471000E+00	 2.78471000E+00	 1.61204000E-13
					-2.78438000E+00	 1.39249000E+00	 6.37970000E-02
					-2.34000000E+00	 2.34000000E+00	 1.67422000E-13
					-1.39249000E+00	 2.78438000E+00	-6.37970000E-02
					-3.62102000E+00	 3.62102000E+00	 1.27454000E-13
					-3.62035000E+00	 1.81017000E+00	 5.72023000E-02
					-3.21320000E+00	 3.21320000E+00	 1.44329000E-13
					-1.81017000E+00	 3.62035000E+00	-5.72023000E-02
					-4.36628000E+00	 4.36628000E+00	 5.37348000E-14
					-4.36552000E+00	 2.18288000E+00	 5.01656000E-02
					-4.00606000E+00	 4.00606000E+00	 9.68114000E-14
					-2.18288000E+00	 4.36552000E+00	-5.01656000E-02
					-5.00327000E+00	 5.00327000E+00	-1.95399000E-14
					-5.00238000E+00	 2.50129000E+00	 4.16915000E-02
					-4.69941000E+00	 4.69941000E+00	 1.28786000E-14
					-2.50129000E+00	 5.00238000E+00	-4.16915000E-02
					-5.51585000E+00	 5.51585000E+00	-6.17284000E-14
					-5.51488000E+00	 2.75757000E+00	 3.22040000E-02
					-5.27599000E+00	 5.27599000E+00	-3.99680000E-14
					-2.75757000E+00	 5.51488000E+00	-3.22040000E-02
					-5.89143000E+00	 5.89143000E+00	-9.57290000E-14
					-5.89038000E+00	 2.94532000E+00	 2.19744000E-02
					-5.72143000E+00	 5.72143000E+00	-8.30447000E-14
					-2.94532000E+00	 5.89038000E+00	-2.19744000E-02
					-6.12039000E+00	 6.12039000E+00	-9.41469000E-14
					-6.11930000E+00	 3.05978000E+00	 1.09045000E-02
					-6.02474000E+00	 6.02474000E+00	-9.93650000E-14
					-3.05978000E+00	 6.11930000E+00	-1.09045000E-02
					-6.19835000E+00	 6.19835000E+00	-9.00391000E-14
					-6.19697000E+00	 3.09890000E+00	 9.22476000E-04
					-6.17802000E+00	 6.17802000E+00	-8.90399000E-14
					-3.09890000E+00	 6.19697000E+00	-9.22476000E-04
				</DataArray>
				<DataArray type="Float32" Name="S" NumberOfComponents="10" ComponentName0="xx" ComponentName1="yy" ComponentName2="zz" ComponentName3="xy" ComponentName4="yz" ComponentName5="zx" ComponentName6="Mises" ComponentName7="Min Principal" ComponentName8="Mid Principal" ComponentName9="Max Principal" format="ascii">
					 6.26163000E+06	-6.26164000E+06	-2.95985000E+00	 1.00033000E-02	-6.50588000E+12	 6.50588000E+12	 1.59360863E+13	-9.20070373E+12	-4.99120331E+00	 9.20070373E+12
					-3.21908000E-01	-3.18101000E-01	-7.57458000E-01	-6.48449000E+05	-7.03744000E+12	 1.52473000E-01	 1.21892036E+13	-7.03744000E+12	-3.21908028E-01	 7.03744000E+12
					 1.22810000E-01	 2.27356000E-02	-1.40541000E-01	-5.03934000E+10	-1.34169000E+13	 3.78036000E-03	 2.32389164E+13	-1.34169946E+13	 1.22779970E-01	 1.34169946E+13
					-1.35373000E+11	 1.35373000E+11	-2.03947000E+00	-1.16464000E-01	-2.73281000E+12	 2.73281000E+12	 6.69809529E+12	-3.86714712E+12	-1.19483948E-01	 3.86714712E+12
					-8.99433000E-01	-9.01108000E-01	-2.10682000E+00	 6.48449000E+05	 1.91208000E-01	 7.03744000E+12	 1.21892036E+13	-7.03744000E+12	-9.01367187E-01	 7.03744000E+12
					-4.23229000E-03	-3.86018000E-03	-2.33513000E-03	 1.49491000E-03	 1.17763000E-02	 1.06525000E-01	 1.85656959E-01	-1.10305686E-01	-4.19084235E-03	 1.04068928E-01
					-2.58875000E-02	-1.73794000E-02	-1.54946000E-02	-6.39258000E-02	 1.24610000E-01	 1.18358000E-01	 3.17742513E-01	-2.25867489E-01	 4.18426085E-02	 1.25263381E-01
					-5.73883000E-02	 1.91422000E-01	-1.58578000E+00	 5.03934000E+10	-6.40869000E-03	 1.34169000E+13	 2.32389164E+13	-1.34169946E+13	 1.89453125E-01	 1.34169946E+13
					-1.03425000E+12	-1.03423000E+12	-2.41323000E+12	-2.92011000E+05	-6.76721000E+12	 3.26893000E+12	 1.30898708E+13	-9.27068098E+12	-1.03424644E+12	 5.82321743E+12
					 3.16467000E-02	 2.25220000E-02	-3.90045000E-01	-2.64572000E+11	-1.02077000E+13	 3.79639000E-02	 1.76861927E+13	-1.02111281E+13	 2.93791270E-02	 1.02111281E+13
					-1.75590000E+11	 4.78733000E+09	-7.23625000E+11	-1.57199000E+10	-8.07650000E+12	-1.66137000E+10	 1.40043871E+13	-8.44418979E+12	-1.75526736E+11	 7.72528885E+12
					-5.46449000E+11	 5.46449000E+11	-2.13011000E+00	 7.22031000E-02	-4.63890000E+12	 4.63890000E+12	 1.14022883E+13	-6.58311423E+12	 5.67970276E-02	 6.58311423E+12
					 1.03423000E+12	 1.03425000E+12	 2.41323000E+12	 2.92011000E+05	-3.26893000E+12	 6.76721000E+12	 1.30898708E+13	-5.82321743E+12	 1.03424644E+12	 9.27068098E+12
					-1.56195000E-01	-1.58584000E-01	-3.55323000E-01	-3.56438000E+05	-3.51007000E+12	 1.22498000E-01	 6.07961958E+12	-3.51007000E+12	-1.56195025E-01	 3.51007000E+12
					-3.10335000E-02	-4.19998000E-03	-9.24377000E-02	-3.46735000E+10	-5.33214000E+12	 8.33817000E-02	 9.23573266E+12	-5.33225274E+12	-3.21240318E-02	 5.33225274E+12