    1C
    1UUSER                                                              
    1UDATE              25.january.2020                                 
    1UTIME              17:53:37                                        
    1UHOST                                                              
    1UPGM               CalculiX                                        
    1UVERSION           Version 2.16                             
    1UCOMPILETIME       Tue  7 Jan 19:57:43 CET 2020                    
    1UDIR                                                               
    1UDBN                                                               
    1UMAT    1STEEL                                                     
    2C                           321                                     1
 -1         1 1.00000E-02 1.00000E-02 0.00000E+00
 -1         2 1.00000E-02 5.00000E-03 0.00000E+00
 -1         3 1.00000E-02 5.00000E-03 1.00000E-02
 -1         4 1.00000E-02 1.00000E-02 1.00000E-02
 -1         5 5.00000E-03 1.00000E-02 0.00000E+00
 -1         6 5.00000E-03 5.00000E-03 0.00000E+00
 -1         7 5.00000E-03 5.00000E-03 1.00000E-02
 -1         8 5.00000E-03 1.00000E-02 1.00000E-02
 -1         9 1.00000E-02 7.50000E-03 0.00000E+00
 -1        10 1.00000E-02 5.00000E-03 5.00000E-03
 -1        11 1.00000E-02 7.50000E-03 1.00000E-02
 -1        12 1.00000E-02 1.00000E-02 5.00000E-03
 -1        13 7.50000E-03 1.00000E-02 0.00000E+00
 -1        14 7.50000E-03 5.00000E-03 0.00000E+00
 -1        15 7.50000E-03 5.00000E-03 1.00000E-02
 -1        16 7.50000E-03 1.00000E-02 1.00000E-02
 -1        17 5.00000E-03 7.50000E-03 0.00000E+00
 -1        18 5.00000E-03 5.00000E-03 5.00000E-03
 -1        19 5.00000E-03 7.50000E-03 1.00000E-02
 -1        20 5.00000E-03 1.00000E-02 5.00000E-03
 -1        21 1.00000E-02 5.00000E-03 2.00000E-02
 -1        22 1.00000E-02 1.00000E-02 2.00000E-02
 -1        23 5.00000E-03 5.00000E-03 2.00000E-02
 -1        24 5.00000E-03 1.00000E-02 2.00000E-02
 -1        25 1.00000E-02 5.00000E-03 1.50000E-02
 -1        26 1.00000E-02 7.50000E-03 2.00000E-02
 -1        27 1.00000E-02 1.00000E-02 1.50000E-02
 -1        28 7.50000E-03 5.00000E-03 2.00000E-02
 -1        29 7.50000E-03 1.00000E-02 2.00000E-02
 -1        30 5.00000E-03 5.00000E-03 1.50000E-02
 -1        31 5.00000E-03 7.50000E-03 2.00000E-02
 -1        32 5.00000E-03 1.00000E-02 1.50000E-02
 -1        33 1.00000E-02 5.00000E-03 3.00000E-02
 -1        34 1.00000E-02 1.00000E-02 3.00000E-02
 -1        35 5.00000E-03 5.00000E-03 3.00000E-02
 -1        36 5.00000E-03 1.00000E-02 3.00000E-02
 -1        37 1.00000E-02 5.00000E-03 2.50000E-02
 -1        38 1.00000E-02 7.50000E-03 3.00000E-02
 -1        39 1.00000E-02 1.00000E-02 2.50000E-02
 -1        40 7.50000E-03 5.00000E-03 3.00000E-02
 -1        41 7.50000E-03 1.00000E-02 3.00000E-02
 -1        42 5.00000E-03 5.00000E-03 2.50000E-02
 -1        43 5.00000E-03 7.50000E-03 3.00000E-02
 -1        44 5.00000E-03 1.00000E-02 2.50000E-02
 -1        45 1.00000E-02 5.00000E-03 4.00000E-02
 -1        46 1.00000E-02 1.00000E-02 4.00000E-02
 -1        47 5.00000E-03 5.00000E-03 4.00000E-02
 -1        48 5.00000E-03 1.00000E-02 4.00000E-02
 -1        49 1.00000E-02 5.00000E-03 3.50000E-02
 -1        50 1.00000E-02 7.50000E-03 4.00000E-02
 -1        51 1.00000E-02 1.00000E-02 3.50000E-02
 -1        52 7.50000E-03 5.00000E-03 4.00000E-02
 -1        53 7.50000E-03 1.00000E-02 4.00000E-02
 -1        54 5.00000E-03 5.00000E-03 3.50000E-02
 -1        55 5.00000E-03 7.50000E-03 4.00000E-02
 -1        56 5.00000E-03 1.00000E-02 3.50000E-02
 -1        57 1.00000E-02 5.00000E-03 5.00000E-02
 -1        58 1.00000E-02 1.00000E-02 5.00000E-02
 -1        59 5.00000E-03 5.00000E-03 5.00000E-02
 -1        60 5.00000E-03 1.00000E-02 5.00000E-02
 -1        61 1.00000E-02 5.00000E-03 4.50000E-02
 -1        62 1.00000E-02 7.50000E-03 5.00000E-02
 -1        63 1.00000E-02 1.00000E-02 4.50000E-02
 -1        64 7.50000E-03 5.00000E-03 5.00000E-02
 -1        65 7.50000E-03 1.00000E-02 5.00000E-02
 -1        66 5.00000E-03 5.00000E-03 4.50000E-02
 -1        67 5.00000E-03 7.50000E-03 5.00000E-02
 -1        68 5.00000E-03 1.00000E-02 4.50000E-02
 -1        69 1.00000E-02 5.00000E-03 6.00000E-02
 -1        70 1.00000E-02 1.00000E-02 6.00000E-02
 -1        71 5.00000E-03 5.00000E-03 6.00000E-02
 -1        72 5.00000E-03 1.00000E-02 6.00000E-02
 -1        73 1.00000E-02 5.00000E-03 5.50000E-02
 -1        74 1.00000E-02 7.50000E-03 6.00000E-02
 -1        75 1.00000E-02 1.00000E-02 5.50000E-02
 -1        76 7.50000E-03 5.00000E-03 6.00000E-02
 -1        77 7.50000E-03 1.00000E-02 6.00000E-02
 -1        78 5.00000E-03 5.00000E-03 5.50000E-02
 -1        79 5.00000E-03 7.50000E-03 6.00000E-02
 -1        80 5.00000E-03 1.00000E-02 5.50000E-02
 -1        81 1.00000E-02 5.00000E-03 7.00000E-02
 -1        82 1.00000E-02 1.00000E-02 7.00000E-02
 -1        83 5.00000E-03 5.00000E-03 7.00000E-02
 -1        84 5.00000E-03 1.00000E-02 7.00000E-02
 -1        85 1.00000E-02 5.00000E-03 6.50000E-02
 -1        86 1.00000E-02 7.50000E-03 7.00000E-02
 -1        87 1.00000E-02 1.00000E-02 6.50000E-02
 -1        88 7.50000E-03 5.00000E-03 7.00000E-02
 -1        89 7.50000E-03 1.00000E-02 7.00000E-02
 -1        90 5.00000E-03 5.00000E-03 6.50000E-02
 -1        91 5.00000E-03 7.50000E-03 7.00000E-02
 -1        92 5.00000E-03 1.00000E-02 6.50000E-02
 -1        93 1.00000E-02 5.00000E-03 8.00000E-02
 -1        94 1.00000E-02 1.00000E-02 8.00000E-02
 -1        95 5.00000E-03 5.00000E-03 8.00000E-02
 -1        96 5.00000E-03 1.00000E-02 8.00000E-02
 -1        97 1.00000E-02 5.00000E-03 7.50000E-02
 -1        98 1.00000E-02 7.50000E-03 8.00000E-02
 -1        99 1.00000E-02 1.00000E-02 7.50000E-02
 -1       100 7.50000E-03 5.00000E-03 8.00000E-02
 -1       101 7.50000E-03 1.00000E-02 8.00000E-02
 -1       102 5.00000E-03 5.00000E-03 7.50000E-02
 -1       103 5.00000E-03 7.50000E-03 8.00000E-02
 -1       104 5.00000E-03 1.00000E-02 7.50000E-02
 -1       105 1.00000E-02 5.00000E-03 9.00000E-02
 -1       106 1.00000E-02 1.00000E-02 9.00000E-02
 -1       107 5.00000E-03 5.00000E-03 9.00000E-02
 -1       108 5.00000E-03 1.00000E-02 9.00000E-02
 -1       109 1.00000E-02 5.00000E-03 8.50000E-02
 -1       110 1.00000E-02 7.50000E-03 9.00000E-02
 -1       111 1.00000E-02 1.00000E-02 8.50000E-02
 -1       112 7.50000E-03 5.00000E-03 9.00000E-02
 -1       113 7.50000E-03 1.00000E-02 9.00000E-02
 -1       114 5.00000E-03 5.00000E-03 8.50000E-02
 -1       115 5.00000E-03 7.50000E-03 9.00000E-02
 -1       116 5.00000E-03 1.00000E-02 8.50000E-02
 -1       117 1.00000E-02 5.00000E-03 1.00000E-01
 -1       118 1.00000E-02 1.00000E-02 1.00000E-01
 -1       119 5.00000E-03 5.00000E-03 1.00000E-01
 -1       120 5.00000E-03 1.00000E-02 1.00000E-01
 -1       121 1.00000E-02 5.00000E-03 9.50000E-02
 -1       122 1.00000E-02 7.50000E-03 1.00000E-01
 -1       123 1.00000E-02 1.00000E-02 9.50000E-02
 -1       124 7.50000E-03 5.00000E-03 1.00000E-01
 -1       125 7.50000E-03 1.00000E-02 1.00000E-01
 -1       126 5.00000E-03 5.00000E-03 9.50000E-02
 -1       127 5.00000E-03 7.50000E-03 1.00000E-01
 -1       128 5.00000E-03 1.00000E-02 9.50000E-02
 -1       129 0.00000E+00 1.00000E-02 0.00000E+00
 -1       130 0.00000E+00 5.00000E-03 0.00000E+00
 -1       131 0.00000E+00 5.00000E-03 1.00000E-02
 -1       132 0.00000E+00 1.00000E-02 1.00000E-02
 -1       133 2.50000E-03 1.00000E-02 0.00000E+00
 -1       134 2.50000E-03 5.00000E-03 0.00000E+00
 -1       135 2.50000E-03 5.00000E-03 1.00000E-02
 -1       136 2.50000E-03 1.00000E-02 1.00000E-02
 -1       137 0.00000E+00 7.50000E-03 0.00000E+00
 -1       138 0.00000E+00 5.00000E-03 5.00000E-03
 -1       139 0.00000E+00 7.50000E-03 1.00000E-02
 -1       140 0.00000E+00 1.00000E-02 5.00000E-03
 -1       141 0.00000E+00 5.00000E-03 2.00000E-02
 -1       142 0.00000E+00 1.00000E-02 2.00000E-02
 -1       143 2.50000E-03 5.00000E-03 2.00000E-02
 -1       144 2.50000E-03 1.00000E-02 2.00000E-02
 -1       145 0.00000E+00 5.00000E-03 1.50000E-02
 -1       146 0.00000E+00 7.50000E-03 2.00000E-02
 -1       147 0.00000E+00 1.00000E-02 1.50000E-02
 -1       148 0.00000E+00 5.00000E-03 3.00000E-02
 -1       149 0.00000E+00 1.00000E-02 3.00000E-02
 -1       150 2.50000E-03 5.00000E-03 3.00000E-02
 -1       151 2.50000E-03 1.00000E-02 3.00000E-02
 -1       152 0.00000E+00 5.00000E-03 2.50000E-02
 -1       153 0.00000E+00 7.50000E-03 3.00000E-02
 -1       154 0.00000E+00 1.00000E-02 2.50000E-02
 -1       155 0.00000E+00 5.00000E-03 4.00000E-02
 -1       156 0.00000E+00 1.00000E-02 4.00000E-02
 -1       157 2.50000E-03 5.00000E-03 4.00000E-02
 -1       158 2.50000E-03 1.00000E-02 4.00000E-02
 -1       159 0.00000E+00 5.00000E-03 3.50000E-02
 -1       160 0.00000E+00 7.50000E-03 4.00000E-02
 -1       161 0.00000E+00 1.00000E-02 3.50000E-02
 -1       162 0.00000E+00 5.00000E-03 5.00000E-02
 -1       163 0.00000E+00 1.00000E-02 5.00000E-02
 -1       164 2.50000E-03 5.00000E-03 5.00000E-02
 -1       165 2.50000E-03 1.00000E-02 5.00000E-02
 -1       166 0.00000E+00 5.00000E-03 4.50000E-02
 -1       167 0.00000E+00 7.50000E-03 5.00000E-02
 -1       168 0.00000E+00 1.00000E-02 4.50000E-02
 -1       169 0.00000E+00 5.00000E-03 6.00000E-02
 -1       170 0.00000E+00 1.00000E-02 6.00000E-02
 -1       171 2.50000E-03 5.00000E-03 6.00000E-02
 -1       172 2.50000E-03 1.00000E-02 6.00000E-02
 -1       173 0.00000E+00 5.00000E-03 5.50000E-02
 -1       174 0.00000E+00 7.50000E-03 6.00000E-02
 -1       175 0.00000E+00 1.00000E-02 5.50000E-02
 -1       176 0.00000E+00 5.00000E-03 7.00000E-02
 -1       177 0.00000E+00 1.00000E-02 7.00000E-02
 -1       178 2.50000E-03 5.00000E-03 7.00000E-02
 -1       179 2.50000E-03 1.00000E-02 7.00000E-02
 -1       180 0.00000E+00 5.00000E-03 6.50000E-02
 -1       181 0.00000E+00 7.50000E-03 7.00000E-02
 -1       182 0.00000E+00 1.00000E-02 6.50000E-02
 -1       183 0.00000E+00 5.00000E-03 8.00000E-02
 -1       184 0.00000E+00 1.00000E-02 8.00000E-02
 -1       185 2.50000E-03 5.00000E-03 8.00000E-02
 -1       186 2.50000E-03 1.00000E-02 8.00000E-02
 -1       187 0.00000E+00 5.00000E-03 7.50000E-02
 -1       188 0.00000E+00 7.50000E-03 8.00000E-02
 -1       189 0.00000E+00 1.00000E-02 7.50000E-02
 -1       190 0.00000E+00 5.00000E-03 9.00000E-02
 -1       191 0.00000E+00 1.00000E-02 9.00000E-02
 -1       192 2.50000E-03 5.00000E-03 9.00000E-02
 -1       193 2.50000E-03 1.00000E-02 9.00000E-02
 -1       194 0.00000E+00 5.00000E-03 8.50000E-02
 -1       195 0.00000E+00 7.50000E-03 9.00000E-02
 -1       196 0.00000E+00 1.00000E-02 8.50000E-02
 -1       197 0.00000E+00 5.00000E-03 1.00000E-01
 -1       198 0.00000E+00 1.00000E-02 1.00000E-01
 -1       199 2.50000E-03 5.00000E-03 1.00000E-01
 -1       200 2.50000E-03 1.00000E-02 1.00000E-01
 -1       201 0.00000E+00 5.00000E-03 9.50000E-02
 -1       202 0.00000E+00 7.50000E-03 1.00000E-01
 -1       203 0.00000E+00 1.00000E-02 9.50000E-02
 -1       204 1.00000E-02 0.00000E+00 0.00000E+00
 -1       205 1.00000E-02 0.00000E+00 1.00000E-02
 -1       206 5.00000E-03 0.00000E+00 0.00000E+00
 -1       207 5.00000E-03 0.00000E+00 1.00000E-02
 -1       208 1.00000E-02 2.50000E-03 0.00000E+00
 -1       209 1.00000E-02 0.00000E+00 5.00000E-03
 -1       210 1.00000E-02 2.50000E-03 1.00000E-02
 -1       211 7.50000E-03 0.00000E+00 0.00000E+00
 -1       212 7.50000E-03 0.00000E+00 1.00000E-02
 -1       213 5.00000E-03 2.50000E-03 0.00000E+00
 -1       214 5.00000E-03 0.00000E+00 5.00000E-03
 -1       215 5.00000E-03 2.50000E-03 1.00000E-02
 -1       216 1.00000E-02 0.00000E+00 2.00000E-02
 -1       217 5.00000E-03 0.00000E+00 2.00000E-02
 -1       218 1.00000E-02 0.00000E+00 1.50000E-02
 -1       219 1.00000E-02 2.50000E-03 2.00000E-02
 -1       220 7.50000E-03 0.00000E+00 2.00000E-02
 -1       221 5.00000E-03 0.00000E+00 1.50000E-02
 -1       222 5.00000E-03 2.50000E-03 2.00000E-02
 -1       223 1.00000E-02 0.00000E+00 3.00000E-02
 -1       224 5.00000E-03 0.00000E+00 3.00000E-02
 -1       225 1.00000E-02 0.00000E+00 2.50000E-02
 -1       226 1.00000E-02 2.50000E-03 3.00000E-02
 -1       227 7.50000E-03 0.00000E+00 3.00000E-02
 -1       228 5.00000E-03 0.00000E+00 2.50000E-02
 -1       229 5.00000E-03 2.50000E-03 3.00000E-02
 -1       230 1.00000E-02 0.00000E+00 4.00000E-02
 -1       231 5.00000E-03 0.00000E+00 4.00000E-02
 -1       232 1.00000E-02 0.00000E+00 3.50000E-02
 -1       233 1.00000E-02 2.50000E-03 4.00000E-02
 -1       234 7.50000E-03 0.00000E+00 4.00000E-02
 -1       235 5.00000E-03 0.00000E+00 3.50000E-02
 -1       236 5.00000E-03 2.50000E-03 4.00000E-02
 -1       237 1.00000E-02 0.00000E+00 5.00000E-02
 -1       238 5.00000E-03 0.00000E+00 5.00000E-02
 -1       239 1.00000E-02 0.00000E+00 4.50000E-02
 -1       240 1.00000E-02 2.50000E-03 5.00000E-02
 -1       241 7.50000E-03 0.00000E+00 5.00000E-02
 -1       242 5.00000E-03 0.00000E+00 4.50000E-02
 -1       243 5.00000E-03 2.50000E-03 5.00000E-02
 -1       244 1.00000E-02 0.00000E+00 6.00000E-02
 -1       245 5.00000E-03 0.00000E+00 6.00000E-02
 -1       246 1.00000E-02 0.00000E+00 5.50000E-02
 -1       247 1.00000E-02 2.50000E-03 6.00000E-02
 -1       248 7.50000E-03 0.00000E+00 6.00000E-02
 -1       249 5.00000E-03 0.00000E+00 5.50000E-02
 -1       250 5.00000E-03 2.50000E-03 6.00000E-02
 -1       251 1.00000E-02 0.00000E+00 7.00000E-02
 -1       252 5.00000E-03 0.00000E+00 7.00000E-02
 -1       253 1.00000E-02 0.00000E+00 6.50000E-02
 -1       254 1.00000E-02 2.50000E-03 7.00000E-02
 -1       255 7.50000E-03 0.00000E+00 7.00000E-02
 -1       256 5.00000E-03 0.00000E+00 6.50000E-02
 -1       257 5.00000E-03 2.50000E-03 7.00000E-02
 -1       258 1.00000E-02 0.00000E+00 8.00000E-02
 -1       259 5.00000E-03 0.00000E+00 8.00000E-02
 -1       260 1.00000E-02 0.00000E+00 7.50000E-02
 -1       261 1.00000E-02 2.50000E-03 8.00000E-02
 -1       262 7.50000E-03 0.00000E+00 8.00000E-02
 -1       263 5.00000E-03 0.00000E+00 7.50000E-02
 -1       264 5.00000E-03 2.50000E-03 8.00000E-02
 -1       265 1.00000E-02 0.00000E+00 9.00000E-02
 -1       266 5.00000E-03 0.00000E+00 9.00000E-02
 -1       267 1.00000E-02 0.00000E+00 8.50000E-02
 -1       268 1.00000E-02 2.50000E-03 9.00000E-02
 -1       269 7.50000E-03 0.00000E+00 9.00000E-02
 -1       270 5.00000E-03 0.00000E+00 8.50000E-02
 -1       271 5.00000E-03 2.50000E-03 9.00000E-02
 -1       272 1.00000E-02 0.00000E+00 1.00000E-01
 -1       273 5.00000E-03 0.00000E+00 1.00000E-01
 -1       274 1.00000E-02 0.00000E+00 9.50000E-02
 -1       275 1.00000E-02 2.50000E-03 1.00000E-01
 -1       276 7.50000E-03 0.00000E+00 1.00000E-01
 -1       277 5.00000E-03 0.00000E+00 9.50000E-02
 -1       278 5.00000E-03 2.50000E-03 1.00000E-01
 -1       279 0.00000E+00 0.00000E+00 0.00000E+00
 -1       280 0.00000E+00 0.00000E+00 1.00000E-02
 -1       281 2.50000E-03 0.00000E+00 0.00000E+00
 -1       282 2.50000E-03 0.00000E+00 1.00000E-02
 -1       283 0.00000E+00 2.50000E-03 0.00000E+00
 -1       284 0.00000E+00 0.00000E+00 5.00000E-03
 -1       285 0.00000E+00 2.50000E-03 1.00000E-02
 -1       286 0.00000E+00 0.00000E+00 2.00000E-02
 -1       287 2.50000E-03 0.00000E+00 2.00000E-02
 -1       288 0.00000E+00 0.00000E+00 1.50000E-02
 -1       289 0.00000E+00 2.50000E-03 2.00000E-02
 -1       290 0.00000E+00 0.00000E+00 3.00000E-02
 -1       291 2.50000E-03 0.00000E+00 3.00000E-02
 -1       292 0.00000E+00 0.00000E+00 2.50000E-02
 -1       293 0.00000E+00 2.50000E-03 3.00000E-02
 -1       294 0.00000E+00 0.00000E+00 4.00000E-02
 -1       295 2.50000E-03 0.00000E+00 4.00000E-02
 -1       296 0.00000E+00 0.00000E+00 3.50000E-02
 -1       297 0.00000E+00 2.50000E-03 4.00000E-02
 -1       298 0.00000E+00 0.00000E+00 5.00000E-02
 -1       299 2.50000E-03 0.00000E+00 5.00000E-02
 -1       300 0.00000E+00 0.00000E+00 4.50000E-02
 -1       301 0.00000E+00 2.50000E-03 5.00000E-02
 -1       302 0.00000E+00 0.00000E+00 6.00000E-02
 -1       303 2.50000E-03 0.00000E+00 6.00000E-02
 -1       304 0.00000E+00 0.00000E+00 5.50000E-02
 -1       305 0.00000E+00 2.50000E-03 6.00000E-02
 -1       306 0.00000E+00 0.00000E+00 7.00000E-02
 -1       307 2.50000E-03 0.00000E+00 7.00000E-02
 -1       308 0.00000E+00 0.00000E+00 6.50000E-02
 -1       309 0.00000E+00 2.50000E-03 7.00000E-02
 -1       310 0.00000E+00 0.00000E+00 8.00000E-02
 -1       311 2.50000E-03 0.00000E+00 8.00000E-02
 -1       312 0.00000E+00 0.00000E+00 7.50000E-02
 -1       313 0.00000E+00 2.50000E-03 8.00000E-02
 -1       314 0.00000E+00 0.00000E+00 9.00000E-02
 -1       315 2.50000E-03 0.00000E+00 9.00000E-02
 -1       316 0.00000E+00 0.00000E+00 8.50000E-02
 -1       317 0.00000E+00 2.50000E-03 9.00000E-02
 -1       318 0.00000E+00 0.00000E+00 1.00000E-01
 -1       319 2.50000E-03 0.00000E+00 1.00000E-01
 -1       320 0.00000E+00 0.00000E+00 9.50000E-02
 -1       321 0.00000E+00 2.50000E-03 1.00000E-01
 -3
    3C                            40                                     1
 -1         1    4    0    1
 -2         1         2         3         4         5         6         7         8         9        10
 -2        11        12        13        14        15        16        17        18        19        20
 -1         2    4    0    1
 -2         4         3        21        22         8         7        23        24        11        25
 -2        26        27        16        15        28        29        19        30        31        32
 -1         3    4    0    1
 -2        22        21        33        34        24        23        35        36        26        37
 -2        38        39        29        28        40        41        31        42        43        44
 -1         4    4    0    1
 -2        34        33        45        46        36        35        47        48        38        49
 -2        50        51        41        40        52        53        43        54        55        56
 -1         5    4    0    1
 -2        46        45        57        58        48        47        59        60        50        61
 -2        62        63        53        52        64        65        55        66        67        68
 -1         6    4    0    1
 -2        58        57        69        70        60        59        71        72        62        73
 -2        74        75        65        64        76        77        67        78        79        80
 -1         7    4    0    1
 -2        70        69        81        82        72        71        83        84        74        85
 -2        86        87        77        76        88        89        79        90        91        92
 -1         8    4    0    1
 -2        82        81        93        94        84        83        95        96        86        97
 -2        98        99        89        88       100       101        91       102       103       104
 -1         9    4    0    1
 -2        94        93       105       106        96        95       107       108        98       109
 -2       110       111       101       100       112       113       103       114       115       116
 -1        10    4    0    1
 -2       106       105       117       118       108       107       119       120       110       121
 -2       122       123       113       112       124       125       115       126       127       128
 -1        11    4    0    1
 -2         5         6         7         8       129       130       131       132        17        18
 -2        19        20       133       134       135       136       137       138       139       140
 -1        12    4    0    1
 -2         8         7        23        24       132       131       141       142        19        30
 -2        31        32       136       135       143       144       139       145       146       147
 -1        13    4    0    1
 -2        24        23        35        36       142       141       148       149        31        42
 -2        43        44       144       143       150       151       146       152       153       154
 -1        14    4    0    1
 -2        36        35        47        48       149       148       155       156        43        54
 -2        55        56       151       150       157       158       153       159       160       161
 -1        15    4    0    1
 -2        48        47        59        60       156       155       162       163        55        66
 -2        67        68       158       157       164       165       160       166       167       168
 -1        16    4    0    1
 -2        60        59        71        72       163       162       169       170        67        78
 -2        79        80       165       164       171       172       167       173       174       175
 -1        17    4    0    1
 -2        72        71        83        84       170       169       176       177        79        90
 -2        91        92       172       171       178       179       174       180       181       182
 -1        18    4    0    1
 -2        84        83        95        96       177       176       183       184        91       102
 -2       103       104       179       178       185       186       181       187       188       189
 -1        19    4    0    1
 -2        96        95       107       108       184       183       190       191       103       114
 -2       115       116       186       185       192       193       188       194       195       196
 -1        20    4    0    1
 -2       108       107       119       120       191       190       197       198       115       126
 -2       127       128       193       192       199       200       195       201       202       203
 -1        21    4    0    1
 -2         2       204       205         3         6       206       207         7       208       209
 -2       210        10        14       211       212        15       213       214       215        18
 -1        22    4    0    1
 -2         3       205       216        21         7       207       217        23       210       218
 -2       219        25        15       212       220        28       215       221       222        30
 -1        23    4    0    1
 -2        21       216       223        33        23       217       224        35       219       225
 -2       226        37        28       220       227        40       222       228       229        42
 -1        24    4    0    1
 -2        33       223       230        45        35       224       231        47       226       232
 -2       233        49        40       227       234        52       229       235       236        54
 -1        25    4    0    1
 -2        45       230       237        57        47       231       238        59       233       239
 -2       240        61        52       234       241        64       236       242       243        66
 -1        26    4    0    1
 -2        57       237       244        69        59       238       245        71       240       246
 -2       247        73        64       241       248        76       243       249       250        78
 -1        27    4    0    1
 -2        69       244       251        81        71       245       252        83       247       253
 -2       254        85        76       248       255        88       250       256       257        90
 -1        28    4    0    1
 -2        81       251       258        93        83       252       259        95       254       260
 -2       261        97        88       255       262       100       257       263       264       102
 -1        29    4    0    1
 -2        93       258       265       105        95       259       266       107       261       267
 -2       268       109       100       262       269       112       264       270       271       114
 -1        30    4    0    1
 -2       105       265       272       117       107       266       273       119       268       274
 -2       275       121       112       269       276       124       271       277       278       126
 -1        31    4    0    1
 -2         6       206       207         7       130       279       280       131       213       214
 -2       215        18       134       281       282       135       283       284       285       138
 -1        32    4    0    1
 -2         7       207       217        23       131       280       286       141       215       221
 -2       222        30       135       282       287       143       285       288       289       145
 -1        33    4    0    1
 -2        23       217       224        35       141       286       290       148       222       228
 -2       229        42       143       287       291       150       289       292       293       152
 -1        34    4    0    1
 -2        35       224       231        47       148       290       294       155       229       235
 -2       236        54       150       291       295       157       293       296       297       159
 -1        35    4    0    1
 -2        47       231       238        59       155       294       298       162       236       242
 -2       243        66       157       295       299       164       297       300       301       166
 -1        36    4    0    1
 -2        59       238       245        71       162       298       302       169       243       249
 -2       250        78       164       299       303       171       301       304       305       173
 -1        37    4    0    1
 -2        71       245       252        83       169       302       306       176       250       256
 -2       257        90       171       303       307       178       305       308       309       180
 -1        38    4    0    1
 -2        83       252       259        95       176       306       310       183       257       263
 -2       264       102       178       307       311       185       309       312       313       187
 -1        39    4    0    1
 -2        95       259       266       107       183       310       314       190       264       270
 -2       271       114       185       311       315       192       313       316       317       194
 -1        40    4    0    1
 -2       107       266       273       119       190       314       318       197       271       277
 -2       278       126       192       315       319       199       317       320       321       201
 -3
    1PSTEP                         1           1           1          
  100CL  101 1.000000000         321                     0    1           1
 -4  DISP        4    1
 -5  D1          1    2    1    0
 -5  D2          1    2    2    0
 -5  D3          1    2    3    0
 -5  ALL         1    2    0    0    1ALL
 -1         1 0.00000E+00 0.00000E+00 0.00000E+00
 -1         2 0.00000E+00 0.00000E+00 0.00000E+00
 -1         3 7.07157E-09-8.96909E-21-4.55758E-08
 -1         4 6.84802E-09 6.84802E-09-4.53697E-08
 -1         5 0.00000E+00 0.00000E+00 0.00000E+00
 -1         6 0.00000E+00 0.00000E+00 0.00000E+00
 -1         7 5.86854E-21-1.07452E-20-4.57952E-08
 -1         8 4.44718E-21 7.07157E-09-4.55758E-08
 -1         9 0.00000E+00 0.00000E+00 0.00000E+00
 -1        10 7.06424E-09-1.47204E-21-2.13085E-08
 -1        11 6.94550E-09 3.44221E-09-4.53548E-08
 -1        12 7.05511E-09 7.05511E-09-2.25330E-08
 -1        13 0.00000E+00 0.00000E+00 0.00000E+00
 -1        14 0.00000E+00 0.00000E+00 0.00000E+00
 -1        15 3.53116E-09-1.00973E-20-4.55688E-08
 -1        16 3.44221E-09 6.94550E-09-4.53548E-08
 -1        17 0.00000E+00 0.00000E+00 0.00000E+00
 -1        18 1.48716E-21-2.67492E-21-2.00508E-08
 -1        19 5.28938E-21 3.53116E-09-4.55688E-08
 -1        20 5.91333E-22 7.06424E-09-2.13085E-08
 -1        21 7.15612E-09-3.90177E-20-9.29602E-08
 -1        22 7.12314E-09 7.12314E-09-9.29287E-08
 -1        23 2.25270E-20-4.17092E-20-9.29569E-08
 -1        24 2.01672E-20 7.15612E-09-9.29602E-08
 -1        25 7.12783E-09-2.15444E-20-6.92187E-08
 -1        26 7.14580E-09 3.55227E-09-9.29680E-08
 -1        27 7.15712E-09 7.15712E-09-6.92166E-08
 -1        28 3.57489E-09-4.05104E-20-9.29829E-08
 -1        29 3.55227E-09 7.14580E-09-9.29680E-08
 -1        30 1.29316E-20-2.38107E-20-6.92415E-08
 -1        31 2.14240E-20 3.57489E-09-9.29829E-08
 -1        32 1.10034E-20 7.12783E-09-6.92187E-08
 -1        33 7.14575E-09-8.65794E-20-1.40607E-07
 -1        34 7.14135E-09 7.14135E-09-1.40609E-07
 -1        35 4.86015E-20-9.00684E-20-1.40601E-07
 -1        36 4.53352E-20 7.14575E-09-1.40607E-07
 -1        37 7.13613E-09-6.08119E-20-1.16776E-07
 -1        38 7.14134E-09 3.57303E-09-1.40602E-07
 -1        39 7.13939E-09 7.13939E-09-1.16784E-07
 -1        40 3.57348E-09-8.84704E-20-1.40598E-07
 -1        41 3.57303E-09 7.14134E-09-1.40602E-07
 -1        42 3.44320E-20-6.39006E-20-1.16780E-07
 -1        43 4.70496E-20 3.57348E-09-1.40598E-07
 -1        44 3.15802E-20 7.13613E-09-1.16776E-07
 -1        45 7.14243E-09-1.49163E-19-1.88216E-07
 -1        46 7.14258E-09 7.14258E-09-1.88215E-07
 -1        47 8.31574E-20-1.53558E-19-1.88217E-07
 -1        48 7.89252E-20 7.14243E-09-1.88216E-07
 -1        49 7.14435E-09-1.16173E-19-1.64411E-07
 -1        50 7.14320E-09 3.57064E-09-1.88217E-07
 -1        51 7.14414E-09 7.14414E-09-1.64410E-07
 -1        52 3.57110E-09-1.51460E-19-1.88218E-07
 -1        53 3.57064E-09 7.14320E-09-1.88217E-07
 -1        54 6.48195E-20-1.20119E-19-1.64411E-07
 -1        55 8.11229E-20 3.57110E-09-1.88218E-07
 -1        56 6.11634E-20 7.14435E-09-1.64411E-07
 -1        57 7.14303E-09-2.22858E-19-2.35837E-07
 -1        58 7.14290E-09 7.14290E-09-2.35838E-07
 -1        59 1.24531E-19-2.28337E-19-2.35837E-07
 -1        60 1.19185E-19 7.14303E-09-2.35837E-07
 -1        61 7.14243E-09-1.84901E-19-2.12027E-07
 -1        62 7.14275E-09 3.57163E-09-2.35837E-07
 -1        63 7.14255E-09 7.14255E-09-2.12027E-07
 -1        64 3.57154E-09-2.25656E-19-2.35837E-07
 -1        65 3.57163E-09 7.14275E-09-2.35837E-07