# vtk DataFile Version 3.0

ASCII
DATASET UNSTRUCTURED_GRID

POINTS 321 double
	 1.00000000E-02	 1.00000000E-02	 0.00000000E+00
	 1.00000000E-02	 5.00000000E-03	 0.00000000E+00
	 1.00000000E-02	 5.00000000E-03	 1.00000000E-02
	 1.00000000E-02	 1.00000000E-02	 1.00000000E-02
	 5.00000000E-03	 1.00000000E-02	 0.00000000E+00
	 5.00000000E-03	 5.00000000E-03	 0.00000000E+00
	 5.00000000E-03	 5.00000000E-03	 1.00000000E-02
	 5.00000000E-03	 1.00000000E-02	 1.00000000E-02
	 1.00000000E-02	 7.50000000E-03	 0.00000000E+00
	 1.00000000E-02	 5.00000000E-03	 5.00000000E-03
	 1.00000000E-02	 7.50000000E-03	 1.00000000E-02
	 1.00000000E-02	 1.00000000E-02	 5.00000000E-03
	 7.50000000E-03	 1.00000000E-02	 0.00000000E+00
	 7.50000000E-03	 5.00000000E-03	 0.00000000E+00
	 7.50000000E-03	 5.00000000E-03	 1.00000000E-02
	 7.50000000E-03	 1.00000000E-02	 1.00000000E-02
	 5.00000000E-03	 7.50000000E-03	 0.00000000E+00
	 5.00000000E-03	 5.00000000E-03	 5.00000000E-03
	 5.00000000E-03	 7.50000000E-03	 1.00000000E-02
	 5.00000000E-03	 1.00000000E-02	 5.00000000E-03
	 1.00000000E-02	 5.00000000E-03	 2.00000000E-02
	 1.00000000E-02	 1.00000000E-02	 2.00000000E-02
	 5.00000000E-03	 5.00000000E-03	 2.00000000E-02
	 5.00000000E-03	 1.00000000E-02	 2.00000000E-02
	 1.00000000E-02	 5.00000000E-03	 1.50000000E-02
	 1.00000000E-02	 7.50000000E-03	 2.00000000E-02
	 1.00000000E-02	 1.00000000E-02	 1.50000000E-02
	 7.50000000E-03	 5.00000000E-03	 2.00000000E-02
	 7.50000000E-03	 1.00000000E-02	 2.00000000E-02
	 5.00000000E-03	 5.00000000E-03	 1.50000000E-02
	 5.00000000E-03	 7.50000000E-03	 2.00000000E-02
	 5.00000000E-03	 1.00000000E-02	 1.50000000E-02
	 1.00000000E-02	 5.00000000E-03	 3.00000000E-02
	 1.00000000E-02	 1.00000000E-02	 3.00000000E-02
	 5.00000000E-03	 5.00000000E-03	 3.00000000E-02
	 5.00000000E-03	 1.00000000E-02	 3.00000000E-02
	 1.00000000E-02	 5.00000000E-03	 2.50000000E-02
	 1.00000000E-02	 7.50000000E-03	 3.00000000E-02
	 1.00000000E-02	 1.00000000E-02	 2.50000000E-02
	 7.50000000E-03	 5.00000000E-03	 3.00000000E-02
	 7.50000000E-03	 1.00000000E-02	 3.00000000E-02
	 5.00000000E-03	 5.00000000E-03	 2.50000000E-02
	 5.00000000E-03	 7.50000000E-03	 3.00000000E-02
	 5.00000000E-03	 1.00000000E-02	 2.50000000E-02
	 1.00000000E-02	 5.00000000E-03	 4.00000000E-02
	 1.00000000E-02	 1.00000000E-02	 4.00000000E-02
	 5.00000000E-03	 5.00000000E-03	 4.00000000E-02
	 5.00000000E-03	 1.00000000E-02	 4.00000000E-02
	 1.00000000E-02	 5.00000000E-03	 3.50000000E-02
	 1.00000000E-02	 7.50000000E-03	 4.00000000E-02
	 1.00000000E-02	 1.00000000E-02	 3.50000000E-02
	 7.50000000E-03	 5.00000000E-03	 4.00000000E-02
	 7.50000000E-03	 1.00000000E-02	 4.00000000E-02
	 5.00000000E-03	 5.00000000E-03	 3.50000000E-02
	 5.00000000E-03	 7.50000000E-03	 4.00000000E-02
	 5.00000000E-03	 1.00000000E-02	 3.50000000E-02
	 1.00000000E-02	 5.00000000E-03	 5.00000000E-02
	 1.00000000E-02	 1.00000000E-02	 5.00000000E-02
	 5.00000000E-03	 5.00000000E-03	 5.00000000E-02
	 5.00000000E-03	 1.00000000E-02	 5.00000000E-02
	 1.00000000E-02	 5.00000000E-03	 4.50000000E-02
	 1.00000000E-02	 7.50000000E-03	 5.00000000E-02
	 1.00000000E-02	 1.00000000E-02	 4.50000000E-02
	 7.50000000E-03	 5.00000000E-03	 5.00000000E-02
	 7.50000000E-03	 1.00000000E-02	 5.00000000E-02
	 5.00000000E-03	 5.00000000E-03	 4.50000000E-02
	 5.00000000E-03	 7.50000000E-03	 5.00000000E-02
	 5.00000000E-03	 1.00000000E-02	 4.50000000E-02
	 1.00000000E-02	 5.00000000E-03	 6.00000000E-02
	 1.00000000E-02	 1.00000000E-02	 6.00000000E-02
	 5.00000000E-03	 5.00000000E-03	 6.00000000E-02
	 5.00000000E-03	 1.00000000E-02	 6.00000000E-02
	 1.00000000E-02	 5.00000000E-03	 5.50000000E-02
	 1.00000000E-02	 7.50000000E-03	 6.00000000E-02
	 1.00000000E-02	 1.00000000E-02	 5.50000000E-02
	 7.50000000E-03	 5.00000000E-03	 6.00000000E-02
	 7.50000000E-03	 1.00000000E-02	 6.00000000E-02
	 5.00000000E-03	 5.00000000E-03	 5.50000000E-02
	 5.00000000E-03	 7.50000000E-03	 6.00000000E-02
	 5.00000000E-03	 1.00000000E-02	 5.50000000E-02
	 1.00000000E-02	 5.00000000E-03	 7.00000000E-02
	 1.00000000E-02	 1.00000000E-02	 7.00000000E-02
	 5.00000000E-03	 5.00000000E-03	 7.00000000E-02
	 5.00000000E-03	 1.00000000E-02	 7.00000000E-02
	 1.00000000E-02	 5.00000000E-03	 6.50000000E-02
	 1.00000000E-02	 7.50000000E-03	 7.00000000E-02
	 1.00000000E-02	 1.00000000E-02	 6.50000000E-02
	 7.50000000E-03	 5.00000000E-03	 7.00000000E-02
	 7.50000000E-03	 1.00000000E-02	 7.00000000E-02
	 5.00000000E-03	 5.00000000E-03	 6.50000000E-02
	 5.00000000E-03	 7.50000000E-03	 7.00000000E-02
	 5.00000000E-03	 1.00000000E-02	 6.50000000E-02
	 1.00000000E-02	 5.00000000E-03	 8.00000000E-02
	 1.00000000E-02	 1.00000000E-02	 8.00000000E-02
	 5.00000000E-03	 5.00000000E-03	 8.00000000E-02
	 5.00000000E-03	 1.00000000E-02	 8.00000000E-02
	 1.00000000E-02	 5.00000000E-03	 7.50000000E-02
	 1.00000000E-02	 7.50000000E-03	 8.00000000E-02
	 1.00000000E-02	 1.00000000E-02	 7.50000000E-02
	 7.50000000E-03	 5.00000000E-03	 8.00000000E-02
	 7.50000000E-03	 1.00000000E-02	 8.00000000E-02
	 5.00000000E-03	 5.00000000E-03	 7.50000000E-02
	 5.00000000E-03	 7.50000000E-03	 8.00000000E-02
	 5.00000000E-03	 1.00000000E-02	 7.50000000E-02
	 1.00000000E-02	 5.00000000E-03	 9.00000000E-02
	 1.00000000E-02	 1.00000000E-02	 9.00000000E-02
	 5.00000000E-03	 5.00000000E-03	 9.00000000E-02
	 5.00000000E-03	 1.00000000E-02	 9.00000000E-02
	 1.00000000E-02	 5.00000000E-03	 8.50000000E-02
	 1.00000000E-02	 7.50000000E-03	 9.00000000E-02
	 1.00000000E-02	 1.00000000E-02	 8.50000000E-02
	 7.50000000E-03	 5.00000000E-03	 9.00000000E-02
	 7.50000000E-03	 1.00000000E-02	 9.00000000E-02
	 5.00000000E-03	 5.00000000E-03	 8.50000000E-02
	 5.00000000E-03	 7.50000000E-03	 9.00000000E-02
	 5.00000000E-03	 1.00000000E-02	 8.50000000E-02
	 1.00000000E-02	 5.00000000E-03	 1.00000000E-01
	 1.00000000E-02	 1.00000000E-02	 1.00000000E-01
	 5.00000000E-03	 5.00000000E-03	 1.00000000E-01
	 5.00000000E-03	 1.00000000E-02	 1.00000000E-01
	 1.00000000E-02	 5.00000000E-03	 9.50000000E-02
	 1.00000000E-02	 7.50000000E-03	 1.00000000E-01
	 1.00000000E-02	 1.00000000E-02	 9.50000000E-02
	 7.50000000E-03	 5.00000000E-03	 1.00000000E-01
	 7.50000000E-03	 1.00000000E-02	 1.00000000E-01
	 5.00000000E-03	 5.00000000E-03	 9.50000000E-02
	 5.00000000E-03	 7.50000000E-03	 1.00000000E-01
	 5.00000000E-03	 1.00000000E-02	 9.50000000E-02
	 0.00000000E+00	 1.00000000E-02	 0.00000000E+00
	 0.00000000E+00	 5.00000000E-03	 0.00000000E+00
	 0.00000000E+00	 5.00000000E-03	 1.00000000E-02
	 0.00000000E+00	 1.00000000E-02	 1.00000000E-02
	 2.50000000E-03	 1.00000000E-02	 0.00000000E+00
	 2.50000000E-03	 5.00000000E-03	 0.00000000E+00
	 2.50000000E-03	 5.00000000E-03	 1.00000000E-02
	 2.50000000E-03	 1.00000000E-02	 1.00000000E-02
	 0.00000000E+00	 7.50000000E-03	 0.00000000E+00
	 0.00000000E+00	 5.00000000E-03	 5.00000000E-03
	 0.00000000E+00	 7.50000000E-03	 1.00000000E-02
	 0.00000000E+00	 1.00000000E-02	 5.00000000E-03
	 0.00000000E+00	 5.00000000E-03	 2.00000000E-02
	 0.00000000E+00	 1.00000000E-02	 2.00000000E-02
	 2.50000000E-03	 5.00000000E-03	 2.00000000E-02
	 2.50000000E-03	 1.00000000E-02	 2.00000000E-02
	 0.00000000E+00	 5.00000000E-03	 1.50000000E-02
	 0.00000000E+00	 7.50000000E-03	 2.00000000E-02
	 0.00000000E+00	 1.00000000E-02	 1.50000000E-02
	 0.00000000E+00	 5.00000000E-03	 3.00000000E-02
	 0.00000000E+00	 1.00000000E-02	 3.00000000E-02
	 2.50000000E-03	 5.00000000E-03	 3.00000000E-02
	 2.50000000E-03	 1.00000000E-02	 3.00000000E-02
	 0.00000000E+00	 5.00000000E-03	 2.50000000E-02
	 0.00000000E+00	 7.50000000E-03	 3.00000000E-02
	 0.00000000E+00	 1.00000000E-02	 2.50000000E-02
	 0.00000000E+00	 5.00000000E-03	 4.00000000E-02
	 0.00000000E+00	 1.00000000E-02	 4.00000000E-02
	 2.50000000E-03	 5.00000000E-03	 4.00000000E-02
	 2.50000000E-03	 1.00000000E-02	 4.00000000E-02
	 0.00000000E+00	 5.00000000E-03	 3.50000000E-02
	 0.00000000E+00	 7.50000000E-03	 4.00000000E-02
	 0.00000000E+00	 1.00000000E-02	 3.50000000E-02
	 0.00000000E+00	 5.00000000E-03	 5.00000000E-02
	 0.00000000E+00	 1.00000000E-02	 5.00000000E-02
	 2.50000000E-03	 5.00000000E-03	 5.00000000E-02
	 2.50000000E-03	 1.00000000E-02	 5.00000000E-02
	 0.00000000E+00	 5.00000000E-03	 4.50000000E-02
	 0.00000000E+00	 7.50000000E-03	 5.00000000E-02
	 0.00000000E+00	 1.00000000E-02	 4.50000000E-02
	 0.00000000E+00	 5.00000000E-03	 6.00000000E-02
	 0.00000000E+00	 1.00000000E-02	 6.00000000E-02
	 2.50000000E-03	 5.00000000E-03	 6.00000000E-02
	 2.50000000E-03	 1.00000000E-02	 6.00000000E-02
	 0.00000000E+00	 5.00000000E-03	 5.50000000E-02
	 0.00000000E+00	 7.50000000E-03	 6.00000000E-02
	 0.00000000E+00	 1.00000000E-02	 5.50000000E-02
	 0.00000000E+00	 5.00000000E-03	 7.00000000E-02
	 0.00000000E+00	 1.00000000E-02	 7.00000000E-02
	 2.50000000E-03	 5.00000000E-03	 7.00000000E-02
	 2.50000000E-03	 1.00000000E-02	 7.00000000E-02
	 0.00000000E+00	 5.00000000E-03	 6.50000000E-02
	 0.00000000E+00	 7.50000000E-03	 7.00000000E-02
	 0.00000000E+00	 1.00000000E-02	 6.50000000E-02
	 0.00000000E+00	 5.00000000E-03	 8.00000000E-02
	 0.00000000E+00	 1.00000000E-02	 8.00000000E-02
	 2.50000000E-03	 5.00000000E-03	 8.00000000E-02
	 2.50000000E-03	 1.00000000E-02	 8.00000000E-02
	 0.00000000E+00	 5.00000000E-03	 7.50000000E-02
	 0.00000000E+00	 7.50000000E-03	 8.00000000E-02
	 0.00000000E+00	 1.00000000E-02	 7.50000000E-02
	 0.00000000E+00	 5.00000000E-03	 9.00000000E-02
	 0.00000000E+00	 1.00000000E-02	 9.00000000E-02
	 2.50000000E-03	 5.00000000E-03	 9.00000000E-02
	 2.50000000E-03	 1.00000000E-02	 9.00000000E-02
	 0.00000000E+00	 5.00000000E-03	 8.50000000E-02
	 0.00000000E+00	 7.50000000E-03	 9.00000000E-02
	 0.00000000E+00	 1.00000000E-02	 8.50000000E-02
	 0.00000000E+00	 5.00000000E-03	 1.00000000E-01
	 0.00000000E+00	 1.00000000E-02	 1.00000000E-01
	 2.50000000E-03	 5.00000000E-03	 1.00000000E-01
	 2.50000000E-03	 1.00000000E-02	 1.00000000E-01
	 0.00000000E+00	 5.00000000E-03	 9.50000000E-02
	 0.00000000E+00	 7.50000000E-03	 1.00000000E-01
	 0.00000000E+00	 1.00000000E-02	 9.50000000E-02
	 1.00000000E-02	 0.00000000E+00	 0.00000000E+00
	 1.00000000E-02	 0.00000000E+00	 1.00000000E-02
	 5.00000000E-03	 0.00000000E+00	 0.00000000E+00
	 5.00000000E-03	 0.00000000E+00	 1.00000000E-02
	 1.00000000E-02	 2.50000000E-03	 0.00000000E+00
	 1.00000000E-02	 0.00000000E+00	 5.00000000E-03
	 1.00000000E-02	 2.50000000E-03	 1.00000000E-02
	 7.50000000E-03	 0.00000000E+00	 0.00000000E+00
	 7.50000000E-03	 0.00000000E+00	 1.00000000E-02
	 5.00000000E-03	 2.50000000E-03	 0.00000000E+00
	 5.00000000E-03	 0.00000000E+00	 5.00000000E-03
	 5.00000000E-03	 2.50000000E-03	 1.00000000E-02
	 1.00000000E-02	 0.00000000E+00	 2.00000000E-02
	 5.00000000E-03	 0.00000000E+00	 2.00000000E-02
	 1.00000000E-02	 0.00000000E+00	 1.50000000E-02
	 1.00000000E-02	 2.50000000E-03	 2.00000000E-02
	 7.50000000E-03	 0.00000000E+00	 2.00000000E-02
	 5.00000000E-03	 0.00000000E+00	 1.50000000E-02
	 5.00000000E-03	 2.50000000E-03	 2.00000000E-02
	 1.00000000E-02	 0.00000000E+00	 3.00000000E-02
	 5.00000000E-03	 0.00000000E+00	 3.00000000E-02
	 1.00000000E-02	 0.00000000E+00	 2.50000000E-02
	 1.00000000E-02	 2.50000000E-03	 3.00000000E-02
	 7.50000000E-03	 0.00000000E+00	 3.00000000E-02
	 5.00000000E-03	 0.00000000E+00	 2.50000000E-02
	 5.00000000E-03	 2.50000000E-03	 3.00000000E-02
	 1.00000000E-02	 0.00000000E+00	 4.00000000E-02
	 5.00000000E-03	 0.00000000E+00	 4.00000000E-02
	 1.00000000E-02	 0.00000000E+00	 3.50000000E-02
	 1.00000000E-02	 2.50000000E-03	 4.00000000E-02
	 7.50000000E-03	 0.00000000E+00	 4.00000000E-02
	 5.00000000E-03	 0.00000000E+00	 3.50000000E-02
	 5.00000000E-03	 2.50000000E-03	 4.00000000E-02
	 1.00000000E-02	 0.00000000E+00	 5.00000000E-02
	 5.00000000E-03	 0.00000000E+00	 5.00000000E-02
	 1.00000000E-02	 0.00000000E+00	 4.50000000E-02
	 1.00000000E-02	 2.50000000E-03	 5.00000000E-02
	 7.50000000E-03	 0.00000000E+00	 5.00000000E-02
	 5.00000000E-03	 0.00000000E+00	 4.50000000E-02
	 5.00000000E-03	 2.50000000E-03	 5.00000000E-02
	 1.00000000E-02	 0.00000000E+00	 6.00000000E-02
	 5.00000000E-03	 0.00000000E+00	 6.00000000E-02
	 1.00000000E-02	 0.00000000E+00	 5.50000000E-02
	 1.00000000E-02	 2.50000000E-03	 6.00000000E-02
	 7.50000000E-03	 0.00000000E+00	 6.00000000E-02
	 5.00000000E-03	 0.00000000E+00	 5.50000000E-02
	 5.00000000E-03	 2.50000000E-03	 6.00000000E-02
	 1.00000000E-02	 0.00000000E+00	 7.00000000E-02
	 5.00000000E-03	 0.00000000E+00	 7.00000000E-02
	 1.00000000E-02	 0.00000000E+00	 6.50000000E-02
	 1.00000000E-02	 2.50000000E-03	 7.00000000E-02
	 7.50000000E-03	 0.00000000E+00	 7.00000000E-02
	 5.00000000E-03	 0.00000000E+00	 6.50000000E-02
	 5.00000000E-03	 2.50000000E-03	 7.00000000E-02
	 1.00000000E-02	 0.00000000E+00	 8.00000000E-02
	 5.00000000E-03	 0.00000000E+00	 8.00000000E-02
	 1.00000000E-02	 0.00000000E+00	 7.50000000E-02
	 1.00000000E-02	 2.50000000E-03	 8.00000000E-02
	 7.50000000E-03	 0.00000000E+00	 8.00000000E-02
	 5.00000000E-03	 0.00000000E+00	 7.50000000E-02
	 5.00000000E-03	 2.50000000E-03	 8.00000000E-02
	 1.00000000E-02	 0.00000000E+00	 9.00000000E-02
	 5.00000000E-03	 0.00000000E+00	 9.00000000E-02
	 1.00000000E-02	 0.00000000E+00	 8.50000000E-02
	 1.00000000E-02	 2.50000000E-03	 9.00000000E-02
	 7.50000000E-03	 0.00000000E+00	 9.00000000E-02
	 5.00000000E-03	 0.00000000E+00	 8.50000000E-02
	 5.00000000E-03	 2.50000000E-03	 9.00000000E-02
	 1.00000000E-02	 0.00000000E+00	 1.00000000E-01
	 5.00000000E-03	 0.00000000E+00	 1.00000000E-01
	 1.00000000E-02	 0.00000000E+00	 9.50000000E-02
	 1.00000000E-02	 2.50000000E-03	 1.00000000E-01
	 7.50000000E-03	 0.00000000E+00	 1.00000000E-01
	 5.00000000E-03	 0.00000000E+00	 9.50000000E-02
	 5.00000000E-03	 2.50000000E-03	 1.00000000E-01
	 0.00000000E+00	 0.00000000E+00	 0.00000000E+00
	 0.00000000E+00	 0.00000000E+00	 1.00000000E-02
	 2.50000000E-03	 0.00000000E+00	 0.00000000E+00
	 2.50000000E-03	 0.00000000E+00	 1.00000000E-02
	 0.00000000E+00	 2.50000000E-03	 0.00000000E+00
	 0.00000000E+00	 0.00000000E+00	 5.00000000E-03
	 0.00000000E+00	 2.50000000E-03	 1.00000000E-02
	 0.00000000E+00	 0.00000000E+00	 2.00000000E-02
	 2.50000000E-03	 0.00000000E+00	 2.00000000E-02
	 0.00000000E+00	 0.00000000E+00	 1.50000000E-02
	 0.00000000E+00	 2.50000000E-03	 2.00000000E-02
	 0.00000000E+00	 0.00000000E+00	 3.00000000E-02
	 2.50000000E-03	 0.00000000E+00	 3.00000000E-02
	 0.00000000E+00	 0.00000000E+00	 2.50000000E-02
	 0.00000000E+00	 2.50000000E-03	 3.00000000E-02
	 0.00000000E+00	 0.00000000E+00	 4.00000000E-02
	 2.50000000E-03	 0.00000000E+00	 4.00000000E-02
	 0.00000000E+00	 0.00000000E+00	 3.50000000E-02
	 0.00000000E+00	 2.50000000E-03	 4.00000000E-02
	 0.00000000E+00	 0.00000000E+00	 5.00000000E-02
	 2.50000000E-03	 0.00000000E+00	 5.00000000E-02
	 0.00000000E+00	 0.00000000E+00	 4.50000000E-02
	 0.00000000E+00	 2.50000000E-03	 5.00000000E-02
	 0.00000000E+00	 0.00000000E+00	 6.00000000E-02
	 2.50000000E-03	 0.00000000E+00	 6.00000000E-02
	 0.00000000E+00	 0.00000000E+00	 5.50000000E-02
	 0.00000000E+00	 2.50000000E-03	 6.00000000E-02
	 0.00000000E+00	 0.00000000E+00	 7.00000000E-02
	 2.50000000E-03	 0.00000000E+00	 7.00000000E-02
	 0.00000000E+00	 0.00000000E+00	 6.50000000E-02
	 0.00000000E+00	 2.50000000E-03	 7.00000000E-02
	 0.00000000E+00	 0.00000000E+00	 8.00000000E-02
	 2.50000000E-03	 0.00000000E+00	 8.00000000E-02
	 0.00000000E+00	 0.00000000E+00	 7.50000000E-02
	 0.00000000E+00	 2.50000000E-03	 8.00000000E-02
	 0.00000000E+00	 0.00000000E+00	 9.00000000E-02
	 2.50000000E-03	 0.00000000E+00	 9.00000000E-02
	 0.00000000E+00	 0.00000000E+00	 8.50000000E-02
	 0.00000000E+00	 2.50000000E-03	 9.00000000E-02
	 0.00000000E+00	 0.00000000E+00	 1.00000000E-01
	 2.50000000E-03	 0.00000000E+00	 1.00000000E-01
	 0.00000000E+00	 0.00000000E+00	 9.50000000E-02
	 0.00000000E+00	 2.50000000E-03	 1.00000000E-01

CELLS 40 840
	20 0 1 2 3 4 5 6 7 8 9 10 11 16 17 18 19 12 13 14 15 
	20 3 2 20 21 7 6 22 23 10 24 25 26 18 29 30 31 15 14 27 28 
	20 21 20 32 33 23 22 34 35 25 36 37 38 30 41 42 43 28 27 39 40 
	20 33 32 44 45 35 34 46 47 37 48 49 50 42 53 54 55 40 39 51 52 
	20 45 44 56 57 47 46 58 59 49 60 61 62 54 65 66 67 52 51 63 64 
	20 57 56 68 69 59 58 70 71 61 72 73 74 66 77 78 79 64 63 75 76 
	20 69 68 80 81 71 70 82 83 73 84 85 86 78 89 90 91 76 75 87 88 
	20 81 80 92 93 83 82 94 95 85 96 97 98 90 101 102 103 88 87 99 100 
	20 93 92 104 105 95 94 106 107 97 108 109 110 102 113 114 115 100 99 111 112 
	20 105 104 116 117 107 106 118 119 109 120 121 122 114 125 126 127 112 111 123 124 
	20 4 5 6 7 128 129 130 131 16 17 18 19 136 137 138 139 132 133 134 135 
	20 7 6 22 23 131 130 140 141 18 29 30 31 138 144 145 146 135 134 142 143 
	20 23 22 34 35 141 140 147 148 30 41 42 43 145 151 152 153 143 142 149 150 
	20 35 34 46 47 148 147 154 155 42 53 54 55 152 158 159 160 150 149 156 157 
	20 47 46 58 59 155 154 161 162 54 65 66 67 159 165 166 167 157 156 163 164 
	20 59 58 70 71 162 161 168 169 66 77 78 79 166 172 173 174 164 163 170 171 
	20 71 70 82 83 169 168 175 176 78 89 90 91 173 179 180 181 171 170 177 178 
	20 83 82 94 95 176 175 182 183 90 101 102 103 180 186 187 188 178 177 184 185 
	20 95 94 106 107 183 182 189 190 102 113 114 115 187 193 194 195 185 184 191 192 
	20 107 106 118 119 190 189 196 197 114 125 126 127 194 200 201 202 192 191 198 199 
	20 1 203 204 2 5 205 206 6 207 208 209 9 212 213 214 17 13 210 211 14 
	20 2 204 215 20 6 206 216 22 209 217 218 24 214 220 221 29 14 211 219 27 
	20 20 215 222 32 22 216 223 34 218 224 225 36 221 227 228 41 27 219 226 39 
	20 32 222 229 44 34 223 230 46 225 231 232 48 228 234 235 53 39 226 233 51 
	20 44 229 236 56 46 230 237 58 232 238 239 60 235 241 242 65 51 233 240 63 
	20 56 236 243 68 58 237 244 70 239 245 246 72 242 248 249 77 63 240 247 75 
	20 68 243 250 80 70 244 251 82 246 252 253 84 249 255 256 89 75 247 254 87 
	20 80 250 257 92 82 251 258 94 253 259 260 96 256 262 263 101 87 254 261 99 
	20 92 257 264 104 94 258 265 106 260 266 267 108 263 269 270 113 99 261 268 111 
	20 104 264 271 116 106 265 272 118 267 273 274 120 270 276 277 125 111 268 275 123 
	20 5 205 206 6 129 278 279 130 212 213 214 17 282 283 284 137 133 280 281 134 
	20 6 206 216 22 130 279 285 140 214 220 221 29 284 287 288 144 134 281 286 142 
	20 22 216 223 34 140 285 289 147 221 227 228 41 288 291 292 151 142 286 290 149 
	20 34 223 230 46 147 289 293 154 228 234 235 53 292 295 296 158 149 290 294 156 
	20 46 230 237 58 154 293 297 161 235 241 242 65 296 299 300 165 156 294 298 163 
	20 58 237 244 70 161 297 301 168 242 248 249 77 300 303 304 172 163 298 302 170 
	20 70 244 251 82 168 301 305 175 249 255 256 89 304 307 308 179 170 302 306 177 
	20 82 251 258 94 175 305 309 182 256 262 263 101 308 311 312 186 177 306 310 184 
	20 94 258 265 106 182 309 313 189 263 269 270 113 312 315 316 193 184 310 314 191 
	20 106 265 272 118 189 313 317 196 270 276 277 125 316 319 320 200 191 314 318 198 

CELL_TYPES 40
	25
	25
	25
	25
	25
	25
	25
	25
	25
	25
	25
	25
	25
	25
	25
	25
	25
	25
	25
	25
	25
	25
	25
	25
	25
	25
	25
	25
	25
	25
	25
	25
	25
	25
	25
	25
	25
	25
	25
	25

POINT_DATA 321
FIELD U 1
	U 3 321 double
		 0.00000000E+00	 0.00000000E+00	 0.00000000E+00
		 0.00000000E+00	 0.00000000E+00	 0.00000000E+00
		-9.89653000E-13	-4.16975000E+00	 3.31513000E-13
		 4.17105000E+00	-4.17105000E+00	 1.62093000E-14
		 0.00000000E+00	 0.00000000E+00	 0.00000000E+00
		 0.00000000E+00	 0.00000000E+00	 0.00000000E+00
		-1.01452000E-12	 1.19371000E-12	 7.32747000E-14
		 4.16975000E+00	 1.14220000E-12	-2.40807000E-13
		 0.00000000E+00	 0.00000000E+00	 0.00000000E+00
		-4.92051000E-13	-2.17629000E+00	 2.93321000E-13
		 2.08893000E+00	-4.16925000E+00	-3.51284000E-01
		 2.10256000E+00	-2.10256000E+00	-9.99201000E-15
		 0.00000000E+00	 0.00000000E+00	 0.00000000E+00
		 0.00000000E+00	 0.00000000E+00	 0.00000000E+00
		-1.00475000E-12	-2.08283000E+00	 1.54987000E-13
		 4.16925000E+00	-2.08893000E+00	 3.51284000E-01
		 0.00000000E+00	 0.00000000E+00	 0.00000000E+00
		-4.61409000E-13	 5.54667000E-13	 2.97540000E-14
		 2.08283000E+00	 1.17151000E-12	-2.96568000E-14
		 2.17629000E+00	 5.65770000E-13	-2.75113000E-13
		-9.61564000E-13	-6.17606000E+00	-2.57350000E-13
		 6.23947000E+00	-6.23947000E+00	 1.74083000E-13
		-1.00153000E-12	 1.23634000E-12	 1.37224000E-13
		 6.17606000E+00	 1.18083000E-12	 5.63993000E-13
		-1.21059000E-12	-5.61123000E+00	 6.03961000E-14
		 3.10415000E+00	-6.21230000E+00	 5.20085000E-03
		 5.68685000E+00	-5.68685000E+00	 9.05942000E-14
		-9.89681000E-13	-3.09660000E+00	-4.17444000E-14
		 6.21230000E+00	-3.10415000E+00	-5.20085000E-03
		-1.23923000E-12	 1.48193000E-12	 1.10134000E-13
		 3.09660000E+00	 1.22569000E-12	 3.29958000E-13
		 5.61123000E+00	 1.42464000E-12	 1.43885000E-13
		 4.07424000E-13	-4.48258000E+00	-3.79696000E-13
		 4.51976000E+00	-4.51976000E+00	 2.70006000E-13
		 4.25660000E-13	-3.73035000E-13	 1.72529000E-13
		 4.48258000E+00	-3.54383000E-13	 8.27782000E-13
		-3.41061000E-13	-5.76837000E+00	-4.25437000E-13
		 2.25377000E+00	-4.50276000E+00	 2.50753000E-01
		 5.82518000E+00	-5.82518000E+00	 2.38920000E-13
		 4.23439000E-13	-2.24447000E+00	-7.06102000E-14
		 4.50276000E+00	-2.25377000E+00	-2.50753000E-01
		-3.49720000E-13	 5.17808000E-13	 1.58984000E-13
		 2.24447000E+00	-3.74367000E-13	 4.66960000E-13
		 5.76837000E+00	 4.89830000E-13	 8.18012000E-13
		 1.03006000E-12	-1.46935000E-01	 3.03535000E-13
		 1.48990000E-01	-1.48990000E-01	 2.08389000E-13
		 1.07825000E-12	-1.24745000E-12	 1.69864000E-13
		 1.46935000E-01	-1.17861000E-12	 8.38496000E-14
		 9.37361000E-13	-2.50709000E+00	-8.88178000E-14
		 7.37335000E-02	-1.48219000E-01	 3.70539000E-01
		 2.53304000E+00	-2.53304000E+00	 2.55795000E-13
		 1.07470000E-12	-7.39124000E-02	 2.30149000E-13
		 1.48219000E-01	-7.37335000E-02	-3.70539000E-01
		 9.73444000E-13	-1.05738000E-12	 1.74971000E-13
		 7.39124000E-02	-1.23812000E-12	 1.34337000E-13
		 2.50709000E+00	-1.00786000E-12	 5.33018000E-13
		-6.92779000E-14	 4.27665000E+00	 7.09210000E-13
		-4.31502000E+00	 4.31502000E+00	 6.43929000E-14
		-7.39409000E-14	-3.82472000E-14	 1.25233000E-13
		-4.27665000E+00	-2.91989000E-14	-5.27134000E-13
		 6.30829000E-13	 2.23613000E+00	 6.12732000E-13
		-2.14995000E+00	 4.29796000E+00	 2.66620000E-01
		-2.25904000E+00	 2.25904000E+00	 1.42275000E-13
		-6.88338000E-14	 2.14239000E+00	 3.83693000E-13
		-4.29796000E+00	 2.14995000E+00	-2.66620000E-01
		 6.48336000E-13	-8.36442000E-13	 1.53211000E-13
		-2.14239000E+00	-2.15938000E-14	-1.56319000E-13
		-2.23613000E+00	-7.95364000E-13	-3.30402000E-13
		-1.03384000E-12	 6.17112000E+00	 1.34781000E-13
		-6.22609000E+00	 6.22609000E+00	 1.84297000E-14
		-1.11977000E-12	 1.22091000E-12	 6.46150000E-14
		-6.17112000E+00	 1.16640000E-12	-5.68434000E-14
		-7.23144000E-13	 5.65695000E+00	 5.08926000E-13
		-3.10241000E+00	 6.20155000E+00	 5.85852000E-03
		-5.71502000E+00	 5.71502000E+00	 2.35367000E-14
		-1.10001000E-12	 3.09125000E+00	 9.79217000E-14
		-6.20155000E+00	 3.10241000E+00	-5.85852000E-03
		-7.59837000E-13	 7.75213000E-13	 9.92539000E-14
		-3.09125000E+00	 1.21236000E-12	 1.79856000E-14
		-5.65695000E+00	 7.32747000E-13	-3.91687000E-13
		-2.90878000E-13	 4.41632000E+00	-5.69766000E-13
		-4.45585000E+00	 4.45585000E+00	 2.35367000E-14
		-3.09974000E-13	 4.17444000E-13	-2.27596000E-14
		-4.41632000E+00	 4.01457000E-13	 5.77705000E-13
		-8.73523000E-13	 5.73253000E+00	-2.81997000E-13
		-2.22019000E+00	 4.43824000E+00	-2.58178000E-01
		-5.79130000E+00	 5.79130000E+00	 1.57652000E-14
		-3.01981000E-13	 2.21232000E+00	-2.64011000E-13
		-4.43824000E+00	 2.22019000E+00	 2.58178000E-01
		-9.20375000E-13	 1.06892000E-12	 1.90958000E-14
		-2.21232000E+00	 4.16112000E-13	 2.34951000E-13
		-5.73253000E+00	 1.02851000E-12	 3.33067000E-13
		 8.81739000E-13	 4.91534000E-02	-2.99594000E-13
		-4.90041000E-02	 4.90041000E-02	-6.86118000E-14
		 9.36806000E-13	-1.02696000E-12	-1.10578000E-13
		-4.91534000E-02	-9.38361000E-13	 1.14131000E-13
		 4.17444000E-13	 2.41796000E+00	-5.59948000E-13
		-2.45417000E-02	 4.90758000E-02	-3.71208000E-01
		-2.44308000E+00	 2.44308000E+00	-5.66214000E-15
		 9.33142000E-13	 2.45333000E-02	-1.92235000E-13
		-4.90758000E-02	 2.45417000E-02	 3.71208000E-01
		 4.34763000E-13	-4.30767000E-13	-6.61693000E-14
		-2.45333000E-02	-1.00253000E-12	-1.90958000E-14
		-2.41796000E+00	-3.80140000E-13	 4.80505000E-13
		 3.47278000E-13	-4.34207000E+00	 4.71623000E-13
		 4.38153000E+00	-4.38153000E+00	-2.70894000E-13
		 3.93907000E-13	-4.71290000E-13	-1.57208000E-13
		 4.34207000E+00	-4.28546000E-13	-9.00391000E-13
		 8.75078000E-13	-2.32587000E+00	 1.07581000E-13
		 2.18306000E+00	-4.36398000E+00	-2.56916000E-01
		 2.35125000E+00	-2.35125000E+00	-1.65867000E-13
		 3.99680000E-13	-2.17508000E+00	 1.35003000E-13
		 4.36398000E+00	-2.18306000E+00	 2.56916000E-01
		 9.26259000E-13	-1.06515000E-12	-1.45883000E-13
		 2.17508000E+00	-4.63185000E-13	-5.07594000E-13
		 2.32587000E+00	-1.00031000E-12	-4.07674000E-13
		-1.39444000E-12	-6.18252000E+00	 7.01661000E-13
		 6.25195000E+00	-6.25195000E+00	-3.82805000E-13
		-1.39444000E-12	 1.68043000E-12	-1.84075000E-13
		 6.18252000E+00	 1.67244000E-12	-1.25411000E-12
		-4.93605000E-13	-5.69907000E+00	 6.52811000E-13
		 3.11916000E+00	-6.21900000E+00	-2.69700000E-02
		 5.74720000E+00	-5.74720000E+00	-3.42393000E-13
		-1.38822000E-12	-3.09512000E+00	 2.53131000E-13
		 6.21900000E+00	-3.11916000E+00	 2.69700000E-02
		-4.69916000E-13	 5.33129000E-13	-1.82299000E-13
		 3.09512000E+00	 1.64535000E-12	-7.05630000E-13
		 5.69907000E+00	 5.34461000E-13	-1.16296000E-12
		 0.00000000E+00	 0.00000000E+00	 0.00000000E+00
		 0.00000000E+00	 0.00000000E+00	 0.00000000E+00
		-9.68114000E-13	 4.16975000E+00	-1.86740000E-13
		 4.17105000E+00	 4.17105000E+00	-4.68736000E-13
		 0.00000000E+00	 0.00000000E+00	 0.00000000E+00
		 0.00000000E+00	 0.00000000E+00	 0.00000000E+00
		-9.94538000E-13	 2.08283000E+00	-9.65894000E-15
		 4.16925000E+00	 2.08893000E+00	-3.51284000E-01
		 0.00000000E+00	 0.00000000E+00	 0.00000000E+00
		-4.71401000E-13	 2.17629000E+00	-2.22156000E-13
		 2.08893000E+00	 4.16925000E+00	 3.51284000E-01
		 2.10256000E+00	 2.10256000E+00	-5.18918000E-13
		-9.61897000E-13	 6.17606000E+00	 5.29798000E-13
		 6.23947000E+00	 6.23947000E+00	 9.37028000E-13
		-9.99423000E-13	 3.09660000E+00	 3.14859000E-13
		 6.21230000E+00	 3.10415000E+00	 5.20085000E-03
		-1.20515000E-12	 5.61123000E+00	 1.48326000E-13
		 3.10415000E+00	 6.21230000E+00	-5.20085000E-03
		 5.68685000E+00	 5.68685000E+00	 1.73195000E-13
		 4.10762000E-13	 4.48258000E+00	 7.20979000E-13
		 4.51976000E+00	 4.51976000E+00	 1.34337000E-12
		 4.27769000E-13	 2.24447000E+00	 4.16556000E-13
		 4.50276000E+00	 2.25377000E+00	 2.50753000E-01
		-3.38396000E-13	 5.76837000E+00	 7.44516000E-13
		 2.25377000E+00	 4.50276000E+00	-2.50753000E-01
		 5.82518000E+00	 5.82518000E+00	 1.36691000E-12
		 1.01197000E-12	 1.46935000E-01	 2.44249000E-14
		 1.48990000E-01	 1.48990000E-01	-5.63993000E-14
		 1.06037000E-12	 7.39124000E-02	 1.03029000E-13
		 1.48219000E-01	 7.37335000E-02	 3.70539000E-01
		 9.27522000E-13	 2.50709000E+00	 4.30322000E-13
		 7.37335000E-02	 1.48219000E-01	-3.70539000E-01
		 2.53304000E+00	 2.53304000E+00	 7.63167000E-13
		-7.50511000E-14	-4.27665000E+00	-4.54525000E-13
		-4.31502000E+00	-4.31502000E+00	-1.08047000E-12
		-8.46545000E-14	-2.14239000E+00	-1.32783000E-13
		-4.29796000E+00	-2.14995000E+00	 2.66620000E-01
		 6.08402000E-13	-2.23613000E+00	-3.19744000E-13
		-2.14995000E+00	-4.29796000E+00	-2.66620000E-01
		-2.25904000E+00	-2.25904000E+00	-7.59393000E-13
		-1.07320000E-12	-6.17112000E+00	-2.22045000E-15
		-6.22609000E+00	-6.22609000E+00	-1.27010000E-13
		-1.10967000E-12	-3.09125000E+00	 3.69149000E-14
		-6.20155000E+00	-3.10241000E+00	 5.85852000E-03
		-7.41462000E-13	-5.65695000E+00	-3.05422000E-13
		-3.10241000E+00	-6.20155000E+00	-5.85852000E-03
		-5.71502000E+00	-5.71502000E+00	-7.88702000E-13
		-3.09752000E-13	-4.41632000E+00	 5.26051000E-13
		-4.45585000E+00	-4.45585000E+00	 1.09013000E-12
		-3.15969000E-13	-2.21232000E+00	 2.21156000E-13
		-4.43824000E+00	-2.22019000E+00	-2.58178000E-01
		-8.99059000E-13	-5.73253000E+00	 3.35190000E-13
		-2.22019000E+00	-4.43824000E+00	 2.58178000E-01
		-5.79130000E+00	-5.79130000E+00	 6.29941000E-13
		 8.62865000E-13	-4.91534000E-02	 8.26006000E-14
		-4.90041000E-02	-4.90041000E-02	 2.86882000E-13
		 9.26148000E-13	-2.45333000E-02	-3.24185000E-14
		-4.90758000E-02	-2.45417000E-02	-3.71208000E-01
		 3.90354000E-13	-2.41796000E+00	 4.17000000E-13
		-2.45417000E-02	-4.90758000E-02	 3.71208000E-01
		-2.44308000E+00	-2.44308000E+00	 9.18376000E-13
		 3.51719000E-13	 4.34207000E+00	-7.88258000E-13
		 4.38153000E+00	 4.38153000E+00	-1.51035000E-12
		 3.84137000E-13	 2.17508000E+00	-4.48530000E-13
		 4.36398000E+00	 2.18306000E+00	-2.56916000E-01
		 8.62865000E-13	 2.32587000E+00	-3.78364000E-13
		 2.18306000E+00	 4.36398000E+00	 2.56916000E-01
		 2.35125000E+00	 2.35125000E+00	-6.52367000E-13
		-1.39799000E-12	 6.18252000E+00	-1.05560000E-12
		 6.25195000E+00	 6.25195000E+00	-2.10010000E-12
		-1.39888000E-12	 3.09512000E+00	-6.14064000E-13
		 6.21900000E+00	 3.11916000E+00	-2.69700000E-02
		-5.09370000E-13	 5.69907000E+00	-9.84254000E-13
		 3.11916000E+00	 6.21900000E+00	 2.69700000E-02
		 5.74720000E+00	 5.74720000E+00	-1.96732000E-12
		 0.00000000E+00	 0.00000000E+00	 0.00000000E+00
		-4.17105000E+00	-4.17105000E+00	 6.02629000E-13
		 0.00000000E+00	 0.00000000E+00	 0.00000000E+00
		-4.16975000E+00	 1.16618000E-12	 3.91021000E-13
		 0.00000000E+00	 0.00000000E+00	 0.00000000E+00
		-2.10256000E+00	-2.10256000E+00	 5.83977000E-13
		-2.08893000E+00	-4.16925000E+00	 3.51284000E-01
		 0.00000000E+00	 0.00000000E+00	 0.00000000E+00
		-4.16925000E+00	-2.08893000E+00	-3.51284000E-01
		 0.00000000E+00	 0.00000000E+00	 0.00000000E+00
		-2.17629000E+00	 5.87086000E-13	 3.42393000E-13
		-2.08283000E+00	 1.18128000E-12	 1.77858000E-13
		-6.23947000E+00	-6.23947000E+00	-6.70353000E-13
		-6.17606000E+00	 1.20393000E-12	-2.93210000E-13
		-5.68685000E+00	-5.68685000E+00	 2.08444000E-14