# vtk DataFile Version 3.0

ASCII
DATASET UNSTRUCTURED_GRID

POINTS 1221 double
	 1.00000000E-02	 1.00000000E-02	 0.00000000E+00
	 1.00000000E-02	 5.00000000E-03	 0.00000000E+00
	 1.00000000E-02	 5.00000000E-03	 5.00000000E-03
	 1.00000000E-02	 1.00000000E-02	 5.00000000E-03
	 5.00000000E-03	 1.00000000E-02	 0.00000000E+00
	 5.00000000E-03	 5.00000000E-03	 0.00000000E+00
	 5.00000000E-03	 5.00000000E-03	 5.00000000E-03
	 5.00000000E-03	 1.00000000E-02	 5.00000000E-03
	 1.00000000E-02	 7.50000000E-03	 0.00000000E+00
	 1.00000000E-02	 5.00000000E-03	 2.50000000E-03
	 1.00000000E-02	 7.50000000E-03	 5.00000000E-03
	 1.00000000E-02	 1.00000000E-02	 2.50000000E-03
	 7.50000000E-03	 1.00000000E-02	 0.00000000E+00
	 7.50000000E-03	 5.00000000E-03	 0.00000000E+00
	 7.50000000E-03	 5.00000000E-03	 5.00000000E-03
	 7.50000000E-03	 1.00000000E-02	 5.00000000E-03
	 5.00000000E-03	 7.50000000E-03	 0.00000000E+00
	 5.00000000E-03	 5.00000000E-03	 2.50000000E-03
	 5.00000000E-03	 7.50000000E-03	 5.00000000E-03
	 5.00000000E-03	 1.00000000E-02	 2.50000000E-03
	 1.00000000E-02	 5.00000000E-03	 1.00000000E-02
	 1.00000000E-02	 1.00000000E-02	 1.00000000E-02
	 5.00000000E-03	 5.00000000E-03	 1.00000000E-02
	 5.00000000E-03	 1.00000000E-02	 1.00000000E-02
	 1.00000000E-02	 5.00000000E-03	 7.50000000E-03
	 1.00000000E-02	 7.50000000E-03	 1.00000000E-02
	 1.00000000E-02	 1.00000000E-02	 7.50000000E-03
	 7.50000000E-03	 5.00000000E-03	 1.00000000E-02
	 7.50000000E-03	 1.00000000E-02	 1.00000000E-02
	 5.00000000E-03	 5.00000000E-03	 7.50000000E-03
	 5.00000000E-03	 7.50000000E-03	 1.00000000E-02
	 5.00000000E-03	 1.00000000E-02	 7.50000000E-03
	 1.00000000E-02	 5.00000000E-03	 1.50000000E-02
	 1.00000000E-02	 1.00000000E-02	 1.50000000E-02
	 5.00000000E-03	 5.00000000E-03	 1.50000000E-02
	 5.00000000E-03	 1.00000000E-02	 1.50000000E-02
	 1.00000000E-02	 5.00000000E-03	 1.25000000E-02
	 1.00000000E-02	 7.50000000E-03	 1.50000000E-02
	 1.00000000E-02	 1.00000000E-02	 1.25000000E-02
	 7.50000000E-03	 5.00000000E-03	 1.50000000E-02
	 7.50000000E-03	 1.00000000E-02	 1.50000000E-02
	 5.00000000E-03	 5.00000000E-03	 1.25000000E-02
	 5.00000000E-03	 7.50000000E-03	 1.50000000E-02
	 5.00000000E-03	 1.00000000E-02	 1.25000000E-02
	 1.00000000E-02	 5.00000000E-03	 2.00000000E-02
	 1.00000000E-02	 1.00000000E-02	 2.00000000E-02
	 5.00000000E-03	 5.00000000E-03	 2.00000000E-02
	 5.00000000E-03	 1.00000000E-02	 2.00000000E-02
	 1.00000000E-02	 5.00000000E-03	 1.75000000E-02
	 1.00000000E-02	 7.50000000E-03	 2.00000000E-02
	 1.00000000E-02	 1.00000000E-02	 1.75000000E-02
	 7.50000000E-03	 5.00000000E-03	 2.00000000E-02
	 7.50000000E-03	 1.00000000E-02	 2.00000000E-02
	 5.00000000E-03	 5.00000000E-03	 1.75000000E-02
	 5.00000000E-03	 7.50000000E-03	 2.00000000E-02
	 5.00000000E-03	 1.00000000E-02	 1.75000000E-02
	 1.00000000E-02	 5.00000000E-03	 2.50000000E-02
	 1.00000000E-02	 1.00000000E-02	 2.50000000E-02
	 5.00000000E-03	 5.00000000E-03	 2.50000000E-02
	 5.00000000E-03	 1.00000000E-02	 2.50000000E-02
	 1.00000000E-02	 5.00000000E-03	 2.25000000E-02
	 1.00000000E-02	 7.50000000E-03	 2.50000000E-02
	 1.00000000E-02	 1.00000000E-02	 2.25000000E-02
	 7.50000000E-03	 5.00000000E-03	 2.50000000E-02
	 7.50000000E-03	 1.00000000E-02	 2.50000000E-02
	 5.00000000E-03	 5.00000000E-03	 2.25000000E-02
	 5.00000000E-03	 7.50000000E-03	 2.50000000E-02
	 5.00000000E-03	 1.00000000E-02	 2.25000000E-02
	 1.00000000E-02	 5.00000000E-03	 3.00000000E-02
	 1.00000000E-02	 1.00000000E-02	 3.00000000E-02
	 5.00000000E-03	 5.00000000E-03	 3.00000000E-02
	 5.00000000E-03	 1.00000000E-02	 3.00000000E-02
	 1.00000000E-02	 5.00000000E-03	 2.75000000E-02
	 1.00000000E-02	 7.50000000E-03	 3.00000000E-02
	 1.00000000E-02	 1.00000000E-02	 2.75000000E-02
	 7.50000000E-03	 5.00000000E-03	 3.00000000E-02
	 7.50000000E-03	 1.00000000E-02	 3.00000000E-02
	 5.00000000E-03	 5.00000000E-03	 2.75000000E-02
	 5.00000000E-03	 7.50000000E-03	 3.00000000E-02
	 5.00000000E-03	 1.00000000E-02	 2.75000000E-02
	 1.00000000E-02	 5.00000000E-03	 3.50000000E-02
	 1.00000000E-02	 1.00000000E-02	 3.50000000E-02
	 5.00000000E-03	 5.00000000E-03	 3.50000000E-02
	 5.00000000E-03	 1.00000000E-02	 3.50000000E-02
	 1.00000000E-02	 5.00000000E-03	 3.25000000E-02
	 1.00000000E-02	 7.50000000E-03	 3.50000000E-02
	 1.00000000E-02	 1.00000000E-02	 3.25000000E-02
	 7.50000000E-03	 5.00000000E-03	 3.50000000E-02
	 7.50000000E-03	 1.00000000E-02	 3.50000000E-02
	 5.00000000E-03	 5.00000000E-03	 3.25000000E-02
	 5.00000000E-03	 7.50000000E-03	 3.50000000E-02
	 5.00000000E-03	 1.00000000E-02	 3.25000000E-02
	 1.00000000E-02	 5.00000000E-03	 4.00000000E-02
	 1.00000000E-02	 1.00000000E-02	 4.00000000E-02
	 5.00000000E-03	 5.00000000E-03	 4.00000000E-02
	 5.00000000E-03	 1.00000000E-02	 4.00000000E-02
	 1.00000000E-02	 5.00000000E-03	 3.75000000E-02
	 1.00000000E-02	 7.50000000E-03	 4.00000000E-02
	 1.00000000E-02	 1.00000000E-02	 3.75000000E-02
	 7.50000000E-03	 5.00000000E-03	 4.00000000E-02
	 7.50000000E-03	 1.00000000E-02	 4.00000000E-02
	 5.00000000E-03	 5.00000000E-03	 3.75000000E-02
	 5.00000000E-03	 7.50000000E-03	 4.00000000E-02
	 5.00000000E-03	 1.00000000E-02	 3.75000000E-02
	 1.00000000E-02	 5.00000000E-03	 4.50000000E-02
	 1.00000000E-02	 1.00000000E-02	 4.50000000E-02
	 5.00000000E-03	 5.00000000E-03	 4.50000000E-02
	 5.00000000E-03	 1.00000000E-02	 4.50000000E-02
	 1.00000000E-02	 5.00000000E-03	 4.25000000E-02
	 1.00000000E-02	 7.50000000E-03	 4.50000000E-02
	 1.00000000E-02	 1.00000000E-02	 4.25000000E-02
	 7.50000000E-03	 5.00000000E-03	 4.50000000E-02
	 7.50000000E-03	 1.00000000E-02	 4.50000000E-02
	 5.00000000E-03	 5.00000000E-03	 4.25000000E-02
	 5.00000000E-03	 7.50000000E-03	 4.50000000E-02
	 5.00000000E-03	 1.00000000E-02	 4.25000000E-02
	 1.00000000E-02	 5.00000000E-03	 5.00000000E-02
	 1.00000000E-02	 1.00000000E-02	 5.00000000E-02
	 5.00000000E-03	 5.00000000E-03	 5.00000000E-02
	 5.00000000E-03	 1.00000000E-02	 5.00000000E-02
	 1.00000000E-02	 5.00000000E-03	 4.75000000E-02
	 1.00000000E-02	 7.50000000E-03	 5.00000000E-02
	 1.00000000E-02	 1.00000000E-02	 4.75000000E-02
	 7.50000000E-03	 5.00000000E-03	 5.00000000E-02
	 7.50000000E-03	 1.00000000E-02	 5.00000000E-02
	 5.00000000E-03	 5.00000000E-03	 4.75000000E-02
	 5.00000000E-03	 7.50000000E-03	 5.00000000E-02
	 5.00000000E-03	 1.00000000E-02	 4.75000000E-02
	 1.00000000E-02	 5.00000000E-03	 5.50000000E-02
	 1.00000000E-02	 1.00000000E-02	 5.50000000E-02
	 5.00000000E-03	 5.00000000E-03	 5.50000000E-02
	 5.00000000E-03	 1.00000000E-02	 5.50000000E-02
	 1.00000000E-02	 5.00000000E-03	 5.25000000E-02
	 1.00000000E-02	 7.50000000E-03	 5.50000000E-02
	 1.00000000E-02	 1.00000000E-02	 5.25000000E-02
	 7.50000000E-03	 5.00000000E-03	 5.50000000E-02
	 7.50000000E-03	 1.00000000E-02	 5.50000000E-02
	 5.00000000E-03	 5.00000000E-03	 5.25000000E-02
	 5.00000000E-03	 7.50000000E-03	 5.50000000E-02
	 5.00000000E-03	 1.00000000E-02	 5.25000000E-02
	 1.00000000E-02	 5.00000000E-03	 6.00000000E-02
	 1.00000000E-02	 1.00000000E-02	 6.00000000E-02
	 5.00000000E-03	 5.00000000E-03	 6.00000000E-02
	 5.00000000E-03	 1.00000000E-02	 6.00000000E-02
	 1.00000000E-02	 5.00000000E-03	 5.75000000E-02
	 1.00000000E-02	 7.50000000E-03	 6.00000000E-02
	 1.00000000E-02	 1.00000000E-02	 5.75000000E-02
	 7.50000000E-03	 5.00000000E-03	 6.00000000E-02
	 7.50000000E-03	 1.00000000E-02	 6.00000000E-02
	 5.00000000E-03	 5.00000000E-03	 5.75000000E-02
	 5.00000000E-03	 7.50000000E-03	 6.00000000E-02
	 5.00000000E-03	 1.00000000E-02	 5.75000000E-02
	 1.00000000E-02	 5.00000000E-03	 6.50000000E-02
	 1.00000000E-02	 1.00000000E-02	 6.50000000E-02
	 5.00000000E-03	 5.00000000E-03	 6.50000000E-02
	 5.00000000E-03	 1.00000000E-02	 6.50000000E-02
	 1.00000000E-02	 5.00000000E-03	 6.25000000E-02
	 1.00000000E-02	 7.50000000E-03	 6.50000000E-02
	 1.00000000E-02	 1.00000000E-02	 6.25000000E-02
	 7.50000000E-03	 5.00000000E-03	 6.50000000E-02
	 7.50000000E-03	 1.00000000E-02	 6.50000000E-02
	 5.00000000E-03	 5.00000000E-03	 6.25000000E-02
	 5.00000000E-03	 7.50000000E-03	 6.50000000E-02
	 5.00000000E-03	 1.00000000E-02	 6.25000000E-02
	 1.00000000E-02	 5.00000000E-03	 7.00000000E-02
	 1.00000000E-02	 1.00000000E-02	 7.00000000E-02
	 5.00000000E-03	 5.00000000E-03	 7.00000000E-02
	 5.00000000E-03	 1.00000000E-02	 7.00000000E-02
	 1.00000000E-02	 5.00000000E-03	 6.75000000E-02
	 1.00000000E-02	 7.50000000E-03	 7.00000000E-02
	 1.00000000E-02	 1.00000000E-02	 6.75000000E-02
	 7.50000000E-03	 5.00000000E-03	 7.00000000E-02
	 7.50000000E-03	 1.00000000E-02	 7.00000000E-02
	 5.00000000E-03	 5.00000000E-03	 6.75000000E-02
	 5.00000000E-03	 7.50000000E-03	 7.00000000E-02
	 5.00000000E-03	 1.00000000E-02	 6.75000000E-02
	 1.00000000E-02	 5.00000000E-03	 7.50000000E-02
	 1.00000000E-02	 1.00000000E-02	 7.50000000E-02
	 5.00000000E-03	 5.00000000E-03	 7.50000000E-02
	 5.00000000E-03	 1.00000000E-02	 7.50000000E-02
	 1.00000000E-02	 5.00000000E-03	 7.25000000E-02
	 1.00000000E-02	 7.50000000E-03	 7.50000000E-02
	 1.00000000E-02	 1.00000000E-02	 7.25000000E-02
	 7.50000000E-03	 5.00000000E-03	 7.50000000E-02
	 7.50000000E-03	 1.00000000E-02	 7.50000000E-02
	 5.00000000E-03	 5.00000000E-03	 7.25000000E-02
	 5.00000000E-03	 7.50000000E-03	 7.50000000E-02
	 5.00000000E-03	 1.00000000E-02	 7.25000000E-02
	 1.00000000E-02	 5.00000000E-03	 8.00000000E-02
	 1.00000000E-02	 1.00000000E-02	 8.00000000E-02
	 5.00000000E-03	 5.00000000E-03	 8.00000000E-02
	 5.00000000E-03	 1.00000000E-02	 8.00000000E-02
	 1.00000000E-02	 5.00000000E-03	 7.75000000E-02
	 1.00000000E-02	 7.50000000E-03	 8.00000000E-02
	 1.00000000E-02	 1.00000000E-02	 7.75000000E-02
	 7.50000000E-03	 5.00000000E-03	 8.00000000E-02
	 7.50000000E-03	 1.00000000E-02	 8.00000000E-02
	 5.00000000E-03	 5.00000000E-03	 7.75000000E-02
	 5.00000000E-03	 7.50000000E-03	 8.00000000E-02
	 5.00000000E-03	 1.00000000E-02	 7.75000000E-02
	 1.00000000E-02	 5.00000000E-03	 8.50000000E-02
	 1.00000000E-02	 1.00000000E-02	 8.50000000E-02
[...]
POINT_DATA 1221
FIELD U 1
	U 3 1221 double
		 0.00000000E+00	 0.00000000E+00	 0.00000000E+00
		 0.00000000E+00	 0.00000000E+00	 0.00000000E+00
		-2.25320000E-13	 1.63629000E-01	 2.93814000E-13
		-1.58210000E-01	 1.58210000E-01	 2.93626000E-13
		 0.00000000E+00	 0.00000000E+00	 0.00000000E+00
		 0.00000000E+00	 0.00000000E+00	 0.00000000E+00
		-1.77192000E-13	 1.47105000E-14	 1.04083000E-14
		-1.63629000E-01	 9.54792000E-15	 1.00753000E-14
		 0.00000000E+00	 0.00000000E+00	 0.00000000E+00
		-9.30644000E-14	 8.20072000E-02	 1.38936000E-13
		-8.03765000E-02	 1.60455000E-01	 2.72980000E-02
		-7.21134000E-02	 7.21134000E-02	 1.46189000E-13
		 0.00000000E+00	 0.00000000E+00	 0.00000000E+00
		 0.00000000E+00	 0.00000000E+00	 0.00000000E+00
		-1.88294000E-13	 8.10017000E-02	 1.41859000E-13
		-1.60455000E-01	 8.03765000E-02	-2.72980000E-02
		 0.00000000E+00	 0.00000000E+00	 0.00000000E+00
		-4.47975000E-14	 1.05471000E-14	 3.06699000E-15
		-8.10017000E-02	 1.25455000E-14	 1.13312000E-14
		-8.20072000E-02	 6.77236000E-15	 1.76248000E-15
		-6.74294000E-13	 3.33376000E-01	 5.47062000E-13
		-3.34069000E-01	 3.34069000E-01	 5.64160000E-13
		-6.42486000E-13	 1.26565000E-14	 1.97065000E-14
		-3.33376000E-01	 7.77156000E-15	 3.37091000E-14
		-4.20608000E-13	 2.47574000E-01	 4.28074000E-13
		-1.66675000E-01	 3.33912000E-01	 2.46982000E-02
		-2.47799000E-01	 2.47799000E-01	 4.36536000E-13
		-6.53699000E-13	 1.66976000E-01	 2.70395000E-13
		-3.33912000E-01	 1.66675000E-01	-2.46982000E-02
		-3.77920000E-13	 2.29816000E-14	 1.52378000E-14
		-1.66976000E-01	 1.82077000E-14	 2.59237000E-14
		-2.47574000E-01	 1.19904000E-14	 2.12400000E-14
		-1.35658000E-12	 5.05062000E-01	 7.36189000E-13
		-5.05016000E-01	 5.05016000E-01	 7.67275000E-13
		-1.33156000E-12	-1.46549000E-14	 2.39253000E-14
		-5.05062000E-01	-1.49880000E-14	 6.31162000E-14
		-9.91096000E-13	 4.19356000E-01	 6.46927000E-13
		-2.52568000E-01	 5.04990000E-01	 2.46206000E-02
		-4.19564000E-01	 4.19564000E-01	 6.73017000E-13
		-1.33930000E-12	 2.52473000E-01	 3.76366000E-13
		-5.04990000E-01	 2.52568000E-01	-2.46206000E-02
		-9.62175000E-13	 1.47660000E-14	 2.22045000E-14
		-2.52473000E-01	-9.43690000E-15	 4.20775000E-14
		-4.19356000E-01	-4.10783000E-15	 4.49085000E-14
		-2.17654000E-12	 6.75400000E-01	 8.42992000E-13
		-6.75477000E-01	 6.75477000E-01	 8.94951000E-13
		-2.16960000E-12	-6.42819000E-14	 3.10862000E-14
		-6.75400000E-01	-6.06182000E-14	 8.41549000E-14
		-1.75582000E-12	 5.90341000E-01	 7.97584000E-13
		-3.37716000E-01	 6.75454000E-01	 2.45263000E-02
		-5.90355000E-01	 5.90355000E-01	 8.34444000E-13
		-2.16821000E-12	 3.37718000E-01	 4.25104000E-13
		-6.75454000E-01	 3.37716000E-01	-2.45263000E-02
		-1.73772000E-12	-3.51941000E-14	 2.60347000E-14
		-3.37718000E-01	-5.83977000E-14	 6.37268000E-14
		-5.90341000E-01	-3.84137000E-14	 7.54952000E-14
		-3.06255000E-12	 8.44817000E-01	 8.80074000E-13
		-8.44898000E-01	 8.44898000E-01	 9.43690000E-13
		-3.06022000E-12	-1.29952000E-13	 3.04201000E-14
		-8.44817000E-01	-1.30451000E-13	 9.39249000E-14
		-2.61935000E-12	 7.60255000E-01	 8.66973000E-13
		-4.22437000E-01	 8.44858000E-01	 2.43455000E-02
		-7.60338000E-01	 7.60338000E-01	 9.26814000E-13
		-3.06499000E-12	 4.22414000E-01	 4.46310000E-13
		-8.44858000E-01	 4.22437000E-01	-2.43455000E-02
		-2.61191000E-12	-9.78106000E-14	 2.90323000E-14
		-4.22414000E-01	-1.25122000E-13	 6.52811000E-14
		-7.60255000E-01	-9.18154000E-14	 9.31477000E-14
		-3.94729000E-12	 1.01290000E+00	 8.49099000E-13
		-1.01300000E+00	 1.01300000E+00	 9.11715000E-13
		-3.97282000E-12	-2.00368000E-13	 2.70339000E-14
		-1.01290000E+00	-1.98841000E-13	 9.18154000E-14
		-3.51252000E-12	 9.29040000E-01	 8.69638000E-13
		-5.06484000E-01	 1.01296000E+00	 2.41408000E-02
		-9.29129000E-01	 9.29129000E-01	 9.41913000E-13
		-3.96128000E-12	 5.06461000E-01	 4.34264000E-13
		-1.01296000E+00	 5.06484000E-01	-2.41408000E-02
		-3.51674000E-12	-1.64202000E-13	 3.07532000E-14
		-5.06461000E-01	-1.98619000E-13	 5.95080000E-14
		-9.29040000E-01	-1.64091000E-13	 9.01501000E-14
		-4.77729000E-12	 1.17943000E+00	 7.56728000E-13
		-1.17954000E+00	 1.17954000E+00	 8.20233000E-13
		-4.78595000E-12	-2.69396000E-13	 2.29539000E-14
		-1.17943000E+00	-2.70818000E-13	 8.84848000E-14
		-4.37317000E-12	 1.09638000E+00	 8.15292000E-13
		-5.89752000E-01	 1.17949000E+00	 2.38957000E-02
		-1.09648000E+00	 1.09648000E+00	 8.67750000E-13
		-4.78995000E-12	 5.89724000E-01	 3.85081000E-13
		-1.17949000E+00	 5.89752000E-01	-2.38957000E-02
		-4.40159000E-12	-2.34021000E-13	 2.73115000E-14
		-5.89724000E-01	-2.71075000E-13	 5.49005000E-14
		-1.09638000E+00	-2.34132000E-13	 8.67084000E-14
		-5.47473000E-12	 1.34413000E+00	 6.16590000E-13
		-1.34426000E+00	 1.34426000E+00	 6.68993000E-13
		-5.49938000E-12	-3.45446000E-13	 1.62093000E-14
		-1.34413000E+00	-3.39673000E-13	 7.29694000E-14
		-5.13700000E-12	 1.26202000E+00	 6.94313000E-13
		-6.72107000E-01	 1.34420000E+00	 2.36143000E-02
		-1.26214000E+00	 1.26214000E+00	 7.46903000E-13
		-5.50160000E-12	 6.72076000E-01	 3.12861000E-13
		-1.34420000E+00	 6.72107000E-01	-2.36143000E-02
		-5.15921000E-12	-3.11529000E-13	 2.05946000E-14
		-6.72076000E-01	-3.42060000E-13	 4.55747000E-14
		-1.26202000E+00	-3.05922000E-13	 7.47180000E-14
		-6.01341000E-12	 1.50675000E+00	 4.34763000E-13
		-1.50690000E+00	 1.50690000E+00	 4.85167000E-13
		-6.04294000E-12	-3.89300000E-13	 1.75554000E-14
		-1.50675000E+00	-3.84082000E-13	 5.04805000E-14
		-5.76295000E-12	 1.42571000E+00	 5.29521000E-13
		-7.53423000E-01	 1.50683000E+00	 2.32962000E-02
		-1.42585000E+00	 1.42585000E+00	 5.85754000E-13
		-6.02762000E-12	 7.53388000E-01	 2.22600000E-13
		-1.50683000E+00	 7.53423000E-01	-2.32962000E-02
		-5.80136000E-12	-3.73923000E-13	 1.82215000E-14
		-7.53388000E-01	-3.94462000E-13	 3.32494000E-14
		-1.42571000E+00	-3.65818000E-13	 6.44901000E-14
		-6.36086000E-12	 1.66704000E+00	 2.41474000E-13
		-1.66720000E+00	 1.66720000E+00	 2.78888000E-13
		-6.38178000E-12	-4.32626000E-13	 1.19002000E-14
		-1.66704000E+00	-4.30073000E-13	 4.45199000E-14
		-6.20337000E-12	 1.58720000E+00	 3.45390000E-13
		-8.33574000E-01	 1.66713000E+00	 2.29421000E-02
		-1.58736000E+00	 1.58736000E+00	 3.81473000E-13
		-6.37779000E-12	 8.33535000E-01	 1.28286000E-13
		-1.66713000E+00	 8.33574000E-01	-2.29421000E-02
		-6.23035000E-12	-4.17277000E-13	 9.73006000E-15
		-8.33535000E-01	-4.34569000E-13	 2.62568000E-14
		-1.58720000E+00	-4.12670000E-13	 4.86555000E-14
		-6.49047000E-12	 1.82475000E+00	 4.51861000E-14
		-1.82493000E+00	 1.82493000E+00	 7.16094000E-14
		-6.53855000E-12	-4.54525000E-13	 1.18169000E-14
		-1.82475000E+00	-4.54508000E-13	 3.75533000E-14
		-6.45148000E-12	 1.74623000E+00	 1.44440000E-13
		-9.12436000E-01	 1.82485000E+00	 2.25526000E-02
		-1.74640000E+00	 1.74640000E+00	 1.68310000E-13
		-6.53044000E-12	 9.12393000E-01	 2.99205000E-14
		-1.82485000E+00	 9.12436000E-01	-2.25526000E-02
		-6.47865000E-12	-4.46435000E-13	 1.33435000E-14
		-9.12393000E-01	-4.54879000E-13	 2.48135000E-14
		-1.74623000E+00	-4.39718000E-13	 3.87190000E-14
		-6.43796000E-12	 1.97964000E+00	-1.50879000E-13
		-1.97984000E+00	 1.97984000E+00	-1.30174000E-13
		-6.47038000E-12	-4.81726000E-13	 1.41415000E-14
		-1.97964000E+00	-4.88498000E-13	 3.83166000E-14
		-6.48037000E-12	 1.90257000E+00	-5.07372000E-14
		-9.89886000E-01	 1.97975000E+00	 2.21281000E-02
		-1.90275000E+00	 1.90275000E+00	-3.66374000E-14
		-6.43152000E-12	 9.89840000E-01	-7.23588000E-14
		-1.97975000E+00	 9.89886000E-01	-2.21281000E-02
		-6.51168000E-12	-4.68833000E-13	 1.30104000E-14
		-9.89840000E-01	-4.85001000E-13	 2.37449000E-14
		-1.90257000E+00	-4.66557000E-13	 3.93297000E-14
		-6.16152000E-12	 2.13148000E+00	-3.44919000E-13
		-2.13168000E+00	 2.13168000E+00	-3.21649000E-13
		-6.18017000E-12	-5.10376000E-13	 1.02141000E-14
		-2.13148000E+00	-5.04430000E-13	 3.42504000E-14
		-6.33005000E-12	 2.05596000E+00	-2.49412000E-13
		-1.06581000E+00	 2.13159000E+00	 2.16695000E-02
		-2.05616000E+00	 2.05616000E+00	-2.21823000E-13
		-6.18172000E-12	 1.06576000E+00	-1.66422000E-13
		-2.13159000E+00	 1.06581000E+00	-2.16695000E-02
		-6.37423000E-12	-4.96644000E-13	 1.10051000E-14
		-1.06576000E+00	-5.03105000E-13	 2.10248000E-14
		-2.05596000E+00	-4.85806000E-13	 3.70814000E-14
		-5.69433000E-12	 2.28001000E+00	-5.50088000E-13
		-2.28023000E+00	 2.28023000E+00	-5.21472000E-13
		-5.72031000E-12	-5.31156000E-13	 6.60583000E-15
		-2.28001000E+00	-5.21612000E-13	 3.29181000E-14
		-5.95712000E-12	 2.20617000E+00	-4.49085000E-13
		-1.14008000E+00	 2.28013000E+00	 2.11773000E-02
		-2.20638000E+00	 2.20638000E+00	-4.17458000E-13
		-5.72709000E-12	 1.14002000E+00	-2.72227000E-13
		-2.28013000E+00	 1.14008000E+00	-2.11773000E-02
		-5.99054000E-12	-5.08069000E-13	 7.10543000E-15
		-1.14002000E+00	-5.43390000E-13	 1.97897000E-14
		-2.20617000E+00	-5.13315000E-13	 3.05311000E-14
		-5.03791000E-12	 2.42502000E+00	-7.36355000E-13
		-2.42525000E+00	 2.42525000E+00	-6.97387000E-13
		-5.06772000E-12	-5.29771000E-13	 1.04361000E-14
		-2.42502000E+00	-5.76345000E-13	 3.64986000E-14
		-5.37004000E-12	 2.35297000E+00	-6.43569000E-13
		-1.21259000E+00	 2.42515000E+00	 2.06524000E-02
		-2.35320000E+00	 2.35320000E+00	-6.15563000E-13
		-5.06925000E-12	 1.21253000E+00	-3.58604000E-13
		-2.42515000E+00	 1.21259000E+00	-2.06524000E-02
		-5.42089000E-12	-5.38507000E-13	 5.68989000E-15
		-1.21253000E+00	-5.59899000E-13	 2.34812000E-14
		-2.35297000E+00	-5.46757000E-13	 2.87964000E-14
		-4.21091000E-12	 2.56628000E+00	-9.07524000E-13
		-2.56653000E+00	 2.56653000E+00	-8.61436000E-13
		-4.25188000E-12	-5.73430000E-13	 1.06304000E-14
		-2.56628000E+00	-6.10290000E-13	 4.05231000E-14
		-4.66163000E-12	 2.49613000E+00	-8.18484000E-13
		-1.28322000E+00	 2.56641000E+00	 2.00956000E-02
		-2.49637000E+00	 2.49637000E+00	-7.91228000E-13
		-4.24089000E-12	 1.28316000E+00	-4.37470000E-13
		-2.56641000E+00	 1.28322000E+00	-2.00956000E-02
		-4.69186000E-12	-5.70599000E-13	 1.13520000E-14
		-1.28316000E+00	-5.67060000E-13	 2.52853000E-14
		-2.49613000E+00	-5.53793000E-13	 4.28546000E-14
		-3.21332000E-12	 2.70357000E+00	-1.05085000E-12
		-2.70383000E+00	 2.70383000E+00	-9.83547000E-13
		-3.24396000E-12	-6.02171000E-13	 1.06026000E-14
		-2.70357000E+00	-6.17201000E-13	 5.11258000E-14
		-3.72979000E-12	 2.63543000E+00	-9.79120000E-13
		-1.35187000E+00	 2.70371000E+00	 1.95076000E-02
		-2.63569000E+00	 2.63569000E+00	-9.18918000E-13
		-3.22353000E-12	 1.35181000E+00	-5.17281000E-13
		-2.70371000E+00	 1.35187000E+00	-1.95076000E-02
		-3.75477000E-12	-5.93484000E-13	 8.74301000E-15
		-1.35181000E+00	-6.31703000E-13	 2.69229000E-14
		-2.63543000E+00	-5.81908000E-13	 4.47975000E-14
		-2.02971000E-12	 2.83667000E+00	-1.14764000E-12
		-2.83695000E+00	 2.83695000E+00	-1.09979000E-12
		-2.12752000E-12	-6.38434000E-13	 6.66134000E-15
		-2.83667000E+00	-6.49480000E-13	 6.00631000E-14
		-2.66143000E-12	 2.77066000E+00	-1.10451000E-12
		-1.41843000E+00	 2.83683000E+00	 1.88895000E-02
		-2.77093000E+00	 2.77093000E+00	-1.06143000E-12
		-2.05524000E-12	 1.41836000E+00	-5.67324000E-13
		-2.83683000E+00	 1.41843000E+00	-1.88895000E-02
		-2.64722000E-12	-6.36713000E-13	 1.27676000E-14
		-1.41836000E+00	-6.33882000E-13	 3.53051000E-14
		-2.77066000E+00	-6.10734000E-13	 5.77871000E-14
		-8.15514000E-13	 2.96540000E+00	-1.21825000E-12
		-2.96569000E+00	 2.96569000E+00	-1.12449000E-12
		-8.31446000E-13	-7.14484000E-13	 2.55351000E-15
		-2.96540000E+00	-7.16260000E-13	 7.89369000E-14
		-1.42603000E-12	 2.90160000E+00	-1.18439000E-12
		-1.48279000E+00	 2.96555000E+00	 1.82422000E-02
		-2.90188000E+00	 2.90188000E+00	-1.12577000E-12
		-8.06966000E-13	 1.48272000E+00	-6.06626000E-13
		-2.96555000E+00	 1.48279000E+00	-1.82422000E-02
		-1.50413000E-12	-6.70519000E-13	 5.21805000E-15
		-1.48272000E+00	-7.09932000E-13	 3.48055000E-14
		-2.90160000E+00	-6.78402000E-13	 7.01106000E-14
		 4.38941000E-13	 3.08953000E+00	-1.21281000E-12
		-3.08983000E+00	 3.08983000E+00	-1.13820000E-12
		 4.44512000E-13	-7.96835000E-13	 6.60583000E-15
		-3.08953000E+00	-7.97279000E-13	 8.16014000E-14
		-2.29289000E-13	 3.02805000E+00	-1.21370000E-12
		-1.54487000E+00	 3.08970000E+00	 1.75667000E-02
		-3.02835000E+00	 3.02835000E+00	-1.14686000E-12
		 4.66481000E-13	 1.54479000E+00	-5.96745000E-13
		-3.08970000E+00	 1.54487000E+00	-1.75667000E-02
		-2.01589000E-13	-7.46403000E-13	-5.55112000E-17
		-1.54479000E+00	-8.13377000E-13	 4.21885000E-14
		-3.02805000E+00	-7.54008000E-13	 7.40241000E-14
		 1.69875000E-12	 3.20889000E+00	-1.14786000E-12
		-3.20920000E+00	 3.20920000E+00	-1.08596000E-12
		 1.68510000E-12	-8.78464000E-13	 1.95954000E-14
		-3.20889000E+00	-8.79713000E-13	 8.73746000E-14
		 1.04289000E-12	 3.14982000E+00	-1.18860000E-12
		-1.60455000E+00	 3.20906000E+00	 1.68641000E-02
		-3.15013000E+00	 3.15013000E+00	-1.13010000E-12
		 1.70719000E-12	 1.60447000E+00	-5.61884000E-13
		-3.20906000E+00	 1.60455000E+00	-1.68641000E-02
		 1.08491000E-12	-8.61561000E-13	 1.80966000E-14
		-1.60447000E+00	-8.64100000E-13	 5.37625000E-14
		-3.14982000E+00	-8.40661000E-13	 8.88317000E-14
		 2.86016000E-12	 3.32329000E+00	-1.04705000E-12
		-3.32361000E+00	 3.32361000E+00	-9.79050000E-13
		 2.84905000E-12	-9.67226000E-13	 1.06581000E-14
		-3.32329000E+00	-9.43440000E-13	 7.56201000E-14
		 2.27551000E-12	 3.26672000E+00	-1.11333000E-12
		-1.66175000E+00	 3.32347000E+00	 1.61353000E-02
		-3.26704000E+00	 3.26704000E+00	-1.03789000E-12
		 2.86060000E-12	 1.66167000E+00	-5.16587000E-13
		-3.32347000E+00	 1.66175000E+00	-1.61353000E-02
		 2.27596000E-12	-9.26842000E-13	 1.87073000E-14
		-1.66167000E+00	-9.51184000E-13	 4.29934000E-14
		-3.26672000E+00	-9.19570000E-13	 7.76601000E-14
		 3.81428000E-12	 3.43255000E+00	-8.95284000E-13
		-3.43288000E+00	 3.43288000E+00	-8.61630000E-13
		 3.85314000E-12	-9.92040000E-13	 2.08999000E-14
		-3.43255000E+00	-9.93983000E-13	 6.74669000E-14
		 3.31857000E-12	 3.37857000E+00	-9.76552000E-13
		-1.71638000E+00	 3.43273000E+00	 1.53816000E-02
		-3.37890000E+00	 3.37890000E+00	-9.21457000E-13
		 3.83338000E-12	 1.71630000E+00	-4.26437000E-13
		-3.43273000E+00	 1.71638000E+00	-1.53816000E-02
		 3.31690000E-12	-9.79827000E-13	 4.05231000E-15
		-1.71630000E+00	-9.98701000E-13	 4.51583000E-14
		-3.37857000E+00	-9.77329000E-13	 7.83401000E-14
		 4.69591000E-12	 3.53650000E+00	-6.90753000E-13
		-3.53684000E+00	 3.53684000E+00	-6.30634000E-13
		 4.70557000E-12	-1.06237000E-12	 2.68813000E-14
		-3.53650000E+00	-1.05249000E-12	 6.86604000E-14
		 4.27436000E-12	 3.48519000E+00	-7.99652000E-13
		-1.76836000E+00	 3.53668000E+00	 1.46041000E-02
		-3.48553000E+00	 3.48553000E+00	-7.44585000E-13
		 4.74465000E-12	 1.76828000E+00	-3.36370000E-13
		-3.53668000E+00	 1.76836000E+00	-1.46041000E-02
		 4.29656000E-12	-1.01003000E-12	 3.52218000E-14
		-1.76828000E+00	-1.00708000E-12	 5.44057000E-14
		-3.48519000E+00	-1.02912000E-12	 6.28894000E-14
		 5.37448000E-12	 3.63498000E+00	-5.17864000E-13
		-3.63533000E+00	 3.63533000E+00	-4.84557000E-13
		 5.44731000E-12	-1.11311000E-12	 3.15026000E-14
		-3.63498000E+00	-1.08658000E-12	 6.03823000E-14
		 5.01621000E-12	 3.58643000E+00	-6.12399000E-13
		-1.81761000E+00	 3.63517000E+00	 1.38040000E-02
		-3.58678000E+00	 3.58678000E+00	-5.52391000E-13
		 5.37925000E-12	 1.81752000E+00	-2.31648000E-13
		-3.63517000E+00	 1.81761000E+00	-1.38040000E-02
		 5.09592000E-12	-1.09796000E-12	 1.94220000E-14
		-1.81752000E+00	-1.09729000E-12	 5.43871000E-14
		-3.58643000E+00	-1.06054000E-12	 6.85563000E-14
		 5.79431000E-12	 3.72784000E+00	-3.25073000E-13
		-3.72820000E+00	 3.72820000E+00	-2.99705000E-13
		 5.86364000E-12	-1.11289000E-12	 4.03566000E-14
		-3.72784000E+00	-1.12688000E-12	 7.03812000E-14
		 5.58598000E-12	 3.68212000E+00	-4.42923000E-13
		-1.86404000E+00	 3.72803000E+00	 1.29826000E-02
		-3.68248000E+00	 3.68248000E+00	-3.95739000E-13
		 5.88096000E-12	 1.86395000E+00	-1.39500000E-13
		-3.72803000E+00	 1.86404000E+00	-1.29826000E-02
		 5.65803000E-12	-1.11949000E-12	 3.14748000E-14
		-1.86395000E+00	-1.12915000E-12	 3.95795000E-14
		-3.68212000E+00	-1.12610000E-12	 6.48509000E-14
		 6.08566000E-12	 3.81493000E+00	-6.67244000E-14
		-3.81530000E+00	 3.81530000E+00	-5.75096000E-14
		 6.06337000E-12	-1.11602000E-12	 4.47975000E-14
		-3.81493000E+00	-1.13670000E-12	 3.71439000E-14
		 5.96961000E-12	 3.77211000E+00	-2.08167000E-13
		-1.90759000E+00	 3.81513000E+00	 1.21411000E-02
		-3.77248000E+00	 3.77248000E+00	-1.86740000E-13
		 6.09630000E-12	 1.90750000E+00	-1.75415000E-14
		-3.81513000E+00	 1.90759000E+00	-1.21411000E-02
		 6.00697000E-12	-1.09401000E-12	 4.54914000E-14
		-1.90750000E+00	-1.16210000E-12	 4.67543000E-14
		-3.77211000E+00	-1.12688000E-12	 6.95312000E-14
		 6.14164000E-12	 3.89613000E+00	 1.40665000E-13
		-3.89650000E+00	 3.89650000E+00	 1.61038000E-13
		 6.08558000E-12	-1.12862000E-12	 4.25215000E-14
		-3.89613000E+00	-1.12085000E-12	 2.62151000E-14
		 6.19260000E-12	 3.85627000E+00	 6.32827000E-14
		-1.94819000E+00	 3.89633000E+00	 1.12808000E-02
		-3.85665000E+00	 3.85665000E+00	 4.31877000E-14
		 6.10290000E-12	 1.94810000E+00	 8.43214000E-14
		-3.89633000E+00	 1.94819000E+00	-1.12808000E-02
		 6.18089000E-12	-1.11620000E-12	 4.03289000E-14
		-1.94810000E+00	-1.10967000E-12	 4.21052000E-14
		-3.85627000E+00	-1.12425000E-12	 2.66454000E-14
		 5.90306000E-12	 3.97130000E+00	 4.08285000E-13
		-3.97168000E+00	 3.97168000E+00	 3.83082000E-13
		 5.91727000E-12	-1.06759000E-12	 2.69229000E-14
		-3.97130000E+00	-1.05738000E-12	 3.05589000E-14
		 5.99176000E-12	 3.93447000E+00	 2.46414000E-13
		-1.98578000E+00	 3.97151000E+00	 1.04031000E-02
		-3.93485000E+00	 3.93485000E+00	 2.76557000E-13
		 6.00120000E-12	 1.98568000E+00	 1.99230000E-13
		-3.97151000E+00	 1.98578000E+00	-1.04031000E-02
		 6.07614000E-12	-1.08841000E-12	 4.30767000E-14
		-1.98568000E+00	-1.05860000E-12	 3.27655000E-14
		-3.93447000E+00	-1.10295000E-12	 1.87350000E-14
		 5.39424000E-12	 4.04032000E+00	 6.15286000E-13
		-4.04072000E+00	 4.04072000E+00	 6.10206000E-13
		 5.54767000E-12	-1.09734000E-12	 4.40967000E-14
		-4.04032000E+00	-1.04849000E-12	 2.23016000E-14
		 5.61762000E-12	 4.00658000E+00	 4.88942000E-13
		-2.02029000E+00	 4.04054000E+00	 9.50929000E-03
		-4.00697000E+00	 4.00697000E+00	 5.15629000E-13
		 5.42599000E-12	 2.02020000E+00	 3.32484000E-13
		-4.04054000E+00	 2.02029000E+00	-9.50929000E-03
		 5.73130000E-12	-1.04738000E-12	 2.00673000E-14
		-2.02020000E+00	-1.14797000E-12	 3.68117000E-14
		-4.00658000E+00	-1.07936000E-12	 4.94327000E-14
		 4.62186000E-12	 4.10311000E+00	 8.32492000E-13
		-4.10350000E+00	 4.10350000E+00	 8.20691000E-13
		 4.61298000E-12	-1.06182000E-12	 5.15456000E-14
		-4.10311000E+00	-1.10256000E-12	 1.65978000E-14
		 5.09659000E-12	 4.07250000E+00	 7.18203000E-13
		-2.05169000E+00	 4.10332000E+00	 8.60078000E-03
		-4.07290000E+00	 4.07290000E+00	 7.20674000E-13
		 4.74731000E-12	 2.05159000E+00	 4.25515000E-13
		-4.10332000E+00	 2.05169000E+00	-8.60078000E-03
		 5.16454000E-12	-1.08991000E-12	 6.20545000E-14
		-2.05159000E+00	-1.08269000E-12	 3.45834000E-14
		-4.07250000E+00	-1.06815000E-12	-1.76248000E-15
		 3.70215000E-12	 4.15954000E+00	 1.02604000E-12
		-4.15995000E+00	 4.15995000E+00	 1.02192000E-12
		 3.82538000E-12	-1.09651000E-12	 3.15720000E-14
		-4.15954000E+00	-1.08019000E-12	 5.77594000E-14
		 4.19953000E-12	 4.13212000E+00	 9.52197000E-13
		-2.07990000E+00	 4.15976000E+00	 7.67897000E-03
		-4.13252000E+00	 4.13252000E+00	 9.45959000E-13
		 3.73035000E-12	 2.07981000E+00	 5.26884000E-13
		-4.15976000E+00	 2.07990000E+00	-7.67897000E-03
		 4.32032000E-12	-1.13165000E-12	 5.02376000E-15
		-2.07981000E+00	-1.12976000E-12	 3.64361000E-14
		-4.13212000E+00	-1.06160000E-12	 3.74145000E-14
		 2.68796000E-12	 4.20954000E+00	 1.18244000E-12
		-4.20995000E+00	 4.20995000E+00	 1.20780000E-12
		 2.76978000E-12	-1.12207000E-12	 3.90521000E-14
		-4.20954000E+00	-1.13456000E-12	 6.45595000E-14
		 3.22753000E-12	 4.18535000E+00	 1.09601000E-12
		-2.10491000E+00	 4.20977000E+00	 6.74528000E-03
		-4.18576000E+00	 4.18576000E+00	 1.12689000E-12