# vtk DataFile Version 3.0

ASCII
DATASET UNSTRUCTURED_GRID

POINTS 1221 double
	 1.00000000E-02	 1.00000000E-02	 0.00000000E+00
	 1.00000000E-02	 5.00000000E-03	 0.00000000E+00
	 1.00000000E-02	 5.00000000E-03	 5.00000000E-03
	 1.00000000E-02	 1.00000000E-02	 5.00000000E-03
	 5.00000000E-03	 1.00000000E-02	 0.00000000E+00
	 5.00000000E-03	 5.00000000E-03	 0.00000000E+00
	 5.00000000E-03	 5.00000000E-03	 5.00000000E-03
	 5.00000000E-03	 1.00000000E-02	 5.00000000E-03
	 1.00000000E-02	 7.50000000E-03	 0.00000000E+00
	 1.00000000E-02	 5.00000000E-03	 2.50000000E-03
	 1.00000000E-02	 7.50000000E-03	 5.00000000E-03
	 1.00000000E-02	 1.00000000E-02	 2.50000000E-03
	 7.50000000E-03	 1.00000000E-02	 0.00000000E+00
	 7.50000000E-03	 5.00000000E-03	 0.00000000E+00
	 7.50000000E-03	 5.00000000E-03	 5.00000000E-03
	 7.50000000E-03	 1.00000000E-02	 5.00000000E-03
	 5.00000000E-03	 7.50000000E-03	 0.00000000E+00
	 5.00000000E-03	 5.00000000E-03	 2.50000000E-03
	 5.00000000E-03	 7.50000000E-03	 5.00000000E-03
	 5.00000000E-03	 1.00000000E-02	 2.50000000E-03
	 1.00000000E-02	 5.00000000E-03	 1.00000000E-02
	 1.00000000E-02	 1.00000000E-02	 1.00000000E-02
	 5.00000000E-03	 5.00000000E-03	 1.00000000E-02
	 5.00000000E-03	 1.00000000E-02	 1.00000000E-02
	 1.00000000E-02	 5.00000000E-03	 7.50000000E-03
	 1.00000000E-02	 7.50000000E-03	 1.00000000E-02
	 1.00000000E-02	 1.00000000E-02	 7.50000000E-03
	 7.50000000E-03	 5.00000000E-03	 1.00000000E-02
	 7.50000000E-03	 1.00000000E-02	 1.00000000E-02
	 5.00000000E-03	 5.00000000E-03	 7.50000000E-03
	 5.00000000E-03	 7.50000000E-03	 1.00000000E-02
	 5.00000000E-03	 1.00000000E-02	 7.50000000E-03
	 1.00000000E-02	 5.00000000E-03	 1.50000000E-02
	 1.00000000E-02	 1.00000000E-02	 1.50000000E-02
	 5.00000000E-03	 5.00000000E-03	 1.50000000E-02
	 5.00000000E-03	 1.00000000E-02	 1.50000000E-02
	 1.00000000E-02	 5.00000000E-03	 1.25000000E-02
	 1.00000000E-02	 7.50000000E-03	 1.50000000E-02
	 1.00000000E-02	 1.00000000E-02	 1.25000000E-02
	 7.50000000E-03	 5.00000000E-03	 1.50000000E-02
	 7.50000000E-03	 1.00000000E-02	 1.50000000E-02
	 5.00000000E-03	 5.00000000E-03	 1.25000000E-02
	 5.00000000E-03	 7.50000000E-03	 1.50000000E-02
	 5.00000000E-03	 1.00000000E-02	 1.25000000E-02
	 1.00000000E-02	 5.00000000E-03	 2.00000000E-02
	 1.00000000E-02	 1.00000000E-02	 2.00000000E-02
	 5.00000000E-03	 5.00000000E-03	 2.00000000E-02
	 5.00000000E-03	 1.00000000E-02	 2.00000000E-02
	 1.00000000E-02	 5.00000000E-03	 1.75000000E-02
	 1.00000000E-02	 7.50000000E-03	 2.00000000E-02
	 1.00000000E-02	 1.00000000E-02	 1.75000000E-02
	 7.50000000E-03	 5.00000000E-03	 2.00000000E-02
	 7.50000000E-03	 1.00000000E-02	 2.00000000E-02
	 5.00000000E-03	 5.00000000E-03	 1.75000000E-02
	 5.00000000E-03	 7.50000000E-03	 2.00000000E-02
	 5.00000000E-03	 1.00000000E-02	 1.75000000E-02
	 1.00000000E-02	 5.00000000E-03	 2.50000000E-02
	 1.00000000E-02	 1.00000000E-02	 2.50000000E-02
	 5.00000000E-03	 5.00000000E-03	 2.50000000E-02
	 5.00000000E-03	 1.00000000E-02	 2.50000000E-02
	 1.00000000E-02	 5.00000000E-03	 2.25000000E-02
	 1.00000000E-02	 7.50000000E-03	 2.50000000E-02
	 1.00000000E-02	 1.00000000E-02	 2.25000000E-02
	 7.50000000E-03	 5.00000000E-03	 2.50000000E-02
	 7.50000000E-03	 1.00000000E-02	 2.50000000E-02
	 5.00000000E-03	 5.00000000E-03	 2.25000000E-02
	 5.00000000E-03	 7.50000000E-03	 2.50000000E-02
	 5.00000000E-03	 1.00000000E-02	 2.25000000E-02
	 1.00000000E-02	 5.00000000E-03	 3.00000000E-02
	 1.00000000E-02	 1.00000000E-02	 3.00000000E-02
	 5.00000000E-03	 5.00000000E-03	 3.00000000E-02
	 5.00000000E-03	 1.00000000E-02	 3.00000000E-02
	 1.00000000E-02	 5.00000000E-03	 2.75000000E-02
	 1.00000000E-02	 7.50000000E-03	 3.00000000E-02
	 1.00000000E-02	 1.00000000E-02	 2.75000000E-02
	 7.50000000E-03	 5.00000000E-03	 3.00000000E-02
	 7.50000000E-03	 1.00000000E-02	 3.00000000E-02
	 5.00000000E-03	 5.00000000E-03	 2.75000000E-02
	 5.00000000E-03	 7.50000000E-03	 3.00000000E-02
	 5.00000000E-03	 1.00000000E-02	 2.75000000E-02
	 1.00000000E-02	 5.00000000E-03	 3.50000000E-02
	 1.00000000E-02	 1.00000000E-02	 3.50000000E-02
	 5.00000000E-03	 5.00000000E-03	 3.50000000E-02
	 5.00000000E-03	 1.00000000E-02	 3.50000000E-02
	 1.00000000E-02	 5.00000000E-03	 3.25000000E-02
	 1.00000000E-02	 7.50000000E-03	 3.50000000E-02
	 1.00000000E-02	 1.00000000E-02	 3.25000000E-02
	 7.50000000E-03	 5.00000000E-03	 3.50000000E-02
	 7.50000000E-03	 1.00000000E-02	 3.50000000E-02
	 5.00000000E-03	 5.00000000E-03	 3.25000000E-02
	 5.00000000E-03	 7.50000000E-03	 3.50000000E-02
	 5.00000000E-03	 1.00000000E-02	 3.25000000E-02
	 1.00000000E-02	 5.00000000E-03	 4.00000000E-02
	 1.00000000E-02	 1.00000000E-02	 4.00000000E-02
	 5.00000000E-03	 5.00000000E-03	 4.00000000E-02
	 5.00000000E-03	 1.00000000E-02	 4.00000000E-02
	 1.00000000E-02	 5.00000000E-03	 3.75000000E-02
	 1.00000000E-02	 7.50000000E-03	 4.00000000E-02
	 1.00000000E-02	 1.00000000E-02	 3.75000000E-02
	 7.50000000E-03	 5.00000000E-03	 4.00000000E-02
	 7.50000000E-03	 1.00000000E-02	 4.00000000E-02
	 5.00000000E-03	 5.00000000E-03	 3.75000000E-02
	 5.00000000E-03	 7.50000000E-03	 4.00000000E-02
	 5.00000000E-03	 1.00000000E-02	 3.75000000E-02
	 1.00000000E-02	 5.00000000E-03	 4.50000000E-02
	 1.00000000E-02	 1.00000000E-02	 4.50000000E-02
	 5.00000000E-03	 5.00000000E-03	 4.50000000E-02
	 5.00000000E-03	 1.00000000E-02	 4.50000000E-02
	 1.00000000E-02	 5.00000000E-03	 4.25000000E-02
	 1.00000000E-02	 7.50000000E-03	 4.50000000E-02
	 1.00000000E-02	 1.00000000E-02	 4.25000000E-02
	 7.50000000E-03	 5.00000000E-03	 4.50000000E-02
	 7.50000000E-03	 1.00000000E-02	 4.50000000E-02
	 5.00000000E-03	 5.00000000E-03	 4.25000000E-02
	 5.00000000E-03	 7.50000000E-03	 4.50000000E-02
	 5.00000000E-03	 1.00000000E-02	 4.25000000E-02
	 1.00000000E-02	 5.00000000E-03	 5.00000000E-02
	 1.00000000E-02	 1.00000000E-02	 5.00000000E-02
	 5.00000000E-03	 5.00000000E-03	 5.00000000E-02
	 5.00000000E-03	 1.00000000E-02	 5.00000000E-02
	 1.00000000E-02	 5.00000000E-03	 4.75000000E-02
	 1.00000000E-02	 7.50000000E-03	 5.00000000E-02
	 1.00000000E-02	 1.00000000E-02	 4.75000000E-02
	 7.50000000E-03	 5.00000000E-03	 5.00000000E-02
	 7.50000000E-03	 1.00000000E-02	 5.00000000E-02
	 5.00000000E-03	 5.00000000E-03	 4.75000000E-02
	 5.00000000E-03	 7.50000000E-03	 5.00000000E-02
	 5.00000000E-03	 1.00000000E-02	 4.75000000E-02
	 1.00000000E-02	 5.00000000E-03	 5.50000000E-02
	 1.00000000E-02	 1.00000000E-02	 5.50000000E-02
	 5.00000000E-03	 5.00000000E-03	 5.50000000E-02
	 5.00000000E-03	 1.00000000E-02	 5.50000000E-02
	 1.00000000E-02	 5.00000000E-03	 5.25000000E-02
	 1.00000000E-02	 7.50000000E-03	 5.50000000E-02
	 1.00000000E-02	 1.00000000E-02	 5.25000000E-02
	 7.50000000E-03	 5.00000000E-03	 5.50000000E-02
	 7.50000000E-03	 1.00000000E-02	 5.50000000E-02
	 5.00000000E-03	 5.00000000E-03	 5.25000000E-02
	 5.00000000E-03	 7.50000000E-03	 5.50000000E-02
	 5.00000000E-03	 1.00000000E-02	 5.25000000E-02
	 1.00000000E-02	 5.00000000E-03	 6.00000000E-02
	 1.00000000E-02	 1.00000000E-02	 6.00000000E-02
	 5.00000000E-03	 5.00000000E-03	 6.00000000E-02
	 5.00000000E-03	 1.00000000E-02	 6.00000000E-02
	 1.00000000E-02	 5.00000000E-03	 5.75000000E-02
	 1.00000000E-02	 7.50000000E-03	 6.00000000E-02
	 1.00000000E-02	 1.00000000E-02	 5.75000000E-02
	 7.50000000E-03	 5.00000000E-03	 6.00000000E-02
	 7.50000000E-03	 1.00000000E-02	 6.00000000E-02
	 5.00000000E-03	 5.00000000E-03	 5.75000000E-02
	 5.00000000E-03	 7.50000000E-03	 6.00000000E-02
	 5.00000000E-03	 1.00000000E-02	 5.75000000E-02
	 1.00000000E-02	 5.00000000E-03	 6.50000000E-02
	 1.00000000E-02	 1.00000000E-02	 6.50000000E-02
	 5.00000000E-03	 5.00000000E-03	 6.50000000E-02
	 5.00000000E-03	 1.00000000E-02	 6.50000000E-02
	 1.00000000E-02	 5.00000000E-03	 6.25000000E-02
	 1.00000000E-02	 7.50000000E-03	 6.50000000E-02
	 1.00000000E-02	 1.00000000E-02	 6.25000000E-02
	 7.50000000E-03	 5.00000000E-03	 6.50000000E-02
	 7.50000000E-03	 1.00000000E-02	 6.50000000E-02
	 5.00000000E-03	 5.00000000E-03	 6.25000000E-02
	 5.00000000E-03	 7.50000000E-03	 6.50000000E-02
	 5.00000000E-03	 1.00000000E-02	 6.25000000E-02
	 1.00000000E-02	 5.00000000E-03	 7.00000000E-02
	 1.00000000E-02	 1.00000000E-02	 7.00000000E-02
	 5.00000000E-03	 5.00000000E-03	 7.00000000E-02
	 5.00000000E-03	 1.00000000E-02	 7.00000000E-02
	 1.00000000E-02	 5.00000000E-03	 6.75000000E-02
	 1.00000000E-02	 7.50000000E-03	 7.00000000E-02
	 1.00000000E-02	 1.00000000E-02	 6.75000000E-02
	 7.50000000E-03	 5.00000000E-03	 7.00000000E-02
	 7.50000000E-03	 1.00000000E-02	 7.00000000E-02
	 5.00000000E-03	 5.00000000E-03	 6.75000000E-02
	 5.00000000E-03	 7.50000000E-03	 7.00000000E-02
	 5.00000000E-03	 1.00000000E-02	 6.75000000E-02
	 1.00000000E-02	 5.00000000E-03	 7.50000000E-02
	 1.00000000E-02	 1.00000000E-02	 7.50000000E-02
	 5.00000000E-03	 5.00000000E-03	 7.50000000E-02
	 5.00000000E-03	 1.00000000E-02	 7.50000000E-02
	 1.00000000E-02	 5.00000000E-03	 7.25000000E-02
	 1.00000000E-02	 7.50000000E-03	 7.50000000E-02
	 1.00000000E-02	 1.00000000E-02	 7.25000000E-02
	 7.50000000E-03	 5.00000000E-03	 7.50000000E-02
	 7.50000000E-03	 1.00000000E-02	 7.50000000E-02
	 5.00000000E-03	 5.00000000E-03	 7.25000000E-02
	 5.00000000E-03	 7.50000000E-03	 7.50000000E-02
	 5.00000000E-03	 1.00000000E-02	 7.25000000E-02
	 1.00000000E-02	 5.00000000E-03	 8.00000000E-02
	 1.00000000E-02	 1.00000000E-02	 8.00000000E-02
	 5.00000000E-03	 5.00000000E-03	 8.00000000E-02
	 5.00000000E-03	 1.00000000E-02	 8.00000000E-02
	 1.00000000E-02	 5.00000000E-03	 7.75000000E-02
	 1.00000000E-02	 7.50000000E-03	 8.00000000E-02
	 1.00000000E-02	 1.00000000E-02	 7.75000000E-02
	 7.50000000E-03	 5.00000000E-03	 8.00000000E-02
	 7.50000000E-03	 1.00000000E-02	 8.00000000E-02
	 5.00000000E-03	 5.00000000E-03	 7.75000000E-02
	 5.00000000E-03	 7.50000000E-03	 8.00000000E-02
	 5.00000000E-03	 1.00000000E-02	 7.75000000E-02
	 1.00000000E-02	 5.00000000E-03	 8.50000000E-02
	 1.00000000E-02	 1.00000000E-02	 8.50000000E-02
[...]
POINT_DATA 1221
FIELD U 1
	U 3 1221 double
		 0.00000000E+00	 0.00000000E+00	 0.00000000E+00
		 0.00000000E+00	 0.00000000E+00	 0.00000000E+00
		 2.31325000E-01	-9.54448000E-02	-2.54471000E-01
		 1.67251000E-01	-4.90388000E-02	-1.13488000E-01
		 0.00000000E+00	 0.00000000E+00	 0.00000000E+00
		 0.00000000E+00	 0.00000000E+00	 0.00000000E+00
		 1.98839000E-01	-1.09158000E-01	 1.57652000E-14
		 1.73860000E-01	-1.26991000E-01	 1.39698000E-01
		 0.00000000E+00	 0.00000000E+00	 0.00000000E+00
		 9.88012000E-02	-2.20017000E-02	-1.24604000E-01
		 2.08598000E-01	-6.80833000E-02	-1.90076000E-01
		 4.43782000E-02	 1.60665000E-02	-5.86654000E-02
		 0.00000000E+00	 0.00000000E+00	 0.00000000E+00
		 0.00000000E+00	 0.00000000E+00	 0.00000000E+00
		 2.02404000E-01	-1.07272000E-01	-1.13500000E-01
		 1.60344000E-01	-9.31937000E-02	 2.52385000E-02
		 0.00000000E+00	 0.00000000E+00	 0.00000000E+00
		 6.13315000E-02	-3.36694000E-02	 5.77316000E-15
		 1.95404000E-01	-1.11115000E-01	 6.23086000E-02
		 4.00778000E-02	-5.42393000E-02	 6.84046000E-02
		 6.38749000E-01	-3.28489000E-01	-4.29853000E-01
		 5.96253000E-01	-2.98925000E-01	-1.92089000E-01
		 6.18179000E-01	-3.39364000E-01	 3.21965000E-14
		 5.98370000E-01	-3.50656000E-01	 2.35978000E-01
		 4.14752000E-01	-1.98860000E-01	-3.52518000E-01
		 6.22220000E-01	-3.10866000E-01	-3.21313000E-01
		 3.59423000E-01	-1.60586000E-01	-1.57377000E-01
		 6.24464000E-01	-3.36534000E-01	-2.04064000E-01
		 5.92810000E-01	-3.27233000E-01	 3.68598000E-02
		 3.86268000E-01	-2.12051000E-01	 2.37588000E-14
		 6.13025000E-01	-3.42815000E-01	 1.12026000E-01
		 3.62240000E-01	-2.27688000E-01	 1.93523000E-01
		 1.18021000E+00	-6.38345000E-01	-5.25614000E-01
		 1.16248000E+00	-6.26381000E-01	-2.34691000E-01
		 1.17144000E+00	-6.43091000E-01	 4.44089000E-14
		 1.16280000E+00	-6.47907000E-01	 2.88548000E-01
		 8.98077000E-01	-4.77096000E-01	-4.87754000E-01
		 1.17340000E+00	-6.31166000E-01	-3.89359000E-01
		 8.68103000E-01	-4.56470000E-01	-2.17633000E-01
		 1.17352000E+00	-6.41952000E-01	-2.52982000E-01
		 1.16038000E+00	-6.38213000E-01	 4.03694000E-02
		 8.83570000E-01	-4.85057000E-01	 3.79696000E-14
		 1.16937000E+00	-6.44229000E-01	 1.38881000E-01
		 8.69069000E-01	-4.93021000E-01	 2.67764000E-01
		 1.77224000E+00	-9.75576000E-01	-5.43486000E-01
		 1.77794000E+00	-9.79835000E-01	-2.43020000E-01
		 1.77469000E+00	-9.74257000E-01	 6.01741000E-14
		 1.77709000E+00	-9.72915000E-01	 2.98359000E-01
		 1.47467000E+00	-8.06246000E-01	-5.43723000E-01
		 1.77429000E+00	-9.78101000E-01	-4.01646000E-01
		 1.46894000E+00	-8.02594000E-01	-2.42994000E-01
		 1.77429000E+00	-9.74545000E-01	-2.62754000E-01
		 1.77828000E+00	-9.75869000E-01	 3.99284000E-02
		 1.47162000E+00	-8.07881000E-01	 5.04041000E-14
		 1.77521000E+00	-9.74040000E-01	 1.44245000E-01
		 1.46864000E+00	-8.09555000E-01	 2.98490000E-01
		 2.34001000E+00	-1.29785000E+00	-4.90895000E-01
		 2.36621000E+00	-1.31645000E+00	-2.19616000E-01
		 2.35208000E+00	-1.29123000E+00	 7.41629000E-14
		 2.36414000E+00	-1.28460000E+00	 2.69489000E-01
		 2.06370000E+00	-1.14102000E+00	-5.25211000E-01
		 2.34983000E+00	-1.30887000E+00	-3.62348000E-01
		 2.08003000E+00	-1.15274000E+00	-2.34915000E-01
		 2.34927000E+00	-1.29286000E+00	-2.37876000E-01
		 2.36834000E+00	-1.29862000E+00	 3.52841000E-02
		 2.07104000E+00	-1.13695000E+00	 6.39488000E-14
		 2.35504000E+00	-1.28969000E+00	 1.30588000E-01
		 2.07847000E+00	-1.13292000E+00	 2.88327000E-01
		 2.81588000E+00	-1.56773000E+00	-3.78853000E-01
		 2.85874000E+00	-1.59793000E+00	-1.69493000E-01
		 2.83582000E+00	-1.55679000E+00	 8.81517000E-14
		 2.85574000E+00	-1.54585000E+00	 2.07980000E-01
		 2.59320000E+00	-1.44137000E+00	-4.41394000E-01
		 2.83201000E+00	-1.58565000E+00	-2.79643000E-01
		 2.62822000E+00	-1.46613000E+00	-1.97482000E-01
		 2.83110000E+00	-1.55948000E+00	-1.83581000E-01
		 2.86241000E+00	-1.56886000E+00	 2.72272000E-02
		 2.60933000E+00	-1.43245000E+00	 8.23785000E-14
		 2.84072000E+00	-1.55420000E+00	 1.00781000E-01
		 2.62557000E+00	-1.42360000E+00	 2.42314000E-01
		 3.14533000E+00	-1.75480000E+00	-2.20908000E-01
		 3.20019000E+00	-1.79337000E+00	-9.87307000E-02
		 3.17093000E+00	-1.74076000E+00	 1.04805000E-13
		 3.19651000E+00	-1.72671000E+00	 1.21273000E-01
		 3.00180000E+00	-1.67313000E+00	-3.04577000E-01
		 3.16601000E+00	-1.77769000E+00	-1.63406000E-01
		 3.05123000E+00	-1.70794000E+00	-1.36220000E-01
		 3.16482000E+00	-1.74422000E+00	-1.06620000E-01
		 3.20496000E+00	-1.75619000E+00	 1.65070000E-02
		 3.02470000E+00	-1.66048000E+00	 9.94760000E-14
		 3.17724000E+00	-1.73740000E+00	 5.85314000E-02
		 3.04774000E+00	-1.64791000E+00	 1.67205000E-01
		 3.28902000E+00	-1.83720000E+00	-3.29175000E-02
		 3.35066000E+00	-1.88049000E+00	-1.44555000E-02
		 3.31782000E+00	-1.82140000E+00	 1.19516000E-13
		 3.34661000E+00	-1.80559000E+00	 1.80708000E-02
		 3.24225000E+00	-1.81001000E+00	-1.29567000E-01
		 3.31227000E+00	-1.86290000E+00	-2.52369000E-02
		 3.30111000E+00	-1.85140000E+00	-5.77862000E-02
		 3.31093000E+00	-1.82530000E+00	-1.47944000E-02
		 3.35605000E+00	-1.83874000E+00	 4.07478000E-03
		 3.26959000E+00	-1.79492000E+00	 1.12188000E-13
		 3.32493000E+00	-1.81761000E+00	 8.12172000E-03
		 3.29708000E+00	-1.77991000E+00	 7.11291000E-02
		 3.22489000E+00	-1.80269000E+00	 1.67975000E-01
		 3.28785000E+00	-1.84688000E+00	 7.56318000E-02
		 3.25433000E+00	-1.78654000E+00	 1.42580000E-13
		 3.28375000E+00	-1.77038000E+00	-9.22139000E-02
		 3.28366000E+00	-1.83486000E+00	 6.70133000E-02
		 3.24864000E+00	-1.82892000E+00	 1.22316000E-01
		 3.34658000E+00	-1.87906000E+00	 3.03540000E-02
		 3.24726000E+00	-1.79053000E+00	 8.34531000E-02
		 3.29337000E+00	-1.80425000E+00	-9.03226000E-03
		 3.31292000E+00	-1.81871000E+00	 1.34087000E-13
		 3.26160000E+00	-1.78266000E+00	-4.58136000E-02
		 3.34234000E+00	-1.80264000E+00	-3.67886000E-02
		 2.94899000E+00	-1.64917000E+00	 3.64373000E-01
		 3.00790000E+00	-1.69050000E+00	 1.63719000E-01
		 2.97655000E+00	-1.63405000E+00	 1.51254000E-13
		 3.00409000E+00	-1.61892000E+00	-2.00031000E-01
		 3.11299000E+00	-1.74048000E+00	 2.67758000E-01
		 2.97122000E+00	-1.67370000E+00	 2.66516000E-01
		 3.17452000E+00	-1.78368000E+00	 1.20382000E-01
		 2.96993000E+00	-1.63778000E+00	 1.79568000E-01
		 3.01308000E+00	-1.65061000E+00	-2.17501000E-02
		 3.14163000E+00	-1.72467000E+00	 1.43316000E-13
		 2.98335000E+00	-1.63041000E+00	-9.85779000E-02
		 3.17042000E+00	-1.70895000E+00	-1.46992000E-01
		 2.47519000E+00	-1.38447000E+00	 5.39771000E-01
		 2.52514000E+00	-1.41951000E+00	 2.42394000E-01
		 2.49856000E+00	-1.37164000E+00	 1.64979000E-13
		 2.52192000E+00	-1.35881000E+00	-2.96320000E-01
		 2.73534000E+00	-1.52979000E+00	 4.55577000E-01
		 2.49404000E+00	-1.40527000E+00	 3.95273000E-01
		 2.79029000E+00	-1.56837000E+00	 2.04624000E-01
		 2.49295000E+00	-1.37481000E+00	 2.65435000E-01
		 2.52954000E+00	-1.38569000E+00	-3.30640000E-02
		 2.76093000E+00	-1.51568000E+00	 1.59470000E-13
		 2.50433000E+00	-1.36856000E+00	-1.45717000E-01
		 2.78664000E+00	-1.50163000E+00	-2.50100000E-01
		 1.83367000E+00	-1.02558000E+00	 6.79659000E-01
		 1.87055000E+00	-1.05144000E+00	 3.05143000E-01
		 1.85093000E+00	-1.01611000E+00	 1.82312000E-13
		 1.86817000E+00	-1.00664000E+00	-3.73115000E-01
		 2.17297000E+00	-1.21537000E+00	 6.14833000E-01
		 1.84759000E+00	-1.04093000E+00	 4.97958000E-01
		 2.21679000E+00	-1.24613000E+00	 2.76059000E-01
		 1.84678000E+00	-1.01845000E+00	 3.33924000E-01
		 1.87379000E+00	-1.02648000E+00	-4.20788000E-02
		 2.19338000E+00	-1.20411000E+00	 1.74055000E-13
		 1.85519000E+00	-1.01384000E+00	-1.83315000E-01
		 2.21389000E+00	-1.19290000E+00	-3.37527000E-01
		 1.06833000E+00	-5.97132000E-01	 7.72509000E-01
		 1.08907000E+00	-6.11691000E-01	 3.46788000E-01
		 1.07803000E+00	-5.91810000E-01	 1.95843000E-13
		 1.08772000E+00	-5.86485000E-01	-4.24087000E-01
		 1.46332000E+00	-8.18228000E-01	 7.32396000E-01
		 1.07616000E+00	-6.05775000E-01	 5.66125000E-01
		 1.49240000E+00	-8.38651000E-01	 3.28791000E-01
		 1.07570000E+00	-5.93124000E-01	 3.79368000E-01
		 1.09089000E+00	-5.97645000E-01	-4.80831000E-02
		 1.47686000E+00	-8.10757000E-01	 1.87822000E-13
		 1.08042000E+00	-5.90533000E-01	-2.08263000E-01
		 1.49047000E+00	-8.03323000E-01	-4.02066000E-01
		 2.33189000E-01	-1.29454000E-01	 8.10559000E-01
		 2.36026000E-01	-1.31462000E-01	 3.63846000E-01
		 2.34500000E-01	-1.28735000E-01	 2.09444000E-13
		 2.35810000E-01	-1.28015000E-01	-4.44976000E-01
		 6.55833000E-01	-3.66129000E-01	 7.98541000E-01
		 2.34253000E-01	-1.30644000E-01	 5.94091000E-01
		 6.67747000E-01	-3.74506000E-01	 3.58454000E-01
		 2.34194000E-01	-1.28911000E-01	 3.97955000E-01
		 2.36261000E-01	-1.29534000E-01	-5.05991000E-02
		 6.61368000E-01	-3.63074000E-01	 2.01117000E-13
		 2.34821000E-01	-1.28566000E-01	-2.18467000E-01
		 6.66933000E-01	-3.60035000E-01	-4.38378000E-01
		-6.11816000E-01	 3.43839000E-01	 7.90342000E-01
		-6.27271000E-01	 3.54650000E-01	 3.54758000E-01
		-6.19074000E-01	 3.39855000E-01	 2.25486000E-13
		-6.26330000E-01	 3.35871000E-01	-4.33877000E-01
		-1.91934000E-01	 1.08646000E-01	 8.07608000E-01
		-6.17660000E-01	 3.50259000E-01	 5.79317000E-01
		-1.98280000E-01	 1.13076000E-01	 3.62507000E-01
		-6.17316000E-01	 3.40842000E-01	 3.87975000E-01
		-6.28656000E-01	 3.44199000E-01	-4.94166000E-02
		-1.94916000E-01	 1.07004000E-01	 2.14329000E-13
		-6.20871000E-01	 3.38890000E-01	-2.12988000E-01
		-1.97908000E-01	 1.05367000E-01	-4.43356000E-01
		-1.40550000E+00	 7.88429000E-01	 7.12895000E-01
		-1.43822000E+00	 8.11339000E-01	 3.19990000E-01
		-1.42084000E+00	 7.80006000E-01	 2.40474000E-13
		-1.43619000E+00	 7.71581000E-01	-3.91361000E-01
		-1.01883000E+00	 5.71798000E-01	 7.58375000E-01
		-1.41786000E+00	 8.02033000E-01	 5.22567000E-01
		-1.04311000E+00	 5.88806000E-01	 3.40399000E-01
		-1.41714000E+00	 7.82091000E-01	 3.49934000E-01
		-1.44113000E+00	 7.89205000E-01	-4.46074000E-02
		-1.03018000E+00	 5.65541000E-01	 2.33036000E-13
		-1.42464000E+00	 7.77971000E-01	-1.92105000E-01
		-1.04158000E+00	 5.59312000E-01	-4.16328000E-01
		-2.09011000E+00	 1.17194000E+00	 5.83653000E-01
		-2.13775000E+00	 1.20530000E+00	 2.61979000E-01
		-2.11245000E+00	 1.15968000E+00	 2.55573000E-13
		-2.13477000E+00	 1.14742000E+00	-3.20410000E-01
		-1.76481000E+00	 9.89656000E-01	 6.54111000E-01
		-2.10811000E+00	 1.19175000E+00	 4.27828000E-01
		-1.80533000E+00	 1.01805000E+00	 2.93597000E-01
		-2.10705000E+00	 1.16271000E+00	 2.86495000E-01
		-2.14198000E+00	 1.17307000E+00	-3.65181000E-02
		-1.78373000E+00	 9.79223000E-01	 2.46858000E-13
		-2.11797000E+00	 1.15672000E+00	-1.57278000E-01
		-1.80274000E+00	 9.68837000E-01	-3.59090000E-01
		-2.61577000E+00	 1.46639000E+00	 4.12019000E-01
		-2.67484000E+00	 1.50775000E+00	 1.84944000E-01
		-2.64346000E+00	 1.45119000E+00	 2.64566000E-13
		-2.67114000E+00	 1.43599000E+00	-2.26187000E-01
		-2.37555000E+00	 1.33175000E+00	 5.02306000E-01
		-2.63809000E+00	 1.49095000E+00	 3.01998000E-01
		-2.42935000E+00	 1.36946000E+00	 2.25463000E-01
		-2.63678000E+00	 1.45495000E+00	 2.02270000E-01
		-2.68008000E+00	 1.46780000E+00	-2.57440000E-02
		-2.40067000E+00	 1.31790000E+00	 2.63567000E-13
		-2.65031000E+00	 1.44752000E+00	-1.11041000E-01
		-2.42590000E+00	 1.30411000E+00	-2.75753000E-01
		-2.94428000E+00	 1.65036000E+00	 2.10642000E-01
		-3.01040000E+00	 1.69667000E+00	 9.45639000E-02
		-2.97528000E+00	 1.63335000E+00	 2.71561000E-13
		-3.00626000E+00	 1.61633000E+00	-1.15637000E-01
		-2.80656000E+00	 1.57315000E+00	 3.14091000E-01
		-2.96926000E+00	 1.67786000E+00	 1.54352000E-01
		-2.86968000E+00	 1.61740000E+00	 1.40990000E-01
		-2.96780000E+00	 1.63756000E+00	 1.03462000E-01
		-3.01627000E+00	 1.65194000E+00	-1.30838000E-02
		-2.83603000E+00	 1.55691000E+00	 2.70228000E-13
		-2.98294000E+00	 1.62924000E+00	-5.67977000E-02
		-2.86563000E+00	 1.54073000E+00	-1.72428000E-01
		-3.05203000E+00	 1.71060000E+00	-5.53563000E-03
		-3.12028000E+00	 1.75842000E+00	-2.45708000E-03
		-3.08402000E+00	 1.69305000E+00	 2.89879000E-13
		-3.11600000E+00	 1.67548000E+00	 3.03892000E-03
		-3.02665000E+00	 1.69635000E+00	 1.03389000E-01
		-3.07781000E+00	 1.73899000E+00	-4.15348000E-03
		-3.09441000E+00	 1.74385000E+00	 4.64276000E-02
		-3.07631000E+00	 1.69739000E+00	-2.59939000E-03
		-3.12634000E+00	 1.71224000E+00	 5.20540000E-04
		-3.05827000E+00	 1.67891000E+00	 2.74558000E-13
		-3.09194000E+00	 1.68881000E+00	 1.42699000E-03
		-3.09005000E+00	 1.66155000E+00	-5.67581000E-02
		-2.93183000E+00	 1.64309000E+00	-2.20403000E-01
		-2.99712000E+00	 1.68883000E+00	-9.88880000E-02
		-2.96243000E+00	 1.62630000E+00	 3.17635000E-13
		-2.99303000E+00	 1.60950000E+00	 1.20995000E-01
		-3.02025000E+00	 1.69263000E+00	-1.14127000E-01
		-2.95650000E+00	 1.67025000E+00	-1.61704000E-01
		-3.08760000E+00	 1.73984000E+00	-5.11914000E-02
		-2.95505000E+00	 1.63045000E+00	-1.08009000E-01
		-3.00292000E+00	 1.64466000E+00	 1.40542000E-02
		-3.05169000E+00	 1.67530000E+00	 3.09530000E-13
		-2.97000000E+00	 1.62225000E+00	 5.92944000E-02
		-3.08326000E+00	 1.65804000E+00	 6.26527000E-02
		-2.59352000E+00	 1.45332000E+00	-4.17884000E-01
		-2.65096000E+00	 1.49357000E+00	-1.87514000E-01
		-2.62044000E+00	 1.43855000E+00	 3.19078000E-13
		-2.64735000E+00	 1.42377000E+00	 2.29407000E-01
		-2.78871000E+00	 1.56272000E+00	-3.22217000E-01
		-2.61522000E+00	 1.47722000E+00	-3.06514000E-01
		-2.85061000E+00	 1.60611000E+00	-1.44578000E-01
		-2.61395000E+00	 1.44221000E+00	-2.04882000E-01
		-2.65606000E+00	 1.45470000E+00	 2.65054000E-02
		-2.81760000E+00	 1.54679000E+00	 3.21743000E-13
		-2.62710000E+00	 1.43499000E+00	 1.12475000E-01
		-2.84662000E+00	 1.53093000E+00	 1.76889000E-01
		-2.06328000E+00	 1.15597000E+00	-5.83140000E-01
		-2.10854000E+00	 1.18768000E+00	-2.61676000E-01
		-2.08449000E+00	 1.14433000E+00	 3.39506000E-13
		-2.10569000E+00	 1.13269000E+00	 3.20129000E-01
		-2.35020000E+00	 1.31679000E+00	-5.05280000E-01
		-2.08037000E+00	 1.17479000E+00	-4.27703000E-01
		-2.40199000E+00	 1.35311000E+00	-2.26731000E-01
		-2.07938000E+00	 1.14721000E+00	-2.85935000E-01
		-2.11255000E+00	 1.15705000E+00	 3.69412000E-02
		-2.37436000E+00	 1.30346000E+00	 3.16080000E-13
		-2.08973000E+00	 1.14152000E+00	 1.56971000E-01
		-2.39864000E+00	 1.29020000E+00	 2.77385000E-01
		-1.38175000E+00	 7.73781000E-01	-7.03666000E-01
		-1.41138000E+00	 7.94548000E-01	-3.15761000E-01
		-1.39563000E+00	 7.66165000E-01	 3.50386000E-13
		-1.40950000E+00	 7.58546000E-01	 3.86294000E-01
		-1.73843000E+00	 9.73741000E-01	-6.49518000E-01
		-1.39294000E+00	 7.86111000E-01	-5.16102000E-01
		-1.77620000E+00	 1.00023000E+00	-2.91457000E-01
		-1.39229000E+00	 7.68048000E-01	-3.45034000E-01
		-1.41400000E+00	 7.74497000E-01	 4.45764000E-02
		-1.75605000E+00	 9.64023000E-01	 3.57769000E-13
		-1.39906000E+00	 7.64330000E-01	 1.89415000E-01
		-1.77375000E+00	 9.54350000E-01	 3.56569000E-01
		-6.01061000E-01	 3.35971000E-01	-7.70219000E-01
		-6.12759000E-01	 3.44181000E-01	-3.45619000E-01
		-6.06531000E-01	 3.32970000E-01	 3.61378000E-13
		-6.11998000E-01	 3.29967000E-01	 4.22830000E-01
		-1.00021000E+00	 5.59786000E-01	-7.43959000E-01
		-6.05475000E-01	 3.40845000E-01	-5.64937000E-01
		-1.02106000E+00	 5.74418000E-01	-3.33832000E-01
		-6.05219000E-01	 3.33711000E-01	-3.77640000E-01
		-6.13786000E-01	 3.36260000E-01	 4.88321000E-02
		-1.00993000E+00	 5.54425000E-01	 3.45279000E-13
		-6.07881000E-01	 3.32249000E-01	 2.07315000E-01
		-1.01970000E+00	 5.49089000E-01	 4.08414000E-01
		 2.18986000E-01	-1.23959000E-01	-7.77485000E-01
		 2.26219000E-01	-1.29006000E-01	-3.48866000E-01
		 2.22394000E-01	-1.22088000E-01	 3.80251000E-13
		 2.25802000E-01	-1.20217000E-01	 4.26819000E-01
		-1.92039000E-01	 1.06570000E-01	-7.81260000E-01
		 2.21725000E-01	-1.26957000E-01	-5.70314000E-01
		-1.94307000E-01	 1.08179000E-01	-3.50560000E-01
		 2.21562000E-01	-1.22553000E-01	-3.81145000E-01
		 2.26877000E-01	-1.24120000E-01	 4.93784000E-02
		-1.93078000E-01	 1.05995000E-01	 3.65707000E-13
		 2.23240000E-01	-1.21632000E-01	 2.09239000E-01
		-1.94126000E-01	 1.05424000E-01	 4.28891000E-01
		 1.01526000E+00	-5.70650000E-01	-7.24460000E-01
		 1.04105000E+00	-5.88691000E-01	-3.25049000E-01
		 1.02737000E+00	-5.64001000E-01	 3.91354000E-13
		 1.03948000E+00	-5.57351000E-01	 3.97709000E-01
		 6.24054000E-01	-3.51158000E-01	-7.58235000E-01
		 1.02501000E+00	-5.81364000E-01	-5.31499000E-01
		 6.40686000E-01	-3.62792000E-01	-3.40211000E-01
		 1.02444000E+00	-5.65648000E-01	-3.55051000E-01
		 1.04336000E+00	-5.71251000E-01	 4.61582000E-02
		 6.31842000E-01	-3.46865000E-01	 3.89577000E-13
		 1.03037000E+00	-5.62390000E-01	 1.94914000E-01
		 6.39662000E-01	-3.42589000E-01	 4.16251000E-01
		 1.72590000E+00	-9.69454000E-01	-6.14485000E-01
		 1.76855000E+00	-9.99296000E-01	-2.75668000E-01
		 1.74592000E+00	-9.58464000E-01	 4.00791000E-13
		 1.76594000E+00	-9.47472000E-01	 3.37336000E-01
		 1.38500000E+00	-7.78074000E-01	-6.76069000E-01
		 1.74202000E+00	-9.87176000E-01	-4.50947000E-01
		 1.41948000E+00	-8.02217000E-01	-3.03314000E-01
		 1.74107000E+00	-9.61186000E-01	-3.00992000E-01
		 1.77236000E+00	-9.70454000E-01	 3.93900000E-02
		 1.40113000E+00	-7.69182000E-01	 3.91576000E-13
		 1.75088000E+00	-9.55804000E-01	 1.65237000E-01
		 1.41732000E+00	-7.60327000E-01	 3.71144000E-01
		 2.29476000E+00	-1.28894000E+00	-4.54962000E-01
		 2.35138000E+00	-1.32856000E+00	-2.04042000E-01
		 2.32134000E+00	-1.27435000E+00	 4.01235000E-13
		 2.34791000E+00	-1.25976000E+00	 2.49762000E-01
		 2.03125000E+00	-1.14084000E+00	-5.40189000E-01
		 2.31616000E+00	-1.31247000E+00	-3.34091000E-01
		 2.08127000E+00	-1.17586000E+00	-2.42304000E-01
		 2.31490000E+00	-1.27797000E+00	-2.22591000E-01
		 2.35644000E+00	-1.29027000E+00	 2.95504000E-02
		 2.05464000E+00	-1.12795000E+00	 4.07785000E-13
		 2.32792000E+00	-1.27082000E+00	 1.22197000E-01
		 2.07813000E+00	-1.11510000E+00	 2.96550000E-01
		 2.67539000E+00	-1.50312000E+00	-2.56738000E-01
		 2.74214000E+00	-1.54982000E+00	-1.15037000E-01
		 2.70673000E+00	-1.48592000E+00	 4.33209000E-13
		 2.73806000E+00	-1.46872000E+00	 1.40942000E-01
		 2.51107000E+00	-1.41050000E+00	-3.59811000E-01
		 2.70063000E+00	-1.53085000E+00	-1.88893000E-01
		 2.57323000E+00	-1.45401000E+00	-1.61316000E-01
		 2.69914000E+00	-1.49019000E+00	-1.25163000E-01
		 2.74811000E+00	-1.50469000E+00	 1.73365000E-02
		 2.54014000E+00	-1.39447000E+00	 4.02123000E-13
		 2.71449000E+00	-1.48176000E+00	 6.87110000E-02
		 2.56933000E+00	-1.37851000E+00	 1.97527000E-01
		 2.83427000E+00	-1.59326000E+00	-3.32283000E-02
		 2.90665000E+00	-1.64389000E+00	-1.46716000E-02
		 2.86827000E+00	-1.57460000E+00	 4.52860000E-13
		 2.90226000E+00	-1.55594000E+00	 1.82415000E-02
		 2.78412000E+00	-1.56449000E+00	-1.47191000E-01
		 2.86164000E+00	-1.62333000E+00	-2.51992000E-02
		 2.85421000E+00	-1.61355000E+00	-6.58455000E-02
		 2.86003000E+00	-1.57923000E+00	-1.52738000E-02
		 2.91314000E+00	-1.59495000E+00	 3.61121000E-03
		 2.81691000E+00	-1.54641000E+00	 4.58189000E-13
		 2.87669000E+00	-1.57008000E+00	 8.38493000E-03
		 2.84984000E+00	-1.52841000E+00	 8.08037000E-02
		 2.75289000E+00	-1.54907000E+00	 2.00686000E-01
		 2.82616000E+00	-1.60029000E+00	 9.03801000E-02
		 2.78732000E+00	-1.53017000E+00	 4.43982000E-13
		 2.82175000E+00	-1.51126000E+00	-1.10171000E-01
		 2.82419000E+00	-1.58819000E+00	 8.33812000E-02
		 2.78060000E+00	-1.57949000E+00	 1.46066000E-01
		 2.89755000E+00	-1.63952000E+00	 3.76953000E-02
		 2.77897000E+00	-1.53485000E+00	 9.97900000E-02
		 2.83274000E+00	-1.55076000E+00	-1.06647000E-02
		 2.85853000E+00	-1.56926000E+00	 4.10921000E-13
		 2.79585000E+00	-1.52558000E+00	-5.47821000E-02
		 2.89301000E+00	-1.55041000E+00	-4.57741000E-02
		 2.42873000E+00	-1.36922000E+00	 4.29890000E-01
		 2.49826000E+00	-1.41779000E+00	 1.93340000E-01
		 2.46144000E+00	-1.35126000E+00	 4.59160000E-13
		 2.49414000E+00	-1.33331000E+00	-2.35998000E-01
		 2.62073000E+00	-1.47577000E+00	 3.16749000E-01
		 2.45504000E+00	-1.39807000E+00	 3.13804000E-01
		 2.69263000E+00	-1.52605000E+00	 1.42510000E-01