    1C
    1UUSER                                                              
    1UDATE              25.january.2020                                 
    1UTIME              17:53:37                                        
    1UHOST                                                              
    1UPGM               CalculiX                                        
    1UVERSION           Version 2.16                             
    1UCOMPILETIME       Tue  7 Jan 19:57:43 CET 2020                    
    1UDIR                                                               
    1UDBN                                                               
    1UMAT    1STEEL                                                     
    2C                           321                                     1
 -1         1 1.00000E-02 1.00000E-02 0.00000E+00
 -1         2 1.00000E-02 5.00000E-03 0.00000E+00
 -1         3 1.00000E-02 5.00000E-03 1.00000E-02
 -1         4 1.00000E-02 1.00000E-02 1.00000E-02
 -1         5 5.00000E-03 1.00000E-02 0.00000E+00
 -1         6 5.00000E-03 5.00000E-03 0.00000E+00
 -1         7 5.00000E-03 5.00000E-03 1.00000E-02
 -1         8 5.00000E-03 1.00000E-02 1.00000E-02
 -1         9 1.00000E-02 7.50000E-03 0.00000E+00
 -1        10 1.00000E-02 5.00000E-03 5.00000E-03
 -1        11 1.00000E-02 7.50000E-03 1.00000E-02
 -1        12 1.00000E-02 1.00000E-02 5.00000E-03
 -1        13 7.50000E-03 1.00000E-02 0.00000E+00
 -1        14 7.50000E-03 5.00000E-03 0.00000E+00
 -1        15 7.50000E-03 5.00000E-03 1.00000E-02
 -1        16 7.50000E-03 1.00000E-02 1.00000E-02
 -1        17 5.00000E-03 7.50000E-03 0.00000E+00
 -1        18 5.00000E-03 5.00000E-03 5.00000E-03
 -1        19 5.00000E-03 7.50000E-03 1.00000E-02
 -1        20 5.00000E-03 1.00000E-02 5.00000E-03
 -1        21 1.00000E-02 5.00000E-03 2.00000E-02
 -1        22 1.00000E-02 1.00000E-02 2.00000E-02
 -1        23 5.00000E-03 5.00000E-03 2.00000E-02
 -1        24 5.00000E-03 1.00000E-02 2.00000E-02
 -1        25 1.00000E-02 5.00000E-03 1.50000E-02
 -1        26 1.00000E-02 7.50000E-03 2.00000E-02
 -1        27 1.00000E-02 1.00000E-02 1.50000E-02
 -1        28 7.50000E-03 5.00000E-03 2.00000E-02
 -1        29 7.50000E-03 1.00000E-02 2.00000E-02
 -1        30 5.00000E-03 5.00000E-03 1.50000E-02
 -1        31 5.00000E-03 7.50000E-03 2.00000E-02
 -1        32 5.00000E-03 1.00000E-02 1.50000E-02
 -1        33 1.00000E-02 5.00000E-03 3.00000E-02
 -1        34 1.00000E-02 1.00000E-02 3.00000E-02
 -1        35 5.00000E-03 5.00000E-03 3.00000E-02
 -1        36 5.00000E-03 1.00000E-02 3.00000E-02
 -1        37 1.00000E-02 5.00000E-03 2.50000E-02
 -1        38 1.00000E-02 7.50000E-03 3.00000E-02
 -1        39 1.00000E-02 1.00000E-02 2.50000E-02
 -1        40 7.50000E-03 5.00000E-03 3.00000E-02
 -1        41 7.50000E-03 1.00000E-02 3.00000E-02
 -1        42 5.00000E-03 5.00000E-03 2.50000E-02
 -1        43 5.00000E-03 7.50000E-03 3.00000E-02
 -1        44 5.00000E-03 1.00000E-02 2.50000E-02
 -1        45 1.00000E-02 5.00000E-03 4.00000E-02
 -1        46 1.00000E-02 1.00000E-02 4.00000E-02
 -1        47 5.00000E-03 5.00000E-03 4.00000E-02
 -1        48 5.00000E-03 1.00000E-02 4.00000E-02
 -1        49 1.00000E-02 5.00000E-03 3.50000E-02
 -1        50 1.00000E-02 7.50000E-03 4.00000E-02
 -1        51 1.00000E-02 1.00000E-02 3.50000E-02
 -1        52 7.50000E-03 5.00000E-03 4.00000E-02
 -1        53 7.50000E-03 1.00000E-02 4.00000E-02
 -1        54 5.00000E-03 5.00000E-03 3.50000E-02
 -1        55 5.00000E-03 7.50000E-03 4.00000E-02
 -1        56 5.00000E-03 1.00000E-02 3.50000E-02
 -1        57 1.00000E-02 5.00000E-03 5.00000E-02
 -1        58 1.00000E-02 1.00000E-02 5.00000E-02
 -1        59 5.00000E-03 5.00000E-03 5.00000E-02
 -1        60 5.00000E-03 1.00000E-02 5.00000E-02
 -1        61 1.00000E-02 5.00000E-03 4.50000E-02
 -1        62 1.00000E-02 7.50000E-03 5.00000E-02
 -1        63 1.00000E-02 1.00000E-02 4.50000E-02
 -1        64 7.50000E-03 5.00000E-03 5.00000E-02
 -1        65 7.50000E-03 1.00000E-02 5.00000E-02
 -1        66 5.00000E-03 5.00000E-03 4.50000E-02
 -1        67 5.00000E-03 7.50000E-03 5.00000E-02
 -1        68 5.00000E-03 1.00000E-02 4.50000E-02
 -1        69 1.00000E-02 5.00000E-03 6.00000E-02
 -1        70 1.00000E-02 1.00000E-02 6.00000E-02
 -1        71 5.00000E-03 5.00000E-03 6.00000E-02
 -1        72 5.00000E-03 1.00000E-02 6.00000E-02
 -1        73 1.00000E-02 5.00000E-03 5.50000E-02
 -1        74 1.00000E-02 7.50000E-03 6.00000E-02
 -1        75 1.00000E-02 1.00000E-02 5.50000E-02
 -1        76 7.50000E-03 5.00000E-03 6.00000E-02
 -1        77 7.50000E-03 1.00000E-02 6.00000E-02
 -1        78 5.00000E-03 5.00000E-03 5.50000E-02
 -1        79 5.00000E-03 7.50000E-03 6.00000E-02
 -1        80 5.00000E-03 1.00000E-02 5.50000E-02
 -1        81 1.00000E-02 5.00000E-03 7.00000E-02
 -1        82 1.00000E-02 1.00000E-02 7.00000E-02
 -1        83 5.00000E-03 5.00000E-03 7.00000E-02
 -1        84 5.00000E-03 1.00000E-02 7.00000E-02
 -1        85 1.00000E-02 5.00000E-03 6.50000E-02
 -1        86 1.00000E-02 7.50000E-03 7.00000E-02
 -1        87 1.00000E-02 1.00000E-02 6.50000E-02
 -1        88 7.50000E-03 5.00000E-03 7.00000E-02
 -1        89 7.50000E-03 1.00000E-02 7.00000E-02
 -1        90 5.00000E-03 5.00000E-03 6.50000E-02
 -1        91 5.00000E-03 7.50000E-03 7.00000E-02
 -1        92 5.00000E-03 1.00000E-02 6.50000E-02
 -1        93 1.00000E-02 5.00000E-03 8.00000E-02
 -1        94 1.00000E-02 1.00000E-02 8.00000E-02
 -1        95 5.00000E-03 5.00000E-03 8.00000E-02
 -1        96 5.00000E-03 1.00000E-02 8.00000E-02
 -1        97 1.00000E-02 5.00000E-03 7.50000E-02
 -1        98 1.00000E-02 7.50000E-03 8.00000E-02
 -1        99 1.00000E-02 1.00000E-02 7.50000E-02
 -1       100 7.50000E-03 5.00000E-03 8.00000E-02
 -1       101 7.50000E-03 1.00000E-02 8.00000E-02
 -1       102 5.00000E-03 5.00000E-03 7.50000E-02
 -1       103 5.00000E-03 7.50000E-03 8.00000E-02
 -1       104 5.00000E-03 1.00000E-02 7.50000E-02
 -1       105 1.00000E-02 5.00000E-03 9.00000E-02
 -1       106 1.00000E-02 1.00000E-02 9.00000E-02
 -1       107 5.00000E-03 5.00000E-03 9.00000E-02
 -1       108 5.00000E-03 1.00000E-02 9.00000E-02
 -1       109 1.00000E-02 5.00000E-03 8.50000E-02
 -1       110 1.00000E-02 7.50000E-03 9.00000E-02
 -1       111 1.00000E-02 1.00000E-02 8.50000E-02
 -1       112 7.50000E-03 5.00000E-03 9.00000E-02
 -1       113 7.50000E-03 1.00000E-02 9.00000E-02
 -1       114 5.00000E-03 5.00000E-03 8.50000E-02
 -1       115 5.00000E-03 7.50000E-03 9.00000E-02
 -1       116 5.00000E-03 1.00000E-02 8.50000E-02
 -1       117 1.00000E-02 5.00000E-03 1.00000E-01
 -1       118 1.00000E-02 1.00000E-02 1.00000E-01
 -1       119 5.00000E-03 5.00000E-03 1.00000E-01
 -1       120 5.00000E-03 1.00000E-02 1.00000E-01
 -1       121 1.00000E-02 5.00000E-03 9.50000E-02
 -1       122 1.00000E-02 7.50000E-03 1.00000E-01
 -1       123 1.00000E-02 1.00000E-02 9.50000E-02
 -1       124 7.50000E-03 5.00000E-03 1.00000E-01
 -1       125 7.50000E-03 1.00000E-02 1.00000E-01
 -1       126 5.00000E-03 5.00000E-03 9.50000E-02
 -1       127 5.00000E-03 7.50000E-03 1.00000E-01
 -1       128 5.00000E-03 1.00000E-02 9.50000E-02
 -1       129 0.00000E+00 1.00000E-02 0.00000E+00
 -1       130 0.00000E+00 5.00000E-03 0.00000E+00
 -1       131 0.00000E+00 5.00000E-03 1.00000E-02
 -1       132 0.00000E+00 1.00000E-02 1.00000E-02
 -1       133 2.50000E-03 1.00000E-02 0.00000E+00
 -1       134 2.50000E-03 5.00000E-03 0.00000E+00
 -1       135 2.50000E-03 5.00000E-03 1.00000E-02
 -1       136 2.50000E-03 1.00000E-02 1.00000E-02
 -1       137 0.00000E+00 7.50000E-03 0.00000E+00
 -1       138 0.00000E+00 5.00000E-03 5.00000E-03
 -1       139 0.00000E+00 7.50000E-03 1.00000E-02
 -1       140 0.00000E+00 1.00000E-02 5.00000E-03
 -1       141 0.00000E+00 5.00000E-03 2.00000E-02
 -1       142 0.00000E+00 1.00000E-02 2.00000E-02
 -1       143 2.50000E-03 5.00000E-03 2.00000E-02
 -1       144 2.50000E-03 1.00000E-02 2.00000E-02
 -1       145 0.00000E+00 5.00000E-03 1.50000E-02
 -1       146 0.00000E+00 7.50000E-03 2.00000E-02
 -1       147 0.00000E+00 1.00000E-02 1.50000E-02
 -1       148 0.00000E+00 5.00000E-03 3.00000E-02
 -1       149 0.00000E+00 1.00000E-02 3.00000E-02
 -1       150 2.50000E-03 5.00000E-03 3.00000E-02
 -1       151 2.50000E-03 1.00000E-02 3.00000E-02
 -1       152 0.00000E+00 5.00000E-03 2.50000E-02
 -1       153 0.00000E+00 7.50000E-03 3.00000E-02
 -1       154 0.00000E+00 1.00000E-02 2.50000E-02
 -1       155 0.00000E+00 5.00000E-03 4.00000E-02
 -1       156 0.00000E+00 1.00000E-02 4.00000E-02
 -1       157 2.50000E-03 5.00000E-03 4.00000E-02
 -1       158 2.50000E-03 1.00000E-02 4.00000E-02
 -1       159 0.00000E+00 5.00000E-03 3.50000E-02
 -1       160 0.00000E+00 7.50000E-03 4.00000E-02
 -1       161 0.00000E+00 1.00000E-02 3.50000E-02
 -1       162 0.00000E+00 5.00000E-03 5.00000E-02
 -1       163 0.00000E+00 1.00000E-02 5.00000E-02
 -1       164 2.50000E-03 5.00000E-03 5.00000E-02
 -1       165 2.50000E-03 1.00000E-02 5.00000E-02
 -1       166 0.00000E+00 5.00000E-03 4.50000E-02
 -1       167 0.00000E+00 7.50000E-03 5.00000E-02
 -1       168 0.00000E+00 1.00000E-02 4.50000E-02
 -1       169 0.00000E+00 5.00000E-03 6.00000E-02
 -1       170 0.00000E+00 1.00000E-02 6.00000E-02
 -1       171 2.50000E-03 5.00000E-03 6.00000E-02
 -1       172 2.50000E-03 1.00000E-02 6.00000E-02
 -1       173 0.00000E+00 5.00000E-03 5.50000E-02
 -1       174 0.00000E+00 7.50000E-03 6.00000E-02
 -1       175 0.00000E+00 1.00000E-02 5.50000E-02
 -1       176 0.00000E+00 5.00000E-03 7.00000E-02
 -1       177 0.00000E+00 1.00000E-02 7.00000E-02
 -1       178 2.50000E-03 5.00000E-03 7.00000E-02
 -1       179 2.50000E-03 1.00000E-02 7.00000E-02
 -1       180 0.00000E+00 5.00000E-03 6.50000E-02
 -1       181 0.00000E+00 7.50000E-03 7.00000E-02
 -1       182 0.00000E+00 1.00000E-02 6.50000E-02
 -1       183 0.00000E+00 5.00000E-03 8.00000E-02
 -1       184 0.00000E+00 1.00000E-02 8.00000E-02
 -1       185 2.50000E-03 5.00000E-03 8.00000E-02
 -1       186 2.50000E-03 1.00000E-02 8.00000E-02
 -1       187 0.00000E+00 5.00000E-03 7.50000E-02
 -1       188 0.00000E+00 7.50000E-03 8.00000E-02
 -1       189 0.00000E+00 1.00000E-02 7.50000E-02
 -1       190 0.00000E+00 5.00000E-03 9.00000E-02
 -1       191 0.00000E+00 1.00000E-02 9.00000E-02
 -1       192 2.50000E-03 5.00000E-03 9.00000E-02
 -1       193 2.50000E-03 1.00000E-02 9.00000E-02
 -1       194 0.00000E+00 5.00000E-03 8.50000E-02
 -1       195 0.00000E+00 7.50000E-03 9.00000E-02
 -1       196 0.00000E+00 1.00000E-02 8.50000E-02
 -1       197 0.00000E+00 5.00000E-03 1.00000E-01
 -1       198 0.00000E+00 1.00000E-02 1.00000E-01
 -1       199 2.50000E-03 5.00000E-03 1.00000E-01
 -1       200 2.50000E-03 1.00000E-02 1.00000E-01
 -1       201 0.00000E+00 5.00000E-03 9.50000E-02
 -1       202 0.00000E+00 7.50000E-03 1.00000E-01
 -1       203 0.00000E+00 1.00000E-02 9.50000E-02
 -1       204 1.00000E-02 0.00000E+00 0.00000E+00
 -1       205 1.00000E-02 0.00000E+00 1.00000E-02
 -1       206 5.00000E-03 0.00000E+00 0.00000E+00
 -1       207 5.00000E-03 0.00000E+00 1.00000E-02
 -1       208 1.00000E-02 2.50000E-03 0.00000E+00
 -1       209 1.00000E-02 0.00000E+00 5.00000E-03
 -1       210 1.00000E-02 2.50000E-03 1.00000E-02
 -1       211 7.50000E-03 0.00000E+00 0.00000E+00
 -1       212 7.50000E-03 0.00000E+00 1.00000E-02
 -1       213 5.00000E-03 2.50000E-03 0.00000E+00
 -1       214 5.00000E-03 0.00000E+00 5.00000E-03
 -1       215 5.00000E-03 2.50000E-03 1.00000E-02
 -1       216 1.00000E-02 0.00000E+00 2.00000E-02
 -1       217 5.00000E-03 0.00000E+00 2.00000E-02
 -1       218 1.00000E-02 0.00000E+00 1.50000E-02
 -1       219 1.00000E-02 2.50000E-03 2.00000E-02
 -1       220 7.50000E-03 0.00000E+00 2.00000E-02
 -1       221 5.00000E-03 0.00000E+00 1.50000E-02
 -1       222 5.00000E-03 2.50000E-03 2.00000E-02
 -1       223 1.00000E-02 0.00000E+00 3.00000E-02
 -1       224 5.00000E-03 0.00000E+00 3.00000E-02
 -1       225 1.00000E-02 0.00000E+00 2.50000E-02
 -1       226 1.00000E-02 2.50000E-03 3.00000E-02
 -1       227 7.50000E-03 0.00000E+00 3.00000E-02
 -1       228 5.00000E-03 0.00000E+00 2.50000E-02
 -1       229 5.00000E-03 2.50000E-03 3.00000E-02
 -1       230 1.00000E-02 0.00000E+00 4.00000E-02
 -1       231 5.00000E-03 0.00000E+00 4.00000E-02
 -1       232 1.00000E-02 0.00000E+00 3.50000E-02
 -1       233 1.00000E-02 2.50000E-03 4.00000E-02
 -1       234 7.50000E-03 0.00000E+00 4.00000E-02
 -1       235 5.00000E-03 0.00000E+00 3.50000E-02
 -1       236 5.00000E-03 2.50000E-03 4.00000E-02
 -1       237 1.00000E-02 0.00000E+00 5.00000E-02
 -1       238 5.00000E-03 0.00000E+00 5.00000E-02
 -1       239 1.00000E-02 0.00000E+00 4.50000E-02
 -1       240 1.00000E-02 2.50000E-03 5.00000E-02
 -1       241 7.50000E-03 0.00000E+00 5.00000E-02
 -1       242 5.00000E-03 0.00000E+00 4.50000E-02
 -1       243 5.00000E-03 2.50000E-03 5.00000E-02
 -1       244 1.00000E-02 0.00000E+00 6.00000E-02
 -1       245 5.00000E-03 0.00000E+00 6.00000E-02
 -1       246 1.00000E-02 0.00000E+00 5.50000E-02
 -1       247 1.00000E-02 2.50000E-03 6.00000E-02
 -1       248 7.50000E-03 0.00000E+00 6.00000E-02
 -1       249 5.00000E-03 0.00000E+00 5.50000E-02
 -1       250 5.00000E-03 2.50000E-03 6.00000E-02
 -1       251 1.00000E-02 0.00000E+00 7.00000E-02
 -1       252 5.00000E-03 0.00000E+00 7.00000E-02
 -1       253 1.00000E-02 0.00000E+00 6.50000E-02
 -1       254 1.00000E-02 2.50000E-03 7.00000E-02
 -1       255 7.50000E-03 0.00000E+00 7.00000E-02
 -1       256 5.00000E-03 0.00000E+00 6.50000E-02
 -1       257 5.00000E-03 2.50000E-03 7.00000E-02
 -1       258 1.00000E-02 0.00000E+00 8.00000E-02
 -1       259 5.00000E-03 0.00000E+00 8.00000E-02
 -1       260 1.00000E-02 0.00000E+00 7.50000E-02
 -1       261 1.00000E-02 2.50000E-03 8.00000E-02
 -1       262 7.50000E-03 0.00000E+00 8.00000E-02
 -1       263 5.00000E-03 0.00000E+00 7.50000E-02
 -1       264 5.00000E-03 2.50000E-03 8.00000E-02
 -1       265 1.00000E-02 0.00000E+00 9.00000E-02
 -1       266 5.00000E-03 0.00000E+00 9.00000E-02
 -1       267 1.00000E-02 0.00000E+00 8.50000E-02
 -1       268 1.00000E-02 2.50000E-03 9.00000E-02
 -1       269 7.50000E-03 0.00000E+00 9.00000E-02
 -1       270 5.00000E-03 0.00000E+00 8.50000E-02
 -1       271 5.00000E-03 2.50000E-03 9.00000E-02
 -1       272 1.00000E-02 0.00000E+00 1.00000E-01
 -1       273 5.00000E-03 0.00000E+00 1.00000E-01
 -1       274 1.00000E-02 0.00000E+00 9.50000E-02
 -1       275 1.00000E-02 2.50000E-03 1.00000E-01
 -1       276 7.50000E-03 0.00000E+00 1.00000E-01
 -1       277 5.00000E-03 0.00000E+00 9.50000E-02
 -1       278 5.00000E-03 2.50000E-03 1.00000E-01
 -1       279 0.00000E+00 0.00000E+00 0.00000E+00
 -1       280 0.00000E+00 0.00000E+00 1.00000E-02
 -1       281 2.50000E-03 0.00000E+00 0.00000E+00
 -1       282 2.50000E-03 0.00000E+00 1.00000E-02
 -1       283 0.00000E+00 2.50000E-03 0.00000E+00
 -1       284 0.00000E+00 0.00000E+00 5.00000E-03
 -1       285 0.00000E+00 2.50000E-03 1.00000E-02
 -1       286 0.00000E+00 0.00000E+00 2.00000E-02
 -1       287 2.50000E-03 0.00000E+00 2.00000E-02
 -1       288 0.00000E+00 0.00000E+00 1.50000E-02
 -1       289 0.00000E+00 2.50000E-03 2.00000E-02
 -1       290 0.00000E+00 0.00000E+00 3.00000E-02
 -1       291 2.50000E-03 0.00000E+00 3.00000E-02
 -1       292 0.00000E+00 0.00000E+00 2.50000E-02
 -1       293 0.00000E+00 2.50000E-03 3.00000E-02
 -1       294 0.00000E+00 0.00000E+00 4.00000E-02
 -1       295 2.50000E-03 0.00000E+00 4.00000E-02
 -1       296 0.00000E+00 0.00000E+00 3.50000E-02
 -1       297 0.00000E+00 2.50000E-03 4.00000E-02
 -1       298 0.00000E+00 0.00000E+00 5.00000E-02
 -1       299 2.50000E-03 0.00000E+00 5.00000E-02
 -1       300 0.00000E+00 0.00000E+00 4.50000E-02
 -1       301 0.00000E+00 2.50000E-03 5.00000E-02
 -1       302 0.00000E+00 0.00000E+00 6.00000E-02
 -1       303 2.50000E-03 0.00000E+00 6.00000E-02
 -1       304 0.00000E+00 0.00000E+00 5.50000E-02
 -1       305 0.00000E+00 2.50000E-03 6.00000E-02
 -1       306 0.00000E+00 0.00000E+00 7.00000E-02
 -1       307 2.50000E-03 0.00000E+00 7.00000E-02
 -1       308 0.00000E+00 0.00000E+00 6.50000E-02
 -1       309 0.00000E+00 2.50000E-03 7.00000E-02
 -1       310 0.00000E+00 0.00000E+00 8.00000E-02
 -1       311 2.50000E-03 0.00000E+00 8.00000E-02
 -1       312 0.00000E+00 0.00000E+00 7.50000E-02
 -1       313 0.00000E+00 2.50000E-03 8.00000E-02
 -1       314 0.00000E+00 0.00000E+00 9.00000E-02
 -1       315 2.50000E-03 0.00000E+00 9.00000E-02
 -1       316 0.00000E+00 0.00000E+00 8.50000E-02
 -1       317 0.00000E+00 2.50000E-03 9.00000E-02
 -1       318 0.00000E+00 0.00000E+00 1.00000E-01
 -1       319 2.50000E-03 0.00000E+00 1.00000E-01
 -1       320 0.00000E+00 0.00000E+00 9.50000E-02
 -1       321 0.00000E+00 2.50000E-03 1.00000E-01
 -3
    3C                            40                                     1
 -1         1    4    0    1
 -2         1         2         3         4         5         6         7         8         9        10
 -2        11        12        13        14        15        16        17        18        19        20
 -1         2    4    0    1
 -2         4         3        21        22         8         7        23        24        11        25
 -2        26        27        16        15        28        29        19        30        31        32
 -1         3    4    0    1
 -2        22        21        33        34        24        23        35        36        26        37
 -2        38        39        29        28        40        41        31        42        43        44
 -1         4    4    0    1
 -2        34        33        45        46        36        35        47        48        38        49
 -2        50        51        41        40        52        53        43        54        55        56
 -1         5    4    0    1
 -2        46        45        57        58        48        47        59        60        50        61
 -2        62        63        53        52        64        65        55        66        67        68
 -1         6    4    0    1
 -2        58        57        69        70        60        59        71        72        62        73
 -2        74        75        65        64        76        77        67        78        79        80
 -1         7    4    0    1
 -2        70        69        81        82        72        71        83        84        74        85
 -2        86        87        77        76        88        89        79        90        91        92
 -1         8    4    0    1
 -2        82        81        93        94        84        83        95        96        86        97
 -2        98        99        89        88       100       101        91       102       103       104
 -1         9    4    0    1
 -2        94        93       105       106        96        95       107       108        98       109
 -2       110       111       101       100       112       113       103       114       115       116
 -1        10    4    0    1
 -2       106       105       117       118       108       107       119       120       110       121
 -2       122       123       113       112       124       125       115       126       127       128
 -1        11    4    0    1
 -2         5         6         7         8       129       130       131       132        17        18
 -2        19        20       133       134       135       136       137       138       139       140
 -1        12    4    0    1
 -2         8         7        23        24       132       131       141       142        19        30
 -2        31        32       136       135       143       144       139       145       146       147
 -1        13    4    0    1
 -2        24        23        35        36       142       141       148       149        31        42
 -2        43        44       144       143       150       151       146       152       153       154
 -1        14    4    0    1
 -2        36        35        47        48       149       148       155       156        43        54
 -2        55        56       151       150       157       158       153       159       160       161
 -1        15    4    0    1
 -2        48        47        59        60       156       155       162       163        55        66
 -2        67        68       158       157       164       165       160       166       167       168
 -1        16    4    0    1
 -2        60        59        71        72       163       162       169       170        67        78
 -2        79        80       165       164       171       172       167       173       174       175
 -1        17    4    0    1
 -2        72        71        83        84       170       169       176       177        79        90
 -2        91        92       172       171       178       179       174       180       181       182
 -1        18    4    0    1
 -2        84        83        95        96       177       176       183       184        91       102
 -2       103       104       179       178       185       186       181       187       188       189
 -1        19    4    0    1
 -2        96        95       107       108       184       183       190       191       103       114
 -2       115       116       186       185       192       193       188       194       195       196
 -1        20    4    0    1
 -2       108       107       119       120       191       190       197       198       115       126
 -2       127       128       193       192       199       200       195       201       202       203
 -1        21    4    0    1
 -2         2       204       205         3         6       206       207         7       208       209
 -2       210        10        14       211       212        15       213       214       215        18
 -1        22    4    0    1
 -2         3       205       216        21         7       207       217        23       210       218
 -2       219        25        15       212       220        28       215       221       222        30
 -1        23    4    0    1
 -2        21       216       223        33        23       217       224        35       219       225
 -2       226        37        28       220       227        40       222       228       229        42
 -1        24    4    0    1
 -2        33       223       230        45        35       224       231        47       226       232
 -2       233        49        40       227       234        52       229       235       236        54
 -1        25    4    0    1
 -2        45       230       237        57        47       231       238        59       233       239
 -2       240        61        52       234       241        64       236       242       243        66
 -1        26    4    0    1
 -2        57       237       244        69        59       238       245        71       240       246
 -2       247        73        64       241       248        76       243       249       250        78
 -1        27    4    0    1
 -2        69       244       251        81        71       245       252        83       247       253
 -2       254        85        76       248       255        88       250       256       257        90
 -1        28    4    0    1
 -2        81       251       258        93        83       252       259        95       254       260
 -2       261        97        88       255       262       100       257       263       264       102
 -1        29    4    0    1
 -2        93       258       265       105        95       259       266       107       261       267
 -2       268       109       100       262       269       112       264       270       271       114
 -1        30    4    0    1
 -2       105       265       272       117       107       266       273       119       268       274
 -2       275       121       112       269       276       124       271       277       278       126
 -1        31    4    0    1
 -2         6       206       207         7       130       279       280       131       213       214
 -2       215        18       134       281       282       135       283       284       285       138
 -1        32    4    0    1
 -2         7       207       217        23       131       280       286       141       215       221
 -2       222        30       135       282       287       143       285       288       289       145
 -1        33    4    0    1
 -2        23       217       224        35       141       286       290       148       222       228
 -2       229        42       143       287       291       150       289       292       293       152
 -1        34    4    0    1
 -2        35       224       231        47       148       290       294       155       229       235
 -2       236        54       150       291       295       157       293       296       297       159
 -1        35    4    0    1
 -2        47       231       238        59       155       294       298       162       236       242
 -2       243        66       157       295       299       164       297       300       301       166
 -1        36    4    0    1
 -2        59       238       245        71       162       298       302       169       243       249
 -2       250        78       164       299       303       171       301       304       305       173
 -1        37    4    0    1
 -2        71       245       252        83       169       302       306       176       250       256
 -2       257        90       171       303       307       178       305       308       309       180
 -1        38    4    0    1
 -2        83       252       259        95       176       306       310       183       257       263
 -2       264       102       178       307       311       185       309       312       313       187
 -1        39    4    0    1
 -2        95       259       266       107       183       310       314       190       264       270
 -2       271       114       185       311       315       192       313       316       317       194
 -1        40    4    0    1
 -2       107       266       273       119       190       314       318       197       271       277
 -2       278       126       192       315       319       199       317       320       321       201
 -3
    1PSTEP                         1           1           1          
    1PGM                1.000000E+00                                  
    1PGK                2.768264E+07                                  
    1PHID                         -1                                  
    1PSUBC                         0                                  
    1PMODE                         1                                  
  100CL  101 837.3825237         321                     2    1MODAL      1
 -4  DISP        4    1
 -5  D1          1    2    1    0
 -5  D2          1    2    2    0
 -5  D3          1    2    3    0
 -5  ALL         1    2    0    0    1ALL
 -1         1 0.00000E+00 0.00000E+00 0.00000E+00
 -1         2 0.00000E+00 0.00000E+00 0.00000E+00
 -1         3 4.16355E-03-1.09715E-01-3.74889E-03
 -1         4-1.16672E-02-1.16151E-01 1.07650E-01
 -1         5 0.00000E+00 0.00000E+00 0.00000E+00
 -1         6 0.00000E+00 0.00000E+00 0.00000E+00
 -1         7 3.91501E-03-1.17347E-01 5.33766E-17
 -1         8 3.66038E-03-1.24797E-01 1.12368E-01
 -1         9 0.00000E+00 0.00000E+00 0.00000E+00
 -1        10 1.30677E-03-2.21020E-02-1.78127E-03
 -1        11-3.70244E-03-1.10282E-01 5.12982E-02
 -1        12-1.57461E-02-3.09949E-02 5.32350E-02
 -1        13 0.00000E+00 0.00000E+00 0.00000E+00
 -1        14 0.00000E+00 0.00000E+00 0.00000E+00
 -1        15 3.94763E-03-1.16077E-01-1.84748E-03
 -1        16-4.00312E-03-1.23002E-01 1.09928E-01
 -1        17 0.00000E+00 0.00000E+00 0.00000E+00
 -1        18 9.89048E-04-2.96454E-02 2.80808E-17
 -1        19 3.87263E-03-1.18325E-01 5.53757E-02
 -1        20 7.37378E-04-3.91689E-02 5.33911E-02
 -1        21 1.52734E-02-4.44224E-01-7.07494E-03
 -1        22 1.28444E-03-4.50428E-01 2.04751E-01
 -1        23 1.50476E-02-4.51033E-01 3.84783E-16
 -1        24 1.48205E-02-4.57800E-01 2.12062E-01
 -1        25 8.89370E-03-2.51419E-01-5.47379E-03
 -1        26 8.33699E-03-4.45772E-01 9.81031E-02
 -1        27-6.30214E-03-2.58610E-01 1.58287E-01
 -1        28 1.51096E-02-4.49207E-01-3.51892E-03
 -1        29 7.98673E-03-4.55703E-01 2.08611E-01
 -1        30 8.63774E-03-2.58905E-01 1.77457E-16
 -1        31 1.49867E-02-4.52890E-01 1.05475E-01
 -1        32 8.38799E-03-2.66577E-01 1.64070E-01
 -1        33 3.24794E-02-9.62332E-01-9.84125E-03
 -1        34 2.11123E-02-9.67554E-01 2.84859E-01
 -1        35 3.22924E-02-9.67923E-01 1.09916E-15
 -1        36 3.21059E-02-9.73528E-01 2.94979E-01
 -1        37 2.31865E-02-6.82528E-01-8.52310E-03
 -1        38 2.68400E-02-9.63503E-01 1.36864E-01
 -1        39 1.05205E-02-6.88358E-01 2.46672E-01
 -1        40 3.23376E-02-9.66562E-01-4.90286E-03
 -1        41 2.65647E-02-9.71970E-01 2.90077E-01
 -1        42 2.29791E-02-6.88768E-01 8.33518E-16
 -1        43 3.22470E-02-9.69278E-01 1.46957E-01
 -1        44 2.27709E-02-6.94985E-01 2.55469E-01
 -1        45 5.46547E-02-1.62946E+00-1.20563E-02
 -1        46 4.57687E-02-1.63354E+00 3.49060E-01
 -1        47 5.45090E-02-1.63384E+00 1.18395E-15
 -1        48 5.43631E-02-1.63820E+00 3.61373E-01
 -1        49 4.30145E-02-1.27934E+00-1.10137E-02
 -1        50 5.02476E-02-1.63042E+00 1.67863E-01
 -1        51 3.28966E-02-1.28400E+00 3.18839E-01
 -1        52 5.45459E-02-1.63273E+00-6.01081E-03
 -1        53 5.00287E-02-1.63696E+00 3.55373E-01
 -1        54 4.28482E-02-1.28432E+00 1.23339E-15
 -1        55 5.44722E-02-1.63494E+00 1.80166E-01
 -1        56 4.26821E-02-1.28930E+00 3.30120E-01
 -1        57 8.07112E-02-2.41276E+00-1.37395E-02
 -1        58 7.41696E-02-2.41578E+00 3.97845E-01