# vtk DataFile Version 3.0

ASCII
DATASET UNSTRUCTURED_GRID

POINTS 321 double
	 1.00000000E-02	 1.00000000E-02	 0.00000000E+00
	 1.00000000E-02	 5.00000000E-03	 0.00000000E+00
	 1.00000000E-02	 5.00000000E-03	 1.00000000E-02
	 1.00000000E-02	 1.00000000E-02	 1.00000000E-02
	 5.00000000E-03	 1.00000000E-02	 0.00000000E+00
	 5.00000000E-03	 5.00000000E-03	 0.00000000E+00
	 5.00000000E-03	 5.00000000E-03	 1.00000000E-02
	 5.00000000E-03	 1.00000000E-02	 1.00000000E-02
	 1.00000000E-02	 7.50000000E-03	 0.00000000E+00
	 1.00000000E-02	 5.00000000E-03	 5.00000000E-03
	 1.00000000E-02	 7.50000000E-03	 1.00000000E-02
	 1.00000000E-02	 1.00000000E-02	 5.00000000E-03
	 7.50000000E-03	 1.00000000E-02	 0.00000000E+00
	 7.50000000E-03	 5.00000000E-03	 0.00000000E+00
	 7.50000000E-03	 5.00000000E-03	 1.00000000E-02
	 7.50000000E-03	 1.00000000E-02	 1.00000000E-02
	 5.00000000E-03	 7.50000000E-03	 0.00000000E+00
	 5.00000000E-03	 5.00000000E-03	 5.00000000E-03
	 5.00000000E-03	 7.50000000E-03	 1.00000000E-02
	 5.00000000E-03	 1.00000000E-02	 5.00000000E-03
	 1.00000000E-02	 5.00000000E-03	 2.00000000E-02
	 1.00000000E-02	 1.00000000E-02	 2.00000000E-02
	 5.00000000E-03	 5.00000000E-03	 2.00000000E-02
	 5.00000000E-03	 1.00000000E-02	 2.00000000E-02
	 1.00000000E-02	 5.00000000E-03	 1.50000000E-02
	 1.00000000E-02	 7.50000000E-03	 2.00000000E-02
	 1.00000000E-02	 1.00000000E-02	 1.50000000E-02
	 7.50000000E-03	 5.00000000E-03	 2.00000000E-02
	 7.50000000E-03	 1.00000000E-02	 2.00000000E-02
	 5.00000000E-03	 5.00000000E-03	 1.50000000E-02
	 5.00000000E-03	 7.50000000E-03	 2.00000000E-02
	 5.00000000E-03	 1.00000000E-02	 1.50000000E-02
	 1.00000000E-02	 5.00000000E-03	 3.00000000E-02
	 1.00000000E-02	 1.00000000E-02	 3.00000000E-02
	 5.00000000E-03	 5.00000000E-03	 3.00000000E-02
	 5.00000000E-03	 1.00000000E-02	 3.00000000E-02
	 1.00000000E-02	 5.00000000E-03	 2.50000000E-02
	 1.00000000E-02	 7.50000000E-03	 3.00000000E-02
	 1.00000000E-02	 1.00000000E-02	 2.50000000E-02
	 7.50000000E-03	 5.00000000E-03	 3.00000000E-02
	 7.50000000E-03	 1.00000000E-02	 3.00000000E-02
	 5.00000000E-03	 5.00000000E-03	 2.50000000E-02
	 5.00000000E-03	 7.50000000E-03	 3.00000000E-02
	 5.00000000E-03	 1.00000000E-02	 2.50000000E-02
	 1.00000000E-02	 5.00000000E-03	 4.00000000E-02
	 1.00000000E-02	 1.00000000E-02	 4.00000000E-02
	 5.00000000E-03	 5.00000000E-03	 4.00000000E-02
	 5.00000000E-03	 1.00000000E-02	 4.00000000E-02
	 1.00000000E-02	 5.00000000E-03	 3.50000000E-02
	 1.00000000E-02	 7.50000000E-03	 4.00000000E-02
	 1.00000000E-02	 1.00000000E-02	 3.50000000E-02
	 7.50000000E-03	 5.00000000E-03	 4.00000000E-02
	 7.50000000E-03	 1.00000000E-02	 4.00000000E-02
	 5.00000000E-03	 5.00000000E-03	 3.50000000E-02
	 5.00000000E-03	 7.50000000E-03	 4.00000000E-02
	 5.00000000E-03	 1.00000000E-02	 3.50000000E-02
	 1.00000000E-02	 5.00000000E-03	 5.00000000E-02
	 1.00000000E-02	 1.00000000E-02	 5.00000000E-02
	 5.00000000E-03	 5.00000000E-03	 5.00000000E-02
	 5.00000000E-03	 1.00000000E-02	 5.00000000E-02
	 1.00000000E-02	 5.00000000E-03	 4.50000000E-02
	 1.00000000E-02	 7.50000000E-03	 5.00000000E-02
	 1.00000000E-02	 1.00000000E-02	 4.50000000E-02
	 7.50000000E-03	 5.00000000E-03	 5.00000000E-02
	 7.50000000E-03	 1.00000000E-02	 5.00000000E-02
	 5.00000000E-03	 5.00000000E-03	 4.50000000E-02
	 5.00000000E-03	 7.50000000E-03	 5.00000000E-02
	 5.00000000E-03	 1.00000000E-02	 4.50000000E-02
	 1.00000000E-02	 5.00000000E-03	 6.00000000E-02
	 1.00000000E-02	 1.00000000E-02	 6.00000000E-02
	 5.00000000E-03	 5.00000000E-03	 6.00000000E-02
	 5.00000000E-03	 1.00000000E-02	 6.00000000E-02
	 1.00000000E-02	 5.00000000E-03	 5.50000000E-02
	 1.00000000E-02	 7.50000000E-03	 6.00000000E-02
	 1.00000000E-02	 1.00000000E-02	 5.50000000E-02
	 7.50000000E-03	 5.00000000E-03	 6.00000000E-02
	 7.50000000E-03	 1.00000000E-02	 6.00000000E-02
	 5.00000000E-03	 5.00000000E-03	 5.50000000E-02
	 5.00000000E-03	 7.50000000E-03	 6.00000000E-02
	 5.00000000E-03	 1.00000000E-02	 5.50000000E-02
	 1.00000000E-02	 5.00000000E-03	 7.00000000E-02
	 1.00000000E-02	 1.00000000E-02	 7.00000000E-02
	 5.00000000E-03	 5.00000000E-03	 7.00000000E-02
	 5.00000000E-03	 1.00000000E-02	 7.00000000E-02
	 1.00000000E-02	 5.00000000E-03	 6.50000000E-02
	 1.00000000E-02	 7.50000000E-03	 7.00000000E-02
	 1.00000000E-02	 1.00000000E-02	 6.50000000E-02
	 7.50000000E-03	 5.00000000E-03	 7.00000000E-02
	 7.50000000E-03	 1.00000000E-02	 7.00000000E-02
	 5.00000000E-03	 5.00000000E-03	 6.50000000E-02
	 5.00000000E-03	 7.50000000E-03	 7.00000000E-02
	 5.00000000E-03	 1.00000000E-02	 6.50000000E-02
	 1.00000000E-02	 5.00000000E-03	 8.00000000E-02
	 1.00000000E-02	 1.00000000E-02	 8.00000000E-02
	 5.00000000E-03	 5.00000000E-03	 8.00000000E-02
	 5.00000000E-03	 1.00000000E-02	 8.00000000E-02
	 1.00000000E-02	 5.00000000E-03	 7.50000000E-02
	 1.00000000E-02	 7.50000000E-03	 8.00000000E-02
	 1.00000000E-02	 1.00000000E-02	 7.50000000E-02
	 7.50000000E-03	 5.00000000E-03	 8.00000000E-02
	 7.50000000E-03	 1.00000000E-02	 8.00000000E-02
	 5.00000000E-03	 5.00000000E-03	 7.50000000E-02
	 5.00000000E-03	 7.50000000E-03	 8.00000000E-02
	 5.00000000E-03	 1.00000000E-02	 7.50000000E-02
	 1.00000000E-02	 5.00000000E-03	 9.00000000E-02
	 1.00000000E-02	 1.00000000E-02	 9.00000000E-02
	 5.00000000E-03	 5.00000000E-03	 9.00000000E-02
	 5.00000000E-03	 1.00000000E-02	 9.00000000E-02
	 1.00000000E-02	 5.00000000E-03	 8.50000000E-02
	 1.00000000E-02	 7.50000000E-03	 9.00000000E-02
	 1.00000000E-02	 1.00000000E-02	 8.50000000E-02
	 7.50000000E-03	 5.00000000E-03	 9.00000000E-02
	 7.50000000E-03	 1.00000000E-02	 9.00000000E-02
	 5.00000000E-03	 5.00000000E-03	 8.50000000E-02
	 5.00000000E-03	 7.50000000E-03	 9.00000000E-02
	 5.00000000E-03	 1.00000000E-02	 8.50000000E-02
	 1.00000000E-02	 5.00000000E-03	 1.00000000E-01
	 1.00000000E-02	 1.00000000E-02	 1.00000000E-01
	 5.00000000E-03	 5.00000000E-03	 1.00000000E-01
	 5.00000000E-03	 1.00000000E-02	 1.00000000E-01
	 1.00000000E-02	 5.00000000E-03	 9.50000000E-02
	 1.00000000E-02	 7.50000000E-03	 1.00000000E-01
	 1.00000000E-02	 1.00000000E-02	 9.50000000E-02
	 7.50000000E-03	 5.00000000E-03	 1.00000000E-01
	 7.50000000E-03	 1.00000000E-02	 1.00000000E-01
	 5.00000000E-03	 5.00000000E-03	 9.50000000E-02
	 5.00000000E-03	 7.50000000E-03	 1.00000000E-01
	 5.00000000E-03	 1.00000000E-02	 9.50000000E-02
	 0.00000000E+00	 1.00000000E-02	 0.00000000E+00
	 0.00000000E+00	 5.00000000E-03	 0.00000000E+00
	 0.00000000E+00	 5.00000000E-03	 1.00000000E-02
	 0.00000000E+00	 1.00000000E-02	 1.00000000E-02
	 2.50000000E-03	 1.00000000E-02	 0.00000000E+00
	 2.50000000E-03	 5.00000000E-03	 0.00000000E+00
	 2.50000000E-03	 5.00000000E-03	 1.00000000E-02
	 2.50000000E-03	 1.00000000E-02	 1.00000000E-02
	 0.00000000E+00	 7.50000000E-03	 0.00000000E+00
	 0.00000000E+00	 5.00000000E-03	 5.00000000E-03
	 0.00000000E+00	 7.50000000E-03	 1.00000000E-02
	 0.00000000E+00	 1.00000000E-02	 5.00000000E-03
	 0.00000000E+00	 5.00000000E-03	 2.00000000E-02
	 0.00000000E+00	 1.00000000E-02	 2.00000000E-02
	 2.50000000E-03	 5.00000000E-03	 2.00000000E-02
	 2.50000000E-03	 1.00000000E-02	 2.00000000E-02
	 0.00000000E+00	 5.00000000E-03	 1.50000000E-02
	 0.00000000E+00	 7.50000000E-03	 2.00000000E-02
	 0.00000000E+00	 1.00000000E-02	 1.50000000E-02
	 0.00000000E+00	 5.00000000E-03	 3.00000000E-02
	 0.00000000E+00	 1.00000000E-02	 3.00000000E-02
	 2.50000000E-03	 5.00000000E-03	 3.00000000E-02
	 2.50000000E-03	 1.00000000E-02	 3.00000000E-02
	 0.00000000E+00	 5.00000000E-03	 2.50000000E-02
	 0.00000000E+00	 7.50000000E-03	 3.00000000E-02
	 0.00000000E+00	 1.00000000E-02	 2.50000000E-02
	 0.00000000E+00	 5.00000000E-03	 4.00000000E-02
	 0.00000000E+00	 1.00000000E-02	 4.00000000E-02
	 2.50000000E-03	 5.00000000E-03	 4.00000000E-02
	 2.50000000E-03	 1.00000000E-02	 4.00000000E-02
	 0.00000000E+00	 5.00000000E-03	 3.50000000E-02
	 0.00000000E+00	 7.50000000E-03	 4.00000000E-02
	 0.00000000E+00	 1.00000000E-02	 3.50000000E-02
	 0.00000000E+00	 5.00000000E-03	 5.00000000E-02
	 0.00000000E+00	 1.00000000E-02	 5.00000000E-02
	 2.50000000E-03	 5.00000000E-03	 5.00000000E-02
	 2.50000000E-03	 1.00000000E-02	 5.00000000E-02
	 0.00000000E+00	 5.00000000E-03	 4.50000000E-02
	 0.00000000E+00	 7.50000000E-03	 5.00000000E-02
	 0.00000000E+00	 1.00000000E-02	 4.50000000E-02
	 0.00000000E+00	 5.00000000E-03	 6.00000000E-02
	 0.00000000E+00	 1.00000000E-02	 6.00000000E-02
	 2.50000000E-03	 5.00000000E-03	 6.00000000E-02
	 2.50000000E-03	 1.00000000E-02	 6.00000000E-02
	 0.00000000E+00	 5.00000000E-03	 5.50000000E-02
	 0.00000000E+00	 7.50000000E-03	 6.00000000E-02
	 0.00000000E+00	 1.00000000E-02	 5.50000000E-02
	 0.00000000E+00	 5.00000000E-03	 7.00000000E-02
	 0.00000000E+00	 1.00000000E-02	 7.00000000E-02
	 2.50000000E-03	 5.00000000E-03	 7.00000000E-02
	 2.50000000E-03	 1.00000000E-02	 7.00000000E-02
	 0.00000000E+00	 5.00000000E-03	 6.50000000E-02
	 0.00000000E+00	 7.50000000E-03	 7.00000000E-02
	 0.00000000E+00	 1.00000000E-02	 6.50000000E-02
	 0.00000000E+00	 5.00000000E-03	 8.00000000E-02
	 0.00000000E+00	 1.00000000E-02	 8.00000000E-02
	 2.50000000E-03	 5.00000000E-03	 8.00000000E-02
	 2.50000000E-03	 1.00000000E-02	 8.00000000E-02
	 0.00000000E+00	 5.00000000E-03	 7.50000000E-02
	 0.00000000E+00	 7.50000000E-03	 8.00000000E-02
	 0.00000000E+00	 1.00000000E-02	 7.50000000E-02
	 0.00000000E+00	 5.00000000E-03	 9.00000000E-02
	 0.00000000E+00	 1.00000000E-02	 9.00000000E-02
	 2.50000000E-03	 5.00000000E-03	 9.00000000E-02
	 2.50000000E-03	 1.00000000E-02	 9.00000000E-02
	 0.00000000E+00	 5.00000000E-03	 8.50000000E-02
	 0.00000000E+00	 7.50000000E-03	 9.00000000E-02
	 0.00000000E+00	 1.00000000E-02	 8.50000000E-02
	 0.00000000E+00	 5.00000000E-03	 1.00000000E-01
	 0.00000000E+00	 1.00000000E-02	 1.00000000E-01
	 2.50000000E-03	 5.00000000E-03	 1.00000000E-01
	 2.50000000E-03	 1.00000000E-02	 1.00000000E-01
	 0.00000000E+00	 5.00000000E-03	 9.50000000E-02
	 0.00000000E+00	 7.50000000E-03	 1.00000000E-01
	 0.00000000E+00	 1.00000000E-02	 9.50000000E-02
	 1.00000000E-02	 0.00000000E+00	 0.00000000E+00
	 1.00000000E-02	 0.00000000E+00	 1.00000000E-02
	 5.00000000E-03	 0.00000000E+00	 0.00000000E+00
	 5.00000000E-03	 0.00000000E+00	 1.00000000E-02
	 1.00000000E-02	 2.50000000E-03	 0.00000000E+00
	 1.00000000E-02	 0.00000000E+00	 5.00000000E-03
	 1.00000000E-02	 2.50000000E-03	 1.00000000E-02
	 7.50000000E-03	 0.00000000E+00	 0.00000000E+00
	 7.50000000E-03	 0.00000000E+00	 1.00000000E-02
	 5.00000000E-03	 2.50000000E-03	 0.00000000E+00
	 5.00000000E-03	 0.00000000E+00	 5.00000000E-03
	 5.00000000E-03	 2.50000000E-03	 1.00000000E-02
	 1.00000000E-02	 0.00000000E+00	 2.00000000E-02
	 5.00000000E-03	 0.00000000E+00	 2.00000000E-02
	 1.00000000E-02	 0.00000000E+00	 1.50000000E-02
	 1.00000000E-02	 2.50000000E-03	 2.00000000E-02
	 7.50000000E-03	 0.00000000E+00	 2.00000000E-02
	 5.00000000E-03	 0.00000000E+00	 1.50000000E-02
	 5.00000000E-03	 2.50000000E-03	 2.00000000E-02
	 1.00000000E-02	 0.00000000E+00	 3.00000000E-02
	 5.00000000E-03	 0.00000000E+00	 3.00000000E-02
	 1.00000000E-02	 0.00000000E+00	 2.50000000E-02
	 1.00000000E-02	 2.50000000E-03	 3.00000000E-02
	 7.50000000E-03	 0.00000000E+00	 3.00000000E-02
	 5.00000000E-03	 0.00000000E+00	 2.50000000E-02
	 5.00000000E-03	 2.50000000E-03	 3.00000000E-02
	 1.00000000E-02	 0.00000000E+00	 4.00000000E-02
	 5.00000000E-03	 0.00000000E+00	 4.00000000E-02
	 1.00000000E-02	 0.00000000E+00	 3.50000000E-02
	 1.00000000E-02	 2.50000000E-03	 4.00000000E-02
	 7.50000000E-03	 0.00000000E+00	 4.00000000E-02
	 5.00000000E-03	 0.00000000E+00	 3.50000000E-02
	 5.00000000E-03	 2.50000000E-03	 4.00000000E-02
	 1.00000000E-02	 0.00000000E+00	 5.00000000E-02
	 5.00000000E-03	 0.00000000E+00	 5.00000000E-02
	 1.00000000E-02	 0.00000000E+00	 4.50000000E-02
	 1.00000000E-02	 2.50000000E-03	 5.00000000E-02
	 7.50000000E-03	 0.00000000E+00	 5.00000000E-02
	 5.00000000E-03	 0.00000000E+00	 4.50000000E-02
	 5.00000000E-03	 2.50000000E-03	 5.00000000E-02
	 1.00000000E-02	 0.00000000E+00	 6.00000000E-02
	 5.00000000E-03	 0.00000000E+00	 6.00000000E-02
	 1.00000000E-02	 0.00000000E+00	 5.50000000E-02
	 1.00000000E-02	 2.50000000E-03	 6.00000000E-02
	 7.50000000E-03	 0.00000000E+00	 6.00000000E-02
	 5.00000000E-03	 0.00000000E+00	 5.50000000E-02
	 5.00000000E-03	 2.50000000E-03	 6.00000000E-02
	 1.00000000E-02	 0.00000000E+00	 7.00000000E-02
	 5.00000000E-03	 0.00000000E+00	 7.00000000E-02
	 1.00000000E-02	 0.00000000E+00	 6.50000000E-02
	 1.00000000E-02	 2.50000000E-03	 7.00000000E-02
	 7.50000000E-03	 0.00000000E+00	 7.00000000E-02
	 5.00000000E-03	 0.00000000E+00	 6.50000000E-02
	 5.00000000E-03	 2.50000000E-03	 7.00000000E-02
	 1.00000000E-02	 0.00000000E+00	 8.00000000E-02
	 5.00000000E-03	 0.00000000E+00	 8.00000000E-02
	 1.00000000E-02	 0.00000000E+00	 7.50000000E-02
	 1.00000000E-02	 2.50000000E-03	 8.00000000E-02
	 7.50000000E-03	 0.00000000E+00	 8.00000000E-02
	 5.00000000E-03	 0.00000000E+00	 7.50000000E-02
	 5.00000000E-03	 2.50000000E-03	 8.00000000E-02
	 1.00000000E-02	 0.00000000E+00	 9.00000000E-02
	 5.00000000E-03	 0.00000000E+00	 9.00000000E-02
	 1.00000000E-02	 0.00000000E+00	 8.50000000E-02
	 1.00000000E-02	 2.50000000E-03	 9.00000000E-02
	 7.50000000E-03	 0.00000000E+00	 9.00000000E-02
	 5.00000000E-03	 0.00000000E+00	 8.50000000E-02
	 5.00000000E-03	 2.50000000E-03	 9.00000000E-02
	 1.00000000E-02	 0.00000000E+00	 1.00000000E-01
	 5.00000000E-03	 0.00000000E+00	 1.00000000E-01
	 1.00000000E-02	 0.00000000E+00	 9.50000000E-02
	 1.00000000E-02	 2.50000000E-03	 1.00000000E-01
	 7.50000000E-03	 0.00000000E+00	 1.00000000E-01
	 5.00000000E-03	 0.00000000E+00	 9.50000000E-02
	 5.00000000E-03	 2.50000000E-03	 1.00000000E-01
	 0.00000000E+00	 0.00000000E+00	 0.00000000E+00
	 0.00000000E+00	 0.00000000E+00	 1.00000000E-02
	 2.50000000E-03	 0.00000000E+00	 0.00000000E+00
	 2.50000000E-03	 0.00000000E+00	 1.00000000E-02
	 0.00000000E+00	 2.50000000E-03	 0.00000000E+00
	 0.00000000E+00	 0.00000000E+00	 5.00000000E-03
	 0.00000000E+00	 2.50000000E-03	 1.00000000E-02
	 0.00000000E+00	 0.00000000E+00	 2.00000000E-02
	 2.50000000E-03	 0.00000000E+00	 2.00000000E-02
	 0.00000000E+00	 0.00000000E+00	 1.50000000E-02
	 0.00000000E+00	 2.50000000E-03	 2.00000000E-02
	 0.00000000E+00	 0.00000000E+00	 3.00000000E-02
	 2.50000000E-03	 0.00000000E+00	 3.00000000E-02
	 0.00000000E+00	 0.00000000E+00	 2.50000000E-02
	 0.00000000E+00	 2.50000000E-03	 3.00000000E-02
	 0.00000000E+00	 0.00000000E+00	 4.00000000E-02
	 2.50000000E-03	 0.00000000E+00	 4.00000000E-02
	 0.00000000E+00	 0.00000000E+00	 3.50000000E-02
	 0.00000000E+00	 2.50000000E-03	 4.00000000E-02
	 0.00000000E+00	 0.00000000E+00	 5.00000000E-02
	 2.50000000E-03	 0.00000000E+00	 5.00000000E-02
	 0.00000000E+00	 0.00000000E+00	 4.50000000E-02
	 0.00000000E+00	 2.50000000E-03	 5.00000000E-02
	 0.00000000E+00	 0.00000000E+00	 6.00000000E-02
	 2.50000000E-03	 0.00000000E+00	 6.00000000E-02
	 0.00000000E+00	 0.00000000E+00	 5.50000000E-02
	 0.00000000E+00	 2.50000000E-03	 6.00000000E-02
	 0.00000000E+00	 0.00000000E+00	 7.00000000E-02
	 2.50000000E-03	 0.00000000E+00	 7.00000000E-02
	 0.00000000E+00	 0.00000000E+00	 6.50000000E-02
	 0.00000000E+00	 2.50000000E-03	 7.00000000E-02
	 0.00000000E+00	 0.00000000E+00	 8.00000000E-02
	 2.50000000E-03	 0.00000000E+00	 8.00000000E-02
	 0.00000000E+00	 0.00000000E+00	 7.50000000E-02
	 0.00000000E+00	 2.50000000E-03	 8.00000000E-02
	 0.00000000E+00	 0.00000000E+00	 9.00000000E-02
	 2.50000000E-03	 0.00000000E+00	 9.00000000E-02
	 0.00000000E+00	 0.00000000E+00	 8.50000000E-02
	 0.00000000E+00	 2.50000000E-03	 9.00000000E-02
	 0.00000000E+00	 0.00000000E+00	 1.00000000E-01
	 2.50000000E-03	 0.00000000E+00	 1.00000000E-01
	 0.00000000E+00	 0.00000000E+00	 9.50000000E-02
	 0.00000000E+00	 2.50000000E-03	 1.00000000E-01

CELLS 40 840
	20 0 1 2 3 4 5 6 7 8 9 10 11 16 17 18 19 12 13 14 15 
	20 3 2 20 21 7 6 22 23 10 24 25 26 18 29 30 31 15 14 27 28 
	20 21 20 32 33 23 22 34 35 25 36 37 38 30 41 42 43 28 27 39 40 
	20 33 32 44 45 35 34 46 47 37 48 49 50 42 53 54 55 40 39 51 52 
	20 45 44 56 57 47 46 58 59 49 60 61 62 54 65 66 67 52 51 63 64 
	20 57 56 68 69 59 58 70 71 61 72 73 74 66 77 78 79 64 63 75 76 
	20 69 68 80 81 71 70 82 83 73 84 85 86 78 89 90 91 76 75 87 88 
	20 81 80 92 93 83 82 94 95 85 96 97 98 90 101 102 103 88 87 99 100 
	20 93 92 104 105 95 94 106 107 97 108 109 110 102 113 114 115 100 99 111 112 
	20 105 104 116 117 107 106 118 119 109 120 121 122 114 125 126 127 112 111 123 124 
	20 4 5 6 7 128 129 130 131 16 17 18 19 136 137 138 139 132 133 134 135 
	20 7 6 22 23 131 130 140 141 18 29 30 31 138 144 145 146 135 134 142 143 
	20 23 22 34 35 141 140 147 148 30 41 42 43 145 151 152 153 143 142 149 150 
	20 35 34 46 47 148 147 154 155 42 53 54 55 152 158 159 160 150 149 156 157 
	20 47 46 58 59 155 154 161 162 54 65 66 67 159 165 166 167 157 156 163 164 
	20 59 58 70 71 162 161 168 169 66 77 78 79 166 172 173 174 164 163 170 171 
	20 71 70 82 83 169 168 175 176 78 89 90 91 173 179 180 181 171 170 177 178 
	20 83 82 94 95 176 175 182 183 90 101 102 103 180 186 187 188 178 177 184 185 
	20 95 94 106 107 183 182 189 190 102 113 114 115 187 193 194 195 185 184 191 192 
	20 107 106 118 119 190 189 196 197 114 125 126 127 194 200 201 202 192 191 198 199 
	20 1 203 204 2 5 205 206 6 207 208 209 9 212 213 214 17 13 210 211 14 
	20 2 204 215 20 6 206 216 22 209 217 218 24 214 220 221 29 14 211 219 27 
	20 20 215 222 32 22 216 223 34 218 224 225 36 221 227 228 41 27 219 226 39 
	20 32 222 229 44 34 223 230 46 225 231 232 48 228 234 235 53 39 226 233 51 
	20 44 229 236 56 46 230 237 58 232 238 239 60 235 241 242 65 51 233 240 63 
	20 56 236 243 68 58 237 244 70 239 245 246 72 242 248 249 77 63 240 247 75 
	20 68 243 250 80 70 244 251 82 246 252 253 84 249 255 256 89 75 247 254 87 
	20 80 250 257 92 82 251 258 94 253 259 260 96 256 262 263 101 87 254 261 99 
	20 92 257 264 104 94 258 265 106 260 266 267 108 263 269 270 113 99 261 268 111 
	20 104 264 271 116 106 265 272 118 267 273 274 120 270 276 277 125 111 268 275 123 
	20 5 205 206 6 129 278 279 130 212 213 214 17 282 283 284 137 133 280 281 134 
	20 6 206 216 22 130 279 285 140 214 220 221 29 284 287 288 144 134 281 286 142 
	20 22 216 223 34 140 285 289 147 221 227 228 41 288 291 292 151 142 286 290 149 
	20 34 223 230 46 147 289 293 154 228 234 235 53 292 295 296 158 149 290 294 156 
	20 46 230 237 58 154 293 297 161 235 241 242 65 296 299 300 165 156 294 298 163 
	20 58 237 244 70 161 297 301 168 242 248 249 77 300 303 304 172 163 298 302 170 
	20 70 244 251 82 168 301 305 175 249 255 256 89 304 307 308 179 170 302 306 177 
	20 82 251 258 94 175 305 309 182 256 262 263 101 308 311 312 186 177 306 310 184 
	20 94 258 265 106 182 309 313 189 263 269 270 113 312 315 316 193 184 310 314 191 
	20 106 265 272 118 189 313 317 196 270 276 277 125 316 319 320 200 191 314 318 198 

CELL_TYPES 40
	25
	25
	25
	25
	25
	25
	25
	25
	25
	25
	25
	25
	25
	25
	25
	25
	25
	25
	25
	25
	25
	25
	25
	25
	25
	25
	25
	25
	25
	25
	25
	25
	25
	25
	25
	25
	25
	25
	25
	25

POINT_DATA 321
FIELD U 1
	U 3 321 double
		 0.00000000E+00	 0.00000000E+00	 0.00000000E+00
		 0.00000000E+00	 0.00000000E+00	 0.00000000E+00
		-1.17462000E-01	-4.15223000E-13	 7.60941000E-01
		-1.13728000E-01	-1.13728000E-01	 7.56804000E-01
		 0.00000000E+00	 0.00000000E+00	 0.00000000E+00
		 0.00000000E+00	 0.00000000E+00	 0.00000000E+00
		 1.02318000E-12	-4.30767000E-13	 7.65310000E-01
		 1.00142000E-12	-1.17462000E-01	 7.60941000E-01
		 0.00000000E+00	 0.00000000E+00	 0.00000000E+00
		-1.18177000E-01	-1.33560000E-13	 3.56734000E-01
		-1.15363000E-01	-5.72392000E-02	 7.57064000E-01
		-1.18014000E-01	-1.18014000E-01	 3.77030000E-01
		 0.00000000E+00	 0.00000000E+00	 0.00000000E+00
		 0.00000000E+00	 0.00000000E+00	 0.00000000E+00
		-5.87254000E-02	-4.28546000E-13	 7.61338000E-01
		-5.72392000E-02	-1.15363000E-01	 7.57064000E-01
		 0.00000000E+00	 0.00000000E+00	 0.00000000E+00
		 3.59601000E-13	-1.53599000E-13	 3.35882000E-01
		 1.01918000E-12	-5.87254000E-02	 7.61338000E-01
		 3.20188000E-13	-1.18177000E-01	 3.56734000E-01
		-1.14576000E-01	-1.01652000E-12	 1.53349000E+00
		-1.14035000E-01	-1.14035000E-01	 1.53152000E+00
		 2.44293000E-12	-1.01874000E-12	 1.53487000E+00
		 2.45359000E-12	-1.14576000E-01	 1.53349000E+00
		-1.16432000E-01	-7.37188000E-13	 1.14997000E+00
		-1.14416000E-01	-5.69083000E-02	 1.53326000E+00
		-1.16943000E-01	-1.16943000E-01	 1.14884000E+00
		-5.72853000E-02	-1.01386000E-12	 1.53495000E+00
		-5.69083000E-02	-1.14416000E-01	 1.53326000E+00
		 1.77769000E-12	-7.42517000E-13	 1.15144000E+00
		 2.44027000E-12	-5.72853000E-02	 1.53495000E+00
		 1.77280000E-12	-1.16432000E-01	 1.14997000E+00
		-1.07259000E-01	-1.21525000E-12	 2.27231000E+00
		-1.07199000E-01	-1.07199000E-01	 2.27022000E+00
		 2.94564000E-12	-1.22147000E-12	 2.27435000E+00
		 2.96563000E-12	-1.07259000E-01	 2.27231000E+00
		-1.10842000E-01	-1.18527000E-12	 1.90872000E+00
		-1.07198000E-01	-5.36885000E-02	 2.27170000E+00
		-1.10909000E-01	-1.10909000E-01	 1.90706000E+00
		-5.36917000E-02	-1.21500000E-12	 2.27377000E+00
		-5.36885000E-02	-1.07198000E-01	 2.27170000E+00
		 2.86171000E-12	-1.18905000E-12	 1.91057000E+00
		 2.94476000E-12	-5.36917000E-02	 2.27377000E+00
		 2.87903000E-12	-1.10842000E-01	 1.90872000E+00
		-9.73959000E-02	-8.18234000E-13	 2.95403000E+00
		-9.74106000E-02	-9.74106000E-02	 2.95124000E+00
		 2.01195000E-12	-8.25118000E-13	 2.95680000E+00
		 2.01245000E-12	-9.73959000E-02	 2.95403000E+00
		-1.02492000E-01	-1.08469000E-12	 2.62132000E+00
		-9.74206000E-02	-4.87379000E-02	 2.95335000E+00
		-1.02502000E-01	-1.02502000E-01	 2.61885000E+00
		-4.87421000E-02	-8.22009000E-13	 2.95613000E+00
		-4.87379000E-02	-9.74206000E-02	 2.95335000E+00
		 2.65366000E-12	-1.09601000E-12	 2.62378000E+00
		 2.00340000E-12	-4.87421000E-02	 2.95613000E+00
		 2.66642000E-12	-1.02492000E-01	 2.62132000E+00
		-8.51775000E-02	 3.33067000E-16	 3.56250000E+00
		-8.51859000E-02	-8.51859000E-02	 3.55917000E+00
		 6.83897000E-14	-2.42029000E-14	 3.56583000E+00
		 4.59632000E-14	-8.51775000E-02	 3.56250000E+00
		-9.14245000E-02	-4.31821000E-13	 3.26844000E+00
		-8.51830000E-02	-4.26344000E-02	 3.56167000E+00
		-9.14380000E-02	-9.14380000E-02	 3.26538000E+00
		-4.26298000E-02	-1.19904000E-14	 3.56500000E+00
		-4.26344000E-02	-8.51830000E-02	 3.56167000E+00
		 1.10512000E-12	-4.45199000E-13	 3.27150000E+00
		 5.58720000E-14	-4.26298000E-02	 3.56500000E+00
		 1.10151000E-12	-9.14245000E-02	 3.26844000E+00
		-7.08277000E-02	 7.83956000E-13	 4.08238000E+00
		-7.08372000E-02	-7.08372000E-02	 4.07855000E+00
		-1.78546000E-12	 7.48068000E-13	 4.08620000E+00
		-1.84253000E-12	-7.08277000E-02	 4.08238000E+00
		-7.81257000E-02	 4.30100000E-13	 3.83438000E+00
		-7.08376000E-02	-3.54496000E-02	 4.08142000E+00
		-7.81349000E-02	-7.81349000E-02	 3.83078000E+00
		-3.54475000E-02	 7.73048000E-13	 4.08524000E+00
		-3.54496000E-02	-7.08376000E-02	 4.08142000E+00
		-9.49296000E-13	 3.93463000E-13	 3.83797000E+00
		-1.79989000E-12	-3.54475000E-02	 4.08524000E+00
		-9.87432000E-13	-7.81257000E-02	 3.83438000E+00
		-5.47223000E-02	 1.07248000E-12	 4.50078000E+00
		-5.47289000E-02	-5.47289000E-02	 4.49656000E+00
		-2.47624000E-12	 1.05116000E-12	 4.50499000E+00
		-2.53531000E-12	-5.47223000E-02	 4.50078000E+00
		-6.28730000E-02	 1.00897000E-12	 4.30498000E+00
		-5.47284000E-02	-2.73893000E-02	 4.49972000E+00
		-6.28811000E-02	-6.28811000E-02	 4.30095000E+00
		-2.73872000E-02	 1.06271000E-12	 4.50394000E+00
		-2.73893000E-02	-5.47284000E-02	 4.49972000E+00
		-2.32436000E-12	 9.80438000E-13	 4.30901000E+00
		-2.48690000E-12	-2.73872000E-02	 4.50394000E+00
		-2.37499000E-12	-6.28730000E-02	 4.30498000E+00
		-3.72549000E-02	 6.27942000E-13	 4.80729000E+00
		-3.72597000E-02	-3.72597000E-02	 4.80279000E+00
		-1.48015000E-12	 6.17728000E-13	 4.81179000E+00
		-1.50924000E-12	-3.72549000E-02	 4.80729000E+00
		-4.60606000E-02	 9.51239000E-13	 4.66857000E+00
		-3.72596000E-02	-1.86466000E-02	 4.80617000E+00
		-4.60664000E-02	-4.60664000E-02	 4.66419000E+00
		-1.86452000E-02	 6.03961000E-13	 4.81067000E+00
		-1.86466000E-02	-3.72596000E-02	 4.80617000E+00
		-2.18714000E-12	 9.34364000E-13	 4.67294000E+00
		-1.48193000E-12	-1.86452000E-02	 4.81067000E+00
		-2.22578000E-12	-4.60606000E-02	 4.66857000E+00
		-1.88622000E-02	-3.99680000E-13	 4.99430000E+00
		-1.88647000E-02	-1.88647000E-02	 4.98963000E+00
		 8.76021000E-13	-3.82805000E-13	 4.99897000E+00
		 8.88845000E-13	-1.88622000E-02	 4.99430000E+00
		-2.81025000E-02	 1.55154000E-13	 4.91610000E+00
		-1.88644000E-02	-9.44086000E-03	 4.99313000E+00
		-2.81059000E-02	-2.81059000E-02	 4.91150000E+00
		-9.44002000E-03	-3.56382000E-13	 4.99781000E+00
		-9.44086000E-03	-1.88644000E-02	 4.99313000E+00
		-4.27214000E-13	 1.73639000E-13	 4.92071000E+00
		 8.82072000E-13	-9.44002000E-03	 4.99781000E+00
		-4.24660000E-13	-2.81025000E-02	 4.91610000E+00
		-7.17124000E-06	-1.56231000E-12	 5.05716000E+00
		-9.50876000E-06	-9.50877000E-06	 5.05243000E+00
		 3.66729000E-12	-1.55831000E-12	 5.06189000E+00
		 3.68416000E-12	-7.17125000E-06	 5.05716000E+00
		-9.44516000E-03	-9.92095000E-13	 5.04143000E+00
		-8.72384000E-06	-4.40283000E-06	 5.05598000E+00
		-9.44658000E-03	-9.44658000E-03	 5.03671000E+00
		-3.60641000E-06	-1.58362000E-12	 5.06071000E+00
		-4.40283000E-06	-8.72385000E-06	 5.05598000E+00
		 2.26441000E-12	-9.50795000E-13	 5.04615000E+00
		 3.67262000E-12	-3.60641000E-06	 5.06071000E+00
		 2.28173000E-12	-9.44516000E-03	 5.04143000E+00
		 0.00000000E+00	 0.00000000E+00	 0.00000000E+00
		 0.00000000E+00	 0.00000000E+00	 0.00000000E+00
		 1.17462000E-01	-4.33209000E-13	 7.60941000E-01
		 1.13728000E-01	-1.13728000E-01	 7.56804000E-01
		 0.00000000E+00	 0.00000000E+00	 0.00000000E+00
		 0.00000000E+00	 0.00000000E+00	 0.00000000E+00
		 5.87254000E-02	-4.33875000E-13	 7.61338000E-01
		 5.72392000E-02	-1.15363000E-01	 7.57064000E-01
		 0.00000000E+00	 0.00000000E+00	 0.00000000E+00
		 1.18177000E-01	-1.41331000E-13	 3.56734000E-01
		 1.15363000E-01	-5.72392000E-02	 7.57064000E-01
		 1.18014000E-01	-1.18014000E-01	 3.77030000E-01
		 1.14576000E-01	-1.04716000E-12	 1.53349000E+00
		 1.14035000E-01	-1.14035000E-01	 1.53152000E+00
		 5.72853000E-02	-1.02807000E-12	 1.53495000E+00
		 5.69083000E-02	-1.14416000E-01	 1.53326000E+00
		 1.16432000E-01	-7.58948000E-13	 1.14997000E+00
		 1.14416000E-01	-5.69083000E-02	 1.53326000E+00
		 1.16943000E-01	-1.16943000E-01	 1.14884000E+00
		 1.07259000E-01	-1.26943000E-12	 2.27231000E+00
		 1.07199000E-01	-1.07199000E-01	 2.27022000E+00
		 5.36917000E-02	-1.23823000E-12	 2.27377000E+00
		 5.36885000E-02	-1.07198000E-01	 2.27170000E+00
		 1.10842000E-01	-1.22835000E-12	 1.90872000E+00
		 1.07198000E-01	-5.36885000E-02	 2.27170000E+00
		 1.10909000E-01	-1.10909000E-01	 1.90706000E+00
		 9.73959000E-02	-8.68278000E-13	 2.95403000E+00
		 9.74106000E-02	-9.74106000E-02	 2.95124000E+00
		 4.87421000E-02	-8.47739000E-13	 2.95613000E+00
		 4.87379000E-02	-9.74206000E-02	 2.95335000E+00
		 1.02492000E-01	-1.13937000E-12	 2.62132000E+00
		 9.74206000E-02	-4.87379000E-02	 2.95335000E+00
		 1.02502000E-01	-1.02502000E-01	 2.61885000E+00
		 8.51775000E-02	-3.64153000E-14	 3.56250000E+00
		 8.51859000E-02	-8.51859000E-02	 3.55917000E+00
		 4.26298000E-02	-3.01981000E-14	 3.56500000E+00
		 4.26344000E-02	-8.51830000E-02	 3.56167000E+00
		 9.14245000E-02	-4.78728000E-13	 3.26844000E+00
		 8.51830000E-02	-4.26344000E-02	 3.56167000E+00
		 9.14380000E-02	-9.14380000E-02	 3.26538000E+00
		 7.08277000E-02	 7.62501000E-13	 4.08238000E+00
		 7.08372000E-02	-7.08372000E-02	 4.07855000E+00
		 3.54475000E-02	 7.58504000E-13	 4.08524000E+00
		 3.54496000E-02	-7.08376000E-02	 4.08142000E+00
		 7.81257000E-02	 3.94795000E-13	 3.83438000E+00
		 7.08376000E-02	-3.54496000E-02	 4.08142000E+00
		 7.81349000E-02	-7.81349000E-02	 3.83078000E+00
		 5.47223000E-02	 1.09401000E-12	 4.50078000E+00
		 5.47289000E-02	-5.47289000E-02	 4.49656000E+00
		 2.73872000E-02	 1.07114000E-12	 4.50394000E+00
		 2.73893000E-02	-5.47284000E-02	 4.49972000E+00
		 6.28730000E-02	 1.01530000E-12	 4.30498000E+00
		 5.47284000E-02	-2.73893000E-02	 4.49972000E+00
		 6.28811000E-02	-6.28811000E-02	 4.30095000E+00
		 3.72549000E-02	 6.85230000E-13	 4.80729000E+00
		 3.72597000E-02	-3.72597000E-02	 4.80279000E+00
		 1.86452000E-02	 6.31939000E-13	 4.81067000E+00
		 1.86466000E-02	-3.72596000E-02	 4.80617000E+00
		 4.60606000E-02	 9.86766000E-13	 4.66857000E+00
		 3.72596000E-02	-1.86466000E-02	 4.80617000E+00
		 4.60664000E-02	-4.60664000E-02	 4.66419000E+00
		 1.88622000E-02	-3.28293000E-13	 4.99430000E+00
		 1.88647000E-02	-1.88647000E-02	 4.98963000E+00
		 9.44002000E-03	-3.64986000E-13	 4.99781000E+00
		 9.44086000E-03	-1.88644000E-02	 4.99313000E+00
		 2.81025000E-02	 2.29594000E-13	 4.91610000E+00
		 1.88644000E-02	-9.44086000E-03	 4.99313000E+00
		 2.81059000E-02	-2.81059000E-02	 4.91150000E+00
		 7.17125000E-06	-1.54410000E-12	 5.05716000E+00
		 9.50877000E-06	-9.50877000E-06	 5.05243000E+00
		 3.60642000E-06	-1.54010000E-12	 5.06071000E+00
		 4.40283000E-06	-8.72385000E-06	 5.05598000E+00
		 9.44516000E-03	-9.55236000E-13	 5.04143000E+00
		 8.72385000E-06	-4.40283000E-06	 5.05598000E+00
		 9.44658000E-03	-9.44658000E-03	 5.03671000E+00
		 0.00000000E+00	 0.00000000E+00	 0.00000000E+00
		-1.13728000E-01	 1.13728000E-01	 7.56804000E-01
		 0.00000000E+00	 0.00000000E+00	 0.00000000E+00
		 1.01652000E-12	 1.17462000E-01	 7.60941000E-01
		 0.00000000E+00	 0.00000000E+00	 0.00000000E+00
		-1.18014000E-01	 1.18014000E-01	 3.77030000E-01
		-1.15363000E-01	 5.72392000E-02	 7.57064000E-01
		 0.00000000E+00	 0.00000000E+00	 0.00000000E+00
		-5.72392000E-02	 1.15363000E-01	 7.57064000E-01
		 0.00000000E+00	 0.00000000E+00	 0.00000000E+00
		 3.28404000E-13	 1.18177000E-01	 3.56734000E-01
		 1.02895000E-12	 5.87254000E-02	 7.61338000E-01
		-1.14035000E-01	 1.14035000E-01	 1.53152000E+00
		 2.48823000E-12	 1.14576000E-01	 1.53349000E+00
		-1.16943000E-01	 1.16943000E-01	 1.14884000E+00