<?xml version="1.0"?>
<VTKFile type="UnstructuredGrid" version="0.1" byte_order="LittleEndian">
	<UnstructuredGrid>
		<Piece NumberOfPoints="321" NumberOfCells="40">
			<Points>
				<DataArray type="Float64" NumberOfComponents="3" format="ascii">
					 1.00000000E-02	 1.00000000E-02	 0.00000000E+00
					 1.00000000E-02	 5.00000000E-03	 0.00000000E+00
					 1.00000000E-02	 5.00000000E-03	 1.00000000E-02
					 1.00000000E-02	 1.00000000E-02	 1.00000000E-02
					 5.00000000E-03	 1.00000000E-02	 0.00000000E+00
					 5.00000000E-03	 5.00000000E-03	 0.00000000E+00
					 5.00000000E-03	 5.00000000E-03	 1.00000000E-02
					 5.00000000E-03	 1.00000000E-02	 1.00000000E-02
					 1.00000000E-02	 7.50000000E-03	 0.00000000E+00
					 1.00000000E-02	 5.00000000E-03	 5.00000000E-03
					 1.00000000E-02	 7.50000000E-03	 1.00000000E-02
					 1.00000000E-02	 1.00000000E-02	 5.00000000E-03
					 7.50000000E-03	 1.00000000E-02	 0.00000000E+00
					 7.50000000E-03	 5.00000000E-03	 0.00000000E+00
					 7.50000000E-03	 5.00000000E-03	 1.00000000E-02
					 7.50000000E-03	 1.00000000E-02	 1.00000000E-02
					 5.00000000E-03	 7.50000000E-03	 0.00000000E+00
					 5.00000000E-03	 5.00000000E-03	 5.00000000E-03
					 5.00000000E-03	 7.50000000E-03	 1.00000000E-02
					 5.00000000E-03	 1.00000000E-02	 5.00000000E-03
					 1.00000000E-02	 5.00000000E-03	 2.00000000E-02
					 1.00000000E-02	 1.00000000E-02	 2.00000000E-02
					 5.00000000E-03	 5.00000000E-03	 2.00000000E-02
					 5.00000000E-03	 1.00000000E-02	 2.00000000E-02
					 1.00000000E-02	 5.00000000E-03	 1.50000000E-02
					 1.00000000E-02	 7.50000000E-03	 2.00000000E-02
					 1.00000000E-02	 1.00000000E-02	 1.50000000E-02
					 7.50000000E-03	 5.00000000E-03	 2.00000000E-02
					 7.50000000E-03	 1.00000000E-02	 2.00000000E-02
					 5.00000000E-03	 5.00000000E-03	 1.50000000E-02
					 5.00000000E-03	 7.50000000E-03	 2.00000000E-02
					 5.00000000E-03	 1.00000000E-02	 1.50000000E-02
					 1.00000000E-02	 5.00000000E-03	 3.00000000E-02
					 1.00000000E-02	 1.00000000E-02	 3.00000000E-02
					 5.00000000E-03	 5.00000000E-03	 3.00000000E-02
					 5.00000000E-03	 1.00000000E-02	 3.00000000E-02
					 1.00000000E-02	 5.00000000E-03	 2.50000000E-02
					 1.00000000E-02	 7.50000000E-03	 3.00000000E-02
					 1.00000000E-02	 1.00000000E-02	 2.50000000E-02
					 7.50000000E-03	 5.00000000E-03	 3.00000000E-02
					 7.50000000E-03	 1.00000000E-02	 3.00000000E-02
					 5.00000000E-03	 5.00000000E-03	 2.50000000E-02
					 5.00000000E-03	 7.50000000E-03	 3.00000000E-02
					 5.00000000E-03	 1.00000000E-02	 2.50000000E-02
					 1.00000000E-02	 5.00000000E-03	 4.00000000E-02
					 1.00000000E-02	 1.00000000E-02	 4.00000000E-02
					 5.00000000E-03	 5.00000000E-03	 4.00000000E-02
					 5.00000000E-03	 1.00000000E-02	 4.00000000E-02
					 1.00000000E-02	 5.00000000E-03	 3.50000000E-02
					 1.00000000E-02	 7.50000000E-03	 4.00000000E-02
					 1.00000000E-02	 1.00000000E-02	 3.50000000E-02
					 7.50000000E-03	 5.00000000E-03	 4.00000000E-02
					 7.50000000E-03	 1.00000000E-02	 4.00000000E-02
					 5.00000000E-03	 5.00000000E-03	 3.50000000E-02
					 5.00000000E-03	 7.50000000E-03	 4.00000000E-02
					 5.00000000E-03	 1.00000000E-02	 3.50000000E-02
					 1.00000000E-02	 5.00000000E-03	 5.00000000E-02
					 1.00000000E-02	 1.00000000E-02	 5.00000000E-02
					 5.00000000E-03	 5.00000000E-03	 5.00000000E-02
					 5.00000000E-03	 1.00000000E-02	 5.00000000E-02
					 1.00000000E-02	 5.00000000E-03	 4.50000000E-02
					 1.00000000E-02	 7.50000000E-03	 5.00000000E-02
					 1.00000000E-02	 1.00000000E-02	 4.50000000E-02
					 7.50000000E-03	 5.00000000E-03	 5.00000000E-02
					 7.50000000E-03	 1.00000000E-02	 5.00000000E-02
					 5.00000000E-03	 5.00000000E-03	 4.50000000E-02
					 5.00000000E-03	 7.50000000E-03	 5.00000000E-02
					 5.00000000E-03	 1.00000000E-02	 4.50000000E-02
					 1.00000000E-02	 5.00000000E-03	 6.00000000E-02
					 1.00000000E-02	 1.00000000E-02	 6.00000000E-02
					 5.00000000E-03	 5.00000000E-03	 6.00000000E-02
					 5.00000000E-03	 1.00000000E-02	 6.00000000E-02
					 1.00000000E-02	 5.00000000E-03	 5.50000000E-02
					 1.00000000E-02	 7.50000000E-03	 6.00000000E-02
					 1.00000000E-02	 1.00000000E-02	 5.50000000E-02
					 7.50000000E-03	 5.00000000E-03	 6.00000000E-02
					 7.50000000E-03	 1.00000000E-02	 6.00000000E-02
					 5.00000000E-03	 5.00000000E-03	 5.50000000E-02
					 5.00000000E-03	 7.50000000E-03	 6.00000000E-02
					 5.00000000E-03	 1.00000000E-02	 5.50000000E-02
					 1.00000000E-02	 5.00000000E-03	 7.00000000E-02
					 1.00000000E-02	 1.00000000E-02	 7.00000000E-02
					 5.00000000E-03	 5.00000000E-03	 7.00000000E-02
					 5.00000000E-03	 1.00000000E-02	 7.00000000E-02
					 1.00000000E-02	 5.00000000E-03	 6.50000000E-02
					 1.00000000E-02	 7.50000000E-03	 7.00000000E-02
					 1.00000000E-02	 1.00000000E-02	 6.50000000E-02
					 7.50000000E-03	 5.00000000E-03	 7.00000000E-02
					 7.50000000E-03	 1.00000000E-02	 7.00000000E-02
					 5.00000000E-03	 5.00000000E-03	 6.50000000E-02
					 5.00000000E-03	 7.50000000E-03	 7.00000000E-02
					 5.00000000E-03	 1.00000000E-02	 6.50000000E-02
					 1.00000000E-02	 5.00000000E-03	 8.00000000E-02
					 1.00000000E-02	 1.00000000E-02	 8.00000000E-02
					 5.00000000E-03	 5.00000000E-03	 8.00000000E-02
					 5.00000000E-03	 1.00000000E-02	 8.00000000E-02
					 1.00000000E-02	 5.00000000E-03	 7.50000000E-02
					 1.00000000E-02	 7.50000000E-03	 8.00000000E-02
					 1.00000000E-02	 1.00000000E-02	 7.50000000E-02
					 7.50000000E-03	 5.00000000E-03	 8.00000000E-02
					 7.50000000E-03	 1.00000000E-02	 8.00000000E-02
					 5.00000000E-03	 5.00000000E-03	 7.50000000E-02
					 5.00000000E-03	 7.50000000E-03	 8.00000000E-02
					 5.00000000E-03	 1.00000000E-02	 7.50000000E-02
					 1.00000000E-02	 5.00000000E-03	 9.00000000E-02
					 1.00000000E-02	 1.00000000E-02	 9.00000000E-02
					 5.00000000E-03	 5.00000000E-03	 9.00000000E-02
					 5.00000000E-03	 1.00000000E-02	 9.00000000E-02
					 1.00000000E-02	 5.00000000E-03	 8.50000000E-02
					 1.00000000E-02	 7.50000000E-03	 9.00000000E-02
					 1.00000000E-02	 1.00000000E-02	 8.50000000E-02
					 7.50000000E-03	 5.00000000E-03	 9.00000000E-02
					 7.50000000E-03	 1.00000000E-02	 9.00000000E-02
					 5.00000000E-03	 5.00000000E-03	 8.50000000E-02
					 5.00000000E-03	 7.50000000E-03	 9.00000000E-02
					 5.00000000E-03	 1.00000000E-02	 8.50000000E-02
					 1.00000000E-02	 5.00000000E-03	 1.00000000E-01
					 1.00000000E-02	 1.00000000E-02	 1.00000000E-01
					 5.00000000E-03	 5.00000000E-03	 1.00000000E-01
					 5.00000000E-03	 1.00000000E-02	 1.00000000E-01
					 1.00000000E-02	 5.00000000E-03	 9.50000000E-02
					 1.00000000E-02	 7.50000000E-03	 1.00000000E-01
					 1.00000000E-02	 1.00000000E-02	 9.50000000E-02
					 7.50000000E-03	 5.00000000E-03	 1.00000000E-01
					 7.50000000E-03	 1.00000000E-02	 1.00000000E-01
					 5.00000000E-03	 5.00000000E-03	 9.50000000E-02
					 5.00000000E-03	 7.50000000E-03	 1.00000000E-01
					 5.00000000E-03	 1.00000000E-02	 9.50000000E-02
					 0.00000000E+00	 1.00000000E-02	 0.00000000E+00
					 0.00000000E+00	 5.00000000E-03	 0.00000000E+00
					 0.00000000E+00	 5.00000000E-03	 1.00000000E-02
					 0.00000000E+00	 1.00000000E-02	 1.00000000E-02
					 2.50000000E-03	 1.00000000E-02	 0.00000000E+00
					 2.50000000E-03	 5.00000000E-03	 0.00000000E+00
					 2.50000000E-03	 5.00000000E-03	 1.00000000E-02
					 2.50000000E-03	 1.00000000E-02	 1.00000000E-02
					 0.00000000E+00	 7.50000000E-03	 0.00000000E+00
					 0.00000000E+00	 5.00000000E-03	 5.00000000E-03
					 0.00000000E+00	 7.50000000E-03	 1.00000000E-02
					 0.00000000E+00	 1.00000000E-02	 5.00000000E-03
					 0.00000000E+00	 5.00000000E-03	 2.00000000E-02
					 0.00000000E+00	 1.00000000E-02	 2.00000000E-02
					 2.50000000E-03	 5.00000000E-03	 2.00000000E-02
					 2.50000000E-03	 1.00000000E-02	 2.00000000E-02
					 0.00000000E+00	 5.00000000E-03	 1.50000000E-02
					 0.00000000E+00	 7.50000000E-03	 2.00000000E-02
					 0.00000000E+00	 1.00000000E-02	 1.50000000E-02
					 0.00000000E+00	 5.00000000E-03	 3.00000000E-02
					 0.00000000E+00	 1.00000000E-02	 3.00000000E-02
					 2.50000000E-03	 5.00000000E-03	 3.00000000E-02
					 2.50000000E-03	 1.00000000E-02	 3.00000000E-02
					 0.00000000E+00	 5.00000000E-03	 2.50000000E-02
					 0.00000000E+00	 7.50000000E-03	 3.00000000E-02
					 0.00000000E+00	 1.00000000E-02	 2.50000000E-02
					 0.00000000E+00	 5.00000000E-03	 4.00000000E-02
					 0.00000000E+00	 1.00000000E-02	 4.00000000E-02
					 2.50000000E-03	 5.00000000E-03	 4.00000000E-02
					 2.50000000E-03	 1.00000000E-02	 4.00000000E-02
					 0.00000000E+00	 5.00000000E-03	 3.50000000E-02
					 0.00000000E+00	 7.50000000E-03	 4.00000000E-02
					 0.00000000E+00	 1.00000000E-02	 3.50000000E-02
					 0.00000000E+00	 5.00000000E-03	 5.00000000E-02
					 0.00000000E+00	 1.00000000E-02	 5.00000000E-02
					 2.50000000E-03	 5.00000000E-03	 5.00000000E-02
					 2.50000000E-03	 1.00000000E-02	 5.00000000E-02
					 0.00000000E+00	 5.00000000E-03	 4.50000000E-02
					 0.00000000E+00	 7.50000000E-03	 5.00000000E-02
					 0.00000000E+00	 1.00000000E-02	 4.50000000E-02
					 0.00000000E+00	 5.00000000E-03	 6.00000000E-02
					 0.00000000E+00	 1.00000000E-02	 6.00000000E-02
					 2.50000000E-03	 5.00000000E-03	 6.00000000E-02
					 2.50000000E-03	 1.00000000E-02	 6.00000000E-02
					 0.00000000E+00	 5.00000000E-03	 5.50000000E-02
					 0.00000000E+00	 7.50000000E-03	 6.00000000E-02
					 0.00000000E+00	 1.00000000E-02	 5.50000000E-02
					 0.00000000E+00	 5.00000000E-03	 7.00000000E-02
					 0.00000000E+00	 1.00000000E-02	 7.00000000E-02
					 2.50000000E-03	 5.00000000E-03	 7.00000000E-02
					 2.50000000E-03	 1.00000000E-02	 7.00000000E-02
					 0.00000000E+00	 5.00000000E-03	 6.50000000E-02
					 0.00000000E+00	 7.50000000E-03	 7.00000000E-02
					 0.00000000E+00	 1.00000000E-02	 6.50000000E-02
					 0.00000000E+00	 5.00000000E-03	 8.00000000E-02
					 0.00000000E+00	 1.00000000E-02	 8.00000000E-02
[...]
			<PointData>
				<DataArray type="Float32" Name="U" NumberOfComponents="3" ComponentName0="D1" ComponentName1="D2" ComponentName2="D3" format="ascii">
					 0.00000000E+00	 0.00000000E+00	 0.00000000E+00
					 0.00000000E+00	 0.00000000E+00	 0.00000000E+00
					-1.33227000E-15	 2.67599000E+00	-1.39888000E-14
					-2.66413000E+00	 2.66413000E+00	-1.43219000E-14
					 0.00000000E+00	 0.00000000E+00	 0.00000000E+00
					 0.00000000E+00	 0.00000000E+00	 0.00000000E+00
					-6.66134000E-15	 3.86358000E-14	-1.62093000E-14
					-2.67599000E+00	 3.73035000E-14	-2.05391000E-14
					 0.00000000E+00	 0.00000000E+00	 0.00000000E+00
					-5.99520000E-15	 1.33176000E+00	-5.10703000E-15
					-1.33660000E+00	 2.66867000E+00	 2.40878000E-01
					-1.28081000E+00	 1.28081000E+00	-1.36002000E-14
					 0.00000000E+00	 0.00000000E+00	 0.00000000E+00
					 0.00000000E+00	 0.00000000E+00	 0.00000000E+00
					-5.99520000E-15	 1.33542000E+00	-1.15463000E-14
					-2.66867000E+00	 1.33660000E+00	-2.40878000E-01
					 0.00000000E+00	 0.00000000E+00	 0.00000000E+00
					-7.71605000E-15	 1.59872000E-14	-5.66214000E-15
					-1.33542000E+00	 4.04121000E-14	-1.82632000E-14
					-1.33176000E+00	 1.73195000E-14	-1.56541000E-14
					 1.05471000E-15	 4.94303000E+00	-4.17444000E-14
					-4.96471000E+00	 4.96471000E+00	 1.52656000E-14
					 5.05151000E-15	-7.66054000E-15	-3.28626000E-14
					-4.94303000E+00	-4.88498000E-15	 2.54241000E-14
					-7.78544000E-15	 3.92376000E+00	-2.35367000E-14
					-2.47653000E+00	 4.95561000E+00	 1.19691000E-01
					-3.94841000E+00	 3.94841000E+00	-3.88578000E-15
					 2.22045000E-15	 2.47477000E+00	-3.70814000E-14
					-4.95561000E+00	 2.47653000E+00	-1.19691000E-01
					-6.32827000E-15	 3.68594000E-14	-2.55351000E-14
					-2.47477000E+00	-1.99840000E-15	-8.65974000E-15
					-3.92376000E+00	 4.46310000E-14	-7.32747000E-15
					 1.65423000E-14	 6.09392000E+00	-4.66294000E-14
					-6.11303000E+00	 6.11303000E+00	 9.76996000E-15
					 3.08642000E-14	-2.03226000E-13	-3.99680000E-14
					-6.09392000E+00	-2.04781000E-13	 1.78746000E-14
					 1.97620000E-14	 5.67495000E+00	-5.22915000E-14
					-3.05380000E+00	 6.10416000E+00	 3.90821000E-02
					-5.69392000E+00	 5.69392000E+00	 2.35367000E-14
					 1.97620000E-14	 3.04836000E+00	-4.50751000E-14
					-6.10416000E+00	 3.05380000E+00	-3.90821000E-02
					 1.85962000E-14	-1.12005000E-13	-3.84137000E-14
					-3.04836000E+00	-2.00798000E-13	-1.60982000E-14
					-5.67495000E+00	-1.10134000E-13	 3.03646000E-14
					-1.70974000E-14	 5.90912000E+00	-4.10783000E-14
					-5.92968000E+00	 5.92968000E+00	-4.82947000E-14
					 6.66134000E-15	-2.44860000E-13	-5.08482000E-14
					-5.90912000E+00	-2.55795000E-13	-7.23310000E-14
					 1.46549000E-14	 6.17362000E+00	-3.15303000E-14
					-2.96097000E+00	 5.92050000E+00	-6.41665000E-02
					-6.19594000E+00	 6.19594000E+00	-1.17684000E-14
					-1.70974000E-14	 2.95666000E+00	-4.80727000E-14
					-5.92050000E+00	 2.96097000E+00	 6.41665000E-02
					 3.26406000E-14	-2.54907000E-13	-4.18554000E-14
					-2.95666000E+00	-2.19616000E-13	-6.12427000E-14
					-6.17362000E+00	-2.69562000E-13	-2.78111000E-14
					-1.67644000E-14	 4.42353000E+00	-6.46150000E-14
					-4.43849000E+00	 4.43849000E+00	-1.34559000E-13
					-1.86517000E-14	-1.66089000E-13	-4.55191000E-14
					-4.42353000E+00	-1.73639000E-13	-1.04028000E-13
					 1.46549000E-14	 5.31421000E+00	-5.03625000E-14
					-2.21665000E+00	 4.43172000E+00	-1.50413000E-01
					-5.33332000E+00	 5.33332000E+00	-1.01696000E-13
					-3.26406000E-14	 2.21315000E+00	-5.25691000E-14
					-4.43172000E+00	 2.21665000E+00	 1.50413000E-01
					-1.59872000E-14	-2.02949000E-13	-6.92779000E-14
					-2.21315000E+00	-2.44693000E-13	-7.42739000E-14
					-5.31421000E+00	-2.07834000E-13	-6.54754000E-14
					 5.41789000E-14	 1.96466000E+00	-7.86038000E-14
					-1.97137000E+00	 1.97137000E+00	-1.25788000E-13
					 8.79297000E-14	-8.81517000E-14	-4.04121000E-14
					-1.96466000E+00	-9.42579000E-14	-9.50351000E-14
					 2.18731000E-14	 3.28557000E+00	-7.59393000E-14
					-9.84482000E-01	 1.96835000E+00	-2.04157000E-01
					-3.29736000E+00	 3.29736000E+00	-1.46994000E-13
					 9.43690000E-14	 9.82978000E-01	-5.55112000E-14
					-1.96835000E+00	 9.84482000E-01	 2.04157000E-01
					-1.19904000E-14	-1.35447000E-13	-2.55351000E-14
					-9.82978000E-01	-6.81677000E-14	-7.90479000E-14
					-3.28557000E+00	-7.01661000E-14	-1.38334000E-13
					 9.99201000E-14	-9.26415000E-01	-1.55431000E-14
					 9.29541000E-01	-9.29541000E-01	-4.84057000E-14
					 9.81992000E-14	 2.62013000E-14	-2.63123000E-14
					 9.26415000E-01	 7.81597000E-14	-6.43929000E-14
					 9.50351000E-14	 5.33974000E-01	-5.49560000E-14
					 4.64225000E-01	-9.28130000E-01	-2.12751000E-01
					-5.35884000E-01	 5.35884000E-01	-7.01661000E-14
					 6.69464000E-14	-4.63498000E-01	-1.90958000E-14
					 9.28130000E-01	-4.64225000E-01	 2.12751000E-01
					 9.68114000E-14	-2.84217000E-14	-3.56382000E-14
					 4.63498000E-01	 5.41789000E-14	-4.39648000E-14
					-5.33974000E-01	 2.48690000E-14	-6.55032000E-14
					 6.70575000E-14	-3.61392000E+00	 3.55271000E-14
					 3.62642000E+00	-3.62642000E+00	 6.39766000E-14
					 3.19744000E-14	 1.57652000E-14	 4.66294000E-15
					 3.61392000E+00	-7.26086000E-14	 5.22915000E-14
					 7.48290000E-14	-2.33513000E+00	 3.15303000E-14
					 1.81098000E+00	-3.62078000E+00	-1.75141000E-01
					 2.34342000E+00	-2.34342000E+00	 8.65974000E-15
					 2.84217000E-14	-1.80816000E+00	 2.62013000E-14
					 3.62078000E+00	-1.81098000E+00	 1.75141000E-01
					 6.88338000E-14	 8.28226000E-14	-5.96224000E-15
					 1.80816000E+00	-6.43929000E-15	 3.06977000E-14
					 2.33513000E+00	-1.55431000E-14	-8.88178000E-16
					-1.90958000E-14	-5.50459000E+00	 7.00551000E-14
					 5.52357000E+00	-5.52357000E+00	 9.59233000E-14
					-1.11022000E-14	 1.11022000E-15	 1.55431000E-14
					 5.50459000E+00	 7.06102000E-14	 1.59872000E-14
					 2.15106000E-14	-4.69026000E+00	 6.56142000E-14
					 2.75839000E+00	-5.51503000E+00	-9.62874000E-02
					 4.70759000E+00	-4.70759000E+00	 7.63278000E-14
					-1.11022000E-13	-2.75408000E+00	 4.14113000E-14
					 5.51503000E+00	-2.75839000E+00	 9.62874000E-02
					-1.49880000E-14	 4.24105000E-14	 2.37588000E-14
					 2.75408000E+00	 4.37428000E-14	 2.29608000E-14
					 4.69026000E+00	 7.81597000E-14	 2.11497000E-14
					-2.34146000E-13	-6.18995000E+00	 1.07470000E-13
					 6.21567000E+00	-6.21567000E+00	 2.39808000E-14
					-1.91236000E-13	 1.66978000E-13	 2.86438000E-14
					 6.18995000E+00	 2.53131000E-13	 1.77636000E-15
					-4.88498000E-14	-6.01491000E+00	 7.53841000E-14
					 3.10535000E+00	-6.20346000E+00	-8.74621000E-03
					 6.03317000E+00	-6.03317000E+00	 5.15143000E-14
					-2.29594000E-13	-3.09637000E+00	 5.12645000E-14
					 6.20346000E+00	-3.10535000E+00	 8.74621000E-03
					-1.15019000E-13	 1.62481000E-13	 5.29576000E-14
					 3.09637000E+00	 3.69482000E-13	-1.75415000E-14
					 6.01491000E+00	 3.82527000E-13	-6.39488000E-14
					 0.00000000E+00	 0.00000000E+00	 0.00000000E+00
					 0.00000000E+00	 0.00000000E+00	 0.00000000E+00
					-6.66134000E-15	-2.67599000E+00	-1.85685000E-14
					-2.66413000E+00	-2.66413000E+00	-1.57652000E-14
					 0.00000000E+00	 0.00000000E+00	 0.00000000E+00
					 0.00000000E+00	 0.00000000E+00	 0.00000000E+00
					-7.54952000E-15	-1.33542000E+00	-1.95816000E-14
					-2.66867000E+00	-1.33660000E+00	 2.40878000E-01
					 0.00000000E+00	 0.00000000E+00	 0.00000000E+00
					-9.15240000E-15	-1.33176000E+00	-1.16573000E-14
					-1.33660000E+00	-2.66867000E+00	-2.40878000E-01
					-1.28081000E+00	-1.28081000E+00	-1.98175000E-14
					 8.65974000E-15	-4.94303000E+00	-2.88936000E-14
					-4.96471000E+00	-4.96471000E+00	 3.30846000E-14
					 1.25455000E-14	-2.47477000E+00	-2.87548000E-14
					-4.95561000E+00	-2.47653000E+00	 1.19691000E-01
					 1.55431000E-15	-3.92376000E+00	-2.23155000E-14
					-2.47653000E+00	-4.95561000E+00	-1.19691000E-01
					-3.94841000E+00	-3.94841000E+00	 1.21014000E-14
					 2.10942000E-14	-6.09392000E+00	-4.01901000E-14
					-6.11303000E+00	-6.11303000E+00	 1.95399000E-14
					 2.73115000E-14	-3.04836000E+00	-4.10783000E-14
					-6.10416000E+00	-3.05380000E+00	 3.90821000E-02
					 1.65423000E-14	-5.67495000E+00	-3.57492000E-14
					-3.05380000E+00	-6.10416000E+00	-3.90821000E-02
					-5.69392000E+00	-5.69392000E+00	 4.62963000E-14
					 1.41553000E-14	-5.90912000E+00	-5.72875000E-14
					-5.92968000E+00	-5.92968000E+00	-6.00214000E-14
					 1.16573000E-14	-2.95666000E+00	-4.68514000E-14
					-5.92050000E+00	-2.96097000E+00	-6.41665000E-02
					 4.08562000E-14	-6.17362000E+00	-5.30687000E-14
					-2.96097000E+00	-5.92050000E+00	 6.41665000E-02
					-6.19594000E+00	-6.19594000E+00	-3.19744000E-14
					-2.04281000E-14	-4.42353000E+00	-2.26485000E-14
					-4.43849000E+00	-4.43849000E+00	-8.28226000E-14
					-7.99361000E-15	-2.21315000E+00	-3.53051000E-14
					-4.43172000E+00	-2.21665000E+00	-1.50413000E-01
					-1.24345000E-14	-5.31421000E+00	-2.35367000E-14
					-2.21665000E+00	-4.43172000E+00	 1.50413000E-01
					-5.33332000E+00	-5.33332000E+00	-9.52571000E-14
					 5.90639000E-14	-1.96466000E+00	-5.32907000E-15
					-1.97137000E+00	-1.97137000E+00	-4.30767000E-14
					 6.08402000E-14	-9.82978000E-01	-2.50910000E-14
					-1.96835000E+00	-9.84482000E-01	-2.04157000E-01
					 1.99840000E-15	-3.28557000E+00	-2.22045000E-14
					-9.84482000E-01	-1.96835000E+00	 2.04157000E-01
					-3.29736000E+00	-3.29736000E+00	-5.81757000E-14
					 1.15463000E-13	 9.26415000E-01	-2.48690000E-14
					 9.29541000E-01	 9.29541000E-01	-3.90799000E-14
					 1.21680000E-13	 4.63498000E-01	-2.84217000E-14
					 9.28130000E-01	 4.64225000E-01	-2.12751000E-01
					 9.76996000E-14	-5.33974000E-01	-1.73195000E-14
					 4.64225000E-01	 9.28130000E-01	 2.12751000E-01
					-5.35884000E-01	-5.35884000E-01	-7.43849000E-14
					 7.63833000E-14	 3.61392000E+00	-1.99840000E-14
					 3.62642000E+00	 3.62642000E+00	-7.50788000E-15
					-2.22045000E-16	 1.80816000E+00	 9.49241000E-15
					 3.62078000E+00	 1.81098000E+00	-1.75141000E-01
					 8.12683000E-14	 2.33513000E+00	-2.62013000E-14
					 1.81098000E+00	 3.62078000E+00	 1.75141000E-01
					 2.34342000E+00	 2.34342000E+00	-5.77316000E-15
					-2.97540000E-14	 5.50459000E+00	-3.95239000E-14
					 5.52357000E+00	 5.52357000E+00	-2.42861000E-14
					-2.30926000E-14	 2.75408000E+00	-1.77636000E-14
					 5.51503000E+00	 2.75839000E+00	-9.62874000E-02
					-8.60423000E-15	 4.69026000E+00	-3.30846000E-14
					 2.75839000E+00	 5.51503000E+00	 9.62874000E-02
					 4.70759000E+00	 4.70759000E+00	-4.77396000E-15
					-2.41807000E-13	 6.18995000E+00	-5.77316000E-14
					 6.21567000E+00	 6.21567000E+00	-2.86993000E-14
					-2.46081000E-13	 3.09637000E+00	-1.06581000E-14
					 6.20346000E+00	 3.10535000E+00	-8.74621000E-03
					-8.48210000E-14	 6.01491000E+00	-9.90319000E-14
					 3.10535000E+00	 6.20346000E+00	 8.74621000E-03
					 6.03317000E+00	 6.03317000E+00	-2.49800000E-14
					 0.00000000E+00	 0.00000000E+00	 0.00000000E+00
					 2.66413000E+00	 2.66413000E+00	-8.43769000E-15
					 0.00000000E+00	 0.00000000E+00	 0.00000000E+00
					 2.67599000E+00	 3.24185000E-14	-1.50990000E-14
					 0.00000000E+00	 0.00000000E+00	 0.00000000E+00
					 1.28081000E+00	 1.28081000E+00	 9.54792000E-15
					 1.33660000E+00	 2.66867000E+00	-2.40878000E-01
					 0.00000000E+00	 0.00000000E+00	 0.00000000E+00
					 2.66867000E+00	 1.33660000E+00	 2.40878000E-01
					 0.00000000E+00	 0.00000000E+00	 0.00000000E+00
					 1.33176000E+00	 1.42109000E-14	 2.22045000E-15
					 1.33542000E+00	 3.64153000E-14	-1.37668000E-14
					 4.96471000E+00	 4.96471000E+00	-9.50351000E-14
					 4.94303000E+00	-2.77556000E-14	-8.39329000E-14
					 3.94841000E+00	 3.94841000E+00	-4.79616000E-14
					 2.47653000E+00	 4.95561000E+00	-1.19691000E-01
					 4.95561000E+00	 2.47653000E+00	 1.19691000E-01
					 3.92376000E+00	 2.93099000E-14	-4.39648000E-14
					 2.47477000E+00	-3.10862000E-14	-6.06182000E-14
					 6.11303000E+00	 6.11303000E+00	-1.01585000E-13
					 6.09392000E+00	-2.22183000E-13	-1.06137000E-13
					 5.69392000E+00	 5.69392000E+00	-1.26787000E-13
					 3.05380000E+00	 6.10416000E+00	-3.90821000E-02
					 6.10416000E+00	 3.05380000E+00	 3.90821000E-02
					 5.67495000E+00	-1.15241000E-13	-1.04472000E-13
					 3.04836000E+00	-2.06613000E-13	-7.00551000E-14
					 5.92968000E+00	 5.92968000E+00	-1.11022000E-14
					 5.90912000E+00	-2.80220000E-13	-1.33227000E-15
					 6.19594000E+00	 6.19594000E+00	-6.17284000E-14
					 2.96097000E+00	 5.92050000E+00	 6.41665000E-02
					 5.92050000E+00	 2.96097000E+00	-6.41665000E-02
					 6.17362000E+00	-2.78666000E-13	-6.75016000E-14
					 2.95666000E+00	-2.65454000E-13	-2.39808000E-14
					 4.43849000E+00	 4.43849000E+00	-5.49560000E-15
					 4.42353000E+00	-1.43885000E-13	 2.48690000E-14
					 5.33332000E+00	 5.33332000E+00	 8.88178000E-15
					 2.21665000E+00	 4.43172000E+00	 1.50413000E-01
					 4.43172000E+00	 2.21665000E+00	-1.50413000E-01
					 5.31421000E+00	-1.96509000E-13	 4.97380000E-14
					 2.21315000E+00	-8.39329000E-14	-1.59872000E-14
					 1.97137000E+00	 1.97137000E+00	-1.37668000E-14
					 1.96466000E+00	-9.54792000E-15	 2.70894000E-14
					 3.29736000E+00	 3.29736000E+00	-1.02141000E-14
					 9.84482000E-01	 1.96835000E+00	 2.04157000E-01
					 1.96835000E+00	 9.84482000E-01	-2.04157000E-01
					 3.28557000E+00	-1.34337000E-13	-2.22045000E-16
					 9.82978000E-01	-6.86118000E-14	-8.88178000E-15
					-9.29541000E-01	-9.29541000E-01	 3.99680000E-15
					-9.26415000E-01	 6.97220000E-14	 1.70974000E-14
					 5.35884000E-01	 5.35884000E-01	 1.04361000E-14
					-4.64225000E-01	-9.28130000E-01	 2.12751000E-01
					-9.28130000E-01	-4.64225000E-01	-2.12751000E-01
					 5.33974000E-01	 3.10862000E-15	 2.28706000E-14
					-4.63498000E-01	 2.62013000E-14	-9.02056000E-15
					-3.62642000E+00	-3.62642000E+00	 5.46230000E-14
					-3.61392000E+00	 6.08402000E-14	-1.57652000E-14
					-2.34342000E+00	-2.34342000E+00	 3.64153000E-14
					-1.81098000E+00	-3.62078000E+00	 1.75141000E-01
					-3.62078000E+00	-1.81098000E+00	-1.75141000E-01
					-2.33513000E+00	 1.09024000E-13	-2.22045000E-16
					-1.80816000E+00	 4.68514000E-14	 2.88658000E-15
					-5.52357000E+00	-5.52357000E+00	 6.01741000E-14
					-5.50459000E+00	-8.88178000E-16	 3.06422000E-14
					-4.70759000E+00	-4.70759000E+00	 1.11910000E-13
					-2.75839000E+00	-5.51503000E+00	 9.62874000E-02
					-5.51503000E+00	-2.75839000E+00	-9.62874000E-02
					-4.69026000E+00	 1.51434000E-13	 1.01447000E-14
					-2.75408000E+00	 6.06182000E-14	 2.46470000E-14
					-6.21567000E+00	-6.21567000E+00	 7.10543000E-14
					-6.18995000E+00	 2.15827000E-13	 7.63833000E-14
					-6.03317000E+00	-6.03317000E+00	 8.74856000E-14
					-3.10535000E+00	-6.20346000E+00	 8.74621000E-03
					-6.20346000E+00	-3.10535000E+00	-8.74621000E-03
					-6.01491000E+00	-5.08760000E-14	 2.22045000E-14
					-3.09637000E+00	 1.22569000E-13	-7.10543000E-15
					 0.00000000E+00	 0.00000000E+00	 0.00000000E+00
					 2.66413000E+00	-2.66413000E+00	-1.90403000E-14
					 0.00000000E+00	 0.00000000E+00	 0.00000000E+00
					 2.66867000E+00	-1.33660000E+00	-2.40878000E-01
					 0.00000000E+00	 0.00000000E+00	 0.00000000E+00
					 1.28081000E+00	-1.28081000E+00	-4.45824000E-15
					 1.33660000E+00	-2.66867000E+00	 2.40878000E-01
					 4.96471000E+00	-4.96471000E+00	-8.50153000E-14
					 4.95561000E+00	-2.47653000E+00	-1.19691000E-01
					 3.94841000E+00	-3.94841000E+00	-5.08482000E-14
					 2.47653000E+00	-4.95561000E+00	 1.19691000E-01
					 6.11303000E+00	-6.11303000E+00	-9.37028000E-14
					 6.10416000E+00	-3.05380000E+00	-3.90821000E-02
					 5.69392000E+00	-5.69392000E+00	-1.10745000E-13
					 3.05380000E+00	-6.10416000E+00	 3.90821000E-02
					 5.92968000E+00	-5.92968000E+00	-2.48690000E-14
					 5.92050000E+00	-2.96097000E+00	 6.41665000E-02
					 6.19594000E+00	-6.19594000E+00	-5.99520000E-14
					 2.96097000E+00	-5.92050000E+00	-6.41665000E-02
					 4.43849000E+00	-4.43849000E+00	 3.68594000E-14
					 4.43172000E+00	-2.21665000E+00	 1.50413000E-01
					 5.33332000E+00	-5.33332000E+00	 1.86517000E-14
					 2.21665000E+00	-4.43172000E+00	-1.50413000E-01
					 1.97137000E+00	-1.97137000E+00	 2.08722000E-14
					 1.96835000E+00	-9.84482000E-01	 2.04157000E-01
					 3.29736000E+00	-3.29736000E+00	 3.34455000E-14
					 9.84482000E-01	-1.96835000E+00	-2.04157000E-01
					-9.29541000E-01	 9.29541000E-01	 9.54792000E-15
					-9.28130000E-01	 4.64225000E-01	 2.12751000E-01
					 5.35884000E-01	-5.35884000E-01	 3.41949000E-14
					-4.64225000E-01	 9.28130000E-01	-2.12751000E-01
					-3.62642000E+00	 3.62642000E+00	-5.46230000E-14
					-3.62078000E+00	 1.81098000E+00	 1.75141000E-01
					-2.34342000E+00	 2.34342000E+00	-3.56937000E-14
					-1.81098000E+00	 3.62078000E+00	-1.75141000E-01
					-5.52357000E+00	 5.52357000E+00	-2.66454000E-14
					-5.51503000E+00	 2.75839000E+00	 9.62874000E-02
					-4.70759000E+00	 4.70759000E+00	-3.24185000E-14
					-2.75839000E+00	 5.51503000E+00	-9.62874000E-02
					-6.21567000E+00	 6.21567000E+00	-1.24345000E-14
					-6.20346000E+00	 3.10535000E+00	 8.74621000E-03
					-6.03317000E+00	 6.03317000E+00	 3.28626000E-14
					-3.10535000E+00	 6.20346000E+00	-8.74621000E-03
				</DataArray>
				<DataArray type="Float32" Name="S" NumberOfComponents="10" ComponentName0="xx" ComponentName1="yy" ComponentName2="zz" ComponentName3="xy" ComponentName4="yz" ComponentName5="zx" ComponentName6="Mises" ComponentName7="Min Principal" ComponentName8="Mid Principal" ComponentName9="Max Principal" format="ascii">
					-1.68237000E+07	 1.68237000E+07	-1.13692000E+00	-1.84244000E-02	 1.98618000E+13	-1.98618000E+13	 4.86512754E+13	-2.80888269E+13	-2.48413086E-02	 2.80888269E+13
					-1.28275000E-01	-1.46067000E-01	-2.17686000E-01	 2.13283000E+06	 2.14120000E+13	-1.88416000E-01	 3.70866719E+13	-2.14120000E+13	-1.28274963E-01	 2.14120000E+13
					 5.32150000E-01	-9.23462000E-02	-2.07062000E-01	 6.50854000E+10	 3.74729000E+13	-2.26547000E-01	 6.49050646E+13	-3.74729565E+13	 5.32929685E-01	 3.74729565E+13
					 2.03452000E+11	-2.03452000E+11	 3.21744000E-01	-2.82903000E-01	 7.47738000E+12	-7.47738000E+12	 1.83191552E+13	-1.05765692E+13	-2.80776978E-01	 1.05765692E+13
					-5.14692000E-01	-4.98552000E-01	-1.18847000E+00	-2.13283000E+06	 2.56958000E-01	-2.14120000E+13	 3.70866719E+13	-2.14120000E+13	-4.98552051E-01	 2.14120000E+13
					-6.09393000E-02	-7.65679000E-02	-1.76883000E-01	 2.49347000E-03	 2.01581000E-01	-1.90584000E-01	 4.92712179E-01	-4.06706544E-01	-6.59115096E-02	 1.58227853E-01
					-7.63484000E-02	 5.84404000E-02	-4.94499000E-01	-2.66662000E-01	 2.66289000E-01	 2.25594000E-01	 9.10007298E-01	-7.49960736E-01	-3.76501723E-02	 2.75203909E-01
					 3.56445000E-02	-5.21088000E-01	-5.94788000E-02	-6.50854000E+10	 3.92807000E-01	-3.74729000E+13	 6.49050646E+13	-3.74729565E+13	-5.23437500E-01	 3.74729565E+13
					 2.91837000E+12	 2.91833000E+12	 6.80949000E+12	 9.90182000E+05	 2.06265000E+13	-9.96813000E+12	 3.98696542E+13	-1.81274195E+13	 2.91836320E+12	 2.78552462E+13
					 1.36230000E-01	-1.54785000E-01	-3.00415000E-01	 7.59774000E+11	 2.93965000E+13	-1.19019000E-01	 5.09332348E+13	-2.94063168E+13	 1.42053296E-01	 2.94063168E+13
					 2.14248000E+11	-4.08329000E+10	 1.30878000E+12	 1.01157000E+10	 2.24829000E+13	 1.75386000E+11	 3.89625105E+13	-2.18596490E+13	 2.14074983E+11	 2.31277691E+13
					 1.55622000E+12	-1.55622000E+12	-4.42660000E-01	-1.24440000E-01	 1.37363000E+13	-1.37363000E+13	 3.37547195E+13	-1.94882964E+13	-1.16470337E-01	 1.94882964E+13
					-2.91833000E+12	-2.91837000E+12	-6.80949000E+12	-9.90182000E+05	 9.96813000E+12	-2.06265000E+13	 3.98696542E+13	-2.78552462E+13	-2.91836320E+12	 1.81274195E+13
					-3.62396000E-05	-3.93629000E-03	-6.18944000E-02	 1.14265000E+06	 1.06858000E+13	-2.06909000E-01	 1.85083485E+13	-1.06858000E+13	-3.61953862E-05	 1.06858000E+13
					 8.63628000E-02	-2.96135000E-02	-3.94215000E-01	 5.49697000E+10	 1.48590000E+13	 1.75552000E-02	 2.57367191E+13	-1.48591017E+13	 8.62214802E-02	 1.48591017E+13