# vtk DataFile Version 3.0

ASCII
DATASET UNSTRUCTURED_GRID

POINTS 321 double
	 1.00000000E-02	 1.00000000E-02	 0.00000000E+00
	 1.00000000E-02	 5.00000000E-03	 0.00000000E+00
	 1.00000000E-02	 5.00000000E-03	 1.00000000E-02
	 1.00000000E-02	 1.00000000E-02	 1.00000000E-02
	 5.00000000E-03	 1.00000000E-02	 0.00000000E+00
	 5.00000000E-03	 5.00000000E-03	 0.00000000E+00
	 5.00000000E-03	 5.00000000E-03	 1.00000000E-02
	 5.00000000E-03	 1.00000000E-02	 1.00000000E-02
	 1.00000000E-02	 7.50000000E-03	 0.00000000E+00
	 1.00000000E-02	 5.00000000E-03	 5.00000000E-03
	 1.00000000E-02	 7.50000000E-03	 1.00000000E-02
	 1.00000000E-02	 1.00000000E-02	 5.00000000E-03
	 7.50000000E-03	 1.00000000E-02	 0.00000000E+00
	 7.50000000E-03	 5.00000000E-03	 0.00000000E+00
	 7.50000000E-03	 5.00000000E-03	 1.00000000E-02
	 7.50000000E-03	 1.00000000E-02	 1.00000000E-02
	 5.00000000E-03	 7.50000000E-03	 0.00000000E+00
	 5.00000000E-03	 5.00000000E-03	 5.00000000E-03
	 5.00000000E-03	 7.50000000E-03	 1.00000000E-02
	 5.00000000E-03	 1.00000000E-02	 5.00000000E-03
	 1.00000000E-02	 5.00000000E-03	 2.00000000E-02
	 1.00000000E-02	 1.00000000E-02	 2.00000000E-02
	 5.00000000E-03	 5.00000000E-03	 2.00000000E-02
	 5.00000000E-03	 1.00000000E-02	 2.00000000E-02
	 1.00000000E-02	 5.00000000E-03	 1.50000000E-02
	 1.00000000E-02	 7.50000000E-03	 2.00000000E-02
	 1.00000000E-02	 1.00000000E-02	 1.50000000E-02
	 7.50000000E-03	 5.00000000E-03	 2.00000000E-02
	 7.50000000E-03	 1.00000000E-02	 2.00000000E-02
	 5.00000000E-03	 5.00000000E-03	 1.50000000E-02
	 5.00000000E-03	 7.50000000E-03	 2.00000000E-02
	 5.00000000E-03	 1.00000000E-02	 1.50000000E-02
	 1.00000000E-02	 5.00000000E-03	 3.00000000E-02
	 1.00000000E-02	 1.00000000E-02	 3.00000000E-02
	 5.00000000E-03	 5.00000000E-03	 3.00000000E-02
	 5.00000000E-03	 1.00000000E-02	 3.00000000E-02
	 1.00000000E-02	 5.00000000E-03	 2.50000000E-02
	 1.00000000E-02	 7.50000000E-03	 3.00000000E-02
	 1.00000000E-02	 1.00000000E-02	 2.50000000E-02
	 7.50000000E-03	 5.00000000E-03	 3.00000000E-02
	 7.50000000E-03	 1.00000000E-02	 3.00000000E-02
	 5.00000000E-03	 5.00000000E-03	 2.50000000E-02
	 5.00000000E-03	 7.50000000E-03	 3.00000000E-02
	 5.00000000E-03	 1.00000000E-02	 2.50000000E-02
	 1.00000000E-02	 5.00000000E-03	 4.00000000E-02
	 1.00000000E-02	 1.00000000E-02	 4.00000000E-02
	 5.00000000E-03	 5.00000000E-03	 4.00000000E-02
	 5.00000000E-03	 1.00000000E-02	 4.00000000E-02
	 1.00000000E-02	 5.00000000E-03	 3.50000000E-02
	 1.00000000E-02	 7.50000000E-03	 4.00000000E-02
	 1.00000000E-02	 1.00000000E-02	 3.50000000E-02
	 7.50000000E-03	 5.00000000E-03	 4.00000000E-02
	 7.50000000E-03	 1.00000000E-02	 4.00000000E-02
	 5.00000000E-03	 5.00000000E-03	 3.50000000E-02
	 5.00000000E-03	 7.50000000E-03	 4.00000000E-02
	 5.00000000E-03	 1.00000000E-02	 3.50000000E-02
	 1.00000000E-02	 5.00000000E-03	 5.00000000E-02
	 1.00000000E-02	 1.00000000E-02	 5.00000000E-02
	 5.00000000E-03	 5.00000000E-03	 5.00000000E-02
	 5.00000000E-03	 1.00000000E-02	 5.00000000E-02
	 1.00000000E-02	 5.00000000E-03	 4.50000000E-02
	 1.00000000E-02	 7.50000000E-03	 5.00000000E-02
	 1.00000000E-02	 1.00000000E-02	 4.50000000E-02
	 7.50000000E-03	 5.00000000E-03	 5.00000000E-02
	 7.50000000E-03	 1.00000000E-02	 5.00000000E-02
	 5.00000000E-03	 5.00000000E-03	 4.50000000E-02
	 5.00000000E-03	 7.50000000E-03	 5.00000000E-02
	 5.00000000E-03	 1.00000000E-02	 4.50000000E-02
	 1.00000000E-02	 5.00000000E-03	 6.00000000E-02
	 1.00000000E-02	 1.00000000E-02	 6.00000000E-02
	 5.00000000E-03	 5.00000000E-03	 6.00000000E-02
	 5.00000000E-03	 1.00000000E-02	 6.00000000E-02
	 1.00000000E-02	 5.00000000E-03	 5.50000000E-02
	 1.00000000E-02	 7.50000000E-03	 6.00000000E-02
	 1.00000000E-02	 1.00000000E-02	 5.50000000E-02
	 7.50000000E-03	 5.00000000E-03	 6.00000000E-02
	 7.50000000E-03	 1.00000000E-02	 6.00000000E-02
	 5.00000000E-03	 5.00000000E-03	 5.50000000E-02
	 5.00000000E-03	 7.50000000E-03	 6.00000000E-02
	 5.00000000E-03	 1.00000000E-02	 5.50000000E-02
	 1.00000000E-02	 5.00000000E-03	 7.00000000E-02
	 1.00000000E-02	 1.00000000E-02	 7.00000000E-02
	 5.00000000E-03	 5.00000000E-03	 7.00000000E-02
	 5.00000000E-03	 1.00000000E-02	 7.00000000E-02
	 1.00000000E-02	 5.00000000E-03	 6.50000000E-02
	 1.00000000E-02	 7.50000000E-03	 7.00000000E-02
	 1.00000000E-02	 1.00000000E-02	 6.50000000E-02
	 7.50000000E-03	 5.00000000E-03	 7.00000000E-02
	 7.50000000E-03	 1.00000000E-02	 7.00000000E-02
	 5.00000000E-03	 5.00000000E-03	 6.50000000E-02
	 5.00000000E-03	 7.50000000E-03	 7.00000000E-02
	 5.00000000E-03	 1.00000000E-02	 6.50000000E-02
	 1.00000000E-02	 5.00000000E-03	 8.00000000E-02
	 1.00000000E-02	 1.00000000E-02	 8.00000000E-02
	 5.00000000E-03	 5.00000000E-03	 8.00000000E-02
	 5.00000000E-03	 1.00000000E-02	 8.00000000E-02
	 1.00000000E-02	 5.00000000E-03	 7.50000000E-02
	 1.00000000E-02	 7.50000000E-03	 8.00000000E-02
	 1.00000000E-02	 1.00000000E-02	 7.50000000E-02
	 7.50000000E-03	 5.00000000E-03	 8.00000000E-02
	 7.50000000E-03	 1.00000000E-02	 8.00000000E-02
	 5.00000000E-03	 5.00000000E-03	 7.50000000E-02
	 5.00000000E-03	 7.50000000E-03	 8.00000000E-02
	 5.00000000E-03	 1.00000000E-02	 7.50000000E-02
	 1.00000000E-02	 5.00000000E-03	 9.00000000E-02
	 1.00000000E-02	 1.00000000E-02	 9.00000000E-02
	 5.00000000E-03	 5.00000000E-03	 9.00000000E-02
	 5.00000000E-03	 1.00000000E-02	 9.00000000E-02
	 1.00000000E-02	 5.00000000E-03	 8.50000000E-02
	 1.00000000E-02	 7.50000000E-03	 9.00000000E-02
	 1.00000000E-02	 1.00000000E-02	 8.50000000E-02
	 7.50000000E-03	 5.00000000E-03	 9.00000000E-02
	 7.50000000E-03	 1.00000000E-02	 9.00000000E-02
	 5.00000000E-03	 5.00000000E-03	 8.50000000E-02
	 5.00000000E-03	 7.50000000E-03	 9.00000000E-02
	 5.00000000E-03	 1.00000000E-02	 8.50000000E-02
	 1.00000000E-02	 5.00000000E-03	 1.00000000E-01
	 1.00000000E-02	 1.00000000E-02	 1.00000000E-01
	 5.00000000E-03	 5.00000000E-03	 1.00000000E-01
	 5.00000000E-03	 1.00000000E-02	 1.00000000E-01
	 1.00000000E-02	 5.00000000E-03	 9.50000000E-02
	 1.00000000E-02	 7.50000000E-03	 1.00000000E-01
	 1.00000000E-02	 1.00000000E-02	 9.50000000E-02
	 7.50000000E-03	 5.00000000E-03	 1.00000000E-01
	 7.50000000E-03	 1.00000000E-02	 1.00000000E-01
	 5.00000000E-03	 5.00000000E-03	 9.50000000E-02
	 5.00000000E-03	 7.50000000E-03	 1.00000000E-01
	 5.00000000E-03	 1.00000000E-02	 9.50000000E-02
	 0.00000000E+00	 1.00000000E-02	 0.00000000E+00
	 0.00000000E+00	 5.00000000E-03	 0.00000000E+00
	 0.00000000E+00	 5.00000000E-03	 1.00000000E-02
	 0.00000000E+00	 1.00000000E-02	 1.00000000E-02
	 2.50000000E-03	 1.00000000E-02	 0.00000000E+00
	 2.50000000E-03	 5.00000000E-03	 0.00000000E+00
	 2.50000000E-03	 5.00000000E-03	 1.00000000E-02
	 2.50000000E-03	 1.00000000E-02	 1.00000000E-02
	 0.00000000E+00	 7.50000000E-03	 0.00000000E+00
	 0.00000000E+00	 5.00000000E-03	 5.00000000E-03
	 0.00000000E+00	 7.50000000E-03	 1.00000000E-02
	 0.00000000E+00	 1.00000000E-02	 5.00000000E-03
	 0.00000000E+00	 5.00000000E-03	 2.00000000E-02
	 0.00000000E+00	 1.00000000E-02	 2.00000000E-02
	 2.50000000E-03	 5.00000000E-03	 2.00000000E-02
	 2.50000000E-03	 1.00000000E-02	 2.00000000E-02
	 0.00000000E+00	 5.00000000E-03	 1.50000000E-02
	 0.00000000E+00	 7.50000000E-03	 2.00000000E-02
	 0.00000000E+00	 1.00000000E-02	 1.50000000E-02
	 0.00000000E+00	 5.00000000E-03	 3.00000000E-02
	 0.00000000E+00	 1.00000000E-02	 3.00000000E-02
	 2.50000000E-03	 5.00000000E-03	 3.00000000E-02
	 2.50000000E-03	 1.00000000E-02	 3.00000000E-02
	 0.00000000E+00	 5.00000000E-03	 2.50000000E-02
	 0.00000000E+00	 7.50000000E-03	 3.00000000E-02
	 0.00000000E+00	 1.00000000E-02	 2.50000000E-02
	 0.00000000E+00	 5.00000000E-03	 4.00000000E-02
	 0.00000000E+00	 1.00000000E-02	 4.00000000E-02
	 2.50000000E-03	 5.00000000E-03	 4.00000000E-02
	 2.50000000E-03	 1.00000000E-02	 4.00000000E-02
	 0.00000000E+00	 5.00000000E-03	 3.50000000E-02
	 0.00000000E+00	 7.50000000E-03	 4.00000000E-02
	 0.00000000E+00	 1.00000000E-02	 3.50000000E-02
	 0.00000000E+00	 5.00000000E-03	 5.00000000E-02
	 0.00000000E+00	 1.00000000E-02	 5.00000000E-02
	 2.50000000E-03	 5.00000000E-03	 5.00000000E-02
	 2.50000000E-03	 1.00000000E-02	 5.00000000E-02
	 0.00000000E+00	 5.00000000E-03	 4.50000000E-02
	 0.00000000E+00	 7.50000000E-03	 5.00000000E-02
	 0.00000000E+00	 1.00000000E-02	 4.50000000E-02
	 0.00000000E+00	 5.00000000E-03	 6.00000000E-02
	 0.00000000E+00	 1.00000000E-02	 6.00000000E-02
	 2.50000000E-03	 5.00000000E-03	 6.00000000E-02
	 2.50000000E-03	 1.00000000E-02	 6.00000000E-02
	 0.00000000E+00	 5.00000000E-03	 5.50000000E-02
	 0.00000000E+00	 7.50000000E-03	 6.00000000E-02
	 0.00000000E+00	 1.00000000E-02	 5.50000000E-02
	 0.00000000E+00	 5.00000000E-03	 7.00000000E-02
	 0.00000000E+00	 1.00000000E-02	 7.00000000E-02
	 2.50000000E-03	 5.00000000E-03	 7.00000000E-02
	 2.50000000E-03	 1.00000000E-02	 7.00000000E-02
	 0.00000000E+00	 5.00000000E-03	 6.50000000E-02
	 0.00000000E+00	 7.50000000E-03	 7.00000000E-02
	 0.00000000E+00	 1.00000000E-02	 6.50000000E-02
	 0.00000000E+00	 5.00000000E-03	 8.00000000E-02
	 0.00000000E+00	 1.00000000E-02	 8.00000000E-02
	 2.50000000E-03	 5.00000000E-03	 8.00000000E-02
	 2.50000000E-03	 1.00000000E-02	 8.00000000E-02
	 0.00000000E+00	 5.00000000E-03	 7.50000000E-02
	 0.00000000E+00	 7.50000000E-03	 8.00000000E-02
	 0.00000000E+00	 1.00000000E-02	 7.50000000E-02
	 0.00000000E+00	 5.00000000E-03	 9.00000000E-02
	 0.00000000E+00	 1.00000000E-02	 9.00000000E-02
	 2.50000000E-03	 5.00000000E-03	 9.00000000E-02
	 2.50000000E-03	 1.00000000E-02	 9.00000000E-02
	 0.00000000E+00	 5.00000000E-03	 8.50000000E-02
	 0.00000000E+00	 7.50000000E-03	 9.00000000E-02
	 0.00000000E+00	 1.00000000E-02	 8.50000000E-02
	 0.00000000E+00	 5.00000000E-03	 1.00000000E-01
	 0.00000000E+00	 1.00000000E-02	 1.00000000E-01
	 2.50000000E-03	 5.00000000E-03	 1.00000000E-01
	 2.50000000E-03	 1.00000000E-02	 1.00000000E-01
	 0.00000000E+00	 5.00000000E-03	 9.50000000E-02
	 0.00000000E+00	 7.50000000E-03	 1.00000000E-01
	 0.00000000E+00	 1.00000000E-02	 9.50000000E-02
	 1.00000000E-02	 0.00000000E+00	 0.00000000E+00
	 1.00000000E-02	 0.00000000E+00	 1.00000000E-02
	 5.00000000E-03	 0.00000000E+00	 0.00000000E+00
	 5.00000000E-03	 0.00000000E+00	 1.00000000E-02
	 1.00000000E-02	 2.50000000E-03	 0.00000000E+00
	 1.00000000E-02	 0.00000000E+00	 5.00000000E-03
	 1.00000000E-02	 2.50000000E-03	 1.00000000E-02
	 7.50000000E-03	 0.00000000E+00	 0.00000000E+00
	 7.50000000E-03	 0.00000000E+00	 1.00000000E-02
	 5.00000000E-03	 2.50000000E-03	 0.00000000E+00
	 5.00000000E-03	 0.00000000E+00	 5.00000000E-03
	 5.00000000E-03	 2.50000000E-03	 1.00000000E-02
	 1.00000000E-02	 0.00000000E+00	 2.00000000E-02
	 5.00000000E-03	 0.00000000E+00	 2.00000000E-02
	 1.00000000E-02	 0.00000000E+00	 1.50000000E-02
	 1.00000000E-02	 2.50000000E-03	 2.00000000E-02
	 7.50000000E-03	 0.00000000E+00	 2.00000000E-02
	 5.00000000E-03	 0.00000000E+00	 1.50000000E-02
	 5.00000000E-03	 2.50000000E-03	 2.00000000E-02
	 1.00000000E-02	 0.00000000E+00	 3.00000000E-02
	 5.00000000E-03	 0.00000000E+00	 3.00000000E-02
	 1.00000000E-02	 0.00000000E+00	 2.50000000E-02
	 1.00000000E-02	 2.50000000E-03	 3.00000000E-02
	 7.50000000E-03	 0.00000000E+00	 3.00000000E-02
	 5.00000000E-03	 0.00000000E+00	 2.50000000E-02
	 5.00000000E-03	 2.50000000E-03	 3.00000000E-02
	 1.00000000E-02	 0.00000000E+00	 4.00000000E-02
	 5.00000000E-03	 0.00000000E+00	 4.00000000E-02
	 1.00000000E-02	 0.00000000E+00	 3.50000000E-02
	 1.00000000E-02	 2.50000000E-03	 4.00000000E-02
	 7.50000000E-03	 0.00000000E+00	 4.00000000E-02
	 5.00000000E-03	 0.00000000E+00	 3.50000000E-02
	 5.00000000E-03	 2.50000000E-03	 4.00000000E-02
	 1.00000000E-02	 0.00000000E+00	 5.00000000E-02
	 5.00000000E-03	 0.00000000E+00	 5.00000000E-02
	 1.00000000E-02	 0.00000000E+00	 4.50000000E-02
	 1.00000000E-02	 2.50000000E-03	 5.00000000E-02
	 7.50000000E-03	 0.00000000E+00	 5.00000000E-02
	 5.00000000E-03	 0.00000000E+00	 4.50000000E-02
	 5.00000000E-03	 2.50000000E-03	 5.00000000E-02
	 1.00000000E-02	 0.00000000E+00	 6.00000000E-02
	 5.00000000E-03	 0.00000000E+00	 6.00000000E-02
	 1.00000000E-02	 0.00000000E+00	 5.50000000E-02
	 1.00000000E-02	 2.50000000E-03	 6.00000000E-02
	 7.50000000E-03	 0.00000000E+00	 6.00000000E-02
	 5.00000000E-03	 0.00000000E+00	 5.50000000E-02
	 5.00000000E-03	 2.50000000E-03	 6.00000000E-02
	 1.00000000E-02	 0.00000000E+00	 7.00000000E-02
	 5.00000000E-03	 0.00000000E+00	 7.00000000E-02
	 1.00000000E-02	 0.00000000E+00	 6.50000000E-02
	 1.00000000E-02	 2.50000000E-03	 7.00000000E-02
	 7.50000000E-03	 0.00000000E+00	 7.00000000E-02
	 5.00000000E-03	 0.00000000E+00	 6.50000000E-02
	 5.00000000E-03	 2.50000000E-03	 7.00000000E-02
	 1.00000000E-02	 0.00000000E+00	 8.00000000E-02
	 5.00000000E-03	 0.00000000E+00	 8.00000000E-02
	 1.00000000E-02	 0.00000000E+00	 7.50000000E-02
	 1.00000000E-02	 2.50000000E-03	 8.00000000E-02
	 7.50000000E-03	 0.00000000E+00	 8.00000000E-02
	 5.00000000E-03	 0.00000000E+00	 7.50000000E-02
	 5.00000000E-03	 2.50000000E-03	 8.00000000E-02
	 1.00000000E-02	 0.00000000E+00	 9.00000000E-02
	 5.00000000E-03	 0.00000000E+00	 9.00000000E-02
	 1.00000000E-02	 0.00000000E+00	 8.50000000E-02
	 1.00000000E-02	 2.50000000E-03	 9.00000000E-02
	 7.50000000E-03	 0.00000000E+00	 9.00000000E-02
	 5.00000000E-03	 0.00000000E+00	 8.50000000E-02
	 5.00000000E-03	 2.50000000E-03	 9.00000000E-02
	 1.00000000E-02	 0.00000000E+00	 1.00000000E-01
	 5.00000000E-03	 0.00000000E+00	 1.00000000E-01
	 1.00000000E-02	 0.00000000E+00	 9.50000000E-02
	 1.00000000E-02	 2.50000000E-03	 1.00000000E-01
	 7.50000000E-03	 0.00000000E+00	 1.00000000E-01
	 5.00000000E-03	 0.00000000E+00	 9.50000000E-02
	 5.00000000E-03	 2.50000000E-03	 1.00000000E-01
	 0.00000000E+00	 0.00000000E+00	 0.00000000E+00
	 0.00000000E+00	 0.00000000E+00	 1.00000000E-02
	 2.50000000E-03	 0.00000000E+00	 0.00000000E+00
	 2.50000000E-03	 0.00000000E+00	 1.00000000E-02
	 0.00000000E+00	 2.50000000E-03	 0.00000000E+00
	 0.00000000E+00	 0.00000000E+00	 5.00000000E-03
	 0.00000000E+00	 2.50000000E-03	 1.00000000E-02
	 0.00000000E+00	 0.00000000E+00	 2.00000000E-02
	 2.50000000E-03	 0.00000000E+00	 2.00000000E-02
	 0.00000000E+00	 0.00000000E+00	 1.50000000E-02
	 0.00000000E+00	 2.50000000E-03	 2.00000000E-02
	 0.00000000E+00	 0.00000000E+00	 3.00000000E-02
	 2.50000000E-03	 0.00000000E+00	 3.00000000E-02
	 0.00000000E+00	 0.00000000E+00	 2.50000000E-02
	 0.00000000E+00	 2.50000000E-03	 3.00000000E-02
	 0.00000000E+00	 0.00000000E+00	 4.00000000E-02
	 2.50000000E-03	 0.00000000E+00	 4.00000000E-02
	 0.00000000E+00	 0.00000000E+00	 3.50000000E-02
	 0.00000000E+00	 2.50000000E-03	 4.00000000E-02
	 0.00000000E+00	 0.00000000E+00	 5.00000000E-02
	 2.50000000E-03	 0.00000000E+00	 5.00000000E-02
	 0.00000000E+00	 0.00000000E+00	 4.50000000E-02
	 0.00000000E+00	 2.50000000E-03	 5.00000000E-02
	 0.00000000E+00	 0.00000000E+00	 6.00000000E-02
	 2.50000000E-03	 0.00000000E+00	 6.00000000E-02
	 0.00000000E+00	 0.00000000E+00	 5.50000000E-02
	 0.00000000E+00	 2.50000000E-03	 6.00000000E-02
	 0.00000000E+00	 0.00000000E+00	 7.00000000E-02
	 2.50000000E-03	 0.00000000E+00	 7.00000000E-02
	 0.00000000E+00	 0.00000000E+00	 6.50000000E-02
	 0.00000000E+00	 2.50000000E-03	 7.00000000E-02
	 0.00000000E+00	 0.00000000E+00	 8.00000000E-02
	 2.50000000E-03	 0.00000000E+00	 8.00000000E-02
	 0.00000000E+00	 0.00000000E+00	 7.50000000E-02
	 0.00000000E+00	 2.50000000E-03	 8.00000000E-02
	 0.00000000E+00	 0.00000000E+00	 9.00000000E-02
	 2.50000000E-03	 0.00000000E+00	 9.00000000E-02
	 0.00000000E+00	 0.00000000E+00	 8.50000000E-02
	 0.00000000E+00	 2.50000000E-03	 9.00000000E-02
	 0.00000000E+00	 0.00000000E+00	 1.00000000E-01
	 2.50000000E-03	 0.00000000E+00	 1.00000000E-01
	 0.00000000E+00	 0.00000000E+00	 9.50000000E-02
	 0.00000000E+00	 2.50000000E-03	 1.00000000E-01

CELLS 40 840
	20 0 1 2 3 4 5 6 7 8 9 10 11 16 17 18 19 12 13 14 15 
	20 3 2 20 21 7 6 22 23 10 24 25 26 18 29 30 31 15 14 27 28 
	20 21 20 32 33 23 22 34 35 25 36 37 38 30 41 42 43 28 27 39 40 
	20 33 32 44 45 35 34 46 47 37 48 49 50 42 53 54 55 40 39 51 52 
	20 45 44 56 57 47 46 58 59 49 60 61 62 54 65 66 67 52 51 63 64 
	20 57 56 68 69 59 58 70 71 61 72 73 74 66 77 78 79 64 63 75 76 
	20 69 68 80 81 71 70 82 83 73 84 85 86 78 89 90 91 76 75 87 88 
	20 81 80 92 93 83 82 94 95 85 96 97 98 90 101 102 103 88 87 99 100 
	20 93 92 104 105 95 94 106 107 97 108 109 110 102 113 114 115 100 99 111 112 
	20 105 104 116 117 107 106 118 119 109 120 121 122 114 125 126 127 112 111 123 124 
	20 4 5 6 7 128 129 130 131 16 17 18 19 136 137 138 139 132 133 134 135 
	20 7 6 22 23 131 130 140 141 18 29 30 31 138 144 145 146 135 134 142 143 
	20 23 22 34 35 141 140 147 148 30 41 42 43 145 151 152 153 143 142 149 150 
	20 35 34 46 47 148 147 154 155 42 53 54 55 152 158 159 160 150 149 156 157 
	20 47 46 58 59 155 154 161 162 54 65 66 67 159 165 166 167 157 156 163 164 
	20 59 58 70 71 162 161 168 169 66 77 78 79 166 172 173 174 164 163 170 171 
	20 71 70 82 83 169 168 175 176 78 89 90 91 173 179 180 181 171 170 177 178 
	20 83 82 94 95 176 175 182 183 90 101 102 103 180 186 187 188 178 177 184 185 
	20 95 94 106 107 183 182 189 190 102 113 114 115 187 193 194 195 185 184 191 192 
	20 107 106 118 119 190 189 196 197 114 125 126 127 194 200 201 202 192 191 198 199 
	20 1 203 204 2 5 205 206 6 207 208 209 9 212 213 214 17 13 210 211 14 
	20 2 204 215 20 6 206 216 22 209 217 218 24 214 220 221 29 14 211 219 27 
	20 20 215 222 32 22 216 223 34 218 224 225 36 221 227 228 41 27 219 226 39 
	20 32 222 229 44 34 223 230 46 225 231 232 48 228 234 235 53 39 226 233 51 
	20 44 229 236 56 46 230 237 58 232 238 239 60 235 241 242 65 51 233 240 63 
	20 56 236 243 68 58 237 244 70 239 245 246 72 242 248 249 77 63 240 247 75 
	20 68 243 250 80 70 244 251 82 246 252 253 84 249 255 256 89 75 247 254 87 
	20 80 250 257 92 82 251 258 94 253 259 260 96 256 262 263 101 87 254 261 99 
	20 92 257 264 104 94 258 265 106 260 266 267 108 263 269 270 113 99 261 268 111 
	20 104 264 271 116 106 265 272 118 267 273 274 120 270 276 277 125 111 268 275 123 
	20 5 205 206 6 129 278 279 130 212 213 214 17 282 283 284 137 133 280 281 134 
	20 6 206 216 22 130 279 285 140 214 220 221 29 284 287 288 144 134 281 286 142 
	20 22 216 223 34 140 285 289 147 221 227 228 41 288 291 292 151 142 286 290 149 
	20 34 223 230 46 147 289 293 154 228 234 235 53 292 295 296 158 149 290 294 156 
	20 46 230 237 58 154 293 297 161 235 241 242 65 296 299 300 165 156 294 298 163 
	20 58 237 244 70 161 297 301 168 242 248 249 77 300 303 304 172 163 298 302 170 
	20 70 244 251 82 168 301 305 175 249 255 256 89 304 307 308 179 170 302 306 177 
	20 82 251 258 94 175 305 309 182 256 262 263 101 308 311 312 186 177 306 310 184 
	20 94 258 265 106 182 309 313 189 263 269 270 113 312 315 316 193 184 310 314 191 
	20 106 265 272 118 189 313 317 196 270 276 277 125 316 319 320 200 191 314 318 198 

CELL_TYPES 40
	25
	25
	25
	25
	25
	25
	25
	25
	25
	25
	25
	25
	25
	25
	25
	25
	25
	25
	25
	25
	25
	25
	25
	25
	25
	25
	25
	25
	25
	25
	25
	25
	25
	25
	25
	25
	25
	25
	25
	25

POINT_DATA 321
FIELD U 1
	U 3 321 double
		 0.00000000E+00	 0.00000000E+00	 0.00000000E+00
		 0.00000000E+00	 0.00000000E+00	 0.00000000E+00
		 4.73300000E+00	-1.01289000E+00	-4.60958000E-01
		 5.05866000E+00	-1.46727000E+00	-3.05739000E-01
		 0.00000000E+00	 0.00000000E+00	 0.00000000E+00
		 0.00000000E+00	 0.00000000E+00	 0.00000000E+00
		 5.01942000E+00	-9.73287000E-01	 3.77476000E-15
		 5.22366000E+00	-9.17749000E-01	 8.93818000E-02
		 0.00000000E+00	 0.00000000E+00	 0.00000000E+00
		 2.72985000E+00	-5.25671000E-01	-1.06652000E+00
		 4.84126000E+00	-1.25037000E+00	-4.82144000E-01
		 2.70677000E+00	-4.57521000E-01	-8.09764000E-01
		 0.00000000E+00	 0.00000000E+00	 0.00000000E+00
		 0.00000000E+00	 0.00000000E+00	 0.00000000E+00
		 4.93022000E+00	-9.83694000E-01	-1.90100000E-02
		 5.19286000E+00	-1.17656000E+00	 1.49074000E-01
		 0.00000000E+00	 0.00000000E+00	 0.00000000E+00
		 2.70482000E+00	-5.24477000E-01	-2.74780000E-15
		 5.07309000E+00	-9.55991000E-01	 3.68613000E-03
		 2.71098000E+00	-5.29330000E-01	 2.06803000E-01
		 1.42243000E+00	-3.01076000E-01	 2.86230000E+00
		 1.52875000E+00	-4.43398000E-01	 2.23289000E+00
		 1.49210000E+00	-2.89324000E-01	 4.61089000E-15
		 1.55270000E+00	-2.75816000E-01	-5.55013000E-01
		 4.42119000E+00	-9.29008000E-01	 1.48532000E+00
		 1.43852000E+00	-3.78285000E-01	 2.67697000E+00
		 4.78147000E+00	-1.41889000E+00	 1.16422000E+00
		 1.49311000E+00	-2.90297000E-01	 1.19972000E+00
		 1.57349000E+00	-3.41366000E-01	 5.37365000E-01
		 4.57294000E+00	-8.86714000E-01	 5.99520000E-15
		 1.49711000E+00	-2.89521000E-01	-2.32631000E-01
		 4.79106000E+00	-8.57287000E-01	-2.88010000E-01
		-4.29952000E+00	 9.55470000E-01	 4.55399000E-01
		-4.77737000E+00	 1.58861000E+00	 3.56943000E-01
		-4.62714000E+00	 8.97222000E-01	 7.21645000E-15
		-4.92753000E+00	 8.33696000E-01	-8.83038000E-02
		-2.29835000E+00	 5.05436000E-01	 2.31540000E+00
		-4.42392000E+00	 1.29297000E+00	 4.21506000E-01
		-2.55932000E+00	 8.54563000E-01	 1.79023000E+00
		-4.57608000E+00	 9.08129000E-01	 1.99388000E-01
		-4.95907000E+00	 1.17039000E+00	 9.73483000E-02
		-2.43764000E+00	 4.72670000E-01	 9.49241000E-15
		-4.68339000E+00	 8.87323000E-01	-3.86623000E-02
		-2.60662000E+00	 4.45660000E-01	-4.48966000E-01
		-3.24891000E-02	 8.37606000E-03	-2.73183000E+00
		-3.97118000E-02	 1.79322000E-02	-2.11865000E+00
		-3.79526000E-02	 7.35918000E-03	 1.04361000E-14
		-4.31968000E-02	 6.29977000E-03	 5.29714000E-01
		-3.33386000E+00	 7.25310000E-01	-1.66934000E+00
		-3.53674000E-02	 1.33410000E-02	-2.55752000E+00
		-3.68172000E+00	 1.18823000E+00	-1.28355000E+00
		-3.60442000E-02	 7.64400000E-03	-1.12475000E+00
		-4.23051000E-02	 1.23553000E-02	-4.80590000E-01
		-3.51996000E+00	 6.82536000E-01	 3.98119000E-15
		-3.94215000E-02	 6.98913000E-03	 2.18094000E-01
		-3.74056000E+00	 6.46450000E-01	 3.23691000E-01
		 4.38030000E+00	-9.69097000E-01	 3.39872000E-01
		 4.84870000E+00	-1.59144000E+00	 2.64402000E-01
		 4.70318000E+00	-9.11968000E-01	 4.66294000E-15
		 4.99781000E+00	-8.49359000E-01	-6.59027000E-02
		 3.31046000E+00	-7.17368000E-01	-1.73634000E+00
		 4.50440000E+00	-1.30040000E+00	 3.17438000E-01
		 3.64551000E+00	-1.16391000E+00	-1.33633000E+00
		 4.65060000E+00	-9.22803000E-01	 1.42088000E-01
		 5.02616000E+00	-1.18228000E+00	 6.29802000E-02
		 3.48786000E+00	-6.76311000E-01	 2.17604000E-14
		 4.75906000E+00	-9.01772000E-01	-2.75514000E-02
		 3.69959000E+00	-6.41913000E-01	 3.36684000E-01
		-1.11314000E+00	 2.44952000E-01	 2.68928000E+00
		-1.22754000E+00	 3.97219000E-01	 2.08807000E+00
		-1.19178000E+00	 2.31091000E-01	 1.77636000E-14
		-1.26326000E+00	 2.15842000E-01	-5.21463000E-01
		 2.49948000E+00	-5.42514000E-01	 2.17622000E+00
		-1.14325000E+00	 3.25985000E-01	 2.51630000E+00
		 2.75565000E+00	-8.83941000E-01	 1.67678000E+00
		-1.17920000E+00	 2.33690000E-01	 1.11319000E+00
		-1.27064000E+00	 2.97014000E-01	 4.81652000E-01
		 2.63553000E+00	-5.11040000E-01	-4.66294000E-15
		-1.20518000E+00	 2.28652000E-01	-2.15852000E-01
		 2.79784000E+00	-4.84661000E-01	-4.21979000E-01
		-4.16739000E+00	 9.17361000E-01	-9.56802000E-01
		-4.59640000E+00	 1.48813000E+00	-7.38673000E-01
		-4.46275000E+00	 8.65347000E-01	 1.59872000E-14
		-4.73100000E+00	 8.08075000E-01	 1.85528000E-01
		-3.99685000E+00	 8.64231000E-01	 1.22380000E+00
		-4.27998000E+00	 1.22134000E+00	-8.99047000E-01
		-4.39450000E+00	 1.39456000E+00	 9.44626000E-01
		-4.41606000E+00	 8.75033000E-01	-3.84447000E-01
		-4.75894000E+00	 1.11235000E+00	-1.54458000E-01
		-4.20622000E+00	 8.15605000E-01	 1.95399000E-14
		-4.51270000E+00	 8.56294000E-01	 7.45460000E-02
		-4.45700000E+00	 7.75008000E-01	-2.37299000E-01
		 1.91819000E+00	-4.40123000E-01	-2.17515000E+00
		 2.17865000E+00	-7.82696000E-01	-1.67491000E+00
		 2.10044000E+00	-4.07285000E-01	-1.77636000E-15
		 2.26980000E+00	-3.71945000E-01	 4.21770000E-01
		-1.60662000E+00	 3.40298000E-01	-2.34840000E+00
		 1.98872000E+00	-6.22871000E-01	-2.04424000E+00
		-1.73930000E+00	 5.18250000E-01	-1.80117000E+00
		 2.06842000E+00	-4.13864000E-01	-8.67597000E-01
		 2.28054000E+00	-5.57592000E-01	-3.41455000E-01
		-1.67359000E+00	 3.24516000E-01	 2.22045000E-15
		 2.13437000E+00	-4.01077000E-01	 1.68231000E-01
		-1.75498000E+00	 3.11531000E-01	 4.55364000E-01
		 2.74241000E+00	-6.58655000E-01	 2.37344000E+00
		 3.21668000E+00	-1.27729000E+00	 1.88012000E+00
		 3.07498000E+00	-5.96251000E-01	-1.26565000E-14
		 3.39680000E+00	-5.31765000E-01	-4.60220000E-01
		 3.90511000E+00	-8.74038000E-01	-1.40497000E-01
		 2.88125000E+00	-9.87177000E-01	 2.18017000E+00
		 4.39881000E+00	-1.52958000E+00	-8.59185000E-02
		 3.00543000E+00	-6.10196000E-01	 1.09700000E+00
		 3.40064000E+00	-8.77894000E-01	 5.90784000E-01
		 4.18446000E+00	-8.11384000E-01	-2.09555000E-14
		 3.14689000E+00	-5.82766000E-01	-2.12712000E-01
		 4.50757000E+00	-7.57218000E-01	 2.72430000E-02
		-5.80329000E+00	 1.09535000E+00	 4.49271000E+00
		-5.73554000E+00	 1.08305000E+00	 3.55455000E+00
		-5.73002000E+00	 1.11108000E+00	-2.42029000E-14
		-5.64890000E+00	 1.12528000E+00	-8.71156000E-01
		-1.09151000E+00	 1.49780000E-01	 3.95284000E+00
		-5.77258000E+00	 1.08155000E+00	 4.08156000E+00
		-8.49047000E-01	-1.59797000E-01	 3.12254000E+00
		-5.77795000E+00	 1.10282000E+00	 2.16736000E+00
		-5.69717000E+00	 1.11255000E+00	 1.22705000E+00
		-9.43829000E-01	 1.83013000E-01	-4.84057000E-14
		-5.68747000E+00	 1.12037000E+00	-4.20260000E-01
		-7.72441000E-01	 2.11649000E-01	-7.66473000E-01
		 0.00000000E+00	 0.00000000E+00	 0.00000000E+00
		 0.00000000E+00	 0.00000000E+00	 0.00000000E+00
		 4.73300000E+00	-1.01289000E+00	 4.60958000E-01
		 4.86267000E+00	-4.56518000E-01	 4.52829000E-01
		 0.00000000E+00	 0.00000000E+00	 0.00000000E+00
		 0.00000000E+00	 0.00000000E+00	 0.00000000E+00
		 4.93022000E+00	-9.83694000E-01	 1.90100000E-02
		 5.09476000E+00	-6.82342000E-01	 3.35628000E-02
		 0.00000000E+00	 0.00000000E+00	 0.00000000E+00
		 2.72985000E+00	-5.25671000E-01	 1.06652000E+00
		 4.74543000E+00	-7.44445000E-01	 4.59745000E-01
		 2.73390000E+00	-5.97448000E-01	 1.19934000E+00
		 1.42243000E+00	-3.01076000E-01	-2.86230000E+00
		 1.46953000E+00	-1.37981000E-01	-3.30712000E+00
		 1.49311000E+00	-2.90297000E-01	-1.19972000E+00
		 1.54400000E+00	-2.11627000E-01	-1.65806000E+00
		 4.42119000E+00	-9.29008000E-01	-1.48532000E+00
		 1.41336000E+00	-2.26210000E-01	-3.10267000E+00
		 4.58332000E+00	-3.96984000E-01	-1.72431000E+00
		-4.29952000E+00	 9.55470000E-01	-4.55399000E-01
		-4.51051000E+00	 2.12353000E-01	-5.28667000E-01
		-4.57608000E+00	 9.08129000E-01	-1.99388000E-01
		-4.82554000E+00	 5.20825000E-01	-2.74805000E-01
		-2.29835000E+00	 5.05436000E-01	-2.31540000E+00
		-4.29797000E+00	 6.04310000E-01	-4.93668000E-01
		-2.41494000E+00	 1.09967000E-01	-2.65151000E+00
		-3.24891000E-02	 8.37606000E-03	 2.73183000E+00
		-3.55888000E-02	-3.33111000E-03	 3.13793000E+00
		-3.60442000E-02	 7.64400000E-03	 1.12475000E+00
		-4.02347000E-02	 9.30959000E-04	 1.54872000E+00
		-3.33386000E+00	 7.25310000E-01	 1.66934000E+00
		-3.31522000E-02	 2.66380000E-03	 2.95101000E+00
		-3.49059000E+00	 2.02517000E-01	 1.90106000E+00
		 4.38030000E+00	-9.69097000E-01	-3.39872000E-01
		 4.58627000E+00	-2.38045000E-01	-3.91605000E-01
		 4.65060000E+00	-9.22803000E-01	-1.42088000E-01
		 4.89488000E+00	-5.40437000E-01	-1.95816000E-01
		 3.31046000E+00	-7.17368000E-01	 1.73634000E+00
		 4.37994000E+00	-6.23330000E-01	-3.67619000E-01
		 3.46135000E+00	-2.14140000E-01	 1.97923000E+00
		-1.11314000E+00	 2.44952000E-01	-2.68928000E+00
		-1.16339000E+00	 6.63931000E-02	-3.09264000E+00
		-1.17920000E+00	 2.33690000E-01	-1.11319000E+00
		-1.23857000E+00	 1.40463000E-01	-1.53325000E+00
		 2.49948000E+00	-5.42514000E-01	-2.17622000E+00
		-1.11290000E+00	 1.60562000E-01	-2.90700000E+00
		 2.61478000E+00	-1.57408000E-01	-2.48347000E+00
		-4.16739000E+00	 9.17361000E-01	 9.56802000E-01
		-4.35589000E+00	 2.47761000E-01	 1.09404000E+00
		-4.41606000E+00	 8.75033000E-01	 3.84447000E-01
		-4.63863000E+00	 5.25391000E-01	 5.28806000E-01
		-3.99685000E+00	 8.64231000E-01	-1.22380000E+00
		-4.16617000E+00	 6.00887000E-01	 1.03154000E+00
		-4.17592000E+00	 2.67280000E-01	-1.39908000E+00
		 1.91819000E+00	-4.40123000E-01	 2.17515000E+00
		 2.03349000E+00	-3.40564000E-02	 2.48070000E+00
		 2.06842000E+00	-4.13864000E-01	 8.67597000E-01
		 2.20774000E+00	-2.00213000E-01	 1.19188000E+00
		-1.60662000E+00	 3.40298000E-01	 2.34840000E+00
		 1.91942000E+00	-2.47427000E-01	 2.34156000E+00
		-1.66637000E+00	 1.42125000E-01	 2.66771000E+00
		 2.74241000E+00	-6.58655000E-01	-2.37344000E+00
		 2.95332000E+00	 8.09042000E-02	-2.78463000E+00
		 3.00543000E+00	-6.10196000E-01	-1.09700000E+00
		 3.26856000E+00	-2.14538000E-01	-1.51546000E+00
		 3.90511000E+00	-8.74038000E-01	 1.40497000E-01
		 2.75262000E+00	-3.06008000E-01	-2.58858000E+00
		 4.12615000E+00	-1.23445000E-01	 1.27253000E-01
		-5.80329000E+00	 1.09535000E+00	-4.49271000E+00
		-5.74726000E+00	 1.14351000E+00	-5.26463000E+00
		-5.77795000E+00	 1.10282000E+00	-2.16736000E+00
		-5.70651000E+00	 1.12663000E+00	-2.96763000E+00
		-1.09151000E+00	 1.49780000E-01	-3.95284000E+00
		-5.77531000E+00	 1.12968000E+00	-4.89492000E+00
		-9.79779000E-01	 5.14414000E-01	-4.62478000E+00
		 0.00000000E+00	 0.00000000E+00	 0.00000000E+00
		 4.86267000E+00	-4.56518000E-01	-4.52829000E-01
		 0.00000000E+00	 0.00000000E+00	 0.00000000E+00
		 5.22366000E+00	-9.17749000E-01	-8.93818000E-02
		 0.00000000E+00	 0.00000000E+00	 0.00000000E+00
		 2.73390000E+00	-5.97448000E-01	-1.19934000E+00
		 4.74543000E+00	-7.44445000E-01	-4.59745000E-01
		 0.00000000E+00	 0.00000000E+00	 0.00000000E+00
		 5.09476000E+00	-6.82342000E-01	-3.35628000E-02
		 0.00000000E+00	 0.00000000E+00	 0.00000000E+00
		 2.71098000E+00	-5.29330000E-01	-2.06803000E-01
		 5.07309000E+00	-9.55991000E-01	-3.68613000E-03
		 1.46953000E+00	-1.37981000E-01	 3.30712000E+00
		 1.55270000E+00	-2.75816000E-01	 5.55013000E-01
		 4.58332000E+00	-3.96984000E-01	 1.72431000E+00