<?xml version="1.0"?>
<VTKFile type="UnstructuredGrid" version="0.1" byte_order="LittleEndian">
	<UnstructuredGrid>
		<Piece NumberOfPoints="1221" NumberOfCells="160">
			<Points>
				<DataArray type="Float64" NumberOfComponents="3" format="ascii">
					 1.00000000E-02	 1.00000000E-02	 0.00000000E+00
					 1.00000000E-02	 5.00000000E-03	 0.00000000E+00
					 1.00000000E-02	 5.00000000E-03	 5.00000000E-03
					 1.00000000E-02	 1.00000000E-02	 5.00000000E-03
					 5.00000000E-03	 1.00000000E-02	 0.00000000E+00
					 5.00000000E-03	 5.00000000E-03	 0.00000000E+00
					 5.00000000E-03	 5.00000000E-03	 5.00000000E-03
					 5.00000000E-03	 1.00000000E-02	 5.00000000E-03
					 1.00000000E-02	 7.50000000E-03	 0.00000000E+00
					 1.00000000E-02	 5.00000000E-03	 2.50000000E-03
					 1.00000000E-02	 7.50000000E-03	 5.00000000E-03
					 1.00000000E-02	 1.00000000E-02	 2.50000000E-03
					 7.50000000E-03	 1.00000000E-02	 0.00000000E+00
					 7.50000000E-03	 5.00000000E-03	 0.00000000E+00
					 7.50000000E-03	 5.00000000E-03	 5.00000000E-03
					 7.50000000E-03	 1.00000000E-02	 5.00000000E-03
					 5.00000000E-03	 7.50000000E-03	 0.00000000E+00
					 5.00000000E-03	 5.00000000E-03	 2.50000000E-03
					 5.00000000E-03	 7.50000000E-03	 5.00000000E-03
					 5.00000000E-03	 1.00000000E-02	 2.50000000E-03
					 1.00000000E-02	 5.00000000E-03	 1.00000000E-02
					 1.00000000E-02	 1.00000000E-02	 1.00000000E-02
					 5.00000000E-03	 5.00000000E-03	 1.00000000E-02
					 5.00000000E-03	 1.00000000E-02	 1.00000000E-02
					 1.00000000E-02	 5.00000000E-03	 7.50000000E-03
					 1.00000000E-02	 7.50000000E-03	 1.00000000E-02
					 1.00000000E-02	 1.00000000E-02	 7.50000000E-03
					 7.50000000E-03	 5.00000000E-03	 1.00000000E-02
					 7.50000000E-03	 1.00000000E-02	 1.00000000E-02
					 5.00000000E-03	 5.00000000E-03	 7.50000000E-03
					 5.00000000E-03	 7.50000000E-03	 1.00000000E-02
					 5.00000000E-03	 1.00000000E-02	 7.50000000E-03
					 1.00000000E-02	 5.00000000E-03	 1.50000000E-02
					 1.00000000E-02	 1.00000000E-02	 1.50000000E-02
					 5.00000000E-03	 5.00000000E-03	 1.50000000E-02
					 5.00000000E-03	 1.00000000E-02	 1.50000000E-02
					 1.00000000E-02	 5.00000000E-03	 1.25000000E-02
					 1.00000000E-02	 7.50000000E-03	 1.50000000E-02
					 1.00000000E-02	 1.00000000E-02	 1.25000000E-02
					 7.50000000E-03	 5.00000000E-03	 1.50000000E-02
					 7.50000000E-03	 1.00000000E-02	 1.50000000E-02
					 5.00000000E-03	 5.00000000E-03	 1.25000000E-02
					 5.00000000E-03	 7.50000000E-03	 1.50000000E-02
					 5.00000000E-03	 1.00000000E-02	 1.25000000E-02
					 1.00000000E-02	 5.00000000E-03	 2.00000000E-02
					 1.00000000E-02	 1.00000000E-02	 2.00000000E-02
					 5.00000000E-03	 5.00000000E-03	 2.00000000E-02
					 5.00000000E-03	 1.00000000E-02	 2.00000000E-02
					 1.00000000E-02	 5.00000000E-03	 1.75000000E-02
					 1.00000000E-02	 7.50000000E-03	 2.00000000E-02
					 1.00000000E-02	 1.00000000E-02	 1.75000000E-02
					 7.50000000E-03	 5.00000000E-03	 2.00000000E-02
					 7.50000000E-03	 1.00000000E-02	 2.00000000E-02
					 5.00000000E-03	 5.00000000E-03	 1.75000000E-02
					 5.00000000E-03	 7.50000000E-03	 2.00000000E-02
					 5.00000000E-03	 1.00000000E-02	 1.75000000E-02
					 1.00000000E-02	 5.00000000E-03	 2.50000000E-02
					 1.00000000E-02	 1.00000000E-02	 2.50000000E-02
					 5.00000000E-03	 5.00000000E-03	 2.50000000E-02
					 5.00000000E-03	 1.00000000E-02	 2.50000000E-02
					 1.00000000E-02	 5.00000000E-03	 2.25000000E-02
					 1.00000000E-02	 7.50000000E-03	 2.50000000E-02
					 1.00000000E-02	 1.00000000E-02	 2.25000000E-02
					 7.50000000E-03	 5.00000000E-03	 2.50000000E-02
					 7.50000000E-03	 1.00000000E-02	 2.50000000E-02
					 5.00000000E-03	 5.00000000E-03	 2.25000000E-02
					 5.00000000E-03	 7.50000000E-03	 2.50000000E-02
					 5.00000000E-03	 1.00000000E-02	 2.25000000E-02
					 1.00000000E-02	 5.00000000E-03	 3.00000000E-02
					 1.00000000E-02	 1.00000000E-02	 3.00000000E-02
					 5.00000000E-03	 5.00000000E-03	 3.00000000E-02
					 5.00000000E-03	 1.00000000E-02	 3.00000000E-02
					 1.00000000E-02	 5.00000000E-03	 2.75000000E-02
					 1.00000000E-02	 7.50000000E-03	 3.00000000E-02
					 1.00000000E-02	 1.00000000E-02	 2.75000000E-02
					 7.50000000E-03	 5.00000000E-03	 3.00000000E-02
					 7.50000000E-03	 1.00000000E-02	 3.00000000E-02
					 5.00000000E-03	 5.00000000E-03	 2.75000000E-02
					 5.00000000E-03	 7.50000000E-03	 3.00000000E-02
					 5.00000000E-03	 1.00000000E-02	 2.75000000E-02
					 1.00000000E-02	 5.00000000E-03	 3.50000000E-02
					 1.00000000E-02	 1.00000000E-02	 3.50000000E-02
					 5.00000000E-03	 5.00000000E-03	 3.50000000E-02
					 5.00000000E-03	 1.00000000E-02	 3.50000000E-02
					 1.00000000E-02	 5.00000000E-03	 3.25000000E-02
					 1.00000000E-02	 7.50000000E-03	 3.50000000E-02
					 1.00000000E-02	 1.00000000E-02	 3.25000000E-02
					 7.50000000E-03	 5.00000000E-03	 3.50000000E-02
					 7.50000000E-03	 1.00000000E-02	 3.50000000E-02
					 5.00000000E-03	 5.00000000E-03	 3.25000000E-02
					 5.00000000E-03	 7.50000000E-03	 3.50000000E-02
					 5.00000000E-03	 1.00000000E-02	 3.25000000E-02
					 1.00000000E-02	 5.00000000E-03	 4.00000000E-02
					 1.00000000E-02	 1.00000000E-02	 4.00000000E-02
					 5.00000000E-03	 5.00000000E-03	 4.00000000E-02
					 5.00000000E-03	 1.00000000E-02	 4.00000000E-02
					 1.00000000E-02	 5.00000000E-03	 3.75000000E-02
					 1.00000000E-02	 7.50000000E-03	 4.00000000E-02
					 1.00000000E-02	 1.00000000E-02	 3.75000000E-02
					 7.50000000E-03	 5.00000000E-03	 4.00000000E-02
					 7.50000000E-03	 1.00000000E-02	 4.00000000E-02
					 5.00000000E-03	 5.00000000E-03	 3.75000000E-02
					 5.00000000E-03	 7.50000000E-03	 4.00000000E-02
					 5.00000000E-03	 1.00000000E-02	 3.75000000E-02
					 1.00000000E-02	 5.00000000E-03	 4.50000000E-02
					 1.00000000E-02	 1.00000000E-02	 4.50000000E-02
					 5.00000000E-03	 5.00000000E-03	 4.50000000E-02
					 5.00000000E-03	 1.00000000E-02	 4.50000000E-02
					 1.00000000E-02	 5.00000000E-03	 4.25000000E-02
					 1.00000000E-02	 7.50000000E-03	 4.50000000E-02
					 1.00000000E-02	 1.00000000E-02	 4.25000000E-02
					 7.50000000E-03	 5.00000000E-03	 4.50000000E-02
					 7.50000000E-03	 1.00000000E-02	 4.50000000E-02
					 5.00000000E-03	 5.00000000E-03	 4.25000000E-02
					 5.00000000E-03	 7.50000000E-03	 4.50000000E-02
					 5.00000000E-03	 1.00000000E-02	 4.25000000E-02
					 1.00000000E-02	 5.00000000E-03	 5.00000000E-02
					 1.00000000E-02	 1.00000000E-02	 5.00000000E-02
					 5.00000000E-03	 5.00000000E-03	 5.00000000E-02
					 5.00000000E-03	 1.00000000E-02	 5.00000000E-02
					 1.00000000E-02	 5.00000000E-03	 4.75000000E-02
					 1.00000000E-02	 7.50000000E-03	 5.00000000E-02
					 1.00000000E-02	 1.00000000E-02	 4.75000000E-02
					 7.50000000E-03	 5.00000000E-03	 5.00000000E-02
					 7.50000000E-03	 1.00000000E-02	 5.00000000E-02
					 5.00000000E-03	 5.00000000E-03	 4.75000000E-02
					 5.00000000E-03	 7.50000000E-03	 5.00000000E-02
					 5.00000000E-03	 1.00000000E-02	 4.75000000E-02
					 1.00000000E-02	 5.00000000E-03	 5.50000000E-02
					 1.00000000E-02	 1.00000000E-02	 5.50000000E-02
					 5.00000000E-03	 5.00000000E-03	 5.50000000E-02
					 5.00000000E-03	 1.00000000E-02	 5.50000000E-02
					 1.00000000E-02	 5.00000000E-03	 5.25000000E-02
					 1.00000000E-02	 7.50000000E-03	 5.50000000E-02
					 1.00000000E-02	 1.00000000E-02	 5.25000000E-02
					 7.50000000E-03	 5.00000000E-03	 5.50000000E-02
					 7.50000000E-03	 1.00000000E-02	 5.50000000E-02
					 5.00000000E-03	 5.00000000E-03	 5.25000000E-02
					 5.00000000E-03	 7.50000000E-03	 5.50000000E-02
					 5.00000000E-03	 1.00000000E-02	 5.25000000E-02
					 1.00000000E-02	 5.00000000E-03	 6.00000000E-02
					 1.00000000E-02	 1.00000000E-02	 6.00000000E-02
					 5.00000000E-03	 5.00000000E-03	 6.00000000E-02
					 5.00000000E-03	 1.00000000E-02	 6.00000000E-02
					 1.00000000E-02	 5.00000000E-03	 5.75000000E-02
					 1.00000000E-02	 7.50000000E-03	 6.00000000E-02
					 1.00000000E-02	 1.00000000E-02	 5.75000000E-02
					 7.50000000E-03	 5.00000000E-03	 6.00000000E-02
					 7.50000000E-03	 1.00000000E-02	 6.00000000E-02
					 5.00000000E-03	 5.00000000E-03	 5.75000000E-02
					 5.00000000E-03	 7.50000000E-03	 6.00000000E-02
					 5.00000000E-03	 1.00000000E-02	 5.75000000E-02
					 1.00000000E-02	 5.00000000E-03	 6.50000000E-02
					 1.00000000E-02	 1.00000000E-02	 6.50000000E-02
					 5.00000000E-03	 5.00000000E-03	 6.50000000E-02
					 5.00000000E-03	 1.00000000E-02	 6.50000000E-02
					 1.00000000E-02	 5.00000000E-03	 6.25000000E-02
					 1.00000000E-02	 7.50000000E-03	 6.50000000E-02
					 1.00000000E-02	 1.00000000E-02	 6.25000000E-02
					 7.50000000E-03	 5.00000000E-03	 6.50000000E-02
					 7.50000000E-03	 1.00000000E-02	 6.50000000E-02
					 5.00000000E-03	 5.00000000E-03	 6.25000000E-02
					 5.00000000E-03	 7.50000000E-03	 6.50000000E-02
					 5.00000000E-03	 1.00000000E-02	 6.25000000E-02
					 1.00000000E-02	 5.00000000E-03	 7.00000000E-02
					 1.00000000E-02	 1.00000000E-02	 7.00000000E-02
					 5.00000000E-03	 5.00000000E-03	 7.00000000E-02
					 5.00000000E-03	 1.00000000E-02	 7.00000000E-02
					 1.00000000E-02	 5.00000000E-03	 6.75000000E-02
					 1.00000000E-02	 7.50000000E-03	 7.00000000E-02
					 1.00000000E-02	 1.00000000E-02	 6.75000000E-02
					 7.50000000E-03	 5.00000000E-03	 7.00000000E-02
					 7.50000000E-03	 1.00000000E-02	 7.00000000E-02
					 5.00000000E-03	 5.00000000E-03	 6.75000000E-02
					 5.00000000E-03	 7.50000000E-03	 7.00000000E-02
					 5.00000000E-03	 1.00000000E-02	 6.75000000E-02
					 1.00000000E-02	 5.00000000E-03	 7.50000000E-02
					 1.00000000E-02	 1.00000000E-02	 7.50000000E-02
					 5.00000000E-03	 5.00000000E-03	 7.50000000E-02
					 5.00000000E-03	 1.00000000E-02	 7.50000000E-02
					 1.00000000E-02	 5.00000000E-03	 7.25000000E-02
					 1.00000000E-02	 7.50000000E-03	 7.50000000E-02
					 1.00000000E-02	 1.00000000E-02	 7.25000000E-02
[...]
			<PointData>
				<DataArray type="Float32" Name="U" NumberOfComponents="3" ComponentName0="D1" ComponentName1="D2" ComponentName2="D3" format="ascii">
					 0.00000000E+00	 0.00000000E+00	 0.00000000E+00
					 0.00000000E+00	 0.00000000E+00	 0.00000000E+00
					-1.12077000E-13	-8.12597000E-01	 4.44089000E-14
					 7.87297000E-01	-7.87297000E-01	 1.35308000E-13
					 0.00000000E+00	 0.00000000E+00	 0.00000000E+00
					 0.00000000E+00	 0.00000000E+00	 0.00000000E+00
					-1.21791000E-13	-1.46549000E-13	-2.76446000E-14
					 8.12597000E-01	-1.43330000E-13	 7.27751000E-14
					 0.00000000E+00	 0.00000000E+00	 0.00000000E+00
					-5.22360000E-14	-4.09089000E-01	 2.96985000E-14
					 3.99711000E-01	-7.97709000E-01	-1.34708000E-01
					 3.60387000E-01	-3.60387000E-01	 8.47100000E-14
					 0.00000000E+00	 0.00000000E+00	 0.00000000E+00
					 0.00000000E+00	 0.00000000E+00	 0.00000000E+00
					-1.14242000E-13	-4.02398000E-01	-2.99760000E-15
					 7.97709000E-01	-3.99711000E-01	 1.34708000E-01
					 0.00000000E+00	 0.00000000E+00	 0.00000000E+00
					-5.22360000E-14	-6.21170000E-14	-1.05471000E-14
					 4.02398000E-01	-1.41220000E-13	 7.32747000E-15
					 4.09089000E-01	-6.79179000E-14	 4.40065000E-14
					-2.25597000E-13	-1.62605000E+00	-1.55431000E-15
					 1.63331000E+00	-1.63331000E+00	 8.97060000E-14
					-2.43916000E-13	-3.15303000E-13	-5.66214000E-14
					 1.62605000E+00	-3.09308000E-13	 4.44089000E-14
					-1.78857000E-13	-1.22032000E+00	 3.01981000E-14
					 8.14215000E-01	-1.63081000E+00	-1.15164000E-01
					 1.22429000E+00	-1.22429000E+00	 1.29563000E-13
					-2.37144000E-13	-8.14811000E-01	-3.46390000E-14
					 1.63081000E+00	-8.14215000E-01	 1.15164000E-01
					-1.90736000E-13	-2.32925000E-13	-4.42979000E-14
					 8.14811000E-01	-3.12639000E-13	-1.35447000E-14
					 1.22032000E+00	-2.31370000E-13	 6.76126000E-14
					-2.58238000E-13	-2.38909000E+00	-7.63833000E-14
					 2.39442000E+00	-2.39442000E+00	-3.19744000E-14
					-2.71783000E-13	-4.29878000E-13	-8.17124000E-14
					 2.38909000E+00	-4.10783000E-13	-3.68594000E-14
					-2.49800000E-13	-2.01759000E+00	-4.04121000E-14
					 1.19657000E+00	-2.39177000E+00	-1.03963000E-01
					 2.02335000E+00	-2.02335000E+00	 3.08642000E-14
					-2.63567000E-13	-1.19476000E+00	-7.90479000E-14
					 2.39177000E+00	-1.19657000E+00	 1.03963000E-01
					-2.67453000E-13	-3.81029000E-13	-6.97220000E-14
					 1.19476000E+00	-4.22329000E-13	-6.19504000E-14
					 2.01759000E+00	-3.69926000E-13	 8.65974000E-15
					-2.38254000E-13	-3.05723000E+00	-1.27898000E-13
					 3.06471000E+00	-3.06471000E+00	-1.54543000E-13
					-2.42695000E-13	-4.40092000E-13	-1.00142000E-13
					 3.05723000E+00	-4.24549000E-13	-1.34559000E-13
					-2.48704000E-13	-2.73635000E+00	-1.06137000E-13
					 1.53104000E+00	-3.06138000E+00	-8.88634000E-02
					 2.74280000E+00	-2.74280000E+00	-9.59233000E-14
					-2.41585000E-13	-1.52935000E+00	-1.15463000E-13
					 3.06138000E+00	-1.53104000E+00	 8.88634000E-02
					-2.60365000E-13	-4.48974000E-13	-9.28146000E-14
					 1.52935000E+00	-4.35652000E-13	-1.15463000E-13
					 2.73635000E+00	-4.36096000E-13	-8.61533000E-14
					-1.77192000E-13	-3.60815000E+00	-1.51434000E-13
					 3.61691000E+00	-3.61691000E+00	-2.59348000E-13
					-1.78968000E-13	-3.54383000E-13	-1.02141000E-13
					 3.60815000E+00	-3.49054000E-13	-2.06501000E-13
					-2.14495000E-13	-3.34885000E+00	-1.44773000E-13
					 1.80698000E+00	-3.61293000E+00	-7.00971000E-02
					 3.35706000E+00	-3.35706000E+00	-2.16271000E-13
					-1.81632000E-13	-1.80486000E+00	-1.22125000E-13
					 3.61293000E+00	-1.80698000E+00	 7.00971000E-02
					-2.12941000E-13	-4.10560000E-13	-1.04805000E-13
					 1.80486000E+00	-3.54605000E-13	-1.52323000E-13
					 3.34885000E+00	-3.97016000E-13	-1.73195000E-13
					-1.06137000E-13	-4.01989000E+00	-1.48104000E-13
					 4.02965000E+00	-4.02965000E+00	-2.93099000E-13
					-1.02585000E-13	-2.02283000E-13	-8.79297000E-14
					 4.01989000E+00	-2.00173000E-13	-2.34923000E-13
					-1.42997000E-13	-3.83252000E+00	-1.53211000E-13
					 2.01317000E+00	-4.02524000E+00	-4.86977000E-02
					 3.84185000E+00	-3.84185000E+00	-2.82885000E-13
					-1.03029000E-13	-2.01083000E+00	-1.15463000E-13
					 4.02524000E+00	-2.01317000E+00	 4.86977000E-02
					-1.40332000E-13	-2.82774000E-13	-9.70335000E-14
					 2.01083000E+00	-2.03199000E-13	-1.61648000E-13
					 3.83252000E+00	-2.75557000E-13	-2.28262000E-13
					-4.52971000E-14	-4.27673000E+00	-1.05471000E-13
					 4.28711000E+00	-4.28711000E+00	-2.55795000E-13
					-3.64153000E-14	-1.97620000E-14	-6.70575000E-14
					 4.27673000E+00	-2.64233000E-14	-2.30482000E-13
					-7.19425000E-14	-4.16842000E+00	-1.31228000E-13
					 2.14180000E+00	-4.28241000E+00	-2.54060000E-02
					 4.17859000E+00	-4.17859000E+00	-2.81997000E-13
					-3.99680000E-14	-2.13931000E+00	-8.30447000E-14
					 4.28241000E+00	-2.14180000E+00	 2.54060000E-02
					-6.48370000E-14	-1.17018000E-13	-7.81597000E-14
					 2.13931000E+00	-2.55351000E-14	-1.41220000E-13
					 4.16842000E+00	-1.19904000E-13	-2.36255000E-13
					-2.90878000E-14	-4.36873000E+00	-4.86278000E-14
					 4.37934000E+00	-4.37934000E+00	-1.82854000E-13
					-1.68754000E-14	 1.74527000E-13	-4.64073000E-14
					 4.36873000E+00	 1.61871000E-13	-1.78080000E-13
					-2.95319000E-14	-4.34369000E+00	-7.47180000E-14
					 2.18787000E+00	-4.37453000E+00	-1.13845000E-03
					 4.35428000E+00	-4.35428000E+00	-2.22267000E-13
					-2.27596000E-14	-2.18533000E+00	-4.52971000E-14
					 4.37453000E+00	-2.18787000E+00	 1.13845000E-03
					-2.04281000E-14	 8.68194000E-14	-5.59552000E-14
					 2.18533000E+00	 1.70752000E-13	-1.07470000E-13
					 4.34369000E+00	 7.37188000E-14	-2.08278000E-13
					-3.84137000E-14	-4.29236000E+00	-6.55032000E-15
					 4.30278000E+00	-4.30278000E+00	-7.84928000E-14
					-3.37508000E-14	 2.94764000E-13	-2.67564000E-14
					 4.29236000E+00	 2.73004000E-13	-9.30367000E-14
					-2.47580000E-14	-4.35154000E+00	-2.55074000E-14
					 2.14962000E+00	-4.29806000E+00	 2.31737000E-02
					 4.36215000E+00	-4.36215000E+00	-1.34642000E-13
					-3.48610000E-14	-2.14712000E+00	-1.86517000E-14
					 4.29806000E+00	-2.14962000E+00	-2.31737000E-02
					-2.06501000E-14	 2.46358000E-13	-3.57492000E-14
					 2.14712000E+00	 2.82441000E-13	-5.72875000E-14
					 4.35154000E+00	 2.26485000E-13	-1.37002000E-13
					-8.61533000E-14	-4.05055000E+00	 5.38458000E-15
					 4.06039000E+00	-4.06039000E+00	 1.84852000E-14
					-8.21565000E-14	 3.15525000E-13	-1.67644000E-14
					 4.05055000E+00	 3.08031000E-13	-3.83027000E-15
					-5.90639000E-14	-4.19168000E+00	 4.71845000E-15
					 2.02853000E+00	-4.05593000E+00	 4.65926000E-02
					 4.20190000E+00	-4.20190000E+00	-2.48690000E-14
					-8.61533000E-14	-2.02617000E+00	-1.10606000E-14
					 4.05593000E+00	-2.02853000E+00	-4.65926000E-02
					-5.59552000E-14	 3.20743000E-13	-2.10942000E-14
					 2.02617000E+00	 3.14526000E-13	-9.71445000E-15
					 4.19168000E+00	 3.06311000E-13	-4.41869000E-14
					-1.17240000E-13	-3.65264000E+00	-2.94764000E-14
					 3.66151000E+00	-3.66151000E+00	 3.58047000E-14
					-1.19016000E-13	 2.56628000E-13	-1.26565000E-14
					 3.65264000E+00	 2.59659000E-13	 5.30687000E-14
					-1.07025000E-13	-3.87027000E+00	-7.21645000E-15
					 1.82925000E+00	-3.65749000E+00	 6.82158000E-02
					 3.87971000E+00	-3.87971000E+00	 3.81084000E-14
					-1.21680000E-13	-1.82712000E+00	-2.13163000E-14
					 3.65749000E+00	-1.82925000E+00	-6.82158000E-02
					-1.03917000E-13	 2.92211000E-13	-1.34615000E-14
					 1.82712000E+00	 2.58932000E-13	 1.83187000E-14
					 3.87027000E+00	 2.89088000E-13	 2.79082000E-14
					-5.86198000E-14	-3.11395000E+00	-8.43492000E-14
					 3.12151000E+00	-3.12151000E+00	 6.43929000E-15
					-6.39488000E-14	 1.75193000E-13	-6.66134000E-15
					 3.11395000E+00	 1.68310000E-13	 8.61533000E-14
					-9.68114000E-14	-3.39970000E+00	-5.72320000E-14
					 1.55947000E+00	-3.11808000E+00	 8.72098000E-02
					 3.40799000E+00	-3.40799000E+00	 2.02061000E-14
					-5.81757000E-14	-1.55766000E+00	-4.08562000E-14
					 3.11808000E+00	-1.55947000E+00	-8.72098000E-02
					-1.02141000E-13	 2.20601000E-13	-9.65894000E-15
					 1.55766000E+00	 1.74194000E-13	 3.66374000E-14
					 3.39970000E+00	 2.13829000E-13	 6.90559000E-14
					 8.01581000E-14	-2.45524000E+00	-1.09579000E-13
					 2.46121000E+00	-2.46121000E+00	 1.77636000E-15
					 8.32667000E-14	 5.85088000E-14	 8.65974000E-15
					 2.45524000E+00	 5.03209000E-14	 1.19016000E-13
					 3.99680000E-15	-2.79810000E+00	-1.03861000E-13
					 1.22959000E+00	-2.45851000E+00	 1.02843000E-01
					 2.80492000E+00	-2.80492000E+00	 1.80411000E-15
					 8.03801000E-14	-1.22816000E+00	-4.23966000E-14
					 2.45851000E+00	-1.22959000E+00	-1.02843000E-01
					 1.33227000E-15	 1.24900000E-13	-4.44089000E-16
					 1.22816000E+00	 5.38458000E-14	 5.88418000E-14
					 2.79810000E+00	 1.15352000E-13	 1.02141000E-13
					 2.42473000E-13	-1.70191000E+00	-9.93650000E-14
					 1.70605000E+00	-1.70605000E+00	 2.91434000E-15
					 2.54463000E-13	-8.62643000E-14	 2.04281000E-14
					 1.70191000E+00	-8.03246000E-14	 1.22791000E-13
					 1.62093000E-13	-2.08866000E+00	-1.07470000E-13
					 8.52323000E-01	-1.70417000E+00	 1.14512000E-01
					 2.09375000E+00	-2.09375000E+00	 1.22125000E-15
					 2.45359000E-13	-8.51332000E-01	-3.25295000E-14
					 1.70417000E+00	-8.52323000E-01	-1.14512000E-01
					 1.66117000E-13	-1.43219000E-14	 1.55431000E-14
					 8.51332000E-01	-8.51541000E-14	 6.79456000E-14
					 2.08866000E+00	-1.62093000E-14	 1.23679000E-13
					 3.92131000E-13	-8.82989000E-01	-5.12923000E-14
					 8.85133000E-01	-8.85133000E-01	 3.24185000E-14
					 4.07674000E-13	-1.96620000E-13	 2.59792000E-14
					 8.82989000E-01	-1.95149000E-13	 1.10134000E-13
					 3.25961000E-13	-1.29872000E+00	-8.11851000E-14
					 4.42203000E-01	-8.84162000E-01	 1.21768000E-01
					 1.30188000E+00	-1.30188000E+00	 1.27676000E-14
					 4.00568000E-13	-4.41689000E-01	-5.10703000E-15
					 8.84162000E-01	-4.42203000E-01	-1.21768000E-01
					 3.34843000E-13	-1.48881000E-13	 2.37588000E-14
					 4.41689000E-01	-1.95427000E-13	 6.43929000E-14
					 1.29872000E+00	-1.39166000E-13	 1.16795000E-13
					 4.44089000E-13	-3.00334000E-02	 5.90639000E-14
					 3.01064000E-02	-3.01064000E-02	 1.14131000E-13
					 4.59632000E-13	-2.84772000E-13	 3.39728000E-14
					 3.00334000E-02	-2.85494000E-13	 8.74856000E-14
					 4.32543000E-13	-4.58725000E-01	-2.66454000E-15
					 1.50408000E-02	-3.00733000E-02	 1.24331000E-01
					 4.59843000E-01	-4.59843000E-01	 6.79456000E-14
					 4.57412000E-13	-1.50233000E-02	 4.86278000E-14
					 3.00733000E-02	-1.50408000E-02	-1.24331000E-01
					 4.53415000E-13	-2.47025000E-13	 3.15303000E-14
					 1.50233000E-02	-2.83940000E-13	 5.68434000E-14
					 4.58725000E-01	-2.32925000E-13	 1.01696000E-13
					 3.38840000E-13	 8.24079000E-01	 1.76748000E-13
					-8.26081000E-01	 8.26081000E-01	 1.80744000E-13
					 3.50830000E-13	-3.33067000E-13	 4.17444000E-14
					-8.24079000E-01	-3.29958000E-13	 4.88498000E-14
					 4.10783000E-13	 3.98948000E-01	 1.23013000E-13
					-4.12701000E-01	 8.25174000E-01	 1.22102000E-01
					-3.99921000E-01	 3.99921000E-01	 1.53655000E-13
					 3.49054000E-13	 4.12221000E-01	 1.02585000E-13
					-8.25174000E-01	 4.12701000E-01	-1.22102000E-01
					 4.24993000E-13	-3.11973000E-13	 3.61933000E-14
					-4.12221000E-01	-3.35953000E-13	 4.04121000E-14
					-3.98948000E-01	-3.03757000E-13	 6.97220000E-14
					 1.25677000E-13	 1.64643000E+00	 2.55795000E-13
					-1.65043000E+00	 1.65043000E+00	 1.89626000E-13
					 1.16573000E-13	-3.14193000E-13	 4.37428000E-14
					-1.64643000E+00	-3.17302000E-13	-1.55431000E-14
					 2.40474000E-13	 1.24124000E+00	 2.22489000E-13
					-8.24537000E-01	 1.64862000E+00	 1.15167000E-01
					-1.24427000E+00	 1.24427000E+00	 1.88294000E-13
					 1.27898000E-13	 8.23579000E-01	 1.41220000E-13
					-1.64862000E+00	 8.24537000E-01	-1.15167000E-01
					 2.56017000E-13	-3.41949000E-13	 4.41869000E-14
					-8.23579000E-01	-3.21076000E-13	 1.64313000E-14
					-1.24124000E+00	-3.29736000E-13	 1.73195000E-14
					-1.52101000E-13	 2.40533000E+00	 2.82885000E-13
					-2.41117000E+00	 2.41117000E+00	 1.63869000E-13
					-1.55209000E-13	-2.12497000E-13	 4.59632000E-14
					-2.40533000E+00	-2.09277000E-13	-7.72715000E-14
					-7.93809000E-15	 2.03570000E+00	 2.73115000E-13
					-1.20460000E+00	 2.40852000E+00	 1.03794000E-01
					-2.04067000E+00	 2.04067000E+00	 1.78968000E-13
					-1.47216000E-13	 1.20319000E+00	 1.53655000E-13
					-2.40852000E+00	 1.20460000E+00	-1.03794000E-01
					-2.09485000E-14	-2.76001000E-13	 4.59632000E-14
					-1.20319000E+00	-2.13385000E-13	-1.04361000E-14
					-2.03570000E+00	-2.70894000E-13	-4.90719000E-14
					-4.24549000E-13	 3.07152000E+00	 2.57350000E-13
					-3.07898000E+00	 3.07898000E+00	 9.47020000E-14
					-4.37206000E-13	-3.03646000E-14	 4.70735000E-14
					-3.07152000E+00	-3.53537000E-14	-1.14631000E-13
					-2.97096000E-13	 2.75170000E+00	 2.80220000E-13
					-1.53823000E+00	 3.07560000E+00	 8.84200000E-02
					-2.75841000E+00	 2.75841000E+00	 1.33893000E-13
					-4.28768000E-13	 1.53644000E+00	 1.41664000E-13
					-3.07560000E+00	 1.53823000E+00	-8.84200000E-02
					-2.99094000E-13	-1.25788000E-13	 4.66294000E-14
					-1.53644000E+00	-3.71370000E-14	-2.73115000E-14
					-2.75170000E+00	-1.29396000E-13	-1.01918000E-13
					-6.36158000E-13	 3.61934000E+00	 1.61871000E-13
					-3.62813000E+00	 3.62813000E+00	 6.52256000E-15
					-6.56142000E-13	 1.59650000E-13	 4.45199000E-14
					-3.61934000E+00	 1.51212000E-13	-1.06581000E-13
					-5.48450000E-13	 3.36165000E+00	 2.16938000E-13
					-1.81257000E+00	 3.62415000E+00	 6.96384000E-02
					-3.36985000E+00	 3.36985000E+00	 4.97380000E-14
					-6.50147000E-13	 1.81047000E+00	 9.51461000E-14
					-3.62415000E+00	 1.81257000E+00	-6.96384000E-02
					-5.55556000E-13	 6.40321000E-14	 4.84057000E-14
					-1.81047000E+00	 1.60094000E-13	-2.77556000E-14
					-3.36165000E+00	 6.15064000E-14	-1.15019000E-13
					-6.98219000E-13	 4.02766000E+00	 7.57727000E-15
					-4.03744000E+00	 4.03744000E+00	-9.20375000E-14
					-7.16094000E-13	 2.91989000E-13	 3.48888000E-14
					-4.02766000E+00	 2.88436000E-13	-6.54199000E-14
					-6.94889000E-13	 3.84204000E+00	 8.61533000E-14
					-2.01706000E+00	 4.03301000E+00	 4.81730000E-02
					-3.85141000E+00	 3.85141000E+00	-4.25215000E-14
					-7.14206000E-13	 2.01472000E+00	 2.20171000E-14
					-4.03301000E+00	 2.01706000E+00	-4.81730000E-02
					-7.08766000E-13	 2.32037000E-13	 3.93019000E-14
					-2.01472000E+00	 2.92655000E-13	-1.46549000E-14
					-3.84204000E+00	 2.32925000E-13	-9.04832000E-14
					-6.00409000E-13	 4.28076000E+00	-1.53100000E-13
					-4.29115000E+00	 4.29115000E+00	-1.81632000E-13
					-6.18949000E-13	 3.63487000E-13	 2.47580000E-14
					-4.28076000E+00	 3.59490000E-13	-1.03216000E-14
					-6.72240000E-13	 4.17435000E+00	-7.16094000E-14
					-2.14381000E+00	 4.28644000E+00	 2.48509000E-02
					-4.18453000E+00	 4.18453000E+00	-1.38209000E-13
					-6.14508000E-13	 2.14132000E+00	-5.85088000E-14
					-4.28644000E+00	 2.14381000E+00	-2.48509000E-02
					-6.93889000E-13	 3.38174000E-13	 3.05866000E-14
					-2.14132000E+00	 3.63709000E-13	 9.88098000E-15
					-4.17435000E+00	 3.29514000E-13	-3.57214000E-14
					-3.33344000E-13	 4.36887000E+00	-2.89435000E-13
					-4.37947000E+00	 4.37947000E+00	-2.33868000E-13
					-3.63237000E-13	 3.53051000E-13	-6.32827000E-15
					-4.36887000E+00	 3.54716000E-13	 4.24383000E-14
					-4.84335000E-13	 4.34578000E+00	-2.27041000E-13
					-2.18794000E+00	 4.37467000E+00	 5.71082000E-04
					-4.35638000E+00	 4.35638000E+00	-2.08999000E-13
					-3.44169000E-13	 2.18540000E+00	-1.42220000E-13
					-4.37467000E+00	 2.18794000E+00	-5.71082000E-04
					-5.13367000E-13	 3.69704000E-13	 1.33227000E-14
					-2.18540000E+00	 3.66596000E-13	 1.93179000E-14
					-4.34578000E+00	 3.67262000E-13	 1.55986000E-14
					 3.20299000E-14	 4.28860000E+00	-3.75255000E-13
					-4.29901000E+00	 4.29901000E+00	-2.54741000E-13
					 2.65898000E-14	 2.54019000E-13	-3.17524000E-14
					-4.28860000E+00	 2.56739000E-13	 9.28146000E-14
					-1.68338000E-13	 4.34972000E+00	-3.42615000E-13
					-2.14774000E+00	 4.29429000E+00	-2.37308000E-02
					-4.36033000E+00	 4.36033000E+00	-2.54186000E-13
					 2.22600000E-14	 2.14524000E+00	-1.95399000E-13
					-4.29429000E+00	 2.14774000E+00	 2.37308000E-02
					-1.77941000E-13	 3.16192000E-13	-2.39808000E-14
					-2.14524000E+00	 2.57183000E-13	 2.73115000E-14
					-4.34972000E+00	 3.22686000E-13	 6.86118000E-14
					 4.07230000E-13	 4.04304000E+00	-3.71259000E-13
					-4.05286000E+00	 4.05286000E+00	-1.97176000E-13
					 4.20164000E-13	 7.03326000E-14	-4.24105000E-14
					-4.04304000E+00	 6.80567000E-14	 1.37446000E-13
					 2.16993000E-13	 4.18602000E+00	-3.87690000E-13
					-2.02477000E+00	 4.04841000E+00	-4.71180000E-02
					-4.19622000E+00	 4.19622000E+00	-2.32925000E-13
					 4.22440000E-13	 2.02241000E+00	-1.98730000E-13
					-4.04841000E+00	 2.02477000E+00	 4.71180000E-02
					 2.24626000E-13	 1.70586000E-13	-3.88578000E-14
					-2.02241000E+00	 7.01661000E-14	 3.50830000E-14
					-4.18602000E+00	 1.71557000E-13	 1.15907000E-13
					 7.49734000E-13	 3.64166000E+00	-2.88436000E-13
					-3.65051000E+00	 3.65051000E+00	-9.34808000E-14
					 7.57394000E-13	-1.58040000E-13	-4.92939000E-14
					-3.64166000E+00	-1.60344000E-13	 1.41331000E-13
					 5.87308000E-13	 3.86098000E+00	-3.39950000E-13
					-1.82376000E+00	 3.64650000E+00	-6.86893000E-02
					-3.87040000E+00	 3.87040000E+00	-1.48326000E-13
					 7.60392000E-13	 1.82164000E+00	-1.60094000E-13
					-3.64650000E+00	 1.82376000E+00	 6.86893000E-02
					 5.97300000E-13	-3.87468000E-14	-4.52971000E-14
					-1.82164000E+00	-1.64480000E-13	 4.04121000E-14
					-3.86098000E+00	-4.25215000E-14	 1.47216000E-13
					 9.74276000E-13	 3.09993000E+00	-1.36779000E-13
					-3.10746000E+00	 3.10746000E+00	 3.19744000E-14
					 9.79550000E-13	-3.77032000E-13	-5.06262000E-14
					-3.09993000E+00	-3.71814000E-13	 1.07692000E-13
					 8.91481000E-13	 3.38714000E+00	-2.16493000E-13
					-1.55246000E+00	 3.10405000E+00	-8.76133000E-02
					-3.39540000E+00	 3.39540000E+00	-3.39728000E-14
					 9.82991000E-13	 1.55065000E+00	-8.97060000E-14
					-3.10405000E+00	 1.55246000E+00	 8.76133000E-02
					 9.05082000E-13	-2.72615000E-13	-5.17364000E-14
					-1.55065000E+00	-3.74256000E-13	 2.28706000E-14
					-3.38714000E+00	-2.68091000E-13	 1.29119000E-13
					 9.58456000E-13	 2.43873000E+00	 7.46070000E-14
					-2.44465000E+00	 2.44465000E+00	 1.41887000E-13
					 9.81937000E-13	-5.24913000E-13	-3.57492000E-14
					-2.43873000E+00	-5.14033000E-13	 3.46390000E-14
					 9.88154000E-13	 2.78276000E+00	-3.73035000E-14
					-1.22132000E+00	 2.44197000E+00	-1.03161000E-01
					-2.78955000E+00	 2.78955000E+00	 9.54792000E-14
					 9.91651000E-13	 1.21990000E+00	 1.33227000E-14
					-2.44197000E+00	 1.22132000E+00	 1.03161000E-01
					 1.02011000E-12	-4.61187000E-13	-4.55191000E-14
					-1.21990000E+00	-5.26468000E-13	-5.55112000E-15
					-2.78276000E+00	-4.59854000E-13	 7.49401000E-14
					 7.29861000E-13	 1.68354000E+00	 2.54685000E-13
					-1.68763000E+00	 1.68763000E+00	 1.92735000E-13
					 7.76268000E-13	-5.60663000E-13	-1.26565000E-14
					-1.68354000E+00	-5.32463000E-13	-7.50511000E-14
					 8.54872000E-13	 2.07113000E+00	 1.66533000E-13
					-8.43120000E-01	 1.68577000E+00	-1.14732000E-01
					-2.07618000E+00	 2.07618000E+00	 1.76081000E-13
					 7.47846000E-13	 8.42140000E-01	 1.13909000E-13
					-1.68577000E+00	 8.43120000E-01	 1.14732000E-01
					 8.94618000E-13	-5.57554000E-13	-2.62013000E-14
					-8.42140000E-01	-5.60441000E-13	-3.86358000E-14
					-2.07113000E+00	-5.56000000E-13	-1.57652000E-14
					 3.41172000E-13	 8.63458000E-01	 3.82028000E-13
					-8.65555000E-01	 8.65555000E-01	 2.14495000E-13
					 3.58935000E-13	-4.03011000E-13	 6.43929000E-15
					-8.63458000E-01	-3.95683000E-13	-1.64313000E-13
					 5.62883000E-13	 1.27967000E+00	 3.24851000E-13
					-4.32422000E-01	 8.64605000E-01	-1.21881000E-01