# vtk DataFile Version 3.0

ASCII
DATASET UNSTRUCTURED_GRID

POINTS 1221 double
	 1.00000000E-02	 1.00000000E-02	 0.00000000E+00
	 1.00000000E-02	 5.00000000E-03	 0.00000000E+00
	 1.00000000E-02	 5.00000000E-03	 5.00000000E-03
	 1.00000000E-02	 1.00000000E-02	 5.00000000E-03
	 5.00000000E-03	 1.00000000E-02	 0.00000000E+00
	 5.00000000E-03	 5.00000000E-03	 0.00000000E+00
	 5.00000000E-03	 5.00000000E-03	 5.00000000E-03
	 5.00000000E-03	 1.00000000E-02	 5.00000000E-03
	 1.00000000E-02	 7.50000000E-03	 0.00000000E+00
	 1.00000000E-02	 5.00000000E-03	 2.50000000E-03
	 1.00000000E-02	 7.50000000E-03	 5.00000000E-03
	 1.00000000E-02	 1.00000000E-02	 2.50000000E-03
	 7.50000000E-03	 1.00000000E-02	 0.00000000E+00
	 7.50000000E-03	 5.00000000E-03	 0.00000000E+00
	 7.50000000E-03	 5.00000000E-03	 5.00000000E-03
	 7.50000000E-03	 1.00000000E-02	 5.00000000E-03
	 5.00000000E-03	 7.50000000E-03	 0.00000000E+00
	 5.00000000E-03	 5.00000000E-03	 2.50000000E-03
	 5.00000000E-03	 7.50000000E-03	 5.00000000E-03
	 5.00000000E-03	 1.00000000E-02	 2.50000000E-03
	 1.00000000E-02	 5.00000000E-03	 1.00000000E-02
	 1.00000000E-02	 1.00000000E-02	 1.00000000E-02
	 5.00000000E-03	 5.00000000E-03	 1.00000000E-02
	 5.00000000E-03	 1.00000000E-02	 1.00000000E-02
	 1.00000000E-02	 5.00000000E-03	 7.50000000E-03
	 1.00000000E-02	 7.50000000E-03	 1.00000000E-02
	 1.00000000E-02	 1.00000000E-02	 7.50000000E-03
	 7.50000000E-03	 5.00000000E-03	 1.00000000E-02
	 7.50000000E-03	 1.00000000E-02	 1.00000000E-02
	 5.00000000E-03	 5.00000000E-03	 7.50000000E-03
	 5.00000000E-03	 7.50000000E-03	 1.00000000E-02
	 5.00000000E-03	 1.00000000E-02	 7.50000000E-03
	 1.00000000E-02	 5.00000000E-03	 1.50000000E-02
	 1.00000000E-02	 1.00000000E-02	 1.50000000E-02
	 5.00000000E-03	 5.00000000E-03	 1.50000000E-02
	 5.00000000E-03	 1.00000000E-02	 1.50000000E-02
	 1.00000000E-02	 5.00000000E-03	 1.25000000E-02
	 1.00000000E-02	 7.50000000E-03	 1.50000000E-02
	 1.00000000E-02	 1.00000000E-02	 1.25000000E-02
	 7.50000000E-03	 5.00000000E-03	 1.50000000E-02
	 7.50000000E-03	 1.00000000E-02	 1.50000000E-02
	 5.00000000E-03	 5.00000000E-03	 1.25000000E-02
	 5.00000000E-03	 7.50000000E-03	 1.50000000E-02
	 5.00000000E-03	 1.00000000E-02	 1.25000000E-02
	 1.00000000E-02	 5.00000000E-03	 2.00000000E-02
	 1.00000000E-02	 1.00000000E-02	 2.00000000E-02
	 5.00000000E-03	 5.00000000E-03	 2.00000000E-02
	 5.00000000E-03	 1.00000000E-02	 2.00000000E-02
	 1.00000000E-02	 5.00000000E-03	 1.75000000E-02
	 1.00000000E-02	 7.50000000E-03	 2.00000000E-02
	 1.00000000E-02	 1.00000000E-02	 1.75000000E-02
	 7.50000000E-03	 5.00000000E-03	 2.00000000E-02
	 7.50000000E-03	 1.00000000E-02	 2.00000000E-02
	 5.00000000E-03	 5.00000000E-03	 1.75000000E-02
	 5.00000000E-03	 7.50000000E-03	 2.00000000E-02
	 5.00000000E-03	 1.00000000E-02	 1.75000000E-02
	 1.00000000E-02	 5.00000000E-03	 2.50000000E-02
	 1.00000000E-02	 1.00000000E-02	 2.50000000E-02
	 5.00000000E-03	 5.00000000E-03	 2.50000000E-02
	 5.00000000E-03	 1.00000000E-02	 2.50000000E-02
	 1.00000000E-02	 5.00000000E-03	 2.25000000E-02
	 1.00000000E-02	 7.50000000E-03	 2.50000000E-02
	 1.00000000E-02	 1.00000000E-02	 2.25000000E-02
	 7.50000000E-03	 5.00000000E-03	 2.50000000E-02
	 7.50000000E-03	 1.00000000E-02	 2.50000000E-02
	 5.00000000E-03	 5.00000000E-03	 2.25000000E-02
	 5.00000000E-03	 7.50000000E-03	 2.50000000E-02
	 5.00000000E-03	 1.00000000E-02	 2.25000000E-02
	 1.00000000E-02	 5.00000000E-03	 3.00000000E-02
	 1.00000000E-02	 1.00000000E-02	 3.00000000E-02
	 5.00000000E-03	 5.00000000E-03	 3.00000000E-02
	 5.00000000E-03	 1.00000000E-02	 3.00000000E-02
	 1.00000000E-02	 5.00000000E-03	 2.75000000E-02
	 1.00000000E-02	 7.50000000E-03	 3.00000000E-02
	 1.00000000E-02	 1.00000000E-02	 2.75000000E-02
	 7.50000000E-03	 5.00000000E-03	 3.00000000E-02
	 7.50000000E-03	 1.00000000E-02	 3.00000000E-02
	 5.00000000E-03	 5.00000000E-03	 2.75000000E-02
	 5.00000000E-03	 7.50000000E-03	 3.00000000E-02
	 5.00000000E-03	 1.00000000E-02	 2.75000000E-02
	 1.00000000E-02	 5.00000000E-03	 3.50000000E-02
	 1.00000000E-02	 1.00000000E-02	 3.50000000E-02
	 5.00000000E-03	 5.00000000E-03	 3.50000000E-02
	 5.00000000E-03	 1.00000000E-02	 3.50000000E-02
	 1.00000000E-02	 5.00000000E-03	 3.25000000E-02
	 1.00000000E-02	 7.50000000E-03	 3.50000000E-02
	 1.00000000E-02	 1.00000000E-02	 3.25000000E-02
	 7.50000000E-03	 5.00000000E-03	 3.50000000E-02
	 7.50000000E-03	 1.00000000E-02	 3.50000000E-02
	 5.00000000E-03	 5.00000000E-03	 3.25000000E-02
	 5.00000000E-03	 7.50000000E-03	 3.50000000E-02
	 5.00000000E-03	 1.00000000E-02	 3.25000000E-02
	 1.00000000E-02	 5.00000000E-03	 4.00000000E-02
	 1.00000000E-02	 1.00000000E-02	 4.00000000E-02
	 5.00000000E-03	 5.00000000E-03	 4.00000000E-02
	 5.00000000E-03	 1.00000000E-02	 4.00000000E-02
	 1.00000000E-02	 5.00000000E-03	 3.75000000E-02
	 1.00000000E-02	 7.50000000E-03	 4.00000000E-02
	 1.00000000E-02	 1.00000000E-02	 3.75000000E-02
	 7.50000000E-03	 5.00000000E-03	 4.00000000E-02
	 7.50000000E-03	 1.00000000E-02	 4.00000000E-02
	 5.00000000E-03	 5.00000000E-03	 3.75000000E-02
	 5.00000000E-03	 7.50000000E-03	 4.00000000E-02
	 5.00000000E-03	 1.00000000E-02	 3.75000000E-02
	 1.00000000E-02	 5.00000000E-03	 4.50000000E-02
	 1.00000000E-02	 1.00000000E-02	 4.50000000E-02
	 5.00000000E-03	 5.00000000E-03	 4.50000000E-02
	 5.00000000E-03	 1.00000000E-02	 4.50000000E-02
	 1.00000000E-02	 5.00000000E-03	 4.25000000E-02
	 1.00000000E-02	 7.50000000E-03	 4.50000000E-02
	 1.00000000E-02	 1.00000000E-02	 4.25000000E-02
	 7.50000000E-03	 5.00000000E-03	 4.50000000E-02
	 7.50000000E-03	 1.00000000E-02	 4.50000000E-02
	 5.00000000E-03	 5.00000000E-03	 4.25000000E-02
	 5.00000000E-03	 7.50000000E-03	 4.50000000E-02
	 5.00000000E-03	 1.00000000E-02	 4.25000000E-02
	 1.00000000E-02	 5.00000000E-03	 5.00000000E-02
	 1.00000000E-02	 1.00000000E-02	 5.00000000E-02
	 5.00000000E-03	 5.00000000E-03	 5.00000000E-02
	 5.00000000E-03	 1.00000000E-02	 5.00000000E-02
	 1.00000000E-02	 5.00000000E-03	 4.75000000E-02
	 1.00000000E-02	 7.50000000E-03	 5.00000000E-02
	 1.00000000E-02	 1.00000000E-02	 4.75000000E-02
	 7.50000000E-03	 5.00000000E-03	 5.00000000E-02
	 7.50000000E-03	 1.00000000E-02	 5.00000000E-02
	 5.00000000E-03	 5.00000000E-03	 4.75000000E-02
	 5.00000000E-03	 7.50000000E-03	 5.00000000E-02
	 5.00000000E-03	 1.00000000E-02	 4.75000000E-02
	 1.00000000E-02	 5.00000000E-03	 5.50000000E-02
	 1.00000000E-02	 1.00000000E-02	 5.50000000E-02
	 5.00000000E-03	 5.00000000E-03	 5.50000000E-02
	 5.00000000E-03	 1.00000000E-02	 5.50000000E-02
	 1.00000000E-02	 5.00000000E-03	 5.25000000E-02
	 1.00000000E-02	 7.50000000E-03	 5.50000000E-02
	 1.00000000E-02	 1.00000000E-02	 5.25000000E-02
	 7.50000000E-03	 5.00000000E-03	 5.50000000E-02
	 7.50000000E-03	 1.00000000E-02	 5.50000000E-02
	 5.00000000E-03	 5.00000000E-03	 5.25000000E-02
	 5.00000000E-03	 7.50000000E-03	 5.50000000E-02
	 5.00000000E-03	 1.00000000E-02	 5.25000000E-02
	 1.00000000E-02	 5.00000000E-03	 6.00000000E-02
	 1.00000000E-02	 1.00000000E-02	 6.00000000E-02
	 5.00000000E-03	 5.00000000E-03	 6.00000000E-02
	 5.00000000E-03	 1.00000000E-02	 6.00000000E-02
	 1.00000000E-02	 5.00000000E-03	 5.75000000E-02
	 1.00000000E-02	 7.50000000E-03	 6.00000000E-02
	 1.00000000E-02	 1.00000000E-02	 5.75000000E-02
	 7.50000000E-03	 5.00000000E-03	 6.00000000E-02
	 7.50000000E-03	 1.00000000E-02	 6.00000000E-02
	 5.00000000E-03	 5.00000000E-03	 5.75000000E-02
	 5.00000000E-03	 7.50000000E-03	 6.00000000E-02
	 5.00000000E-03	 1.00000000E-02	 5.75000000E-02
	 1.00000000E-02	 5.00000000E-03	 6.50000000E-02
	 1.00000000E-02	 1.00000000E-02	 6.50000000E-02
	 5.00000000E-03	 5.00000000E-03	 6.50000000E-02
	 5.00000000E-03	 1.00000000E-02	 6.50000000E-02
	 1.00000000E-02	 5.00000000E-03	 6.25000000E-02
	 1.00000000E-02	 7.50000000E-03	 6.50000000E-02
	 1.00000000E-02	 1.00000000E-02	 6.25000000E-02
	 7.50000000E-03	 5.00000000E-03	 6.50000000E-02
	 7.50000000E-03	 1.00000000E-02	 6.50000000E-02
	 5.00000000E-03	 5.00000000E-03	 6.25000000E-02
	 5.00000000E-03	 7.50000000E-03	 6.50000000E-02
	 5.00000000E-03	 1.00000000E-02	 6.25000000E-02
	 1.00000000E-02	 5.00000000E-03	 7.00000000E-02
	 1.00000000E-02	 1.00000000E-02	 7.00000000E-02
	 5.00000000E-03	 5.00000000E-03	 7.00000000E-02
	 5.00000000E-03	 1.00000000E-02	 7.00000000E-02
	 1.00000000E-02	 5.00000000E-03	 6.75000000E-02
	 1.00000000E-02	 7.50000000E-03	 7.00000000E-02
	 1.00000000E-02	 1.00000000E-02	 6.75000000E-02
	 7.50000000E-03	 5.00000000E-03	 7.00000000E-02
	 7.50000000E-03	 1.00000000E-02	 7.00000000E-02
	 5.00000000E-03	 5.00000000E-03	 6.75000000E-02
	 5.00000000E-03	 7.50000000E-03	 7.00000000E-02
	 5.00000000E-03	 1.00000000E-02	 6.75000000E-02
	 1.00000000E-02	 5.00000000E-03	 7.50000000E-02
	 1.00000000E-02	 1.00000000E-02	 7.50000000E-02
	 5.00000000E-03	 5.00000000E-03	 7.50000000E-02
	 5.00000000E-03	 1.00000000E-02	 7.50000000E-02
	 1.00000000E-02	 5.00000000E-03	 7.25000000E-02
	 1.00000000E-02	 7.50000000E-03	 7.50000000E-02
	 1.00000000E-02	 1.00000000E-02	 7.25000000E-02
	 7.50000000E-03	 5.00000000E-03	 7.50000000E-02
	 7.50000000E-03	 1.00000000E-02	 7.50000000E-02
	 5.00000000E-03	 5.00000000E-03	 7.25000000E-02
	 5.00000000E-03	 7.50000000E-03	 7.50000000E-02
	 5.00000000E-03	 1.00000000E-02	 7.25000000E-02
	 1.00000000E-02	 5.00000000E-03	 8.00000000E-02
	 1.00000000E-02	 1.00000000E-02	 8.00000000E-02
	 5.00000000E-03	 5.00000000E-03	 8.00000000E-02
	 5.00000000E-03	 1.00000000E-02	 8.00000000E-02
	 1.00000000E-02	 5.00000000E-03	 7.75000000E-02
	 1.00000000E-02	 7.50000000E-03	 8.00000000E-02
	 1.00000000E-02	 1.00000000E-02	 7.75000000E-02
	 7.50000000E-03	 5.00000000E-03	 8.00000000E-02
	 7.50000000E-03	 1.00000000E-02	 8.00000000E-02
	 5.00000000E-03	 5.00000000E-03	 7.75000000E-02
	 5.00000000E-03	 7.50000000E-03	 8.00000000E-02
	 5.00000000E-03	 1.00000000E-02	 7.75000000E-02
	 1.00000000E-02	 5.00000000E-03	 8.50000000E-02
	 1.00000000E-02	 1.00000000E-02	 8.50000000E-02
[...]
POINT_DATA 1221
FIELD U 1
	U 3 1221 double
		 0.00000000E+00	 0.00000000E+00	 0.00000000E+00
		 0.00000000E+00	 0.00000000E+00	 0.00000000E+00
		-6.43929000E-14	 4.89774000E-01	 3.54161000E-13
		-4.73880000E-01	 4.73880000E-01	 2.39031000E-13
		 0.00000000E+00	 0.00000000E+00	 0.00000000E+00
		 0.00000000E+00	 0.00000000E+00	 0.00000000E+00
		 7.84928000E-14	 3.37730000E-13	 1.46105000E-13
		-4.89774000E-01	 2.84883000E-13	 6.38378000E-15
		 0.00000000E+00	 0.00000000E+00	 0.00000000E+00
		-9.60343000E-15	 2.45832000E-01	 1.48603000E-13
		-2.40695000E-01	 4.80450000E-01	 8.15375000E-02
		-2.16304000E-01	 2.16304000E-01	 8.27949000E-14
		 0.00000000E+00	 0.00000000E+00	 0.00000000E+00
		 0.00000000E+00	 0.00000000E+00	 0.00000000E+00
		-2.22045000E-16	 2.42482000E-01	 2.54019000E-13
		-4.80450000E-01	 2.40695000E-01	-8.15375000E-02
		 0.00000000E+00	 0.00000000E+00	 0.00000000E+00
		 8.61533000E-14	 1.89737000E-13	 4.54914000E-14
		-2.42482000E-01	 3.09752000E-13	 1.05360000E-13
		-2.45832000E-01	 1.59983000E-13	-3.94962000E-14
		-4.27464000E-13	 9.91918000E-01	 8.53984000E-13
		-9.94768000E-01	 9.94768000E-01	 9.14824000E-13
		-3.71869000E-13	 5.31131000E-13	 2.81331000E-13
		-9.91918000E-01	 4.77396000E-13	 2.62013000E-13
		-1.85074000E-13	 7.39201000E-01	 6.07070000E-13
		-4.96176000E-01	 9.93950000E-01	 7.24180000E-02
		-7.40451000E-01	 7.40451000E-01	 5.70877000E-13
		-4.11587000E-13	 4.96892000E-01	 5.09592000E-13
		-9.93950000E-01	 4.96176000E-01	-7.24180000E-02
		-7.79377000E-14	 5.32241000E-13	 2.18492000E-13
		-4.96892000E-01	 5.87308000E-13	 2.70228000E-13
		-7.39201000E-01	 4.17666000E-13	 1.21236000E-13
		-1.39444000E-12	 1.48763000E+00	 1.21281000E-12
		-1.48865000E+00	 1.48865000E+00	 1.43707000E-12
		-1.33538000E-12	 4.13225000E-13	 3.53495000E-13
		-1.48763000E+00	 4.06619000E-13	 6.19504000E-13
		-8.57536000E-13	 1.24210000E+00	 1.02762000E-12
		-7.44309000E-01	 1.48804000E+00	 6.99688000E-02
		-1.24369000E+00	 1.24369000E+00	 1.19504000E-12
		-1.37224000E-12	 7.43744000E-01	 8.11795000E-13
		-1.48804000E+00	 7.44309000E-01	-6.99688000E-02
		-7.89147000E-13	 6.41265000E-13	 3.19744000E-13
		-7.43744000E-01	 4.69513000E-13	 4.69402000E-13
		-1.24210000E+00	 4.40759000E-13	 4.02345000E-13
		-2.41274000E-12	 1.96096000E+00	 1.18150000E-12
		-1.96271000E+00	 1.96271000E+00	 1.61893000E-12
		-2.47224000E-12	-2.94209000E-15	 4.46754000E-13
		-1.96096000E+00	 3.28626000E-14	 8.54872000E-13
		-1.94067000E-12	 1.72729000E+00	 1.21902000E-12
		-9.81030000E-01	 1.96195000E+00	 6.66114000E-02
		-1.72867000E+00	 1.72867000E+00	 1.50369000E-12
		-2.42473000E-12	 9.80670000E-01	 7.63389000E-13
		-1.96195000E+00	 9.81030000E-01	-6.66114000E-02
		-1.91669000E-12	 2.50536000E-13	 3.87690000E-13
		-9.80670000E-01	 5.97855000E-14	 7.13207000E-13
		-1.72729000E+00	 2.19408000E-13	 7.72271000E-13
		-3.20455000E-12	 2.40739000E+00	 9.23261000E-13
		-2.40950000E+00	 2.40950000E+00	 1.43296000E-12
		-3.26095000E-12	-5.62245000E-13	 4.28102000E-13
		-2.40739000E+00	-5.65464000E-13	 8.95062000E-13
		-2.87814000E-12	 2.18798000E+00	 1.04838000E-12
		-1.20440000E+00	 2.40854000E+00	 6.21821000E-02
		-2.18992000E+00	 2.18992000E+00	 1.55476000E-12
		-3.28360000E-12	 1.20388000E+00	 6.44373000E-13
		-2.40854000E+00	 1.20440000E+00	-6.21821000E-02
		-2.91189000E-12	-2.95819000E-13	 4.24993000E-13
		-1.20388000E+00	-5.13117000E-13	 6.88782000E-13
		-2.18798000E+00	-2.26430000E-13	 9.29479000E-13
		-3.61727000E-12	 2.82029000E+00	 4.47094000E-13
		-2.82276000E+00	 2.82276000E+00	 8.23008000E-13
		-3.90410000E-12	-1.08547000E-12	 3.48166000E-13
		-2.82029000E+00	-1.03761000E-12	 7.12763000E-13
		-3.51985000E-12	 2.61839000E+00	 6.73586000E-13
		-1.41096000E+00	 2.82164000E+00	 5.69297000E-02
		-2.62069000E+00	 2.62069000E+00	 1.22116000E-12
		-3.77381000E-12	 1.41037000E+00	 4.17888000E-13
		-2.82164000E+00	 1.41096000E+00	-5.69297000E-02
		-3.58824000E-12	-8.35082000E-13	 4.12337000E-13
		-1.41037000E+00	-1.05749000E-12	 5.34017000E-13
		-2.61839000E+00	-8.15736000E-13	 7.79821000E-13
		-3.62194000E-12	 3.19398000E+00	-2.14051000E-13
		-3.19678000E+00	 3.19678000E+00	 4.48530000E-14
		-3.63598000E-12	-1.47837000E-12	 2.42417000E-13
		-3.19398000E+00	-1.44396000E-12	 4.89220000E-13
		-3.69493000E-12	 3.01237000E+00	 1.89432000E-13
		-1.59792000E+00	 3.19551000E+00	 5.08763000E-02
		-3.01501000E+00	 3.01501000E+00	 3.90799000E-13
		-3.69171000E-12	 1.59724000E+00	 3.03646000E-14
		-3.19551000E+00	 1.59792000E+00	-5.08763000E-02
		-3.95431000E-12	-1.27809000E-12	 3.17413000E-13
		-1.59724000E+00	-1.47238000E-12	 3.48416000E-13
		-3.01237000E+00	-1.23568000E-12	 5.74846000E-13
		-2.85083000E-12	 3.52326000E+00	-8.58424000E-13
		-3.52635000E+00	 3.52635000E+00	-8.83515000E-13
		-2.92832000E-12	-1.78749000E-12	 1.17240000E-13
		-3.52326000E+00	-1.67932000E-12	 9.44245000E-14
		-3.23530000E-12	 3.36447000E+00	-5.26690000E-13
		-1.76265000E+00	 3.52495000E+00	 4.41176000E-02
		-3.36742000E+00	 3.36742000E+00	-4.58744000E-13
		-2.99560000E-12	 1.76191000E+00	-3.47056000E-13
		-3.52495000E+00	 1.76265000E+00	-4.41176000E-02
		-3.35176000E-12	-1.69464000E-12	 1.90292000E-13
		-1.76191000E+00	-1.73803000E-12	 1.13465000E-13
		-3.36447000E+00	-1.60028000E-12	 2.34021000E-13
		-1.53266000E-12	 3.80356000E+00	-1.41265000E-12
		-3.80690000E+00	 3.80690000E+00	-1.63936000E-12
		-1.59728000E-12	-1.52200000E-12	 7.83817000E-14
		-3.80356000E+00	-1.42802000E-12	-3.61711000E-13
		-2.20457000E-12	 3.66980000E+00	-1.16085000E-12
		-1.90289000E+00	 3.80539000E+00	 3.67451000E-02
		-3.67301000E+00	 3.67301000E+00	-1.23623000E-12
		-1.51490000E-12	 1.90208000E+00	-6.51257000E-13
		-3.80539000E+00	 1.90289000E+00	-3.67451000E-02
		-2.40963000E-12	-1.75304000E-12	 1.09246000E-13
		-1.90208000E+00	-1.54965000E-12	-1.45217000E-13
		-3.66980000E+00	-1.61568000E-12	-1.08358000E-13
		 1.08580000E-13	 4.03098000E+00	-1.60294000E-12
		-4.03451000E+00	 4.03451000E+00	-2.07434000E-12
		 2.13607000E-13	-1.04031000E-12	-1.97620000E-14
		-4.03098000E+00	-9.99728000E-13	-5.75096000E-13
		-6.37046000E-13	 3.92410000E+00	-1.48970000E-12
		-2.01666000E+00	 4.03291000E+00	 2.88618000E-02
		-3.92754000E+00	 3.92754000E+00	-1.93312000E-12
		 1.63647000E-13	 2.01581000E+00	-7.40297000E-13
		-4.03291000E+00	 2.01666000E+00	-2.88618000E-02
		-6.39488000E-13	-1.35914000E-12	-2.39808000E-14
		-2.01581000E+00	-1.04566000E-12	-3.05977000E-13
		-3.92410000E+00	-1.28758000E-12	-4.73177000E-13
		 1.86162000E-12	 4.20236000E+00	-1.36113000E-12
		-4.20604000E+00	 4.20604000E+00	-1.93956000E-12
		 1.71685000E-12	-3.10307000E-13	-5.19029000E-14
		-4.20236000E+00	-2.87576000E-13	-6.51479000E-13
		 1.03118000E-12	 4.12384000E+00	-1.51701000E-12
		-2.10240000E+00	 4.20437000E+00	 2.05772000E-02
		-4.12746000E+00	 4.12746000E+00	-2.14939000E-12
		 1.71907000E-12	 2.10151000E+00	-6.55809000E-13
		-4.20437000E+00	 2.10240000E+00	-2.05772000E-02
		 1.07070000E-12	-7.08655000E-13	-2.15383000E-14
		-2.10151000E+00	-2.87770000E-13	-3.45057000E-13
		-4.12384000E+00	-6.30964000E-13	-6.56142000E-13
		 2.89901000E-12	 4.31530000E+00	-7.99777000E-13
		-4.31908000E+00	 4.31908000E+00	-1.33227000E-12
		 2.94076000E-12	 3.03813000E-13	-5.58026000E-14
		-4.31530000E+00	 2.00451000E-13	-5.63216000E-13
		 2.56839000E-12	 4.26625000E+00	-1.08399000E-12
		-2.15890000E+00	 4.31737000E+00	 1.20065000E-02
		-4.26999000E+00	 4.26999000E+00	-1.73223000E-12
		 3.25540000E-12	 2.15799000E+00	-4.65961000E-13
		-4.31737000E+00	 2.15890000E+00	-1.20065000E-02
		 2.61391000E-12	 6.71685000E-15	-5.00155000E-14
		-2.15799000E+00	 2.60764000E-13	-3.33567000E-13
		-4.26625000E+00	 2.33147000E-14	-6.03838000E-13
		 3.41052000E-12	 4.36825000E+00	-1.51767000E-13
		-4.37208000E+00	 4.37208000E+00	-5.41261000E-13
		 3.62298000E-12	 6.72906000E-13	-1.49381000E-13
		-4.36825000E+00	 6.99774000E-13	-5.12562000E-13
		 3.20249000E-12	 4.34934000E+00	-4.92495000E-13
		-2.18539000E+00	 4.37035000E+00	 3.26888000E-03
		-4.35316000E+00	 4.35316000E+00	-9.03388000E-13
		 3.49133000E-12	 2.18447000E+00	-1.59095000E-13
		-4.37035000E+00	 2.18539000E+00	-3.26888000E-03
		 3.13072000E-12	 4.71179000E-13	-1.07990000E-13
		-2.18447000E+00	 7.54841000E-13	-3.41227000E-13
		-4.34934000E+00	 5.86309000E-13	-5.22749000E-13
		 3.10446000E-12	 4.36047000E+00	 2.70561000E-13
		-4.36429000E+00	 4.36429000E+00	 9.75886000E-14
		 3.19789000E-12	 1.01408000E-12	-2.15189000E-13
		-4.36047000E+00	 1.12221000E-12	-4.39981000E-13
		 3.30025000E-12	 4.37196000E+00	 6.71685000E-14
		-2.18150000E+00	 4.36256000E+00	-5.51418000E-03
		-4.37580000E+00	 4.37580000E+00	-1.54474000E-13
		 3.03924000E-12	 2.18058000E+00	-1.46549000E-14
		-4.36256000E+00	 2.18150000E+00	 5.51418000E-03
		 3.33400000E-12	 9.85767000E-13	-1.99563000E-13
		-2.18058000E+00	 8.82683000E-13	-3.27433000E-13
		-4.37196000E+00	 9.28035000E-13	-5.07538000E-13
		 2.19957000E-12	 4.29206000E+00	 6.39266000E-13
		-4.29582000E+00	 4.29582000E+00	 6.28164000E-13
		 2.16382000E-12	 1.45639000E-12	-2.01408000E-13
		-4.29206000E+00	 9.48353000E-13	-3.26517000E-13
		 2.92821000E-12	 4.33380000E+00	 5.02320000E-13
		-2.14728000E+00	 4.29412000E+00	-1.42206000E-02
		-4.33760000E+00	 4.33760000E+00	 3.56382000E-13
		 2.09344000E-12	 2.14637000E+00	 2.06557000E-13
		-4.29412000E+00	 2.14728000E+00	 1.42206000E-02
		 2.70595000E-12	 1.18278000E-12	-2.36790000E-13
		-2.14637000E+00	 1.13221000E-12	-2.64677000E-13
		-4.33380000E+00	 1.06926000E-12	-4.39482000E-13
		 8.62199000E-13	 4.16398000E+00	 6.79901000E-13
		-4.16763000E+00	 4.16763000E+00	 7.91811000E-13
		 6.63247000E-13	 1.37304000E-12	-2.32425000E-13
		-4.16398000E+00	 1.01917000E-12	-2.62512000E-13
		 1.36846000E-12	 4.23539000E+00	 7.58060000E-13
		-2.08320000E+00	 4.16597000E+00	-2.27293000E-02
		-4.23910000E+00	 4.23910000E+00	 6.48204000E-13
		 7.24532000E-13	 2.08232000E+00	 2.81533000E-13
		-4.16597000E+00	 2.08320000E+00	 2.27293000E-02
		 1.30962000E-12	 1.23701000E-12	-2.14107000E-13
		-2.08232000E+00	 1.46770000E-12	-2.40030000E-13
		-4.23539000E+00	 1.40332000E-12	-2.43666000E-13
		-2.66849000E-13	 3.97801000E+00	 5.27856000E-13
		-3.98149000E+00	 3.98149000E+00	 9.20042000E-13
		-4.37778000E-13	 1.41742000E-12	-2.57072000E-13
		-3.97801000E+00	 1.26510000E-12	-1.24678000E-13
		 2.95763000E-13	 4.07808000E+00	 6.58362000E-13
		-1.99016000E+00	 3.97991000E+00	-3.09219000E-02
		-4.08166000E+00	 4.08166000E+00	 9.51350000E-13
		-2.59057000E-13	 1.98932000E+00	 1.07733000E-13
		-3.97991000E+00	 1.99016000E+00	 3.09219000E-02
		 2.27596000E-13	 1.34917000E-12	-2.62720000E-13
		-1.98932000E+00	 1.11344000E-12	-2.24543000E-13
		-4.07808000E+00	 1.46400000E-12	-1.99285000E-13
		-5.75096000E-13	 3.73672000E+00	 3.73368000E-13
		-3.74000000E+00	 3.74000000E+00	 6.15508000E-13
		-1.54210000E-12	 1.33049000E-12	-3.08420000E-13
		-3.73672000E+00	 1.22524000E-12	 1.23790000E-14
		-7.21201000E-13	 3.86408000E+00	 4.53096000E-13
		-1.86945000E+00	 3.73851000E+00	-3.86847000E-02
		-3.86747000E+00	 3.86747000E+00	 6.35006000E-13
		-7.88702000E-13	 1.86866000E+00	-8.63198000E-15
		-3.73851000E+00	 1.86945000E+00	 3.86847000E-02
		-4.78728000E-13	 1.22746000E-12	-2.37421000E-13
		-1.86866000E+00	 1.42730000E-12	-1.31950000E-13
		-3.86408000E+00	 1.48392000E-12	-3.53051000E-14
		-1.20093000E-12	 3.44349000E+00	-6.88338000E-14
		-3.44650000E+00	 3.44650000E+00	 6.91225000E-13
		-1.37690000E-12	 7.22089000E-13	-3.73201000E-13
		-3.44349000E+00	 6.73017000E-13	 2.89879000E-13
		-9.07052000E-13	 3.59636000E+00	 2.12719000E-13
		-1.72274000E+00	 3.44514000E+00	-4.59096000E-02
		-3.59951000E+00	 3.59951000E+00	 5.80647000E-13
		-1.13715000E-12	 1.72202000E+00	-2.79110000E-13
		-3.44514000E+00	 1.72274000E+00	 4.59096000E-02
		-1.67044000E-12	 1.10068000E-12	-3.37674000E-13
		-1.72202000E+00	 7.60947000E-13	-1.15574000E-13
		-3.59636000E+00	 1.00098000E-12	 1.57055000E-13
		-1.41986000E-12	 3.10238000E+00	-2.80054000E-13
		-3.10509000E+00	 3.10509000E+00	 3.56493000E-13
		-1.41998000E-12	-8.18234000E-14	-3.43836000E-13
		-3.10238000E+00	-1.11910000E-13	 3.35121000E-13
		-1.78346000E-12	 3.27863000E+00	-9.39249000E-14
		-1.55209000E+00	 3.10386000E+00	-5.24962000E-02
		-3.28151000E+00	 3.28151000E+00	 4.19664000E-13
		-1.17523000E-12	 1.55143000E+00	-3.03757000E-13
		-3.10386000E+00	 1.55209000E+00	 5.24962000E-02
		-1.54041000E-12	 4.02019000E-13	-4.10449000E-13
		-1.55143000E+00	-2.81108000E-13	-3.11418000E-14
		-3.27863000E+00	 3.27738000E-13	 2.57183000E-13
		-1.00853000E-12	 2.71813000E+00	-3.32290000E-13
		-2.72051000E+00	 2.72051000E+00	 1.41082000E-13
		-1.31675000E-12	-8.67750000E-13	-2.18270000E-13
		-2.71813000E+00	-8.49099000E-13	 3.74339000E-13
		-1.57940000E-12	 2.91532000E+00	-3.33733000E-13
		-1.35985000E+00	 2.71943000E+00	-5.83530000E-02
		-2.91788000E+00	 2.91788000E+00	 1.23235000E-13
		-1.04867000E-12	 1.35928000E+00	-3.05089000E-13
		-2.71943000E+00	 1.35985000E+00	 5.83530000E-02
		-1.25500000E-12	-7.34968000E-13	-2.32703000E-13
		-1.35928000E+00	-7.04770000E-13	 7.46070000E-14
		-2.91532000E+00	-4.98490000E-13	 4.08590000E-13
		-6.81899000E-13	 2.29610000E+00	-4.13836000E-13
		-2.29811000E+00	 2.29811000E+00	 8.33222000E-14
		-1.06792000E-12	-1.61071000E-12	-3.09530000E-13
		-2.29610000E+00	-1.38334000E-12	 1.88294000E-13
		-1.05557000E-12	 2.51148000E+00	-4.91940000E-13
		-1.14871000E+00	 2.29720000E+00	-6.33984000E-02
		-2.51368000E+00	 2.51368000E+00	 1.05443000E-13
		-8.58424000E-13	 1.14823000E+00	-4.02567000E-13
		-2.29720000E+00	 1.14871000E+00	 6.33984000E-02
		-1.23346000E-12	-1.28519000E-12	-2.19269000E-13
		-1.14823000E+00	-1.45772000E-12	-6.90559000E-14
		-2.51148000E+00	-1.20925000E-12	 2.43250000E-13
		-1.17528000E-12	 1.84214000E+00	-3.17635000E-13
		-1.84375000E+00	 1.84375000E+00	-2.69229000E-13
		-1.02429000E-12	-1.65919000E-12	-2.11164000E-13
		-1.84214000E+00	-1.67603000E-12	 3.48610000E-14
		-1.34781000E-12	 2.07272000E+00	-3.92686000E-13
		-9.21603000E-01	 1.84302000E+00	-6.75624000E-02
		-2.07454000E+00	 2.07454000E+00	-6.66134000E-14
		-1.16662000E-12	 9.21215000E-01	-1.86740000E-13
		-1.84302000E+00	 9.21603000E-01	 6.75624000E-02
		-1.59806000E-12	-1.65279000E-12	-3.89910000E-13
		-9.21215000E-01	-1.72766000E-12	-7.92699000E-14
		-2.07272000E+00	-1.62181000E-12	 1.74305000E-13
		-6.89448000E-13	 1.36257000E+00	 7.50788000E-14
		-1.36376000E+00	 1.36376000E+00	 2.76723000E-13
		-8.58424000E-13	-2.09921000E-12	-8.52651000E-14
		-1.36257000E+00	-2.01283000E-12	-3.44794000E-14
		-9.50129000E-13	 1.60514000E+00	-1.57971000E-13
		-6.81678000E-01	 1.36322000E+00	-7.07870000E-02
		-1.60655000E+00	 1.60655000E+00	 3.88023000E-14
		-3.92797000E-13	 6.81391000E-01	-8.09630000E-14
		-1.36322000E+00	 6.81678000E-01	 7.07870000E-02
		-9.73222000E-13	-1.70397000E-12	-4.07452000E-14
		-6.81391000E-01	-1.55453000E-12	 3.15026000E-15
		-1.60514000E+00	-1.90820000E-12	-3.67484000E-14
		-4.28102000E-13	 8.64052000E-01	-7.38298000E-14
		-8.64808000E-01	 8.64808000E-01	-2.45803000E-13
		 6.05072000E-14	-2.18447000E-12	-2.66454000E-15
		-8.64052000E-01	-1.91097000E-12	-2.39364000E-13
		-9.88321000E-13	 1.11525000E+00	-6.88893000E-14
		-4.32276000E-01	 8.64465000E-01	-7.30275000E-02
		-1.11623000E+00	 1.11623000E+00	 1.18017000E-13
		-5.91083000E-13	 4.32094000E-01	 5.79536000E-14
		-8.64465000E-01	 4.32276000E-01	 7.30275000E-02
		-4.36096000E-13	-2.28872000E-12	-1.30340000E-13
		-4.32094000E-01	-2.00917000E-12	-2.04281000E-14
		-1.11525000E+00	-1.89182000E-12	-9.43690000E-14
		-7.05547000E-13	 3.53523000E-01	-2.53575000E-13
		-3.53833000E-01	 3.53833000E-01	-6.47260000E-13
		-3.28071000E-13	-1.50013000E-12	 8.88178000E-14
		-3.53523000E-01	-1.62448000E-12	-2.79776000E-13
		-8.23150000E-13	 6.09848000E-01	-3.66485000E-13
		-1.76864000E-01	 3.53693000E-01	-7.42527000E-02
		-6.10383000E-01	 6.10383000E-01	-4.57412000E-13
		-5.78426000E-14	 1.76790000E-01	-7.03881000E-14
		-3.53693000E-01	 1.76864000E-01	 7.42527000E-02
		-3.99528000E-13	-1.94567000E-12	 3.10862000E-15
		-1.76790000E-01	-1.65984000E-12	-2.46470000E-13
		-6.09848000E-01	-1.99885000E-12	-2.55351000E-13
		-4.52971000E-14	-1.61920000E-01	 1.35891000E-13
		 1.62062000E-01	-1.62062000E-01	-5.37348000E-13
		-6.55476000E-13	-7.45876000E-13	 1.26121000E-13
		 1.61920000E-01	-9.34725000E-13	-6.96332000E-13
		-3.33067000E-13	 9.59686000E-02	-1.69420000E-13
		 8.10069000E-02	-1.61997000E-01	-7.44455000E-02
		-9.60528000E-02	 9.60528000E-02	-6.87006000E-13
		-2.11164000E-13	-8.09728000E-02	 4.70735000E-14
		 1.61997000E-01	-8.10069000E-02	 7.44455000E-02
		-3.11973000E-13	-9.20652000E-13	 1.43663000E-13
		 8.09728000E-02	-1.22609000E-12	-2.10942000E-13
		-9.59686000E-02	-1.24639000E-12	-3.23297000E-13
		 4.72622000E-13	-6.75112000E-01	-1.30118000E-13
		 6.75703000E-01	-6.75703000E-01	-6.59028000E-13
		-4.52638000E-13	-4.96270000E-14	 9.05942000E-14
		 6.75112000E-01	 2.32592000E-14	-8.01581000E-13
		 7.68274000E-13	-4.19245000E-01	 3.03979000E-13
		 3.37752000E-01	-6.75435000E-01	-7.36032000E-02
		 4.19613000E-01	-4.19613000E-01	-6.83675000E-13
		-1.91736000E-13	-3.37609000E-01	-1.09246000E-13
		 6.75435000E-01	-3.37752000E-01	 7.36032000E-02
		 2.55573000E-13	-3.23741000E-13	 7.10543000E-14
		 3.37609000E-01	 1.38778000E-13	-2.58238000E-13
		 4.19245000E-01	-4.13530000E-13	-8.13571000E-13
		 5.48450000E-13	-1.17892000E+00	 1.17573000E-13
		 1.17995000E+00	-1.17995000E+00	-7.27973000E-13
		 3.30180000E-13	 1.27579000E-12	-1.12355000E-13
		 1.17892000E+00	 1.35947000E-12	-6.37490000E-13
		-1.41109000E-13	-9.28630000E-01	-2.88880000E-13
		 5.89801000E-01	-1.17948000E+00	-7.17377000E-02
		 9.29444000E-01	-9.29444000E-01	-6.73739000E-13
		 1.31539000E-12	-5.89552000E-01	-1.84741000E-13
		 1.17948000E+00	-5.89801000E-01	 7.17377000E-02
		 3.99125000E-13	 7.38298000E-13	 7.72715000E-14
		 5.89552000E-01	 1.38228000E-12	-3.23075000E-13
		 9.28630000E-01	 5.80043000E-13	-8.35110000E-13
		 3.66152000E-13	-1.66633000E+00	-2.00395000E-13
		 1.66779000E+00	-1.66779000E+00	-5.73874000E-13
		 1.54809000E-12	 1.46239000E-12	 4.44089000E-16
		 1.66633000E+00	 1.96931000E-12	-5.86475000E-13
		-1.87628000E-13	-1.42510000E+00	-3.11751000E-13
		 8.33650000E-01	-1.66713000E+00	-6.88747000E-02
		 1.42635000E+00	-1.42635000E+00	-4.62186000E-13
		 3.85247000E-13	-8.33298000E-01	-5.25135000E-14
		 1.66713000E+00	-8.33650000E-01	 6.88747000E-02
		 6.24389000E-13	 1.80067000E-12	-2.20490000E-13
		 8.33298000E-01	 9.40692000E-13	-2.59301000E-13
		 1.42510000E+00	 1.42486000E-12	-3.68594000E-13
		-3.66041000E-13	-2.13058000E+00	-2.76557000E-13
		 2.13245000E+00	-2.13245000E+00	-5.09315000E-13
		-8.40564000E-13	 2.11577000E-12	 2.49523000E-14
		 2.13058000E+00	 1.68043000E-12	-4.72733000E-13
		 6.20393000E-13	-1.90176000E+00	-3.08642000E-13
		 1.06591000E+00	-2.13160000E+00	-6.50541000E-02
		 1.90343000E+00	-1.90343000E+00	-5.12146000E-13
		 6.76514000E-13	-1.06546000E+00	-2.65510000E-13
		 2.13160000E+00	-1.06591000E+00	 6.50541000E-02
		 9.68670000E-13	 1.72762000E-12	 1.65798000E-13
		 1.06546000E+00	 1.89945000E-12	-2.32703000E-13
		 1.90176000E+00	 1.93306000E-12	-7.66442000E-13
		-2.51313000E-13	-2.56521000E+00	-3.75783000E-13
		 2.56745000E+00	-2.56745000E+00	-4.22995000E-13
		 6.70242000E-13	 1.70530000E-12	-2.32037000E-13
		 2.56521000E+00	 1.84655000E-12	 3.95239000E-14
		-1.63286000E-13	-2.35198000E+00	-1.29452000E-13
		 1.28335000E+00	-2.56643000E+00	-6.03291000E-02
		 2.35405000E+00	-2.35405000E+00	-2.25486000E-13
		-2.34590000E-13	-1.28281000E+00	-2.84744000E-13
		 2.56643000E+00	-1.28335000E+00	 6.03291000E-02
		 7.41407000E-13	 1.37763000E-12	-4.96436000E-13
		 1.28281000E+00	 1.35300000E-12	-1.97176000E-13
		 2.35198000E+00	 2.08684000E-12	-1.92291000E-13
		 8.01581000E-13	-2.96417000E+00	-5.63827000E-13
		 2.96676000E+00	-2.96676000E+00	-2.07390000E-13
		 1.42875000E-12	 1.28308000E-12	-2.00284000E-13
		 2.96417000E+00	 1.13343000E-12	 1.58096000E-13
		 3.91548000E-13	-2.76950000E+00	-5.88612000E-13
		 1.48294000E+00	-2.96558000E+00	-5.47653000E-02
		 2.77193000E+00	-2.77193000E+00	-2.27263000E-13