# vtk DataFile Version 3.0

ASCII
DATASET UNSTRUCTURED_GRID

POINTS 321 double
	 1.00000000E-02	 1.00000000E-02	 0.00000000E+00
	 1.00000000E-02	 5.00000000E-03	 0.00000000E+00
	 1.00000000E-02	 5.00000000E-03	 1.00000000E-02
	 1.00000000E-02	 1.00000000E-02	 1.00000000E-02
	 5.00000000E-03	 1.00000000E-02	 0.00000000E+00
	 5.00000000E-03	 5.00000000E-03	 0.00000000E+00
	 5.00000000E-03	 5.00000000E-03	 1.00000000E-02
	 5.00000000E-03	 1.00000000E-02	 1.00000000E-02
	 1.00000000E-02	 7.50000000E-03	 0.00000000E+00
	 1.00000000E-02	 5.00000000E-03	 5.00000000E-03
	 1.00000000E-02	 7.50000000E-03	 1.00000000E-02
	 1.00000000E-02	 1.00000000E-02	 5.00000000E-03
	 7.50000000E-03	 1.00000000E-02	 0.00000000E+00
	 7.50000000E-03	 5.00000000E-03	 0.00000000E+00
	 7.50000000E-03	 5.00000000E-03	 1.00000000E-02
	 7.50000000E-03	 1.00000000E-02	 1.00000000E-02
	 5.00000000E-03	 7.50000000E-03	 0.00000000E+00
	 5.00000000E-03	 5.00000000E-03	 5.00000000E-03
	 5.00000000E-03	 7.50000000E-03	 1.00000000E-02
	 5.00000000E-03	 1.00000000E-02	 5.00000000E-03
	 1.00000000E-02	 5.00000000E-03	 2.00000000E-02
	 1.00000000E-02	 1.00000000E-02	 2.00000000E-02
	 5.00000000E-03	 5.00000000E-03	 2.00000000E-02
	 5.00000000E-03	 1.00000000E-02	 2.00000000E-02
	 1.00000000E-02	 5.00000000E-03	 1.50000000E-02
	 1.00000000E-02	 7.50000000E-03	 2.00000000E-02
	 1.00000000E-02	 1.00000000E-02	 1.50000000E-02
	 7.50000000E-03	 5.00000000E-03	 2.00000000E-02
	 7.50000000E-03	 1.00000000E-02	 2.00000000E-02
	 5.00000000E-03	 5.00000000E-03	 1.50000000E-02
	 5.00000000E-03	 7.50000000E-03	 2.00000000E-02
	 5.00000000E-03	 1.00000000E-02	 1.50000000E-02
	 1.00000000E-02	 5.00000000E-03	 3.00000000E-02
	 1.00000000E-02	 1.00000000E-02	 3.00000000E-02
	 5.00000000E-03	 5.00000000E-03	 3.00000000E-02
	 5.00000000E-03	 1.00000000E-02	 3.00000000E-02
	 1.00000000E-02	 5.00000000E-03	 2.50000000E-02
	 1.00000000E-02	 7.50000000E-03	 3.00000000E-02
	 1.00000000E-02	 1.00000000E-02	 2.50000000E-02
	 7.50000000E-03	 5.00000000E-03	 3.00000000E-02
	 7.50000000E-03	 1.00000000E-02	 3.00000000E-02
	 5.00000000E-03	 5.00000000E-03	 2.50000000E-02
	 5.00000000E-03	 7.50000000E-03	 3.00000000E-02
	 5.00000000E-03	 1.00000000E-02	 2.50000000E-02
	 1.00000000E-02	 5.00000000E-03	 4.00000000E-02
	 1.00000000E-02	 1.00000000E-02	 4.00000000E-02
	 5.00000000E-03	 5.00000000E-03	 4.00000000E-02
	 5.00000000E-03	 1.00000000E-02	 4.00000000E-02
	 1.00000000E-02	 5.00000000E-03	 3.50000000E-02
	 1.00000000E-02	 7.50000000E-03	 4.00000000E-02
	 1.00000000E-02	 1.00000000E-02	 3.50000000E-02
	 7.50000000E-03	 5.00000000E-03	 4.00000000E-02
	 7.50000000E-03	 1.00000000E-02	 4.00000000E-02
	 5.00000000E-03	 5.00000000E-03	 3.50000000E-02
	 5.00000000E-03	 7.50000000E-03	 4.00000000E-02
	 5.00000000E-03	 1.00000000E-02	 3.50000000E-02
	 1.00000000E-02	 5.00000000E-03	 5.00000000E-02
	 1.00000000E-02	 1.00000000E-02	 5.00000000E-02
	 5.00000000E-03	 5.00000000E-03	 5.00000000E-02
	 5.00000000E-03	 1.00000000E-02	 5.00000000E-02
	 1.00000000E-02	 5.00000000E-03	 4.50000000E-02
	 1.00000000E-02	 7.50000000E-03	 5.00000000E-02
	 1.00000000E-02	 1.00000000E-02	 4.50000000E-02
	 7.50000000E-03	 5.00000000E-03	 5.00000000E-02
	 7.50000000E-03	 1.00000000E-02	 5.00000000E-02
	 5.00000000E-03	 5.00000000E-03	 4.50000000E-02
	 5.00000000E-03	 7.50000000E-03	 5.00000000E-02
	 5.00000000E-03	 1.00000000E-02	 4.50000000E-02
	 1.00000000E-02	 5.00000000E-03	 6.00000000E-02
	 1.00000000E-02	 1.00000000E-02	 6.00000000E-02
	 5.00000000E-03	 5.00000000E-03	 6.00000000E-02
	 5.00000000E-03	 1.00000000E-02	 6.00000000E-02
	 1.00000000E-02	 5.00000000E-03	 5.50000000E-02
	 1.00000000E-02	 7.50000000E-03	 6.00000000E-02
	 1.00000000E-02	 1.00000000E-02	 5.50000000E-02
	 7.50000000E-03	 5.00000000E-03	 6.00000000E-02
	 7.50000000E-03	 1.00000000E-02	 6.00000000E-02
	 5.00000000E-03	 5.00000000E-03	 5.50000000E-02
	 5.00000000E-03	 7.50000000E-03	 6.00000000E-02
	 5.00000000E-03	 1.00000000E-02	 5.50000000E-02
	 1.00000000E-02	 5.00000000E-03	 7.00000000E-02
	 1.00000000E-02	 1.00000000E-02	 7.00000000E-02
	 5.00000000E-03	 5.00000000E-03	 7.00000000E-02
	 5.00000000E-03	 1.00000000E-02	 7.00000000E-02
	 1.00000000E-02	 5.00000000E-03	 6.50000000E-02
	 1.00000000E-02	 7.50000000E-03	 7.00000000E-02
	 1.00000000E-02	 1.00000000E-02	 6.50000000E-02
	 7.50000000E-03	 5.00000000E-03	 7.00000000E-02
	 7.50000000E-03	 1.00000000E-02	 7.00000000E-02
	 5.00000000E-03	 5.00000000E-03	 6.50000000E-02
	 5.00000000E-03	 7.50000000E-03	 7.00000000E-02
	 5.00000000E-03	 1.00000000E-02	 6.50000000E-02
	 1.00000000E-02	 5.00000000E-03	 8.00000000E-02
	 1.00000000E-02	 1.00000000E-02	 8.00000000E-02
	 5.00000000E-03	 5.00000000E-03	 8.00000000E-02
	 5.00000000E-03	 1.00000000E-02	 8.00000000E-02
	 1.00000000E-02	 5.00000000E-03	 7.50000000E-02
	 1.00000000E-02	 7.50000000E-03	 8.00000000E-02
	 1.00000000E-02	 1.00000000E-02	 7.50000000E-02
	 7.50000000E-03	 5.00000000E-03	 8.00000000E-02
	 7.50000000E-03	 1.00000000E-02	 8.00000000E-02
	 5.00000000E-03	 5.00000000E-03	 7.50000000E-02
	 5.00000000E-03	 7.50000000E-03	 8.00000000E-02
	 5.00000000E-03	 1.00000000E-02	 7.50000000E-02
	 1.00000000E-02	 5.00000000E-03	 9.00000000E-02
	 1.00000000E-02	 1.00000000E-02	 9.00000000E-02
	 5.00000000E-03	 5.00000000E-03	 9.00000000E-02
	 5.00000000E-03	 1.00000000E-02	 9.00000000E-02
	 1.00000000E-02	 5.00000000E-03	 8.50000000E-02
	 1.00000000E-02	 7.50000000E-03	 9.00000000E-02
	 1.00000000E-02	 1.00000000E-02	 8.50000000E-02
	 7.50000000E-03	 5.00000000E-03	 9.00000000E-02
	 7.50000000E-03	 1.00000000E-02	 9.00000000E-02
	 5.00000000E-03	 5.00000000E-03	 8.50000000E-02
	 5.00000000E-03	 7.50000000E-03	 9.00000000E-02
	 5.00000000E-03	 1.00000000E-02	 8.50000000E-02
	 1.00000000E-02	 5.00000000E-03	 1.00000000E-01
	 1.00000000E-02	 1.00000000E-02	 1.00000000E-01
	 5.00000000E-03	 5.00000000E-03	 1.00000000E-01
	 5.00000000E-03	 1.00000000E-02	 1.00000000E-01
	 1.00000000E-02	 5.00000000E-03	 9.50000000E-02
	 1.00000000E-02	 7.50000000E-03	 1.00000000E-01
	 1.00000000E-02	 1.00000000E-02	 9.50000000E-02
	 7.50000000E-03	 5.00000000E-03	 1.00000000E-01
	 7.50000000E-03	 1.00000000E-02	 1.00000000E-01
	 5.00000000E-03	 5.00000000E-03	 9.50000000E-02
	 5.00000000E-03	 7.50000000E-03	 1.00000000E-01
	 5.00000000E-03	 1.00000000E-02	 9.50000000E-02
	 0.00000000E+00	 1.00000000E-02	 0.00000000E+00
	 0.00000000E+00	 5.00000000E-03	 0.00000000E+00
	 0.00000000E+00	 5.00000000E-03	 1.00000000E-02
	 0.00000000E+00	 1.00000000E-02	 1.00000000E-02
	 2.50000000E-03	 1.00000000E-02	 0.00000000E+00
	 2.50000000E-03	 5.00000000E-03	 0.00000000E+00
	 2.50000000E-03	 5.00000000E-03	 1.00000000E-02
	 2.50000000E-03	 1.00000000E-02	 1.00000000E-02
	 0.00000000E+00	 7.50000000E-03	 0.00000000E+00
	 0.00000000E+00	 5.00000000E-03	 5.00000000E-03
	 0.00000000E+00	 7.50000000E-03	 1.00000000E-02
	 0.00000000E+00	 1.00000000E-02	 5.00000000E-03
	 0.00000000E+00	 5.00000000E-03	 2.00000000E-02
	 0.00000000E+00	 1.00000000E-02	 2.00000000E-02
	 2.50000000E-03	 5.00000000E-03	 2.00000000E-02
	 2.50000000E-03	 1.00000000E-02	 2.00000000E-02
	 0.00000000E+00	 5.00000000E-03	 1.50000000E-02
	 0.00000000E+00	 7.50000000E-03	 2.00000000E-02
	 0.00000000E+00	 1.00000000E-02	 1.50000000E-02
	 0.00000000E+00	 5.00000000E-03	 3.00000000E-02
	 0.00000000E+00	 1.00000000E-02	 3.00000000E-02
	 2.50000000E-03	 5.00000000E-03	 3.00000000E-02
	 2.50000000E-03	 1.00000000E-02	 3.00000000E-02
	 0.00000000E+00	 5.00000000E-03	 2.50000000E-02
	 0.00000000E+00	 7.50000000E-03	 3.00000000E-02
	 0.00000000E+00	 1.00000000E-02	 2.50000000E-02
	 0.00000000E+00	 5.00000000E-03	 4.00000000E-02
	 0.00000000E+00	 1.00000000E-02	 4.00000000E-02
	 2.50000000E-03	 5.00000000E-03	 4.00000000E-02
	 2.50000000E-03	 1.00000000E-02	 4.00000000E-02
	 0.00000000E+00	 5.00000000E-03	 3.50000000E-02
	 0.00000000E+00	 7.50000000E-03	 4.00000000E-02
	 0.00000000E+00	 1.00000000E-02	 3.50000000E-02
	 0.00000000E+00	 5.00000000E-03	 5.00000000E-02
	 0.00000000E+00	 1.00000000E-02	 5.00000000E-02
	 2.50000000E-03	 5.00000000E-03	 5.00000000E-02
	 2.50000000E-03	 1.00000000E-02	 5.00000000E-02
	 0.00000000E+00	 5.00000000E-03	 4.50000000E-02
	 0.00000000E+00	 7.50000000E-03	 5.00000000E-02
	 0.00000000E+00	 1.00000000E-02	 4.50000000E-02
	 0.00000000E+00	 5.00000000E-03	 6.00000000E-02
	 0.00000000E+00	 1.00000000E-02	 6.00000000E-02
	 2.50000000E-03	 5.00000000E-03	 6.00000000E-02
	 2.50000000E-03	 1.00000000E-02	 6.00000000E-02
	 0.00000000E+00	 5.00000000E-03	 5.50000000E-02
	 0.00000000E+00	 7.50000000E-03	 6.00000000E-02
	 0.00000000E+00	 1.00000000E-02	 5.50000000E-02
	 0.00000000E+00	 5.00000000E-03	 7.00000000E-02
	 0.00000000E+00	 1.00000000E-02	 7.00000000E-02
	 2.50000000E-03	 5.00000000E-03	 7.00000000E-02
	 2.50000000E-03	 1.00000000E-02	 7.00000000E-02
	 0.00000000E+00	 5.00000000E-03	 6.50000000E-02
	 0.00000000E+00	 7.50000000E-03	 7.00000000E-02
	 0.00000000E+00	 1.00000000E-02	 6.50000000E-02
	 0.00000000E+00	 5.00000000E-03	 8.00000000E-02
	 0.00000000E+00	 1.00000000E-02	 8.00000000E-02
	 2.50000000E-03	 5.00000000E-03	 8.00000000E-02
	 2.50000000E-03	 1.00000000E-02	 8.00000000E-02
	 0.00000000E+00	 5.00000000E-03	 7.50000000E-02
	 0.00000000E+00	 7.50000000E-03	 8.00000000E-02
	 0.00000000E+00	 1.00000000E-02	 7.50000000E-02
	 0.00000000E+00	 5.00000000E-03	 9.00000000E-02
	 0.00000000E+00	 1.00000000E-02	 9.00000000E-02
	 2.50000000E-03	 5.00000000E-03	 9.00000000E-02
	 2.50000000E-03	 1.00000000E-02	 9.00000000E-02
	 0.00000000E+00	 5.00000000E-03	 8.50000000E-02
	 0.00000000E+00	 7.50000000E-03	 9.00000000E-02
	 0.00000000E+00	 1.00000000E-02	 8.50000000E-02
	 0.00000000E+00	 5.00000000E-03	 1.00000000E-01
	 0.00000000E+00	 1.00000000E-02	 1.00000000E-01
	 2.50000000E-03	 5.00000000E-03	 1.00000000E-01
	 2.50000000E-03	 1.00000000E-02	 1.00000000E-01
	 0.00000000E+00	 5.00000000E-03	 9.50000000E-02
	 0.00000000E+00	 7.50000000E-03	 1.00000000E-01
	 0.00000000E+00	 1.00000000E-02	 9.50000000E-02
	 1.00000000E-02	 0.00000000E+00	 0.00000000E+00
	 1.00000000E-02	 0.00000000E+00	 1.00000000E-02
	 5.00000000E-03	 0.00000000E+00	 0.00000000E+00
	 5.00000000E-03	 0.00000000E+00	 1.00000000E-02
	 1.00000000E-02	 2.50000000E-03	 0.00000000E+00
	 1.00000000E-02	 0.00000000E+00	 5.00000000E-03
	 1.00000000E-02	 2.50000000E-03	 1.00000000E-02
	 7.50000000E-03	 0.00000000E+00	 0.00000000E+00
	 7.50000000E-03	 0.00000000E+00	 1.00000000E-02
	 5.00000000E-03	 2.50000000E-03	 0.00000000E+00
	 5.00000000E-03	 0.00000000E+00	 5.00000000E-03
	 5.00000000E-03	 2.50000000E-03	 1.00000000E-02
	 1.00000000E-02	 0.00000000E+00	 2.00000000E-02
	 5.00000000E-03	 0.00000000E+00	 2.00000000E-02
	 1.00000000E-02	 0.00000000E+00	 1.50000000E-02
	 1.00000000E-02	 2.50000000E-03	 2.00000000E-02
	 7.50000000E-03	 0.00000000E+00	 2.00000000E-02
	 5.00000000E-03	 0.00000000E+00	 1.50000000E-02
	 5.00000000E-03	 2.50000000E-03	 2.00000000E-02
	 1.00000000E-02	 0.00000000E+00	 3.00000000E-02
	 5.00000000E-03	 0.00000000E+00	 3.00000000E-02
	 1.00000000E-02	 0.00000000E+00	 2.50000000E-02
	 1.00000000E-02	 2.50000000E-03	 3.00000000E-02
	 7.50000000E-03	 0.00000000E+00	 3.00000000E-02
	 5.00000000E-03	 0.00000000E+00	 2.50000000E-02
	 5.00000000E-03	 2.50000000E-03	 3.00000000E-02
	 1.00000000E-02	 0.00000000E+00	 4.00000000E-02
	 5.00000000E-03	 0.00000000E+00	 4.00000000E-02
	 1.00000000E-02	 0.00000000E+00	 3.50000000E-02
	 1.00000000E-02	 2.50000000E-03	 4.00000000E-02
	 7.50000000E-03	 0.00000000E+00	 4.00000000E-02
	 5.00000000E-03	 0.00000000E+00	 3.50000000E-02
	 5.00000000E-03	 2.50000000E-03	 4.00000000E-02
	 1.00000000E-02	 0.00000000E+00	 5.00000000E-02
	 5.00000000E-03	 0.00000000E+00	 5.00000000E-02
	 1.00000000E-02	 0.00000000E+00	 4.50000000E-02
	 1.00000000E-02	 2.50000000E-03	 5.00000000E-02
	 7.50000000E-03	 0.00000000E+00	 5.00000000E-02
	 5.00000000E-03	 0.00000000E+00	 4.50000000E-02
	 5.00000000E-03	 2.50000000E-03	 5.00000000E-02
	 1.00000000E-02	 0.00000000E+00	 6.00000000E-02
	 5.00000000E-03	 0.00000000E+00	 6.00000000E-02
	 1.00000000E-02	 0.00000000E+00	 5.50000000E-02
	 1.00000000E-02	 2.50000000E-03	 6.00000000E-02
	 7.50000000E-03	 0.00000000E+00	 6.00000000E-02
	 5.00000000E-03	 0.00000000E+00	 5.50000000E-02
	 5.00000000E-03	 2.50000000E-03	 6.00000000E-02
	 1.00000000E-02	 0.00000000E+00	 7.00000000E-02
	 5.00000000E-03	 0.00000000E+00	 7.00000000E-02
	 1.00000000E-02	 0.00000000E+00	 6.50000000E-02
	 1.00000000E-02	 2.50000000E-03	 7.00000000E-02
	 7.50000000E-03	 0.00000000E+00	 7.00000000E-02
	 5.00000000E-03	 0.00000000E+00	 6.50000000E-02
	 5.00000000E-03	 2.50000000E-03	 7.00000000E-02
	 1.00000000E-02	 0.00000000E+00	 8.00000000E-02
	 5.00000000E-03	 0.00000000E+00	 8.00000000E-02
	 1.00000000E-02	 0.00000000E+00	 7.50000000E-02
	 1.00000000E-02	 2.50000000E-03	 8.00000000E-02
	 7.50000000E-03	 0.00000000E+00	 8.00000000E-02
	 5.00000000E-03	 0.00000000E+00	 7.50000000E-02
	 5.00000000E-03	 2.50000000E-03	 8.00000000E-02
	 1.00000000E-02	 0.00000000E+00	 9.00000000E-02
	 5.00000000E-03	 0.00000000E+00	 9.00000000E-02
	 1.00000000E-02	 0.00000000E+00	 8.50000000E-02
	 1.00000000E-02	 2.50000000E-03	 9.00000000E-02
	 7.50000000E-03	 0.00000000E+00	 9.00000000E-02
	 5.00000000E-03	 0.00000000E+00	 8.50000000E-02
	 5.00000000E-03	 2.50000000E-03	 9.00000000E-02
	 1.00000000E-02	 0.00000000E+00	 1.00000000E-01
	 5.00000000E-03	 0.00000000E+00	 1.00000000E-01
	 1.00000000E-02	 0.00000000E+00	 9.50000000E-02
	 1.00000000E-02	 2.50000000E-03	 1.00000000E-01
	 7.50000000E-03	 0.00000000E+00	 1.00000000E-01
	 5.00000000E-03	 0.00000000E+00	 9.50000000E-02
	 5.00000000E-03	 2.50000000E-03	 1.00000000E-01
	 0.00000000E+00	 0.00000000E+00	 0.00000000E+00
	 0.00000000E+00	 0.00000000E+00	 1.00000000E-02
	 2.50000000E-03	 0.00000000E+00	 0.00000000E+00
	 2.50000000E-03	 0.00000000E+00	 1.00000000E-02
	 0.00000000E+00	 2.50000000E-03	 0.00000000E+00
	 0.00000000E+00	 0.00000000E+00	 5.00000000E-03
	 0.00000000E+00	 2.50000000E-03	 1.00000000E-02
	 0.00000000E+00	 0.00000000E+00	 2.00000000E-02
	 2.50000000E-03	 0.00000000E+00	 2.00000000E-02
	 0.00000000E+00	 0.00000000E+00	 1.50000000E-02
	 0.00000000E+00	 2.50000000E-03	 2.00000000E-02
	 0.00000000E+00	 0.00000000E+00	 3.00000000E-02
	 2.50000000E-03	 0.00000000E+00	 3.00000000E-02
	 0.00000000E+00	 0.00000000E+00	 2.50000000E-02
	 0.00000000E+00	 2.50000000E-03	 3.00000000E-02
	 0.00000000E+00	 0.00000000E+00	 4.00000000E-02
	 2.50000000E-03	 0.00000000E+00	 4.00000000E-02
	 0.00000000E+00	 0.00000000E+00	 3.50000000E-02
	 0.00000000E+00	 2.50000000E-03	 4.00000000E-02
	 0.00000000E+00	 0.00000000E+00	 5.00000000E-02
	 2.50000000E-03	 0.00000000E+00	 5.00000000E-02
	 0.00000000E+00	 0.00000000E+00	 4.50000000E-02
	 0.00000000E+00	 2.50000000E-03	 5.00000000E-02
	 0.00000000E+00	 0.00000000E+00	 6.00000000E-02
	 2.50000000E-03	 0.00000000E+00	 6.00000000E-02
	 0.00000000E+00	 0.00000000E+00	 5.50000000E-02
	 0.00000000E+00	 2.50000000E-03	 6.00000000E-02
	 0.00000000E+00	 0.00000000E+00	 7.00000000E-02
	 2.50000000E-03	 0.00000000E+00	 7.00000000E-02
	 0.00000000E+00	 0.00000000E+00	 6.50000000E-02
	 0.00000000E+00	 2.50000000E-03	 7.00000000E-02
	 0.00000000E+00	 0.00000000E+00	 8.00000000E-02
	 2.50000000E-03	 0.00000000E+00	 8.00000000E-02
	 0.00000000E+00	 0.00000000E+00	 7.50000000E-02
	 0.00000000E+00	 2.50000000E-03	 8.00000000E-02
	 0.00000000E+00	 0.00000000E+00	 9.00000000E-02
	 2.50000000E-03	 0.00000000E+00	 9.00000000E-02
	 0.00000000E+00	 0.00000000E+00	 8.50000000E-02
	 0.00000000E+00	 2.50000000E-03	 9.00000000E-02
	 0.00000000E+00	 0.00000000E+00	 1.00000000E-01
	 2.50000000E-03	 0.00000000E+00	 1.00000000E-01
	 0.00000000E+00	 0.00000000E+00	 9.50000000E-02
	 0.00000000E+00	 2.50000000E-03	 1.00000000E-01

CELLS 40 840
	20 0 1 2 3 4 5 6 7 8 9 10 11 16 17 18 19 12 13 14 15 
	20 3 2 20 21 7 6 22 23 10 24 25 26 18 29 30 31 15 14 27 28 
	20 21 20 32 33 23 22 34 35 25 36 37 38 30 41 42 43 28 27 39 40 
	20 33 32 44 45 35 34 46 47 37 48 49 50 42 53 54 55 40 39 51 52 
	20 45 44 56 57 47 46 58 59 49 60 61 62 54 65 66 67 52 51 63 64 
	20 57 56 68 69 59 58 70 71 61 72 73 74 66 77 78 79 64 63 75 76 
	20 69 68 80 81 71 70 82 83 73 84 85 86 78 89 90 91 76 75 87 88 
	20 81 80 92 93 83 82 94 95 85 96 97 98 90 101 102 103 88 87 99 100 
	20 93 92 104 105 95 94 106 107 97 108 109 110 102 113 114 115 100 99 111 112 
	20 105 104 116 117 107 106 118 119 109 120 121 122 114 125 126 127 112 111 123 124 
	20 4 5 6 7 128 129 130 131 16 17 18 19 136 137 138 139 132 133 134 135 
	20 7 6 22 23 131 130 140 141 18 29 30 31 138 144 145 146 135 134 142 143 
	20 23 22 34 35 141 140 147 148 30 41 42 43 145 151 152 153 143 142 149 150 
	20 35 34 46 47 148 147 154 155 42 53 54 55 152 158 159 160 150 149 156 157 
	20 47 46 58 59 155 154 161 162 54 65 66 67 159 165 166 167 157 156 163 164 
	20 59 58 70 71 162 161 168 169 66 77 78 79 166 172 173 174 164 163 170 171 
	20 71 70 82 83 169 168 175 176 78 89 90 91 173 179 180 181 171 170 177 178 
	20 83 82 94 95 176 175 182 183 90 101 102 103 180 186 187 188 178 177 184 185 
	20 95 94 106 107 183 182 189 190 102 113 114 115 187 193 194 195 185 184 191 192 
	20 107 106 118 119 190 189 196 197 114 125 126 127 194 200 201 202 192 191 198 199 
	20 1 203 204 2 5 205 206 6 207 208 209 9 212 213 214 17 13 210 211 14 
	20 2 204 215 20 6 206 216 22 209 217 218 24 214 220 221 29 14 211 219 27 
	20 20 215 222 32 22 216 223 34 218 224 225 36 221 227 228 41 27 219 226 39 
	20 32 222 229 44 34 223 230 46 225 231 232 48 228 234 235 53 39 226 233 51 
	20 44 229 236 56 46 230 237 58 232 238 239 60 235 241 242 65 51 233 240 63 
	20 56 236 243 68 58 237 244 70 239 245 246 72 242 248 249 77 63 240 247 75 
	20 68 243 250 80 70 244 251 82 246 252 253 84 249 255 256 89 75 247 254 87 
	20 80 250 257 92 82 251 258 94 253 259 260 96 256 262 263 101 87 254 261 99 
	20 92 257 264 104 94 258 265 106 260 266 267 108 263 269 270 113 99 261 268 111 
	20 104 264 271 116 106 265 272 118 267 273 274 120 270 276 277 125 111 268 275 123 
	20 5 205 206 6 129 278 279 130 212 213 214 17 282 283 284 137 133 280 281 134 
	20 6 206 216 22 130 279 285 140 214 220 221 29 284 287 288 144 134 281 286 142 
	20 22 216 223 34 140 285 289 147 221 227 228 41 288 291 292 151 142 286 290 149 
	20 34 223 230 46 147 289 293 154 228 234 235 53 292 295 296 158 149 290 294 156 
	20 46 230 237 58 154 293 297 161 235 241 242 65 296 299 300 165 156 294 298 163 
	20 58 237 244 70 161 297 301 168 242 248 249 77 300 303 304 172 163 298 302 170 
	20 70 244 251 82 168 301 305 175 249 255 256 89 304 307 308 179 170 302 306 177 
	20 82 251 258 94 175 305 309 182 256 262 263 101 308 311 312 186 177 306 310 184 
	20 94 258 265 106 182 309 313 189 263 269 270 113 312 315 316 193 184 310 314 191 
	20 106 265 272 118 189 313 317 196 270 276 277 125 316 319 320 200 191 314 318 198 

CELL_TYPES 40
	25
	25
	25
	25
	25
	25
	25
	25
	25
	25
	25
	25
	25
	25
	25
	25
	25
	25
	25
	25
	25
	25
	25
	25
	25
	25
	25
	25
	25
	25
	25
	25
	25
	25
	25
	25
	25
	25
	25
	25

POINT_DATA 321
FIELD U 1
	U 3 321 double
		 0.00000000E+00	 0.00000000E+00	 0.00000000E+00
		 0.00000000E+00	 0.00000000E+00	 0.00000000E+00
		 7.07157000E-09	-8.96909000E-21	-4.55758000E-08
		 6.84802000E-09	 6.84802000E-09	-4.53697000E-08
		 0.00000000E+00	 0.00000000E+00	 0.00000000E+00
		 0.00000000E+00	 0.00000000E+00	 0.00000000E+00
		 5.86854000E-21	-1.07452000E-20	-4.57952000E-08
		 4.44718000E-21	 7.07157000E-09	-4.55758000E-08
		 0.00000000E+00	 0.00000000E+00	 0.00000000E+00
		 7.06424000E-09	-1.47204000E-21	-2.13085000E-08
		 6.94550000E-09	 3.44221000E-09	-4.53548000E-08
		 7.05511000E-09	 7.05511000E-09	-2.25330000E-08
		 0.00000000E+00	 0.00000000E+00	 0.00000000E+00
		 0.00000000E+00	 0.00000000E+00	 0.00000000E+00
		 3.53116000E-09	-1.00973000E-20	-4.55688000E-08
		 3.44221000E-09	 6.94550000E-09	-4.53548000E-08
		 0.00000000E+00	 0.00000000E+00	 0.00000000E+00
		 1.48716000E-21	-2.67492000E-21	-2.00508000E-08
		 5.28938000E-21	 3.53116000E-09	-4.55688000E-08
		 5.91333000E-22	 7.06424000E-09	-2.13085000E-08
		 7.15612000E-09	-3.90177000E-20	-9.29602000E-08
		 7.12314000E-09	 7.12314000E-09	-9.29287000E-08
		 2.25270000E-20	-4.17092000E-20	-9.29569000E-08
		 2.01672000E-20	 7.15612000E-09	-9.29602000E-08
		 7.12783000E-09	-2.15444000E-20	-6.92187000E-08
		 7.14580000E-09	 3.55227000E-09	-9.29680000E-08
		 7.15712000E-09	 7.15712000E-09	-6.92166000E-08
		 3.57489000E-09	-4.05104000E-20	-9.29829000E-08
		 3.55227000E-09	 7.14580000E-09	-9.29680000E-08
		 1.29316000E-20	-2.38107000E-20	-6.92415000E-08
		 2.14240000E-20	 3.57489000E-09	-9.29829000E-08
		 1.10034000E-20	 7.12783000E-09	-6.92187000E-08
		 7.14575000E-09	-8.65794000E-20	-1.40607000E-07
		 7.14135000E-09	 7.14135000E-09	-1.40609000E-07
		 4.86015000E-20	-9.00684000E-20	-1.40601000E-07
		 4.53352000E-20	 7.14575000E-09	-1.40607000E-07
		 7.13613000E-09	-6.08119000E-20	-1.16776000E-07
		 7.14134000E-09	 3.57303000E-09	-1.40602000E-07
		 7.13939000E-09	 7.13939000E-09	-1.16784000E-07
		 3.57348000E-09	-8.84704000E-20	-1.40598000E-07
		 3.57303000E-09	 7.14134000E-09	-1.40602000E-07
		 3.44320000E-20	-6.39006000E-20	-1.16780000E-07
		 4.70496000E-20	 3.57348000E-09	-1.40598000E-07
		 3.15802000E-20	 7.13613000E-09	-1.16776000E-07
		 7.14243000E-09	-1.49163000E-19	-1.88216000E-07
		 7.14258000E-09	 7.14258000E-09	-1.88215000E-07
		 8.31574000E-20	-1.53558000E-19	-1.88217000E-07
		 7.89252000E-20	 7.14243000E-09	-1.88216000E-07
		 7.14435000E-09	-1.16173000E-19	-1.64411000E-07
		 7.14320000E-09	 3.57064000E-09	-1.88217000E-07
		 7.14414000E-09	 7.14414000E-09	-1.64410000E-07
		 3.57110000E-09	-1.51460000E-19	-1.88218000E-07
		 3.57064000E-09	 7.14320000E-09	-1.88217000E-07
		 6.48195000E-20	-1.20119000E-19	-1.64411000E-07
		 8.11229000E-20	 3.57110000E-09	-1.88218000E-07
		 6.11634000E-20	 7.14435000E-09	-1.64411000E-07
		 7.14303000E-09	-2.22858000E-19	-2.35837000E-07
		 7.14290000E-09	 7.14290000E-09	-2.35838000E-07
		 1.24531000E-19	-2.28337000E-19	-2.35837000E-07
		 1.19185000E-19	 7.14303000E-09	-2.35837000E-07
		 7.14243000E-09	-1.84901000E-19	-2.12027000E-07
		 7.14275000E-09	 3.57163000E-09	-2.35837000E-07
		 7.14255000E-09	 7.14255000E-09	-2.12027000E-07
		 3.57154000E-09	-2.25656000E-19	-2.35837000E-07
		 3.57163000E-09	 7.14275000E-09	-2.35837000E-07
		 1.03184000E-19	-1.89754000E-19	-2.12027000E-07
		 1.21871000E-19	 3.57154000E-09	-2.35837000E-07
		 9.83536000E-20	 7.14243000E-09	-2.12027000E-07
		 7.14280000E-09	-3.04625000E-19	-2.83456000E-07
		 7.14284000E-09	 7.14284000E-09	-2.83456000E-07
		 1.69391000E-19	-3.11403000E-19	-2.83456000E-07
		 1.63087000E-19	 7.14280000E-09	-2.83456000E-07
		 7.14298000E-09	-2.62850000E-19	-2.59647000E-07
		 7.14288000E-09	 3.57137000E-09	-2.83456000E-07
		 7.14294000E-09	 7.14294000E-09	-2.59647000E-07
		 3.57140000E-09	-3.08088000E-19	-2.83456000E-07
		 3.57137000E-09	 7.14288000E-09	-2.83456000E-07
		 1.46612000E-19	-2.68898000E-19	-2.59647000E-07
		 1.66292000E-19	 3.57140000E-09	-2.83456000E-07
		 1.40838000E-19	 7.14298000E-09	-2.59647000E-07
		 7.14287000E-09	-3.94147000E-19	-3.31075000E-07
		 7.14286000E-09	 7.14286000E-09	-3.31075000E-07
		 2.16414000E-19	-4.01644000E-19	-3.31075000E-07
		 2.09000000E-19	 7.14287000E-09	-3.31075000E-07
		 7.14282000E-09	-3.48336000E-19	-3.07265000E-07
		 7.14285000E-09	 3.57144000E-09	-3.31075000E-07
		 7.14284000E-09	 7.14284000E-09	-3.07266000E-07
		 3.57144000E-09	-3.97967000E-19	-3.31075000E-07
		 3.57144000E-09	 7.14285000E-09	-3.31075000E-07
		 1.92790000E-19	-3.55561000E-19	-3.07265000E-07
		 2.12690000E-19	 3.57144000E-09	-3.31075000E-07
		 1.85884000E-19	 7.14282000E-09	-3.07265000E-07
		 7.14285000E-09	-4.89891000E-19	-3.78694000E-07
		 7.14286000E-09	 7.14286000E-09	-3.78694000E-07
		 2.63670000E-19	-4.98329000E-19	-3.78694000E-07
		 2.55238000E-19	 7.14285000E-09	-3.78694000E-07
		 7.14287000E-09	-4.41354000E-19	-3.54885000E-07
		 7.14286000E-09	 3.57142000E-09	-3.78694000E-07
		 7.14286000E-09	 7.14286000E-09	-3.54885000E-07
		 3.57143000E-09	-4.94122000E-19	-3.78694000E-07
		 3.57142000E-09	 7.14286000E-09	-3.78694000E-07
		 2.39968000E-19	-4.49397000E-19	-3.54885000E-07
		 2.59485000E-19	 3.57143000E-09	-3.78694000E-07
		 2.32043000E-19	 7.14287000E-09	-3.54885000E-07
		 7.14286000E-09	-5.89144000E-19	-4.26313000E-07
		 7.14286000E-09	 7.14286000E-09	-4.26313000E-07
		 3.13458000E-19	-5.98720000E-19	-4.26313000E-07
		 3.04118000E-19	 7.14286000E-09	-4.26313000E-07
		 7.14285000E-09	-5.39041000E-19	-4.02504000E-07
		 7.14286000E-09	 3.57143000E-09	-4.26313000E-07
		 7.14286000E-09	 7.14286000E-09	-4.02504000E-07
		 3.57143000E-09	-5.93938000E-19	-4.26313000E-07
		 3.57143000E-09	 7.14286000E-09	-4.26313000E-07
		 2.88239000E-19	-5.48116000E-19	-4.02504000E-07
		 3.08776000E-19	 3.57143000E-09	-4.26313000E-07
		 2.79144000E-19	 7.14285000E-09	-4.02504000E-07
		 7.14286000E-09	-6.90702000E-19	-4.73932000E-07
		 7.14286000E-09	 7.14286000E-09	-4.73932000E-07
		 3.65457000E-19	-7.00387000E-19	-4.73932000E-07
		 3.55840000E-19	 7.14286000E-09	-4.73932000E-07
		 7.14286000E-09	-6.39652000E-19	-4.50123000E-07
		 7.14286000E-09	 3.57143000E-09	-4.73932000E-07
		 7.14286000E-09	 7.14286000E-09	-4.50123000E-07
		 3.57143000E-09	-6.95614000E-19	-4.73932000E-07
		 3.57143000E-09	 7.14286000E-09	-4.73932000E-07
		 3.39419000E-19	-6.49386000E-19	-4.50123000E-07
		 3.60683000E-19	 3.57143000E-09	-4.73932000E-07
		 3.29978000E-19	 7.14286000E-09	-4.50123000E-07
		 0.00000000E+00	 0.00000000E+00	 0.00000000E+00
		 0.00000000E+00	 0.00000000E+00	 0.00000000E+00
		-7.07157000E-09	-1.10436000E-20	-4.55758000E-08
		-6.84802000E-09	 6.84802000E-09	-4.53697000E-08
		 0.00000000E+00	 0.00000000E+00	 0.00000000E+00
		 0.00000000E+00	 0.00000000E+00	 0.00000000E+00
		-3.53116000E-09	-1.11346000E-20	-4.55688000E-08
		-3.44221000E-09	 6.94550000E-09	-4.53548000E-08
		 0.00000000E+00	 0.00000000E+00	 0.00000000E+00
		-7.06424000E-09	-2.48432000E-21	-2.13085000E-08
		-6.94550000E-09	 3.44221000E-09	-4.53548000E-08
		-7.05511000E-09	 7.05511000E-09	-2.25330000E-08
		-7.15612000E-09	-4.31045000E-20	-9.29602000E-08
		-7.12314000E-09	 7.12314000E-09	-9.29287000E-08
		-3.57489000E-09	-4.25511000E-20	-9.29829000E-08
		-3.55227000E-09	 7.14580000E-09	-9.29680000E-08
		-7.12783000E-09	-2.46443000E-20	-6.92187000E-08
		-7.14580000E-09	 3.55227000E-09	-9.29680000E-08
		-7.15712000E-09	 7.15712000E-09	-6.92166000E-08
		-7.14575000E-09	-9.24400000E-20	-1.40607000E-07
		-7.14135000E-09	 7.14135000E-09	-1.40609000E-07
		-3.57348000E-09	-9.14074000E-20	-1.40598000E-07
		-3.57303000E-09	 7.14134000E-09	-1.40602000E-07
		-7.13613000E-09	-6.57730000E-20	-1.16776000E-07
		-7.14134000E-09	 3.57303000E-09	-1.40602000E-07
		-7.13939000E-09	 7.13939000E-09	-1.16784000E-07
		-7.14243000E-09	-1.57081000E-19	-1.88216000E-07
		-7.14258000E-09	 7.14258000E-09	-1.88215000E-07
		-3.57110000E-09	-1.55436000E-19	-1.88218000E-07
		-3.57064000E-09	 7.14320000E-09	-1.88217000E-07
		-7.14435000E-09	-1.23043000E-19	-1.64411000E-07
		-7.14320000E-09	 3.57064000E-09	-1.88217000E-07
		-7.14414000E-09	 7.14414000E-09	-1.64410000E-07
		-7.14303000E-09	-2.33273000E-19	-2.35837000E-07
		-7.14290000E-09	 7.14290000E-09	-2.35838000E-07
		-3.57154000E-09	-2.30867000E-19	-2.35837000E-07
		-3.57163000E-09	 7.14275000E-09	-2.35837000E-07
		-7.14243000E-09	-1.93965000E-19	-2.12027000E-07
		-7.14275000E-09	 3.57163000E-09	-2.35837000E-07
		-7.14255000E-09	 7.14255000E-09	-2.12027000E-07
		-7.14280000E-09	-3.17415000E-19	-2.83456000E-07
		-7.14284000E-09	 7.14284000E-09	-2.83456000E-07
		-3.57140000E-09	-3.14484000E-19	-2.83456000E-07
		-3.57137000E-09	 7.14288000E-09	-2.83456000E-07
		-7.14298000E-09	-2.74348000E-19	-2.59647000E-07
		-7.14288000E-09	 3.57137000E-09	-2.83456000E-07
		-7.14294000E-09	 7.14294000E-09	-2.59647000E-07
		-7.14287000E-09	-4.08820000E-19	-3.31075000E-07
		-7.14286000E-09	 7.14286000E-09	-3.31075000E-07
		-3.57144000E-09	-4.05299000E-19	-3.31075000E-07
		-3.57144000E-09	 7.14285000E-09	-3.31075000E-07
		-7.14282000E-09	-3.62124000E-19	-3.07265000E-07
		-7.14285000E-09	 3.57144000E-09	-3.31075000E-07
		-7.14284000E-09	 7.14284000E-09	-3.07266000E-07
		-7.14285000E-09	-5.06503000E-19	-3.78694000E-07
		-7.14286000E-09	 7.14286000E-09	-3.78694000E-07
		-3.57143000E-09	-5.02446000E-19	-3.78694000E-07
		-3.57142000E-09	 7.14286000E-09	-3.78694000E-07
		-7.14287000E-09	-4.57238000E-19	-3.54885000E-07
		-7.14286000E-09	 3.57142000E-09	-3.78694000E-07
		-7.14286000E-09	 7.14286000E-09	-3.54885000E-07
		-7.14286000E-09	-6.07935000E-19	-4.26313000E-07
		-7.14286000E-09	 7.14286000E-09	-4.26313000E-07
		-3.57143000E-09	-6.03238000E-19	-4.26313000E-07
		-3.57143000E-09	 7.14286000E-09	-4.26313000E-07
		-7.14285000E-09	-5.56857000E-19	-4.02504000E-07
		-7.14286000E-09	 3.57143000E-09	-4.26313000E-07
		-7.14286000E-09	 7.14286000E-09	-4.02504000E-07
		-7.14286000E-09	-7.09813000E-19	-4.73932000E-07
		-7.14286000E-09	 7.14286000E-09	-4.73932000E-07
		-3.57143000E-09	-7.05196000E-19	-4.73932000E-07
		-3.57143000E-09	 7.14286000E-09	-4.73932000E-07
		-7.14286000E-09	-6.58838000E-19	-4.50123000E-07
		-7.14286000E-09	 3.57143000E-09	-4.73932000E-07
		-7.14286000E-09	 7.14286000E-09	-4.50123000E-07
		 0.00000000E+00	 0.00000000E+00	 0.00000000E+00
		 6.84802000E-09	-6.84802000E-09	-4.53697000E-08
		 0.00000000E+00	 0.00000000E+00	 0.00000000E+00
		 6.54049000E-21	-7.07157000E-09	-4.55758000E-08
		 0.00000000E+00	 0.00000000E+00	 0.00000000E+00
		 7.05511000E-09	-7.05511000E-09	-2.25330000E-08
		 6.94550000E-09	-3.44221000E-09	-4.53548000E-08
		 0.00000000E+00	 0.00000000E+00	 0.00000000E+00
		 3.44221000E-09	-6.94550000E-09	-4.53548000E-08
		 0.00000000E+00	 0.00000000E+00	 0.00000000E+00
		 1.61685000E-21	-7.06424000E-09	-2.13085000E-08
		 6.32374000E-21	-3.53116000E-09	-4.55688000E-08
		 7.12314000E-09	-7.12314000E-09	-9.29287000E-08
		 2.42295000E-20	-7.15612000E-09	-9.29602000E-08
		 7.15712000E-09	-7.15712000E-09	-6.92166000E-08