<?xml version="1.0"?>
<VTKFile type="UnstructuredGrid" version="0.1" byte_order="LittleEndian">
	<UnstructuredGrid>
		<Piece NumberOfPoints="1720" NumberOfCells="832">
			<Points>
				<DataArray type="Float64" NumberOfComponents="3" format="ascii">
					-1.27552000E-02	 3.65262000E-01	 1.66670000E-01
					 1.51975000E-02	 9.95069000E-01	 1.66670000E-01
					 9.56709000E-02	 2.30970000E-01	 0.00000000E+00
					-1.03673000E-01	 2.27490000E-01	 1.66670000E-01
					-1.74497000E-02	 4.99695000E-01	 1.66670000E-01
					 1.43506000E-01	 3.46455000E-01	 0.00000000E+00
					-8.72514000E-03	 2.49855000E-01	 1.66670000E-01
					-1.55510000E-01	 3.41235000E-01	 1.66670000E-01
					 1.91342000E-01	 4.61940000E-01	 0.00000000E+00
					 8.75518000E-02	 2.34168000E-01	 1.66670000E-01
					 1.53086000E-17	 2.50008000E-01	 0.00000000E+00
					-9.56709000E-02	 2.30970000E-01	 0.00000000E+00
					 1.10401000E-01	 5.88124000E-01	 0.00000000E+00
					-5.87745000E-17	 3.65485000E-01	 0.00000000E+00
					-1.43506000E-01	 3.46455000E-01	 0.00000000E+00
					 1.12583000E-01	 6.88100000E-01	 0.00000000E+00
					-8.04061000E-17	 5.00000000E-01	 0.00000000E+00
					 8.81865000E-02	 8.00147000E-01	-3.79961000E-04
					 3.91018000E-02	 8.94866000E-01	 0.00000000E+00
					 1.75104000E-01	 4.68336000E-01	 1.66670000E-01
					 3.25615000E-02	 9.94652000E-01	 0.00000000E+00
					-9.64874000E-17	 6.00000000E-01	 0.00000000E+00
					-1.12583000E-01	 6.88100000E-01	 0.00000000E+00
					-1.12569000E-16	 7.00000000E-01	 0.00000000E+00
					 4.89859000E-17	 8.00000000E-01	 0.00000000E+00
					 5.51091000E-17	 9.00000000E-01	 0.00000000E+00
					 6.12323000E-17	 1.00000000E+00	 0.00000000E+00
					-2.09397000E-02	 5.99634000E-01	 1.66670000E-01
					-2.44296000E-02	 6.99574000E-01	 1.66670000E-01
					-2.07347000E-01	 4.54981000E-01	 1.66670000E-01
					-2.79196000E-02	 7.99513000E-01	 1.66670000E-01
					-3.14095000E-02	 8.99452000E-01	 1.66670000E-01
					-3.17591000E-02	 7.95756000E-01	 0.00000000E+00
					-3.48995000E-02	 9.99391000E-01	 1.66670000E-01
					-1.30859000E-01	 5.83913000E-01	 1.66670000E-01
					 1.31328000E-01	 3.51252000E-01	 1.66670000E-01
					-1.36529000E-01	 6.83752000E-01	 1.66670000E-01
					-1.10401000E-01	 5.88124000E-01	 0.00000000E+00
					-1.00993000E-01	 7.89959000E-01	 1.66670000E-01
					-1.01429000E-01	 8.89959000E-01	 1.66670000E-01
					-2.34783000E-02	 8.95412000E-01	 0.00000000E+00
					-1.01866000E-01	 9.89958000E-01	 1.66670000E-01
					 8.98088000E-02	 5.91619000E-01	 1.66670000E-01
					-1.51975000E-02	 9.95069000E-01	 0.00000000E+00
					-1.91342000E-01	 4.61940000E-01	 0.00000000E+00
					 8.84998000E-02	 6.91610000E-01	 1.66670000E-01
					 3.17591000E-02	 7.95756000E-01	 1.66670000E-01
					 2.34783000E-02	 8.95412000E-01	 1.66670000E-01
					 6.43091000E-02	 6.94278000E-01	 3.33337000E-01
					 4.00400000E-02	 6.96099000E-01	 5.00003000E-01
					 1.57221000E-02	 6.97072000E-01	 6.66670000E-01
					 6.91069000E-02	 5.94393000E-01	 3.33337000E-01
					 4.83208000E-02	 5.96442000E-01	 5.00003000E-01
					 2.74758000E-02	 5.97766000E-01	 6.66670000E-01
					-1.70673000E-01	 9.80440000E-01	 3.33337000E-01
					-2.21752000E-01	 9.70164000E-01	 5.00003000E-01
					-2.12967000E-01	 9.70344000E-01	 6.40408000E-01
					-1.63263000E-01	 8.80715000E-01	 3.33337000E-01
					-2.09132000E-01	 8.70964000E-01	 5.00003000E-01
					-2.28435000E-01	 8.70398000E-01	 6.68452000E-01
					-1.55852000E-01	 7.80990000E-01	 3.33337000E-01
					-1.96512000E-01	 7.71763000E-01	 5.00003000E-01
					-2.23326000E-01	 7.64435000E-01	 6.66670000E-01
					-1.60308000E-01	 6.78571000E-01	 3.33337000E-01
					-1.83892000E-01	 6.72563000E-01	 5.00003000E-01
					-2.07252000E-01	 6.65735000E-01	 6.66670000E-01
					 1.18989000E-01	 3.55621000E-01	 3.33337000E-01
					 1.06506000E-01	 3.59557000E-01	 5.00003000E-01
					 9.38925000E-02	 3.63055000E-01	 6.66670000E-01
					-1.51158000E-01	 5.78990000E-01	 3.33337000E-01
					-1.71272000E-01	 5.73362000E-01	 5.00003000E-01
					-1.91178000E-01	 5.67036000E-01	 6.66670000E-01
					-6.97565000E-02	 9.97564000E-01	 3.33337000E-01
					-1.04528000E-01	 9.94522000E-01	 5.00003000E-01
					-1.39173000E-01	 9.90268000E-01	 6.66670000E-01
					-6.27808000E-02	 8.97808000E-01	 3.33337000E-01
					-9.40756000E-02	 8.95070000E-01	 5.00003000E-01
					-1.25256000E-01	 8.91241000E-01	 6.66670000E-01
					-5.58052000E-02	 7.98051000E-01	 3.33337000E-01
					-8.36228000E-02	 7.95618000E-01	 5.00003000E-01
					-1.11338000E-01	 7.92214000E-01	 6.66670000E-01
					-2.23099000E-01	 4.47467000E-01	 3.33337000E-01
					-2.38579000E-01	 4.39409000E-01	 5.00003000E-01
					-2.53769000E-01	 4.30815000E-01	 6.66670000E-01
					-4.88295000E-02	 6.98295000E-01	 3.33337000E-01
					-7.31699000E-02	 6.96165000E-01	 5.00003000E-01
					-9.74212000E-02	 6.93188000E-01	 6.66670000E-01
					-4.18539000E-02	 5.98538000E-01	 3.33337000E-01
					-6.27171000E-02	 5.96713000E-01	 5.00003000E-01
					-8.35039000E-02	 5.94161000E-01	 6.66670000E-01
					 1.58652000E-01	 4.74162000E-01	 3.33337000E-01
					 1.42008000E-01	 4.79410000E-01	 5.00003000E-01
					 1.25190000E-01	 4.84074000E-01	 6.66670000E-01
					 7.93262000E-02	 2.37081000E-01	 3.33337000E-01
					 7.10038000E-02	 2.39705000E-01	 5.00003000E-01
					 6.25950000E-02	 2.42037000E-01	 6.66670000E-01
					-1.67324000E-01	 3.35600000E-01	 3.33337000E-01
					-1.78935000E-01	 3.29556000E-01	 5.00003000E-01
					-1.90327000E-01	 3.23111000E-01	 6.66670000E-01
					-1.74397000E-02	 2.49399000E-01	 3.33337000E-01
					-2.61329000E-02	 2.48638000E-01	 5.00003000E-01
					-3.47943000E-02	 2.47575000E-01	 6.66670000E-01
					-3.48782000E-02	 4.98782000E-01	 3.33337000E-01
					-5.22642000E-02	 4.97261000E-01	 5.00003000E-01
					-6.95866000E-02	 4.95134000E-01	 6.66670000E-01
					-1.11549000E-01	 2.23734000E-01	 3.33337000E-01
					-1.19290000E-01	 2.19704000E-01	 5.00003000E-01
					-1.26885000E-01	 2.15407000E-01	 6.66670000E-01
					-2.54949000E-02	 3.64595000E-01	 3.33337000E-01
					-3.82036000E-02	 3.63483000E-01	 5.00003000E-01
					-5.08657000E-02	 3.61928000E-01	 6.66670000E-01
					-1.95392000E-02	 9.94993000E-01	 3.33337000E-01
					-1.95392000E-02	 9.94993000E-01	 5.00003000E-01
					-6.53167000E-02	 9.91143000E-01	 6.44012000E-01
					-7.78541000E-03	 8.95686000E-01	 3.33337000E-01
					-7.78541000E-03	 8.95686000E-01	 5.00003000E-01
					-3.99021000E-02	 8.87826000E-01	 6.53001000E-01
					 3.96833000E-03	 7.96379000E-01	 3.33337000E-01
					 3.96833000E-03	 7.96379000E-01	 5.00003000E-01
					 3.96833000E-03	 7.96379000E-01	 6.66670000E-01
					 1.88491000E-01	 6.92919000E-01	 1.66670000E-01
					-2.42037000E-01	 7.77922000E-01	 1.66670000E-01
					-2.36368000E-01	 6.78083000E-01	 1.66670000E-01
					-2.14740000E-01	 7.85895000E-01	 0.00000000E+00
					 1.03275000E-01	 8.08133000E-01	 6.66670000E-01
					 1.31416000E-01	 8.04036000E-01	 5.00003000E-01
					 1.59396000E-01	 7.98960000E-01	 3.33337000E-01
					 2.12559000E-01	 6.85919000E-01	 0.00000000E+00
					-2.12559000E-01	 6.85919000E-01	 0.00000000E+00
					-2.59888000E-01	 6.69421000E-01	 3.33337000E-01
					-3.05952000E-01	 6.49661000E-01	 6.66670000E-01
					-2.83093000E-01	 6.59943000E-01	 5.00003000E-01
					 2.14740000E-01	 7.85895000E-01	 0.00000000E+00
					-3.22026000E-01	 7.48361000E-01	 6.66670000E-01
					-2.95713000E-01	 7.59143000E-01	 5.00003000E-01
					-2.69039000E-01	 7.69001000E-01	 3.33337000E-01
					 1.15029000E-01	 7.08826000E-01	 6.66670000E-01
					 1.39697000E-01	 7.04380000E-01	 5.00003000E-01
					 1.64194000E-01	 6.99075000E-01	 3.33337000E-01
					 1.87182000E-01	 7.92911000E-01	 1.66670000E-01
					-1.95392000E-02	 1.19499000E+00	 5.00003000E-01
					-1.95392000E-02	 1.39499000E+00	 5.00003000E-01
					-1.95392000E-02	 1.59499000E+00	 5.00003000E-01
					-1.95392000E-02	 1.79499000E+00	 5.00003000E-01
					-1.95392000E-02	 1.99499000E+00	 5.00003000E-01
					-1.51975000E-02	 1.19507000E+00	 0.00000000E+00
					-1.51975000E-02	 1.39507000E+00	 0.00000000E+00
					-1.51975000E-02	 1.59507000E+00	 0.00000000E+00
					-1.51975000E-02	 1.79507000E+00	 0.00000000E+00
					-1.51975000E-02	 1.99507000E+00	 0.00000000E+00
					-1.01866000E-01	 1.18996000E+00	 1.66670000E-01
					-1.01866000E-01	 1.38996000E+00	 1.66670000E-01
					-1.01866000E-01	 1.58996000E+00	 1.66670000E-01
					-1.01866000E-01	 1.78996000E+00	 1.66670000E-01
					-1.01866000E-01	 1.98996000E+00	 1.66670000E-01
					-6.53167000E-02	 1.19114000E+00	 6.44012000E-01
					-6.53167000E-02	 1.39114000E+00	 6.44012000E-01
					-6.53167000E-02	 1.59114000E+00	 6.44012000E-01
					-6.53167000E-02	 1.79114000E+00	 6.44012000E-01
					-6.53167000E-02	 1.99114000E+00	 6.44012000E-01
					-2.21752000E-01	 1.17016000E+00	 5.00003000E-01
					-2.21752000E-01	 1.37016000E+00	 5.00003000E-01
					-2.21752000E-01	 1.57016000E+00	 5.00003000E-01
					-2.21752000E-01	 1.77016000E+00	 5.00003000E-01
					-2.21752000E-01	 1.97016000E+00	 5.00003000E-01
					-2.12967000E-01	 1.17034000E+00	 6.40408000E-01
					-2.12967000E-01	 1.37034000E+00	 6.40408000E-01
					-2.12967000E-01	 1.57034000E+00	 6.40408000E-01
					-2.12967000E-01	 1.77034000E+00	 6.40408000E-01
					-2.12967000E-01	 1.97034000E+00	 6.40408000E-01
					-3.48995000E-02	 1.19939000E+00	 1.66670000E-01
					-3.48995000E-02	 1.39939000E+00	 1.66670000E-01
					-3.48995000E-02	 1.59939000E+00	 1.66670000E-01
					-3.48995000E-02	 1.79939000E+00	 1.66670000E-01
					-3.48995000E-02	 1.99939000E+00	 1.66670000E-01
					-1.70673000E-01	 1.18044000E+00	 3.33337000E-01
					-1.70673000E-01	 1.38044000E+00	 3.33337000E-01
					-1.70673000E-01	 1.58044000E+00	 3.33337000E-01
					-1.70673000E-01	 1.78044000E+00	 3.33337000E-01
					-1.70673000E-01	 1.98044000E+00	 3.33337000E-01
					-1.39173000E-01	 1.19027000E+00	 6.66670000E-01
					-1.39173000E-01	 1.39027000E+00	 6.66670000E-01
					-1.39173000E-01	 1.59027000E+00	 6.66670000E-01
[...]
			<PointData>
				<DataArray type="Float32" Name="U" NumberOfComponents="3" ComponentName0="D1" ComponentName1="D2" ComponentName2="D3" format="ascii">
					 4.95593000E-05	 8.12185000E-04	 2.30236000E-05
					-3.77155000E-05	 7.16339000E-04	-6.31219000E-05
					-6.71873000E-05	 8.32104000E-04	-3.70244000E-05
					 2.99241000E-04	 6.71198000E-04	-2.48488000E-05
					 3.86692000E-05	 7.35072000E-04	 2.93598000E-05
					 1.43340000E-04	 8.27426000E-04	 1.22893000E-04
					 7.09563000E-05	 7.85394000E-04	-2.48188000E-06
					 7.66858000E-05	 6.30761000E-04	-7.17935000E-05
					 3.90209000E-04	 8.25898000E-04	 3.17900000E-04
					-1.64702000E-04	 7.33740000E-04	 2.01015000E-05
					 1.67185000E-04	 8.50395000E-04	-7.17594000E-05
					 3.86766000E-04	 6.78004000E-04	-6.21501000E-05
					 1.63249000E-04	 7.40286000E-04	 1.36796000E-04
					 1.57071000E-04	 8.55853000E-04	 2.47968000E-05
					 1.74165000E-04	 6.40630000E-04	-5.29389000E-05
					 1.15624000E-04	 7.01959000E-04	 6.55568000E-05
					 1.62483000E-04	 7.33654000E-04	 6.25878000E-05
					 9.49320000E-05	 6.91465000E-04	 2.42532000E-05
					 7.54394000E-05	 6.82414000E-04	-2.68319000E-05
					 2.78367000E-04	 7.33011000E-04	 2.35116000E-04
					 4.61112000E-05	 6.86344000E-04	-5.30063000E-05
					 1.35989000E-04	 6.62204000E-04	 3.81199000E-05
					 1.19352000E-04	 6.51537000E-04	-6.48946000E-05
					 1.13837000E-04	 6.67391000E-04	 3.82349000E-06
					 9.67209000E-05	 6.71233000E-04	-2.60742000E-05
					 7.44354000E-05	 6.73431000E-04	-4.87837000E-05
					 4.45817000E-05	 6.75067000E-04	-7.08910000E-05
					 2.87915000E-05	 6.83334000E-04	 1.18744000E-05
					 1.93872000E-05	 6.96871000E-04	-1.68352000E-05
					-1.78256000E-04	 5.98060000E-04	-1.06727000E-04
					 7.37171000E-06	 7.00307000E-04	-4.35302000E-05
					-1.11647000E-05	 7.00631000E-04	-6.64367000E-05
					 9.85387000E-05	 6.64299000E-04	-4.25088000E-05
					-3.87495000E-05	 7.00320000E-04	-8.88447000E-05
					 2.00520000E-05	 6.85016000E-04	-5.76593000E-05
					 3.90792000E-05	 7.33166000E-04	 1.15521000E-04
					 2.25650000E-05	 6.84371000E-04	-8.22191000E-05
					 1.20606000E-04	 6.65399000E-04	-2.25134000E-05
					 8.95279000E-06	 6.88297000E-04	-8.34594000E-05
					-9.58873000E-06	 6.84552000E-04	-1.01389000E-04
					 7.56502000E-05	 6.67262000E-04	-6.04207000E-05
					-3.59695000E-05	 6.79284000E-04	-1.20602000E-04
					 3.90388000E-05	 7.38108000E-04	 1.02382000E-04
					 4.65541000E-05	 6.69474000E-04	-7.76587000E-05
					-5.57025000E-05	 6.23713000E-04	-2.06400000E-05
					 2.11577000E-05	 7.23497000E-04	 4.89915000E-05
					 7.02515000E-06	 7.11317000E-04	-7.60521000E-06
					-1.06169000E-05	 7.13260000E-04	-3.75759000E-05
					-6.67859000E-05	 7.28387000E-04	 1.80529000E-05
					-1.51715000E-04	 7.39046000E-04	-1.21408000E-05
					-2.42848000E-04	 7.42626000E-04	-3.25451000E-05
					-4.82309000E-05	 7.23075000E-04	 4.68857000E-05
					-1.36079000E-04	 7.32507000E-04	-5.31246000E-06
					-2.32367000E-04	 7.43171000E-04	-4.49532000E-05
					-1.14155000E-04	 6.92705000E-04	-1.51613000E-04
					-1.88700000E-04	 7.09860000E-04	-1.71990000E-04
					-2.49806000E-04	 7.35932000E-04	-1.66553000E-04
					-8.99093000E-05	 7.02016000E-04	-1.32692000E-04
					-1.68343000E-04	 7.21866000E-04	-1.54271000E-04
					-2.45295000E-04	 7.42048000E-04	-1.61266000E-04
					-7.32836000E-05	 7.09729000E-04	-1.18437000E-04
					-1.55798000E-04	 7.33885000E-04	-1.43183000E-04
					-2.36659000E-04	 7.48828000E-04	-1.55263000E-04
					-6.38093000E-05	 7.10666000E-04	-1.09603000E-04
					-1.49962000E-04	 7.43163000E-04	-1.36153000E-04
					-2.35991000E-04	 7.58958000E-04	-1.46764000E-04
					-5.73202000E-05	 6.90784000E-04	 9.19720000E-05
					-1.78873000E-04	 6.57774000E-04	 6.11055000E-05
					-2.80357000E-04	 6.88597000E-04	 3.54316000E-05
					-6.92609000E-05	 7.13410000E-04	-1.07565000E-04
					-1.60357000E-04	 7.70450000E-04	-1.60232000E-04
					-2.81745000E-04	 8.04190000E-04	-1.88356000E-04
					-1.18630000E-04	 7.21834000E-04	-1.06033000E-04
					-1.94583000E-04	 7.40125000E-04	-1.22674000E-04
					-2.66627000E-04	 7.58165000E-04	-1.39077000E-04
					-9.19598000E-05	 7.22211000E-04	-8.43360000E-05
					-1.70219000E-04	 7.40181000E-04	-1.01611000E-04
					-2.46659000E-04	 7.55672000E-04	-1.18267000E-04
					-7.53216000E-05	 7.20329000E-04	-6.45348000E-05
					-1.56216000E-04	 7.39081000E-04	-8.53901000E-05
					-2.38401000E-04	 7.50399000E-04	-1.02943000E-04
					-3.11434000E-04	 6.58997000E-04	-1.69732000E-04
					-4.24539000E-04	 7.41324000E-04	-2.37216000E-04
					-5.67591000E-04	 8.60403000E-04	-3.38151000E-04
					-6.48691000E-05	 7.11348000E-04	-4.75142000E-05
					-1.47572000E-04	 7.34124000E-04	-7.76562000E-05
					-2.34088000E-04	 7.41224000E-04	-9.82638000E-05
					-5.61194000E-05	 6.88535000E-04	-3.08649000E-05
					-1.41507000E-04	 7.16688000E-04	-7.42851000E-05
					-2.42856000E-04	 7.26384000E-04	-1.02353000E-04
					 2.10685000E-04	 6.99184000E-04	 1.65404000E-04
					 1.06508000E-04	 6.75098000E-04	 8.56132000E-05
					-1.68810000E-05	 7.22993000E-04	-2.26661000E-05
					-2.77704000E-04	 6.88442000E-04	 2.81078000E-05
					-4.23496000E-04	 6.63517000E-04	 3.00644000E-05
					-5.18425000E-04	 6.91164000E-04	 6.76440000E-05
					-4.67921000E-05	 6.92623000E-04	-9.29995000E-05
					-1.59027000E-04	 7.73097000E-04	-1.10863000E-04
					-2.83864000E-04	 8.90669000E-04	-1.20377000E-04
					-6.14903000E-05	 7.93214000E-04	 8.58219000E-06
					-1.99757000E-04	 8.20290000E-04	 1.95145000E-05
					-3.07061000E-04	 9.15082000E-04	 9.25586000E-05
					-5.70417000E-05	 7.38354000E-04	-1.72245000E-05
					-1.55488000E-04	 7.68984000E-04	-6.54140000E-05
					-2.79538000E-04	 7.94280000E-04	-1.02621000E-04
					 1.68419000E-04	 7.22489000E-04	-1.60600000E-05
					 5.77138000E-05	 8.03004000E-04	-1.27405000E-06
					-5.19265000E-05	 9.25201000E-04	 6.02219000E-05
					-6.23873000E-05	 8.23780000E-04	-2.05718000E-06
					-1.79216000E-04	 8.52678000E-04	-2.80851000E-05
					-2.95327000E-04	 9.25723000E-04	-3.20496000E-05
					-1.18223000E-04	 7.37021000E-04	-8.13218000E-05
					-1.96172000E-04	 7.63164000E-04	-8.34009000E-05
					-2.58458000E-04	 7.72906000E-04	-1.06954000E-04
					-9.21746000E-05	 7.33350000E-04	-5.68525000E-05
					-1.72240000E-04	 7.54372000E-04	-5.96209000E-05
					-2.41968000E-04	 7.61505000E-04	-7.81749000E-05
					-7.60569000E-05	 7.26907000E-04	-3.02030000E-05
					-1.56832000E-04	 7.44066000E-04	-3.80629000E-05
					-2.43580000E-04	 7.51104000E-04	-4.28602000E-05
					 2.61459000E-05	 7.36877000E-04	 9.14327000E-05
					 1.08208000E-05	 6.72127000E-04	-1.63643000E-04
					 2.22430000E-05	 6.71760000E-04	-1.40042000E-04
					 1.04042000E-04	 6.36209000E-04	-1.49385000E-04
					-2.46296000E-04	 7.47738000E-04	 1.65359000E-05
					-1.55867000E-04	 7.44267000E-04	 3.54533000E-05
					-7.58143000E-05	 7.42751000E-04	 6.02953000E-05
					 1.16826000E-04	 7.19047000E-04	 1.12159000E-04
					 1.19198000E-04	 6.35857000E-04	-1.25353000E-04
					-6.87594000E-05	 7.05248000E-04	-1.56994000E-04
					-2.33903000E-04	 7.48924000E-04	-1.88603000E-04
					-1.52455000E-04	 7.31172000E-04	-1.74221000E-04
					 9.71669000E-05	 7.22163000E-04	 1.00336000E-04
					-2.39084000E-04	 7.51681000E-04	-2.08646000E-04
					-1.56633000E-04	 7.34237000E-04	-1.96209000E-04
					-7.24599000E-05	 7.06391000E-04	-1.80604000E-04
					-2.44812000E-04	 7.49408000E-04	 2.60941000E-05
					-1.52519000E-04	 7.44912000E-04	 4.39736000E-05
					-6.33844000E-05	 7.42666000E-04	 6.66100000E-05
					 8.06626000E-06	 7.38898000E-04	 8.30564000E-05
					-2.66397000E-04	 7.78883000E-04	-1.25709000E-04
					-3.58048000E-04	 7.89149000E-04	-1.72738000E-04
					-4.62758000E-04	 7.95088000E-04	-2.22842000E-04
					-5.73849000E-04	 7.97770000E-04	-2.74398000E-04
					-6.86925000E-04	 7.98467000E-04	-3.26192000E-04
					-3.34502000E-05	 6.71092000E-04	-1.21862000E-04
					-1.30567000E-04	 6.71114000E-04	-1.69329000E-04
					-2.39214000E-04	 6.70977000E-04	-2.19928000E-04
					-3.53280000E-04	 6.71149000E-04	-2.72037000E-04
					-4.68573000E-04	 6.71313000E-04	-3.24410000E-04
					-1.10934000E-04	 6.72964000E-04	-1.61997000E-04
					-2.05170000E-04	 6.68587000E-04	-2.08094000E-04
					-3.11673000E-04	 6.66283000E-04	-2.57745000E-04
					-4.24205000E-04	 6.65508000E-04	-3.09113000E-04
					-5.38437000E-04	 6.65417000E-04	-3.60963000E-04
					-3.26564000E-04	 7.90891000E-04	-1.47033000E-04
					-4.18192000E-04	 8.01036000E-04	-1.93089000E-04
					-5.23183000E-04	 8.06702000E-04	-2.42576000E-04
					-6.34502000E-04	 8.09132000E-04	-2.93676000E-04
					-7.47632000E-04	 8.09730000E-04	-3.45266000E-04
					-2.55822000E-04	 6.97894000E-04	-2.09330000E-04
					-3.45399000E-04	 6.90165000E-04	-2.55202000E-04
					-4.49063000E-04	 6.86043000E-04	-3.05054000E-04
					-5.59784000E-04	 6.84370000E-04	-3.56464000E-04
					-6.72803000E-04	 6.84009000E-04	-4.08158000E-04
					-3.15633000E-04	 7.30473000E-04	-2.04295000E-04
					-4.05727000E-04	 7.27528000E-04	-2.50722000E-04
					-5.10011000E-04	 7.25883000E-04	-3.00933000E-04
					-6.21104000E-04	 7.25268000E-04	-3.52572000E-04
					-7.34240000E-04	 7.25186000E-04	-4.04350000E-04
					-1.14834000E-04	 7.01429000E-04	-1.32172000E-04
					-2.09882000E-04	 7.02412000E-04	-1.79452000E-04
					-3.16861000E-04	 7.03154000E-04	-2.29951000E-04
					-4.29580000E-04	 7.03582000E-04	-2.81924000E-04
					-5.43863000E-04	 7.03717000E-04	-3.34127000E-04
					-1.85156000E-04	 6.82420000E-04	-1.90655000E-04
					-2.76505000E-04	 6.75316000E-04	-2.36284000E-04
					-3.81130000E-04	 6.71528000E-04	-2.85728000E-04
					-4.92426000E-04	 6.70067000E-04	-3.36897000E-04
					-6.05810000E-04	 6.69772000E-04	-3.88540000E-04
					-3.35016000E-04	 7.65531000E-04	-1.78220000E-04
					-4.27022000E-04	 7.69975000E-04	-2.24552000E-04
					-5.32296000E-04	 7.72375000E-04	-2.74358000E-04
					-6.43811000E-04	 7.73454000E-04	-3.25662000E-04
					-7.57014000E-04	 7.73756000E-04	-3.77301000E-04
					-2.65075000E-04	 7.44229000E-04	-1.63177000E-04
					-3.57127000E-04	 7.47232000E-04	-2.09954000E-04
					-4.62144000E-04	 7.49103000E-04	-2.59995000E-04
					-5.73460000E-04	 7.50053000E-04	-3.11487000E-04
					-6.86616000E-04	 7.50341000E-04	-3.63220000E-04
					-1.91782000E-04	 7.23500000E-04	-1.47890000E-04
					-2.84793000E-04	 7.25040000E-04	-1.94933000E-04
					-3.90381000E-04	 7.26226000E-04	-2.45183000E-04
					-5.02080000E-04	 7.26877000E-04	-2.96898000E-04
					-6.15574000E-04	 7.27069000E-04	-3.48813000E-04
					-3.57703000E-05	 6.78011000E-04	-1.15632000E-04
					-1.33177000E-04	 6.79099000E-04	-1.63430000E-04
					-2.42011000E-04	 6.79582000E-04	-2.14298000E-04
					-3.56134000E-04	 6.79945000E-04	-2.66584000E-04
					-4.71424000E-04	 6.80114000E-04	-3.19067000E-04
					-1.91056000E-04	 7.44424000E-04	-1.24168000E-04
					-2.83752000E-04	 7.50079000E-04	-1.71630000E-04
					-3.89106000E-04	 7.53603000E-04	-2.22165000E-04
					-5.00670000E-04	 7.55217000E-04	-2.74115000E-04
					-6.14138000E-04	 7.55620000E-04	-3.26187000E-04
					-1.13302000E-04	 7.22919000E-04	-1.07540000E-04
					-2.07903000E-04	 7.27820000E-04	-1.55378000E-04
					-3.14588000E-04	 7.30790000E-04	-2.06300000E-04
					-4.27156000E-04	 7.32094000E-04	-2.58637000E-04
					-5.41414000E-04	 7.32394000E-04	-3.11093000E-04
					-3.35868000E-05	 6.92427000E-04	-9.86695000E-05
					-1.30494000E-04	 6.95969000E-04	-1.46892000E-04
					-2.39057000E-04	 6.97834000E-04	-1.98131000E-04
					-3.53077000E-04	 6.98674000E-04	-2.50734000E-04
					-4.68349000E-04	 6.98898000E-04	-3.03426000E-04
					 3.91325000E-04	 2.50396000E-04	-1.23918000E-04
					-6.38835000E-03	-4.28286000E-03	-1.59543000E-03
					 3.86766000E-04	 6.78004000E-04	-6.21501000E-05
					 7.33740000E-04	 1.64702000E-04	-2.01015000E-05
					 1.52850000E-04	-3.29783000E-05	-2.63141000E-04
					 1.74165000E-04	 6.40630000E-04	-5.29389000E-05
					 5.43272000E-04	 4.31788000E-04	-3.16169000E-05
					 7.33166000E-04	-3.90792000E-05	-1.15521000E-04
					-5.57025000E-05	 6.23713000E-04	-2.06400000E-05
					 2.99241000E-04	 6.71198000E-04	-2.48488000E-05
					 6.39198000E-04	 3.72550000E-04	-1.79455000E-05
					 8.32104000E-04	 6.71873000E-05	 3.70244000E-05
					-4.24311000E-04	 1.03686000E-04	-1.46223000E-04
					 4.92850000E-04	 1.94131000E-04	-1.17018000E-04
					 8.27426000E-04	-1.43340000E-04	-1.22893000E-04
					-1.22729000E-03	-1.75051000E-04	-2.56052000E-04
					 3.06361000E-04	-4.19426000E-05	-2.58576000E-04
					-1.99423000E-03	-9.69751000E-04	-4.65905000E-04
					-2.83018000E-03	-2.20509000E-03	-7.52712000E-04
					-1.78256000E-04	 5.98060000E-04	-1.06727000E-04
					-5.22896000E-03	-4.04341000E-03	-1.40268000E-03
					 3.21176000E-05	-3.34477000E-04	-3.77319000E-04
					 1.85275000E-04	-1.55714000E-03	-8.05838000E-04
					-5.45994000E-04	-9.08256000E-04	-5.34061000E-04
					-1.25480000E-03	-1.63801000E-03	-7.06396000E-04
					-2.31568000E-03	-2.81530000E-03	-1.03151000E-03
					-4.47636000E-03	-5.06562000E-03	-1.67653000E-03
					-1.61537000E-04	-3.88529000E-04	-3.90307000E-04
					-7.75100000E-04	-1.05616000E-03	-5.70078000E-04
					 7.33011000E-04	-2.78367000E-04	-2.35116000E-04
					-1.55272000E-03	-1.89750000E-03	-7.77218000E-04
					-2.97181000E-03	-3.35364000E-03	-1.17829000E-03
					-9.88187000E-04	-1.84510000E-03	-7.99981000E-04
					-5.19792000E-03	-5.64726000E-03	-1.86154000E-03
					 2.75271000E-04	-8.21936000E-04	-4.68721000E-04
					 7.66858000E-05	 6.30761000E-04	-7.17935000E-05
					 8.28521000E-05	-1.79858000E-03	-7.66552000E-04
					 4.51981000E-04	-7.58178000E-04	-5.74644000E-04
					-8.03037000E-04	-2.54131000E-03	-9.11898000E-04
					-1.65312000E-03	-4.47855000E-03	-1.48255000E-03
					-1.90216000E-03	-3.11376000E-03	-1.18368000E-03
					-3.28742000E-03	-7.11762000E-03	-2.13173000E-03
					-6.39116000E-04	 3.02186000E-05	-2.73716000E-04
					-3.90553000E-03	-5.35156000E-03	-1.75107000E-03
					 8.25898000E-04	-3.90209000E-04	-3.17900000E-04
					-1.52658000E-03	-3.00273000E-04	-3.69094000E-04
					-2.08509000E-03	-1.32445000E-03	-6.61608000E-04
					-3.89515000E-03	-2.39933000E-03	-9.55882000E-04
					-1.86088000E-03	-3.04072000E-04	-4.53177000E-04
					-2.16947000E-03	-1.78474000E-04	-5.69545000E-04
					-2.34026000E-03	 9.37491000E-06	-7.45696000E-04
					-8.25102000E-04	 8.49580000E-05	-3.28547000E-04
					-9.94207000E-04	 1.84879000E-04	-3.96025000E-04
					-1.06743000E-03	 4.06569000E-04	-5.80248000E-04
					-2.77162000E-03	-8.08538000E-03	-2.11567000E-03
					-2.37715000E-03	-8.26644000E-03	-1.84771000E-03
					-3.19127000E-03	-7.09284000E-03	-1.66101000E-03
					-1.38525000E-03	-5.29901000E-03	-1.48628000E-03
					-1.23386000E-03	-5.50521000E-03	-1.27667000E-03
					-1.54328000E-03	-4.92997000E-03	-1.00626000E-03
					-6.08813000E-04	-3.11882000E-03	-9.39733000E-04
					-5.10892000E-04	-3.30369000E-03	-8.49568000E-04
					-5.51302000E-04	-3.07980000E-03	-6.84601000E-04
					 8.66396000E-05	-1.96179000E-03	-6.93917000E-04
					 7.10380000E-05	-1.91193000E-03	-5.65911000E-04
					 5.09049000E-05	-1.68550000E-03	-3.86613000E-04
					-4.67921000E-05	 6.92623000E-04	-9.29995000E-05
					-1.59027000E-04	 7.73097000E-04	-1.10863000E-04
					-2.83864000E-04	 8.90669000E-04	-1.20377000E-04
					 2.30707000E-04	-8.24747000E-04	-3.99520000E-04
					 1.72877000E-04	-7.39706000E-04	-3.10895000E-04
					 1.97890000E-04	-5.25822000E-04	-1.27713000E-04
					-5.58847000E-03	-6.03145000E-03	-1.99685000E-03
					-5.60341000E-03	-6.08503000E-03	-2.06239000E-03
					-5.36344000E-03	-5.74185000E-03	-2.05483000E-03
					-3.40201000E-03	-3.69800000E-03	-1.31052000E-03
					-3.56491000E-03	-3.78735000E-03	-1.40579000E-03
					-3.49306000E-03	-3.52087000E-03	-1.43186000E-03
					-1.86855000E-03	-2.10443000E-03	-8.66721000E-04
					-2.10864000E-03	-2.16142000E-03	-9.39317000E-04
					-2.19341000E-03	-2.00174000E-03	-9.75551000E-04
					 6.99184000E-04	-2.10685000E-04	-1.65404000E-04
					 6.75098000E-04	-1.06508000E-04	-8.56132000E-05
					 7.22993000E-04	 1.68810000E-05	 2.26661000E-05
					-9.60101000E-04	-1.10857000E-03	-5.92128000E-04
					-1.11686000E-03	-1.05266000E-03	-6.12948000E-04
					-1.17843000E-03	-8.61404000E-04	-6.22657000E-04
					-2.75423000E-04	-3.41733000E-04	-3.80181000E-04
					-3.97153000E-04	-2.31790000E-04	-3.73933000E-04
					-4.45451000E-04	-9.19505000E-06	-3.73730000E-04
					-3.11434000E-04	 6.58997000E-04	-1.69732000E-04
					-4.24539000E-04	 7.41324000E-04	-2.37216000E-04
					-5.67591000E-04	 8.60403000E-04	-3.38151000E-04
					 1.68419000E-04	 7.22489000E-04	-1.60600000E-05
					 5.77138000E-05	 8.03004000E-04	-1.27405000E-06
					-5.19265000E-05	 9.25201000E-04	 6.02219000E-05
					 6.90784000E-04	 5.73202000E-05	-9.19720000E-05
					 6.57774000E-04	 1.78873000E-04	-6.11055000E-05
					 6.88597000E-04	 2.80357000E-04	-3.54316000E-05
					 4.43627000E-04	 5.18062000E-04	-3.05343000E-05
					 3.70645000E-04	 6.44344000E-04	-2.18257000E-05
					 3.12476000E-04	 7.52415000E-04	-5.34798000E-06
					 4.87221000E-05	 4.49570000E-05	-2.52200000E-04
					-6.13333000E-05	 1.61610000E-04	-2.42155000E-04
					-1.12552000E-04	 3.43782000E-04	-2.40770000E-04
					 6.88442000E-04	 2.77704000E-04	-2.81078000E-05
					 6.63517000E-04	 4.23496000E-04	-3.00644000E-05
					 6.91164000E-04	 5.18425000E-04	-6.76440000E-05
					 2.91262000E-04	 3.39213000E-04	-1.21640000E-04
					 2.01297000E-04	 4.56370000E-04	-1.11390000E-04
					 1.38792000E-04	 5.69502000E-04	-1.03008000E-04
					-6.79488000E-03	-4.74195000E-03	-1.84316000E-03
					-7.69639000E-03	-4.15916000E-03	-2.05416000E-03
					-7.03618000E-03	-4.26520000E-03	-2.23292000E-03
					-4.40410000E-03	-2.73186000E-03	-1.15478000E-03
					-5.18030000E-03	-2.40442000E-03	-1.36368000E-03
					-4.72917000E-03	-2.29508000E-03	-1.60533000E-03
					-2.47686000E-03	-1.47894000E-03	-7.92654000E-04
					-3.10629000E-03	-1.22392000E-03	-9.28726000E-04
					-3.54412000E-03	-8.67324000E-04	-1.12723000E-03
					-2.32272000E-03	 3.63285000E-04	-1.67745000E-04
					 1.84693000E-04	-3.33120000E-03	-9.72480000E-04
					 9.17232000E-04	-2.62931000E-03	-1.00967000E-03
					 1.84361000E-04	-2.94070000E-03	-9.94471000E-04
					-4.48284000E-03	-1.89316000E-04	-1.02434000E-03
					-3.94137000E-03	-3.07580000E-04	-9.09133000E-04
					-3.39872000E-03	-3.80686000E-04	-6.79168000E-04
					-1.98139000E-03	 5.09996000E-04	-1.28748000E-04
					 8.45525000E-04	-2.28352000E-03	-9.85099000E-04
					 1.16057000E-03	-2.94262000E-03	-8.60367000E-04
					 1.42653000E-03	-2.70998000E-03	-4.26710000E-04
					 1.38283000E-03	-2.95214000E-03	-5.74013000E-04
					-2.58910000E-03	-1.45391000E-04	-3.13810000E-04
					 4.82331000E-04	-3.89616000E-03	-7.42756000E-04
					 4.21154000E-04	-4.02388000E-03	-7.96396000E-04
					 2.97727000E-04	-3.83773000E-03	-8.96808000E-04
					-3.70721000E-03	 9.37139000E-04	-5.52348000E-04
					-3.28825000E-03	 6.37453000E-04	-4.43396000E-04
					-2.78087000E-03	 3.81452000E-04	-2.71157000E-04
					-2.90582000E-03	-3.18509000E-04	-4.38736000E-04
					-1.42199000E-02	-8.99966000E-03	-3.89348000E-03
					-2.17850000E-02	-1.54728000E-02	-6.13289000E-03
					-2.99310000E-02	-2.30033000E-02	-8.63488000E-03
					-3.83066000E-02	-3.11156000E-02	-1.12638000E-02
					-4.67049000E-02	-3.94534000E-02	-1.39099000E-02
					-1.01274000E-02	-1.17515000E-02	-3.65592000E-03
					-1.76368000E-02	-1.93610000E-02	-6.00013000E-03
					-2.58890000E-02	-2.76455000E-02	-8.57974000E-03
					-3.44479000E-02	-3.61951000E-02	-1.12571000E-02
					-4.30451000E-02	-4.47805000E-02	-1.39542000E-02
					-8.76357000E-03	-1.35803000E-02	-3.86960000E-03
					-1.57360000E-02	-2.11663000E-02	-6.03156000E-03
					-2.36259000E-02	-2.93866000E-02	-8.47172000E-03
					-3.19731000E-02	-3.78588000E-02	-1.10489000E-02
					-4.04547000E-02	-4.63617000E-02	-1.36825000E-02
					-1.34480000E-02	-9.14325000E-03	-3.95674000E-03
					-2.09208000E-02	-1.56695000E-02	-6.11437000E-03
					-2.90128000E-02	-2.32137000E-02	-8.55367000E-03
					-3.73561000E-02	-3.13253000E-02	-1.11364000E-02