<?xml version="1.0"?>
<VTKFile type="UnstructuredGrid" version="0.1" byte_order="LittleEndian">
	<UnstructuredGrid>
		<Piece NumberOfPoints="1720" NumberOfCells="832">
			<Points>
				<DataArray type="Float64" NumberOfComponents="3" format="ascii">
					-1.27552000E-02	 3.65262000E-01	 1.66670000E-01
					 1.51975000E-02	 9.95069000E-01	 1.66670000E-01
					 9.56709000E-02	 2.30970000E-01	 0.00000000E+00
					-1.03673000E-01	 2.27490000E-01	 1.66670000E-01
					-1.74497000E-02	 4.99695000E-01	 1.66670000E-01
					 1.43506000E-01	 3.46455000E-01	 0.00000000E+00
					-8.72514000E-03	 2.49855000E-01	 1.66670000E-01
					-1.55510000E-01	 3.41235000E-01	 1.66670000E-01
					 1.91342000E-01	 4.61940000E-01	 0.00000000E+00
					 8.75518000E-02	 2.34168000E-01	 1.66670000E-01
					 1.53086000E-17	 2.50008000E-01	 0.00000000E+00
					-9.56709000E-02	 2.30970000E-01	 0.00000000E+00
					 1.10401000E-01	 5.88124000E-01	 0.00000000E+00
					-5.87745000E-17	 3.65485000E-01	 0.00000000E+00
					-1.43506000E-01	 3.46455000E-01	 0.00000000E+00
					 1.12583000E-01	 6.88100000E-01	 0.00000000E+00
					-8.04061000E-17	 5.00000000E-01	 0.00000000E+00
					 8.81865000E-02	 8.00147000E-01	-3.79961000E-04
					 3.91018000E-02	 8.94866000E-01	 0.00000000E+00
					 1.75104000E-01	 4.68336000E-01	 1.66670000E-01
					 3.25615000E-02	 9.94652000E-01	 0.00000000E+00
					-9.64874000E-17	 6.00000000E-01	 0.00000000E+00
					-1.12583000E-01	 6.88100000E-01	 0.00000000E+00
					-1.12569000E-16	 7.00000000E-01	 0.00000000E+00
					 4.89859000E-17	 8.00000000E-01	 0.00000000E+00
					 5.51091000E-17	 9.00000000E-01	 0.00000000E+00
					 6.12323000E-17	 1.00000000E+00	 0.00000000E+00
					-2.09397000E-02	 5.99634000E-01	 1.66670000E-01
					-2.44296000E-02	 6.99574000E-01	 1.66670000E-01
					-2.07347000E-01	 4.54981000E-01	 1.66670000E-01
					-2.79196000E-02	 7.99513000E-01	 1.66670000E-01
					-3.14095000E-02	 8.99452000E-01	 1.66670000E-01
					-3.17591000E-02	 7.95756000E-01	 0.00000000E+00
					-3.48995000E-02	 9.99391000E-01	 1.66670000E-01
					-1.30859000E-01	 5.83913000E-01	 1.66670000E-01
					 1.31328000E-01	 3.51252000E-01	 1.66670000E-01
					-1.36529000E-01	 6.83752000E-01	 1.66670000E-01
					-1.10401000E-01	 5.88124000E-01	 0.00000000E+00
					-1.00993000E-01	 7.89959000E-01	 1.66670000E-01
					-1.01429000E-01	 8.89959000E-01	 1.66670000E-01
					-2.34783000E-02	 8.95412000E-01	 0.00000000E+00
					-1.01866000E-01	 9.89958000E-01	 1.66670000E-01
					 8.98088000E-02	 5.91619000E-01	 1.66670000E-01
					-1.51975000E-02	 9.95069000E-01	 0.00000000E+00
					-1.91342000E-01	 4.61940000E-01	 0.00000000E+00
					 8.84998000E-02	 6.91610000E-01	 1.66670000E-01
					 3.17591000E-02	 7.95756000E-01	 1.66670000E-01
					 2.34783000E-02	 8.95412000E-01	 1.66670000E-01
					 6.43091000E-02	 6.94278000E-01	 3.33337000E-01
					 4.00400000E-02	 6.96099000E-01	 5.00003000E-01
					 1.57221000E-02	 6.97072000E-01	 6.66670000E-01
					 6.91069000E-02	 5.94393000E-01	 3.33337000E-01
					 4.83208000E-02	 5.96442000E-01	 5.00003000E-01
					 2.74758000E-02	 5.97766000E-01	 6.66670000E-01
					-1.70673000E-01	 9.80440000E-01	 3.33337000E-01
					-2.21752000E-01	 9.70164000E-01	 5.00003000E-01
					-2.12967000E-01	 9.70344000E-01	 6.40408000E-01
					-1.63263000E-01	 8.80715000E-01	 3.33337000E-01
					-2.09132000E-01	 8.70964000E-01	 5.00003000E-01
					-2.28435000E-01	 8.70398000E-01	 6.68452000E-01
					-1.55852000E-01	 7.80990000E-01	 3.33337000E-01
					-1.96512000E-01	 7.71763000E-01	 5.00003000E-01
					-2.23326000E-01	 7.64435000E-01	 6.66670000E-01
					-1.60308000E-01	 6.78571000E-01	 3.33337000E-01
					-1.83892000E-01	 6.72563000E-01	 5.00003000E-01
					-2.07252000E-01	 6.65735000E-01	 6.66670000E-01
					 1.18989000E-01	 3.55621000E-01	 3.33337000E-01
					 1.06506000E-01	 3.59557000E-01	 5.00003000E-01
					 9.38925000E-02	 3.63055000E-01	 6.66670000E-01
					-1.51158000E-01	 5.78990000E-01	 3.33337000E-01
					-1.71272000E-01	 5.73362000E-01	 5.00003000E-01
					-1.91178000E-01	 5.67036000E-01	 6.66670000E-01
					-6.97565000E-02	 9.97564000E-01	 3.33337000E-01
					-1.04528000E-01	 9.94522000E-01	 5.00003000E-01
					-1.39173000E-01	 9.90268000E-01	 6.66670000E-01
					-6.27808000E-02	 8.97808000E-01	 3.33337000E-01
					-9.40756000E-02	 8.95070000E-01	 5.00003000E-01
					-1.25256000E-01	 8.91241000E-01	 6.66670000E-01
					-5.58052000E-02	 7.98051000E-01	 3.33337000E-01
					-8.36228000E-02	 7.95618000E-01	 5.00003000E-01
					-1.11338000E-01	 7.92214000E-01	 6.66670000E-01
					-2.23099000E-01	 4.47467000E-01	 3.33337000E-01
					-2.38579000E-01	 4.39409000E-01	 5.00003000E-01
					-2.53769000E-01	 4.30815000E-01	 6.66670000E-01
					-4.88295000E-02	 6.98295000E-01	 3.33337000E-01
					-7.31699000E-02	 6.96165000E-01	 5.00003000E-01
					-9.74212000E-02	 6.93188000E-01	 6.66670000E-01
					-4.18539000E-02	 5.98538000E-01	 3.33337000E-01
					-6.27171000E-02	 5.96713000E-01	 5.00003000E-01
					-8.35039000E-02	 5.94161000E-01	 6.66670000E-01
					 1.58652000E-01	 4.74162000E-01	 3.33337000E-01
					 1.42008000E-01	 4.79410000E-01	 5.00003000E-01
					 1.25190000E-01	 4.84074000E-01	 6.66670000E-01
					 7.93262000E-02	 2.37081000E-01	 3.33337000E-01
					 7.10038000E-02	 2.39705000E-01	 5.00003000E-01
					 6.25950000E-02	 2.42037000E-01	 6.66670000E-01
					-1.67324000E-01	 3.35600000E-01	 3.33337000E-01
					-1.78935000E-01	 3.29556000E-01	 5.00003000E-01
					-1.90327000E-01	 3.23111000E-01	 6.66670000E-01
					-1.74397000E-02	 2.49399000E-01	 3.33337000E-01
					-2.61329000E-02	 2.48638000E-01	 5.00003000E-01
					-3.47943000E-02	 2.47575000E-01	 6.66670000E-01
					-3.48782000E-02	 4.98782000E-01	 3.33337000E-01
					-5.22642000E-02	 4.97261000E-01	 5.00003000E-01
					-6.95866000E-02	 4.95134000E-01	 6.66670000E-01
					-1.11549000E-01	 2.23734000E-01	 3.33337000E-01
					-1.19290000E-01	 2.19704000E-01	 5.00003000E-01
					-1.26885000E-01	 2.15407000E-01	 6.66670000E-01
					-2.54949000E-02	 3.64595000E-01	 3.33337000E-01
					-3.82036000E-02	 3.63483000E-01	 5.00003000E-01
					-5.08657000E-02	 3.61928000E-01	 6.66670000E-01
					-1.95392000E-02	 9.94993000E-01	 3.33337000E-01
					-1.95392000E-02	 9.94993000E-01	 5.00003000E-01
					-6.53167000E-02	 9.91143000E-01	 6.44012000E-01
					-7.78541000E-03	 8.95686000E-01	 3.33337000E-01
					-7.78541000E-03	 8.95686000E-01	 5.00003000E-01
					-3.99021000E-02	 8.87826000E-01	 6.53001000E-01
					 3.96833000E-03	 7.96379000E-01	 3.33337000E-01
					 3.96833000E-03	 7.96379000E-01	 5.00003000E-01
					 3.96833000E-03	 7.96379000E-01	 6.66670000E-01
					 1.88491000E-01	 6.92919000E-01	 1.66670000E-01
					-2.42037000E-01	 7.77922000E-01	 1.66670000E-01
					-2.36368000E-01	 6.78083000E-01	 1.66670000E-01
					-2.14740000E-01	 7.85895000E-01	 0.00000000E+00
					 1.03275000E-01	 8.08133000E-01	 6.66670000E-01
					 1.31416000E-01	 8.04036000E-01	 5.00003000E-01
					 1.59396000E-01	 7.98960000E-01	 3.33337000E-01
					 2.12559000E-01	 6.85919000E-01	 0.00000000E+00
					-2.12559000E-01	 6.85919000E-01	 0.00000000E+00
					-2.59888000E-01	 6.69421000E-01	 3.33337000E-01
					-3.05952000E-01	 6.49661000E-01	 6.66670000E-01
					-2.83093000E-01	 6.59943000E-01	 5.00003000E-01
					 2.14740000E-01	 7.85895000E-01	 0.00000000E+00
					-3.22026000E-01	 7.48361000E-01	 6.66670000E-01
					-2.95713000E-01	 7.59143000E-01	 5.00003000E-01
					-2.69039000E-01	 7.69001000E-01	 3.33337000E-01
					 1.15029000E-01	 7.08826000E-01	 6.66670000E-01
					 1.39697000E-01	 7.04380000E-01	 5.00003000E-01
					 1.64194000E-01	 6.99075000E-01	 3.33337000E-01
					 1.87182000E-01	 7.92911000E-01	 1.66670000E-01
					-1.95392000E-02	 1.19499000E+00	 5.00003000E-01
					-1.95392000E-02	 1.39499000E+00	 5.00003000E-01
					-1.95392000E-02	 1.59499000E+00	 5.00003000E-01
					-1.95392000E-02	 1.79499000E+00	 5.00003000E-01
					-1.95392000E-02	 1.99499000E+00	 5.00003000E-01
					-1.51975000E-02	 1.19507000E+00	 0.00000000E+00
					-1.51975000E-02	 1.39507000E+00	 0.00000000E+00
					-1.51975000E-02	 1.59507000E+00	 0.00000000E+00
					-1.51975000E-02	 1.79507000E+00	 0.00000000E+00
					-1.51975000E-02	 1.99507000E+00	 0.00000000E+00
					-1.01866000E-01	 1.18996000E+00	 1.66670000E-01
					-1.01866000E-01	 1.38996000E+00	 1.66670000E-01
					-1.01866000E-01	 1.58996000E+00	 1.66670000E-01
					-1.01866000E-01	 1.78996000E+00	 1.66670000E-01
					-1.01866000E-01	 1.98996000E+00	 1.66670000E-01
					-6.53167000E-02	 1.19114000E+00	 6.44012000E-01
					-6.53167000E-02	 1.39114000E+00	 6.44012000E-01
					-6.53167000E-02	 1.59114000E+00	 6.44012000E-01
					-6.53167000E-02	 1.79114000E+00	 6.44012000E-01
					-6.53167000E-02	 1.99114000E+00	 6.44012000E-01
					-2.21752000E-01	 1.17016000E+00	 5.00003000E-01
					-2.21752000E-01	 1.37016000E+00	 5.00003000E-01
					-2.21752000E-01	 1.57016000E+00	 5.00003000E-01
					-2.21752000E-01	 1.77016000E+00	 5.00003000E-01
					-2.21752000E-01	 1.97016000E+00	 5.00003000E-01
					-2.12967000E-01	 1.17034000E+00	 6.40408000E-01
					-2.12967000E-01	 1.37034000E+00	 6.40408000E-01
					-2.12967000E-01	 1.57034000E+00	 6.40408000E-01
					-2.12967000E-01	 1.77034000E+00	 6.40408000E-01
					-2.12967000E-01	 1.97034000E+00	 6.40408000E-01
					-3.48995000E-02	 1.19939000E+00	 1.66670000E-01
					-3.48995000E-02	 1.39939000E+00	 1.66670000E-01
					-3.48995000E-02	 1.59939000E+00	 1.66670000E-01
					-3.48995000E-02	 1.79939000E+00	 1.66670000E-01
					-3.48995000E-02	 1.99939000E+00	 1.66670000E-01
					-1.70673000E-01	 1.18044000E+00	 3.33337000E-01
					-1.70673000E-01	 1.38044000E+00	 3.33337000E-01
					-1.70673000E-01	 1.58044000E+00	 3.33337000E-01
					-1.70673000E-01	 1.78044000E+00	 3.33337000E-01
					-1.70673000E-01	 1.98044000E+00	 3.33337000E-01
					-1.39173000E-01	 1.19027000E+00	 6.66670000E-01
					-1.39173000E-01	 1.39027000E+00	 6.66670000E-01
					-1.39173000E-01	 1.59027000E+00	 6.66670000E-01
[...]
			<PointData>
				<DataArray type="Float32" Name="U" NumberOfComponents="3" ComponentName0="D1" ComponentName1="D2" ComponentName2="D3" format="ascii">
					 1.65584000E-03	-4.73349000E-04	 5.29478000E-05
					 7.61836000E-04	-4.93199000E-04	-1.38820000E-04
					 3.72636000E-03	 1.56746000E-03	 1.41644000E-04
					 1.89694000E-03	-1.25666000E-03	-3.02301000E-04
					 1.24213000E-03	-4.54364000E-04	 2.70925000E-05
					 3.36831000E-03	 1.96507000E-03	 1.34302000E-03
					 2.15733000E-03	-4.38312000E-04	 5.35411000E-05
					 1.77441000E-03	-1.49463000E-03	-1.31081000E-03
					 3.17245000E-03	 2.08685000E-03	 2.54833000E-03
					 2.13605000E-03	 4.82136000E-04	 3.76024000E-04
					 3.81029000E-03	-2.76964000E-04	 1.22569000E-04
					 3.62692000E-03	-2.02856000E-03	 2.71980000E-05
					 2.31666000E-03	 4.51067000E-04	 1.14350000E-03
					 3.20291000E-03	-2.90411000E-04	 1.60410000E-04
					 3.46470000E-03	-2.36624000E-03	-1.11691000E-03
					 1.89451000E-03	-2.62961000E-05	 7.29787000E-04
					 2.76472000E-03	-3.22318000E-04	 1.82266000E-04
					 1.61297000E-03	-2.26089000E-04	 4.89788000E-04
					 1.44937000E-03	-4.60836000E-04	 5.09983000E-05
					 1.34113000E-03	 9.04126000E-04	 2.41907000E-03
					 1.43358000E-03	-5.75913000E-04	-7.88565000E-05
					 2.15296000E-03	-3.62388000E-04	 1.25471000E-04
					 1.85081000E-03	-7.80849000E-04	-6.11244000E-04
					 1.80691000E-03	-4.22453000E-04	 5.13602000E-05
					 1.59724000E-03	-4.76957000E-04	-2.78333000E-05
					 1.43110000E-03	-5.21129000E-04	-1.23935000E-04
					 1.43072000E-03	-5.62122000E-04	-2.12173000E-04
					 9.43426000E-04	-4.40808000E-04	-2.95709000E-05
					 8.27924000E-04	-4.43707000E-04	-8.71623000E-05
					 1.69348000E-03	-1.59350000E-03	-2.37717000E-03
					 7.42645000E-04	-4.51618000E-04	-1.66495000E-04
					 7.20615000E-04	-4.63459000E-04	-2.60790000E-04
					 1.59720000E-03	-5.45668000E-04	-1.92739000E-04
					 7.60744000E-04	-4.77925000E-04	-3.50153000E-04
					 1.06712000E-03	-9.25408000E-04	-1.11436000E-03
					 1.71938000E-03	 7.50137000E-04	 1.37716000E-03
					 8.94020000E-04	-6.80607000E-04	-7.79031000E-04
					 2.31476000E-03	-1.07872000E-03	-8.52083000E-04
					 7.66482000E-04	-5.57456000E-04	-5.81162000E-04
					 7.28739000E-04	-4.82626000E-04	-5.59409000E-04
					 1.43303000E-03	-5.45042000E-04	-2.17724000E-04
					 7.53923000E-04	-4.58837000E-04	-6.22666000E-04
					 9.64951000E-04	 1.01269000E-04	 1.10281000E-03
					 1.42488000E-03	-5.52119000E-04	-2.68034000E-04
					 3.49104000E-03	-2.42954000E-03	-2.25846000E-03
					 8.69469000E-04	-1.55939000E-04	 6.18460000E-04
					 7.34158000E-04	-3.50975000E-04	 1.96728000E-04
					 7.29247000E-04	-4.42898000E-04	-1.27261000E-05
					 1.77530000E-06	-4.25337000E-04	 4.55349000E-04
					-8.34856000E-04	-6.12135000E-04	 3.01682000E-04
					-1.78397000E-03	-6.10513000E-04	 1.10645000E-04
					-2.49643000E-05	-4.53915000E-04	 9.02083000E-04
					-9.56836000E-04	-9.20131000E-04	 7.66774000E-04
					-2.16890000E-03	-1.06272000E-03	 4.76916000E-04
					 7.15959000E-05	-3.67563000E-04	-9.37125000E-04
					-6.51686000E-04	-2.43468000E-04	-1.18218000E-03
					-1.27732000E-03	-1.67317000E-04	-1.14742000E-03
					 4.40038000E-05	-3.82730000E-04	-8.70087000E-04
					-7.02688000E-04	-2.22486000E-04	-1.11917000E-03
					-1.50581000E-03	-1.03134000E-04	-1.21085000E-03
					 3.07023000E-05	-4.12635000E-04	-8.93712000E-04
					-7.70989000E-04	-1.81463000E-04	-1.11310000E-03
					-1.66788000E-03	-3.41072000E-05	-1.23690000E-03
					 2.67910000E-05	-4.23560000E-04	-9.27224000E-04
					-8.70305000E-04	-1.20177000E-04	-1.08324000E-03
					-1.87448000E-03	 4.61179000E-05	-1.18127000E-03
					 3.86360000E-05	-4.68327000E-04	 1.31242000E-03
					-1.61226000E-03	-1.64042000E-03	 1.17910000E-03
					-3.20588000E-03	-2.62443000E-03	 9.96761000E-04
					 6.42711000E-05	-4.50059000E-04	-1.24087000E-03
					-9.91430000E-04	 1.02291000E-04	-1.43271000E-03
					-2.36125000E-03	 4.28688000E-04	-1.47479000E-03
					 7.81099000E-05	-4.00914000E-04	-5.03846000E-04
					-6.39637000E-04	-3.04792000E-04	-6.66260000E-04
					-1.38261000E-03	-2.00122000E-04	-8.29219000E-04
					 4.23882000E-05	-4.12959000E-04	-4.12640000E-04
					-6.77073000E-04	-3.24737000E-04	-5.67794000E-04
					-1.46118000E-03	-2.26129000E-04	-7.26219000E-04
					 1.06917000E-05	-4.29726000E-04	-3.16587000E-04
					-7.42910000E-04	-3.48227000E-04	-4.77725000E-04
					-1.60097000E-03	-2.54074000E-04	-6.34745000E-04
					 1.74701000E-04	-4.15540000E-04	-2.48694000E-03
					-1.40687000E-03	 8.06997000E-04	-2.59304000E-03
					-3.31616000E-03	 1.84166000E-03	-2.67674000E-03
					 1.29888000E-05	-4.53685000E-04	-2.42653000E-04
					-7.99208000E-04	-3.77100000E-04	-4.02488000E-04
					-1.75981000E-03	-2.74915000E-04	-5.51833000E-04
					 2.18394000E-05	-4.72686000E-04	-1.82782000E-04
					-8.98584000E-04	-3.96426000E-04	-3.36838000E-04
					-2.09967000E-03	-2.90296000E-04	-4.97001000E-04
					-1.26560000E-04	-4.42538000E-04	 2.27892000E-03
					-1.54104000E-03	-1.73886000E-03	 2.15563000E-03
					-3.26436000E-03	-2.69730000E-03	 2.05529000E-03
					 1.89545000E-04	-4.82923000E-04	 3.78014000E-04
					-1.77100000E-03	-1.42158000E-03	 2.40783000E-04
					-3.41175000E-03	-2.32219000E-03	-6.88745000E-05
					 1.34948000E-05	-4.62784000E-04	-1.43657000E-03
					-1.78541000E-03	 6.11640000E-04	-1.47824000E-03
					-3.54071000E-03	 1.69521000E-03	-1.41591000E-03
					 2.91530000E-05	-5.48028000E-04	-4.20828000E-05
					-2.09945000E-03	-6.27710000E-04	-1.26976000E-04
					-3.75368000E-03	-5.80304000E-04	-1.64458000E-04
					 2.62103000E-05	-5.11007000E-04	-1.36503000E-04
					-1.19167000E-03	-4.67805000E-04	-2.97292000E-04
					-2.71083000E-03	-3.73343000E-04	-4.47550000E-04
					-1.37469000E-04	-4.99174000E-04	-4.37963000E-04
					-2.15966000E-03	 2.87537000E-04	-4.19338000E-04
					-3.84221000E-03	 1.24450000E-03	-1.58394000E-04
					 3.13230000E-05	-5.63366000E-04	-8.09999000E-05
					-1.59716000E-03	-5.77226000E-04	-2.06239000E-04
					-3.15064000E-03	-4.74603000E-04	-2.94003000E-04
					 7.64961000E-05	-4.17797000E-04	-2.85377000E-04
					-6.44270000E-04	-3.45003000E-04	-2.85986000E-04
					-1.28695000E-03	-2.54390000E-04	-4.98494000E-04
					 4.04154000E-05	-4.27053000E-04	-1.69740000E-04
					-6.87415000E-04	-3.94285000E-04	-1.57226000E-04
					-1.40968000E-03	-3.40021000E-04	-3.15149000E-04
					-2.15451000E-06	-4.31465000E-04	 4.77625000E-05
					-7.49229000E-04	-4.76747000E-04	 2.97457000E-05
					-1.60962000E-03	-4.88180000E-04	 1.62579000E-06
					 9.31119000E-04	-2.31003000E-05	 1.03381000E-03
					 8.05624000E-04	-7.68793000E-04	-1.43653000E-03
					 9.15834000E-04	-7.34150000E-04	-1.21000000E-03
					 1.65298000E-03	-1.00361000E-03	-1.28766000E-03
					-1.61477000E-03	-7.24046000E-04	 6.24676000E-04
					-7.60656000E-04	-6.53809000E-04	 8.13833000E-04
					-3.65575000E-05	-3.66301000E-04	 1.01943000E-03
					 1.91933000E-03	 1.77676000E-04	 1.23580000E-03
					 1.86061000E-03	-9.79916000E-04	-1.12609000E-03
					 4.67248000E-07	-3.81083000E-04	-1.31655000E-03
					-1.87405000E-03	 1.32010000E-04	-1.65930000E-03
					-9.12788000E-04	-6.76830000E-05	-1.49467000E-03
					 1.64593000E-03	 2.29328000E-04	 1.32861000E-03
					-1.73315000E-03	 1.97149000E-04	-1.85955000E-03
					-7.93178000E-04	-2.58662000E-05	-1.71534000E-03
					 4.15679000E-05	-3.79868000E-04	-1.58252000E-03
					-1.76528000E-03	-7.12491000E-04	 6.43383000E-04
					-8.46488000E-04	-6.33616000E-04	 7.34697000E-04
					 2.09798000E-05	-3.67468000E-04	 8.39794000E-04
					 7.17594000E-04	 5.33691000E-06	 1.17830000E-03
					-5.95323000E-04	-3.02081000E-04	-4.11274000E-04
					-5.71548000E-04	-2.84218000E-04	-5.42282000E-04
					-5.56357000E-04	-2.77306000E-04	-6.86108000E-04
					-5.41701000E-04	-2.75470000E-04	-8.37382000E-04
					-5.25799000E-04	-2.74891000E-04	-9.94059000E-04
					 1.59316000E-03	-6.02726000E-04	-4.00488000E-04
					 1.76478000E-03	-6.36305000E-04	-5.27233000E-04
					 1.89337000E-03	-6.57488000E-04	-6.65536000E-04
					 1.98317000E-03	-6.68469000E-04	-8.13402000E-04
					 2.04947000E-03	-6.71857000E-04	-9.64919000E-04
					 8.66829000E-04	-4.69447000E-04	-7.68328000E-04
					 9.80336000E-04	-4.93138000E-04	-9.23667000E-04
					 1.06978000E-03	-5.11885000E-04	-1.08397000E-03
					 1.13480000E-03	-5.22813000E-04	-1.24704000E-03
					 1.18348000E-03	-5.26851000E-04	-1.40736000E-03
					-1.23698000E-03	-1.93675000E-04	-6.18605000E-04
					-1.24237000E-03	-1.64513000E-04	-7.55840000E-04
					-1.25623000E-03	-1.53073000E-04	-9.07044000E-04
					-1.26228000E-03	-1.51717000E-04	-1.06425000E-03
					-1.25658000E-03	-1.52413000E-04	-1.22444000E-03
					-5.97415000E-04	-2.62760000E-04	-1.29467000E-03
					-5.72304000E-04	-2.66016000E-04	-1.46215000E-03
					-5.57516000E-04	-2.63738000E-04	-1.64631000E-03
					-5.43393000E-04	-2.60875000E-04	-1.82845000E-03
					-5.28459000E-04	-2.59718000E-04	-1.99869000E-03
					-1.21761000E-03	-1.79306000E-04	-1.25751000E-03
					-1.22045000E-03	-1.67653000E-04	-1.42315000E-03
					-1.23603000E-03	-1.56653000E-04	-1.60473000E-03
					-1.24386000E-03	-1.50324000E-04	-1.78467000E-03
					-1.23926000E-03	-1.48042000E-04	-1.95436000E-03
					 8.75265000E-04	-5.06329000E-04	-4.83144000E-04
					 9.87415000E-04	-5.25426000E-04	-6.17841000E-04
					 1.07471000E-03	-5.35904000E-04	-7.62868000E-04
					 1.13796000E-03	-5.40532000E-04	-9.15415000E-04
					 1.18617000E-03	-5.41851000E-04	-1.06960000E-03
					 1.38952000E-04	-3.67000000E-04	-1.06896000E-03
					 2.00889000E-04	-3.76428000E-04	-1.23360000E-03
					 2.51913000E-04	-3.84878000E-04	-1.40845000E-03
					 2.91774000E-04	-3.89692000E-04	-1.58301000E-03
					 3.22277000E-04	-3.91703000E-04	-1.74941000E-03
					-1.33423000E-03	-1.69917000E-04	-9.47283000E-04
					-1.34587000E-03	-1.46494000E-04	-1.09931000E-03
					-1.36565000E-03	-1.34345000E-04	-1.26527000E-03
					-1.37558000E-03	-1.30618000E-04	-1.43316000E-03
					-1.37167000E-03	-1.30022000E-04	-1.59795000E-03
					-5.92676000E-04	-2.85554000E-04	-7.89946000E-04
					-5.70617000E-04	-2.75154000E-04	-9.38258000E-04
					-5.56177000E-04	-2.70299000E-04	-1.09905000E-03
					-5.41828000E-04	-2.68475000E-04	-1.26278000E-03
					-5.26320000E-04	-2.67862000E-04	-1.42500000E-03
					 1.46270000E-04	-3.96857000E-04	-6.34007000E-04
					 2.07287000E-04	-4.00393000E-04	-7.77619000E-04
					 2.56703000E-04	-4.03592000E-04	-9.31530000E-04
					 2.95015000E-04	-4.04931000E-04	-1.09014000E-03
					 3.25309000E-04	-4.05025000E-04	-1.24869000E-03
					 1.59930000E-03	-6.19871000E-04	-3.37926000E-04
					 1.76924000E-03	-6.49846000E-04	-4.59038000E-04
					 1.89642000E-03	-6.66891000E-04	-5.93858000E-04
					 1.98516000E-03	-6.74878000E-04	-7.39585000E-04
					 2.05102000E-03	-6.77126000E-04	-8.89563000E-04
					 1.45557000E-04	-4.13512000E-04	-4.10555000E-04
					 2.06919000E-04	-4.14535000E-04	-5.41233000E-04
					 2.56426000E-04	-4.14612000E-04	-6.84303000E-04
					 2.94772000E-04	-4.13610000E-04	-8.35206000E-04
					 3.25410000E-04	-4.12515000E-04	-9.89602000E-04
					 8.74810000E-04	-5.34784000E-04	-2.62453000E-04
					 9.86034000E-04	-5.50183000E-04	-3.80804000E-04
					 1.07350000E-03	-5.54384000E-04	-5.13800000E-04
					 1.13692000E-03	-5.54188000E-04	-6.58242000E-04
					 1.18548000E-03	-5.53518000E-04	-8.07584000E-04
					 1.59671000E-03	-6.48987000E-04	-1.94215000E-04
					 1.76616000E-03	-6.73879000E-04	-3.03077000E-04
					 1.89405000E-03	-6.84062000E-04	-4.29470000E-04
					 1.98330000E-03	-6.87006000E-04	-5.69928000E-04
					 2.04940000E-03	-6.87286000E-04	-7.16672000E-04
					 1.62675000E-03	-1.89661000E-03	-1.77767000E-03
					 5.04624000E-03	-1.84059000E-03	-1.55271000E-02
					 3.62692000E-03	-2.02856000E-03	 2.71980000E-05
					 4.82136000E-04	-2.13605000E-03	-3.76024000E-04
					 2.01396000E-03	-1.90571000E-03	-3.74177000E-03
					 3.46470000E-03	-2.36624000E-03	-1.11691000E-03
					 1.34500000E-03	-1.86575000E-03	-4.66293000E-04
					 7.50137000E-04	-1.71938000E-03	-1.37716000E-03
					 3.49104000E-03	-2.42954000E-03	-2.25846000E-03
					 1.89694000E-03	-1.25666000E-03	-3.02301000E-04
					 2.99360000E-03	-3.26129000E-03	-7.35270000E-05
					 1.56746000E-03	-3.72636000E-03	-1.41644000E-04
					 4.52119000E-03	-3.75788000E-03	-5.30108000E-03
					 3.43542000E-03	-3.51096000E-03	-1.66013000E-03
					 1.96507000E-03	-3.36831000E-03	-1.34302000E-03
					 5.65080000E-03	-4.15801000E-03	-7.40120000E-03
					 4.17714000E-03	-3.91379000E-03	-3.89277000E-03
					 6.18548000E-03	-4.22245000E-03	-9.92081000E-03
					 6.99698000E-03	-4.75854000E-03	-1.27644000E-02
					 1.69348000E-03	-1.59350000E-03	-2.37717000E-03
					 8.09900000E-03	-5.52014000E-03	-1.59208000E-02
					 4.66727000E-03	-4.07779000E-03	-5.63686000E-03
					 4.71297000E-03	-4.03968000E-03	-7.44551000E-03
					 5.28685000E-03	-4.13539000E-03	-7.73841000E-03
					 6.16568000E-03	-4.41655000E-03	-1.00878000E-02
					 7.00926000E-03	-4.94868000E-03	-1.28810000E-02
					 7.99290000E-03	-5.55492000E-03	-1.59918000E-02
					 2.34824000E-03	-1.84182000E-03	-5.41357000E-03
					 2.81950000E-03	-1.73482000E-03	-7.48010000E-03
					 9.04126000E-04	-1.34113000E-03	-2.41907000E-03
					 3.45384000E-03	-1.71111000E-03	-9.78649000E-03
					 4.10911000E-03	-1.73092000E-03	-1.24857000E-02
					 5.81725000E-03	-4.24537000E-03	-9.89119000E-03
					 4.87956000E-03	-1.75681000E-03	-1.55363000E-02
					 1.87509000E-03	-1.50486000E-03	-4.98029000E-03
					 1.77441000E-03	-1.49463000E-03	-1.31081000E-03
					 2.39695000E-03	-1.57444000E-03	-7.15626000E-03
					 3.99342000E-03	-3.61081000E-03	-5.36193000E-03
					 3.08769000E-03	-1.50399000E-03	-9.47633000E-03
					 3.79728000E-03	-1.66125000E-03	-1.21087000E-02
					 6.89721000E-03	-4.97796000E-03	-1.27365000E-02
					 4.53434000E-03	-1.64351000E-03	-1.50234000E-02
					 2.36002000E-03	-1.83321000E-03	-5.02864000E-03
					 7.86617000E-03	-5.54337000E-03	-1.57783000E-02
					 2.08685000E-03	-3.17245000E-03	-2.54833000E-03
					 3.12045000E-03	-1.89870000E-03	-7.31199000E-03
					 3.47877000E-03	-1.73531000E-03	-9.63223000E-03
					 4.26866000E-03	-1.77656000E-03	-1.24212000E-02
					 8.84912000E-04	 2.02569000E-04	-7.29766000E-03
					-1.40180000E-03	 2.31463000E-03	-7.37285000E-03
					-4.02073000E-03	 4.63744000E-03	-7.56250000E-03
					 4.25786000E-04	-4.34605000E-05	-5.02341000E-03
					-1.55179000E-03	 1.75341000E-03	-5.08953000E-03
					-3.82677000E-03	 3.72552000E-03	-5.39418000E-03
					 1.40894000E-03	 2.20410000E-03	-1.44385000E-02
					-1.77435000E-03	 6.13759000E-03	-1.40800000E-02
					-4.13769000E-03	 9.14026000E-03	-1.43316000E-02
					 9.16783000E-04	 1.67579000E-03	-1.16634000E-02
					-2.05369000E-03	 5.14255000E-03	-1.14601000E-02
					-4.88139000E-03	 8.47950000E-03	-1.17314000E-02
					 5.08583000E-04	 1.20390000E-03	-9.18672000E-03
					-2.19336000E-03	 4.10015000E-03	-9.09160000E-03
					-4.87321000E-03	 7.06373000E-03	-9.14042000E-03
					 1.04844000E-04	 7.92903000E-04	-6.95222000E-03
					-2.36652000E-03	 3.29015000E-03	-6.89813000E-03
					-4.91387000E-03	 5.94808000E-03	-7.02486000E-03
					 1.34948000E-05	-4.62784000E-04	-1.43657000E-03
					-1.78541000E-03	 6.11640000E-04	-1.47824000E-03
					-3.54071000E-03	 1.69521000E-03	-1.41591000E-03
					-8.72702000E-05	 3.82720000E-04	-4.83191000E-03
					-2.10757000E-03	 2.30163000E-03	-4.78541000E-03
					-4.23258000E-03	 4.37916000E-03	-5.12064000E-03
					 2.00465000E-03	 1.83145000E-03	-1.52673000E-02
					-9.59180000E-04	 5.49661000E-03	-1.51551000E-02
					-4.16058000E-03	 9.34502000E-03	-1.51844000E-02
					 1.44648000E-03	 1.34134000E-03	-1.23056000E-02
					-1.31988000E-03	 4.52889000E-03	-1.22825000E-02
					-4.34586000E-03	 7.88373000E-03	-1.24099000E-02
					 9.58112000E-04	 8.91207000E-04	-9.65954000E-03
					-1.63977000E-03	 3.62566000E-03	-9.70531000E-03
					-4.47811000E-03	 6.54049000E-03	-9.89679000E-03
					-4.42538000E-04	 1.26560000E-04	-2.27892000E-03
					-1.73886000E-03	 1.54104000E-03	-2.15563000E-03
					-2.69730000E-03	 3.26436000E-03	-2.05529000E-03
					 5.37676000E-04	 5.04940000E-04	-7.34501000E-03
					-1.83339000E-03	 2.80753000E-03	-7.39413000E-03
					-4.41277000E-03	 5.29273000E-03	-7.60013000E-03
					 1.90662000E-04	 1.80204000E-04	-5.29513000E-03
					-2.04333000E-03	 2.21060000E-03	-5.34562000E-03
					-4.49101000E-03	 4.39892000E-03	-5.54559000E-03
					 1.74701000E-04	-4.15540000E-04	-2.48694000E-03
					-1.40687000E-03	 8.06997000E-04	-2.59304000E-03
					-3.31616000E-03	 1.84166000E-03	-2.67674000E-03
					-1.37469000E-04	-4.99174000E-04	-4.37963000E-04
					-2.15966000E-03	 2.87537000E-04	-4.19338000E-04
					-3.84221000E-03	 1.24450000E-03	-1.58394000E-04
					-4.68327000E-04	-3.86360000E-05	-1.31242000E-03
					-1.64042000E-03	 1.61226000E-03	-1.17910000E-03
					-2.62443000E-03	 3.20588000E-03	-9.96761000E-04
					-3.24881000E-04	-3.60595000E-04	-5.64372000E-04
					-1.97477000E-03	 1.16823000E-03	-4.53077000E-04
					-3.50917000E-03	 2.68064000E-03	-5.54779000E-05
					-1.43748000E-05	-2.57092000E-05	-3.66997000E-03
					-2.10208000E-03	 1.83209000E-03	-3.69403000E-03
					-4.31367000E-03	 3.81509000E-03	-3.83244000E-03
					-4.82923000E-04	-1.89545000E-04	-3.78014000E-04
					-1.42158000E-03	 1.77100000E-03	-2.40783000E-04
					-2.32219000E-03	 3.41175000E-03	 6.88745000E-05
					-2.03518000E-04	-2.24300000E-04	-1.83118000E-03
					-2.05331000E-03	 1.43321000E-03	-1.75468000E-03
					-3.82731000E-03	 3.07521000E-03	-1.62781000E-03
					 2.24359000E-03	 1.59240000E-03	-1.53127000E-02
					-4.47271000E-04	 4.88447000E-03	-1.53591000E-02
					-3.30880000E-03	 8.19349000E-03	-1.53457000E-02
					 1.68826000E-03	 1.11642000E-03	-1.23124000E-02
					-8.17706000E-04	 3.93560000E-03	-1.23546000E-02
					-3.51813000E-03	 6.72939000E-03	-1.23102000E-02
					 1.12953000E-03	 6.89030000E-04	-9.52955000E-03
					-1.16442000E-03	 3.06524000E-03	-9.62182000E-03
					-3.73795000E-03	 5.47603000E-03	-9.77628000E-03
					 3.44626000E-03	-2.09171000E-03	-7.45990000E-03
					 2.37870000E-03	-7.85951000E-04	-8.99139000E-03
					 2.03280000E-03	-1.30274000E-03	-7.10853000E-03
					 4.65571000E-03	-3.19558000E-03	-9.16396000E-03
					-2.98603000E-03	 4.79369000E-03	-9.66335000E-03
					-5.20743000E-04	 2.44943000E-03	-9.46749000E-03
					 1.47602000E-03	 2.47099000E-04	-9.31321000E-03
					 5.99355000E-03	-4.32347000E-03	-7.19247000E-03
					 4.23278000E-03	-3.78598000E-03	-7.27462000E-03
					-3.64777000E-04	 1.19503000E-03	-6.83897000E-03
					-5.91690000E-03	 6.76086000E-03	-6.34800000E-03
					-3.12779000E-03	 3.89691000E-03	-6.61547000E-03
					 5.96912000E-03	-4.16760000E-03	-9.21713000E-03
					-5.25226000E-03	 7.38179000E-03	-8.53693000E-03
					-2.59065000E-03	 4.42140000E-03	-8.77044000E-03
					 5.25590000E-06	 1.63699000E-03	-8.85796000E-03
					-3.53126000E-03	 4.23315000E-03	-7.70545000E-03
					-9.61202000E-04	 1.98430000E-03	-7.67052000E-03
					 1.24575000E-03	-3.84639000E-05	-7.62886000E-03
					 3.50740000E-03	-1.92101000E-03	-9.30812000E-03
					 5.47112000E-04	 6.68166000E-03	-2.21222000E-02
					 1.72154000E-03	 8.40025000E-03	-2.94702000E-02
					 3.00838000E-03	 1.00226000E-02	-3.71061000E-02
					 4.35181000E-03	 1.15425000E-02	-4.47714000E-02
					 5.72060000E-03	 1.29711000E-02	-5.22854000E-02
					 9.83560000E-03	-6.07786000E-03	-2.24865000E-02
					 1.15780000E-02	-5.93025000E-03	-2.97140000E-02
					 1.31032000E-02	-5.28740000E-03	-3.72500000E-02
					 1.44538000E-02	-4.29048000E-03	-4.48444000E-02
					 1.57027000E-02	-3.11895000E-03	-5.23382000E-02
					 6.07924000E-03	-1.30270000E-03	-2.15938000E-02
					 7.63170000E-03	-6.02441000E-04	-2.87951000E-02
					 9.09574000E-03	 3.74876000E-04	-3.63207000E-02
					 1.04707000E-02	 1.54275000E-03	-4.39148000E-02
					 1.17729000E-02	 2.79594000E-03	-5.13831000E-02
					-2.59257000E-03	 1.07383000E-02	-2.19368000E-02
					-1.56654000E-03	 1.29126000E-02	-2.91443000E-02
					-3.26234000E-04	 1.47953000E-02	-3.66813000E-02
					 1.04138000E-03	 1.64273000E-02	-4.42794000E-02