<?xml version="1.0"?>
<VTKFile type="UnstructuredGrid" version="0.1" byte_order="LittleEndian">
	<UnstructuredGrid>
		<Piece NumberOfPoints="1720" NumberOfCells="832">
			<Points>
				<DataArray type="Float64" NumberOfComponents="3" format="ascii">
					-1.27552000E-02	 3.65262000E-01	 1.66670000E-01
					 1.51975000E-02	 9.95069000E-01	 1.66670000E-01
					 9.56709000E-02	 2.30970000E-01	 0.00000000E+00
					-1.03673000E-01	 2.27490000E-01	 1.66670000E-01
					-1.74497000E-02	 4.99695000E-01	 1.66670000E-01
					 1.43506000E-01	 3.46455000E-01	 0.00000000E+00
					-8.72514000E-03	 2.49855000E-01	 1.66670000E-01
					-1.55510000E-01	 3.41235000E-01	 1.66670000E-01
					 1.91342000E-01	 4.61940000E-01	 0.00000000E+00
					 8.75518000E-02	 2.34168000E-01	 1.66670000E-01
					 1.53086000E-17	 2.50008000E-01	 0.00000000E+00
					-9.56709000E-02	 2.30970000E-01	 0.00000000E+00
					 1.10401000E-01	 5.88124000E-01	 0.00000000E+00
					-5.87745000E-17	 3.65485000E-01	 0.00000000E+00
					-1.43506000E-01	 3.46455000E-01	 0.00000000E+00
					 1.12583000E-01	 6.88100000E-01	 0.00000000E+00
					-8.04061000E-17	 5.00000000E-01	 0.00000000E+00
					 8.81865000E-02	 8.00147000E-01	-3.79961000E-04
					 3.91018000E-02	 8.94866000E-01	 0.00000000E+00
					 1.75104000E-01	 4.68336000E-01	 1.66670000E-01
					 3.25615000E-02	 9.94652000E-01	 0.00000000E+00
					-9.64874000E-17	 6.00000000E-01	 0.00000000E+00
					-1.12583000E-01	 6.88100000E-01	 0.00000000E+00
					-1.12569000E-16	 7.00000000E-01	 0.00000000E+00
					 4.89859000E-17	 8.00000000E-01	 0.00000000E+00
					 5.51091000E-17	 9.00000000E-01	 0.00000000E+00
					 6.12323000E-17	 1.00000000E+00	 0.00000000E+00
					-2.09397000E-02	 5.99634000E-01	 1.66670000E-01
					-2.44296000E-02	 6.99574000E-01	 1.66670000E-01
					-2.07347000E-01	 4.54981000E-01	 1.66670000E-01
					-2.79196000E-02	 7.99513000E-01	 1.66670000E-01
					-3.14095000E-02	 8.99452000E-01	 1.66670000E-01
					-3.17591000E-02	 7.95756000E-01	 0.00000000E+00
					-3.48995000E-02	 9.99391000E-01	 1.66670000E-01
					-1.30859000E-01	 5.83913000E-01	 1.66670000E-01
					 1.31328000E-01	 3.51252000E-01	 1.66670000E-01
					-1.36529000E-01	 6.83752000E-01	 1.66670000E-01
					-1.10401000E-01	 5.88124000E-01	 0.00000000E+00
					-1.00993000E-01	 7.89959000E-01	 1.66670000E-01
					-1.01429000E-01	 8.89959000E-01	 1.66670000E-01
					-2.34783000E-02	 8.95412000E-01	 0.00000000E+00
					-1.01866000E-01	 9.89958000E-01	 1.66670000E-01
					 8.98088000E-02	 5.91619000E-01	 1.66670000E-01
					-1.51975000E-02	 9.95069000E-01	 0.00000000E+00
					-1.91342000E-01	 4.61940000E-01	 0.00000000E+00
					 8.84998000E-02	 6.91610000E-01	 1.66670000E-01
					 3.17591000E-02	 7.95756000E-01	 1.66670000E-01
					 2.34783000E-02	 8.95412000E-01	 1.66670000E-01
					 6.43091000E-02	 6.94278000E-01	 3.33337000E-01
					 4.00400000E-02	 6.96099000E-01	 5.00003000E-01
					 1.57221000E-02	 6.97072000E-01	 6.66670000E-01
					 6.91069000E-02	 5.94393000E-01	 3.33337000E-01
					 4.83208000E-02	 5.96442000E-01	 5.00003000E-01
					 2.74758000E-02	 5.97766000E-01	 6.66670000E-01
					-1.70673000E-01	 9.80440000E-01	 3.33337000E-01
					-2.21752000E-01	 9.70164000E-01	 5.00003000E-01
					-2.12967000E-01	 9.70344000E-01	 6.40408000E-01
					-1.63263000E-01	 8.80715000E-01	 3.33337000E-01
					-2.09132000E-01	 8.70964000E-01	 5.00003000E-01
					-2.28435000E-01	 8.70398000E-01	 6.68452000E-01
					-1.55852000E-01	 7.80990000E-01	 3.33337000E-01
					-1.96512000E-01	 7.71763000E-01	 5.00003000E-01
					-2.23326000E-01	 7.64435000E-01	 6.66670000E-01
					-1.60308000E-01	 6.78571000E-01	 3.33337000E-01
					-1.83892000E-01	 6.72563000E-01	 5.00003000E-01
					-2.07252000E-01	 6.65735000E-01	 6.66670000E-01
					 1.18989000E-01	 3.55621000E-01	 3.33337000E-01
					 1.06506000E-01	 3.59557000E-01	 5.00003000E-01
					 9.38925000E-02	 3.63055000E-01	 6.66670000E-01
					-1.51158000E-01	 5.78990000E-01	 3.33337000E-01
					-1.71272000E-01	 5.73362000E-01	 5.00003000E-01
					-1.91178000E-01	 5.67036000E-01	 6.66670000E-01
					-6.97565000E-02	 9.97564000E-01	 3.33337000E-01
					-1.04528000E-01	 9.94522000E-01	 5.00003000E-01
					-1.39173000E-01	 9.90268000E-01	 6.66670000E-01
					-6.27808000E-02	 8.97808000E-01	 3.33337000E-01
					-9.40756000E-02	 8.95070000E-01	 5.00003000E-01
					-1.25256000E-01	 8.91241000E-01	 6.66670000E-01
					-5.58052000E-02	 7.98051000E-01	 3.33337000E-01
					-8.36228000E-02	 7.95618000E-01	 5.00003000E-01
					-1.11338000E-01	 7.92214000E-01	 6.66670000E-01
					-2.23099000E-01	 4.47467000E-01	 3.33337000E-01
					-2.38579000E-01	 4.39409000E-01	 5.00003000E-01
					-2.53769000E-01	 4.30815000E-01	 6.66670000E-01
					-4.88295000E-02	 6.98295000E-01	 3.33337000E-01
					-7.31699000E-02	 6.96165000E-01	 5.00003000E-01
					-9.74212000E-02	 6.93188000E-01	 6.66670000E-01
					-4.18539000E-02	 5.98538000E-01	 3.33337000E-01
					-6.27171000E-02	 5.96713000E-01	 5.00003000E-01
					-8.35039000E-02	 5.94161000E-01	 6.66670000E-01
					 1.58652000E-01	 4.74162000E-01	 3.33337000E-01
					 1.42008000E-01	 4.79410000E-01	 5.00003000E-01
					 1.25190000E-01	 4.84074000E-01	 6.66670000E-01
					 7.93262000E-02	 2.37081000E-01	 3.33337000E-01
					 7.10038000E-02	 2.39705000E-01	 5.00003000E-01
					 6.25950000E-02	 2.42037000E-01	 6.66670000E-01
					-1.67324000E-01	 3.35600000E-01	 3.33337000E-01
					-1.78935000E-01	 3.29556000E-01	 5.00003000E-01
					-1.90327000E-01	 3.23111000E-01	 6.66670000E-01
					-1.74397000E-02	 2.49399000E-01	 3.33337000E-01
					-2.61329000E-02	 2.48638000E-01	 5.00003000E-01
					-3.47943000E-02	 2.47575000E-01	 6.66670000E-01
					-3.48782000E-02	 4.98782000E-01	 3.33337000E-01
					-5.22642000E-02	 4.97261000E-01	 5.00003000E-01
					-6.95866000E-02	 4.95134000E-01	 6.66670000E-01
					-1.11549000E-01	 2.23734000E-01	 3.33337000E-01
					-1.19290000E-01	 2.19704000E-01	 5.00003000E-01
					-1.26885000E-01	 2.15407000E-01	 6.66670000E-01
					-2.54949000E-02	 3.64595000E-01	 3.33337000E-01
					-3.82036000E-02	 3.63483000E-01	 5.00003000E-01
					-5.08657000E-02	 3.61928000E-01	 6.66670000E-01
					-1.95392000E-02	 9.94993000E-01	 3.33337000E-01
					-1.95392000E-02	 9.94993000E-01	 5.00003000E-01
					-6.53167000E-02	 9.91143000E-01	 6.44012000E-01
					-7.78541000E-03	 8.95686000E-01	 3.33337000E-01
					-7.78541000E-03	 8.95686000E-01	 5.00003000E-01
					-3.99021000E-02	 8.87826000E-01	 6.53001000E-01
					 3.96833000E-03	 7.96379000E-01	 3.33337000E-01
					 3.96833000E-03	 7.96379000E-01	 5.00003000E-01
					 3.96833000E-03	 7.96379000E-01	 6.66670000E-01
					 1.88491000E-01	 6.92919000E-01	 1.66670000E-01
					-2.42037000E-01	 7.77922000E-01	 1.66670000E-01
					-2.36368000E-01	 6.78083000E-01	 1.66670000E-01
					-2.14740000E-01	 7.85895000E-01	 0.00000000E+00
					 1.03275000E-01	 8.08133000E-01	 6.66670000E-01
					 1.31416000E-01	 8.04036000E-01	 5.00003000E-01
					 1.59396000E-01	 7.98960000E-01	 3.33337000E-01
					 2.12559000E-01	 6.85919000E-01	 0.00000000E+00
					-2.12559000E-01	 6.85919000E-01	 0.00000000E+00
					-2.59888000E-01	 6.69421000E-01	 3.33337000E-01
					-3.05952000E-01	 6.49661000E-01	 6.66670000E-01
					-2.83093000E-01	 6.59943000E-01	 5.00003000E-01
					 2.14740000E-01	 7.85895000E-01	 0.00000000E+00
					-3.22026000E-01	 7.48361000E-01	 6.66670000E-01
					-2.95713000E-01	 7.59143000E-01	 5.00003000E-01
					-2.69039000E-01	 7.69001000E-01	 3.33337000E-01
					 1.15029000E-01	 7.08826000E-01	 6.66670000E-01
					 1.39697000E-01	 7.04380000E-01	 5.00003000E-01
					 1.64194000E-01	 6.99075000E-01	 3.33337000E-01
					 1.87182000E-01	 7.92911000E-01	 1.66670000E-01
					-1.95392000E-02	 1.19499000E+00	 5.00003000E-01
					-1.95392000E-02	 1.39499000E+00	 5.00003000E-01
					-1.95392000E-02	 1.59499000E+00	 5.00003000E-01
					-1.95392000E-02	 1.79499000E+00	 5.00003000E-01
					-1.95392000E-02	 1.99499000E+00	 5.00003000E-01
					-1.51975000E-02	 1.19507000E+00	 0.00000000E+00
					-1.51975000E-02	 1.39507000E+00	 0.00000000E+00
					-1.51975000E-02	 1.59507000E+00	 0.00000000E+00
					-1.51975000E-02	 1.79507000E+00	 0.00000000E+00
					-1.51975000E-02	 1.99507000E+00	 0.00000000E+00
					-1.01866000E-01	 1.18996000E+00	 1.66670000E-01
					-1.01866000E-01	 1.38996000E+00	 1.66670000E-01
					-1.01866000E-01	 1.58996000E+00	 1.66670000E-01
					-1.01866000E-01	 1.78996000E+00	 1.66670000E-01
					-1.01866000E-01	 1.98996000E+00	 1.66670000E-01
					-6.53167000E-02	 1.19114000E+00	 6.44012000E-01
					-6.53167000E-02	 1.39114000E+00	 6.44012000E-01
					-6.53167000E-02	 1.59114000E+00	 6.44012000E-01
					-6.53167000E-02	 1.79114000E+00	 6.44012000E-01
					-6.53167000E-02	 1.99114000E+00	 6.44012000E-01
					-2.21752000E-01	 1.17016000E+00	 5.00003000E-01
					-2.21752000E-01	 1.37016000E+00	 5.00003000E-01
					-2.21752000E-01	 1.57016000E+00	 5.00003000E-01
					-2.21752000E-01	 1.77016000E+00	 5.00003000E-01
					-2.21752000E-01	 1.97016000E+00	 5.00003000E-01
					-2.12967000E-01	 1.17034000E+00	 6.40408000E-01
					-2.12967000E-01	 1.37034000E+00	 6.40408000E-01
					-2.12967000E-01	 1.57034000E+00	 6.40408000E-01
					-2.12967000E-01	 1.77034000E+00	 6.40408000E-01
					-2.12967000E-01	 1.97034000E+00	 6.40408000E-01
					-3.48995000E-02	 1.19939000E+00	 1.66670000E-01
					-3.48995000E-02	 1.39939000E+00	 1.66670000E-01
					-3.48995000E-02	 1.59939000E+00	 1.66670000E-01
					-3.48995000E-02	 1.79939000E+00	 1.66670000E-01
					-3.48995000E-02	 1.99939000E+00	 1.66670000E-01
					-1.70673000E-01	 1.18044000E+00	 3.33337000E-01
					-1.70673000E-01	 1.38044000E+00	 3.33337000E-01
					-1.70673000E-01	 1.58044000E+00	 3.33337000E-01
					-1.70673000E-01	 1.78044000E+00	 3.33337000E-01
					-1.70673000E-01	 1.98044000E+00	 3.33337000E-01
					-1.39173000E-01	 1.19027000E+00	 6.66670000E-01
					-1.39173000E-01	 1.39027000E+00	 6.66670000E-01
					-1.39173000E-01	 1.59027000E+00	 6.66670000E-01
[...]
			<PointData>
				<DataArray type="Float32" Name="U" NumberOfComponents="3" ComponentName0="D1" ComponentName1="D2" ComponentName2="D3" format="ascii">
					-6.81374000E-03	 1.09116000E-02	 6.23598000E-03
					-6.81374000E-03	 1.09116000E-02	 1.69130000E-02
					-7.06555000E-03	 1.37483000E-02	 3.78653000E-03
					-6.81374000E-03	 1.09116000E-02	 4.02849000E-03
					-6.81374000E-03	 1.09116000E-02	 8.53111000E-03
					-7.06555000E-03	 1.37483000E-02	 5.67980000E-03
					-6.81374000E-03	 1.09116000E-02	 4.26568000E-03
					-6.81374000E-03	 1.09116000E-02	 6.04273000E-03
					-7.06555000E-03	 1.37483000E-02	 7.57306000E-03
					-6.81374000E-03	 1.09116000E-02	 3.85323000E-03
					-7.06555000E-03	 1.37483000E-02	 4.25509000E-03
					-7.06555000E-03	 1.37483000E-02	 4.07562000E-03
					-7.06555000E-03	 1.37483000E-02	 9.84299000E-03
					-7.06555000E-03	 1.37483000E-02	 6.22050000E-03
					-7.06555000E-03	 1.37483000E-02	 6.11343000E-03
					-7.06555000E-03	 1.37483000E-02	 1.15413000E-02
					-7.06555000E-03	 1.37483000E-02	 8.50993000E-03
					-7.06613000E-03	 1.37548000E-02	 1.34852000E-02
					-7.06555000E-03	 1.37483000E-02	 1.51714000E-02
					-6.81374000E-03	 1.09116000E-02	 7.70646000E-03
					-7.06555000E-03	 1.37483000E-02	 1.68796000E-02
					-7.06555000E-03	 1.37483000E-02	 1.02119000E-02
					-7.06555000E-03	 1.37483000E-02	 1.18815000E-02
					-7.06555000E-03	 1.37483000E-02	 1.19139000E-02
					-7.06555000E-03	 1.37483000E-02	 1.36159000E-02
					-7.06555000E-03	 1.37483000E-02	 1.53179000E-02
					-7.06555000E-03	 1.37483000E-02	 1.70199000E-02
					-6.81374000E-03	 1.09116000E-02	 1.02373000E-02
					-6.81374000E-03	 1.09116000E-02	 1.19436000E-02
					-6.81374000E-03	 1.09116000E-02	 8.05697000E-03
					-6.81374000E-03	 1.09116000E-02	 1.36498000E-02
					-6.81374000E-03	 1.09116000E-02	 1.53560000E-02
					-7.06555000E-03	 1.37483000E-02	 1.35916000E-02
					-6.81374000E-03	 1.09116000E-02	 1.70622000E-02
					-6.81374000E-03	 1.09116000E-02	 1.01358000E-02
					-6.81374000E-03	 1.09116000E-02	 5.77985000E-03
					-6.81374000E-03	 1.09116000E-02	 1.18436000E-02
					-7.06555000E-03	 1.37483000E-02	 1.01766000E-02
					-6.81374000E-03	 1.09116000E-02	 1.35976000E-02
					-6.81374000E-03	 1.09116000E-02	 1.53002000E-02
					-7.06555000E-03	 1.37483000E-02	 1.52753000E-02
					-6.81374000E-03	 1.09116000E-02	 1.70028000E-02
					-6.81374000E-03	 1.09116000E-02	 9.93358000E-03
					-7.06555000E-03	 1.37483000E-02	 1.69589000E-02
					-7.06555000E-03	 1.37483000E-02	 8.15123000E-03
					-6.81374000E-03	 1.09116000E-02	 1.16374000E-02
					-6.81374000E-03	 1.09116000E-02	 1.34957000E-02
					-6.81374000E-03	 1.09116000E-02	 1.52043000E-02
					-6.56194000E-03	 8.07495000E-03	 1.17193000E-02
					-6.31013000E-03	 5.23831000E-03	 1.17870000E-02
					-6.05833000E-03	 2.40167000E-03	 1.18403000E-02
					-6.56194000E-03	 8.07495000E-03	 1.00121000E-02
					-6.31013000E-03	 5.23831000E-03	 1.00784000E-02
					-6.05833000E-03	 2.40167000E-03	 1.01324000E-02
					-6.56194000E-03	 8.07495000E-03	 1.69448000E-02
					-6.31013000E-03	 5.23831000E-03	 1.68471000E-02
					-6.09800000E-03	 2.84863000E-03	 1.68369000E-02
					-6.56194000E-03	 8.07495000E-03	 1.52363000E-02
					-6.31013000E-03	 5.23831000E-03	 1.51396000E-02
					-6.05563000E-03	 2.37134000E-03	 1.51592000E-02
					-6.56194000E-03	 8.07495000E-03	 1.35278000E-02
					-6.31013000E-03	 5.23831000E-03	 1.34322000E-02
					-6.05833000E-03	 2.40167000E-03	 1.33480000E-02
					-6.56194000E-03	 8.07495000E-03	 1.17914000E-02
					-6.31013000E-03	 5.23831000E-03	 1.17248000E-02
					-6.05833000E-03	 2.40167000E-03	 1.16438000E-02
					-6.56194000E-03	 8.07495000E-03	 5.87285000E-03
					-6.31013000E-03	 5.23831000E-03	 5.95870000E-03
					-6.05833000E-03	 2.40167000E-03	 6.03729000E-03
					-6.56194000E-03	 8.07495000E-03	 1.00827000E-02
					-6.31013000E-03	 5.23831000E-03	 1.00173000E-02
					-6.05833000E-03	 2.40167000E-03	 9.93971000E-03
					-6.56194000E-03	 8.07495000E-03	 1.70838000E-02
					-6.31013000E-03	 5.23831000E-03	 1.70845000E-02
					-6.05833000E-03	 2.40167000E-03	 1.70645000E-02
					-6.56194000E-03	 8.07495000E-03	 1.53754000E-02
					-6.31013000E-03	 5.23831000E-03	 1.53761000E-02
					-6.05833000E-03	 2.40167000E-03	 1.53580000E-02
					-6.56194000E-03	 8.07495000E-03	 1.36670000E-02
					-6.31013000E-03	 5.23831000E-03	 1.36676000E-02
					-6.05833000E-03	 2.40167000E-03	 1.36516000E-02
					-6.56194000E-03	 8.07495000E-03	 7.95289000E-03
					-6.31013000E-03	 5.23831000E-03	 7.83912000E-03
					-6.05833000E-03	 2.40167000E-03	 7.71581000E-03
					-6.56194000E-03	 8.07495000E-03	 1.19587000E-02
					-6.31013000E-03	 5.23831000E-03	 1.19592000E-02
					-6.05833000E-03	 2.40167000E-03	 1.19451000E-02
					-6.56194000E-03	 8.07495000E-03	 1.02503000E-02
					-6.31013000E-03	 5.23831000E-03	 1.02507000E-02
					-6.05833000E-03	 2.40167000E-03	 1.02387000E-02
					-6.56194000E-03	 8.07495000E-03	 7.83047000E-03
					-6.31013000E-03	 5.23831000E-03	 7.94494000E-03
					-6.05833000E-03	 2.40167000E-03	 8.04973000E-03
					-6.56194000E-03	 8.07495000E-03	 3.91523000E-03
					-6.31013000E-03	 5.23831000E-03	 3.97247000E-03
					-6.05833000E-03	 2.40167000E-03	 4.02486000E-03
					-6.56194000E-03	 8.07495000E-03	 5.96467000E-03
					-6.31013000E-03	 5.23831000E-03	 5.87934000E-03
					-6.05833000E-03	 2.40167000E-03	 5.78685000E-03
					-6.56194000E-03	 8.07495000E-03	 4.27108000E-03
					-6.31013000E-03	 5.23831000E-03	 4.27127000E-03
					-6.05833000E-03	 2.40167000E-03	 4.26625000E-03
					-6.56194000E-03	 8.07495000E-03	 8.54189000E-03
					-6.31013000E-03	 5.23831000E-03	 8.54227000E-03
					-6.05833000E-03	 2.40167000E-03	 8.53224000E-03
					-6.56194000E-03	 8.07495000E-03	 3.97645000E-03
					-6.31013000E-03	 5.23831000E-03	 3.91956000E-03
					-6.05833000E-03	 2.40167000E-03	 3.85790000E-03
					-6.56194000E-03	 8.07495000E-03	 6.24387000E-03
					-6.31013000E-03	 5.23831000E-03	 6.24414000E-03
					-6.05833000E-03	 2.40167000E-03	 6.23681000E-03
					-6.56194000E-03	 8.07495000E-03	 1.69642000E-02
					-6.31013000E-03	 5.23831000E-03	 1.69642000E-02
					-6.09256000E-03	 2.78730000E-03	 1.69678000E-02
					-6.56194000E-03	 8.07495000E-03	 1.52562000E-02
					-6.31013000E-03	 5.23831000E-03	 1.52562000E-02
					-6.07898000E-03	 2.63432000E-03	 1.51710000E-02
					-6.56194000E-03	 8.07495000E-03	 1.35483000E-02
					-6.31013000E-03	 5.23831000E-03	 1.35483000E-02
					-6.05833000E-03	 2.40167000E-03	 1.35483000E-02
					-6.81374000E-03	 1.09116000E-02	 1.15086000E-02
					-6.81374000E-03	 1.09116000E-02	 1.36058000E-02
					-6.81374000E-03	 1.09116000E-02	 1.18980000E-02
					-7.06555000E-03	 1.37483000E-02	 1.37003000E-02
					-6.05833000E-03	 2.40167000E-03	 1.35983000E-02
					-6.31013000E-03	 5.23831000E-03	 1.34860000E-02
					-6.56194000E-03	 8.07495000E-03	 1.33574000E-02
					-7.06555000E-03	 1.37483000E-02	 1.13531000E-02
					-7.06555000E-03	 1.37483000E-02	 1.19954000E-02
					-6.56194000E-03	 8.07495000E-03	 1.17861000E-02
					-6.05833000E-03	 2.40167000E-03	 1.15194000E-02
					-6.31013000E-03	 5.23831000E-03	 1.16598000E-02
					-7.06555000E-03	 1.37483000E-02	 1.30514000E-02
					-6.05833000E-03	 2.40167000E-03	 1.32235000E-02
					-6.31013000E-03	 5.23831000E-03	 1.33673000E-02
					-6.56194000E-03	 8.07495000E-03	 1.34948000E-02
					-6.05833000E-03	 2.40167000E-03	 1.18903000E-02
					-6.31013000E-03	 5.23831000E-03	 1.17774000E-02
					-6.56194000E-03	 8.07495000E-03	 1.16501000E-02
					-6.81374000E-03	 1.09116000E-02	 1.32124000E-02
					-6.31013000E-03	 5.23831000E-03	 2.03681000E-02
					-6.31013000E-03	 5.23831000E-03	 2.37721000E-02
					-6.31013000E-03	 5.23831000E-03	 2.71761000E-02
					-6.31013000E-03	 5.23831000E-03	 3.05800000E-02
					-6.31013000E-03	 5.23831000E-03	 3.39840000E-02
					-7.06555000E-03	 1.37483000E-02	 2.03629000E-02
					-7.06555000E-03	 1.37483000E-02	 2.37668000E-02
					-7.06555000E-03	 1.37483000E-02	 2.71708000E-02
					-7.06555000E-03	 1.37483000E-02	 3.05748000E-02
					-7.06555000E-03	 1.37483000E-02	 3.39787000E-02
					-6.81374000E-03	 1.09116000E-02	 2.04068000E-02
					-6.81374000E-03	 1.09116000E-02	 2.38108000E-02
					-6.81374000E-03	 1.09116000E-02	 2.72148000E-02
					-6.81374000E-03	 1.09116000E-02	 3.06187000E-02
					-6.81374000E-03	 1.09116000E-02	 3.40227000E-02
					-6.09256000E-03	 2.78730000E-03	 2.03718000E-02
					-6.09256000E-03	 2.78730000E-03	 2.37757000E-02
					-6.09256000E-03	 2.78730000E-03	 2.71797000E-02
					-6.09256000E-03	 2.78730000E-03	 3.05837000E-02
					-6.09256000E-03	 2.78730000E-03	 3.39876000E-02
					-6.31013000E-03	 5.23831000E-03	 2.02511000E-02
					-6.31013000E-03	 5.23831000E-03	 2.36550000E-02
					-6.31013000E-03	 5.23831000E-03	 2.70590000E-02
					-6.31013000E-03	 5.23831000E-03	 3.04630000E-02
					-6.31013000E-03	 5.23831000E-03	 3.38669000E-02
					-6.09800000E-03	 2.84863000E-03	 2.02408000E-02
					-6.09800000E-03	 2.84863000E-03	 2.36448000E-02
					-6.09800000E-03	 2.84863000E-03	 2.70488000E-02
					-6.09800000E-03	 2.84863000E-03	 3.04528000E-02
					-6.09800000E-03	 2.84863000E-03	 3.38567000E-02
					-6.81374000E-03	 1.09116000E-02	 2.04662000E-02
					-6.81374000E-03	 1.09116000E-02	 2.38702000E-02
					-6.81374000E-03	 1.09116000E-02	 2.72741000E-02
					-6.81374000E-03	 1.09116000E-02	 3.06781000E-02
					-6.81374000E-03	 1.09116000E-02	 3.40821000E-02
					-6.56194000E-03	 8.07495000E-03	 2.03488000E-02
					-6.56194000E-03	 8.07495000E-03	 2.37528000E-02
					-6.56194000E-03	 8.07495000E-03	 2.71567000E-02
					-6.56194000E-03	 8.07495000E-03	 3.05607000E-02
					-6.56194000E-03	 8.07495000E-03	 3.39647000E-02
					-6.05833000E-03	 2.40167000E-03	 2.04685000E-02
					-6.05833000E-03	 2.40167000E-03	 2.38724000E-02
					-6.05833000E-03	 2.40167000E-03	 2.72764000E-02
					-6.05833000E-03	 2.40167000E-03	 3.06804000E-02
					-6.05833000E-03	 2.40167000E-03	 3.40843000E-02
					-6.31013000E-03	 5.23831000E-03	 2.04885000E-02
					-6.31013000E-03	 5.23831000E-03	 2.38925000E-02
					-6.31013000E-03	 5.23831000E-03	 2.72965000E-02
					-6.31013000E-03	 5.23831000E-03	 3.07004000E-02
					-6.31013000E-03	 5.23831000E-03	 3.41044000E-02
					-6.56194000E-03	 8.07495000E-03	 2.04878000E-02
					-6.56194000E-03	 8.07495000E-03	 2.38917000E-02
					-6.56194000E-03	 8.07495000E-03	 2.72957000E-02
					-6.56194000E-03	 8.07495000E-03	 3.06997000E-02
					-6.56194000E-03	 8.07495000E-03	 3.41036000E-02
					-7.06555000E-03	 1.37483000E-02	 2.04238000E-02
					-7.06555000E-03	 1.37483000E-02	 2.38278000E-02
					-7.06555000E-03	 1.37483000E-02	 2.72318000E-02
					-7.06555000E-03	 1.37483000E-02	 3.06357000E-02
					-7.06555000E-03	 1.37483000E-02	 3.40397000E-02
					-6.56194000E-03	 8.07495000E-03	 2.03681000E-02
					-6.56194000E-03	 8.07495000E-03	 2.37721000E-02
					-6.56194000E-03	 8.07495000E-03	 2.71761000E-02
					-6.56194000E-03	 8.07495000E-03	 3.05800000E-02
					-6.56194000E-03	 8.07495000E-03	 3.39840000E-02
					-6.81374000E-03	 1.09116000E-02	 2.03169000E-02
					-6.81374000E-03	 1.09116000E-02	 2.37209000E-02
					-6.81374000E-03	 1.09116000E-02	 2.71249000E-02
					-6.81374000E-03	 1.09116000E-02	 3.05289000E-02
					-6.81374000E-03	 1.09116000E-02	 3.39328000E-02
					-7.06555000E-03	 1.37483000E-02	 2.02836000E-02
					-7.06555000E-03	 1.37483000E-02	 2.36876000E-02
					-7.06555000E-03	 1.37483000E-02	 2.70916000E-02
					-7.06555000E-03	 1.37483000E-02	 3.04955000E-02
					-7.06555000E-03	 1.37483000E-02	 3.38995000E-02
					-6.81374000E-03	 1.09116000E-02	 4.64622000E-03
					-6.81374000E-03	 1.09116000E-02	 1.32052000E-02
					-7.06555000E-03	 1.37483000E-02	 4.07562000E-03
					-6.81374000E-03	 1.09116000E-02	 1.84391000E-03
					-6.81374000E-03	 1.09116000E-02	 6.35623000E-03
					-7.06555000E-03	 1.37483000E-02	 6.11343000E-03
					-6.81374000E-03	 1.09116000E-02	 3.17821000E-03
					-6.81374000E-03	 1.09116000E-02	 2.76586000E-03
					-7.06555000E-03	 1.37483000E-02	 8.15123000E-03
					-6.81374000E-03	 1.09116000E-02	 4.02849000E-03
					-7.06555000E-03	 1.37483000E-02	 3.27589000E-03
					-7.06555000E-03	 1.37483000E-02	 1.97726000E-03
					-7.06555000E-03	 1.37483000E-02	 8.91702000E-03
					-7.06555000E-03	 1.37483000E-02	 4.78901000E-03
					-7.06555000E-03	 1.37483000E-02	 2.96589000E-03
					-7.06555000E-03	 1.37483000E-02	 1.02509000E-02
					-7.06555000E-03	 1.37483000E-02	 6.55159000E-03
					-7.06613000E-03	 1.37548000E-02	 1.14516000E-02
					-7.06555000E-03	 1.37483000E-02	 1.21544000E-02
					-6.81374000E-03	 1.09116000E-02	 8.05697000E-03
					-7.06555000E-03	 1.37483000E-02	 1.33902000E-02
					-7.06555000E-03	 1.37483000E-02	 7.86191000E-03
					-7.06555000E-03	 1.37483000E-02	 7.78166000E-03
					-7.06555000E-03	 1.37483000E-02	 9.17222000E-03
					-7.06555000E-03	 1.37483000E-02	 1.04825000E-02
					-7.06555000E-03	 1.37483000E-02	 1.17929000E-02
					-7.06555000E-03	 1.37483000E-02	 1.31032000E-02
					-6.81374000E-03	 1.09116000E-02	 7.62748000E-03
					-6.81374000E-03	 1.09116000E-02	 8.89873000E-03
					-6.81374000E-03	 1.09116000E-02	 3.68782000E-03
					-6.81374000E-03	 1.09116000E-02	 1.01700000E-02
					-6.81374000E-03	 1.09116000E-02	 1.14412000E-02
					-7.06555000E-03	 1.37483000E-02	 1.00786000E-02
					-6.81374000E-03	 1.09116000E-02	 1.27125000E-02
					-6.81374000E-03	 1.09116000E-02	 6.21604000E-03
					-6.81374000E-03	 1.09116000E-02	 6.04273000E-03
					-6.81374000E-03	 1.09116000E-02	 7.46208000E-03
					-7.06555000E-03	 1.37483000E-02	 6.49558000E-03
					-6.81374000E-03	 1.09116000E-02	 9.24344000E-03
					-6.81374000E-03	 1.09116000E-02	 1.05490000E-02
					-7.06555000E-03	 1.37483000E-02	 1.14753000E-02
					-6.81374000E-03	 1.09116000E-02	 1.18545000E-02
					-6.81374000E-03	 1.09116000E-02	 8.73698000E-03
					-7.06555000E-03	 1.37483000E-02	 1.28719000E-02
					-7.06555000E-03	 1.37483000E-02	 3.95452000E-03
					-6.81374000E-03	 1.09116000E-02	 1.00328000E-02
					-6.81374000E-03	 1.09116000E-02	 1.07752000E-02
					-6.81374000E-03	 1.09116000E-02	 1.19902000E-02
					-6.56194000E-03	 8.07495000E-03	 9.80249000E-03
					-6.31013000E-03	 5.23831000E-03	 9.56021000E-03
					-6.05833000E-03	 2.40167000E-03	 9.30628000E-03
					-6.56194000E-03	 8.07495000E-03	 8.54630000E-03
					-6.31013000E-03	 5.23831000E-03	 8.34520000E-03
					-6.05833000E-03	 2.40167000E-03	 8.13394000E-03
					-6.56194000E-03	 8.07495000E-03	 1.09752000E-02
					-6.31013000E-03	 5.23831000E-03	 1.02804000E-02
					-6.09800000E-03	 2.84863000E-03	 1.03791000E-02
					-6.56194000E-03	 8.07495000E-03	 9.74974000E-03
					-6.31013000E-03	 5.23831000E-03	 9.11894000E-03
					-6.05563000E-03	 2.37134000E-03	 8.89984000E-03
					-6.56194000E-03	 8.07495000E-03	 8.52430000E-03
					-6.31013000E-03	 5.23831000E-03	 7.95749000E-03
					-6.05833000E-03	 2.40167000E-03	 7.56741000E-03
					-6.56194000E-03	 8.07495000E-03	 7.13341000E-03
					-6.31013000E-03	 5.23831000E-03	 6.79605000E-03
					-6.05833000E-03	 2.40167000E-03	 6.45041000E-03
					-6.56194000E-03	 8.07495000E-03	 5.96467000E-03
					-6.31013000E-03	 5.23831000E-03	 5.87934000E-03
					-6.05833000E-03	 2.40167000E-03	 5.78685000E-03
					-6.56194000E-03	 8.07495000E-03	 5.92894000E-03
					-6.31013000E-03	 5.23831000E-03	 5.63460000E-03
					-6.05833000E-03	 2.40167000E-03	 5.33341000E-03
					-6.56194000E-03	 8.07495000E-03	 1.23063000E-02
					-6.31013000E-03	 5.23831000E-03	 1.18851000E-02
					-6.05833000E-03	 2.40167000E-03	 1.14494000E-02
					-6.56194000E-03	 8.07495000E-03	 1.10756000E-02
					-6.31013000E-03	 5.23831000E-03	 1.06966000E-02
					-6.05833000E-03	 2.40167000E-03	 1.03045000E-02
					-6.56194000E-03	 8.07495000E-03	 9.84502000E-03
					-6.31013000E-03	 5.23831000E-03	 9.50806000E-03
					-6.05833000E-03	 2.40167000E-03	 9.15953000E-03
					-6.56194000E-03	 8.07495000E-03	 3.41662000E-03
					-6.31013000E-03	 5.23831000E-03	 3.14126000E-03
					-6.05833000E-03	 2.40167000E-03	 2.86207000E-03
					-6.56194000E-03	 8.07495000E-03	 8.61439000E-03
					-6.31013000E-03	 5.23831000E-03	 8.31956000E-03
					-6.05833000E-03	 2.40167000E-03	 8.01459000E-03
					-6.56194000E-03	 8.07495000E-03	 7.38376000E-03
					-6.31013000E-03	 5.23831000E-03	 7.13105000E-03
					-6.05833000E-03	 2.40167000E-03	 6.86965000E-03
					-6.56194000E-03	 8.07495000E-03	 7.95289000E-03
					-6.31013000E-03	 5.23831000E-03	 7.83912000E-03
					-6.05833000E-03	 2.40167000E-03	 7.71581000E-03
					-6.56194000E-03	 8.07495000E-03	 3.97645000E-03
					-6.31013000E-03	 5.23831000E-03	 3.91956000E-03
					-6.05833000E-03	 2.40167000E-03	 3.85790000E-03
					-6.56194000E-03	 8.07495000E-03	 2.56246000E-03
					-6.31013000E-03	 5.23831000E-03	 2.35594000E-03
					-6.05833000E-03	 2.40167000E-03	 2.14655000E-03
					-6.56194000E-03	 8.07495000E-03	 3.07666000E-03
					-6.31013000E-03	 5.23831000E-03	 2.97136000E-03
					-6.05833000E-03	 2.40167000E-03	 2.86244000E-03
					-6.56194000E-03	 8.07495000E-03	 6.15314000E-03
					-6.31013000E-03	 5.23831000E-03	 5.94254000E-03
					-6.05833000E-03	 2.40167000E-03	 5.72471000E-03
					-6.56194000E-03	 8.07495000E-03	 1.70831000E-03
					-6.31013000E-03	 5.23831000E-03	 1.57063000E-03
					-6.05833000E-03	 2.40167000E-03	 1.43104000E-03
					-6.56194000E-03	 8.07495000E-03	 4.49776000E-03
					-6.31013000E-03	 5.23831000E-03	 4.34382000E-03
					-6.05833000E-03	 2.40167000E-03	 4.18459000E-03
					-6.56194000E-03	 8.07495000E-03	 1.28233000E-02
					-6.31013000E-03	 5.23831000E-03	 1.28233000E-02
					-6.09256000E-03	 2.78730000E-03	 1.22708000E-02
					-6.56194000E-03	 8.07495000E-03	 1.16510000E-02
					-6.31013000E-03	 5.23831000E-03	 1.16510000E-02
					-6.07898000E-03	 2.63432000E-03	 1.11958000E-02
					-6.56194000E-03	 8.07495000E-03	 1.04786000E-02
					-6.31013000E-03	 5.23831000E-03	 1.04786000E-02
					-6.05833000E-03	 2.40167000E-03	 1.04786000E-02
					-6.81374000E-03	 1.09116000E-02	 1.11465000E-02
					-6.81374000E-03	 1.09116000E-02	 7.53894000E-03
					-6.81374000E-03	 1.09116000E-02	 6.29290000E-03
					-7.06555000E-03	 1.37483000E-02	 7.94276000E-03
					-6.05833000E-03	 2.40167000E-03	 1.17217000E-02
					-6.31013000E-03	 5.23831000E-03	 1.19766000E-02
					-6.56194000E-03	 8.07495000E-03	 1.22169000E-02
					-7.06555000E-03	 1.37483000E-02	 1.13188000E-02
					-7.06555000E-03	 1.37483000E-02	 6.65668000E-03
					-6.56194000E-03	 8.07495000E-03	 5.92146000E-03
					-6.05833000E-03	 2.40167000E-03	 5.15739000E-03
					-6.31013000E-03	 5.23831000E-03	 5.54280000E-03
					-7.06555000E-03	 1.37483000E-02	 1.26527000E-02
					-6.05833000E-03	 2.40167000E-03	 6.27439000E-03
					-6.31013000E-03	 5.23831000E-03	 6.70425000E-03
					-6.56194000E-03	 8.07495000E-03	 7.12594000E-03
					-6.05833000E-03	 2.40167000E-03	 1.05493000E-02
					-6.31013000E-03	 5.23831000E-03	 1.07616000E-02
					-6.56194000E-03	 8.07495000E-03	 1.09607000E-02
					-6.81374000E-03	 1.09116000E-02	 1.24424000E-02
					-6.31013000E-03	 5.23831000E-03	 1.54439000E-02
					-6.31013000E-03	 5.23831000E-03	 1.80646000E-02
					-6.31013000E-03	 5.23831000E-03	 2.06852000E-02
					-6.31013000E-03	 5.23831000E-03	 2.33058000E-02
					-6.31013000E-03	 5.23831000E-03	 2.59265000E-02
					-7.06555000E-03	 1.37483000E-02	 1.54925000E-02
					-7.06555000E-03	 1.37483000E-02	 1.81132000E-02
					-7.06555000E-03	 1.37483000E-02	 2.07338000E-02
					-7.06555000E-03	 1.37483000E-02	 2.33544000E-02
					-7.06555000E-03	 1.37483000E-02	 2.59751000E-02
					-6.81374000E-03	 1.09116000E-02	 1.44751000E-02
					-6.81374000E-03	 1.09116000E-02	 1.70957000E-02
					-6.81374000E-03	 1.09116000E-02	 1.97164000E-02
					-6.81374000E-03	 1.09116000E-02	 2.23370000E-02
					-6.81374000E-03	 1.09116000E-02	 2.49577000E-02
					-6.09256000E-03	 2.78730000E-03	 1.48915000E-02
					-6.09256000E-03	 2.78730000E-03	 1.75121000E-02
					-6.09256000E-03	 2.78730000E-03	 2.01327000E-02
					-6.09256000E-03	 2.78730000E-03	 2.27534000E-02