<?xml version="1.0"?>
<VTKFile type="UnstructuredGrid" version="0.1" byte_order="LittleEndian">
	<UnstructuredGrid>
		<Piece NumberOfPoints="1720" NumberOfCells="832">
			<Points>
				<DataArray type="Float64" NumberOfComponents="3" format="ascii">
					-1.27552000E-02	 3.65262000E-01	 1.66670000E-01
					 1.51975000E-02	 9.95069000E-01	 1.66670000E-01
					 9.56709000E-02	 2.30970000E-01	 0.00000000E+00
					-1.03673000E-01	 2.27490000E-01	 1.66670000E-01
					-1.74497000E-02	 4.99695000E-01	 1.66670000E-01
					 1.43506000E-01	 3.46455000E-01	 0.00000000E+00
					-8.72514000E-03	 2.49855000E-01	 1.66670000E-01
					-1.55510000E-01	 3.41235000E-01	 1.66670000E-01
					 1.91342000E-01	 4.61940000E-01	 0.00000000E+00
					 8.75518000E-02	 2.34168000E-01	 1.66670000E-01
					 1.53086000E-17	 2.50008000E-01	 0.00000000E+00
					-9.56709000E-02	 2.30970000E-01	 0.00000000E+00
					 1.10401000E-01	 5.88124000E-01	 0.00000000E+00
					-5.87745000E-17	 3.65485000E-01	 0.00000000E+00
					-1.43506000E-01	 3.46455000E-01	 0.00000000E+00
					 1.12583000E-01	 6.88100000E-01	 0.00000000E+00
					-8.04061000E-17	 5.00000000E-01	 0.00000000E+00
					 8.81865000E-02	 8.00147000E-01	-3.79961000E-04
					 3.91018000E-02	 8.94866000E-01	 0.00000000E+00
					 1.75104000E-01	 4.68336000E-01	 1.66670000E-01
					 3.25615000E-02	 9.94652000E-01	 0.00000000E+00
					-9.64874000E-17	 6.00000000E-01	 0.00000000E+00
					-1.12583000E-01	 6.88100000E-01	 0.00000000E+00
					-1.12569000E-16	 7.00000000E-01	 0.00000000E+00
					 4.89859000E-17	 8.00000000E-01	 0.00000000E+00
					 5.51091000E-17	 9.00000000E-01	 0.00000000E+00
					 6.12323000E-17	 1.00000000E+00	 0.00000000E+00
					-2.09397000E-02	 5.99634000E-01	 1.66670000E-01
					-2.44296000E-02	 6.99574000E-01	 1.66670000E-01
					-2.07347000E-01	 4.54981000E-01	 1.66670000E-01
					-2.79196000E-02	 7.99513000E-01	 1.66670000E-01
					-3.14095000E-02	 8.99452000E-01	 1.66670000E-01
					-3.17591000E-02	 7.95756000E-01	 0.00000000E+00
					-3.48995000E-02	 9.99391000E-01	 1.66670000E-01
					-1.30859000E-01	 5.83913000E-01	 1.66670000E-01
					 1.31328000E-01	 3.51252000E-01	 1.66670000E-01
					-1.36529000E-01	 6.83752000E-01	 1.66670000E-01
					-1.10401000E-01	 5.88124000E-01	 0.00000000E+00
					-1.00993000E-01	 7.89959000E-01	 1.66670000E-01
					-1.01429000E-01	 8.89959000E-01	 1.66670000E-01
					-2.34783000E-02	 8.95412000E-01	 0.00000000E+00
					-1.01866000E-01	 9.89958000E-01	 1.66670000E-01
					 8.98088000E-02	 5.91619000E-01	 1.66670000E-01
					-1.51975000E-02	 9.95069000E-01	 0.00000000E+00
					-1.91342000E-01	 4.61940000E-01	 0.00000000E+00
					 8.84998000E-02	 6.91610000E-01	 1.66670000E-01
					 3.17591000E-02	 7.95756000E-01	 1.66670000E-01
					 2.34783000E-02	 8.95412000E-01	 1.66670000E-01
					 6.43091000E-02	 6.94278000E-01	 3.33337000E-01
					 4.00400000E-02	 6.96099000E-01	 5.00003000E-01
					 1.57221000E-02	 6.97072000E-01	 6.66670000E-01
					 6.91069000E-02	 5.94393000E-01	 3.33337000E-01
					 4.83208000E-02	 5.96442000E-01	 5.00003000E-01
					 2.74758000E-02	 5.97766000E-01	 6.66670000E-01
					-1.70673000E-01	 9.80440000E-01	 3.33337000E-01
					-2.21752000E-01	 9.70164000E-01	 5.00003000E-01
					-2.12967000E-01	 9.70344000E-01	 6.40408000E-01
					-1.63263000E-01	 8.80715000E-01	 3.33337000E-01
					-2.09132000E-01	 8.70964000E-01	 5.00003000E-01
					-2.28435000E-01	 8.70398000E-01	 6.68452000E-01
					-1.55852000E-01	 7.80990000E-01	 3.33337000E-01
					-1.96512000E-01	 7.71763000E-01	 5.00003000E-01
					-2.23326000E-01	 7.64435000E-01	 6.66670000E-01
					-1.60308000E-01	 6.78571000E-01	 3.33337000E-01
					-1.83892000E-01	 6.72563000E-01	 5.00003000E-01
					-2.07252000E-01	 6.65735000E-01	 6.66670000E-01
					 1.18989000E-01	 3.55621000E-01	 3.33337000E-01
					 1.06506000E-01	 3.59557000E-01	 5.00003000E-01
					 9.38925000E-02	 3.63055000E-01	 6.66670000E-01
					-1.51158000E-01	 5.78990000E-01	 3.33337000E-01
					-1.71272000E-01	 5.73362000E-01	 5.00003000E-01
					-1.91178000E-01	 5.67036000E-01	 6.66670000E-01
					-6.97565000E-02	 9.97564000E-01	 3.33337000E-01
					-1.04528000E-01	 9.94522000E-01	 5.00003000E-01
					-1.39173000E-01	 9.90268000E-01	 6.66670000E-01
					-6.27808000E-02	 8.97808000E-01	 3.33337000E-01
					-9.40756000E-02	 8.95070000E-01	 5.00003000E-01
					-1.25256000E-01	 8.91241000E-01	 6.66670000E-01
					-5.58052000E-02	 7.98051000E-01	 3.33337000E-01
					-8.36228000E-02	 7.95618000E-01	 5.00003000E-01
					-1.11338000E-01	 7.92214000E-01	 6.66670000E-01
					-2.23099000E-01	 4.47467000E-01	 3.33337000E-01
					-2.38579000E-01	 4.39409000E-01	 5.00003000E-01
					-2.53769000E-01	 4.30815000E-01	 6.66670000E-01
					-4.88295000E-02	 6.98295000E-01	 3.33337000E-01
					-7.31699000E-02	 6.96165000E-01	 5.00003000E-01
					-9.74212000E-02	 6.93188000E-01	 6.66670000E-01
					-4.18539000E-02	 5.98538000E-01	 3.33337000E-01
					-6.27171000E-02	 5.96713000E-01	 5.00003000E-01
					-8.35039000E-02	 5.94161000E-01	 6.66670000E-01
					 1.58652000E-01	 4.74162000E-01	 3.33337000E-01
					 1.42008000E-01	 4.79410000E-01	 5.00003000E-01
					 1.25190000E-01	 4.84074000E-01	 6.66670000E-01
					 7.93262000E-02	 2.37081000E-01	 3.33337000E-01
					 7.10038000E-02	 2.39705000E-01	 5.00003000E-01
					 6.25950000E-02	 2.42037000E-01	 6.66670000E-01
					-1.67324000E-01	 3.35600000E-01	 3.33337000E-01
					-1.78935000E-01	 3.29556000E-01	 5.00003000E-01
					-1.90327000E-01	 3.23111000E-01	 6.66670000E-01
					-1.74397000E-02	 2.49399000E-01	 3.33337000E-01
					-2.61329000E-02	 2.48638000E-01	 5.00003000E-01
					-3.47943000E-02	 2.47575000E-01	 6.66670000E-01
					-3.48782000E-02	 4.98782000E-01	 3.33337000E-01
					-5.22642000E-02	 4.97261000E-01	 5.00003000E-01
					-6.95866000E-02	 4.95134000E-01	 6.66670000E-01
					-1.11549000E-01	 2.23734000E-01	 3.33337000E-01
					-1.19290000E-01	 2.19704000E-01	 5.00003000E-01
					-1.26885000E-01	 2.15407000E-01	 6.66670000E-01
					-2.54949000E-02	 3.64595000E-01	 3.33337000E-01
					-3.82036000E-02	 3.63483000E-01	 5.00003000E-01
					-5.08657000E-02	 3.61928000E-01	 6.66670000E-01
					-1.95392000E-02	 9.94993000E-01	 3.33337000E-01
					-1.95392000E-02	 9.94993000E-01	 5.00003000E-01
					-6.53167000E-02	 9.91143000E-01	 6.44012000E-01
					-7.78541000E-03	 8.95686000E-01	 3.33337000E-01
					-7.78541000E-03	 8.95686000E-01	 5.00003000E-01
					-3.99021000E-02	 8.87826000E-01	 6.53001000E-01
					 3.96833000E-03	 7.96379000E-01	 3.33337000E-01
					 3.96833000E-03	 7.96379000E-01	 5.00003000E-01
					 3.96833000E-03	 7.96379000E-01	 6.66670000E-01
					 1.88491000E-01	 6.92919000E-01	 1.66670000E-01
					-2.42037000E-01	 7.77922000E-01	 1.66670000E-01
					-2.36368000E-01	 6.78083000E-01	 1.66670000E-01
					-2.14740000E-01	 7.85895000E-01	 0.00000000E+00
					 1.03275000E-01	 8.08133000E-01	 6.66670000E-01
					 1.31416000E-01	 8.04036000E-01	 5.00003000E-01
					 1.59396000E-01	 7.98960000E-01	 3.33337000E-01
					 2.12559000E-01	 6.85919000E-01	 0.00000000E+00
					-2.12559000E-01	 6.85919000E-01	 0.00000000E+00
					-2.59888000E-01	 6.69421000E-01	 3.33337000E-01
					-3.05952000E-01	 6.49661000E-01	 6.66670000E-01
					-2.83093000E-01	 6.59943000E-01	 5.00003000E-01
					 2.14740000E-01	 7.85895000E-01	 0.00000000E+00
					-3.22026000E-01	 7.48361000E-01	 6.66670000E-01
					-2.95713000E-01	 7.59143000E-01	 5.00003000E-01
					-2.69039000E-01	 7.69001000E-01	 3.33337000E-01
					 1.15029000E-01	 7.08826000E-01	 6.66670000E-01
					 1.39697000E-01	 7.04380000E-01	 5.00003000E-01
					 1.64194000E-01	 6.99075000E-01	 3.33337000E-01
					 1.87182000E-01	 7.92911000E-01	 1.66670000E-01
					-1.95392000E-02	 1.19499000E+00	 5.00003000E-01
					-1.95392000E-02	 1.39499000E+00	 5.00003000E-01
					-1.95392000E-02	 1.59499000E+00	 5.00003000E-01
					-1.95392000E-02	 1.79499000E+00	 5.00003000E-01
					-1.95392000E-02	 1.99499000E+00	 5.00003000E-01
					-1.51975000E-02	 1.19507000E+00	 0.00000000E+00
					-1.51975000E-02	 1.39507000E+00	 0.00000000E+00
					-1.51975000E-02	 1.59507000E+00	 0.00000000E+00
					-1.51975000E-02	 1.79507000E+00	 0.00000000E+00
					-1.51975000E-02	 1.99507000E+00	 0.00000000E+00
					-1.01866000E-01	 1.18996000E+00	 1.66670000E-01
					-1.01866000E-01	 1.38996000E+00	 1.66670000E-01
					-1.01866000E-01	 1.58996000E+00	 1.66670000E-01
					-1.01866000E-01	 1.78996000E+00	 1.66670000E-01
					-1.01866000E-01	 1.98996000E+00	 1.66670000E-01
					-6.53167000E-02	 1.19114000E+00	 6.44012000E-01
					-6.53167000E-02	 1.39114000E+00	 6.44012000E-01
					-6.53167000E-02	 1.59114000E+00	 6.44012000E-01
					-6.53167000E-02	 1.79114000E+00	 6.44012000E-01
					-6.53167000E-02	 1.99114000E+00	 6.44012000E-01
					-2.21752000E-01	 1.17016000E+00	 5.00003000E-01
					-2.21752000E-01	 1.37016000E+00	 5.00003000E-01
					-2.21752000E-01	 1.57016000E+00	 5.00003000E-01
					-2.21752000E-01	 1.77016000E+00	 5.00003000E-01
					-2.21752000E-01	 1.97016000E+00	 5.00003000E-01
					-2.12967000E-01	 1.17034000E+00	 6.40408000E-01
					-2.12967000E-01	 1.37034000E+00	 6.40408000E-01
					-2.12967000E-01	 1.57034000E+00	 6.40408000E-01
					-2.12967000E-01	 1.77034000E+00	 6.40408000E-01
					-2.12967000E-01	 1.97034000E+00	 6.40408000E-01
					-3.48995000E-02	 1.19939000E+00	 1.66670000E-01
					-3.48995000E-02	 1.39939000E+00	 1.66670000E-01
					-3.48995000E-02	 1.59939000E+00	 1.66670000E-01
					-3.48995000E-02	 1.79939000E+00	 1.66670000E-01
					-3.48995000E-02	 1.99939000E+00	 1.66670000E-01
					-1.70673000E-01	 1.18044000E+00	 3.33337000E-01
					-1.70673000E-01	 1.38044000E+00	 3.33337000E-01
					-1.70673000E-01	 1.58044000E+00	 3.33337000E-01
					-1.70673000E-01	 1.78044000E+00	 3.33337000E-01
					-1.70673000E-01	 1.98044000E+00	 3.33337000E-01
					-1.39173000E-01	 1.19027000E+00	 6.66670000E-01
					-1.39173000E-01	 1.39027000E+00	 6.66670000E-01
					-1.39173000E-01	 1.59027000E+00	 6.66670000E-01
[...]
			<PointData>
				<DataArray type="Float32" Name="U" NumberOfComponents="3" ComponentName0="D1" ComponentName1="D2" ComponentName2="D3" format="ascii">
					-4.33986000E-04	 1.29494000E-04	-2.14805000E-05
					 7.25555000E-05	 4.71005000E-05	-1.28175000E-04
					-8.50657000E-04	-8.48124000E-04	 1.29246000E-04
					-4.00478000E-04	 5.20543000E-04	 2.67553000E-05
					-2.77699000E-04	 1.04414000E-04	-4.20375000E-05
					-9.20601000E-04	-1.04601000E-03	-3.38592000E-04
					-5.94189000E-04	 1.16659000E-04	-9.28436000E-06
					-4.95564000E-04	 6.33070000E-04	 3.62449000E-04
					-9.58477000E-04	-1.10092000E-03	-8.30037000E-04
					-5.14463000E-04	-3.51614000E-04	-3.21620000E-05
					-1.02485000E-03	 2.40525000E-05	-2.04598000E-05
					-8.38273000E-04	 8.82325000E-04	-1.41902000E-04
					-4.68503000E-04	-3.88890000E-04	-3.61648000E-04
					-8.56093000E-04	 1.58258000E-05	-4.74376000E-05
					-9.98690000E-04	 1.05402000E-03	 3.02990000E-04
					-2.36258000E-04	-2.03303000E-04	-2.00263000E-04
					-7.03196000E-04	-4.52257000E-06	-8.80108000E-05
					-7.29556000E-05	-1.19087000E-04	-1.82131000E-04
					 3.56012000E-05	-3.12718000E-05	-1.23509000E-04
					-3.54321000E-04	-5.37725000E-04	-7.47465000E-04
					 8.99017000E-05	-1.75614000E-05	-1.33260000E-04
					-3.98821000E-04	-3.74832000E-06	-8.98625000E-05
					-2.32721000E-04	 2.09762000E-04	 9.87843000E-06
					-2.00149000E-04	 9.63030000E-06	-9.69479000E-05
					-7.10741000E-05	 1.13329000E-05	-1.07937000E-04
					 4.20546000E-05	 4.90439000E-06	-1.19197000E-04
					 9.04178000E-05	-8.70331000E-06	-1.38347000E-04
					-1.28086000E-04	 8.96418000E-05	-4.95491000E-05
					-4.92601000E-05	 8.55807000E-05	-7.07179000E-05
					-5.66055000E-04	 6.83112000E-04	 7.57178000E-04
					 1.56532000E-05	 7.62600000E-05	-8.75158000E-05
					 5.52626000E-05	 6.67780000E-05	-1.04769000E-04
					-7.57837000E-05	 6.06371000E-05	-8.41955000E-05
					 7.20078000E-05	 5.59502000E-05	-1.32552000E-04
					-1.89260000E-04	 3.49073000E-04	 2.73903000E-04
					-4.58231000E-04	-4.76040000E-04	-3.71831000E-04
					-8.83465000E-05	 2.21054000E-04	 4.99746000E-05
					-4.79885000E-04	 3.78049000E-04	 1.80536000E-04
					-9.25577000E-07	 1.47010000E-04	-2.25127000E-05
					 4.46732000E-05	 9.49607000E-05	-9.50012000E-05
					 3.68529000E-05	 2.59616000E-05	-1.17764000E-04
					 6.80436000E-05	 6.98088000E-05	-1.31744000E-04
					-1.35522000E-04	-1.74607000E-04	-3.70451000E-04
					 8.84404000E-05	-2.70942000E-06	-1.38721000E-04
					-1.16450000E-03	 1.08644000E-03	 7.83723000E-04
					-6.66660000E-05	-7.21637000E-05	-1.89014000E-04
					 1.97097000E-05	 2.10515000E-05	-1.42430000E-04
					 5.34220000E-05	 4.30588000E-05	-1.11596000E-04
					 2.93026000E-05	 1.19915000E-04	-1.58697000E-04
					 1.05804000E-04	 2.75643000E-04	-1.36995000E-04
					 2.30571000E-04	 3.42481000E-04	-9.93867000E-05
					 2.85305000E-05	 1.36643000E-04	-3.19721000E-04
					 1.58954000E-04	 4.17113000E-04	-3.08895000E-04
					 4.17960000E-04	 5.39834000E-04	-2.22526000E-04
					 5.39206000E-05	 1.24340000E-04	-1.13425000E-04
					 6.11070000E-05	 1.61243000E-04	-9.64353000E-05
					 7.62573000E-05	 2.04562000E-04	-1.01067000E-04
					 4.26875000E-05	 1.30944000E-04	-6.31074000E-05
					 7.06618000E-05	 1.38075000E-04	-3.40142000E-05
					 1.23580000E-04	 1.66820000E-04	-3.71262000E-05
					 2.83023000E-05	 1.43860000E-04	 2.35211000E-05
					 8.90392000E-05	 1.01899000E-04	 4.61916000E-05
					 1.98765000E-04	 1.05599000E-04	 4.85258000E-05
					 1.34000000E-05	 1.47742000E-04	 7.47085000E-05
					 1.26542000E-04	 6.09012000E-05	 9.93921000E-05
					 2.90867000E-04	 4.71549000E-05	 9.50739000E-05
					-2.19435000E-05	 1.24833000E-04	-3.64126000E-04
					 3.96013000E-04	 7.29393000E-04	-3.41799000E-04
					 8.31276000E-04	 1.23925000E-03	-2.88684000E-04
					-1.78504000E-05	 1.53769000E-04	 2.84098000E-04
					 1.76613000E-04	-6.51578000E-05	 3.26853000E-04
					 5.15207000E-04	-1.72008000E-04	 2.95952000E-04
					 5.64311000E-05	 1.19226000E-04	-1.25487000E-04
					 5.56993000E-05	 1.75666000E-04	-1.19901000E-04
					 6.85466000E-05	 2.35196000E-04	-1.18835000E-04
					 4.82488000E-05	 1.27095000E-04	-9.07781000E-05
					 5.81384000E-05	 1.72737000E-04	-8.14506000E-05
					 9.98706000E-05	 2.20847000E-04	-7.54330000E-05
					 4.17359000E-05	 1.36061000E-04	-6.83104000E-05
					 7.53988000E-05	 1.71892000E-04	-4.97667000E-05
					 1.58414000E-04	 2.08045000E-04	-3.74795000E-05
					-1.19241000E-04	 1.26703000E-04	 7.41856000E-04
					 3.57784000E-04	-4.20152000E-04	 7.60823000E-04
					 1.01213000E-03	-8.74721000E-04	 8.01002000E-04
					 2.31556000E-05	 1.46683000E-04	-4.38124000E-05
					 9.07607000E-05	 1.71817000E-04	-2.09941000E-05
					 2.27171000E-04	 1.88131000E-04	-5.93847000E-06
					 5.09514000E-06	 1.50890000E-04	-1.96355000E-05
					 1.33733000E-04	 1.67185000E-04	 3.67036000E-06
					 3.90622000E-04	 1.73705000E-04	 2.92391000E-05
					 9.39981000E-05	 1.23695000E-04	-6.98862000E-04
					 5.18103000E-04	 7.97048000E-04	-7.08311000E-04
					 1.05644000E-03	 1.30478000E-03	-7.66546000E-04
					-1.15556000E-04	 1.25290000E-04	-5.81531000E-05
					 2.82227000E-04	 6.02260000E-04	-1.36841000E-05
					 6.51401000E-04	 1.04168000E-03	 1.57314000E-04
					-5.69382000E-06	 1.38536000E-04	 3.80699000E-04
					 5.08159000E-04	-3.53251000E-04	 3.74909000E-04
					 1.04091000E-03	-8.32164000E-04	 3.29865000E-04
					-1.83560000E-05	 1.89696000E-04	 1.28775000E-05
					 5.58407000E-04	 2.55254000E-04	 3.37991000E-05
					 9.90954000E-04	 2.61949000E-04	 5.10926000E-05
					-5.04495000E-06	 1.72528000E-04	-2.61914000E-06
					 2.64586000E-04	 1.99682000E-04	 2.87174000E-05
					 6.77277000E-04	 2.05747000E-04	 5.45861000E-05
					 8.83825000E-05	 1.48090000E-04	 6.90635000E-05
					 5.80071000E-04	-2.24989000E-04	 3.93016000E-05
					 9.89958000E-04	-6.47249000E-04	-1.20862000E-04
					-1.61058000E-05	 2.04963000E-04	 9.31883000E-06
					 4.02161000E-04	 2.53023000E-04	 3.67465000E-05
					 8.22016000E-04	 2.43101000E-04	 5.32606000E-05
					 5.72815000E-05	 1.15128000E-04	-1.24265000E-04
					 5.56821000E-05	 1.80724000E-04	-1.25097000E-04
					 6.44862000E-05	 2.37076000E-04	-1.23405000E-04
					 4.98185000E-05	 1.22437000E-04	-9.48776000E-05
					 6.08779000E-05	 1.92120000E-04	-1.02900000E-04
					 9.72830000E-05	 2.48255000E-04	-9.65815000E-05
					 4.74555000E-05	 1.28391000E-04	-1.23490000E-04
					 7.69239000E-05	 2.19223000E-04	-1.19272000E-04
					 1.55565000E-04	 2.95588000E-04	-1.12006000E-04
					-9.25243000E-05	-1.56166000E-04	-1.98088000E-04
					-2.30609000E-05	 2.87435000E-04	 1.31204000E-04
					-1.00422000E-04	 2.66261000E-04	 5.76244000E-05
					-1.08406000E-04	 3.48717000E-04	 1.10383000E-04
					 1.59813000E-04	 3.90100000E-04	-2.13176000E-04
					 8.43970000E-05	 2.84808000E-04	-2.45297000E-04
					 6.23685000E-05	 7.96322000E-05	-2.86681000E-04
					-2.43218000E-04	-3.27919000E-04	-2.42881000E-04
					-2.39881000E-04	 3.33399000E-04	 6.34524000E-05
					 2.44006000E-05	 1.44227000E-04	 6.39030000E-05
					 2.88586000E-04	 2.75714000E-05	 1.46672000E-04
					 1.44605000E-04	 5.32537000E-05	 1.06925000E-04
					-9.55638000E-05	-3.48234000E-04	-3.25390000E-04
					 2.32022000E-04	-7.02747000E-06	 1.72841000E-04
					 9.82596000E-05	 3.22683000E-05	 1.52846000E-04
					 1.97380000E-05	 1.45796000E-04	 1.46851000E-04
					 2.19675000E-04	 3.86177000E-04	-1.57369000E-04
					 1.12121000E-04	 2.75218000E-04	-1.51504000E-04
					 2.28465000E-05	 7.88401000E-05	-1.53637000E-04
					 2.36379000E-05	-1.66663000E-04	-3.08618000E-04
					 6.58422000E-05	 1.77689000E-04	-2.07025000E-04
					 9.34415000E-05	 1.79518000E-04	-3.07280000E-04
					 1.30506000E-04	 1.81590000E-04	-4.13891000E-04
					 1.71411000E-04	 1.83102000E-04	-5.21584000E-04
					 2.12842000E-04	 1.83795000E-04	-6.27101000E-04
					 1.22894000E-04	-3.42104000E-05	-2.13866000E-04
					 1.52999000E-04	-5.61355000E-05	-3.09987000E-04
					 1.91295000E-04	-6.84860000E-05	-4.14741000E-04
					 2.33466000E-04	-7.34973000E-05	-5.21234000E-04
					 2.75756000E-04	-7.46324000E-05	-6.25990000E-04
					 9.76869000E-05	 4.76277000E-05	-2.15574000E-04
					 1.30718000E-04	 3.72875000E-05	-3.14131000E-04
					 1.69537000E-04	 3.21323000E-05	-4.20752000E-04
					 2.11475000E-04	 2.99352000E-05	-5.28728000E-04
					 2.53332000E-04	 2.93374000E-05	-6.33976000E-04
					 5.40841000E-05	 2.50117000E-04	-2.11012000E-04
					 7.64486000E-05	 2.59524000E-04	-3.12018000E-04
					 1.12083000E-04	 2.65378000E-04	-4.18370000E-04
					 1.52726000E-04	 2.67963000E-04	-5.25613000E-04
					 1.94025000E-04	 2.68660000E-04	-6.31206000E-04
					 6.70987000E-05	 1.90354000E-04	-2.07677000E-04
					 9.15942000E-05	 2.08614000E-04	-3.16047000E-04
					 1.26803000E-04	 2.18855000E-04	-4.24872000E-04
					 1.66751000E-04	 2.23663000E-04	-5.33393000E-04
					 2.07629000E-04	 2.25083000E-04	-6.39381000E-04
					 5.92550000E-05	 2.53571000E-04	-2.11808000E-04
					 7.66172000E-05	 2.77715000E-04	-3.17984000E-04
					 1.09960000E-04	 2.90543000E-04	-4.25535000E-04
					 1.49349000E-04	 2.95798000E-04	-5.33013000E-04
					 1.90204000E-04	 2.97039000E-04	-6.38815000E-04
					 1.00639000E-04	 3.82708000E-05	-2.12532000E-04
					 1.33278000E-04	 2.63223000E-05	-3.11397000E-04
					 1.71922000E-04	 1.94522000E-05	-4.17901000E-04
					 2.13619000E-04	 1.63930000E-05	-5.25496000E-04
					 2.55342000E-04	 1.55884000E-05	-6.30478000E-04
					 7.81589000E-05	 1.21578000E-04	-2.10919000E-04
					 1.10056000E-04	 1.23740000E-04	-3.15026000E-04
					 1.47955000E-04	 1.26372000E-04	-4.23321000E-04
					 1.89084000E-04	 1.27984000E-04	-5.32050000E-04
					 2.30383000E-04	 1.28568000E-04	-6.37747000E-04
					 5.43670000E-05	 2.64414000E-04	-2.17121000E-04
					 7.48977000E-05	 2.81795000E-04	-3.20539000E-04
					 1.09705000E-04	 2.90966000E-04	-4.27327000E-04
					 1.49911000E-04	 2.94795000E-04	-5.34485000E-04
					 1.91025000E-04	 2.95709000E-04	-6.40163000E-04
					 6.62191000E-05	 1.85076000E-04	-2.13405000E-04
					 9.37637000E-05	 1.92812000E-04	-3.16597000E-04
					 1.30660000E-04	 1.97832000E-04	-4.24047000E-04
					 1.71427000E-04	 2.00406000E-04	-5.31904000E-04
					 2.12679000E-04	 2.01290000E-04	-6.37505000E-04
					 8.06614000E-05	 1.10957000E-04	-2.12314000E-04
					 1.12988000E-04	 1.08460000E-04	-3.13420000E-04
					 1.51307000E-04	 1.07942000E-04	-4.20736000E-04
					 1.92599000E-04	 1.07969000E-04	-5.28800000E-04
					 2.33974000E-04	 1.08134000E-04	-6.34044000E-04
					 1.24302000E-04	-3.67678000E-05	-2.13694000E-04
					 1.54368000E-04	-5.90896000E-05	-3.10604000E-04
					 1.92555000E-04	-7.17604000E-05	-4.15514000E-04
					 2.34582000E-04	-7.67808000E-05	-5.21944000E-04
					 2.76799000E-04	-7.78670000E-05	-6.26628000E-04
					 8.08553000E-05	 1.04589000E-04	-2.06298000E-04
					 1.12775000E-04	 1.00173000E-04	-3.06303000E-04
					 1.50900000E-04	 9.82924000E-05	-4.13239000E-04
					 1.92097000E-04	 9.77607000E-05	-5.21199000E-04
					 2.33497000E-04	 9.78417000E-05	-6.26416000E-04
					 1.01067000E-04	 3.18664000E-05	-2.04315000E-04
					 1.33298000E-04	 1.84256000E-05	-3.03024000E-04
					 1.71452000E-04	 1.00203000E-05	-4.09445000E-04
					 2.12862000E-04	 6.24662000E-06	-5.16960000E-04
					 2.54479000E-04	 5.28608000E-06	-6.21891000E-04
					 1.24933000E-04	-4.03852000E-05	-2.06678000E-04
					 1.54461000E-04	-6.40478000E-05	-3.03833000E-04
					 1.91926000E-04	-7.80926000E-05	-4.08737000E-04
					 2.33580000E-04	-8.35863000E-05	-5.15074000E-04
					 2.75679000E-04	-8.47164000E-05	-6.19700000E-04
					-2.03151000E-04	 6.87623000E-04	 3.03689000E-04
					-3.43476000E-03	 1.26571000E-03	 8.83776000E-03
					-8.38273000E-04	 8.82325000E-04	-1.41902000E-04
					 5.69407000E-04	 3.94398000E-04	-5.67570000E-06
					-6.58850000E-04	 7.88652000E-04	 1.06464000E-03
					-9.98690000E-04	 1.05402000E-03	 3.02990000E-04
					 3.81338000E-05	 6.68758000E-04	 1.13308000E-05
					 6.52595000E-04	 3.20725000E-04	-1.40749000E-04
					-1.16450000E-03	 1.08644000E-03	 7.83723000E-04
					-4.00478000E-04	 5.20543000E-04	 2.67553000E-05
					-1.98145000E-04	 1.24532000E-03	-1.11521000E-04
					 8.72474000E-04	 8.06605000E-04	 7.14339000E-05
					-2.06157000E-03	 1.92096000E-03	 2.17225000E-03
					-6.22735000E-04	 1.45548000E-03	 3.35583000E-04
					 1.00670000E-03	 8.65269000E-04	-8.99011000E-05
					-3.19942000E-03	 2.23187000E-03	 3.24058000E-03
					-1.45279000E-03	 1.96303000E-03	 1.31730000E-03
					-3.71454000E-03	 2.33753000E-03	 4.74261000E-03
					-4.52507000E-03	 3.08786000E-03	 6.80335000E-03
					-5.66055000E-04	 6.83112000E-04	 7.57178000E-04
					-5.46334000E-03	 4.23525000E-03	 9.30807000E-03
					-2.10351000E-03	 2.11993000E-03	 2.14306000E-03
					-2.17212000E-03	 2.15935000E-03	 2.99727000E-03
					-2.81122000E-03	 2.22538000E-03	 3.34222000E-03
					-3.76006000E-03	 2.61966000E-03	 4.82860000E-03
					-4.60749000E-03	 3.38869000E-03	 6.85516000E-03
					-5.44763000E-03	 4.42399000E-03	 9.30596000E-03
					-1.06751000E-03	 7.71791000E-04	 1.84651000E-03
					-1.55417000E-03	 7.34370000E-04	 3.01559000E-03
					 7.11442000E-04	 2.37265000E-04	-3.23346000E-04
					-2.19727000E-03	 8.06532000E-04	 4.45271000E-03
					-2.77927000E-03	 1.01537000E-03	 6.37126000E-03
					-3.38133000E-03	 2.43750000E-03	 4.62122000E-03
					-3.39209000E-03	 1.34303000E-03	 8.74178000E-03
					-5.02335000E-04	 4.09247000E-04	 1.27467000E-03
					-4.95564000E-04	 6.33070000E-04	 3.62449000E-04
					-1.12363000E-03	 6.20734000E-04	 2.66813000E-03
					-1.25967000E-03	 1.59151000E-03	 1.73087000E-03
					-1.84864000E-03	 6.33069000E-04	 4.11578000E-03
					-2.57580000E-03	 1.07273000E-03	 5.98574000E-03
					-4.53315000E-03	 3.46400000E-03	 6.73265000E-03
					-3.22930000E-03	 1.39494000E-03	 8.18116000E-03
					-1.13971000E-03	 7.97700000E-04	 1.82493000E-03
					-5.38365000E-03	 4.45357000E-03	 9.10392000E-03
					 1.15002000E-03	 1.03654000E-03	-2.78316000E-04
					-1.84633000E-03	 8.74426000E-04	 3.08436000E-03
					-2.17553000E-03	 7.73575000E-04	 4.40782000E-03
					-2.85013000E-03	 9.50275000E-04	 6.40041000E-03
					-7.69947000E-04	-3.09221000E-04	 3.00447000E-03
					 3.39221000E-04	-1.49232000E-03	 3.04004000E-03
					 1.75011000E-03	-2.90204000E-03	 3.20635000E-03
					-3.46659000E-04	-1.17602000E-04	 1.71377000E-03
					 4.67724000E-04	-1.00547000E-03	 1.74813000E-03
					 1.48096000E-03	-2.08019000E-03	 2.00794000E-03
					-1.28245000E-03	-1.73288000E-03	 7.48529000E-03
					 7.35918000E-04	-5.05608000E-03	 7.07025000E-03
					 2.15646000E-03	-7.60784000E-03	 7.36322000E-03
					-8.64807000E-04	-1.42888000E-03	 5.47388000E-03
					 9.41125000E-04	-4.15809000E-03	 5.25588000E-03
					 2.58037000E-03	-6.78870000E-03	 5.52955000E-03
					-4.83983000E-04	-1.12469000E-03	 3.80576000E-03
					 1.00805000E-03	-3.14906000E-03	 3.73681000E-03
					 2.45923000E-03	-5.30586000E-03	 3.83567000E-03
					-1.04710000E-04	-7.76429000E-04	 2.45241000E-03
					 1.11175000E-03	-2.34916000E-03	 2.41673000E-03
					 2.39232000E-03	-4.15357000E-03	 2.60773000E-03
					-5.69382000E-06	 1.38536000E-04	 3.80699000E-04
					 5.08159000E-04	-3.53251000E-04	 3.74909000E-04
					 1.04091000E-03	-8.32164000E-04	 3.29865000E-04
					 7.04953000E-05	-4.20308000E-04	 1.13972000E-03
					 7.06141000E-04	-1.31591000E-03	 1.13836000E-03
					 1.44953000E-03	-2.47234000E-03	 1.58860000E-03
					-1.66711000E-03	-1.52248000E-03	 8.40250000E-03
					 1.03724000E-04	-4.52295000E-03	 8.25068000E-03
					 2.11730000E-03	-7.77477000E-03	 8.27469000E-03
					-1.25806000E-03	-1.21652000E-03	 6.14673000E-03
					 3.30163000E-04	-3.61809000E-03	 6.11021000E-03
					 2.17689000E-03	-6.24827000E-03	 6.25719000E-03
					-8.60636000E-04	-8.80535000E-04	 4.29104000E-03
					 5.60278000E-04	-2.73529000E-03	 4.33502000E-03
					 2.20810000E-03	-4.82603000E-03	 4.55834000E-03
					 3.69639000E-04	-1.01460000E-04	-3.50281000E-04
					 1.91125000E-05	-4.55735000E-04	-3.67655000E-04
					-5.82066000E-04	-1.19384000E-03	-3.66242000E-04
					-4.73655000E-04	-5.53325000E-04	 2.84075000E-03
					 6.84480000E-04	-1.91081000E-03	 2.88616000E-03
					 2.01768000E-03	-3.50083000E-03	 3.12534000E-03
					-1.54545000E-04	-2.73371000E-04	 1.69079000E-03
					 8.20012000E-04	-1.32062000E-03	 1.74011000E-03
					 1.95247000E-03	-2.58560000E-03	 1.97273000E-03
					-1.19241000E-04	 1.26703000E-04	 7.41856000E-04
					 3.57784000E-04	-4.20152000E-04	 7.60823000E-04
					 1.01213000E-03	-8.74721000E-04	 8.01002000E-04
					 8.83825000E-05	 1.48090000E-04	 6.90635000E-05
					 5.80071000E-04	-2.24989000E-04	 3.93016000E-05
					 9.89958000E-04	-6.47249000E-04	-1.20862000E-04
					 2.69063000E-04	-1.10898000E-04	-1.74265000E-04
					-1.32017000E-04	-5.50921000E-04	-1.88402000E-04
					-6.33825000E-04	-1.04002000E-03	-1.77815000E-04
					 1.88713000E-04	 1.86816000E-05	 2.39840000E-05
					 3.40401000E-04	-6.24609000E-04	-2.19461000E-05
					 5.06038000E-04	-1.19032000E-03	-1.65486000E-04
					 2.75671000E-05	-1.21688000E-04	 9.42971000E-04
					 7.55482000E-04	-1.00112000E-03	 9.74455000E-04
					 1.57740000E-03	-2.07615000E-03	 1.17496000E-03
					 1.84998000E-04	-1.20917000E-04	-3.95174000E-05
					-2.02801000E-04	-6.37309000E-04	-4.18967000E-05
					-5.95530000E-04	-9.94111000E-04	 1.36109000E-05
					 1.61354000E-04	-2.40192000E-05	 2.81734000E-04
					 5.38854000E-04	-7.04577000E-04	 2.52674000E-04
					 9.09339000E-04	-1.40103000E-03	 2.53688000E-04
					-1.80951000E-03	-1.38991000E-03	 8.55946000E-03
					-2.82790000E-04	-4.00200000E-03	 8.63675000E-03
					 1.51170000E-03	-6.73937000E-03	 8.60344000E-03
					-1.42658000E-03	-1.06581000E-03	 6.24668000E-03
					-8.83990000E-05	-3.07539000E-03	 6.31988000E-03
					 1.48105000E-03	-5.13757000E-03	 6.33178000E-03
					-9.89364000E-04	-7.23773000E-04	 4.25614000E-03
					 1.34171000E-04	-2.20612000E-03	 4.36824000E-03
					 1.52651000E-03	-3.73929000E-03	 4.55196000E-03
					-2.12381000E-03	 1.03661000E-03	 3.31835000E-03
					-1.11130000E-03	-1.36128000E-04	 3.49230000E-03
					-7.85417000E-04	 4.01984000E-04	 2.58384000E-03
					-2.10205000E-03	 1.29228000E-03	 3.63135000E-03
					 7.93994000E-04	-3.05570000E-03	 4.42240000E-03
					-4.81839000E-04	-1.62781000E-03	 4.28945000E-03
					-1.28488000E-03	-3.47391000E-04	 4.21035000E-03
					-3.51428000E-03	 2.35852000E-03	 3.14150000E-03
					-1.66738000E-03	 1.93216000E-03	 2.70423000E-03
					 3.17084000E-04	-1.13533000E-03	 2.32751000E-03
					 3.41747000E-03	-4.99487000E-03	 1.87454000E-03
					 1.85113000E-03	-2.95025000E-03	 2.11265000E-03
					-3.45150000E-03	 2.23906000E-03	 4.30197000E-03
					 2.74542000E-03	-5.56551000E-03	 3.17938000E-03
					 1.33374000E-03	-3.42137000E-03	 3.36947000E-03
					-1.40778000E-05	-1.54087000E-03	 3.40415000E-03
					 1.32009000E-03	-2.53535000E-03	 3.36062000E-03
					-6.46551000E-05	-1.19618000E-03	 3.38544000E-03
					-1.08888000E-03	-1.01275000E-04	 3.40641000E-03
					-2.15247000E-03	 9.04082000E-04	 4.29738000E-03
					-7.91464000E-04	-5.63181000E-03	 1.42654000E-02
					-1.36391000E-03	-6.99451000E-03	 2.06580000E-02
					-1.97061000E-03	-8.10103000E-03	 2.74383000E-02
					-2.59662000E-03	-8.98956000E-03	 3.42724000E-02
					-3.24465000E-03	-9.72227000E-03	 4.09115000E-02
					-6.81053000E-03	 6.00856000E-03	 1.46780000E-02
					-7.82307000E-03	 6.91105000E-03	 2.09476000E-02
					-8.50775000E-03	 7.28927000E-03	 2.76245000E-02
					-8.97621000E-03	 7.24245000E-03	 3.43834000E-02
					-9.34828000E-03	 6.95980000E-03	 4.10176000E-02
					-4.33896000E-03	 1.83114000E-03	 1.35100000E-02
					-5.27568000E-03	 1.98485000E-03	 1.96613000E-02
					-6.00116000E-03	 1.88161000E-03	 2.62557000E-02
					-6.57671000E-03	 1.56540000E-03	 3.29626000E-02
					-7.06590000E-03	 1.13297000E-03	 3.95325000E-02
					 1.24989000E-03	-9.31979000E-03	 1.39938000E-02
					 7.79516000E-04	-1.12933000E-02	 2.01823000E-02
					 1.71025000E-04	-1.27722000E-02	 2.68116000E-02
					-5.21391000E-04	-1.38394000E-02	 3.35397000E-02