<?xml version="1.0"?>
<VTKFile type="UnstructuredGrid" version="0.1" byte_order="LittleEndian">
	<UnstructuredGrid>
		<Piece NumberOfPoints="1720" NumberOfCells="832">
			<Points>
				<DataArray type="Float64" NumberOfComponents="3" format="ascii">
					-1.27552000E-02	 3.65262000E-01	 1.66670000E-01
					 1.51975000E-02	 9.95069000E-01	 1.66670000E-01
					 9.56709000E-02	 2.30970000E-01	 0.00000000E+00
					-1.03673000E-01	 2.27490000E-01	 1.66670000E-01
					-1.74497000E-02	 4.99695000E-01	 1.66670000E-01
					 1.43506000E-01	 3.46455000E-01	 0.00000000E+00
					-8.72514000E-03	 2.49855000E-01	 1.66670000E-01
					-1.55510000E-01	 3.41235000E-01	 1.66670000E-01
					 1.91342000E-01	 4.61940000E-01	 0.00000000E+00
					 8.75518000E-02	 2.34168000E-01	 1.66670000E-01
					 1.53086000E-17	 2.50008000E-01	 0.00000000E+00
					-9.56709000E-02	 2.30970000E-01	 0.00000000E+00
					 1.10401000E-01	 5.88124000E-01	 0.00000000E+00
					-5.87745000E-17	 3.65485000E-01	 0.00000000E+00
					-1.43506000E-01	 3.46455000E-01	 0.00000000E+00
					 1.12583000E-01	 6.88100000E-01	 0.00000000E+00
					-8.04061000E-17	 5.00000000E-01	 0.00000000E+00
					 8.81865000E-02	 8.00147000E-01	-3.79961000E-04
					 3.91018000E-02	 8.94866000E-01	 0.00000000E+00
					 1.75104000E-01	 4.68336000E-01	 1.66670000E-01
					 3.25615000E-02	 9.94652000E-01	 0.00000000E+00
					-9.64874000E-17	 6.00000000E-01	 0.00000000E+00
					-1.12583000E-01	 6.88100000E-01	 0.00000000E+00
					-1.12569000E-16	 7.00000000E-01	 0.00000000E+00
					 4.89859000E-17	 8.00000000E-01	 0.00000000E+00
					 5.51091000E-17	 9.00000000E-01	 0.00000000E+00
					 6.12323000E-17	 1.00000000E+00	 0.00000000E+00
					-2.09397000E-02	 5.99634000E-01	 1.66670000E-01
					-2.44296000E-02	 6.99574000E-01	 1.66670000E-01
					-2.07347000E-01	 4.54981000E-01	 1.66670000E-01
					-2.79196000E-02	 7.99513000E-01	 1.66670000E-01
					-3.14095000E-02	 8.99452000E-01	 1.66670000E-01
					-3.17591000E-02	 7.95756000E-01	 0.00000000E+00
					-3.48995000E-02	 9.99391000E-01	 1.66670000E-01
					-1.30859000E-01	 5.83913000E-01	 1.66670000E-01
					 1.31328000E-01	 3.51252000E-01	 1.66670000E-01
					-1.36529000E-01	 6.83752000E-01	 1.66670000E-01
					-1.10401000E-01	 5.88124000E-01	 0.00000000E+00
					-1.00993000E-01	 7.89959000E-01	 1.66670000E-01
					-1.01429000E-01	 8.89959000E-01	 1.66670000E-01
					-2.34783000E-02	 8.95412000E-01	 0.00000000E+00
					-1.01866000E-01	 9.89958000E-01	 1.66670000E-01
					 8.98088000E-02	 5.91619000E-01	 1.66670000E-01
					-1.51975000E-02	 9.95069000E-01	 0.00000000E+00
					-1.91342000E-01	 4.61940000E-01	 0.00000000E+00
					 8.84998000E-02	 6.91610000E-01	 1.66670000E-01
					 3.17591000E-02	 7.95756000E-01	 1.66670000E-01
					 2.34783000E-02	 8.95412000E-01	 1.66670000E-01
					 6.43091000E-02	 6.94278000E-01	 3.33337000E-01
					 4.00400000E-02	 6.96099000E-01	 5.00003000E-01
					 1.57221000E-02	 6.97072000E-01	 6.66670000E-01
					 6.91069000E-02	 5.94393000E-01	 3.33337000E-01
					 4.83208000E-02	 5.96442000E-01	 5.00003000E-01
					 2.74758000E-02	 5.97766000E-01	 6.66670000E-01
					-1.70673000E-01	 9.80440000E-01	 3.33337000E-01
					-2.21752000E-01	 9.70164000E-01	 5.00003000E-01
					-2.12967000E-01	 9.70344000E-01	 6.40408000E-01
					-1.63263000E-01	 8.80715000E-01	 3.33337000E-01
					-2.09132000E-01	 8.70964000E-01	 5.00003000E-01
					-2.28435000E-01	 8.70398000E-01	 6.68452000E-01
					-1.55852000E-01	 7.80990000E-01	 3.33337000E-01
					-1.96512000E-01	 7.71763000E-01	 5.00003000E-01
					-2.23326000E-01	 7.64435000E-01	 6.66670000E-01
					-1.60308000E-01	 6.78571000E-01	 3.33337000E-01
					-1.83892000E-01	 6.72563000E-01	 5.00003000E-01
					-2.07252000E-01	 6.65735000E-01	 6.66670000E-01
					 1.18989000E-01	 3.55621000E-01	 3.33337000E-01
					 1.06506000E-01	 3.59557000E-01	 5.00003000E-01
					 9.38925000E-02	 3.63055000E-01	 6.66670000E-01
					-1.51158000E-01	 5.78990000E-01	 3.33337000E-01
					-1.71272000E-01	 5.73362000E-01	 5.00003000E-01
					-1.91178000E-01	 5.67036000E-01	 6.66670000E-01
					-6.97565000E-02	 9.97564000E-01	 3.33337000E-01
					-1.04528000E-01	 9.94522000E-01	 5.00003000E-01
					-1.39173000E-01	 9.90268000E-01	 6.66670000E-01
					-6.27808000E-02	 8.97808000E-01	 3.33337000E-01
					-9.40756000E-02	 8.95070000E-01	 5.00003000E-01
					-1.25256000E-01	 8.91241000E-01	 6.66670000E-01
					-5.58052000E-02	 7.98051000E-01	 3.33337000E-01
					-8.36228000E-02	 7.95618000E-01	 5.00003000E-01
					-1.11338000E-01	 7.92214000E-01	 6.66670000E-01
					-2.23099000E-01	 4.47467000E-01	 3.33337000E-01
					-2.38579000E-01	 4.39409000E-01	 5.00003000E-01
					-2.53769000E-01	 4.30815000E-01	 6.66670000E-01
					-4.88295000E-02	 6.98295000E-01	 3.33337000E-01
					-7.31699000E-02	 6.96165000E-01	 5.00003000E-01
					-9.74212000E-02	 6.93188000E-01	 6.66670000E-01
					-4.18539000E-02	 5.98538000E-01	 3.33337000E-01
					-6.27171000E-02	 5.96713000E-01	 5.00003000E-01
					-8.35039000E-02	 5.94161000E-01	 6.66670000E-01
					 1.58652000E-01	 4.74162000E-01	 3.33337000E-01
					 1.42008000E-01	 4.79410000E-01	 5.00003000E-01
					 1.25190000E-01	 4.84074000E-01	 6.66670000E-01
					 7.93262000E-02	 2.37081000E-01	 3.33337000E-01
					 7.10038000E-02	 2.39705000E-01	 5.00003000E-01
					 6.25950000E-02	 2.42037000E-01	 6.66670000E-01
					-1.67324000E-01	 3.35600000E-01	 3.33337000E-01
					-1.78935000E-01	 3.29556000E-01	 5.00003000E-01
					-1.90327000E-01	 3.23111000E-01	 6.66670000E-01
					-1.74397000E-02	 2.49399000E-01	 3.33337000E-01
					-2.61329000E-02	 2.48638000E-01	 5.00003000E-01
					-3.47943000E-02	 2.47575000E-01	 6.66670000E-01
					-3.48782000E-02	 4.98782000E-01	 3.33337000E-01
					-5.22642000E-02	 4.97261000E-01	 5.00003000E-01
					-6.95866000E-02	 4.95134000E-01	 6.66670000E-01
					-1.11549000E-01	 2.23734000E-01	 3.33337000E-01
					-1.19290000E-01	 2.19704000E-01	 5.00003000E-01
					-1.26885000E-01	 2.15407000E-01	 6.66670000E-01
					-2.54949000E-02	 3.64595000E-01	 3.33337000E-01
					-3.82036000E-02	 3.63483000E-01	 5.00003000E-01
					-5.08657000E-02	 3.61928000E-01	 6.66670000E-01
					-1.95392000E-02	 9.94993000E-01	 3.33337000E-01
					-1.95392000E-02	 9.94993000E-01	 5.00003000E-01
					-6.53167000E-02	 9.91143000E-01	 6.44012000E-01
					-7.78541000E-03	 8.95686000E-01	 3.33337000E-01
					-7.78541000E-03	 8.95686000E-01	 5.00003000E-01
					-3.99021000E-02	 8.87826000E-01	 6.53001000E-01
					 3.96833000E-03	 7.96379000E-01	 3.33337000E-01
					 3.96833000E-03	 7.96379000E-01	 5.00003000E-01
					 3.96833000E-03	 7.96379000E-01	 6.66670000E-01
					 1.88491000E-01	 6.92919000E-01	 1.66670000E-01
					-2.42037000E-01	 7.77922000E-01	 1.66670000E-01
					-2.36368000E-01	 6.78083000E-01	 1.66670000E-01
					-2.14740000E-01	 7.85895000E-01	 0.00000000E+00
					 1.03275000E-01	 8.08133000E-01	 6.66670000E-01
					 1.31416000E-01	 8.04036000E-01	 5.00003000E-01
					 1.59396000E-01	 7.98960000E-01	 3.33337000E-01
					 2.12559000E-01	 6.85919000E-01	 0.00000000E+00
					-2.12559000E-01	 6.85919000E-01	 0.00000000E+00
					-2.59888000E-01	 6.69421000E-01	 3.33337000E-01
					-3.05952000E-01	 6.49661000E-01	 6.66670000E-01
					-2.83093000E-01	 6.59943000E-01	 5.00003000E-01
					 2.14740000E-01	 7.85895000E-01	 0.00000000E+00
					-3.22026000E-01	 7.48361000E-01	 6.66670000E-01
					-2.95713000E-01	 7.59143000E-01	 5.00003000E-01
					-2.69039000E-01	 7.69001000E-01	 3.33337000E-01
					 1.15029000E-01	 7.08826000E-01	 6.66670000E-01
					 1.39697000E-01	 7.04380000E-01	 5.00003000E-01
					 1.64194000E-01	 6.99075000E-01	 3.33337000E-01
					 1.87182000E-01	 7.92911000E-01	 1.66670000E-01
					-1.95392000E-02	 1.19499000E+00	 5.00003000E-01
					-1.95392000E-02	 1.39499000E+00	 5.00003000E-01
					-1.95392000E-02	 1.59499000E+00	 5.00003000E-01
					-1.95392000E-02	 1.79499000E+00	 5.00003000E-01
					-1.95392000E-02	 1.99499000E+00	 5.00003000E-01
					-1.51975000E-02	 1.19507000E+00	 0.00000000E+00
					-1.51975000E-02	 1.39507000E+00	 0.00000000E+00
					-1.51975000E-02	 1.59507000E+00	 0.00000000E+00
					-1.51975000E-02	 1.79507000E+00	 0.00000000E+00
					-1.51975000E-02	 1.99507000E+00	 0.00000000E+00
					-1.01866000E-01	 1.18996000E+00	 1.66670000E-01
					-1.01866000E-01	 1.38996000E+00	 1.66670000E-01
					-1.01866000E-01	 1.58996000E+00	 1.66670000E-01
					-1.01866000E-01	 1.78996000E+00	 1.66670000E-01
					-1.01866000E-01	 1.98996000E+00	 1.66670000E-01
					-6.53167000E-02	 1.19114000E+00	 6.44012000E-01
					-6.53167000E-02	 1.39114000E+00	 6.44012000E-01
					-6.53167000E-02	 1.59114000E+00	 6.44012000E-01
					-6.53167000E-02	 1.79114000E+00	 6.44012000E-01
					-6.53167000E-02	 1.99114000E+00	 6.44012000E-01
					-2.21752000E-01	 1.17016000E+00	 5.00003000E-01
					-2.21752000E-01	 1.37016000E+00	 5.00003000E-01
					-2.21752000E-01	 1.57016000E+00	 5.00003000E-01
					-2.21752000E-01	 1.77016000E+00	 5.00003000E-01
					-2.21752000E-01	 1.97016000E+00	 5.00003000E-01
					-2.12967000E-01	 1.17034000E+00	 6.40408000E-01
					-2.12967000E-01	 1.37034000E+00	 6.40408000E-01
					-2.12967000E-01	 1.57034000E+00	 6.40408000E-01
					-2.12967000E-01	 1.77034000E+00	 6.40408000E-01
					-2.12967000E-01	 1.97034000E+00	 6.40408000E-01
					-3.48995000E-02	 1.19939000E+00	 1.66670000E-01
					-3.48995000E-02	 1.39939000E+00	 1.66670000E-01
					-3.48995000E-02	 1.59939000E+00	 1.66670000E-01
					-3.48995000E-02	 1.79939000E+00	 1.66670000E-01
					-3.48995000E-02	 1.99939000E+00	 1.66670000E-01
					-1.70673000E-01	 1.18044000E+00	 3.33337000E-01
					-1.70673000E-01	 1.38044000E+00	 3.33337000E-01
					-1.70673000E-01	 1.58044000E+00	 3.33337000E-01
					-1.70673000E-01	 1.78044000E+00	 3.33337000E-01
					-1.70673000E-01	 1.98044000E+00	 3.33337000E-01
					-1.39173000E-01	 1.19027000E+00	 6.66670000E-01
					-1.39173000E-01	 1.39027000E+00	 6.66670000E-01
					-1.39173000E-01	 1.59027000E+00	 6.66670000E-01
[...]
			<PointData>
				<DataArray type="Float32" Name="U" NumberOfComponents="3" ComponentName0="D1" ComponentName1="D2" ComponentName2="D3" format="ascii">
					 3.63425000E-06	 2.11021000E-04	 1.79938000E-05
					-7.81782000E-06	 1.68675000E-04	-2.47032000E-05
					-1.00543000E-04	 1.78948000E-04	-1.32088000E-05
					 1.14815000E-04	 1.36976000E-04	 1.43360000E-06
					 3.77689000E-06	 1.76028000E-04	 2.07701000E-05
					-1.33279000E-06	 1.93985000E-04	 3.64596000E-05
					 6.82123000E-06	 1.94147000E-04	 4.43555000E-06
					 2.19356000E-05	 1.34041000E-04	-3.07470000E-06
					 1.24722000E-04	 2.22155000E-04	 1.23030000E-04
					-1.03854000E-04	 1.49447000E-04	 2.05726000E-06
					 1.82302000E-05	 2.22876000E-04	-2.74913000E-05
					 1.28332000E-04	 1.48353000E-04	-1.00027000E-05
					 3.39846000E-05	 1.78141000E-04	 4.58151000E-05
					 2.23294000E-05	 2.29879000E-04	 1.86104000E-05
					 3.96956000E-05	 1.51412000E-04	 5.34354000E-06
					 1.78769000E-05	 1.61024000E-04	 1.49732000E-05
					 3.05005000E-05	 1.71967000E-04	 3.31269000E-05
					 1.33866000E-05	 1.57643000E-04	 7.10726000E-09
					 9.55936000E-06	 1.55955000E-04	-1.46103000E-05
					 1.15961000E-04	 1.80186000E-04	 8.05749000E-05
					 4.98243000E-06	 1.57343000E-04	-2.30719000E-05
					 2.37836000E-05	 1.45110000E-04	 2.17674000E-05
					 2.07926000E-05	 1.47943000E-04	-9.50573000E-06
					 1.81783000E-05	 1.50055000E-04	 4.73317000E-06
					 1.42974000E-05	 1.52719000E-04	-9.19681000E-06
					 9.42432000E-06	 1.54529000E-04	-1.83953000E-05
					 4.87637000E-06	 1.55855000E-04	-2.59883000E-05
					 2.22386000E-06	 1.56588000E-04	 1.21476000E-05
					 4.72698000E-07	 1.65139000E-04	-1.42275000E-06
					-1.03456000E-04	 1.40370000E-04	 3.03238000E-06
					-1.73614000E-06	 1.66833000E-04	-1.31154000E-05
					-4.47663000E-06	 1.66841000E-04	-2.16523000E-05
					 1.51114000E-05	 1.50769000E-04	-1.18555000E-05
					-7.95734000E-06	 1.66646000E-04	-2.88159000E-05
					-1.90255000E-06	 1.66741000E-04	 1.82299000E-06
					-8.73295000E-06	 1.59936000E-04	 3.20370000E-05
					 1.35889000E-06	 1.64020000E-04	-1.40949000E-05
					 1.65093000E-05	 1.58105000E-04	 1.30407000E-05
					-1.41795000E-06	 1.64695000E-04	-2.03003000E-05
					-4.21984000E-06	 1.64622000E-04	-2.71758000E-05
					 9.77494000E-06	 1.53278000E-04	-2.00807000E-05
					-7.59965000E-06	 1.64110000E-04	-3.34453000E-05
					 5.44027000E-06	 1.80516000E-04	 3.36397000E-05
					 5.22288000E-06	 1.55053000E-04	-2.68370000E-05
					-7.30219000E-05	 1.68384000E-04	 4.65855000E-05
					 9.66839000E-07	 1.72944000E-04	 1.09233000E-05
					-1.80763000E-06	 1.69241000E-04	-5.87738000E-06
					-4.26681000E-06	 1.68717000E-04	-1.67029000E-05
					-1.50745000E-05	 1.76849000E-04	-2.79290000E-07
					-3.01686000E-05	 1.81620000E-04	-1.11019000E-05
					-4.76801000E-05	 1.80420000E-04	-1.61211000E-05
					-9.62651000E-06	 1.77505000E-04	 8.00866000E-06
					-2.60587000E-05	 1.85830000E-04	-1.67190000E-05
					-4.34881000E-05	 1.89074000E-04	-2.86289000E-05
					-1.99093000E-05	 1.72701000E-04	-3.79297000E-05
					-3.16368000E-05	 1.80460000E-04	-4.07530000E-05
					-4.10165000E-05	 1.87186000E-04	-3.99953000E-05
					-1.73595000E-05	 1.74222000E-04	-3.25733000E-05
					-3.00970000E-05	 1.82333000E-04	-3.63181000E-05
					-4.21330000E-05	 1.87919000E-04	-3.76431000E-05
					-1.55467000E-05	 1.75153000E-04	-2.83956000E-05
					-2.97391000E-05	 1.84439000E-04	-3.42719000E-05
					-4.25504000E-05	 1.88332000E-04	-3.66270000E-05
					-1.41609000E-05	 1.74693000E-04	-2.43624000E-05
					-2.97075000E-05	 1.86723000E-04	-3.41760000E-05
					-4.37596000E-05	 1.90785000E-04	-3.63772000E-05
					-1.79637000E-05	 1.50450000E-04	 1.89135000E-05
					-4.63624000E-05	 1.43943000E-04	 2.06184000E-06
					-6.94943000E-05	 1.68192000E-04	-9.90264000E-06
					-1.81349000E-05	 1.75292000E-04	-2.23753000E-05
					-3.48254000E-05	 1.97858000E-04	-4.71681000E-05
					-6.26188000E-05	 2.09462000E-04	-5.67724000E-05
					-2.03233000E-05	 1.75907000E-04	-3.12484000E-05
					-3.21783000E-05	 1.83299000E-04	-3.36228000E-05
					-4.34928000E-05	 1.90131000E-04	-3.62515000E-05
					-1.73822000E-05	 1.76269000E-04	-2.48661000E-05
					-2.98867000E-05	 1.83177000E-04	-2.79100000E-05
					-4.23127000E-05	 1.88359000E-04	-3.10039000E-05
					-1.57820000E-05	 1.75803000E-04	-1.86085000E-05
					-2.91893000E-05	 1.82788000E-04	-2.39932000E-05
					-4.30235000E-05	 1.85497000E-04	-2.79566000E-05
					-1.44318000E-04	 1.58093000E-04	-3.06753000E-05
					-1.65848000E-04	 1.86449000E-04	-6.82003000E-05
					-1.93275000E-04	 2.42179000E-04	-1.24906000E-04
					-1.44093000E-05	 1.71518000E-04	-1.29140000E-05
					-2.87856000E-05	 1.80599000E-04	-2.40426000E-05
					-4.36199000E-05	 1.80580000E-04	-3.01869000E-05
					-1.25407000E-05	 1.57569000E-04	-6.92737000E-06
					-2.77916000E-05	 1.69762000E-04	-2.63895000E-05
					-4.72167000E-05	 1.70494000E-04	-3.71858000E-05
					 1.21814000E-04	 1.78202000E-04	 4.30805000E-05
					 9.68550000E-05	 1.78263000E-04	-1.15364000E-06
					 6.38970000E-05	 2.14996000E-04	-5.88990000E-05
					-1.16294000E-04	 1.35228000E-04	 1.43394000E-06
					-1.50531000E-04	 1.30518000E-04	-1.17598000E-06
					-1.70986000E-04	 1.47827000E-04	 1.05581000E-05
					-3.54750000E-06	 1.52488000E-04	-1.45028000E-05
					-1.89573000E-05	 1.80685000E-04	-2.50958000E-05
					-3.52404000E-05	 2.25168000E-04	-3.14716000E-05
					-1.54127000E-05	 1.98284000E-04	 3.69746000E-06
					-4.11950000E-05	 2.11948000E-04	 3.02268000E-06
					-5.81059000E-05	 2.53630000E-04	 3.84055000E-05
					-1.32599000E-05	 1.76189000E-04	-2.45631000E-06
					-3.21768000E-05	 1.90299000E-04	-2.66368000E-05
					-5.93784000E-05	 1.96818000E-04	-4.12653000E-05
					 9.38312000E-05	 1.51934000E-04	 1.85539000E-06
					 8.80903000E-05	 1.82889000E-04	 4.24261000E-06
					 8.35578000E-05	 2.22270000E-04	 2.16460000E-05
					-1.59618000E-05	 2.17000000E-04	 1.75973000E-06
					-3.88059000E-05	 2.31258000E-04	-1.50505000E-05
					-6.21770000E-05	 2.62835000E-04	-1.68174000E-05
					-2.02516000E-05	 1.77696000E-04	-2.73004000E-05
					-3.24485000E-05	 1.85643000E-04	-2.73703000E-05
					-4.24072000E-05	 1.90693000E-04	-3.11500000E-05
					-1.72873000E-05	 1.77508000E-04	-2.03096000E-05
					-3.01327000E-05	 1.84135000E-04	-2.08443000E-05
					-4.19803000E-05	 1.86954000E-04	-2.40138000E-05
					-1.59764000E-05	 1.76714000E-04	-1.20285000E-05
					-2.92183000E-05	 1.82549000E-04	-1.52001000E-05
					-4.50892000E-05	 1.82734000E-04	-1.65784000E-05
					 3.18358000E-06	 1.75524000E-04	 1.59540000E-05
					-1.23771000E-06	 1.61526000E-04	-3.60092000E-05
					 9.70024000E-07	 1.61091000E-04	-2.68353000E-05
					 1.73683000E-05	 1.44734000E-04	-3.33815000E-05
					-4.58952000E-05	 1.79826000E-04	-4.32663000E-06
					-2.89338000E-05	 1.81132000E-04	-4.14255000E-07
					-1.60289000E-05	 1.80615000E-04	 5.80145000E-06
					 1.85022000E-05	 1.64807000E-04	 2.15293000E-05
					 2.07895000E-05	 1.44340000E-04	-2.29341000E-05
					-1.66184000E-05	 1.75418000E-04	-3.24010000E-05
					-4.34535000E-05	 1.89687000E-04	-4.13061000E-05
					-3.09645000E-05	 1.84775000E-04	-3.77629000E-05
					 1.36929000E-05	 1.65969000E-04	 1.47491000E-05
					-4.33938000E-05	 1.90760000E-04	-4.55881000E-05
					-3.03636000E-05	 1.86063000E-04	-4.37533000E-05
					-1.55897000E-05	 1.76000000E-04	-4.01513000E-05
					-4.78073000E-05	 1.79789000E-04	-3.83928000E-06
					-2.96324000E-05	 1.80484000E-04	 1.14999000E-06
					-1.27925000E-05	 1.80183000E-04	 8.35552000E-06
					-1.57413000E-06	 1.76543000E-04	 1.13385000E-05
					-4.03704000E-05	 1.88238000E-04	-4.01247000E-05
					-5.16494000E-05	 1.90030000E-04	-5.37579000E-05
					-6.50312000E-05	 1.91110000E-04	-6.78565000E-05
					-7.94515000E-05	 1.91617000E-04	-8.21433000E-05
					-9.42059000E-05	 1.91756000E-04	-9.64213000E-05
					-5.44373000E-06	 1.56378000E-04	-4.00711000E-05
					-1.79448000E-05	 1.56541000E-04	-5.34279000E-05
					-3.20187000E-05	 1.56442000E-04	-6.74370000E-05
					-4.69448000E-05	 1.56428000E-04	-8.17759000E-05
					-6.20845000E-05	 1.56450000E-04	-9.61460000E-05
					-1.69743000E-05	 1.63141000E-04	-4.57974000E-05
					-2.89699000E-05	 1.62406000E-04	-5.89330000E-05
					-4.27483000E-05	 1.62031000E-04	-7.28320000E-05
					-5.74427000E-05	 1.61918000E-04	-8.70702000E-05
					-7.24100000E-05	 1.61911000E-04	-1.01355000E-04
					-4.95117000E-05	 1.94857000E-04	-4.32833000E-05
					-6.06256000E-05	 1.96930000E-04	-5.67004000E-05
					-7.39925000E-05	 1.98029000E-04	-7.06757000E-05
					-8.84244000E-05	 1.98500000E-04	-8.48702000E-05
					-1.03180000E-04	 1.98621000E-04	-9.91099000E-05
					-3.89911000E-05	 1.78590000E-04	-5.19254000E-05
					-4.99774000E-05	 1.77540000E-04	-6.51934000E-05
					-6.32228000E-05	 1.77025000E-04	-7.91844000E-05
					-7.76025000E-05	 1.76837000E-04	-9.34154000E-05
					-9.23587000E-05	 1.76806000E-04	-1.07668000E-04
					-4.79422000E-05	 1.87521000E-04	-5.12168000E-05
					-5.89377000E-05	 1.87531000E-04	-6.45665000E-05
					-7.22300000E-05	 1.87462000E-04	-7.86036000E-05
					-8.66402000E-05	 1.87439000E-04	-9.28586000E-05
					-1.01403000E-04	 1.87447000E-04	-1.07122000E-04
					-1.74743000E-05	 1.66662000E-04	-4.16810000E-05
					-2.95739000E-05	 1.66742000E-04	-5.50201000E-05
					-4.34229000E-05	 1.66838000E-04	-6.90473000E-05
					-5.81468000E-05	 1.66909000E-04	-8.33779000E-05
					-7.31226000E-05	 1.66935000E-04	-9.77195000E-05
					-2.82399000E-05	 1.70710000E-04	-4.95910000E-05
					-3.96345000E-05	 1.69469000E-04	-6.27445000E-05
					-5.30862000E-05	 1.68909000E-04	-7.66517000E-05
					-6.75806000E-05	 1.68731000E-04	-9.08580000E-05
					-8.24064000E-05	 1.68707000E-04	-1.05107000E-04
					-5.06947000E-05	 1.92640000E-04	-4.79461000E-05
					-6.19106000E-05	 1.93876000E-04	-6.13481000E-05
					-7.53317000E-05	 1.94453000E-04	-7.53445000E-05
					-8.97991000E-05	 1.94703000E-04	-8.95571000E-05
					-1.04568000E-04	 1.94774000E-04	-1.03801000E-04
					-4.01220000E-05	 1.84088000E-04	-4.57614000E-05
					-5.14825000E-05	 1.84742000E-04	-5.92803000E-05
					-6.49268000E-05	 1.85173000E-04	-7.33339000E-05
					-7.93917000E-05	 1.85400000E-04	-8.75948000E-05
					-9.41640000E-05	 1.85472000E-04	-1.01858000E-04
					-2.90253000E-05	 1.75675000E-04	-4.37300000E-05
					-4.06884000E-05	 1.75790000E-04	-5.71786000E-05
					-5.42924000E-05	 1.76009000E-04	-7.12311000E-05
					-6.88453000E-05	 1.76156000E-04	-8.55316000E-05
					-8.36854000E-05	 1.76206000E-04	-9.98251000E-05
					-5.76822000E-06	 1.57288000E-04	-3.93187000E-05
					-1.82794000E-05	 1.57567000E-04	-5.27242000E-05
					-3.23810000E-05	 1.57564000E-04	-6.67711000E-05
					-4.73190000E-05	 1.57584000E-04	-8.11366000E-05
					-6.24594000E-05	 1.57608000E-04	-9.55242000E-05
					-2.89460000E-05	 1.78238000E-04	-4.00946000E-05
					-4.05715000E-05	 1.78981000E-04	-5.36368000E-05
					-5.41359000E-05	 1.79562000E-04	-6.77445000E-05
					-6.86644000E-05	 1.79859000E-04	-8.20877000E-05
					-8.34985000E-05	 1.79942000E-04	-9.64098000E-05
					-1.72968000E-05	 1.69349000E-04	-3.79061000E-05
					-2.93293000E-05	 1.70004000E-04	-5.13343000E-05
					-4.31308000E-05	 1.70439000E-04	-6.54157000E-05
					-5.78306000E-05	 1.70645000E-04	-7.98019000E-05
					-7.28024000E-05	 1.70696000E-04	-9.41864000E-05
					-5.52083000E-06	 1.59122000E-04	-3.66481000E-05
					-1.79342000E-05	 1.59735000E-04	-5.01213000E-05
					-3.19936000E-05	 1.59945000E-04	-6.42106000E-05
					-4.69174000E-05	 1.60042000E-04	-7.86227000E-05
					-6.20559000E-05	 1.60075000E-04	-9.30446000E-05
					 1.91430000E-04	-3.98490000E-05	-2.58144000E-05
					-4.39634000E-03	-2.96370000E-03	-7.42284000E-04
					 1.28332000E-04	 1.48353000E-04	-1.00027000E-05
					 1.71608000E-04	-1.47937000E-04	-4.08467000E-06
					 8.77519000E-05	-1.34770000E-04	-6.49025000E-05
					 3.96956000E-05	 1.51412000E-04	 5.34354000E-06
					 2.00183000E-04	-4.15516000E-06	-2.99510000E-06
					 2.72041000E-04	-1.47243000E-04	-2.76887000E-05
					-7.30219000E-05	 1.68384000E-04	 4.65855000E-05
					 1.14815000E-04	 1.36976000E-04	 1.43360000E-06
					 2.26147000E-04	-1.81815000E-05	 2.06043000E-05
					 1.98968000E-04	-1.76142000E-04	 2.73546000E-05
					-2.78878000E-04	-7.92916000E-06	 5.23781000E-05
					 2.16560000E-04	-4.76015000E-05	-2.48654000E-05
					 3.05701000E-04	-1.89774000E-04	-4.40165000E-05
					-8.15410000E-04	-1.39524000E-04	 4.07232000E-05
					 1.38699000E-04	-9.69443000E-05	-6.90100000E-05
					-1.32873000E-03	-6.38824000E-04	-4.38457000E-05
					-1.91627000E-03	-1.45506000E-03	-1.89566000E-04
					-1.03456000E-04	 1.40370000E-04	 3.03238000E-06
					-3.61724000E-03	-2.73290000E-03	-6.01268000E-04
					-1.62099000E-05	-2.35560000E-04	-9.91127000E-05
					 8.41069000E-05	-1.01693000E-03	-3.45573000E-04
					-3.79142000E-04	-5.99101000E-04	-1.49802000E-04
					-8.41407000E-04	-1.07443000E-03	-2.12371000E-04
					-1.56036000E-03	-1.87418000E-03	-3.87761000E-04
					-3.08322000E-03	-3.45708000E-03	-7.96425000E-04
					-9.37812000E-05	-3.22473000E-04	-1.03766000E-04
					-4.83629000E-04	-7.55007000E-04	-1.73411000E-04
					 4.24012000E-04	-1.52874000E-04	-8.48633000E-05
					-9.97573000E-04	-1.31065000E-03	-2.62932000E-04
					-1.98069000E-03	-2.31413000E-03	-4.94462000E-04
					-6.66877000E-04	-1.21024000E-03	-2.81604000E-04
					-3.55319000E-03	-3.92852000E-03	-9.31486000E-04
					 1.62998000E-04	-5.91054000E-04	-1.67972000E-04
					 2.19356000E-05	 1.34041000E-04	-3.07470000E-06
					 7.17661000E-05	-1.24331000E-03	-3.16466000E-04
					 2.37544000E-04	-4.94559000E-04	-2.49973000E-04
					-4.96427000E-04	-1.74494000E-03	-3.61518000E-04
					-1.06264000E-03	-3.10063000E-03	-7.18219000E-04
					-1.27445000E-03	-2.08095000E-03	-5.00349000E-04
					-2.20134000E-03	-4.96904000E-03	-1.13142000E-03
					-3.74461000E-04	-9.87131000E-05	-3.47818000E-05
					-2.67772000E-03	-3.65993000E-03	-8.53280000E-04
					 4.63561000E-04	-2.20084000E-04	-1.88912000E-04
					-9.70590000E-04	-2.74216000E-04	-3.89804000E-05
					-1.35367000E-03	-9.28960000E-04	-1.86080000E-04
					-2.62601000E-03	-1.65137000E-03	-3.37742000E-04
					-1.15599000E-03	-3.15562000E-04	-9.30051000E-05
					-1.32144000E-03	-2.62181000E-04	-1.70204000E-04
					-1.38558000E-03	-1.60618000E-04	-2.93906000E-04
					-4.53852000E-04	-9.32194000E-05	-6.13408000E-05
					-5.15660000E-04	-5.94100000E-05	-9.76938000E-05
					-5.02998000E-04	 6.94631000E-05	-2.21640000E-04
					-1.79306000E-03	-5.70727000E-03	-1.12224000E-03
					-1.46349000E-03	-5.88146000E-03	-9.29748000E-04
					-1.99002000E-03	-5.08306000E-03	-7.92928000E-04
					-8.31553000E-04	-3.73328000E-03	-7.22056000E-04
					-6.76093000E-04	-3.92621000E-03	-5.70511000E-04
					-8.38283000E-04	-3.55717000E-03	-3.70966000E-04
					-3.15472000E-04	-2.20159000E-03	-3.80358000E-04
					-1.95209000E-04	-2.37895000E-03	-3.13617000E-04
					-1.70010000E-04	-2.26213000E-03	-1.93886000E-04
					 1.33027000E-04	-1.41076000E-03	-2.58102000E-04
					 1.83425000E-04	-1.42329000E-03	-1.59116000E-04
					 2.26360000E-04	-1.30374000E-03	-2.81702000E-05
					-3.54750000E-06	 1.52488000E-04	-1.45028000E-05
					-1.89573000E-05	 1.80685000E-04	-2.50958000E-05
					-3.52404000E-05	 2.25168000E-04	-3.14716000E-05
					 1.89325000E-04	-6.38047000E-04	-9.77987000E-05
					 2.15331000E-04	-6.30227000E-04	-1.35512000E-05
					 3.06037000E-04	-5.12437000E-04	 1.27163000E-04
					-3.78377000E-03	-4.25475000E-03	-1.03021000E-03
					-3.74105000E-03	-4.33952000E-03	-1.07779000E-03
					-3.51210000E-03	-4.13598000E-03	-1.07174000E-03
					-2.23894000E-03	-2.61100000E-03	-5.90009000E-04
					-2.30271000E-03	-2.72106000E-03	-6.58303000E-04
					-2.19501000E-03	-2.57163000E-03	-6.75858000E-04
					-1.17090000E-03	-1.50648000E-03	-3.25498000E-04
					-1.28884000E-03	-1.59217000E-03	-3.75178000E-04
					-1.29410000E-03	-1.51831000E-03	-3.99043000E-04
					 4.80614000E-04	-1.35589000E-04	 3.00951000E-07
					 5.30560000E-04	-1.17456000E-04	 9.76034000E-05
					 6.50450000E-04	-1.12802000E-04	 2.35543000E-04
					-5.61174000E-04	-8.36591000E-04	-1.82803000E-04
					-6.15348000E-04	-8.40143000E-04	-1.90586000E-04
					-6.02242000E-04	-7.40432000E-04	-1.93251000E-04
					-1.19476000E-04	-3.29479000E-04	-8.47640000E-05
					-1.44244000E-04	-2.95050000E-04	-6.69834000E-05
					-1.15266000E-04	-1.69810000E-04	-5.88364000E-05
					-1.44318000E-04	 1.58093000E-04	-3.06753000E-05
					-1.65848000E-04	 1.86449000E-04	-6.82003000E-05
					-1.93275000E-04	 2.42179000E-04	-1.24906000E-04
					 9.38312000E-05	 1.51934000E-04	 1.85539000E-06
					 8.80903000E-05	 1.82889000E-04	 4.24261000E-06
					 8.35578000E-05	 2.22270000E-04	 2.16460000E-05
					 3.06485000E-04	-1.30977000E-04	 1.59653000E-06
					 3.43585000E-04	-1.15365000E-04	 3.34290000E-05
					 4.28600000E-04	-1.20433000E-04	 5.44102000E-05
					 1.98543000E-04	 1.63284000E-05	-1.62680000E-06
					 2.13575000E-04	 4.97500000E-05	 6.39622000E-07
					 2.50871000E-04	 6.13967000E-05	-2.27423000E-05
					 7.47389000E-05	-1.16254000E-04	-4.20860000E-05
					 6.15208000E-05	-7.99470000E-05	-1.90245000E-05
					 9.86747000E-05	 1.95044000E-05	-7.92838000E-06
					 1.93331000E-04	-1.29471000E-04	-4.05785000E-06
					 2.25317000E-04	-1.20449000E-04	-4.82397000E-06
					 2.86539000E-04	-1.34842000E-04	-4.11701000E-05
					 1.89479000E-04	-1.66228000E-05	-1.28548000E-05
					 1.93849000E-04	 1.54352000E-05	 2.72971000E-06
					 2.30439000E-04	 4.62395000E-05	 5.11799000E-06
					-4.63785000E-03	-3.34298000E-03	-9.22168000E-04
					-5.22187000E-03	-2.97951000E-03	-1.07614000E-03
					-4.70239000E-03	-3.08814000E-03	-1.20523000E-03
					-2.94113000E-03	-1.93752000E-03	-4.80891000E-04
					-3.43475000E-03	-1.75732000E-03	-6.33130000E-04
					-3.06031000E-03	-1.71695000E-03	-8.10539000E-04
					-1.58264000E-03	-1.08377000E-03	-2.77959000E-04
					-1.97007000E-03	-9.53678000E-04	-3.75009000E-04
					-2.21714000E-03	-7.45215000E-04	-5.18333000E-04
					-1.49578000E-03	 1.53603000E-04	 1.05621000E-04
					 1.40063000E-04	-2.25043000E-03	-4.01656000E-04
					 6.21813000E-04	-1.79597000E-03	-4.86842000E-04
					 8.11085000E-05	-1.91495000E-03	-4.16086000E-04
					-2.84503000E-03	-2.93997000E-04	-4.49161000E-04
					-2.50813000E-03	-3.48023000E-04	-3.70420000E-04
					-2.16681000E-03	-3.67209000E-04	-2.08628000E-04
					-1.31143000E-03	 3.01802000E-04	 1.26595000E-04
					 5.08358000E-04	-1.49180000E-03	-4.68120000E-04
					 8.59883000E-04	-2.07652000E-03	-3.77291000E-04
					 1.17015000E-03	-2.00884000E-03	-6.25980000E-05
					 1.08165000E-03	-2.13490000E-03	-1.67900000E-04
					-1.69472000E-03	-1.20669000E-04	 4.82687000E-05
					 5.24584000E-04	-2.81447000E-03	-2.37094000E-04
					 4.26043000E-04	-2.85843000E-03	-2.72915000E-04
					 2.79091000E-04	-2.67199000E-03	-3.46003000E-04
					-2.32416000E-03	 4.69716000E-04	-1.56725000E-04
					-2.08011000E-03	 2.84039000E-04	-8.24173000E-05
					-1.76947000E-03	 1.30180000E-04	 3.72494000E-05
					-1.86372000E-03	-2.86138000E-04	-3.79938000E-05
					-9.87116000E-03	-6.40554000E-03	-2.29407000E-03
					-1.52814000E-02	-1.10217000E-02	-3.80166000E-03
					-2.11164000E-02	-1.64088000E-02	-5.49990000E-03
					-2.71195000E-02	-2.22204000E-02	-7.29081000E-03
					-3.31393000E-02	-2.81963000E-02	-9.09494000E-03
					-7.11081000E-03	-8.21400000E-03	-2.11902000E-03
					-1.24831000E-02	-1.36534000E-02	-3.70385000E-03
					-1.83971000E-02	-1.95875000E-02	-5.45929000E-03
					-2.45346000E-02	-2.57169000E-02	-7.28588000E-03
					-3.06997000E-02	-3.18731000E-02	-9.12736000E-03
					-6.08921000E-03	-9.57165000E-03	-2.27617000E-03
					-1.10689000E-02	-1.49957000E-02	-3.72797000E-03
					-1.67180000E-02	-2.08842000E-02	-5.38148000E-03
					-2.27007000E-02	-2.69575000E-02	-7.13478000E-03
					-2.87814000E-02	-3.30536000E-02	-8.92991000E-03
					-9.26861000E-03	-6.54584000E-03	-2.34004000E-03
					-1.46106000E-02	-1.12026000E-02	-3.78858000E-03
					-2.04058000E-02	-1.66007000E-02	-5.44143000E-03
					-2.63853000E-02	-2.24121000E-02	-7.19887000E-03