<?xml version="1.0"?>
<VTKFile type="UnstructuredGrid" version="0.1" byte_order="LittleEndian">
	<UnstructuredGrid>
		<Piece NumberOfPoints="1720" NumberOfCells="832">
			<Points>
				<DataArray type="Float64" NumberOfComponents="3" format="ascii">
					-1.27552000E-02	 3.65262000E-01	 1.66670000E-01
					 1.51975000E-02	 9.95069000E-01	 1.66670000E-01
					 9.56709000E-02	 2.30970000E-01	 0.00000000E+00
					-1.03673000E-01	 2.27490000E-01	 1.66670000E-01
					-1.74497000E-02	 4.99695000E-01	 1.66670000E-01
					 1.43506000E-01	 3.46455000E-01	 0.00000000E+00
					-8.72514000E-03	 2.49855000E-01	 1.66670000E-01
					-1.55510000E-01	 3.41235000E-01	 1.66670000E-01
					 1.91342000E-01	 4.61940000E-01	 0.00000000E+00
					 8.75518000E-02	 2.34168000E-01	 1.66670000E-01
					 1.53086000E-17	 2.50008000E-01	 0.00000000E+00
					-9.56709000E-02	 2.30970000E-01	 0.00000000E+00
					 1.10401000E-01	 5.88124000E-01	 0.00000000E+00
					-5.87745000E-17	 3.65485000E-01	 0.00000000E+00
					-1.43506000E-01	 3.46455000E-01	 0.00000000E+00
					 1.12583000E-01	 6.88100000E-01	 0.00000000E+00
					-8.04061000E-17	 5.00000000E-01	 0.00000000E+00
					 8.81865000E-02	 8.00147000E-01	-3.79961000E-04
					 3.91018000E-02	 8.94866000E-01	 0.00000000E+00
					 1.75104000E-01	 4.68336000E-01	 1.66670000E-01
					 3.25615000E-02	 9.94652000E-01	 0.00000000E+00
					-9.64874000E-17	 6.00000000E-01	 0.00000000E+00
					-1.12583000E-01	 6.88100000E-01	 0.00000000E+00
					-1.12569000E-16	 7.00000000E-01	 0.00000000E+00
					 4.89859000E-17	 8.00000000E-01	 0.00000000E+00
					 5.51091000E-17	 9.00000000E-01	 0.00000000E+00
					 6.12323000E-17	 1.00000000E+00	 0.00000000E+00
					-2.09397000E-02	 5.99634000E-01	 1.66670000E-01
					-2.44296000E-02	 6.99574000E-01	 1.66670000E-01
					-2.07347000E-01	 4.54981000E-01	 1.66670000E-01
					-2.79196000E-02	 7.99513000E-01	 1.66670000E-01
					-3.14095000E-02	 8.99452000E-01	 1.66670000E-01
					-3.17591000E-02	 7.95756000E-01	 0.00000000E+00
					-3.48995000E-02	 9.99391000E-01	 1.66670000E-01
					-1.30859000E-01	 5.83913000E-01	 1.66670000E-01
					 1.31328000E-01	 3.51252000E-01	 1.66670000E-01
					-1.36529000E-01	 6.83752000E-01	 1.66670000E-01
					-1.10401000E-01	 5.88124000E-01	 0.00000000E+00
					-1.00993000E-01	 7.89959000E-01	 1.66670000E-01
					-1.01429000E-01	 8.89959000E-01	 1.66670000E-01
					-2.34783000E-02	 8.95412000E-01	 0.00000000E+00
					-1.01866000E-01	 9.89958000E-01	 1.66670000E-01
					 8.98088000E-02	 5.91619000E-01	 1.66670000E-01
					-1.51975000E-02	 9.95069000E-01	 0.00000000E+00
					-1.91342000E-01	 4.61940000E-01	 0.00000000E+00
					 8.84998000E-02	 6.91610000E-01	 1.66670000E-01
					 3.17591000E-02	 7.95756000E-01	 1.66670000E-01
					 2.34783000E-02	 8.95412000E-01	 1.66670000E-01
					 6.43091000E-02	 6.94278000E-01	 3.33337000E-01
					 4.00400000E-02	 6.96099000E-01	 5.00003000E-01
					 1.57221000E-02	 6.97072000E-01	 6.66670000E-01
					 6.91069000E-02	 5.94393000E-01	 3.33337000E-01
					 4.83208000E-02	 5.96442000E-01	 5.00003000E-01
					 2.74758000E-02	 5.97766000E-01	 6.66670000E-01
					-1.70673000E-01	 9.80440000E-01	 3.33337000E-01
					-2.21752000E-01	 9.70164000E-01	 5.00003000E-01
					-2.12967000E-01	 9.70344000E-01	 6.40408000E-01
					-1.63263000E-01	 8.80715000E-01	 3.33337000E-01
					-2.09132000E-01	 8.70964000E-01	 5.00003000E-01
					-2.28435000E-01	 8.70398000E-01	 6.68452000E-01
					-1.55852000E-01	 7.80990000E-01	 3.33337000E-01
					-1.96512000E-01	 7.71763000E-01	 5.00003000E-01
					-2.23326000E-01	 7.64435000E-01	 6.66670000E-01
					-1.60308000E-01	 6.78571000E-01	 3.33337000E-01
					-1.83892000E-01	 6.72563000E-01	 5.00003000E-01
					-2.07252000E-01	 6.65735000E-01	 6.66670000E-01
					 1.18989000E-01	 3.55621000E-01	 3.33337000E-01
					 1.06506000E-01	 3.59557000E-01	 5.00003000E-01
					 9.38925000E-02	 3.63055000E-01	 6.66670000E-01
					-1.51158000E-01	 5.78990000E-01	 3.33337000E-01
					-1.71272000E-01	 5.73362000E-01	 5.00003000E-01
					-1.91178000E-01	 5.67036000E-01	 6.66670000E-01
					-6.97565000E-02	 9.97564000E-01	 3.33337000E-01
					-1.04528000E-01	 9.94522000E-01	 5.00003000E-01
					-1.39173000E-01	 9.90268000E-01	 6.66670000E-01
					-6.27808000E-02	 8.97808000E-01	 3.33337000E-01
					-9.40756000E-02	 8.95070000E-01	 5.00003000E-01
					-1.25256000E-01	 8.91241000E-01	 6.66670000E-01
					-5.58052000E-02	 7.98051000E-01	 3.33337000E-01
					-8.36228000E-02	 7.95618000E-01	 5.00003000E-01
					-1.11338000E-01	 7.92214000E-01	 6.66670000E-01
					-2.23099000E-01	 4.47467000E-01	 3.33337000E-01
					-2.38579000E-01	 4.39409000E-01	 5.00003000E-01
					-2.53769000E-01	 4.30815000E-01	 6.66670000E-01
					-4.88295000E-02	 6.98295000E-01	 3.33337000E-01
					-7.31699000E-02	 6.96165000E-01	 5.00003000E-01
					-9.74212000E-02	 6.93188000E-01	 6.66670000E-01
					-4.18539000E-02	 5.98538000E-01	 3.33337000E-01
					-6.27171000E-02	 5.96713000E-01	 5.00003000E-01
					-8.35039000E-02	 5.94161000E-01	 6.66670000E-01
					 1.58652000E-01	 4.74162000E-01	 3.33337000E-01
					 1.42008000E-01	 4.79410000E-01	 5.00003000E-01
					 1.25190000E-01	 4.84074000E-01	 6.66670000E-01
					 7.93262000E-02	 2.37081000E-01	 3.33337000E-01
					 7.10038000E-02	 2.39705000E-01	 5.00003000E-01
					 6.25950000E-02	 2.42037000E-01	 6.66670000E-01
					-1.67324000E-01	 3.35600000E-01	 3.33337000E-01
					-1.78935000E-01	 3.29556000E-01	 5.00003000E-01
					-1.90327000E-01	 3.23111000E-01	 6.66670000E-01
					-1.74397000E-02	 2.49399000E-01	 3.33337000E-01
					-2.61329000E-02	 2.48638000E-01	 5.00003000E-01
					-3.47943000E-02	 2.47575000E-01	 6.66670000E-01
					-3.48782000E-02	 4.98782000E-01	 3.33337000E-01
					-5.22642000E-02	 4.97261000E-01	 5.00003000E-01
					-6.95866000E-02	 4.95134000E-01	 6.66670000E-01
					-1.11549000E-01	 2.23734000E-01	 3.33337000E-01
					-1.19290000E-01	 2.19704000E-01	 5.00003000E-01
					-1.26885000E-01	 2.15407000E-01	 6.66670000E-01
					-2.54949000E-02	 3.64595000E-01	 3.33337000E-01
					-3.82036000E-02	 3.63483000E-01	 5.00003000E-01
					-5.08657000E-02	 3.61928000E-01	 6.66670000E-01
					-1.95392000E-02	 9.94993000E-01	 3.33337000E-01
					-1.95392000E-02	 9.94993000E-01	 5.00003000E-01
					-6.53167000E-02	 9.91143000E-01	 6.44012000E-01
					-7.78541000E-03	 8.95686000E-01	 3.33337000E-01
					-7.78541000E-03	 8.95686000E-01	 5.00003000E-01
					-3.99021000E-02	 8.87826000E-01	 6.53001000E-01
					 3.96833000E-03	 7.96379000E-01	 3.33337000E-01
					 3.96833000E-03	 7.96379000E-01	 5.00003000E-01
					 3.96833000E-03	 7.96379000E-01	 6.66670000E-01
					 1.88491000E-01	 6.92919000E-01	 1.66670000E-01
					-2.42037000E-01	 7.77922000E-01	 1.66670000E-01
					-2.36368000E-01	 6.78083000E-01	 1.66670000E-01
					-2.14740000E-01	 7.85895000E-01	 0.00000000E+00
					 1.03275000E-01	 8.08133000E-01	 6.66670000E-01
					 1.31416000E-01	 8.04036000E-01	 5.00003000E-01
					 1.59396000E-01	 7.98960000E-01	 3.33337000E-01
					 2.12559000E-01	 6.85919000E-01	 0.00000000E+00
					-2.12559000E-01	 6.85919000E-01	 0.00000000E+00
					-2.59888000E-01	 6.69421000E-01	 3.33337000E-01
					-3.05952000E-01	 6.49661000E-01	 6.66670000E-01
					-2.83093000E-01	 6.59943000E-01	 5.00003000E-01
					 2.14740000E-01	 7.85895000E-01	 0.00000000E+00
					-3.22026000E-01	 7.48361000E-01	 6.66670000E-01
					-2.95713000E-01	 7.59143000E-01	 5.00003000E-01
					-2.69039000E-01	 7.69001000E-01	 3.33337000E-01
					 1.15029000E-01	 7.08826000E-01	 6.66670000E-01
					 1.39697000E-01	 7.04380000E-01	 5.00003000E-01
					 1.64194000E-01	 6.99075000E-01	 3.33337000E-01
					 1.87182000E-01	 7.92911000E-01	 1.66670000E-01
					-1.95392000E-02	 1.19499000E+00	 5.00003000E-01
					-1.95392000E-02	 1.39499000E+00	 5.00003000E-01
					-1.95392000E-02	 1.59499000E+00	 5.00003000E-01
					-1.95392000E-02	 1.79499000E+00	 5.00003000E-01
					-1.95392000E-02	 1.99499000E+00	 5.00003000E-01
					-1.51975000E-02	 1.19507000E+00	 0.00000000E+00
					-1.51975000E-02	 1.39507000E+00	 0.00000000E+00
					-1.51975000E-02	 1.59507000E+00	 0.00000000E+00
					-1.51975000E-02	 1.79507000E+00	 0.00000000E+00
					-1.51975000E-02	 1.99507000E+00	 0.00000000E+00
					-1.01866000E-01	 1.18996000E+00	 1.66670000E-01
					-1.01866000E-01	 1.38996000E+00	 1.66670000E-01
					-1.01866000E-01	 1.58996000E+00	 1.66670000E-01
					-1.01866000E-01	 1.78996000E+00	 1.66670000E-01
					-1.01866000E-01	 1.98996000E+00	 1.66670000E-01
					-6.53167000E-02	 1.19114000E+00	 6.44012000E-01
					-6.53167000E-02	 1.39114000E+00	 6.44012000E-01
					-6.53167000E-02	 1.59114000E+00	 6.44012000E-01
					-6.53167000E-02	 1.79114000E+00	 6.44012000E-01
					-6.53167000E-02	 1.99114000E+00	 6.44012000E-01
					-2.21752000E-01	 1.17016000E+00	 5.00003000E-01
					-2.21752000E-01	 1.37016000E+00	 5.00003000E-01
					-2.21752000E-01	 1.57016000E+00	 5.00003000E-01
					-2.21752000E-01	 1.77016000E+00	 5.00003000E-01
					-2.21752000E-01	 1.97016000E+00	 5.00003000E-01
					-2.12967000E-01	 1.17034000E+00	 6.40408000E-01
					-2.12967000E-01	 1.37034000E+00	 6.40408000E-01
					-2.12967000E-01	 1.57034000E+00	 6.40408000E-01
					-2.12967000E-01	 1.77034000E+00	 6.40408000E-01
					-2.12967000E-01	 1.97034000E+00	 6.40408000E-01
					-3.48995000E-02	 1.19939000E+00	 1.66670000E-01
					-3.48995000E-02	 1.39939000E+00	 1.66670000E-01
					-3.48995000E-02	 1.59939000E+00	 1.66670000E-01
					-3.48995000E-02	 1.79939000E+00	 1.66670000E-01
					-3.48995000E-02	 1.99939000E+00	 1.66670000E-01
					-1.70673000E-01	 1.18044000E+00	 3.33337000E-01
					-1.70673000E-01	 1.38044000E+00	 3.33337000E-01
					-1.70673000E-01	 1.58044000E+00	 3.33337000E-01
					-1.70673000E-01	 1.78044000E+00	 3.33337000E-01
					-1.70673000E-01	 1.98044000E+00	 3.33337000E-01
					-1.39173000E-01	 1.19027000E+00	 6.66670000E-01
					-1.39173000E-01	 1.39027000E+00	 6.66670000E-01
					-1.39173000E-01	 1.59027000E+00	 6.66670000E-01
[...]
			<PointData>
				<DataArray type="Float32" Name="U" NumberOfComponents="3" ComponentName0="D1" ComponentName1="D2" ComponentName2="D3" format="ascii">
					 6.88359000E-03	-4.39283000E-03	 1.27179000E-02
					 2.03979000E-02	 1.10994000E-02	-2.12496000E-02
					 1.96479000E-02	 8.34577000E-03	-9.66311000E-04
					 5.14430000E-03	-1.43511000E-02	 4.28641000E-03
					 1.14515000E-03	-6.25617000E-03	 1.11488000E-02
					 1.33460000E-02	 1.04778000E-02	 1.85533000E-03
					 1.05893000E-02	-2.82531000E-03	 1.23701000E-02
					 8.61844000E-03	-1.61758000E-02	 8.38234000E-04
					 5.77419000E-03	 7.29398000E-03	-4.49545000E-03
					 9.92783000E-03	 3.52965000E-03	 1.07578000E-04
					 1.51900000E-02	-1.51047000E-02	 1.27481000E-02
					 6.24825000E-03	-2.31432000E-02	 6.49836000E-03
					-4.54754000E-03	-9.90997000E-03	-1.22728000E-03
					 1.08063000E-02	-1.71703000E-02	 8.22313000E-03
					 9.95740000E-03	-2.18396000E-02	 4.73052000E-03
					-5.23486000E-03	-1.30035000E-02	-1.08287000E-02
					-5.78644000E-04	-1.91287000E-02	 1.02296000E-02
					 3.48602000E-03	-1.08965000E-02	-1.40543000E-02
					 8.56936000E-03	-5.00262000E-03	-1.75640000E-02
					 4.25690000E-03	 8.81612000E-04	 7.42134000E-04
					 1.19758000E-02	 6.31752000E-03	-2.14839000E-02
					-5.92113000E-03	-1.87810000E-02	 3.99491000E-03
					 1.05371000E-03	-7.14203000E-03	-1.41994000E-03
					-6.63034000E-04	-1.66893000E-02	-6.69045000E-03
					 7.46777000E-03	-9.45370000E-03	-1.11131000E-02
					 9.38891000E-03	-1.75928000E-03	-1.53689000E-02
					 1.32034000E-02	 7.28285000E-03	-1.93922000E-02
					 3.24790000E-03	-5.31741000E-03	 2.66292000E-03
					 1.06653000E-02	-4.33898000E-03	-5.33154000E-03
					 5.66936000E-03	-1.23397000E-02	 4.21605000E-03
					 1.85714000E-02	 1.80417000E-04	-1.40200000E-02
					 1.75014000E-02	 5.51685000E-03	-1.88354000E-02
					 8.88938000E-03	-8.80007000E-03	-8.77381000E-03
					 2.08976000E-02	 1.05135000E-02	-2.13290000E-02
					 1.70567000E-03	-5.87747000E-03	 6.74838000E-03
					 6.10878000E-03	 4.82301000E-03	 4.15771000E-03
					 1.04970000E-02	 8.33797000E-06	-4.36464000E-03
					-3.62028000E-03	-1.42537000E-02	 9.79812000E-03
					 2.00727000E-02	-6.09490000E-04	-1.21574000E-02
					 1.87782000E-02	 3.41304000E-03	-1.94250000E-02
					 9.65474000E-03	-1.11936000E-03	-1.34369000E-02
					 2.07149000E-02	 9.29278000E-03	-2.33267000E-02
					 4.38369000E-03	-6.57249000E-03	 2.61385000E-03
					 1.35052000E-02	 7.39717000E-03	-1.78633000E-02
					 8.11193000E-03	-1.30251000E-02	 1.07683000E-02
					 6.49377000E-03	-5.29269000E-03	-6.46516000E-03
					 1.52713000E-02	-5.42254000E-04	-1.24470000E-02
					 1.65499000E-02	 5.51803000E-03	-1.94893000E-02
					 1.25665000E-02	-2.31474000E-03	-3.07701000E-03
					 1.02676000E-02	 1.00794000E-02	 5.15829000E-04
					-2.27986000E-03	 2.08741000E-02	-1.23393000E-03
					 6.03694000E-03	 4.17774000E-04	 8.02914000E-03
					-2.70304000E-03	 5.91276000E-03	 8.09652000E-03
					-8.33185000E-03	 1.52640000E-02	-2.16823000E-04
					 9.03595000E-03	 1.81100000E-03	-3.67251000E-02
					 3.79487000E-03	 3.26472000E-03	-4.63840000E-02
					-1.61108000E-02	 7.36892000E-03	-4.30524000E-02
					 1.50325000E-02	 3.36239000E-03	-3.12010000E-02
					 7.86114000E-03	 9.86789000E-03	-3.91768000E-02
					-8.09109000E-03	 2.22138000E-02	-3.94975000E-02
					 2.26405000E-02	 9.65077000E-03	-2.10569000E-02
					 1.48255000E-02	 2.14390000E-02	-2.59873000E-02
					 1.36464000E-03	 3.32951000E-02	-2.63200000E-02
					 1.62640000E-02	 1.15496000E-02	-1.24891000E-02
					 7.99106000E-03	 2.39326000E-02	-1.82997000E-02
					-9.07862000E-04	 3.56576000E-02	-2.09355000E-02
					-1.85402000E-03	-6.02213000E-03	 5.96177000E-03
					-7.73718000E-03	-6.73026000E-03	 8.98364000E-03
					-1.12935000E-02	-5.35252000E-04	 9.04020000E-03
					 7.87268000E-03	 8.97690000E-03	-4.48857000E-04
					-3.82321000E-03	 1.82543000E-02	-2.96936000E-03
					-5.19819000E-03	 2.59052000E-02	-3.98369000E-03
					 1.07500000E-02	 6.43243000E-03	-2.63308000E-02
					 2.49202000E-03	 7.25812000E-03	-3.20639000E-02
					-1.65742000E-02	 8.08998000E-03	-3.25873000E-02
					 1.58734000E-02	 8.32730000E-03	-2.32850000E-02
					 8.62983000E-03	 1.12639000E-02	-2.83373000E-02
					-4.32222000E-03	 2.31256000E-02	-3.02283000E-02
					 2.03484000E-02	 6.92882000E-03	-1.51426000E-02
					 1.47505000E-02	 1.46339000E-02	-1.86346000E-02
					 4.22363000E-03	 3.04926000E-02	-1.91977000E-02
					 1.11387000E-03	 7.79439000E-03	-4.59843000E-03
					-6.87172000E-03	 1.44982000E-02	-1.69713000E-03
					-4.84132000E-03	 1.07247000E-02	 2.91090000E-03
					 1.65506000E-02	 4.29472000E-03	-9.24766000E-03
					 1.17442000E-02	 1.52053000E-02	-1.20995000E-02
					-1.33569000E-04	 3.06223000E-02	-1.43195000E-02
					 8.09517000E-03	 3.37770000E-03	 1.41282000E-03
					-2.41814000E-03	 1.46843000E-02	 2.17826000E-04
					-7.36746000E-03	 2.59881000E-02	-4.95096000E-03
					-6.63310000E-03	-1.39344000E-03	 9.78936000E-03
					-8.88218000E-03	-5.93789000E-03	 7.94727000E-03
					-1.07722000E-02	-2.14415000E-03	 8.80851000E-04
					-3.48517000E-04	-4.73588000E-03	 8.03546000E-04
					-6.42144000E-03	-4.25892000E-03	 6.58294000E-03
					-8.16649000E-03	-3.35833000E-04	 7.98216000E-03
					-1.80491000E-03	 7.25810000E-03	 8.52433000E-04
					-3.48745000E-03	 1.58794000E-02	-5.67948000E-03
					-1.76013000E-04	 1.34331000E-02	-6.31661000E-03
					-3.58474000E-03	 1.01171000E-03	 1.07967000E-02
					-3.62140000E-03	 2.47122000E-03	 5.21719000E-03
					-6.29860000E-03	 5.28001000E-03	 2.95701000E-03
					 1.68250000E-03	 5.37774000E-03	 1.03714000E-02
					-8.39055000E-03	 1.24886000E-02	 6.43513000E-03
					-1.06288000E-02	 1.98670000E-02	 3.08698000E-03
					-3.40940000E-03	 3.26595000E-03	 5.63997000E-03
					 4.97707000E-04	 1.16279000E-02	-1.19045000E-03
					 2.73509000E-03	 1.14833000E-02	-6.32418000E-03
					 2.92521000E-04	 2.12840000E-03	 1.33510000E-02
					-7.39853000E-03	 7.54522000E-03	 7.33195000E-03
					-1.16580000E-02	 1.07842000E-02	 3.29295000E-03
					 1.19572000E-02	 7.73388000E-03	-2.20626000E-02
					 2.97942000E-03	 9.40343000E-03	-2.27666000E-02
					-1.02160000E-02	 1.27315000E-02	-2.47774000E-02
					 1.64102000E-02	 9.30043000E-03	-2.08291000E-02
					 1.00813000E-02	 1.48488000E-02	-2.23940000E-02
					-1.45855000E-03	 2.64443000E-02	-2.08861000E-02
					 2.06261000E-02	 2.90082000E-03	-1.10959000E-02
					 1.47904000E-02	 1.38121000E-02	-1.04408000E-02
					 6.03193000E-03	 2.56505000E-02	-8.26010000E-03
					 6.01822000E-03	-1.49187000E-02	-1.23201000E-02
					 2.18959000E-02	 1.67481000E-02	-9.15430000E-03
					 9.29958000E-03	 1.34239000E-02	-8.61202000E-03
					 1.41623000E-02	 1.18549000E-02	-1.06460000E-03
					 7.54160000E-03	 1.18130000E-02	-2.40375000E-04
					 1.49452000E-02	 4.05942000E-03	-2.18369000E-03
					 2.09992000E-02	-1.11149000E-02	-5.28107000E-03
					-5.66282000E-03	-2.01375000E-02	-1.71088000E-02
					 3.30307000E-03	 1.02957000E-02	-2.10783000E-03
					 1.20224000E-02	 2.39503000E-02	-2.01292000E-02
					-5.87808000E-03	 4.67309000E-02	-3.08347000E-02
					 3.91006000E-03	 3.61803000E-02	-2.84819000E-02
					 1.54824000E-03	-2.14310000E-02	-1.68238000E-02
					 3.11274000E-03	 4.87696000E-02	-3.39826000E-02
					 1.76183000E-02	 4.01579000E-02	-3.35099000E-02
					 2.39491000E-02	 2.88229000E-02	-2.32633000E-02
					-7.07800000E-04	 1.32651000E-02	 3.96304000E-03
					 8.99723000E-03	 6.06139000E-03	 2.71371000E-03
					 1.09363000E-02	-1.00198000E-02	-4.18681000E-03
					 1.55447000E-02	-1.60267000E-02	-1.24904000E-02
					-4.91607000E-03	 2.89586000E-03	-7.48691000E-03
					-6.31968000E-03	-9.06412000E-03	 4.54123000E-03
					 1.88954000E-03	-1.76342000E-02	 9.29622000E-03
					 1.22031000E-02	-1.25745000E-02	-1.05742000E-02
					-1.00538000E-02	-6.48361000E-03	-1.14046000E-02
					 6.86546000E-03	 1.08235000E-02	-1.68137000E-02
					-2.85840000E-02	 1.25740000E-02	-1.29010000E-02
					-1.14747000E-02	 2.38600000E-02	-5.74474000E-03
					 3.08130000E-02	 2.11318000E-02	 1.90044000E-02
					 3.17907000E-02	 1.71105000E-02	 3.51955000E-02
					 6.47963000E-03	 3.12818000E-03	-1.40765000E-02
					-2.11245000E-02	 3.43661000E-05	-2.79112000E-03
					-1.04931000E-02	 5.90324000E-03	 1.30950000E-03
					 8.22872000E-03	 4.65246000E-03	 4.02253000E-03
					-1.33128000E-03	 3.24103000E-03	 1.22872000E-02
					-1.77920000E-02	-1.22201000E-02	-1.41970000E-02
					-8.98837000E-03	-2.10239000E-02	 4.42323000E-03
					 1.19655000E-02	-2.19119000E-02	 1.04036000E-02
					 2.72826000E-02	-2.07264000E-02	-6.52460000E-03
					 1.37461000E-02	-2.26297000E-02	-8.78699000E-03
					-8.64409000E-03	 8.89351000E-04	-3.13458000E-02
					-9.51826000E-03	-2.37573000E-03	 4.86299000E-04
					-1.70418000E-03	-2.21417000E-03	 1.80838000E-02
					 7.24269000E-03	-1.52807000E-02	 1.35236000E-02
					-9.08633000E-03	-2.89067000E-02	 9.55426000E-03
					-2.33369000E-02	-1.30777000E-02	-3.26234000E-02
					-1.14299000E-02	-1.32326000E-02	-2.45729000E-03
					 7.89125000E-03	-1.23857000E-02	 2.05138000E-02
					 2.55550000E-02	-2.20690000E-02	 1.55850000E-02
					 1.46665000E-02	-3.44723000E-02	 1.55347000E-02
					 4.01348000E-03	 7.62646000E-03	-1.24480000E-02
					-2.23367000E-02	 4.71959000E-03	-7.98174000E-03
					-9.49937000E-03	 3.42435000E-03	-2.21372000E-03
					 1.00489000E-02	 4.70469000E-03	 1.32600000E-02
					-4.25859000E-04	 7.16647000E-03	 2.58088000E-02
					 5.11408000E-03	-2.42372000E-03	-1.95550000E-02
					-9.80332000E-03	-1.89179000E-03	 4.28582000E-03
					-5.88827000E-03	-4.37359000E-03	 1.23202000E-02
					-6.13841000E-03	-1.50706000E-02	 2.01937000E-03
					-2.11915000E-02	-1.67554000E-02	 1.96120000E-04
					-2.25727000E-02	-1.59009000E-02	-2.34489000E-02
					-1.02285000E-02	-2.07112000E-02	 2.74222000E-03
					 1.27352000E-02	-1.81928000E-02	 1.70072000E-02
					 2.95276000E-02	-2.39411000E-02	 2.43231000E-03
					 1.75399000E-02	-3.22869000E-02	 2.33522000E-03
					-7.07080000E-03	 9.17384000E-04	-1.55492000E-02
					-6.85839000E-03	-4.81633000E-03	 3.01548000E-03
					 6.69338000E-04	-1.03904000E-02	 1.38667000E-02
					 1.06494000E-02	-1.59834000E-02	-3.03814000E-03
					-1.14104000E-02	-1.95671000E-02	-2.84166000E-03
					 3.78133000E-03	 9.44909000E-04	-1.01900000E-02
					-9.52023000E-03	-3.55859000E-03	-7.58931000E-05
					-6.97663000E-03	-8.47076000E-03	 7.61143000E-03
					-4.26132000E-03	-9.24144000E-03	 2.95559000E-04
					-2.28773000E-02	-1.71769000E-03	 4.02939000E-03
					 6.21116000E-03	 1.36168000E-02	-1.71664000E-02
					-2.93072000E-02	 1.47271000E-02	-1.36283000E-02
					-1.05808000E-02	 1.98532000E-02	-5.33412000E-03
					 3.14617000E-02	 1.80191000E-02	 2.22354000E-02
					 3.12601000E-02	 1.77342000E-02	 3.90614000E-02
					 3.42062000E-03	 5.29479000E-03	-9.54948000E-03
					-9.54511000E-03	-1.26497000E-03	-3.75510000E-03
					-8.15501000E-03	-1.14909000E-02	 6.35954000E-03
					-2.87445000E-03	-8.58633000E-03	 2.49194000E-03
					-2.10932000E-02	 4.29829000E-03	 7.45712000E-03
					 4.05349000E-03	 1.21671000E-02	-1.35543000E-02
					-2.16897000E-02	 7.22412000E-03	-1.27790000E-02
					-1.07634000E-02	-1.84168000E-03	-3.13900000E-03
					 1.07764000E-02	 2.86685000E-03	 1.93048000E-02
					 9.86325000E-04	 9.70859000E-03	 3.57152000E-02
					 6.22729000E-03	 1.83565000E-02	-1.68757000E-02
					-2.90550000E-02	 1.84729000E-02	-1.43928000E-02
					-1.16637000E-02	 1.34444000E-02	-6.34593000E-03
					 3.10924000E-02	 1.41569000E-02	 2.55904000E-02
					 3.15539000E-02	 1.98529000E-02	 4.40054000E-02
					-3.75417000E-03	-9.69442000E-03	-7.38529000E-03
					 3.58816000E-03	-2.11286000E-02	 4.20951000E-03
					 6.24825000E-03	-2.31432000E-02	 6.49836000E-03
					-1.59658000E-02	-7.21021000E-04	-6.16948000E-03
					 2.29772000E-03	-3.52841000E-03	-9.68467000E-03
					 9.95740000E-03	-2.18396000E-02	 4.73052000E-03
					-7.86029000E-03	-1.27476000E-02	-5.95254000E-03
					-1.99712000E-02	 1.44859000E-03	-5.34315000E-03
					 8.11193000E-03	-1.30251000E-02	 1.07683000E-02
					 5.14430000E-03	-1.43511000E-02	 4.28641000E-03
					-1.00627000E-02	-1.38374000E-02	-3.87842000E-03
					-2.10457000E-02	-2.75290000E-03	-8.22376000E-03
					 5.77769000E-03	 2.64019000E-04	 1.61229000E-03
					-5.24687000E-03	-1.15668000E-02	-1.61462000E-03
					-2.13193000E-02	-1.46373000E-03	-8.54529000E-03
					 2.09690000E-03	 5.45702000E-03	 5.19561000E-03
					 4.29745000E-03	-4.93924000E-04	-4.79759000E-03
					-1.40209000E-03	 9.94526000E-04	 1.78299000E-03
					-1.36864000E-03	-6.87107000E-03	-1.72933000E-03
					 5.66936000E-03	-1.23397000E-02	 4.21605000E-03
					 1.44217000E-03	-1.36826000E-02	 6.13849000E-03
					 5.46160000E-03	 5.51480000E-03	-3.26744000E-03
					 1.04153000E-02	-4.94240000E-03	-8.17702000E-03
					 2.38487000E-03	 3.40270000E-03	-2.08448000E-03
					-9.34812000E-04	-4.76609000E-03	-4.03790000E-03
					-3.87869000E-04	-8.99576000E-03	-2.24332000E-03
					 8.74529000E-04	-1.44327000E-02	 5.30624000E-03
					 3.55409000E-03	-5.80814000E-04	-3.81221000E-03
					-1.25090000E-03	-3.93331000E-03	-4.82094000E-03
					-1.71274000E-02	 2.41340000E-03	-6.70452000E-03
					-6.18778000E-03	-1.34695000E-02	-2.94290000E-03
					-1.07534000E-03	-1.73627000E-02	 7.80429000E-04
					-9.40465000E-04	-6.99911000E-03	-7.40724000E-03
					 1.53673000E-03	-1.95022000E-02	 6.17132000E-03
					 1.04568000E-03	 2.35256000E-03	-8.83932000E-03
					 8.61844000E-03	-1.61758000E-02	 8.38234000E-04
					 4.06034000E-03	-8.71934000E-03	-5.74692000E-03
					 5.76146000E-03	 4.57313000E-03	-1.02211000E-02
					-4.97345000E-03	-1.68299000E-02	-5.20662000E-03
					-3.37409000E-03	-1.65977000E-02	 3.08195000E-03
					-6.23843000E-05	-9.16882000E-03	-3.22530000E-03
					-1.55448000E-03	-1.70927000E-02	 1.00199000E-02
					 5.73881000E-04	-2.67605000E-03	-1.90372000E-03
					 5.94755000E-04	-1.45927000E-02	 4.11071000E-03
					-1.38431000E-02	-8.60997000E-04	-1.07332000E-02
					-3.64151000E-03	 1.09428000E-03	-2.25123000E-04
					-6.99017000E-03	-8.80896000E-03	-7.33531000E-04
					-8.88208000E-04	-1.66566000E-02	 1.20681000E-03
					-9.26310000E-03	-3.03936000E-03	-4.97971000E-03
					-3.08333000E-03	-7.31893000E-03	-5.83642000E-03
					 1.12323000E-02	-5.06317000E-03	-2.22754000E-03
					-3.11232000E-03	-3.05514000E-04	-7.51447000E-03
					 1.89722000E-03	 2.13811000E-03	-6.83326000E-03
					 7.54068000E-03	-1.45963000E-03	 1.49850000E-03
					-2.14105000E-03	-1.96202000E-03	 1.97773000E-02
					-2.62841000E-03	 3.84140000E-03	 2.66137000E-02
					 1.09988000E-02	 1.08627000E-02	 2.58906000E-02
					-9.78124000E-03	-1.05909000E-02	 1.53491000E-02
					-5.79118000E-03	-7.13378000E-03	 2.73143000E-02
					 1.58989000E-02	 1.14658000E-04	 2.97011000E-02
					-8.88672000E-03	-1.71113000E-02	 8.46793000E-03
					-2.91265000E-03	-1.55011000E-02	 1.96631000E-02
					 1.45443000E-02	-1.19704000E-02	 2.44569000E-02
					-2.03701000E-03	-1.19368000E-02	 5.87210000E-03
					 3.67388000E-03	-9.37849000E-03	 1.49847000E-02
					 1.51422000E-02	-1.23690000E-02	 1.83291000E-02
					-1.80491000E-03	 7.25810000E-03	 8.52433000E-04
					-3.48745000E-03	 1.58794000E-02	-5.67948000E-03
					-1.76013000E-04	 1.34331000E-02	-6.31661000E-03
					 3.79057000E-03	-2.61447000E-03	-4.19485000E-03
					 1.04477000E-02	-1.30164000E-03	-1.66985000E-03
					 1.23236000E-02	-9.78910000E-03	 1.20735000E-03
					 5.21171000E-03	-8.66489000E-03	 1.13633000E-02
					 5.12051000E-03	-6.96553000E-04	 1.67594000E-02
					 9.51896000E-03	 1.04999000E-02	 1.67870000E-02
					-5.30390000E-03	-1.62670000E-02	 1.02352000E-02
					-1.98890000E-03	-1.04718000E-02	 1.73083000E-02
					 1.37708000E-02	-2.67063000E-03	 1.80037000E-02
					-1.14275000E-02	-1.63556000E-02	 2.74869000E-03
					-4.34537000E-03	-1.39105000E-02	 9.40000000E-03
					 1.36205000E-02	-1.18605000E-02	 1.38178000E-02
					 5.28707000E-03	-2.27516000E-03	-3.28620000E-03
					 1.54320000E-02	 1.25570000E-03	-5.54717000E-03
					 1.34219000E-02	 4.88888000E-03	-4.99748000E-03
					-7.31645000E-03	-9.59080000E-03	-8.01195000E-04
					-1.22746000E-03	-8.52623000E-03	 6.16256000E-03
					 1.38004000E-02	-8.98023000E-03	 9.43486000E-03
					 2.75534000E-04	-1.92431000E-03	-4.01963000E-03
					 6.53448000E-03	-1.75875000E-03	-7.62189000E-04
					 1.12764000E-02	-7.33545000E-03	 2.85179000E-03
					 1.11387000E-03	 7.79439000E-03	-4.59843000E-03
					-6.87172000E-03	 1.44982000E-02	-1.69713000E-03
					-4.84132000E-03	 1.07247000E-02	 2.91090000E-03
					-3.40940000E-03	 3.26595000E-03	 5.63997000E-03
					 4.97707000E-04	 1.16279000E-02	-1.19045000E-03
					 2.73509000E-03	 1.14833000E-02	-6.32418000E-03
					 3.04088000E-03	-3.59917000E-03	-7.16730000E-03
					 1.26366000E-02	-4.65476000E-03	-9.51635000E-04
					 1.30739000E-02	-1.96357000E-03	-1.07174000E-04
					 1.67285000E-03	 2.67197000E-03	-9.07157000E-03
					 6.46120000E-03	 3.21585000E-03	-7.06555000E-03
					 1.18426000E-02	 3.69163000E-03	-7.21058000E-03
					 3.74907000E-03	-1.93818000E-03	-1.06410000E-02
					 9.66015000E-03	-1.75189000E-03	-5.47510000E-03
					 1.24812000E-02	-3.86714000E-03	-1.56123000E-03
					 1.93946000E-03	 4.91966000E-04	-8.77967000E-03
					 6.87130000E-03	-5.70420000E-03	-4.89939000E-03
					 8.41241000E-03	-6.05193000E-03	 9.61587000E-04
					 1.10637000E-03	 1.48760000E-03	-1.24765000E-02
					 9.46340000E-03	 3.99950000E-04	-8.77467000E-03
					 1.55218000E-02	 3.82620000E-03	-6.93038000E-03
					 6.56543000E-03	-1.22817000E-02	 7.82732000E-03
					 7.64872000E-03	-4.52019000E-03	 1.02229000E-02
					 9.46165000E-03	 3.27272000E-03	 1.26167000E-02
					-3.12595000E-03	-1.87998000E-02	 8.77901000E-03
					 9.63758000E-04	-1.26944000E-02	 1.15523000E-02
					 1.36746000E-02	-7.39170000E-03	 1.14879000E-02
					-1.32882000E-02	-1.34872000E-02	 1.23478000E-03
					-4.30242000E-03	-1.19302000E-02	 3.32048000E-03
					 8.96910000E-03	-1.19071000E-02	 2.97725000E-03
					-1.05936000E-02	 8.25506000E-03	 2.76999000E-03
					 8.72559000E-03	-3.14630000E-02	-5.25486000E-03
					 1.63350000E-02	-1.90766000E-02	 1.78104000E-03
					 1.29386000E-02	-3.48799000E-02	-1.20458000E-02
					 1.07790000E-03	-6.79741000E-03	-4.45197000E-03
					-5.71038000E-03	-7.56492000E-03	-5.54048000E-03
					-1.92138000E-02	-3.38594000E-03	-3.65854000E-03
					-2.38409000E-03	 1.19098000E-02	 5.90294000E-03
					 2.31408000E-02	-2.22124000E-02	-4.59046000E-03
					 6.45725000E-03	-1.52627000E-02	 1.73149000E-02
					 2.27870000E-02	-1.59000000E-02	 2.91566000E-02
					 9.51342000E-03	-1.50423000E-02	 2.64979000E-02
					-6.32209000E-03	 8.29064000E-03	 2.60309000E-03
					 2.05965000E-02	-1.97885000E-02	 3.27149000E-02
					 5.80266000E-03	-2.53487000E-02	 2.86403000E-02
					 3.27793000E-03	-2.41792000E-02	 1.12472000E-02
					 6.14309000E-03	-2.90392000E-03	-6.89261000E-03
					-3.86444000E-03	-8.07405000E-03	-9.32325000E-03
					-1.23651000E-02	 2.32999000E-03	-3.41037000E-03
					-1.65774000E-02	 2.20075000E-03	 1.41597000E-03
					 7.01709000E-03	 1.00898000E-02	 2.63091000E-03
					-7.16311000E-03	 1.63748000E-02	-1.46416000E-02
					-1.24217000E-02	 7.65613000E-03	-2.18111000E-02
					-9.81082000E-03	-6.57516000E-03	 8.11625000E-03
					 1.50303000E-02	 4.34892000E-03	 2.30987000E-02
					 1.04118000E-02	-4.84804000E-03	 1.32358000E-02
					 3.98638000E-02	 1.79833000E-02	 1.72831000E-02
					 3.94920000E-02	 5.47962000E-03	 3.86603000E-03
					 1.07558000E-02	-1.85924000E-02	-1.07086000E-02
					 3.43242000E-03	-2.24356000E-02	-2.06414000E-02
					 7.75021000E-03	 1.30718000E-04	 1.38590000E-02
					 1.96699000E-02	 9.96778000E-03	 2.93345000E-03
					 1.11653000E-02	-2.92492000E-03	-1.23568000E-02
					-5.88888000E-03	-1.45312000E-02	-7.02945000E-03
					 4.27770000E-03	-1.38878000E-03	-4.25356000E-03
					-6.79124000E-04	 2.16086000E-02	 4.49680000E-03
					-5.92114000E-03	 2.39699000E-02	-1.35206000E-02
					-7.49268000E-03	 9.50277000E-03	-1.80642000E-02
					-6.07394000E-03	-7.79723000E-03	 9.08715000E-03