# vtk DataFile Version 3.0

ASCII
DATASET UNSTRUCTURED_GRID

POINTS 3432 double
	 0.00000000E+00	 0.00000000E+00	 1.27000000E-02
	 0.00000000E+00	 1.27000000E-02	 1.27000000E-02
	 0.00000000E+00	 1.27000000E-02	 0.00000000E+00
	 0.00000000E+00	 0.00000000E+00	 0.00000000E+00
	 4.50000000E-02	 1.27000000E-02	 1.27000000E-02
	 4.50000000E-02	 0.00000000E+00	 1.27000000E-02
	 4.50000000E-02	 1.27000000E-02	 0.00000000E+00
	 4.50000000E-02	 0.00000000E+00	 0.00000000E+00
	 0.00000000E+00	 2.54000000E-02	 1.27000000E-02
	 0.00000000E+00	 2.54000000E-02	 0.00000000E+00
	 4.50000000E-02	 2.54000000E-02	 1.27000000E-02
	 4.50000000E-02	 2.54000000E-02	 0.00000000E+00
	 5.12690000E-02	 1.27000000E-02	 1.27000000E-02
	 5.38263000E-02	 6.52625000E-03	 1.27000000E-02
	 5.12690000E-02	 1.27000000E-02	 0.00000000E+00
	 5.38263000E-02	 6.52625000E-03	 0.00000000E+00
	 5.38263000E-02	 1.88737000E-02	 0.00000000E+00
	 5.38263000E-02	 1.88737000E-02	 1.27000000E-02
	 6.00000000E-02	 0.00000000E+00	 0.00000000E+00
	 6.00000000E-02	 0.00000000E+00	 1.27000000E-02
	 6.00000000E-02	 3.96900000E-03	 0.00000000E+00
	 6.00000000E-02	 3.96900000E-03	 1.27000000E-02
	 5.57840000E-02	 1.27000000E-02	 1.27000000E-02
	 6.00000000E-02	 8.48400000E-03	 1.27000000E-02
	 5.57840000E-02	 1.27000000E-02	 0.00000000E+00
	 6.00000000E-02	 8.48400000E-03	 0.00000000E+00
	 6.00000000E-02	 2.54000000E-02	 0.00000000E+00
	 6.00000000E-02	 2.54000000E-02	 1.27000000E-02
	 6.00000000E-02	 2.14310000E-02	 0.00000000E+00
	 6.00000000E-02	 2.14310000E-02	 1.27000000E-02
	 6.00000000E-02	 1.69160000E-02	 0.00000000E+00
	 6.00000000E-02	 1.69160000E-02	 1.27000000E-02
	 7.50000000E-02	 0.00000000E+00	 0.00000000E+00
	 7.50000000E-02	 0.00000000E+00	 1.27000000E-02
	 6.61737000E-02	 6.52625000E-03	 0.00000000E+00
	 6.61737000E-02	 6.52625000E-03	 1.27000000E-02
	 6.42160000E-02	 1.27000000E-02	 1.27000000E-02
	 6.87310000E-02	 1.27000000E-02	 1.27000000E-02
	 6.42160000E-02	 1.27000000E-02	 0.00000000E+00
	 6.87310000E-02	 1.27000000E-02	 0.00000000E+00
	 7.50000000E-02	 2.54000000E-02	 0.00000000E+00
	 7.50000000E-02	 2.54000000E-02	 1.27000000E-02
	 6.61737000E-02	 1.88737000E-02	 0.00000000E+00
	 6.61737000E-02	 1.88737000E-02	 1.27000000E-02
	 1.20000000E-01	 0.00000000E+00	 0.00000000E+00
	 1.20000000E-01	 0.00000000E+00	 1.27000000E-02
	 7.50000000E-02	 1.27000000E-02	 0.00000000E+00
	 1.20000000E-01	 1.27000000E-02	 0.00000000E+00
	 1.20000000E-01	 1.27000000E-02	 1.27000000E-02
	 7.50000000E-02	 1.27000000E-02	 1.27000000E-02
	 1.20000000E-01	 2.54000000E-02	 0.00000000E+00
	 1.20000000E-01	 2.54000000E-02	 1.27000000E-02
	 4.50000000E-02	 1.01600000E-02	 1.27000000E-02
	 4.50000000E-02	 7.62000000E-03	 1.27000000E-02
	 4.50000000E-02	 5.08000000E-03	 1.27000000E-02
	 4.50000000E-02	 2.54000000E-03	 1.27000000E-02
	 0.00000000E+00	 2.54000000E-03	 1.27000000E-02
	 0.00000000E+00	 5.08000000E-03	 1.27000000E-02
	 0.00000000E+00	 7.62000000E-03	 1.27000000E-02
	 0.00000000E+00	 1.01600000E-02	 1.27000000E-02
	 0.00000000E+00	 1.27000000E-02	 2.54000000E-03
	 0.00000000E+00	 1.27000000E-02	 5.08000000E-03
	 0.00000000E+00	 1.27000000E-02	 7.62000000E-03
	 0.00000000E+00	 1.27000000E-02	 1.01600000E-02
	 0.00000000E+00	 2.54000000E-03	 0.00000000E+00
	 0.00000000E+00	 5.08000000E-03	 0.00000000E+00
	 0.00000000E+00	 7.62000000E-03	 0.00000000E+00
	 0.00000000E+00	 1.01600000E-02	 0.00000000E+00
	 0.00000000E+00	 0.00000000E+00	 2.54000000E-03
	 0.00000000E+00	 0.00000000E+00	 5.08000000E-03
	 0.00000000E+00	 0.00000000E+00	 7.62000000E-03
	 0.00000000E+00	 0.00000000E+00	 1.01600000E-02
	 4.25000000E-02	 1.27000000E-02	 1.27000000E-02
	 4.00000000E-02	 1.27000000E-02	 1.27000000E-02
	 3.75000000E-02	 1.27000000E-02	 1.27000000E-02
	 3.50000000E-02	 1.27000000E-02	 1.27000000E-02
	 3.25000000E-02	 1.27000000E-02	 1.27000000E-02
	 3.00000000E-02	 1.27000000E-02	 1.27000000E-02
	 2.75000000E-02	 1.27000000E-02	 1.27000000E-02
	 2.50000000E-02	 1.27000000E-02	 1.27000000E-02
	 2.25000000E-02	 1.27000000E-02	 1.27000000E-02
	 2.00000000E-02	 1.27000000E-02	 1.27000000E-02
	 1.75000000E-02	 1.27000000E-02	 1.27000000E-02
	 1.50000000E-02	 1.27000000E-02	 1.27000000E-02
	 1.25000000E-02	 1.27000000E-02	 1.27000000E-02
	 1.00000000E-02	 1.27000000E-02	 1.27000000E-02
	 7.50000000E-03	 1.27000000E-02	 1.27000000E-02
	 5.00000000E-03	 1.27000000E-02	 1.27000000E-02
	 2.50000000E-03	 1.27000000E-02	 1.27000000E-02
	 2.50000000E-03	 0.00000000E+00	 1.27000000E-02
	 5.00000000E-03	 0.00000000E+00	 1.27000000E-02
	 7.50000000E-03	 0.00000000E+00	 1.27000000E-02
	 1.00000000E-02	 0.00000000E+00	 1.27000000E-02
	 1.25000000E-02	 0.00000000E+00	 1.27000000E-02
	 1.50000000E-02	 0.00000000E+00	 1.27000000E-02
	 1.75000000E-02	 0.00000000E+00	 1.27000000E-02
	 2.00000000E-02	 0.00000000E+00	 1.27000000E-02
	 2.25000000E-02	 0.00000000E+00	 1.27000000E-02
	 2.50000000E-02	 0.00000000E+00	 1.27000000E-02
	 2.75000000E-02	 0.00000000E+00	 1.27000000E-02
	 3.00000000E-02	 0.00000000E+00	 1.27000000E-02
	 3.25000000E-02	 0.00000000E+00	 1.27000000E-02
	 3.50000000E-02	 0.00000000E+00	 1.27000000E-02
	 3.75000000E-02	 0.00000000E+00	 1.27000000E-02
	 4.00000000E-02	 0.00000000E+00	 1.27000000E-02
	 4.25000000E-02	 0.00000000E+00	 1.27000000E-02
	 4.25000000E-02	 1.27000000E-02	 0.00000000E+00
	 4.00000000E-02	 1.27000000E-02	 0.00000000E+00
	 3.75000000E-02	 1.27000000E-02	 0.00000000E+00
	 3.50000000E-02	 1.27000000E-02	 0.00000000E+00
	 3.25000000E-02	 1.27000000E-02	 0.00000000E+00
	 3.00000000E-02	 1.27000000E-02	 0.00000000E+00
	 2.75000000E-02	 1.27000000E-02	 0.00000000E+00
	 2.50000000E-02	 1.27000000E-02	 0.00000000E+00
	 2.25000000E-02	 1.27000000E-02	 0.00000000E+00
	 2.00000000E-02	 1.27000000E-02	 0.00000000E+00
	 1.75000000E-02	 1.27000000E-02	 0.00000000E+00
	 1.50000000E-02	 1.27000000E-02	 0.00000000E+00
	 1.25000000E-02	 1.27000000E-02	 0.00000000E+00
	 1.00000000E-02	 1.27000000E-02	 0.00000000E+00
	 7.50000000E-03	 1.27000000E-02	 0.00000000E+00
	 5.00000000E-03	 1.27000000E-02	 0.00000000E+00
	 2.50000000E-03	 1.27000000E-02	 0.00000000E+00
	 4.50000000E-02	 1.27000000E-02	 1.01600000E-02
	 4.50000000E-02	 1.27000000E-02	 7.62000000E-03
	 4.50000000E-02	 1.27000000E-02	 5.08000000E-03
	 4.50000000E-02	 1.27000000E-02	 2.54000000E-03
	 4.50000000E-02	 1.01600000E-02	 0.00000000E+00
	 4.50000000E-02	 7.62000000E-03	 0.00000000E+00
	 4.50000000E-02	 5.08000000E-03	 0.00000000E+00
	 4.50000000E-02	 2.54000000E-03	 0.00000000E+00
	 2.50000000E-03	 0.00000000E+00	 0.00000000E+00
	 5.00000000E-03	 0.00000000E+00	 0.00000000E+00
	 7.50000000E-03	 0.00000000E+00	 0.00000000E+00
	 1.00000000E-02	 0.00000000E+00	 0.00000000E+00
	 1.25000000E-02	 0.00000000E+00	 0.00000000E+00
	 1.50000000E-02	 0.00000000E+00	 0.00000000E+00
	 1.75000000E-02	 0.00000000E+00	 0.00000000E+00
	 2.00000000E-02	 0.00000000E+00	 0.00000000E+00
	 2.25000000E-02	 0.00000000E+00	 0.00000000E+00
	 2.50000000E-02	 0.00000000E+00	 0.00000000E+00
	 2.75000000E-02	 0.00000000E+00	 0.00000000E+00
	 3.00000000E-02	 0.00000000E+00	 0.00000000E+00
	 3.25000000E-02	 0.00000000E+00	 0.00000000E+00
	 3.50000000E-02	 0.00000000E+00	 0.00000000E+00
	 3.75000000E-02	 0.00000000E+00	 0.00000000E+00
	 4.00000000E-02	 0.00000000E+00	 0.00000000E+00
	 4.25000000E-02	 0.00000000E+00	 0.00000000E+00
	 4.50000000E-02	 0.00000000E+00	 2.54000000E-03
	 4.50000000E-02	 0.00000000E+00	 5.08000000E-03
	 4.50000000E-02	 0.00000000E+00	 7.62000000E-03
	 4.50000000E-02	 0.00000000E+00	 1.01600000E-02
	 4.50000000E-02	 2.28600000E-02	 1.27000000E-02
	 4.50000000E-02	 2.03200000E-02	 1.27000000E-02
	 4.50000000E-02	 1.77800000E-02	 1.27000000E-02
	 4.50000000E-02	 1.52400000E-02	 1.27000000E-02
	 0.00000000E+00	 1.52400000E-02	 1.27000000E-02
	 0.00000000E+00	 1.77800000E-02	 1.27000000E-02
	 0.00000000E+00	 2.03200000E-02	 1.27000000E-02
	 0.00000000E+00	 2.28600000E-02	 1.27000000E-02
	 0.00000000E+00	 2.54000000E-02	 2.54000000E-03
	 0.00000000E+00	 2.54000000E-02	 5.08000000E-03
	 0.00000000E+00	 2.54000000E-02	 7.62000000E-03
	 0.00000000E+00	 2.54000000E-02	 1.01600000E-02
	 0.00000000E+00	 1.52400000E-02	 0.00000000E+00
	 0.00000000E+00	 1.77800000E-02	 0.00000000E+00
	 0.00000000E+00	 2.03200000E-02	 0.00000000E+00
	 0.00000000E+00	 2.28600000E-02	 0.00000000E+00
	 2.50000000E-03	 2.54000000E-02	 1.27000000E-02
	 5.00000000E-03	 2.54000000E-02	 1.27000000E-02
	 7.50000000E-03	 2.54000000E-02	 1.27000000E-02
	 1.00000000E-02	 2.54000000E-02	 1.27000000E-02
	 1.25000000E-02	 2.54000000E-02	 1.27000000E-02
	 1.50000000E-02	 2.54000000E-02	 1.27000000E-02
	 1.75000000E-02	 2.54000000E-02	 1.27000000E-02
	 2.00000000E-02	 2.54000000E-02	 1.27000000E-02
	 2.25000000E-02	 2.54000000E-02	 1.27000000E-02
	 2.50000000E-02	 2.54000000E-02	 1.27000000E-02
	 2.75000000E-02	 2.54000000E-02	 1.27000000E-02
	 3.00000000E-02	 2.54000000E-02	 1.27000000E-02
	 3.25000000E-02	 2.54000000E-02	 1.27000000E-02
	 3.50000000E-02	 2.54000000E-02	 1.27000000E-02
	 3.75000000E-02	 2.54000000E-02	 1.27000000E-02
	 4.00000000E-02	 2.54000000E-02	 1.27000000E-02
	 4.25000000E-02	 2.54000000E-02	 1.27000000E-02
	 2.50000000E-03	 2.54000000E-02	 0.00000000E+00
	 5.00000000E-03	 2.54000000E-02	 0.00000000E+00
	 7.50000000E-03	 2.54000000E-02	 0.00000000E+00
	 1.00000000E-02	 2.54000000E-02	 0.00000000E+00
	 1.25000000E-02	 2.54000000E-02	 0.00000000E+00
	 1.50000000E-02	 2.54000000E-02	 0.00000000E+00
	 1.75000000E-02	 2.54000000E-02	 0.00000000E+00
	 2.00000000E-02	 2.54000000E-02	 0.00000000E+00
	 2.25000000E-02	 2.54000000E-02	 0.00000000E+00
	 2.50000000E-02	 2.54000000E-02	 0.00000000E+00
	 2.75000000E-02	 2.54000000E-02	 0.00000000E+00
	 3.00000000E-02	 2.54000000E-02	 0.00000000E+00
	 3.25000000E-02	 2.54000000E-02	 0.00000000E+00
	 3.50000000E-02	 2.54000000E-02	 0.00000000E+00
	 3.75000000E-02	 2.54000000E-02	 0.00000000E+00
	 4.00000000E-02	 2.54000000E-02	 0.00000000E+00
	 4.25000000E-02	 2.54000000E-02	 0.00000000E+00
[...]
POINT_DATA 3432
FIELD U 1
	U 3 3432 double
		 0.00000000E+00	 0.00000000E+00	 0.00000000E+00
		 0.00000000E+00	 0.00000000E+00	 0.00000000E+00
		 0.00000000E+00	 0.00000000E+00	 0.00000000E+00
		 0.00000000E+00	 0.00000000E+00	 0.00000000E+00
		-6.40090000E-11	-7.56435000E-01	 9.42579000E-12
		-3.57472000E-01	-7.63513000E-01	 9.55729000E-03
		-6.41405000E-11	-7.56435000E-01	-9.97369000E-12
		-3.57472000E-01	-7.63513000E-01	-9.55729000E-03
		 0.00000000E+00	 0.00000000E+00	 0.00000000E+00
		 0.00000000E+00	 0.00000000E+00	 0.00000000E+00
		 3.57472000E-01	-7.63513000E-01	-9.55729000E-03
		 3.57472000E-01	-7.63513000E-01	 9.55729000E-03
		-2.62638000E-10	-9.49679000E-01	 1.22413000E-10
		-1.89089000E-01	-1.03266000E+00	 2.72892000E-03
		-2.62774000E-10	-9.49679000E-01	-1.23095000E-10
		-1.89089000E-01	-1.03266000E+00	-2.72892000E-03
		 1.89089000E-01	-1.03266000E+00	 2.72892000E-03
		 1.89089000E-01	-1.03266000E+00	-2.72892000E-03
		-4.28655000E-01	-1.25313000E+00	-6.68751000E-03
		-4.28655000E-01	-1.25313000E+00	 6.68751000E-03
		-2.89567000E-01	-1.25033000E+00	-4.72913000E-03
		-2.89567000E-01	-1.25033000E+00	 4.72913000E-03
		-5.86359000E-10	-1.09344000E+00	 4.07508000E-10
		-1.32685000E-01	-1.24841000E+00	 2.81376000E-03
		-5.86497000E-10	-1.09344000E+00	-4.08289000E-10
		-1.32685000E-01	-1.24841000E+00	-2.81376000E-03
		 4.28655000E-01	-1.25313000E+00	 6.68751000E-03
		 4.28655000E-01	-1.25313000E+00	-6.68751000E-03
		 2.89567000E-01	-1.25033000E+00	 4.72913000E-03
		 2.89567000E-01	-1.25033000E+00	-4.72913000E-03
		 1.32685000E-01	-1.24841000E+00	 2.81376000E-03
		 1.32685000E-01	-1.24841000E+00	-2.81376000E-03
		-4.67667000E-01	-1.80511000E+00	-3.73153000E-03
		-4.67667000E-01	-1.80511000E+00	 3.73153000E-03
		-2.11866000E-01	-1.47488000E+00	-3.37130000E-03
		-2.11866000E-01	-1.47488000E+00	 3.37130000E-03
		-4.90931000E-09	-1.40485000E+00	-1.17826000E-09
		-3.98530000E-09	-1.56618000E+00	-4.56983000E-10
		-4.90946000E-09	-1.40485000E+00	 1.17728000E-09
		-3.98546000E-09	-1.56618000E+00	 4.55898000E-10
		 4.67667000E-01	-1.80511000E+00	 3.73153000E-03
		 4.67667000E-01	-1.80511000E+00	-3.73153000E-03
		 2.11866000E-01	-1.47488000E+00	 3.37130000E-03
		 2.11866000E-01	-1.47488000E+00	-3.37130000E-03
		-5.02066000E-01	-3.57560000E+00	 4.42863000E-05
		-5.02066000E-01	-3.57560000E+00	-4.42863000E-05
		-2.93946000E-09	-1.80094000E+00	 1.04327000E-10
		-2.35447000E-09	-3.57520000E+00	-8.78631000E-13
		-2.35431000E-09	-3.57520000E+00	-1.49747000E-12
		-2.93930000E-09	-1.80094000E+00	-1.05565000E-10
		 5.02066000E-01	-3.57560000E+00	-4.42863000E-05
		 5.02066000E-01	-3.57560000E+00	 4.42863000E-05
		-6.94205000E-02	-7.56682000E-01	 1.78359000E-03
		-1.39467000E-01	-7.57488000E-01	 3.62416000E-03
		-2.10588000E-01	-7.58953000E-01	 5.55139000E-03
		-2.83072000E-01	-7.61033000E-01	 7.61668000E-03
		 0.00000000E+00	 0.00000000E+00	 0.00000000E+00
		 0.00000000E+00	 0.00000000E+00	 0.00000000E+00
		 0.00000000E+00	 0.00000000E+00	 0.00000000E+00
		 0.00000000E+00	 0.00000000E+00	 0.00000000E+00
		 0.00000000E+00	 0.00000000E+00	 0.00000000E+00
		 0.00000000E+00	 0.00000000E+00	 0.00000000E+00
		 0.00000000E+00	 0.00000000E+00	 0.00000000E+00
		 0.00000000E+00	 0.00000000E+00	 0.00000000E+00
		 0.00000000E+00	 0.00000000E+00	 0.00000000E+00
		 0.00000000E+00	 0.00000000E+00	 0.00000000E+00
		 0.00000000E+00	 0.00000000E+00	 0.00000000E+00
		 0.00000000E+00	 0.00000000E+00	 0.00000000E+00
		 0.00000000E+00	 0.00000000E+00	 0.00000000E+00
		 0.00000000E+00	 0.00000000E+00	 0.00000000E+00
		 0.00000000E+00	 0.00000000E+00	 0.00000000E+00
		 0.00000000E+00	 0.00000000E+00	 0.00000000E+00
		 3.55245000E-11	-6.83783000E-01	 5.39452000E-12
		 9.65417000E-12	-6.13979000E-01	-7.50455000E-13
		-4.99147000E-12	-5.47154000E-01	 3.74334000E-12
		-1.17678000E-11	-4.83417000E-01	 3.66751000E-12
		-1.32194000E-11	-4.22877000E-01	 2.83312000E-12
		-1.21912000E-11	-3.65660000E-01	 1.91802000E-12
		-1.03485000E-11	-3.11901000E-01	 1.23906000E-12
		-8.45306000E-12	-2.61745000E-01	 7.96363000E-13
		-6.78753000E-12	-2.15338000E-01	 5.33656000E-13
		-5.41055000E-12	-1.72827000E-01	 3.91520000E-13
		-4.29280000E-12	-1.34360000E-01	 3.25490000E-13
		-3.37999000E-12	-1.00088000E-01	 3.05381000E-13
		-2.61884000E-12	-7.01814000E-02	 3.11667000E-13
		-1.96848000E-12	-4.48568000E-02	 3.30631000E-13
		-1.40300000E-12	-2.44512000E-02	 3.49290000E-13
		-9.08381000E-13	-9.51899000E-03	 3.44579000E-13
		-4.63416000E-13	-8.87621000E-04	 2.84807000E-13
		-2.91045000E-02	-1.40558000E-02	 1.40557000E-02
		-5.30347000E-02	-2.51688000E-02	 1.65495000E-02
		-7.62688000E-02	-4.11974000E-02	 1.72840000E-02
		-9.94847000E-02	-6.15974000E-02	 1.69715000E-02
		-1.22392000E-01	-8.65408000E-02	 1.64214000E-02
		-1.44773000E-01	-1.15924000E-01	 1.58340000E-02
		-1.66495000E-01	-1.49636000E-01	 1.52664000E-02
		-1.87497000E-01	-1.87545000E-01	 1.47170000E-02
		-2.07756000E-01	-2.29507000E-01	 1.41771000E-02
		-2.27264000E-01	-2.75374000E-01	 1.36413000E-02
		-2.46021000E-01	-3.24997000E-01	 1.31074000E-02
		-2.64029000E-01	-3.78221000E-01	 1.25767000E-02
		-2.81293000E-01	-4.34893000E-01	 1.20527000E-02
		-2.97819000E-01	-4.94851000E-01	 1.15425000E-02
		-3.13619000E-01	-5.57930000E-01	 1.10603000E-02
		-3.28718000E-01	-6.23930000E-01	 1.06140000E-02
		-3.43224000E-01	-6.92724000E-01	 1.02881000E-02
		 3.53965000E-11	-6.83783000E-01	-5.89173000E-12
		 9.53075000E-12	-6.13979000E-01	 3.04812000E-13
		-5.11022000E-12	-5.47154000E-01	-4.13974000E-12
		-1.18811000E-11	-4.83417000E-01	-4.01851000E-12
		-1.33263000E-11	-4.22877000E-01	-3.14015000E-12
		-1.22920000E-11	-3.65660000E-01	-2.18375000E-12
		-1.04426000E-11	-3.11901000E-01	-1.46516000E-12
		-8.53989000E-12	-2.61745000E-01	-9.86933000E-13
		-6.86684000E-12	-2.15338000E-01	-6.90920000E-13
		-5.48205000E-12	-1.72827000E-01	-5.18335000E-13
		-4.35640000E-12	-1.34360000E-01	-4.25049000E-13
		-3.43510000E-12	-1.00088000E-01	-3.80959000E-13
		-2.66533000E-12	-7.01814000E-02	-3.66526000E-13
		-2.00615000E-12	-4.48568000E-02	-3.68143000E-13
		-1.43153000E-12	-2.44512000E-02	-3.72875000E-13
		-9.27630000E-13	-9.51899000E-03	-3.57742000E-13
		-4.73246000E-13	-8.87621000E-04	-2.91028000E-13
		-4.68489000E-11	-7.57881000E-01	 1.12867000E-11
		-4.55336000E-11	-7.58618000E-01	 3.73002000E-12
		-4.55597000E-11	-7.58618000E-01	-4.27625000E-12
		-4.69270000E-11	-7.57881000E-01	-1.18343000E-11
		-6.94205000E-02	-7.56682000E-01	-1.78359000E-03
		-1.39467000E-01	-7.57488000E-01	-3.62416000E-03
		-2.10588000E-01	-7.58953000E-01	-5.55139000E-03
		-2.83072000E-01	-7.61033000E-01	-7.61668000E-03
		-2.91045000E-02	-1.40558000E-02	-1.40557000E-02
		-5.30347000E-02	-2.51688000E-02	-1.65495000E-02
		-7.62688000E-02	-4.11974000E-02	-1.72840000E-02
		-9.94847000E-02	-6.15974000E-02	-1.69715000E-02
		-1.22392000E-01	-8.65408000E-02	-1.64214000E-02
		-1.44773000E-01	-1.15924000E-01	-1.58340000E-02
		-1.66495000E-01	-1.49636000E-01	-1.52664000E-02
		-1.87497000E-01	-1.87545000E-01	-1.47170000E-02
		-2.07756000E-01	-2.29507000E-01	-1.41771000E-02
		-2.27264000E-01	-2.75374000E-01	-1.36413000E-02
		-2.46021000E-01	-3.24997000E-01	-1.31074000E-02
		-2.64029000E-01	-3.78221000E-01	-1.25767000E-02
		-2.81293000E-01	-4.34893000E-01	-1.20527000E-02
		-2.97819000E-01	-4.94851000E-01	-1.15425000E-02
		-3.13619000E-01	-5.57930000E-01	-1.10603000E-02
		-3.28718000E-01	-6.23930000E-01	-1.06140000E-02
		-3.43224000E-01	-6.92724000E-01	-1.02881000E-02
		-3.57857000E-01	-7.65128000E-01	-5.74476000E-03
		-3.58002000E-01	-7.65922000E-01	-1.91728000E-03
		-3.58002000E-01	-7.65922000E-01	 1.91728000E-03
		-3.57857000E-01	-7.65128000E-01	 5.74476000E-03
		 2.83072000E-01	-7.61033000E-01	-7.61668000E-03
		 2.10588000E-01	-7.58953000E-01	-5.55139000E-03
		 1.39467000E-01	-7.57488000E-01	-3.62416000E-03
		 6.94205000E-02	-7.56682000E-01	-1.78359000E-03
		 0.00000000E+00	 0.00000000E+00	 0.00000000E+00
		 0.00000000E+00	 0.00000000E+00	 0.00000000E+00
		 0.00000000E+00	 0.00000000E+00	 0.00000000E+00
		 0.00000000E+00	 0.00000000E+00	 0.00000000E+00
		 0.00000000E+00	 0.00000000E+00	 0.00000000E+00
		 0.00000000E+00	 0.00000000E+00	 0.00000000E+00
		 0.00000000E+00	 0.00000000E+00	 0.00000000E+00
		 0.00000000E+00	 0.00000000E+00	 0.00000000E+00
		 0.00000000E+00	 0.00000000E+00	 0.00000000E+00
		 0.00000000E+00	 0.00000000E+00	 0.00000000E+00
		 0.00000000E+00	 0.00000000E+00	 0.00000000E+00
		 0.00000000E+00	 0.00000000E+00	 0.00000000E+00
		 2.91045000E-02	-1.40558000E-02	-1.40557000E-02
		 5.30347000E-02	-2.51688000E-02	-1.65495000E-02
		 7.62688000E-02	-4.11974000E-02	-1.72840000E-02
		 9.94847000E-02	-6.15974000E-02	-1.69715000E-02
		 1.22392000E-01	-8.65408000E-02	-1.64214000E-02
		 1.44773000E-01	-1.15924000E-01	-1.58340000E-02
		 1.66495000E-01	-1.49636000E-01	-1.52664000E-02
		 1.87497000E-01	-1.87545000E-01	-1.47170000E-02
		 2.07756000E-01	-2.29507000E-01	-1.41771000E-02
		 2.27264000E-01	-2.75374000E-01	-1.36413000E-02
		 2.46021000E-01	-3.24997000E-01	-1.31074000E-02
		 2.64029000E-01	-3.78221000E-01	-1.25767000E-02
		 2.81293000E-01	-4.34893000E-01	-1.20527000E-02
		 2.97819000E-01	-4.94851000E-01	-1.15425000E-02
		 3.13619000E-01	-5.57930000E-01	-1.10603000E-02
		 3.28718000E-01	-6.23930000E-01	-1.06140000E-02
		 3.43224000E-01	-6.92724000E-01	-1.02881000E-02
		 2.91045000E-02	-1.40558000E-02	 1.40557000E-02
		 5.30347000E-02	-2.51688000E-02	 1.65495000E-02
		 7.62688000E-02	-4.11974000E-02	 1.72840000E-02
		 9.94847000E-02	-6.15974000E-02	 1.69715000E-02
		 1.22392000E-01	-8.65408000E-02	 1.64214000E-02
		 1.44773000E-01	-1.15924000E-01	 1.58340000E-02
		 1.66495000E-01	-1.49636000E-01	 1.52664000E-02
		 1.87497000E-01	-1.87545000E-01	 1.47170000E-02
		 2.07756000E-01	-2.29507000E-01	 1.41771000E-02
		 2.27264000E-01	-2.75374000E-01	 1.36413000E-02
		 2.46021000E-01	-3.24997000E-01	 1.31074000E-02
		 2.64029000E-01	-3.78221000E-01	 1.25767000E-02
		 2.81293000E-01	-4.34893000E-01	 1.20527000E-02
		 2.97819000E-01	-4.94851000E-01	 1.15425000E-02
		 3.13619000E-01	-5.57930000E-01	 1.10603000E-02
		 3.28718000E-01	-6.23930000E-01	 1.06140000E-02
		 3.43224000E-01	-6.92724000E-01	 1.02881000E-02
		 3.57857000E-01	-7.65128000E-01	 5.74476000E-03
		 3.58002000E-01	-7.65922000E-01	 1.91728000E-03
		 3.58002000E-01	-7.65922000E-01	-1.91728000E-03
		 3.57857000E-01	-7.65128000E-01	-5.74476000E-03
		 2.83072000E-01	-7.61033000E-01	 7.61668000E-03
		 2.10588000E-01	-7.58953000E-01	 5.55139000E-03
		 1.39467000E-01	-7.57488000E-01	 3.62416000E-03
		 6.94205000E-02	-7.56682000E-01	 1.78359000E-03
		-3.35282000E-01	-1.25110000E+00	 5.37819000E-03
		-3.81521000E-01	-1.25203000E+00	 6.03678000E-03
		-1.95666000E-10	-8.83602000E-01	 1.30198000E-10
		-1.54451000E-10	-8.19119000E-01	 5.57834000E-11
		-1.54528000E-01	-1.00317000E+00	 2.18738000E-03
		-1.17500000E-01	-9.79881000E-01	 1.62165000E-03
		-7.90393000E-02	-9.63093000E-01	 1.04751000E-03
		-3.96877000E-02	-9.53070000E-01	 5.52383000E-04
		-3.06236000E-01	-8.50226000E-01	 7.17606000E-03
		-2.50465000E-01	-9.39640000E-01	 5.01385000E-03
		-1.95802000E-10	-8.83602000E-01	-1.30835000E-10
		-1.54584000E-10	-8.19119000E-01	-5.63753000E-11
		-2.71051000E-10	-9.50630000E-01	 8.31112000E-11
		-2.86933000E-10	-9.51218000E-01	 2.77870000E-11
		-2.86960000E-10	-9.51218000E-01	-2.84689000E-11
		-2.71133000E-10	-9.50630000E-01	-8.37940000E-11
		-1.89417000E-01	-1.03417000E+00	-1.62640000E-03
		-1.89524000E-01	-1.03485000E+00	-5.42848000E-04
		-1.89524000E-01	-1.03485000E+00	 5.42848000E-04
		-1.89417000E-01	-1.03417000E+00	 1.62640000E-03
		-1.54528000E-01	-1.00317000E+00	-2.18738000E-03
		-1.17500000E-01	-9.79881000E-01	-1.62165000E-03
		-7.90393000E-02	-9.63093000E-01	-1.04751000E-03
		-3.96877000E-02	-9.53070000E-01	-5.52383000E-04
		-3.06236000E-01	-8.50226000E-01	-7.17606000E-03
		-2.50465000E-01	-9.39640000E-01	-5.01385000E-03
		 3.06236000E-01	-8.50226000E-01	 7.17606000E-03
		 2.50465000E-01	-9.39640000E-01	 5.01386000E-03
		 3.96877000E-02	-9.53070000E-01	 5.52383000E-04
		 7.90393000E-02	-9.63093000E-01	 1.04751000E-03
		 1.17500000E-01	-9.79881000E-01	 1.62165000E-03
		 1.54527000E-01	-1.00317000E+00	 2.18738000E-03
		 3.96877000E-02	-9.53070000E-01	-5.52383000E-04
		 7.90393000E-02	-9.63093000E-01	-1.04751000E-03
		 1.17500000E-01	-9.79881000E-01	-1.62165000E-03
		 1.54527000E-01	-1.00317000E+00	-2.18738000E-03
		 1.89417000E-01	-1.03417000E+00	 1.62640000E-03
		 1.89524000E-01	-1.03485000E+00	 5.42848000E-04
		 1.89524000E-01	-1.03485000E+00	-5.42848000E-04
		 1.89417000E-01	-1.03417000E+00	-1.62640000E-03
		 3.06236000E-01	-8.50226000E-01	-7.17606000E-03
		 2.50465000E-01	-9.39640000E-01	-5.01386000E-03
		-2.73361000E-01	-1.16863000E+00	 4.40228000E-03
		-2.38353000E-01	-1.09436000E+00	 3.63468000E-03
		-3.82543000E-01	-9.16672000E-01	-8.75886000E-03
		-4.06682000E-01	-1.07834000E+00	-8.00990000E-03
		-4.28935000E-01	-1.25417000E+00	-4.02898000E-03
		-4.28950000E-01	-1.25471000E+00	-1.34528000E-03
		-4.28950000E-01	-1.25471000E+00	 1.34528000E-03
		-4.28935000E-01	-1.25417000E+00	 4.02898000E-03
		-3.82543000E-01	-9.16672000E-01	 8.75886000E-03
		-4.06682000E-01	-1.07834000E+00	 8.00990000E-03
		-2.73361000E-01	-1.16863000E+00	-4.40228000E-03
		-2.38353000E-01	-1.09436000E+00	-3.63468000E-03
		-3.35282000E-01	-1.25110000E+00	-5.37819000E-03
		-3.81521000E-01	-1.25203000E+00	-6.03678000E-03
		-2.89597000E-01	-1.25136000E+00	 2.82372000E-03
		-2.89676000E-01	-1.25189000E+00	 9.38652000E-04
		-2.89676000E-01	-1.25189000E+00	-9.38652000E-04
		-2.89597000E-01	-1.25136000E+00	-2.82372000E-03
		-5.04903000E-10	-1.02242000E+00	 2.09948000E-10
		-1.25856000E-01	-1.20739000E+00	 1.39537000E-03
		-1.10436000E-01	-1.16943000E+00	-8.34245000E-05
		-8.81552000E-02	-1.13735000E+00	-1.14019000E-03
		-6.10527000E-02	-1.11327000E+00	-1.46075000E-03
		-3.11378000E-02	-1.09844000E+00	-9.86981000E-04
		-2.12139000E-01	-1.24932000E+00	 3.62196000E-03
		-5.05041000E-10	-1.02242000E+00	-2.10680000E-10
		-5.19379000E-10	-1.09396000E+00	-1.47346000E-10
		-5.61172000E-10	-1.09483000E+00	-1.82441000E-11
		-5.61145000E-10	-1.09483000E+00	 1.74649000E-11
		-5.19296000E-10	-1.09396000E+00	 1.46567000E-10
		-1.32290000E-01	-1.24930000E+00	-1.51743000E-03
		-1.32579000E-01	-1.24982000E+00	-4.75025000E-04
		-1.32579000E-01	-1.24982000E+00	 4.75025000E-04
		-1.32290000E-01	-1.24930000E+00	 1.51743000E-03
		-3.11378000E-02	-1.09844000E+00	 9.86981000E-04
		-6.10527000E-02	-1.11327000E+00	 1.46075000E-03
		-8.81552000E-02	-1.13735000E+00	 1.14019000E-03
		-1.10436000E-01	-1.16943000E+00	 8.34245000E-05
		-1.25856000E-01	-1.20739000E+00	-1.39537000E-03
		-2.12139000E-01	-1.24932000E+00	-3.62196000E-03
		 2.38353000E-01	-1.09436000E+00	-3.63468000E-03
		 2.73361000E-01	-1.16863000E+00	-4.40228000E-03
		 3.82543000E-01	-9.16672000E-01	 8.75886000E-03
		 4.06682000E-01	-1.07834000E+00	 8.00990000E-03
		 4.28935000E-01	-1.25417000E+00	 4.02898000E-03
		 4.28950000E-01	-1.25471000E+00	 1.34528000E-03
		 4.28950000E-01	-1.25471000E+00	-1.34528000E-03
		 4.28935000E-01	-1.25417000E+00	-4.02898000E-03
		 3.82543000E-01	-9.16672000E-01	-8.75886000E-03
		 4.06682000E-01	-1.07834000E+00	-8.00990000E-03
		 3.81521000E-01	-1.25203000E+00	 6.03678000E-03
		 3.35282000E-01	-1.25110000E+00	 5.37819000E-03
		 2.38353000E-01	-1.09436000E+00	 3.63468000E-03
		 2.73361000E-01	-1.16863000E+00	 4.40228000E-03
		 3.81521000E-01	-1.25203000E+00	-6.03678000E-03
		 3.35282000E-01	-1.25110000E+00	-5.37819000E-03
		 2.89597000E-01	-1.25136000E+00	-2.82372000E-03
		 2.89676000E-01	-1.25189000E+00	-9.38652000E-04
		 2.89676000E-01	-1.25189000E+00	 9.38652000E-04
		 2.89597000E-01	-1.25136000E+00	 2.82372000E-03
		 2.12139000E-01	-1.24932000E+00	 3.62196000E-03
		 3.11378000E-02	-1.09844000E+00	 9.86981000E-04
		 6.10527000E-02	-1.11327000E+00	 1.46075000E-03
		 8.81552000E-02	-1.13735000E+00	 1.14019000E-03
		 1.10436000E-01	-1.16943000E+00	 8.34266000E-05
		 1.25856000E-01	-1.20739000E+00	-1.39536000E-03
		 1.25856000E-01	-1.20739000E+00	 1.39536000E-03
		 1.10436000E-01	-1.16943000E+00	-8.34266000E-05
		 8.81552000E-02	-1.13735000E+00	-1.14019000E-03
		 6.10527000E-02	-1.11327000E+00	-1.46075000E-03
		 3.11378000E-02	-1.09844000E+00	-9.86981000E-04
		 2.12139000E-01	-1.24932000E+00	-3.62196000E-03
		 1.32290000E-01	-1.24930000E+00	 1.51743000E-03
		 1.32579000E-01	-1.24982000E+00	 4.75025000E-04
		 1.32579000E-01	-1.24982000E+00	-4.75025000E-04
		 1.32290000E-01	-1.24930000E+00	-1.51743000E-03
		-2.57759000E-01	-1.40955000E+00	 4.11324000E-03
		-2.84347000E-01	-1.33289000E+00	 4.58584000E-03
		-4.44180000E-01	-1.43553000E+00	-5.14980000E-03
		-4.56634000E-01	-1.61930000E+00	-4.24047000E-03
		-4.67876000E-01	-1.80566000E+00	-2.22527000E-03
		-4.67995000E-01	-1.80593000E+00	-7.39382000E-04
		-4.67995000E-01	-1.80593000E+00	 7.39382000E-04
		-4.67876000E-01	-1.80566000E+00	 2.22527000E-03
		-4.44180000E-01	-1.43553000E+00	 5.14980000E-03
		-4.56634000E-01	-1.61930000E+00	 4.24047000E-03
		-2.57759000E-01	-1.40955000E+00	-4.11324000E-03
		-2.84347000E-01	-1.33289000E+00	-4.58584000E-03
		-3.80687000E-01	-1.69420000E+00	-3.44564000E-03
		-2.95197000E-01	-1.58388000E+00	-3.32554000E-03
		-3.80687000E-01	-1.69420000E+00	 3.44564000E-03
		-2.95197000E-01	-1.58388000E+00	 3.32554000E-03
		-2.12252000E-01	-1.47553000E+00	-2.03564000E-03
		-2.12379000E-01	-1.47591000E+00	-6.79941000E-04
		-2.12379000E-01	-1.47591000E+00	 6.79941000E-04
		-2.12252000E-01	-1.47553000E+00	 2.03564000E-03
		-3.58832000E-02	-1.39965000E+00	 1.45030000E-03
		-6.90408000E-02	-1.38426000E+00	 2.73329000E-03
		-9.70542000E-02	-1.35964000E+00	 3.67613000E-03
		-1.17900000E-01	-1.32734000E+00	 4.06598000E-03
		-1.30035000E-01	-1.28940000E+00	 3.77803000E-03
		-4.60636000E-09	-1.48396000E+00	-6.94416000E-10
		-9.23031000E-02	-1.80118000E+00	 8.07480000E-04
		-1.85028000E-01	-1.80187000E+00	 1.58186000E-03
		-2.78461000E-01	-1.80285000E+00	 2.31278000E-03
		-3.72718000E-01	-1.80397000E+00	 3.03342000E-03
		-4.72465000E-02	-1.56243000E+00	 7.50813000E-04
		-9.31153000E-02	-1.55109000E+00	 1.50558000E-03
		-1.36752000E-01	-1.53241000E+00	 2.17709000E-03
		-1.76595000E-01	-1.50685000E+00	 2.82730000E-03
		-4.60935000E-09	-1.40620000E+00	 6.21388000E-10
		-4.60298000E-09	-1.40650000E+00	 1.71262000E-10
		-4.60295000E-09	-1.40650000E+00	-1.72237000E-10
		-4.60926000E-09	-1.40620000E+00	-6.22363000E-10
		-1.30035000E-01	-1.28940000E+00	-3.77803000E-03
		-1.17900000E-01	-1.32734000E+00	-4.06598000E-03
		-9.70542000E-02	-1.35964000E+00	-3.67613000E-03
		-6.90408000E-02	-1.38426000E+00	-2.73329000E-03
		-3.58832000E-02	-1.39965000E+00	-1.45030000E-03
		-3.86386000E-09	-1.56721000E+00	 2.74359000E-10
		-3.85103000E-09	-1.56766000E+00	 9.33046000E-11
		-3.85100000E-09	-1.56766000E+00	-9.43892000E-11
		-3.86377000E-09	-1.56721000E+00	-2.75443000E-10
		-4.60652000E-09	-1.48396000E+00	 6.93388000E-10
		-4.72465000E-02	-1.56243000E+00	-7.50813000E-04
		-9.31153000E-02	-1.55109000E+00	-1.50558000E-03
		-1.36752000E-01	-1.53241000E+00	-2.17709000E-03
		-1.76595000E-01	-1.50685000E+00	-2.82730000E-03
		 2.84347000E-01	-1.33289000E+00	-4.58584000E-03
		 2.57759000E-01	-1.40955000E+00	-4.11324000E-03
		 4.44180000E-01	-1.43553000E+00	 5.14980000E-03
		 4.56634000E-01	-1.61930000E+00	 4.24047000E-03
		 4.67876000E-01	-1.80566000E+00	 2.22527000E-03
		 4.67995000E-01	-1.80593000E+00	 7.39382000E-04
		 4.67995000E-01	-1.80593000E+00	-7.39382000E-04
		 4.67876000E-01	-1.80566000E+00	-2.22527000E-03
		 4.44180000E-01	-1.43553000E+00	-5.14980000E-03
		 4.56634000E-01	-1.61930000E+00	-4.24047000E-03
		 3.80687000E-01	-1.69420000E+00	 3.44563000E-03
		 2.95197000E-01	-1.58388000E+00	 3.32555000E-03
		 2.84347000E-01	-1.33289000E+00	 4.58584000E-03
		 2.57759000E-01	-1.40955000E+00	 4.11324000E-03
		 3.80687000E-01	-1.69420000E+00	-3.44563000E-03
		 2.95197000E-01	-1.58388000E+00	-3.32555000E-03
		 2.12252000E-01	-1.47553000E+00	 2.03564000E-03
		 2.12379000E-01	-1.47591000E+00	 6.79941000E-04
		 2.12379000E-01	-1.47591000E+00	-6.79941000E-04