# vtk DataFile Version 3.0

ASCII
DATASET UNSTRUCTURED_GRID

POINTS 3432 double
	 0.00000000E+00	 0.00000000E+00	 1.27000000E-02
	 0.00000000E+00	 1.27000000E-02	 1.27000000E-02
	 0.00000000E+00	 1.27000000E-02	 0.00000000E+00
	 0.00000000E+00	 0.00000000E+00	 0.00000000E+00
	 4.50000000E-02	 1.27000000E-02	 1.27000000E-02
	 4.50000000E-02	 0.00000000E+00	 1.27000000E-02
	 4.50000000E-02	 1.27000000E-02	 0.00000000E+00
	 4.50000000E-02	 0.00000000E+00	 0.00000000E+00
	 0.00000000E+00	 2.54000000E-02	 1.27000000E-02
	 0.00000000E+00	 2.54000000E-02	 0.00000000E+00
	 4.50000000E-02	 2.54000000E-02	 1.27000000E-02
	 4.50000000E-02	 2.54000000E-02	 0.00000000E+00
	 5.12690000E-02	 1.27000000E-02	 1.27000000E-02
	 5.38263000E-02	 6.52625000E-03	 1.27000000E-02
	 5.12690000E-02	 1.27000000E-02	 0.00000000E+00
	 5.38263000E-02	 6.52625000E-03	 0.00000000E+00
	 5.38263000E-02	 1.88737000E-02	 0.00000000E+00
	 5.38263000E-02	 1.88737000E-02	 1.27000000E-02
	 6.00000000E-02	 0.00000000E+00	 0.00000000E+00
	 6.00000000E-02	 0.00000000E+00	 1.27000000E-02
	 6.00000000E-02	 3.96900000E-03	 0.00000000E+00
	 6.00000000E-02	 3.96900000E-03	 1.27000000E-02
	 5.57840000E-02	 1.27000000E-02	 1.27000000E-02
	 6.00000000E-02	 8.48400000E-03	 1.27000000E-02
	 5.57840000E-02	 1.27000000E-02	 0.00000000E+00
	 6.00000000E-02	 8.48400000E-03	 0.00000000E+00
	 6.00000000E-02	 2.54000000E-02	 0.00000000E+00
	 6.00000000E-02	 2.54000000E-02	 1.27000000E-02
	 6.00000000E-02	 2.14310000E-02	 0.00000000E+00
	 6.00000000E-02	 2.14310000E-02	 1.27000000E-02
	 6.00000000E-02	 1.69160000E-02	 0.00000000E+00
	 6.00000000E-02	 1.69160000E-02	 1.27000000E-02
	 7.50000000E-02	 0.00000000E+00	 0.00000000E+00
	 7.50000000E-02	 0.00000000E+00	 1.27000000E-02
	 6.61737000E-02	 6.52625000E-03	 0.00000000E+00
	 6.61737000E-02	 6.52625000E-03	 1.27000000E-02
	 6.42160000E-02	 1.27000000E-02	 1.27000000E-02
	 6.87310000E-02	 1.27000000E-02	 1.27000000E-02
	 6.42160000E-02	 1.27000000E-02	 0.00000000E+00
	 6.87310000E-02	 1.27000000E-02	 0.00000000E+00
	 7.50000000E-02	 2.54000000E-02	 0.00000000E+00
	 7.50000000E-02	 2.54000000E-02	 1.27000000E-02
	 6.61737000E-02	 1.88737000E-02	 0.00000000E+00
	 6.61737000E-02	 1.88737000E-02	 1.27000000E-02
	 1.20000000E-01	 0.00000000E+00	 0.00000000E+00
	 1.20000000E-01	 0.00000000E+00	 1.27000000E-02
	 7.50000000E-02	 1.27000000E-02	 0.00000000E+00
	 1.20000000E-01	 1.27000000E-02	 0.00000000E+00
	 1.20000000E-01	 1.27000000E-02	 1.27000000E-02
	 7.50000000E-02	 1.27000000E-02	 1.27000000E-02
	 1.20000000E-01	 2.54000000E-02	 0.00000000E+00
	 1.20000000E-01	 2.54000000E-02	 1.27000000E-02
	 4.50000000E-02	 1.01600000E-02	 1.27000000E-02
	 4.50000000E-02	 7.62000000E-03	 1.27000000E-02
	 4.50000000E-02	 5.08000000E-03	 1.27000000E-02
	 4.50000000E-02	 2.54000000E-03	 1.27000000E-02
	 0.00000000E+00	 2.54000000E-03	 1.27000000E-02
	 0.00000000E+00	 5.08000000E-03	 1.27000000E-02
	 0.00000000E+00	 7.62000000E-03	 1.27000000E-02
	 0.00000000E+00	 1.01600000E-02	 1.27000000E-02
	 0.00000000E+00	 1.27000000E-02	 2.54000000E-03
	 0.00000000E+00	 1.27000000E-02	 5.08000000E-03
	 0.00000000E+00	 1.27000000E-02	 7.62000000E-03
	 0.00000000E+00	 1.27000000E-02	 1.01600000E-02
	 0.00000000E+00	 2.54000000E-03	 0.00000000E+00
	 0.00000000E+00	 5.08000000E-03	 0.00000000E+00
	 0.00000000E+00	 7.62000000E-03	 0.00000000E+00
	 0.00000000E+00	 1.01600000E-02	 0.00000000E+00
	 0.00000000E+00	 0.00000000E+00	 2.54000000E-03
	 0.00000000E+00	 0.00000000E+00	 5.08000000E-03
	 0.00000000E+00	 0.00000000E+00	 7.62000000E-03
	 0.00000000E+00	 0.00000000E+00	 1.01600000E-02
	 4.25000000E-02	 1.27000000E-02	 1.27000000E-02
	 4.00000000E-02	 1.27000000E-02	 1.27000000E-02
	 3.75000000E-02	 1.27000000E-02	 1.27000000E-02
	 3.50000000E-02	 1.27000000E-02	 1.27000000E-02
	 3.25000000E-02	 1.27000000E-02	 1.27000000E-02
	 3.00000000E-02	 1.27000000E-02	 1.27000000E-02
	 2.75000000E-02	 1.27000000E-02	 1.27000000E-02
	 2.50000000E-02	 1.27000000E-02	 1.27000000E-02
	 2.25000000E-02	 1.27000000E-02	 1.27000000E-02
	 2.00000000E-02	 1.27000000E-02	 1.27000000E-02
	 1.75000000E-02	 1.27000000E-02	 1.27000000E-02
	 1.50000000E-02	 1.27000000E-02	 1.27000000E-02
	 1.25000000E-02	 1.27000000E-02	 1.27000000E-02
	 1.00000000E-02	 1.27000000E-02	 1.27000000E-02
	 7.50000000E-03	 1.27000000E-02	 1.27000000E-02
	 5.00000000E-03	 1.27000000E-02	 1.27000000E-02
	 2.50000000E-03	 1.27000000E-02	 1.27000000E-02
	 2.50000000E-03	 0.00000000E+00	 1.27000000E-02
	 5.00000000E-03	 0.00000000E+00	 1.27000000E-02
	 7.50000000E-03	 0.00000000E+00	 1.27000000E-02
	 1.00000000E-02	 0.00000000E+00	 1.27000000E-02
	 1.25000000E-02	 0.00000000E+00	 1.27000000E-02
	 1.50000000E-02	 0.00000000E+00	 1.27000000E-02
	 1.75000000E-02	 0.00000000E+00	 1.27000000E-02
	 2.00000000E-02	 0.00000000E+00	 1.27000000E-02
	 2.25000000E-02	 0.00000000E+00	 1.27000000E-02
	 2.50000000E-02	 0.00000000E+00	 1.27000000E-02
	 2.75000000E-02	 0.00000000E+00	 1.27000000E-02
	 3.00000000E-02	 0.00000000E+00	 1.27000000E-02
	 3.25000000E-02	 0.00000000E+00	 1.27000000E-02
	 3.50000000E-02	 0.00000000E+00	 1.27000000E-02
	 3.75000000E-02	 0.00000000E+00	 1.27000000E-02
	 4.00000000E-02	 0.00000000E+00	 1.27000000E-02
	 4.25000000E-02	 0.00000000E+00	 1.27000000E-02
	 4.25000000E-02	 1.27000000E-02	 0.00000000E+00
	 4.00000000E-02	 1.27000000E-02	 0.00000000E+00
	 3.75000000E-02	 1.27000000E-02	 0.00000000E+00
	 3.50000000E-02	 1.27000000E-02	 0.00000000E+00
	 3.25000000E-02	 1.27000000E-02	 0.00000000E+00
	 3.00000000E-02	 1.27000000E-02	 0.00000000E+00
	 2.75000000E-02	 1.27000000E-02	 0.00000000E+00
	 2.50000000E-02	 1.27000000E-02	 0.00000000E+00
	 2.25000000E-02	 1.27000000E-02	 0.00000000E+00
	 2.00000000E-02	 1.27000000E-02	 0.00000000E+00
	 1.75000000E-02	 1.27000000E-02	 0.00000000E+00
	 1.50000000E-02	 1.27000000E-02	 0.00000000E+00
	 1.25000000E-02	 1.27000000E-02	 0.00000000E+00
	 1.00000000E-02	 1.27000000E-02	 0.00000000E+00
	 7.50000000E-03	 1.27000000E-02	 0.00000000E+00
	 5.00000000E-03	 1.27000000E-02	 0.00000000E+00
	 2.50000000E-03	 1.27000000E-02	 0.00000000E+00
	 4.50000000E-02	 1.27000000E-02	 1.01600000E-02
	 4.50000000E-02	 1.27000000E-02	 7.62000000E-03
	 4.50000000E-02	 1.27000000E-02	 5.08000000E-03
	 4.50000000E-02	 1.27000000E-02	 2.54000000E-03
	 4.50000000E-02	 1.01600000E-02	 0.00000000E+00
	 4.50000000E-02	 7.62000000E-03	 0.00000000E+00
	 4.50000000E-02	 5.08000000E-03	 0.00000000E+00
	 4.50000000E-02	 2.54000000E-03	 0.00000000E+00
	 2.50000000E-03	 0.00000000E+00	 0.00000000E+00
	 5.00000000E-03	 0.00000000E+00	 0.00000000E+00
	 7.50000000E-03	 0.00000000E+00	 0.00000000E+00
	 1.00000000E-02	 0.00000000E+00	 0.00000000E+00
	 1.25000000E-02	 0.00000000E+00	 0.00000000E+00
	 1.50000000E-02	 0.00000000E+00	 0.00000000E+00
	 1.75000000E-02	 0.00000000E+00	 0.00000000E+00
	 2.00000000E-02	 0.00000000E+00	 0.00000000E+00
	 2.25000000E-02	 0.00000000E+00	 0.00000000E+00
	 2.50000000E-02	 0.00000000E+00	 0.00000000E+00
	 2.75000000E-02	 0.00000000E+00	 0.00000000E+00
	 3.00000000E-02	 0.00000000E+00	 0.00000000E+00
	 3.25000000E-02	 0.00000000E+00	 0.00000000E+00
	 3.50000000E-02	 0.00000000E+00	 0.00000000E+00
	 3.75000000E-02	 0.00000000E+00	 0.00000000E+00
	 4.00000000E-02	 0.00000000E+00	 0.00000000E+00
	 4.25000000E-02	 0.00000000E+00	 0.00000000E+00
	 4.50000000E-02	 0.00000000E+00	 2.54000000E-03
	 4.50000000E-02	 0.00000000E+00	 5.08000000E-03
	 4.50000000E-02	 0.00000000E+00	 7.62000000E-03
	 4.50000000E-02	 0.00000000E+00	 1.01600000E-02
	 4.50000000E-02	 2.28600000E-02	 1.27000000E-02
	 4.50000000E-02	 2.03200000E-02	 1.27000000E-02
	 4.50000000E-02	 1.77800000E-02	 1.27000000E-02
	 4.50000000E-02	 1.52400000E-02	 1.27000000E-02
	 0.00000000E+00	 1.52400000E-02	 1.27000000E-02
	 0.00000000E+00	 1.77800000E-02	 1.27000000E-02
	 0.00000000E+00	 2.03200000E-02	 1.27000000E-02
	 0.00000000E+00	 2.28600000E-02	 1.27000000E-02
	 0.00000000E+00	 2.54000000E-02	 2.54000000E-03
	 0.00000000E+00	 2.54000000E-02	 5.08000000E-03
	 0.00000000E+00	 2.54000000E-02	 7.62000000E-03
	 0.00000000E+00	 2.54000000E-02	 1.01600000E-02
	 0.00000000E+00	 1.52400000E-02	 0.00000000E+00
	 0.00000000E+00	 1.77800000E-02	 0.00000000E+00
	 0.00000000E+00	 2.03200000E-02	 0.00000000E+00
	 0.00000000E+00	 2.28600000E-02	 0.00000000E+00
	 2.50000000E-03	 2.54000000E-02	 1.27000000E-02
	 5.00000000E-03	 2.54000000E-02	 1.27000000E-02
	 7.50000000E-03	 2.54000000E-02	 1.27000000E-02
	 1.00000000E-02	 2.54000000E-02	 1.27000000E-02
	 1.25000000E-02	 2.54000000E-02	 1.27000000E-02
	 1.50000000E-02	 2.54000000E-02	 1.27000000E-02
	 1.75000000E-02	 2.54000000E-02	 1.27000000E-02
	 2.00000000E-02	 2.54000000E-02	 1.27000000E-02
	 2.25000000E-02	 2.54000000E-02	 1.27000000E-02
	 2.50000000E-02	 2.54000000E-02	 1.27000000E-02
	 2.75000000E-02	 2.54000000E-02	 1.27000000E-02
	 3.00000000E-02	 2.54000000E-02	 1.27000000E-02
	 3.25000000E-02	 2.54000000E-02	 1.27000000E-02
	 3.50000000E-02	 2.54000000E-02	 1.27000000E-02
	 3.75000000E-02	 2.54000000E-02	 1.27000000E-02
	 4.00000000E-02	 2.54000000E-02	 1.27000000E-02
	 4.25000000E-02	 2.54000000E-02	 1.27000000E-02
	 2.50000000E-03	 2.54000000E-02	 0.00000000E+00
	 5.00000000E-03	 2.54000000E-02	 0.00000000E+00
	 7.50000000E-03	 2.54000000E-02	 0.00000000E+00
	 1.00000000E-02	 2.54000000E-02	 0.00000000E+00
	 1.25000000E-02	 2.54000000E-02	 0.00000000E+00
	 1.50000000E-02	 2.54000000E-02	 0.00000000E+00
	 1.75000000E-02	 2.54000000E-02	 0.00000000E+00
	 2.00000000E-02	 2.54000000E-02	 0.00000000E+00
	 2.25000000E-02	 2.54000000E-02	 0.00000000E+00
	 2.50000000E-02	 2.54000000E-02	 0.00000000E+00
	 2.75000000E-02	 2.54000000E-02	 0.00000000E+00
	 3.00000000E-02	 2.54000000E-02	 0.00000000E+00
	 3.25000000E-02	 2.54000000E-02	 0.00000000E+00
	 3.50000000E-02	 2.54000000E-02	 0.00000000E+00
	 3.75000000E-02	 2.54000000E-02	 0.00000000E+00
	 4.00000000E-02	 2.54000000E-02	 0.00000000E+00
	 4.25000000E-02	 2.54000000E-02	 0.00000000E+00
[...]
POINT_DATA 3432
FIELD U 1
	U 3 3432 double
		 0.00000000E+00	 0.00000000E+00	 0.00000000E+00
		 0.00000000E+00	 0.00000000E+00	 0.00000000E+00
		 0.00000000E+00	 0.00000000E+00	 0.00000000E+00
		 0.00000000E+00	 0.00000000E+00	 0.00000000E+00
		 2.25663000E-09	-1.02771000E+00	-2.34159000E-08
		 1.42038000E-01	-1.02783000E+00	-2.05816000E+00
		-2.25662000E-09	 1.02771000E+00	-2.34159000E-08
		-1.42038000E-01	 1.02783000E+00	-2.05816000E+00
		 0.00000000E+00	 0.00000000E+00	 0.00000000E+00
		 0.00000000E+00	 0.00000000E+00	 0.00000000E+00
		-1.42038000E-01	-1.02783000E+00	 2.05816000E+00
		 1.42038000E-01	 1.02783000E+00	 2.05816000E+00
		-2.94518000E-09	-1.16631000E+00	-2.73831000E-08
		 1.40273000E-01	-1.20672000E+00	-1.20156000E+00
		 2.94519000E-09	 1.16631000E+00	-2.73831000E-08
		-1.40273000E-01	 1.20672000E+00	-1.20156000E+00
		 1.40273000E-01	 1.20672000E+00	 1.20156000E+00
		-1.40273000E-01	-1.20672000E+00	 1.20156000E+00
		-1.30239000E-01	 1.37782000E+00	-2.75961000E+00
		 1.30239000E-01	-1.37782000E+00	-2.75961000E+00
		-1.52448000E-01	 1.37533000E+00	-1.89799000E+00
		 1.52448000E-01	-1.37533000E+00	-1.89799000E+00
		-1.00422000E-08	-1.20447000E+00	-2.47196000E-08
		 1.51022000E-01	-1.37332000E+00	-9.19821000E-01
		 1.00422000E-08	 1.20447000E+00	-2.47196000E-08
		-1.51022000E-01	 1.37332000E+00	-9.19821000E-01
		 1.30239000E-01	 1.37782000E+00	 2.75961000E+00
		-1.30239000E-01	-1.37782000E+00	 2.75961000E+00
		 1.52448000E-01	 1.37533000E+00	 1.89799000E+00
		-1.52448000E-01	-1.37533000E+00	 1.89799000E+00
		 1.51022000E-01	 1.37332000E+00	 9.19821000E-01
		-1.51022000E-01	-1.37332000E+00	 9.19821000E-01
		-1.00427000E-01	 1.67980000E+00	-3.35761000E+00
		 1.00427000E-01	-1.67980000E+00	-3.35761000E+00
		-1.23256000E-01	 1.53384000E+00	-1.47479000E+00
		 1.23256000E-01	-1.53384000E+00	-1.47479000E+00
		-1.47442000E-08	-1.53749000E+00	-2.94836000E-08
		-8.27060000E-09	-1.56759000E+00	-2.37924000E-08
		 1.47442000E-08	 1.53749000E+00	-2.94836000E-08
		 8.27061000E-09	 1.56759000E+00	-2.37924000E-08
		 1.00427000E-01	 1.67980000E+00	 3.35761000E+00
		-1.00427000E-01	-1.67980000E+00	 3.35761000E+00
		 1.23256000E-01	 1.53384000E+00	 1.47479000E+00
		-1.23256000E-01	-1.53384000E+00	 1.47479000E+00
		-2.19730000E-02	 2.02594000E+00	-4.07397000E+00
		 2.19730000E-02	-2.02594000E+00	-4.07397000E+00
		 4.71012000E-09	 1.67213000E+00	-2.17137000E-08
		 8.58169000E-09	 2.02465000E+00	 2.94167000E-08
		-8.58166000E-09	-2.02465000E+00	 2.94167000E-08
		-4.71010000E-09	-1.67213000E+00	-2.17137000E-08
		 2.19730000E-02	 2.02594000E+00	 4.07397000E+00
		-2.19730000E-02	-2.02594000E+00	 4.07397000E+00
		 5.19897000E-02	-1.02736000E+00	-4.10618000E-01
		 9.93073000E-02	-1.02656000E+00	-8.21374000E-01
		 1.36640000E-01	-1.02583000E+00	-1.23229000E+00
		 1.55757000E-01	-1.02613000E+00	-1.64345000E+00
		 0.00000000E+00	 0.00000000E+00	 0.00000000E+00
		 0.00000000E+00	 0.00000000E+00	 0.00000000E+00
		 0.00000000E+00	 0.00000000E+00	 0.00000000E+00
		 0.00000000E+00	 0.00000000E+00	 0.00000000E+00
		 0.00000000E+00	 0.00000000E+00	 0.00000000E+00
		 0.00000000E+00	 0.00000000E+00	 0.00000000E+00
		 0.00000000E+00	 0.00000000E+00	 0.00000000E+00
		 0.00000000E+00	 0.00000000E+00	 0.00000000E+00
		 0.00000000E+00	 0.00000000E+00	 0.00000000E+00
		 0.00000000E+00	 0.00000000E+00	 0.00000000E+00
		 0.00000000E+00	 0.00000000E+00	 0.00000000E+00
		 0.00000000E+00	 0.00000000E+00	 0.00000000E+00
		 0.00000000E+00	 0.00000000E+00	 0.00000000E+00
		 0.00000000E+00	 0.00000000E+00	 0.00000000E+00
		 0.00000000E+00	 0.00000000E+00	 0.00000000E+00
		 0.00000000E+00	 0.00000000E+00	 0.00000000E+00
		 2.68547000E-09	-9.71104000E-01	-2.20062000E-08
		 3.03909000E-09	-9.13984000E-01	-2.07137000E-08
		 3.36060000E-09	-8.56356000E-01	-1.92034000E-08
		 3.56228000E-09	-7.98192000E-01	-1.76449000E-08
		 3.69045000E-09	-7.39505000E-01	-1.60543000E-08
		 3.76565000E-09	-6.80342000E-01	-1.44434000E-08
		 3.79065000E-09	-6.20785000E-01	-1.28242000E-08
		 3.76277000E-09	-5.60951000E-01	-1.12114000E-08
		 3.67821000E-09	-5.01014000E-01	-9.62319000E-09
		 3.53344000E-09	-4.41214000E-01	-8.08004000E-09
		 3.32556000E-09	-3.81880000E-01	-6.60440000E-09
		 3.05238000E-09	-3.23447000E-01	-5.22001000E-09
		 2.71242000E-09	-2.66472000E-01	-3.95138000E-09
		 2.30522000E-09	-2.11598000E-01	-2.82346000E-09
		 1.83174000E-09	-1.59355000E-01	-1.86159000E-09
		 1.29607000E-09	-1.09575000E-01	-1.08576000E-09
		 6.95161000E-10	-6.00387000E-02	-5.20985000E-10
		 4.53042000E-02	-2.64390000E-02	-7.95517000E-02
		 7.59849000E-02	-8.35687000E-02	-1.76998000E-01
		 9.83538000E-02	-1.41575000E-01	-2.84550000E-01
		 1.14449000E-01	-2.00347000E-01	-3.97810000E-01
		 1.25434000E-01	-2.59644000E-01	-5.15141000E-01
		 1.32571000E-01	-3.19513000E-01	-6.35003000E-01
		 1.36949000E-01	-3.79814000E-01	-7.56269000E-01
		 1.39409000E-01	-4.40359000E-01	-8.78122000E-01
		 1.40557000E-01	-5.00949000E-01	-9.99975000E-01
		 1.40822000E-01	-5.61402000E-01	-1.12140000E+00
		 1.40511000E-01	-6.21568000E-01	-1.24210000E+00
		 1.39852000E-01	-6.81322000E-01	-1.36182000E+00
		 1.39039000E-01	-7.40570000E-01	-1.48043000E+00
		 1.38260000E-01	-7.99245000E-01	-1.59781000E+00
		 1.37739000E-01	-8.57304000E-01	-1.71397000E+00
		 1.37770000E-01	-9.14787000E-01	-1.82904000E+00
		 1.39010000E-01	-9.71647000E-01	-1.94349000E+00
		-2.68547000E-09	 9.71104000E-01	-2.20062000E-08
		-3.03908000E-09	 9.13984000E-01	-2.07137000E-08
		-3.36060000E-09	 8.56356000E-01	-1.92034000E-08
		-3.56227000E-09	 7.98192000E-01	-1.76449000E-08
		-3.69044000E-09	 7.39505000E-01	-1.60543000E-08
		-3.76564000E-09	 6.80342000E-01	-1.44434000E-08
		-3.79065000E-09	 6.20785000E-01	-1.28242000E-08
		-3.76277000E-09	 5.60951000E-01	-1.12114000E-08
		-3.67820000E-09	 5.01014000E-01	-9.62319000E-09
		-3.53343000E-09	 4.41214000E-01	-8.08004000E-09
		-3.32556000E-09	 3.81880000E-01	-6.60440000E-09
		-3.05237000E-09	 3.23447000E-01	-5.22001000E-09
		-2.71242000E-09	 2.66472000E-01	-3.95138000E-09
		-2.30521000E-09	 2.11598000E-01	-2.82346000E-09
		-1.83174000E-09	 1.59355000E-01	-1.86159000E-09
		-1.29607000E-09	 1.09575000E-01	-1.08576000E-09
		-6.95160000E-10	 6.00387000E-02	-5.20984000E-10
		 1.07172000E-09	-6.16886000E-01	-2.37491000E-08
		 3.13067000E-10	-2.05652000E-01	-2.39505000E-08
		-3.13058000E-10	 2.05652000E-01	-2.39505000E-08
		-1.07171000E-09	 6.16886000E-01	-2.37491000E-08
		-5.19897000E-02	 1.02736000E+00	-4.10618000E-01
		-9.93073000E-02	 1.02656000E+00	-8.21374000E-01
		-1.36640000E-01	 1.02583000E+00	-1.23229000E+00
		-1.55757000E-01	 1.02613000E+00	-1.64345000E+00
		-4.53042000E-02	 2.64390000E-02	-7.95517000E-02
		-7.59849000E-02	 8.35687000E-02	-1.76998000E-01
		-9.83538000E-02	 1.41575000E-01	-2.84550000E-01
		-1.14449000E-01	 2.00347000E-01	-3.97810000E-01
		-1.25434000E-01	 2.59644000E-01	-5.15141000E-01
		-1.32571000E-01	 3.19513000E-01	-6.35003000E-01
		-1.36949000E-01	 3.79814000E-01	-7.56269000E-01
		-1.39409000E-01	 4.40359000E-01	-8.78122000E-01
		-1.40557000E-01	 5.00949000E-01	-9.99975000E-01
		-1.40822000E-01	 5.61402000E-01	-1.12140000E+00
		-1.40511000E-01	 6.21568000E-01	-1.24210000E+00
		-1.39852000E-01	 6.81322000E-01	-1.36182000E+00
		-1.39039000E-01	 7.40570000E-01	-1.48043000E+00
		-1.38260000E-01	 7.99245000E-01	-1.59781000E+00
		-1.37739000E-01	 8.57304000E-01	-1.71397000E+00
		-1.37770000E-01	 9.14787000E-01	-1.82904000E+00
		-1.39010000E-01	 9.71647000E-01	-1.94349000E+00
		-6.31764000E-02	 6.14800000E-01	-2.05706000E+00
		-1.80660000E-02	 2.04833000E-01	-2.05632000E+00
		 1.80660000E-02	-2.04833000E-01	-2.05632000E+00
		 6.31764000E-02	-6.14800000E-01	-2.05706000E+00
		-1.55757000E-01	-1.02613000E+00	 1.64345000E+00
		-1.36640000E-01	-1.02583000E+00	 1.23229000E+00
		-9.93073000E-02	-1.02656000E+00	 8.21374000E-01
		-5.19897000E-02	-1.02736000E+00	 4.10618000E-01
		 0.00000000E+00	 0.00000000E+00	 0.00000000E+00
		 0.00000000E+00	 0.00000000E+00	 0.00000000E+00
		 0.00000000E+00	 0.00000000E+00	 0.00000000E+00
		 0.00000000E+00	 0.00000000E+00	 0.00000000E+00
		 0.00000000E+00	 0.00000000E+00	 0.00000000E+00
		 0.00000000E+00	 0.00000000E+00	 0.00000000E+00
		 0.00000000E+00	 0.00000000E+00	 0.00000000E+00
		 0.00000000E+00	 0.00000000E+00	 0.00000000E+00
		 0.00000000E+00	 0.00000000E+00	 0.00000000E+00
		 0.00000000E+00	 0.00000000E+00	 0.00000000E+00
		 0.00000000E+00	 0.00000000E+00	 0.00000000E+00
		 0.00000000E+00	 0.00000000E+00	 0.00000000E+00
		-4.53042000E-02	-2.64390000E-02	 7.95517000E-02
		-7.59849000E-02	-8.35687000E-02	 1.76998000E-01
		-9.83538000E-02	-1.41575000E-01	 2.84550000E-01
		-1.14449000E-01	-2.00347000E-01	 3.97810000E-01
		-1.25434000E-01	-2.59644000E-01	 5.15141000E-01
		-1.32571000E-01	-3.19513000E-01	 6.35003000E-01
		-1.36949000E-01	-3.79814000E-01	 7.56269000E-01
		-1.39409000E-01	-4.40359000E-01	 8.78122000E-01
		-1.40557000E-01	-5.00949000E-01	 9.99975000E-01
		-1.40822000E-01	-5.61402000E-01	 1.12140000E+00
		-1.40511000E-01	-6.21568000E-01	 1.24210000E+00
		-1.39852000E-01	-6.81322000E-01	 1.36182000E+00
		-1.39039000E-01	-7.40570000E-01	 1.48043000E+00
		-1.38260000E-01	-7.99245000E-01	 1.59781000E+00
		-1.37739000E-01	-8.57304000E-01	 1.71397000E+00
		-1.37770000E-01	-9.14787000E-01	 1.82904000E+00
		-1.39010000E-01	-9.71647000E-01	 1.94349000E+00
		 4.53042000E-02	 2.64390000E-02	 7.95517000E-02
		 7.59849000E-02	 8.35687000E-02	 1.76998000E-01
		 9.83538000E-02	 1.41575000E-01	 2.84550000E-01
		 1.14449000E-01	 2.00347000E-01	 3.97810000E-01
		 1.25434000E-01	 2.59644000E-01	 5.15141000E-01
		 1.32571000E-01	 3.19513000E-01	 6.35003000E-01
		 1.36949000E-01	 3.79814000E-01	 7.56269000E-01
		 1.39409000E-01	 4.40359000E-01	 8.78122000E-01
		 1.40557000E-01	 5.00949000E-01	 9.99975000E-01
		 1.40822000E-01	 5.61402000E-01	 1.12140000E+00
		 1.40511000E-01	 6.21568000E-01	 1.24210000E+00
		 1.39852000E-01	 6.81322000E-01	 1.36182000E+00
		 1.39039000E-01	 7.40570000E-01	 1.48043000E+00
		 1.38260000E-01	 7.99245000E-01	 1.59781000E+00
		 1.37739000E-01	 8.57304000E-01	 1.71397000E+00
		 1.37770000E-01	 9.14787000E-01	 1.82904000E+00
		 1.39010000E-01	 9.71647000E-01	 1.94349000E+00
		 6.31764000E-02	 6.14800000E-01	 2.05706000E+00
		 1.80660000E-02	 2.04833000E-01	 2.05632000E+00
		-1.80660000E-02	-2.04833000E-01	 2.05632000E+00
		-6.31764000E-02	-6.14800000E-01	 2.05706000E+00
		 1.55757000E-01	 1.02613000E+00	 1.64345000E+00
		 1.36640000E-01	 1.02583000E+00	 1.23229000E+00
		 9.93073000E-02	 1.02656000E+00	 8.21374000E-01
		 5.19897000E-02	 1.02736000E+00	 4.10618000E-01
		 1.57787000E-01	-1.37614000E+00	-2.18497000E+00
		 1.53512000E-01	-1.37700000E+00	-2.47214000E+00
		 1.27175000E-10	-1.12110000E+00	-2.64232000E-08
		 1.73627000E-09	-1.07477000E+00	-2.48573000E-08
		 1.23533000E-01	-1.18918000E+00	-9.81470000E-01
		 9.98205000E-02	-1.17795000E+00	-7.46820000E-01
		 7.09659000E-02	-1.17037000E+00	-5.04093000E-01
		 3.62515000E-02	-1.16721000E+00	-2.52255000E-01
		 1.58703000E-01	-1.08788000E+00	-1.81320000E+00
		 1.53959000E-01	-1.15008000E+00	-1.52907000E+00
		-1.27165000E-10	 1.12110000E+00	-2.64232000E-08
		-1.73626000E-09	 1.07477000E+00	-2.48573000E-08
		-2.80349000E-09	-6.97971000E-01	-2.88899000E-08
		-1.12041000E-09	-2.32196000E-01	-2.96901000E-08
		 1.12043000E-09	 2.32196000E-01	-2.96901000E-08
		 2.80350000E-09	 6.97971000E-01	-2.88899000E-08
		-8.05085000E-02	 7.20844000E-01	-1.19712000E+00
		-2.61754000E-02	 2.39769000E-01	-1.19442000E+00
		 2.61754000E-02	-2.39769000E-01	-1.19442000E+00
		 8.05085000E-02	-7.20844000E-01	-1.19712000E+00
		-1.23533000E-01	 1.18918000E+00	-9.81470000E-01
		-9.98205000E-02	 1.17795000E+00	-7.46820000E-01
		-7.09659000E-02	 1.17037000E+00	-5.04093000E-01
		-3.62515000E-02	 1.16721000E+00	-2.52255000E-01
		-1.58703000E-01	 1.08788000E+00	-1.81320000E+00
		-1.53959000E-01	 1.15008000E+00	-1.52907000E+00
		 1.58703000E-01	 1.08788000E+00	 1.81320000E+00
		 1.53959000E-01	 1.15008000E+00	 1.52907000E+00
		 3.62515000E-02	 1.16721000E+00	 2.52254000E-01
		 7.09659000E-02	 1.17037000E+00	 5.04093000E-01
		 9.98205000E-02	 1.17795000E+00	 7.46820000E-01
		 1.23533000E-01	 1.18918000E+00	 9.81470000E-01
		-3.62515000E-02	-1.16721000E+00	 2.52254000E-01
		-7.09659000E-02	-1.17037000E+00	 5.04093000E-01
		-9.98205000E-02	-1.17795000E+00	 7.46820000E-01
		-1.23533000E-01	-1.18918000E+00	 9.81470000E-01
		 8.05085000E-02	 7.20844000E-01	 1.19712000E+00
		 2.61754000E-02	 2.39769000E-01	 1.19442000E+00
		-2.61754000E-02	-2.39769000E-01	 1.19442000E+00
		-8.05085000E-02	-7.20844000E-01	 1.19712000E+00
		-1.58703000E-01	-1.08788000E+00	 1.81320000E+00
		-1.53959000E-01	-1.15008000E+00	 1.52907000E+00
		 1.55858000E-01	-1.30577000E+00	-1.76190000E+00
		 1.54191000E-01	-1.24767000E+00	-1.52068000E+00
		-1.40136000E-01	 1.13075000E+00	-2.27669000E+00
		-1.40059000E-01	 1.24071000E+00	-2.50981000E+00
		-5.10237000E-02	 8.26407000E-01	-2.76017000E+00
		-1.37204000E-02	 2.75427000E-01	-2.76019000E+00
		 1.37204000E-02	-2.75427000E-01	-2.76019000E+00
		 5.10237000E-02	-8.26407000E-01	-2.76017000E+00
		 1.40136000E-01	-1.13075000E+00	-2.27669000E+00
		 1.40059000E-01	-1.24071000E+00	-2.50981000E+00
		-1.55858000E-01	 1.30577000E+00	-1.76190000E+00
		-1.54191000E-01	 1.24767000E+00	-1.52068000E+00
		-1.57787000E-01	 1.37614000E+00	-2.18497000E+00
		-1.53512000E-01	 1.37700000E+00	-2.47214000E+00
		 8.09528000E-02	-8.25019000E-01	-1.89878000E+00
		 2.52121000E-02	-2.74968000E-01	-1.89901000E+00
		-2.52121000E-02	 2.74968000E-01	-1.89901000E+00
		-8.09528000E-02	 8.25019000E-01	-1.89878000E+00
		-7.83512000E-09	-1.20749000E+00	-2.74553000E-08
		 1.49960000E-01	-1.32310000E+00	-8.86141000E-01
		 1.40838000E-01	-1.27848000E+00	-7.92641000E-01
		 1.21310000E-01	-1.24383000E+00	-6.46035000E-01
		 8.99376000E-02	-1.22075000E+00	-4.56105000E-01
		 4.80209000E-02	-1.20818000E+00	-2.35969000E-01
		 1.35255000E-01	-1.37433000E+00	-1.40879000E+00
		 7.83513000E-09	 1.20749000E+00	-2.74553000E-08
		 7.06613000E-09	 7.08661000E-01	-2.93667000E-08
		 2.74510000E-09	 2.35895000E-01	-3.17246000E-08
		-2.74509000E-09	-2.35895000E-01	-3.17246000E-08
		-7.06612000E-09	-7.08661000E-01	-2.93667000E-08
		-9.94627000E-02	 8.23750000E-01	-9.20911000E-01
		-3.26624000E-02	 2.74533000E-01	-9.21292000E-01
		 3.26624000E-02	-2.74533000E-01	-9.21292000E-01
		 9.94627000E-02	-8.23750000E-01	-9.20911000E-01
		-4.80209000E-02	 1.20818000E+00	-2.35969000E-01
		-8.99376000E-02	 1.22075000E+00	-4.56105000E-01
		-1.21310000E-01	 1.24383000E+00	-6.46035000E-01
		-1.40838000E-01	 1.27848000E+00	-7.92641000E-01
		-1.49960000E-01	 1.32310000E+00	-8.86141000E-01
		-1.35255000E-01	 1.37433000E+00	-1.40879000E+00
		-1.54191000E-01	-1.24767000E+00	 1.52068000E+00
		-1.55858000E-01	-1.30577000E+00	 1.76190000E+00
		 1.40136000E-01	 1.13075000E+00	 2.27669000E+00
		 1.40059000E-01	 1.24071000E+00	 2.50981000E+00
		 5.10237000E-02	 8.26407000E-01	 2.76017000E+00
		 1.37204000E-02	 2.75427000E-01	 2.76019000E+00
		-1.37204000E-02	-2.75427000E-01	 2.76019000E+00
		-5.10237000E-02	-8.26407000E-01	 2.76017000E+00
		-1.40136000E-01	-1.13075000E+00	 2.27669000E+00
		-1.40059000E-01	-1.24071000E+00	 2.50981000E+00
		 1.53512000E-01	 1.37700000E+00	 2.47214000E+00
		 1.57787000E-01	 1.37614000E+00	 2.18497000E+00
		 1.54191000E-01	 1.24767000E+00	 1.52068000E+00
		 1.55858000E-01	 1.30577000E+00	 1.76190000E+00
		-1.53512000E-01	-1.37700000E+00	 2.47214000E+00
		-1.57787000E-01	-1.37614000E+00	 2.18497000E+00
		-8.09528000E-02	-8.25019000E-01	 1.89878000E+00
		-2.52121000E-02	-2.74968000E-01	 1.89901000E+00
		 2.52121000E-02	 2.74968000E-01	 1.89901000E+00
		 8.09528000E-02	 8.25019000E-01	 1.89878000E+00
		 1.35255000E-01	 1.37433000E+00	 1.40879000E+00
		-4.80209000E-02	-1.20818000E+00	 2.35969000E-01
		-8.99376000E-02	-1.22075000E+00	 4.56105000E-01
		-1.21310000E-01	-1.24383000E+00	 6.46035000E-01
		-1.40838000E-01	-1.27848000E+00	 7.92640000E-01
		-1.49960000E-01	-1.32310000E+00	 8.86140000E-01
		 1.49960000E-01	 1.32310000E+00	 8.86140000E-01
		 1.40838000E-01	 1.27848000E+00	 7.92640000E-01
		 1.21310000E-01	 1.24383000E+00	 6.46035000E-01
		 8.99376000E-02	 1.22075000E+00	 4.56105000E-01
		 4.80209000E-02	 1.20818000E+00	 2.35969000E-01
		-1.35255000E-01	-1.37433000E+00	 1.40879000E+00
		 9.94626000E-02	 8.23750000E-01	 9.20911000E-01
		 3.26624000E-02	 2.74533000E-01	 9.21292000E-01
		-3.26624000E-02	-2.74533000E-01	 9.21292000E-01
		-9.94626000E-02	-8.23750000E-01	 9.20911000E-01
		 1.40308000E-01	-1.49744000E+00	-1.76172000E+00
		 1.48255000E-01	-1.44325000E+00	-1.90316000E+00
		-1.25570000E-01	 1.50849000E+00	-2.99612000E+00
		-1.12796000E-01	 1.60161000E+00	-3.19279000E+00
		-4.47937000E-02	 1.00874000E+00	-3.35948000E+00
		-1.28816000E-02	 3.36238000E-01	-3.36011000E+00
		 1.28816000E-02	-3.36238000E-01	-3.36011000E+00
		 4.47937000E-02	-1.00874000E+00	-3.35948000E+00
		 1.25570000E-01	-1.50849000E+00	-2.99612000E+00
		 1.12796000E-01	-1.60161000E+00	-3.19279000E+00
		-1.40308000E-01	 1.49744000E+00	-1.76172000E+00
		-1.48255000E-01	 1.44325000E+00	-1.90316000E+00
		-1.21470000E-01	 1.63272000E+00	-2.70265000E+00
		-1.26502000E-01	 1.58222000E+00	-2.07350000E+00
		 1.21470000E-01	-1.63272000E+00	-2.70265000E+00
		 1.26502000E-01	-1.58222000E+00	-2.07350000E+00
		-7.12356000E-02	 9.22392000E-01	-1.48040000E+00
		-2.32387000E-02	 3.07793000E-01	-1.48335000E+00
		 2.32387000E-02	-3.07793000E-01	-1.48335000E+00
		 7.12356000E-02	-9.22392000E-01	-1.48040000E+00
		 4.26411000E-02	-1.53386000E+00	-2.40968000E-01
		 8.08456000E-02	-1.52171000E+00	-4.64951000E-01
		 1.11185000E-01	-1.49957000E+00	-6.55975000E-01
		 1.32397000E-01	-1.46634000E+00	-8.01261000E-01
		 1.45255000E-01	-1.42303000E+00	-8.91034000E-01
		-1.27304000E-08	-1.53383000E+00	-2.52797000E-08
		 3.67136000E-02	-1.67261000E+00	-6.72376000E-01
		 7.00292000E-02	-1.67395000E+00	-1.34436000E+00
		 9.62451000E-02	-1.67588000E+00	-2.01586000E+00
		 1.09736000E-01	-1.67800000E+00	-2.68722000E+00
		 3.03532000E-02	-1.56698000E+00	-3.37991000E-01
		 6.00387000E-02	-1.56445000E+00	-6.62801000E-01
		 8.50492000E-02	-1.55830000E+00	-9.68397000E-01
		 1.06810000E-01	-1.54883000E+00	-1.24116000E+00
		 1.00031000E-08	 9.33062000E-01	-2.49797000E-08
		 3.74044000E-09	 3.11108000E-01	-2.27428000E-08
		-3.74043000E-09	-3.11108000E-01	-2.27428000E-08
		-1.00031000E-08	-9.33062000E-01	-2.49797000E-08
		-1.45255000E-01	 1.42303000E+00	-8.91034000E-01
		-1.32397000E-01	 1.46634000E+00	-8.01261000E-01
		-1.11185000E-01	 1.49957000E+00	-6.55975000E-01
		-8.08456000E-02	 1.52171000E+00	-4.64951000E-01
		-4.26411000E-02	 1.53386000E+00	-2.40968000E-01
		 6.06990000E-09	 9.40504000E-01	-2.24004000E-08
		 2.21412000E-09	 3.13655000E-01	-2.16515000E-08
		-2.21411000E-09	-3.13655000E-01	-2.16515000E-08
		-6.06989000E-09	-9.40504000E-01	-2.24004000E-08
		 1.27304000E-08	 1.53383000E+00	-2.52797000E-08
		-3.03532000E-02	 1.56698000E+00	-3.37991000E-01
		-6.00387000E-02	 1.56445000E+00	-6.62801000E-01
		-8.50492000E-02	 1.55830000E+00	-9.68397000E-01
		-1.06810000E-01	 1.54883000E+00	-1.24116000E+00
		-1.48255000E-01	-1.44325000E+00	 1.90316000E+00
		-1.40308000E-01	-1.49744000E+00	 1.76173000E+00
		 1.25570000E-01	 1.50849000E+00	 2.99612000E+00
		 1.12796000E-01	 1.60161000E+00	 3.19279000E+00
		 4.47937000E-02	 1.00874000E+00	 3.35948000E+00
		 1.28816000E-02	 3.36238000E-01	 3.36011000E+00
		-1.28816000E-02	-3.36238000E-01	 3.36011000E+00
		-4.47937000E-02	-1.00874000E+00	 3.35948000E+00
		-1.25570000E-01	-1.50849000E+00	 2.99612000E+00
		-1.12796000E-01	-1.60161000E+00	 3.19279000E+00
		 1.21470000E-01	 1.63272000E+00	 2.70265000E+00
		 1.26502000E-01	 1.58222000E+00	 2.07350000E+00
		 1.48255000E-01	 1.44325000E+00	 1.90316000E+00
		 1.40308000E-01	 1.49744000E+00	 1.76173000E+00
		-1.21470000E-01	-1.63272000E+00	 2.70265000E+00
		-1.26502000E-01	-1.58222000E+00	 2.07350000E+00
		 7.12356000E-02	 9.22392000E-01	 1.48040000E+00
		 2.32387000E-02	 3.07793000E-01	 1.48335000E+00
		-2.32387000E-02	-3.07793000E-01	 1.48335000E+00