# vtk DataFile Version 3.0

ASCII
DATASET UNSTRUCTURED_GRID

POINTS 3432 double
	 0.00000000E+00	 0.00000000E+00	 1.27000000E-02
	 0.00000000E+00	 1.27000000E-02	 1.27000000E-02
	 0.00000000E+00	 1.27000000E-02	 0.00000000E+00
	 0.00000000E+00	 0.00000000E+00	 0.00000000E+00
	 4.50000000E-02	 1.27000000E-02	 1.27000000E-02
	 4.50000000E-02	 0.00000000E+00	 1.27000000E-02
	 4.50000000E-02	 1.27000000E-02	 0.00000000E+00
	 4.50000000E-02	 0.00000000E+00	 0.00000000E+00
	 0.00000000E+00	 2.54000000E-02	 1.27000000E-02
	 0.00000000E+00	 2.54000000E-02	 0.00000000E+00
	 4.50000000E-02	 2.54000000E-02	 1.27000000E-02
	 4.50000000E-02	 2.54000000E-02	 0.00000000E+00
	 5.12690000E-02	 1.27000000E-02	 1.27000000E-02
	 5.38263000E-02	 6.52625000E-03	 1.27000000E-02
	 5.12690000E-02	 1.27000000E-02	 0.00000000E+00
	 5.38263000E-02	 6.52625000E-03	 0.00000000E+00
	 5.38263000E-02	 1.88737000E-02	 0.00000000E+00
	 5.38263000E-02	 1.88737000E-02	 1.27000000E-02
	 6.00000000E-02	 0.00000000E+00	 0.00000000E+00
	 6.00000000E-02	 0.00000000E+00	 1.27000000E-02
	 6.00000000E-02	 3.96900000E-03	 0.00000000E+00
	 6.00000000E-02	 3.96900000E-03	 1.27000000E-02
	 5.57840000E-02	 1.27000000E-02	 1.27000000E-02
	 6.00000000E-02	 8.48400000E-03	 1.27000000E-02
	 5.57840000E-02	 1.27000000E-02	 0.00000000E+00
	 6.00000000E-02	 8.48400000E-03	 0.00000000E+00
	 6.00000000E-02	 2.54000000E-02	 0.00000000E+00
	 6.00000000E-02	 2.54000000E-02	 1.27000000E-02
	 6.00000000E-02	 2.14310000E-02	 0.00000000E+00
	 6.00000000E-02	 2.14310000E-02	 1.27000000E-02
	 6.00000000E-02	 1.69160000E-02	 0.00000000E+00
	 6.00000000E-02	 1.69160000E-02	 1.27000000E-02
	 7.50000000E-02	 0.00000000E+00	 0.00000000E+00
	 7.50000000E-02	 0.00000000E+00	 1.27000000E-02
	 6.61737000E-02	 6.52625000E-03	 0.00000000E+00
	 6.61737000E-02	 6.52625000E-03	 1.27000000E-02
	 6.42160000E-02	 1.27000000E-02	 1.27000000E-02
	 6.87310000E-02	 1.27000000E-02	 1.27000000E-02
	 6.42160000E-02	 1.27000000E-02	 0.00000000E+00
	 6.87310000E-02	 1.27000000E-02	 0.00000000E+00
	 7.50000000E-02	 2.54000000E-02	 0.00000000E+00
	 7.50000000E-02	 2.54000000E-02	 1.27000000E-02
	 6.61737000E-02	 1.88737000E-02	 0.00000000E+00
	 6.61737000E-02	 1.88737000E-02	 1.27000000E-02
	 1.20000000E-01	 0.00000000E+00	 0.00000000E+00
	 1.20000000E-01	 0.00000000E+00	 1.27000000E-02
	 7.50000000E-02	 1.27000000E-02	 0.00000000E+00
	 1.20000000E-01	 1.27000000E-02	 0.00000000E+00
	 1.20000000E-01	 1.27000000E-02	 1.27000000E-02
	 7.50000000E-02	 1.27000000E-02	 1.27000000E-02
	 1.20000000E-01	 2.54000000E-02	 0.00000000E+00
	 1.20000000E-01	 2.54000000E-02	 1.27000000E-02
	 4.50000000E-02	 1.01600000E-02	 1.27000000E-02
	 4.50000000E-02	 7.62000000E-03	 1.27000000E-02
	 4.50000000E-02	 5.08000000E-03	 1.27000000E-02
	 4.50000000E-02	 2.54000000E-03	 1.27000000E-02
	 0.00000000E+00	 2.54000000E-03	 1.27000000E-02
	 0.00000000E+00	 5.08000000E-03	 1.27000000E-02
	 0.00000000E+00	 7.62000000E-03	 1.27000000E-02
	 0.00000000E+00	 1.01600000E-02	 1.27000000E-02
	 0.00000000E+00	 1.27000000E-02	 2.54000000E-03
	 0.00000000E+00	 1.27000000E-02	 5.08000000E-03
	 0.00000000E+00	 1.27000000E-02	 7.62000000E-03
	 0.00000000E+00	 1.27000000E-02	 1.01600000E-02
	 0.00000000E+00	 2.54000000E-03	 0.00000000E+00
	 0.00000000E+00	 5.08000000E-03	 0.00000000E+00
	 0.00000000E+00	 7.62000000E-03	 0.00000000E+00
	 0.00000000E+00	 1.01600000E-02	 0.00000000E+00
	 0.00000000E+00	 0.00000000E+00	 2.54000000E-03
	 0.00000000E+00	 0.00000000E+00	 5.08000000E-03
	 0.00000000E+00	 0.00000000E+00	 7.62000000E-03
	 0.00000000E+00	 0.00000000E+00	 1.01600000E-02
	 4.25000000E-02	 1.27000000E-02	 1.27000000E-02
	 4.00000000E-02	 1.27000000E-02	 1.27000000E-02
	 3.75000000E-02	 1.27000000E-02	 1.27000000E-02
	 3.50000000E-02	 1.27000000E-02	 1.27000000E-02
	 3.25000000E-02	 1.27000000E-02	 1.27000000E-02
	 3.00000000E-02	 1.27000000E-02	 1.27000000E-02
	 2.75000000E-02	 1.27000000E-02	 1.27000000E-02
	 2.50000000E-02	 1.27000000E-02	 1.27000000E-02
	 2.25000000E-02	 1.27000000E-02	 1.27000000E-02
	 2.00000000E-02	 1.27000000E-02	 1.27000000E-02
	 1.75000000E-02	 1.27000000E-02	 1.27000000E-02
	 1.50000000E-02	 1.27000000E-02	 1.27000000E-02
	 1.25000000E-02	 1.27000000E-02	 1.27000000E-02
	 1.00000000E-02	 1.27000000E-02	 1.27000000E-02
	 7.50000000E-03	 1.27000000E-02	 1.27000000E-02
	 5.00000000E-03	 1.27000000E-02	 1.27000000E-02
	 2.50000000E-03	 1.27000000E-02	 1.27000000E-02
	 2.50000000E-03	 0.00000000E+00	 1.27000000E-02
	 5.00000000E-03	 0.00000000E+00	 1.27000000E-02
	 7.50000000E-03	 0.00000000E+00	 1.27000000E-02
	 1.00000000E-02	 0.00000000E+00	 1.27000000E-02
	 1.25000000E-02	 0.00000000E+00	 1.27000000E-02
	 1.50000000E-02	 0.00000000E+00	 1.27000000E-02
	 1.75000000E-02	 0.00000000E+00	 1.27000000E-02
	 2.00000000E-02	 0.00000000E+00	 1.27000000E-02
	 2.25000000E-02	 0.00000000E+00	 1.27000000E-02
	 2.50000000E-02	 0.00000000E+00	 1.27000000E-02
	 2.75000000E-02	 0.00000000E+00	 1.27000000E-02
	 3.00000000E-02	 0.00000000E+00	 1.27000000E-02
	 3.25000000E-02	 0.00000000E+00	 1.27000000E-02
	 3.50000000E-02	 0.00000000E+00	 1.27000000E-02
	 3.75000000E-02	 0.00000000E+00	 1.27000000E-02
	 4.00000000E-02	 0.00000000E+00	 1.27000000E-02
	 4.25000000E-02	 0.00000000E+00	 1.27000000E-02
	 4.25000000E-02	 1.27000000E-02	 0.00000000E+00
	 4.00000000E-02	 1.27000000E-02	 0.00000000E+00
	 3.75000000E-02	 1.27000000E-02	 0.00000000E+00
	 3.50000000E-02	 1.27000000E-02	 0.00000000E+00
	 3.25000000E-02	 1.27000000E-02	 0.00000000E+00
	 3.00000000E-02	 1.27000000E-02	 0.00000000E+00
	 2.75000000E-02	 1.27000000E-02	 0.00000000E+00
	 2.50000000E-02	 1.27000000E-02	 0.00000000E+00
	 2.25000000E-02	 1.27000000E-02	 0.00000000E+00
	 2.00000000E-02	 1.27000000E-02	 0.00000000E+00
	 1.75000000E-02	 1.27000000E-02	 0.00000000E+00
	 1.50000000E-02	 1.27000000E-02	 0.00000000E+00
	 1.25000000E-02	 1.27000000E-02	 0.00000000E+00
	 1.00000000E-02	 1.27000000E-02	 0.00000000E+00
	 7.50000000E-03	 1.27000000E-02	 0.00000000E+00
	 5.00000000E-03	 1.27000000E-02	 0.00000000E+00
	 2.50000000E-03	 1.27000000E-02	 0.00000000E+00
	 4.50000000E-02	 1.27000000E-02	 1.01600000E-02
	 4.50000000E-02	 1.27000000E-02	 7.62000000E-03
	 4.50000000E-02	 1.27000000E-02	 5.08000000E-03
	 4.50000000E-02	 1.27000000E-02	 2.54000000E-03
	 4.50000000E-02	 1.01600000E-02	 0.00000000E+00
	 4.50000000E-02	 7.62000000E-03	 0.00000000E+00
	 4.50000000E-02	 5.08000000E-03	 0.00000000E+00
	 4.50000000E-02	 2.54000000E-03	 0.00000000E+00
	 2.50000000E-03	 0.00000000E+00	 0.00000000E+00
	 5.00000000E-03	 0.00000000E+00	 0.00000000E+00
	 7.50000000E-03	 0.00000000E+00	 0.00000000E+00
	 1.00000000E-02	 0.00000000E+00	 0.00000000E+00
	 1.25000000E-02	 0.00000000E+00	 0.00000000E+00
	 1.50000000E-02	 0.00000000E+00	 0.00000000E+00
	 1.75000000E-02	 0.00000000E+00	 0.00000000E+00
	 2.00000000E-02	 0.00000000E+00	 0.00000000E+00
	 2.25000000E-02	 0.00000000E+00	 0.00000000E+00
	 2.50000000E-02	 0.00000000E+00	 0.00000000E+00
	 2.75000000E-02	 0.00000000E+00	 0.00000000E+00
	 3.00000000E-02	 0.00000000E+00	 0.00000000E+00
	 3.25000000E-02	 0.00000000E+00	 0.00000000E+00
	 3.50000000E-02	 0.00000000E+00	 0.00000000E+00
	 3.75000000E-02	 0.00000000E+00	 0.00000000E+00
	 4.00000000E-02	 0.00000000E+00	 0.00000000E+00
	 4.25000000E-02	 0.00000000E+00	 0.00000000E+00
	 4.50000000E-02	 0.00000000E+00	 2.54000000E-03
	 4.50000000E-02	 0.00000000E+00	 5.08000000E-03
	 4.50000000E-02	 0.00000000E+00	 7.62000000E-03
	 4.50000000E-02	 0.00000000E+00	 1.01600000E-02
	 4.50000000E-02	 2.28600000E-02	 1.27000000E-02
	 4.50000000E-02	 2.03200000E-02	 1.27000000E-02
	 4.50000000E-02	 1.77800000E-02	 1.27000000E-02
	 4.50000000E-02	 1.52400000E-02	 1.27000000E-02
	 0.00000000E+00	 1.52400000E-02	 1.27000000E-02
	 0.00000000E+00	 1.77800000E-02	 1.27000000E-02
	 0.00000000E+00	 2.03200000E-02	 1.27000000E-02
	 0.00000000E+00	 2.28600000E-02	 1.27000000E-02
	 0.00000000E+00	 2.54000000E-02	 2.54000000E-03
	 0.00000000E+00	 2.54000000E-02	 5.08000000E-03
	 0.00000000E+00	 2.54000000E-02	 7.62000000E-03
	 0.00000000E+00	 2.54000000E-02	 1.01600000E-02
	 0.00000000E+00	 1.52400000E-02	 0.00000000E+00
	 0.00000000E+00	 1.77800000E-02	 0.00000000E+00
	 0.00000000E+00	 2.03200000E-02	 0.00000000E+00
	 0.00000000E+00	 2.28600000E-02	 0.00000000E+00
	 2.50000000E-03	 2.54000000E-02	 1.27000000E-02
	 5.00000000E-03	 2.54000000E-02	 1.27000000E-02
	 7.50000000E-03	 2.54000000E-02	 1.27000000E-02
	 1.00000000E-02	 2.54000000E-02	 1.27000000E-02
	 1.25000000E-02	 2.54000000E-02	 1.27000000E-02
	 1.50000000E-02	 2.54000000E-02	 1.27000000E-02
	 1.75000000E-02	 2.54000000E-02	 1.27000000E-02
	 2.00000000E-02	 2.54000000E-02	 1.27000000E-02
	 2.25000000E-02	 2.54000000E-02	 1.27000000E-02
	 2.50000000E-02	 2.54000000E-02	 1.27000000E-02
	 2.75000000E-02	 2.54000000E-02	 1.27000000E-02
	 3.00000000E-02	 2.54000000E-02	 1.27000000E-02
	 3.25000000E-02	 2.54000000E-02	 1.27000000E-02
	 3.50000000E-02	 2.54000000E-02	 1.27000000E-02
	 3.75000000E-02	 2.54000000E-02	 1.27000000E-02
	 4.00000000E-02	 2.54000000E-02	 1.27000000E-02
	 4.25000000E-02	 2.54000000E-02	 1.27000000E-02
	 2.50000000E-03	 2.54000000E-02	 0.00000000E+00
	 5.00000000E-03	 2.54000000E-02	 0.00000000E+00
	 7.50000000E-03	 2.54000000E-02	 0.00000000E+00
	 1.00000000E-02	 2.54000000E-02	 0.00000000E+00
	 1.25000000E-02	 2.54000000E-02	 0.00000000E+00
	 1.50000000E-02	 2.54000000E-02	 0.00000000E+00
	 1.75000000E-02	 2.54000000E-02	 0.00000000E+00
	 2.00000000E-02	 2.54000000E-02	 0.00000000E+00
	 2.25000000E-02	 2.54000000E-02	 0.00000000E+00
	 2.50000000E-02	 2.54000000E-02	 0.00000000E+00
	 2.75000000E-02	 2.54000000E-02	 0.00000000E+00
	 3.00000000E-02	 2.54000000E-02	 0.00000000E+00
	 3.25000000E-02	 2.54000000E-02	 0.00000000E+00
	 3.50000000E-02	 2.54000000E-02	 0.00000000E+00
	 3.75000000E-02	 2.54000000E-02	 0.00000000E+00
	 4.00000000E-02	 2.54000000E-02	 0.00000000E+00
	 4.25000000E-02	 2.54000000E-02	 0.00000000E+00
[...]
POINT_DATA 3432
FIELD U 1
	U 3 3432 double
		 0.00000000E+00	 0.00000000E+00	 0.00000000E+00
		 0.00000000E+00	 0.00000000E+00	 0.00000000E+00
		 0.00000000E+00	 0.00000000E+00	 0.00000000E+00
		 0.00000000E+00	 0.00000000E+00	 0.00000000E+00
		-2.52204000E-01	-6.00693000E-09	 2.38790000E+00
		-2.45065000E-01	 5.63626000E-02	 2.45173000E+00
		 2.52204000E-01	 6.00671000E-09	 2.38790000E+00
		 2.45065000E-01	-5.63626000E-02	 2.45173000E+00
		 0.00000000E+00	 0.00000000E+00	 0.00000000E+00
		 0.00000000E+00	 0.00000000E+00	 0.00000000E+00
		-2.45065000E-01	-5.63627000E-02	 2.45173000E+00
		 2.45065000E-01	 5.63627000E-02	 2.45173000E+00
		-1.62467000E-01	-2.04875000E-09	 2.59697000E+00
		-8.16342000E-02	 2.75844000E-02	 2.65929000E+00
		 1.62467000E-01	 2.04850000E-09	 2.59697000E+00
		 8.16342000E-02	-2.75844000E-02	 2.65929000E+00
		 8.16342000E-02	 2.75844000E-02	 2.65929000E+00
		-8.16342000E-02	-2.75844000E-02	 2.65929000E+00
		-9.22570000E-02	-9.69225000E-02	 2.73691000E+00
		 9.22570000E-02	 9.69225000E-02	 2.73691000E+00
		-9.20488000E-02	-6.77009000E-02	 2.68033000E+00
		 9.20488000E-02	 6.77009000E-02	 2.68033000E+00
		-1.31716000E-01	-4.28210000E-09	 2.69491000E+00
		 9.26472000E-02	 4.02323000E-02	 2.64436000E+00
		 1.31716000E-01	 4.28185000E-09	 2.69491000E+00
		-9.26472000E-02	-4.02323000E-02	 2.64436000E+00
		-9.22570000E-02	 9.69225000E-02	 2.73691000E+00
		 9.22570000E-02	-9.69225000E-02	 2.73691000E+00
		-9.20488000E-02	 6.77009000E-02	 2.68033000E+00
		 9.20488000E-02	-6.77009000E-02	 2.68033000E+00
		-9.26472000E-02	 4.02324000E-02	 2.64436000E+00
		 9.26472000E-02	-4.02324000E-02	 2.64436000E+00
		-4.61310000E-01	-7.07314000E-02	 2.02201000E+00
		 4.61310000E-01	 7.07314000E-02	 2.02201000E+00
		-2.72812000E-01	-2.87520000E-02	 2.48752000E+00
		 2.72812000E-01	 2.87520000E-02	 2.48752000E+00
		 3.27073000E-01	-5.92719000E-09	 2.58400000E+00
		 3.61814000E-01	-4.14367000E-09	 2.34990000E+00
		-3.27073000E-01	 5.92694000E-09	 2.58400000E+00
		-3.61814000E-01	 4.14343000E-09	 2.34990000E+00
		-4.61310000E-01	 7.07314000E-02	 2.02201000E+00
		 4.61310000E-01	-7.07314000E-02	 2.02201000E+00
		-2.72812000E-01	 2.87520000E-02	 2.48752000E+00
		 2.72812000E-01	-2.87520000E-02	 2.48752000E+00
		-8.69112000E-01	-3.53027000E-03	-3.45130000E+00
		 8.69112000E-01	 3.53027000E-03	-3.45130000E+00
		-4.70290000E-01	 1.00642000E-08	 1.94281000E+00
		-8.70190000E-01	 1.38982000E-08	-3.45785000E+00
		 8.70190000E-01	-1.38981000E-08	-3.45785000E+00
		 4.70290000E-01	-1.00645000E-08	 1.94281000E+00
		-8.69112000E-01	 3.53029000E-03	-3.45130000E+00
		 8.69112000E-01	-3.53029000E-03	-3.45130000E+00
		-2.51650000E-01	 9.88423000E-03	 2.39029000E+00
		-2.50367000E-01	 2.04179000E-02	 2.39742000E+00
		-2.48999000E-01	 3.18269000E-02	 2.40932000E+00
		-2.47626000E-01	 4.41779000E-02	 2.42640000E+00
		 0.00000000E+00	 0.00000000E+00	 0.00000000E+00
		 0.00000000E+00	 0.00000000E+00	 0.00000000E+00
		 0.00000000E+00	 0.00000000E+00	 0.00000000E+00
		 0.00000000E+00	 0.00000000E+00	 0.00000000E+00
		 0.00000000E+00	 0.00000000E+00	 0.00000000E+00
		 0.00000000E+00	 0.00000000E+00	 0.00000000E+00
		 0.00000000E+00	 0.00000000E+00	 0.00000000E+00
		 0.00000000E+00	 0.00000000E+00	 0.00000000E+00
		 0.00000000E+00	 0.00000000E+00	 0.00000000E+00
		 0.00000000E+00	 0.00000000E+00	 0.00000000E+00
		 0.00000000E+00	 0.00000000E+00	 0.00000000E+00
		 0.00000000E+00	 0.00000000E+00	 0.00000000E+00
		 0.00000000E+00	 0.00000000E+00	 0.00000000E+00
		 0.00000000E+00	 0.00000000E+00	 0.00000000E+00
		 0.00000000E+00	 0.00000000E+00	 0.00000000E+00
		 0.00000000E+00	 0.00000000E+00	 0.00000000E+00
		-2.87257000E-01	-6.17480000E-09	 2.27685000E+00
		-3.19370000E-01	-6.15956000E-09	 2.15114000E+00
		-3.47344000E-01	-5.98999000E-09	 2.01244000E+00
		-3.70382000E-01	-5.72566000E-09	 1.86275000E+00
		-3.87918000E-01	-5.39838000E-09	 1.70427000E+00
		-3.99527000E-01	-5.02779000E-09	 1.53936000E+00
		-4.04862000E-01	-4.62720000E-09	 1.37051000E+00
		-4.03639000E-01	-4.20619000E-09	 1.20028000E+00
		-3.95619000E-01	-3.77219000E-09	 1.03135000E+00
		-3.80606000E-01	-3.33121000E-09	 8.66435000E-01
		-3.58449000E-01	-2.88862000E-09	 7.08309000E-01
		-3.29040000E-01	-2.44965000E-09	 5.59754000E-01
		-2.92322000E-01	-2.01977000E-09	 4.23554000E-01
		-2.48319000E-01	-1.60466000E-09	 3.02472000E-01
		-1.97189000E-01	-1.20886000E-09	 1.99277000E-01
		-1.39413000E-01	-8.31389000E-10	 1.16133000E-01
		-7.47046000E-02	-4.55596000E-10	 5.57231000E-02
		-7.72862000E-02	-4.29160000E-02	 3.37986000E-02
		-1.40214000E-01	-5.33893000E-02	 8.05643000E-02
		-1.96588000E-01	-5.62057000E-02	 1.57858000E-01
		-2.47088000E-01	-5.35850000E-02	 2.59922000E-01
		-2.90930000E-01	-4.81628000E-02	 3.83254000E-01
		-3.27747000E-01	-4.10594000E-02	 5.24063000E-01
		-3.57364000E-01	-3.29643000E-02	 6.78855000E-01
		-3.79755000E-01	-2.42966000E-02	 8.44299000E-01
		-3.94987000E-01	-1.53403000E-02	 1.01720000E+00
		-4.03199000E-01	-6.29751000E-03	 1.19450000E+00
		-4.04589000E-01	 2.68175000E-03	 1.37326000E+00
		-3.99397000E-01	 1.14832000E-02	 1.55066000E+00
		-3.87906000E-01	 2.00185000E-02	 1.72403000E+00
		-3.70423000E-01	 2.82198000E-02	 1.89087000E+00
		-3.47271000E-01	 3.60501000E-02	 2.04883000E+00
		-3.18773000E-01	 4.34959000E-02	 2.19587000E+00
		-2.85239000E-01	 5.08013000E-02	 2.33020000E+00
		 2.87257000E-01	 6.17459000E-09	 2.27685000E+00
		 3.19370000E-01	 6.15936000E-09	 2.15114000E+00
		 3.47344000E-01	 5.98981000E-09	 2.01244000E+00
		 3.70382000E-01	 5.72549000E-09	 1.86275000E+00
		 3.87918000E-01	 5.39823000E-09	 1.70427000E+00
		 3.99527000E-01	 5.02765000E-09	 1.53936000E+00
		 4.04862000E-01	 4.62708000E-09	 1.37051000E+00
		 4.03639000E-01	 4.20609000E-09	 1.20028000E+00
		 3.95619000E-01	 3.77210000E-09	 1.03135000E+00
		 3.80606000E-01	 3.33114000E-09	 8.66435000E-01
		 3.58449000E-01	 2.88856000E-09	 7.08309000E-01
		 3.29040000E-01	 2.44960000E-09	 5.59754000E-01
		 2.92322000E-01	 2.01974000E-09	 4.23554000E-01
		 2.48319000E-01	 1.60464000E-09	 3.02472000E-01
		 1.97189000E-01	 1.20885000E-09	 1.99277000E-01
		 1.39413000E-01	 8.31381000E-10	 1.16133000E-01
		 7.47046000E-02	 4.55594000E-10	 5.57231000E-02
		-1.49154000E-01	-3.35670000E-09	 2.39616000E+00
		-4.93632000E-02	-1.09387000E-09	 2.40016000E+00
		 4.93632000E-02	 1.09365000E-09	 2.40016000E+00
		 1.49154000E-01	 3.35648000E-09	 2.39616000E+00
		 2.51650000E-01	-9.88423000E-03	 2.39029000E+00
		 2.50367000E-01	-2.04179000E-02	 2.39742000E+00
		 2.48999000E-01	-3.18269000E-02	 2.40932000E+00
		 2.47626000E-01	-4.41779000E-02	 2.42640000E+00
		 7.72862000E-02	 4.29160000E-02	 3.37986000E-02
		 1.40214000E-01	 5.33893000E-02	 8.05643000E-02
		 1.96588000E-01	 5.62057000E-02	 1.57858000E-01
		 2.47088000E-01	 5.35850000E-02	 2.59922000E-01
		 2.90930000E-01	 4.81628000E-02	 3.83254000E-01
		 3.27747000E-01	 4.10594000E-02	 5.24063000E-01
		 3.57364000E-01	 3.29643000E-02	 6.78855000E-01
		 3.79755000E-01	 2.42966000E-02	 8.44299000E-01
		 3.94987000E-01	 1.53403000E-02	 1.01720000E+00
		 4.03199000E-01	 6.29751000E-03	 1.19450000E+00
		 4.04589000E-01	-2.68175000E-03	 1.37326000E+00
		 3.99397000E-01	-1.14832000E-02	 1.55066000E+00
		 3.87906000E-01	-2.00185000E-02	 1.72403000E+00
		 3.70423000E-01	-2.82198000E-02	 1.89087000E+00
		 3.47271000E-01	-3.60501000E-02	 2.04883000E+00
		 3.18773000E-01	-4.34959000E-02	 2.19587000E+00
		 2.85239000E-01	-5.08013000E-02	 2.33020000E+00
		 1.42518000E-01	-3.27213000E-02	 2.46101000E+00
		 4.66625000E-02	-1.07636000E-02	 2.46525000E+00
		-4.66625000E-02	 1.07636000E-02	 2.46525000E+00
		-1.42518000E-01	 3.27213000E-02	 2.46101000E+00
		-2.47626000E-01	-4.41780000E-02	 2.42640000E+00
		-2.48999000E-01	-3.18269000E-02	 2.40932000E+00
		-2.50367000E-01	-2.04179000E-02	 2.39742000E+00
		-2.51650000E-01	-9.88424000E-03	 2.39029000E+00
		 0.00000000E+00	 0.00000000E+00	 0.00000000E+00
		 0.00000000E+00	 0.00000000E+00	 0.00000000E+00
		 0.00000000E+00	 0.00000000E+00	 0.00000000E+00
		 0.00000000E+00	 0.00000000E+00	 0.00000000E+00
		 0.00000000E+00	 0.00000000E+00	 0.00000000E+00
		 0.00000000E+00	 0.00000000E+00	 0.00000000E+00
		 0.00000000E+00	 0.00000000E+00	 0.00000000E+00
		 0.00000000E+00	 0.00000000E+00	 0.00000000E+00
		 0.00000000E+00	 0.00000000E+00	 0.00000000E+00
		 0.00000000E+00	 0.00000000E+00	 0.00000000E+00
		 0.00000000E+00	 0.00000000E+00	 0.00000000E+00
		 0.00000000E+00	 0.00000000E+00	 0.00000000E+00
		-7.72862000E-02	 4.29160000E-02	 3.37986000E-02
		-1.40214000E-01	 5.33893000E-02	 8.05643000E-02
		-1.96588000E-01	 5.62057000E-02	 1.57858000E-01
		-2.47088000E-01	 5.35850000E-02	 2.59922000E-01
		-2.90930000E-01	 4.81628000E-02	 3.83254000E-01
		-3.27747000E-01	 4.10594000E-02	 5.24063000E-01
		-3.57364000E-01	 3.29643000E-02	 6.78855000E-01
		-3.79755000E-01	 2.42966000E-02	 8.44299000E-01
		-3.94987000E-01	 1.53403000E-02	 1.01720000E+00
		-4.03199000E-01	 6.29750000E-03	 1.19450000E+00
		-4.04589000E-01	-2.68176000E-03	 1.37326000E+00
		-3.99397000E-01	-1.14832000E-02	 1.55066000E+00
		-3.87906000E-01	-2.00186000E-02	 1.72403000E+00
		-3.70423000E-01	-2.82198000E-02	 1.89087000E+00
		-3.47271000E-01	-3.60502000E-02	 2.04883000E+00
		-3.18773000E-01	-4.34959000E-02	 2.19587000E+00
		-2.85239000E-01	-5.08013000E-02	 2.33020000E+00
		 7.72862000E-02	-4.29160000E-02	 3.37986000E-02
		 1.40214000E-01	-5.33893000E-02	 8.05643000E-02
		 1.96588000E-01	-5.62057000E-02	 1.57858000E-01
		 2.47088000E-01	-5.35850000E-02	 2.59922000E-01
		 2.90930000E-01	-4.81628000E-02	 3.83254000E-01
		 3.27747000E-01	-4.10594000E-02	 5.24063000E-01
		 3.57364000E-01	-3.29643000E-02	 6.78855000E-01
		 3.79755000E-01	-2.42966000E-02	 8.44299000E-01
		 3.94987000E-01	-1.53403000E-02	 1.01720000E+00
		 4.03199000E-01	-6.29750000E-03	 1.19450000E+00
		 4.04589000E-01	 2.68176000E-03	 1.37326000E+00
		 3.99397000E-01	 1.14832000E-02	 1.55066000E+00
		 3.87906000E-01	 2.00186000E-02	 1.72403000E+00
		 3.70423000E-01	 2.82198000E-02	 1.89087000E+00
		 3.47271000E-01	 3.60502000E-02	 2.04883000E+00
		 3.18773000E-01	 4.34959000E-02	 2.19587000E+00
		 2.85239000E-01	 5.08013000E-02	 2.33020000E+00
		 1.42518000E-01	 3.27213000E-02	 2.46101000E+00
		 4.66625000E-02	 1.07636000E-02	 2.46525000E+00
		-4.66625000E-02	-1.07636000E-02	 2.46525000E+00
		-1.42518000E-01	-3.27213000E-02	 2.46101000E+00
		 2.47626000E-01	 4.41780000E-02	 2.42640000E+00
		 2.48999000E-01	 3.18269000E-02	 2.40932000E+00
		 2.50367000E-01	 2.04179000E-02	 2.39742000E+00
		 2.51650000E-01	 9.88424000E-03	 2.39029000E+00
		 9.19686000E-02	 7.65550000E-02	 2.69586000E+00
		 9.20051000E-02	 8.64952000E-02	 2.71456000E+00
		-1.90995000E-01	-4.16675000E-09	 2.53851000E+00
		-2.21409000E-01	-5.43667000E-09	 2.46896000E+00
		-1.08641000E-01	 1.82924000E-02	 2.63997000E+00
		-1.32303000E-01	 1.15835000E-02	 2.62352000E+00
		-1.48584000E-01	 6.03707000E-03	 2.60874000E+00
		-1.59765000E-01	 3.10791000E-03	 2.60003000E+00
		-1.94409000E-01	 4.82435000E-02	 2.54215000E+00
		-1.39910000E-01	 3.95313000E-02	 2.61343000E+00
		 1.90995000E-01	 4.16651000E-09	 2.53851000E+00
		 2.21409000E-01	 5.43644000E-09	 2.46896000E+00
		-9.82491000E-02	-1.15446000E-09	 2.60442000E+00
		-3.28849000E-02	-3.98407000E-10	 2.60778000E+00
		 3.28849000E-02	 3.98163000E-10	 2.60778000E+00
		 9.82491000E-02	 1.15421000E-09	 2.60442000E+00
		 4.70176000E-02	-1.72110000E-02	 2.67133000E+00
		 1.54526000E-02	-5.85968000E-03	 2.67722000E+00
		-1.54526000E-02	 5.85968000E-03	 2.67722000E+00
		-4.70176000E-02	 1.72110000E-02	 2.67133000E+00
		 1.08641000E-01	-1.82924000E-02	 2.63997000E+00
		 1.32303000E-01	-1.15835000E-02	 2.62352000E+00
		 1.48584000E-01	-6.03707000E-03	 2.60874000E+00
		 1.59765000E-01	-3.10791000E-03	 2.60003000E+00
		 1.94409000E-01	-4.82435000E-02	 2.54215000E+00
		 1.39910000E-01	-3.95313000E-02	 2.61343000E+00
		 1.94409000E-01	 4.82435000E-02	 2.54215000E+00
		 1.39910000E-01	 3.95314000E-02	 2.61343000E+00
		 1.59765000E-01	 3.10792000E-03	 2.60003000E+00
		 1.48584000E-01	 6.03707000E-03	 2.60874000E+00
		 1.32303000E-01	 1.15835000E-02	 2.62352000E+00
		 1.08641000E-01	 1.82924000E-02	 2.63997000E+00
		-1.59765000E-01	-3.10792000E-03	 2.60003000E+00
		-1.48584000E-01	-6.03707000E-03	 2.60874000E+00
		-1.32303000E-01	-1.15835000E-02	 2.62352000E+00
		-1.08641000E-01	-1.82924000E-02	 2.63997000E+00
		 4.70175000E-02	 1.72110000E-02	 2.67133000E+00
		 1.54526000E-02	 5.85968000E-03	 2.67722000E+00
		-1.54526000E-02	-5.85968000E-03	 2.67722000E+00
		-4.70175000E-02	-1.72110000E-02	 2.67133000E+00
		-1.94409000E-01	-4.82435000E-02	 2.54215000E+00
		-1.39910000E-01	-3.95314000E-02	 2.61343000E+00
		 3.01139000E-02	 6.03882000E-02	 2.69605000E+00
		-2.88550000E-02	 4.48095000E-02	 2.68556000E+00
		 1.52095000E-01	-6.51283000E-02	 2.62983000E+00
		 3.75700000E-02	-8.20454000E-02	 2.73662000E+00
		-5.65396000E-02	-5.80468000E-02	 2.75177000E+00
		-1.90283000E-02	-1.95169000E-02	 2.75897000E+00
		 1.90283000E-02	 1.95169000E-02	 2.75897000E+00
		 5.65396000E-02	 5.80468000E-02	 2.75177000E+00
		-1.52095000E-01	 6.51283000E-02	 2.62983000E+00
		-3.75700000E-02	 8.20454000E-02	 2.73662000E+00
		-3.01139000E-02	-6.03882000E-02	 2.69605000E+00
		 2.88550000E-02	-4.48095000E-02	 2.68556000E+00
		-9.19686000E-02	-7.65550000E-02	 2.69586000E+00
		-9.20051000E-02	-8.64952000E-02	 2.71456000E+00
		 5.62687000E-02	 4.28524000E-02	 2.69768000E+00
		 1.89333000E-02	 1.46876000E-02	 2.70626000E+00
		-1.89333000E-02	-1.46876000E-02	 2.70626000E+00
		-5.62687000E-02	-4.28524000E-02	 2.69768000E+00
		-1.42564000E-01	-3.19445000E-11	 2.64822000E+00
		 3.77592000E-02	 3.73864000E-02	 2.65859000E+00
		-1.44732000E-02	 2.97354000E-02	 2.67130000E+00
		-6.08677000E-02	 2.02333000E-02	 2.68153000E+00
		-9.83340000E-02	 1.17191000E-02	 2.68901000E+00
		-1.23034000E-01	 5.20594000E-03	 2.69338000E+00
		 9.22665000E-02	 5.69349000E-02	 2.66207000E+00
		 1.42564000E-01	 3.16936000E-11	 2.64822000E+00
		 8.07015000E-02	 5.35287000E-09	 2.69572000E+00
		 2.73763000E-02	 1.48526000E-09	 2.69693000E+00
		-2.73763000E-02	-1.48551000E-09	 2.69693000E+00
		-8.07015000E-02	-5.35312000E-09	 2.69572000E+00
		-5.67879000E-02	-2.65764000E-02	 2.67252000E+00
		-1.90741000E-02	-9.66725000E-03	 2.68438000E+00
		 1.90741000E-02	 9.66725000E-03	 2.68438000E+00
		 5.67879000E-02	 2.65764000E-02	 2.67252000E+00
		 1.23034000E-01	-5.20594000E-03	 2.69338000E+00
		 9.83340000E-02	-1.17191000E-02	 2.68901000E+00
		 6.08677000E-02	-2.02333000E-02	 2.68153000E+00
		 1.44732000E-02	-2.97354000E-02	 2.67130000E+00
		-3.77592000E-02	-3.73864000E-02	 2.65859000E+00
		-9.22665000E-02	-5.69349000E-02	 2.66207000E+00
		-2.88550000E-02	-4.48095000E-02	 2.68556000E+00
		 3.01139000E-02	-6.03882000E-02	 2.69605000E+00
		 1.52095000E-01	 6.51283000E-02	 2.62983000E+00
		 3.75700000E-02	 8.20454000E-02	 2.73662000E+00
		-5.65396000E-02	 5.80468000E-02	 2.75177000E+00
		-1.90283000E-02	 1.95169000E-02	 2.75897000E+00
		 1.90283000E-02	-1.95169000E-02	 2.75897000E+00
		 5.65396000E-02	-5.80468000E-02	 2.75177000E+00
		-1.52095000E-01	-6.51283000E-02	 2.62983000E+00
		-3.75700000E-02	-8.20454000E-02	 2.73662000E+00
		-9.20051000E-02	 8.64952000E-02	 2.71456000E+00
		-9.19686000E-02	 7.65550000E-02	 2.69586000E+00
		 2.88550000E-02	 4.48095000E-02	 2.68556000E+00
		-3.01139000E-02	 6.03882000E-02	 2.69605000E+00
		 9.20051000E-02	-8.64952000E-02	 2.71456000E+00
		 9.19686000E-02	-7.65550000E-02	 2.69586000E+00
		 5.62687000E-02	-4.28524000E-02	 2.69768000E+00
		 1.89333000E-02	-1.46876000E-02	 2.70626000E+00
		-1.89333000E-02	 1.46876000E-02	 2.70626000E+00
		-5.62687000E-02	 4.28524000E-02	 2.69768000E+00
		-9.22665000E-02	 5.69350000E-02	 2.66207000E+00
		-1.23034000E-01	-5.20595000E-03	 2.69338000E+00
		-9.83339000E-02	-1.17191000E-02	 2.68901000E+00
		-6.08676000E-02	-2.02333000E-02	 2.68153000E+00
		-1.44732000E-02	-2.97354000E-02	 2.67130000E+00
		 3.77591000E-02	-3.73864000E-02	 2.65859000E+00
		-3.77591000E-02	 3.73864000E-02	 2.65859000E+00
		 1.44732000E-02	 2.97354000E-02	 2.67130000E+00
		 6.08676000E-02	 2.02333000E-02	 2.68153000E+00
		 9.83339000E-02	 1.17191000E-02	 2.68901000E+00
		 1.23034000E-01	 5.20595000E-03	 2.69338000E+00
		 9.22665000E-02	-5.69350000E-02	 2.66207000E+00
		-5.67879000E-02	 2.65765000E-02	 2.67252000E+00
		-1.90741000E-02	 9.66725000E-03	 2.68438000E+00
		 1.90741000E-02	-9.66725000E-03	 2.68438000E+00
		 5.67879000E-02	-2.65765000E-02	 2.67252000E+00
		 2.16436000E-01	 4.60128000E-02	 2.56519000E+00
		 1.54900000E-01	 6.11652000E-02	 2.63420000E+00
		-2.26264000E-01	-8.61519000E-02	 2.60084000E+00
		-3.51802000E-01	-7.41448000E-02	 2.35180000E+00
		-2.75017000E-01	-4.13526000E-02	 2.03364000E+00
		-9.12269000E-02	-1.36360000E-02	 2.03909000E+00
		 9.12269000E-02	 1.36360000E-02	 2.03909000E+00
		 2.75017000E-01	 4.13526000E-02	 2.03364000E+00
		 2.26264000E-01	 8.61519000E-02	 2.60084000E+00
		 3.51802000E-01	 7.41448000E-02	 2.35180000E+00
		-2.16436000E-01	-4.60128000E-02	 2.56519000E+00
		-1.54900000E-01	-6.11652000E-02	 2.63420000E+00
		-3.99228000E-01	-5.73005000E-02	 2.19916000E+00
		-3.36527000E-01	-4.41088000E-02	 2.35649000E+00
		 3.99228000E-01	 5.73005000E-02	 2.19916000E+00
		 3.36527000E-01	 4.41088000E-02	 2.35649000E+00
		-1.63321000E-01	-1.81970000E-02	 2.50053000E+00
		-5.45047000E-02	-6.22728000E-03	 2.50690000E+00
		 5.45047000E-02	 6.22728000E-03	 2.50690000E+00
		 1.63321000E-01	 1.81970000E-02	 2.50053000E+00
		 3.17637000E-01	 4.77559000E-03	 2.58618000E+00
		 2.90925000E-01	 1.10246000E-02	 2.59275000E+00
		 2.50883000E-01	 1.95495000E-02	 2.60275000E+00
		 2.02064000E-01	 2.92517000E-02	 2.61548000E+00
		 1.48136000E-01	 3.71545000E-02	 2.62965000E+00
		 3.39086000E-01	-1.39283000E-09	 2.46928000E+00
		 4.69479000E-01	 1.27239000E-02	 1.94577000E+00
		 4.67530000E-01	 2.61555000E-02	 1.95465000E+00
		 4.65368000E-01	 4.05261000E-02	 1.96952000E+00
		 4.63570000E-01	 5.58179000E-02	 1.99081000E+00
		 3.58798000E-01	 3.43277000E-03	 2.35621000E+00
		 3.46357000E-01	 6.52856000E-03	 2.37447000E+00
		 3.28191000E-01	 1.24063000E-02	 2.40495000E+00
		 3.02233000E-01	 1.92977000E-02	 2.44236000E+00
		-1.98966000E-01	 6.87480000E-09	 2.58554000E+00
		-6.70438000E-02	 1.96595000E-09	 2.58732000E+00
		 6.70438000E-02	-1.96620000E-09	 2.58732000E+00
		 1.98966000E-01	-6.87506000E-09	 2.58554000E+00
		-1.48136000E-01	-3.71545000E-02	 2.62965000E+00
		-2.02064000E-01	-2.92517000E-02	 2.61548000E+00
		-2.50883000E-01	-1.95495000E-02	 2.60275000E+00
		-2.90925000E-01	-1.10246000E-02	 2.59275000E+00
		-3.17637000E-01	-4.77559000E-03	 2.58618000E+00
		-2.19172000E-01	 2.50211000E-09	 2.35859000E+00
		-7.34284000E-02	 8.65260000E-10	 2.36255000E+00
		 7.34284000E-02	-8.65506000E-10	 2.36255000E+00
		 2.19172000E-01	-2.50235000E-09	 2.35859000E+00
		-3.39086000E-01	 1.39258000E-09	 2.46928000E+00
		-3.58798000E-01	-3.43277000E-03	 2.35621000E+00
		-3.46357000E-01	-6.52856000E-03	 2.37447000E+00
		-3.28191000E-01	-1.24063000E-02	 2.40495000E+00
		-3.02233000E-01	-1.92977000E-02	 2.44236000E+00
		 1.54900000E-01	-6.11652000E-02	 2.63420000E+00
		 2.16436000E-01	-4.60128000E-02	 2.56519000E+00
		-2.26264000E-01	 8.61519000E-02	 2.60084000E+00
		-3.51802000E-01	 7.41448000E-02	 2.35180000E+00
		-2.75017000E-01	 4.13526000E-02	 2.03364000E+00
		-9.12269000E-02	 1.36360000E-02	 2.03909000E+00
		 9.12269000E-02	-1.36360000E-02	 2.03909000E+00
		 2.75017000E-01	-4.13526000E-02	 2.03364000E+00
		 2.26264000E-01	-8.61519000E-02	 2.60084000E+00
		 3.51802000E-01	-7.41448000E-02	 2.35180000E+00
		-3.99228000E-01	 5.73005000E-02	 2.19916000E+00
		-3.36527000E-01	 4.41088000E-02	 2.35649000E+00
		-1.54900000E-01	 6.11652000E-02	 2.63420000E+00
		-2.16436000E-01	 4.60128000E-02	 2.56519000E+00
		 3.99228000E-01	-5.73005000E-02	 2.19916000E+00
		 3.36527000E-01	-4.41088000E-02	 2.35649000E+00
		-1.63321000E-01	 1.81970000E-02	 2.50053000E+00
		-5.45046000E-02	 6.22729000E-03	 2.50690000E+00
		 5.45046000E-02	-6.22729000E-03	 2.50690000E+00