<?xml version="1.0"?>
<VTKFile type="UnstructuredGrid" version="0.1" byte_order="LittleEndian">
	<UnstructuredGrid>
		<Piece NumberOfPoints="3432" NumberOfCells="2560">
			<Points>
				<DataArray type="Float64" NumberOfComponents="3" format="ascii">
					 0.00000000E+00	 0.00000000E+00	 1.27000000E-02
					 0.00000000E+00	 1.27000000E-02	 1.27000000E-02
					 0.00000000E+00	 1.27000000E-02	 0.00000000E+00
					 0.00000000E+00	 0.00000000E+00	 0.00000000E+00
					 4.50000000E-02	 1.27000000E-02	 1.27000000E-02
					 4.50000000E-02	 0.00000000E+00	 1.27000000E-02
					 4.50000000E-02	 1.27000000E-02	 0.00000000E+00
					 4.50000000E-02	 0.00000000E+00	 0.00000000E+00
					 0.00000000E+00	 2.54000000E-02	 1.27000000E-02
					 0.00000000E+00	 2.54000000E-02	 0.00000000E+00
					 4.50000000E-02	 2.54000000E-02	 1.27000000E-02
					 4.50000000E-02	 2.54000000E-02	 0.00000000E+00
					 5.12690000E-02	 1.27000000E-02	 1.27000000E-02
					 5.38263000E-02	 6.52625000E-03	 1.27000000E-02
					 5.12690000E-02	 1.27000000E-02	 0.00000000E+00
					 5.38263000E-02	 6.52625000E-03	 0.00000000E+00
					 5.38263000E-02	 1.88737000E-02	 0.00000000E+00
					 5.38263000E-02	 1.88737000E-02	 1.27000000E-02
					 6.00000000E-02	 0.00000000E+00	 0.00000000E+00
					 6.00000000E-02	 0.00000000E+00	 1.27000000E-02
					 6.00000000E-02	 3.96900000E-03	 0.00000000E+00
					 6.00000000E-02	 3.96900000E-03	 1.27000000E-02
					 5.57840000E-02	 1.27000000E-02	 1.27000000E-02
					 6.00000000E-02	 8.48400000E-03	 1.27000000E-02
					 5.57840000E-02	 1.27000000E-02	 0.00000000E+00
					 6.00000000E-02	 8.48400000E-03	 0.00000000E+00
					 6.00000000E-02	 2.54000000E-02	 0.00000000E+00
					 6.00000000E-02	 2.54000000E-02	 1.27000000E-02
					 6.00000000E-02	 2.14310000E-02	 0.00000000E+00
					 6.00000000E-02	 2.14310000E-02	 1.27000000E-02
					 6.00000000E-02	 1.69160000E-02	 0.00000000E+00
					 6.00000000E-02	 1.69160000E-02	 1.27000000E-02
					 7.50000000E-02	 0.00000000E+00	 0.00000000E+00
					 7.50000000E-02	 0.00000000E+00	 1.27000000E-02
					 6.61737000E-02	 6.52625000E-03	 0.00000000E+00
					 6.61737000E-02	 6.52625000E-03	 1.27000000E-02
					 6.42160000E-02	 1.27000000E-02	 1.27000000E-02
					 6.87310000E-02	 1.27000000E-02	 1.27000000E-02
					 6.42160000E-02	 1.27000000E-02	 0.00000000E+00
					 6.87310000E-02	 1.27000000E-02	 0.00000000E+00
					 7.50000000E-02	 2.54000000E-02	 0.00000000E+00
					 7.50000000E-02	 2.54000000E-02	 1.27000000E-02
					 6.61737000E-02	 1.88737000E-02	 0.00000000E+00
					 6.61737000E-02	 1.88737000E-02	 1.27000000E-02
					 1.20000000E-01	 0.00000000E+00	 0.00000000E+00
					 1.20000000E-01	 0.00000000E+00	 1.27000000E-02
					 7.50000000E-02	 1.27000000E-02	 0.00000000E+00
					 1.20000000E-01	 1.27000000E-02	 0.00000000E+00
					 1.20000000E-01	 1.27000000E-02	 1.27000000E-02
					 7.50000000E-02	 1.27000000E-02	 1.27000000E-02
					 1.20000000E-01	 2.54000000E-02	 0.00000000E+00
					 1.20000000E-01	 2.54000000E-02	 1.27000000E-02
					 4.50000000E-02	 1.01600000E-02	 1.27000000E-02
					 4.50000000E-02	 7.62000000E-03	 1.27000000E-02
					 4.50000000E-02	 5.08000000E-03	 1.27000000E-02
					 4.50000000E-02	 2.54000000E-03	 1.27000000E-02
					 0.00000000E+00	 2.54000000E-03	 1.27000000E-02
					 0.00000000E+00	 5.08000000E-03	 1.27000000E-02
					 0.00000000E+00	 7.62000000E-03	 1.27000000E-02
					 0.00000000E+00	 1.01600000E-02	 1.27000000E-02
					 0.00000000E+00	 1.27000000E-02	 2.54000000E-03
					 0.00000000E+00	 1.27000000E-02	 5.08000000E-03
					 0.00000000E+00	 1.27000000E-02	 7.62000000E-03
					 0.00000000E+00	 1.27000000E-02	 1.01600000E-02
					 0.00000000E+00	 2.54000000E-03	 0.00000000E+00
					 0.00000000E+00	 5.08000000E-03	 0.00000000E+00
					 0.00000000E+00	 7.62000000E-03	 0.00000000E+00
					 0.00000000E+00	 1.01600000E-02	 0.00000000E+00
					 0.00000000E+00	 0.00000000E+00	 2.54000000E-03
					 0.00000000E+00	 0.00000000E+00	 5.08000000E-03
					 0.00000000E+00	 0.00000000E+00	 7.62000000E-03
					 0.00000000E+00	 0.00000000E+00	 1.01600000E-02
					 4.25000000E-02	 1.27000000E-02	 1.27000000E-02
					 4.00000000E-02	 1.27000000E-02	 1.27000000E-02
					 3.75000000E-02	 1.27000000E-02	 1.27000000E-02
					 3.50000000E-02	 1.27000000E-02	 1.27000000E-02
					 3.25000000E-02	 1.27000000E-02	 1.27000000E-02
					 3.00000000E-02	 1.27000000E-02	 1.27000000E-02
					 2.75000000E-02	 1.27000000E-02	 1.27000000E-02
					 2.50000000E-02	 1.27000000E-02	 1.27000000E-02
					 2.25000000E-02	 1.27000000E-02	 1.27000000E-02
					 2.00000000E-02	 1.27000000E-02	 1.27000000E-02
					 1.75000000E-02	 1.27000000E-02	 1.27000000E-02
					 1.50000000E-02	 1.27000000E-02	 1.27000000E-02
					 1.25000000E-02	 1.27000000E-02	 1.27000000E-02
					 1.00000000E-02	 1.27000000E-02	 1.27000000E-02
					 7.50000000E-03	 1.27000000E-02	 1.27000000E-02
					 5.00000000E-03	 1.27000000E-02	 1.27000000E-02
					 2.50000000E-03	 1.27000000E-02	 1.27000000E-02
					 2.50000000E-03	 0.00000000E+00	 1.27000000E-02
					 5.00000000E-03	 0.00000000E+00	 1.27000000E-02
					 7.50000000E-03	 0.00000000E+00	 1.27000000E-02
					 1.00000000E-02	 0.00000000E+00	 1.27000000E-02
					 1.25000000E-02	 0.00000000E+00	 1.27000000E-02
					 1.50000000E-02	 0.00000000E+00	 1.27000000E-02
					 1.75000000E-02	 0.00000000E+00	 1.27000000E-02
					 2.00000000E-02	 0.00000000E+00	 1.27000000E-02
					 2.25000000E-02	 0.00000000E+00	 1.27000000E-02
					 2.50000000E-02	 0.00000000E+00	 1.27000000E-02
					 2.75000000E-02	 0.00000000E+00	 1.27000000E-02
					 3.00000000E-02	 0.00000000E+00	 1.27000000E-02
					 3.25000000E-02	 0.00000000E+00	 1.27000000E-02
					 3.50000000E-02	 0.00000000E+00	 1.27000000E-02
					 3.75000000E-02	 0.00000000E+00	 1.27000000E-02
					 4.00000000E-02	 0.00000000E+00	 1.27000000E-02
					 4.25000000E-02	 0.00000000E+00	 1.27000000E-02
					 4.25000000E-02	 1.27000000E-02	 0.00000000E+00
					 4.00000000E-02	 1.27000000E-02	 0.00000000E+00
					 3.75000000E-02	 1.27000000E-02	 0.00000000E+00
					 3.50000000E-02	 1.27000000E-02	 0.00000000E+00
					 3.25000000E-02	 1.27000000E-02	 0.00000000E+00
					 3.00000000E-02	 1.27000000E-02	 0.00000000E+00
					 2.75000000E-02	 1.27000000E-02	 0.00000000E+00
					 2.50000000E-02	 1.27000000E-02	 0.00000000E+00
					 2.25000000E-02	 1.27000000E-02	 0.00000000E+00
					 2.00000000E-02	 1.27000000E-02	 0.00000000E+00
					 1.75000000E-02	 1.27000000E-02	 0.00000000E+00
					 1.50000000E-02	 1.27000000E-02	 0.00000000E+00
					 1.25000000E-02	 1.27000000E-02	 0.00000000E+00
					 1.00000000E-02	 1.27000000E-02	 0.00000000E+00
					 7.50000000E-03	 1.27000000E-02	 0.00000000E+00
					 5.00000000E-03	 1.27000000E-02	 0.00000000E+00
					 2.50000000E-03	 1.27000000E-02	 0.00000000E+00
					 4.50000000E-02	 1.27000000E-02	 1.01600000E-02
					 4.50000000E-02	 1.27000000E-02	 7.62000000E-03
					 4.50000000E-02	 1.27000000E-02	 5.08000000E-03
					 4.50000000E-02	 1.27000000E-02	 2.54000000E-03
					 4.50000000E-02	 1.01600000E-02	 0.00000000E+00
					 4.50000000E-02	 7.62000000E-03	 0.00000000E+00
					 4.50000000E-02	 5.08000000E-03	 0.00000000E+00
					 4.50000000E-02	 2.54000000E-03	 0.00000000E+00
					 2.50000000E-03	 0.00000000E+00	 0.00000000E+00
					 5.00000000E-03	 0.00000000E+00	 0.00000000E+00
					 7.50000000E-03	 0.00000000E+00	 0.00000000E+00
					 1.00000000E-02	 0.00000000E+00	 0.00000000E+00
					 1.25000000E-02	 0.00000000E+00	 0.00000000E+00
					 1.50000000E-02	 0.00000000E+00	 0.00000000E+00
					 1.75000000E-02	 0.00000000E+00	 0.00000000E+00
					 2.00000000E-02	 0.00000000E+00	 0.00000000E+00
					 2.25000000E-02	 0.00000000E+00	 0.00000000E+00
					 2.50000000E-02	 0.00000000E+00	 0.00000000E+00
					 2.75000000E-02	 0.00000000E+00	 0.00000000E+00
					 3.00000000E-02	 0.00000000E+00	 0.00000000E+00
					 3.25000000E-02	 0.00000000E+00	 0.00000000E+00
					 3.50000000E-02	 0.00000000E+00	 0.00000000E+00
					 3.75000000E-02	 0.00000000E+00	 0.00000000E+00
					 4.00000000E-02	 0.00000000E+00	 0.00000000E+00
					 4.25000000E-02	 0.00000000E+00	 0.00000000E+00
					 4.50000000E-02	 0.00000000E+00	 2.54000000E-03
					 4.50000000E-02	 0.00000000E+00	 5.08000000E-03
					 4.50000000E-02	 0.00000000E+00	 7.62000000E-03
					 4.50000000E-02	 0.00000000E+00	 1.01600000E-02
					 4.50000000E-02	 2.28600000E-02	 1.27000000E-02
					 4.50000000E-02	 2.03200000E-02	 1.27000000E-02
					 4.50000000E-02	 1.77800000E-02	 1.27000000E-02
					 4.50000000E-02	 1.52400000E-02	 1.27000000E-02
					 0.00000000E+00	 1.52400000E-02	 1.27000000E-02
					 0.00000000E+00	 1.77800000E-02	 1.27000000E-02
					 0.00000000E+00	 2.03200000E-02	 1.27000000E-02
					 0.00000000E+00	 2.28600000E-02	 1.27000000E-02
					 0.00000000E+00	 2.54000000E-02	 2.54000000E-03
					 0.00000000E+00	 2.54000000E-02	 5.08000000E-03
					 0.00000000E+00	 2.54000000E-02	 7.62000000E-03
					 0.00000000E+00	 2.54000000E-02	 1.01600000E-02
					 0.00000000E+00	 1.52400000E-02	 0.00000000E+00
					 0.00000000E+00	 1.77800000E-02	 0.00000000E+00
					 0.00000000E+00	 2.03200000E-02	 0.00000000E+00
					 0.00000000E+00	 2.28600000E-02	 0.00000000E+00
					 2.50000000E-03	 2.54000000E-02	 1.27000000E-02
					 5.00000000E-03	 2.54000000E-02	 1.27000000E-02
					 7.50000000E-03	 2.54000000E-02	 1.27000000E-02
					 1.00000000E-02	 2.54000000E-02	 1.27000000E-02
					 1.25000000E-02	 2.54000000E-02	 1.27000000E-02
					 1.50000000E-02	 2.54000000E-02	 1.27000000E-02
					 1.75000000E-02	 2.54000000E-02	 1.27000000E-02
					 2.00000000E-02	 2.54000000E-02	 1.27000000E-02
					 2.25000000E-02	 2.54000000E-02	 1.27000000E-02
					 2.50000000E-02	 2.54000000E-02	 1.27000000E-02
					 2.75000000E-02	 2.54000000E-02	 1.27000000E-02
					 3.00000000E-02	 2.54000000E-02	 1.27000000E-02
					 3.25000000E-02	 2.54000000E-02	 1.27000000E-02
					 3.50000000E-02	 2.54000000E-02	 1.27000000E-02
					 3.75000000E-02	 2.54000000E-02	 1.27000000E-02
[...]
			<PointData>
				<DataArray type="Float32" Name="U" NumberOfComponents="3" ComponentName0="D1" ComponentName1="D2" ComponentName2="D3" format="ascii">
					 0.00000000E+00	 0.00000000E+00	 0.00000000E+00
					 0.00000000E+00	 0.00000000E+00	 0.00000000E+00
					 0.00000000E+00	 0.00000000E+00	 0.00000000E+00
					 0.00000000E+00	 0.00000000E+00	 0.00000000E+00
					-1.31412000E+00	-4.80740000E-08	 4.38479000E-02
					-1.35890000E+00	-8.03614000E-02	 5.57410000E-02
					-1.31412000E+00	-4.80739000E-08	-4.38479000E-02
					-1.35890000E+00	-8.03614000E-02	-5.57410000E-02
					 0.00000000E+00	 0.00000000E+00	 0.00000000E+00
					 0.00000000E+00	 0.00000000E+00	 0.00000000E+00
					-1.35890000E+00	 8.03613000E-02	 5.57410000E-02
					-1.35890000E+00	 8.03613000E-02	-5.57410000E-02
					-1.43379000E+00	-5.04197000E-08	 2.79175000E-02
					-1.58341000E+00	-5.57506000E-02	 4.52161000E-02
					-1.43379000E+00	-5.04197000E-08	-2.79175000E-02
					-1.58341000E+00	-5.57506000E-02	-4.52161000E-02
					-1.58341000E+00	 5.57505000E-02	-4.52161000E-02
					-1.58341000E+00	 5.57505000E-02	 4.52161000E-02
					-1.79144000E+00	-1.74446000E-01	-4.62519000E-02
					-1.79144000E+00	-1.74446000E-01	 4.62519000E-02
					-1.79360000E+00	-1.50669000E-01	-5.91667000E-02
					-1.79360000E+00	-1.50669000E-01	 5.91667000E-02
					-1.47065000E+00	-3.74184000E-08	 2.44652000E-03
					-1.79418000E+00	-1.25625000E-01	 8.94501000E-02
					-1.47065000E+00	-3.74184000E-08	-2.44652000E-03
					-1.79418000E+00	-1.25625000E-01	-8.94501000E-02
					-1.79144000E+00	 1.74446000E-01	-4.62519000E-02
					-1.79144000E+00	 1.74446000E-01	 4.62519000E-02
					-1.79360000E+00	 1.50669000E-01	-5.91667000E-02
					-1.79360000E+00	 1.50669000E-01	 5.91667000E-02
					-1.79418000E+00	 1.25625000E-01	-8.94502000E-02
					-1.79418000E+00	 1.25625000E-01	 8.94502000E-02
					-2.16106000E+00	-5.19686000E-02	-4.09372000E-02
					-2.16106000E+00	-5.19686000E-02	 4.09372000E-02
					-1.99524000E+00	-5.11125000E-02	-3.95779000E-02
					-1.99524000E+00	-5.11125000E-02	 3.95779000E-02
					-2.10640000E+00	-3.18139000E-08	 6.83031000E-04
					-2.13380000E+00	-3.88711000E-08	 2.05678000E-02
					-2.10640000E+00	-3.18139000E-08	-6.83031000E-04
					-2.13380000E+00	-3.88711000E-08	-2.05678000E-02
					-2.16106000E+00	 5.19685000E-02	-4.09372000E-02
					-2.16106000E+00	 5.19685000E-02	 4.09372000E-02
					-1.99524000E+00	 5.11125000E-02	-3.95779000E-02
					-1.99524000E+00	 5.11125000E-02	 3.95779000E-02
					-2.61020000E+00	-6.42362000E-04	-4.56557000E-04
					-2.61020000E+00	-6.42362000E-04	 4.56557000E-04
					-2.21553000E+00	-2.96196000E-08	-2.92793000E-02
					-2.61976000E+00	 5.64335000E-08	-4.97726000E-04
					-2.61976000E+00	 5.64336000E-08	 4.97726000E-04
					-2.21553000E+00	-2.96196000E-08	 2.92793000E-02
					-2.61020000E+00	 6.42476000E-04	-4.56557000E-04
					-2.61020000E+00	 6.42476000E-04	 4.56557000E-04
					-1.31828000E+00	-1.16645000E-02	 4.46077000E-02
					-1.32876000E+00	-2.57282000E-02	 4.66214000E-02
					-1.34132000E+00	-4.27351000E-02	 4.92974000E-02
					-1.35208000E+00	-6.14734000E-02	 5.23203000E-02
					 0.00000000E+00	 0.00000000E+00	 0.00000000E+00
					 0.00000000E+00	 0.00000000E+00	 0.00000000E+00
					 0.00000000E+00	 0.00000000E+00	 0.00000000E+00
					 0.00000000E+00	 0.00000000E+00	 0.00000000E+00
					 0.00000000E+00	 0.00000000E+00	 0.00000000E+00
					 0.00000000E+00	 0.00000000E+00	 0.00000000E+00
					 0.00000000E+00	 0.00000000E+00	 0.00000000E+00
					 0.00000000E+00	 0.00000000E+00	 0.00000000E+00
					 0.00000000E+00	 0.00000000E+00	 0.00000000E+00
					 0.00000000E+00	 0.00000000E+00	 0.00000000E+00
					 0.00000000E+00	 0.00000000E+00	 0.00000000E+00
					 0.00000000E+00	 0.00000000E+00	 0.00000000E+00
					 0.00000000E+00	 0.00000000E+00	 0.00000000E+00
					 0.00000000E+00	 0.00000000E+00	 0.00000000E+00
					 0.00000000E+00	 0.00000000E+00	 0.00000000E+00
					 0.00000000E+00	 0.00000000E+00	 0.00000000E+00
					-1.25584000E+00	-4.79170000E-08	 4.68853000E-02
					-1.19340000E+00	-4.73931000E-08	 4.89630000E-02
					-1.12757000E+00	-4.65641000E-08	 5.03736000E-02
					-1.05897000E+00	-4.52752000E-08	 5.13876000E-02
					-9.88098000E-01	-4.34686000E-08	 5.21729000E-02
					-9.15373000E-01	-4.11459000E-08	 5.28315000E-02
					-8.41101000E-01	-3.83459000E-08	 5.34252000E-02
					-7.65497000E-01	-3.51288000E-08	 5.39971000E-02
					-6.88704000E-01	-3.15673000E-08	 5.45894000E-02
					-6.10829000E-01	-2.77427000E-08	 5.52597000E-02
					-5.31990000E-01	-2.37430000E-08	 5.60945000E-02
					-4.52415000E-01	-1.96623000E-08	 5.72063000E-02
					-3.72597000E-01	-1.56025000E-08	 5.86764000E-02
					-2.93515000E-01	-1.16767000E-08	 6.03300000E-02
					-2.16728000E-01	-8.01343000E-09	 6.12715000E-02
					-1.44098000E-01	-4.75623000E-09	 5.84656000E-02
					-7.49608000E-02	-2.04447000E-09	 4.71890000E-02
					-9.88658000E-02	-5.79989000E-02	 4.62349000E-02
					-1.72213000E-01	-8.12850000E-02	 5.30451000E-02
					-2.42282000E-01	-9.71504000E-02	 5.52863000E-02
					-3.14143000E-01	-1.05968000E-01	 5.48595000E-02
					-3.87697000E-01	-1.10592000E-01	 5.42709000E-02
					-4.62390000E-01	-1.12495000E-01	 5.39205000E-02
					-5.37669000E-01	-1.12742000E-01	 5.37734000E-02
					-6.13138000E-01	-1.11999000E-01	 5.36731000E-02
					-6.88508000E-01	-1.10650000E-01	 5.35174000E-02
					-7.63565000E-01	-1.08878000E-01	 5.32747000E-02
					-8.38166000E-01	-1.06732000E-01	 5.29683000E-02
					-9.12246000E-01	-1.04179000E-01	 5.26596000E-02
					-9.85838000E-01	-1.01142000E-01	 5.24394000E-02
					-1.05910000E+00	-9.75526000E-02	 5.24226000E-02
					-1.13235000E+00	-9.34220000E-02	 5.27411000E-02
					-1.20609000E+00	-8.88967000E-02	 5.34891000E-02
					-1.28117000E+00	-8.46954000E-02	 5.48350000E-02
					-1.25584000E+00	-4.79169000E-08	-4.68853000E-02
					-1.19340000E+00	-4.73931000E-08	-4.89630000E-02
					-1.12757000E+00	-4.65641000E-08	-5.03736000E-02
					-1.05897000E+00	-4.52752000E-08	-5.13876000E-02
					-9.88098000E-01	-4.34686000E-08	-5.21729000E-02
					-9.15373000E-01	-4.11458000E-08	-5.28315000E-02
					-8.41101000E-01	-3.83459000E-08	-5.34252000E-02
					-7.65497000E-01	-3.51287000E-08	-5.39971000E-02
					-6.88704000E-01	-3.15672000E-08	-5.45894000E-02
					-6.10829000E-01	-2.77427000E-08	-5.52597000E-02
					-5.31990000E-01	-2.37429000E-08	-5.60945000E-02
					-4.52415000E-01	-1.96623000E-08	-5.72063000E-02
					-3.72597000E-01	-1.56025000E-08	-5.86764000E-02
					-2.93515000E-01	-1.16767000E-08	-6.03300000E-02
					-2.16728000E-01	-8.01343000E-09	-6.12715000E-02
					-1.44098000E-01	-4.75623000E-09	-5.84656000E-02
					-7.49608000E-02	-2.04447000E-09	-4.71890000E-02
					-1.31677000E+00	-4.74891000E-08	 2.61407000E-02
					-1.31779000E+00	-4.72565000E-08	 8.67348000E-03
					-1.31779000E+00	-4.72565000E-08	-8.67348000E-03
					-1.31677000E+00	-4.74891000E-08	-2.61407000E-02
					-1.31828000E+00	-1.16645000E-02	-4.46077000E-02
					-1.32876000E+00	-2.57282000E-02	-4.66214000E-02
					-1.34132000E+00	-4.27351000E-02	-4.92974000E-02
					-1.35208000E+00	-6.14734000E-02	-5.23203000E-02
					-9.88658000E-02	-5.79989000E-02	-4.62349000E-02
					-1.72213000E-01	-8.12850000E-02	-5.30451000E-02
					-2.42282000E-01	-9.71504000E-02	-5.52863000E-02
					-3.14143000E-01	-1.05968000E-01	-5.48595000E-02
					-3.87697000E-01	-1.10592000E-01	-5.42709000E-02
					-4.62390000E-01	-1.12495000E-01	-5.39205000E-02
					-5.37669000E-01	-1.12742000E-01	-5.37734000E-02
					-6.13138000E-01	-1.11999000E-01	-5.36731000E-02
					-6.88508000E-01	-1.10650000E-01	-5.35174000E-02
					-7.63565000E-01	-1.08878000E-01	-5.32747000E-02
					-8.38166000E-01	-1.06732000E-01	-5.29683000E-02
					-9.12246000E-01	-1.04179000E-01	-5.26596000E-02
					-9.85838000E-01	-1.01142000E-01	-5.24394000E-02
					-1.05910000E+00	-9.75526000E-02	-5.24226000E-02
					-1.13235000E+00	-9.34220000E-02	-5.27411000E-02
					-1.20609000E+00	-8.88967000E-02	-5.34891000E-02
					-1.28117000E+00	-8.46954000E-02	-5.48350000E-02
					-1.35917000E+00	-8.30716000E-02	-3.33009000E-02
					-1.35948000E+00	-8.42779000E-02	-1.10618000E-02
					-1.35948000E+00	-8.42779000E-02	 1.10618000E-02
					-1.35917000E+00	-8.30716000E-02	 3.33009000E-02
					-1.35208000E+00	 6.14733000E-02	 5.23203000E-02
					-1.34132000E+00	 4.27350000E-02	 4.92974000E-02
					-1.32876000E+00	 2.57281000E-02	 4.66214000E-02
					-1.31828000E+00	 1.16644000E-02	 4.46077000E-02
					 0.00000000E+00	 0.00000000E+00	 0.00000000E+00
					 0.00000000E+00	 0.00000000E+00	 0.00000000E+00
					 0.00000000E+00	 0.00000000E+00	 0.00000000E+00
					 0.00000000E+00	 0.00000000E+00	 0.00000000E+00
					 0.00000000E+00	 0.00000000E+00	 0.00000000E+00
					 0.00000000E+00	 0.00000000E+00	 0.00000000E+00
					 0.00000000E+00	 0.00000000E+00	 0.00000000E+00
					 0.00000000E+00	 0.00000000E+00	 0.00000000E+00
					 0.00000000E+00	 0.00000000E+00	 0.00000000E+00
					 0.00000000E+00	 0.00000000E+00	 0.00000000E+00
					 0.00000000E+00	 0.00000000E+00	 0.00000000E+00
					 0.00000000E+00	 0.00000000E+00	 0.00000000E+00
					-9.88658000E-02	 5.79989000E-02	 4.62349000E-02
					-1.72213000E-01	 8.12849000E-02	 5.30451000E-02
					-2.42282000E-01	 9.71504000E-02	 5.52863000E-02
					-3.14142000E-01	 1.05968000E-01	 5.48595000E-02
					-3.87697000E-01	 1.10592000E-01	 5.42709000E-02
					-4.62390000E-01	 1.12495000E-01	 5.39205000E-02
					-5.37669000E-01	 1.12742000E-01	 5.37734000E-02
					-6.13138000E-01	 1.11999000E-01	 5.36731000E-02
					-6.88508000E-01	 1.10650000E-01	 5.35174000E-02
					-7.63565000E-01	 1.08878000E-01	 5.32747000E-02
					-8.38166000E-01	 1.06732000E-01	 5.29683000E-02
					-9.12246000E-01	 1.04179000E-01	 5.26596000E-02
					-9.85838000E-01	 1.01142000E-01	 5.24394000E-02
					-1.05910000E+00	 9.75525000E-02	 5.24226000E-02
					-1.13235000E+00	 9.34219000E-02	 5.27411000E-02
					-1.20609000E+00	 8.88966000E-02	 5.34892000E-02
					-1.28117000E+00	 8.46953000E-02	 5.48350000E-02
					-9.88658000E-02	 5.79989000E-02	-4.62349000E-02
					-1.72213000E-01	 8.12849000E-02	-5.30451000E-02
					-2.42282000E-01	 9.71504000E-02	-5.52863000E-02
					-3.14142000E-01	 1.05968000E-01	-5.48595000E-02
					-3.87697000E-01	 1.10592000E-01	-5.42709000E-02
					-4.62390000E-01	 1.12495000E-01	-5.39205000E-02
					-5.37669000E-01	 1.12742000E-01	-5.37734000E-02
					-6.13138000E-01	 1.11999000E-01	-5.36731000E-02
					-6.88508000E-01	 1.10650000E-01	-5.35174000E-02
					-7.63565000E-01	 1.08878000E-01	-5.32747000E-02
					-8.38166000E-01	 1.06732000E-01	-5.29683000E-02
					-9.12246000E-01	 1.04179000E-01	-5.26596000E-02
					-9.85838000E-01	 1.01142000E-01	-5.24394000E-02
					-1.05910000E+00	 9.75525000E-02	-5.24226000E-02
					-1.13235000E+00	 9.34219000E-02	-5.27411000E-02
					-1.20609000E+00	 8.88966000E-02	-5.34892000E-02
					-1.28117000E+00	 8.46953000E-02	-5.48350000E-02
					-1.35917000E+00	 8.30715000E-02	-3.33009000E-02
					-1.35948000E+00	 8.42779000E-02	-1.10618000E-02
					-1.35948000E+00	 8.42779000E-02	 1.10618000E-02
					-1.35917000E+00	 8.30715000E-02	 3.33009000E-02
					-1.35208000E+00	 6.14733000E-02	-5.23203000E-02
					-1.34132000E+00	 4.27350000E-02	-4.92974000E-02
					-1.32876000E+00	 2.57281000E-02	-4.66214000E-02
					-1.31828000E+00	 1.16644000E-02	-4.46077000E-02
					-1.79309000E+00	-1.57761000E-01	 5.42079000E-02
					-1.79237000E+00	-1.65919000E-01	 4.98753000E-02
					-1.39941000E+00	-4.83666000E-08	 3.50259000E-02
					-1.35916000E+00	-4.79368000E-08	 4.01144000E-02
					-1.53734000E+00	-3.36472000E-02	 4.05781000E-02
					-1.49445000E+00	-1.75558000E-02	 3.53815000E-02
					-1.46241000E+00	-6.98896000E-03	 3.16953000E-02
					-1.44030000E+00	-2.61211000E-03	 2.89346000E-02
					-1.44079000E+00	-6.92184000E-02	 5.19476000E-02
					-1.51461000E+00	-6.12032000E-02	 4.78130000E-02
					-1.39941000E+00	-4.83666000E-08	-3.50259000E-02
					-1.35916000E+00	-4.79367000E-08	-4.01144000E-02
					-1.43824000E+00	-4.81264000E-08	 1.64209000E-02
					-1.43875000E+00	-4.77187000E-08	 5.43266000E-03
					-1.43875000E+00	-4.77186000E-08	-5.43266000E-03
					-1.43824000E+00	-4.81264000E-08	-1.64209000E-02
					-1.58050000E+00	-6.02899000E-02	-2.73424000E-02
					-1.58003000E+00	-6.14278000E-02	-9.14233000E-03
					-1.58003000E+00	-6.14278000E-02	 9.14233000E-03
					-1.58050000E+00	-6.02899000E-02	 2.73424000E-02
					-1.53734000E+00	-3.36472000E-02	-4.05781000E-02
					-1.49445000E+00	-1.75558000E-02	-3.53815000E-02
					-1.46241000E+00	-6.98896000E-03	-3.16953000E-02
					-1.44030000E+00	-2.61211000E-03	-2.89346000E-02
					-1.44079000E+00	-6.92184000E-02	-5.19476000E-02
					-1.51461000E+00	-6.12032000E-02	-4.78130000E-02
					-1.44079000E+00	 6.92183000E-02	-5.19476000E-02
					-1.51461000E+00	 6.12032000E-02	-4.78130000E-02
					-1.44030000E+00	 2.61201000E-03	-2.89346000E-02
					-1.46241000E+00	 6.98887000E-03	-3.16953000E-02
					-1.49445000E+00	 1.75557000E-02	-3.53815000E-02
					-1.53734000E+00	 3.36470000E-02	-4.05781000E-02
					-1.44030000E+00	 2.61201000E-03	 2.89346000E-02
					-1.46241000E+00	 6.98887000E-03	 3.16953000E-02
					-1.49445000E+00	 1.75557000E-02	 3.53815000E-02
					-1.53734000E+00	 3.36470000E-02	 4.05781000E-02
					-1.58050000E+00	 6.02899000E-02	-2.73425000E-02
					-1.58003000E+00	 6.14277000E-02	-9.14233000E-03
					-1.58003000E+00	 6.14277000E-02	 9.14233000E-03
					-1.58050000E+00	 6.02899000E-02	 2.73425000E-02
					-1.44079000E+00	 6.92183000E-02	 5.19476000E-02
					-1.51461000E+00	 6.12032000E-02	 4.78130000E-02
					-1.73173000E+00	-1.35038000E-01	 5.84580000E-02
					-1.66111000E+00	-9.77345000E-02	 5.33902000E-02
					-1.51597000E+00	-9.73170000E-02	-5.50401000E-02
					-1.67228000E+00	-1.40341000E-01	-5.11616000E-02
					-1.79244000E+00	-1.70045000E-01	-2.92131000E-02
					-1.79292000E+00	-1.69096000E-01	-1.01212000E-02
					-1.79292000E+00	-1.69096000E-01	 1.01212000E-02
					-1.79244000E+00	-1.70045000E-01	 2.92131000E-02
					-1.51597000E+00	-9.73170000E-02	 5.50401000E-02
					-1.67228000E+00	-1.40341000E-01	 5.11616000E-02
					-1.73173000E+00	-1.35038000E-01	-5.84580000E-02
					-1.66111000E+00	-9.77345000E-02	-5.33902000E-02
					-1.79309000E+00	-1.57761000E-01	-5.42079000E-02
					-1.79237000E+00	-1.65919000E-01	-4.98753000E-02
					-1.79458000E+00	-1.45931000E-01	 3.58547000E-02
					-1.79506000E+00	-1.45680000E-01	 1.20080000E-02
					-1.79506000E+00	-1.45680000E-01	-1.20080000E-02
					-1.79458000E+00	-1.45931000E-01	-3.58547000E-02
					-1.45553000E+00	-4.97150000E-08	 1.74218000E-02
					-1.72219000E+00	-1.18641000E-01	 8.41490000E-02
					-1.65042000E+00	-9.85393000E-02	 6.83078000E-02
					-1.58269000E+00	-7.16467000E-02	 4.64832000E-02
					-1.52470000E+00	-4.47087000E-02	 2.43702000E-02
					-1.48489000E+00	-2.09463000E-02	 8.28277000E-03
					-1.79404000E+00	-1.43618000E-01	 6.93445000E-02
					-1.45553000E+00	-4.97149000E-08	-1.74218000E-02
					-1.47915000E+00	-3.25196000E-08	-7.24667000E-03
					-1.48037000E+00	-3.47690000E-08	-3.79164000E-03
					-1.48037000E+00	-3.47690000E-08	 3.79164000E-03
					-1.47915000E+00	-3.25197000E-08	 7.24667000E-03
					-1.79514000E+00	-1.15230000E-01	-4.64200000E-02
					-1.79558000E+00	-1.14686000E-01	-1.38707000E-02
					-1.79558000E+00	-1.14686000E-01	 1.38707000E-02
					-1.79514000E+00	-1.15230000E-01	 4.64200000E-02
					-1.48489000E+00	-2.09463000E-02	-8.28277000E-03
					-1.52470000E+00	-4.47087000E-02	-2.43702000E-02
					-1.58269000E+00	-7.16467000E-02	-4.64832000E-02
					-1.65042000E+00	-9.85393000E-02	-6.83078000E-02
					-1.72219000E+00	-1.18641000E-01	-8.41490000E-02
					-1.79404000E+00	-1.43618000E-01	-6.93445000E-02
					-1.66111000E+00	 9.77345000E-02	 5.33902000E-02
					-1.73173000E+00	 1.35038000E-01	 5.84580000E-02
					-1.51597000E+00	 9.73169000E-02	-5.50401000E-02
					-1.67228000E+00	 1.40341000E-01	-5.11616000E-02
					-1.79244000E+00	 1.70045000E-01	-2.92131000E-02
					-1.79292000E+00	 1.69096000E-01	-1.01212000E-02
					-1.79292000E+00	 1.69096000E-01	 1.01212000E-02
					-1.79244000E+00	 1.70045000E-01	 2.92131000E-02
					-1.51597000E+00	 9.73169000E-02	 5.50401000E-02
					-1.67228000E+00	 1.40341000E-01	 5.11616000E-02
					-1.79237000E+00	 1.65919000E-01	-4.98753000E-02
					-1.79309000E+00	 1.57761000E-01	-5.42079000E-02
					-1.66111000E+00	 9.77345000E-02	-5.33902000E-02
					-1.73173000E+00	 1.35038000E-01	-5.84580000E-02
					-1.79237000E+00	 1.65919000E-01	 4.98753000E-02
					-1.79309000E+00	 1.57761000E-01	 5.42079000E-02
					-1.79458000E+00	 1.45931000E-01	 3.58547000E-02
					-1.79506000E+00	 1.45680000E-01	 1.20080000E-02
					-1.79506000E+00	 1.45680000E-01	-1.20080000E-02
					-1.79458000E+00	 1.45931000E-01	-3.58547000E-02
					-1.79404000E+00	 1.43617000E-01	-6.93445000E-02
					-1.48489000E+00	 2.09462000E-02	 8.28280000E-03
					-1.52470000E+00	 4.47086000E-02	 2.43702000E-02
					-1.58269000E+00	 7.16467000E-02	 4.64833000E-02
					-1.65042000E+00	 9.85392000E-02	 6.83078000E-02
					-1.72219000E+00	 1.18641000E-01	 8.41490000E-02
					-1.72219000E+00	 1.18641000E-01	-8.41490000E-02
					-1.65042000E+00	 9.85392000E-02	-6.83078000E-02
					-1.58269000E+00	 7.16467000E-02	-4.64833000E-02
					-1.52470000E+00	 4.47086000E-02	-2.43702000E-02
					-1.48489000E+00	 2.09462000E-02	-8.28280000E-03
					-1.79404000E+00	 1.43617000E-01	 6.93445000E-02
					-1.79514000E+00	 1.15230000E-01	-4.64200000E-02
					-1.79558000E+00	 1.14686000E-01	-1.38707000E-02
					-1.79558000E+00	 1.14686000E-01	 1.38707000E-02
					-1.79514000E+00	 1.15230000E-01	 4.64200000E-02
					-1.92200000E+00	-9.32379000E-02	 4.92388000E-02
					-1.85444000E+00	-1.32231000E-01	 5.62420000E-02
					-1.90340000E+00	-1.30979000E-01	-4.60012000E-02
					-2.03839000E+00	-7.81941000E-02	-4.50557000E-02
					-2.16292000E+00	-5.46076000E-02	-2.43741000E-02
					-2.16363000E+00	-5.57789000E-02	-8.07814000E-03
					-2.16363000E+00	-5.57789000E-02	 8.07814000E-03
					-2.16292000E+00	-5.46076000E-02	 2.43741000E-02
					-1.90340000E+00	-1.30979000E-01	 4.60012000E-02
					-2.03839000E+00	-7.81941000E-02	 4.50557000E-02
					-1.92200000E+00	-9.32379000E-02	-4.92388000E-02
					-1.85444000E+00	-1.32231000E-01	-5.62420000E-02
					-2.10418000E+00	-5.03306000E-02	-4.03214000E-02
					-2.05037000E+00	-5.05524000E-02	-3.91824000E-02
					-2.10418000E+00	-5.03306000E-02	 4.03214000E-02
					-2.05037000E+00	-5.05524000E-02	 3.91824000E-02
					-2.00009000E+00	-5.54123000E-02	-2.39768000E-02
					-2.00156000E+00	-5.64694000E-02	-8.02356000E-03
					-2.00156000E+00	-5.64694000E-02	 8.02356000E-03
					-2.00009000E+00	-5.54123000E-02	 2.39768000E-02
					-2.09309000E+00	-2.00401000E-02	 6.34148000E-03
					-2.05571000E+00	-4.30168000E-02	 2.20018000E-02
					-2.00067000E+00	-6.94392000E-02	 4.38609000E-02
					-1.93558000E+00	-9.63891000E-02	 6.59744000E-02
					-1.86557000E+00	-1.17297000E-01	 8.27571000E-02
					-2.11843000E+00	-4.08715000E-08	 1.28943000E-02
					-2.21104000E+00	-6.12505000E-03	 3.00129000E-02
					-2.19946000E+00	-1.45418000E-02	 3.19579000E-02
					-2.18490000E+00	-2.57898000E-02	 3.45441000E-02
					-2.17114000E+00	-3.87829000E-02	 3.74346000E-02
					-2.12772000E+00	-1.47489000E-03	 2.16009000E-02
					-2.10734000E+00	-4.85208000E-03	 2.45293000E-02
					-2.07792000E+00	-1.43038000E-02	 2.85595000E-02
					-2.03809000E+00	-2.95288000E-02	 3.42374000E-02
					-2.10026000E+00	-2.71438000E-08	-5.96330000E-03
					-2.10016000E+00	-2.92943000E-08	-3.30782000E-03
					-2.10016000E+00	-2.92943000E-08	 3.30782000E-03
					-2.10026000E+00	-2.71439000E-08	 5.96330000E-03
					-1.86557000E+00	-1.17297000E-01	-8.27571000E-02
					-1.93558000E+00	-9.63891000E-02	-6.59744000E-02
					-2.00067000E+00	-6.94392000E-02	-4.38609000E-02
					-2.05571000E+00	-4.30168000E-02	-2.20018000E-02
					-2.09309000E+00	-2.00401000E-02	-6.34148000E-03
					-2.13164000E+00	-3.67031000E-08	-1.20118000E-02
					-2.13217000E+00	-3.63143000E-08	-3.96138000E-03
					-2.13217000E+00	-3.63143000E-08	 3.96138000E-03