<?xml version="1.0"?>
<VTKFile type="UnstructuredGrid" version="0.1" byte_order="LittleEndian">
	<UnstructuredGrid>
		<Piece NumberOfPoints="3432" NumberOfCells="2560">
			<Points>
				<DataArray type="Float64" NumberOfComponents="3" format="ascii">
					 0.00000000E+00	 0.00000000E+00	 1.27000000E-02
					 0.00000000E+00	 1.27000000E-02	 1.27000000E-02
					 0.00000000E+00	 1.27000000E-02	 0.00000000E+00
					 0.00000000E+00	 0.00000000E+00	 0.00000000E+00
					 4.50000000E-02	 1.27000000E-02	 1.27000000E-02
					 4.50000000E-02	 0.00000000E+00	 1.27000000E-02
					 4.50000000E-02	 1.27000000E-02	 0.00000000E+00
					 4.50000000E-02	 0.00000000E+00	 0.00000000E+00
					 0.00000000E+00	 2.54000000E-02	 1.27000000E-02
					 0.00000000E+00	 2.54000000E-02	 0.00000000E+00
					 4.50000000E-02	 2.54000000E-02	 1.27000000E-02
					 4.50000000E-02	 2.54000000E-02	 0.00000000E+00
					 5.12690000E-02	 1.27000000E-02	 1.27000000E-02
					 5.38263000E-02	 6.52625000E-03	 1.27000000E-02
					 5.12690000E-02	 1.27000000E-02	 0.00000000E+00
					 5.38263000E-02	 6.52625000E-03	 0.00000000E+00
					 5.38263000E-02	 1.88737000E-02	 0.00000000E+00
					 5.38263000E-02	 1.88737000E-02	 1.27000000E-02
					 6.00000000E-02	 0.00000000E+00	 0.00000000E+00
					 6.00000000E-02	 0.00000000E+00	 1.27000000E-02
					 6.00000000E-02	 3.96900000E-03	 0.00000000E+00
					 6.00000000E-02	 3.96900000E-03	 1.27000000E-02
					 5.57840000E-02	 1.27000000E-02	 1.27000000E-02
					 6.00000000E-02	 8.48400000E-03	 1.27000000E-02
					 5.57840000E-02	 1.27000000E-02	 0.00000000E+00
					 6.00000000E-02	 8.48400000E-03	 0.00000000E+00
					 6.00000000E-02	 2.54000000E-02	 0.00000000E+00
					 6.00000000E-02	 2.54000000E-02	 1.27000000E-02
					 6.00000000E-02	 2.14310000E-02	 0.00000000E+00
					 6.00000000E-02	 2.14310000E-02	 1.27000000E-02
					 6.00000000E-02	 1.69160000E-02	 0.00000000E+00
					 6.00000000E-02	 1.69160000E-02	 1.27000000E-02
					 7.50000000E-02	 0.00000000E+00	 0.00000000E+00
					 7.50000000E-02	 0.00000000E+00	 1.27000000E-02
					 6.61737000E-02	 6.52625000E-03	 0.00000000E+00
					 6.61737000E-02	 6.52625000E-03	 1.27000000E-02
					 6.42160000E-02	 1.27000000E-02	 1.27000000E-02
					 6.87310000E-02	 1.27000000E-02	 1.27000000E-02
					 6.42160000E-02	 1.27000000E-02	 0.00000000E+00
					 6.87310000E-02	 1.27000000E-02	 0.00000000E+00
					 7.50000000E-02	 2.54000000E-02	 0.00000000E+00
					 7.50000000E-02	 2.54000000E-02	 1.27000000E-02
					 6.61737000E-02	 1.88737000E-02	 0.00000000E+00
					 6.61737000E-02	 1.88737000E-02	 1.27000000E-02
					 1.20000000E-01	 0.00000000E+00	 0.00000000E+00
					 1.20000000E-01	 0.00000000E+00	 1.27000000E-02
					 7.50000000E-02	 1.27000000E-02	 0.00000000E+00
					 1.20000000E-01	 1.27000000E-02	 0.00000000E+00
					 1.20000000E-01	 1.27000000E-02	 1.27000000E-02
					 7.50000000E-02	 1.27000000E-02	 1.27000000E-02
					 1.20000000E-01	 2.54000000E-02	 0.00000000E+00
					 1.20000000E-01	 2.54000000E-02	 1.27000000E-02
					 4.50000000E-02	 1.01600000E-02	 1.27000000E-02
					 4.50000000E-02	 7.62000000E-03	 1.27000000E-02
					 4.50000000E-02	 5.08000000E-03	 1.27000000E-02
					 4.50000000E-02	 2.54000000E-03	 1.27000000E-02
					 0.00000000E+00	 2.54000000E-03	 1.27000000E-02
					 0.00000000E+00	 5.08000000E-03	 1.27000000E-02
					 0.00000000E+00	 7.62000000E-03	 1.27000000E-02
					 0.00000000E+00	 1.01600000E-02	 1.27000000E-02
					 0.00000000E+00	 1.27000000E-02	 2.54000000E-03
					 0.00000000E+00	 1.27000000E-02	 5.08000000E-03
					 0.00000000E+00	 1.27000000E-02	 7.62000000E-03
					 0.00000000E+00	 1.27000000E-02	 1.01600000E-02
					 0.00000000E+00	 2.54000000E-03	 0.00000000E+00
					 0.00000000E+00	 5.08000000E-03	 0.00000000E+00
					 0.00000000E+00	 7.62000000E-03	 0.00000000E+00
					 0.00000000E+00	 1.01600000E-02	 0.00000000E+00
					 0.00000000E+00	 0.00000000E+00	 2.54000000E-03
					 0.00000000E+00	 0.00000000E+00	 5.08000000E-03
					 0.00000000E+00	 0.00000000E+00	 7.62000000E-03
					 0.00000000E+00	 0.00000000E+00	 1.01600000E-02
					 4.25000000E-02	 1.27000000E-02	 1.27000000E-02
					 4.00000000E-02	 1.27000000E-02	 1.27000000E-02
					 3.75000000E-02	 1.27000000E-02	 1.27000000E-02
					 3.50000000E-02	 1.27000000E-02	 1.27000000E-02
					 3.25000000E-02	 1.27000000E-02	 1.27000000E-02
					 3.00000000E-02	 1.27000000E-02	 1.27000000E-02
					 2.75000000E-02	 1.27000000E-02	 1.27000000E-02
					 2.50000000E-02	 1.27000000E-02	 1.27000000E-02
					 2.25000000E-02	 1.27000000E-02	 1.27000000E-02
					 2.00000000E-02	 1.27000000E-02	 1.27000000E-02
					 1.75000000E-02	 1.27000000E-02	 1.27000000E-02
					 1.50000000E-02	 1.27000000E-02	 1.27000000E-02
					 1.25000000E-02	 1.27000000E-02	 1.27000000E-02
					 1.00000000E-02	 1.27000000E-02	 1.27000000E-02
					 7.50000000E-03	 1.27000000E-02	 1.27000000E-02
					 5.00000000E-03	 1.27000000E-02	 1.27000000E-02
					 2.50000000E-03	 1.27000000E-02	 1.27000000E-02
					 2.50000000E-03	 0.00000000E+00	 1.27000000E-02
					 5.00000000E-03	 0.00000000E+00	 1.27000000E-02
					 7.50000000E-03	 0.00000000E+00	 1.27000000E-02
					 1.00000000E-02	 0.00000000E+00	 1.27000000E-02
					 1.25000000E-02	 0.00000000E+00	 1.27000000E-02
					 1.50000000E-02	 0.00000000E+00	 1.27000000E-02
					 1.75000000E-02	 0.00000000E+00	 1.27000000E-02
					 2.00000000E-02	 0.00000000E+00	 1.27000000E-02
					 2.25000000E-02	 0.00000000E+00	 1.27000000E-02
					 2.50000000E-02	 0.00000000E+00	 1.27000000E-02
					 2.75000000E-02	 0.00000000E+00	 1.27000000E-02
					 3.00000000E-02	 0.00000000E+00	 1.27000000E-02
					 3.25000000E-02	 0.00000000E+00	 1.27000000E-02
					 3.50000000E-02	 0.00000000E+00	 1.27000000E-02
					 3.75000000E-02	 0.00000000E+00	 1.27000000E-02
					 4.00000000E-02	 0.00000000E+00	 1.27000000E-02
					 4.25000000E-02	 0.00000000E+00	 1.27000000E-02
					 4.25000000E-02	 1.27000000E-02	 0.00000000E+00
					 4.00000000E-02	 1.27000000E-02	 0.00000000E+00
					 3.75000000E-02	 1.27000000E-02	 0.00000000E+00
					 3.50000000E-02	 1.27000000E-02	 0.00000000E+00
					 3.25000000E-02	 1.27000000E-02	 0.00000000E+00
					 3.00000000E-02	 1.27000000E-02	 0.00000000E+00
					 2.75000000E-02	 1.27000000E-02	 0.00000000E+00
					 2.50000000E-02	 1.27000000E-02	 0.00000000E+00
					 2.25000000E-02	 1.27000000E-02	 0.00000000E+00
					 2.00000000E-02	 1.27000000E-02	 0.00000000E+00
					 1.75000000E-02	 1.27000000E-02	 0.00000000E+00
					 1.50000000E-02	 1.27000000E-02	 0.00000000E+00
					 1.25000000E-02	 1.27000000E-02	 0.00000000E+00
					 1.00000000E-02	 1.27000000E-02	 0.00000000E+00
					 7.50000000E-03	 1.27000000E-02	 0.00000000E+00
					 5.00000000E-03	 1.27000000E-02	 0.00000000E+00
					 2.50000000E-03	 1.27000000E-02	 0.00000000E+00
					 4.50000000E-02	 1.27000000E-02	 1.01600000E-02
					 4.50000000E-02	 1.27000000E-02	 7.62000000E-03
					 4.50000000E-02	 1.27000000E-02	 5.08000000E-03
					 4.50000000E-02	 1.27000000E-02	 2.54000000E-03
					 4.50000000E-02	 1.01600000E-02	 0.00000000E+00
					 4.50000000E-02	 7.62000000E-03	 0.00000000E+00
					 4.50000000E-02	 5.08000000E-03	 0.00000000E+00
					 4.50000000E-02	 2.54000000E-03	 0.00000000E+00
					 2.50000000E-03	 0.00000000E+00	 0.00000000E+00
					 5.00000000E-03	 0.00000000E+00	 0.00000000E+00
					 7.50000000E-03	 0.00000000E+00	 0.00000000E+00
					 1.00000000E-02	 0.00000000E+00	 0.00000000E+00
					 1.25000000E-02	 0.00000000E+00	 0.00000000E+00
					 1.50000000E-02	 0.00000000E+00	 0.00000000E+00
					 1.75000000E-02	 0.00000000E+00	 0.00000000E+00
					 2.00000000E-02	 0.00000000E+00	 0.00000000E+00
					 2.25000000E-02	 0.00000000E+00	 0.00000000E+00
					 2.50000000E-02	 0.00000000E+00	 0.00000000E+00
					 2.75000000E-02	 0.00000000E+00	 0.00000000E+00
					 3.00000000E-02	 0.00000000E+00	 0.00000000E+00
					 3.25000000E-02	 0.00000000E+00	 0.00000000E+00
					 3.50000000E-02	 0.00000000E+00	 0.00000000E+00
					 3.75000000E-02	 0.00000000E+00	 0.00000000E+00
					 4.00000000E-02	 0.00000000E+00	 0.00000000E+00
					 4.25000000E-02	 0.00000000E+00	 0.00000000E+00
					 4.50000000E-02	 0.00000000E+00	 2.54000000E-03
					 4.50000000E-02	 0.00000000E+00	 5.08000000E-03
					 4.50000000E-02	 0.00000000E+00	 7.62000000E-03
					 4.50000000E-02	 0.00000000E+00	 1.01600000E-02
					 4.50000000E-02	 2.28600000E-02	 1.27000000E-02
					 4.50000000E-02	 2.03200000E-02	 1.27000000E-02
					 4.50000000E-02	 1.77800000E-02	 1.27000000E-02
					 4.50000000E-02	 1.52400000E-02	 1.27000000E-02
					 0.00000000E+00	 1.52400000E-02	 1.27000000E-02
					 0.00000000E+00	 1.77800000E-02	 1.27000000E-02
					 0.00000000E+00	 2.03200000E-02	 1.27000000E-02
					 0.00000000E+00	 2.28600000E-02	 1.27000000E-02
					 0.00000000E+00	 2.54000000E-02	 2.54000000E-03
					 0.00000000E+00	 2.54000000E-02	 5.08000000E-03
					 0.00000000E+00	 2.54000000E-02	 7.62000000E-03
					 0.00000000E+00	 2.54000000E-02	 1.01600000E-02
					 0.00000000E+00	 1.52400000E-02	 0.00000000E+00
					 0.00000000E+00	 1.77800000E-02	 0.00000000E+00
					 0.00000000E+00	 2.03200000E-02	 0.00000000E+00
					 0.00000000E+00	 2.28600000E-02	 0.00000000E+00
					 2.50000000E-03	 2.54000000E-02	 1.27000000E-02
					 5.00000000E-03	 2.54000000E-02	 1.27000000E-02
					 7.50000000E-03	 2.54000000E-02	 1.27000000E-02
					 1.00000000E-02	 2.54000000E-02	 1.27000000E-02
					 1.25000000E-02	 2.54000000E-02	 1.27000000E-02
					 1.50000000E-02	 2.54000000E-02	 1.27000000E-02
					 1.75000000E-02	 2.54000000E-02	 1.27000000E-02
					 2.00000000E-02	 2.54000000E-02	 1.27000000E-02
					 2.25000000E-02	 2.54000000E-02	 1.27000000E-02
					 2.50000000E-02	 2.54000000E-02	 1.27000000E-02
					 2.75000000E-02	 2.54000000E-02	 1.27000000E-02
					 3.00000000E-02	 2.54000000E-02	 1.27000000E-02
					 3.25000000E-02	 2.54000000E-02	 1.27000000E-02
					 3.50000000E-02	 2.54000000E-02	 1.27000000E-02
					 3.75000000E-02	 2.54000000E-02	 1.27000000E-02
[...]
			<PointData>
				<DataArray type="Float32" Name="U" NumberOfComponents="3" ComponentName0="D1" ComponentName1="D2" ComponentName2="D3" format="ascii">
					 0.00000000E+00	 0.00000000E+00	 0.00000000E+00
					 0.00000000E+00	 0.00000000E+00	 0.00000000E+00
					 0.00000000E+00	 0.00000000E+00	 0.00000000E+00
					 0.00000000E+00	 0.00000000E+00	 0.00000000E+00
					-1.81910000E-01	-2.36364000E-10	 7.33175000E-01
					-1.83109000E-01	-9.79977000E-03	 7.22324000E-01
					 1.81910000E-01	 2.35885000E-10	 7.33175000E-01
					 1.83109000E-01	 9.79977000E-03	 7.22324000E-01
					 0.00000000E+00	 0.00000000E+00	 0.00000000E+00
					 0.00000000E+00	 0.00000000E+00	 0.00000000E+00
					-1.83109000E-01	 9.79977000E-03	 7.22324000E-01
					 1.83109000E-01	-9.79977000E-03	 7.22324000E-01
					-1.95859000E-01	-7.75589000E-10	 9.22120000E-01
					-2.05459000E-01	-3.02909000E-03	 1.00266000E+00
					 1.95859000E-01	 7.74986000E-10	 9.22120000E-01
					 2.05459000E-01	 3.02909000E-03	 1.00266000E+00
					 2.05459000E-01	-3.02909000E-03	 1.00266000E+00
					-2.05459000E-01	 3.02909000E-03	 1.00266000E+00
					 2.22838000E-01	 8.96349000E-03	 1.20612000E+00
					-2.22838000E-01	-8.96349000E-03	 1.20612000E+00
					 2.22915000E-01	 6.37278000E-03	 1.21134000E+00
					-2.22915000E-01	-6.37278000E-03	 1.21134000E+00
					-1.99820000E-01	-5.91353000E-10	 1.06471000E+00
					-2.22673000E-01	-3.90815000E-03	 1.21477000E+00
					 1.99820000E-01	 5.90654000E-10	 1.06471000E+00
					 2.22673000E-01	 3.90815000E-03	 1.21477000E+00
					 2.22838000E-01	-8.96349000E-03	 1.20612000E+00
					-2.22838000E-01	 8.96349000E-03	 1.20612000E+00
					 2.22915000E-01	-6.37278000E-03	 1.21134000E+00
					-2.22915000E-01	 6.37278000E-03	 1.21134000E+00
					 2.22673000E-01	-3.90815000E-03	 1.21477000E+00
					-2.22673000E-01	 3.90815000E-03	 1.21477000E+00
					 2.49947000E-01	 4.50179000E-03	 1.77665000E+00
					-2.49947000E-01	-4.50179000E-03	 1.77665000E+00
					 2.37497000E-01	 2.65289000E-03	 1.43898000E+00
					-2.37497000E-01	-2.65289000E-03	 1.43898000E+00
					-2.41472000E-01	-3.57116000E-10	 1.36530000E+00
					-2.43839000E-01	-5.36693000E-10	 1.53754000E+00
					 2.41472000E-01	 3.56211000E-10	 1.36530000E+00
					 2.43839000E-01	 5.35679000E-10	 1.53754000E+00
					 2.49947000E-01	-4.50179000E-03	 1.77665000E+00
					-2.49947000E-01	 4.50179000E-03	 1.77665000E+00
					 2.37497000E-01	-2.65289000E-03	 1.43898000E+00
					-2.37497000E-01	 2.65289000E-03	 1.43898000E+00
					 2.68526000E-01	 1.23822000E-04	 3.65538000E+00
					-2.68526000E-01	-1.23822000E-04	 3.65538000E+00
					 2.50447000E-01	 1.30464000E-10	 1.78198000E+00
					 2.68562000E-01	-3.19225000E-11	 3.65561000E+00
					-2.68562000E-01	 2.94880000E-11	 3.65561000E+00
					-2.50447000E-01	-1.31640000E-10	 1.78198000E+00
					 2.68526000E-01	-1.23822000E-04	 3.65538000E+00
					-2.68526000E-01	 1.23822000E-04	 3.65538000E+00
					-1.82041000E-01	-1.85388000E-03	 7.32762000E-01
					-1.82366000E-01	-3.77548000E-03	 7.31525000E-01
					-1.82740000E-01	-5.77993000E-03	 7.29454000E-01
					-1.82991000E-01	-7.83945000E-03	 7.26513000E-01
					 0.00000000E+00	 0.00000000E+00	 0.00000000E+00
					 0.00000000E+00	 0.00000000E+00	 0.00000000E+00
					 0.00000000E+00	 0.00000000E+00	 0.00000000E+00
					 0.00000000E+00	 0.00000000E+00	 0.00000000E+00
					 0.00000000E+00	 0.00000000E+00	 0.00000000E+00
					 0.00000000E+00	 0.00000000E+00	 0.00000000E+00
					 0.00000000E+00	 0.00000000E+00	 0.00000000E+00
					 0.00000000E+00	 0.00000000E+00	 0.00000000E+00
					 0.00000000E+00	 0.00000000E+00	 0.00000000E+00
					 0.00000000E+00	 0.00000000E+00	 0.00000000E+00
					 0.00000000E+00	 0.00000000E+00	 0.00000000E+00
					 0.00000000E+00	 0.00000000E+00	 0.00000000E+00
					 0.00000000E+00	 0.00000000E+00	 0.00000000E+00
					 0.00000000E+00	 0.00000000E+00	 0.00000000E+00
					 0.00000000E+00	 0.00000000E+00	 0.00000000E+00
					 0.00000000E+00	 0.00000000E+00	 0.00000000E+00
					-1.75151000E-01	-1.73740000E-10	 6.62111000E-01
					-1.67863000E-01	-1.22663000E-10	 5.93876000E-01
					-1.60128000E-01	-9.15878000E-11	 5.28634000E-01
					-1.51985000E-01	-7.02698000E-11	 4.66536000E-01
					-1.43451000E-01	-5.50784000E-11	 4.07728000E-01
					-1.34536000E-01	-4.39350000E-11	 3.52354000E-01
					-1.25243000E-01	-3.55981000E-11	 3.00556000E-01
					-1.15575000E-01	-2.92157000E-11	 2.52478000E-01
					-1.05533000E-01	-2.41835000E-11	 2.08259000E-01
					-9.51220000E-02	-2.00800000E-11	 1.68036000E-01
					-8.43457000E-02	-1.66177000E-11	 1.31941000E-01
					-7.32111000E-02	-1.36081000E-11	 1.00097000E-01
					-6.17279000E-02	-1.09328000E-11	 7.26222000E-02
					-4.99138000E-02	-8.52242000E-12	 4.96227000E-02
					-3.78045000E-02	-6.33372000E-12	 3.12065000E-02
					-2.54961000E-02	-4.31627000E-12	 1.73833000E-02
					-1.30066000E-02	-2.35169000E-12	 8.22504000E-03
					-1.34553000E-02	-8.42724000E-03	 3.36234000E-03
					-2.56435000E-02	-1.17061000E-02	 8.76090000E-03
					-3.77116000E-02	-1.35939000E-02	 2.02033000E-02
					-4.97120000E-02	-1.44980000E-02	 3.70902000E-02
					-6.14972000E-02	-1.48881000E-02	 5.91688000E-02
					-7.29960000E-02	-1.49629000E-02	 8.61531000E-02
					-8.41646000E-02	-1.48390000E-02	 1.17813000E-01
					-9.49780000E-02	-1.45836000E-02	 1.53943000E-01
					-1.05422000E-01	-1.42399000E-02	 1.94352000E-01
					-1.15490000E-01	-1.38366000E-02	 2.38862000E-01
					-1.25178000E-01	-1.33934000E-02	 2.87301000E-01
					-1.34484000E-01	-1.29243000E-02	 3.39502000E-01
					-1.43412000E-01	-1.24387000E-02	 3.95302000E-01
					-1.51963000E-01	-1.19429000E-02	 4.54542000E-01
					-1.60149000E-01	-1.14423000E-02	 5.17061000E-01
					-1.67985000E-01	-1.09363000E-02	 5.82690000E-01
					-1.75520000E-01	-1.04702000E-02	 6.51269000E-01
					 1.75151000E-01	 1.73307000E-10	 6.62111000E-01
					 1.67863000E-01	 1.22274000E-10	 5.93876000E-01
					 1.60128000E-01	 9.12419000E-11	 5.28634000E-01
					 1.51985000E-01	 6.99648000E-11	 4.66536000E-01
					 1.43451000E-01	 5.48119000E-11	 4.07728000E-01
					 1.34536000E-01	 4.37048000E-11	 3.52354000E-01
					 1.25243000E-01	 3.54019000E-11	 3.00556000E-01
					 1.15575000E-01	 2.90514000E-11	 2.52478000E-01
					 1.05533000E-01	 2.40485000E-11	 2.08259000E-01
					 9.51220000E-02	 1.99716000E-11	 1.68036000E-01
					 8.43457000E-02	 1.65337000E-11	 1.31941000E-01
					 7.32111000E-02	 1.35456000E-11	 1.00097000E-01
					 6.17279000E-02	 1.08892000E-11	 7.26222000E-02
					 4.99138000E-02	 8.49462000E-12	 4.96227000E-02
					 3.78045000E-02	 6.31868000E-12	 3.12065000E-02
					 2.54961000E-02	 4.31054000E-12	 1.73833000E-02
					 1.30066000E-02	 2.35127000E-12	 8.22504000E-03
					-1.08803000E-01	-1.66088000E-10	 7.31681000E-01
					-3.62082000E-02	-5.73281000E-11	 7.30930000E-01
					 3.62082000E-02	 5.68475000E-11	 7.30930000E-01
					 1.08803000E-01	 1.65608000E-10	 7.31681000E-01
					 1.82041000E-01	 1.85388000E-03	 7.32762000E-01
					 1.82366000E-01	 3.77548000E-03	 7.31525000E-01
					 1.82740000E-01	 5.77993000E-03	 7.29454000E-01
					 1.82991000E-01	 7.83945000E-03	 7.26513000E-01
					 1.34553000E-02	 8.42724000E-03	 3.36234000E-03
					 2.56435000E-02	 1.17061000E-02	 8.76090000E-03
					 3.77116000E-02	 1.35939000E-02	 2.02033000E-02
					 4.97120000E-02	 1.44980000E-02	 3.70902000E-02
					 6.14972000E-02	 1.48881000E-02	 5.91688000E-02
					 7.29960000E-02	 1.49629000E-02	 8.61531000E-02
					 8.41646000E-02	 1.48390000E-02	 1.17813000E-01
					 9.49780000E-02	 1.45836000E-02	 1.53943000E-01
					 1.05422000E-01	 1.42399000E-02	 1.94352000E-01
					 1.15490000E-01	 1.38366000E-02	 2.38862000E-01
					 1.25178000E-01	 1.33934000E-02	 2.87301000E-01
					 1.34484000E-01	 1.29243000E-02	 3.39502000E-01
					 1.43412000E-01	 1.24387000E-02	 3.95302000E-01
					 1.51963000E-01	 1.19429000E-02	 4.54542000E-01
					 1.60149000E-01	 1.14423000E-02	 5.17061000E-01
					 1.67985000E-01	 1.09363000E-02	 5.82690000E-01
					 1.75520000E-01	 1.04702000E-02	 6.51269000E-01
					 1.09301000E-01	 5.79232000E-03	 7.20728000E-01
					 3.63677000E-02	 1.91693000E-03	 7.19948000E-01
					-3.63677000E-02	-1.91693000E-03	 7.19948000E-01
					-1.09301000E-01	-5.79232000E-03	 7.20728000E-01
					-1.82991000E-01	 7.83945000E-03	 7.26513000E-01
					-1.82740000E-01	 5.77993000E-03	 7.29454000E-01
					-1.82366000E-01	 3.77548000E-03	 7.31525000E-01
					-1.82041000E-01	 1.85388000E-03	 7.32762000E-01
					 0.00000000E+00	 0.00000000E+00	 0.00000000E+00
					 0.00000000E+00	 0.00000000E+00	 0.00000000E+00
					 0.00000000E+00	 0.00000000E+00	 0.00000000E+00
					 0.00000000E+00	 0.00000000E+00	 0.00000000E+00
					 0.00000000E+00	 0.00000000E+00	 0.00000000E+00
					 0.00000000E+00	 0.00000000E+00	 0.00000000E+00
					 0.00000000E+00	 0.00000000E+00	 0.00000000E+00
					 0.00000000E+00	 0.00000000E+00	 0.00000000E+00
					 0.00000000E+00	 0.00000000E+00	 0.00000000E+00
					 0.00000000E+00	 0.00000000E+00	 0.00000000E+00
					 0.00000000E+00	 0.00000000E+00	 0.00000000E+00
					 0.00000000E+00	 0.00000000E+00	 0.00000000E+00
					-1.34553000E-02	 8.42724000E-03	 3.36234000E-03
					-2.56435000E-02	 1.17061000E-02	 8.76090000E-03
					-3.77116000E-02	 1.35939000E-02	 2.02033000E-02
					-4.97120000E-02	 1.44980000E-02	 3.70902000E-02
					-6.14972000E-02	 1.48881000E-02	 5.91688000E-02
					-7.29960000E-02	 1.49629000E-02	 8.61531000E-02
					-8.41646000E-02	 1.48390000E-02	 1.17813000E-01
					-9.49780000E-02	 1.45836000E-02	 1.53943000E-01
					-1.05422000E-01	 1.42399000E-02	 1.94352000E-01
					-1.15490000E-01	 1.38366000E-02	 2.38862000E-01
					-1.25178000E-01	 1.33934000E-02	 2.87301000E-01
					-1.34484000E-01	 1.29243000E-02	 3.39502000E-01
					-1.43412000E-01	 1.24387000E-02	 3.95302000E-01
					-1.51963000E-01	 1.19429000E-02	 4.54542000E-01
					-1.60149000E-01	 1.14423000E-02	 5.17061000E-01
					-1.67985000E-01	 1.09363000E-02	 5.82690000E-01
					-1.75520000E-01	 1.04702000E-02	 6.51269000E-01
					 1.34553000E-02	-8.42724000E-03	 3.36234000E-03
					 2.56435000E-02	-1.17061000E-02	 8.76090000E-03
					 3.77116000E-02	-1.35939000E-02	 2.02033000E-02
					 4.97120000E-02	-1.44980000E-02	 3.70902000E-02
					 6.14972000E-02	-1.48881000E-02	 5.91688000E-02
					 7.29960000E-02	-1.49629000E-02	 8.61531000E-02
					 8.41646000E-02	-1.48390000E-02	 1.17813000E-01
					 9.49780000E-02	-1.45836000E-02	 1.53943000E-01
					 1.05422000E-01	-1.42399000E-02	 1.94352000E-01
					 1.15490000E-01	-1.38366000E-02	 2.38862000E-01
					 1.25178000E-01	-1.33934000E-02	 2.87301000E-01
					 1.34484000E-01	-1.29243000E-02	 3.39502000E-01
					 1.43412000E-01	-1.24387000E-02	 3.95302000E-01
					 1.51963000E-01	-1.19429000E-02	 4.54542000E-01
					 1.60149000E-01	-1.14423000E-02	 5.17061000E-01
					 1.67985000E-01	-1.09363000E-02	 5.82690000E-01
					 1.75520000E-01	-1.04702000E-02	 6.51269000E-01
					 1.09301000E-01	-5.79232000E-03	 7.20728000E-01
					 3.63677000E-02	-1.91693000E-03	 7.19948000E-01
					-3.63677000E-02	 1.91693000E-03	 7.19948000E-01
					-1.09301000E-01	 5.79232000E-03	 7.20728000E-01
					 1.82991000E-01	-7.83945000E-03	 7.26513000E-01
					 1.82740000E-01	-5.77993000E-03	 7.29454000E-01
					 1.82366000E-01	-3.77548000E-03	 7.31525000E-01
					 1.82041000E-01	-1.85388000E-03	 7.32762000E-01
					-2.22946000E-01	-7.16016000E-03	 1.20989000E+00
					-2.22933000E-01	-8.04023000E-03	 1.20816000E+00
					-1.91838000E-01	-5.03388000E-10	 8.57588000E-01
					-1.87151000E-01	-3.28209000E-10	 7.94528000E-01
					-2.02353000E-01	-2.12575000E-03	 9.74320000E-01
					-1.99574000E-01	-1.43241000E-03	 9.51651000E-01
					-1.97564000E-01	-7.94501000E-04	 9.35394000E-01
					-1.96194000E-01	-4.28421000E-04	 9.25441000E-01
					-1.91271000E-01	-7.34970000E-03	 8.13746000E-01
					-1.98658000E-01	-5.14475000E-03	 9.06993000E-01
					 1.91838000E-01	 5.02827000E-10	 8.57588000E-01
					 1.87151000E-01	 3.27690000E-10	 7.94528000E-01
					-1.17009000E-01	-4.47892000E-10	 9.21097000E-01
					-3.89128000E-02	-1.44042000E-10	 9.20613000E-01
					 3.89128000E-02	 1.43438000E-10	 9.20613000E-01
					 1.17009000E-01	 4.47288000E-10	 9.21097000E-01
					 1.22969000E-01	 1.94711000E-03	 1.00131000E+00
					 4.09243000E-02	 6.69579000E-04	 1.00063000E+00
					-4.09243000E-02	-6.69579000E-04	 1.00063000E+00
					-1.22969000E-01	-1.94711000E-03	 1.00131000E+00
					 2.02353000E-01	 2.12575000E-03	 9.74320000E-01
					 1.99574000E-01	 1.43241000E-03	 9.51651000E-01
					 1.97564000E-01	 7.94501000E-04	 9.35394000E-01
					 1.96194000E-01	 4.28421000E-04	 9.25441000E-01
					 1.91271000E-01	 7.34970000E-03	 8.13746000E-01
					 1.98658000E-01	 5.14475000E-03	 9.06993000E-01
					 1.91271000E-01	-7.34970000E-03	 8.13746000E-01
					 1.98658000E-01	-5.14475000E-03	 9.06993000E-01
					 1.96194000E-01	-4.28419000E-04	 9.25441000E-01
					 1.97564000E-01	-7.94500000E-04	 9.35394000E-01
					 1.99574000E-01	-1.43241000E-03	 9.51651000E-01
					 2.02353000E-01	-2.12575000E-03	 9.74320000E-01
					-1.96194000E-01	 4.28419000E-04	 9.25441000E-01
					-1.97564000E-01	 7.94500000E-04	 9.35394000E-01
					-1.99574000E-01	 1.43241000E-03	 9.51651000E-01
					-2.02353000E-01	 2.12575000E-03	 9.74320000E-01
					 1.22969000E-01	-1.94711000E-03	 1.00131000E+00
					 4.09243000E-02	-6.69580000E-04	 1.00063000E+00
					-4.09243000E-02	 6.69580000E-04	 1.00063000E+00
					-1.22969000E-01	 1.94711000E-03	 1.00131000E+00
					-1.91271000E-01	 7.34970000E-03	 8.13746000E-01
					-1.98658000E-01	 5.14475000E-03	 9.06993000E-01
					-2.17142000E-01	-5.90266000E-03	 1.13262000E+00
					-2.11179000E-01	-4.60851000E-03	 1.06171000E+00
					 1.96599000E-01	 8.80272000E-03	 8.74011000E-01
					 2.10067000E-01	 8.75779000E-03	 1.03462000E+00
					 1.33236000E-01	 5.37965000E-03	 1.20476000E+00
					 4.43407000E-02	 1.80939000E-03	 1.20408000E+00
					-4.43407000E-02	-1.80939000E-03	 1.20408000E+00
					-1.33236000E-01	-5.37965000E-03	 1.20476000E+00
					-1.96599000E-01	-8.80272000E-03	 8.74011000E-01
					-2.10067000E-01	-8.75779000E-03	 1.03462000E+00
					 2.17142000E-01	 5.90266000E-03	 1.13262000E+00
					 2.11179000E-01	 4.60851000E-03	 1.06171000E+00
					 2.22946000E-01	 7.16016000E-03	 1.20989000E+00
					 2.22933000E-01	 8.04023000E-03	 1.20816000E+00
					-1.33337000E-01	-4.02378000E-03	 1.20977000E+00
					-4.43756000E-02	-1.37764000E-03	 1.20898000E+00
					 4.43756000E-02	 1.37764000E-03	 1.20898000E+00
					 1.33337000E-01	 4.02378000E-03	 1.20977000E+00
					-1.98486000E-01	-1.04475000E-09	 9.93215000E-01
					-2.17585000E-01	-3.57428000E-03	 1.17593000E+00
					-2.12450000E-01	-2.78760000E-03	 1.13973000E+00
					-2.07637000E-01	-1.83349000E-03	 1.10867000E+00
					-2.03576000E-01	-1.00597000E-03	 1.08481000E+00
					-2.00806000E-01	-4.24040000E-04	 1.06983000E+00
					-2.22831000E-01	-5.40899000E-03	 1.21308000E+00
					 1.98486000E-01	 1.04410000E-09	 9.93215000E-01
					 1.19413000E-01	-1.04310000E-11	 1.06445000E+00
					 3.96852000E-02	 3.07913000E-11	 1.06417000E+00
					-3.96852000E-02	-3.14908000E-11	 1.06417000E+00
					-1.19413000E-01	 9.73194000E-12	 1.06445000E+00
					 1.33120000E-01	 2.56251000E-03	 1.21222000E+00
					 4.43159000E-02	 9.27245000E-04	 1.21112000E+00
					-4.43159000E-02	-9.27245000E-04	 1.21112000E+00
					-1.33120000E-01	-2.56251000E-03	 1.21222000E+00
					 2.00806000E-01	 4.24040000E-04	 1.06983000E+00
					 2.03576000E-01	 1.00597000E-03	 1.08481000E+00
					 2.07637000E-01	 1.83349000E-03	 1.10867000E+00
					 2.12450000E-01	 2.78760000E-03	 1.13973000E+00
					 2.17585000E-01	 3.57428000E-03	 1.17593000E+00
					 2.22831000E-01	 5.40899000E-03	 1.21308000E+00
					-2.11179000E-01	 4.60851000E-03	 1.06171000E+00
					-2.17142000E-01	 5.90266000E-03	 1.13262000E+00
					 1.96599000E-01	-8.80272000E-03	 8.74011000E-01
					 2.10067000E-01	-8.75779000E-03	 1.03462000E+00
					 1.33236000E-01	-5.37965000E-03	 1.20476000E+00
					 4.43407000E-02	-1.80939000E-03	 1.20408000E+00
					-4.43407000E-02	 1.80939000E-03	 1.20408000E+00
					-1.33236000E-01	 5.37965000E-03	 1.20476000E+00
					-1.96599000E-01	 8.80272000E-03	 8.74011000E-01
					-2.10067000E-01	 8.75779000E-03	 1.03462000E+00
					 2.22933000E-01	-8.04023000E-03	 1.20816000E+00
					 2.22946000E-01	-7.16015000E-03	 1.20989000E+00
					 2.11179000E-01	-4.60851000E-03	 1.06171000E+00
					 2.17142000E-01	-5.90266000E-03	 1.13262000E+00
					-2.22933000E-01	 8.04023000E-03	 1.20816000E+00
					-2.22946000E-01	 7.16015000E-03	 1.20989000E+00
					-1.33337000E-01	 4.02378000E-03	 1.20977000E+00
					-4.43756000E-02	 1.37764000E-03	 1.20898000E+00
					 4.43756000E-02	-1.37764000E-03	 1.20898000E+00
					 1.33337000E-01	-4.02378000E-03	 1.20977000E+00
					 2.22831000E-01	-5.40899000E-03	 1.21308000E+00
					-2.00806000E-01	 4.24038000E-04	 1.06983000E+00
					-2.03576000E-01	 1.00597000E-03	 1.08481000E+00
					-2.07637000E-01	 1.83349000E-03	 1.10867000E+00
					-2.12450000E-01	 2.78759000E-03	 1.13973000E+00
					-2.17585000E-01	 3.57428000E-03	 1.17593000E+00
					 2.17585000E-01	-3.57428000E-03	 1.17593000E+00
					 2.12450000E-01	-2.78759000E-03	 1.13973000E+00
					 2.07637000E-01	-1.83349000E-03	 1.10867000E+00
					 2.03576000E-01	-1.00597000E-03	 1.08481000E+00
					 2.00806000E-01	-4.24038000E-04	 1.06983000E+00
					-2.22831000E-01	 5.40899000E-03	 1.21308000E+00
					 1.33120000E-01	-2.56251000E-03	 1.21222000E+00
					 4.43159000E-02	-9.27245000E-04	 1.21112000E+00
					-4.43159000E-02	 9.27245000E-04	 1.21112000E+00
					-1.33120000E-01	 2.56251000E-03	 1.21222000E+00
					-2.33231000E-01	-4.19616000E-03	 1.37067000E+00
					-2.28314000E-01	-5.62637000E-03	 1.29273000E+00
					 2.33914000E-01	 7.17949000E-03	 1.38925000E+00
					 2.42964000E-01	 5.41244000E-03	 1.58049000E+00
					 1.49595000E-01	 2.61719000E-03	 1.77595000E+00
					 4.97982000E-02	 8.60419000E-04	 1.77562000E+00
					-4.97982000E-02	-8.60419000E-04	 1.77562000E+00
					-1.49595000E-01	-2.61719000E-03	 1.77595000E+00
					-2.33914000E-01	-7.17949000E-03	 1.38925000E+00
					-2.42964000E-01	-5.41244000E-03	 1.58049000E+00
					 2.33231000E-01	 4.19616000E-03	 1.37067000E+00
					 2.28314000E-01	 5.62637000E-03	 1.29273000E+00
					 2.46221000E-01	 4.02340000E-03	 1.66250000E+00
					 2.42092000E-01	 3.48547000E-03	 1.54978000E+00
					-2.46221000E-01	-4.02340000E-03	 1.66250000E+00
					-2.42092000E-01	-3.48547000E-03	 1.54978000E+00
					 1.42184000E-01	 1.60116000E-03	 1.43803000E+00
					 4.73503000E-02	 5.37753000E-04	 1.43755000E+00
					-4.73503000E-02	-5.37753000E-04	 1.43755000E+00
					-1.42184000E-01	-1.60116000E-03	 1.43803000E+00
					-2.40788000E-01	-6.19703000E-04	 1.36016000E+00
					-2.38827000E-01	-1.32484000E-03	 1.34506000E+00
					-2.35802000E-01	-2.15481000E-03	 1.32108000E+00
					-2.31967000E-01	-3.02254000E-03	 1.28989000E+00
					-2.27517000E-01	-3.69096000E-03	 1.25363000E+00
					-2.42343000E-01	-7.12798000E-10	 1.45126000E+00
					-2.50406000E-01	-8.59958000E-04	 1.78176000E+00
					-2.50315000E-01	-1.74898000E-03	 1.78112000E+00
					-2.50223000E-01	-2.66655000E-03	 1.78009000E+00
					-2.50133000E-01	-3.60747000E-03	 1.77865000E+00
					-2.43628000E-01	-3.32720000E-04	 1.53337000E+00
					-2.42757000E-01	-6.60644000E-04	 1.52097000E+00
					-2.41496000E-01	-1.18686000E-03	 1.50061000E+00
					-2.39634000E-01	-1.81773000E-03	 1.47310000E+00
					 1.44952000E-01	-1.11378000E-12	 1.36535000E+00
					 4.83408000E-02	 2.20711000E-11	 1.36530000E+00
					-4.83408000E-02	-2.29773000E-11	 1.36530000E+00
					-1.44952000E-01	 2.07279000E-13	 1.36535000E+00
					 2.27517000E-01	 3.69096000E-03	 1.25363000E+00
					 2.31967000E-01	 3.02254000E-03	 1.28989000E+00
					 2.35802000E-01	 2.15481000E-03	 1.32108000E+00
					 2.38827000E-01	 1.32484000E-03	 1.34506000E+00
					 2.40788000E-01	 6.19703000E-04	 1.36016000E+00
					 1.46312000E-01	 3.35468000E-10	 1.53703000E+00
					 4.87718000E-02	 1.11566000E-10	 1.53678000E+00
					-4.87718000E-02	-1.12582000E-10	 1.53678000E+00