# vtk DataFile Version 3.0

ASCII
DATASET UNSTRUCTURED_GRID

POINTS 3432 double
	 0.00000000E+00	 0.00000000E+00	 1.27000000E-02
	 0.00000000E+00	 1.27000000E-02	 1.27000000E-02
	 0.00000000E+00	 1.27000000E-02	 0.00000000E+00
	 0.00000000E+00	 0.00000000E+00	 0.00000000E+00
	 4.50000000E-02	 1.27000000E-02	 1.27000000E-02
	 4.50000000E-02	 0.00000000E+00	 1.27000000E-02
	 4.50000000E-02	 1.27000000E-02	 0.00000000E+00
	 4.50000000E-02	 0.00000000E+00	 0.00000000E+00
	 0.00000000E+00	 2.54000000E-02	 1.27000000E-02
	 0.00000000E+00	 2.54000000E-02	 0.00000000E+00
	 4.50000000E-02	 2.54000000E-02	 1.27000000E-02
	 4.50000000E-02	 2.54000000E-02	 0.00000000E+00
	 5.12690000E-02	 1.27000000E-02	 1.27000000E-02
	 5.38263000E-02	 6.52625000E-03	 1.27000000E-02
	 5.12690000E-02	 1.27000000E-02	 0.00000000E+00
	 5.38263000E-02	 6.52625000E-03	 0.00000000E+00
	 5.38263000E-02	 1.88737000E-02	 0.00000000E+00
	 5.38263000E-02	 1.88737000E-02	 1.27000000E-02
	 6.00000000E-02	 0.00000000E+00	 0.00000000E+00
	 6.00000000E-02	 0.00000000E+00	 1.27000000E-02
	 6.00000000E-02	 3.96900000E-03	 0.00000000E+00
	 6.00000000E-02	 3.96900000E-03	 1.27000000E-02
	 5.57840000E-02	 1.27000000E-02	 1.27000000E-02
	 6.00000000E-02	 8.48400000E-03	 1.27000000E-02
	 5.57840000E-02	 1.27000000E-02	 0.00000000E+00
	 6.00000000E-02	 8.48400000E-03	 0.00000000E+00
	 6.00000000E-02	 2.54000000E-02	 0.00000000E+00
	 6.00000000E-02	 2.54000000E-02	 1.27000000E-02
	 6.00000000E-02	 2.14310000E-02	 0.00000000E+00
	 6.00000000E-02	 2.14310000E-02	 1.27000000E-02
	 6.00000000E-02	 1.69160000E-02	 0.00000000E+00
	 6.00000000E-02	 1.69160000E-02	 1.27000000E-02
	 7.50000000E-02	 0.00000000E+00	 0.00000000E+00
	 7.50000000E-02	 0.00000000E+00	 1.27000000E-02
	 6.61737000E-02	 6.52625000E-03	 0.00000000E+00
	 6.61737000E-02	 6.52625000E-03	 1.27000000E-02
	 6.42160000E-02	 1.27000000E-02	 1.27000000E-02
	 6.87310000E-02	 1.27000000E-02	 1.27000000E-02
	 6.42160000E-02	 1.27000000E-02	 0.00000000E+00
	 6.87310000E-02	 1.27000000E-02	 0.00000000E+00
	 7.50000000E-02	 2.54000000E-02	 0.00000000E+00
	 7.50000000E-02	 2.54000000E-02	 1.27000000E-02
	 6.61737000E-02	 1.88737000E-02	 0.00000000E+00
	 6.61737000E-02	 1.88737000E-02	 1.27000000E-02
	 1.20000000E-01	 0.00000000E+00	 0.00000000E+00
	 1.20000000E-01	 0.00000000E+00	 1.27000000E-02
	 7.50000000E-02	 1.27000000E-02	 0.00000000E+00
	 1.20000000E-01	 1.27000000E-02	 0.00000000E+00
	 1.20000000E-01	 1.27000000E-02	 1.27000000E-02
	 7.50000000E-02	 1.27000000E-02	 1.27000000E-02
	 1.20000000E-01	 2.54000000E-02	 0.00000000E+00
	 1.20000000E-01	 2.54000000E-02	 1.27000000E-02
	 4.50000000E-02	 1.01600000E-02	 1.27000000E-02
	 4.50000000E-02	 7.62000000E-03	 1.27000000E-02
	 4.50000000E-02	 5.08000000E-03	 1.27000000E-02
	 4.50000000E-02	 2.54000000E-03	 1.27000000E-02
	 0.00000000E+00	 2.54000000E-03	 1.27000000E-02
	 0.00000000E+00	 5.08000000E-03	 1.27000000E-02
	 0.00000000E+00	 7.62000000E-03	 1.27000000E-02
	 0.00000000E+00	 1.01600000E-02	 1.27000000E-02
	 0.00000000E+00	 1.27000000E-02	 2.54000000E-03
	 0.00000000E+00	 1.27000000E-02	 5.08000000E-03
	 0.00000000E+00	 1.27000000E-02	 7.62000000E-03
	 0.00000000E+00	 1.27000000E-02	 1.01600000E-02
	 0.00000000E+00	 2.54000000E-03	 0.00000000E+00
	 0.00000000E+00	 5.08000000E-03	 0.00000000E+00
	 0.00000000E+00	 7.62000000E-03	 0.00000000E+00
	 0.00000000E+00	 1.01600000E-02	 0.00000000E+00
	 0.00000000E+00	 0.00000000E+00	 2.54000000E-03
	 0.00000000E+00	 0.00000000E+00	 5.08000000E-03
	 0.00000000E+00	 0.00000000E+00	 7.62000000E-03
	 0.00000000E+00	 0.00000000E+00	 1.01600000E-02
	 4.25000000E-02	 1.27000000E-02	 1.27000000E-02
	 4.00000000E-02	 1.27000000E-02	 1.27000000E-02
	 3.75000000E-02	 1.27000000E-02	 1.27000000E-02
	 3.50000000E-02	 1.27000000E-02	 1.27000000E-02
	 3.25000000E-02	 1.27000000E-02	 1.27000000E-02
	 3.00000000E-02	 1.27000000E-02	 1.27000000E-02
	 2.75000000E-02	 1.27000000E-02	 1.27000000E-02
	 2.50000000E-02	 1.27000000E-02	 1.27000000E-02
	 2.25000000E-02	 1.27000000E-02	 1.27000000E-02
	 2.00000000E-02	 1.27000000E-02	 1.27000000E-02
	 1.75000000E-02	 1.27000000E-02	 1.27000000E-02
	 1.50000000E-02	 1.27000000E-02	 1.27000000E-02
	 1.25000000E-02	 1.27000000E-02	 1.27000000E-02
	 1.00000000E-02	 1.27000000E-02	 1.27000000E-02
	 7.50000000E-03	 1.27000000E-02	 1.27000000E-02
	 5.00000000E-03	 1.27000000E-02	 1.27000000E-02
	 2.50000000E-03	 1.27000000E-02	 1.27000000E-02
	 2.50000000E-03	 0.00000000E+00	 1.27000000E-02
	 5.00000000E-03	 0.00000000E+00	 1.27000000E-02
	 7.50000000E-03	 0.00000000E+00	 1.27000000E-02
	 1.00000000E-02	 0.00000000E+00	 1.27000000E-02
	 1.25000000E-02	 0.00000000E+00	 1.27000000E-02
	 1.50000000E-02	 0.00000000E+00	 1.27000000E-02
	 1.75000000E-02	 0.00000000E+00	 1.27000000E-02
	 2.00000000E-02	 0.00000000E+00	 1.27000000E-02
	 2.25000000E-02	 0.00000000E+00	 1.27000000E-02
	 2.50000000E-02	 0.00000000E+00	 1.27000000E-02
	 2.75000000E-02	 0.00000000E+00	 1.27000000E-02
	 3.00000000E-02	 0.00000000E+00	 1.27000000E-02
	 3.25000000E-02	 0.00000000E+00	 1.27000000E-02
	 3.50000000E-02	 0.00000000E+00	 1.27000000E-02
	 3.75000000E-02	 0.00000000E+00	 1.27000000E-02
	 4.00000000E-02	 0.00000000E+00	 1.27000000E-02
	 4.25000000E-02	 0.00000000E+00	 1.27000000E-02
	 4.25000000E-02	 1.27000000E-02	 0.00000000E+00
	 4.00000000E-02	 1.27000000E-02	 0.00000000E+00
	 3.75000000E-02	 1.27000000E-02	 0.00000000E+00
	 3.50000000E-02	 1.27000000E-02	 0.00000000E+00
	 3.25000000E-02	 1.27000000E-02	 0.00000000E+00
	 3.00000000E-02	 1.27000000E-02	 0.00000000E+00
	 2.75000000E-02	 1.27000000E-02	 0.00000000E+00
	 2.50000000E-02	 1.27000000E-02	 0.00000000E+00
	 2.25000000E-02	 1.27000000E-02	 0.00000000E+00
	 2.00000000E-02	 1.27000000E-02	 0.00000000E+00
	 1.75000000E-02	 1.27000000E-02	 0.00000000E+00
	 1.50000000E-02	 1.27000000E-02	 0.00000000E+00
	 1.25000000E-02	 1.27000000E-02	 0.00000000E+00
	 1.00000000E-02	 1.27000000E-02	 0.00000000E+00
	 7.50000000E-03	 1.27000000E-02	 0.00000000E+00
	 5.00000000E-03	 1.27000000E-02	 0.00000000E+00
	 2.50000000E-03	 1.27000000E-02	 0.00000000E+00
	 4.50000000E-02	 1.27000000E-02	 1.01600000E-02
	 4.50000000E-02	 1.27000000E-02	 7.62000000E-03
	 4.50000000E-02	 1.27000000E-02	 5.08000000E-03
	 4.50000000E-02	 1.27000000E-02	 2.54000000E-03
	 4.50000000E-02	 1.01600000E-02	 0.00000000E+00
	 4.50000000E-02	 7.62000000E-03	 0.00000000E+00
	 4.50000000E-02	 5.08000000E-03	 0.00000000E+00
	 4.50000000E-02	 2.54000000E-03	 0.00000000E+00
	 2.50000000E-03	 0.00000000E+00	 0.00000000E+00
	 5.00000000E-03	 0.00000000E+00	 0.00000000E+00
	 7.50000000E-03	 0.00000000E+00	 0.00000000E+00
	 1.00000000E-02	 0.00000000E+00	 0.00000000E+00
	 1.25000000E-02	 0.00000000E+00	 0.00000000E+00
	 1.50000000E-02	 0.00000000E+00	 0.00000000E+00
	 1.75000000E-02	 0.00000000E+00	 0.00000000E+00
	 2.00000000E-02	 0.00000000E+00	 0.00000000E+00
	 2.25000000E-02	 0.00000000E+00	 0.00000000E+00
	 2.50000000E-02	 0.00000000E+00	 0.00000000E+00
	 2.75000000E-02	 0.00000000E+00	 0.00000000E+00
	 3.00000000E-02	 0.00000000E+00	 0.00000000E+00
	 3.25000000E-02	 0.00000000E+00	 0.00000000E+00
	 3.50000000E-02	 0.00000000E+00	 0.00000000E+00
	 3.75000000E-02	 0.00000000E+00	 0.00000000E+00
	 4.00000000E-02	 0.00000000E+00	 0.00000000E+00
	 4.25000000E-02	 0.00000000E+00	 0.00000000E+00
	 4.50000000E-02	 0.00000000E+00	 2.54000000E-03
	 4.50000000E-02	 0.00000000E+00	 5.08000000E-03
	 4.50000000E-02	 0.00000000E+00	 7.62000000E-03
	 4.50000000E-02	 0.00000000E+00	 1.01600000E-02
	 4.50000000E-02	 2.28600000E-02	 1.27000000E-02
	 4.50000000E-02	 2.03200000E-02	 1.27000000E-02
	 4.50000000E-02	 1.77800000E-02	 1.27000000E-02
	 4.50000000E-02	 1.52400000E-02	 1.27000000E-02
	 0.00000000E+00	 1.52400000E-02	 1.27000000E-02
	 0.00000000E+00	 1.77800000E-02	 1.27000000E-02
	 0.00000000E+00	 2.03200000E-02	 1.27000000E-02
	 0.00000000E+00	 2.28600000E-02	 1.27000000E-02
	 0.00000000E+00	 2.54000000E-02	 2.54000000E-03
	 0.00000000E+00	 2.54000000E-02	 5.08000000E-03
	 0.00000000E+00	 2.54000000E-02	 7.62000000E-03
	 0.00000000E+00	 2.54000000E-02	 1.01600000E-02
	 0.00000000E+00	 1.52400000E-02	 0.00000000E+00
	 0.00000000E+00	 1.77800000E-02	 0.00000000E+00
	 0.00000000E+00	 2.03200000E-02	 0.00000000E+00
	 0.00000000E+00	 2.28600000E-02	 0.00000000E+00
	 2.50000000E-03	 2.54000000E-02	 1.27000000E-02
	 5.00000000E-03	 2.54000000E-02	 1.27000000E-02
	 7.50000000E-03	 2.54000000E-02	 1.27000000E-02
	 1.00000000E-02	 2.54000000E-02	 1.27000000E-02
	 1.25000000E-02	 2.54000000E-02	 1.27000000E-02
	 1.50000000E-02	 2.54000000E-02	 1.27000000E-02
	 1.75000000E-02	 2.54000000E-02	 1.27000000E-02
	 2.00000000E-02	 2.54000000E-02	 1.27000000E-02
	 2.25000000E-02	 2.54000000E-02	 1.27000000E-02
	 2.50000000E-02	 2.54000000E-02	 1.27000000E-02
	 2.75000000E-02	 2.54000000E-02	 1.27000000E-02
	 3.00000000E-02	 2.54000000E-02	 1.27000000E-02
	 3.25000000E-02	 2.54000000E-02	 1.27000000E-02
	 3.50000000E-02	 2.54000000E-02	 1.27000000E-02
	 3.75000000E-02	 2.54000000E-02	 1.27000000E-02
	 4.00000000E-02	 2.54000000E-02	 1.27000000E-02
	 4.25000000E-02	 2.54000000E-02	 1.27000000E-02
	 2.50000000E-03	 2.54000000E-02	 0.00000000E+00
	 5.00000000E-03	 2.54000000E-02	 0.00000000E+00
	 7.50000000E-03	 2.54000000E-02	 0.00000000E+00
	 1.00000000E-02	 2.54000000E-02	 0.00000000E+00
	 1.25000000E-02	 2.54000000E-02	 0.00000000E+00
	 1.50000000E-02	 2.54000000E-02	 0.00000000E+00
	 1.75000000E-02	 2.54000000E-02	 0.00000000E+00
	 2.00000000E-02	 2.54000000E-02	 0.00000000E+00
	 2.25000000E-02	 2.54000000E-02	 0.00000000E+00
	 2.50000000E-02	 2.54000000E-02	 0.00000000E+00
	 2.75000000E-02	 2.54000000E-02	 0.00000000E+00
	 3.00000000E-02	 2.54000000E-02	 0.00000000E+00
	 3.25000000E-02	 2.54000000E-02	 0.00000000E+00
	 3.50000000E-02	 2.54000000E-02	 0.00000000E+00
	 3.75000000E-02	 2.54000000E-02	 0.00000000E+00
	 4.00000000E-02	 2.54000000E-02	 0.00000000E+00
	 4.25000000E-02	 2.54000000E-02	 0.00000000E+00
[...]
POINT_DATA 3432
FIELD U 1
	U 3 3432 double
		 0.00000000E+00	 0.00000000E+00	 0.00000000E+00
		 0.00000000E+00	 0.00000000E+00	 0.00000000E+00
		 0.00000000E+00	 0.00000000E+00	 0.00000000E+00
		 0.00000000E+00	 0.00000000E+00	 0.00000000E+00
		-5.56981000E-01	-5.25649000E-09	-2.09761000E+00
		-5.76135000E-01	-1.28415000E-01	-2.22221000E+00
		 5.56981000E-01	 5.25660000E-09	-2.09761000E+00
		 5.76135000E-01	 1.28415000E-01	-2.22221000E+00
		 0.00000000E+00	 0.00000000E+00	 0.00000000E+00
		 0.00000000E+00	 0.00000000E+00	 0.00000000E+00
		-5.76135000E-01	 1.28415000E-01	-2.22221000E+00
		 5.76135000E-01	-1.28415000E-01	-2.22221000E+00
		-7.62479000E-01	-9.07397000E-09	-1.37732000E+00
		-8.52335000E-01	-1.18651000E-04	-1.00350000E+00
		 7.62479000E-01	 9.07407000E-09	-1.37732000E+00
		 8.52335000E-01	 1.18651000E-04	-1.00350000E+00
		 8.52335000E-01	-1.18659000E-04	-1.00350000E+00
		-8.52335000E-01	 1.18659000E-04	-1.00350000E+00
		 9.11483000E-01	-1.99913000E-02	 1.29376000E-02
		-9.11483000E-01	 1.99913000E-02	 1.29376000E-02
		 9.15968000E-01	-1.43841000E-02	 1.23645000E-03
		-9.15968000E-01	 1.43841000E-02	 1.23645000E-03
		-8.07780000E-01	-9.27085000E-09	-7.71806000E-01
		-8.99480000E-01	 9.04204000E-03	-6.63731000E-03
		 8.07780000E-01	 9.27091000E-09	-7.71806000E-01
		 8.99480000E-01	-9.04204000E-03	-6.63731000E-03
		 9.11483000E-01	 1.99914000E-02	 1.29376000E-02
		-9.11483000E-01	-1.99914000E-02	 1.29376000E-02
		 9.15968000E-01	 1.43841000E-02	 1.23646000E-03
		-9.15968000E-01	-1.43841000E-02	 1.23646000E-03
		 8.99480000E-01	 9.04204000E-03	-6.63730000E-03
		-8.99480000E-01	-9.04204000E-03	-6.63730000E-03
		 4.33001000E-01	-1.61134000E-01	 2.06299000E+00
		-4.33001000E-01	 1.61134000E-01	 2.06299000E+00
		 7.83317000E-01	-1.33869000E-02	 9.64411000E-01
		-7.83317000E-01	 1.33869000E-02	 9.64411000E-01
		-7.17940000E-01	 6.43644000E-09	 7.57143000E-01
		-6.59117000E-01	 7.10310000E-09	 1.29860000E+00
		 7.17940000E-01	-6.43649000E-09	 7.57143000E-01
		 6.59117000E-01	-7.10318000E-09	 1.29860000E+00
		 4.33001000E-01	 1.61134000E-01	 2.06299000E+00
		-4.33001000E-01	-1.61134000E-01	 2.06299000E+00
		 7.83317000E-01	 1.33870000E-02	 9.64411000E-01
		-7.83317000E-01	-1.33870000E-02	 9.64411000E-01
		-1.31055000E+00	-2.20881000E-02	-3.30254000E+00
		 1.31055000E+00	 2.20881000E-02	-3.30254000E+00
		 4.10020000E-01	-1.49516000E-09	 1.90008000E+00
		-1.31750000E+00	-4.28120000E-11	-3.34290000E+00
		 1.31750000E+00	 4.28900000E-11	-3.34290000E+00
		-4.10020000E-01	 1.49507000E-09	 1.90008000E+00
		-1.31055000E+00	 2.20881000E-02	-3.30254000E+00
		 1.31055000E+00	-2.20881000E-02	-3.30254000E+00
		-5.59004000E-01	-2.07198000E-02	-2.10126000E+00
		-5.64298000E-01	-4.34465000E-02	-2.11283000E+00
		-5.70874000E-01	-6.94444000E-02	-2.13400000E+00
		-5.75315000E-01	-9.87536000E-02	-2.16761000E+00
		 0.00000000E+00	 0.00000000E+00	 0.00000000E+00
		 0.00000000E+00	 0.00000000E+00	 0.00000000E+00
		 0.00000000E+00	 0.00000000E+00	 0.00000000E+00
		 0.00000000E+00	 0.00000000E+00	 0.00000000E+00
		 0.00000000E+00	 0.00000000E+00	 0.00000000E+00
		 0.00000000E+00	 0.00000000E+00	 0.00000000E+00
		 0.00000000E+00	 0.00000000E+00	 0.00000000E+00
		 0.00000000E+00	 0.00000000E+00	 0.00000000E+00
		 0.00000000E+00	 0.00000000E+00	 0.00000000E+00
		 0.00000000E+00	 0.00000000E+00	 0.00000000E+00
		 0.00000000E+00	 0.00000000E+00	 0.00000000E+00
		 0.00000000E+00	 0.00000000E+00	 0.00000000E+00
		 0.00000000E+00	 0.00000000E+00	 0.00000000E+00
		 0.00000000E+00	 0.00000000E+00	 0.00000000E+00
		 0.00000000E+00	 0.00000000E+00	 0.00000000E+00
		 0.00000000E+00	 0.00000000E+00	 0.00000000E+00
		-4.46956000E-01	-5.00819000E-09	-2.31323000E+00
		-3.25838000E-01	-4.61175000E-09	-2.47745000E+00
		-1.98058000E-01	-4.34525000E-09	-2.58648000E+00
		-6.79418000E-02	-4.09085000E-09	-2.63826000E+00
		 6.02553000E-02	-3.83386000E-09	-2.63263000E+00
		 1.82358000E-01	-3.56871000E-09	-2.57117000E+00
		 2.94320000E-01	-3.29459000E-09	-2.45723000E+00
		 3.92287000E-01	-3.01123000E-09	-2.29579000E+00
		 4.72660000E-01	-2.71896000E-09	-2.09340000E+00
		 5.32166000E-01	-2.41890000E-09	-1.85801000E+00
		 5.67908000E-01	-2.11311000E-09	-1.59880000E+00
		 5.77423000E-01	-1.80461000E-09	-1.32601000E+00
		 5.58736000E-01	-1.49742000E-09	-1.05069000E+00
		 5.10458000E-01	-1.19619000E-09	-7.84503000E-01
		 4.31919000E-01	-9.05117000E-10	-5.39578000E-01
		 3.23469000E-01	-6.24428000E-10	-3.26728000E-01
		 1.83024000E-01	-3.42750000E-10	-1.58598000E-01
		 1.89034000E-01	 9.19347000E-02	-1.18611000E-01
		 3.24833000E-01	 9.75532000E-02	-2.71490000E-01
		 4.29712000E-01	 8.56345000E-02	-4.87415000E-01
		 5.06657000E-01	 6.16511000E-02	-7.45787000E-01
		 5.54536000E-01	 3.22953000E-02	-1.03229000E+00
		 5.73487000E-01	 6.72345000E-04	-1.33193000E+00
		 5.64522000E-01	-3.10678000E-02	-1.63078000E+00
		 5.29403000E-01	-6.14270000E-02	-1.91600000E+00
		 4.70485000E-01	-8.92618000E-02	-2.17593000E+00
		 3.90621000E-01	-1.13676000E-01	-2.40026000E+00
		 2.93076000E-01	-1.33961000E-01	-2.58016000E+00
		 1.81433000E-01	-1.49568000E-01	-2.70844000E+00
		 5.95140000E-02	-1.60086000E-01	-2.77962000E+00
		-6.87278000E-02	-1.65226000E-01	-2.79006000E+00
		-1.99335000E-01	-1.64834000E-01	-2.73795000E+00
		-3.28491000E-01	-1.58758000E-01	-2.62353000E+00
		-4.53155000E-01	-1.47792000E-01	-2.44851000E+00
		 4.46956000E-01	 5.00831000E-09	-2.31323000E+00
		 3.25838000E-01	 4.61186000E-09	-2.47745000E+00
		 1.98058000E-01	 4.34537000E-09	-2.58648000E+00
		 6.79418000E-02	 4.09096000E-09	-2.63826000E+00
		-6.02553000E-02	 3.83397000E-09	-2.63263000E+00
		-1.82358000E-01	 3.56881000E-09	-2.57117000E+00
		-2.94320000E-01	 3.29468000E-09	-2.45723000E+00
		-3.92287000E-01	 3.01131000E-09	-2.29579000E+00
		-4.72660000E-01	 2.71903000E-09	-2.09340000E+00
		-5.32166000E-01	 2.41897000E-09	-1.85801000E+00
		-5.67908000E-01	 2.11317000E-09	-1.59880000E+00
		-5.77423000E-01	 1.80466000E-09	-1.32601000E+00
		-5.58736000E-01	 1.49745000E-09	-1.05069000E+00
		-5.10458000E-01	 1.19622000E-09	-7.84503000E-01
		-4.31919000E-01	 9.05136000E-10	-5.39578000E-01
		-3.23469000E-01	 6.24439000E-10	-3.26728000E-01
		-1.83024000E-01	 3.42754000E-10	-1.58598000E-01
		-3.25232000E-01	-3.17600000E-09	-2.12324000E+00
		-1.06882000E-01	-1.03538000E-09	-2.13505000E+00
		 1.06882000E-01	 1.03549000E-09	-2.13505000E+00
		 3.25232000E-01	 3.17611000E-09	-2.12324000E+00
		 5.59004000E-01	 2.07198000E-02	-2.10126000E+00
		 5.64298000E-01	 4.34465000E-02	-2.11283000E+00
		 5.70874000E-01	 6.94444000E-02	-2.13400000E+00
		 5.75315000E-01	 9.87536000E-02	-2.16761000E+00
		-1.89034000E-01	-9.19347000E-02	-1.18611000E-01
		-3.24833000E-01	-9.75532000E-02	-2.71490000E-01
		-4.29712000E-01	-8.56345000E-02	-4.87415000E-01
		-5.06657000E-01	-6.16511000E-02	-7.45787000E-01
		-5.54536000E-01	-3.22953000E-02	-1.03229000E+00
		-5.73487000E-01	-6.72345000E-04	-1.33193000E+00
		-5.64522000E-01	 3.10678000E-02	-1.63078000E+00
		-5.29403000E-01	 6.14270000E-02	-1.91600000E+00
		-4.70485000E-01	 8.92618000E-02	-2.17593000E+00
		-3.90621000E-01	 1.13676000E-01	-2.40026000E+00
		-2.93076000E-01	 1.33961000E-01	-2.58016000E+00
		-1.81433000E-01	 1.49568000E-01	-2.70844000E+00
		-5.95140000E-02	 1.60086000E-01	-2.77962000E+00
		 6.87278000E-02	 1.65226000E-01	-2.79006000E+00
		 1.99335000E-01	 1.64834000E-01	-2.73795000E+00
		 3.28491000E-01	 1.58758000E-01	-2.62353000E+00
		 4.53155000E-01	 1.47792000E-01	-2.44851000E+00
		 3.26756000E-01	 7.64751000E-02	-2.24566000E+00
		 1.06430000E-01	 2.54356000E-02	-2.25615000E+00
		-1.06430000E-01	-2.54356000E-02	-2.25615000E+00
		-3.26756000E-01	-7.64751000E-02	-2.24566000E+00
		-5.75315000E-01	 9.87535000E-02	-2.16761000E+00
		-5.70874000E-01	 6.94444000E-02	-2.13400000E+00
		-5.64298000E-01	 4.34464000E-02	-2.11283000E+00
		-5.59004000E-01	 2.07198000E-02	-2.10126000E+00
		 0.00000000E+00	 0.00000000E+00	 0.00000000E+00
		 0.00000000E+00	 0.00000000E+00	 0.00000000E+00
		 0.00000000E+00	 0.00000000E+00	 0.00000000E+00
		 0.00000000E+00	 0.00000000E+00	 0.00000000E+00
		 0.00000000E+00	 0.00000000E+00	 0.00000000E+00
		 0.00000000E+00	 0.00000000E+00	 0.00000000E+00
		 0.00000000E+00	 0.00000000E+00	 0.00000000E+00
		 0.00000000E+00	 0.00000000E+00	 0.00000000E+00
		 0.00000000E+00	 0.00000000E+00	 0.00000000E+00
		 0.00000000E+00	 0.00000000E+00	 0.00000000E+00
		 0.00000000E+00	 0.00000000E+00	 0.00000000E+00
		 0.00000000E+00	 0.00000000E+00	 0.00000000E+00
		 1.89034000E-01	-9.19347000E-02	-1.18611000E-01
		 3.24833000E-01	-9.75532000E-02	-2.71490000E-01
		 4.29712000E-01	-8.56345000E-02	-4.87415000E-01
		 5.06657000E-01	-6.16511000E-02	-7.45787000E-01
		 5.54536000E-01	-3.22953000E-02	-1.03229000E+00
		 5.73487000E-01	-6.72348000E-04	-1.33193000E+00
		 5.64522000E-01	 3.10678000E-02	-1.63078000E+00
		 5.29403000E-01	 6.14270000E-02	-1.91600000E+00
		 4.70485000E-01	 8.92618000E-02	-2.17593000E+00
		 3.90621000E-01	 1.13676000E-01	-2.40026000E+00
		 2.93076000E-01	 1.33961000E-01	-2.58016000E+00
		 1.81433000E-01	 1.49568000E-01	-2.70844000E+00
		 5.95140000E-02	 1.60086000E-01	-2.77962000E+00
		-6.87278000E-02	 1.65226000E-01	-2.79006000E+00
		-1.99335000E-01	 1.64834000E-01	-2.73795000E+00
		-3.28491000E-01	 1.58758000E-01	-2.62353000E+00
		-4.53155000E-01	 1.47792000E-01	-2.44851000E+00
		-1.89034000E-01	 9.19347000E-02	-1.18611000E-01
		-3.24833000E-01	 9.75532000E-02	-2.71490000E-01
		-4.29712000E-01	 8.56345000E-02	-4.87415000E-01
		-5.06657000E-01	 6.16511000E-02	-7.45787000E-01
		-5.54536000E-01	 3.22953000E-02	-1.03229000E+00
		-5.73487000E-01	 6.72348000E-04	-1.33193000E+00
		-5.64522000E-01	-3.10678000E-02	-1.63078000E+00
		-5.29403000E-01	-6.14270000E-02	-1.91600000E+00
		-4.70485000E-01	-8.92618000E-02	-2.17593000E+00
		-3.90621000E-01	-1.13676000E-01	-2.40026000E+00
		-2.93076000E-01	-1.33961000E-01	-2.58016000E+00
		-1.81433000E-01	-1.49568000E-01	-2.70844000E+00
		-5.95140000E-02	-1.60086000E-01	-2.77962000E+00
		 6.87278000E-02	-1.65226000E-01	-2.79006000E+00
		 1.99335000E-01	-1.64834000E-01	-2.73795000E+00
		 3.28491000E-01	-1.58758000E-01	-2.62353000E+00
		 4.53155000E-01	-1.47792000E-01	-2.44851000E+00
		 3.26756000E-01	-7.64751000E-02	-2.24566000E+00
		 1.06430000E-01	-2.54356000E-02	-2.25615000E+00
		-1.06430000E-01	 2.54356000E-02	-2.25615000E+00
		-3.26756000E-01	 7.64751000E-02	-2.24566000E+00
		 5.75315000E-01	-9.87535000E-02	-2.16761000E+00
		 5.70874000E-01	-6.94444000E-02	-2.13400000E+00
		 5.64298000E-01	-4.34464000E-02	-2.11283000E+00
		 5.59004000E-01	-2.07198000E-02	-2.10126000E+00
		-9.17992000E-01	 1.60922000E-02	 4.51040000E-03
		-9.17307000E-01	 1.79974000E-02	 8.38398000E-03
		-7.07896000E-01	-7.07210000E-09	-1.64111000E+00
		-6.38862000E-01	-5.72283000E-09	-1.88324000E+00
		-8.25730000E-01	 4.28672000E-04	-1.13720000E+00
		-8.00495000E-01	 3.15671000E-04	-1.24323000E+00
		-7.79656000E-01	 1.33581000E-03	-1.31701000E+00
		-7.65873000E-01	-7.19036000E-05	-1.36243000E+00
		-6.97965000E-01	-7.74949000E-02	-1.83531000E+00
		-7.90170000E-01	-3.40303000E-02	-1.42985000E+00
		 7.07896000E-01	 7.07220000E-09	-1.64111000E+00
		 6.38862000E-01	 5.72294000E-09	-1.88324000E+00
		-4.43954000E-01	-4.35205000E-09	-1.39285000E+00
		-1.45586000E-01	-1.26356000E-09	-1.39951000E+00
		 1.45586000E-01	 1.26365000E-09	-1.39951000E+00
		 4.43954000E-01	 4.35215000E-09	-1.39285000E+00
		 4.92403000E-01	 4.31868000E-03	-1.01457000E+00
		 1.60806000E-01	 2.02341000E-03	-1.01941000E+00
		-1.60806000E-01	-2.02341000E-03	-1.01941000E+00
		-4.92403000E-01	-4.31868000E-03	-1.01457000E+00
		 8.25730000E-01	-4.28672000E-04	-1.13720000E+00
		 8.00495000E-01	-3.15671000E-04	-1.24323000E+00
		 7.79656000E-01	-1.33581000E-03	-1.31701000E+00
		 7.65873000E-01	 7.19036000E-05	-1.36243000E+00
		 6.97965000E-01	 7.74949000E-02	-1.83531000E+00
		 7.90170000E-01	 3.40303000E-02	-1.42985000E+00
		 6.97965000E-01	-7.74949000E-02	-1.83531000E+00
		 7.90170000E-01	-3.40303000E-02	-1.42985000E+00
		 7.65873000E-01	-7.18868000E-05	-1.36243000E+00
		 7.79656000E-01	 1.33582000E-03	-1.31701000E+00
		 8.00495000E-01	 3.15683000E-04	-1.24323000E+00
		 8.25730000E-01	 4.28689000E-04	-1.13720000E+00
		-7.65873000E-01	 7.18868000E-05	-1.36243000E+00
		-7.79656000E-01	-1.33582000E-03	-1.31701000E+00
		-8.00495000E-01	-3.15683000E-04	-1.24323000E+00
		-8.25730000E-01	-4.28689000E-04	-1.13720000E+00
		 4.92403000E-01	-4.31868000E-03	-1.01457000E+00
		 1.60806000E-01	-2.02341000E-03	-1.01941000E+00
		-1.60806000E-01	 2.02341000E-03	-1.01941000E+00
		-4.92403000E-01	 4.31868000E-03	-1.01457000E+00
		-6.97965000E-01	 7.74949000E-02	-1.83531000E+00
		-7.90170000E-01	 3.40303000E-02	-1.42985000E+00
		-9.15057000E-01	 5.99317000E-03	-3.75507000E-01
		-8.90854000E-01	 6.94767000E-04	-7.19677000E-01
		 7.57864000E-01	 8.17747000E-02	-1.59452000E+00
		 8.79670000E-01	 3.06200000E-02	-8.34079000E-01
		 5.16896000E-01	-1.19881000E-02	 1.58558000E-02
		 1.67756000E-01	-4.02902000E-03	 1.73085000E-02
		-1.67756000E-01	 4.02902000E-03	 1.73085000E-02
		-5.16896000E-01	 1.19881000E-02	 1.58558000E-02
		-7.57864000E-01	-8.17747000E-02	-1.59452000E+00
		-8.79670000E-01	-3.06200000E-02	-8.34079000E-01
		 9.15057000E-01	-5.99317000E-03	-3.75507000E-01
		 8.90854000E-01	-6.94767000E-04	-7.19677000E-01
		 9.17992000E-01	-1.60922000E-02	 4.51040000E-03
		 9.17307000E-01	-1.79974000E-02	 8.38398000E-03
		-5.22701000E-01	 9.05288000E-03	 4.61404000E-03
		-1.69714000E-01	 3.09430000E-03	 6.32288000E-03
		 1.69714000E-01	-3.09430000E-03	 6.32288000E-03
		 5.22701000E-01	-9.05288000E-03	 4.61404000E-03
		-7.95237000E-01	-1.17610000E-08	-1.07598000E+00
		-9.01917000E-01	 1.37897000E-02	-2.01748000E-01
		-8.88976000E-01	 1.71844000E-02	-3.84736000E-01
		-8.65267000E-01	 1.83940000E-02	-5.43392000E-01
		-8.38065000E-01	 1.59823000E-02	-6.66674000E-01
		-8.16102000E-01	 9.25867000E-03	-7.44890000E-01
		-9.10772000E-01	 1.22898000E-02	-2.75948000E-03
		 7.95237000E-01	 1.17611000E-08	-1.07598000E+00
		 4.72641000E-01	 1.05677000E-09	-7.82028000E-01
		 1.54763000E-01	 6.75959000E-10	-7.88800000E-01
		-1.54763000E-01	-6.75895000E-10	-7.88800000E-01
		-4.72641000E-01	-1.05670000E-09	-7.82028000E-01
		 5.07193000E-01	-5.88777000E-03	-1.13808000E-03
		 1.65320000E-01	-2.11884000E-03	 1.21790000E-03
		-1.65320000E-01	 2.11884000E-03	 1.21790000E-03
		-5.07193000E-01	 5.88777000E-03	-1.13808000E-03
		 8.16102000E-01	-9.25867000E-03	-7.44890000E-01
		 8.38065000E-01	-1.59823000E-02	-6.66674000E-01
		 8.65267000E-01	-1.83940000E-02	-5.43392000E-01
		 8.88976000E-01	-1.71844000E-02	-3.84736000E-01
		 9.01917000E-01	-1.37897000E-02	-2.01748000E-01
		 9.10772000E-01	-1.22898000E-02	-2.75948000E-03
		-8.90854000E-01	-6.94756000E-04	-7.19677000E-01
		-9.15057000E-01	-5.99316000E-03	-3.75507000E-01
		 7.57864000E-01	-8.17747000E-02	-1.59452000E+00
		 8.79670000E-01	-3.06200000E-02	-8.34079000E-01
		 5.16896000E-01	 1.19881000E-02	 1.58558000E-02
		 1.67756000E-01	 4.02902000E-03	 1.73085000E-02
		-1.67756000E-01	-4.02902000E-03	 1.73085000E-02
		-5.16896000E-01	-1.19881000E-02	 1.58558000E-02
		-7.57864000E-01	 8.17747000E-02	-1.59452000E+00
		-8.79670000E-01	 3.06200000E-02	-8.34079000E-01
		 9.17307000E-01	 1.79975000E-02	 8.38398000E-03
		 9.17992000E-01	 1.60922000E-02	 4.51040000E-03
		 8.90854000E-01	 6.94756000E-04	-7.19677000E-01
		 9.15057000E-01	 5.99316000E-03	-3.75507000E-01
		-9.17307000E-01	-1.79975000E-02	 8.38398000E-03
		-9.17992000E-01	-1.60922000E-02	 4.51040000E-03
		-5.22701000E-01	-9.05288000E-03	 4.61405000E-03
		-1.69714000E-01	-3.09430000E-03	 6.32288000E-03
		 1.69714000E-01	 3.09430000E-03	 6.32288000E-03
		 5.22701000E-01	 9.05288000E-03	 4.61405000E-03
		 9.10772000E-01	 1.22898000E-02	-2.75948000E-03
		-8.16102000E-01	-9.25868000E-03	-7.44890000E-01
		-8.38065000E-01	-1.59823000E-02	-6.66674000E-01
		-8.65267000E-01	-1.83940000E-02	-5.43392000E-01
		-8.88976000E-01	-1.71844000E-02	-3.84736000E-01
		-9.01917000E-01	-1.37897000E-02	-2.01748000E-01
		 9.01917000E-01	 1.37897000E-02	-2.01748000E-01
		 8.88976000E-01	 1.71844000E-02	-3.84736000E-01
		 8.65267000E-01	 1.83940000E-02	-5.43392000E-01
		 8.38065000E-01	 1.59823000E-02	-6.66674000E-01
		 8.16102000E-01	 9.25868000E-03	-7.44890000E-01
		-9.10772000E-01	-1.22898000E-02	-2.75948000E-03
		 5.07193000E-01	 5.88777000E-03	-1.13807000E-03
		 1.65320000E-01	 2.11884000E-03	 1.21791000E-03
		-1.65320000E-01	-2.11884000E-03	 1.21791000E-03
		-5.07193000E-01	-5.88777000E-03	-1.13807000E-03
		-8.43330000E-01	 1.94403000E-02	 7.00897000E-01
		-8.90966000E-01	 2.01050000E-02	 3.72121000E-01
		 8.28294000E-01	-6.61733000E-02	 8.34681000E-01
		 6.58242000E-01	-1.13705000E-01	 1.52941000E+00
		 2.39920000E-01	-9.57443000E-02	 2.09139000E+00
		 7.73910000E-02	-3.17965000E-02	 2.10436000E+00
		-7.73910000E-02	 3.17965000E-02	 2.10436000E+00
		-2.39920000E-01	 9.57443000E-02	 2.09139000E+00
		-8.28294000E-01	 6.61733000E-02	 8.34681000E-01
		-6.58242000E-01	 1.13705000E-01	 1.52941000E+00
		 8.43330000E-01	-1.94403000E-02	 7.00897000E-01
		 8.90966000E-01	-2.01050000E-02	 3.72121000E-01
		 5.80202000E-01	-1.03585000E-01	 1.72331000E+00
		 6.96856000E-01	-5.39005000E-02	 1.35870000E+00
		-5.80202000E-01	 1.03585000E-01	 1.72331000E+00
		-6.96856000E-01	 5.39005000E-02	 1.35870000E+00
		 4.51026000E-01	-1.25266000E-02	 9.80331000E-01
		 1.46968000E-01	-4.80474000E-03	 9.87642000E-01
		-1.46968000E-01	 4.80474000E-03	 9.87642000E-01
		-4.51026000E-01	 1.25266000E-02	 9.80331000E-01
		-7.29863000E-01	-6.66811000E-03	 7.30311000E-01
		-7.62021000E-01	-1.03058000E-02	 6.52410000E-01
		-8.04504000E-01	-8.88973000E-03	 5.29478000E-01
		-8.46863000E-01	-3.56963000E-03	 3.71189000E-01
		-8.80483000E-01	 3.07067000E-03	 1.88404000E-01
		-7.00625000E-01	 1.06902000E-08	 1.03006000E+00
		-4.12476000E-01	 2.73595000E-02	 1.90531000E+00
		-4.18829000E-01	 5.68043000E-02	 1.92154000E+00
		-4.26581000E-01	 8.95222000E-02	 1.95033000E+00
		-4.31801000E-01	 1.25420000E-01	 1.99433000E+00
		-6.63693000E-01	 1.98387000E-03	 1.28560000E+00
		-6.82311000E-01	 2.32365000E-03	 1.24557000E+00
		-7.10196000E-01	 6.06081000E-03	 1.18081000E+00
		-7.45430000E-01	 8.97619000E-03	 1.08543000E+00
		 4.17572000E-01	 1.87418000E-09	 7.67623000E-01
		 1.36099000E-01	 1.77152000E-10	 7.75028000E-01
		-1.36099000E-01	-1.77203000E-10	 7.75028000E-01
		-4.17572000E-01	-1.87424000E-09	 7.67623000E-01
		 8.80483000E-01	-3.07067000E-03	 1.88404000E-01
		 8.46863000E-01	 3.56963000E-03	 3.71189000E-01
		 8.04504000E-01	 8.88973000E-03	 5.29478000E-01
		 7.62021000E-01	 1.03058000E-02	 6.52410000E-01
		 7.29863000E-01	 6.66811000E-03	 7.30311000E-01
		 3.80815000E-01	-3.17571000E-09	 1.31726000E+00
		 1.24338000E-01	-8.61872000E-10	 1.32543000E+00
		-1.24338000E-01	 8.61792000E-10	 1.32543000E+00
		-3.80815000E-01	 3.17563000E-09	 1.31726000E+00
		 7.00625000E-01	-1.06903000E-08	 1.03006000E+00
		 6.63693000E-01	-1.98387000E-03	 1.28560000E+00
		 6.82311000E-01	-2.32365000E-03	 1.24557000E+00
		 7.10196000E-01	-6.06081000E-03	 1.18081000E+00
		 7.45430000E-01	-8.97619000E-03	 1.08543000E+00
		-8.90966000E-01	-2.01050000E-02	 3.72121000E-01
		-8.43330000E-01	-1.94404000E-02	 7.00897000E-01
		 8.28294000E-01	 6.61733000E-02	 8.34681000E-01
		 6.58242000E-01	 1.13705000E-01	 1.52941000E+00
		 2.39920000E-01	 9.57443000E-02	 2.09139000E+00
		 7.73910000E-02	 3.17965000E-02	 2.10436000E+00
		-7.73910000E-02	-3.17965000E-02	 2.10436000E+00
		-2.39920000E-01	-9.57443000E-02	 2.09139000E+00
		-8.28294000E-01	-6.61733000E-02	 8.34681000E-01
		-6.58242000E-01	-1.13705000E-01	 1.52941000E+00
		 5.80202000E-01	 1.03585000E-01	 1.72331000E+00
		 6.96856000E-01	 5.39006000E-02	 1.35870000E+00
		 8.90966000E-01	 2.01050000E-02	 3.72121000E-01
		 8.43330000E-01	 1.94404000E-02	 7.00897000E-01
		-5.80202000E-01	-1.03585000E-01	 1.72331000E+00
		-6.96856000E-01	-5.39006000E-02	 1.35870000E+00
		 4.51026000E-01	 1.25266000E-02	 9.80331000E-01
		 1.46968000E-01	 4.80475000E-03	 9.87642000E-01
		-1.46968000E-01	-4.80475000E-03	 9.87642000E-01