<?xml version="1.0"?>
<VTKFile type="UnstructuredGrid" version="0.1" byte_order="LittleEndian">
	<UnstructuredGrid>
		<Piece NumberOfPoints="3432" NumberOfCells="2560">
			<Points>
				<DataArray type="Float64" NumberOfComponents="3" format="ascii">
					 0.00000000E+00	 0.00000000E+00	 1.27000000E-02
					 0.00000000E+00	 1.27000000E-02	 1.27000000E-02
					 0.00000000E+00	 1.27000000E-02	 0.00000000E+00
					 0.00000000E+00	 0.00000000E+00	 0.00000000E+00
					 4.50000000E-02	 1.27000000E-02	 1.27000000E-02
					 4.50000000E-02	 0.00000000E+00	 1.27000000E-02
					 4.50000000E-02	 1.27000000E-02	 0.00000000E+00
					 4.50000000E-02	 0.00000000E+00	 0.00000000E+00
					 0.00000000E+00	 2.54000000E-02	 1.27000000E-02
					 0.00000000E+00	 2.54000000E-02	 0.00000000E+00
					 4.50000000E-02	 2.54000000E-02	 1.27000000E-02
					 4.50000000E-02	 2.54000000E-02	 0.00000000E+00
					 5.12690000E-02	 1.27000000E-02	 1.27000000E-02
					 5.38263000E-02	 6.52625000E-03	 1.27000000E-02
					 5.12690000E-02	 1.27000000E-02	 0.00000000E+00
					 5.38263000E-02	 6.52625000E-03	 0.00000000E+00
					 5.38263000E-02	 1.88737000E-02	 0.00000000E+00
					 5.38263000E-02	 1.88737000E-02	 1.27000000E-02
					 6.00000000E-02	 0.00000000E+00	 0.00000000E+00
					 6.00000000E-02	 0.00000000E+00	 1.27000000E-02
					 6.00000000E-02	 3.96900000E-03	 0.00000000E+00
					 6.00000000E-02	 3.96900000E-03	 1.27000000E-02
					 5.57840000E-02	 1.27000000E-02	 1.27000000E-02
					 6.00000000E-02	 8.48400000E-03	 1.27000000E-02
					 5.57840000E-02	 1.27000000E-02	 0.00000000E+00
					 6.00000000E-02	 8.48400000E-03	 0.00000000E+00
					 6.00000000E-02	 2.54000000E-02	 0.00000000E+00
					 6.00000000E-02	 2.54000000E-02	 1.27000000E-02
					 6.00000000E-02	 2.14310000E-02	 0.00000000E+00
					 6.00000000E-02	 2.14310000E-02	 1.27000000E-02
					 6.00000000E-02	 1.69160000E-02	 0.00000000E+00
					 6.00000000E-02	 1.69160000E-02	 1.27000000E-02
					 7.50000000E-02	 0.00000000E+00	 0.00000000E+00
					 7.50000000E-02	 0.00000000E+00	 1.27000000E-02
					 6.61737000E-02	 6.52625000E-03	 0.00000000E+00
					 6.61737000E-02	 6.52625000E-03	 1.27000000E-02
					 6.42160000E-02	 1.27000000E-02	 1.27000000E-02
					 6.87310000E-02	 1.27000000E-02	 1.27000000E-02
					 6.42160000E-02	 1.27000000E-02	 0.00000000E+00
					 6.87310000E-02	 1.27000000E-02	 0.00000000E+00
					 7.50000000E-02	 2.54000000E-02	 0.00000000E+00
					 7.50000000E-02	 2.54000000E-02	 1.27000000E-02
					 6.61737000E-02	 1.88737000E-02	 0.00000000E+00
					 6.61737000E-02	 1.88737000E-02	 1.27000000E-02
					 1.20000000E-01	 0.00000000E+00	 0.00000000E+00
					 1.20000000E-01	 0.00000000E+00	 1.27000000E-02
					 7.50000000E-02	 1.27000000E-02	 0.00000000E+00
					 1.20000000E-01	 1.27000000E-02	 0.00000000E+00
					 1.20000000E-01	 1.27000000E-02	 1.27000000E-02
					 7.50000000E-02	 1.27000000E-02	 1.27000000E-02
					 1.20000000E-01	 2.54000000E-02	 0.00000000E+00
					 1.20000000E-01	 2.54000000E-02	 1.27000000E-02
					 4.50000000E-02	 1.01600000E-02	 1.27000000E-02
					 4.50000000E-02	 7.62000000E-03	 1.27000000E-02
					 4.50000000E-02	 5.08000000E-03	 1.27000000E-02
					 4.50000000E-02	 2.54000000E-03	 1.27000000E-02
					 0.00000000E+00	 2.54000000E-03	 1.27000000E-02
					 0.00000000E+00	 5.08000000E-03	 1.27000000E-02
					 0.00000000E+00	 7.62000000E-03	 1.27000000E-02
					 0.00000000E+00	 1.01600000E-02	 1.27000000E-02
					 0.00000000E+00	 1.27000000E-02	 2.54000000E-03
					 0.00000000E+00	 1.27000000E-02	 5.08000000E-03
					 0.00000000E+00	 1.27000000E-02	 7.62000000E-03
					 0.00000000E+00	 1.27000000E-02	 1.01600000E-02
					 0.00000000E+00	 2.54000000E-03	 0.00000000E+00
					 0.00000000E+00	 5.08000000E-03	 0.00000000E+00
					 0.00000000E+00	 7.62000000E-03	 0.00000000E+00
					 0.00000000E+00	 1.01600000E-02	 0.00000000E+00
					 0.00000000E+00	 0.00000000E+00	 2.54000000E-03
					 0.00000000E+00	 0.00000000E+00	 5.08000000E-03
					 0.00000000E+00	 0.00000000E+00	 7.62000000E-03
					 0.00000000E+00	 0.00000000E+00	 1.01600000E-02
					 4.25000000E-02	 1.27000000E-02	 1.27000000E-02
					 4.00000000E-02	 1.27000000E-02	 1.27000000E-02
					 3.75000000E-02	 1.27000000E-02	 1.27000000E-02
					 3.50000000E-02	 1.27000000E-02	 1.27000000E-02
					 3.25000000E-02	 1.27000000E-02	 1.27000000E-02
					 3.00000000E-02	 1.27000000E-02	 1.27000000E-02
					 2.75000000E-02	 1.27000000E-02	 1.27000000E-02
					 2.50000000E-02	 1.27000000E-02	 1.27000000E-02
					 2.25000000E-02	 1.27000000E-02	 1.27000000E-02
					 2.00000000E-02	 1.27000000E-02	 1.27000000E-02
					 1.75000000E-02	 1.27000000E-02	 1.27000000E-02
					 1.50000000E-02	 1.27000000E-02	 1.27000000E-02
					 1.25000000E-02	 1.27000000E-02	 1.27000000E-02
					 1.00000000E-02	 1.27000000E-02	 1.27000000E-02
					 7.50000000E-03	 1.27000000E-02	 1.27000000E-02
					 5.00000000E-03	 1.27000000E-02	 1.27000000E-02
					 2.50000000E-03	 1.27000000E-02	 1.27000000E-02
					 2.50000000E-03	 0.00000000E+00	 1.27000000E-02
					 5.00000000E-03	 0.00000000E+00	 1.27000000E-02
					 7.50000000E-03	 0.00000000E+00	 1.27000000E-02
					 1.00000000E-02	 0.00000000E+00	 1.27000000E-02
					 1.25000000E-02	 0.00000000E+00	 1.27000000E-02
					 1.50000000E-02	 0.00000000E+00	 1.27000000E-02
					 1.75000000E-02	 0.00000000E+00	 1.27000000E-02
					 2.00000000E-02	 0.00000000E+00	 1.27000000E-02
					 2.25000000E-02	 0.00000000E+00	 1.27000000E-02
					 2.50000000E-02	 0.00000000E+00	 1.27000000E-02
					 2.75000000E-02	 0.00000000E+00	 1.27000000E-02
					 3.00000000E-02	 0.00000000E+00	 1.27000000E-02
					 3.25000000E-02	 0.00000000E+00	 1.27000000E-02
					 3.50000000E-02	 0.00000000E+00	 1.27000000E-02
					 3.75000000E-02	 0.00000000E+00	 1.27000000E-02
					 4.00000000E-02	 0.00000000E+00	 1.27000000E-02
					 4.25000000E-02	 0.00000000E+00	 1.27000000E-02
					 4.25000000E-02	 1.27000000E-02	 0.00000000E+00
					 4.00000000E-02	 1.27000000E-02	 0.00000000E+00
					 3.75000000E-02	 1.27000000E-02	 0.00000000E+00
					 3.50000000E-02	 1.27000000E-02	 0.00000000E+00
					 3.25000000E-02	 1.27000000E-02	 0.00000000E+00
					 3.00000000E-02	 1.27000000E-02	 0.00000000E+00
					 2.75000000E-02	 1.27000000E-02	 0.00000000E+00
					 2.50000000E-02	 1.27000000E-02	 0.00000000E+00
					 2.25000000E-02	 1.27000000E-02	 0.00000000E+00
					 2.00000000E-02	 1.27000000E-02	 0.00000000E+00
					 1.75000000E-02	 1.27000000E-02	 0.00000000E+00
					 1.50000000E-02	 1.27000000E-02	 0.00000000E+00
					 1.25000000E-02	 1.27000000E-02	 0.00000000E+00
					 1.00000000E-02	 1.27000000E-02	 0.00000000E+00
					 7.50000000E-03	 1.27000000E-02	 0.00000000E+00
					 5.00000000E-03	 1.27000000E-02	 0.00000000E+00
					 2.50000000E-03	 1.27000000E-02	 0.00000000E+00
					 4.50000000E-02	 1.27000000E-02	 1.01600000E-02
					 4.50000000E-02	 1.27000000E-02	 7.62000000E-03
					 4.50000000E-02	 1.27000000E-02	 5.08000000E-03
					 4.50000000E-02	 1.27000000E-02	 2.54000000E-03
					 4.50000000E-02	 1.01600000E-02	 0.00000000E+00
					 4.50000000E-02	 7.62000000E-03	 0.00000000E+00
					 4.50000000E-02	 5.08000000E-03	 0.00000000E+00
					 4.50000000E-02	 2.54000000E-03	 0.00000000E+00
					 2.50000000E-03	 0.00000000E+00	 0.00000000E+00
					 5.00000000E-03	 0.00000000E+00	 0.00000000E+00
					 7.50000000E-03	 0.00000000E+00	 0.00000000E+00
					 1.00000000E-02	 0.00000000E+00	 0.00000000E+00
					 1.25000000E-02	 0.00000000E+00	 0.00000000E+00
					 1.50000000E-02	 0.00000000E+00	 0.00000000E+00
					 1.75000000E-02	 0.00000000E+00	 0.00000000E+00
					 2.00000000E-02	 0.00000000E+00	 0.00000000E+00
					 2.25000000E-02	 0.00000000E+00	 0.00000000E+00
					 2.50000000E-02	 0.00000000E+00	 0.00000000E+00
					 2.75000000E-02	 0.00000000E+00	 0.00000000E+00
					 3.00000000E-02	 0.00000000E+00	 0.00000000E+00
					 3.25000000E-02	 0.00000000E+00	 0.00000000E+00
					 3.50000000E-02	 0.00000000E+00	 0.00000000E+00
					 3.75000000E-02	 0.00000000E+00	 0.00000000E+00
					 4.00000000E-02	 0.00000000E+00	 0.00000000E+00
					 4.25000000E-02	 0.00000000E+00	 0.00000000E+00
					 4.50000000E-02	 0.00000000E+00	 2.54000000E-03
					 4.50000000E-02	 0.00000000E+00	 5.08000000E-03
					 4.50000000E-02	 0.00000000E+00	 7.62000000E-03
					 4.50000000E-02	 0.00000000E+00	 1.01600000E-02
					 4.50000000E-02	 2.28600000E-02	 1.27000000E-02
					 4.50000000E-02	 2.03200000E-02	 1.27000000E-02
					 4.50000000E-02	 1.77800000E-02	 1.27000000E-02
					 4.50000000E-02	 1.52400000E-02	 1.27000000E-02
					 0.00000000E+00	 1.52400000E-02	 1.27000000E-02
					 0.00000000E+00	 1.77800000E-02	 1.27000000E-02
					 0.00000000E+00	 2.03200000E-02	 1.27000000E-02
					 0.00000000E+00	 2.28600000E-02	 1.27000000E-02
					 0.00000000E+00	 2.54000000E-02	 2.54000000E-03
					 0.00000000E+00	 2.54000000E-02	 5.08000000E-03
					 0.00000000E+00	 2.54000000E-02	 7.62000000E-03
					 0.00000000E+00	 2.54000000E-02	 1.01600000E-02
					 0.00000000E+00	 1.52400000E-02	 0.00000000E+00
					 0.00000000E+00	 1.77800000E-02	 0.00000000E+00
					 0.00000000E+00	 2.03200000E-02	 0.00000000E+00
					 0.00000000E+00	 2.28600000E-02	 0.00000000E+00
					 2.50000000E-03	 2.54000000E-02	 1.27000000E-02
					 5.00000000E-03	 2.54000000E-02	 1.27000000E-02
					 7.50000000E-03	 2.54000000E-02	 1.27000000E-02
					 1.00000000E-02	 2.54000000E-02	 1.27000000E-02
					 1.25000000E-02	 2.54000000E-02	 1.27000000E-02
					 1.50000000E-02	 2.54000000E-02	 1.27000000E-02
					 1.75000000E-02	 2.54000000E-02	 1.27000000E-02
					 2.00000000E-02	 2.54000000E-02	 1.27000000E-02
					 2.25000000E-02	 2.54000000E-02	 1.27000000E-02
					 2.50000000E-02	 2.54000000E-02	 1.27000000E-02
					 2.75000000E-02	 2.54000000E-02	 1.27000000E-02
					 3.00000000E-02	 2.54000000E-02	 1.27000000E-02
					 3.25000000E-02	 2.54000000E-02	 1.27000000E-02
					 3.50000000E-02	 2.54000000E-02	 1.27000000E-02
					 3.75000000E-02	 2.54000000E-02	 1.27000000E-02
[...]
			<PointData>
				<DataArray type="Float32" Name="U" NumberOfComponents="3" ComponentName0="D1" ComponentName1="D2" ComponentName2="D3" format="ascii">
					 0.00000000E+00	 0.00000000E+00	 0.00000000E+00
					 0.00000000E+00	 0.00000000E+00	 0.00000000E+00
					 0.00000000E+00	 0.00000000E+00	 0.00000000E+00
					 0.00000000E+00	 0.00000000E+00	 0.00000000E+00
					 4.21856000E-09	-2.01699000E+00	-3.16932000E-09
					-7.98125000E-02	-2.07713000E+00	-4.15084000E+00
					-4.21852000E-09	 2.01699000E+00	-3.16932000E-09
					 7.98125000E-02	 2.07713000E+00	-4.15084000E+00
					 0.00000000E+00	 0.00000000E+00	 0.00000000E+00
					 0.00000000E+00	 0.00000000E+00	 0.00000000E+00
					 7.98125000E-02	-2.07713000E+00	 4.15084000E+00
					-7.98125000E-02	 2.07713000E+00	 4.15084000E+00
					 1.78937000E-08	-1.88914000E+00	-2.99218000E-09
					-2.58180000E-01	-1.82833000E+00	-1.78231000E+00
					-1.78936000E-08	 1.88914000E+00	-2.99219000E-09
					 2.58180000E-01	 1.82833000E+00	-1.78231000E+00
					-2.58180000E-01	 1.82833000E+00	 1.78231000E+00
					 2.58180000E-01	-1.82833000E+00	 1.78231000E+00
					 3.42727000E-01	 1.47240000E+00	-2.98270000E+00
					-3.42727000E-01	-1.47240000E+00	-2.98270000E+00
					 4.01780000E-01	 1.44853000E+00	-2.05822000E+00
					-4.01780000E-01	-1.44853000E+00	-2.05822000E+00
					 3.60883000E-08	-1.84335000E+00	-1.46807000E-08
					-3.97248000E-01	-1.42930000E+00	-1.02571000E+00
					-3.60883000E-08	 1.84335000E+00	-1.46807000E-08
					 3.97248000E-01	 1.42930000E+00	-1.02571000E+00
					-3.42727000E-01	 1.47240000E+00	 2.98270000E+00
					 3.42727000E-01	-1.47240000E+00	 2.98270000E+00
					-4.01780000E-01	 1.44853000E+00	 2.05822000E+00
					 4.01780000E-01	-1.44853000E+00	 2.05822000E+00
					-3.97248000E-01	 1.42930000E+00	 1.02571000E+00
					 3.97248000E-01	-1.42930000E+00	 1.02571000E+00
					 4.59035000E-01	 4.11461000E-01	-8.29269000E-01
					-4.59035000E-01	-4.11461000E-01	-8.29269000E-01
					 4.19987000E-01	 9.72355000E-01	-1.05233000E+00
					-4.19987000E-01	-9.72355000E-01	-1.05233000E+00
					 3.19808000E-08	-9.70702000E-01	-1.82699000E-09
					 1.35673000E-08	-8.49207000E-01	-1.41757000E-08
					-3.19807000E-08	 9.70702000E-01	-1.82700000E-09
					-1.35673000E-08	 8.49207000E-01	-1.41757000E-08
					-4.59035000E-01	 4.11461000E-01	 8.29269000E-01
					 4.59035000E-01	-4.11461000E-01	 8.29269000E-01
					-4.19987000E-01	 9.72355000E-01	 1.05233000E+00
					 4.19987000E-01	-9.72355000E-01	 1.05233000E+00
					 1.85829000E-01	-1.86870000E+00	 3.92394000E+00
					-1.85829000E-01	 1.86870000E+00	 3.92394000E+00
					-1.65571000E-09	 4.06476000E-01	-1.10215000E-08
					 5.62702000E-09	-1.85804000E+00	 1.16794000E-08
					-5.62698000E-09	 1.85804000E+00	 1.16794000E-08
					 1.65575000E-09	-4.06476000E-01	-1.10215000E-08
					-1.85829000E-01	-1.86870000E+00	-3.92394000E+00
					 1.85829000E-01	 1.86870000E+00	-3.92394000E+00
					-2.86199000E-02	-2.01907000E+00	-8.31590000E-01
					-5.39480000E-02	-2.02551000E+00	-1.66092000E+00
					-7.34875000E-02	-2.03702000E+00	-2.48742000E+00
					-8.41499000E-02	-2.05490000E+00	-3.31407000E+00
					 0.00000000E+00	 0.00000000E+00	 0.00000000E+00
					 0.00000000E+00	 0.00000000E+00	 0.00000000E+00
					 0.00000000E+00	 0.00000000E+00	 0.00000000E+00
					 0.00000000E+00	 0.00000000E+00	 0.00000000E+00
					 0.00000000E+00	 0.00000000E+00	 0.00000000E+00
					 0.00000000E+00	 0.00000000E+00	 0.00000000E+00
					 0.00000000E+00	 0.00000000E+00	 0.00000000E+00
					 0.00000000E+00	 0.00000000E+00	 0.00000000E+00
					 0.00000000E+00	 0.00000000E+00	 0.00000000E+00
					 0.00000000E+00	 0.00000000E+00	 0.00000000E+00
					 0.00000000E+00	 0.00000000E+00	 0.00000000E+00
					 0.00000000E+00	 0.00000000E+00	 0.00000000E+00
					 0.00000000E+00	 0.00000000E+00	 0.00000000E+00
					 0.00000000E+00	 0.00000000E+00	 0.00000000E+00
					 0.00000000E+00	 0.00000000E+00	 0.00000000E+00
					 0.00000000E+00	 0.00000000E+00	 0.00000000E+00
					 3.15464000E-09	-2.03335000E+00	-3.17723000E-09
					 2.39580000E-09	-2.02863000E+00	-3.00069000E-09
					 1.94370000E-09	-2.00299000E+00	-2.79710000E-09
					 1.67983000E-09	-1.95706000E+00	-2.51625000E-09
					 1.48746000E-09	-1.89168000E+00	-2.18863000E-09
					 1.31916000E-09	-1.80787000E+00	-1.84301000E-09
					 1.15978000E-09	-1.70682000E+00	-1.50296000E-09
					 1.00593000E-09	-1.58994000E+00	-1.18482000E-09
					 8.57907000E-10	-1.45889000E+00	-8.98992000E-10
					 7.16962000E-10	-1.31565000E+00	-6.51485000E-10
					 5.84502000E-10	-1.16257000E+00	-4.45085000E-10
					 4.61841000E-10	-1.00240000E+00	-2.80247000E-10
					 3.50165000E-10	-8.38374000E-01	-1.55691000E-10
					 2.50543000E-10	-6.74008000E-01	-6.88347000E-11
					 1.63981000E-10	-5.12500000E-01	-1.61592000E-11
					 9.17478000E-11	-3.54760000E-01	 6.74877000E-12
					 3.59519000E-11	-1.95087000E-01	 5.29238000E-12
					 1.45711000E-01	-8.83915000E-02	-2.64068000E-01
					 2.40373000E-01	-2.75869000E-01	-5.85034000E-01
					 3.04735000E-01	-4.63419000E-01	-9.33327000E-01
					 3.45408000E-01	-6.49249000E-01	-1.29175000E+00
					 3.66085000E-01	-8.31086000E-01	-1.65205000E+00
					 3.70837000E-01	-1.00757000E+00	-2.00618000E+00
					 3.63244000E-01	-1.17676000E+00	-2.34751000E+00
					 3.46142000E-01	-1.33660000E+00	-2.67049000E+00
					 3.21642000E-01	-1.48506000E+00	-2.97047000E+00
					 2.91290000E-01	-1.62028000E+00	-3.24352000E+00
					 2.56212000E-01	-1.74059000E+00	-3.48628000E+00
					 2.17233000E-01	-1.84453000E+00	-3.69588000E+00
					 1.74956000E-01	-1.93087000E+00	-3.86990000E+00
					 1.29800000E-01	-1.99863000E+00	-4.00629000E+00
					 8.20300000E-02	-2.04708000E+00	-4.10340000E+00
					 3.17680000E-02	-2.07590000E+00	-4.16000000E+00
					-2.09704000E-02	-2.08528000E+00	-4.17546000E+00
					-3.15460000E-09	 2.03335000E+00	-3.17723000E-09
					-2.39576000E-09	 2.02863000E+00	-3.00069000E-09
					-1.94367000E-09	 2.00299000E+00	-2.79710000E-09
					-1.67979000E-09	 1.95706000E+00	-2.51625000E-09
					-1.48742000E-09	 1.89168000E+00	-2.18863000E-09
					-1.31913000E-09	 1.80787000E+00	-1.84301000E-09
					-1.15975000E-09	 1.70682000E+00	-1.50296000E-09
					-1.00591000E-09	 1.58994000E+00	-1.18482000E-09
					-8.57882000E-10	 1.45889000E+00	-8.98991000E-10
					-7.16940000E-10	 1.31565000E+00	-6.51483000E-10
					-5.84481000E-10	 1.16257000E+00	-4.45083000E-10
					-4.61823000E-10	 1.00240000E+00	-2.80245000E-10
					-3.50151000E-10	 8.38374000E-01	-1.55688000E-10
					-2.50532000E-10	 6.74008000E-01	-6.88312000E-11
					-1.63973000E-10	 5.12500000E-01	-1.61561000E-11
					-9.17423000E-11	 3.54760000E-01	 6.75146000E-12
					-3.59485000E-11	 1.95087000E-01	 5.29482000E-12
					 3.42120000E-09	-1.19920000E+00	-2.28069000E-09
					 1.28489000E-09	-3.98071000E-01	-1.81269000E-09
					-1.28485000E-09	 3.98071000E-01	-1.81269000E-09
					-3.42116000E-09	 1.19920000E+00	-2.28069000E-09
					 2.86199000E-02	 2.01907000E+00	-8.31590000E-01
					 5.39480000E-02	 2.02551000E+00	-1.66092000E+00
					 7.34875000E-02	 2.03702000E+00	-2.48742000E+00
					 8.41499000E-02	 2.05490000E+00	-3.31407000E+00
					-1.45711000E-01	 8.83915000E-02	-2.64068000E-01
					-2.40373000E-01	 2.75869000E-01	-5.85034000E-01
					-3.04735000E-01	 4.63419000E-01	-9.33327000E-01
					-3.45408000E-01	 6.49249000E-01	-1.29175000E+00
					-3.66085000E-01	 8.31086000E-01	-1.65205000E+00
					-3.70837000E-01	 1.00757000E+00	-2.00618000E+00
					-3.63244000E-01	 1.17676000E+00	-2.34751000E+00
					-3.46142000E-01	 1.33660000E+00	-2.67049000E+00
					-3.21642000E-01	 1.48506000E+00	-2.97047000E+00
					-2.91290000E-01	 1.62028000E+00	-3.24352000E+00
					-2.56212000E-01	 1.74059000E+00	-3.48628000E+00
					-2.17233000E-01	 1.84453000E+00	-3.69588000E+00
					-1.74956000E-01	 1.93087000E+00	-3.86990000E+00
					-1.29800000E-01	 1.99863000E+00	-4.00629000E+00
					-8.20300000E-02	 2.04708000E+00	-4.10340000E+00
					-3.17680000E-02	 2.07590000E+00	-4.16000000E+00
					 2.09704000E-02	 2.08528000E+00	-4.17546000E+00
					 3.58822000E-02	 1.24361000E+00	-4.15987000E+00
					 1.07126000E-02	 4.13963000E-01	-4.16099000E+00
					-1.07126000E-02	-4.13963000E-01	-4.16099000E+00
					-3.58822000E-02	-1.24361000E+00	-4.15987000E+00
					 8.41499000E-02	-2.05490000E+00	 3.31407000E+00
					 7.34876000E-02	-2.03702000E+00	 2.48742000E+00
					 5.39480000E-02	-2.02551000E+00	 1.66092000E+00
					 2.86199000E-02	-2.01907000E+00	 8.31590000E-01
					 0.00000000E+00	 0.00000000E+00	 0.00000000E+00
					 0.00000000E+00	 0.00000000E+00	 0.00000000E+00
					 0.00000000E+00	 0.00000000E+00	 0.00000000E+00
					 0.00000000E+00	 0.00000000E+00	 0.00000000E+00
					 0.00000000E+00	 0.00000000E+00	 0.00000000E+00
					 0.00000000E+00	 0.00000000E+00	 0.00000000E+00
					 0.00000000E+00	 0.00000000E+00	 0.00000000E+00
					 0.00000000E+00	 0.00000000E+00	 0.00000000E+00
					 0.00000000E+00	 0.00000000E+00	 0.00000000E+00
					 0.00000000E+00	 0.00000000E+00	 0.00000000E+00
					 0.00000000E+00	 0.00000000E+00	 0.00000000E+00
					 0.00000000E+00	 0.00000000E+00	 0.00000000E+00
					-1.45711000E-01	-8.83915000E-02	 2.64068000E-01
					-2.40373000E-01	-2.75869000E-01	 5.85034000E-01
					-3.04735000E-01	-4.63419000E-01	 9.33327000E-01
					-3.45408000E-01	-6.49249000E-01	 1.29175000E+00
					-3.66085000E-01	-8.31086000E-01	 1.65205000E+00
					-3.70837000E-01	-1.00757000E+00	 2.00618000E+00
					-3.63244000E-01	-1.17676000E+00	 2.34751000E+00
					-3.46142000E-01	-1.33660000E+00	 2.67049000E+00
					-3.21642000E-01	-1.48506000E+00	 2.97047000E+00
					-2.91290000E-01	-1.62028000E+00	 3.24352000E+00
					-2.56212000E-01	-1.74059000E+00	 3.48628000E+00
					-2.17233000E-01	-1.84453000E+00	 3.69588000E+00
					-1.74956000E-01	-1.93087000E+00	 3.86990000E+00
					-1.29800000E-01	-1.99863000E+00	 4.00629000E+00
					-8.20300000E-02	-2.04708000E+00	 4.10340000E+00
					-3.17680000E-02	-2.07590000E+00	 4.16000000E+00
					 2.09704000E-02	-2.08528000E+00	 4.17546000E+00
					 1.45711000E-01	 8.83915000E-02	 2.64068000E-01
					 2.40373000E-01	 2.75869000E-01	 5.85034000E-01
					 3.04735000E-01	 4.63419000E-01	 9.33327000E-01
					 3.45408000E-01	 6.49249000E-01	 1.29175000E+00
					 3.66085000E-01	 8.31086000E-01	 1.65205000E+00
					 3.70837000E-01	 1.00757000E+00	 2.00618000E+00
					 3.63244000E-01	 1.17676000E+00	 2.34751000E+00
					 3.46142000E-01	 1.33660000E+00	 2.67049000E+00
					 3.21642000E-01	 1.48506000E+00	 2.97047000E+00
					 2.91290000E-01	 1.62028000E+00	 3.24352000E+00
					 2.56212000E-01	 1.74059000E+00	 3.48628000E+00
					 2.17233000E-01	 1.84453000E+00	 3.69588000E+00
					 1.74956000E-01	 1.93087000E+00	 3.86990000E+00
					 1.29800000E-01	 1.99863000E+00	 4.00629000E+00
					 8.20300000E-02	 2.04708000E+00	 4.10340000E+00
					 3.17680000E-02	 2.07590000E+00	 4.16000000E+00
					-2.09704000E-02	 2.08528000E+00	 4.17546000E+00
					-3.58822000E-02	 1.24361000E+00	 4.15987000E+00
					-1.07126000E-02	 4.13963000E-01	 4.16099000E+00
					 1.07126000E-02	-4.13963000E-01	 4.16099000E+00
					 3.58822000E-02	-1.24361000E+00	 4.15987000E+00
					-8.41499000E-02	 2.05490000E+00	 3.31407000E+00
					-7.34876000E-02	 2.03702000E+00	 2.48742000E+00
					-5.39480000E-02	 2.02551000E+00	 1.66092000E+00
					-2.86199000E-02	 2.01907000E+00	 8.31590000E-01
					-4.16012000E-01	-1.45624000E+00	-2.36417000E+00
					-4.04754000E-01	-1.46450000E+00	-2.67195000E+00
					 1.04555000E-08	-1.94430000E+00	-2.48411000E-09
					 6.18031000E-09	-1.98716000E+00	-2.87504000E-09
					-2.15098000E-01	-1.85725000E+00	-1.51403000E+00
					-1.64885000E-01	-1.87481000E+00	-1.18966000E+00
					-1.14109000E-01	-1.88487000E+00	-8.17083000E-01
					-5.60256000E-02	-1.88884000E+00	-4.18315000E-01
					-1.60280000E-01	-2.00736000E+00	-3.34838000E+00
					-2.20191000E-01	-1.92263000E+00	-2.55363000E+00
					-1.04554000E-08	 1.94430000E+00	-2.48411000E-09
					-6.18028000E-09	 1.98716000E+00	-2.87504000E-09
					 1.37116000E-08	-1.12517000E+00	 1.09035000E-09
					 5.05123000E-09	-3.74134000E-01	 3.25432000E-09
					-5.05119000E-09	 3.74134000E-01	 3.25432000E-09
					-1.37116000E-08	 1.12517000E+00	 1.09035000E-09
					 1.50414000E-01	 1.09800000E+00	-1.80221000E+00
					 4.92425000E-02	 3.66115000E-01	-1.81106000E+00
					-4.92425000E-02	-3.66115000E-01	-1.81106000E+00
					-1.50414000E-01	-1.09800000E+00	-1.80221000E+00
					 2.15098000E-01	 1.85725000E+00	-1.51403000E+00
					 1.64885000E-01	 1.87481000E+00	-1.18966000E+00
					 1.14109000E-01	 1.88487000E+00	-8.17083000E-01
					 5.60256000E-02	 1.88884000E+00	-4.18315000E-01
					 1.60280000E-01	 2.00736000E+00	-3.34838000E+00
					 2.20191000E-01	 1.92263000E+00	-2.55363000E+00
					-1.60280000E-01	 2.00736000E+00	 3.34838000E+00
					-2.20191000E-01	 1.92263000E+00	 2.55363000E+00
					-5.60256000E-02	 1.88884000E+00	 4.18315000E-01
					-1.14110000E-01	 1.88487000E+00	 8.17083000E-01
					-1.64885000E-01	 1.87481000E+00	 1.18966000E+00
					-2.15098000E-01	 1.85725000E+00	 1.51403000E+00
					 5.60256000E-02	-1.88884000E+00	 4.18315000E-01
					 1.14110000E-01	-1.88487000E+00	 8.17083000E-01
					 1.64885000E-01	-1.87481000E+00	 1.18966000E+00
					 2.15098000E-01	-1.85725000E+00	 1.51403000E+00
					-1.50414000E-01	 1.09800000E+00	 1.80221000E+00
					-4.92425000E-02	 3.66115000E-01	 1.81106000E+00
					 4.92425000E-02	-3.66115000E-01	 1.81106000E+00
					 1.50414000E-01	-1.09800000E+00	 1.80221000E+00
					 1.60280000E-01	-2.00736000E+00	 3.34838000E+00
					 2.20191000E-01	-1.92263000E+00	 2.55363000E+00
					-3.62977000E-01	-1.62236000E+00	-2.17013000E+00
					-3.16935000E-01	-1.75053000E+00	-2.08094000E+00
					 1.83260000E-01	 1.97667000E+00	-3.94467000E+00
					 2.75122000E-01	 1.79794000E+00	-3.56781000E+00
					 1.31592000E-01	 8.80683000E-01	-2.98797000E+00
					 3.48899000E-02	 2.93154000E-01	-2.98802000E+00
					-3.48899000E-02	-2.93154000E-01	-2.98802000E+00
					-1.31592000E-01	-8.80683000E-01	-2.98797000E+00
					-1.83260000E-01	-1.97667000E+00	-3.94467000E+00
					-2.75122000E-01	-1.79794000E+00	-3.56781000E+00
					 3.62977000E-01	 1.62236000E+00	-2.17013000E+00
					 3.16935000E-01	 1.75053000E+00	-2.08094000E+00
					 4.16012000E-01	 1.45624000E+00	-2.36417000E+00
					 4.04754000E-01	 1.46450000E+00	-2.67195000E+00
					-2.11460000E-01	-8.67424000E-01	-2.06576000E+00
					-6.55301000E-02	-2.88776000E-01	-2.06786000E+00
					 6.55301000E-02	 2.88776000E-01	-2.06786000E+00
					 2.11460000E-01	 8.67424000E-01	-2.06576000E+00
					 3.02787000E-08	-1.83065000E+00	-5.17145000E-09
					-3.65324000E-01	-1.55789000E+00	-1.00017000E+00
					-3.17485000E-01	-1.66688000E+00	-9.06508000E-01
					-2.54873000E-01	-1.74896000E+00	-7.48085000E-01
					-1.78456000E-01	-1.80361000E+00	-5.33996000E-01
					-9.17650000E-02	-1.83412000E+00	-2.78012000E-01
					-3.56367000E-01	-1.43891000E+00	-1.54083000E+00
					-3.02787000E-08	 1.83065000E+00	-5.17145000E-09
					-2.48289000E-08	 1.12017000E+00	-3.21235000E-09
					-9.32935000E-09	 3.72622000E-01	 2.40270000E-09
					 9.32939000E-09	-3.72622000E-01	 2.40270000E-09
					 2.48289000E-08	-1.12017000E+00	-3.21235000E-09
					 2.59963000E-01	 8.55304000E-01	-1.03609000E+00
					 8.51488000E-02	 2.84627000E-01	-1.03965000E+00
					-8.51488000E-02	-2.84627000E-01	-1.03965000E+00
					-2.59963000E-01	-8.55304000E-01	-1.03609000E+00
					 9.17650000E-02	 1.83412000E+00	-2.78012000E-01
					 1.78456000E-01	 1.80361000E+00	-5.33996000E-01
					 2.54873000E-01	 1.74896000E+00	-7.48085000E-01
					 3.17485000E-01	 1.66688000E+00	-9.06508000E-01
					 3.65324000E-01	 1.55789000E+00	-1.00017000E+00
					 3.56367000E-01	 1.43891000E+00	-1.54083000E+00
					 3.16935000E-01	-1.75053000E+00	 2.08094000E+00
					 3.62977000E-01	-1.62236000E+00	 2.17013000E+00
					-1.83260000E-01	 1.97667000E+00	 3.94467000E+00
					-2.75122000E-01	 1.79794000E+00	 3.56781000E+00
					-1.31592000E-01	 8.80683000E-01	 2.98797000E+00
					-3.48899000E-02	 2.93154000E-01	 2.98802000E+00
					 3.48899000E-02	-2.93154000E-01	 2.98802000E+00
					 1.31592000E-01	-8.80683000E-01	 2.98797000E+00
					 1.83260000E-01	-1.97667000E+00	 3.94467000E+00
					 2.75122000E-01	-1.79794000E+00	 3.56781000E+00
					-4.04754000E-01	 1.46450000E+00	 2.67195000E+00
					-4.16012000E-01	 1.45624000E+00	 2.36417000E+00
					-3.16935000E-01	 1.75053000E+00	 2.08094000E+00
					-3.62977000E-01	 1.62236000E+00	 2.17013000E+00
					 4.04754000E-01	-1.46450000E+00	 2.67195000E+00
					 4.16012000E-01	-1.45624000E+00	 2.36417000E+00
					 2.11460000E-01	-8.67424000E-01	 2.06576000E+00
					 6.55301000E-02	-2.88776000E-01	 2.06786000E+00
					-6.55301000E-02	 2.88776000E-01	 2.06786000E+00
					-2.11460000E-01	 8.67424000E-01	 2.06576000E+00
					-3.56367000E-01	 1.43891000E+00	 1.54083000E+00
					 9.17651000E-02	-1.83412000E+00	 2.78012000E-01
					 1.78456000E-01	-1.80361000E+00	 5.33996000E-01
					 2.54873000E-01	-1.74896000E+00	 7.48085000E-01
					 3.17485000E-01	-1.66688000E+00	 9.06507000E-01
					 3.65324000E-01	-1.55789000E+00	 1.00017000E+00
					-3.65324000E-01	 1.55789000E+00	 1.00017000E+00
					-3.17485000E-01	 1.66688000E+00	 9.06507000E-01
					-2.54873000E-01	 1.74896000E+00	 7.48085000E-01
					-1.78456000E-01	 1.80361000E+00	 5.33996000E-01
					-9.17651000E-02	 1.83412000E+00	 2.78012000E-01
					 3.56367000E-01	-1.43891000E+00	 1.54083000E+00
					-2.59963000E-01	 8.55304000E-01	 1.03609000E+00
					-8.51488000E-02	 2.84627000E-01	 1.03965000E+00
					 8.51488000E-02	-2.84627000E-01	 1.03965000E+00
					 2.59963000E-01	-8.55304000E-01	 1.03609000E+00
					-4.49328000E-01	-1.09324000E+00	-1.43512000E+00
					-4.35683000E-01	-1.25887000E+00	-1.79069000E+00
					 4.12962000E-01	 1.08418000E+00	-2.26817000E+00
					 4.39260000E-01	 7.44199000E-01	-1.54132000E+00
					 2.01009000E-01	 2.40393000E-01	-8.26089000E-01
					 5.68452000E-02	 7.97764000E-02	-8.23687000E-01
					-5.68452000E-02	-7.97764000E-02	-8.23687000E-01
					-2.01009000E-01	-2.40393000E-01	-8.26089000E-01
					-4.12962000E-01	-1.08418000E+00	-2.26817000E+00
					-4.39260000E-01	-7.44199000E-01	-1.54132000E+00
					 4.49328000E-01	 1.09324000E+00	-1.43512000E+00
					 4.35683000E-01	 1.25887000E+00	-1.79069000E+00
					 5.05733000E-01	 6.04049000E-01	-1.03928000E+00
					 4.78494000E-01	 7.99619000E-01	-1.11811000E+00
					-5.05733000E-01	-6.04049000E-01	-1.03928000E+00
					-4.78494000E-01	-7.99619000E-01	-1.11811000E+00
					 2.37982000E-01	 5.72161000E-01	-1.04316000E+00
					 7.68695000E-02	 1.88895000E-01	-1.03653000E+00
					-7.68695000E-02	-1.88895000E-01	-1.03653000E+00
					-2.37982000E-01	-5.72161000E-01	-1.04316000E+00
					-1.43128000E-01	-9.80763000E-01	-2.60360000E-01
					-2.65291000E-01	-1.01513000E+00	-5.03138000E-01
					-3.51634000E-01	-1.07882000E+00	-7.13485000E-01
					-3.98195000E-01	-1.17434000E+00	-8.76799000E-01
					-4.10339000E-01	-1.29575000E+00	-9.83368000E-01
					 2.63103000E-08	-9.77666000E-01	-1.16940000E-08
					-1.67586000E-01	-4.05411000E-01	-1.62588000E-01
					-3.20319000E-01	-4.03082000E-01	-3.25357000E-01
					-4.41128000E-01	-4.01378000E-01	-4.88361000E-01
					-5.03234000E-01	-4.03786000E-01	-6.52336000E-01
					-1.11737000E-01	-8.52206000E-01	-1.90887000E-01
					-2.17458000E-01	-8.61860000E-01	-3.95347000E-01
					-3.04795000E-01	-8.85293000E-01	-6.00147000E-01
					-3.73788000E-01	-9.19304000E-01	-8.21890000E-01
					-2.16206000E-08	 5.35598000E-01	-1.44237000E-08
					-8.20436000E-09	 1.77086000E-01	-2.09242000E-08
					 8.20439000E-09	-1.77086000E-01	-2.09242000E-08
					 2.16206000E-08	-5.35598000E-01	-1.44237000E-08
					 4.10339000E-01	 1.29575000E+00	-9.83368000E-01
					 3.98195000E-01	 1.17434000E+00	-8.76799000E-01
					 3.51634000E-01	 1.07882000E+00	-7.13485000E-01
					 2.65291000E-01	 1.01513000E+00	-5.03138000E-01
					 1.43128000E-01	 9.80763000E-01	-2.60360000E-01
					-1.06576000E-08	 5.00755000E-01	-1.79231000E-08
					-4.02552000E-09	 1.65015000E-01	-1.99276000E-08
					 4.02554000E-09	-1.65015000E-01	-1.99276000E-08