<?xml version="1.0"?>
<VTKFile type="UnstructuredGrid" version="0.1" byte_order="LittleEndian">
	<UnstructuredGrid>
		<Piece NumberOfPoints="3432" NumberOfCells="2560">
			<Points>
				<DataArray type="Float64" NumberOfComponents="3" format="ascii">
					 0.00000000E+00	 0.00000000E+00	 1.27000000E-02
					 0.00000000E+00	 1.27000000E-02	 1.27000000E-02
					 0.00000000E+00	 1.27000000E-02	 0.00000000E+00
					 0.00000000E+00	 0.00000000E+00	 0.00000000E+00
					 4.50000000E-02	 1.27000000E-02	 1.27000000E-02
					 4.50000000E-02	 0.00000000E+00	 1.27000000E-02
					 4.50000000E-02	 1.27000000E-02	 0.00000000E+00
					 4.50000000E-02	 0.00000000E+00	 0.00000000E+00
					 0.00000000E+00	 2.54000000E-02	 1.27000000E-02
					 0.00000000E+00	 2.54000000E-02	 0.00000000E+00
					 4.50000000E-02	 2.54000000E-02	 1.27000000E-02
					 4.50000000E-02	 2.54000000E-02	 0.00000000E+00
					 5.12690000E-02	 1.27000000E-02	 1.27000000E-02
					 5.38263000E-02	 6.52625000E-03	 1.27000000E-02
					 5.12690000E-02	 1.27000000E-02	 0.00000000E+00
					 5.38263000E-02	 6.52625000E-03	 0.00000000E+00
					 5.38263000E-02	 1.88737000E-02	 0.00000000E+00
					 5.38263000E-02	 1.88737000E-02	 1.27000000E-02
					 6.00000000E-02	 0.00000000E+00	 0.00000000E+00
					 6.00000000E-02	 0.00000000E+00	 1.27000000E-02
					 6.00000000E-02	 3.96900000E-03	 0.00000000E+00
					 6.00000000E-02	 3.96900000E-03	 1.27000000E-02
					 5.57840000E-02	 1.27000000E-02	 1.27000000E-02
					 6.00000000E-02	 8.48400000E-03	 1.27000000E-02
					 5.57840000E-02	 1.27000000E-02	 0.00000000E+00
					 6.00000000E-02	 8.48400000E-03	 0.00000000E+00
					 6.00000000E-02	 2.54000000E-02	 0.00000000E+00
					 6.00000000E-02	 2.54000000E-02	 1.27000000E-02
					 6.00000000E-02	 2.14310000E-02	 0.00000000E+00
					 6.00000000E-02	 2.14310000E-02	 1.27000000E-02
					 6.00000000E-02	 1.69160000E-02	 0.00000000E+00
					 6.00000000E-02	 1.69160000E-02	 1.27000000E-02
					 7.50000000E-02	 0.00000000E+00	 0.00000000E+00
					 7.50000000E-02	 0.00000000E+00	 1.27000000E-02
					 6.61737000E-02	 6.52625000E-03	 0.00000000E+00
					 6.61737000E-02	 6.52625000E-03	 1.27000000E-02
					 6.42160000E-02	 1.27000000E-02	 1.27000000E-02
					 6.87310000E-02	 1.27000000E-02	 1.27000000E-02
					 6.42160000E-02	 1.27000000E-02	 0.00000000E+00
					 6.87310000E-02	 1.27000000E-02	 0.00000000E+00
					 7.50000000E-02	 2.54000000E-02	 0.00000000E+00
					 7.50000000E-02	 2.54000000E-02	 1.27000000E-02
					 6.61737000E-02	 1.88737000E-02	 0.00000000E+00
					 6.61737000E-02	 1.88737000E-02	 1.27000000E-02
					 1.20000000E-01	 0.00000000E+00	 0.00000000E+00
					 1.20000000E-01	 0.00000000E+00	 1.27000000E-02
					 7.50000000E-02	 1.27000000E-02	 0.00000000E+00
					 1.20000000E-01	 1.27000000E-02	 0.00000000E+00
					 1.20000000E-01	 1.27000000E-02	 1.27000000E-02
					 7.50000000E-02	 1.27000000E-02	 1.27000000E-02
					 1.20000000E-01	 2.54000000E-02	 0.00000000E+00
					 1.20000000E-01	 2.54000000E-02	 1.27000000E-02
					 4.50000000E-02	 1.01600000E-02	 1.27000000E-02
					 4.50000000E-02	 7.62000000E-03	 1.27000000E-02
					 4.50000000E-02	 5.08000000E-03	 1.27000000E-02
					 4.50000000E-02	 2.54000000E-03	 1.27000000E-02
					 0.00000000E+00	 2.54000000E-03	 1.27000000E-02
					 0.00000000E+00	 5.08000000E-03	 1.27000000E-02
					 0.00000000E+00	 7.62000000E-03	 1.27000000E-02
					 0.00000000E+00	 1.01600000E-02	 1.27000000E-02
					 0.00000000E+00	 1.27000000E-02	 2.54000000E-03
					 0.00000000E+00	 1.27000000E-02	 5.08000000E-03
					 0.00000000E+00	 1.27000000E-02	 7.62000000E-03
					 0.00000000E+00	 1.27000000E-02	 1.01600000E-02
					 0.00000000E+00	 2.54000000E-03	 0.00000000E+00
					 0.00000000E+00	 5.08000000E-03	 0.00000000E+00
					 0.00000000E+00	 7.62000000E-03	 0.00000000E+00
					 0.00000000E+00	 1.01600000E-02	 0.00000000E+00
					 0.00000000E+00	 0.00000000E+00	 2.54000000E-03
					 0.00000000E+00	 0.00000000E+00	 5.08000000E-03
					 0.00000000E+00	 0.00000000E+00	 7.62000000E-03
					 0.00000000E+00	 0.00000000E+00	 1.01600000E-02
					 4.25000000E-02	 1.27000000E-02	 1.27000000E-02
					 4.00000000E-02	 1.27000000E-02	 1.27000000E-02
					 3.75000000E-02	 1.27000000E-02	 1.27000000E-02
					 3.50000000E-02	 1.27000000E-02	 1.27000000E-02
					 3.25000000E-02	 1.27000000E-02	 1.27000000E-02
					 3.00000000E-02	 1.27000000E-02	 1.27000000E-02
					 2.75000000E-02	 1.27000000E-02	 1.27000000E-02
					 2.50000000E-02	 1.27000000E-02	 1.27000000E-02
					 2.25000000E-02	 1.27000000E-02	 1.27000000E-02
					 2.00000000E-02	 1.27000000E-02	 1.27000000E-02
					 1.75000000E-02	 1.27000000E-02	 1.27000000E-02
					 1.50000000E-02	 1.27000000E-02	 1.27000000E-02
					 1.25000000E-02	 1.27000000E-02	 1.27000000E-02
					 1.00000000E-02	 1.27000000E-02	 1.27000000E-02
					 7.50000000E-03	 1.27000000E-02	 1.27000000E-02
					 5.00000000E-03	 1.27000000E-02	 1.27000000E-02
					 2.50000000E-03	 1.27000000E-02	 1.27000000E-02
					 2.50000000E-03	 0.00000000E+00	 1.27000000E-02
					 5.00000000E-03	 0.00000000E+00	 1.27000000E-02
					 7.50000000E-03	 0.00000000E+00	 1.27000000E-02
					 1.00000000E-02	 0.00000000E+00	 1.27000000E-02
					 1.25000000E-02	 0.00000000E+00	 1.27000000E-02
					 1.50000000E-02	 0.00000000E+00	 1.27000000E-02
					 1.75000000E-02	 0.00000000E+00	 1.27000000E-02
					 2.00000000E-02	 0.00000000E+00	 1.27000000E-02
					 2.25000000E-02	 0.00000000E+00	 1.27000000E-02
					 2.50000000E-02	 0.00000000E+00	 1.27000000E-02
					 2.75000000E-02	 0.00000000E+00	 1.27000000E-02
					 3.00000000E-02	 0.00000000E+00	 1.27000000E-02
					 3.25000000E-02	 0.00000000E+00	 1.27000000E-02
					 3.50000000E-02	 0.00000000E+00	 1.27000000E-02
					 3.75000000E-02	 0.00000000E+00	 1.27000000E-02
					 4.00000000E-02	 0.00000000E+00	 1.27000000E-02
					 4.25000000E-02	 0.00000000E+00	 1.27000000E-02
					 4.25000000E-02	 1.27000000E-02	 0.00000000E+00
					 4.00000000E-02	 1.27000000E-02	 0.00000000E+00
					 3.75000000E-02	 1.27000000E-02	 0.00000000E+00
					 3.50000000E-02	 1.27000000E-02	 0.00000000E+00
					 3.25000000E-02	 1.27000000E-02	 0.00000000E+00
					 3.00000000E-02	 1.27000000E-02	 0.00000000E+00
					 2.75000000E-02	 1.27000000E-02	 0.00000000E+00
					 2.50000000E-02	 1.27000000E-02	 0.00000000E+00
					 2.25000000E-02	 1.27000000E-02	 0.00000000E+00
					 2.00000000E-02	 1.27000000E-02	 0.00000000E+00
					 1.75000000E-02	 1.27000000E-02	 0.00000000E+00
					 1.50000000E-02	 1.27000000E-02	 0.00000000E+00
					 1.25000000E-02	 1.27000000E-02	 0.00000000E+00
					 1.00000000E-02	 1.27000000E-02	 0.00000000E+00
					 7.50000000E-03	 1.27000000E-02	 0.00000000E+00
					 5.00000000E-03	 1.27000000E-02	 0.00000000E+00
					 2.50000000E-03	 1.27000000E-02	 0.00000000E+00
					 4.50000000E-02	 1.27000000E-02	 1.01600000E-02
					 4.50000000E-02	 1.27000000E-02	 7.62000000E-03
					 4.50000000E-02	 1.27000000E-02	 5.08000000E-03
					 4.50000000E-02	 1.27000000E-02	 2.54000000E-03
					 4.50000000E-02	 1.01600000E-02	 0.00000000E+00
					 4.50000000E-02	 7.62000000E-03	 0.00000000E+00
					 4.50000000E-02	 5.08000000E-03	 0.00000000E+00
					 4.50000000E-02	 2.54000000E-03	 0.00000000E+00
					 2.50000000E-03	 0.00000000E+00	 0.00000000E+00
					 5.00000000E-03	 0.00000000E+00	 0.00000000E+00
					 7.50000000E-03	 0.00000000E+00	 0.00000000E+00
					 1.00000000E-02	 0.00000000E+00	 0.00000000E+00
					 1.25000000E-02	 0.00000000E+00	 0.00000000E+00
					 1.50000000E-02	 0.00000000E+00	 0.00000000E+00
					 1.75000000E-02	 0.00000000E+00	 0.00000000E+00
					 2.00000000E-02	 0.00000000E+00	 0.00000000E+00
					 2.25000000E-02	 0.00000000E+00	 0.00000000E+00
					 2.50000000E-02	 0.00000000E+00	 0.00000000E+00
					 2.75000000E-02	 0.00000000E+00	 0.00000000E+00
					 3.00000000E-02	 0.00000000E+00	 0.00000000E+00
					 3.25000000E-02	 0.00000000E+00	 0.00000000E+00
					 3.50000000E-02	 0.00000000E+00	 0.00000000E+00
					 3.75000000E-02	 0.00000000E+00	 0.00000000E+00
					 4.00000000E-02	 0.00000000E+00	 0.00000000E+00
					 4.25000000E-02	 0.00000000E+00	 0.00000000E+00
					 4.50000000E-02	 0.00000000E+00	 2.54000000E-03
					 4.50000000E-02	 0.00000000E+00	 5.08000000E-03
					 4.50000000E-02	 0.00000000E+00	 7.62000000E-03
					 4.50000000E-02	 0.00000000E+00	 1.01600000E-02
					 4.50000000E-02	 2.28600000E-02	 1.27000000E-02
					 4.50000000E-02	 2.03200000E-02	 1.27000000E-02
					 4.50000000E-02	 1.77800000E-02	 1.27000000E-02
					 4.50000000E-02	 1.52400000E-02	 1.27000000E-02
					 0.00000000E+00	 1.52400000E-02	 1.27000000E-02
					 0.00000000E+00	 1.77800000E-02	 1.27000000E-02
					 0.00000000E+00	 2.03200000E-02	 1.27000000E-02
					 0.00000000E+00	 2.28600000E-02	 1.27000000E-02
					 0.00000000E+00	 2.54000000E-02	 2.54000000E-03
					 0.00000000E+00	 2.54000000E-02	 5.08000000E-03
					 0.00000000E+00	 2.54000000E-02	 7.62000000E-03
					 0.00000000E+00	 2.54000000E-02	 1.01600000E-02
					 0.00000000E+00	 1.52400000E-02	 0.00000000E+00
					 0.00000000E+00	 1.77800000E-02	 0.00000000E+00
					 0.00000000E+00	 2.03200000E-02	 0.00000000E+00
					 0.00000000E+00	 2.28600000E-02	 0.00000000E+00
					 2.50000000E-03	 2.54000000E-02	 1.27000000E-02
					 5.00000000E-03	 2.54000000E-02	 1.27000000E-02
					 7.50000000E-03	 2.54000000E-02	 1.27000000E-02
					 1.00000000E-02	 2.54000000E-02	 1.27000000E-02
					 1.25000000E-02	 2.54000000E-02	 1.27000000E-02
					 1.50000000E-02	 2.54000000E-02	 1.27000000E-02
					 1.75000000E-02	 2.54000000E-02	 1.27000000E-02
					 2.00000000E-02	 2.54000000E-02	 1.27000000E-02
					 2.25000000E-02	 2.54000000E-02	 1.27000000E-02
					 2.50000000E-02	 2.54000000E-02	 1.27000000E-02
					 2.75000000E-02	 2.54000000E-02	 1.27000000E-02
					 3.00000000E-02	 2.54000000E-02	 1.27000000E-02
					 3.25000000E-02	 2.54000000E-02	 1.27000000E-02
					 3.50000000E-02	 2.54000000E-02	 1.27000000E-02
					 3.75000000E-02	 2.54000000E-02	 1.27000000E-02
[...]
			<PointData>
				<DataArray type="Float32" Name="U" NumberOfComponents="3" ComponentName0="D1" ComponentName1="D2" ComponentName2="D3" format="ascii">
					 0.00000000E+00	 0.00000000E+00	 0.00000000E+00
					 0.00000000E+00	 0.00000000E+00	 0.00000000E+00
					 0.00000000E+00	 0.00000000E+00	 0.00000000E+00
					 0.00000000E+00	 0.00000000E+00	 0.00000000E+00
					-2.41134000E-08	 2.05335000E+00	 2.72162000E-09
					-8.38532000E-01	 2.04807000E+00	 9.52429000E-02
					-2.41134000E-08	 2.05335000E+00	-2.72160000E-09
					-8.38532000E-01	 2.04807000E+00	-9.52429000E-02
					 0.00000000E+00	 0.00000000E+00	 0.00000000E+00
					 0.00000000E+00	 0.00000000E+00	 0.00000000E+00
					 8.38532000E-01	 2.04807000E+00	-9.52429000E-02
					 8.38532000E-01	 2.04807000E+00	 9.52429000E-02
					-5.18585000E-08	 1.31456000E+00	 1.27982000E-08
					-3.61695000E-01	 1.01782000E+00	-2.45926000E-02
					-5.18585000E-08	 1.31456000E+00	-1.27982000E-08
					-3.61695000E-01	 1.01782000E+00	 2.45926000E-02
					 3.61695000E-01	 1.01782000E+00	-2.45926000E-02
					 3.61695000E-01	 1.01782000E+00	 2.45926000E-02
					-1.30108000E+00	-1.31429000E-01	 2.96286000E-02
					-1.30108000E+00	-1.31429000E-01	-2.96286000E-02
					-6.86150000E-01	-1.42927000E-01	 2.06388000E-02
					-6.86150000E-01	-1.42927000E-01	-2.06388000E-02
					-7.84248000E-08	 8.25549000E-01	 3.39630000E-08
					-4.34394000E-02	-1.50509000E-01	-1.19451000E-02
					-7.84248000E-08	 8.25549000E-01	-3.39630000E-08
					-4.34394000E-02	-1.50509000E-01	 1.19451000E-02
					 1.30108000E+00	-1.31429000E-01	-2.96286000E-02
					 1.30108000E+00	-1.31429000E-01	 2.96286000E-02
					 6.86150000E-01	-1.42927000E-01	-2.06388000E-02
					 6.86150000E-01	-1.42927000E-01	 2.06388000E-02
					 4.34396000E-02	-1.50509000E-01	-1.19451000E-02
					 4.34396000E-02	-1.50509000E-01	 1.19451000E-02
					-3.80937000E-01	-2.01013000E+00	 1.45226000E-01
					-3.80937000E-01	-2.01013000E+00	-1.45226000E-01
					-2.67380000E-01	-1.26356000E+00	 1.47846000E-03
					-2.67380000E-01	-1.26356000E+00	-1.47846000E-03
					-6.26828000E-08	-1.11133000E+00	-3.02020000E-08
					-3.92342000E-08	-1.51655000E+00	-1.09088000E-08
					-6.26829000E-08	-1.11133000E+00	 3.02021000E-08
					-3.92342000E-08	-1.51655000E+00	 1.09088000E-08
					 3.80937000E-01	-2.01013000E+00	-1.45226000E-01
					 3.80937000E-01	-2.01013000E+00	 1.45226000E-01
					 2.67380000E-01	-1.26356000E+00	-1.47849000E-03
					 2.67380000E-01	-1.26356000E+00	 1.47849000E-03
					 2.06352000E+00	 2.90835000E+00	-2.74157000E-03
					 2.06352000E+00	 2.90835000E+00	 2.74157000E-03
					-1.66785000E-08	-2.05599000E+00	 1.81076000E-09
					-7.71505000E-09	 2.86569000E+00	 2.56728000E-12
					-7.71516000E-09	 2.86569000E+00	-2.31903000E-12
					-1.66785000E-08	-2.05599000E+00	-1.81076000E-09
					-2.06352000E+00	 2.90835000E+00	 2.74157000E-03
					-2.06352000E+00	 2.90835000E+00	-2.74157000E-03
					-1.20617000E-01	 2.05630000E+00	 1.33833000E-02
					-2.57002000E-01	 2.06231000E+00	 2.89883000E-02
					-4.19052000E-01	 2.06530000E+00	 4.80525000E-02
					-6.10707000E-01	 2.06091000E+00	 7.14076000E-02
					 0.00000000E+00	 0.00000000E+00	 0.00000000E+00
					 0.00000000E+00	 0.00000000E+00	 0.00000000E+00
					 0.00000000E+00	 0.00000000E+00	 0.00000000E+00
					 0.00000000E+00	 0.00000000E+00	 0.00000000E+00
					 0.00000000E+00	 0.00000000E+00	 0.00000000E+00
					 0.00000000E+00	 0.00000000E+00	 0.00000000E+00
					 0.00000000E+00	 0.00000000E+00	 0.00000000E+00
					 0.00000000E+00	 0.00000000E+00	 0.00000000E+00
					 0.00000000E+00	 0.00000000E+00	 0.00000000E+00
					 0.00000000E+00	 0.00000000E+00	 0.00000000E+00
					 0.00000000E+00	 0.00000000E+00	 0.00000000E+00
					 0.00000000E+00	 0.00000000E+00	 0.00000000E+00
					 0.00000000E+00	 0.00000000E+00	 0.00000000E+00
					 0.00000000E+00	 0.00000000E+00	 0.00000000E+00
					 0.00000000E+00	 0.00000000E+00	 0.00000000E+00
					 0.00000000E+00	 0.00000000E+00	 0.00000000E+00
					-1.79403000E-08	 2.27797000E+00	 1.49186000E-09
					-1.45674000E-08	 2.45350000E+00	 7.15989000E-10
					-1.19660000E-08	 2.57713000E+00	 4.25492000E-10
					-1.00402000E-08	 2.64749000E+00	 2.74107000E-10
					-8.60292000E-09	 2.66438000E+00	 2.23925000E-10
					-7.50876000E-09	 2.62863000E+00	 2.26417000E-10
					-6.64234000E-09	 2.54220000E+00	 2.54283000E-10
					-5.91705000E-09	 2.40824000E+00	 2.90977000E-10
					-5.27135000E-09	 2.23116000E+00	 3.27949000E-10
					-4.66412000E-09	 2.01656000E+00	 3.61556000E-10
					-4.06992000E-09	 1.77120000E+00	 3.91129000E-10
					-3.47517000E-09	 1.50296000E+00	 4.17619000E-10
					-2.87576000E-09	 1.22091000E+00	 4.42323000E-10
					-2.27609000E-09	 9.35417000E-01	 4.64663000E-10
					-1.68784000E-09	 6.58293000E-01	 4.78257000E-10
					-1.12651000E-09	 4.02456000E-01	 4.59652000E-10
					-5.88089000E-10	 1.79950000E-01	 3.71965000E-10
					 2.69067000E-01	 2.23538000E-01	-1.12085000E-01
					 4.34753000E-01	 4.50172000E-01	-9.99225000E-02
					 5.48025000E-01	 7.08728000E-01	-7.55339000E-02
					 6.22381000E-01	 9.77348000E-01	-4.54341000E-02
					 6.59809000E-01	 1.24821000E+00	-1.64822000E-02
					 6.61874000E-01	 1.51272000E+00	 1.00856000E-02
					 6.30547000E-01	 1.76296000E+00	 3.39651000E-02
					 5.68563000E-01	 1.99132000E+00	 5.51256000E-02
					 4.79284000E-01	 2.19074000E+00	 7.34558000E-02
					 3.66591000E-01	 2.35494000E+00	 8.87690000E-02
					 2.34776000E-01	 2.47863000E+00	 1.00862000E-01
					 8.84501000E-02	 2.55769000E+00	 1.09576000E-01
					-6.75664000E-02	 2.58927000E+00	 1.14854000E-01
					-2.28368000E-01	 2.57199000E+00	 1.16793000E-01
					-3.89170000E-01	 2.50595000E+00	 1.15736000E-01
					-5.45560000E-01	 2.39321000E+00	 1.12115000E-01
					-6.94870000E-01	 2.23597000E+00	 1.07782000E-01
					-1.79403000E-08	 2.27797000E+00	-1.49183000E-09
					-1.45675000E-08	 2.45350000E+00	-7.15942000E-10
					-1.19660000E-08	 2.57713000E+00	-4.25431000E-10
					-1.00402000E-08	 2.64749000E+00	-2.74032000E-10
					-8.60294000E-09	 2.66438000E+00	-2.23842000E-10
					-7.50877000E-09	 2.62863000E+00	-2.26327000E-10
					-6.64235000E-09	 2.54220000E+00	-2.54188000E-10
					-5.91705000E-09	 2.40824000E+00	-2.90881000E-10
					-5.27134000E-09	 2.23116000E+00	-3.27856000E-10
					-4.66411000E-09	 2.01656000E+00	-3.61469000E-10
					-4.06990000E-09	 1.77120000E+00	-3.91052000E-10
					-3.47515000E-09	 1.50296000E+00	-4.17552000E-10
					-2.87574000E-09	 1.22091000E+00	-4.42271000E-10
					-2.27607000E-09	 9.35417000E-01	-4.64624000E-10
					-1.68782000E-09	 6.58293000E-01	-4.78229000E-10
					-1.12650000E-09	 4.02456000E-01	-4.59634000E-10
					-5.88080000E-10	 1.79950000E-01	-3.71956000E-10
					-2.28658000E-08	 2.04260000E+00	 1.79571000E-09
					-2.24776000E-08	 2.03698000E+00	 6.29815000E-10
					-2.24776000E-08	 2.03698000E+00	-6.29802000E-10
					-2.28658000E-08	 2.04260000E+00	-1.79569000E-09
					-1.20617000E-01	 2.05630000E+00	-1.33833000E-02
					-2.57002000E-01	 2.06231000E+00	-2.89883000E-02
					-4.19052000E-01	 2.06530000E+00	-4.80525000E-02
					-6.10707000E-01	 2.06091000E+00	-7.14076000E-02
					 2.69067000E-01	 2.23538000E-01	 1.12085000E-01
					 4.34753000E-01	 4.50172000E-01	 9.99225000E-02
					 5.48025000E-01	 7.08728000E-01	 7.55339000E-02
					 6.22381000E-01	 9.77348000E-01	 4.54341000E-02
					 6.59809000E-01	 1.24821000E+00	 1.64822000E-02
					 6.61874000E-01	 1.51272000E+00	-1.00856000E-02
					 6.30547000E-01	 1.76296000E+00	-3.39651000E-02
					 5.68563000E-01	 1.99132000E+00	-5.51256000E-02
					 4.79284000E-01	 2.19074000E+00	-7.34558000E-02
					 3.66591000E-01	 2.35494000E+00	-8.87690000E-02
					 2.34776000E-01	 2.47863000E+00	-1.00862000E-01
					 8.84501000E-02	 2.55769000E+00	-1.09576000E-01
					-6.75664000E-02	 2.58927000E+00	-1.14854000E-01
					-2.28368000E-01	 2.57199000E+00	-1.16793000E-01
					-3.89170000E-01	 2.50595000E+00	-1.15736000E-01
					-5.45560000E-01	 2.39321000E+00	-1.12115000E-01
					-6.94870000E-01	 2.23597000E+00	-1.07782000E-01
					-8.47457000E-01	 2.02835000E+00	-5.74327000E-02
					-8.51346000E-01	 2.01923000E+00	-1.91798000E-02
					-8.51346000E-01	 2.01923000E+00	 1.91798000E-02
					-8.47457000E-01	 2.02835000E+00	 5.74327000E-02
					 6.10707000E-01	 2.06091000E+00	-7.14076000E-02
					 4.19052000E-01	 2.06530000E+00	-4.80525000E-02
					 2.57002000E-01	 2.06231000E+00	-2.89883000E-02
					 1.20617000E-01	 2.05630000E+00	-1.33833000E-02
					 0.00000000E+00	 0.00000000E+00	 0.00000000E+00
					 0.00000000E+00	 0.00000000E+00	 0.00000000E+00
					 0.00000000E+00	 0.00000000E+00	 0.00000000E+00
					 0.00000000E+00	 0.00000000E+00	 0.00000000E+00
					 0.00000000E+00	 0.00000000E+00	 0.00000000E+00
					 0.00000000E+00	 0.00000000E+00	 0.00000000E+00
					 0.00000000E+00	 0.00000000E+00	 0.00000000E+00
					 0.00000000E+00	 0.00000000E+00	 0.00000000E+00
					 0.00000000E+00	 0.00000000E+00	 0.00000000E+00
					 0.00000000E+00	 0.00000000E+00	 0.00000000E+00
					 0.00000000E+00	 0.00000000E+00	 0.00000000E+00
					 0.00000000E+00	 0.00000000E+00	 0.00000000E+00
					-2.69067000E-01	 2.23538000E-01	 1.12085000E-01
					-4.34753000E-01	 4.50172000E-01	 9.99225000E-02
					-5.48025000E-01	 7.08728000E-01	 7.55339000E-02
					-6.22381000E-01	 9.77348000E-01	 4.54341000E-02
					-6.59809000E-01	 1.24821000E+00	 1.64822000E-02
					-6.61874000E-01	 1.51272000E+00	-1.00856000E-02
					-6.30547000E-01	 1.76296000E+00	-3.39651000E-02
					-5.68563000E-01	 1.99132000E+00	-5.51256000E-02
					-4.79284000E-01	 2.19074000E+00	-7.34558000E-02
					-3.66591000E-01	 2.35494000E+00	-8.87690000E-02
					-2.34776000E-01	 2.47863000E+00	-1.00862000E-01
					-8.84502000E-02	 2.55769000E+00	-1.09576000E-01
					 6.75664000E-02	 2.58927000E+00	-1.14854000E-01
					 2.28368000E-01	 2.57199000E+00	-1.16793000E-01
					 3.89170000E-01	 2.50595000E+00	-1.15736000E-01
					 5.45560000E-01	 2.39321000E+00	-1.12115000E-01
					 6.94870000E-01	 2.23597000E+00	-1.07782000E-01
					-2.69067000E-01	 2.23538000E-01	-1.12085000E-01
					-4.34753000E-01	 4.50172000E-01	-9.99225000E-02
					-5.48025000E-01	 7.08728000E-01	-7.55339000E-02
					-6.22381000E-01	 9.77348000E-01	-4.54341000E-02
					-6.59809000E-01	 1.24821000E+00	-1.64822000E-02
					-6.61874000E-01	 1.51272000E+00	 1.00856000E-02
					-6.30547000E-01	 1.76296000E+00	 3.39651000E-02
					-5.68563000E-01	 1.99132000E+00	 5.51256000E-02
					-4.79284000E-01	 2.19074000E+00	 7.34558000E-02
					-3.66591000E-01	 2.35494000E+00	 8.87690000E-02
					-2.34776000E-01	 2.47863000E+00	 1.00862000E-01
					-8.84502000E-02	 2.55769000E+00	 1.09576000E-01
					 6.75664000E-02	 2.58927000E+00	 1.14854000E-01
					 2.28368000E-01	 2.57199000E+00	 1.16793000E-01
					 3.89170000E-01	 2.50595000E+00	 1.15736000E-01
					 5.45560000E-01	 2.39321000E+00	 1.12115000E-01
					 6.94870000E-01	 2.23597000E+00	 1.07782000E-01
					 8.47457000E-01	 2.02835000E+00	 5.74327000E-02
					 8.51346000E-01	 2.01923000E+00	 1.91798000E-02
					 8.51346000E-01	 2.01923000E+00	-1.91798000E-02
					 8.47457000E-01	 2.02835000E+00	-5.74327000E-02
					 6.10707000E-01	 2.06091000E+00	 7.14076000E-02
					 4.19052000E-01	 2.06530000E+00	 4.80525000E-02
					 2.57002000E-01	 2.06231000E+00	 2.89883000E-02
					 1.20617000E-01	 2.05630000E+00	 1.33833000E-02
					-8.64087000E-01	-1.39909000E-01	-2.35887000E-02
					-1.06376000E+00	-1.36105000E-01	-2.66082000E-02
					-4.00094000E-08	 1.58415000E+00	 8.32866000E-09
					-3.08969000E-08	 1.83222000E+00	 4.88277000E-09
					-2.64137000E-01	 1.13802000E+00	-2.25256000E-02
					-1.79179000E-01	 1.22254000E+00	-1.85064000E-02
					-1.06246000E-01	 1.27771000E+00	-1.42354000E-02
					-5.05819000E-02	 1.30598000E+00	-6.60188000E-03
					-7.42899000E-01	 1.75169000E+00	 5.71590000E-02
					-5.83924000E-01	 1.40896000E+00	 1.92595000E-02
					-4.00094000E-08	 1.58415000E+00	-8.32866000E-09
					-3.08969000E-08	 1.83222000E+00	-4.88276000E-09
					-4.93046000E-08	 1.32006000E+00	 7.91463000E-09
					-4.92830000E-08	 1.31927000E+00	 2.69622000E-09
					-4.92830000E-08	 1.31927000E+00	-2.69622000E-09
					-4.93046000E-08	 1.32006000E+00	-7.91464000E-09
					-3.76602000E-01	 1.00420000E+00	 1.51690000E-02
					-3.81613000E-01	 1.00001000E+00	 5.05998000E-03
					-3.81613000E-01	 1.00001000E+00	-5.05998000E-03
					-3.76602000E-01	 1.00420000E+00	-1.51690000E-02
					-2.64137000E-01	 1.13802000E+00	 2.25256000E-02
					-1.79179000E-01	 1.22254000E+00	 1.85064000E-02
					-1.06246000E-01	 1.27771000E+00	 1.42354000E-02
					-5.05819000E-02	 1.30598000E+00	 6.60188000E-03
					-7.42899000E-01	 1.75169000E+00	-5.71590000E-02
					-5.83924000E-01	 1.40896000E+00	-1.92595000E-02
					 7.42898000E-01	 1.75169000E+00	 5.71590000E-02
					 5.83925000E-01	 1.40896000E+00	 1.92595000E-02
					 5.05818000E-02	 1.30598000E+00	-6.60191000E-03
					 1.06246000E-01	 1.27771000E+00	-1.42354000E-02
					 1.79179000E-01	 1.22254000E+00	-1.85064000E-02
					 2.64136000E-01	 1.13802000E+00	-2.25256000E-02
					 5.05818000E-02	 1.30598000E+00	 6.60191000E-03
					 1.06246000E-01	 1.27771000E+00	 1.42354000E-02
					 1.79179000E-01	 1.22254000E+00	 1.85064000E-02
					 2.64136000E-01	 1.13802000E+00	 2.25256000E-02
					 3.76602000E-01	 1.00420000E+00	-1.51690000E-02
					 3.81614000E-01	 1.00001000E+00	-5.05997000E-03
					 3.81614000E-01	 1.00001000E+00	 5.05997000E-03
					 3.76602000E-01	 1.00420000E+00	 1.51690000E-02
					 7.42898000E-01	 1.75169000E+00	-5.71590000E-02
					 5.83925000E-01	 1.40896000E+00	-1.92595000E-02
					-6.51735000E-01	 3.30682000E-01	-2.18135000E-02
					-5.25549000E-01	 7.29191000E-01	-2.44623000E-02
					-1.06078000E+00	 1.49397000E+00	-7.20875000E-02
					-1.24092000E+00	 7.99255000E-01	-3.60458000E-02
					-1.31418000E+00	-1.26696000E-01	 1.78539000E-02
					-1.31499000E+00	-1.24293000E-01	 5.95723000E-03
					-1.31499000E+00	-1.24293000E-01	-5.95723000E-03
					-1.31418000E+00	-1.26696000E-01	-1.78539000E-02
					-1.06078000E+00	 1.49397000E+00	 7.20875000E-02
					-1.24092000E+00	 7.99255000E-01	 3.60458000E-02
					-6.51735000E-01	 3.30682000E-01	 2.18135000E-02
					-5.25549000E-01	 7.29191000E-01	 2.44623000E-02
					-8.64087000E-01	-1.39909000E-01	 2.35887000E-02
					-1.06376000E+00	-1.36105000E-01	 2.66082000E-02
					-6.88595000E-01	-1.38366000E-01	-1.23626000E-02
					-6.92249000E-01	-1.36042000E-01	-4.11736000E-03
					-6.92249000E-01	-1.36042000E-01	 4.11736000E-03
					-6.88595000E-01	-1.38366000E-01	 1.23626000E-02
					-7.02090000E-08	 1.02332000E+00	 1.96491000E-08
					-4.17003000E-02	 1.31049000E-01	-5.91861000E-02
					-2.32692000E-02	 3.82517000E-01	-9.23725000E-02
					-4.39418000E-04	 5.82149000E-01	-1.02647000E-01
					 1.34141000E-02	 7.21006000E-01	-8.72505000E-02
					 1.20325000E-02	 8.00581000E-01	-5.00597000E-02
					-4.06104000E-01	-1.46913000E-01	-1.56753000E-02
					-7.02090000E-08	 1.02332000E+00	-1.96491000E-08
					-7.05402000E-08	 8.45975000E-01	-1.67394000E-08
					-7.11523000E-08	 8.36686000E-01	-4.22560000E-09
					-7.11523000E-08	 8.36686000E-01	 4.22561000E-09
					-7.05402000E-08	 8.45975000E-01	 1.67394000E-08
					-2.80366000E-02	-1.46558000E-01	 6.57831000E-03
					-4.01030000E-02	-1.44271000E-01	 2.08668000E-03
					-4.01030000E-02	-1.44271000E-01	-2.08668000E-03
					-2.80366000E-02	-1.46558000E-01	-6.57831000E-03
					 1.20325000E-02	 8.00581000E-01	 5.00597000E-02
					 1.34141000E-02	 7.21006000E-01	 8.72505000E-02
					-4.39418000E-04	 5.82149000E-01	 1.02647000E-01
					-2.32692000E-02	 3.82517000E-01	 9.23725000E-02
					-4.17003000E-02	 1.31049000E-01	 5.91861000E-02
					-4.06104000E-01	-1.46913000E-01	 1.56753000E-02
					 5.25549000E-01	 7.29191000E-01	 2.44622000E-02
					 6.51735000E-01	 3.30682000E-01	 2.18135000E-02
					 1.06078000E+00	 1.49397000E+00	 7.20875000E-02
					 1.24092000E+00	 7.99255000E-01	 3.60458000E-02
					 1.31418000E+00	-1.26696000E-01	-1.78539000E-02
					 1.31499000E+00	-1.24293000E-01	-5.95723000E-03
					 1.31499000E+00	-1.24293000E-01	 5.95723000E-03
					 1.31418000E+00	-1.26696000E-01	 1.78539000E-02
					 1.06078000E+00	 1.49397000E+00	-7.20875000E-02
					 1.24092000E+00	 7.99255000E-01	-3.60458000E-02
					 1.06376000E+00	-1.36105000E-01	-2.66082000E-02
					 8.64087000E-01	-1.39909000E-01	-2.35887000E-02
					 5.25549000E-01	 7.29191000E-01	-2.44622000E-02
					 6.51735000E-01	 3.30682000E-01	-2.18135000E-02
					 1.06376000E+00	-1.36105000E-01	 2.66082000E-02
					 8.64087000E-01	-1.39909000E-01	 2.35887000E-02
					 6.88595000E-01	-1.38366000E-01	 1.23626000E-02
					 6.92249000E-01	-1.36042000E-01	 4.11736000E-03
					 6.92249000E-01	-1.36042000E-01	-4.11736000E-03
					 6.88595000E-01	-1.38366000E-01	-1.23626000E-02
					 4.06104000E-01	-1.46913000E-01	-1.56753000E-02
					-1.20326000E-02	 8.00581000E-01	 5.00597000E-02
					-1.34143000E-02	 7.21006000E-01	 8.72505000E-02
					 4.39160000E-04	 5.82149000E-01	 1.02647000E-01
					 2.32689000E-02	 3.82517000E-01	 9.23724000E-02
					 4.17000000E-02	 1.31049000E-01	 5.91862000E-02
					 4.17000000E-02	 1.31049000E-01	-5.91862000E-02
					 2.32689000E-02	 3.82517000E-01	-9.23724000E-02
					 4.39160000E-04	 5.82149000E-01	-1.02647000E-01
					-1.34143000E-02	 7.21006000E-01	-8.72505000E-02
					-1.20326000E-02	 8.00581000E-01	-5.00597000E-02
					 4.06104000E-01	-1.46913000E-01	 1.56753000E-02
					 2.80368000E-02	-1.46558000E-01	-6.57831000E-03
					 4.01032000E-02	-1.44271000E-01	-2.08668000E-03
					 4.01032000E-02	-1.44271000E-01	 2.08668000E-03
					 2.80368000E-02	-1.46558000E-01	 6.57831000E-03
					-4.44122000E-01	-9.95398000E-01	-8.99580000E-03
					-6.05129000E-01	-6.11216000E-01	-1.72833000E-02
					-1.07657000E+00	-1.02362000E+00	 9.30798000E-02
					-7.43256000E-01	-1.61107000E+00	 1.25198000E-01
					-3.88836000E-01	-1.98211000E+00	 8.73938000E-02
					-3.92229000E-01	-1.96897000E+00	 2.91609000E-02
					-3.92229000E-01	-1.96897000E+00	-2.91609000E-02
					-3.88836000E-01	-1.98211000E+00	-8.73938000E-02
					-1.07657000E+00	-1.02362000E+00	-9.30798000E-02
					-7.43256000E-01	-1.61107000E+00	-1.25198000E-01
					-4.44122000E-01	-9.95398000E-01	 8.99580000E-03
					-6.05129000E-01	-6.11216000E-01	 1.72833000E-02
					-4.32950000E-01	-1.82464000E+00	 9.92011000E-02
					-3.97659000E-01	-1.57928000E+00	 5.36508000E-02
					-4.32950000E-01	-1.82464000E+00	-9.92011000E-02
					-3.97659000E-01	-1.57928000E+00	-5.36508000E-02
					-2.81520000E-01	-1.24082000E+00	 5.44585000E-04
					-2.86195000E-01	-1.23219000E+00	 1.97165000E-04
					-2.86195000E-01	-1.23219000E+00	-1.97165000E-04
					-2.81520000E-01	-1.24082000E+00	-5.44585000E-04
					 3.06729000E-02	-1.08772000E+00	 4.73249000E-02
					 4.48825000E-02	-1.01185000E+00	 8.06557000E-02
					 3.48004000E-02	-8.77392000E-01	 9.07589000E-02
					 6.46906000E-03	-6.81091000E-01	 7.47785000E-02
					-2.49674000E-02	-4.31473000E-01	 3.70197000E-02
					-5.55803000E-08	-1.27207000E+00	-1.71379000E-08
					-2.94557000E-02	-2.05711000E+00	-2.29939000E-02
					-7.46968000E-02	-2.05764000E+00	-4.83016000E-02
					-1.45393000E-01	-2.05168000E+00	-7.72525000E-02
					-2.45023000E-01	-2.03574000E+00	-1.11031000E-01
					-2.00089000E-02	-1.50988000E+00	 1.16891000E-03
					-4.91368000E-02	-1.48817000E+00	 3.50079000E-03
					-1.00622000E-01	-1.44287000E+00	 2.47553000E-03
					-1.73464000E-01	-1.37035000E+00	 1.24477000E-03
					-5.57770000E-08	-1.12356000E+00	 1.44605000E-08
					-5.65700000E-08	-1.10953000E+00	 3.49551000E-09
					-5.65700000E-08	-1.10953000E+00	-3.49546000E-09
					-5.57770000E-08	-1.12356000E+00	-1.44605000E-08
					-2.49674000E-02	-4.31473000E-01	-3.70197000E-02
					 6.46906000E-03	-6.81091000E-01	-7.47785000E-02
					 3.48004000E-02	-8.77392000E-01	-9.07589000E-02
					 4.48825000E-02	-1.01185000E+00	-8.06557000E-02
					 3.06729000E-02	-1.08772000E+00	-4.73249000E-02
					-3.72100000E-08	-1.51381000E+00	 6.81924000E-09
					-3.72978000E-08	-1.50875000E+00	 2.32348000E-09
					-3.72978000E-08	-1.50875000E+00	-2.32343000E-09