<?xml version="1.0"?>
<VTKFile type="UnstructuredGrid" version="0.1" byte_order="LittleEndian">
	<UnstructuredGrid>
		<Piece NumberOfPoints="3432" NumberOfCells="2560">
			<Points>
				<DataArray type="Float64" NumberOfComponents="3" format="ascii">
					 0.00000000E+00	 0.00000000E+00	 1.27000000E-02
					 0.00000000E+00	 1.27000000E-02	 1.27000000E-02
					 0.00000000E+00	 1.27000000E-02	 0.00000000E+00
					 0.00000000E+00	 0.00000000E+00	 0.00000000E+00
					 4.50000000E-02	 1.27000000E-02	 1.27000000E-02
					 4.50000000E-02	 0.00000000E+00	 1.27000000E-02
					 4.50000000E-02	 1.27000000E-02	 0.00000000E+00
					 4.50000000E-02	 0.00000000E+00	 0.00000000E+00
					 0.00000000E+00	 2.54000000E-02	 1.27000000E-02
					 0.00000000E+00	 2.54000000E-02	 0.00000000E+00
					 4.50000000E-02	 2.54000000E-02	 1.27000000E-02
					 4.50000000E-02	 2.54000000E-02	 0.00000000E+00
					 5.12690000E-02	 1.27000000E-02	 1.27000000E-02
					 5.38263000E-02	 6.52625000E-03	 1.27000000E-02
					 5.12690000E-02	 1.27000000E-02	 0.00000000E+00
					 5.38263000E-02	 6.52625000E-03	 0.00000000E+00
					 5.38263000E-02	 1.88737000E-02	 0.00000000E+00
					 5.38263000E-02	 1.88737000E-02	 1.27000000E-02
					 6.00000000E-02	 0.00000000E+00	 0.00000000E+00
					 6.00000000E-02	 0.00000000E+00	 1.27000000E-02
					 6.00000000E-02	 3.96900000E-03	 0.00000000E+00
					 6.00000000E-02	 3.96900000E-03	 1.27000000E-02
					 5.57840000E-02	 1.27000000E-02	 1.27000000E-02
					 6.00000000E-02	 8.48400000E-03	 1.27000000E-02
					 5.57840000E-02	 1.27000000E-02	 0.00000000E+00
					 6.00000000E-02	 8.48400000E-03	 0.00000000E+00
					 6.00000000E-02	 2.54000000E-02	 0.00000000E+00
					 6.00000000E-02	 2.54000000E-02	 1.27000000E-02
					 6.00000000E-02	 2.14310000E-02	 0.00000000E+00
					 6.00000000E-02	 2.14310000E-02	 1.27000000E-02
					 6.00000000E-02	 1.69160000E-02	 0.00000000E+00
					 6.00000000E-02	 1.69160000E-02	 1.27000000E-02
					 7.50000000E-02	 0.00000000E+00	 0.00000000E+00
					 7.50000000E-02	 0.00000000E+00	 1.27000000E-02
					 6.61737000E-02	 6.52625000E-03	 0.00000000E+00
					 6.61737000E-02	 6.52625000E-03	 1.27000000E-02
					 6.42160000E-02	 1.27000000E-02	 1.27000000E-02
					 6.87310000E-02	 1.27000000E-02	 1.27000000E-02
					 6.42160000E-02	 1.27000000E-02	 0.00000000E+00
					 6.87310000E-02	 1.27000000E-02	 0.00000000E+00
					 7.50000000E-02	 2.54000000E-02	 0.00000000E+00
					 7.50000000E-02	 2.54000000E-02	 1.27000000E-02
					 6.61737000E-02	 1.88737000E-02	 0.00000000E+00
					 6.61737000E-02	 1.88737000E-02	 1.27000000E-02
					 1.20000000E-01	 0.00000000E+00	 0.00000000E+00
					 1.20000000E-01	 0.00000000E+00	 1.27000000E-02
					 7.50000000E-02	 1.27000000E-02	 0.00000000E+00
					 1.20000000E-01	 1.27000000E-02	 0.00000000E+00
					 1.20000000E-01	 1.27000000E-02	 1.27000000E-02
					 7.50000000E-02	 1.27000000E-02	 1.27000000E-02
					 1.20000000E-01	 2.54000000E-02	 0.00000000E+00
					 1.20000000E-01	 2.54000000E-02	 1.27000000E-02
					 4.50000000E-02	 1.01600000E-02	 1.27000000E-02
					 4.50000000E-02	 7.62000000E-03	 1.27000000E-02
					 4.50000000E-02	 5.08000000E-03	 1.27000000E-02
					 4.50000000E-02	 2.54000000E-03	 1.27000000E-02
					 0.00000000E+00	 2.54000000E-03	 1.27000000E-02
					 0.00000000E+00	 5.08000000E-03	 1.27000000E-02
					 0.00000000E+00	 7.62000000E-03	 1.27000000E-02
					 0.00000000E+00	 1.01600000E-02	 1.27000000E-02
					 0.00000000E+00	 1.27000000E-02	 2.54000000E-03
					 0.00000000E+00	 1.27000000E-02	 5.08000000E-03
					 0.00000000E+00	 1.27000000E-02	 7.62000000E-03
					 0.00000000E+00	 1.27000000E-02	 1.01600000E-02
					 0.00000000E+00	 2.54000000E-03	 0.00000000E+00
					 0.00000000E+00	 5.08000000E-03	 0.00000000E+00
					 0.00000000E+00	 7.62000000E-03	 0.00000000E+00
					 0.00000000E+00	 1.01600000E-02	 0.00000000E+00
					 0.00000000E+00	 0.00000000E+00	 2.54000000E-03
					 0.00000000E+00	 0.00000000E+00	 5.08000000E-03
					 0.00000000E+00	 0.00000000E+00	 7.62000000E-03
					 0.00000000E+00	 0.00000000E+00	 1.01600000E-02
					 4.25000000E-02	 1.27000000E-02	 1.27000000E-02
					 4.00000000E-02	 1.27000000E-02	 1.27000000E-02
					 3.75000000E-02	 1.27000000E-02	 1.27000000E-02
					 3.50000000E-02	 1.27000000E-02	 1.27000000E-02
					 3.25000000E-02	 1.27000000E-02	 1.27000000E-02
					 3.00000000E-02	 1.27000000E-02	 1.27000000E-02
					 2.75000000E-02	 1.27000000E-02	 1.27000000E-02
					 2.50000000E-02	 1.27000000E-02	 1.27000000E-02
					 2.25000000E-02	 1.27000000E-02	 1.27000000E-02
					 2.00000000E-02	 1.27000000E-02	 1.27000000E-02
					 1.75000000E-02	 1.27000000E-02	 1.27000000E-02
					 1.50000000E-02	 1.27000000E-02	 1.27000000E-02
					 1.25000000E-02	 1.27000000E-02	 1.27000000E-02
					 1.00000000E-02	 1.27000000E-02	 1.27000000E-02
					 7.50000000E-03	 1.27000000E-02	 1.27000000E-02
					 5.00000000E-03	 1.27000000E-02	 1.27000000E-02
					 2.50000000E-03	 1.27000000E-02	 1.27000000E-02
					 2.50000000E-03	 0.00000000E+00	 1.27000000E-02
					 5.00000000E-03	 0.00000000E+00	 1.27000000E-02
					 7.50000000E-03	 0.00000000E+00	 1.27000000E-02
					 1.00000000E-02	 0.00000000E+00	 1.27000000E-02
					 1.25000000E-02	 0.00000000E+00	 1.27000000E-02
					 1.50000000E-02	 0.00000000E+00	 1.27000000E-02
					 1.75000000E-02	 0.00000000E+00	 1.27000000E-02
					 2.00000000E-02	 0.00000000E+00	 1.27000000E-02
					 2.25000000E-02	 0.00000000E+00	 1.27000000E-02
					 2.50000000E-02	 0.00000000E+00	 1.27000000E-02
					 2.75000000E-02	 0.00000000E+00	 1.27000000E-02
					 3.00000000E-02	 0.00000000E+00	 1.27000000E-02
					 3.25000000E-02	 0.00000000E+00	 1.27000000E-02
					 3.50000000E-02	 0.00000000E+00	 1.27000000E-02
					 3.75000000E-02	 0.00000000E+00	 1.27000000E-02
					 4.00000000E-02	 0.00000000E+00	 1.27000000E-02
					 4.25000000E-02	 0.00000000E+00	 1.27000000E-02
					 4.25000000E-02	 1.27000000E-02	 0.00000000E+00
					 4.00000000E-02	 1.27000000E-02	 0.00000000E+00
					 3.75000000E-02	 1.27000000E-02	 0.00000000E+00
					 3.50000000E-02	 1.27000000E-02	 0.00000000E+00
					 3.25000000E-02	 1.27000000E-02	 0.00000000E+00
					 3.00000000E-02	 1.27000000E-02	 0.00000000E+00
					 2.75000000E-02	 1.27000000E-02	 0.00000000E+00
					 2.50000000E-02	 1.27000000E-02	 0.00000000E+00
					 2.25000000E-02	 1.27000000E-02	 0.00000000E+00
					 2.00000000E-02	 1.27000000E-02	 0.00000000E+00
					 1.75000000E-02	 1.27000000E-02	 0.00000000E+00
					 1.50000000E-02	 1.27000000E-02	 0.00000000E+00
					 1.25000000E-02	 1.27000000E-02	 0.00000000E+00
					 1.00000000E-02	 1.27000000E-02	 0.00000000E+00
					 7.50000000E-03	 1.27000000E-02	 0.00000000E+00
					 5.00000000E-03	 1.27000000E-02	 0.00000000E+00
					 2.50000000E-03	 1.27000000E-02	 0.00000000E+00
					 4.50000000E-02	 1.27000000E-02	 1.01600000E-02
					 4.50000000E-02	 1.27000000E-02	 7.62000000E-03
					 4.50000000E-02	 1.27000000E-02	 5.08000000E-03
					 4.50000000E-02	 1.27000000E-02	 2.54000000E-03
					 4.50000000E-02	 1.01600000E-02	 0.00000000E+00
					 4.50000000E-02	 7.62000000E-03	 0.00000000E+00
					 4.50000000E-02	 5.08000000E-03	 0.00000000E+00
					 4.50000000E-02	 2.54000000E-03	 0.00000000E+00
					 2.50000000E-03	 0.00000000E+00	 0.00000000E+00
					 5.00000000E-03	 0.00000000E+00	 0.00000000E+00
					 7.50000000E-03	 0.00000000E+00	 0.00000000E+00
					 1.00000000E-02	 0.00000000E+00	 0.00000000E+00
					 1.25000000E-02	 0.00000000E+00	 0.00000000E+00
					 1.50000000E-02	 0.00000000E+00	 0.00000000E+00
					 1.75000000E-02	 0.00000000E+00	 0.00000000E+00
					 2.00000000E-02	 0.00000000E+00	 0.00000000E+00
					 2.25000000E-02	 0.00000000E+00	 0.00000000E+00
					 2.50000000E-02	 0.00000000E+00	 0.00000000E+00
					 2.75000000E-02	 0.00000000E+00	 0.00000000E+00
					 3.00000000E-02	 0.00000000E+00	 0.00000000E+00
					 3.25000000E-02	 0.00000000E+00	 0.00000000E+00
					 3.50000000E-02	 0.00000000E+00	 0.00000000E+00
					 3.75000000E-02	 0.00000000E+00	 0.00000000E+00
					 4.00000000E-02	 0.00000000E+00	 0.00000000E+00
					 4.25000000E-02	 0.00000000E+00	 0.00000000E+00
					 4.50000000E-02	 0.00000000E+00	 2.54000000E-03
					 4.50000000E-02	 0.00000000E+00	 5.08000000E-03
					 4.50000000E-02	 0.00000000E+00	 7.62000000E-03
					 4.50000000E-02	 0.00000000E+00	 1.01600000E-02
					 4.50000000E-02	 2.28600000E-02	 1.27000000E-02
					 4.50000000E-02	 2.03200000E-02	 1.27000000E-02
					 4.50000000E-02	 1.77800000E-02	 1.27000000E-02
					 4.50000000E-02	 1.52400000E-02	 1.27000000E-02
					 0.00000000E+00	 1.52400000E-02	 1.27000000E-02
					 0.00000000E+00	 1.77800000E-02	 1.27000000E-02
					 0.00000000E+00	 2.03200000E-02	 1.27000000E-02
					 0.00000000E+00	 2.28600000E-02	 1.27000000E-02
					 0.00000000E+00	 2.54000000E-02	 2.54000000E-03
					 0.00000000E+00	 2.54000000E-02	 5.08000000E-03
					 0.00000000E+00	 2.54000000E-02	 7.62000000E-03
					 0.00000000E+00	 2.54000000E-02	 1.01600000E-02
					 0.00000000E+00	 1.52400000E-02	 0.00000000E+00
					 0.00000000E+00	 1.77800000E-02	 0.00000000E+00
					 0.00000000E+00	 2.03200000E-02	 0.00000000E+00
					 0.00000000E+00	 2.28600000E-02	 0.00000000E+00
					 2.50000000E-03	 2.54000000E-02	 1.27000000E-02
					 5.00000000E-03	 2.54000000E-02	 1.27000000E-02
					 7.50000000E-03	 2.54000000E-02	 1.27000000E-02
					 1.00000000E-02	 2.54000000E-02	 1.27000000E-02
					 1.25000000E-02	 2.54000000E-02	 1.27000000E-02
					 1.50000000E-02	 2.54000000E-02	 1.27000000E-02
					 1.75000000E-02	 2.54000000E-02	 1.27000000E-02
					 2.00000000E-02	 2.54000000E-02	 1.27000000E-02
					 2.25000000E-02	 2.54000000E-02	 1.27000000E-02
					 2.50000000E-02	 2.54000000E-02	 1.27000000E-02
					 2.75000000E-02	 2.54000000E-02	 1.27000000E-02
					 3.00000000E-02	 2.54000000E-02	 1.27000000E-02
					 3.25000000E-02	 2.54000000E-02	 1.27000000E-02
					 3.50000000E-02	 2.54000000E-02	 1.27000000E-02
					 3.75000000E-02	 2.54000000E-02	 1.27000000E-02
[...]
			<PointData>
				<DataArray type="Float32" Name="U" NumberOfComponents="3" ComponentName0="D1" ComponentName1="D2" ComponentName2="D3" format="ascii">
					 0.00000000E+00	 0.00000000E+00	 0.00000000E+00
					 0.00000000E+00	 0.00000000E+00	 0.00000000E+00
					 0.00000000E+00	 0.00000000E+00	 0.00000000E+00
					 0.00000000E+00	 0.00000000E+00	 0.00000000E+00
					-8.09290000E-09	 2.43648000E+00	-2.50531000E-10
					 2.51251000E-01	 2.40010000E+00	 5.37824000E-02
					-8.09290000E-09	 2.43648000E+00	 2.50727000E-10
					 2.51251000E-01	 2.40010000E+00	-5.37824000E-02
					 0.00000000E+00	 0.00000000E+00	 0.00000000E+00
					 0.00000000E+00	 0.00000000E+00	 0.00000000E+00
					-2.51251000E-01	 2.40010000E+00	-5.37824000E-02
					-2.51251000E-01	 2.40010000E+00	 5.37824000E-02
					-3.46540000E-09	 2.57049000E+00	-2.11284000E-09
					-3.45516000E-02	 2.57654000E+00	 3.13764000E-02
					-3.46540000E-09	 2.57049000E+00	 2.11302000E-09
					-3.45516000E-02	 2.57654000E+00	-3.13764000E-02
					 3.45516000E-02	 2.57654000E+00	 3.13764000E-02
					 3.45516000E-02	 2.57654000E+00	-3.13764000E-02
					-2.63721000E-01	 2.49925000E+00	-7.00733000E-02
					-2.63721000E-01	 2.49925000E+00	 7.00733000E-02
					-1.90763000E-01	 2.52549000E+00	-4.85039000E-02
					-1.90763000E-01	 2.52549000E+00	 4.85039000E-02
					 6.31568000E-10	 2.58126000E+00	-5.83285000E-09
					-1.05356000E-01	 2.54222000E+00	 2.75545000E-02
					 6.31563000E-10	 2.58126000E+00	 5.83304000E-09
					-1.05356000E-01	 2.54222000E+00	-2.75545000E-02
					 2.63721000E-01	 2.49925000E+00	 7.00733000E-02
					 2.63721000E-01	 2.49925000E+00	-7.00733000E-02
					 1.90763000E-01	 2.52549000E+00	 4.85039000E-02
					 1.90763000E-01	 2.52549000E+00	-4.85039000E-02
					 1.05356000E-01	 2.54222000E+00	 2.75545000E-02
					 1.05356000E-01	 2.54222000E+00	-2.75545000E-02
					-8.31634000E-01	 1.83687000E+00	-6.33067000E-02
					-8.31634000E-01	 1.83687000E+00	 6.33067000E-02
					-2.50920000E-01	 2.36731000E+00	-2.99168000E-02
					-2.50920000E-01	 2.36731000E+00	 2.99168000E-02
					-4.97771000E-08	 2.45577000E+00	-2.89519000E-09
					-4.79390000E-08	 2.25906000E+00	-1.09328000E-09
					-4.97772000E-08	 2.45577000E+00	 2.89535000E-09
					-4.79390000E-08	 2.25906000E+00	 1.09342000E-09
					 8.31634000E-01	 1.83687000E+00	 6.33067000E-02
					 8.31634000E-01	 1.83687000E+00	-6.33067000E-02
					 2.50920000E-01	 2.36731000E+00	 2.99168000E-02
					 2.50920000E-01	 2.36731000E+00	-2.99168000E-02
					-1.54900000E+00	-3.22721000E+00	 8.35693000E-04
					-1.54900000E+00	-3.22721000E+00	-8.35693000E-04
					-4.53393000E-08	 1.87972000E+00	 1.42461000E-10
					-4.70864000E-08	-3.21725000E+00	-3.59357000E-12
					-4.70863000E-08	-3.21725000E+00	 3.21920000E-12
					-4.53393000E-08	 1.87972000E+00	-1.42337000E-10
					 1.54900000E+00	-3.22721000E+00	-8.35693000E-04
					 1.54900000E+00	-3.22721000E+00	 8.35693000E-04
					 4.07603000E-02	 2.43491000E+00	 1.00147000E-02
					 8.42621000E-02	 2.43019000E+00	 2.01560000E-02
					 1.32992000E-01	 2.42238000E+00	 3.06111000E-02
					 1.88918000E-01	 2.41207000E+00	 4.19450000E-02
					 0.00000000E+00	 0.00000000E+00	 0.00000000E+00
					 0.00000000E+00	 0.00000000E+00	 0.00000000E+00
					 0.00000000E+00	 0.00000000E+00	 0.00000000E+00
					 0.00000000E+00	 0.00000000E+00	 0.00000000E+00
					 0.00000000E+00	 0.00000000E+00	 0.00000000E+00
					 0.00000000E+00	 0.00000000E+00	 0.00000000E+00
					 0.00000000E+00	 0.00000000E+00	 0.00000000E+00
					 0.00000000E+00	 0.00000000E+00	 0.00000000E+00
					 0.00000000E+00	 0.00000000E+00	 0.00000000E+00
					 0.00000000E+00	 0.00000000E+00	 0.00000000E+00
					 0.00000000E+00	 0.00000000E+00	 0.00000000E+00
					 0.00000000E+00	 0.00000000E+00	 0.00000000E+00
					 0.00000000E+00	 0.00000000E+00	 0.00000000E+00
					 0.00000000E+00	 0.00000000E+00	 0.00000000E+00
					 0.00000000E+00	 0.00000000E+00	 0.00000000E+00
					 0.00000000E+00	 0.00000000E+00	 0.00000000E+00
					-8.24164000E-09	 2.35062000E+00	 9.18593000E-11
					-8.66385000E-09	 2.24731000E+00	 3.01397000E-10
					-8.80837000E-09	 2.12799000E+00	 4.36666000E-10
					-8.66509000E-09	 1.99449000E+00	 4.93917000E-10
					-8.31325000E-09	 1.84884000E+00	 5.12616000E-10
					-7.82582000E-09	 1.69320000E+00	 5.13915000E-10
					-7.25350000E-09	 1.52983000E+00	 5.08837000E-10
					-6.62873000E-09	 1.36109000E+00	 5.02543000E-10
					-5.97179000E-09	 1.18944000E+00	 4.97456000E-10
					-5.29522000E-09	 1.01744000E+00	 4.94798000E-10
					-4.60682000E-09	 8.47723000E-01	 4.95402000E-10
					-3.91218000E-09	 6.83077000E-01	 5.00034000E-10
					-3.21724000E-09	 5.26456000E-01	 5.09100000E-10
					-2.53097000E-09	 3.81165000E-01	 5.20818000E-10
					-1.86663000E-09	 2.51079000E-01	 5.27282000E-10
					-1.23982000E-09	 1.40812000E-01	 5.02281000E-10
					-6.44376000E-10	 5.52971000E-02	 4.05161000E-10
					 1.44538000E-01	 9.70703000E-02	-6.46035000E-02
					 2.47318000E-01	 1.88795000E-01	-6.67852000E-02
					 3.33320000E-01	 3.01673000E-01	-6.13943000E-02
					 4.07883000E-01	 4.28448000E-01	-5.18463000E-02
					 4.70677000E-01	 5.67569000E-01	-4.18724000E-02
					 5.21287000E-01	 7.16577000E-01	-3.21909000E-02
					 5.59483000E-01	 8.73077000E-01	-2.29346000E-02
					 5.85319000E-01	 1.03456000E+00	-1.40354000E-02
					 5.99017000E-01	 1.19849000E+00	-5.44489000E-03
					 6.00914000E-01	 1.36233000E+00	 2.84299000E-03
					 5.91425000E-01	 1.52357000E+00	 1.08046000E-02
					 5.71035000E-01	 1.67982000E+00	 1.84048000E-02
					 5.40292000E-01	 1.82879000E+00	 2.56112000E-02
					 4.99804000E-01	 1.96832000E+00	 3.24018000E-02
					 4.50226000E-01	 2.09644000E+00	 3.87848000E-02
					 3.92247000E-01	 2.21154000E+00	 4.47275000E-02
					 3.26166000E-01	 2.31175000E+00	 5.06564000E-02
					-8.24164000E-09	 2.35062000E+00	-9.16604000E-11
					-8.66385000E-09	 2.24731000E+00	-3.01197000E-10
					-8.80836000E-09	 2.12799000E+00	-4.36467000E-10
					-8.66508000E-09	 1.99449000E+00	-4.93722000E-10
					-8.31323000E-09	 1.84884000E+00	-5.12429000E-10
					-7.82579000E-09	 1.69320000E+00	-5.13740000E-10
					-7.25347000E-09	 1.52983000E+00	-5.08675000E-10
					-6.62869000E-09	 1.36109000E+00	-5.02396000E-10
					-5.97176000E-09	 1.18944000E+00	-4.97325000E-10
					-5.29518000E-09	 1.01744000E+00	-4.94686000E-10
					-4.60678000E-09	 8.47723000E-01	-4.95307000E-10
					-3.91214000E-09	 6.83077000E-01	-4.99958000E-10
					-3.21720000E-09	 5.26456000E-01	-5.09041000E-10
					-2.53094000E-09	 3.81165000E-01	-5.20775000E-10
					-1.86660000E-09	 2.51079000E-01	-5.27252000E-10
					-1.23980000E-09	 1.40812000E-01	-5.02264000E-10
					-6.44366000E-10	 5.52971000E-02	-4.05153000E-10
					-8.30217000E-09	 2.42837000E+00	-1.48506000E-10
					-8.40112000E-09	 2.42426000E+00	-5.68415000E-11
					-8.40112000E-09	 2.42426000E+00	 5.70395000E-11
					-8.30217000E-09	 2.42837000E+00	 1.48703000E-10
					 4.07603000E-02	 2.43491000E+00	-1.00147000E-02
					 8.42621000E-02	 2.43019000E+00	-2.01560000E-02
					 1.32992000E-01	 2.42238000E+00	-3.06111000E-02
					 1.88918000E-01	 2.41207000E+00	-4.19450000E-02
					 1.44538000E-01	 9.70703000E-02	 6.46035000E-02
					 2.47318000E-01	 1.88795000E-01	 6.67852000E-02
					 3.33320000E-01	 3.01673000E-01	 6.13943000E-02
					 4.07883000E-01	 4.28448000E-01	 5.18463000E-02
					 4.70677000E-01	 5.67569000E-01	 4.18724000E-02
					 5.21287000E-01	 7.16577000E-01	 3.21909000E-02
					 5.59483000E-01	 8.73077000E-01	 2.29346000E-02
					 5.85319000E-01	 1.03456000E+00	 1.40354000E-02
					 5.99017000E-01	 1.19849000E+00	 5.44489000E-03
					 6.00914000E-01	 1.36233000E+00	-2.84299000E-03
					 5.91425000E-01	 1.52357000E+00	-1.08046000E-02
					 5.71035000E-01	 1.67982000E+00	-1.84048000E-02
					 5.40292000E-01	 1.82879000E+00	-2.56112000E-02
					 4.99804000E-01	 1.96832000E+00	-3.24018000E-02
					 4.50226000E-01	 2.09644000E+00	-3.87848000E-02
					 3.92247000E-01	 2.21154000E+00	-4.47275000E-02
					 3.26166000E-01	 2.31175000E+00	-5.06564000E-02
					 2.53438000E-01	 2.39085000E+00	-3.20868000E-02
					 2.54561000E-01	 2.38652000E+00	-1.06581000E-02
					 2.54561000E-01	 2.38652000E+00	 1.06581000E-02
					 2.53438000E-01	 2.39085000E+00	 3.20868000E-02
					-1.88918000E-01	 2.41207000E+00	-4.19450000E-02
					-1.32992000E-01	 2.42238000E+00	-3.06111000E-02
					-8.42621000E-02	 2.43019000E+00	-2.01560000E-02
					-4.07603000E-02	 2.43491000E+00	-1.00147000E-02
					 0.00000000E+00	 0.00000000E+00	 0.00000000E+00
					 0.00000000E+00	 0.00000000E+00	 0.00000000E+00
					 0.00000000E+00	 0.00000000E+00	 0.00000000E+00
					 0.00000000E+00	 0.00000000E+00	 0.00000000E+00
					 0.00000000E+00	 0.00000000E+00	 0.00000000E+00
					 0.00000000E+00	 0.00000000E+00	 0.00000000E+00
					 0.00000000E+00	 0.00000000E+00	 0.00000000E+00
					 0.00000000E+00	 0.00000000E+00	 0.00000000E+00
					 0.00000000E+00	 0.00000000E+00	 0.00000000E+00
					 0.00000000E+00	 0.00000000E+00	 0.00000000E+00
					 0.00000000E+00	 0.00000000E+00	 0.00000000E+00
					 0.00000000E+00	 0.00000000E+00	 0.00000000E+00
					-1.44538000E-01	 9.70703000E-02	 6.46035000E-02
					-2.47318000E-01	 1.88795000E-01	 6.67852000E-02
					-3.33320000E-01	 3.01673000E-01	 6.13943000E-02
					-4.07883000E-01	 4.28448000E-01	 5.18463000E-02
					-4.70677000E-01	 5.67569000E-01	 4.18724000E-02
					-5.21287000E-01	 7.16577000E-01	 3.21909000E-02
					-5.59483000E-01	 8.73077000E-01	 2.29346000E-02
					-5.85319000E-01	 1.03456000E+00	 1.40354000E-02
					-5.99017000E-01	 1.19849000E+00	 5.44489000E-03
					-6.00914000E-01	 1.36233000E+00	-2.84299000E-03
					-5.91425000E-01	 1.52357000E+00	-1.08046000E-02
					-5.71035000E-01	 1.67982000E+00	-1.84048000E-02
					-5.40292000E-01	 1.82879000E+00	-2.56112000E-02
					-4.99804000E-01	 1.96832000E+00	-3.24018000E-02
					-4.50226000E-01	 2.09644000E+00	-3.87848000E-02
					-3.92247000E-01	 2.21154000E+00	-4.47275000E-02
					-3.26166000E-01	 2.31175000E+00	-5.06564000E-02
					-1.44538000E-01	 9.70703000E-02	-6.46035000E-02
					-2.47318000E-01	 1.88795000E-01	-6.67852000E-02
					-3.33320000E-01	 3.01673000E-01	-6.13943000E-02
					-4.07883000E-01	 4.28448000E-01	-5.18463000E-02
					-4.70677000E-01	 5.67569000E-01	-4.18724000E-02
					-5.21287000E-01	 7.16577000E-01	-3.21909000E-02
					-5.59483000E-01	 8.73077000E-01	-2.29346000E-02
					-5.85319000E-01	 1.03456000E+00	-1.40354000E-02
					-5.99017000E-01	 1.19849000E+00	-5.44489000E-03
					-6.00914000E-01	 1.36233000E+00	 2.84299000E-03
					-5.91425000E-01	 1.52357000E+00	 1.08046000E-02
					-5.71035000E-01	 1.67982000E+00	 1.84048000E-02
					-5.40292000E-01	 1.82879000E+00	 2.56112000E-02
					-4.99804000E-01	 1.96832000E+00	 3.24018000E-02
					-4.50226000E-01	 2.09644000E+00	 3.87848000E-02
					-3.92247000E-01	 2.21154000E+00	 4.47275000E-02
					-3.26166000E-01	 2.31175000E+00	 5.06564000E-02
					-2.53438000E-01	 2.39085000E+00	 3.20868000E-02
					-2.54561000E-01	 2.38652000E+00	 1.06581000E-02
					-2.54561000E-01	 2.38652000E+00	-1.06581000E-02
					-2.53438000E-01	 2.39085000E+00	-3.20868000E-02
					-1.88918000E-01	 2.41207000E+00	 4.19450000E-02
					-1.32992000E-01	 2.42238000E+00	 3.06111000E-02
					-8.42621000E-02	 2.43019000E+00	 2.01560000E-02
					-4.07603000E-02	 2.43491000E+00	 1.00147000E-02
					-2.16250000E-01	 2.51880000E+00	 5.55728000E-02
					-2.40787000E-01	 2.51015000E+00	 6.28163000E-02
					-5.89011000E-09	 2.53950000E+00	-6.88369000E-10
					-7.66377000E-09	 2.49489000E+00	-4.28047000E-10
					-1.71642000E-02	 2.57590000E+00	 2.57251000E-02
					-5.32858000E-03	 2.57453000E+00	 1.94667000E-02
					-6.04293000E-04	 2.57233000E+00	 1.31177000E-02
					 1.29730000E-03	 2.57072000E+00	 6.59108000E-03
					 1.24158000E-01	 2.47864000E+00	 4.60436000E-02
					 2.64091000E-02	 2.54092000E+00	 3.89017000E-02
					-5.89012000E-09	 2.53950000E+00	 6.88559000E-10
					-7.66377000E-09	 2.49489000E+00	 4.28240000E-10
					-4.26843000E-09	 2.56075000E+00	-1.23129000E-09
					-4.38435000E-09	 2.55590000E+00	-4.21276000E-10
					-4.38436000E-09	 2.55590000E+00	 4.21462000E-10
					-4.26844000E-09	 2.56075000E+00	 1.23148000E-09
					-3.29439000E-02	 2.56664000E+00	-1.89172000E-02
					-3.23210000E-02	 2.56168000E+00	-6.32674000E-03
					-3.23210000E-02	 2.56168000E+00	 6.32674000E-03
					-3.29439000E-02	 2.56664000E+00	 1.89172000E-02
					-1.71642000E-02	 2.57590000E+00	-2.57251000E-02
					-5.32858000E-03	 2.57453000E+00	-1.94667000E-02
					-6.04293000E-04	 2.57233000E+00	-1.31177000E-02
					 1.29730000E-03	 2.57072000E+00	-6.59108000E-03
					 1.24158000E-01	 2.47864000E+00	-4.60436000E-02
					 2.64091000E-02	 2.54092000E+00	-3.89017000E-02
					-1.24158000E-01	 2.47864000E+00	 4.60436000E-02
					-2.64092000E-02	 2.54092000E+00	 3.89018000E-02
					-1.29731000E-03	 2.57072000E+00	 6.59108000E-03
					 6.04283000E-04	 2.57233000E+00	 1.31177000E-02
					 5.32856000E-03	 2.57453000E+00	 1.94667000E-02
					 1.71642000E-02	 2.57590000E+00	 2.57251000E-02
					-1.29731000E-03	 2.57072000E+00	-6.59108000E-03
					 6.04283000E-04	 2.57233000E+00	-1.31177000E-02
					 5.32856000E-03	 2.57453000E+00	-1.94667000E-02
					 1.71642000E-02	 2.57590000E+00	-2.57251000E-02
					 3.29438000E-02	 2.56664000E+00	 1.89172000E-02
					 3.23210000E-02	 2.56168000E+00	 6.32674000E-03
					 3.23210000E-02	 2.56168000E+00	-6.32674000E-03
					 3.29438000E-02	 2.56664000E+00	-1.89172000E-02
					-1.24158000E-01	 2.47864000E+00	-4.60436000E-02
					-2.64092000E-02	 2.54092000E+00	-3.89018000E-02
					-1.31514000E-01	 2.55451000E+00	 4.62069000E-02
					-7.59161000E-02	 2.57090000E+00	 3.99290000E-02
					 9.83043000E-02	 2.49656000E+00	-5.89380000E-02
					-7.36565000E-02	 2.53640000E+00	-6.51058000E-02
					-2.63297000E-01	 2.48795000E+00	-4.21317000E-02
					-2.63297000E-01	 2.48226000E+00	-1.40390000E-02
					-2.63297000E-01	 2.48226000E+00	 1.40390000E-02
					-2.63297000E-01	 2.48795000E+00	 4.21317000E-02
					 9.83043000E-02	 2.49656000E+00	 5.89380000E-02
					-7.36565000E-02	 2.53640000E+00	 6.51058000E-02
					-1.31514000E-01	 2.55451000E+00	-4.62069000E-02
					-7.59161000E-02	 2.57090000E+00	-3.99290000E-02
					-2.16250000E-01	 2.51880000E+00	-5.55728000E-02
					-2.40787000E-01	 2.51015000E+00	-6.28163000E-02
					-1.90783000E-01	 2.51467000E+00	 2.90202000E-02
					-1.90668000E-01	 2.50921000E+00	 9.66163000E-03
					-1.90668000E-01	 2.50921000E+00	-9.66163000E-03
					-1.90783000E-01	 2.51467000E+00	-2.90202000E-02
					-7.34786000E-10	 2.58532000E+00	-3.37278000E-09
					-8.34204000E-02	 2.55603000E+00	 2.79237000E-02
					-5.94058000E-02	 2.56703000E+00	 2.46283000E-02
					-3.75834000E-02	 2.57466000E+00	 1.89764000E-02
					-2.02336000E-02	 2.57880000E+00	 1.23462000E-02
					-8.20739000E-03	 2.58063000E+00	 5.96207000E-03
					-1.46215000E-01	 2.53428000E+00	 3.66297000E-02
					-7.34791000E-10	 2.58532000E+00	 3.37297000E-09
					-1.03436000E-09	 2.57073000E+00	 3.18841000E-09
					-1.21883000E-09	 2.56579000E+00	 9.25353000E-10
					-1.21883000E-09	 2.56579000E+00	-9.25167000E-10
					-1.03435000E-09	 2.57073000E+00	-3.18822000E-09
					-1.06133000E-01	 2.53283000E+00	-1.53065000E-02
					-1.05625000E-01	 2.52747000E+00	-4.88389000E-03
					-1.05625000E-01	 2.52747000E+00	 4.88389000E-03
					-1.06133000E-01	 2.53283000E+00	 1.53065000E-02
					-8.20739000E-03	 2.58063000E+00	-5.96207000E-03
					-2.02336000E-02	 2.57880000E+00	-1.23462000E-02
					-3.75834000E-02	 2.57466000E+00	-1.89764000E-02
					-5.94058000E-02	 2.56703000E+00	-2.46283000E-02
					-8.34204000E-02	 2.55603000E+00	-2.79237000E-02
					-1.46215000E-01	 2.53428000E+00	-3.66297000E-02
					 7.59161000E-02	 2.57090000E+00	-3.99291000E-02
					 1.31514000E-01	 2.55451000E+00	-4.62069000E-02
					-9.83044000E-02	 2.49656000E+00	 5.89380000E-02
					 7.36565000E-02	 2.53640000E+00	 6.51058000E-02
					 2.63297000E-01	 2.48795000E+00	 4.21317000E-02
					 2.63297000E-01	 2.48226000E+00	 1.40390000E-02
					 2.63297000E-01	 2.48226000E+00	-1.40390000E-02
					 2.63297000E-01	 2.48795000E+00	-4.21317000E-02
					-9.83044000E-02	 2.49656000E+00	-5.89380000E-02
					 7.36565000E-02	 2.53640000E+00	-6.51058000E-02
					 2.40787000E-01	 2.51015000E+00	 6.28163000E-02
					 2.16250000E-01	 2.51880000E+00	 5.55728000E-02
					 7.59161000E-02	 2.57090000E+00	 3.99291000E-02
					 1.31514000E-01	 2.55451000E+00	 4.62069000E-02
					 2.40787000E-01	 2.51015000E+00	-6.28163000E-02
					 2.16250000E-01	 2.51880000E+00	-5.55728000E-02
					 1.90783000E-01	 2.51467000E+00	-2.90202000E-02
					 1.90668000E-01	 2.50921000E+00	-9.66162000E-03
					 1.90668000E-01	 2.50921000E+00	 9.66162000E-03
					 1.90783000E-01	 2.51467000E+00	 2.90202000E-02
					 1.46215000E-01	 2.53428000E+00	 3.66297000E-02
					 8.20740000E-03	 2.58063000E+00	-5.96209000E-03
					 2.02336000E-02	 2.57880000E+00	-1.23462000E-02
					 3.75834000E-02	 2.57466000E+00	-1.89764000E-02
					 5.94058000E-02	 2.56703000E+00	-2.46283000E-02
					 8.34203000E-02	 2.55603000E+00	-2.79237000E-02
					 8.34203000E-02	 2.55603000E+00	 2.79237000E-02
					 5.94058000E-02	 2.56703000E+00	 2.46283000E-02
					 3.75834000E-02	 2.57466000E+00	 1.89764000E-02
					 2.02336000E-02	 2.57880000E+00	 1.23462000E-02
					 8.20740000E-03	 2.58063000E+00	 5.96209000E-03
					 1.46215000E-01	 2.53428000E+00	-3.66297000E-02
					 1.06133000E-01	 2.53283000E+00	 1.53065000E-02
					 1.05625000E-01	 2.52747000E+00	 4.88389000E-03
					 1.05625000E-01	 2.52747000E+00	-4.88389000E-03
					 1.06133000E-01	 2.53283000E+00	-1.53065000E-02
					-2.64402000E-01	 2.42732000E+00	 3.87738000E-02
					-2.40085000E-01	 2.48213000E+00	 4.56951000E-02
					-4.64638000E-01	 2.36507000E+00	-6.97365000E-02
					-6.55728000E-01	 2.13416000E+00	-6.62413000E-02
					-8.32698000E-01	 1.82596000E+00	-3.78629000E-02
					-8.33288000E-01	 1.82078000E+00	-1.25965000E-02
					-8.33288000E-01	 1.82078000E+00	 1.25965000E-02
					-8.32698000E-01	 1.82596000E+00	 3.78629000E-02
					-4.64638000E-01	 2.36507000E+00	 6.97365000E-02
					-6.55728000E-01	 2.13416000E+00	 6.62413000E-02
					-2.64402000E-01	 2.42732000E+00	-3.87738000E-02
					-2.40085000E-01	 2.48213000E+00	-4.56951000E-02
					-6.01685000E-01	 2.03653000E+00	-5.21305000E-02
					-4.05301000E-01	 2.21685000E+00	-4.15195000E-02
					-6.01685000E-01	 2.03653000E+00	 5.21305000E-02
					-4.05301000E-01	 2.21685000E+00	 4.15195000E-02
					-2.51280000E-01	 2.35593000E+00	-1.79914000E-02
					-2.51508000E-01	 2.35048000E+00	-6.01575000E-03
					-2.51508000E-01	 2.35048000E+00	 6.01575000E-03
					-2.51280000E-01	 2.35593000E+00	 1.79914000E-02
					-4.94228000E-02	 2.46015000E+00	 1.40852000E-03
					-8.99490000E-02	 2.47245000E+00	 4.51585000E-03
					-1.15946000E-01	 2.48967000E+00	 9.99484000E-03
					-1.25831000E-01	 2.50822000E+00	 1.69001000E-02
					-1.20923000E-01	 2.52607000E+00	 2.34899000E-02
					-4.91094000E-08	 2.36212000E+00	-1.72596000E-09
					-1.64100000E-01	 1.87806000E+00	 1.16906000E-02
					-3.28648000E-01	 1.87285000E+00	 2.36462000E-02
					-4.94467000E-01	 1.86384000E+00	 3.60974000E-02
					-6.62594000E-01	 1.85146000E+00	 4.95942000E-02
					-6.77429000E-02	 2.26390000E+00	 6.15086000E-03
					-1.29851000E-01	 2.27909000E+00	 1.21286000E-02
					-1.83841000E-01	 2.30269000E+00	 1.82340000E-02
					-2.24152000E-01	 2.33258000E+00	 2.42943000E-02
					-4.88132000E-08	 2.44686000E+00	 1.76428000E-09
					-4.85702000E-08	 2.44092000E+00	 5.74388000E-10
					-4.85702000E-08	 2.44092000E+00	-5.74227000E-10
					-4.88132000E-08	 2.44686000E+00	-1.76411000E-09
					-1.20923000E-01	 2.52607000E+00	-2.34899000E-02
					-1.25831000E-01	 2.50822000E+00	-1.69001000E-02
					-1.15946000E-01	 2.48967000E+00	-9.99484000E-03
					-8.99490000E-02	 2.47245000E+00	-4.51585000E-03
					-4.94228000E-02	 2.46015000E+00	-1.40852000E-03
					-4.73665000E-08	 2.24958000E+00	 6.01257000E-10
					-4.72516000E-08	 2.24453000E+00	 2.06691000E-10
					-4.72516000E-08	 2.24453000E+00	-2.06551000E-10