<?xml version="1.0"?>
<VTKFile type="UnstructuredGrid" version="0.1" byte_order="LittleEndian">
	<UnstructuredGrid>
		<Piece NumberOfPoints="3432" NumberOfCells="2560">
			<Points>
				<DataArray type="Float64" NumberOfComponents="3" format="ascii">
					 0.00000000E+00	 0.00000000E+00	 1.27000000E-02
					 0.00000000E+00	 1.27000000E-02	 1.27000000E-02
					 0.00000000E+00	 1.27000000E-02	 0.00000000E+00
					 0.00000000E+00	 0.00000000E+00	 0.00000000E+00
					 4.50000000E-02	 1.27000000E-02	 1.27000000E-02
					 4.50000000E-02	 0.00000000E+00	 1.27000000E-02
					 4.50000000E-02	 1.27000000E-02	 0.00000000E+00
					 4.50000000E-02	 0.00000000E+00	 0.00000000E+00
					 0.00000000E+00	 2.54000000E-02	 1.27000000E-02
					 0.00000000E+00	 2.54000000E-02	 0.00000000E+00
					 4.50000000E-02	 2.54000000E-02	 1.27000000E-02
					 4.50000000E-02	 2.54000000E-02	 0.00000000E+00
					 5.12690000E-02	 1.27000000E-02	 1.27000000E-02
					 5.38263000E-02	 6.52625000E-03	 1.27000000E-02
					 5.12690000E-02	 1.27000000E-02	 0.00000000E+00
					 5.38263000E-02	 6.52625000E-03	 0.00000000E+00
					 5.38263000E-02	 1.88737000E-02	 0.00000000E+00
					 5.38263000E-02	 1.88737000E-02	 1.27000000E-02
					 6.00000000E-02	 0.00000000E+00	 0.00000000E+00
					 6.00000000E-02	 0.00000000E+00	 1.27000000E-02
					 6.00000000E-02	 3.96900000E-03	 0.00000000E+00
					 6.00000000E-02	 3.96900000E-03	 1.27000000E-02
					 5.57840000E-02	 1.27000000E-02	 1.27000000E-02
					 6.00000000E-02	 8.48400000E-03	 1.27000000E-02
					 5.57840000E-02	 1.27000000E-02	 0.00000000E+00
					 6.00000000E-02	 8.48400000E-03	 0.00000000E+00
					 6.00000000E-02	 2.54000000E-02	 0.00000000E+00
					 6.00000000E-02	 2.54000000E-02	 1.27000000E-02
					 6.00000000E-02	 2.14310000E-02	 0.00000000E+00
					 6.00000000E-02	 2.14310000E-02	 1.27000000E-02
					 6.00000000E-02	 1.69160000E-02	 0.00000000E+00
					 6.00000000E-02	 1.69160000E-02	 1.27000000E-02
					 7.50000000E-02	 0.00000000E+00	 0.00000000E+00
					 7.50000000E-02	 0.00000000E+00	 1.27000000E-02
					 6.61737000E-02	 6.52625000E-03	 0.00000000E+00
					 6.61737000E-02	 6.52625000E-03	 1.27000000E-02
					 6.42160000E-02	 1.27000000E-02	 1.27000000E-02
					 6.87310000E-02	 1.27000000E-02	 1.27000000E-02
					 6.42160000E-02	 1.27000000E-02	 0.00000000E+00
					 6.87310000E-02	 1.27000000E-02	 0.00000000E+00
					 7.50000000E-02	 2.54000000E-02	 0.00000000E+00
					 7.50000000E-02	 2.54000000E-02	 1.27000000E-02
					 6.61737000E-02	 1.88737000E-02	 0.00000000E+00
					 6.61737000E-02	 1.88737000E-02	 1.27000000E-02
					 1.20000000E-01	 0.00000000E+00	 0.00000000E+00
					 1.20000000E-01	 0.00000000E+00	 1.27000000E-02
					 7.50000000E-02	 1.27000000E-02	 0.00000000E+00
					 1.20000000E-01	 1.27000000E-02	 0.00000000E+00
					 1.20000000E-01	 1.27000000E-02	 1.27000000E-02
					 7.50000000E-02	 1.27000000E-02	 1.27000000E-02
					 1.20000000E-01	 2.54000000E-02	 0.00000000E+00
					 1.20000000E-01	 2.54000000E-02	 1.27000000E-02
					 4.50000000E-02	 1.01600000E-02	 1.27000000E-02
					 4.50000000E-02	 7.62000000E-03	 1.27000000E-02
					 4.50000000E-02	 5.08000000E-03	 1.27000000E-02
					 4.50000000E-02	 2.54000000E-03	 1.27000000E-02
					 0.00000000E+00	 2.54000000E-03	 1.27000000E-02
					 0.00000000E+00	 5.08000000E-03	 1.27000000E-02
					 0.00000000E+00	 7.62000000E-03	 1.27000000E-02
					 0.00000000E+00	 1.01600000E-02	 1.27000000E-02
					 0.00000000E+00	 1.27000000E-02	 2.54000000E-03
					 0.00000000E+00	 1.27000000E-02	 5.08000000E-03
					 0.00000000E+00	 1.27000000E-02	 7.62000000E-03
					 0.00000000E+00	 1.27000000E-02	 1.01600000E-02
					 0.00000000E+00	 2.54000000E-03	 0.00000000E+00
					 0.00000000E+00	 5.08000000E-03	 0.00000000E+00
					 0.00000000E+00	 7.62000000E-03	 0.00000000E+00
					 0.00000000E+00	 1.01600000E-02	 0.00000000E+00
					 0.00000000E+00	 0.00000000E+00	 2.54000000E-03
					 0.00000000E+00	 0.00000000E+00	 5.08000000E-03
					 0.00000000E+00	 0.00000000E+00	 7.62000000E-03
					 0.00000000E+00	 0.00000000E+00	 1.01600000E-02
					 4.25000000E-02	 1.27000000E-02	 1.27000000E-02
					 4.00000000E-02	 1.27000000E-02	 1.27000000E-02
					 3.75000000E-02	 1.27000000E-02	 1.27000000E-02
					 3.50000000E-02	 1.27000000E-02	 1.27000000E-02
					 3.25000000E-02	 1.27000000E-02	 1.27000000E-02
					 3.00000000E-02	 1.27000000E-02	 1.27000000E-02
					 2.75000000E-02	 1.27000000E-02	 1.27000000E-02
					 2.50000000E-02	 1.27000000E-02	 1.27000000E-02
					 2.25000000E-02	 1.27000000E-02	 1.27000000E-02
					 2.00000000E-02	 1.27000000E-02	 1.27000000E-02
					 1.75000000E-02	 1.27000000E-02	 1.27000000E-02
					 1.50000000E-02	 1.27000000E-02	 1.27000000E-02
					 1.25000000E-02	 1.27000000E-02	 1.27000000E-02
					 1.00000000E-02	 1.27000000E-02	 1.27000000E-02
					 7.50000000E-03	 1.27000000E-02	 1.27000000E-02
					 5.00000000E-03	 1.27000000E-02	 1.27000000E-02
					 2.50000000E-03	 1.27000000E-02	 1.27000000E-02
					 2.50000000E-03	 0.00000000E+00	 1.27000000E-02
					 5.00000000E-03	 0.00000000E+00	 1.27000000E-02
					 7.50000000E-03	 0.00000000E+00	 1.27000000E-02
					 1.00000000E-02	 0.00000000E+00	 1.27000000E-02
					 1.25000000E-02	 0.00000000E+00	 1.27000000E-02
					 1.50000000E-02	 0.00000000E+00	 1.27000000E-02
					 1.75000000E-02	 0.00000000E+00	 1.27000000E-02
					 2.00000000E-02	 0.00000000E+00	 1.27000000E-02
					 2.25000000E-02	 0.00000000E+00	 1.27000000E-02
					 2.50000000E-02	 0.00000000E+00	 1.27000000E-02
					 2.75000000E-02	 0.00000000E+00	 1.27000000E-02
					 3.00000000E-02	 0.00000000E+00	 1.27000000E-02
					 3.25000000E-02	 0.00000000E+00	 1.27000000E-02
					 3.50000000E-02	 0.00000000E+00	 1.27000000E-02
					 3.75000000E-02	 0.00000000E+00	 1.27000000E-02
					 4.00000000E-02	 0.00000000E+00	 1.27000000E-02
					 4.25000000E-02	 0.00000000E+00	 1.27000000E-02
					 4.25000000E-02	 1.27000000E-02	 0.00000000E+00
					 4.00000000E-02	 1.27000000E-02	 0.00000000E+00
					 3.75000000E-02	 1.27000000E-02	 0.00000000E+00
					 3.50000000E-02	 1.27000000E-02	 0.00000000E+00
					 3.25000000E-02	 1.27000000E-02	 0.00000000E+00
					 3.00000000E-02	 1.27000000E-02	 0.00000000E+00
					 2.75000000E-02	 1.27000000E-02	 0.00000000E+00
					 2.50000000E-02	 1.27000000E-02	 0.00000000E+00
					 2.25000000E-02	 1.27000000E-02	 0.00000000E+00
					 2.00000000E-02	 1.27000000E-02	 0.00000000E+00
					 1.75000000E-02	 1.27000000E-02	 0.00000000E+00
					 1.50000000E-02	 1.27000000E-02	 0.00000000E+00
					 1.25000000E-02	 1.27000000E-02	 0.00000000E+00
					 1.00000000E-02	 1.27000000E-02	 0.00000000E+00
					 7.50000000E-03	 1.27000000E-02	 0.00000000E+00
					 5.00000000E-03	 1.27000000E-02	 0.00000000E+00
					 2.50000000E-03	 1.27000000E-02	 0.00000000E+00
					 4.50000000E-02	 1.27000000E-02	 1.01600000E-02
					 4.50000000E-02	 1.27000000E-02	 7.62000000E-03
					 4.50000000E-02	 1.27000000E-02	 5.08000000E-03
					 4.50000000E-02	 1.27000000E-02	 2.54000000E-03
					 4.50000000E-02	 1.01600000E-02	 0.00000000E+00
					 4.50000000E-02	 7.62000000E-03	 0.00000000E+00
					 4.50000000E-02	 5.08000000E-03	 0.00000000E+00
					 4.50000000E-02	 2.54000000E-03	 0.00000000E+00
					 2.50000000E-03	 0.00000000E+00	 0.00000000E+00
					 5.00000000E-03	 0.00000000E+00	 0.00000000E+00
					 7.50000000E-03	 0.00000000E+00	 0.00000000E+00
					 1.00000000E-02	 0.00000000E+00	 0.00000000E+00
					 1.25000000E-02	 0.00000000E+00	 0.00000000E+00
					 1.50000000E-02	 0.00000000E+00	 0.00000000E+00
					 1.75000000E-02	 0.00000000E+00	 0.00000000E+00
					 2.00000000E-02	 0.00000000E+00	 0.00000000E+00
					 2.25000000E-02	 0.00000000E+00	 0.00000000E+00
					 2.50000000E-02	 0.00000000E+00	 0.00000000E+00
					 2.75000000E-02	 0.00000000E+00	 0.00000000E+00
					 3.00000000E-02	 0.00000000E+00	 0.00000000E+00
					 3.25000000E-02	 0.00000000E+00	 0.00000000E+00
					 3.50000000E-02	 0.00000000E+00	 0.00000000E+00
					 3.75000000E-02	 0.00000000E+00	 0.00000000E+00
					 4.00000000E-02	 0.00000000E+00	 0.00000000E+00
					 4.25000000E-02	 0.00000000E+00	 0.00000000E+00
					 4.50000000E-02	 0.00000000E+00	 2.54000000E-03
					 4.50000000E-02	 0.00000000E+00	 5.08000000E-03
					 4.50000000E-02	 0.00000000E+00	 7.62000000E-03
					 4.50000000E-02	 0.00000000E+00	 1.01600000E-02
					 4.50000000E-02	 2.28600000E-02	 1.27000000E-02
					 4.50000000E-02	 2.03200000E-02	 1.27000000E-02
					 4.50000000E-02	 1.77800000E-02	 1.27000000E-02
					 4.50000000E-02	 1.52400000E-02	 1.27000000E-02
					 0.00000000E+00	 1.52400000E-02	 1.27000000E-02
					 0.00000000E+00	 1.77800000E-02	 1.27000000E-02
					 0.00000000E+00	 2.03200000E-02	 1.27000000E-02
					 0.00000000E+00	 2.28600000E-02	 1.27000000E-02
					 0.00000000E+00	 2.54000000E-02	 2.54000000E-03
					 0.00000000E+00	 2.54000000E-02	 5.08000000E-03
					 0.00000000E+00	 2.54000000E-02	 7.62000000E-03
					 0.00000000E+00	 2.54000000E-02	 1.01600000E-02
					 0.00000000E+00	 1.52400000E-02	 0.00000000E+00
					 0.00000000E+00	 1.77800000E-02	 0.00000000E+00
					 0.00000000E+00	 2.03200000E-02	 0.00000000E+00
					 0.00000000E+00	 2.28600000E-02	 0.00000000E+00
					 2.50000000E-03	 2.54000000E-02	 1.27000000E-02
					 5.00000000E-03	 2.54000000E-02	 1.27000000E-02
					 7.50000000E-03	 2.54000000E-02	 1.27000000E-02
					 1.00000000E-02	 2.54000000E-02	 1.27000000E-02
					 1.25000000E-02	 2.54000000E-02	 1.27000000E-02
					 1.50000000E-02	 2.54000000E-02	 1.27000000E-02
					 1.75000000E-02	 2.54000000E-02	 1.27000000E-02
					 2.00000000E-02	 2.54000000E-02	 1.27000000E-02
					 2.25000000E-02	 2.54000000E-02	 1.27000000E-02
					 2.50000000E-02	 2.54000000E-02	 1.27000000E-02
					 2.75000000E-02	 2.54000000E-02	 1.27000000E-02
					 3.00000000E-02	 2.54000000E-02	 1.27000000E-02
					 3.25000000E-02	 2.54000000E-02	 1.27000000E-02
					 3.50000000E-02	 2.54000000E-02	 1.27000000E-02
					 3.75000000E-02	 2.54000000E-02	 1.27000000E-02
[...]
			<PointData>
				<DataArray type="Float32" Name="U" NumberOfComponents="3" ComponentName0="D1" ComponentName1="D2" ComponentName2="D3" format="ascii">
					 0.00000000E+00	 0.00000000E+00	 0.00000000E+00
					 0.00000000E+00	 0.00000000E+00	 0.00000000E+00
					 0.00000000E+00	 0.00000000E+00	 0.00000000E+00
					 0.00000000E+00	 0.00000000E+00	 0.00000000E+00
					 1.17322000E+00	-1.07521000E-08	-6.48482000E-01
					 1.15424000E+00	-9.04703000E-02	-7.63430000E-01
					-1.17322000E+00	 1.07521000E-08	-6.48482000E-01
					-1.15424000E+00	 9.04703000E-02	-7.63430000E-01
					 0.00000000E+00	 0.00000000E+00	 0.00000000E+00
					 0.00000000E+00	 0.00000000E+00	 0.00000000E+00
					 1.15424000E+00	 9.04702000E-02	-7.63430000E-01
					-1.15424000E+00	-9.04702000E-02	-7.63430000E-01
					 9.64537000E-01	-3.02817000E-08	-1.84332000E+00
					 6.55552000E-01	-8.42379000E-02	-2.23460000E+00
					-9.64537000E-01	 3.02817000E-08	-1.84332000E+00
					-6.55552000E-01	 8.42379000E-02	-2.23460000E+00
					-6.55552000E-01	-8.42379000E-02	-2.23460000E+00
					 6.55552000E-01	 8.42379000E-02	-2.23460000E+00
					 6.58247000E-02	 3.77341000E-01	-2.84251000E+00
					-6.58247000E-02	-3.77341000E-01	-2.84251000E+00
					 6.67984000E-02	 2.51996000E-01	-2.61909000E+00
					-6.67984000E-02	-2.51996000E-01	-2.61909000E+00
					 8.61228000E-01	-2.26430000E-08	-2.50218000E+00
					-6.33433000E-02	-1.38737000E-01	-2.48711000E+00
					-8.61228000E-01	 2.26431000E-08	-2.50218000E+00
					 6.33433000E-02	 1.38737000E-01	-2.48711000E+00
					 6.58247000E-02	-3.77341000E-01	-2.84251000E+00
					-6.58247000E-02	 3.77341000E-01	-2.84251000E+00
					 6.67984000E-02	-2.51996000E-01	-2.61909000E+00
					-6.67984000E-02	 2.51996000E-01	-2.61909000E+00
					 6.33433000E-02	-1.38737000E-01	-2.48711000E+00
					-6.33433000E-02	 1.38737000E-01	-2.48711000E+00
					 1.12154000E+00	 3.15827000E-02	-4.59275000E-01
					-1.12154000E+00	-3.15827000E-02	-4.59275000E-01
					 7.48235000E-01	 8.13377000E-02	-2.06637000E+00
					-7.48235000E-01	-8.13377000E-02	-2.06637000E+00
					-9.30850000E-01	-1.74022000E-08	-2.34872000E+00
					-1.01294000E+00	-2.46128000E-08	-1.62838000E+00
					 9.30850000E-01	 1.74022000E-08	-2.34872000E+00
					 1.01294000E+00	 2.46128000E-08	-1.62838000E+00
					 1.12154000E+00	-3.15827000E-02	-4.59275000E-01
					-1.12154000E+00	 3.15827000E-02	-4.59275000E-01
					 7.48235000E-01	-8.13377000E-02	-2.06637000E+00
					-7.48235000E-01	 8.13377000E-02	-2.06637000E+00
					-1.69847000E+00	-6.65431000E-02	-3.13639000E+00
					 1.69847000E+00	 6.65431000E-02	-3.13639000E+00
					 1.13154000E+00	 6.00733000E-09	-4.04778000E-01
					-1.71975000E+00	 1.36789000E-09	-3.25599000E+00
					 1.71975000E+00	-1.36774000E-09	-3.25599000E+00
					-1.13154000E+00	-6.00737000E-09	-4.04778000E-01
					-1.69847000E+00	 6.65431000E-02	-3.13639000E+00
					 1.69847000E+00	-6.65431000E-02	-3.13639000E+00
					 1.17254000E+00	-1.09757000E-02	-6.52491000E-01
					 1.17158000E+00	-2.46596000E-02	-6.64412000E-01
					 1.17135000E+00	-4.21947000E-02	-6.84230000E-01
					 1.16799000E+00	-6.51989000E-02	-7.13697000E-01
					 0.00000000E+00	 0.00000000E+00	 0.00000000E+00
					 0.00000000E+00	 0.00000000E+00	 0.00000000E+00
					 0.00000000E+00	 0.00000000E+00	 0.00000000E+00
					 0.00000000E+00	 0.00000000E+00	 0.00000000E+00
					 0.00000000E+00	 0.00000000E+00	 0.00000000E+00
					 0.00000000E+00	 0.00000000E+00	 0.00000000E+00
					 0.00000000E+00	 0.00000000E+00	 0.00000000E+00
					 0.00000000E+00	 0.00000000E+00	 0.00000000E+00
					 0.00000000E+00	 0.00000000E+00	 0.00000000E+00
					 0.00000000E+00	 0.00000000E+00	 0.00000000E+00
					 0.00000000E+00	 0.00000000E+00	 0.00000000E+00
					 0.00000000E+00	 0.00000000E+00	 0.00000000E+00
					 0.00000000E+00	 0.00000000E+00	 0.00000000E+00
					 0.00000000E+00	 0.00000000E+00	 0.00000000E+00
					 0.00000000E+00	 0.00000000E+00	 0.00000000E+00
					 0.00000000E+00	 0.00000000E+00	 0.00000000E+00
					 1.19751000E+00	-8.52719000E-09	-1.09792000E-01
					 1.17524000E+00	-7.33153000E-09	 4.32611000E-01
					 1.10419000E+00	-6.49664000E-09	 9.54916000E-01
					 9.86493000E-01	-5.91778000E-09	 1.43327000E+00
					 8.27756000E-01	-5.48529000E-09	 1.84600000E+00
					 6.36386000E-01	-5.13194000E-09	 2.17492000E+00
					 4.22908000E-01	-4.81045000E-09	 2.40637000E+00
					 1.99350000E-01	-4.48977000E-09	 2.53196000E+00
					-2.13661000E-02	-4.15018000E-09	 2.54907000E+00
					-2.26027000E-01	-3.78109000E-09	 2.46111000E+00
					-4.01722000E-01	-3.37903000E-09	 2.27739000E+00
					-5.36407000E-01	-2.94631000E-09	 2.01281000E+00
					-6.19437000E-01	-2.48984000E-09	 1.68729000E+00
					-6.42114000E-01	-2.01981000E-09	 1.32495000E+00
					-5.98172000E-01	-1.54701000E-09	 9.53179000E-01
					-4.84149000E-01	-1.07637000E-09	 5.98974000E-01
					-2.92528000E-01	-5.93493000E-10	 2.94173000E-01
					-3.00978000E-01	-1.24929000E-01	 2.51530000E-01
					-4.84487000E-01	-1.00909000E-01	 5.59933000E-01
					-5.92606000E-01	-5.24554000E-02	 9.44313000E-01
					-6.34107000E-01	 1.06016000E-02	 1.35857000E+00
					-6.11113000E-01	 7.61619000E-02	 1.76894000E+00
					-5.28985000E-01	 1.37834000E-01	 2.14211000E+00
					-3.95765000E-01	 1.90885000E-01	 2.44926000E+00
					-2.21708000E-01	 2.31990000E-01	 2.66678000E+00
					-1.86387000E-02	 2.58887000E-01	 2.77712000E+00
					 2.00647000E-01	 2.70268000E-01	 2.76928000E+00
					 4.22999000E-01	 2.65727000E-01	 2.63912000E+00
					 6.35529000E-01	 2.45707000E-01	 2.38931000E+00
					 8.26208000E-01	 2.11430000E-01	 2.02905000E+00
					 9.84421000E-01	 1.64800000E-01	 1.57336000E+00
					 1.10146000E+00	 1.08235000E-01	 1.04216000E+00
					 1.17096000E+00	 4.43402000E-02	 4.58930000E-01
					 1.19003000E+00	-2.41973000E-02	-1.51514000E-01
					-1.19751000E+00	 8.52720000E-09	-1.09792000E-01
					-1.17524000E+00	 7.33152000E-09	 4.32611000E-01
					-1.10419000E+00	 6.49661000E-09	 9.54916000E-01
					-9.86493000E-01	 5.91773000E-09	 1.43327000E+00
					-8.27756000E-01	 5.48524000E-09	 1.84600000E+00
					-6.36386000E-01	 5.13188000E-09	 2.17492000E+00
					-4.22908000E-01	 4.81038000E-09	 2.40637000E+00
					-1.99350000E-01	 4.48970000E-09	 2.53196000E+00
					 2.13661000E-02	 4.15012000E-09	 2.54907000E+00
					 2.26027000E-01	 3.78103000E-09	 2.46111000E+00
					 4.01722000E-01	 3.37897000E-09	 2.27739000E+00
					 5.36407000E-01	 2.94626000E-09	 2.01281000E+00
					 6.19437000E-01	 2.48979000E-09	 1.68729000E+00
					 6.42114000E-01	 2.01977000E-09	 1.32495000E+00
					 5.98172000E-01	 1.54698000E-09	 9.53179000E-01
					 4.84149000E-01	 1.07635000E-09	 5.98974000E-01
					 2.92528000E-01	 5.93484000E-10	 2.94173000E-01
					 6.72225000E-01	-7.33778000E-09	-6.58342000E-01
					 2.18915000E-01	-2.55046000E-09	-6.62439000E-01
					-2.18915000E-01	 2.55048000E-09	-6.62439000E-01
					-6.72225000E-01	 7.33781000E-09	-6.58342000E-01
					-1.17254000E+00	 1.09757000E-02	-6.52491000E-01
					-1.17158000E+00	 2.46596000E-02	-6.64412000E-01
					-1.17135000E+00	 4.21947000E-02	-6.84230000E-01
					-1.16799000E+00	 6.51989000E-02	-7.13697000E-01
					 3.00978000E-01	 1.24929000E-01	 2.51530000E-01
					 4.84487000E-01	 1.00909000E-01	 5.59933000E-01
					 5.92606000E-01	 5.24554000E-02	 9.44313000E-01
					 6.34107000E-01	-1.06016000E-02	 1.35857000E+00
					 6.11113000E-01	-7.61619000E-02	 1.76894000E+00
					 5.28985000E-01	-1.37834000E-01	 2.14211000E+00
					 3.95765000E-01	-1.90885000E-01	 2.44926000E+00
					 2.21708000E-01	-2.31990000E-01	 2.66678000E+00
					 1.86387000E-02	-2.58887000E-01	 2.77712000E+00
					-2.00647000E-01	-2.70268000E-01	 2.76928000E+00
					-4.22999000E-01	-2.65727000E-01	 2.63912000E+00
					-6.35529000E-01	-2.45707000E-01	 2.38931000E+00
					-8.26208000E-01	-2.11430000E-01	 2.02905000E+00
					-9.84421000E-01	-1.64800000E-01	 1.57336000E+00
					-1.10146000E+00	-1.08235000E-01	 1.04216000E+00
					-1.17096000E+00	-4.43402000E-02	 4.58930000E-01
					-1.19003000E+00	 2.41973000E-02	-1.51514000E-01
					-6.37371000E-01	 4.84576000E-02	-7.78590000E-01
					-2.03662000E-01	 1.54652000E-02	-7.83742000E-01
					 2.03662000E-01	-1.54652000E-02	-7.83742000E-01
					 6.37371000E-01	-4.84576000E-02	-7.78590000E-01
					 1.16799000E+00	 6.51989000E-02	-7.13697000E-01
					 1.17135000E+00	 4.21946000E-02	-6.84230000E-01
					 1.17158000E+00	 2.46596000E-02	-6.64412000E-01
					 1.17254000E+00	 1.09757000E-02	-6.52491000E-01
					 0.00000000E+00	 0.00000000E+00	 0.00000000E+00
					 0.00000000E+00	 0.00000000E+00	 0.00000000E+00
					 0.00000000E+00	 0.00000000E+00	 0.00000000E+00
					 0.00000000E+00	 0.00000000E+00	 0.00000000E+00
					 0.00000000E+00	 0.00000000E+00	 0.00000000E+00
					 0.00000000E+00	 0.00000000E+00	 0.00000000E+00
					 0.00000000E+00	 0.00000000E+00	 0.00000000E+00
					 0.00000000E+00	 0.00000000E+00	 0.00000000E+00
					 0.00000000E+00	 0.00000000E+00	 0.00000000E+00
					 0.00000000E+00	 0.00000000E+00	 0.00000000E+00
					 0.00000000E+00	 0.00000000E+00	 0.00000000E+00
					 0.00000000E+00	 0.00000000E+00	 0.00000000E+00
					-3.00978000E-01	 1.24929000E-01	 2.51530000E-01
					-4.84487000E-01	 1.00909000E-01	 5.59933000E-01
					-5.92606000E-01	 5.24554000E-02	 9.44313000E-01
					-6.34107000E-01	-1.06016000E-02	 1.35857000E+00
					-6.11113000E-01	-7.61619000E-02	 1.76894000E+00
					-5.28985000E-01	-1.37834000E-01	 2.14211000E+00
					-3.95765000E-01	-1.90885000E-01	 2.44926000E+00
					-2.21708000E-01	-2.31990000E-01	 2.66678000E+00
					-1.86387000E-02	-2.58887000E-01	 2.77712000E+00
					 2.00647000E-01	-2.70268000E-01	 2.76928000E+00
					 4.22999000E-01	-2.65727000E-01	 2.63912000E+00
					 6.35529000E-01	-2.45707000E-01	 2.38931000E+00
					 8.26208000E-01	-2.11430000E-01	 2.02905000E+00
					 9.84421000E-01	-1.64800000E-01	 1.57336000E+00
					 1.10146000E+00	-1.08235000E-01	 1.04216000E+00
					 1.17096000E+00	-4.43402000E-02	 4.58930000E-01
					 1.19003000E+00	 2.41972000E-02	-1.51514000E-01
					 3.00978000E-01	-1.24929000E-01	 2.51530000E-01
					 4.84487000E-01	-1.00909000E-01	 5.59933000E-01
					 5.92606000E-01	-5.24554000E-02	 9.44313000E-01
					 6.34107000E-01	 1.06016000E-02	 1.35857000E+00
					 6.11113000E-01	 7.61619000E-02	 1.76894000E+00
					 5.28985000E-01	 1.37834000E-01	 2.14211000E+00
					 3.95765000E-01	 1.90885000E-01	 2.44926000E+00
					 2.21708000E-01	 2.31990000E-01	 2.66678000E+00
					 1.86387000E-02	 2.58887000E-01	 2.77712000E+00
					-2.00647000E-01	 2.70268000E-01	 2.76928000E+00
					-4.22999000E-01	 2.65727000E-01	 2.63912000E+00
					-6.35529000E-01	 2.45707000E-01	 2.38931000E+00
					-8.26208000E-01	 2.11430000E-01	 2.02905000E+00
					-9.84421000E-01	 1.64800000E-01	 1.57336000E+00
					-1.10146000E+00	 1.08235000E-01	 1.04216000E+00
					-1.17096000E+00	 4.43402000E-02	 4.58930000E-01
					-1.19003000E+00	-2.41972000E-02	-1.51514000E-01
					-6.37371000E-01	-4.84576000E-02	-7.78590000E-01
					-2.03662000E-01	-1.54652000E-02	-7.83742000E-01
					 2.03662000E-01	 1.54652000E-02	-7.83742000E-01
					 6.37371000E-01	 4.84576000E-02	-7.78590000E-01
					-1.16799000E+00	-6.51989000E-02	-7.13697000E-01
					-1.17135000E+00	-4.21946000E-02	-6.84230000E-01
					-1.17158000E+00	-2.46596000E-02	-6.64412000E-01
					-1.17254000E+00	-1.09757000E-02	-6.52491000E-01
					-6.72184000E-02	-2.89755000E-01	-2.67870000E+00
					-6.70656000E-02	-3.32623000E-01	-2.75209000E+00
					 1.04922000E+00	-2.08200000E-08	-1.48038000E+00
					 1.12174000E+00	-1.45627000E-08	-1.07941000E+00
					 7.61792000E-01	-4.80215000E-02	-2.10744000E+00
					 8.53198000E-01	-2.52474000E-02	-2.00185000E+00
					 9.13237000E-01	-8.91376000E-03	-1.91374000E+00
					 9.54675000E-01	-4.49166000E-03	-1.86139000E+00
					 1.04556000E+00	-1.08987000E-01	-1.35208000E+00
					 8.75691000E-01	-1.11580000E-01	-1.85328000E+00
					-1.04922000E+00	 2.08201000E-08	-1.48038000E+00
					-1.12174000E+00	 1.45628000E-08	-1.07941000E+00
					 5.67057000E-01	-1.85890000E-08	-1.86840000E+00
					 1.87063000E-01	-6.14461000E-09	-1.87758000E+00
					-1.87063000E-01	 6.14465000E-09	-1.87758000E+00
					-5.67057000E-01	 1.85891000E-08	-1.86840000E+00
					-3.75833000E-01	 5.40492000E-02	-2.28196000E+00
					-1.22824000E-01	 1.86430000E-02	-2.30250000E+00
					 1.22824000E-01	-1.86430000E-02	-2.30250000E+00
					 3.75833000E-01	-5.40492000E-02	-2.28196000E+00
					-7.61792000E-01	 4.80215000E-02	-2.10744000E+00
					-8.53198000E-01	 2.52474000E-02	-2.00185000E+00
					-9.13237000E-01	 8.91376000E-03	-1.91374000E+00
					-9.54675000E-01	 4.49166000E-03	-1.86139000E+00
					-1.04556000E+00	 1.08987000E-01	-1.35208000E+00
					-8.75691000E-01	 1.11580000E-01	-1.85328000E+00
					-1.04556000E+00	-1.08987000E-01	-1.35208000E+00
					-8.75691000E-01	-1.11580000E-01	-1.85328000E+00
					-9.54675000E-01	-4.49161000E-03	-1.86139000E+00
					-9.13237000E-01	-8.91371000E-03	-1.91374000E+00
					-8.53198000E-01	-2.52473000E-02	-2.00185000E+00
					-7.61792000E-01	-4.80214000E-02	-2.10744000E+00
					 9.54675000E-01	 4.49161000E-03	-1.86139000E+00
					 9.13237000E-01	 8.91371000E-03	-1.91374000E+00
					 8.53198000E-01	 2.52473000E-02	-2.00185000E+00
					 7.61792000E-01	 4.80214000E-02	-2.10744000E+00
					-3.75833000E-01	-5.40492000E-02	-2.28196000E+00
					-1.22824000E-01	-1.86430000E-02	-2.30250000E+00
					 1.22824000E-01	 1.86430000E-02	-2.30250000E+00
					 3.75833000E-01	 5.40492000E-02	-2.28196000E+00
					 1.04556000E+00	 1.08987000E-01	-1.35208000E+00
					 8.75691000E-01	 1.11580000E-01	-1.85328000E+00
					 1.92640000E-01	-2.22015000E-01	-2.58426000E+00
					 4.39646000E-01	-1.55272000E-01	-2.43728000E+00
					-9.00581000E-01	 1.87325000E-01	-1.81744000E+00
					-4.68665000E-01	 3.05721000E-01	-2.58756000E+00
					 3.32507000E-02	 2.23703000E-01	-2.89904000E+00
					 1.01414000E-02	 7.49938000E-02	-2.92276000E+00
					-1.01414000E-02	-7.49938000E-02	-2.92276000E+00
					-3.32507000E-02	-2.23703000E-01	-2.89904000E+00
					 9.00581000E-01	-1.87325000E-01	-1.81744000E+00
					 4.68665000E-01	-3.05721000E-01	-2.58756000E+00
					-1.92640000E-01	 2.22015000E-01	-2.58426000E+00
					-4.39646000E-01	 1.55272000E-01	-2.43728000E+00
					 6.72184000E-02	 2.89755000E-01	-2.67870000E+00
					 6.70656000E-02	 3.32623000E-01	-2.75209000E+00
					-3.44985000E-02	-1.59996000E-01	-2.68747000E+00
					-1.05627000E-02	-5.48783000E-02	-2.71815000E+00
					 1.05627000E-02	 5.48783000E-02	-2.71815000E+00
					 3.44985000E-02	 1.59996000E-01	-2.68747000E+00
					 8.98200000E-01	-3.97238000E-08	-2.18568000E+00
					 1.61676000E-01	-1.26480000E-01	-2.50292000E+00
					 3.78485000E-01	-9.65415000E-02	-2.51116000E+00
					 5.71068000E-01	-6.13195000E-02	-2.51192000E+00
					 7.25431000E-01	-3.23760000E-02	-2.50851000E+00
					 8.25997000E-01	-1.30987000E-02	-2.50376000E+00
					-6.57032000E-02	-2.07024000E-01	-2.55185000E+00
					-8.98200000E-01	 3.97238000E-08	-2.18568000E+00
					-5.15570000E-01	 2.31928000E-09	-2.50532000E+00
					-1.72029000E-01	 1.98000000E-09	-2.50636000E+00
					 1.72029000E-01	-1.97996000E-09	-2.50636000E+00
					 5.15570000E-01	-2.31924000E-09	-2.50532000E+00
					 3.12659000E-02	 9.31059000E-02	-2.59804000E+00
					 9.64835000E-03	 3.41959000E-02	-2.64136000E+00
					-9.64835000E-03	-3.41959000E-02	-2.64136000E+00
					-3.12659000E-02	-9.31059000E-02	-2.59804000E+00
					-8.25997000E-01	 1.30987000E-02	-2.50376000E+00
					-7.25431000E-01	 3.23760000E-02	-2.50851000E+00
					-5.71068000E-01	 6.13195000E-02	-2.51192000E+00
					-3.78485000E-01	 9.65415000E-02	-2.51116000E+00
					-1.61676000E-01	 1.26480000E-01	-2.50292000E+00
					 6.57032000E-02	 2.07024000E-01	-2.55185000E+00
					 4.39646000E-01	 1.55272000E-01	-2.43728000E+00
					 1.92640000E-01	 2.22015000E-01	-2.58426000E+00
					-9.00581000E-01	-1.87325000E-01	-1.81744000E+00
					-4.68665000E-01	-3.05721000E-01	-2.58756000E+00
					 3.32507000E-02	-2.23703000E-01	-2.89904000E+00
					 1.01414000E-02	-7.49938000E-02	-2.92276000E+00
					-1.01414000E-02	 7.49938000E-02	-2.92276000E+00
					-3.32507000E-02	 2.23703000E-01	-2.89904000E+00
					 9.00581000E-01	 1.87325000E-01	-1.81744000E+00
					 4.68665000E-01	 3.05721000E-01	-2.58756000E+00
					 6.70656000E-02	-3.32623000E-01	-2.75209000E+00
					 6.72184000E-02	-2.89754000E-01	-2.67870000E+00
					-4.39646000E-01	-1.55272000E-01	-2.43728000E+00
					-1.92640000E-01	-2.22015000E-01	-2.58426000E+00
					-6.70656000E-02	 3.32623000E-01	-2.75209000E+00
					-6.72184000E-02	 2.89754000E-01	-2.67870000E+00
					-3.44985000E-02	 1.59996000E-01	-2.68747000E+00
					-1.05627000E-02	 5.48783000E-02	-2.71815000E+00
					 1.05627000E-02	-5.48783000E-02	-2.71815000E+00
					 3.44985000E-02	-1.59996000E-01	-2.68747000E+00
					 6.57032000E-02	-2.07024000E-01	-2.55185000E+00
					 8.25997000E-01	 1.30986000E-02	-2.50376000E+00
					 7.25431000E-01	 3.23759000E-02	-2.50851000E+00
					 5.71068000E-01	 6.13194000E-02	-2.51192000E+00
					 3.78485000E-01	 9.65413000E-02	-2.51116000E+00
					 1.61676000E-01	 1.26480000E-01	-2.50292000E+00
					-1.61676000E-01	-1.26480000E-01	-2.50292000E+00
					-3.78485000E-01	-9.65413000E-02	-2.51116000E+00
					-5.71068000E-01	-6.13194000E-02	-2.51192000E+00
					-7.25431000E-01	-3.23759000E-02	-2.50851000E+00
					-8.25997000E-01	-1.30986000E-02	-2.50376000E+00
					-6.57032000E-02	 2.07024000E-01	-2.55185000E+00
					 3.12659000E-02	-9.31059000E-02	-2.59804000E+00
					 9.64835000E-03	-3.41959000E-02	-2.64136000E+00
					-9.64835000E-03	 3.41959000E-02	-2.64136000E+00
					-3.12659000E-02	 9.31059000E-02	-2.59804000E+00
					-5.52841000E-01	-1.51276000E-01	-2.31209000E+00
					-3.20823000E-01	-2.19000000E-01	-2.51683000E+00
					 5.76481000E-01	 2.85458000E-01	-2.43543000E+00
					 9.48721000E-01	 1.47202000E-01	-1.55889000E+00
					 6.10447000E-01	 1.35321000E-02	-4.64378000E-01
					 1.93737000E-01	 3.87869000E-03	-4.65043000E-01
					-1.93737000E-01	-3.87869000E-03	-4.65043000E-01
					-6.10447000E-01	-1.35321000E-02	-4.64378000E-01
					-5.76481000E-01	-2.85458000E-01	-2.43543000E+00
					-9.48721000E-01	-1.47202000E-01	-1.55889000E+00
					 5.52841000E-01	 1.51276000E-01	-2.31209000E+00
					 3.20823000E-01	 2.19000000E-01	-2.51683000E+00
					 1.06601000E+00	 7.17700000E-02	-1.08378000E+00
					 9.38028000E-01	 9.32825000E-02	-1.62974000E+00
					-1.06601000E+00	-7.17700000E-02	-1.08378000E+00
					-9.38028000E-01	-9.32825000E-02	-1.62974000E+00
					 4.23805000E-01	 5.04954000E-02	-2.10822000E+00
					 1.37463000E-01	 1.72070000E-02	-2.12635000E+00
					-1.37463000E-01	-1.72070000E-02	-2.12635000E+00
					-4.23805000E-01	-5.04954000E-02	-2.10822000E+00
					-8.99842000E-01	-1.63837000E-02	-2.35586000E+00
					-8.10564000E-01	-3.77911000E-02	-2.37661000E+00
					-6.70752000E-01	-6.69306000E-02	-2.40505000E+00
					-4.91974000E-01	-1.00801000E-01	-2.43612000E+00
					-2.84899000E-01	-1.28676000E-01	-2.46431000E+00
					-9.61713000E-01	-3.31237000E-08	-2.00060000E+00
					-1.13185000E+00	-7.91427000E-04	-4.06807000E-01
					-1.13343000E+00	-3.60272000E-03	-4.12609000E-01
					-1.13630000E+00	-9.18656000E-03	-4.21662000E-01
					-1.13502000E+00	-1.91787000E-02	-4.34821000E-01
					-1.00472000E+00	-4.01931000E-03	-1.64802000E+00
					-9.69975000E-01	-8.63689000E-03	-1.70554000E+00
					-9.19988000E-01	-2.39682000E-02	-1.80181000E+00
					-8.41104000E-01	-4.61575000E-02	-1.92116000E+00
					 5.52322000E-01	 1.18864000E-09	-2.34768000E+00
					 1.83106000E-01	 1.44464000E-09	-2.34593000E+00
					-1.83106000E-01	-1.44465000E-09	-2.34593000E+00
					-5.52322000E-01	-1.18865000E-09	-2.34768000E+00
					 2.84899000E-01	 1.28676000E-01	-2.46431000E+00
					 4.91974000E-01	 1.00801000E-01	-2.43612000E+00
					 6.70752000E-01	 6.69306000E-02	-2.40505000E+00
					 8.10564000E-01	 3.77911000E-02	-2.37661000E+00
					 8.99842000E-01	 1.63837000E-02	-2.35586000E+00
					 5.90690000E-01	 1.56573000E-08	-1.64663000E+00
					 1.93977000E-01	 5.24828000E-09	-1.65292000E+00
					-1.93977000E-01	-5.24829000E-09	-1.65292000E+00