# vtk DataFile Version 3.0

ASCII
DATASET UNSTRUCTURED_GRID

POINTS 14 double
	 2.00000000E+00	 1.00000000E+01	 1.22465000E-16
	 2.00000000E+00	 0.00000000E+00	 1.22465000E-16
	 2.30000000E+00	 0.00000000E+00	 1.40834000E-16
	 2.30000000E+00	 1.00000000E+01	 1.40834000E-16
	 2.00000000E+00	 5.00000000E+00	 1.22465000E-16
	 2.15000000E+00	 0.00000000E+00	 1.31650000E-16
	 2.30000000E+00	 5.00000000E+00	 1.40834000E-16
	 2.15000000E+00	 1.00000000E+01	 1.31650000E-16
	 0.00000000E+00	 1.10000000E+01	 0.00000000E+00
	 0.00000000E+00	 1.00000000E+01	 0.00000000E+00
	 0.00000000E+00	 5.00000000E+00	 0.00000000E+00
	 3.00000000E+00	 5.00000000E+00	 1.83697000E-16
	 0.00000000E+00	-1.00000000E+00	 0.00000000E+00
	 0.00000000E+00	 0.00000000E+00	 0.00000000E+00

CELLS 4 19
	8 0 1 2 3 4 5 6 7 
	2 8 9 
	3 9 13 10 
	2 13 12 

CELL_TYPES 4
	23
	3
	21
	3

POINT_DATA 14
FIELD NT 1
	NT 1 14 double
		 2.73000000E+02
		 6.92157000E+02
		 7.00924000E+02
		 3.09214000E+02
		 8.80444000E+02
		 6.96028000E+02
		 8.69199000E+02
		 2.91620000E+02
		 1.00000000E+03
		 1.00000000E+03
		 9.52901000E+02
		 7.47822000E+02
		 9.05803000E+02
		 9.05803000E+02
FIELD TOTEMP 1
	TOTEMP 1 14 double
		 0.00000000E+00
		 0.00000000E+00
		 0.00000000E+00
		 0.00000000E+00
		 0.00000000E+00
		 0.00000000E+00
		 0.00000000E+00
		 0.00000000E+00
		 1.00000000E+03
		 1.00000000E+03
		 9.52901000E+02
		 7.47822000E+02
		 9.05803000E+02
		 9.05803000E+02
FIELD MAFLOW 1
	MAFLOW 1 14 double
		 0.00000000E+00
		 0.00000000E+00
		 0.00000000E+00
		 0.00000000E+00
		 0.00000000E+00
		 0.00000000E+00
		 0.00000000E+00
		 0.00000000E+00
		 5.00000000E-07
		 5.00000000E-07
		 5.00000000E-07
		 0.00000000E+00
		 5.00000000E-07
		 5.00000000E-07
FIELD TOPRES 1
	TOPRES 1 14 double
		 0.00000000E+00
		 0.00000000E+00
		 0.00000000E+00
		 0.00000000E+00
		 0.00000000E+00
		 0.00000000E+00
		 0.00000000E+00
		 0.00000000E+00
		 1.30000000E-01
		 1.30000000E-01
		 1.21889000E-01
		 1.13778000E-01
		 1.13778000E-01
		 1.13778000E-01
