    1C
    1UUSER                                                              
    1UDATE              25.january.2020                                 
    1UTIME              14:45:14                                        
    1UHOST                                                              
    1UPGM               CalculiX                                        
    1UVERSION           Version 2.16                             
    1UCOMPILETIME       Tue  7 Jan 19:57:43 CET 2020                    
    1UDIR                                                               
    1UDBN                                                               
    1UMAT    1EL                                                        
    1UMAT    2WATER                                                     
    2C                            13                                     1
 -1         1 2.00000E+00 1.00000E+01 1.22465E-16
 -1         2 2.00000E+00 0.00000E+00 1.22465E-16
 -1         3 2.30000E+00 0.00000E+00 1.40834E-16
 -1         4 2.30000E+00 1.00000E+01 1.40834E-16
 -1         5 2.00000E+00 5.00000E+00 1.22465E-16
 -1         6 2.15000E+00 0.00000E+00 1.31650E-16
 -1         7 2.30000E+00 5.00000E+00 1.40834E-16
 -1         8 2.15000E+00 1.00000E+01 1.31650E-16
 -1         9 0.00000E+00 1.10000E+01 0.00000E+00
 -1        10 0.00000E+00 1.00000E+01 0.00000E+00
 -1        11 0.00000E+00 5.00000E+00 0.00000E+00
 -1        12 0.00000E+00 0.00000E+00 0.00000E+00
 -1        13 0.00000E+00-1.00000E+00 0.00000E+00
 -3
    3C                             4                                     1
 -1         1   10    0    1
 -2         1         2         3         4         5         6         7         8
 -1         2   11    0    2
 -2         9        10
 -1         3   12    0    2
 -2        10        12        11
 -1         4   11    0    2
 -2        12        13
 -3
 9999
