    1C
    1UUSER                                                              
    1UDATE              25.january.2020                                 
    1UTIME              14:45:15                                        
    1UHOST                                                              
    1UPGM               CalculiX                                        
    1UVERSION           Version 2.16                             
    1UCOMPILETIME       Tue  7 Jan 19:57:43 CET 2020                    
    1UDIR                                                               
    1UDBN                                                               
    1UMAT    1EL                                                        
    2C                            85                                     1
 -1         1 0.00000E+00 1.00000E+00 0.00000E+00
 -1         2 0.00000E+00 5.00000E-01 0.00000E+00
 -1         3 1.00000E+00 1.00000E+00 6.12323E-17
 -1         4 0.00000E+00 7.50000E-01 0.00000E+00
 -1         5 5.00000E-01 7.50000E-01 3.06162E-17
 -1         6 5.00000E-01 1.00000E+00 3.06162E-17
 -1         7 1.00000E+00 5.00000E-01 6.12323E-17
 -1         8 5.00000E-01 5.00000E-01 3.06162E-17
 -1         9 1.00000E+00 7.50000E-01 6.12323E-17
 -1        10 2.00000E+00 1.00000E+00 1.22465E-16
 -1        11 1.50000E+00 7.50000E-01 9.18485E-17
 -1        12 1.50000E+00 1.00000E+00 9.18485E-17
 -1        13 2.00000E+00 5.00000E-01 1.22465E-16
 -1        14 1.50000E+00 5.00000E-01 9.18485E-17
 -1        15 2.00000E+00 7.50000E-01 1.22465E-16
 -1        16 3.00000E+00 1.00000E+00 1.83697E-16
 -1        17 2.50000E+00 7.50000E-01 1.53081E-16
 -1        18 2.50000E+00 1.00000E+00 1.53081E-16
 -1        19 3.00000E+00 5.00000E-01 1.83697E-16
 -1        20 2.50000E+00 5.00000E-01 1.53081E-16
 -1        21 3.00000E+00 7.50000E-01 1.83697E-16
 -1        22 4.00000E+00 1.00000E+00 2.44929E-16
 -1        23 3.50000E+00 7.50000E-01 2.14313E-16
 -1        24 3.50000E+00 1.00000E+00 2.14313E-16
 -1        25 4.00000E+00 5.00000E-01 2.44929E-16
 -1        26 3.50000E+00 5.00000E-01 2.14313E-16
 -1        27 4.00000E+00 7.50000E-01 2.44929E-16
 -1        28 5.00000E+00 1.00000E+00 3.06162E-16
 -1        29 4.50000E+00 7.50000E-01 2.75546E-16
 -1        30 4.50000E+00 1.00000E+00 2.75546E-16
 -1        31 5.00000E+00 5.00000E-01 3.06162E-16
 -1        32 4.50000E+00 5.00000E-01 2.75546E-16
 -1        33 5.00000E+00 7.50000E-01 3.06162E-16
 -1        34 6.00000E+00 1.00000E+00 3.67394E-16
 -1        35 5.50000E+00 7.50000E-01 3.36778E-16
 -1        36 5.50000E+00 1.00000E+00 3.36778E-16
 -1        37 6.00000E+00 5.00000E-01 3.67394E-16
 -1        38 5.50000E+00 5.00000E-01 3.36778E-16
 -1        39 6.00000E+00 7.50000E-01 3.67394E-16
 -1        40 7.00000E+00 1.00000E+00 4.28626E-16
 -1        41 6.50000E+00 7.50000E-01 3.98010E-16
 -1        42 6.50000E+00 1.00000E+00 3.98010E-16
 -1        43 7.00000E+00 5.00000E-01 4.28626E-16
 -1        44 6.50000E+00 5.00000E-01 3.98010E-16
 -1        45 7.00000E+00 7.50000E-01 4.28626E-16
 -1        46 8.00000E+00 1.00000E+00 4.89859E-16
 -1        47 7.50000E+00 7.50000E-01 4.59243E-16
 -1        48 7.50000E+00 1.00000E+00 4.59243E-16
 -1        49 8.00000E+00 5.00000E-01 4.89859E-16
 -1        50 7.50000E+00 5.00000E-01 4.59243E-16
 -1        51 8.00000E+00 7.50000E-01 4.89859E-16
 -1        52 0.00000E+00 0.00000E+00 0.00000E+00
 -1        53 0.00000E+00 2.50000E-01 0.00000E+00
 -1        54 5.00000E-01 2.50000E-01 3.06162E-17
 -1        55 1.00000E+00 0.00000E+00 6.12323E-17
 -1        56 5.00000E-01 0.00000E+00 3.06162E-17
 -1        57 1.00000E+00 2.50000E-01 6.12323E-17
 -1        58 1.50000E+00 2.50000E-01 9.18485E-17
 -1        59 2.00000E+00 0.00000E+00 1.22465E-16
 -1        60 1.50000E+00 0.00000E+00 9.18485E-17
 -1        61 2.00000E+00 2.50000E-01 1.22465E-16
 -1        62 2.50000E+00 2.50000E-01 1.53081E-16
 -1        63 3.00000E+00 0.00000E+00 1.83697E-16
 -1        64 2.50000E+00 0.00000E+00 1.53081E-16
 -1        65 3.00000E+00 2.50000E-01 1.83697E-16
 -1        66 3.50000E+00 2.50000E-01 2.14313E-16
 -1        67 4.00000E+00 0.00000E+00 2.44929E-16
 -1        68 3.50000E+00 0.00000E+00 2.14313E-16
 -1        69 4.00000E+00 2.50000E-01 2.44929E-16
 -1        70 4.50000E+00 2.50000E-01 2.75546E-16
 -1        71 5.00000E+00 0.00000E+00 3.06162E-16
 -1        72 4.50000E+00 0.00000E+00 2.75546E-16
 -1        73 5.00000E+00 2.50000E-01 3.06162E-16
 -1        74 5.50000E+00 2.50000E-01 3.36778E-16
 -1        75 6.00000E+00 0.00000E+00 3.67394E-16
 -1        76 5.50000E+00 0.00000E+00 3.36778E-16
 -1        77 6.00000E+00 2.50000E-01 3.67394E-16
 -1        78 6.50000E+00 2.50000E-01 3.98010E-16
 -1        79 7.00000E+00 0.00000E+00 4.28626E-16
 -1        80 6.50000E+00 0.00000E+00 3.98010E-16
 -1        81 7.00000E+00 2.50000E-01 4.28626E-16
 -1        82 7.50000E+00 2.50000E-01 4.59243E-16
 -1        83 8.00000E+00 0.00000E+00 4.89859E-16
 -1        84 7.50000E+00 0.00000E+00 4.59243E-16
 -1        85 8.00000E+00 2.50000E-01 4.89859E-16
 -3
    3C                            32                                     1
 -1         1    8    0    1
 -2         1         2         3         4         5         6
 -1         2    8    0    1
 -2         3         2         7         5         8         9
 -1         3    8    0    1
 -2         3         7        10         9        11        12
 -1         4    8    0    1
 -2        10         7        13        11        14        15
 -1         5    8    0    1
 -2        10        13        16        15        17        18
 -1         6    8    0    1
 -2        16        13        19        17        20        21
 -1         7    8    0    1
 -2        16        19        22        21        23        24
 -1         8    8    0    1
 -2        22        19        25        23        26        27
 -1         9    8    0    1
 -2        22        25        28        27        29        30
 -1        10    8    0    1
 -2        28        25        31        29        32        33
 -1        11    8    0    1
 -2        28        31        34        33        35        36
 -1        12    8    0    1
 -2        34        31        37        35        38        39
 -1        13    8    0    1
 -2        34        37        40        39        41        42
 -1        14    8    0    1
 -2        40        37        43        41        44        45
 -1        15    8    0    1
 -2        40        43        46        45        47        48
 -1        16    8    0    1
 -2        46        43        49        47        50        51
 -1        17    8    0    1
 -2         2        52         7        53        54         8
 -1        18    8    0    1
 -2         7        52        55        54        56        57
 -1        19    8    0    1
 -2         7        55        13        57        58        14
 -1        20    8    0    1
 -2        13        55        59        58        60        61
 -1        21    8    0    1
 -2        13        59        19        61        62        20
 -1        22    8    0    1
 -2        19        59        63        62        64        65
 -1        23    8    0    1
 -2        19        63        25        65        66        26
 -1        24    8    0    1
 -2        25        63        67        66        68        69
 -1        25    8    0    1
 -2        25        67        31        69        70        32
 -1        26    8    0    1
 -2        31        67        71        70        72        73
 -1        27    8    0    1
 -2        31        71        37        73        74        38
 -1        28    8    0    1
 -2        37        71        75        74        76        77
 -1        29    8    0    1
 -2        37        75        43        77        78        44
 -1        30    8    0    1
 -2        43        75        79        78        80        81
 -1        31    8    0    1
 -2        43        79        49        81        82        50
 -1        32    8    0    1
 -2        49        79        83        82        84        85
 -3
 9999
