# vtk DataFile Version 3.0

ASCII
DATASET UNSTRUCTURED_GRID

POINTS 44 double
	-1.25000000E-01	 1.25000000E-01	 0.00000000E+00
	-1.25000000E-01	-1.25000000E-01	 0.00000000E+00
	 1.25000000E-01	-1.25000000E-01	 0.00000000E+00
	 1.25000000E-01	 1.25000000E-01	 0.00000000E+00
	-1.25000000E-01	 1.25000000E-01	 1.00000000E+00
	-1.25000000E-01	-1.25000000E-01	 1.00000000E+00
	 1.25000000E-01	-1.25000000E-01	 1.00000000E+00
	 1.25000000E-01	 1.25000000E-01	 1.00000000E+00
	-1.25000000E-01	 1.25000000E-01	 2.00000000E+00
	-1.25000000E-01	-1.25000000E-01	 2.00000000E+00
	 1.25000000E-01	-1.25000000E-01	 2.00000000E+00
	 1.25000000E-01	 1.25000000E-01	 2.00000000E+00
	-1.25000000E-01	 1.25000000E-01	 3.00000000E+00
	-1.25000000E-01	-1.25000000E-01	 3.00000000E+00
	 1.25000000E-01	-1.25000000E-01	 3.00000000E+00
	 1.25000000E-01	 1.25000000E-01	 3.00000000E+00
	-1.25000000E-01	 1.25000000E-01	 4.00000000E+00
	-1.25000000E-01	-1.25000000E-01	 4.00000000E+00
	 1.25000000E-01	-1.25000000E-01	 4.00000000E+00
	 1.25000000E-01	 1.25000000E-01	 4.00000000E+00
	-1.25000000E-01	 1.25000000E-01	 5.00000000E+00
	-1.25000000E-01	-1.25000000E-01	 5.00000000E+00
	 1.25000000E-01	-1.25000000E-01	 5.00000000E+00
	 1.25000000E-01	 1.25000000E-01	 5.00000000E+00
	-1.25000000E-01	 1.25000000E-01	 6.00000000E+00
	-1.25000000E-01	-1.25000000E-01	 6.00000000E+00
	 1.25000000E-01	-1.25000000E-01	 6.00000000E+00
	 1.25000000E-01	 1.25000000E-01	 6.00000000E+00
	-1.25000000E-01	 1.25000000E-01	 7.00000000E+00
	-1.25000000E-01	-1.25000000E-01	 7.00000000E+00
	 1.25000000E-01	-1.25000000E-01	 7.00000000E+00
	 1.25000000E-01	 1.25000000E-01	 7.00000000E+00
	-1.25000000E-01	 1.25000000E-01	 8.00000000E+00
	-1.25000000E-01	-1.25000000E-01	 8.00000000E+00
	 1.25000000E-01	-1.25000000E-01	 8.00000000E+00
	 1.25000000E-01	 1.25000000E-01	 8.00000000E+00
	-1.25000000E-01	 1.25000000E-01	 9.00000000E+00
	-1.25000000E-01	-1.25000000E-01	 9.00000000E+00
	 1.25000000E-01	-1.25000000E-01	 9.00000000E+00
	 1.25000000E-01	 1.25000000E-01	 9.00000000E+00
	-1.25000000E-01	 1.25000000E-01	 1.00000000E+01
	-1.25000000E-01	-1.25000000E-01	 1.00000000E+01
	 1.25000000E-01	-1.25000000E-01	 1.00000000E+01
	 1.25000000E-01	 1.25000000E-01	 1.00000000E+01

CELLS 10 90
	8 0 4 5 1 3 7 6 2 
	8 4 8 9 5 7 11 10 6 
	8 8 12 13 9 11 15 14 10 
	8 12 16 17 13 15 19 18 14 
	8 16 20 21 17 19 23 22 18 
	8 20 24 25 21 23 27 26 22 
	8 24 28 29 25 27 31 30 26 
	8 28 32 33 29 31 35 34 30 
	8 32 36 37 33 35 39 38 34 
	8 36 40 41 37 39 43 42 38 

CELL_TYPES 10
	12
	12
	12
	12
	12
	12
	12
	12
	12
	12

POINT_DATA 44
FIELD U 1
	U 3 44 double
		 4.74961000E-15	-1.38493000E-05	 1.23879000E-20
		-4.74692000E-15	 1.38493000E-05	-1.23879000E-20
		 4.74708000E-15	-1.38493000E-05	 1.23879000E-20
		-4.74977000E-15	 1.38493000E-05	-1.23879000E-20
		 1.46107000E-03	-1.30334000E-05	 3.64227000E-04
		 1.46107000E-03	 1.30334000E-05	 3.64227000E-04
		 1.46107000E-03	-1.30334000E-05	-3.64227000E-04
		 1.46107000E-03	 1.30334000E-05	-3.64227000E-04
		 5.68495000E-03	-1.15102000E-05	 6.90704000E-04
		 5.68495000E-03	 1.15102000E-05	 6.90704000E-04
		 5.68495000E-03	-1.15102000E-05	-6.90704000E-04
		 5.68495000E-03	 1.15102000E-05	-6.90704000E-04
		 1.23667000E-02	-1.00813000E-05	 9.78693000E-04
		 1.23667000E-02	 1.00813000E-05	 9.78693000E-04
		 1.23667000E-02	-1.00813000E-05	-9.78693000E-04
		 1.23667000E-02	 1.00813000E-05	-9.78693000E-04
		 2.11988000E-02	-8.63984000E-06	 1.22829000E-03
		 2.11988000E-02	 8.63982000E-06	 1.22829000E-03
		 2.11988000E-02	-8.63984000E-06	-1.22829000E-03
		 2.11988000E-02	 8.63982000E-06	-1.22829000E-03
		 3.18741000E-02	-7.20001000E-06	 1.43949000E-03
		 3.18741000E-02	 7.19999000E-06	 1.43949000E-03
		 3.18741000E-02	-7.20001000E-06	-1.43949000E-03
		 3.18741000E-02	 7.19999000E-06	-1.43949000E-03
		 4.40854000E-02	-5.76019000E-06	 1.61229000E-03
		 4.40854000E-02	 5.76016000E-06	 1.61229000E-03
		 4.40854000E-02	-5.76019000E-06	-1.61229000E-03
		 4.40854000E-02	 5.76016000E-06	-1.61229000E-03
		 5.75256000E-02	-4.31872000E-06	 1.74669000E-03
		 5.75256000E-02	 4.31868000E-06	 1.74669000E-03
		 5.75256000E-02	-4.31872000E-06	-1.74669000E-03
		 5.75256000E-02	 4.31868000E-06	-1.74669000E-03
		 7.18873000E-02	-2.88980000E-06	 1.84270000E-03
		 7.18873000E-02	 2.88976000E-06	 1.84270000E-03
		 7.18873000E-02	-2.88980000E-06	-1.84270000E-03
		 7.18873000E-02	 2.88976000E-06	-1.84270000E-03
		 8.68632000E-02	-1.36664000E-06	 1.90023000E-03
		 8.68632000E-02	 1.36659000E-06	 1.90023000E-03
		 8.68632000E-02	-1.36664000E-06	-1.90023000E-03
		 8.68632000E-02	 1.36659000E-06	-1.90023000E-03
		 1.02148000E-01	-5.50696000E-07	 1.92000000E-03
		 1.02148000E-01	 5.50632000E-07	 1.92000000E-03
		 1.02148000E-01	-5.50696000E-07	-1.92000000E-03
		 1.02148000E-01	 5.50632000E-07	-1.92000000E-03
FIELD S 1
	S 10 44 double
		-1.88294000E+01	-2.48442000E+01	 3.62915000E+03	 1.25529000E+01	 3.13823000E+00	 1.59994000E+01	 3.65116447E+03	-3.47600854E+01	-8.98647441E+00	 3.62922296E+03
		-1.88294000E+01	-2.48442000E+01	 3.62915000E+03	-1.25529000E+01	-3.13823000E+00	 1.59994000E+01	 3.65116447E+03	-3.47600854E+01	-8.98647441E+00	 3.62922296E+03
		 1.88294000E+01	 2.48442000E+01	-3.62915000E+03	-1.25529000E+01	 3.13823000E+00	 1.59994000E+01	 3.65116447E+03	-3.62922296E+03	 8.98647441E+00	 3.47600854E+01
		 1.88294000E+01	 2.48442000E+01	-3.62915000E+03	 1.25529000E+01	-3.13823000E+00	 1.59994000E+01	 3.65116447E+03	-3.62922296E+03	 8.98647441E+00	 3.47600854E+01
		-8.16004000E+00	-1.07667000E+01	 3.44782000E+03	 5.44003000E+00	 4.49824000E+00	 1.59994000E+01	 3.45741678E+03	-1.50691607E+01	-3.93756252E+00	 3.44789998E+03
		-8.16004000E+00	-1.07667000E+01	 3.44782000E+03	-5.44003000E+00	-4.49824000E+00	 1.59994000E+01	 3.45741678E+03	-1.50691607E+01	-3.93756252E+00	 3.44789998E+03
		 8.16004000E+00	 1.07667000E+01	-3.44782000E+03	-5.44003000E+00	 4.49824000E+00	 1.59994000E+01	 3.45741678E+03	-3.44789998E+03	 3.93756252E+00	 1.50691607E+01
		 8.16004000E+00	 1.07667000E+01	-3.44782000E+03	 5.44003000E+00	-4.49824000E+00	 1.59994000E+01	 3.45741678E+03	-3.44789998E+03	 3.93756252E+00	 1.50691607E+01
		 1.08745000E+00	 1.43482000E+00	 3.07307000E+03	-7.24966000E-01	 5.67700000E+00	 1.59994000E+01	 3.07194987E+03	 4.31005054E-01	 1.99746197E+00	 3.07316380E+03
		 1.08745000E+00	 1.43482000E+00	 3.07307000E+03	 7.24966000E-01	-5.67700000E+00	 1.59994000E+01	 3.07194987E+03	 4.31005054E-01	 1.99746197E+00	 3.07316380E+03
		-1.08745000E+00	-1.43482000E+00	-3.07307000E+03	 7.24966000E-01	 5.67700000E+00	 1.59994000E+01	 3.07194987E+03	-3.07316380E+03	-1.99746197E+00	-4.31005054E-01
		-1.08745000E+00	-1.43482000E+00	-3.07307000E+03	-7.24966000E-01	-5.67700000E+00	 1.59994000E+01	 3.07194987E+03	-3.07316380E+03	-1.99746197E+00	-4.31005054E-01
		-1.44875000E-01	-1.91153000E-01	 2.68784000E+03	 9.65832000E-02	 5.51991000E+00	 1.59994000E+01	 2.68816786E+03	-2.87741067E-01	-1.54851771E-01	 2.68794656E+03
		-1.44875000E-01	-1.91153000E-01	 2.68784000E+03	-9.65832000E-02	-5.51991000E+00	 1.59994000E+01	 2.68816786E+03	-2.87741067E-01	-1.54851771E-01	 2.68794656E+03
		 1.44875000E-01	 1.91153000E-01	-2.68784000E+03	-9.65832000E-02	 5.51991000E+00	 1.59994000E+01	 2.68816786E+03	-2.68794656E+03	 1.54851771E-01	 2.87741067E-01
		 1.44875000E-01	 1.91153000E-01	-2.68784000E+03	 9.65832000E-02	-5.51991000E+00	 1.59994000E+01	 2.68816786E+03	-2.68794656E+03	 1.54851771E-01	 2.87741067E-01
		 1.89700000E-02	 2.50297000E-02	 2.30400000E+03	-1.26466000E-02	 5.54089000E+00	 1.59994000E+01	 2.30416464E+03	-1.13072071E-01	 3.26497873E-02	 2.30412442E+03
		 1.89700000E-02	 2.50297000E-02	 2.30400000E+03	 1.26466000E-02	-5.54089000E+00	 1.59994000E+01	 2.30416464E+03	-1.13072071E-01	 3.26497873E-02	 2.30412442E+03
		-1.89700000E-02	-2.50297000E-02	-2.30400000E+03	 1.26466000E-02	 5.54089000E+00	 1.59994000E+01	 2.30416464E+03	-2.30412442E+03	-3.26497873E-02	 1.13072071E-01
		-1.89700000E-02	-2.50297000E-02	-2.30400000E+03	-1.26466000E-02	-5.54089000E+00	 1.59994000E+01	 2.30416464E+03	-2.30412442E+03	-3.26497873E-02	 1.13072071E-01
		 1.58466000E-09	 6.18833000E-10	 1.91999000E+03	-6.39968000E-11	 5.53773000E+00	 1.59994000E+01	 1.92021393E+03	-1.49284614E-01	 7.61621500E-10	 1.92013928E+03
		-8.84864000E-10	-5.05608000E-10	 1.91999000E+03	-6.47129000E-10	-5.53773000E+00	 1.59994000E+01	 1.92021393E+03	-1.49284615E-01	-9.46250800E-10	 1.92013928E+03
		-2.32706000E-10	 8.49525000E-11	-1.91999000E+03	 2.56518000E-10	 5.53773000E+00	 1.59994000E+01	 1.92021393E+03	-1.92013928E+03	-1.07333333E-10	 1.49284615E-01
		 1.68311000E-09	 9.61350000E-10	-1.91999000E+03	 7.41215000E-10	-5.53773000E+00	 1.59994000E+01	 1.92021393E+03	-1.92013928E+03	 1.49663105E-09	 1.49284616E-01
		-1.89700000E-02	-2.50297000E-02	 1.53597000E+03	 1.26466000E-02	 5.54089000E+00	 1.59994000E+01	 1.53627194E+03	-1.98809417E-01	-3.18119181E-02	 1.53615662E+03
		-1.89700000E-02	-2.50297000E-02	 1.53597000E+03	-1.26466000E-02	-5.54089000E+00	 1.59994000E+01	 1.53627194E+03	-1.98809417E-01	-3.18119181E-02	 1.53615662E+03
		 1.89700000E-02	 2.50297000E-02	-1.53597000E+03	-1.26466000E-02	 5.54089000E+00	 1.59994000E+01	 1.53627194E+03	-1.53615662E+03	 3.18119181E-02	 1.98809417E-01
		 1.89700000E-02	 2.50297000E-02	-1.53597000E+03	 1.26466000E-02	-5.54089000E+00	 1.59994000E+01	 1.53627194E+03	-1.53615662E+03	 3.18119181E-02	 1.98809417E-01
		 1.44875000E-01	 1.91153000E-01	 1.15214000E+03	-9.65832000E-02	 5.51991000E+00	 1.59994000E+01	 1.15234493E+03	-1.67575782E-01	 2.55013469E-01	 1.15238859E+03
		 1.44875000E-01	 1.91153000E-01	 1.15214000E+03	 9.65832000E-02	-5.51991000E+00	 1.59994000E+01	 1.15234493E+03	-1.67575782E-01	 2.55013469E-01	 1.15238859E+03
		-1.44875000E-01	-1.91153000E-01	-1.15214000E+03	 9.65832000E-02	 5.51991000E+00	 1.59994000E+01	 1.15234493E+03	-1.15238859E+03	-2.55013469E-01	 1.67575782E-01
		-1.44875000E-01	-1.91153000E-01	-1.15214000E+03	-9.65832000E-02	-5.51991000E+00	 1.59994000E+01	 1.15234493E+03	-1.15238859E+03	-2.55013469E-01	 1.67575782E-01
		-1.08745000E+00	-1.43482000E+00	 7.66908000E+02	 7.24966000E-01	 5.67700000E+00	 1.59994000E+01	 7.68732798E+02	-2.05603844E+00	-8.41527132E-01	 7.67283296E+02
		-1.08745000E+00	-1.43482000E+00	 7.66908000E+02	-7.24966000E-01	-5.67700000E+00	 1.59994000E+01	 7.68732798E+02	-2.05603844E+00	-8.41527132E-01	 7.67283296E+02
		 1.08745000E+00	 1.43482000E+00	-7.66908000E+02	-7.24966000E-01	 5.67700000E+00	 1.59994000E+01	 7.68732798E+02	-7.67283296E+02	 8.41527132E-01	 2.05603844E+00
		 1.08745000E+00	 1.43482000E+00	-7.66908000E+02	 7.24966000E-01	-5.67700000E+00	 1.59994000E+01	 7.68732798E+02	-7.67283296E+02	 8.41527132E-01	 2.05603844E+00
		 8.16004000E+00	 1.07667000E+01	 3.92158000E+02	-5.44003000E+00	 4.49824000E+00	 1.59994000E+01	 3.83898037E+02	 3.25827046E+00	 1.49553137E+01	 3.92871156E+02
		 8.16004000E+00	 1.07667000E+01	 3.92158000E+02	 5.44003000E+00	-4.49824000E+00	 1.59994000E+01	 3.83898037E+02	 3.25827046E+00	 1.49553137E+01	 3.92871156E+02
		-8.16004000E+00	-1.07667000E+01	-3.92158000E+02	 5.44003000E+00	 4.49824000E+00	 1.59994000E+01	 3.83898037E+02	-3.92871156E+02	-1.49553137E+01	-3.25827046E+00
		-8.16004000E+00	-1.07667000E+01	-3.92158000E+02	-5.44003000E+00	-4.49824000E+00	 1.59994000E+01	 3.83898037E+02	-3.92871156E+02	-1.49553137E+01	-3.25827046E+00
		 1.88294000E+01	 2.48442000E+01	 2.10828000E+02	-1.25529000E+01	 3.13823000E+00	 1.59994000E+01	 1.92392881E+02	 7.88122599E+00	 3.44447911E+01	 2.12175583E+02
		 1.88294000E+01	 2.48442000E+01	 2.10828000E+02	 1.25529000E+01	-3.13823000E+00	 1.59994000E+01	 1.92392881E+02	 7.88122599E+00	 3.44447911E+01	 2.12175583E+02
		-1.88294000E+01	-2.48442000E+01	-2.10828000E+02	 1.25529000E+01	 3.13823000E+00	 1.59994000E+01	 1.92392881E+02	-2.12175583E+02	-3.44447911E+01	-7.88122599E+00
		-1.88294000E+01	-2.48442000E+01	-2.10828000E+02	-1.25529000E+01	-3.13823000E+00	 1.59994000E+01	 1.92392881E+02	-2.12175583E+02	-3.44447911E+01	-7.88122599E+00
