<?xml version="1.0"?>
<VTKFile type="UnstructuredGrid" version="0.1" byte_order="LittleEndian">
	<UnstructuredGrid>
		<Piece NumberOfPoints="81" NumberOfCells="32">
			<Points>
				<DataArray type="Float64" NumberOfComponents="3" format="ascii">
					 0.00000000E+00	 0.00000000E+00	 0.00000000E+00
					 1.00000000E+00	 0.00000000E+00	 0.00000000E+00
					 1.00000000E+00	 1.50000000E+00	 0.00000000E+00
					 0.00000000E+00	 1.50000000E+00	 0.00000000E+00
					 0.00000000E+00	 0.00000000E+00	 8.00000000E+00
					 1.00000000E+00	 0.00000000E+00	 8.00000000E+00
					 1.00000000E+00	 1.50000000E+00	 8.00000000E+00
					 0.00000000E+00	 1.50000000E+00	 8.00000000E+00
					 5.00000000E-01	 0.00000000E+00	 0.00000000E+00
					 1.00000000E+00	 7.50000000E-01	 0.00000000E+00
					 5.00000000E-01	 1.50000000E+00	 0.00000000E+00
					 0.00000000E+00	 7.50000000E-01	 0.00000000E+00
					 5.00000000E-01	 0.00000000E+00	 8.00000000E+00
					 1.00000000E+00	 7.50000000E-01	 8.00000000E+00
					 5.00000000E-01	 1.50000000E+00	 8.00000000E+00
					 0.00000000E+00	 7.50000000E-01	 8.00000000E+00
					 1.00000000E+00	 0.00000000E+00	 1.00000000E+00
					 1.00000000E+00	 0.00000000E+00	 2.00000000E+00
					 1.00000000E+00	 0.00000000E+00	 3.00000000E+00
					 1.00000000E+00	 0.00000000E+00	 4.00000000E+00
					 1.00000000E+00	 0.00000000E+00	 5.00000000E+00
					 1.00000000E+00	 0.00000000E+00	 6.00000000E+00
					 1.00000000E+00	 0.00000000E+00	 7.00000000E+00
					 0.00000000E+00	 0.00000000E+00	 7.00000000E+00
					 0.00000000E+00	 0.00000000E+00	 6.00000000E+00
					 0.00000000E+00	 0.00000000E+00	 5.00000000E+00
					 0.00000000E+00	 0.00000000E+00	 4.00000000E+00
					 0.00000000E+00	 0.00000000E+00	 3.00000000E+00
					 0.00000000E+00	 0.00000000E+00	 2.00000000E+00
					 0.00000000E+00	 0.00000000E+00	 1.00000000E+00
					 1.00000000E+00	 1.50000000E+00	 1.00000000E+00
					 1.00000000E+00	 1.50000000E+00	 2.00000000E+00
					 1.00000000E+00	 1.50000000E+00	 3.00000000E+00
					 1.00000000E+00	 1.50000000E+00	 4.00000000E+00
					 1.00000000E+00	 1.50000000E+00	 5.00000000E+00
					 1.00000000E+00	 1.50000000E+00	 6.00000000E+00
					 1.00000000E+00	 1.50000000E+00	 7.00000000E+00
					 0.00000000E+00	 1.50000000E+00	 1.00000000E+00
					 0.00000000E+00	 1.50000000E+00	 2.00000000E+00
					 0.00000000E+00	 1.50000000E+00	 3.00000000E+00
					 0.00000000E+00	 1.50000000E+00	 4.00000000E+00
					 0.00000000E+00	 1.50000000E+00	 5.00000000E+00
					 0.00000000E+00	 1.50000000E+00	 6.00000000E+00
					 0.00000000E+00	 1.50000000E+00	 7.00000000E+00
					 5.00000000E-01	 7.50000000E-01	 0.00000000E+00
					 5.00000000E-01	 7.50000000E-01	 8.00000000E+00
					 5.00000000E-01	 0.00000000E+00	 1.00000000E+00
					 5.00000000E-01	 0.00000000E+00	 2.00000000E+00
					 5.00000000E-01	 0.00000000E+00	 3.00000000E+00
					 5.00000000E-01	 0.00000000E+00	 4.00000000E+00
					 5.00000000E-01	 0.00000000E+00	 5.00000000E+00
					 5.00000000E-01	 0.00000000E+00	 6.00000000E+00
					 5.00000000E-01	 0.00000000E+00	 7.00000000E+00
					 1.00000000E+00	 7.50000000E-01	 1.00000000E+00
					 1.00000000E+00	 7.50000000E-01	 2.00000000E+00
					 1.00000000E+00	 7.50000000E-01	 3.00000000E+00
					 1.00000000E+00	 7.50000000E-01	 4.00000000E+00
					 1.00000000E+00	 7.50000000E-01	 5.00000000E+00
					 1.00000000E+00	 7.50000000E-01	 6.00000000E+00
					 1.00000000E+00	 7.50000000E-01	 7.00000000E+00
					 5.00000000E-01	 1.50000000E+00	 1.00000000E+00
					 5.00000000E-01	 1.50000000E+00	 2.00000000E+00
					 5.00000000E-01	 1.50000000E+00	 3.00000000E+00
					 5.00000000E-01	 1.50000000E+00	 4.00000000E+00
					 5.00000000E-01	 1.50000000E+00	 5.00000000E+00
					 5.00000000E-01	 1.50000000E+00	 6.00000000E+00
					 5.00000000E-01	 1.50000000E+00	 7.00000000E+00
					 0.00000000E+00	 7.50000000E-01	 1.00000000E+00
					 0.00000000E+00	 7.50000000E-01	 2.00000000E+00
					 0.00000000E+00	 7.50000000E-01	 3.00000000E+00
					 0.00000000E+00	 7.50000000E-01	 4.00000000E+00
					 0.00000000E+00	 7.50000000E-01	 5.00000000E+00
					 0.00000000E+00	 7.50000000E-01	 6.00000000E+00
					 0.00000000E+00	 7.50000000E-01	 7.00000000E+00
					 5.00000000E-01	 7.50000000E-01	 1.00000000E+00
					 5.00000000E-01	 7.50000000E-01	 2.00000000E+00
					 5.00000000E-01	 7.50000000E-01	 3.00000000E+00
					 5.00000000E-01	 7.50000000E-01	 4.00000000E+00
					 5.00000000E-01	 7.50000000E-01	 5.00000000E+00
					 5.00000000E-01	 7.50000000E-01	 6.00000000E+00
					 5.00000000E-01	 7.50000000E-01	 7.00000000E+00
				</DataArray>
			</Points>
			<Cells>
				<DataArray type="Int32" Name="connectivity" format="ascii">
					0 8 44 11 29 46 74 67 8 1 9 44 46 16 53 74 11 44 10 3 67 74 60 37 44 9 2 10 74 53 30 60 29 46 74 67 28 47 75 68 46 16 53 74 47 17 54 75 67 74 60 37 68 75 61 38 74 53 30 60 75 54 31 61 28 47 75 68 27 48 76 69 47 17 54 75 48 18 55 76 68 75 61 38 69 76 62 39 75 54 31 61 76 55 32 62 27 48 76 69 26 49 77 70 48 18 55 76 49 19 56 77 69 76 62 39 70 77 63 40 76 55 32 62 77 56 33 63 26 49 77 70 25 50 78 71 49 19 56 77 50 20 57 78 70 77 63 40 71 78 64 41 77 56 33 63 78 57 34 64 25 50 78 71 24 51 79 72 50 20 57 78 51 21 58 79 71 78 64 41 72 79 65 42 78 57 34 64 79 58 35 65 24 51 79 72 23 52 80 73 51 21 58 79 52 22 59 80 72 79 65 42 73 80 66 43 79 58 35 65 80 59 36 66 23 52 80 73 4 12 45 15 52 22 59 80 12 5 13 45 73 80 66 43 15 45 14 7 80 59 36 66 45 13 6 14 
				</DataArray>
				<DataArray type="Int32" Name="offsets" format="ascii">
					8 16 24 32 40 48 56 64 72 80 88 96 104 112 120 128 136 144 152 160 168 176 184 192 200 208 216 224 232 240 248 256 
				</DataArray>
				<DataArray type="UInt8" Name="types" format="ascii">
					12 12 12 12 12 12 12 12 12 12 12 12 12 12 12 12 12 12 12 12 12 12 12 12 12 12 12 12 12 12 12 12 
				</DataArray>
			</Cells>
			<PointData>
				<DataArray type="Float32" Name="SENFREQ" NumberOfComponents="2" ComponentName0="DFDN" ComponentName1="DFDNFIL" format="ascii">
					 0.00000000E+00	 0.00000000E+00
					 0.00000000E+00	 0.00000000E+00
					 0.00000000E+00	 0.00000000E+00
					 0.00000000E+00	 0.00000000E+00
					-1.71426000E+09	-4.50199000E-01
					-1.71425000E+09	-4.50198000E-01
					-1.71425000E+09	-4.50198000E-01
					-1.71425000E+09	-4.50198000E-01
					 0.00000000E+00	 0.00000000E+00
					 0.00000000E+00	 0.00000000E+00
					 0.00000000E+00	 0.00000000E+00
					 0.00000000E+00	 0.00000000E+00
					-2.13982000E+09	-4.49977000E-01
					-2.12712000E+09	-4.49580000E-01
					-2.13982000E+09	-4.49976000E-01
					-2.12714000E+09	-4.49580000E-01
					 6.21831000E+09	 1.00000000E+00
					 2.03402000E+09	 7.04996000E-01
					 1.06404000E+09	 3.26035000E-01
					 2.90699000E+08	 7.46526000E-02
					-3.55132000E+08	-1.02956000E-01
					-9.52395000E+08	-2.63788000E-01
					-1.58086000E+09	-3.92599000E-01
					-1.58086000E+09	-3.92599000E-01
					-9.52394000E+08	-2.63788000E-01
					-3.55135000E+08	-1.02956000E-01
					 2.90699000E+08	 7.46526000E-02
					 1.06404000E+09	 3.26035000E-01
					 2.03402000E+09	 7.04996000E-01
					 6.21831000E+09	 1.00000000E+00
					 6.21831000E+09	 1.00000000E+00
					 2.03402000E+09	 7.04996000E-01
					 1.06404000E+09	 3.26035000E-01
					 2.90700000E+08	 7.46527000E-02
					-3.55131000E+08	-1.02956000E-01
					-9.52394000E+08	-2.63787000E-01
					-1.58085000E+09	-3.92599000E-01
					 6.21831000E+09	 1.00000000E+00
					 2.03402000E+09	 7.04996000E-01
					 1.06404000E+09	 3.26035000E-01
					 2.90698000E+08	 7.46527000E-02
					-3.55135000E+08	-1.02956000E-01
					-9.52397000E+08	-2.63787000E-01
					-1.58086000E+09	-3.92599000E-01
					 0.00000000E+00	 0.00000000E+00
					-3.22858000E+09	-4.49436000E-01
					 2.68829000E+09	 9.96516000E-01
					 9.80928000E+08	 7.04796000E-01
					 4.37097000E+08	 3.26598000E-01
					-9.52023000E+07	 7.46585000E-02
					-6.83365000E+08	-1.02980000E-01
					-1.38028000E+09	-2.63751000E-01
					-2.22573000E+09	-3.92443000E-01
					 1.09801000E+10	 9.92745000E-01
					 3.46176000E+09	 7.06302000E-01
					 1.83092000E+09	 3.28944000E-01
					 5.59581000E+08	 7.50948000E-02
					-4.54785000E+08	-1.02862000E-01
					-1.34243000E+09	-2.63578000E-01
					-2.24100000E+09	-3.92082000E-01
					 2.68829000E+09	 9.96516000E-01
					 9.80928000E+08	 7.04796000E-01
					 4.37098000E+08	 3.26598000E-01
					-9.51980000E+07	 7.46585000E-02
					-6.83362000E+08	-1.02980000E-01
					-1.38028000E+09	-2.63751000E-01
					-2.22572000E+09	-3.92442000E-01
					 1.09801000E+10	 9.92745000E-01
					 3.46176000E+09	 7.06302000E-01
					 1.83092000E+09	 3.28944000E-01
					 5.59580000E+08	 7.50948000E-02
					-4.54789000E+08	-1.02862000E-01
					-1.34243000E+09	-2.63578000E-01
					-2.24101000E+09	-3.92082000E-01
					 0.00000000E+00	 0.00000000E+00
					 0.00000000E+00	 0.00000000E+00
					 0.00000000E+00	 0.00000000E+00
					 0.00000000E+00	 0.00000000E+00
					 0.00000000E+00	 0.00000000E+00
					 0.00000000E+00	 0.00000000E+00
					 0.00000000E+00	 0.00000000E+00
				</DataArray>
			</PointData>
		</Piece>
	</UnstructuredGrid>
</VTKFile>