<?xml version="1.0"?>
<VTKFile type="UnstructuredGrid" version="0.1" byte_order="LittleEndian">
	<UnstructuredGrid>
		<Piece NumberOfPoints="261" NumberOfCells="32">
			<Points>
				<DataArray type="Float64" NumberOfComponents="3" format="ascii">
					 0.00000000E+00	 0.00000000E+00	 0.00000000E+00
					 1.00000000E+00	 0.00000000E+00	 0.00000000E+00
					 1.00000000E+00	 1.50000000E+00	 0.00000000E+00
					 0.00000000E+00	 1.50000000E+00	 0.00000000E+00
					 0.00000000E+00	 0.00000000E+00	 8.00000000E+00
					 1.00000000E+00	 0.00000000E+00	 8.00000000E+00
					 1.00000000E+00	 1.50000000E+00	 8.00000000E+00
					 0.00000000E+00	 1.50000000E+00	 8.00000000E+00
					 2.50000000E-01	 0.00000000E+00	 0.00000000E+00
					 5.00000000E-01	 0.00000000E+00	 0.00000000E+00
					 7.50000000E-01	 0.00000000E+00	 0.00000000E+00
					 1.00000000E+00	 3.75000000E-01	 0.00000000E+00
					 1.00000000E+00	 7.50000000E-01	 0.00000000E+00
					 1.00000000E+00	 1.12500000E+00	 0.00000000E+00
					 7.50000000E-01	 1.50000000E+00	 0.00000000E+00
					 5.00000000E-01	 1.50000000E+00	 0.00000000E+00
					 2.50000000E-01	 1.50000000E+00	 0.00000000E+00
					 0.00000000E+00	 1.12500000E+00	 0.00000000E+00
					 0.00000000E+00	 7.50000000E-01	 0.00000000E+00
					 0.00000000E+00	 3.75000000E-01	 0.00000000E+00
					 2.50000000E-01	 0.00000000E+00	 8.00000000E+00
					 5.00000000E-01	 0.00000000E+00	 8.00000000E+00
					 7.50000000E-01	 0.00000000E+00	 8.00000000E+00
					 1.00000000E+00	 3.75000000E-01	 8.00000000E+00
					 1.00000000E+00	 7.50000000E-01	 8.00000000E+00
					 1.00000000E+00	 1.12500000E+00	 8.00000000E+00
					 7.50000000E-01	 1.50000000E+00	 8.00000000E+00
					 5.00000000E-01	 1.50000000E+00	 8.00000000E+00
					 2.50000000E-01	 1.50000000E+00	 8.00000000E+00
					 0.00000000E+00	 1.12500000E+00	 8.00000000E+00
					 0.00000000E+00	 7.50000000E-01	 8.00000000E+00
					 0.00000000E+00	 3.75000000E-01	 8.00000000E+00
					 1.00000000E+00	 0.00000000E+00	 5.00000000E-01
					 1.00000000E+00	 0.00000000E+00	 1.00000000E+00
					 1.00000000E+00	 0.00000000E+00	 1.50000000E+00
					 1.00000000E+00	 0.00000000E+00	 2.00000000E+00
					 1.00000000E+00	 0.00000000E+00	 2.50000000E+00
					 1.00000000E+00	 0.00000000E+00	 3.00000000E+00
					 1.00000000E+00	 0.00000000E+00	 3.50000000E+00
					 1.00000000E+00	 0.00000000E+00	 4.00000000E+00
					 1.00000000E+00	 0.00000000E+00	 4.50000000E+00
					 1.00000000E+00	 0.00000000E+00	 5.00000000E+00
					 1.00000000E+00	 0.00000000E+00	 5.50000000E+00
					 1.00000000E+00	 0.00000000E+00	 6.00000000E+00
					 1.00000000E+00	 0.00000000E+00	 6.50000000E+00
					 1.00000000E+00	 0.00000000E+00	 7.00000000E+00
					 1.00000000E+00	 0.00000000E+00	 7.50000000E+00
					 0.00000000E+00	 0.00000000E+00	 7.50000000E+00
					 0.00000000E+00	 0.00000000E+00	 7.00000000E+00
					 0.00000000E+00	 0.00000000E+00	 6.50000000E+00
					 0.00000000E+00	 0.00000000E+00	 6.00000000E+00
					 0.00000000E+00	 0.00000000E+00	 5.50000000E+00
					 0.00000000E+00	 0.00000000E+00	 5.00000000E+00
					 0.00000000E+00	 0.00000000E+00	 4.50000000E+00
					 0.00000000E+00	 0.00000000E+00	 4.00000000E+00
					 0.00000000E+00	 0.00000000E+00	 3.50000000E+00
					 0.00000000E+00	 0.00000000E+00	 3.00000000E+00
					 0.00000000E+00	 0.00000000E+00	 2.50000000E+00
					 0.00000000E+00	 0.00000000E+00	 2.00000000E+00
					 0.00000000E+00	 0.00000000E+00	 1.50000000E+00
					 0.00000000E+00	 0.00000000E+00	 1.00000000E+00
					 0.00000000E+00	 0.00000000E+00	 5.00000000E-01
					 1.00000000E+00	 1.50000000E+00	 5.00000000E-01
					 1.00000000E+00	 1.50000000E+00	 1.00000000E+00
					 1.00000000E+00	 1.50000000E+00	 1.50000000E+00
					 1.00000000E+00	 1.50000000E+00	 2.00000000E+00
					 1.00000000E+00	 1.50000000E+00	 2.50000000E+00
					 1.00000000E+00	 1.50000000E+00	 3.00000000E+00
					 1.00000000E+00	 1.50000000E+00	 3.50000000E+00
					 1.00000000E+00	 1.50000000E+00	 4.00000000E+00
					 1.00000000E+00	 1.50000000E+00	 4.50000000E+00
					 1.00000000E+00	 1.50000000E+00	 5.00000000E+00
					 1.00000000E+00	 1.50000000E+00	 5.50000000E+00
					 1.00000000E+00	 1.50000000E+00	 6.00000000E+00
					 1.00000000E+00	 1.50000000E+00	 6.50000000E+00
					 1.00000000E+00	 1.50000000E+00	 7.00000000E+00
					 1.00000000E+00	 1.50000000E+00	 7.50000000E+00
					 0.00000000E+00	 1.50000000E+00	 5.00000000E-01
					 0.00000000E+00	 1.50000000E+00	 1.00000000E+00
					 0.00000000E+00	 1.50000000E+00	 1.50000000E+00
					 0.00000000E+00	 1.50000000E+00	 2.00000000E+00
					 0.00000000E+00	 1.50000000E+00	 2.50000000E+00
					 0.00000000E+00	 1.50000000E+00	 3.00000000E+00
					 0.00000000E+00	 1.50000000E+00	 3.50000000E+00
					 0.00000000E+00	 1.50000000E+00	 4.00000000E+00
					 0.00000000E+00	 1.50000000E+00	 4.50000000E+00
					 0.00000000E+00	 1.50000000E+00	 5.00000000E+00
					 0.00000000E+00	 1.50000000E+00	 5.50000000E+00
					 0.00000000E+00	 1.50000000E+00	 6.00000000E+00
					 0.00000000E+00	 1.50000000E+00	 6.50000000E+00
					 0.00000000E+00	 1.50000000E+00	 7.00000000E+00
					 0.00000000E+00	 1.50000000E+00	 7.50000000E+00
					 5.00000000E-01	 3.75000000E-01	 0.00000000E+00
					 2.50000000E-01	 7.50000000E-01	 0.00000000E+00
					 5.00000000E-01	 7.50000000E-01	 0.00000000E+00
					 7.50000000E-01	 7.50000000E-01	 0.00000000E+00
					 5.00000000E-01	 1.12500000E+00	 0.00000000E+00
					 5.00000000E-01	 3.75000000E-01	 8.00000000E+00
					 2.50000000E-01	 7.50000000E-01	 8.00000000E+00
					 5.00000000E-01	 7.50000000E-01	 8.00000000E+00
					 7.50000000E-01	 7.50000000E-01	 8.00000000E+00
					 5.00000000E-01	 1.12500000E+00	 8.00000000E+00
					 5.00000000E-01	 0.00000000E+00	 5.00000000E-01
					 2.50000000E-01	 0.00000000E+00	 1.00000000E+00
					 5.00000000E-01	 0.00000000E+00	 1.00000000E+00
					 7.50000000E-01	 0.00000000E+00	 1.00000000E+00
					 5.00000000E-01	 0.00000000E+00	 1.50000000E+00
					 2.50000000E-01	 0.00000000E+00	 2.00000000E+00
					 5.00000000E-01	 0.00000000E+00	 2.00000000E+00
					 7.50000000E-01	 0.00000000E+00	 2.00000000E+00
					 5.00000000E-01	 0.00000000E+00	 2.50000000E+00
					 2.50000000E-01	 0.00000000E+00	 3.00000000E+00
					 5.00000000E-01	 0.00000000E+00	 3.00000000E+00
					 7.50000000E-01	 0.00000000E+00	 3.00000000E+00
					 5.00000000E-01	 0.00000000E+00	 3.50000000E+00
					 2.50000000E-01	 0.00000000E+00	 4.00000000E+00
					 5.00000000E-01	 0.00000000E+00	 4.00000000E+00
					 7.50000000E-01	 0.00000000E+00	 4.00000000E+00
					 5.00000000E-01	 0.00000000E+00	 4.50000000E+00
					 2.50000000E-01	 0.00000000E+00	 5.00000000E+00
					 5.00000000E-01	 0.00000000E+00	 5.00000000E+00
					 7.50000000E-01	 0.00000000E+00	 5.00000000E+00
					 5.00000000E-01	 0.00000000E+00	 5.50000000E+00
					 2.50000000E-01	 0.00000000E+00	 6.00000000E+00
					 5.00000000E-01	 0.00000000E+00	 6.00000000E+00
					 7.50000000E-01	 0.00000000E+00	 6.00000000E+00
					 5.00000000E-01	 0.00000000E+00	 6.50000000E+00
					 2.50000000E-01	 0.00000000E+00	 7.00000000E+00
					 5.00000000E-01	 0.00000000E+00	 7.00000000E+00
					 7.50000000E-01	 0.00000000E+00	 7.00000000E+00
					 5.00000000E-01	 0.00000000E+00	 7.50000000E+00
					 1.00000000E+00	 7.50000000E-01	 5.00000000E-01
					 1.00000000E+00	 3.75000000E-01	 1.00000000E+00
					 1.00000000E+00	 7.50000000E-01	 1.00000000E+00
					 1.00000000E+00	 1.12500000E+00	 1.00000000E+00
					 1.00000000E+00	 7.50000000E-01	 1.50000000E+00
					 1.00000000E+00	 3.75000000E-01	 2.00000000E+00
					 1.00000000E+00	 7.50000000E-01	 2.00000000E+00
					 1.00000000E+00	 1.12500000E+00	 2.00000000E+00
					 1.00000000E+00	 7.50000000E-01	 2.50000000E+00
					 1.00000000E+00	 3.75000000E-01	 3.00000000E+00
					 1.00000000E+00	 7.50000000E-01	 3.00000000E+00
					 1.00000000E+00	 1.12500000E+00	 3.00000000E+00
					 1.00000000E+00	 7.50000000E-01	 3.50000000E+00
					 1.00000000E+00	 3.75000000E-01	 4.00000000E+00
					 1.00000000E+00	 7.50000000E-01	 4.00000000E+00
					 1.00000000E+00	 1.12500000E+00	 4.00000000E+00
					 1.00000000E+00	 7.50000000E-01	 4.50000000E+00
					 1.00000000E+00	 3.75000000E-01	 5.00000000E+00
					 1.00000000E+00	 7.50000000E-01	 5.00000000E+00
					 1.00000000E+00	 1.12500000E+00	 5.00000000E+00
					 1.00000000E+00	 7.50000000E-01	 5.50000000E+00
					 1.00000000E+00	 3.75000000E-01	 6.00000000E+00
					 1.00000000E+00	 7.50000000E-01	 6.00000000E+00
					 1.00000000E+00	 1.12500000E+00	 6.00000000E+00
					 1.00000000E+00	 7.50000000E-01	 6.50000000E+00
					 1.00000000E+00	 3.75000000E-01	 7.00000000E+00
					 1.00000000E+00	 7.50000000E-01	 7.00000000E+00
					 1.00000000E+00	 1.12500000E+00	 7.00000000E+00
					 1.00000000E+00	 7.50000000E-01	 7.50000000E+00
					 5.00000000E-01	 1.50000000E+00	 5.00000000E-01
					 7.50000000E-01	 1.50000000E+00	 1.00000000E+00
					 5.00000000E-01	 1.50000000E+00	 1.00000000E+00
					 2.50000000E-01	 1.50000000E+00	 1.00000000E+00
					 5.00000000E-01	 1.50000000E+00	 1.50000000E+00
					 7.50000000E-01	 1.50000000E+00	 2.00000000E+00
					 5.00000000E-01	 1.50000000E+00	 2.00000000E+00
					 2.50000000E-01	 1.50000000E+00	 2.00000000E+00
					 5.00000000E-01	 1.50000000E+00	 2.50000000E+00
					 7.50000000E-01	 1.50000000E+00	 3.00000000E+00
					 5.00000000E-01	 1.50000000E+00	 3.00000000E+00
					 2.50000000E-01	 1.50000000E+00	 3.00000000E+00
					 5.00000000E-01	 1.50000000E+00	 3.50000000E+00
					 7.50000000E-01	 1.50000000E+00	 4.00000000E+00
					 5.00000000E-01	 1.50000000E+00	 4.00000000E+00
					 2.50000000E-01	 1.50000000E+00	 4.00000000E+00
					 5.00000000E-01	 1.50000000E+00	 4.50000000E+00
					 7.50000000E-01	 1.50000000E+00	 5.00000000E+00
					 5.00000000E-01	 1.50000000E+00	 5.00000000E+00
					 2.50000000E-01	 1.50000000E+00	 5.00000000E+00
					 5.00000000E-01	 1.50000000E+00	 5.50000000E+00
					 7.50000000E-01	 1.50000000E+00	 6.00000000E+00
					 5.00000000E-01	 1.50000000E+00	 6.00000000E+00
					 2.50000000E-01	 1.50000000E+00	 6.00000000E+00
					 5.00000000E-01	 1.50000000E+00	 6.50000000E+00
					 7.50000000E-01	 1.50000000E+00	 7.00000000E+00
					 5.00000000E-01	 1.50000000E+00	 7.00000000E+00
					 2.50000000E-01	 1.50000000E+00	 7.00000000E+00
					 5.00000000E-01	 1.50000000E+00	 7.50000000E+00
					 0.00000000E+00	 7.50000000E-01	 5.00000000E-01
					 0.00000000E+00	 1.12500000E+00	 1.00000000E+00
					 0.00000000E+00	 7.50000000E-01	 1.00000000E+00
					 0.00000000E+00	 3.75000000E-01	 1.00000000E+00
					 0.00000000E+00	 7.50000000E-01	 1.50000000E+00
					 0.00000000E+00	 1.12500000E+00	 2.00000000E+00
					 0.00000000E+00	 7.50000000E-01	 2.00000000E+00
					 0.00000000E+00	 3.75000000E-01	 2.00000000E+00
					 0.00000000E+00	 7.50000000E-01	 2.50000000E+00
					 0.00000000E+00	 1.12500000E+00	 3.00000000E+00
					 0.00000000E+00	 7.50000000E-01	 3.00000000E+00
					 0.00000000E+00	 3.75000000E-01	 3.00000000E+00
					 0.00000000E+00	 7.50000000E-01	 3.50000000E+00
					 0.00000000E+00	 1.12500000E+00	 4.00000000E+00
					 0.00000000E+00	 7.50000000E-01	 4.00000000E+00
					 0.00000000E+00	 3.75000000E-01	 4.00000000E+00
					 0.00000000E+00	 7.50000000E-01	 4.50000000E+00
					 0.00000000E+00	 1.12500000E+00	 5.00000000E+00
					 0.00000000E+00	 7.50000000E-01	 5.00000000E+00
					 0.00000000E+00	 3.75000000E-01	 5.00000000E+00
					 0.00000000E+00	 7.50000000E-01	 5.50000000E+00
					 0.00000000E+00	 1.12500000E+00	 6.00000000E+00
					 0.00000000E+00	 7.50000000E-01	 6.00000000E+00
					 0.00000000E+00	 3.75000000E-01	 6.00000000E+00
					 0.00000000E+00	 7.50000000E-01	 6.50000000E+00
					 0.00000000E+00	 1.12500000E+00	 7.00000000E+00
					 0.00000000E+00	 7.50000000E-01	 7.00000000E+00
					 0.00000000E+00	 3.75000000E-01	 7.00000000E+00
					 0.00000000E+00	 7.50000000E-01	 7.50000000E+00
					 5.00000000E-01	 7.50000000E-01	 5.00000000E-01
					 5.00000000E-01	 3.75000000E-01	 1.00000000E+00
					 2.50000000E-01	 7.50000000E-01	 1.00000000E+00
					 5.00000000E-01	 7.50000000E-01	 1.00000000E+00
					 7.50000000E-01	 7.50000000E-01	 1.00000000E+00
					 5.00000000E-01	 1.12500000E+00	 1.00000000E+00
					 5.00000000E-01	 7.50000000E-01	 1.50000000E+00
					 5.00000000E-01	 3.75000000E-01	 2.00000000E+00
					 2.50000000E-01	 7.50000000E-01	 2.00000000E+00
					 5.00000000E-01	 7.50000000E-01	 2.00000000E+00
					 7.50000000E-01	 7.50000000E-01	 2.00000000E+00
					 5.00000000E-01	 1.12500000E+00	 2.00000000E+00
					 5.00000000E-01	 7.50000000E-01	 2.50000000E+00
					 5.00000000E-01	 3.75000000E-01	 3.00000000E+00
					 2.50000000E-01	 7.50000000E-01	 3.00000000E+00
					 5.00000000E-01	 7.50000000E-01	 3.00000000E+00
					 7.50000000E-01	 7.50000000E-01	 3.00000000E+00
					 5.00000000E-01	 1.12500000E+00	 3.00000000E+00
					 5.00000000E-01	 7.50000000E-01	 3.50000000E+00
					 5.00000000E-01	 3.75000000E-01	 4.00000000E+00
					 2.50000000E-01	 7.50000000E-01	 4.00000000E+00
					 5.00000000E-01	 7.50000000E-01	 4.00000000E+00
					 7.50000000E-01	 7.50000000E-01	 4.00000000E+00
					 5.00000000E-01	 1.12500000E+00	 4.00000000E+00
					 5.00000000E-01	 7.50000000E-01	 4.50000000E+00
					 5.00000000E-01	 3.75000000E-01	 5.00000000E+00
					 2.50000000E-01	 7.50000000E-01	 5.00000000E+00
					 5.00000000E-01	 7.50000000E-01	 5.00000000E+00
					 7.50000000E-01	 7.50000000E-01	 5.00000000E+00
					 5.00000000E-01	 1.12500000E+00	 5.00000000E+00
					 5.00000000E-01	 7.50000000E-01	 5.50000000E+00
					 5.00000000E-01	 3.75000000E-01	 6.00000000E+00
					 2.50000000E-01	 7.50000000E-01	 6.00000000E+00
					 5.00000000E-01	 7.50000000E-01	 6.00000000E+00
					 7.50000000E-01	 7.50000000E-01	 6.00000000E+00
					 5.00000000E-01	 1.12500000E+00	 6.00000000E+00
					 5.00000000E-01	 7.50000000E-01	 6.50000000E+00
					 5.00000000E-01	 3.75000000E-01	 7.00000000E+00
					 2.50000000E-01	 7.50000000E-01	 7.00000000E+00
					 5.00000000E-01	 7.50000000E-01	 7.00000000E+00
					 7.50000000E-01	 7.50000000E-01	 7.00000000E+00
					 5.00000000E-01	 1.12500000E+00	 7.00000000E+00
					 5.00000000E-01	 7.50000000E-01	 7.50000000E+00
				</DataArray>
			</Points>
			<Cells>
				<DataArray type="Int32" Name="connectivity" format="ascii">
					0 9 94 18 60 104 221 191 8 92 93 19 103 219 220 192 61 102 218 189 9 1 12 94 104 33 133 221 10 11 95 92 105 132 222 219 102 32 131 218 18 94 15 3 191 221 162 78 93 96 16 17 220 223 163 190 189 218 160 77 94 12 2 15 221 133 63 162 95 13 14 96 222 134 161 223 218 131 62 160 60 104 221 191 58 108 227 195 103 219 220 192 107 225 226 196 59 106 224 193 104 33 133 221 108 35 137 227 105 132 222 219 109 136 228 225 106 34 135 224 191 221 162 78 195 227 166 80 220 223 163 190 226 229 167 194 193 224 164 79 221 133 63 162 227 137 65 166 222 134 161 223 228 138 165 229 224 135 64 164 58 108 227 195 56 112 233 199 107 225 226 196 111 231 232 200 57 110 230 197 108 35 137 227 112 37 141 233 109 136 228 225 113 140 234 231 110 36 139 230 195 227 166 80 199 233 170 82 226 229 167 194 232 235 171 198 197 230 168 81 227 137 65 166 233 141 67 170 228 138 165 229 234 142 169 235 230 139 66 168 56 112 233 199 54 116 239 203 111 231 232 200 115 237 238 204 55 114 236 201 112 37 141 233 116 39 145 239 113 140 234 231 117 144 240 237 114 38 143 236 199 233 170 82 203 239 174 84 232 235 171 198 238 241 175 202 201 236 172 83 233 141 67 170 239 145 69 174 234 142 169 235 240 146 173 241 236 143 68 172 54 116 239 203 52 120 245 207 115 237 238 204 119 243 244 208 53 118 242 205 116 39 145 239 120 41 149 245 117 144 240 237 121 148 246 243 118 40 147 242 203 239 174 84 207 245 178 86 238 241 175 202 244 247 179 206 205 242 176 85 239 145 69 174 245 149 71 178 240 146 173 241 246 150 177 247 242 147 70 176 52 120 245 207 50 124 251 211 119 243 244 208 123 249 250 212 51 122 248 209 120 41 149 245 124 43 153 251 121 148 246 243 125 152 252 249 122 42 151 248 207 245 178 86 211 251 182 88 244 247 179 206 250 253 183 210 209 248 180 87 245 149 71 178 251 153 73 182 246 150 177 247 252 154 181 253 248 151 72 180 50 124 251 211 48 128 257 215 123 249 250 212 127 255 256 216 49 126 254 213 124 43 153 251 128 45 157 257 125 152 252 249 129 156 258 255 126 44 155 254 211 251 182 88 215 257 186 90 250 253 183 210 256 259 187 214 213 254 184 89 251 153 73 182 257 157 75 186 252 154 181 253 258 158 185 259 254 155 74 184 48 128 257 215 4 21 99 30 127 255 256 216 20 97 98 31 47 130 260 217 128 45 157 257 21 5 24 99 129 156 258 255 22 23 100 97 130 46 159 260 215 257 186 90 30 99 27 7 256 259 187 214 98 101 28 29 217 260 188 91 257 157 75 186 99 24 6 27 258 158 185 259 100 25 26 101 260 159 76 188 
				</DataArray>
				<DataArray type="Int32" Name="offsets" format="ascii">
					20 40 60 80 100 120 140 160 180 200 220 240 260 280 300 320 340 360 380 400 420 440 460 480 500 520 540 560 580 600 620 640 
				</DataArray>
				<DataArray type="UInt8" Name="types" format="ascii">
					25 25 25 25 25 25 25 25 25 25 25 25 25 25 25 25 25 25 25 25 25 25 25 25 25 25 25 25 25 25 25 25 
				</DataArray>
			</Cells>
			<PointData>
				<DataArray type="Float32" Name="U" NumberOfComponents="3" ComponentName0="D1" ComponentName1="D2" ComponentName2="D3" format="ascii">
					 0.00000000E+00	 0.00000000E+00	 0.00000000E+00
					 0.00000000E+00	 0.00000000E+00	 0.00000000E+00
					 0.00000000E+00	 0.00000000E+00	 0.00000000E+00
					 0.00000000E+00	 0.00000000E+00	 0.00000000E+00
					 1.25128000E-01	-6.45189000E+03	-8.12725000E+02
					-1.25128000E-01	-6.45189000E+03	-8.12725000E+02
					 1.25128000E-01	-6.45189000E+03	 8.12725000E+02
					-1.25128000E-01	-6.45189000E+03	 8.12725000E+02
					 0.00000000E+00	 0.00000000E+00	 0.00000000E+00
					 0.00000000E+00	 0.00000000E+00	 0.00000000E+00
					 0.00000000E+00	 0.00000000E+00	 0.00000000E+00
					 0.00000000E+00	 0.00000000E+00	 0.00000000E+00
					 0.00000000E+00	 0.00000000E+00	 0.00000000E+00
					 0.00000000E+00	 0.00000000E+00	 0.00000000E+00
					 0.00000000E+00	 0.00000000E+00	 0.00000000E+00
					 0.00000000E+00	 0.00000000E+00	 0.00000000E+00
					 0.00000000E+00	 0.00000000E+00	 0.00000000E+00
					 0.00000000E+00	 0.00000000E+00	 0.00000000E+00
					 0.00000000E+00	 0.00000000E+00	 0.00000000E+00
					 0.00000000E+00	 0.00000000E+00	 0.00000000E+00
					 6.05917000E-02	-6.45187000E+03	-8.12824000E+02
					 1.05968000E-09	-6.45189000E+03	-8.12876000E+02
					-6.05917000E-02	-6.45187000E+03	-8.12824000E+02
					-6.42914000E-02	-6.45171000E+03	-4.06200000E+02
					 9.71681000E-10	-6.45143000E+03	-6.50857000E-11
					 6.42915000E-02	-6.45171000E+03	 4.06200000E+02
					 6.05917000E-02	-6.45187000E+03	 8.12824000E+02
					 8.59018000E-10	-6.45189000E+03	 8.12876000E+02
					-6.05917000E-02	-6.45187000E+03	 8.12824000E+02
					-6.42914000E-02	-6.45171000E+03	 4.06200000E+02
					 9.67361000E-10	-6.45143000E+03	 5.93445000E-11
					 6.42915000E-02	-6.45171000E+03	-4.06200000E+02
					 4.02331000E+01	-6.41357000E+01	-1.17126000E+02
					 2.65504000E+01	-1.89142000E+02	-2.31277000E+02
					 2.93456000E+01	-3.97584000E+02	-3.34848000E+02
					 2.51216000E+01	-6.62607000E+02	-4.26548000E+02
					 2.27352000E+01	-9.89904000E+02	-5.06873000E+02
					 1.92140000E+01	-1.36452000E+03	-5.76800000E+02
					 1.63327000E+01	-1.78275000E+03	-6.36331000E+02
					 1.33536000E+01	-2.23607000E+03	-6.85854000E+02
					 1.06274000E+01	-2.71872000E+03	-7.25696000E+02
					 8.06728000E+00	-3.22387000E+03	-7.56777000E+02
					 5.80494000E+00	-3.74592000E+03	-7.79781000E+02
					 3.83057000E+00	-4.27961000E+03	-7.95753000E+02
					 2.20984000E+00	-4.82036000E+03	-8.05636000E+02
					 9.81459000E-01	-5.36442000E+03	-8.10829000E+02
					 2.48945000E-01	-5.90879000E+03	-8.12677000E+02
					-2.48945000E-01	-5.90879000E+03	-8.12677000E+02
					-9.81459000E-01	-5.36442000E+03	-8.10829000E+02
					-2.20984000E+00	-4.82036000E+03	-8.05636000E+02
					-3.83057000E+00	-4.27961000E+03	-7.95753000E+02
					-5.80494000E+00	-3.74592000E+03	-7.79781000E+02
					-8.06728000E+00	-3.22387000E+03	-7.56777000E+02
					-1.06274000E+01	-2.71872000E+03	-7.25696000E+02
					-1.33536000E+01	-2.23607000E+03	-6.85854000E+02
					-1.63327000E+01	-1.78275000E+03	-6.36331000E+02
					-1.92140000E+01	-1.36452000E+03	-5.76800000E+02
					-2.27352000E+01	-9.89904000E+02	-5.06873000E+02
					-2.51216000E+01	-6.62607000E+02	-4.26548000E+02
					-2.93456000E+01	-3.97584000E+02	-3.34848000E+02
					-2.65504000E+01	-1.89142000E+02	-2.31277000E+02
					-4.02331000E+01	-6.41357000E+01	-1.17126000E+02
					-4.02331000E+01	-6.41357000E+01	 1.17126000E+02
					-2.65504000E+01	-1.89142000E+02	 2.31277000E+02
					-2.93456000E+01	-3.97584000E+02	 3.34848000E+02
					-2.51216000E+01	-6.62607000E+02	 4.26548000E+02
					-2.27352000E+01	-9.89904000E+02	 5.06873000E+02
					-1.92140000E+01	-1.36452000E+03	 5.76800000E+02
					-1.63327000E+01	-1.78275000E+03	 6.36331000E+02
					-1.33536000E+01	-2.23607000E+03	 6.85854000E+02
					-1.06274000E+01	-2.71872000E+03	 7.25696000E+02
					-8.06728000E+00	-3.22387000E+03	 7.56777000E+02
					-5.80494000E+00	-3.74592000E+03	 7.79781000E+02
					-3.83057000E+00	-4.27961000E+03	 7.95753000E+02
					-2.20984000E+00	-4.82036000E+03	 8.05636000E+02
					-9.81459000E-01	-5.36442000E+03	 8.10829000E+02
					-2.48945000E-01	-5.90879000E+03	 8.12677000E+02
					 4.02331000E+01	-6.41357000E+01	 1.17126000E+02
					 2.65504000E+01	-1.89142000E+02	 2.31277000E+02
					 2.93456000E+01	-3.97584000E+02	 3.34848000E+02
					 2.51216000E+01	-6.62607000E+02	 4.26548000E+02
					 2.27352000E+01	-9.89904000E+02	 5.06873000E+02
					 1.92140000E+01	-1.36452000E+03	 5.76800000E+02
					 1.63327000E+01	-1.78275000E+03	 6.36331000E+02
					 1.33536000E+01	-2.23607000E+03	 6.85854000E+02
					 1.06274000E+01	-2.71872000E+03	 7.25696000E+02
					 8.06728000E+00	-3.22387000E+03	 7.56777000E+02
					 5.80494000E+00	-3.74592000E+03	 7.79781000E+02
					 3.83057000E+00	-4.27961000E+03	 7.95753000E+02
					 2.20984000E+00	-4.82036000E+03	 8.05636000E+02
					 9.81459000E-01	-5.36442000E+03	 8.10829000E+02
					 2.48945000E-01	-5.90879000E+03	 8.12677000E+02
					 0.00000000E+00	 0.00000000E+00	 0.00000000E+00
					 0.00000000E+00	 0.00000000E+00	 0.00000000E+00
					 0.00000000E+00	 0.00000000E+00	 0.00000000E+00
					 0.00000000E+00	 0.00000000E+00	 0.00000000E+00
					 0.00000000E+00	 0.00000000E+00	 0.00000000E+00
					 1.01980000E-09	-6.45173000E+03	-4.06292000E+02
					 9.64860000E-10	-6.45143000E+03	 2.79101000E-11
					 9.62928000E-10	-6.45147000E+03	-1.93268000E-12
					 9.67702000E-10	-6.45143000E+03	-3.27987000E-11
					 9.12223000E-10	-6.45173000E+03	 4.06292000E+02
					 1.27045000E-11	-7.56888000E+01	-1.13019000E+02
					-1.32533000E+01	-1.98216000E+02	-2.33616000E+02
					 4.78622000E-11	-2.00269000E+02	-2.35572000E+02
					 1.32533000E+01	-1.98216000E+02	-2.33616000E+02
					 9.74296000E-11	-4.06725000E+02	-3.35415000E+02
					-1.25240000E+01	-6.69151000E+02	-4.27686000E+02
					 1.59844000E-10	-6.71874000E+02	-4.28061000E+02
					 1.25240000E+01	-6.69151000E+02	-4.27686000E+02
					 2.32603000E-10	-9.97221000E+02	-5.07819000E+02
					-9.61050000E+00	-1.36956000E+03	-5.77723000E+02
					 3.10365000E-10	-1.37126000E+03	-5.77845000E+02
					 9.61050000E+00	-1.36956000E+03	-5.77723000E+02
					 3.94266000E-10	-1.78811000E+03	-6.37262000E+02
					-6.67317000E+00	-2.23943000E+03	-6.86656000E+02
					 4.75893000E-10	-2.24062000E+03	-6.86751000E+02
					 6.67317000E+00	-2.23943000E+03	-6.86656000E+02
					 5.62977000E-10	-2.72223000E+03	-7.26523000E+02
					-4.03296000E+00	-3.22589000E+03	-7.57454000E+02
					 6.51426000E-10	-3.22658000E+03	-7.57524000E+02
					 4.03296000E+00	-3.22589000E+03	-7.57454000E+02
					 7.32143000E-10	-3.74783000E+03	-7.80443000E+02
					-1.91329000E+00	-4.28055000E+03	-7.96259000E+02
					 8.07404000E-10	-4.28088000E+03	-7.96309000E+02
					 1.91329000E+00	-4.28055000E+03	-7.96259000E+02
					 8.74934000E-10	-4.82107000E+03	-8.06082000E+02
					-4.88763000E-01	-5.36464000E+03	-8.11107000E+02
					 9.43146000E-10	-5.36474000E+03	-8.11139000E+02
					 4.88763000E-01	-5.36464000E+03	-8.11107000E+02
					 9.97034000E-10	-5.90885000E+03	-8.12860000E+02
					 1.36708000E-11	-3.30486000E+01	-1.61720000E-11
					 1.33211000E+01	-1.73138000E+02	-1.11578000E+02
					 3.94778000E-11	-1.73316000E+02	-3.24292000E-11
					-1.33211000E+01	-1.73138000E+02	 1.11578000E+02
					 8.16271000E-11	-3.73399000E+02	-4.54179000E-11
					 1.25774000E+01	-6.49957000E+02	-2.09416000E+02
					 1.34719000E-10	-6.45919000E+02	-5.59908000E-11
					-1.25774000E+01	-6.49957000E+02	 2.09416000E+02
					 1.97190000E-10	-9.72355000E+02	-6.35509000E-11
					 9.61775000E+00	-1.35377000E+03	-2.84931000E+02
					 2.67050000E-10	-1.35056000E+03	-6.99742000E-11
					-9.61775000E+00	-1.35377000E+03	 2.84931000E+02
					 3.41970000E-10	-1.77026000E+03	-7.38964000E-11
					 6.68664000E+00	-2.22863000E+03	-3.39704000E+02
					 4.19050000E-10	-2.22611000E+03	-7.75913000E-11
					-6.68664000E+00	-2.22863000E+03	 3.39704000E+02
					 5.00108000E-10	-2.71054000E+03	-7.67386000E-11
					 4.05229000E+00	-3.21926000E+03	-3.75707000E+02
					 5.78893000E-10	-3.21765000E+03	-7.40670000E-11
					-4.05229000E+00	-3.21926000E+03	 3.75707000E+02
					 6.52619000E-10	-3.74132000E+03	-6.97469000E-11
					 1.93823000E+00	-4.27735000E+03	-3.95867000E+02
					 7.22920000E-10	-4.27647000E+03	-6.41194000E-11
					-1.93823000E+00	-4.27735000E+03	 3.95867000E+02
					 7.81597000E-10	-4.81838000E+03	-6.07372000E-11
					 5.23746000E-01	-5.36371000E+03	-4.04343000E+02
					 8.49525000E-10	-5.36331000E+03	-6.12488000E-11
					-5.23746000E-01	-5.36371000E+03	 4.04343000E+02
					 9.03242000E-10	-5.90835000E+03	-6.31815000E-11
					 3.12639000E-13	-7.56888000E+01	 1.13019000E+02
					-1.32533000E+01	-1.98216000E+02	 2.33616000E+02
					 1.97815000E-11	-2.00269000E+02	 2.35572000E+02
					 1.32533000E+01	-1.98216000E+02	 2.33616000E+02
					 5.35465000E-11	-4.06725000E+02	 3.35415000E+02
					-1.25240000E+01	-6.69151000E+02	 4.27686000E+02
					 9.98170000E-11	-6.71874000E+02	 4.28061000E+02
					 1.25240000E+01	-6.69151000E+02	 4.27686000E+02
					 1.56319000E-10	-9.97221000E+02	 5.07819000E+02
					-9.61050000E+00	-1.36956000E+03	 5.77723000E+02
					 2.20552000E-10	-1.37126000E+03	 5.77845000E+02
					 9.61050000E+00	-1.36956000E+03	 5.77723000E+02
					 2.89901000E-10	-1.78811000E+03	 6.37262000E+02
					-6.67317000E+00	-2.23943000E+03	 6.86656000E+02
					 3.63684000E-10	-2.24062000E+03	 6.86751000E+02
					 6.67317000E+00	-2.23943000E+03	 6.86656000E+02
					 4.36785000E-10	-2.72223000E+03	 7.26523000E+02
					-4.03296000E+00	-3.22589000E+03	 7.57454000E+02
					 5.11591000E-10	-3.22658000E+03	 7.57524000E+02
					 4.03296000E+00	-3.22589000E+03	 7.57454000E+02
					 5.76165000E-10	-3.74783000E+03	 7.80443000E+02
					-1.91329000E+00	-4.28055000E+03	 7.96259000E+02
					 6.39147000E-10	-4.28088000E+03	 7.96309000E+02
					 1.91329000E+00	-4.28055000E+03	 7.96259000E+02
					 6.86214000E-10	-4.82107000E+03	 8.06082000E+02
					-4.88763000E-01	-5.36464000E+03	 8.11107000E+02
					 7.45786000E-10	-5.36474000E+03	 8.11139000E+02
					 4.88763000E-01	-5.36464000E+03	 8.11107000E+02
					 7.98536000E-10	-5.90885000E+03	 8.12860000E+02
					 1.39586000E-11	-3.30486000E+01	 1.67155000E-11
					 1.33211000E+01	-1.73138000E+02	 1.11578000E+02
					 3.91651000E-11	-1.73316000E+02	 3.37224000E-11
					-1.33211000E+01	-1.73138000E+02	-1.11578000E+02
					 8.20251000E-11	-3.73399000E+02	 4.71516000E-11
					 1.25774000E+01	-6.49957000E+02	 2.09416000E+02
					 1.34776000E-10	-6.45919000E+02	 5.83498000E-11
					-1.25774000E+01	-6.49957000E+02	-2.09416000E+02
					 1.98327000E-10	-9.72355000E+02	 6.63647000E-11
					 9.61775000E+00	-1.35377000E+03	 2.84931000E+02
					 2.67960000E-10	-1.35056000E+03	 7.26459000E-11
					-9.61775000E+00	-1.35377000E+03	-2.84931000E+02
					 3.42425000E-10	-1.77026000E+03	 7.70797000E-11
					 6.68664000E+00	-2.22863000E+03	 3.39704000E+02
					 4.20926000E-10	-2.22611000E+03	 7.87281000E-11
					-6.68664000E+00	-2.22863000E+03	-3.39704000E+02
					 5.00165000E-10	-2.71054000E+03	 7.73639000E-11
					 4.05229000E+00	-3.21926000E+03	 3.75707000E+02
					 5.75881000E-10	-3.21765000E+03	 7.28733000E-11
					-4.05229000E+00	-3.21926000E+03	-3.75707000E+02
					 6.49095000E-10	-3.74132000E+03	 6.96900000E-11
					 1.93823000E+00	-4.27735000E+03	 3.95867000E+02
					 7.20505000E-10	-4.27647000E+03	 6.70752000E-11
					-1.93823000E+00	-4.27735000E+03	-3.95867000E+02
					 7.80702000E-10	-4.81838000E+03	 6.09361000E-11
					 5.23746000E-01	-5.36371000E+03	 4.04343000E+02
					 8.39179000E-10	-5.36331000E+03	 5.88898000E-11
					-5.23746000E-01	-5.36371000E+03	-4.04343000E+02
					 9.05175000E-10	-5.90835000E+03	 6.26414000E-11
					 1.02602000E-11	-4.43089000E+01	 2.98428000E-13
					 4.45652000E-11	-1.83281000E+02	-1.13732000E+02
					 3.79572000E-11	-1.81673000E+02	 1.68257000E-11
					 3.84688000E-11	-1.82947000E+02	 7.95808000E-13
					 3.80851000E-11	-1.81673000E+02	-1.54046000E-11
					 3.06812000E-11	-1.83281000E+02	 1.13732000E+02
					 7.96945000E-11	-3.83287000E+02	 1.22213000E-12
					 1.47679000E-10	-6.58697000E+02	-2.10495000E+02
					 1.34037000E-10	-6.51894000E+02	 2.92459000E-11
					 1.33980000E-10	-6.54026000E+02	 9.09495000E-13
					 1.34378000E-10	-6.51894000E+02	-2.72848000E-11
					 1.17822000E-10	-6.58697000E+02	 2.10495000E+02
					 1.96337000E-10	-9.80015000E+02	 1.02318000E-12
					 2.88992000E-10	-1.36027000E+03	-2.85769000E+02
					 2.67335000E-10	-1.35539000E+03	 3.66072000E-11
					 2.66368000E-10	-1.35686000E+03	 9.66338000E-13
					 2.65686000E-10	-1.35539000E+03	-3.43903000E-11
					 2.43602000E-10	-1.36027000E+03	 2.85769000E+02
					 3.40776000E-10	-1.77577000E+03	 5.11591000E-13
					 4.47471000E-10	-2.23311000E+03	-3.40430000E+02
					 4.19448000E-10	-2.22940000E+03	 3.95630000E-11
					 4.17401000E-10	-2.23051000E+03	 1.25056000E-12
					 4.18083000E-10	-2.22940000E+03	-3.78577000E-11
					 3.92760000E-10	-2.23311000E+03	 3.40430000E+02