# vtk DataFile Version 3.0

ASCII
DATASET UNSTRUCTURED_GRID

POINTS 261 double
	 0.00000000E+00	 0.00000000E+00	 0.00000000E+00
	 1.00000000E+00	 0.00000000E+00	 0.00000000E+00
	 1.00000000E+00	 1.50000000E+00	 0.00000000E+00
	 0.00000000E+00	 1.50000000E+00	 0.00000000E+00
	 0.00000000E+00	 0.00000000E+00	 8.00000000E+00
	 1.00000000E+00	 0.00000000E+00	 8.00000000E+00
	 1.00000000E+00	 1.50000000E+00	 8.00000000E+00
	 0.00000000E+00	 1.50000000E+00	 8.00000000E+00
	 2.50000000E-01	 0.00000000E+00	 0.00000000E+00
	 5.00000000E-01	 0.00000000E+00	 0.00000000E+00
	 7.50000000E-01	 0.00000000E+00	 0.00000000E+00
	 1.00000000E+00	 3.75000000E-01	 0.00000000E+00
	 1.00000000E+00	 7.50000000E-01	 0.00000000E+00
	 1.00000000E+00	 1.12500000E+00	 0.00000000E+00
	 7.50000000E-01	 1.50000000E+00	 0.00000000E+00
	 5.00000000E-01	 1.50000000E+00	 0.00000000E+00
	 2.50000000E-01	 1.50000000E+00	 0.00000000E+00
	 0.00000000E+00	 1.12500000E+00	 0.00000000E+00
	 0.00000000E+00	 7.50000000E-01	 0.00000000E+00
	 0.00000000E+00	 3.75000000E-01	 0.00000000E+00
	 2.50000000E-01	 0.00000000E+00	 8.00000000E+00
	 5.00000000E-01	 0.00000000E+00	 8.00000000E+00
	 7.50000000E-01	 0.00000000E+00	 8.00000000E+00
	 1.00000000E+00	 3.75000000E-01	 8.00000000E+00
	 1.00000000E+00	 7.50000000E-01	 8.00000000E+00
	 1.00000000E+00	 1.12500000E+00	 8.00000000E+00
	 7.50000000E-01	 1.50000000E+00	 8.00000000E+00
	 5.00000000E-01	 1.50000000E+00	 8.00000000E+00
	 2.50000000E-01	 1.50000000E+00	 8.00000000E+00
	 0.00000000E+00	 1.12500000E+00	 8.00000000E+00
	 0.00000000E+00	 7.50000000E-01	 8.00000000E+00
	 0.00000000E+00	 3.75000000E-01	 8.00000000E+00
	 1.00000000E+00	 0.00000000E+00	 5.00000000E-01
	 1.00000000E+00	 0.00000000E+00	 1.00000000E+00
	 1.00000000E+00	 0.00000000E+00	 1.50000000E+00
	 1.00000000E+00	 0.00000000E+00	 2.00000000E+00
	 1.00000000E+00	 0.00000000E+00	 2.50000000E+00
	 1.00000000E+00	 0.00000000E+00	 3.00000000E+00
	 1.00000000E+00	 0.00000000E+00	 3.50000000E+00
	 1.00000000E+00	 0.00000000E+00	 4.00000000E+00
	 1.00000000E+00	 0.00000000E+00	 4.50000000E+00
	 1.00000000E+00	 0.00000000E+00	 5.00000000E+00
	 1.00000000E+00	 0.00000000E+00	 5.50000000E+00
	 1.00000000E+00	 0.00000000E+00	 6.00000000E+00
	 1.00000000E+00	 0.00000000E+00	 6.50000000E+00
	 1.00000000E+00	 0.00000000E+00	 7.00000000E+00
	 1.00000000E+00	 0.00000000E+00	 7.50000000E+00
	 0.00000000E+00	 0.00000000E+00	 7.50000000E+00
	 0.00000000E+00	 0.00000000E+00	 7.00000000E+00
	 0.00000000E+00	 0.00000000E+00	 6.50000000E+00
	 0.00000000E+00	 0.00000000E+00	 6.00000000E+00
	 0.00000000E+00	 0.00000000E+00	 5.50000000E+00
	 0.00000000E+00	 0.00000000E+00	 5.00000000E+00
	 0.00000000E+00	 0.00000000E+00	 4.50000000E+00
	 0.00000000E+00	 0.00000000E+00	 4.00000000E+00
	 0.00000000E+00	 0.00000000E+00	 3.50000000E+00
	 0.00000000E+00	 0.00000000E+00	 3.00000000E+00
	 0.00000000E+00	 0.00000000E+00	 2.50000000E+00
	 0.00000000E+00	 0.00000000E+00	 2.00000000E+00
	 0.00000000E+00	 0.00000000E+00	 1.50000000E+00
	 0.00000000E+00	 0.00000000E+00	 1.00000000E+00
	 0.00000000E+00	 0.00000000E+00	 5.00000000E-01
	 1.00000000E+00	 1.50000000E+00	 5.00000000E-01
	 1.00000000E+00	 1.50000000E+00	 1.00000000E+00
	 1.00000000E+00	 1.50000000E+00	 1.50000000E+00
	 1.00000000E+00	 1.50000000E+00	 2.00000000E+00
	 1.00000000E+00	 1.50000000E+00	 2.50000000E+00
	 1.00000000E+00	 1.50000000E+00	 3.00000000E+00
	 1.00000000E+00	 1.50000000E+00	 3.50000000E+00
	 1.00000000E+00	 1.50000000E+00	 4.00000000E+00
	 1.00000000E+00	 1.50000000E+00	 4.50000000E+00
	 1.00000000E+00	 1.50000000E+00	 5.00000000E+00
	 1.00000000E+00	 1.50000000E+00	 5.50000000E+00
	 1.00000000E+00	 1.50000000E+00	 6.00000000E+00
	 1.00000000E+00	 1.50000000E+00	 6.50000000E+00
	 1.00000000E+00	 1.50000000E+00	 7.00000000E+00
	 1.00000000E+00	 1.50000000E+00	 7.50000000E+00
	 0.00000000E+00	 1.50000000E+00	 5.00000000E-01
	 0.00000000E+00	 1.50000000E+00	 1.00000000E+00
	 0.00000000E+00	 1.50000000E+00	 1.50000000E+00
	 0.00000000E+00	 1.50000000E+00	 2.00000000E+00
	 0.00000000E+00	 1.50000000E+00	 2.50000000E+00
	 0.00000000E+00	 1.50000000E+00	 3.00000000E+00
	 0.00000000E+00	 1.50000000E+00	 3.50000000E+00
	 0.00000000E+00	 1.50000000E+00	 4.00000000E+00
	 0.00000000E+00	 1.50000000E+00	 4.50000000E+00
	 0.00000000E+00	 1.50000000E+00	 5.00000000E+00
	 0.00000000E+00	 1.50000000E+00	 5.50000000E+00
	 0.00000000E+00	 1.50000000E+00	 6.00000000E+00
	 0.00000000E+00	 1.50000000E+00	 6.50000000E+00
	 0.00000000E+00	 1.50000000E+00	 7.00000000E+00
	 0.00000000E+00	 1.50000000E+00	 7.50000000E+00
	 5.00000000E-01	 3.75000000E-01	 0.00000000E+00
	 2.50000000E-01	 7.50000000E-01	 0.00000000E+00
	 5.00000000E-01	 7.50000000E-01	 0.00000000E+00
	 7.50000000E-01	 7.50000000E-01	 0.00000000E+00
	 5.00000000E-01	 1.12500000E+00	 0.00000000E+00
	 5.00000000E-01	 3.75000000E-01	 8.00000000E+00
	 2.50000000E-01	 7.50000000E-01	 8.00000000E+00
	 5.00000000E-01	 7.50000000E-01	 8.00000000E+00
	 7.50000000E-01	 7.50000000E-01	 8.00000000E+00
	 5.00000000E-01	 1.12500000E+00	 8.00000000E+00
	 5.00000000E-01	 0.00000000E+00	 5.00000000E-01
	 2.50000000E-01	 0.00000000E+00	 1.00000000E+00
	 5.00000000E-01	 0.00000000E+00	 1.00000000E+00
	 7.50000000E-01	 0.00000000E+00	 1.00000000E+00
	 5.00000000E-01	 0.00000000E+00	 1.50000000E+00
	 2.50000000E-01	 0.00000000E+00	 2.00000000E+00
	 5.00000000E-01	 0.00000000E+00	 2.00000000E+00
	 7.50000000E-01	 0.00000000E+00	 2.00000000E+00
	 5.00000000E-01	 0.00000000E+00	 2.50000000E+00
	 2.50000000E-01	 0.00000000E+00	 3.00000000E+00
	 5.00000000E-01	 0.00000000E+00	 3.00000000E+00
	 7.50000000E-01	 0.00000000E+00	 3.00000000E+00
	 5.00000000E-01	 0.00000000E+00	 3.50000000E+00
	 2.50000000E-01	 0.00000000E+00	 4.00000000E+00
	 5.00000000E-01	 0.00000000E+00	 4.00000000E+00
	 7.50000000E-01	 0.00000000E+00	 4.00000000E+00
	 5.00000000E-01	 0.00000000E+00	 4.50000000E+00
	 2.50000000E-01	 0.00000000E+00	 5.00000000E+00
	 5.00000000E-01	 0.00000000E+00	 5.00000000E+00
	 7.50000000E-01	 0.00000000E+00	 5.00000000E+00
	 5.00000000E-01	 0.00000000E+00	 5.50000000E+00
	 2.50000000E-01	 0.00000000E+00	 6.00000000E+00
	 5.00000000E-01	 0.00000000E+00	 6.00000000E+00
	 7.50000000E-01	 0.00000000E+00	 6.00000000E+00
	 5.00000000E-01	 0.00000000E+00	 6.50000000E+00
	 2.50000000E-01	 0.00000000E+00	 7.00000000E+00
	 5.00000000E-01	 0.00000000E+00	 7.00000000E+00
	 7.50000000E-01	 0.00000000E+00	 7.00000000E+00
	 5.00000000E-01	 0.00000000E+00	 7.50000000E+00
	 1.00000000E+00	 7.50000000E-01	 5.00000000E-01
	 1.00000000E+00	 3.75000000E-01	 1.00000000E+00
	 1.00000000E+00	 7.50000000E-01	 1.00000000E+00
	 1.00000000E+00	 1.12500000E+00	 1.00000000E+00
	 1.00000000E+00	 7.50000000E-01	 1.50000000E+00
	 1.00000000E+00	 3.75000000E-01	 2.00000000E+00
	 1.00000000E+00	 7.50000000E-01	 2.00000000E+00
	 1.00000000E+00	 1.12500000E+00	 2.00000000E+00
	 1.00000000E+00	 7.50000000E-01	 2.50000000E+00
	 1.00000000E+00	 3.75000000E-01	 3.00000000E+00
	 1.00000000E+00	 7.50000000E-01	 3.00000000E+00
	 1.00000000E+00	 1.12500000E+00	 3.00000000E+00
	 1.00000000E+00	 7.50000000E-01	 3.50000000E+00
	 1.00000000E+00	 3.75000000E-01	 4.00000000E+00
	 1.00000000E+00	 7.50000000E-01	 4.00000000E+00
	 1.00000000E+00	 1.12500000E+00	 4.00000000E+00
	 1.00000000E+00	 7.50000000E-01	 4.50000000E+00
	 1.00000000E+00	 3.75000000E-01	 5.00000000E+00
	 1.00000000E+00	 7.50000000E-01	 5.00000000E+00
	 1.00000000E+00	 1.12500000E+00	 5.00000000E+00
	 1.00000000E+00	 7.50000000E-01	 5.50000000E+00
	 1.00000000E+00	 3.75000000E-01	 6.00000000E+00
	 1.00000000E+00	 7.50000000E-01	 6.00000000E+00
	 1.00000000E+00	 1.12500000E+00	 6.00000000E+00
	 1.00000000E+00	 7.50000000E-01	 6.50000000E+00
	 1.00000000E+00	 3.75000000E-01	 7.00000000E+00
	 1.00000000E+00	 7.50000000E-01	 7.00000000E+00
	 1.00000000E+00	 1.12500000E+00	 7.00000000E+00
	 1.00000000E+00	 7.50000000E-01	 7.50000000E+00
	 5.00000000E-01	 1.50000000E+00	 5.00000000E-01
	 7.50000000E-01	 1.50000000E+00	 1.00000000E+00
	 5.00000000E-01	 1.50000000E+00	 1.00000000E+00
	 2.50000000E-01	 1.50000000E+00	 1.00000000E+00
	 5.00000000E-01	 1.50000000E+00	 1.50000000E+00
	 7.50000000E-01	 1.50000000E+00	 2.00000000E+00
	 5.00000000E-01	 1.50000000E+00	 2.00000000E+00
	 2.50000000E-01	 1.50000000E+00	 2.00000000E+00
	 5.00000000E-01	 1.50000000E+00	 2.50000000E+00
	 7.50000000E-01	 1.50000000E+00	 3.00000000E+00
	 5.00000000E-01	 1.50000000E+00	 3.00000000E+00
	 2.50000000E-01	 1.50000000E+00	 3.00000000E+00
	 5.00000000E-01	 1.50000000E+00	 3.50000000E+00
	 7.50000000E-01	 1.50000000E+00	 4.00000000E+00
	 5.00000000E-01	 1.50000000E+00	 4.00000000E+00
	 2.50000000E-01	 1.50000000E+00	 4.00000000E+00
	 5.00000000E-01	 1.50000000E+00	 4.50000000E+00
	 7.50000000E-01	 1.50000000E+00	 5.00000000E+00
	 5.00000000E-01	 1.50000000E+00	 5.00000000E+00
	 2.50000000E-01	 1.50000000E+00	 5.00000000E+00
	 5.00000000E-01	 1.50000000E+00	 5.50000000E+00
	 7.50000000E-01	 1.50000000E+00	 6.00000000E+00
	 5.00000000E-01	 1.50000000E+00	 6.00000000E+00
	 2.50000000E-01	 1.50000000E+00	 6.00000000E+00
	 5.00000000E-01	 1.50000000E+00	 6.50000000E+00
	 7.50000000E-01	 1.50000000E+00	 7.00000000E+00
	 5.00000000E-01	 1.50000000E+00	 7.00000000E+00
	 2.50000000E-01	 1.50000000E+00	 7.00000000E+00
	 5.00000000E-01	 1.50000000E+00	 7.50000000E+00
	 0.00000000E+00	 7.50000000E-01	 5.00000000E-01
	 0.00000000E+00	 1.12500000E+00	 1.00000000E+00
	 0.00000000E+00	 7.50000000E-01	 1.00000000E+00
	 0.00000000E+00	 3.75000000E-01	 1.00000000E+00
	 0.00000000E+00	 7.50000000E-01	 1.50000000E+00
	 0.00000000E+00	 1.12500000E+00	 2.00000000E+00
	 0.00000000E+00	 7.50000000E-01	 2.00000000E+00
	 0.00000000E+00	 3.75000000E-01	 2.00000000E+00
	 0.00000000E+00	 7.50000000E-01	 2.50000000E+00
	 0.00000000E+00	 1.12500000E+00	 3.00000000E+00
	 0.00000000E+00	 7.50000000E-01	 3.00000000E+00
	 0.00000000E+00	 3.75000000E-01	 3.00000000E+00
	 0.00000000E+00	 7.50000000E-01	 3.50000000E+00
	 0.00000000E+00	 1.12500000E+00	 4.00000000E+00
	 0.00000000E+00	 7.50000000E-01	 4.00000000E+00
	 0.00000000E+00	 3.75000000E-01	 4.00000000E+00
	 0.00000000E+00	 7.50000000E-01	 4.50000000E+00
	 0.00000000E+00	 1.12500000E+00	 5.00000000E+00
	 0.00000000E+00	 7.50000000E-01	 5.00000000E+00
	 0.00000000E+00	 3.75000000E-01	 5.00000000E+00
	 0.00000000E+00	 7.50000000E-01	 5.50000000E+00
	 0.00000000E+00	 1.12500000E+00	 6.00000000E+00
	 0.00000000E+00	 7.50000000E-01	 6.00000000E+00
	 0.00000000E+00	 3.75000000E-01	 6.00000000E+00
	 0.00000000E+00	 7.50000000E-01	 6.50000000E+00
	 0.00000000E+00	 1.12500000E+00	 7.00000000E+00
	 0.00000000E+00	 7.50000000E-01	 7.00000000E+00
	 0.00000000E+00	 3.75000000E-01	 7.00000000E+00
	 0.00000000E+00	 7.50000000E-01	 7.50000000E+00
	 5.00000000E-01	 7.50000000E-01	 5.00000000E-01
	 5.00000000E-01	 3.75000000E-01	 1.00000000E+00
	 2.50000000E-01	 7.50000000E-01	 1.00000000E+00
	 5.00000000E-01	 7.50000000E-01	 1.00000000E+00
	 7.50000000E-01	 7.50000000E-01	 1.00000000E+00
	 5.00000000E-01	 1.12500000E+00	 1.00000000E+00
	 5.00000000E-01	 7.50000000E-01	 1.50000000E+00
	 5.00000000E-01	 3.75000000E-01	 2.00000000E+00
	 2.50000000E-01	 7.50000000E-01	 2.00000000E+00
	 5.00000000E-01	 7.50000000E-01	 2.00000000E+00
	 7.50000000E-01	 7.50000000E-01	 2.00000000E+00
	 5.00000000E-01	 1.12500000E+00	 2.00000000E+00
	 5.00000000E-01	 7.50000000E-01	 2.50000000E+00
	 5.00000000E-01	 3.75000000E-01	 3.00000000E+00
	 2.50000000E-01	 7.50000000E-01	 3.00000000E+00
	 5.00000000E-01	 7.50000000E-01	 3.00000000E+00
	 7.50000000E-01	 7.50000000E-01	 3.00000000E+00
	 5.00000000E-01	 1.12500000E+00	 3.00000000E+00
	 5.00000000E-01	 7.50000000E-01	 3.50000000E+00
	 5.00000000E-01	 3.75000000E-01	 4.00000000E+00
	 2.50000000E-01	 7.50000000E-01	 4.00000000E+00
	 5.00000000E-01	 7.50000000E-01	 4.00000000E+00
	 7.50000000E-01	 7.50000000E-01	 4.00000000E+00
	 5.00000000E-01	 1.12500000E+00	 4.00000000E+00
	 5.00000000E-01	 7.50000000E-01	 4.50000000E+00
	 5.00000000E-01	 3.75000000E-01	 5.00000000E+00
	 2.50000000E-01	 7.50000000E-01	 5.00000000E+00
	 5.00000000E-01	 7.50000000E-01	 5.00000000E+00
	 7.50000000E-01	 7.50000000E-01	 5.00000000E+00
	 5.00000000E-01	 1.12500000E+00	 5.00000000E+00
	 5.00000000E-01	 7.50000000E-01	 5.50000000E+00
	 5.00000000E-01	 3.75000000E-01	 6.00000000E+00
	 2.50000000E-01	 7.50000000E-01	 6.00000000E+00
	 5.00000000E-01	 7.50000000E-01	 6.00000000E+00
	 7.50000000E-01	 7.50000000E-01	 6.00000000E+00
	 5.00000000E-01	 1.12500000E+00	 6.00000000E+00
	 5.00000000E-01	 7.50000000E-01	 6.50000000E+00
	 5.00000000E-01	 3.75000000E-01	 7.00000000E+00
	 2.50000000E-01	 7.50000000E-01	 7.00000000E+00
	 5.00000000E-01	 7.50000000E-01	 7.00000000E+00
	 7.50000000E-01	 7.50000000E-01	 7.00000000E+00
	 5.00000000E-01	 1.12500000E+00	 7.00000000E+00
	 5.00000000E-01	 7.50000000E-01	 7.50000000E+00

CELLS 32 672
	20 0 9 94 18 60 104 221 191 8 92 93 19 103 219 220 192 61 102 218 189 
	20 9 1 12 94 104 33 133 221 10 11 95 92 105 132 222 219 102 32 131 218 
	20 18 94 15 3 191 221 162 78 93 96 16 17 220 223 163 190 189 218 160 77 
	20 94 12 2 15 221 133 63 162 95 13 14 96 222 134 161 223 218 131 62 160 
	20 60 104 221 191 58 108 227 195 103 219 220 192 107 225 226 196 59 106 224 193 
	20 104 33 133 221 108 35 137 227 105 132 222 219 109 136 228 225 106 34 135 224 
	20 191 221 162 78 195 227 166 80 220 223 163 190 226 229 167 194 193 224 164 79 
	20 221 133 63 162 227 137 65 166 222 134 161 223 228 138 165 229 224 135 64 164 
	20 58 108 227 195 56 112 233 199 107 225 226 196 111 231 232 200 57 110 230 197 
	20 108 35 137 227 112 37 141 233 109 136 228 225 113 140 234 231 110 36 139 230 
	20 195 227 166 80 199 233 170 82 226 229 167 194 232 235 171 198 197 230 168 81 
	20 227 137 65 166 233 141 67 170 228 138 165 229 234 142 169 235 230 139 66 168 
	20 56 112 233 199 54 116 239 203 111 231 232 200 115 237 238 204 55 114 236 201 
	20 112 37 141 233 116 39 145 239 113 140 234 231 117 144 240 237 114 38 143 236 
	20 199 233 170 82 203 239 174 84 232 235 171 198 238 241 175 202 201 236 172 83 
	20 233 141 67 170 239 145 69 174 234 142 169 235 240 146 173 241 236 143 68 172 
	20 54 116 239 203 52 120 245 207 115 237 238 204 119 243 244 208 53 118 242 205 
	20 116 39 145 239 120 41 149 245 117 144 240 237 121 148 246 243 118 40 147 242 
	20 203 239 174 84 207 245 178 86 238 241 175 202 244 247 179 206 205 242 176 85 
	20 239 145 69 174 245 149 71 178 240 146 173 241 246 150 177 247 242 147 70 176 
	20 52 120 245 207 50 124 251 211 119 243 244 208 123 249 250 212 51 122 248 209 
	20 120 41 149 245 124 43 153 251 121 148 246 243 125 152 252 249 122 42 151 248 
	20 207 245 178 86 211 251 182 88 244 247 179 206 250 253 183 210 209 248 180 87 
	20 245 149 71 178 251 153 73 182 246 150 177 247 252 154 181 253 248 151 72 180 
	20 50 124 251 211 48 128 257 215 123 249 250 212 127 255 256 216 49 126 254 213 
	20 124 43 153 251 128 45 157 257 125 152 252 249 129 156 258 255 126 44 155 254 
	20 211 251 182 88 215 257 186 90 250 253 183 210 256 259 187 214 213 254 184 89 
	20 251 153 73 182 257 157 75 186 252 154 181 253 258 158 185 259 254 155 74 184 
	20 48 128 257 215 4 21 99 30 127 255 256 216 20 97 98 31 47 130 260 217 
	20 128 45 157 257 21 5 24 99 129 156 258 255 22 23 100 97 130 46 159 260 
	20 215 257 186 90 30 99 27 7 256 259 187 214 98 101 28 29 217 260 188 91 
	20 257 157 75 186 99 24 6 27 258 158 185 259 100 25 26 101 260 159 76 188 

CELL_TYPES 32
	25
	25
	25
	25
	25
	25
	25
	25
	25
	25
	25
	25
	25
	25
	25
	25
	25
	25
	25
	25
	25
	25
	25
	25
	25
	25
	25
	25
	25
	25
	25
	25

POINT_DATA 261
FIELD U 1
	U 3 261 double
		 0.00000000E+00	 0.00000000E+00	 0.00000000E+00
		 0.00000000E+00	 0.00000000E+00	 0.00000000E+00
		 0.00000000E+00	 0.00000000E+00	 0.00000000E+00
		 0.00000000E+00	 0.00000000E+00	 0.00000000E+00
		 3.96816000E+03	-4.07361000E+03	 4.96625000E+02
		 3.96816000E+03	 4.07361000E+03	-4.96625000E+02
		-8.75166000E+03	 4.11533000E+03	-4.52662000E+02
		-8.75166000E+03	-4.11533000E+03	 4.52662000E+02
		 0.00000000E+00	 0.00000000E+00	 0.00000000E+00
		 0.00000000E+00	 0.00000000E+00	 0.00000000E+00
		 0.00000000E+00	 0.00000000E+00	 0.00000000E+00
		 0.00000000E+00	 0.00000000E+00	 0.00000000E+00
		 0.00000000E+00	 0.00000000E+00	 0.00000000E+00
		 0.00000000E+00	 0.00000000E+00	 0.00000000E+00
		 0.00000000E+00	 0.00000000E+00	 0.00000000E+00
		 0.00000000E+00	 0.00000000E+00	 0.00000000E+00
		 0.00000000E+00	 0.00000000E+00	 0.00000000E+00
		 0.00000000E+00	 0.00000000E+00	 0.00000000E+00
		 0.00000000E+00	 0.00000000E+00	 0.00000000E+00
		 0.00000000E+00	 0.00000000E+00	 0.00000000E+00
		 3.97927000E+03	-2.04378000E+03	 2.46455000E+02
		 3.99921000E+03	 7.55335000E-10	-2.87628000E-10
		 3.97927000E+03	 2.04378000E+03	-2.46455000E+02
		 8.35516000E+02	 4.07089000E+03	-4.96639000E+02
		-2.34951000E+03	 4.08542000E+03	-4.86310000E+02
		-5.53007000E+03	 4.10847000E+03	-4.68606000E+02
		-8.73599000E+03	 2.05046000E+03	-2.19705000E+02
		-8.71054000E+03	 1.50681000E-09	 4.73960000E-10
		-8.73599000E+03	-2.05046000E+03	 2.19705000E+02
		-5.53007000E+03	-4.10847000E+03	 4.68606000E+02
		-2.34951000E+03	-4.08542000E+03	 4.86310000E+02
		 8.35516000E+02	-4.07089000E+03	 4.96639000E+02
		 6.08694000E+02	 2.54340000E+02	-2.59042000E+02
		 1.41992000E+03	 6.66368000E+02	-4.24108000E+02
		 2.36596000E+03	 1.06232000E+03	-5.39881000E+02
		 3.27855000E+03	 1.44664000E+03	-6.12332000E+02
		 4.15235000E+03	 1.81394000E+03	-6.43967000E+02
		 4.91771000E+03	 2.17368000E+03	-6.50542000E+02
		 5.54345000E+03	 2.51184000E+03	-6.33291000E+02
		 5.99221000E+03	 2.82669000E+03	-6.01598000E+02
		 6.25393000E+03	 3.11305000E+03	-5.63283000E+02
		 6.32741000E+03	 3.36753000E+03	-5.26781000E+02
		 6.22398000E+03	 3.58573000E+03	-4.98181000E+02
		 5.96764000E+03	 3.76517000E+03	-4.81809000E+02
		 5.58748000E+03	 3.90261000E+03	-4.76420000E+02
		 5.11374000E+03	 4.00278000E+03	-4.85409000E+02
		 4.56048000E+03	 4.05392000E+03	-4.90573000E+02
		 4.56048000E+03	-4.05392000E+03	 4.90573000E+02
		 5.11374000E+03	-4.00278000E+03	 4.85409000E+02
		 5.58748000E+03	-3.90261000E+03	 4.76420000E+02
		 5.96764000E+03	-3.76517000E+03	 4.81809000E+02
		 6.22398000E+03	-3.58573000E+03	 4.98181000E+02
		 6.32741000E+03	-3.36753000E+03	 5.26781000E+02
		 6.25393000E+03	-3.11305000E+03	 5.63283000E+02
		 5.99221000E+03	-2.82669000E+03	 6.01598000E+02
		 5.54345000E+03	-2.51184000E+03	 6.33291000E+02
		 4.91771000E+03	-2.17368000E+03	 6.50542000E+02
		 4.15235000E+03	-1.81394000E+03	 6.43967000E+02
		 3.27855000E+03	-1.44664000E+03	 6.12332000E+02
		 2.36596000E+03	-1.06232000E+03	 5.39881000E+02
		 1.41992000E+03	-6.66368000E+02	 4.24108000E+02
		 6.08694000E+02	-2.54340000E+02	 2.59042000E+02
		-3.96858000E+02	 3.77343000E+02	-3.24063000E+01
		-7.71172000E+02	 7.70234000E+02	-1.46916000E+02
		-1.07641000E+03	 1.16090000E+03	-2.47727000E+02
		-1.32422000E+03	 1.52139000E+03	-3.19566000E+02
		-1.58110000E+03	 1.86723000E+03	-3.61464000E+02
		-1.89190000E+03	 2.20575000E+03	-3.76733000E+02
		-2.29060000E+03	 2.53175000E+03	-3.71617000E+02
		-2.78831000E+03	 2.83962000E+03	-3.56026000E+02
		-3.39294000E+03	 3.12555000E+03	-3.38464000E+02
		-4.09246000E+03	 3.38372000E+03	-3.27852000E+02
		-4.86877000E+03	 3.60852000E+03	-3.29171000E+02
		-5.68697000E+03	 3.79454000E+03	-3.46461000E+02
		-6.51263000E+03	 3.94060000E+03	-3.75921000E+02
		-7.31004000E+03	 4.03693000E+03	-4.16145000E+02
		-8.06098000E+03	 4.10253000E+03	-4.46604000E+02
		-3.96858000E+02	-3.77343000E+02	 3.24063000E+01
		-7.71172000E+02	-7.70234000E+02	 1.46916000E+02
		-1.07641000E+03	-1.16090000E+03	 2.47727000E+02
		-1.32422000E+03	-1.52139000E+03	 3.19566000E+02
		-1.58110000E+03	-1.86723000E+03	 3.61464000E+02
		-1.89190000E+03	-2.20575000E+03	 3.76733000E+02
		-2.29060000E+03	-2.53175000E+03	 3.71617000E+02
		-2.78831000E+03	-2.83962000E+03	 3.56026000E+02
		-3.39294000E+03	-3.12555000E+03	 3.38464000E+02
		-4.09246000E+03	-3.38372000E+03	 3.27852000E+02
		-4.86877000E+03	-3.60852000E+03	 3.29171000E+02
		-5.68697000E+03	-3.79454000E+03	 3.46461000E+02
		-6.51263000E+03	-3.94060000E+03	 3.75921000E+02
		-7.31004000E+03	-4.03693000E+03	 4.16145000E+02
		-8.06098000E+03	-4.10253000E+03	 4.46604000E+02
		 0.00000000E+00	 0.00000000E+00	 0.00000000E+00
		 0.00000000E+00	 0.00000000E+00	 0.00000000E+00
		 0.00000000E+00	 0.00000000E+00	 0.00000000E+00
		 0.00000000E+00	 0.00000000E+00	 0.00000000E+00
		 0.00000000E+00	 0.00000000E+00	 0.00000000E+00
		 8.05567000E+02	 9.16771000E-10	-8.98126000E-11
		-2.33380000E+03	-2.03792000E+03	 2.47081000E+02
		-2.33882000E+03	 1.10072000E-09	 9.20863000E-11
		-2.33380000E+03	 2.03792000E+03	-2.47081000E+02
		-5.55959000E+03	 1.30785000E-09	 2.89219000E-10
		 5.71161000E+02	-4.18368000E-11	-4.88285000E-11
		 1.41531000E+03	-3.36684000E+02	 1.32719000E+02
		 1.43013000E+03	-1.01917000E-10	-1.06638000E-10
		 1.41531000E+03	 3.36684000E+02	-1.32719000E+02
		 2.33844000E+03	-1.88209000E-10	-1.60981000E-10
		 3.27976000E+03	-7.29660000E+02	 2.53747000E+02
		 3.28056000E+03	-2.86605000E-10	-2.11458000E-10
		 3.27976000E+03	 7.29660000E+02	-2.53747000E+02
		 4.14779000E+03	-3.69027000E-10	-2.56250000E-10
		 4.92130000E+03	-1.09503000E+03	 2.74781000E+02
		 4.92342000E+03	-4.39286000E-10	-3.00133000E-10
		 4.92130000E+03	 1.09503000E+03	-2.74781000E+02
		 5.54633000E+03	-4.94538000E-10	-3.34239000E-10
		 5.99836000E+03	-1.42130000E+03	 2.61321000E+02
		 5.99936000E+03	-5.10454000E-10	-3.56977000E-10
		 5.99836000E+03	 1.42130000E+03	-2.61321000E+02
		 6.25912000E+03	-4.94083000E-10	-3.63798000E-10
		 6.33204000E+03	-1.69012000E+03	 2.34548000E+02
		 6.33199000E+03	-4.26439000E-10	-3.54248000E-10
		 6.33204000E+03	 1.69012000E+03	-2.34548000E+02
		 6.22734000E+03	-3.22984000E-10	-3.33330000E-10
		 5.96975000E+03	-1.88689000E+03	 2.22517000E+02
		 5.97013000E+03	-1.55410000E-10	-3.22871000E-10
		 5.96975000E+03	 1.88689000E+03	-2.22517000E+02
		 5.58227000E+03	 4.66116000E-11	-3.02407000E-10
		 5.10941000E+03	-2.00166000E+03	 2.34265000E+02
		 5.10225000E+03	 2.82853000E-10	-2.99224000E-10
		 5.10941000E+03	 2.00166000E+03	-2.34265000E+02
		 4.56991000E+03	 4.90672000E-10	-2.99679000E-10
		 1.37950000E+02	 3.80690000E+02	-1.55366000E+02
		 8.99066000E+02	 6.85883000E+02	-4.95840000E+02
		 3.56622000E+02	 7.13042000E+02	-3.00523000E+02
		-1.99620000E+02	 7.48787000E+02	-8.87140000E+01
		 6.69777000E+02	 1.10353000E+03	-4.02414000E+02
		 2.13607000E+03	 1.44935000E+03	-6.47536000E+02
		 9.91092000E+02	 1.47777000E+03	-4.73728000E+02
		-1.61237000E+02	 1.51194000E+03	-2.96672000E+02
		 1.28970000E+03	 1.83867000E+03	-5.10355000E+02
		 3.20933000E+03	 2.16236000E+03	-6.83206000E+02
		 1.50707000E+03	 2.18359000E+03	-5.19302000E+02
		-1.93419000E+02	 2.20996000E+03	-3.51006000E+02
		 1.61519000E+03	 2.51567000E+03	-5.06465000E+02
		 3.78403000E+03	 2.80962000E+03	-6.22995000E+02
		 1.58694000E+03	 2.82654000E+03	-4.81071000E+02
		-6.03321000E+02	 2.84961000E+03	-3.35509000E+02
		 1.41666000E+03	 3.11277000E+03	-4.52282000E+02
		 3.71157000E+03	 3.35295000E+03	-5.40203000E+02
		 1.10453000E+03	 3.36890000E+03	-4.26741000E+02
		-1.49678000E+03	 3.39127000E+03	-3.09997000E+02
		 6.71347000E+02	 3.59027000E+03	-4.12769000E+02
		 3.05166000E+03	 3.75767000E+03	-4.88816000E+02
		 1.35202000E+02	 3.77357000E+03	-4.09897000E+02
		-2.77515000E+03	 3.79550000E+03	-3.30625000E+02
		-4.57462000E+02	 3.91379000E+03	-4.26480000E+02
		 2.00842000E+03	 4.00198000E+03	-4.86431000E+02
		-1.09041000E+03	 4.01258000E+03	-4.45366000E+02
		-4.20224000E+03	 4.03033000E+03	-4.05533000E+02
		-1.73163000E+03	 4.07414000E+03	-4.76778000E+02
		-4.25916000E+02	-3.22302000E-11	 5.51381000E-11
		-7.87545000E+02	 3.84103000E+02	-1.49189000E+02
		-7.96729000E+02	-7.05427000E-11	 1.18462000E-10
		-7.87545000E+02	-3.84103000E+02	 1.49189000E+02
		-1.08248000E+03	-1.27784000E-10	 1.65073000E-10
		-1.33032000E+03	 7.54129000E+02	-2.04879000E+02
		-1.33159000E+03	-1.73941000E-10	 2.06455000E-10
		-1.33032000E+03	-7.54129000E+02	 2.04879000E+02
		-1.58433000E+03	-2.15323000E-10	 2.36923000E-10
		-1.89181000E+03	 1.09561000E+03	-2.35911000E+02
		-1.89223000E+03	-2.28738000E-10	 2.67391000E-10
		-1.89181000E+03	-1.09561000E+03	 2.35911000E+02
		-2.28646000E+03	-2.17824000E-10	 2.95586000E-10
		-2.78484000E+03	 1.41116000E+03	-2.20004000E+02
		-2.78323000E+03	-1.69848000E-10	 3.16504000E-10
		-2.78484000E+03	-1.41116000E+03	 2.20004000E+02
		-3.38763000E+03	-7.91260000E-11	 3.43107000E-10
		-4.09007000E+03	 1.68326000E+03	-2.00096000E+02
		-4.08880000E+03	 5.44560000E-11	 3.62661000E-10
		-4.09007000E+03	-1.68326000E+03	 2.00096000E+02
		-4.86505000E+03	 2.42665000E-10	 3.91537000E-10
		-5.68692000E+03	 1.88978000E+03	-1.99613000E+02
		-5.68424000E+03	 4.69129000E-10	 3.96312000E-10
		-5.68692000E+03	-1.88978000E+03	 1.99613000E+02
		-6.51722000E+03	 7.13044000E-10	 4.18822000E-10
		-7.31588000E+03	 2.01575000E+03	-2.22164000E+02
		-7.32042000E+03	 9.84983000E-10	 4.36785000E-10
		-7.31588000E+03	-2.01575000E+03	 2.22164000E+02
		-8.04652000E+03	 1.25260000E-09	 4.66798000E-10
		 1.37950000E+02	-3.80690000E+02	 1.55366000E+02
		-1.99620000E+02	-7.48787000E+02	 8.87140000E+01
		 3.56622000E+02	-7.13042000E+02	 3.00523000E+02
		 8.99066000E+02	-6.85883000E+02	 4.95840000E+02
		 6.69777000E+02	-1.10353000E+03	 4.02414000E+02
		-1.61237000E+02	-1.51194000E+03	 2.96672000E+02
		 9.91092000E+02	-1.47777000E+03	 4.73728000E+02
		 2.13607000E+03	-1.44935000E+03	 6.47536000E+02
		 1.28970000E+03	-1.83867000E+03	 5.10355000E+02
		-1.93419000E+02	-2.20996000E+03	 3.51006000E+02
		 1.50707000E+03	-2.18359000E+03	 5.19302000E+02
		 3.20933000E+03	-2.16236000E+03	 6.83206000E+02
		 1.61519000E+03	-2.51567000E+03	 5.06465000E+02
		-6.03321000E+02	-2.84961000E+03	 3.35509000E+02
		 1.58694000E+03	-2.82654000E+03	 4.81071000E+02
		 3.78403000E+03	-2.80962000E+03	 6.22995000E+02
		 1.41666000E+03	-3.11277000E+03	 4.52282000E+02
		-1.49678000E+03	-3.39127000E+03	 3.09997000E+02
		 1.10453000E+03	-3.36890000E+03	 4.26741000E+02
		 3.71157000E+03	-3.35295000E+03	 5.40203000E+02
		 6.71347000E+02	-3.59027000E+03	 4.12769000E+02
		-2.77515000E+03	-3.79550000E+03	 3.30625000E+02
		 1.35202000E+02	-3.77357000E+03	 4.09897000E+02
		 3.05166000E+03	-3.75767000E+03	 4.88816000E+02
		-4.57462000E+02	-3.91379000E+03	 4.26480000E+02
		-4.20224000E+03	-4.03033000E+03	 4.05533000E+02
		-1.09041000E+03	-4.01258000E+03	 4.45366000E+02
		 2.00842000E+03	-4.00198000E+03	 4.86431000E+02
		-1.73163000E+03	-4.07414000E+03	 4.76778000E+02
		 1.04895000E+02	-2.20552000E-11	 2.33058000E-12
		 9.00073000E+02	-8.57128000E-11	-5.20686000E-11
		 3.45065000E+02	-3.59571000E+02	 1.43985000E+02
		 3.47836000E+02	-7.90976000E-11	 1.93268000E-12
		 3.45065000E+02	 3.59571000E+02	-1.43985000E+02
		-2.10395000E+02	-7.09122000E-11	 5.77529000E-11
		 6.52245000E+02	-1.48702000E-10	-9.09495000E-13
		 2.13719000E+03	-2.49884000E-10	-1.08912000E-10
		 9.88704000E+02	-7.38560000E+02	 2.32840000E+02
		 9.88385000E+02	-2.17028000E-10	-7.95808000E-12
		 9.88704000E+02	 7.38560000E+02	-2.32840000E+02
		-1.68001000E+02	-1.93040000E-10	 9.50422000E-11
		 1.28606000E+03	-2.81489000E-10	-1.36424000E-11
		 3.21462000E+03	-3.84262000E-10	-1.60071000E-10
		 1.50922000E+03	-1.09246000E+03	 2.57129000E+02
		 1.51044000E+03	-3.25826000E-10	-2.00089000E-11
		 1.50922000E+03	 1.09246000E+03	-2.57129000E+02
		-1.91363000E+02	-2.73303000E-10	 1.24146000E-10
		 1.61876000E+03	-3.46972000E-10	-1.72804000E-11
		 3.79217000E+03	-4.07908000E-10	-1.86446000E-10
		 1.59250000E+03	-1.41306000E+03	 2.40222000E+02
		 1.59436000E+03	-3.29919000E-10	-1.72804000E-11
		 1.59250000E+03	 1.41306000E+03	-2.40222000E+02
		-5.97707000E+02	-2.52612000E-10	 1.47793000E-10
		 1.42158000E+03	-2.82171000E-10	-1.04592000E-11
		 3.71882000E+03	-3.06386000E-10	-1.74168000E-10
		 1.10890000E+03	-1.68334000E+03	 2.14800000E+02
		 1.11086000E+03	-1.82808000E-10	 3.63798000E-12
		 1.10890000E+03	 1.68334000E+03	-2.14800000E+02
		-1.49170000E+03	-6.12772000E-11	 1.82354000E-10
		 6.73267000E+02	-3.07523000E-11	 2.09184000E-11
		 3.05397000E+03	 2.38742000E-12	-1.42336000E-10
		 1.38649000E+02	-1.88460000E+03	 2.07442000E+02
		 1.40629000E+02	 1.51772000E-10	 4.41105000E-11
		 1.38649000E+02	 1.88460000E+03	-2.07442000E+02
		-2.77502000E+03	 3.11047000E-10	 2.18733000E-10
		-4.63727000E+02	 3.79259000E-10	 5.57066000E-11
		 2.01201000E+03	 4.54520000E-10	-1.16870000E-10
		-1.09816000E+03	-2.00551000E+03	 2.21666000E+02
		-1.09849000E+03	 6.06178000E-10	 7.52607000E-11
		-1.09816000E+03	 2.00551000E+03	-2.21666000E+02
		-4.19993000E+03	 7.88987000E-10	 2.49202000E-10
		-1.72512000E+03	 8.64475000E-10	 9.11768000E-11
