# vtk DataFile Version 3.0

ASCII
DATASET UNSTRUCTURED_GRID

POINTS 261 double
	 0.00000000E+00	 0.00000000E+00	 0.00000000E+00
	 1.00000000E+00	 0.00000000E+00	 0.00000000E+00
	 1.00000000E+00	 1.50000000E+00	 0.00000000E+00
	 0.00000000E+00	 1.50000000E+00	 0.00000000E+00
	 0.00000000E+00	 0.00000000E+00	 8.00000000E+00
	 1.00000000E+00	 0.00000000E+00	 8.00000000E+00
	 1.00000000E+00	 1.50000000E+00	 8.00000000E+00
	 0.00000000E+00	 1.50000000E+00	 8.00000000E+00
	 2.50000000E-01	 0.00000000E+00	 0.00000000E+00
	 5.00000000E-01	 0.00000000E+00	 0.00000000E+00
	 7.50000000E-01	 0.00000000E+00	 0.00000000E+00
	 1.00000000E+00	 3.75000000E-01	 0.00000000E+00
	 1.00000000E+00	 7.50000000E-01	 0.00000000E+00
	 1.00000000E+00	 1.12500000E+00	 0.00000000E+00
	 7.50000000E-01	 1.50000000E+00	 0.00000000E+00
	 5.00000000E-01	 1.50000000E+00	 0.00000000E+00
	 2.50000000E-01	 1.50000000E+00	 0.00000000E+00
	 0.00000000E+00	 1.12500000E+00	 0.00000000E+00
	 0.00000000E+00	 7.50000000E-01	 0.00000000E+00
	 0.00000000E+00	 3.75000000E-01	 0.00000000E+00
	 2.50000000E-01	 0.00000000E+00	 8.00000000E+00
	 5.00000000E-01	 0.00000000E+00	 8.00000000E+00
	 7.50000000E-01	 0.00000000E+00	 8.00000000E+00
	 1.00000000E+00	 3.75000000E-01	 8.00000000E+00
	 1.00000000E+00	 7.50000000E-01	 8.00000000E+00
	 1.00000000E+00	 1.12500000E+00	 8.00000000E+00
	 7.50000000E-01	 1.50000000E+00	 8.00000000E+00
	 5.00000000E-01	 1.50000000E+00	 8.00000000E+00
	 2.50000000E-01	 1.50000000E+00	 8.00000000E+00
	 0.00000000E+00	 1.12500000E+00	 8.00000000E+00
	 0.00000000E+00	 7.50000000E-01	 8.00000000E+00
	 0.00000000E+00	 3.75000000E-01	 8.00000000E+00
	 1.00000000E+00	 0.00000000E+00	 5.00000000E-01
	 1.00000000E+00	 0.00000000E+00	 1.00000000E+00
	 1.00000000E+00	 0.00000000E+00	 1.50000000E+00
	 1.00000000E+00	 0.00000000E+00	 2.00000000E+00
	 1.00000000E+00	 0.00000000E+00	 2.50000000E+00
	 1.00000000E+00	 0.00000000E+00	 3.00000000E+00
	 1.00000000E+00	 0.00000000E+00	 3.50000000E+00
	 1.00000000E+00	 0.00000000E+00	 4.00000000E+00
	 1.00000000E+00	 0.00000000E+00	 4.50000000E+00
	 1.00000000E+00	 0.00000000E+00	 5.00000000E+00
	 1.00000000E+00	 0.00000000E+00	 5.50000000E+00
	 1.00000000E+00	 0.00000000E+00	 6.00000000E+00
	 1.00000000E+00	 0.00000000E+00	 6.50000000E+00
	 1.00000000E+00	 0.00000000E+00	 7.00000000E+00
	 1.00000000E+00	 0.00000000E+00	 7.50000000E+00
	 0.00000000E+00	 0.00000000E+00	 7.50000000E+00
	 0.00000000E+00	 0.00000000E+00	 7.00000000E+00
	 0.00000000E+00	 0.00000000E+00	 6.50000000E+00
	 0.00000000E+00	 0.00000000E+00	 6.00000000E+00
	 0.00000000E+00	 0.00000000E+00	 5.50000000E+00
	 0.00000000E+00	 0.00000000E+00	 5.00000000E+00
	 0.00000000E+00	 0.00000000E+00	 4.50000000E+00
	 0.00000000E+00	 0.00000000E+00	 4.00000000E+00
	 0.00000000E+00	 0.00000000E+00	 3.50000000E+00
	 0.00000000E+00	 0.00000000E+00	 3.00000000E+00
	 0.00000000E+00	 0.00000000E+00	 2.50000000E+00
	 0.00000000E+00	 0.00000000E+00	 2.00000000E+00
	 0.00000000E+00	 0.00000000E+00	 1.50000000E+00
	 0.00000000E+00	 0.00000000E+00	 1.00000000E+00
	 0.00000000E+00	 0.00000000E+00	 5.00000000E-01
	 1.00000000E+00	 1.50000000E+00	 5.00000000E-01
	 1.00000000E+00	 1.50000000E+00	 1.00000000E+00
	 1.00000000E+00	 1.50000000E+00	 1.50000000E+00
	 1.00000000E+00	 1.50000000E+00	 2.00000000E+00
	 1.00000000E+00	 1.50000000E+00	 2.50000000E+00
	 1.00000000E+00	 1.50000000E+00	 3.00000000E+00
	 1.00000000E+00	 1.50000000E+00	 3.50000000E+00
	 1.00000000E+00	 1.50000000E+00	 4.00000000E+00
	 1.00000000E+00	 1.50000000E+00	 4.50000000E+00
	 1.00000000E+00	 1.50000000E+00	 5.00000000E+00
	 1.00000000E+00	 1.50000000E+00	 5.50000000E+00
	 1.00000000E+00	 1.50000000E+00	 6.00000000E+00
	 1.00000000E+00	 1.50000000E+00	 6.50000000E+00
	 1.00000000E+00	 1.50000000E+00	 7.00000000E+00
	 1.00000000E+00	 1.50000000E+00	 7.50000000E+00
	 0.00000000E+00	 1.50000000E+00	 5.00000000E-01
	 0.00000000E+00	 1.50000000E+00	 1.00000000E+00
	 0.00000000E+00	 1.50000000E+00	 1.50000000E+00
	 0.00000000E+00	 1.50000000E+00	 2.00000000E+00
	 0.00000000E+00	 1.50000000E+00	 2.50000000E+00
	 0.00000000E+00	 1.50000000E+00	 3.00000000E+00
	 0.00000000E+00	 1.50000000E+00	 3.50000000E+00
	 0.00000000E+00	 1.50000000E+00	 4.00000000E+00
	 0.00000000E+00	 1.50000000E+00	 4.50000000E+00
	 0.00000000E+00	 1.50000000E+00	 5.00000000E+00
	 0.00000000E+00	 1.50000000E+00	 5.50000000E+00
	 0.00000000E+00	 1.50000000E+00	 6.00000000E+00
	 0.00000000E+00	 1.50000000E+00	 6.50000000E+00
	 0.00000000E+00	 1.50000000E+00	 7.00000000E+00
	 0.00000000E+00	 1.50000000E+00	 7.50000000E+00
	 5.00000000E-01	 3.75000000E-01	 0.00000000E+00
	 2.50000000E-01	 7.50000000E-01	 0.00000000E+00
	 5.00000000E-01	 7.50000000E-01	 0.00000000E+00
	 7.50000000E-01	 7.50000000E-01	 0.00000000E+00
	 5.00000000E-01	 1.12500000E+00	 0.00000000E+00
	 5.00000000E-01	 3.75000000E-01	 8.00000000E+00
	 2.50000000E-01	 7.50000000E-01	 8.00000000E+00
	 5.00000000E-01	 7.50000000E-01	 8.00000000E+00
	 7.50000000E-01	 7.50000000E-01	 8.00000000E+00
	 5.00000000E-01	 1.12500000E+00	 8.00000000E+00
	 5.00000000E-01	 0.00000000E+00	 5.00000000E-01
	 2.50000000E-01	 0.00000000E+00	 1.00000000E+00
	 5.00000000E-01	 0.00000000E+00	 1.00000000E+00
	 7.50000000E-01	 0.00000000E+00	 1.00000000E+00
	 5.00000000E-01	 0.00000000E+00	 1.50000000E+00
	 2.50000000E-01	 0.00000000E+00	 2.00000000E+00
	 5.00000000E-01	 0.00000000E+00	 2.00000000E+00
	 7.50000000E-01	 0.00000000E+00	 2.00000000E+00
	 5.00000000E-01	 0.00000000E+00	 2.50000000E+00
	 2.50000000E-01	 0.00000000E+00	 3.00000000E+00
	 5.00000000E-01	 0.00000000E+00	 3.00000000E+00
	 7.50000000E-01	 0.00000000E+00	 3.00000000E+00
	 5.00000000E-01	 0.00000000E+00	 3.50000000E+00
	 2.50000000E-01	 0.00000000E+00	 4.00000000E+00
	 5.00000000E-01	 0.00000000E+00	 4.00000000E+00
	 7.50000000E-01	 0.00000000E+00	 4.00000000E+00
	 5.00000000E-01	 0.00000000E+00	 4.50000000E+00
	 2.50000000E-01	 0.00000000E+00	 5.00000000E+00
	 5.00000000E-01	 0.00000000E+00	 5.00000000E+00
	 7.50000000E-01	 0.00000000E+00	 5.00000000E+00
	 5.00000000E-01	 0.00000000E+00	 5.50000000E+00
	 2.50000000E-01	 0.00000000E+00	 6.00000000E+00
	 5.00000000E-01	 0.00000000E+00	 6.00000000E+00
	 7.50000000E-01	 0.00000000E+00	 6.00000000E+00
	 5.00000000E-01	 0.00000000E+00	 6.50000000E+00
	 2.50000000E-01	 0.00000000E+00	 7.00000000E+00
	 5.00000000E-01	 0.00000000E+00	 7.00000000E+00
	 7.50000000E-01	 0.00000000E+00	 7.00000000E+00
	 5.00000000E-01	 0.00000000E+00	 7.50000000E+00
	 1.00000000E+00	 7.50000000E-01	 5.00000000E-01
	 1.00000000E+00	 3.75000000E-01	 1.00000000E+00
	 1.00000000E+00	 7.50000000E-01	 1.00000000E+00
	 1.00000000E+00	 1.12500000E+00	 1.00000000E+00
	 1.00000000E+00	 7.50000000E-01	 1.50000000E+00
	 1.00000000E+00	 3.75000000E-01	 2.00000000E+00
	 1.00000000E+00	 7.50000000E-01	 2.00000000E+00
	 1.00000000E+00	 1.12500000E+00	 2.00000000E+00
	 1.00000000E+00	 7.50000000E-01	 2.50000000E+00
	 1.00000000E+00	 3.75000000E-01	 3.00000000E+00
	 1.00000000E+00	 7.50000000E-01	 3.00000000E+00
	 1.00000000E+00	 1.12500000E+00	 3.00000000E+00
	 1.00000000E+00	 7.50000000E-01	 3.50000000E+00
	 1.00000000E+00	 3.75000000E-01	 4.00000000E+00
	 1.00000000E+00	 7.50000000E-01	 4.00000000E+00
	 1.00000000E+00	 1.12500000E+00	 4.00000000E+00
	 1.00000000E+00	 7.50000000E-01	 4.50000000E+00
	 1.00000000E+00	 3.75000000E-01	 5.00000000E+00
	 1.00000000E+00	 7.50000000E-01	 5.00000000E+00
	 1.00000000E+00	 1.12500000E+00	 5.00000000E+00
	 1.00000000E+00	 7.50000000E-01	 5.50000000E+00
	 1.00000000E+00	 3.75000000E-01	 6.00000000E+00
	 1.00000000E+00	 7.50000000E-01	 6.00000000E+00
	 1.00000000E+00	 1.12500000E+00	 6.00000000E+00
	 1.00000000E+00	 7.50000000E-01	 6.50000000E+00
	 1.00000000E+00	 3.75000000E-01	 7.00000000E+00
	 1.00000000E+00	 7.50000000E-01	 7.00000000E+00
	 1.00000000E+00	 1.12500000E+00	 7.00000000E+00
	 1.00000000E+00	 7.50000000E-01	 7.50000000E+00
	 5.00000000E-01	 1.50000000E+00	 5.00000000E-01
	 7.50000000E-01	 1.50000000E+00	 1.00000000E+00
	 5.00000000E-01	 1.50000000E+00	 1.00000000E+00
	 2.50000000E-01	 1.50000000E+00	 1.00000000E+00
	 5.00000000E-01	 1.50000000E+00	 1.50000000E+00
	 7.50000000E-01	 1.50000000E+00	 2.00000000E+00
	 5.00000000E-01	 1.50000000E+00	 2.00000000E+00
	 2.50000000E-01	 1.50000000E+00	 2.00000000E+00
	 5.00000000E-01	 1.50000000E+00	 2.50000000E+00
	 7.50000000E-01	 1.50000000E+00	 3.00000000E+00
	 5.00000000E-01	 1.50000000E+00	 3.00000000E+00
	 2.50000000E-01	 1.50000000E+00	 3.00000000E+00
	 5.00000000E-01	 1.50000000E+00	 3.50000000E+00
	 7.50000000E-01	 1.50000000E+00	 4.00000000E+00
	 5.00000000E-01	 1.50000000E+00	 4.00000000E+00
	 2.50000000E-01	 1.50000000E+00	 4.00000000E+00
	 5.00000000E-01	 1.50000000E+00	 4.50000000E+00
	 7.50000000E-01	 1.50000000E+00	 5.00000000E+00
	 5.00000000E-01	 1.50000000E+00	 5.00000000E+00
	 2.50000000E-01	 1.50000000E+00	 5.00000000E+00
	 5.00000000E-01	 1.50000000E+00	 5.50000000E+00
	 7.50000000E-01	 1.50000000E+00	 6.00000000E+00
	 5.00000000E-01	 1.50000000E+00	 6.00000000E+00
	 2.50000000E-01	 1.50000000E+00	 6.00000000E+00
	 5.00000000E-01	 1.50000000E+00	 6.50000000E+00
	 7.50000000E-01	 1.50000000E+00	 7.00000000E+00
	 5.00000000E-01	 1.50000000E+00	 7.00000000E+00
	 2.50000000E-01	 1.50000000E+00	 7.00000000E+00
	 5.00000000E-01	 1.50000000E+00	 7.50000000E+00
	 0.00000000E+00	 7.50000000E-01	 5.00000000E-01
	 0.00000000E+00	 1.12500000E+00	 1.00000000E+00
	 0.00000000E+00	 7.50000000E-01	 1.00000000E+00
	 0.00000000E+00	 3.75000000E-01	 1.00000000E+00
	 0.00000000E+00	 7.50000000E-01	 1.50000000E+00
	 0.00000000E+00	 1.12500000E+00	 2.00000000E+00
	 0.00000000E+00	 7.50000000E-01	 2.00000000E+00
	 0.00000000E+00	 3.75000000E-01	 2.00000000E+00
	 0.00000000E+00	 7.50000000E-01	 2.50000000E+00
	 0.00000000E+00	 1.12500000E+00	 3.00000000E+00
	 0.00000000E+00	 7.50000000E-01	 3.00000000E+00
	 0.00000000E+00	 3.75000000E-01	 3.00000000E+00
	 0.00000000E+00	 7.50000000E-01	 3.50000000E+00
	 0.00000000E+00	 1.12500000E+00	 4.00000000E+00
	 0.00000000E+00	 7.50000000E-01	 4.00000000E+00
	 0.00000000E+00	 3.75000000E-01	 4.00000000E+00
	 0.00000000E+00	 7.50000000E-01	 4.50000000E+00
	 0.00000000E+00	 1.12500000E+00	 5.00000000E+00
	 0.00000000E+00	 7.50000000E-01	 5.00000000E+00
	 0.00000000E+00	 3.75000000E-01	 5.00000000E+00
	 0.00000000E+00	 7.50000000E-01	 5.50000000E+00
	 0.00000000E+00	 1.12500000E+00	 6.00000000E+00
	 0.00000000E+00	 7.50000000E-01	 6.00000000E+00
	 0.00000000E+00	 3.75000000E-01	 6.00000000E+00
	 0.00000000E+00	 7.50000000E-01	 6.50000000E+00
	 0.00000000E+00	 1.12500000E+00	 7.00000000E+00
	 0.00000000E+00	 7.50000000E-01	 7.00000000E+00
	 0.00000000E+00	 3.75000000E-01	 7.00000000E+00
	 0.00000000E+00	 7.50000000E-01	 7.50000000E+00
	 5.00000000E-01	 7.50000000E-01	 5.00000000E-01
	 5.00000000E-01	 3.75000000E-01	 1.00000000E+00
	 2.50000000E-01	 7.50000000E-01	 1.00000000E+00
	 5.00000000E-01	 7.50000000E-01	 1.00000000E+00
	 7.50000000E-01	 7.50000000E-01	 1.00000000E+00
	 5.00000000E-01	 1.12500000E+00	 1.00000000E+00
	 5.00000000E-01	 7.50000000E-01	 1.50000000E+00
	 5.00000000E-01	 3.75000000E-01	 2.00000000E+00
	 2.50000000E-01	 7.50000000E-01	 2.00000000E+00
	 5.00000000E-01	 7.50000000E-01	 2.00000000E+00
	 7.50000000E-01	 7.50000000E-01	 2.00000000E+00
	 5.00000000E-01	 1.12500000E+00	 2.00000000E+00
	 5.00000000E-01	 7.50000000E-01	 2.50000000E+00
	 5.00000000E-01	 3.75000000E-01	 3.00000000E+00
	 2.50000000E-01	 7.50000000E-01	 3.00000000E+00
	 5.00000000E-01	 7.50000000E-01	 3.00000000E+00
	 7.50000000E-01	 7.50000000E-01	 3.00000000E+00
	 5.00000000E-01	 1.12500000E+00	 3.00000000E+00
	 5.00000000E-01	 7.50000000E-01	 3.50000000E+00
	 5.00000000E-01	 3.75000000E-01	 4.00000000E+00
	 2.50000000E-01	 7.50000000E-01	 4.00000000E+00
	 5.00000000E-01	 7.50000000E-01	 4.00000000E+00
	 7.50000000E-01	 7.50000000E-01	 4.00000000E+00
	 5.00000000E-01	 1.12500000E+00	 4.00000000E+00
	 5.00000000E-01	 7.50000000E-01	 4.50000000E+00
	 5.00000000E-01	 3.75000000E-01	 5.00000000E+00
	 2.50000000E-01	 7.50000000E-01	 5.00000000E+00
	 5.00000000E-01	 7.50000000E-01	 5.00000000E+00
	 7.50000000E-01	 7.50000000E-01	 5.00000000E+00
	 5.00000000E-01	 1.12500000E+00	 5.00000000E+00
	 5.00000000E-01	 7.50000000E-01	 5.50000000E+00
	 5.00000000E-01	 3.75000000E-01	 6.00000000E+00
	 2.50000000E-01	 7.50000000E-01	 6.00000000E+00
	 5.00000000E-01	 7.50000000E-01	 6.00000000E+00
	 7.50000000E-01	 7.50000000E-01	 6.00000000E+00
	 5.00000000E-01	 1.12500000E+00	 6.00000000E+00
	 5.00000000E-01	 7.50000000E-01	 6.50000000E+00
	 5.00000000E-01	 3.75000000E-01	 7.00000000E+00
	 2.50000000E-01	 7.50000000E-01	 7.00000000E+00
	 5.00000000E-01	 7.50000000E-01	 7.00000000E+00
	 7.50000000E-01	 7.50000000E-01	 7.00000000E+00
	 5.00000000E-01	 1.12500000E+00	 7.00000000E+00
	 5.00000000E-01	 7.50000000E-01	 7.50000000E+00

CELLS 32 672
	20 0 9 94 18 60 104 221 191 8 92 93 19 103 219 220 192 61 102 218 189 
	20 9 1 12 94 104 33 133 221 10 11 95 92 105 132 222 219 102 32 131 218 
	20 18 94 15 3 191 221 162 78 93 96 16 17 220 223 163 190 189 218 160 77 
	20 94 12 2 15 221 133 63 162 95 13 14 96 222 134 161 223 218 131 62 160 
	20 60 104 221 191 58 108 227 195 103 219 220 192 107 225 226 196 59 106 224 193 
	20 104 33 133 221 108 35 137 227 105 132 222 219 109 136 228 225 106 34 135 224 
	20 191 221 162 78 195 227 166 80 220 223 163 190 226 229 167 194 193 224 164 79 
	20 221 133 63 162 227 137 65 166 222 134 161 223 228 138 165 229 224 135 64 164 
	20 58 108 227 195 56 112 233 199 107 225 226 196 111 231 232 200 57 110 230 197 
	20 108 35 137 227 112 37 141 233 109 136 228 225 113 140 234 231 110 36 139 230 
	20 195 227 166 80 199 233 170 82 226 229 167 194 232 235 171 198 197 230 168 81 
	20 227 137 65 166 233 141 67 170 228 138 165 229 234 142 169 235 230 139 66 168 
	20 56 112 233 199 54 116 239 203 111 231 232 200 115 237 238 204 55 114 236 201 
	20 112 37 141 233 116 39 145 239 113 140 234 231 117 144 240 237 114 38 143 236 
	20 199 233 170 82 203 239 174 84 232 235 171 198 238 241 175 202 201 236 172 83 
	20 233 141 67 170 239 145 69 174 234 142 169 235 240 146 173 241 236 143 68 172 
	20 54 116 239 203 52 120 245 207 115 237 238 204 119 243 244 208 53 118 242 205 
	20 116 39 145 239 120 41 149 245 117 144 240 237 121 148 246 243 118 40 147 242 
	20 203 239 174 84 207 245 178 86 238 241 175 202 244 247 179 206 205 242 176 85 
	20 239 145 69 174 245 149 71 178 240 146 173 241 246 150 177 247 242 147 70 176 
	20 52 120 245 207 50 124 251 211 119 243 244 208 123 249 250 212 51 122 248 209 
	20 120 41 149 245 124 43 153 251 121 148 246 243 125 152 252 249 122 42 151 248 
	20 207 245 178 86 211 251 182 88 244 247 179 206 250 253 183 210 209 248 180 87 
	20 245 149 71 178 251 153 73 182 246 150 177 247 252 154 181 253 248 151 72 180 
	20 50 124 251 211 48 128 257 215 123 249 250 212 127 255 256 216 49 126 254 213 
	20 124 43 153 251 128 45 157 257 125 152 252 249 129 156 258 255 126 44 155 254 
	20 211 251 182 88 215 257 186 90 250 253 183 210 256 259 187 214 213 254 184 89 
	20 251 153 73 182 257 157 75 186 252 154 181 253 258 158 185 259 254 155 74 184 
	20 48 128 257 215 4 21 99 30 127 255 256 216 20 97 98 31 47 130 260 217 
	20 128 45 157 257 21 5 24 99 129 156 258 255 22 23 100 97 130 46 159 260 
	20 215 257 186 90 30 99 27 7 256 259 187 214 98 101 28 29 217 260 188 91 
	20 257 157 75 186 99 24 6 27 258 158 185 259 100 25 26 101 260 159 76 188 

CELL_TYPES 32
	25
	25
	25
	25
	25
	25
	25
	25
	25
	25
	25
	25
	25
	25
	25
	25
	25
	25
	25
	25
	25
	25
	25
	25
	25
	25
	25
	25
	25
	25
	25
	25

POINT_DATA 261
FIELD U 1
	U 3 261 double
		 0.00000000E+00	 0.00000000E+00	 0.00000000E+00
		 0.00000000E+00	 0.00000000E+00	 0.00000000E+00
		 0.00000000E+00	 0.00000000E+00	 0.00000000E+00
		 0.00000000E+00	 0.00000000E+00	 0.00000000E+00
		 2.21470000E-04	 1.46062000E+00	 2.01338000E-01
		-2.21470000E-04	 1.46062000E+00	 2.01338000E-01
		 2.21470000E-04	 1.46062000E+00	-2.01338000E-01
		-2.21470000E-04	 1.46062000E+00	-2.01338000E-01
		 0.00000000E+00	 0.00000000E+00	 0.00000000E+00
		 0.00000000E+00	 0.00000000E+00	 0.00000000E+00
		 0.00000000E+00	 0.00000000E+00	 0.00000000E+00
		 0.00000000E+00	 0.00000000E+00	 0.00000000E+00
		 0.00000000E+00	 0.00000000E+00	 0.00000000E+00
		 0.00000000E+00	 0.00000000E+00	 0.00000000E+00
		 0.00000000E+00	 0.00000000E+00	 0.00000000E+00
		 0.00000000E+00	 0.00000000E+00	 0.00000000E+00
		 0.00000000E+00	 0.00000000E+00	 0.00000000E+00
		 0.00000000E+00	 0.00000000E+00	 0.00000000E+00
		 0.00000000E+00	 0.00000000E+00	 0.00000000E+00
		 0.00000000E+00	 0.00000000E+00	 0.00000000E+00
		 3.35706000E-04	 1.45986000E+00	 2.00821000E-01
		 6.57448000E-13	 1.45747000E+00	 2.00304000E-01
		-3.35706000E-04	 1.45986000E+00	 2.00821000E-01
		-3.80535000E-04	 1.45974000E+00	 1.00210000E-01
		 6.86118000E-13	 1.45778000E+00	-6.23376000E-14
		 3.80535000E-04	 1.45974000E+00	-1.00210000E-01
		 3.35706000E-04	 1.45986000E+00	-2.00821000E-01
		 7.20817000E-13	 1.45747000E+00	-2.00304000E-01
		-3.35706000E-04	 1.45986000E+00	-2.00821000E-01
		-3.80535000E-04	 1.45974000E+00	-1.00210000E-01
		 6.87941000E-13	 1.45778000E+00	 6.32662000E-14
		 3.80535000E-04	 1.45974000E+00	 1.00210000E-01
		-7.95600000E-03	 1.18097000E-02	 2.29572000E-02
		-5.49569000E-03	 3.56827000E-02	 4.58944000E-02
		-6.22365000E-03	 7.65302000E-02	 6.74781000E-02
		-5.57235000E-03	 1.29596000E-01	 8.73260000E-02
		-5.26302000E-03	 1.96325000E-01	 1.05495000E-01
		-4.72485000E-03	 2.74206000E-01	 1.22148000E-01
		-4.28577000E-03	 3.62817000E-01	 1.37235000E-01
		-3.80591000E-03	 4.60901000E-01	 1.50747000E-01
		-3.33608000E-03	 5.67433000E-01	 1.62630000E-01
		-2.85979000E-03	 6.81522000E-01	 1.72977000E-01
		-2.36155000E-03	 8.01625000E-01	 1.81671000E-01
		-1.86286000E-03	 9.27500000E-01	 1.88894000E-01
		-1.50937000E-03	 1.05700000E+00	 1.94296000E-01
		-9.35562000E-04	 1.19099000E+00	 1.98525000E-01
		-5.21953000E-04	 1.32450000E+00	 2.00659000E-01
		 5.21953000E-04	 1.32450000E+00	 2.00659000E-01
		 9.35562000E-04	 1.19099000E+00	 1.98525000E-01
		 1.50937000E-03	 1.05700000E+00	 1.94296000E-01
		 1.86286000E-03	 9.27500000E-01	 1.88894000E-01
		 2.36155000E-03	 8.01625000E-01	 1.81671000E-01
		 2.85979000E-03	 6.81522000E-01	 1.72977000E-01
		 3.33608000E-03	 5.67433000E-01	 1.62630000E-01
		 3.80591000E-03	 4.60901000E-01	 1.50747000E-01
		 4.28577000E-03	 3.62817000E-01	 1.37235000E-01
		 4.72485000E-03	 2.74206000E-01	 1.22148000E-01
		 5.26302000E-03	 1.96325000E-01	 1.05495000E-01
		 5.57235000E-03	 1.29596000E-01	 8.73260000E-02
		 6.22365000E-03	 7.65302000E-02	 6.74781000E-02
		 5.49569000E-03	 3.56827000E-02	 4.58944000E-02
		 7.95600000E-03	 1.18097000E-02	 2.29572000E-02
		 7.95600000E-03	 1.18097000E-02	-2.29572000E-02
		 5.49569000E-03	 3.56827000E-02	-4.58944000E-02
		 6.22365000E-03	 7.65302000E-02	-6.74781000E-02
		 5.57235000E-03	 1.29596000E-01	-8.73260000E-02
		 5.26302000E-03	 1.96325000E-01	-1.05495000E-01
		 4.72485000E-03	 2.74206000E-01	-1.22148000E-01
		 4.28577000E-03	 3.62817000E-01	-1.37235000E-01
		 3.80591000E-03	 4.60901000E-01	-1.50747000E-01
		 3.33608000E-03	 5.67433000E-01	-1.62630000E-01
		 2.85979000E-03	 6.81522000E-01	-1.72977000E-01
		 2.36155000E-03	 8.01625000E-01	-1.81671000E-01
		 1.86286000E-03	 9.27500000E-01	-1.88894000E-01
		 1.50937000E-03	 1.05700000E+00	-1.94296000E-01
		 9.35562000E-04	 1.19099000E+00	-1.98525000E-01
		 5.21953000E-04	 1.32450000E+00	-2.00659000E-01
		-7.95600000E-03	 1.18097000E-02	-2.29572000E-02
		-5.49569000E-03	 3.56827000E-02	-4.58944000E-02
		-6.22365000E-03	 7.65302000E-02	-6.74781000E-02
		-5.57235000E-03	 1.29596000E-01	-8.73260000E-02
		-5.26302000E-03	 1.96325000E-01	-1.05495000E-01
		-4.72485000E-03	 2.74206000E-01	-1.22148000E-01
		-4.28577000E-03	 3.62817000E-01	-1.37235000E-01
		-3.80591000E-03	 4.60901000E-01	-1.50747000E-01
		-3.33608000E-03	 5.67433000E-01	-1.62630000E-01
		-2.85979000E-03	 6.81522000E-01	-1.72977000E-01
		-2.36155000E-03	 8.01625000E-01	-1.81671000E-01
		-1.86286000E-03	 9.27500000E-01	-1.88894000E-01
		-1.50937000E-03	 1.05700000E+00	-1.94296000E-01
		-9.35562000E-04	 1.19099000E+00	-1.98525000E-01
		-5.21953000E-04	 1.32450000E+00	-2.00659000E-01
		 0.00000000E+00	 0.00000000E+00	 0.00000000E+00
		 0.00000000E+00	 0.00000000E+00	 0.00000000E+00
		 0.00000000E+00	 0.00000000E+00	 0.00000000E+00
		 0.00000000E+00	 0.00000000E+00	 0.00000000E+00
		 0.00000000E+00	 0.00000000E+00	 0.00000000E+00
		 6.70922000E-13	 1.46289000E+00	 1.01164000E-01
		 6.87499000E-13	 1.46232000E+00	 3.11185000E-14
		 6.87748000E-13	 1.47022000E+00	-7.16441000E-16
		 6.87043000E-13	 1.46232000E+00	-3.17546000E-14
		 7.03722000E-13	 1.46289000E+00	-1.01164000E-01
		 1.80639000E-16	 1.40962000E-02	 2.21061000E-02
		 2.74287000E-03	 3.75252000E-02	 4.62916000E-02
		 9.11739000E-15	 3.79529000E-02	 4.66743000E-02
		-2.74287000E-03	 3.75252000E-02	 4.62916000E-02
		 2.47889000E-14	 7.84820000E-02	 6.75356000E-02
		 2.77935000E-03	 1.31040000E-01	 8.75027000E-02
		 4.78885000E-14	 1.31622000E-01	 8.75678000E-02
		-2.77935000E-03	 1.31040000E-01	 8.75027000E-02
		 7.66873000E-14	 1.98035000E-01	 1.05632000E-01
		 2.36271000E-03	 2.75419000E-01	 1.22285000E-01
		 1.11980000E-13	 2.75818000E-01	 1.22303000E-01
		-2.36271000E-03	 2.75419000E-01	 1.22285000E-01
		 1.51950000E-13	 3.64251000E-01	 1.37383000E-01
		 1.90382000E-03	 4.61828000E-01	 1.50873000E-01
		 1.97045000E-13	 4.62117000E-01	 1.50884000E-01
		-1.90382000E-03	 4.61828000E-01	 1.50873000E-01
		 2.45099000E-13	 5.68590000E-01	 1.62794000E-01
		 1.42601000E-03	 6.82092000E-01	 1.73083000E-01
		 2.96853000E-13	 6.82220000E-01	 1.73064000E-01
		-1.42601000E-03	 6.82092000E-01	 1.73083000E-01
		 3.51398000E-13	 8.02615000E-01	 1.81823000E-01
		 9.44552000E-04	 9.27726000E-01	 1.88917000E-01
		 4.08272000E-13	 9.27514000E-01	 1.88830000E-01
		-9.44552000E-04	 9.27726000E-01	 1.88917000E-01
		 4.68331000E-13	 1.05788000E+00	 1.94731000E-01
		 4.36953000E-04	 1.18994000E+00	 1.98490000E-01
		 5.29122000E-13	 1.18917000E+00	 1.98331000E-01
		-4.36953000E-04	 1.18994000E+00	 1.98490000E-01
		 5.93273000E-13	 1.32657000E+00	 2.00533000E-01
		 5.51013000E-15	 5.56664000E-03	-7.11072000E-15
		-2.76193000E-03	 3.23771000E-02	 2.24008000E-02
		 1.63721000E-14	 3.23361000E-02	-1.48586000E-14
		 2.76193000E-03	 3.23771000E-02	-2.24008000E-02
		 3.51684000E-14	 7.14664000E-02	-2.17289000E-14
		-2.78635000E-03	 1.26751000E-01	 4.30860000E-02
		 6.02196000E-14	 1.25843000E-01	-2.82189000E-14
		 2.78635000E-03	 1.26751000E-01	-4.30860000E-02
		 9.16515000E-14	 1.92293000E-01	-3.41237000E-14
		-2.36407000E-03	 2.71553000E-01	 6.05487000E-02
		 1.28553000E-13	 2.70741000E-01	-3.96208000E-14
		 2.36407000E-03	 2.71553000E-01	-6.05487000E-02
		 1.70614000E-13	 3.59596000E-01	-4.43603000E-14
		-1.90301000E-03	 4.58757000E-01	 7.48322000E-02
		 2.17158000E-13	 4.58023000E-01	-4.84680000E-14
		 1.90301000E-03	 4.58757000E-01	-7.48322000E-02
		 2.67665000E-13	 5.64967000E-01	-5.24237000E-14
		-1.43017000E-03	 6.79783000E-01	 8.59475000E-02
		 3.21222000E-13	 6.79143000E-01	-5.54832000E-14
		 1.43017000E-03	 6.79783000E-01	-8.59475000E-02
		 3.78916000E-13	 8.00020000E-01	-5.79909000E-14
		-9.45106000E-04	 9.26209000E-01	 9.39214000E-02
		 4.37560000E-13	 9.25551000E-01	-6.07563000E-14
		 9.45106000E-04	 9.26209000E-01	-9.39214000E-02
		 4.98997000E-13	 1.05627000E+00	-6.29356000E-14
		-4.24249000E-04	 1.18919000E+00	 9.87214000E-02
		 5.60225000E-13	 1.18803000E+00	-6.29627000E-14
		 4.24249000E-04	 1.18919000E+00	-9.87214000E-02
		 6.24434000E-13	 1.32590000E+00	-6.29905000E-14
		 4.15573000E-15	 1.40962000E-02	-2.21061000E-02
		 2.74287000E-03	 3.75252000E-02	-4.62916000E-02
		 1.80823000E-14	 3.79529000E-02	-4.66743000E-02
		-2.74287000E-03	 3.75252000E-02	-4.62916000E-02
		 3.87884000E-14	 7.84820000E-02	-6.75356000E-02
		 2.77935000E-03	 1.31040000E-01	-8.75027000E-02
		 6.68200000E-14	 1.31622000E-01	-8.75678000E-02
		-2.77935000E-03	 1.31040000E-01	-8.75027000E-02
		 1.00581000E-13	 1.98035000E-01	-1.05632000E-01
		 2.36271000E-03	 2.75419000E-01	-1.22285000E-01
		 1.40183000E-13	 2.75818000E-01	-1.22303000E-01
		-2.36271000E-03	 2.75419000E-01	-1.22285000E-01
		 1.84314000E-13	 3.64251000E-01	-1.37383000E-01
		 1.90382000E-03	 4.61828000E-01	-1.50873000E-01
		 2.33591000E-13	 4.62117000E-01	-1.50884000E-01
		-1.90382000E-03	 4.61828000E-01	-1.50873000E-01
		 2.86357000E-13	 5.68590000E-01	-1.62794000E-01
		 1.42601000E-03	 6.82092000E-01	-1.73083000E-01
		 3.43434000E-13	 6.82220000E-01	-1.73064000E-01
		-1.42601000E-03	 6.82092000E-01	-1.73083000E-01
		 4.03600000E-13	 8.02615000E-01	-1.81823000E-01
		 9.44552000E-04	 9.27726000E-01	-1.88917000E-01
		 4.64850000E-13	 9.27514000E-01	-1.88830000E-01
		-9.44552000E-04	 9.27726000E-01	-1.88917000E-01
		 5.29771000E-13	 1.05788000E+00	-1.94731000E-01
		 4.36953000E-04	 1.18994000E+00	-1.98490000E-01
		 5.94505000E-13	 1.18917000E+00	-1.98331000E-01
		-4.36953000E-04	 1.18994000E+00	-1.98490000E-01
		 6.57767000E-13	 1.32657000E+00	-2.00533000E-01
		 5.46485000E-15	 5.56664000E-03	 7.02438000E-15
		-2.76193000E-03	 3.23771000E-02	-2.24008000E-02
		 1.64272000E-14	 3.23361000E-02	 1.45781000E-14
		 2.76193000E-03	 3.23771000E-02	 2.24008000E-02
		 3.51088000E-14	 7.14664000E-02	 2.12923000E-14
		-2.78635000E-03	 1.26751000E-01	-4.30860000E-02
		 5.99980000E-14	 1.25843000E-01	 2.77247000E-14
		 2.78635000E-03	 1.26751000E-01	 4.30860000E-02
		 9.15362000E-14	 1.92293000E-01	 3.35921000E-14
		-2.36407000E-03	 2.71553000E-01	-6.05487000E-02
		 1.28337000E-13	 2.70741000E-01	 3.88695000E-14
		 2.36407000E-03	 2.71553000E-01	 6.05487000E-02
		 1.70464000E-13	 3.59596000E-01	 4.35083000E-14
		-1.90301000E-03	 4.58757000E-01	-7.48322000E-02
		 2.16940000E-13	 4.58023000E-01	 4.80492000E-14
		 1.90301000E-03	 4.58757000E-01	 7.48322000E-02
		 2.67866000E-13	 5.64967000E-01	 5.20536000E-14
		-1.43017000E-03	 6.79783000E-01	-8.59475000E-02
		 3.22541000E-13	 6.79143000E-01	 5.51098000E-14
		 1.43017000E-03	 6.79783000E-01	 8.59475000E-02
		 3.79117000E-13	 8.00020000E-01	 5.80837000E-14
		-9.45106000E-04	 9.26209000E-01	-9.39214000E-02
		 4.38161000E-13	 9.25551000E-01	 5.98115000E-14
		 9.45106000E-04	 9.26209000E-01	 9.39214000E-02
		 4.99294000E-13	 1.05627000E+00	 6.07809000E-14
		-4.24249000E-04	 1.18919000E+00	-9.87214000E-02
		 5.60945000E-13	 1.18803000E+00	 6.17032000E-14
		 4.24249000E-04	 1.18919000E+00	 9.87214000E-02
		 6.23674000E-13	 1.32590000E+00	 6.20461000E-14
		 3.88956000E-15	 7.81273000E-03	-6.60942000E-17
		 1.31777000E-14	 3.44574000E-02	 2.27698000E-02
		 1.56894000E-14	 3.40439000E-02	 7.09206000E-15
		 1.56968000E-14	 3.43176000E-02	-1.98626000E-16
		 1.56591000E-14	 3.40439000E-02	-7.39860000E-15
		 1.76179000E-14	 3.44574000E-02	-2.27698000E-02
		 3.39602000E-14	 7.35595000E-02	-2.62811000E-16
		 5.40813000E-14	 1.28678000E-01	 4.32547000E-02
		 5.94620000E-14	 1.27178000E-01	 1.37228000E-14
		 5.93314000E-14	 1.27653000E-01	-1.87784000E-16
		 5.95529000E-14	 1.27178000E-01	-1.41497000E-14
		 6.35312000E-14	 1.28678000E-01	-4.32547000E-02
		 9.07756000E-14	 1.94056000E-01	-2.29851000E-16
		 1.20360000E-13	 2.73146000E-01	 6.06755000E-02
		 1.27877000E-13	 2.71940000E-01	 1.92331000E-14
		 1.27859000E-13	 2.72315000E-01	-2.63185000E-16
		 1.28053000E-13	 2.71940000E-01	-1.98682000E-14
		 1.34557000E-13	 2.73146000E-01	-6.06755000E-02
		 1.69909000E-13	 3.61020000E-01	-4.27514000E-16
		 2.07202000E-13	 4.60028000E-01	 7.49453000E-02
		 2.16535000E-13	 4.58999000E-01	 2.36972000E-14
		 2.16455000E-13	 4.59365000E-01	-4.94396000E-16
		 2.16701000E-13	 4.58999000E-01	-2.44830000E-14
		 2.25181000E-13	 4.60028000E-01	-7.49453000E-02
		 2.67488000E-13	 5.66013000E-01	-3.49547000E-16
		 3.09872000E-13	 6.80762000E-01	 8.60432000E-02
		 3.22222000E-13	 6.80008000E-01	 2.72091000E-14
		 3.21893000E-13	 6.80329000E-01	-3.74700000E-16
		 3.21449000E-13	 6.80008000E-01	-2.77972000E-14
		 3.32796000E-13	 6.80762000E-01	-8.60432000E-02
		 3.78697000E-13	 8.00656000E-01	-2.56305000E-16
		 4.23177000E-13	 9.26896000E-01	 9.39735000E-02
		 4.38292000E-13	 9.26396000E-01	 2.95840000E-14
		 4.38594000E-13	 9.27170000E-01	-5.91355000E-16
		 4.38032000E-13	 9.26396000E-01	-3.07671000E-14
		 4.51861000E-13	 9.26896000E-01	-9.39735000E-02
		 4.98934000E-13	 1.05601000E+00	-9.50288000E-16
		 5.45458000E-13	 1.19030000E+00	 9.84517000E-02
		 5.60718000E-13	 1.19014000E+00	 3.07185000E-14
		 5.60499000E-13	 1.19116000E+00	-5.29308000E-16
		 5.60138000E-13	 1.19014000E+00	-3.15442000E-14
		 5.77137000E-13	 1.19030000E+00	-9.84517000E-02
		 6.24225000E-13	 1.32419000E+00	-2.08167000E-16
