# vtk DataFile Version 3.0

ASCII
DATASET UNSTRUCTURED_GRID

POINTS 261 double
	 0.00000000E+00	 0.00000000E+00	 0.00000000E+00
	 1.00000000E+00	 0.00000000E+00	 0.00000000E+00
	 1.00000000E+00	 1.50000000E+00	 0.00000000E+00
	 0.00000000E+00	 1.50000000E+00	 0.00000000E+00
	 0.00000000E+00	 0.00000000E+00	 8.00000000E+00
	 1.00000000E+00	 0.00000000E+00	 8.00000000E+00
	 1.00000000E+00	 1.50000000E+00	 8.00000000E+00
	 0.00000000E+00	 1.50000000E+00	 8.00000000E+00
	 2.50000000E-01	 0.00000000E+00	 0.00000000E+00
	 5.00000000E-01	 0.00000000E+00	 0.00000000E+00
	 7.50000000E-01	 0.00000000E+00	 0.00000000E+00
	 1.00000000E+00	 3.75000000E-01	 0.00000000E+00
	 1.00000000E+00	 7.50000000E-01	 0.00000000E+00
	 1.00000000E+00	 1.12500000E+00	 0.00000000E+00
	 7.50000000E-01	 1.50000000E+00	 0.00000000E+00
	 5.00000000E-01	 1.50000000E+00	 0.00000000E+00
	 2.50000000E-01	 1.50000000E+00	 0.00000000E+00
	 0.00000000E+00	 1.12500000E+00	 0.00000000E+00
	 0.00000000E+00	 7.50000000E-01	 0.00000000E+00
	 0.00000000E+00	 3.75000000E-01	 0.00000000E+00
	 2.50000000E-01	 0.00000000E+00	 8.00000000E+00
	 5.00000000E-01	 0.00000000E+00	 8.00000000E+00
	 7.50000000E-01	 0.00000000E+00	 8.00000000E+00
	 1.00000000E+00	 3.75000000E-01	 8.00000000E+00
	 1.00000000E+00	 7.50000000E-01	 8.00000000E+00
	 1.00000000E+00	 1.12500000E+00	 8.00000000E+00
	 7.50000000E-01	 1.50000000E+00	 8.00000000E+00
	 5.00000000E-01	 1.50000000E+00	 8.00000000E+00
	 2.50000000E-01	 1.50000000E+00	 8.00000000E+00
	 0.00000000E+00	 1.12500000E+00	 8.00000000E+00
	 0.00000000E+00	 7.50000000E-01	 8.00000000E+00
	 0.00000000E+00	 3.75000000E-01	 8.00000000E+00
	 1.00000000E+00	 0.00000000E+00	 5.00000000E-01
	 1.00000000E+00	 0.00000000E+00	 1.00000000E+00
	 1.00000000E+00	 0.00000000E+00	 1.50000000E+00
	 1.00000000E+00	 0.00000000E+00	 2.00000000E+00
	 1.00000000E+00	 0.00000000E+00	 2.50000000E+00
	 1.00000000E+00	 0.00000000E+00	 3.00000000E+00
	 1.00000000E+00	 0.00000000E+00	 3.50000000E+00
	 1.00000000E+00	 0.00000000E+00	 4.00000000E+00
	 1.00000000E+00	 0.00000000E+00	 4.50000000E+00
	 1.00000000E+00	 0.00000000E+00	 5.00000000E+00
	 1.00000000E+00	 0.00000000E+00	 5.50000000E+00
	 1.00000000E+00	 0.00000000E+00	 6.00000000E+00
	 1.00000000E+00	 0.00000000E+00	 6.50000000E+00
	 1.00000000E+00	 0.00000000E+00	 7.00000000E+00
	 1.00000000E+00	 0.00000000E+00	 7.50000000E+00
	 0.00000000E+00	 0.00000000E+00	 7.50000000E+00
	 0.00000000E+00	 0.00000000E+00	 7.00000000E+00
	 0.00000000E+00	 0.00000000E+00	 6.50000000E+00
	 0.00000000E+00	 0.00000000E+00	 6.00000000E+00
	 0.00000000E+00	 0.00000000E+00	 5.50000000E+00
	 0.00000000E+00	 0.00000000E+00	 5.00000000E+00
	 0.00000000E+00	 0.00000000E+00	 4.50000000E+00
	 0.00000000E+00	 0.00000000E+00	 4.00000000E+00
	 0.00000000E+00	 0.00000000E+00	 3.50000000E+00
	 0.00000000E+00	 0.00000000E+00	 3.00000000E+00
	 0.00000000E+00	 0.00000000E+00	 2.50000000E+00
	 0.00000000E+00	 0.00000000E+00	 2.00000000E+00
	 0.00000000E+00	 0.00000000E+00	 1.50000000E+00
	 0.00000000E+00	 0.00000000E+00	 1.00000000E+00
	 0.00000000E+00	 0.00000000E+00	 5.00000000E-01
	 1.00000000E+00	 1.50000000E+00	 5.00000000E-01
	 1.00000000E+00	 1.50000000E+00	 1.00000000E+00
	 1.00000000E+00	 1.50000000E+00	 1.50000000E+00
	 1.00000000E+00	 1.50000000E+00	 2.00000000E+00
	 1.00000000E+00	 1.50000000E+00	 2.50000000E+00
	 1.00000000E+00	 1.50000000E+00	 3.00000000E+00
	 1.00000000E+00	 1.50000000E+00	 3.50000000E+00
	 1.00000000E+00	 1.50000000E+00	 4.00000000E+00
	 1.00000000E+00	 1.50000000E+00	 4.50000000E+00
	 1.00000000E+00	 1.50000000E+00	 5.00000000E+00
	 1.00000000E+00	 1.50000000E+00	 5.50000000E+00
	 1.00000000E+00	 1.50000000E+00	 6.00000000E+00
	 1.00000000E+00	 1.50000000E+00	 6.50000000E+00
	 1.00000000E+00	 1.50000000E+00	 7.00000000E+00
	 1.00000000E+00	 1.50000000E+00	 7.50000000E+00
	 0.00000000E+00	 1.50000000E+00	 5.00000000E-01
	 0.00000000E+00	 1.50000000E+00	 1.00000000E+00
	 0.00000000E+00	 1.50000000E+00	 1.50000000E+00
	 0.00000000E+00	 1.50000000E+00	 2.00000000E+00
	 0.00000000E+00	 1.50000000E+00	 2.50000000E+00
	 0.00000000E+00	 1.50000000E+00	 3.00000000E+00
	 0.00000000E+00	 1.50000000E+00	 3.50000000E+00
	 0.00000000E+00	 1.50000000E+00	 4.00000000E+00
	 0.00000000E+00	 1.50000000E+00	 4.50000000E+00
	 0.00000000E+00	 1.50000000E+00	 5.00000000E+00
	 0.00000000E+00	 1.50000000E+00	 5.50000000E+00
	 0.00000000E+00	 1.50000000E+00	 6.00000000E+00
	 0.00000000E+00	 1.50000000E+00	 6.50000000E+00
	 0.00000000E+00	 1.50000000E+00	 7.00000000E+00
	 0.00000000E+00	 1.50000000E+00	 7.50000000E+00
	 5.00000000E-01	 3.75000000E-01	 0.00000000E+00
	 2.50000000E-01	 7.50000000E-01	 0.00000000E+00
	 5.00000000E-01	 7.50000000E-01	 0.00000000E+00
	 7.50000000E-01	 7.50000000E-01	 0.00000000E+00
	 5.00000000E-01	 1.12500000E+00	 0.00000000E+00
	 5.00000000E-01	 3.75000000E-01	 8.00000000E+00
	 2.50000000E-01	 7.50000000E-01	 8.00000000E+00
	 5.00000000E-01	 7.50000000E-01	 8.00000000E+00
	 7.50000000E-01	 7.50000000E-01	 8.00000000E+00
	 5.00000000E-01	 1.12500000E+00	 8.00000000E+00
	 5.00000000E-01	 0.00000000E+00	 5.00000000E-01
	 2.50000000E-01	 0.00000000E+00	 1.00000000E+00
	 5.00000000E-01	 0.00000000E+00	 1.00000000E+00
	 7.50000000E-01	 0.00000000E+00	 1.00000000E+00
	 5.00000000E-01	 0.00000000E+00	 1.50000000E+00
	 2.50000000E-01	 0.00000000E+00	 2.00000000E+00
	 5.00000000E-01	 0.00000000E+00	 2.00000000E+00
	 7.50000000E-01	 0.00000000E+00	 2.00000000E+00
	 5.00000000E-01	 0.00000000E+00	 2.50000000E+00
	 2.50000000E-01	 0.00000000E+00	 3.00000000E+00
	 5.00000000E-01	 0.00000000E+00	 3.00000000E+00
	 7.50000000E-01	 0.00000000E+00	 3.00000000E+00
	 5.00000000E-01	 0.00000000E+00	 3.50000000E+00
	 2.50000000E-01	 0.00000000E+00	 4.00000000E+00
	 5.00000000E-01	 0.00000000E+00	 4.00000000E+00
	 7.50000000E-01	 0.00000000E+00	 4.00000000E+00
	 5.00000000E-01	 0.00000000E+00	 4.50000000E+00
	 2.50000000E-01	 0.00000000E+00	 5.00000000E+00
	 5.00000000E-01	 0.00000000E+00	 5.00000000E+00
	 7.50000000E-01	 0.00000000E+00	 5.00000000E+00
	 5.00000000E-01	 0.00000000E+00	 5.50000000E+00
	 2.50000000E-01	 0.00000000E+00	 6.00000000E+00
	 5.00000000E-01	 0.00000000E+00	 6.00000000E+00
	 7.50000000E-01	 0.00000000E+00	 6.00000000E+00
	 5.00000000E-01	 0.00000000E+00	 6.50000000E+00
	 2.50000000E-01	 0.00000000E+00	 7.00000000E+00
	 5.00000000E-01	 0.00000000E+00	 7.00000000E+00
	 7.50000000E-01	 0.00000000E+00	 7.00000000E+00
	 5.00000000E-01	 0.00000000E+00	 7.50000000E+00
	 1.00000000E+00	 7.50000000E-01	 5.00000000E-01
	 1.00000000E+00	 3.75000000E-01	 1.00000000E+00
	 1.00000000E+00	 7.50000000E-01	 1.00000000E+00
	 1.00000000E+00	 1.12500000E+00	 1.00000000E+00
	 1.00000000E+00	 7.50000000E-01	 1.50000000E+00
	 1.00000000E+00	 3.75000000E-01	 2.00000000E+00
	 1.00000000E+00	 7.50000000E-01	 2.00000000E+00
	 1.00000000E+00	 1.12500000E+00	 2.00000000E+00
	 1.00000000E+00	 7.50000000E-01	 2.50000000E+00
	 1.00000000E+00	 3.75000000E-01	 3.00000000E+00
	 1.00000000E+00	 7.50000000E-01	 3.00000000E+00
	 1.00000000E+00	 1.12500000E+00	 3.00000000E+00
	 1.00000000E+00	 7.50000000E-01	 3.50000000E+00
	 1.00000000E+00	 3.75000000E-01	 4.00000000E+00
	 1.00000000E+00	 7.50000000E-01	 4.00000000E+00
	 1.00000000E+00	 1.12500000E+00	 4.00000000E+00
	 1.00000000E+00	 7.50000000E-01	 4.50000000E+00
	 1.00000000E+00	 3.75000000E-01	 5.00000000E+00
	 1.00000000E+00	 7.50000000E-01	 5.00000000E+00
	 1.00000000E+00	 1.12500000E+00	 5.00000000E+00
	 1.00000000E+00	 7.50000000E-01	 5.50000000E+00
	 1.00000000E+00	 3.75000000E-01	 6.00000000E+00
	 1.00000000E+00	 7.50000000E-01	 6.00000000E+00
	 1.00000000E+00	 1.12500000E+00	 6.00000000E+00
	 1.00000000E+00	 7.50000000E-01	 6.50000000E+00
	 1.00000000E+00	 3.75000000E-01	 7.00000000E+00
	 1.00000000E+00	 7.50000000E-01	 7.00000000E+00
	 1.00000000E+00	 1.12500000E+00	 7.00000000E+00
	 1.00000000E+00	 7.50000000E-01	 7.50000000E+00
	 5.00000000E-01	 1.50000000E+00	 5.00000000E-01
	 7.50000000E-01	 1.50000000E+00	 1.00000000E+00
	 5.00000000E-01	 1.50000000E+00	 1.00000000E+00
	 2.50000000E-01	 1.50000000E+00	 1.00000000E+00
	 5.00000000E-01	 1.50000000E+00	 1.50000000E+00
	 7.50000000E-01	 1.50000000E+00	 2.00000000E+00
	 5.00000000E-01	 1.50000000E+00	 2.00000000E+00
	 2.50000000E-01	 1.50000000E+00	 2.00000000E+00
	 5.00000000E-01	 1.50000000E+00	 2.50000000E+00
	 7.50000000E-01	 1.50000000E+00	 3.00000000E+00
	 5.00000000E-01	 1.50000000E+00	 3.00000000E+00
	 2.50000000E-01	 1.50000000E+00	 3.00000000E+00
	 5.00000000E-01	 1.50000000E+00	 3.50000000E+00
	 7.50000000E-01	 1.50000000E+00	 4.00000000E+00
	 5.00000000E-01	 1.50000000E+00	 4.00000000E+00
	 2.50000000E-01	 1.50000000E+00	 4.00000000E+00
	 5.00000000E-01	 1.50000000E+00	 4.50000000E+00
	 7.50000000E-01	 1.50000000E+00	 5.00000000E+00
	 5.00000000E-01	 1.50000000E+00	 5.00000000E+00
	 2.50000000E-01	 1.50000000E+00	 5.00000000E+00
	 5.00000000E-01	 1.50000000E+00	 5.50000000E+00
	 7.50000000E-01	 1.50000000E+00	 6.00000000E+00
	 5.00000000E-01	 1.50000000E+00	 6.00000000E+00
	 2.50000000E-01	 1.50000000E+00	 6.00000000E+00
	 5.00000000E-01	 1.50000000E+00	 6.50000000E+00
	 7.50000000E-01	 1.50000000E+00	 7.00000000E+00
	 5.00000000E-01	 1.50000000E+00	 7.00000000E+00
	 2.50000000E-01	 1.50000000E+00	 7.00000000E+00
	 5.00000000E-01	 1.50000000E+00	 7.50000000E+00
	 0.00000000E+00	 7.50000000E-01	 5.00000000E-01
	 0.00000000E+00	 1.12500000E+00	 1.00000000E+00
	 0.00000000E+00	 7.50000000E-01	 1.00000000E+00
	 0.00000000E+00	 3.75000000E-01	 1.00000000E+00
	 0.00000000E+00	 7.50000000E-01	 1.50000000E+00
	 0.00000000E+00	 1.12500000E+00	 2.00000000E+00
	 0.00000000E+00	 7.50000000E-01	 2.00000000E+00
	 0.00000000E+00	 3.75000000E-01	 2.00000000E+00
	 0.00000000E+00	 7.50000000E-01	 2.50000000E+00
	 0.00000000E+00	 1.12500000E+00	 3.00000000E+00
	 0.00000000E+00	 7.50000000E-01	 3.00000000E+00
	 0.00000000E+00	 3.75000000E-01	 3.00000000E+00
	 0.00000000E+00	 7.50000000E-01	 3.50000000E+00
	 0.00000000E+00	 1.12500000E+00	 4.00000000E+00
	 0.00000000E+00	 7.50000000E-01	 4.00000000E+00
	 0.00000000E+00	 3.75000000E-01	 4.00000000E+00
	 0.00000000E+00	 7.50000000E-01	 4.50000000E+00
	 0.00000000E+00	 1.12500000E+00	 5.00000000E+00
	 0.00000000E+00	 7.50000000E-01	 5.00000000E+00
	 0.00000000E+00	 3.75000000E-01	 5.00000000E+00
	 0.00000000E+00	 7.50000000E-01	 5.50000000E+00
	 0.00000000E+00	 1.12500000E+00	 6.00000000E+00
	 0.00000000E+00	 7.50000000E-01	 6.00000000E+00
	 0.00000000E+00	 3.75000000E-01	 6.00000000E+00
	 0.00000000E+00	 7.50000000E-01	 6.50000000E+00
	 0.00000000E+00	 1.12500000E+00	 7.00000000E+00
	 0.00000000E+00	 7.50000000E-01	 7.00000000E+00
	 0.00000000E+00	 3.75000000E-01	 7.00000000E+00
	 0.00000000E+00	 7.50000000E-01	 7.50000000E+00
	 5.00000000E-01	 7.50000000E-01	 5.00000000E-01
	 5.00000000E-01	 3.75000000E-01	 1.00000000E+00
	 2.50000000E-01	 7.50000000E-01	 1.00000000E+00
	 5.00000000E-01	 7.50000000E-01	 1.00000000E+00
	 7.50000000E-01	 7.50000000E-01	 1.00000000E+00
	 5.00000000E-01	 1.12500000E+00	 1.00000000E+00
	 5.00000000E-01	 7.50000000E-01	 1.50000000E+00
	 5.00000000E-01	 3.75000000E-01	 2.00000000E+00
	 2.50000000E-01	 7.50000000E-01	 2.00000000E+00
	 5.00000000E-01	 7.50000000E-01	 2.00000000E+00
	 7.50000000E-01	 7.50000000E-01	 2.00000000E+00
	 5.00000000E-01	 1.12500000E+00	 2.00000000E+00
	 5.00000000E-01	 7.50000000E-01	 2.50000000E+00
	 5.00000000E-01	 3.75000000E-01	 3.00000000E+00
	 2.50000000E-01	 7.50000000E-01	 3.00000000E+00
	 5.00000000E-01	 7.50000000E-01	 3.00000000E+00
	 7.50000000E-01	 7.50000000E-01	 3.00000000E+00
	 5.00000000E-01	 1.12500000E+00	 3.00000000E+00
	 5.00000000E-01	 7.50000000E-01	 3.50000000E+00
	 5.00000000E-01	 3.75000000E-01	 4.00000000E+00
	 2.50000000E-01	 7.50000000E-01	 4.00000000E+00
	 5.00000000E-01	 7.50000000E-01	 4.00000000E+00
	 7.50000000E-01	 7.50000000E-01	 4.00000000E+00
	 5.00000000E-01	 1.12500000E+00	 4.00000000E+00
	 5.00000000E-01	 7.50000000E-01	 4.50000000E+00
	 5.00000000E-01	 3.75000000E-01	 5.00000000E+00
	 2.50000000E-01	 7.50000000E-01	 5.00000000E+00
	 5.00000000E-01	 7.50000000E-01	 5.00000000E+00
	 7.50000000E-01	 7.50000000E-01	 5.00000000E+00
	 5.00000000E-01	 1.12500000E+00	 5.00000000E+00
	 5.00000000E-01	 7.50000000E-01	 5.50000000E+00
	 5.00000000E-01	 3.75000000E-01	 6.00000000E+00
	 2.50000000E-01	 7.50000000E-01	 6.00000000E+00
	 5.00000000E-01	 7.50000000E-01	 6.00000000E+00
	 7.50000000E-01	 7.50000000E-01	 6.00000000E+00
	 5.00000000E-01	 1.12500000E+00	 6.00000000E+00
	 5.00000000E-01	 7.50000000E-01	 6.50000000E+00
	 5.00000000E-01	 3.75000000E-01	 7.00000000E+00
	 2.50000000E-01	 7.50000000E-01	 7.00000000E+00
	 5.00000000E-01	 7.50000000E-01	 7.00000000E+00
	 7.50000000E-01	 7.50000000E-01	 7.00000000E+00
	 5.00000000E-01	 1.12500000E+00	 7.00000000E+00
	 5.00000000E-01	 7.50000000E-01	 7.50000000E+00

CELLS 32 672
	20 0 9 94 18 60 104 221 191 8 92 93 19 103 219 220 192 61 102 218 189 
	20 9 1 12 94 104 33 133 221 10 11 95 92 105 132 222 219 102 32 131 218 
	20 18 94 15 3 191 221 162 78 93 96 16 17 220 223 163 190 189 218 160 77 
	20 94 12 2 15 221 133 63 162 95 13 14 96 222 134 161 223 218 131 62 160 
	20 60 104 221 191 58 108 227 195 103 219 220 192 107 225 226 196 59 106 224 193 
	20 104 33 133 221 108 35 137 227 105 132 222 219 109 136 228 225 106 34 135 224 
	20 191 221 162 78 195 227 166 80 220 223 163 190 226 229 167 194 193 224 164 79 
	20 221 133 63 162 227 137 65 166 222 134 161 223 228 138 165 229 224 135 64 164 
	20 58 108 227 195 56 112 233 199 107 225 226 196 111 231 232 200 57 110 230 197 
	20 108 35 137 227 112 37 141 233 109 136 228 225 113 140 234 231 110 36 139 230 
	20 195 227 166 80 199 233 170 82 226 229 167 194 232 235 171 198 197 230 168 81 
	20 227 137 65 166 233 141 67 170 228 138 165 229 234 142 169 235 230 139 66 168 
	20 56 112 233 199 54 116 239 203 111 231 232 200 115 237 238 204 55 114 236 201 
	20 112 37 141 233 116 39 145 239 113 140 234 231 117 144 240 237 114 38 143 236 
	20 199 233 170 82 203 239 174 84 232 235 171 198 238 241 175 202 201 236 172 83 
	20 233 141 67 170 239 145 69 174 234 142 169 235 240 146 173 241 236 143 68 172 
	20 54 116 239 203 52 120 245 207 115 237 238 204 119 243 244 208 53 118 242 205 
	20 116 39 145 239 120 41 149 245 117 144 240 237 121 148 246 243 118 40 147 242 
	20 203 239 174 84 207 245 178 86 238 241 175 202 244 247 179 206 205 242 176 85 
	20 239 145 69 174 245 149 71 178 240 146 173 241 246 150 177 247 242 147 70 176 
	20 52 120 245 207 50 124 251 211 119 243 244 208 123 249 250 212 51 122 248 209 
	20 120 41 149 245 124 43 153 251 121 148 246 243 125 152 252 249 122 42 151 248 
	20 207 245 178 86 211 251 182 88 244 247 179 206 250 253 183 210 209 248 180 87 
	20 245 149 71 178 251 153 73 182 246 150 177 247 252 154 181 253 248 151 72 180 
	20 50 124 251 211 48 128 257 215 123 249 250 212 127 255 256 216 49 126 254 213 
	20 124 43 153 251 128 45 157 257 125 152 252 249 129 156 258 255 126 44 155 254 
	20 211 251 182 88 215 257 186 90 250 253 183 210 256 259 187 214 213 254 184 89 
	20 251 153 73 182 257 157 75 186 252 154 181 253 258 158 185 259 254 155 74 184 
	20 48 128 257 215 4 21 99 30 127 255 256 216 20 97 98 31 47 130 260 217 
	20 128 45 157 257 21 5 24 99 129 156 258 255 22 23 100 97 130 46 159 260 
	20 215 257 186 90 30 99 27 7 256 259 187 214 98 101 28 29 217 260 188 91 
	20 257 157 75 186 99 24 6 27 258 158 185 259 100 25 26 101 260 159 76 188 

CELL_TYPES 32
	25
	25
	25
	25
	25
	25
	25
	25
	25
	25
	25
	25
	25
	25
	25
	25
	25
	25
	25
	25
	25
	25
	25
	25
	25
	25
	25
	25
	25
	25
	25
	25

POINT_DATA 261
FIELD E 1
	E 10 261 double
		-1.00657000E-02	-7.69796000E-03	 8.16376000E-02	-4.15172000E-03	 2.45303000E-02	 4.32870000E-03	 6.70359836E-02	-1.75203888E-02	-6.63787711E-03	 8.80322059E-02
		 1.00657000E-02	 7.69796000E-03	-8.16376000E-02	-4.15172000E-03	-2.45303000E-02	 4.32870000E-03	 6.70359836E-02	-8.80322059E-02	 6.63787711E-03	 1.75203888E-02
		 1.00657000E-02	 7.69796000E-03	-8.16376000E-02	 4.15172000E-03	 2.45303000E-02	 4.32870000E-03	 6.70359836E-02	-8.80322059E-02	 6.63787711E-03	 1.75203888E-02
		-1.00657000E-02	-7.69796000E-03	 8.16376000E-02	 4.15172000E-03	-2.45303000E-02	 4.32870000E-03	 6.70359836E-02	-1.75203888E-02	-6.63787711E-03	 8.80322059E-02
		 9.22229000E-05	 1.86205000E-04	-5.33456000E-04	 1.46185000E-05	 4.50383000E-06	-2.78731000E-05	 4.53206856E-04	-5.34732039E-04	 9.12775007E-05	 1.88426439E-04
		-9.22229000E-05	-1.86205000E-04	 5.33456000E-04	 1.46185000E-05	-4.50383000E-06	-2.78731000E-05	 4.53206856E-04	-1.88426439E-04	-9.12775007E-05	 5.34732039E-04
		-9.22229000E-05	-1.86205000E-04	 5.33456000E-04	-1.46185000E-05	 4.50383000E-06	-2.78731000E-05	 4.53206856E-04	-1.88426439E-04	-9.12775007E-05	 5.34732039E-04
		 9.22229000E-05	 1.86205000E-04	-5.33456000E-04	-1.46185000E-05	-4.50383000E-06	-2.78731000E-05	 4.53206856E-04	-5.34732039E-04	 9.12775007E-05	 1.88426439E-04
		-1.00657000E-02	-3.84881000E-03	 4.07081000E-02	-4.09828000E-03	 1.22930000E-02	-3.86176000E-03	 3.55868526E-02	-1.22091448E-02	-5.29041612E-03	 4.42931509E-02
		-1.38257000E-15	-8.99183000E-16	 9.34777000E-15	-4.04483000E-03	 1.95020000E-15	-1.20522000E-02	 1.46795175E-02	-1.27128350E-02	-1.03836574E-15	 1.27128350E-02
		 1.00657000E-02	 3.84881000E-03	-4.07081000E-02	-4.09828000E-03	-1.22930000E-02	-3.86176000E-03	 3.55868526E-02	-4.42931509E-02	 5.29041612E-03	 1.22091448E-02
		 9.90541000E-03	 7.69795000E-03	-7.96457000E-02	-1.26490000E-03	-1.19375000E-02	 1.14257000E-02	 6.20055380E-02	-8.25945156E-02	 7.35511738E-03	 1.31970582E-02
		 9.74507000E-03	 7.69794000E-03	-7.76539000E-02	 2.04914000E-16	-3.16853000E-15	 1.85228000E-02	 6.14388079E-02	-8.14174439E-02	 7.69794000E-03	 1.35086139E-02
		 9.90541000E-03	 7.69795000E-03	-7.96457000E-02	 1.26490000E-03	 1.19375000E-02	 1.14257000E-02	 6.20055380E-02	-8.25945156E-02	 7.35511738E-03	 1.31970582E-02
		 1.00657000E-02	 3.84881000E-03	-4.07081000E-02	 4.09828000E-03	 1.22930000E-02	-3.86176000E-03	 3.55868526E-02	-4.42931509E-02	 5.29041612E-03	 1.22091448E-02
		 1.83274000E-15	 1.00115000E-15	-1.09843000E-14	 4.04483000E-03	 2.13805000E-15	-1.20522000E-02	 1.46795175E-02	-1.27128350E-02	 1.07766634E-15	 1.27128350E-02
		-1.00657000E-02	-3.84881000E-03	 4.07081000E-02	 4.09828000E-03	-1.22930000E-02	-3.86176000E-03	 3.55868526E-02	-1.22091448E-02	-5.29041612E-03	 4.42931509E-02
		-9.90541000E-03	-7.69795000E-03	 7.96457000E-02	 1.26490000E-03	-1.19375000E-02	 1.14257000E-02	 6.20055380E-02	-1.31970582E-02	-7.35511738E-03	 8.25945156E-02
		-9.74507000E-03	-7.69794000E-03	 7.76539000E-02	-3.92264000E-16	-5.56575000E-16	 1.85228000E-02	 6.14388079E-02	-1.35086139E-02	-7.69794000E-03	 8.14174439E-02
		-9.90541000E-03	-7.69795000E-03	 7.96457000E-02	-1.26490000E-03	 1.19375000E-02	 1.14257000E-02	 6.20055380E-02	-1.31970582E-02	-7.35511738E-03	 8.25945156E-02
		-3.27056000E-05	 9.89534000E-05	-1.85878000E-04	 5.09923000E-05	 3.83972000E-06	 8.06701000E-05	 1.98136060E-04	-2.21415041E-04	-1.78557123E-05	 1.19640553E-04
		 2.83161000E-15	-1.34478000E-14	 4.25845000E-15	 8.73662000E-05	 2.31085000E-15	 1.89213000E-04	 2.40650264E-04	-2.08409242E-04	-1.20952239E-14	 2.08409242E-04
		 3.27056000E-05	-9.89534000E-05	 1.85878000E-04	 5.09923000E-05	-3.83972000E-06	 8.06701000E-05	 1.98136060E-04	-1.19640553E-04	 1.78557123E-05	 2.21415041E-04
		-1.38552000E-04	-4.14952000E-05	 4.90734000E-04	 1.82570000E-05	-9.76146000E-06	-2.66932000E-05	 3.93145605E-04	-1.42824244E-04	-3.85610161E-05	 4.92072060E-04
		-1.84881000E-04	 1.03215000E-04	 4.48013000E-04	 3.22006000E-15	 5.67636000E-15	-2.55132000E-05	 3.67074113E-04	-1.85907821E-04	 1.03215000E-04	 4.49039821E-04
		-1.38552000E-04	-4.14952000E-05	 4.90734000E-04	-1.82570000E-05	 9.76146000E-06	-2.66932000E-05	 3.93145605E-04	-1.42824244E-04	-3.85610161E-05	 4.92072060E-04
		 3.27056000E-05	-9.89534000E-05	 1.85878000E-04	-5.09923000E-05	 3.83972000E-06	 8.06701000E-05	 1.98136060E-04	-1.19640553E-04	 1.78557123E-05	 2.21415041E-04
		 2.38043000E-14	-7.92818000E-15	-5.15655000E-15	-8.73662000E-05	 2.86997000E-15	 1.89213000E-04	 2.40650264E-04	-2.08409242E-04	-5.25653423E-15	 2.08409242E-04
		-3.27056000E-05	 9.89534000E-05	-1.85878000E-04	-5.09923000E-05	-3.83972000E-06	 8.06701000E-05	 1.98136060E-04	-2.21415041E-04	-1.78557123E-05	 1.19640553E-04
		 1.38552000E-04	 4.14952000E-05	-4.90734000E-04	-1.82570000E-05	-9.76146000E-06	-2.66932000E-05	 3.93145605E-04	-4.92072060E-04	 3.85610161E-05	 1.42824244E-04
		 1.84881000E-04	-1.03215000E-04	-4.48013000E-04	 2.64134000E-15	-2.76596000E-15	-2.55132000E-05	 3.67074113E-04	-4.49039821E-04	-1.03215000E-04	 1.85907821E-04
		 1.38552000E-04	 4.14952000E-05	-4.90734000E-04	 1.82570000E-05	 9.76146000E-06	-2.66932000E-05	 3.93145605E-04	-4.92072060E-04	 3.85610161E-05	 1.42824244E-04
		 2.04504000E-02	 1.93206000E-02	-8.18050000E-02	-2.38966000E-03	-6.88200000E-03	 1.28840000E-04	 6.83168504E-02	-8.22712089E-02	 1.77028059E-02	 2.25344030E-02
		 2.79316000E-02	 2.76207000E-02	-8.03632000E-02	 1.08001000E-03	 4.96088000E-03	 8.31666000E-04	 7.23374708E-02	-8.05962541E-02	 2.67748539E-02	 2.90105002E-02
		 2.22928000E-02	 2.18148000E-02	-7.13322000E-02	 8.96851000E-04	 4.33763000E-04	 1.74676000E-03	 6.23012300E-02	-7.13666439E-02	 2.11311741E-02	 2.30108698E-02
		 1.83109000E-02	 1.88558000E-02	-6.31614000E-02	-7.07794000E-04	 7.76989000E-04	-7.34605000E-06	 5.45109206E-02	-6.31687601E-02	 1.78272448E-02	 1.93468154E-02
		 1.63042000E-02	 1.65288000E-02	-5.56683000E-02	-1.78011000E-04	 3.78241000E-04	 1.12735000E-03	 4.80767592E-02	-5.56879639E-02	 1.62250318E-02	 1.66276322E-02
		 1.49732000E-02	 1.46341000E-02	-4.85619000E-02	 1.22708000E-04	 7.53815000E-04	 8.66136000E-04	 4.22651925E-02	-4.85826526E-02	 1.45974336E-02	 1.50306189E-02
		 1.24544000E-02	 1.24543000E-02	-4.13600000E-02	 5.81380000E-05	 5.86130000E-04	 1.08414000E-03	 3.59045100E-02	-4.13881847E-02	 1.23980868E-02	 1.25387980E-02
		 1.03080000E-02	 1.02941000E-02	-3.43846000E-02	-4.07317000E-05	 5.18873000E-04	 7.78521000E-04	 2.98100536E-02	-3.44041952E-02	 1.02773978E-02	 1.03442974E-02
		 8.44100000E-03	 8.45215000E-03	-2.82062000E-02	-6.39060000E-06	 4.74376000E-04	 8.72624000E-04	 2.44620854E-02	-2.82331013E-02	 8.45482855E-03	 8.46522276E-03
		 6.68524000E-03	 6.63047000E-03	-2.21043000E-02	 1.17698000E-05	 4.74896000E-04	 7.72802000E-04	 1.92033848E-02	-2.21328542E-02	 6.63035851E-03	 6.71390571E-03
		 5.05378000E-03	 5.04443000E-03	-1.68076000E-02	 6.25858000E-06	 4.23451000E-04	 7.45557000E-04	 1.46047364E-02	-1.68411722E-02	 5.04132187E-03	 5.09046035E-03
		 3.47097000E-03	 3.44315000E-03	-1.14819000E-02	 2.34573000E-06	 3.82430000E-04	 6.49848000E-04	 9.99730604E-03	-1.15198399E-02	 3.44615388E-03	 3.50590597E-03
		 2.23310000E-03	 2.20499000E-03	-7.36774000E-03	 8.27386000E-06	 3.25293000E-04	 5.70459000E-04	 6.43604301E-03	-7.41244760E-03	 2.20393222E-03	 2.27886538E-03
		 9.98994000E-04	 9.64105000E-04	-3.21737000E-03	 7.34006000E-06	 2.54190000E-04	 4.52270000E-04	 2.86274784E-03	-3.28029978E-03	 9.64934126E-04	 1.06109465E-03
		 4.36088000E-04	 3.78082000E-04	-1.27976000E-03	 1.16381000E-05	 1.15398000E-04	 2.18580000E-04	 1.16077707E-03	-1.31471885E-03	 3.77833505E-04	 4.71295346E-04
		-4.36088000E-04	-3.78082000E-04	 1.27976000E-03	 1.16381000E-05	-1.15398000E-04	 2.18580000E-04	 1.16077707E-03	-4.71295346E-04	-3.77833505E-04	 1.31471885E-03
		-9.98994000E-04	-9.64105000E-04	 3.21737000E-03	 7.34006000E-06	-2.54190000E-04	 4.52270000E-04	 2.86274784E-03	-1.06109465E-03	-9.64934126E-04	 3.28029978E-03
		-2.23310000E-03	-2.20499000E-03	 7.36774000E-03	 8.27386000E-06	-3.25293000E-04	 5.70459000E-04	 6.43604301E-03	-2.27886538E-03	-2.20393222E-03	 7.41244760E-03
		-3.47097000E-03	-3.44315000E-03	 1.14819000E-02	 2.34573000E-06	-3.82430000E-04	 6.49848000E-04	 9.99730604E-03	-3.50590597E-03	-3.44615388E-03	 1.15198399E-02
		-5.05378000E-03	-5.04443000E-03	 1.68076000E-02	 6.25858000E-06	-4.23451000E-04	 7.45557000E-04	 1.46047364E-02	-5.09046035E-03	-5.04132187E-03	 1.68411722E-02
		-6.68524000E-03	-6.63047000E-03	 2.21043000E-02	 1.17698000E-05	-4.74896000E-04	 7.72802000E-04	 1.92033848E-02	-6.71390571E-03	-6.63035851E-03	 2.21328542E-02
		-8.44100000E-03	-8.45215000E-03	 2.82062000E-02	-6.39060000E-06	-4.74376000E-04	 8.72624000E-04	 2.44620854E-02	-8.46522276E-03	-8.45482855E-03	 2.82331013E-02
		-1.03080000E-02	-1.02941000E-02	 3.43846000E-02	-4.07317000E-05	-5.18873000E-04	 7.78521000E-04	 2.98100536E-02	-1.03442974E-02	-1.02773978E-02	 3.44041952E-02
		-1.24544000E-02	-1.24543000E-02	 4.13600000E-02	 5.81380000E-05	-5.86130000E-04	 1.08414000E-03	 3.59045100E-02	-1.25387980E-02	-1.23980868E-02	 4.13881847E-02
		-1.49732000E-02	-1.46341000E-02	 4.85619000E-02	 1.22708000E-04	-7.53815000E-04	 8.66136000E-04	 4.22651925E-02	-1.50306189E-02	-1.45974336E-02	 4.85826526E-02
		-1.63042000E-02	-1.65288000E-02	 5.56683000E-02	-1.78011000E-04	-3.78241000E-04	 1.12735000E-03	 4.80767592E-02	-1.66276322E-02	-1.62250318E-02	 5.56879639E-02
		-1.83109000E-02	-1.88558000E-02	 6.31614000E-02	-7.07794000E-04	-7.76989000E-04	-7.34605000E-06	 5.45109206E-02	-1.93468154E-02	-1.78272448E-02	 6.31687601E-02
		-2.22928000E-02	-2.18148000E-02	 7.13322000E-02	 8.96851000E-04	-4.33763000E-04	 1.74676000E-03	 6.23012300E-02	-2.30108698E-02	-2.11311741E-02	 7.13666439E-02
		-2.79316000E-02	-2.76207000E-02	 8.03632000E-02	 1.08001000E-03	-4.96088000E-03	 8.31666000E-04	 7.23374708E-02	-2.90105002E-02	-2.67748539E-02	 8.05962541E-02
		-2.04504000E-02	-1.93206000E-02	 8.18050000E-02	-2.38966000E-03	 6.88200000E-03	 1.28840000E-04	 6.83168504E-02	-2.25344030E-02	-1.77028059E-02	 8.22712089E-02
		 2.04504000E-02	 1.93206000E-02	-8.18050000E-02	 2.38966000E-03	 6.88200000E-03	 1.28840000E-04	 6.83168504E-02	-8.22712089E-02	 1.77028059E-02	 2.25344030E-02
		 2.79316000E-02	 2.76207000E-02	-8.03632000E-02	-1.08001000E-03	-4.96088000E-03	 8.31666000E-04	 7.23374708E-02	-8.05962541E-02	 2.67748539E-02	 2.90105002E-02
		 2.22928000E-02	 2.18148000E-02	-7.13322000E-02	-8.96851000E-04	-4.33763000E-04	 1.74676000E-03	 6.23012300E-02	-7.13666439E-02	 2.11311741E-02	 2.30108698E-02
		 1.83109000E-02	 1.88558000E-02	-6.31614000E-02	 7.07794000E-04	-7.76989000E-04	-7.34605000E-06	 5.45109206E-02	-6.31687601E-02	 1.78272448E-02	 1.93468154E-02
		 1.63042000E-02	 1.65288000E-02	-5.56683000E-02	 1.78011000E-04	-3.78241000E-04	 1.12735000E-03	 4.80767592E-02	-5.56879639E-02	 1.62250318E-02	 1.66276322E-02
		 1.49732000E-02	 1.46341000E-02	-4.85619000E-02	-1.22708000E-04	-7.53815000E-04	 8.66136000E-04	 4.22651925E-02	-4.85826526E-02	 1.45974336E-02	 1.50306189E-02
		 1.24544000E-02	 1.24543000E-02	-4.13600000E-02	-5.81380000E-05	-5.86130000E-04	 1.08414000E-03	 3.59045100E-02	-4.13881847E-02	 1.23980868E-02	 1.25387980E-02
		 1.03080000E-02	 1.02941000E-02	-3.43846000E-02	 4.07317000E-05	-5.18873000E-04	 7.78521000E-04	 2.98100536E-02	-3.44041952E-02	 1.02773978E-02	 1.03442974E-02
		 8.44100000E-03	 8.45215000E-03	-2.82062000E-02	 6.39060000E-06	-4.74376000E-04	 8.72624000E-04	 2.44620854E-02	-2.82331013E-02	 8.45482855E-03	 8.46522276E-03
		 6.68524000E-03	 6.63047000E-03	-2.21043000E-02	-1.17698000E-05	-4.74896000E-04	 7.72802000E-04	 1.92033848E-02	-2.21328542E-02	 6.63035851E-03	 6.71390571E-03
		 5.05378000E-03	 5.04443000E-03	-1.68076000E-02	-6.25858000E-06	-4.23451000E-04	 7.45557000E-04	 1.46047364E-02	-1.68411722E-02	 5.04132187E-03	 5.09046035E-03
		 3.47097000E-03	 3.44315000E-03	-1.14819000E-02	-2.34573000E-06	-3.82430000E-04	 6.49848000E-04	 9.99730604E-03	-1.15198399E-02	 3.44615388E-03	 3.50590597E-03
		 2.23310000E-03	 2.20499000E-03	-7.36774000E-03	-8.27386000E-06	-3.25293000E-04	 5.70459000E-04	 6.43604301E-03	-7.41244760E-03	 2.20393222E-03	 2.27886538E-03
		 9.98994000E-04	 9.64105000E-04	-3.21737000E-03	-7.34006000E-06	-2.54190000E-04	 4.52270000E-04	 2.86274784E-03	-3.28029978E-03	 9.64934126E-04	 1.06109465E-03
		 4.36088000E-04	 3.78082000E-04	-1.27976000E-03	-1.16381000E-05	-1.15398000E-04	 2.18580000E-04	 1.16077707E-03	-1.31471885E-03	 3.77833505E-04	 4.71295346E-04
		-2.04504000E-02	-1.93206000E-02	 8.18050000E-02	 2.38966000E-03	-6.88200000E-03	 1.28840000E-04	 6.83168504E-02	-2.25344030E-02	-1.77028059E-02	 8.22712089E-02
		-2.79316000E-02	-2.76207000E-02	 8.03632000E-02	-1.08001000E-03	 4.96088000E-03	 8.31666000E-04	 7.23374708E-02	-2.90105002E-02	-2.67748539E-02	 8.05962541E-02
		-2.22928000E-02	-2.18148000E-02	 7.13322000E-02	-8.96851000E-04	 4.33763000E-04	 1.74676000E-03	 6.23012300E-02	-2.30108698E-02	-2.11311741E-02	 7.13666439E-02
		-1.83109000E-02	-1.88558000E-02	 6.31614000E-02	 7.07794000E-04	 7.76989000E-04	-7.34605000E-06	 5.45109206E-02	-1.93468154E-02	-1.78272448E-02	 6.31687601E-02
		-1.63042000E-02	-1.65288000E-02	 5.56683000E-02	 1.78011000E-04	 3.78241000E-04	 1.12735000E-03	 4.80767592E-02	-1.66276322E-02	-1.62250318E-02	 5.56879639E-02
		-1.49732000E-02	-1.46341000E-02	 4.85619000E-02	-1.22708000E-04	 7.53815000E-04	 8.66136000E-04	 4.22651925E-02	-1.50306189E-02	-1.45974336E-02	 4.85826526E-02
		-1.24544000E-02	-1.24543000E-02	 4.13600000E-02	-5.81380000E-05	 5.86130000E-04	 1.08414000E-03	 3.59045100E-02	-1.25387980E-02	-1.23980868E-02	 4.13881847E-02
		-1.03080000E-02	-1.02941000E-02	 3.43846000E-02	 4.07317000E-05	 5.18873000E-04	 7.78521000E-04	 2.98100536E-02	-1.03442974E-02	-1.02773978E-02	 3.44041952E-02
		-8.44100000E-03	-8.45215000E-03	 2.82062000E-02	 6.39060000E-06	 4.74376000E-04	 8.72624000E-04	 2.44620854E-02	-8.46522276E-03	-8.45482855E-03	 2.82331013E-02
		-6.68524000E-03	-6.63047000E-03	 2.21043000E-02	-1.17698000E-05	 4.74896000E-04	 7.72802000E-04	 1.92033848E-02	-6.71390571E-03	-6.63035851E-03	 2.21328542E-02
		-5.05378000E-03	-5.04443000E-03	 1.68076000E-02	-6.25858000E-06	 4.23451000E-04	 7.45557000E-04	 1.46047364E-02	-5.09046035E-03	-5.04132187E-03	 1.68411722E-02