<?xml version="1.0"?>
<VTKFile type="UnstructuredGrid" version="0.1" byte_order="LittleEndian">
	<UnstructuredGrid>
		<Piece NumberOfPoints="261" NumberOfCells="32">
			<Points>
				<DataArray type="Float64" NumberOfComponents="3" format="ascii">
					 0.00000000E+00	 0.00000000E+00	 0.00000000E+00
					 1.00000000E+00	 0.00000000E+00	 0.00000000E+00
					 1.00000000E+00	 1.00000000E+00	 0.00000000E+00
					 0.00000000E+00	 1.00000000E+00	 0.00000000E+00
					 0.00000000E+00	 0.00000000E+00	 8.00000000E+00
					 1.00000000E+00	 0.00000000E+00	 8.00000000E+00
					 1.00000000E+00	 1.00000000E+00	 8.00000000E+00
					 0.00000000E+00	 1.00000000E+00	 8.00000000E+00
					 2.50000000E-01	 0.00000000E+00	 0.00000000E+00
					 5.00000000E-01	 0.00000000E+00	 0.00000000E+00
					 7.50000000E-01	 0.00000000E+00	 0.00000000E+00
					 1.00000000E+00	 2.50000000E-01	 0.00000000E+00
					 1.00000000E+00	 5.00000000E-01	 0.00000000E+00
					 1.00000000E+00	 7.50000000E-01	 0.00000000E+00
					 7.50000000E-01	 1.00000000E+00	 0.00000000E+00
					 5.00000000E-01	 1.00000000E+00	 0.00000000E+00
					 2.50000000E-01	 1.00000000E+00	 0.00000000E+00
					 0.00000000E+00	 7.50000000E-01	 0.00000000E+00
					 0.00000000E+00	 5.00000000E-01	 0.00000000E+00
					 0.00000000E+00	 2.50000000E-01	 0.00000000E+00
					 2.50000000E-01	 0.00000000E+00	 8.00000000E+00
					 5.00000000E-01	 0.00000000E+00	 8.00000000E+00
					 7.50000000E-01	 0.00000000E+00	 8.00000000E+00
					 1.00000000E+00	 2.50000000E-01	 8.00000000E+00
					 1.00000000E+00	 5.00000000E-01	 8.00000000E+00
					 1.00000000E+00	 7.50000000E-01	 8.00000000E+00
					 7.50000000E-01	 1.00000000E+00	 8.00000000E+00
					 5.00000000E-01	 1.00000000E+00	 8.00000000E+00
					 2.50000000E-01	 1.00000000E+00	 8.00000000E+00
					 0.00000000E+00	 7.50000000E-01	 8.00000000E+00
					 0.00000000E+00	 5.00000000E-01	 8.00000000E+00
					 0.00000000E+00	 2.50000000E-01	 8.00000000E+00
					 1.00000000E+00	 0.00000000E+00	 5.00000000E-01
					 1.00000000E+00	 0.00000000E+00	 1.00000000E+00
					 1.00000000E+00	 0.00000000E+00	 1.50000000E+00
					 1.00000000E+00	 0.00000000E+00	 2.00000000E+00
					 1.00000000E+00	 0.00000000E+00	 2.50000000E+00
					 1.00000000E+00	 0.00000000E+00	 3.00000000E+00
					 1.00000000E+00	 0.00000000E+00	 3.50000000E+00
					 1.00000000E+00	 0.00000000E+00	 4.00000000E+00
					 1.00000000E+00	 0.00000000E+00	 4.50000000E+00
					 1.00000000E+00	 0.00000000E+00	 5.00000000E+00
					 1.00000000E+00	 0.00000000E+00	 5.50000000E+00
					 1.00000000E+00	 0.00000000E+00	 6.00000000E+00
					 1.00000000E+00	 0.00000000E+00	 6.50000000E+00
					 1.00000000E+00	 0.00000000E+00	 7.00000000E+00
					 1.00000000E+00	 0.00000000E+00	 7.50000000E+00
					 0.00000000E+00	 0.00000000E+00	 7.50000000E+00
					 0.00000000E+00	 0.00000000E+00	 7.00000000E+00
					 0.00000000E+00	 0.00000000E+00	 6.50000000E+00
					 0.00000000E+00	 0.00000000E+00	 6.00000000E+00
					 0.00000000E+00	 0.00000000E+00	 5.50000000E+00
					 0.00000000E+00	 0.00000000E+00	 5.00000000E+00
					 0.00000000E+00	 0.00000000E+00	 4.50000000E+00
					 0.00000000E+00	 0.00000000E+00	 4.00000000E+00
					 0.00000000E+00	 0.00000000E+00	 3.50000000E+00
					 0.00000000E+00	 0.00000000E+00	 3.00000000E+00
					 0.00000000E+00	 0.00000000E+00	 2.50000000E+00
					 0.00000000E+00	 0.00000000E+00	 2.00000000E+00
					 0.00000000E+00	 0.00000000E+00	 1.50000000E+00
					 0.00000000E+00	 0.00000000E+00	 1.00000000E+00
					 0.00000000E+00	 0.00000000E+00	 5.00000000E-01
					 1.00000000E+00	 1.00000000E+00	 5.00000000E-01
					 1.00000000E+00	 1.00000000E+00	 1.00000000E+00
					 1.00000000E+00	 1.00000000E+00	 1.50000000E+00
					 1.00000000E+00	 1.00000000E+00	 2.00000000E+00
					 1.00000000E+00	 1.00000000E+00	 2.50000000E+00
					 1.00000000E+00	 1.00000000E+00	 3.00000000E+00
					 1.00000000E+00	 1.00000000E+00	 3.50000000E+00
					 1.00000000E+00	 1.00000000E+00	 4.00000000E+00
					 1.00000000E+00	 1.00000000E+00	 4.50000000E+00
					 1.00000000E+00	 1.00000000E+00	 5.00000000E+00
					 1.00000000E+00	 1.00000000E+00	 5.50000000E+00
					 1.00000000E+00	 1.00000000E+00	 6.00000000E+00
					 1.00000000E+00	 1.00000000E+00	 6.50000000E+00
					 1.00000000E+00	 1.00000000E+00	 7.00000000E+00
					 1.00000000E+00	 1.00000000E+00	 7.50000000E+00
					 0.00000000E+00	 1.00000000E+00	 5.00000000E-01
					 0.00000000E+00	 1.00000000E+00	 1.00000000E+00
					 0.00000000E+00	 1.00000000E+00	 1.50000000E+00
					 0.00000000E+00	 1.00000000E+00	 2.00000000E+00
					 0.00000000E+00	 1.00000000E+00	 2.50000000E+00
					 0.00000000E+00	 1.00000000E+00	 3.00000000E+00
					 0.00000000E+00	 1.00000000E+00	 3.50000000E+00
					 0.00000000E+00	 1.00000000E+00	 4.00000000E+00
					 0.00000000E+00	 1.00000000E+00	 4.50000000E+00
					 0.00000000E+00	 1.00000000E+00	 5.00000000E+00
					 0.00000000E+00	 1.00000000E+00	 5.50000000E+00
					 0.00000000E+00	 1.00000000E+00	 6.00000000E+00
					 0.00000000E+00	 1.00000000E+00	 6.50000000E+00
					 0.00000000E+00	 1.00000000E+00	 7.00000000E+00
					 0.00000000E+00	 1.00000000E+00	 7.50000000E+00
					 5.00000000E-01	 2.50000000E-01	 0.00000000E+00
					 2.50000000E-01	 5.00000000E-01	 0.00000000E+00
					 5.00000000E-01	 5.00000000E-01	 0.00000000E+00
					 7.50000000E-01	 5.00000000E-01	 0.00000000E+00
					 5.00000000E-01	 7.50000000E-01	 0.00000000E+00
					 5.00000000E-01	 2.50000000E-01	 8.00000000E+00
					 2.50000000E-01	 5.00000000E-01	 8.00000000E+00
					 5.00000000E-01	 5.00000000E-01	 8.00000000E+00
					 7.50000000E-01	 5.00000000E-01	 8.00000000E+00
					 5.00000000E-01	 7.50000000E-01	 8.00000000E+00
					 5.00000000E-01	 0.00000000E+00	 5.00000000E-01
					 2.50000000E-01	 0.00000000E+00	 1.00000000E+00
					 5.00000000E-01	 0.00000000E+00	 1.00000000E+00
					 7.50000000E-01	 0.00000000E+00	 1.00000000E+00
					 5.00000000E-01	 0.00000000E+00	 1.50000000E+00
					 2.50000000E-01	 0.00000000E+00	 2.00000000E+00
					 5.00000000E-01	 0.00000000E+00	 2.00000000E+00
					 7.50000000E-01	 0.00000000E+00	 2.00000000E+00
					 5.00000000E-01	 0.00000000E+00	 2.50000000E+00
					 2.50000000E-01	 0.00000000E+00	 3.00000000E+00
					 5.00000000E-01	 0.00000000E+00	 3.00000000E+00
					 7.50000000E-01	 0.00000000E+00	 3.00000000E+00
					 5.00000000E-01	 0.00000000E+00	 3.50000000E+00
					 2.50000000E-01	 0.00000000E+00	 4.00000000E+00
					 5.00000000E-01	 0.00000000E+00	 4.00000000E+00
					 7.50000000E-01	 0.00000000E+00	 4.00000000E+00
					 5.00000000E-01	 0.00000000E+00	 4.50000000E+00
					 2.50000000E-01	 0.00000000E+00	 5.00000000E+00
					 5.00000000E-01	 0.00000000E+00	 5.00000000E+00
					 7.50000000E-01	 0.00000000E+00	 5.00000000E+00
					 5.00000000E-01	 0.00000000E+00	 5.50000000E+00
					 2.50000000E-01	 0.00000000E+00	 6.00000000E+00
					 5.00000000E-01	 0.00000000E+00	 6.00000000E+00
					 7.50000000E-01	 0.00000000E+00	 6.00000000E+00
					 5.00000000E-01	 0.00000000E+00	 6.50000000E+00
					 2.50000000E-01	 0.00000000E+00	 7.00000000E+00
					 5.00000000E-01	 0.00000000E+00	 7.00000000E+00
					 7.50000000E-01	 0.00000000E+00	 7.00000000E+00
					 5.00000000E-01	 0.00000000E+00	 7.50000000E+00
					 1.00000000E+00	 5.00000000E-01	 5.00000000E-01
					 1.00000000E+00	 2.50000000E-01	 1.00000000E+00
					 1.00000000E+00	 5.00000000E-01	 1.00000000E+00
					 1.00000000E+00	 7.50000000E-01	 1.00000000E+00
					 1.00000000E+00	 5.00000000E-01	 1.50000000E+00
					 1.00000000E+00	 2.50000000E-01	 2.00000000E+00
					 1.00000000E+00	 5.00000000E-01	 2.00000000E+00
					 1.00000000E+00	 7.50000000E-01	 2.00000000E+00
					 1.00000000E+00	 5.00000000E-01	 2.50000000E+00
					 1.00000000E+00	 2.50000000E-01	 3.00000000E+00
					 1.00000000E+00	 5.00000000E-01	 3.00000000E+00
					 1.00000000E+00	 7.50000000E-01	 3.00000000E+00
					 1.00000000E+00	 5.00000000E-01	 3.50000000E+00
					 1.00000000E+00	 2.50000000E-01	 4.00000000E+00
					 1.00000000E+00	 5.00000000E-01	 4.00000000E+00
					 1.00000000E+00	 7.50000000E-01	 4.00000000E+00
					 1.00000000E+00	 5.00000000E-01	 4.50000000E+00
					 1.00000000E+00	 2.50000000E-01	 5.00000000E+00
					 1.00000000E+00	 5.00000000E-01	 5.00000000E+00
					 1.00000000E+00	 7.50000000E-01	 5.00000000E+00
					 1.00000000E+00	 5.00000000E-01	 5.50000000E+00
					 1.00000000E+00	 2.50000000E-01	 6.00000000E+00
					 1.00000000E+00	 5.00000000E-01	 6.00000000E+00
					 1.00000000E+00	 7.50000000E-01	 6.00000000E+00
					 1.00000000E+00	 5.00000000E-01	 6.50000000E+00
					 1.00000000E+00	 2.50000000E-01	 7.00000000E+00
					 1.00000000E+00	 5.00000000E-01	 7.00000000E+00
					 1.00000000E+00	 7.50000000E-01	 7.00000000E+00
					 1.00000000E+00	 5.00000000E-01	 7.50000000E+00
					 5.00000000E-01	 1.00000000E+00	 5.00000000E-01
					 7.50000000E-01	 1.00000000E+00	 1.00000000E+00
					 5.00000000E-01	 1.00000000E+00	 1.00000000E+00
					 2.50000000E-01	 1.00000000E+00	 1.00000000E+00
					 5.00000000E-01	 1.00000000E+00	 1.50000000E+00
					 7.50000000E-01	 1.00000000E+00	 2.00000000E+00
					 5.00000000E-01	 1.00000000E+00	 2.00000000E+00
					 2.50000000E-01	 1.00000000E+00	 2.00000000E+00
					 5.00000000E-01	 1.00000000E+00	 2.50000000E+00
					 7.50000000E-01	 1.00000000E+00	 3.00000000E+00
					 5.00000000E-01	 1.00000000E+00	 3.00000000E+00
					 2.50000000E-01	 1.00000000E+00	 3.00000000E+00
					 5.00000000E-01	 1.00000000E+00	 3.50000000E+00
					 7.50000000E-01	 1.00000000E+00	 4.00000000E+00
					 5.00000000E-01	 1.00000000E+00	 4.00000000E+00
					 2.50000000E-01	 1.00000000E+00	 4.00000000E+00
					 5.00000000E-01	 1.00000000E+00	 4.50000000E+00
					 7.50000000E-01	 1.00000000E+00	 5.00000000E+00
					 5.00000000E-01	 1.00000000E+00	 5.00000000E+00
					 2.50000000E-01	 1.00000000E+00	 5.00000000E+00
					 5.00000000E-01	 1.00000000E+00	 5.50000000E+00
					 7.50000000E-01	 1.00000000E+00	 6.00000000E+00
					 5.00000000E-01	 1.00000000E+00	 6.00000000E+00
					 2.50000000E-01	 1.00000000E+00	 6.00000000E+00
					 5.00000000E-01	 1.00000000E+00	 6.50000000E+00
					 7.50000000E-01	 1.00000000E+00	 7.00000000E+00
					 5.00000000E-01	 1.00000000E+00	 7.00000000E+00
					 2.50000000E-01	 1.00000000E+00	 7.00000000E+00
					 5.00000000E-01	 1.00000000E+00	 7.50000000E+00
					 0.00000000E+00	 5.00000000E-01	 5.00000000E-01
					 0.00000000E+00	 7.50000000E-01	 1.00000000E+00
					 0.00000000E+00	 5.00000000E-01	 1.00000000E+00
					 0.00000000E+00	 2.50000000E-01	 1.00000000E+00
					 0.00000000E+00	 5.00000000E-01	 1.50000000E+00
					 0.00000000E+00	 7.50000000E-01	 2.00000000E+00
					 0.00000000E+00	 5.00000000E-01	 2.00000000E+00
					 0.00000000E+00	 2.50000000E-01	 2.00000000E+00
					 0.00000000E+00	 5.00000000E-01	 2.50000000E+00
					 0.00000000E+00	 7.50000000E-01	 3.00000000E+00
					 0.00000000E+00	 5.00000000E-01	 3.00000000E+00
					 0.00000000E+00	 2.50000000E-01	 3.00000000E+00
					 0.00000000E+00	 5.00000000E-01	 3.50000000E+00
					 0.00000000E+00	 7.50000000E-01	 4.00000000E+00
					 0.00000000E+00	 5.00000000E-01	 4.00000000E+00
					 0.00000000E+00	 2.50000000E-01	 4.00000000E+00
					 0.00000000E+00	 5.00000000E-01	 4.50000000E+00
					 0.00000000E+00	 7.50000000E-01	 5.00000000E+00
					 0.00000000E+00	 5.00000000E-01	 5.00000000E+00
					 0.00000000E+00	 2.50000000E-01	 5.00000000E+00
					 0.00000000E+00	 5.00000000E-01	 5.50000000E+00
					 0.00000000E+00	 7.50000000E-01	 6.00000000E+00
					 0.00000000E+00	 5.00000000E-01	 6.00000000E+00
					 0.00000000E+00	 2.50000000E-01	 6.00000000E+00
					 0.00000000E+00	 5.00000000E-01	 6.50000000E+00
					 0.00000000E+00	 7.50000000E-01	 7.00000000E+00
					 0.00000000E+00	 5.00000000E-01	 7.00000000E+00
					 0.00000000E+00	 2.50000000E-01	 7.00000000E+00
					 0.00000000E+00	 5.00000000E-01	 7.50000000E+00
					 5.00000000E-01	 5.00000000E-01	 5.00000000E-01
					 5.00000000E-01	 2.50000000E-01	 1.00000000E+00
					 2.50000000E-01	 5.00000000E-01	 1.00000000E+00
					 5.00000000E-01	 5.00000000E-01	 1.00000000E+00
					 7.50000000E-01	 5.00000000E-01	 1.00000000E+00
					 5.00000000E-01	 7.50000000E-01	 1.00000000E+00
					 5.00000000E-01	 5.00000000E-01	 1.50000000E+00
					 5.00000000E-01	 2.50000000E-01	 2.00000000E+00
					 2.50000000E-01	 5.00000000E-01	 2.00000000E+00
					 5.00000000E-01	 5.00000000E-01	 2.00000000E+00
					 7.50000000E-01	 5.00000000E-01	 2.00000000E+00
					 5.00000000E-01	 7.50000000E-01	 2.00000000E+00
					 5.00000000E-01	 5.00000000E-01	 2.50000000E+00
					 5.00000000E-01	 2.50000000E-01	 3.00000000E+00
					 2.50000000E-01	 5.00000000E-01	 3.00000000E+00
					 5.00000000E-01	 5.00000000E-01	 3.00000000E+00
					 7.50000000E-01	 5.00000000E-01	 3.00000000E+00
					 5.00000000E-01	 7.50000000E-01	 3.00000000E+00
					 5.00000000E-01	 5.00000000E-01	 3.50000000E+00
					 5.00000000E-01	 2.50000000E-01	 4.00000000E+00
					 2.50000000E-01	 5.00000000E-01	 4.00000000E+00
					 5.00000000E-01	 5.00000000E-01	 4.00000000E+00
					 7.50000000E-01	 5.00000000E-01	 4.00000000E+00
					 5.00000000E-01	 7.50000000E-01	 4.00000000E+00
					 5.00000000E-01	 5.00000000E-01	 4.50000000E+00
					 5.00000000E-01	 2.50000000E-01	 5.00000000E+00
					 2.50000000E-01	 5.00000000E-01	 5.00000000E+00
					 5.00000000E-01	 5.00000000E-01	 5.00000000E+00
					 7.50000000E-01	 5.00000000E-01	 5.00000000E+00
					 5.00000000E-01	 7.50000000E-01	 5.00000000E+00
					 5.00000000E-01	 5.00000000E-01	 5.50000000E+00
					 5.00000000E-01	 2.50000000E-01	 6.00000000E+00
					 2.50000000E-01	 5.00000000E-01	 6.00000000E+00
					 5.00000000E-01	 5.00000000E-01	 6.00000000E+00
					 7.50000000E-01	 5.00000000E-01	 6.00000000E+00
					 5.00000000E-01	 7.50000000E-01	 6.00000000E+00
					 5.00000000E-01	 5.00000000E-01	 6.50000000E+00
					 5.00000000E-01	 2.50000000E-01	 7.00000000E+00
					 2.50000000E-01	 5.00000000E-01	 7.00000000E+00
					 5.00000000E-01	 5.00000000E-01	 7.00000000E+00
					 7.50000000E-01	 5.00000000E-01	 7.00000000E+00
					 5.00000000E-01	 7.50000000E-01	 7.00000000E+00
					 5.00000000E-01	 5.00000000E-01	 7.50000000E+00
				</DataArray>
			</Points>
			<Cells>
				<DataArray type="Int32" Name="connectivity" format="ascii">
					0 9 94 18 60 104 221 191 8 92 93 19 103 219 220 192 61 102 218 189 9 1 12 94 104 33 133 221 10 11 95 92 105 132 222 219 102 32 131 218 18 94 15 3 191 221 162 78 93 96 16 17 220 223 163 190 189 218 160 77 94 12 2 15 221 133 63 162 95 13 14 96 222 134 161 223 218 131 62 160 60 104 221 191 58 108 227 195 103 219 220 192 107 225 226 196 59 106 224 193 104 33 133 221 108 35 137 227 105 132 222 219 109 136 228 225 106 34 135 224 191 221 162 78 195 227 166 80 220 223 163 190 226 229 167 194 193 224 164 79 221 133 63 162 227 137 65 166 222 134 161 223 228 138 165 229 224 135 64 164 58 108 227 195 56 112 233 199 107 225 226 196 111 231 232 200 57 110 230 197 108 35 137 227 112 37 141 233 109 136 228 225 113 140 234 231 110 36 139 230 195 227 166 80 199 233 170 82 226 229 167 194 232 235 171 198 197 230 168 81 227 137 65 166 233 141 67 170 228 138 165 229 234 142 169 235 230 139 66 168 56 112 233 199 54 116 239 203 111 231 232 200 115 237 238 204 55 114 236 201 112 37 141 233 116 39 145 239 113 140 234 231 117 144 240 237 114 38 143 236 199 233 170 82 203 239 174 84 232 235 171 198 238 241 175 202 201 236 172 83 233 141 67 170 239 145 69 174 234 142 169 235 240 146 173 241 236 143 68 172 54 116 239 203 52 120 245 207 115 237 238 204 119 243 244 208 53 118 242 205 116 39 145 239 120 41 149 245 117 144 240 237 121 148 246 243 118 40 147 242 203 239 174 84 207 245 178 86 238 241 175 202 244 247 179 206 205 242 176 85 239 145 69 174 245 149 71 178 240 146 173 241 246 150 177 247 242 147 70 176 52 120 245 207 50 124 251 211 119 243 244 208 123 249 250 212 51 122 248 209 120 41 149 245 124 43 153 251 121 148 246 243 125 152 252 249 122 42 151 248 207 245 178 86 211 251 182 88 244 247 179 206 250 253 183 210 209 248 180 87 245 149 71 178 251 153 73 182 246 150 177 247 252 154 181 253 248 151 72 180 50 124 251 211 48 128 257 215 123 249 250 212 127 255 256 216 49 126 254 213 124 43 153 251 128 45 157 257 125 152 252 249 129 156 258 255 126 44 155 254 211 251 182 88 215 257 186 90 250 253 183 210 256 259 187 214 213 254 184 89 251 153 73 182 257 157 75 186 252 154 181 253 258 158 185 259 254 155 74 184 48 128 257 215 4 21 99 30 127 255 256 216 20 97 98 31 47 130 260 217 128 45 157 257 21 5 24 99 129 156 258 255 22 23 100 97 130 46 159 260 215 257 186 90 30 99 27 7 256 259 187 214 98 101 28 29 217 260 188 91 257 157 75 186 99 24 6 27 258 158 185 259 100 25 26 101 260 159 76 188 
				</DataArray>
				<DataArray type="Int32" Name="offsets" format="ascii">
					20 40 60 80 100 120 140 160 180 200 220 240 260 280 300 320 340 360 380 400 420 440 460 480 500 520 540 560 580 600 620 640 
				</DataArray>
				<DataArray type="UInt8" Name="types" format="ascii">
					25 25 25 25 25 25 25 25 25 25 25 25 25 25 25 25 25 25 25 25 25 25 25 25 25 25 25 25 25 25 25 25 
				</DataArray>
			</Cells>
			<PointData>
				<DataArray type="Float32" Name="RAND" NumberOfComponents="3" ComponentName0="x" ComponentName1="y" ComponentName2="z" format="ascii">
					 0.00000000E+00	 0.00000000E+00	 0.00000000E+00
					 0.00000000E+00	 0.00000000E+00	 0.00000000E+00
					 0.00000000E+00	 0.00000000E+00	 0.00000000E+00
					 0.00000000E+00	 0.00000000E+00	 0.00000000E+00
					-5.67344000E-02	-5.67344000E-02	 5.67344000E-02
					 5.82067000E-02	-5.82067000E-02	 5.82067000E-02
					 5.67644000E-02	 5.67644000E-02	 5.67644000E-02
					 7.66906000E-03	-7.66906000E-03	-7.66906000E-03
					 0.00000000E+00	 0.00000000E+00	 0.00000000E+00
					 0.00000000E+00	 0.00000000E+00	 0.00000000E+00
					 0.00000000E+00	 0.00000000E+00	 0.00000000E+00
					 0.00000000E+00	 0.00000000E+00	 0.00000000E+00
					 0.00000000E+00	 0.00000000E+00	 0.00000000E+00
					 0.00000000E+00	 0.00000000E+00	 0.00000000E+00
					 0.00000000E+00	 0.00000000E+00	 0.00000000E+00
					 0.00000000E+00	 0.00000000E+00	 0.00000000E+00
					 0.00000000E+00	 0.00000000E+00	 0.00000000E+00
					 0.00000000E+00	 0.00000000E+00	 0.00000000E+00
					 0.00000000E+00	 0.00000000E+00	 0.00000000E+00
					 0.00000000E+00	 0.00000000E+00	 0.00000000E+00
					 0.00000000E+00	-7.30914000E-02	 7.30914000E-02
					 0.00000000E+00	-7.46531000E-02	 7.46531000E-02
					 0.00000000E+00	-7.40345000E-02	 7.40345000E-02
					 7.40437000E-02	 0.00000000E+00	 7.40437000E-02
					 7.46721000E-02	 0.00000000E+00	 7.46721000E-02
					 7.31198000E-02	 0.00000000E+00	 7.31198000E-02
					 0.00000000E+00	 7.20994000E-02	 7.20994000E-02
					 0.00000000E+00	 7.25958000E-02	 7.25958000E-02
					 0.00000000E+00	 7.09687000E-02	 7.09687000E-02
					-7.09588000E-02	 0.00000000E+00	 7.09588000E-02
					-7.25759000E-02	 0.00000000E+00	 7.25759000E-02
					-6.98824000E-02	 0.00000000E+00	 6.98824000E-02
					-7.69088000E-02	 7.69088000E-02	-0.00000000E+00
					-6.30524000E-02	 6.30524000E-02	-0.00000000E+00
					-3.29867000E-02	 3.29867000E-02	-0.00000000E+00
					 5.98452000E-03	-5.98452000E-03	 0.00000000E+00
					 4.14883000E-02	-4.14883000E-02	 0.00000000E+00
					 6.09600000E-02	-6.09600000E-02	 0.00000000E+00
					 5.71234000E-02	-5.71234000E-02	 0.00000000E+00
					 3.14141000E-02	-3.14141000E-02	 0.00000000E+00
					-6.24902000E-03	 6.24902000E-03	-0.00000000E+00
					-4.12393000E-02	 4.12393000E-02	-0.00000000E+00
					-5.99583000E-02	 5.99583000E-02	-0.00000000E+00
					-5.51823000E-02	 5.51823000E-02	-0.00000000E+00
					-2.87909000E-02	 2.87909000E-02	-0.00000000E+00
					 9.34661000E-03	-9.34661000E-03	 0.00000000E+00
					 4.58834000E-02	-4.58834000E-02	 0.00000000E+00
					-4.35711000E-02	-4.35711000E-02	 0.00000000E+00
					-7.19830000E-03	-7.19830000E-03	 0.00000000E+00
					 3.05968000E-02	 3.05968000E-02	-0.00000000E+00
					 5.65689000E-02	 5.65689000E-02	-0.00000000E+00
					 6.09440000E-02	 6.09440000E-02	-0.00000000E+00
					 4.18996000E-02	 4.18996000E-02	-0.00000000E+00
					 6.67449000E-03	 6.67449000E-03	-0.00000000E+00
					-3.11449000E-02	-3.11449000E-02	 0.00000000E+00
					-5.69537000E-02	-5.69537000E-02	 0.00000000E+00
					-6.08527000E-02	-6.08527000E-02	 0.00000000E+00
					-4.14204000E-02	-4.14204000E-02	 0.00000000E+00
					-5.94164000E-03	-5.94164000E-03	 0.00000000E+00
					 3.30135000E-02	 3.30135000E-02	-0.00000000E+00
					 6.30690000E-02	 6.30690000E-02	-0.00000000E+00
					 7.69188000E-02	 7.69188000E-02	-0.00000000E+00
					-7.69187000E-02	-7.69187000E-02	-0.00000000E+00
					-6.30688000E-02	-6.30688000E-02	-0.00000000E+00
					-3.30132000E-02	-3.30132000E-02	-0.00000000E+00
					 5.94213000E-03	 5.94213000E-03	 0.00000000E+00
					 4.14212000E-02	 4.14212000E-02	 0.00000000E+00
					 6.08540000E-02	 6.08540000E-02	 0.00000000E+00
					 5.69556000E-02	 5.69556000E-02	 0.00000000E+00
					 3.11480000E-02	 3.11480000E-02	 0.00000000E+00
					-6.66952000E-03	-6.66952000E-03	-0.00000000E+00
					-4.18916000E-02	-4.18916000E-02	-0.00000000E+00
					-6.09316000E-02	-6.09316000E-02	-0.00000000E+00
					-5.65507000E-02	-5.65507000E-02	-0.00000000E+00
					-3.05717000E-02	-3.05717000E-02	-0.00000000E+00
					 7.22988000E-03	 7.22988000E-03	 0.00000000E+00
					 4.36071000E-02	 4.36071000E-02	 0.00000000E+00
					 7.69288000E-02	-7.69288000E-02	-0.00000000E+00
					 6.30854000E-02	-6.30854000E-02	-0.00000000E+00
					 3.30402000E-02	-3.30402000E-02	-0.00000000E+00
					-5.89890000E-03	 5.89890000E-03	 0.00000000E+00
					-4.13523000E-02	 4.13523000E-02	 0.00000000E+00
					-6.07441000E-02	 6.07441000E-02	 0.00000000E+00
					-5.67789000E-02	 5.67789000E-02	 0.00000000E+00
					-3.08613000E-02	 3.08613000E-02	 0.00000000E+00
					 7.13454000E-03	-7.13454000E-03	-0.00000000E+00
					 4.26320000E-02	-4.26320000E-02	-0.00000000E+00
					 6.20625000E-02	-6.20625000E-02	-0.00000000E+00
					 5.81715000E-02	-5.81715000E-02	-0.00000000E+00
					 3.27133000E-02	-3.27133000E-02	-0.00000000E+00
					-4.65469000E-03	 4.65469000E-03	 0.00000000E+00
					 2.89235000E-02	-2.89235000E-02	-0.00000000E+00
					 0.00000000E+00	 0.00000000E+00	 0.00000000E+00
					 0.00000000E+00	 0.00000000E+00	 0.00000000E+00
					 0.00000000E+00	 0.00000000E+00	 0.00000000E+00
					 0.00000000E+00	 0.00000000E+00	 0.00000000E+00
					 0.00000000E+00	 0.00000000E+00	 0.00000000E+00
					 0.00000000E+00	 0.00000000E+00	 1.09583000E-01
					 0.00000000E+00	 0.00000000E+00	 1.08047000E-01
					 0.00000000E+00	 0.00000000E+00	 1.10436000E-01
					 0.00000000E+00	 0.00000000E+00	 1.09597000E-01
					 0.00000000E+00	 0.00000000E+00	 1.04768000E-01
					-0.00000000E+00	 1.15152000E-01	-0.00000000E+00
					-0.00000000E+00	 9.30819000E-02	-0.00000000E+00
					-0.00000000E+00	 9.44112000E-02	-0.00000000E+00
					-0.00000000E+00	 9.30697000E-02	-0.00000000E+00
					-0.00000000E+00	 4.94043000E-02	-0.00000000E+00
					 0.00000000E+00	-8.78874000E-03	 0.00000000E+00
					 0.00000000E+00	-8.93202000E-03	 0.00000000E+00
					 0.00000000E+00	-8.82045000E-03	 0.00000000E+00
					 0.00000000E+00	-6.20703000E-02	 0.00000000E+00
					 0.00000000E+00	-8.98626000E-02	 0.00000000E+00
					 0.00000000E+00	-9.11943000E-02	 0.00000000E+00
					 0.00000000E+00	-8.99419000E-02	 0.00000000E+00
					 0.00000000E+00	-8.54035000E-02	 0.00000000E+00
					 0.00000000E+00	-4.60739000E-02	 0.00000000E+00
					 0.00000000E+00	-4.68378000E-02	 0.00000000E+00
					 0.00000000E+00	-4.62730000E-02	 0.00000000E+00
					-0.00000000E+00	 9.66490000E-03	-0.00000000E+00
					-0.00000000E+00	 6.15867000E-02	-0.00000000E+00
					-0.00000000E+00	 6.22183000E-02	-0.00000000E+00
					-0.00000000E+00	 6.10984000E-02	-0.00000000E+00
					-0.00000000E+00	 9.04683000E-02	-0.00000000E+00
					-0.00000000E+00	 8.29337000E-02	-0.00000000E+00
					-0.00000000E+00	 8.35864000E-02	-0.00000000E+00
					-0.00000000E+00	 8.19080000E-02	-0.00000000E+00
					-0.00000000E+00	 4.43463000E-02	-0.00000000E+00
					 0.00000000E+00	-1.15294000E-02	 0.00000000E+00
					 0.00000000E+00	-1.25393000E-02	 0.00000000E+00
					 0.00000000E+00	-1.31183000E-02	 0.00000000E+00
					 0.00000000E+00	-6.71519000E-02	 0.00000000E+00
					-1.15152000E-01	-0.00000000E+00	-0.00000000E+00
					-9.30696000E-02	-0.00000000E+00	-0.00000000E+00
					-9.44110000E-02	-0.00000000E+00	-0.00000000E+00
					-9.30817000E-02	-0.00000000E+00	-0.00000000E+00
					-4.94040000E-02	-0.00000000E+00	-0.00000000E+00
					 8.82063000E-03	 0.00000000E+00	 0.00000000E+00
					 8.93239000E-03	 0.00000000E+00	 0.00000000E+00
					 8.78927000E-03	 0.00000000E+00	 0.00000000E+00
					 6.20709000E-02	 0.00000000E+00	 0.00000000E+00
					 8.99424000E-02	 0.00000000E+00	 0.00000000E+00
					 9.11952000E-02	 0.00000000E+00	 0.00000000E+00
					 8.98640000E-02	 0.00000000E+00	 0.00000000E+00
					 8.54049000E-02	 0.00000000E+00	 0.00000000E+00
					 4.62741000E-02	 0.00000000E+00	 0.00000000E+00
					 4.68401000E-02	 0.00000000E+00	 0.00000000E+00
					 4.60773000E-02	 0.00000000E+00	 0.00000000E+00
					-9.66121000E-03	-0.00000000E+00	-0.00000000E+00
					-6.10955000E-02	-0.00000000E+00	-0.00000000E+00
					-6.22125000E-02	-0.00000000E+00	-0.00000000E+00
					-6.15780000E-02	-0.00000000E+00	-0.00000000E+00
					-9.04592000E-02	-0.00000000E+00	-0.00000000E+00
					-8.19015000E-02	-0.00000000E+00	-0.00000000E+00
					-8.35730000E-02	-0.00000000E+00	-0.00000000E+00
					-8.29136000E-02	-0.00000000E+00	-0.00000000E+00
					-4.43279000E-02	-0.00000000E+00	-0.00000000E+00
					 1.31295000E-02	 0.00000000E+00	 0.00000000E+00
					 1.25624000E-02	 0.00000000E+00	 0.00000000E+00
					 1.15640000E-02	 0.00000000E+00	 0.00000000E+00
					 6.71782000E-02	 0.00000000E+00	 0.00000000E+00
					-0.00000000E+00	-1.15167000E-01	-0.00000000E+00
					-0.00000000E+00	-9.30939000E-02	-0.00000000E+00
					-0.00000000E+00	-9.44358000E-02	-0.00000000E+00
					-0.00000000E+00	-9.31062000E-02	-0.00000000E+00
					-0.00000000E+00	-4.94441000E-02	-0.00000000E+00
					 0.00000000E+00	 8.75770000E-03	 0.00000000E+00
					 0.00000000E+00	 8.86822000E-03	 0.00000000E+00
					 0.00000000E+00	 8.72573000E-03	 0.00000000E+00
					 0.00000000E+00	 6.19690000E-02	 0.00000000E+00
					 0.00000000E+00	 8.97844000E-02	 0.00000000E+00
					 0.00000000E+00	 9.10334000E-02	 0.00000000E+00
					 0.00000000E+00	 8.97031000E-02	 0.00000000E+00
					 0.00000000E+00	 8.51469000E-02	 0.00000000E+00
					 0.00000000E+00	 4.58737000E-02	 0.00000000E+00
					 0.00000000E+00	 4.64262000E-02	 0.00000000E+00
					 0.00000000E+00	 4.56616000E-02	 0.00000000E+00
					-0.00000000E+00	-1.03240000E-02	-0.00000000E+00
					-0.00000000E+00	-6.20904000E-02	-0.00000000E+00
					-0.00000000E+00	-6.32546000E-02	-0.00000000E+00
					-0.00000000E+00	-6.26380000E-02	-0.00000000E+00
					-0.00000000E+00	-9.20332000E-02	-0.00000000E+00
					-0.00000000E+00	-8.40124000E-02	-0.00000000E+00
					-0.00000000E+00	-8.58083000E-02	-0.00000000E+00
					-0.00000000E+00	-8.52113000E-02	-0.00000000E+00
					-0.00000000E+00	-4.72603000E-02	-0.00000000E+00
					 0.00000000E+00	 9.84026000E-03	 0.00000000E+00
					 0.00000000E+00	 9.05528000E-03	 0.00000000E+00
					 0.00000000E+00	 7.93561000E-03	 0.00000000E+00
					 0.00000000E+00	 6.33887000E-02	 0.00000000E+00
					 1.15167000E-01	-0.00000000E+00	-0.00000000E+00
					 9.31063000E-02	-0.00000000E+00	-0.00000000E+00
					 9.44359000E-02	-0.00000000E+00	-0.00000000E+00
					 9.30941000E-02	-0.00000000E+00	-0.00000000E+00
					 4.94444000E-02	-0.00000000E+00	-0.00000000E+00
					-8.72555000E-03	 0.00000000E+00	 0.00000000E+00
					-8.86786000E-03	 0.00000000E+00	 0.00000000E+00
					-8.75717000E-03	 0.00000000E+00	 0.00000000E+00
					-6.19684000E-02	 0.00000000E+00	 0.00000000E+00
					-8.97027000E-02	 0.00000000E+00	 0.00000000E+00
					-9.10325000E-02	 0.00000000E+00	 0.00000000E+00
					-8.97830000E-02	 0.00000000E+00	 0.00000000E+00
					-8.51455000E-02	 0.00000000E+00	 0.00000000E+00
					-4.56605000E-02	 0.00000000E+00	 0.00000000E+00
					-4.64239000E-02	 0.00000000E+00	 0.00000000E+00
					-4.58702000E-02	 0.00000000E+00	 0.00000000E+00
					 1.03278000E-02	-0.00000000E+00	-0.00000000E+00
					 6.26410000E-02	-0.00000000E+00	-0.00000000E+00
					 6.32606000E-02	-0.00000000E+00	-0.00000000E+00
					 6.20992000E-02	-0.00000000E+00	-0.00000000E+00
					 9.20426000E-02	-0.00000000E+00	-0.00000000E+00
					 8.52182000E-02	-0.00000000E+00	-0.00000000E+00
					 8.58222000E-02	-0.00000000E+00	-0.00000000E+00
					 8.40328000E-02	-0.00000000E+00	-0.00000000E+00
					 4.72795000E-02	-0.00000000E+00	-0.00000000E+00
					-7.92359000E-03	 0.00000000E+00	 0.00000000E+00
					-9.03111000E-03	 0.00000000E+00	 0.00000000E+00
					-9.80489000E-03	 0.00000000E+00	 0.00000000E+00
					-6.33612000E-02	 0.00000000E+00	 0.00000000E+00
					 0.00000000E+00	 0.00000000E+00	 0.00000000E+00
					 0.00000000E+00	 0.00000000E+00	 0.00000000E+00
					 0.00000000E+00	 0.00000000E+00	 0.00000000E+00
					 0.00000000E+00	 0.00000000E+00	 0.00000000E+00
					 0.00000000E+00	 0.00000000E+00	 0.00000000E+00
					 0.00000000E+00	 0.00000000E+00	 0.00000000E+00
					 0.00000000E+00	 0.00000000E+00	 0.00000000E+00
					 0.00000000E+00	 0.00000000E+00	 0.00000000E+00
					 0.00000000E+00	 0.00000000E+00	 0.00000000E+00
					 0.00000000E+00	 0.00000000E+00	 0.00000000E+00
					 0.00000000E+00	 0.00000000E+00	 0.00000000E+00
					 0.00000000E+00	 0.00000000E+00	 0.00000000E+00
					 0.00000000E+00	 0.00000000E+00	 0.00000000E+00
					 0.00000000E+00	 0.00000000E+00	 0.00000000E+00
					 0.00000000E+00	 0.00000000E+00	 0.00000000E+00
					 0.00000000E+00	 0.00000000E+00	 0.00000000E+00
					 0.00000000E+00	 0.00000000E+00	 0.00000000E+00
					 0.00000000E+00	 0.00000000E+00	 0.00000000E+00
					 0.00000000E+00	 0.00000000E+00	 0.00000000E+00
					 0.00000000E+00	 0.00000000E+00	 0.00000000E+00
					 0.00000000E+00	 0.00000000E+00	 0.00000000E+00
					 0.00000000E+00	 0.00000000E+00	 0.00000000E+00
					 0.00000000E+00	 0.00000000E+00	 0.00000000E+00
					 0.00000000E+00	 0.00000000E+00	 0.00000000E+00