<?xml version="1.0"?>
<VTKFile type="UnstructuredGrid" version="0.1" byte_order="LittleEndian">
	<UnstructuredGrid>
		<Piece NumberOfPoints="261" NumberOfCells="32">
			<Points>
				<DataArray type="Float64" NumberOfComponents="3" format="ascii">
					 0.00000000E+00	 0.00000000E+00	 0.00000000E+00
					 1.00000000E+00	 0.00000000E+00	 0.00000000E+00
					 1.00000000E+00	 1.00000000E+00	 0.00000000E+00
					 0.00000000E+00	 1.00000000E+00	 0.00000000E+00
					 0.00000000E+00	 0.00000000E+00	 8.00000000E+00
					 1.00000000E+00	 0.00000000E+00	 8.00000000E+00
					 1.00000000E+00	 1.00000000E+00	 8.00000000E+00
					 0.00000000E+00	 1.00000000E+00	 8.00000000E+00
					 2.50000000E-01	 0.00000000E+00	 0.00000000E+00
					 5.00000000E-01	 0.00000000E+00	 0.00000000E+00
					 7.50000000E-01	 0.00000000E+00	 0.00000000E+00
					 1.00000000E+00	 2.50000000E-01	 0.00000000E+00
					 1.00000000E+00	 5.00000000E-01	 0.00000000E+00
					 1.00000000E+00	 7.50000000E-01	 0.00000000E+00
					 7.50000000E-01	 1.00000000E+00	 0.00000000E+00
					 5.00000000E-01	 1.00000000E+00	 0.00000000E+00
					 2.50000000E-01	 1.00000000E+00	 0.00000000E+00
					 0.00000000E+00	 7.50000000E-01	 0.00000000E+00
					 0.00000000E+00	 5.00000000E-01	 0.00000000E+00
					 0.00000000E+00	 2.50000000E-01	 0.00000000E+00
					 2.50000000E-01	 0.00000000E+00	 8.00000000E+00
					 5.00000000E-01	 0.00000000E+00	 8.00000000E+00
					 7.50000000E-01	 0.00000000E+00	 8.00000000E+00
					 1.00000000E+00	 2.50000000E-01	 8.00000000E+00
					 1.00000000E+00	 5.00000000E-01	 8.00000000E+00
					 1.00000000E+00	 7.50000000E-01	 8.00000000E+00
					 7.50000000E-01	 1.00000000E+00	 8.00000000E+00
					 5.00000000E-01	 1.00000000E+00	 8.00000000E+00
					 2.50000000E-01	 1.00000000E+00	 8.00000000E+00
					 0.00000000E+00	 7.50000000E-01	 8.00000000E+00
					 0.00000000E+00	 5.00000000E-01	 8.00000000E+00
					 0.00000000E+00	 2.50000000E-01	 8.00000000E+00
					 1.00000000E+00	 0.00000000E+00	 5.00000000E-01
					 1.00000000E+00	 0.00000000E+00	 1.00000000E+00
					 1.00000000E+00	 0.00000000E+00	 1.50000000E+00
					 1.00000000E+00	 0.00000000E+00	 2.00000000E+00
					 1.00000000E+00	 0.00000000E+00	 2.50000000E+00
					 1.00000000E+00	 0.00000000E+00	 3.00000000E+00
					 1.00000000E+00	 0.00000000E+00	 3.50000000E+00
					 1.00000000E+00	 0.00000000E+00	 4.00000000E+00
					 1.00000000E+00	 0.00000000E+00	 4.50000000E+00
					 1.00000000E+00	 0.00000000E+00	 5.00000000E+00
					 1.00000000E+00	 0.00000000E+00	 5.50000000E+00
					 1.00000000E+00	 0.00000000E+00	 6.00000000E+00
					 1.00000000E+00	 0.00000000E+00	 6.50000000E+00
					 1.00000000E+00	 0.00000000E+00	 7.00000000E+00
					 1.00000000E+00	 0.00000000E+00	 7.50000000E+00
					 0.00000000E+00	 0.00000000E+00	 7.50000000E+00
					 0.00000000E+00	 0.00000000E+00	 7.00000000E+00
					 0.00000000E+00	 0.00000000E+00	 6.50000000E+00
					 0.00000000E+00	 0.00000000E+00	 6.00000000E+00
					 0.00000000E+00	 0.00000000E+00	 5.50000000E+00
					 0.00000000E+00	 0.00000000E+00	 5.00000000E+00
					 0.00000000E+00	 0.00000000E+00	 4.50000000E+00
					 0.00000000E+00	 0.00000000E+00	 4.00000000E+00
					 0.00000000E+00	 0.00000000E+00	 3.50000000E+00
					 0.00000000E+00	 0.00000000E+00	 3.00000000E+00
					 0.00000000E+00	 0.00000000E+00	 2.50000000E+00
					 0.00000000E+00	 0.00000000E+00	 2.00000000E+00
					 0.00000000E+00	 0.00000000E+00	 1.50000000E+00
					 0.00000000E+00	 0.00000000E+00	 1.00000000E+00
					 0.00000000E+00	 0.00000000E+00	 5.00000000E-01
					 1.00000000E+00	 1.00000000E+00	 5.00000000E-01
					 1.00000000E+00	 1.00000000E+00	 1.00000000E+00
					 1.00000000E+00	 1.00000000E+00	 1.50000000E+00
					 1.00000000E+00	 1.00000000E+00	 2.00000000E+00
					 1.00000000E+00	 1.00000000E+00	 2.50000000E+00
					 1.00000000E+00	 1.00000000E+00	 3.00000000E+00
					 1.00000000E+00	 1.00000000E+00	 3.50000000E+00
					 1.00000000E+00	 1.00000000E+00	 4.00000000E+00
					 1.00000000E+00	 1.00000000E+00	 4.50000000E+00
					 1.00000000E+00	 1.00000000E+00	 5.00000000E+00
					 1.00000000E+00	 1.00000000E+00	 5.50000000E+00
					 1.00000000E+00	 1.00000000E+00	 6.00000000E+00
					 1.00000000E+00	 1.00000000E+00	 6.50000000E+00
					 1.00000000E+00	 1.00000000E+00	 7.00000000E+00
					 1.00000000E+00	 1.00000000E+00	 7.50000000E+00
					 0.00000000E+00	 1.00000000E+00	 5.00000000E-01
					 0.00000000E+00	 1.00000000E+00	 1.00000000E+00
					 0.00000000E+00	 1.00000000E+00	 1.50000000E+00
					 0.00000000E+00	 1.00000000E+00	 2.00000000E+00
					 0.00000000E+00	 1.00000000E+00	 2.50000000E+00
					 0.00000000E+00	 1.00000000E+00	 3.00000000E+00
					 0.00000000E+00	 1.00000000E+00	 3.50000000E+00
					 0.00000000E+00	 1.00000000E+00	 4.00000000E+00
					 0.00000000E+00	 1.00000000E+00	 4.50000000E+00
					 0.00000000E+00	 1.00000000E+00	 5.00000000E+00
					 0.00000000E+00	 1.00000000E+00	 5.50000000E+00
					 0.00000000E+00	 1.00000000E+00	 6.00000000E+00
					 0.00000000E+00	 1.00000000E+00	 6.50000000E+00
					 0.00000000E+00	 1.00000000E+00	 7.00000000E+00
					 0.00000000E+00	 1.00000000E+00	 7.50000000E+00
					 5.00000000E-01	 2.50000000E-01	 0.00000000E+00
					 2.50000000E-01	 5.00000000E-01	 0.00000000E+00
					 5.00000000E-01	 5.00000000E-01	 0.00000000E+00
					 7.50000000E-01	 5.00000000E-01	 0.00000000E+00
					 5.00000000E-01	 7.50000000E-01	 0.00000000E+00
					 5.00000000E-01	 2.50000000E-01	 8.00000000E+00
					 2.50000000E-01	 5.00000000E-01	 8.00000000E+00
					 5.00000000E-01	 5.00000000E-01	 8.00000000E+00
					 7.50000000E-01	 5.00000000E-01	 8.00000000E+00
					 5.00000000E-01	 7.50000000E-01	 8.00000000E+00
					 5.00000000E-01	 0.00000000E+00	 5.00000000E-01
					 2.50000000E-01	 0.00000000E+00	 1.00000000E+00
					 5.00000000E-01	 0.00000000E+00	 1.00000000E+00
					 7.50000000E-01	 0.00000000E+00	 1.00000000E+00
					 5.00000000E-01	 0.00000000E+00	 1.50000000E+00
					 2.50000000E-01	 0.00000000E+00	 2.00000000E+00
					 5.00000000E-01	 0.00000000E+00	 2.00000000E+00
					 7.50000000E-01	 0.00000000E+00	 2.00000000E+00
					 5.00000000E-01	 0.00000000E+00	 2.50000000E+00
					 2.50000000E-01	 0.00000000E+00	 3.00000000E+00
					 5.00000000E-01	 0.00000000E+00	 3.00000000E+00
					 7.50000000E-01	 0.00000000E+00	 3.00000000E+00
					 5.00000000E-01	 0.00000000E+00	 3.50000000E+00
					 2.50000000E-01	 0.00000000E+00	 4.00000000E+00
					 5.00000000E-01	 0.00000000E+00	 4.00000000E+00
					 7.50000000E-01	 0.00000000E+00	 4.00000000E+00
					 5.00000000E-01	 0.00000000E+00	 4.50000000E+00
					 2.50000000E-01	 0.00000000E+00	 5.00000000E+00
					 5.00000000E-01	 0.00000000E+00	 5.00000000E+00
					 7.50000000E-01	 0.00000000E+00	 5.00000000E+00
					 5.00000000E-01	 0.00000000E+00	 5.50000000E+00
					 2.50000000E-01	 0.00000000E+00	 6.00000000E+00
					 5.00000000E-01	 0.00000000E+00	 6.00000000E+00
					 7.50000000E-01	 0.00000000E+00	 6.00000000E+00
					 5.00000000E-01	 0.00000000E+00	 6.50000000E+00
					 2.50000000E-01	 0.00000000E+00	 7.00000000E+00
					 5.00000000E-01	 0.00000000E+00	 7.00000000E+00
					 7.50000000E-01	 0.00000000E+00	 7.00000000E+00
					 5.00000000E-01	 0.00000000E+00	 7.50000000E+00
					 1.00000000E+00	 5.00000000E-01	 5.00000000E-01
					 1.00000000E+00	 2.50000000E-01	 1.00000000E+00
					 1.00000000E+00	 5.00000000E-01	 1.00000000E+00
					 1.00000000E+00	 7.50000000E-01	 1.00000000E+00
					 1.00000000E+00	 5.00000000E-01	 1.50000000E+00
					 1.00000000E+00	 2.50000000E-01	 2.00000000E+00
					 1.00000000E+00	 5.00000000E-01	 2.00000000E+00
					 1.00000000E+00	 7.50000000E-01	 2.00000000E+00
					 1.00000000E+00	 5.00000000E-01	 2.50000000E+00
					 1.00000000E+00	 2.50000000E-01	 3.00000000E+00
					 1.00000000E+00	 5.00000000E-01	 3.00000000E+00
					 1.00000000E+00	 7.50000000E-01	 3.00000000E+00
					 1.00000000E+00	 5.00000000E-01	 3.50000000E+00
					 1.00000000E+00	 2.50000000E-01	 4.00000000E+00
					 1.00000000E+00	 5.00000000E-01	 4.00000000E+00
					 1.00000000E+00	 7.50000000E-01	 4.00000000E+00
					 1.00000000E+00	 5.00000000E-01	 4.50000000E+00
					 1.00000000E+00	 2.50000000E-01	 5.00000000E+00
					 1.00000000E+00	 5.00000000E-01	 5.00000000E+00
					 1.00000000E+00	 7.50000000E-01	 5.00000000E+00
					 1.00000000E+00	 5.00000000E-01	 5.50000000E+00
					 1.00000000E+00	 2.50000000E-01	 6.00000000E+00
					 1.00000000E+00	 5.00000000E-01	 6.00000000E+00
					 1.00000000E+00	 7.50000000E-01	 6.00000000E+00
					 1.00000000E+00	 5.00000000E-01	 6.50000000E+00
					 1.00000000E+00	 2.50000000E-01	 7.00000000E+00
					 1.00000000E+00	 5.00000000E-01	 7.00000000E+00
					 1.00000000E+00	 7.50000000E-01	 7.00000000E+00
					 1.00000000E+00	 5.00000000E-01	 7.50000000E+00
					 5.00000000E-01	 1.00000000E+00	 5.00000000E-01
					 7.50000000E-01	 1.00000000E+00	 1.00000000E+00
					 5.00000000E-01	 1.00000000E+00	 1.00000000E+00
					 2.50000000E-01	 1.00000000E+00	 1.00000000E+00
					 5.00000000E-01	 1.00000000E+00	 1.50000000E+00
					 7.50000000E-01	 1.00000000E+00	 2.00000000E+00
					 5.00000000E-01	 1.00000000E+00	 2.00000000E+00
					 2.50000000E-01	 1.00000000E+00	 2.00000000E+00
					 5.00000000E-01	 1.00000000E+00	 2.50000000E+00
					 7.50000000E-01	 1.00000000E+00	 3.00000000E+00
					 5.00000000E-01	 1.00000000E+00	 3.00000000E+00
					 2.50000000E-01	 1.00000000E+00	 3.00000000E+00
					 5.00000000E-01	 1.00000000E+00	 3.50000000E+00
					 7.50000000E-01	 1.00000000E+00	 4.00000000E+00
					 5.00000000E-01	 1.00000000E+00	 4.00000000E+00
					 2.50000000E-01	 1.00000000E+00	 4.00000000E+00
					 5.00000000E-01	 1.00000000E+00	 4.50000000E+00
					 7.50000000E-01	 1.00000000E+00	 5.00000000E+00
					 5.00000000E-01	 1.00000000E+00	 5.00000000E+00
					 2.50000000E-01	 1.00000000E+00	 5.00000000E+00
					 5.00000000E-01	 1.00000000E+00	 5.50000000E+00
					 7.50000000E-01	 1.00000000E+00	 6.00000000E+00
					 5.00000000E-01	 1.00000000E+00	 6.00000000E+00
					 2.50000000E-01	 1.00000000E+00	 6.00000000E+00
					 5.00000000E-01	 1.00000000E+00	 6.50000000E+00
					 7.50000000E-01	 1.00000000E+00	 7.00000000E+00
					 5.00000000E-01	 1.00000000E+00	 7.00000000E+00
					 2.50000000E-01	 1.00000000E+00	 7.00000000E+00
					 5.00000000E-01	 1.00000000E+00	 7.50000000E+00
					 0.00000000E+00	 5.00000000E-01	 5.00000000E-01
					 0.00000000E+00	 7.50000000E-01	 1.00000000E+00
					 0.00000000E+00	 5.00000000E-01	 1.00000000E+00
					 0.00000000E+00	 2.50000000E-01	 1.00000000E+00
					 0.00000000E+00	 5.00000000E-01	 1.50000000E+00
					 0.00000000E+00	 7.50000000E-01	 2.00000000E+00
					 0.00000000E+00	 5.00000000E-01	 2.00000000E+00
					 0.00000000E+00	 2.50000000E-01	 2.00000000E+00
					 0.00000000E+00	 5.00000000E-01	 2.50000000E+00
					 0.00000000E+00	 7.50000000E-01	 3.00000000E+00
					 0.00000000E+00	 5.00000000E-01	 3.00000000E+00
					 0.00000000E+00	 2.50000000E-01	 3.00000000E+00
					 0.00000000E+00	 5.00000000E-01	 3.50000000E+00
					 0.00000000E+00	 7.50000000E-01	 4.00000000E+00
					 0.00000000E+00	 5.00000000E-01	 4.00000000E+00
					 0.00000000E+00	 2.50000000E-01	 4.00000000E+00
					 0.00000000E+00	 5.00000000E-01	 4.50000000E+00
					 0.00000000E+00	 7.50000000E-01	 5.00000000E+00
					 0.00000000E+00	 5.00000000E-01	 5.00000000E+00
					 0.00000000E+00	 2.50000000E-01	 5.00000000E+00
					 0.00000000E+00	 5.00000000E-01	 5.50000000E+00
					 0.00000000E+00	 7.50000000E-01	 6.00000000E+00
					 0.00000000E+00	 5.00000000E-01	 6.00000000E+00
					 0.00000000E+00	 2.50000000E-01	 6.00000000E+00
					 0.00000000E+00	 5.00000000E-01	 6.50000000E+00
					 0.00000000E+00	 7.50000000E-01	 7.00000000E+00
					 0.00000000E+00	 5.00000000E-01	 7.00000000E+00
					 0.00000000E+00	 2.50000000E-01	 7.00000000E+00
					 0.00000000E+00	 5.00000000E-01	 7.50000000E+00
					 5.00000000E-01	 5.00000000E-01	 5.00000000E-01
					 5.00000000E-01	 2.50000000E-01	 1.00000000E+00
					 2.50000000E-01	 5.00000000E-01	 1.00000000E+00
					 5.00000000E-01	 5.00000000E-01	 1.00000000E+00
					 7.50000000E-01	 5.00000000E-01	 1.00000000E+00
					 5.00000000E-01	 7.50000000E-01	 1.00000000E+00
					 5.00000000E-01	 5.00000000E-01	 1.50000000E+00
					 5.00000000E-01	 2.50000000E-01	 2.00000000E+00
					 2.50000000E-01	 5.00000000E-01	 2.00000000E+00
					 5.00000000E-01	 5.00000000E-01	 2.00000000E+00
					 7.50000000E-01	 5.00000000E-01	 2.00000000E+00
					 5.00000000E-01	 7.50000000E-01	 2.00000000E+00
					 5.00000000E-01	 5.00000000E-01	 2.50000000E+00
					 5.00000000E-01	 2.50000000E-01	 3.00000000E+00
					 2.50000000E-01	 5.00000000E-01	 3.00000000E+00
					 5.00000000E-01	 5.00000000E-01	 3.00000000E+00
					 7.50000000E-01	 5.00000000E-01	 3.00000000E+00
					 5.00000000E-01	 7.50000000E-01	 3.00000000E+00
					 5.00000000E-01	 5.00000000E-01	 3.50000000E+00
					 5.00000000E-01	 2.50000000E-01	 4.00000000E+00
					 2.50000000E-01	 5.00000000E-01	 4.00000000E+00
					 5.00000000E-01	 5.00000000E-01	 4.00000000E+00
					 7.50000000E-01	 5.00000000E-01	 4.00000000E+00
					 5.00000000E-01	 7.50000000E-01	 4.00000000E+00
					 5.00000000E-01	 5.00000000E-01	 4.50000000E+00
					 5.00000000E-01	 2.50000000E-01	 5.00000000E+00
					 2.50000000E-01	 5.00000000E-01	 5.00000000E+00
					 5.00000000E-01	 5.00000000E-01	 5.00000000E+00
					 7.50000000E-01	 5.00000000E-01	 5.00000000E+00
					 5.00000000E-01	 7.50000000E-01	 5.00000000E+00
					 5.00000000E-01	 5.00000000E-01	 5.50000000E+00
					 5.00000000E-01	 2.50000000E-01	 6.00000000E+00
					 2.50000000E-01	 5.00000000E-01	 6.00000000E+00
					 5.00000000E-01	 5.00000000E-01	 6.00000000E+00
					 7.50000000E-01	 5.00000000E-01	 6.00000000E+00
					 5.00000000E-01	 7.50000000E-01	 6.00000000E+00
					 5.00000000E-01	 5.00000000E-01	 6.50000000E+00
					 5.00000000E-01	 2.50000000E-01	 7.00000000E+00
					 2.50000000E-01	 5.00000000E-01	 7.00000000E+00
					 5.00000000E-01	 5.00000000E-01	 7.00000000E+00
					 7.50000000E-01	 5.00000000E-01	 7.00000000E+00
					 5.00000000E-01	 7.50000000E-01	 7.00000000E+00
					 5.00000000E-01	 5.00000000E-01	 7.50000000E+00
				</DataArray>
			</Points>
			<Cells>
				<DataArray type="Int32" Name="connectivity" format="ascii">
					0 9 94 18 60 104 221 191 8 92 93 19 103 219 220 192 61 102 218 189 9 1 12 94 104 33 133 221 10 11 95 92 105 132 222 219 102 32 131 218 18 94 15 3 191 221 162 78 93 96 16 17 220 223 163 190 189 218 160 77 94 12 2 15 221 133 63 162 95 13 14 96 222 134 161 223 218 131 62 160 60 104 221 191 58 108 227 195 103 219 220 192 107 225 226 196 59 106 224 193 104 33 133 221 108 35 137 227 105 132 222 219 109 136 228 225 106 34 135 224 191 221 162 78 195 227 166 80 220 223 163 190 226 229 167 194 193 224 164 79 221 133 63 162 227 137 65 166 222 134 161 223 228 138 165 229 224 135 64 164 58 108 227 195 56 112 233 199 107 225 226 196 111 231 232 200 57 110 230 197 108 35 137 227 112 37 141 233 109 136 228 225 113 140 234 231 110 36 139 230 195 227 166 80 199 233 170 82 226 229 167 194 232 235 171 198 197 230 168 81 227 137 65 166 233 141 67 170 228 138 165 229 234 142 169 235 230 139 66 168 56 112 233 199 54 116 239 203 111 231 232 200 115 237 238 204 55 114 236 201 112 37 141 233 116 39 145 239 113 140 234 231 117 144 240 237 114 38 143 236 199 233 170 82 203 239 174 84 232 235 171 198 238 241 175 202 201 236 172 83 233 141 67 170 239 145 69 174 234 142 169 235 240 146 173 241 236 143 68 172 54 116 239 203 52 120 245 207 115 237 238 204 119 243 244 208 53 118 242 205 116 39 145 239 120 41 149 245 117 144 240 237 121 148 246 243 118 40 147 242 203 239 174 84 207 245 178 86 238 241 175 202 244 247 179 206 205 242 176 85 239 145 69 174 245 149 71 178 240 146 173 241 246 150 177 247 242 147 70 176 52 120 245 207 50 124 251 211 119 243 244 208 123 249 250 212 51 122 248 209 120 41 149 245 124 43 153 251 121 148 246 243 125 152 252 249 122 42 151 248 207 245 178 86 211 251 182 88 244 247 179 206 250 253 183 210 209 248 180 87 245 149 71 178 251 153 73 182 246 150 177 247 252 154 181 253 248 151 72 180 50 124 251 211 48 128 257 215 123 249 250 212 127 255 256 216 49 126 254 213 124 43 153 251 128 45 157 257 125 152 252 249 129 156 258 255 126 44 155 254 211 251 182 88 215 257 186 90 250 253 183 210 256 259 187 214 213 254 184 89 251 153 73 182 257 157 75 186 252 154 181 253 258 158 185 259 254 155 74 184 48 128 257 215 4 21 99 30 127 255 256 216 20 97 98 31 47 130 260 217 128 45 157 257 21 5 24 99 129 156 258 255 22 23 100 97 130 46 159 260 215 257 186 90 30 99 27 7 256 259 187 214 98 101 28 29 217 260 188 91 257 157 75 186 99 24 6 27 258 158 185 259 100 25 26 101 260 159 76 188 
				</DataArray>
				<DataArray type="Int32" Name="offsets" format="ascii">
					20 40 60 80 100 120 140 160 180 200 220 240 260 280 300 320 340 360 380 400 420 440 460 480 500 520 540 560 580 600 620 640 
				</DataArray>
				<DataArray type="UInt8" Name="types" format="ascii">
					25 25 25 25 25 25 25 25 25 25 25 25 25 25 25 25 25 25 25 25 25 25 25 25 25 25 25 25 25 25 25 25 
				</DataArray>
			</Cells>
			<PointData>
				<DataArray type="Float32" Name="U" NumberOfComponents="3" ComponentName0="D1" ComponentName1="D2" ComponentName2="D3" format="ascii">
					 0.00000000E+00	 0.00000000E+00	 0.00000000E+00
					 0.00000000E+00	 0.00000000E+00	 0.00000000E+00
					 0.00000000E+00	 0.00000000E+00	 0.00000000E+00
					 0.00000000E+00	 0.00000000E+00	 0.00000000E+00
					 3.29577000E-05	 4.34058000E-02	 3.98480000E-03
					-4.18865000E-05	 4.34066000E-02	 3.98510000E-03
					 3.17871000E-05	 4.33730000E-02	-4.24805000E-03
					-4.33357000E-05	 4.33718000E-02	-4.24869000E-03
					 0.00000000E+00	 0.00000000E+00	 0.00000000E+00
					 0.00000000E+00	 0.00000000E+00	 0.00000000E+00
					 0.00000000E+00	 0.00000000E+00	 0.00000000E+00
					 0.00000000E+00	 0.00000000E+00	 0.00000000E+00
					 0.00000000E+00	 0.00000000E+00	 0.00000000E+00
					 0.00000000E+00	 0.00000000E+00	 0.00000000E+00
					 0.00000000E+00	 0.00000000E+00	 0.00000000E+00
					 0.00000000E+00	 0.00000000E+00	 0.00000000E+00
					 0.00000000E+00	 0.00000000E+00	 0.00000000E+00
					 0.00000000E+00	 0.00000000E+00	 0.00000000E+00
					 0.00000000E+00	 0.00000000E+00	 0.00000000E+00
					 0.00000000E+00	 0.00000000E+00	 0.00000000E+00
					 2.45752000E-05	 4.34393000E-02	 3.99195000E-03
					-4.53545000E-06	 4.33933000E-02	 3.99513000E-03
					-3.36144000E-05	 4.34396000E-02	 3.99207000E-03
					-6.94598000E-06	 4.33804000E-02	 1.91133000E-03
					-5.26613000E-06	 4.33404000E-02	-1.30580000E-04
					-3.45262000E-06	 4.33638000E-02	-2.17287000E-03
					 2.34160000E-05	 4.34061000E-02	-4.25524000E-03
					-5.76044000E-06	 4.33597000E-02	-4.25823000E-03
					-3.49519000E-05	 4.34055000E-02	-4.25558000E-03
					-7.59910000E-06	 4.33628000E-02	-2.17395000E-03
					-5.28325000E-06	 4.33395000E-02	-1.31630000E-04
					-2.85257000E-06	 4.33795000E-02	 1.91070000E-03
					-1.55543000E-04	 2.56730000E-04	 4.63008000E-04
					-1.17854000E-04	 9.43426000E-04	 9.38252000E-04
					-1.33132000E-04	 2.16182000E-03	 1.39323000E-03
					-1.15871000E-04	 3.79230000E-03	 1.81132000E-03
					-1.04736000E-04	 5.85146000E-03	 2.17658000E-03
					-8.69291000E-05	 8.24370000E-03	 2.49060000E-03
					-7.35564000E-05	 1.09264000E-02	 2.74720000E-03
					-6.36746000E-05	 1.38375000E-02	 2.96421000E-03
					-5.95312000E-05	 1.69419000E-02	 3.15562000E-03
					-5.78039000E-05	 2.02440000E-02	 3.33838000E-03
					-5.51552000E-05	 2.37218000E-02	 3.50987000E-03
					-4.73231000E-05	 2.74085000E-02	 3.66870000E-03
					-4.34488000E-05	 3.12279000E-02	 3.78993000E-03
					-3.02581000E-05	 3.52221000E-02	 3.90374000E-03
					-4.65361000E-05	 3.92519000E-02	 3.97117000E-03
					 3.80122000E-05	 3.92510000E-02	 3.97047000E-03
					 2.26489000E-05	 3.52214000E-02	 3.90292000E-03
					 3.68782000E-05	 3.12269000E-02	 3.78924000E-03
					 4.25677000E-05	 2.74064000E-02	 3.66796000E-03
					 5.21729000E-05	 2.37188000E-02	 3.50909000E-03
					 5.59421000E-05	 2.02405000E-02	 3.33763000E-03
					 5.80223000E-05	 1.69388000E-02	 3.15492000E-03
					 6.20778000E-05	 1.38352000E-02	 2.96355000E-03
					 7.19492000E-05	 1.09247000E-02	 2.74657000E-03
					 8.56769000E-05	 8.24225000E-03	 2.49001000E-03
					 1.04037000E-04	 5.85003000E-03	 2.17605000E-03
					 1.15745000E-04	 3.79081000E-03	 1.81083000E-03
					 1.33432000E-04	 2.16040000E-03	 1.39277000E-03
					 1.18312000E-04	 9.42340000E-04	 9.37865000E-04
					 1.55871000E-04	 2.56111000E-04	 4.62776000E-04
					 1.54924000E-04	 2.55533000E-04	-4.61773000E-04
					 1.16825000E-04	 9.41023000E-04	-9.36738000E-04
					 1.31572000E-04	 2.15728000E-03	-1.39330000E-03
					 1.13811000E-04	 3.78504000E-03	-1.81538000E-03
					 1.02135000E-04	 5.84134000E-03	-2.18759000E-03
					 8.37768000E-05	 8.23060000E-03	-2.51153000E-03
					 6.98038000E-05	 1.09106000E-02	-2.78098000E-03
					 5.93045000E-05	 1.38192000E-02	-3.01347000E-03
					 5.44669000E-05	 1.69211000E-02	-3.22267000E-03
					 5.19849000E-05	 2.02207000E-02	-3.42583000E-03
					 4.85089000E-05	 2.36960000E-02	-3.62032000E-03
					 3.98879000E-05	 2.73804000E-02	-3.80533000E-03
					 3.51509000E-05	 3.11978000E-02	-3.95447000E-03
					 2.12972000E-05	 3.51899000E-02	-4.09895000E-03
					 3.67944000E-05	 3.92182000E-02	-4.19913000E-03
					-1.55695000E-04	 2.55048000E-04	-4.61998000E-04
					-1.18499000E-04	 9.39972000E-04	-9.37125000E-04
					-1.34083000E-04	 2.15589000E-03	-1.39376000E-03
					-1.16883000E-04	 3.78357000E-03	-1.81587000E-03
					-1.05675000E-04	 5.83994000E-03	-2.18813000E-03
					-8.78769000E-05	 8.22917000E-03	-2.51211000E-03
					-7.47805000E-05	 1.09089000E-02	-2.78161000E-03
					-6.55888000E-05	 1.38168000E-02	-3.01414000E-03
					-6.22209000E-05	 1.69180000E-02	-3.22343000E-03
					-6.09609000E-05	 2.02172000E-02	-3.42669000E-03
					-5.82043000E-05	 2.36927000E-02	-3.62114000E-03
					-4.94600000E-05	 2.73779000E-02	-3.80610000E-03
					-4.45334000E-05	 3.11966000E-02	-3.95550000E-03
					-3.09663000E-05	 3.51891000E-02	-4.10015000E-03
					-4.72738000E-05	 3.92174000E-02	-4.20009000E-03
					 0.00000000E+00	 0.00000000E+00	 0.00000000E+00
					 0.00000000E+00	 0.00000000E+00	 0.00000000E+00
					 0.00000000E+00	 0.00000000E+00	 0.00000000E+00
					 0.00000000E+00	 0.00000000E+00	 0.00000000E+00
					 0.00000000E+00	 0.00000000E+00	 0.00000000E+00
					-4.87089000E-06	 4.35252000E-02	 1.94792000E-03
					-5.17399000E-06	 4.34546000E-02	-1.31713000E-04
					-5.23541000E-06	 4.36768000E-02	-1.31906000E-04
					-5.31906000E-06	 4.34551000E-02	-1.31205000E-04
					-5.50838000E-06	 4.35080000E-02	-2.21191000E-03
					 1.95133000E-07	 3.23360000E-04	 4.48879000E-04
					 5.86877000E-05	 9.98704000E-04	 9.42963000E-04
					 2.27490000E-07	 1.01163000E-03	 9.50021000E-04
					-5.82248000E-05	 9.99247000E-04	 9.43235000E-04
					 1.45112000E-07	 2.22489000E-03	 1.39346000E-03
					 5.78573000E-05	 3.83562000E-03	 1.81500000E-03
					-6.52846000E-08	 3.85262000E-03	 1.81523000E-03
					-5.79845000E-05	 3.83637000E-03	 1.81524000E-03
					-3.44442000E-07	 5.90233000E-03	 2.17941000E-03
					 4.24892000E-05	 8.27467000E-03	 2.49363000E-03
					-6.18932000E-07	 8.28504000E-03	 2.49318000E-03
					-4.37335000E-05	 8.27540000E-03	 2.49393000E-03
					-7.83255000E-07	 1.09633000E-02	 2.74960000E-03
					 3.06576000E-05	 1.38563000E-02	 2.96437000E-03
					-7.91127000E-07	 1.38621000E-02	 2.96388000E-03
					-3.22469000E-05	 1.38575000E-02	 2.96484000E-03
					-7.68621000E-07	 1.69737000E-02	 3.15676000E-03
					 2.73981000E-05	 2.02549000E-02	 3.33655000E-03
					-9.37600000E-07	 2.02560000E-02	 3.33531000E-03
					-2.92595000E-05	 2.02566000E-02	 3.33694000E-03
					-1.53446000E-06	 2.37579000E-02	 3.51186000E-03
					 2.04352000E-05	 2.74115000E-02	 3.66499000E-03
					-2.44373000E-06	 2.74004000E-02	 3.65952000E-03
					-2.52575000E-05	 2.74125000E-02	 3.66518000E-03
					-3.28891000E-06	 3.12657000E-02	 3.80168000E-03
					 8.23758000E-06	 3.51937000E-02	 3.89712000E-03
					-3.82536000E-06	 3.51748000E-02	 3.89146000E-03
					-1.58584000E-05	 3.51940000E-02	 3.89744000E-03
					-4.29469000E-06	 3.93272000E-02	 3.97766000E-03
					-2.75314000E-07	 1.60252000E-04	 6.19460000E-07
					-5.96459000E-05	 9.02387000E-04	 4.67328000E-04
					-4.14662000E-07	 9.06658000E-04	 8.86392000E-07
					 5.87341000E-05	 9.01160000E-04	-4.65648000E-04
					-6.97545000E-07	 2.08415000E-03	 1.95524000E-07
					-5.82413000E-05	 3.75456000E-03	 8.96663000E-04
					-9.70736000E-07	 3.74431000E-03	-1.81174000E-06
					 5.62510000E-05	 3.75098000E-03	-9.00368000E-04
					-1.25385000E-06	 5.79120000E-03	-5.23288000E-06
					-4.43101000E-05	 8.20929000E-03	 1.23169000E-03
					-1.54494000E-06	 8.19717000E-03	-1.02369000E-05
					 4.11938000E-05	 8.20281000E-03	-1.25228000E-03
					-1.84951000E-06	 1.08809000E-02	-1.66630000E-05
					-3.29497000E-05	 1.38084000E-02	 1.46628000E-03
					-2.17389000E-06	 1.37942000E-02	-2.44052000E-05
					 2.85930000E-05	 1.37993000E-02	-1.51521000E-03
					-2.51451000E-06	 1.69040000E-02	-3.33429000E-05
					-3.04333000E-05	 2.02109000E-02	 1.64651000E-03
					-2.87500000E-06	 2.01925000E-02	-4.34470000E-05
					 2.46569000E-05	 2.01992000E-02	-1.73360000E-03
					-3.26561000E-06	 2.36921000E-02	-5.50505000E-05
					-2.49150000E-05	 2.73741000E-02	 1.79574000E-03
					-3.62764000E-06	 2.73502000E-02	-6.78551000E-05
					 1.75991000E-05	 2.73601000E-02	-1.93174000E-03
					-4.01030000E-06	 3.12052000E-02	-8.22972000E-05
					-1.97807000E-05	 3.51629000E-02	 1.89995000E-03
					-4.38419000E-06	 3.51162000E-02	-9.74065000E-05
					 1.10126000E-05	 3.51469000E-02	-2.09506000E-03
					-4.94241000E-06	 3.92931000E-02	-1.14200000E-04
					-3.78233000E-07	 3.22234000E-04	-4.48040000E-04
					 5.74454000E-05	 9.96771000E-04	-9.42144000E-04
					-8.37301000E-07	 1.00918000E-03	-9.49170000E-04
					-5.91131000E-05	 9.96246000E-04	-9.42228000E-04
					-1.23414000E-06	 2.22031000E-03	-1.39437000E-03
					 5.61690000E-05	 3.82906000E-03	-1.81989000E-03
					-1.53637000E-06	 3.84534000E-03	-1.82025000E-03
					-5.92424000E-05	 3.82832000E-03	-1.82015000E-03
					-1.76817000E-06	 5.89218000E-03	-2.19143000E-03
					 4.08317000E-05	 8.26224000E-03	-2.51548000E-03
					-2.05374000E-06	 8.27189000E-03	-2.51511000E-03
					-4.49318000E-05	 8.26152000E-03	-2.51576000E-03
					-2.49771000E-06	 1.09475000E-02	-2.78442000E-03
					 2.81016000E-05	 1.38391000E-02	-3.01466000E-03
					-3.14091000E-06	 1.38437000E-02	-3.01408000E-03
					-3.43801000E-05	 1.38379000E-02	-3.01487000E-03
					-3.85400000E-06	 1.69529000E-02	-3.22497000E-03
					 2.36534000E-05	 2.02333000E-02	-3.42496000E-03
					-4.46777000E-06	 2.02326000E-02	-3.42371000E-03
					-3.26131000E-05	 2.02315000E-02	-3.42535000E-03
					-4.79085000E-06	 2.37320000E-02	-3.62355000E-03
					 1.79719000E-05	 2.73843000E-02	-3.80210000E-03
					-4.73621000E-06	 2.73722000E-02	-3.79665000E-03
					-2.74883000E-05	 2.73831000E-02	-3.80273000E-03
					-4.67215000E-06	 3.12350000E-02	-3.96778000E-03
					 7.04344000E-06	 3.51618000E-02	-4.09324000E-03
					-4.83477000E-06	 3.51428000E-02	-4.08746000E-03
					-1.67141000E-05	 3.51614000E-02	-4.09381000E-03
					-5.22010000E-06	 3.92932000E-02	-4.20720000E-03
					 2.49424000E-08	 1.59676000E-04	 3.87166000E-07
					-5.98886000E-05	 9.00102000E-04	-4.66138000E-04
					-2.06845000E-07	 9.05594000E-04	 4.85305000E-07
					 5.95581000E-05	 9.01314000E-04	 4.67025000E-04
					-4.14577000E-07	 2.08277000E-03	-2.67492000E-07
					-5.85873000E-05	 3.74951000E-03	-9.00845000E-04
					-6.32684000E-07	 3.74284000E-03	-2.31109000E-06
					 5.73736000E-05	 3.75308000E-03	 8.96153000E-04
					-8.72604000E-07	 5.78977000E-03	-5.76503000E-06
					-4.45907000E-05	 8.20139000E-03	-1.25286000E-03
					-1.13855000E-06	 8.19575000E-03	-1.08158000E-05
					 4.23436000E-05	 8.20785000E-03	 1.23111000E-03
					-1.44874000E-06	 1.08791000E-02	-1.72870000E-05
					-3.37083000E-05	 1.37969000E-02	-1.51602000E-03
					-1.77166000E-06	 1.37919000E-02	-2.50732000E-05
					 3.01739000E-05	 1.38060000E-02	 1.46576000E-03
					-2.12820000E-06	 1.69009000E-02	-3.40836000E-05
					-3.18504000E-05	 2.01957000E-02	-1.73448000E-03
					-2.52771000E-06	 2.01891000E-02	-4.42845000E-05
					 2.68130000E-05	 2.02074000E-02	 1.64574000E-03
					-2.97738000E-06	 2.36890000E-02	-5.59314000E-05
					-2.59157000E-05	 2.73577000E-02	-1.93238000E-03
					-3.46447000E-06	 2.73481000E-02	-6.86958000E-05
					 1.90158000E-05	 2.73720000E-02	 1.79475000E-03
					-3.83538000E-06	 3.12040000E-02	-8.30916000E-05
					-2.03051000E-05	 3.51461000E-02	-2.09586000E-03
					-4.39530000E-06	 3.51155000E-02	-9.80657000E-05
					 1.16755000E-05	 3.51623000E-02	 1.89917000E-03
					-4.59297000E-06	 3.92923000E-02	-1.14970000E-04
					-1.04101000E-07	 2.26584000E-04	 4.03764000E-07
					-4.57394000E-08	 9.67595000E-04	 4.71771000E-04
					-2.60891000E-07	 9.60131000E-04	 4.99016000E-07
					-3.12536000E-07	 9.70228000E-04	 5.70854000E-07
					-3.55466000E-07	 9.60663000E-04	 6.85186000E-07
					-5.77903000E-07	 9.66333000E-04	-4.70741000E-04
					-5.47675000E-07	 2.14847000E-03	-2.31971000E-07
					-4.34839000E-07	 3.81378000E-03	 9.00207000E-04
					-7.21601000E-07	 3.78620000E-03	-2.36021000E-06
					-8.03655000E-07	 3.80220000E-03	-2.28574000E-06
					-8.84186000E-07	 3.78693000E-03	-2.11001000E-06
					-1.16977000E-06	 3.81016000E-03	-9.04861000E-04
					-1.05903000E-06	 5.84194000E-03	-5.73497000E-06
					-9.79594000E-07	 8.25229000E-03	 1.23448000E-03
					-1.23887000E-06	 8.22997000E-03	-1.08422000E-05
					-1.34005000E-06	 8.24178000E-03	-1.07564000E-05
					-1.44071000E-06	 8.23068000E-03	-1.05531000E-05
					-1.69806000E-06	 8.24577000E-03	-1.25609000E-03
					-1.64455000E-06	 1.09151000E-02	-1.71678000E-05
					-1.38564000E-06	 1.38389000E-02	 1.46670000E-03
					-1.87188000E-06	 1.38186000E-02	-2.50655000E-05
					-1.97124000E-06	 1.38307000E-02	-2.49628000E-05
					-2.07116000E-06	 1.38197000E-02	-2.47273000E-05
					-2.55658000E-06	 1.38297000E-02	-1.51667000E-03