<?xml version="1.0"?>
<VTKFile type="UnstructuredGrid" version="0.1" byte_order="LittleEndian">
	<UnstructuredGrid>
		<Piece NumberOfPoints="261" NumberOfCells="32">
			<Points>
				<DataArray type="Float64" NumberOfComponents="3" format="ascii">
					 0.00000000E+00	 0.00000000E+00	 0.00000000E+00
					 1.00000000E+00	 0.00000000E+00	 0.00000000E+00
					 1.00000000E+00	 1.00000000E+00	 0.00000000E+00
					 0.00000000E+00	 1.00000000E+00	 0.00000000E+00
					 0.00000000E+00	 0.00000000E+00	 8.00000000E+00
					 1.00000000E+00	 0.00000000E+00	 8.00000000E+00
					 1.00000000E+00	 1.00000000E+00	 8.00000000E+00
					 0.00000000E+00	 1.00000000E+00	 8.00000000E+00
					 2.50000000E-01	 0.00000000E+00	 0.00000000E+00
					 5.00000000E-01	 0.00000000E+00	 0.00000000E+00
					 7.50000000E-01	 0.00000000E+00	 0.00000000E+00
					 1.00000000E+00	 2.50000000E-01	 0.00000000E+00
					 1.00000000E+00	 5.00000000E-01	 0.00000000E+00
					 1.00000000E+00	 7.50000000E-01	 0.00000000E+00
					 7.50000000E-01	 1.00000000E+00	 0.00000000E+00
					 5.00000000E-01	 1.00000000E+00	 0.00000000E+00
					 2.50000000E-01	 1.00000000E+00	 0.00000000E+00
					 0.00000000E+00	 7.50000000E-01	 0.00000000E+00
					 0.00000000E+00	 5.00000000E-01	 0.00000000E+00
					 0.00000000E+00	 2.50000000E-01	 0.00000000E+00
					 2.50000000E-01	 0.00000000E+00	 8.00000000E+00
					 5.00000000E-01	 0.00000000E+00	 8.00000000E+00
					 7.50000000E-01	 0.00000000E+00	 8.00000000E+00
					 1.00000000E+00	 2.50000000E-01	 8.00000000E+00
					 1.00000000E+00	 5.00000000E-01	 8.00000000E+00
					 1.00000000E+00	 7.50000000E-01	 8.00000000E+00
					 7.50000000E-01	 1.00000000E+00	 8.00000000E+00
					 5.00000000E-01	 1.00000000E+00	 8.00000000E+00
					 2.50000000E-01	 1.00000000E+00	 8.00000000E+00
					 0.00000000E+00	 7.50000000E-01	 8.00000000E+00
					 0.00000000E+00	 5.00000000E-01	 8.00000000E+00
					 0.00000000E+00	 2.50000000E-01	 8.00000000E+00
					 1.00000000E+00	 0.00000000E+00	 5.00000000E-01
					 1.00000000E+00	 0.00000000E+00	 1.00000000E+00
					 1.00000000E+00	 0.00000000E+00	 1.50000000E+00
					 1.00000000E+00	 0.00000000E+00	 2.00000000E+00
					 1.00000000E+00	 0.00000000E+00	 2.50000000E+00
					 1.00000000E+00	 0.00000000E+00	 3.00000000E+00
					 1.00000000E+00	 0.00000000E+00	 3.50000000E+00
					 1.00000000E+00	 0.00000000E+00	 4.00000000E+00
					 1.00000000E+00	 0.00000000E+00	 4.50000000E+00
					 1.00000000E+00	 0.00000000E+00	 5.00000000E+00
					 1.00000000E+00	 0.00000000E+00	 5.50000000E+00
					 1.00000000E+00	 0.00000000E+00	 6.00000000E+00
					 1.00000000E+00	 0.00000000E+00	 6.50000000E+00
					 1.00000000E+00	 0.00000000E+00	 7.00000000E+00
					 1.00000000E+00	 0.00000000E+00	 7.50000000E+00
					 0.00000000E+00	 0.00000000E+00	 7.50000000E+00
					 0.00000000E+00	 0.00000000E+00	 7.00000000E+00
					 0.00000000E+00	 0.00000000E+00	 6.50000000E+00
					 0.00000000E+00	 0.00000000E+00	 6.00000000E+00
					 0.00000000E+00	 0.00000000E+00	 5.50000000E+00
					 0.00000000E+00	 0.00000000E+00	 5.00000000E+00
					 0.00000000E+00	 0.00000000E+00	 4.50000000E+00
					 0.00000000E+00	 0.00000000E+00	 4.00000000E+00
					 0.00000000E+00	 0.00000000E+00	 3.50000000E+00
					 0.00000000E+00	 0.00000000E+00	 3.00000000E+00
					 0.00000000E+00	 0.00000000E+00	 2.50000000E+00
					 0.00000000E+00	 0.00000000E+00	 2.00000000E+00
					 0.00000000E+00	 0.00000000E+00	 1.50000000E+00
					 0.00000000E+00	 0.00000000E+00	 1.00000000E+00
					 0.00000000E+00	 0.00000000E+00	 5.00000000E-01
					 1.00000000E+00	 1.00000000E+00	 5.00000000E-01
					 1.00000000E+00	 1.00000000E+00	 1.00000000E+00
					 1.00000000E+00	 1.00000000E+00	 1.50000000E+00
					 1.00000000E+00	 1.00000000E+00	 2.00000000E+00
					 1.00000000E+00	 1.00000000E+00	 2.50000000E+00
					 1.00000000E+00	 1.00000000E+00	 3.00000000E+00
					 1.00000000E+00	 1.00000000E+00	 3.50000000E+00
					 1.00000000E+00	 1.00000000E+00	 4.00000000E+00
					 1.00000000E+00	 1.00000000E+00	 4.50000000E+00
					 1.00000000E+00	 1.00000000E+00	 5.00000000E+00
					 1.00000000E+00	 1.00000000E+00	 5.50000000E+00
					 1.00000000E+00	 1.00000000E+00	 6.00000000E+00
					 1.00000000E+00	 1.00000000E+00	 6.50000000E+00
					 1.00000000E+00	 1.00000000E+00	 7.00000000E+00
					 1.00000000E+00	 1.00000000E+00	 7.50000000E+00
					 0.00000000E+00	 1.00000000E+00	 5.00000000E-01
					 0.00000000E+00	 1.00000000E+00	 1.00000000E+00
					 0.00000000E+00	 1.00000000E+00	 1.50000000E+00
					 0.00000000E+00	 1.00000000E+00	 2.00000000E+00
					 0.00000000E+00	 1.00000000E+00	 2.50000000E+00
					 0.00000000E+00	 1.00000000E+00	 3.00000000E+00
					 0.00000000E+00	 1.00000000E+00	 3.50000000E+00
					 0.00000000E+00	 1.00000000E+00	 4.00000000E+00
					 0.00000000E+00	 1.00000000E+00	 4.50000000E+00
					 0.00000000E+00	 1.00000000E+00	 5.00000000E+00
					 0.00000000E+00	 1.00000000E+00	 5.50000000E+00
					 0.00000000E+00	 1.00000000E+00	 6.00000000E+00
					 0.00000000E+00	 1.00000000E+00	 6.50000000E+00
					 0.00000000E+00	 1.00000000E+00	 7.00000000E+00
					 0.00000000E+00	 1.00000000E+00	 7.50000000E+00
					 5.00000000E-01	 2.50000000E-01	 0.00000000E+00
					 2.50000000E-01	 5.00000000E-01	 0.00000000E+00
					 5.00000000E-01	 5.00000000E-01	 0.00000000E+00
					 7.50000000E-01	 5.00000000E-01	 0.00000000E+00
					 5.00000000E-01	 7.50000000E-01	 0.00000000E+00
					 5.00000000E-01	 2.50000000E-01	 8.00000000E+00
					 2.50000000E-01	 5.00000000E-01	 8.00000000E+00
					 5.00000000E-01	 5.00000000E-01	 8.00000000E+00
					 7.50000000E-01	 5.00000000E-01	 8.00000000E+00
					 5.00000000E-01	 7.50000000E-01	 8.00000000E+00
					 5.00000000E-01	 0.00000000E+00	 5.00000000E-01
					 2.50000000E-01	 0.00000000E+00	 1.00000000E+00
					 5.00000000E-01	 0.00000000E+00	 1.00000000E+00
					 7.50000000E-01	 0.00000000E+00	 1.00000000E+00
					 5.00000000E-01	 0.00000000E+00	 1.50000000E+00
					 2.50000000E-01	 0.00000000E+00	 2.00000000E+00
					 5.00000000E-01	 0.00000000E+00	 2.00000000E+00
					 7.50000000E-01	 0.00000000E+00	 2.00000000E+00
					 5.00000000E-01	 0.00000000E+00	 2.50000000E+00
					 2.50000000E-01	 0.00000000E+00	 3.00000000E+00
					 5.00000000E-01	 0.00000000E+00	 3.00000000E+00
					 7.50000000E-01	 0.00000000E+00	 3.00000000E+00
					 5.00000000E-01	 0.00000000E+00	 3.50000000E+00
					 2.50000000E-01	 0.00000000E+00	 4.00000000E+00
					 5.00000000E-01	 0.00000000E+00	 4.00000000E+00
					 7.50000000E-01	 0.00000000E+00	 4.00000000E+00
					 5.00000000E-01	 0.00000000E+00	 4.50000000E+00
					 2.50000000E-01	 0.00000000E+00	 5.00000000E+00
					 5.00000000E-01	 0.00000000E+00	 5.00000000E+00
					 7.50000000E-01	 0.00000000E+00	 5.00000000E+00
					 5.00000000E-01	 0.00000000E+00	 5.50000000E+00
					 2.50000000E-01	 0.00000000E+00	 6.00000000E+00
					 5.00000000E-01	 0.00000000E+00	 6.00000000E+00
					 7.50000000E-01	 0.00000000E+00	 6.00000000E+00
					 5.00000000E-01	 0.00000000E+00	 6.50000000E+00
					 2.50000000E-01	 0.00000000E+00	 7.00000000E+00
					 5.00000000E-01	 0.00000000E+00	 7.00000000E+00
					 7.50000000E-01	 0.00000000E+00	 7.00000000E+00
					 5.00000000E-01	 0.00000000E+00	 7.50000000E+00
					 1.00000000E+00	 5.00000000E-01	 5.00000000E-01
					 1.00000000E+00	 2.50000000E-01	 1.00000000E+00
					 1.00000000E+00	 5.00000000E-01	 1.00000000E+00
					 1.00000000E+00	 7.50000000E-01	 1.00000000E+00
					 1.00000000E+00	 5.00000000E-01	 1.50000000E+00
					 1.00000000E+00	 2.50000000E-01	 2.00000000E+00
					 1.00000000E+00	 5.00000000E-01	 2.00000000E+00
					 1.00000000E+00	 7.50000000E-01	 2.00000000E+00
					 1.00000000E+00	 5.00000000E-01	 2.50000000E+00
					 1.00000000E+00	 2.50000000E-01	 3.00000000E+00
					 1.00000000E+00	 5.00000000E-01	 3.00000000E+00
					 1.00000000E+00	 7.50000000E-01	 3.00000000E+00
					 1.00000000E+00	 5.00000000E-01	 3.50000000E+00
					 1.00000000E+00	 2.50000000E-01	 4.00000000E+00
					 1.00000000E+00	 5.00000000E-01	 4.00000000E+00
					 1.00000000E+00	 7.50000000E-01	 4.00000000E+00
					 1.00000000E+00	 5.00000000E-01	 4.50000000E+00
					 1.00000000E+00	 2.50000000E-01	 5.00000000E+00
					 1.00000000E+00	 5.00000000E-01	 5.00000000E+00
					 1.00000000E+00	 7.50000000E-01	 5.00000000E+00
					 1.00000000E+00	 5.00000000E-01	 5.50000000E+00
					 1.00000000E+00	 2.50000000E-01	 6.00000000E+00
					 1.00000000E+00	 5.00000000E-01	 6.00000000E+00
					 1.00000000E+00	 7.50000000E-01	 6.00000000E+00
					 1.00000000E+00	 5.00000000E-01	 6.50000000E+00
					 1.00000000E+00	 2.50000000E-01	 7.00000000E+00
					 1.00000000E+00	 5.00000000E-01	 7.00000000E+00
					 1.00000000E+00	 7.50000000E-01	 7.00000000E+00
					 1.00000000E+00	 5.00000000E-01	 7.50000000E+00
					 5.00000000E-01	 1.00000000E+00	 5.00000000E-01
					 7.50000000E-01	 1.00000000E+00	 1.00000000E+00
					 5.00000000E-01	 1.00000000E+00	 1.00000000E+00
					 2.50000000E-01	 1.00000000E+00	 1.00000000E+00
					 5.00000000E-01	 1.00000000E+00	 1.50000000E+00
					 7.50000000E-01	 1.00000000E+00	 2.00000000E+00
					 5.00000000E-01	 1.00000000E+00	 2.00000000E+00
					 2.50000000E-01	 1.00000000E+00	 2.00000000E+00
					 5.00000000E-01	 1.00000000E+00	 2.50000000E+00
					 7.50000000E-01	 1.00000000E+00	 3.00000000E+00
					 5.00000000E-01	 1.00000000E+00	 3.00000000E+00
					 2.50000000E-01	 1.00000000E+00	 3.00000000E+00
					 5.00000000E-01	 1.00000000E+00	 3.50000000E+00
					 7.50000000E-01	 1.00000000E+00	 4.00000000E+00
					 5.00000000E-01	 1.00000000E+00	 4.00000000E+00
					 2.50000000E-01	 1.00000000E+00	 4.00000000E+00
					 5.00000000E-01	 1.00000000E+00	 4.50000000E+00
					 7.50000000E-01	 1.00000000E+00	 5.00000000E+00
					 5.00000000E-01	 1.00000000E+00	 5.00000000E+00
					 2.50000000E-01	 1.00000000E+00	 5.00000000E+00
					 5.00000000E-01	 1.00000000E+00	 5.50000000E+00
					 7.50000000E-01	 1.00000000E+00	 6.00000000E+00
					 5.00000000E-01	 1.00000000E+00	 6.00000000E+00
					 2.50000000E-01	 1.00000000E+00	 6.00000000E+00
					 5.00000000E-01	 1.00000000E+00	 6.50000000E+00
					 7.50000000E-01	 1.00000000E+00	 7.00000000E+00
					 5.00000000E-01	 1.00000000E+00	 7.00000000E+00
					 2.50000000E-01	 1.00000000E+00	 7.00000000E+00
					 5.00000000E-01	 1.00000000E+00	 7.50000000E+00
					 0.00000000E+00	 5.00000000E-01	 5.00000000E-01
					 0.00000000E+00	 7.50000000E-01	 1.00000000E+00
					 0.00000000E+00	 5.00000000E-01	 1.00000000E+00
					 0.00000000E+00	 2.50000000E-01	 1.00000000E+00
					 0.00000000E+00	 5.00000000E-01	 1.50000000E+00
					 0.00000000E+00	 7.50000000E-01	 2.00000000E+00
					 0.00000000E+00	 5.00000000E-01	 2.00000000E+00
					 0.00000000E+00	 2.50000000E-01	 2.00000000E+00
					 0.00000000E+00	 5.00000000E-01	 2.50000000E+00
					 0.00000000E+00	 7.50000000E-01	 3.00000000E+00
					 0.00000000E+00	 5.00000000E-01	 3.00000000E+00
					 0.00000000E+00	 2.50000000E-01	 3.00000000E+00
					 0.00000000E+00	 5.00000000E-01	 3.50000000E+00
					 0.00000000E+00	 7.50000000E-01	 4.00000000E+00
					 0.00000000E+00	 5.00000000E-01	 4.00000000E+00
					 0.00000000E+00	 2.50000000E-01	 4.00000000E+00
					 0.00000000E+00	 5.00000000E-01	 4.50000000E+00
					 0.00000000E+00	 7.50000000E-01	 5.00000000E+00
					 0.00000000E+00	 5.00000000E-01	 5.00000000E+00
					 0.00000000E+00	 2.50000000E-01	 5.00000000E+00
					 0.00000000E+00	 5.00000000E-01	 5.50000000E+00
					 0.00000000E+00	 7.50000000E-01	 6.00000000E+00
					 0.00000000E+00	 5.00000000E-01	 6.00000000E+00
					 0.00000000E+00	 2.50000000E-01	 6.00000000E+00
					 0.00000000E+00	 5.00000000E-01	 6.50000000E+00
					 0.00000000E+00	 7.50000000E-01	 7.00000000E+00
					 0.00000000E+00	 5.00000000E-01	 7.00000000E+00
					 0.00000000E+00	 2.50000000E-01	 7.00000000E+00
					 0.00000000E+00	 5.00000000E-01	 7.50000000E+00
					 5.00000000E-01	 5.00000000E-01	 5.00000000E-01
					 5.00000000E-01	 2.50000000E-01	 1.00000000E+00
					 2.50000000E-01	 5.00000000E-01	 1.00000000E+00
					 5.00000000E-01	 5.00000000E-01	 1.00000000E+00
					 7.50000000E-01	 5.00000000E-01	 1.00000000E+00
					 5.00000000E-01	 7.50000000E-01	 1.00000000E+00
					 5.00000000E-01	 5.00000000E-01	 1.50000000E+00
					 5.00000000E-01	 2.50000000E-01	 2.00000000E+00
					 2.50000000E-01	 5.00000000E-01	 2.00000000E+00
					 5.00000000E-01	 5.00000000E-01	 2.00000000E+00
					 7.50000000E-01	 5.00000000E-01	 2.00000000E+00
					 5.00000000E-01	 7.50000000E-01	 2.00000000E+00
					 5.00000000E-01	 5.00000000E-01	 2.50000000E+00
					 5.00000000E-01	 2.50000000E-01	 3.00000000E+00
					 2.50000000E-01	 5.00000000E-01	 3.00000000E+00
					 5.00000000E-01	 5.00000000E-01	 3.00000000E+00
					 7.50000000E-01	 5.00000000E-01	 3.00000000E+00
					 5.00000000E-01	 7.50000000E-01	 3.00000000E+00
					 5.00000000E-01	 5.00000000E-01	 3.50000000E+00
					 5.00000000E-01	 2.50000000E-01	 4.00000000E+00
					 2.50000000E-01	 5.00000000E-01	 4.00000000E+00
					 5.00000000E-01	 5.00000000E-01	 4.00000000E+00
					 7.50000000E-01	 5.00000000E-01	 4.00000000E+00
					 5.00000000E-01	 7.50000000E-01	 4.00000000E+00
					 5.00000000E-01	 5.00000000E-01	 4.50000000E+00
					 5.00000000E-01	 2.50000000E-01	 5.00000000E+00
					 2.50000000E-01	 5.00000000E-01	 5.00000000E+00
					 5.00000000E-01	 5.00000000E-01	 5.00000000E+00
					 7.50000000E-01	 5.00000000E-01	 5.00000000E+00
					 5.00000000E-01	 7.50000000E-01	 5.00000000E+00
					 5.00000000E-01	 5.00000000E-01	 5.50000000E+00
					 5.00000000E-01	 2.50000000E-01	 6.00000000E+00
					 2.50000000E-01	 5.00000000E-01	 6.00000000E+00
					 5.00000000E-01	 5.00000000E-01	 6.00000000E+00
					 7.50000000E-01	 5.00000000E-01	 6.00000000E+00
					 5.00000000E-01	 7.50000000E-01	 6.00000000E+00
					 5.00000000E-01	 5.00000000E-01	 6.50000000E+00
					 5.00000000E-01	 2.50000000E-01	 7.00000000E+00
					 2.50000000E-01	 5.00000000E-01	 7.00000000E+00
					 5.00000000E-01	 5.00000000E-01	 7.00000000E+00
					 7.50000000E-01	 5.00000000E-01	 7.00000000E+00
					 5.00000000E-01	 7.50000000E-01	 7.00000000E+00
					 5.00000000E-01	 5.00000000E-01	 7.50000000E+00
				</DataArray>
			</Points>
			<Cells>
				<DataArray type="Int32" Name="connectivity" format="ascii">
					0 9 94 18 60 104 221 191 8 92 93 19 103 219 220 192 61 102 218 189 9 1 12 94 104 33 133 221 10 11 95 92 105 132 222 219 102 32 131 218 18 94 15 3 191 221 162 78 93 96 16 17 220 223 163 190 189 218 160 77 94 12 2 15 221 133 63 162 95 13 14 96 222 134 161 223 218 131 62 160 60 104 221 191 58 108 227 195 103 219 220 192 107 225 226 196 59 106 224 193 104 33 133 221 108 35 137 227 105 132 222 219 109 136 228 225 106 34 135 224 191 221 162 78 195 227 166 80 220 223 163 190 226 229 167 194 193 224 164 79 221 133 63 162 227 137 65 166 222 134 161 223 228 138 165 229 224 135 64 164 58 108 227 195 56 112 233 199 107 225 226 196 111 231 232 200 57 110 230 197 108 35 137 227 112 37 141 233 109 136 228 225 113 140 234 231 110 36 139 230 195 227 166 80 199 233 170 82 226 229 167 194 232 235 171 198 197 230 168 81 227 137 65 166 233 141 67 170 228 138 165 229 234 142 169 235 230 139 66 168 56 112 233 199 54 116 239 203 111 231 232 200 115 237 238 204 55 114 236 201 112 37 141 233 116 39 145 239 113 140 234 231 117 144 240 237 114 38 143 236 199 233 170 82 203 239 174 84 232 235 171 198 238 241 175 202 201 236 172 83 233 141 67 170 239 145 69 174 234 142 169 235 240 146 173 241 236 143 68 172 54 116 239 203 52 120 245 207 115 237 238 204 119 243 244 208 53 118 242 205 116 39 145 239 120 41 149 245 117 144 240 237 121 148 246 243 118 40 147 242 203 239 174 84 207 245 178 86 238 241 175 202 244 247 179 206 205 242 176 85 239 145 69 174 245 149 71 178 240 146 173 241 246 150 177 247 242 147 70 176 52 120 245 207 50 124 251 211 119 243 244 208 123 249 250 212 51 122 248 209 120 41 149 245 124 43 153 251 121 148 246 243 125 152 252 249 122 42 151 248 207 245 178 86 211 251 182 88 244 247 179 206 250 253 183 210 209 248 180 87 245 149 71 178 251 153 73 182 246 150 177 247 252 154 181 253 248 151 72 180 50 124 251 211 48 128 257 215 123 249 250 212 127 255 256 216 49 126 254 213 124 43 153 251 128 45 157 257 125 152 252 249 129 156 258 255 126 44 155 254 211 251 182 88 215 257 186 90 250 253 183 210 256 259 187 214 213 254 184 89 251 153 73 182 257 157 75 186 252 154 181 253 258 158 185 259 254 155 74 184 48 128 257 215 4 21 99 30 127 255 256 216 20 97 98 31 47 130 260 217 128 45 157 257 21 5 24 99 129 156 258 255 22 23 100 97 130 46 159 260 215 257 186 90 30 99 27 7 256 259 187 214 98 101 28 29 217 260 188 91 257 157 75 186 99 24 6 27 258 158 185 259 100 25 26 101 260 159 76 188 
				</DataArray>
				<DataArray type="Int32" Name="offsets" format="ascii">
					20 40 60 80 100 120 140 160 180 200 220 240 260 280 300 320 340 360 380 400 420 440 460 480 500 520 540 560 580 600 620 640 
				</DataArray>
				<DataArray type="UInt8" Name="types" format="ascii">
					25 25 25 25 25 25 25 25 25 25 25 25 25 25 25 25 25 25 25 25 25 25 25 25 25 25 25 25 25 25 25 25 
				</DataArray>
			</Cells>
			<PointData>
				<DataArray type="Float32" Name="RAND" NumberOfComponents="3" ComponentName0="x" ComponentName1="y" ComponentName2="z" format="ascii">
					 0.00000000E+00	 0.00000000E+00	 0.00000000E+00
					 0.00000000E+00	 0.00000000E+00	 0.00000000E+00
					 0.00000000E+00	 0.00000000E+00	 0.00000000E+00
					 0.00000000E+00	 0.00000000E+00	 0.00000000E+00
					 5.11430000E-02	 5.11430000E-02	-5.11430000E-02
					-5.17539000E-02	 5.17539000E-02	-5.17539000E-02
					-5.11328000E-02	-5.11328000E-02	-5.11328000E-02
					 2.49695000E-02	-2.49695000E-02	-2.49695000E-02
					 0.00000000E+00	 0.00000000E+00	 0.00000000E+00
					 0.00000000E+00	 0.00000000E+00	 0.00000000E+00
					 0.00000000E+00	 0.00000000E+00	 0.00000000E+00
					 0.00000000E+00	 0.00000000E+00	 0.00000000E+00
					 0.00000000E+00	 0.00000000E+00	 0.00000000E+00
					 0.00000000E+00	 0.00000000E+00	 0.00000000E+00
					 0.00000000E+00	 0.00000000E+00	 0.00000000E+00
					 0.00000000E+00	 0.00000000E+00	 0.00000000E+00
					 0.00000000E+00	 0.00000000E+00	 0.00000000E+00
					 0.00000000E+00	 0.00000000E+00	 0.00000000E+00
					 0.00000000E+00	 0.00000000E+00	 0.00000000E+00
					 0.00000000E+00	 0.00000000E+00	 0.00000000E+00
					-0.00000000E+00	 6.56156000E-02	-6.56156000E-02
					-0.00000000E+00	 6.67719000E-02	-6.67719000E-02
					-0.00000000E+00	 6.60069000E-02	-6.60069000E-02
					-6.60037000E-02	-0.00000000E+00	-6.60037000E-02
					-6.67654000E-02	-0.00000000E+00	-6.67654000E-02
					-6.56059000E-02	-0.00000000E+00	-6.56059000E-02
					-0.00000000E+00	-6.51622000E-02	-6.51622000E-02
					-0.00000000E+00	-6.58625000E-02	-6.58625000E-02
					-0.00000000E+00	-6.46663000E-02	-6.46663000E-02
					 6.46697000E-02	-0.00000000E+00	-6.46697000E-02
					 6.58693000E-02	-0.00000000E+00	-6.58693000E-02
					 6.68968000E-02	-0.00000000E+00	-6.68968000E-02
					-6.23813000E-02	 6.23813000E-02	-0.00000000E+00
					-6.62416000E-02	 6.62416000E-02	-0.00000000E+00
					-5.98051000E-02	 5.98051000E-02	-0.00000000E+00
					-4.24136000E-02	 4.24136000E-02	-0.00000000E+00
					-1.65029000E-02	 1.65029000E-02	-0.00000000E+00
					 1.29027000E-02	-1.29027000E-02	 0.00000000E+00
					 3.95325000E-02	-3.95325000E-02	 0.00000000E+00
					 5.75167000E-02	-5.75167000E-02	 0.00000000E+00
					 6.28448000E-02	-6.28448000E-02	 0.00000000E+00
					 5.43148000E-02	-5.43148000E-02	 0.00000000E+00
					 3.38239000E-02	-3.38239000E-02	 0.00000000E+00
					 5.95534000E-03	-5.95534000E-03	 0.00000000E+00
					-2.30942000E-02	 2.30942000E-02	-0.00000000E+00
					-4.70888000E-02	 4.70888000E-02	-0.00000000E+00
					-6.14626000E-02	 6.14626000E-02	-0.00000000E+00
					 6.10502000E-02	 6.10502000E-02	-0.00000000E+00
					 4.67152000E-02	 4.67152000E-02	-0.00000000E+00
					 2.27914000E-02	 2.27914000E-02	-0.00000000E+00
					-6.17603000E-03	-6.17603000E-03	 0.00000000E+00
					-3.39697000E-02	-3.39697000E-02	 0.00000000E+00
					-5.44032000E-02	-5.44032000E-02	 0.00000000E+00
					-6.28948000E-02	-6.28948000E-02	 0.00000000E+00
					-5.75438000E-02	-5.75438000E-02	 0.00000000E+00
					-3.95468000E-02	-3.95468000E-02	 0.00000000E+00
					-1.29103000E-02	-1.29103000E-02	 0.00000000E+00
					 1.64988000E-02	 1.64988000E-02	-0.00000000E+00
					 4.24114000E-02	 4.24114000E-02	-0.00000000E+00
					 5.98039000E-02	 5.98039000E-02	-0.00000000E+00
					 6.62410000E-02	 6.62410000E-02	-0.00000000E+00
					 6.23810000E-02	 6.23810000E-02	-0.00000000E+00
					-6.23810000E-02	-6.23810000E-02	-0.00000000E+00
					-6.62410000E-02	-6.62410000E-02	-0.00000000E+00
					-5.98039000E-02	-5.98039000E-02	-0.00000000E+00
					-4.24113000E-02	-4.24113000E-02	-0.00000000E+00
					-1.64987000E-02	-1.64987000E-02	-0.00000000E+00
					 1.29105000E-02	 1.29105000E-02	 0.00000000E+00
					 3.95471000E-02	 3.95471000E-02	 0.00000000E+00
					 5.75443000E-02	 5.75443000E-02	 0.00000000E+00
					 6.28958000E-02	 6.28958000E-02	 0.00000000E+00
					 5.44051000E-02	 5.44051000E-02	 0.00000000E+00
					 3.39730000E-02	 3.39730000E-02	 0.00000000E+00
					 6.18133000E-03	 6.18133000E-03	 0.00000000E+00
					-2.27837000E-02	-2.27837000E-02	-0.00000000E+00
					-4.67049000E-02	-4.67049000E-02	-0.00000000E+00
					-6.10381000E-02	-6.10381000E-02	-0.00000000E+00
					 6.23806000E-02	-6.23806000E-02	-0.00000000E+00
					 6.62403000E-02	-6.62403000E-02	-0.00000000E+00
					 5.98027000E-02	-5.98027000E-02	-0.00000000E+00
					 4.24091000E-02	-4.24091000E-02	-0.00000000E+00
					 1.64945000E-02	-1.64945000E-02	-0.00000000E+00
					-1.29186000E-02	 1.29186000E-02	 0.00000000E+00
					-3.95629000E-02	 3.95629000E-02	 0.00000000E+00
					-5.75750000E-02	 5.75750000E-02	 0.00000000E+00
					-6.29541000E-02	 6.29541000E-02	 0.00000000E+00
					-5.45105000E-02	 5.45105000E-02	 0.00000000E+00
					-3.41497000E-02	 3.41497000E-02	 0.00000000E+00
					-6.45198000E-03	 6.45198000E-03	 0.00000000E+00
					 2.24092000E-02	-2.24092000E-02	-0.00000000E+00
					 4.62400000E-02	-4.62400000E-02	-0.00000000E+00
					 2.94468000E-02	-2.94468000E-02	-0.00000000E+00
					 0.00000000E+00	 0.00000000E+00	 0.00000000E+00
					 0.00000000E+00	 0.00000000E+00	 0.00000000E+00
					 0.00000000E+00	 0.00000000E+00	 0.00000000E+00
					 0.00000000E+00	 0.00000000E+00	 0.00000000E+00
					 0.00000000E+00	 0.00000000E+00	 0.00000000E+00
					-0.00000000E+00	-0.00000000E+00	-9.82920000E-02
					-0.00000000E+00	-0.00000000E+00	-9.76244000E-02
					-0.00000000E+00	-0.00000000E+00	-9.93861000E-02
					-0.00000000E+00	-0.00000000E+00	-9.82872000E-02
					-0.00000000E+00	-0.00000000E+00	-1.00216000E-01
					-0.00000000E+00	 9.33979000E-02	-0.00000000E+00
					-0.00000000E+00	 9.77736000E-02	-0.00000000E+00
					-0.00000000E+00	 9.91779000E-02	-0.00000000E+00
					-0.00000000E+00	 9.77741000E-02	-0.00000000E+00
					-0.00000000E+00	 8.95410000E-02	-0.00000000E+00
					-0.00000000E+00	 6.26013000E-02	-0.00000000E+00
					-0.00000000E+00	 6.35012000E-02	-0.00000000E+00
					-0.00000000E+00	 6.26030000E-02	-0.00000000E+00
					-0.00000000E+00	 2.47053000E-02	-0.00000000E+00
					 0.00000000E+00	-1.90537000E-02	 0.00000000E+00
					 0.00000000E+00	-1.93246000E-02	 0.00000000E+00
					 0.00000000E+00	-1.90480000E-02	 0.00000000E+00
					 0.00000000E+00	-5.92008000E-02	 0.00000000E+00
					 0.00000000E+00	-8.49267000E-02	 0.00000000E+00
					 0.00000000E+00	-8.61363000E-02	 0.00000000E+00
					 0.00000000E+00	-8.49067000E-02	 0.00000000E+00
					 0.00000000E+00	-9.41285000E-02	 0.00000000E+00
					 0.00000000E+00	-8.02631000E-02	 0.00000000E+00
					 0.00000000E+00	-8.13809000E-02	 0.00000000E+00
					 0.00000000E+00	-8.01978000E-02	 0.00000000E+00
					 0.00000000E+00	-5.07351000E-02	 0.00000000E+00
					 0.00000000E+00	-9.01274000E-03	 0.00000000E+00
					 0.00000000E+00	-9.05191000E-03	 0.00000000E+00
					 0.00000000E+00	-8.84951000E-03	 0.00000000E+00
					-0.00000000E+00	 3.43976000E-02	-0.00000000E+00
					-0.00000000E+00	 6.91382000E-02	-0.00000000E+00
					-0.00000000E+00	 7.02875000E-02	-0.00000000E+00
					-0.00000000E+00	 6.94146000E-02	-0.00000000E+00
					-0.00000000E+00	 9.17926000E-02	-0.00000000E+00
					-9.33979000E-02	-0.00000000E+00	-0.00000000E+00
					-9.77741000E-02	-0.00000000E+00	-0.00000000E+00
					-9.91779000E-02	-0.00000000E+00	-0.00000000E+00
					-9.77736000E-02	-0.00000000E+00	-0.00000000E+00
					-8.95410000E-02	-0.00000000E+00	-0.00000000E+00
					-6.26030000E-02	-0.00000000E+00	-0.00000000E+00
					-6.35012000E-02	-0.00000000E+00	-0.00000000E+00
					-6.26013000E-02	-0.00000000E+00	-0.00000000E+00
					-2.47053000E-02	-0.00000000E+00	-0.00000000E+00
					 1.90481000E-02	 0.00000000E+00	 0.00000000E+00
					 1.93247000E-02	 0.00000000E+00	 0.00000000E+00
					 1.90539000E-02	 0.00000000E+00	 0.00000000E+00
					 5.92010000E-02	 0.00000000E+00	 0.00000000E+00
					 8.49068000E-02	 0.00000000E+00	 0.00000000E+00
					 8.61366000E-02	 0.00000000E+00	 0.00000000E+00
					 8.49273000E-02	 0.00000000E+00	 0.00000000E+00
					 9.41292000E-02	 0.00000000E+00	 0.00000000E+00
					 8.01984000E-02	 0.00000000E+00	 0.00000000E+00
					 8.13823000E-02	 0.00000000E+00	 0.00000000E+00
					 8.02652000E-02	 0.00000000E+00	 0.00000000E+00
					 5.07375000E-02	 0.00000000E+00	 0.00000000E+00
					 8.85139000E-03	 0.00000000E+00	 0.00000000E+00
					 9.05578000E-03	 0.00000000E+00	 0.00000000E+00
					 9.01854000E-03	 0.00000000E+00	 0.00000000E+00
					-3.43920000E-02	-0.00000000E+00	-0.00000000E+00
					-6.94109000E-02	-0.00000000E+00	-0.00000000E+00
					-7.02800000E-02	-0.00000000E+00	-0.00000000E+00
					-6.91271000E-02	-0.00000000E+00	-0.00000000E+00
					-9.17839000E-02	-0.00000000E+00	-0.00000000E+00
					-0.00000000E+00	-9.33974000E-02	-0.00000000E+00
					-0.00000000E+00	-9.77731000E-02	-0.00000000E+00
					-0.00000000E+00	-9.91769000E-02	-0.00000000E+00
					-0.00000000E+00	-9.77726000E-02	-0.00000000E+00
					-0.00000000E+00	-8.95391000E-02	-0.00000000E+00
					-0.00000000E+00	-6.25996000E-02	-0.00000000E+00
					-0.00000000E+00	-6.34978000E-02	-0.00000000E+00
					-0.00000000E+00	-6.25979000E-02	-0.00000000E+00
					-0.00000000E+00	-2.46990000E-02	-0.00000000E+00
					 0.00000000E+00	 1.90597000E-02	 0.00000000E+00
					 0.00000000E+00	 1.93366000E-02	 0.00000000E+00
					 0.00000000E+00	 1.90657000E-02	 0.00000000E+00
					 0.00000000E+00	 5.92237000E-02	 0.00000000E+00
					 0.00000000E+00	 8.49487000E-02	 0.00000000E+00
					 0.00000000E+00	 8.61803000E-02	 0.00000000E+00
					 0.00000000E+00	 8.49714000E-02	 0.00000000E+00
					 0.00000000E+00	 9.42111000E-02	 0.00000000E+00
					 0.00000000E+00	 8.03371000E-02	 0.00000000E+00
					 0.00000000E+00	 8.15286000E-02	 0.00000000E+00
					 0.00000000E+00	 8.04150000E-02	 0.00000000E+00
					 0.00000000E+00	 5.09811000E-02	 0.00000000E+00
					 0.00000000E+00	 9.20103000E-03	 0.00000000E+00
					 0.00000000E+00	 9.42706000E-03	 0.00000000E+00
					 0.00000000E+00	 9.40120000E-03	 0.00000000E+00
					-0.00000000E+00	-3.38799000E-02	-0.00000000E+00
					-0.00000000E+00	-6.88153000E-02	-0.00000000E+00
					-0.00000000E+00	-6.96456000E-02	-0.00000000E+00
					-0.00000000E+00	-6.84714000E-02	-0.00000000E+00
					-0.00000000E+00	-9.10813000E-02	-0.00000000E+00
					 9.33974000E-02	-0.00000000E+00	-0.00000000E+00
					 9.77726000E-02	-0.00000000E+00	-0.00000000E+00
					 9.91769000E-02	-0.00000000E+00	-0.00000000E+00
					 9.77731000E-02	-0.00000000E+00	-0.00000000E+00
					 8.95392000E-02	-0.00000000E+00	-0.00000000E+00
					 6.25979000E-02	-0.00000000E+00	-0.00000000E+00
					 6.34978000E-02	-0.00000000E+00	-0.00000000E+00
					 6.25997000E-02	-0.00000000E+00	-0.00000000E+00
					 2.46990000E-02	-0.00000000E+00	-0.00000000E+00
					-1.90657000E-02	 0.00000000E+00	 0.00000000E+00
					-1.93365000E-02	 0.00000000E+00	 0.00000000E+00
					-1.90595000E-02	 0.00000000E+00	 0.00000000E+00
					-5.92235000E-02	 0.00000000E+00	 0.00000000E+00
					-8.49712000E-02	 0.00000000E+00	 0.00000000E+00
					-8.61799000E-02	 0.00000000E+00	 0.00000000E+00
					-8.49481000E-02	 0.00000000E+00	 0.00000000E+00
					-9.42103000E-02	 0.00000000E+00	 0.00000000E+00
					-8.04143000E-02	 0.00000000E+00	 0.00000000E+00
					-8.15271000E-02	 0.00000000E+00	 0.00000000E+00
					-8.03350000E-02	 0.00000000E+00	 0.00000000E+00
					-5.09786000E-02	 0.00000000E+00	 0.00000000E+00
					-9.39918000E-03	 0.00000000E+00	 0.00000000E+00
					-9.42299000E-03	 0.00000000E+00	 0.00000000E+00
					-9.19508000E-03	 0.00000000E+00	 0.00000000E+00
					 3.38858000E-02	-0.00000000E+00	-0.00000000E+00
					 6.84754000E-02	-0.00000000E+00	-0.00000000E+00
					 6.96535000E-02	-0.00000000E+00	-0.00000000E+00
					 6.88267000E-02	-0.00000000E+00	-0.00000000E+00
					 9.10905000E-02	-0.00000000E+00	-0.00000000E+00
					 0.00000000E+00	 0.00000000E+00	 0.00000000E+00
					 0.00000000E+00	 0.00000000E+00	 0.00000000E+00
					 0.00000000E+00	 0.00000000E+00	 0.00000000E+00
					 0.00000000E+00	 0.00000000E+00	 0.00000000E+00
					 0.00000000E+00	 0.00000000E+00	 0.00000000E+00
					 0.00000000E+00	 0.00000000E+00	 0.00000000E+00
					 0.00000000E+00	 0.00000000E+00	 0.00000000E+00
					 0.00000000E+00	 0.00000000E+00	 0.00000000E+00
					 0.00000000E+00	 0.00000000E+00	 0.00000000E+00
					 0.00000000E+00	 0.00000000E+00	 0.00000000E+00
					 0.00000000E+00	 0.00000000E+00	 0.00000000E+00
					 0.00000000E+00	 0.00000000E+00	 0.00000000E+00
					 0.00000000E+00	 0.00000000E+00	 0.00000000E+00
					 0.00000000E+00	 0.00000000E+00	 0.00000000E+00
					 0.00000000E+00	 0.00000000E+00	 0.00000000E+00
					 0.00000000E+00	 0.00000000E+00	 0.00000000E+00
					 0.00000000E+00	 0.00000000E+00	 0.00000000E+00
					 0.00000000E+00	 0.00000000E+00	 0.00000000E+00
					 0.00000000E+00	 0.00000000E+00	 0.00000000E+00
					 0.00000000E+00	 0.00000000E+00	 0.00000000E+00
					 0.00000000E+00	 0.00000000E+00	 0.00000000E+00
					 0.00000000E+00	 0.00000000E+00	 0.00000000E+00
					 0.00000000E+00	 0.00000000E+00	 0.00000000E+00
					 0.00000000E+00	 0.00000000E+00	 0.00000000E+00