<?xml version="1.0"?>
<VTKFile type="UnstructuredGrid" version="0.1" byte_order="LittleEndian">
	<UnstructuredGrid>
		<Piece NumberOfPoints="90" NumberOfCells="32">
			<Points>
				<DataArray type="Float64" NumberOfComponents="3" format="ascii">
					 0.00000000E+00	 0.00000000E+00	 0.00000000E+00
					 1.00000000E+00	 0.00000000E+00	 0.00000000E+00
					 1.00000000E+00	 1.00000000E+00	 0.00000000E+00
					 0.00000000E+00	 1.00000000E+00	 0.00000000E+00
					 0.00000000E+00	 0.00000000E+00	 8.00000000E+00
					 1.00000000E+00	 0.00000000E+00	 8.00000000E+00
					 1.00000000E+00	 1.00000000E+00	 8.00000000E+00
					 0.00000000E+00	 1.00000000E+00	 8.00000000E+00
					 5.00000000E-01	 0.00000000E+00	 0.00000000E+00
					 1.00000000E+00	 5.00000000E-01	 0.00000000E+00
					 5.00000000E-01	 1.00000000E+00	 0.00000000E+00
					 0.00000000E+00	 5.00000000E-01	 0.00000000E+00
					 5.00000000E-01	 0.00000000E+00	 8.00000000E+00
					 1.00000000E+00	 5.00000000E-01	 8.00000000E+00
					 5.00000000E-01	 1.00000000E+00	 8.00000000E+00
					 0.00000000E+00	 5.00000000E-01	 8.00000000E+00
					 1.00000000E+00	 0.00000000E+00	 1.00000000E+00
					 1.00000000E+00	 0.00000000E+00	 2.00000000E+00
					 1.00000000E+00	 0.00000000E+00	 3.00000000E+00
					 1.00000000E+00	 0.00000000E+00	 4.00000000E+00
					 1.00000000E+00	 0.00000000E+00	 5.00000000E+00
					 1.00000000E+00	 0.00000000E+00	 6.00000000E+00
					 1.00000000E+00	 0.00000000E+00	 7.00000000E+00
					 0.00000000E+00	 0.00000000E+00	 7.00000000E+00
					 0.00000000E+00	 0.00000000E+00	 6.00000000E+00
					 0.00000000E+00	 0.00000000E+00	 5.00000000E+00
					 0.00000000E+00	 0.00000000E+00	 4.00000000E+00
					 0.00000000E+00	 0.00000000E+00	 3.00000000E+00
					 0.00000000E+00	 0.00000000E+00	 2.00000000E+00
					 0.00000000E+00	 0.00000000E+00	 1.00000000E+00
					 1.00000000E+00	 1.00000000E+00	 1.00000000E+00
					 1.00000000E+00	 1.00000000E+00	 2.00000000E+00
					 1.00000000E+00	 1.00000000E+00	 3.00000000E+00
					 1.00000000E+00	 1.00000000E+00	 4.00000000E+00
					 1.00000000E+00	 1.00000000E+00	 5.00000000E+00
					 1.00000000E+00	 1.00000000E+00	 6.00000000E+00
					 1.00000000E+00	 1.00000000E+00	 7.00000000E+00
					 0.00000000E+00	 1.00000000E+00	 1.00000000E+00
					 0.00000000E+00	 1.00000000E+00	 2.00000000E+00
					 0.00000000E+00	 1.00000000E+00	 3.00000000E+00
					 0.00000000E+00	 1.00000000E+00	 4.00000000E+00
					 0.00000000E+00	 1.00000000E+00	 5.00000000E+00
					 0.00000000E+00	 1.00000000E+00	 6.00000000E+00
					 0.00000000E+00	 1.00000000E+00	 7.00000000E+00
					 5.00000000E-01	 5.00000000E-01	 0.00000000E+00
					 5.00000000E-01	 5.00000000E-01	 8.00000000E+00
					 5.00000000E-01	 0.00000000E+00	 1.00000000E+00
					 5.00000000E-01	 0.00000000E+00	 2.00000000E+00
					 5.00000000E-01	 0.00000000E+00	 3.00000000E+00
					 5.00000000E-01	 0.00000000E+00	 4.00000000E+00
					 5.00000000E-01	 0.00000000E+00	 5.00000000E+00
					 5.00000000E-01	 0.00000000E+00	 6.00000000E+00
					 5.00000000E-01	 0.00000000E+00	 7.00000000E+00
					 1.00000000E+00	 5.00000000E-01	 1.00000000E+00
					 1.00000000E+00	 5.00000000E-01	 2.00000000E+00
					 1.00000000E+00	 5.00000000E-01	 3.00000000E+00
					 1.00000000E+00	 5.00000000E-01	 4.00000000E+00
					 1.00000000E+00	 5.00000000E-01	 5.00000000E+00
					 1.00000000E+00	 5.00000000E-01	 6.00000000E+00
					 1.00000000E+00	 5.00000000E-01	 7.00000000E+00
					 5.00000000E-01	 1.00000000E+00	 1.00000000E+00
					 5.00000000E-01	 1.00000000E+00	 2.00000000E+00
					 5.00000000E-01	 1.00000000E+00	 3.00000000E+00
					 5.00000000E-01	 1.00000000E+00	 4.00000000E+00
					 5.00000000E-01	 1.00000000E+00	 5.00000000E+00
					 5.00000000E-01	 1.00000000E+00	 6.00000000E+00
					 5.00000000E-01	 1.00000000E+00	 7.00000000E+00
					 0.00000000E+00	 5.00000000E-01	 1.00000000E+00
					 0.00000000E+00	 5.00000000E-01	 2.00000000E+00
					 0.00000000E+00	 5.00000000E-01	 3.00000000E+00
					 0.00000000E+00	 5.00000000E-01	 4.00000000E+00
					 0.00000000E+00	 5.00000000E-01	 5.00000000E+00
					 0.00000000E+00	 5.00000000E-01	 6.00000000E+00
					 0.00000000E+00	 5.00000000E-01	 7.00000000E+00
					 5.00000000E-01	 5.00000000E-01	 1.00000000E+00
					 5.00000000E-01	 5.00000000E-01	 2.00000000E+00
					 5.00000000E-01	 5.00000000E-01	 3.00000000E+00
					 5.00000000E-01	 5.00000000E-01	 4.00000000E+00
					 5.00000000E-01	 5.00000000E-01	 5.00000000E+00
					 5.00000000E-01	 5.00000000E-01	 6.00000000E+00
					 5.00000000E-01	 5.00000000E-01	 7.00000000E+00
					 1.00000000E+00	 0.00000000E+00	 4.00000000E+00
					 0.00000000E+00	 0.00000000E+00	 4.00000000E+00
					 1.00000000E+00	 1.00000000E+00	 4.00000000E+00
					 0.00000000E+00	 1.00000000E+00	 4.00000000E+00
					 5.00000000E-01	 0.00000000E+00	 4.00000000E+00
					 1.00000000E+00	 5.00000000E-01	 4.00000000E+00
					 5.00000000E-01	 1.00000000E+00	 4.00000000E+00
					 0.00000000E+00	 5.00000000E-01	 4.00000000E+00
					 5.00000000E-01	 5.00000000E-01	 4.00000000E+00
				</DataArray>
			</Points>
			<Cells>
				<DataArray type="Int32" Name="connectivity" format="ascii">
					0 8 44 11 29 46 74 67 8 1 9 44 46 16 53 74 11 44 10 3 67 74 60 37 44 9 2 10 74 53 30 60 29 46 74 67 28 47 75 68 46 16 53 74 47 17 54 75 67 74 60 37 68 75 61 38 74 53 30 60 75 54 31 61 28 47 75 68 27 48 76 69 47 17 54 75 48 18 55 76 68 75 61 38 69 76 62 39 75 54 31 61 76 55 32 62 27 48 76 69 26 49 77 70 48 18 55 76 49 19 56 77 69 76 62 39 70 77 63 40 76 55 32 62 77 56 33 63 82 85 89 88 25 50 78 71 85 81 86 89 50 20 57 78 88 89 87 84 71 78 64 41 89 86 83 87 78 57 34 64 25 50 78 71 24 51 79 72 50 20 57 78 51 21 58 79 71 78 64 41 72 79 65 42 78 57 34 64 79 58 35 65 24 51 79 72 23 52 80 73 51 21 58 79 52 22 59 80 72 79 65 42 73 80 66 43 79 58 35 65 80 59 36 66 23 52 80 73 4 12 45 15 52 22 59 80 12 5 13 45 73 80 66 43 15 45 14 7 80 59 36 66 45 13 6 14 
				</DataArray>
				<DataArray type="Int32" Name="offsets" format="ascii">
					8 16 24 32 40 48 56 64 72 80 88 96 104 112 120 128 136 144 152 160 168 176 184 192 200 208 216 224 232 240 248 256 
				</DataArray>
				<DataArray type="UInt8" Name="types" format="ascii">
					12 12 12 12 12 12 12 12 12 12 12 12 12 12 12 12 12 12 12 12 12 12 12 12 12 12 12 12 12 12 12 12 
				</DataArray>
			</Cells>
			<PointData>
				<DataArray type="Float32" Name="U" NumberOfComponents="3" ComponentName0="D1" ComponentName1="D2" ComponentName2="D3" format="ascii">
					 0.00000000E+00	 0.00000000E+00	 0.00000000E+00
					 0.00000000E+00	 0.00000000E+00	 0.00000000E+00
					 0.00000000E+00	 0.00000000E+00	 0.00000000E+00
					 0.00000000E+00	 0.00000000E+00	 0.00000000E+00
					 1.01656000E+04	-1.01656000E+04	-5.45697000E-12
					 1.01656000E+04	 1.01656000E+04	-1.38721000E-09
					-1.01656000E+04	 1.01656000E+04	 2.07820000E-10
					-1.01656000E+04	-1.01656000E+04	 1.58252000E-09
					 0.00000000E+00	 0.00000000E+00	 0.00000000E+00
					 0.00000000E+00	 0.00000000E+00	 0.00000000E+00
					 0.00000000E+00	 0.00000000E+00	 0.00000000E+00
					 0.00000000E+00	 0.00000000E+00	 0.00000000E+00
					 1.07624000E+04	 8.41283000E-11	-7.14124000E-10
					-2.72848000E-12	 1.07624000E+04	-6.01517000E-10
					-1.07624000E+04	 9.97716000E-10	 9.16771000E-10
					-9.06539000E-10	-1.07624000E+04	 8.13088000E-10
					 6.00276000E+03	 6.00276000E+03	-5.79575000E-10
					 6.66482000E+03	 6.66482000E+03	-6.50743000E-10
					 1.83330000E+03	 1.83330000E+03	 2.31921000E-11
					-4.50691000E+03	-4.50691000E+03	 8.92669000E-10
					-7.12176000E+03	-7.12176000E+03	 1.09003000E-09
					-4.03870000E+03	-4.03870000E+03	 4.22006000E-10
					 2.61438000E+03	 2.61438000E+03	-4.14730000E-10
					 2.61438000E+03	-2.61438000E+03	 5.52518000E-11
					-4.03870000E+03	 4.03870000E+03	 3.66072000E-11
					-7.12176000E+03	 7.12176000E+03	-3.29692000E-12
					-4.50691000E+03	 4.50691000E+03	-2.91038000E-11
					 1.83330000E+03	-1.83330000E+03	-5.86624000E-11
					 6.66482000E+03	-6.66482000E+03	-7.70797000E-11
					 6.00276000E+03	-6.00276000E+03	-7.00311000E-11
					-6.00276000E+03	 6.00276000E+03	-3.54703000E-11
					-6.66482000E+03	 6.66482000E+03	-1.10958000E-10
					-1.83330000E+03	 1.83330000E+03	-1.44610000E-10
					 4.50691000E+03	-4.50691000E+03	-1.14596000E-10
					 7.12176000E+03	-7.12176000E+03	-4.41105000E-11
					 4.03870000E+03	-4.03870000E+03	 3.75167000E-11
					-2.61438000E+03	 2.61438000E+03	 1.12095000E-10
					-6.00276000E+03	-6.00276000E+03	 4.73392000E-10
					-6.66482000E+03	-6.66482000E+03	 4.68390000E-10
					-1.83330000E+03	-1.83330000E+03	-2.19188000E-10
					 4.50691000E+03	 4.50691000E+03	-1.03773000E-09
					 7.12176000E+03	 7.12176000E+03	-1.13630000E-09
					 4.03870000E+03	 4.03870000E+03	-3.43789000E-10
					-2.61438000E+03	-2.61438000E+03	 5.78893000E-10
					 0.00000000E+00	 0.00000000E+00	 0.00000000E+00
					 8.66748000E-10	-9.77423000E-10	 1.00727000E-10
					 5.94938000E+03	-7.68523000E-10	-3.33330000E-10
					 6.67224000E+03	-9.25866000E-10	-3.69255000E-10
					 1.83299000E+03	-1.59844000E-10	-1.59162000E-11
					-4.49994000E+03	 8.09905000E-10	 4.32919000E-10
					-7.16306000E+03	 1.00022000E-09	 5.43423000E-10
					-3.82670000E+03	 2.41471000E-10	 2.10804000E-10
					 1.59466000E+03	-8.64929000E-10	-1.30967000E-10
					 6.07542000E-10	 5.94938000E+03	-3.15367000E-10
					 7.46923000E-10	 6.67224000E+03	-3.85171000E-10
					 1.69166000E-10	 1.83299000E+03	-6.23004000E-11
					-6.48242000E-10	-4.49994000E+03	 3.86965000E-10
					-8.89827000E-10	-7.16306000E+03	 5.28416000E-10
					-2.60343000E-10	-3.82670000E+03	 2.15550000E-10
					 7.36236000E-10	 1.59466000E+03	-1.10958000E-10
					-5.94938000E+03	-6.33008000E-10	 2.23054000E-10
					-6.67224000E+03	-6.97355000E-10	 1.74850000E-10
					-1.83299000E+03	-7.52607000E-11	-1.90084000E-10
					 4.49994000E+03	 5.06589000E-10	-5.81281000E-10
					 7.16306000E+03	 4.40195000E-10	-5.87534000E-10
					 3.82670000E+03	-9.27685000E-11	-1.37447000E-10
					-1.59466000E+03	-7.11225000E-10	 3.04453000E-10
					 4.59295000E-10	-5.94938000E+03	 2.03272000E-10
					 5.04428000E-10	-6.67224000E+03	 1.95541000E-10
					 8.77662000E-11	-1.83299000E+03	-1.46201000E-10
					-3.41970000E-10	 4.49994000E+03	-5.38648000E-10
					-3.18778000E-10	 7.16306000E+03	-5.66388000E-10
					 8.45830000E-11	 3.82670000E+03	-1.37788000E-10
					 5.72527000E-10	-1.59466000E+03	 2.77851000E-10
					 4.83851000E-10	-6.47105000E-10	-5.85487000E-11
					 6.17888000E-10	-8.17749000E-10	-9.94191000E-11
					 1.18689000E-10	-1.06411000E-10	-1.05501000E-10
					-4.94708000E-10	 6.73367000E-10	-7.37259000E-11
					-6.07542000E-10	 7.51243000E-10	-2.18279000E-11
					-7.63976000E-11	 5.32054000E-11	 4.18368000E-11
					 6.12999000E-10	-7.28051000E-10	 8.93579000E-11
					-4.50691000E+03	-4.50691000E+03	 8.92669000E-10
					-4.50691000E+03	 4.50691000E+03	-2.91038000E-11
					 4.50691000E+03	-4.50691000E+03	-1.14596000E-10
					 4.50691000E+03	 4.50691000E+03	-1.03773000E-09
					-4.49994000E+03	 8.09905000E-10	 4.32919000E-10
					-6.48242000E-10	-4.49994000E+03	 3.86965000E-10
					 4.49994000E+03	 5.06589000E-10	-5.81281000E-10
					-3.41970000E-10	 4.49994000E+03	-5.38648000E-10
					-4.94708000E-10	 6.73367000E-10	-7.37259000E-11
				</DataArray>
				<DataArray type="Float32" Name="SENFREQ" NumberOfComponents="2" ComponentName0="DFDN" ComponentName1="DFDNFIL" format="ascii">
					 0.00000000E+00	 0.00000000E+00
					 0.00000000E+00	 0.00000000E+00
					 0.00000000E+00	 0.00000000E+00
					 0.00000000E+00	 0.00000000E+00
					-6.46220000E+12	-5.45393000E-01
					-6.46220000E+12	-5.45393000E-01
					-6.46220000E+12	-5.45393000E-01
					-6.46220000E+12	-5.45393000E-01
					 0.00000000E+00	 0.00000000E+00
					 0.00000000E+00	 0.00000000E+00
					 0.00000000E+00	 0.00000000E+00
					 0.00000000E+00	 0.00000000E+00
					-2.97616000E+12	-2.51180000E-01
					-2.97616000E+12	-2.51180000E-01
					-2.97616000E+12	-2.51180000E-01
					-2.97616000E+12	-2.51180000E-01
					-3.74112000E+12	-3.15740000E-01
					-3.94094000E+12	-3.32605000E-01
					 9.39955000E+12	 7.93297000E-01
					 0.00000000E+00	 0.00000000E+00
					-1.04949000E+13	-8.85741000E-01
					 1.76293000E+12	 1.48787000E-01
					 4.10278000E+12	 3.46264000E-01
					 4.10278000E+12	 3.46264000E-01
					 1.76293000E+12	 1.48787000E-01
					-1.04949000E+13	-8.85741000E-01
					 0.00000000E+00	 0.00000000E+00
					 9.39955000E+12	 7.93297000E-01
					-3.94094000E+12	-3.32605000E-01
					-3.74112000E+12	-3.15740000E-01
					-3.74112000E+12	-3.15740000E-01
					-3.94094000E+12	-3.32605000E-01
					 9.39955000E+12	 7.93297000E-01
					 0.00000000E+00	 0.00000000E+00
					-1.04949000E+13	-8.85741000E-01
					 1.76293000E+12	 1.48787000E-01
					 4.10278000E+12	 3.46264000E-01
					-3.74112000E+12	-3.15740000E-01
					-3.94094000E+12	-3.32605000E-01
					 9.39955000E+12	 7.93297000E-01
					 0.00000000E+00	 0.00000000E+00
					-1.04949000E+13	-8.85741000E-01
					 1.76293000E+12	 1.48787000E-01
					 4.10278000E+12	 3.46264000E-01
					 0.00000000E+00	 0.00000000E+00
					 7.89537000E+09	 6.66349000E-04
					-3.84980000E+12	-3.24913000E-01
					-4.35871000E+12	-3.67863000E-01
					 1.11061000E+13	 9.37327000E-01
					 0.00000000E+00	 0.00000000E+00
					-1.18487000E+13	-1.00000000E+00
					 2.71782000E+12	 2.29376000E-01
					 2.49325000E+12	 2.10424000E-01
					-3.84980000E+12	-3.24913000E-01
					-4.35871000E+12	-3.67863000E-01
					 1.11061000E+13	 9.37327000E-01
					 0.00000000E+00	 0.00000000E+00
					-1.18487000E+13	-1.00000000E+00
					 2.71782000E+12	 2.29376000E-01
					 2.49325000E+12	 2.10424000E-01
					-3.84980000E+12	-3.24913000E-01
					-4.35871000E+12	-3.67863000E-01
					 1.11061000E+13	 9.37327000E-01
					 0.00000000E+00	 0.00000000E+00
					-1.18487000E+13	-1.00000000E+00
					 2.71782000E+12	 2.29376000E-01
					 2.49325000E+12	 2.10424000E-01
					-3.84980000E+12	-3.24913000E-01
					-4.35871000E+12	-3.67863000E-01
					 1.11061000E+13	 9.37327000E-01
					 0.00000000E+00	 0.00000000E+00
					-1.18487000E+13	-1.00000000E+00
					 2.71782000E+12	 2.29376000E-01
					 2.49325000E+12	 2.10424000E-01
					 0.00000000E+00	 0.00000000E+00
					 0.00000000E+00	 0.00000000E+00
					 0.00000000E+00	 0.00000000E+00
					 0.00000000E+00	 0.00000000E+00
					 0.00000000E+00	 0.00000000E+00
					 0.00000000E+00	 0.00000000E+00
					 0.00000000E+00	 0.00000000E+00
					 0.00000000E+00	 0.00000000E+00
					 0.00000000E+00	 0.00000000E+00
					 0.00000000E+00	 0.00000000E+00
					 0.00000000E+00	 0.00000000E+00
					 0.00000000E+00	 0.00000000E+00
					 0.00000000E+00	 0.00000000E+00
					 0.00000000E+00	 0.00000000E+00
					 0.00000000E+00	 0.00000000E+00
					 0.00000000E+00	 0.00000000E+00
				</DataArray>
			</PointData>
		</Piece>
	</UnstructuredGrid>
</VTKFile>