    1C
    1UModel: beam                                                       
    1UUSER                                                              
    1UDATE              25.january.2020                                 
    1UTIME              14:46:51                                        
    1UHOST                                                              
    1UPGM               CalculiX                                        
    1UVERSION           Version 2.16                             
    1UCOMPILETIME       Tue  7 Jan 19:57:43 CET 2020                    
    1UDIR                                                               
    1UDBN                                                               
    1UMAT    1EL                                                        
    2C                            40                                     1
 -1         6-1.49012E-08-2.50000E-02 4.00000E-02
 -1         7-1.49012E-08-2.50000E-02-4.00000E-02
 -1         8-1.49012E-08 2.50000E-02-4.00000E-02
 -1         9-1.49012E-08 2.50000E-02 4.00000E-02
 -1        10-1.49012E-08-2.50000E-02 0.00000E+00
 -1        11-1.49012E-08 0.00000E+00-4.00000E-02
 -1        12-1.49012E-08 2.50000E-02 0.00000E+00
 -1        13-1.49012E-08 0.00000E+00 4.00000E-02
 -1        14 1.00000E+00-2.50000E-02 4.00000E-02
 -1        15 1.00000E+00-2.50000E-02-4.00000E-02
 -1        16 1.00000E+00 2.50000E-02-4.00000E-02
 -1        17 1.00000E+00 2.50000E-02 4.00000E-02
 -1        18 1.00000E+00-2.50000E-02 0.00000E+00
 -1        19 1.00000E+00 0.00000E+00-4.00000E-02
 -1        20 1.00000E+00 2.50000E-02 0.00000E+00
 -1        21 1.00000E+00 0.00000E+00 4.00000E-02
 -1        22 1.00000E+00-2.18934E-02-3.84619E-02
 -1        23 1.00000E+00 1.81066E-02-7.84619E-02
 -1        24 1.00000E+00 4.31066E-02-5.34619E-02
 -1        25 1.00000E+00 3.10660E-03-1.34619E-02
 -1        26 1.00000E+00-7.07107E-03-6.36396E-02
 -1        27 1.00000E+00 3.88909E-02-7.42462E-02
 -1        28 1.00000E+00 2.82843E-02-2.82843E-02
 -1        29 1.00000E+00-1.76777E-02-1.76777E-02
 -1        48 5.00000E-01-2.50000E-02 4.00000E-02
 -1        49 5.00000E-01-2.50000E-02-4.00000E-02
 -1        50 5.00000E-01 2.50000E-02-4.00000E-02
 -1        51 5.00000E-01 2.50000E-02 4.00000E-02
 -1        56 2.00000E+00-2.18934E-02-3.84619E-02
 -1        57 2.00000E+00 1.81066E-02-7.84619E-02
 -1        58 2.00000E+00 4.31066E-02-5.34619E-02
 -1        59 2.00000E+00 3.10660E-03-1.34619E-02
 -1        60 2.00000E+00-7.07107E-03-6.36396E-02
 -1        61 2.00000E+00 3.88909E-02-7.42462E-02
 -1        62 2.00000E+00 2.82843E-02-2.82843E-02
 -1        63 2.00000E+00-1.76777E-02-1.76777E-02
 -1        64 1.50000E+00-2.18934E-02-3.84619E-02
 -1        65 1.50000E+00 1.81066E-02-7.84619E-02
 -1        66 1.50000E+00 4.31066E-02-5.34619E-02
 -1        67 1.50000E+00 3.10660E-03-1.34619E-02
 -3
    3C                             2                                     1
 -1         1    4    0    1
 -2         6        14        15         7         9        17        16         8        48        18
 -2        49        10        13        21        19        11        51        20        50        12
 -1         2    4    0    1
 -2        22        56        57        23        25        59        58        24        64        60
 -2        65        26        29        63        61        27        67        62        66        28
 -3
 9999
