<?xml version="1.0"?>
<VTKFile type="UnstructuredGrid" version="0.1" byte_order="LittleEndian">
	<UnstructuredGrid>
		<Piece NumberOfPoints="261" NumberOfCells="32">
			<Points>
				<DataArray type="Float64" NumberOfComponents="3" format="ascii">
					 0.00000000E+00	 0.00000000E+00	 0.00000000E+00
					 1.00000000E+00	 0.00000000E+00	 0.00000000E+00
					 1.00000000E+00	 1.50000000E+00	 0.00000000E+00
					 0.00000000E+00	 1.50000000E+00	 0.00000000E+00
					 0.00000000E+00	 0.00000000E+00	 8.00000000E+00
					 1.00000000E+00	 0.00000000E+00	 8.00000000E+00
					 1.00000000E+00	 1.50000000E+00	 8.00000000E+00
					 0.00000000E+00	 1.50000000E+00	 8.00000000E+00
					 2.50000000E-01	 0.00000000E+00	 0.00000000E+00
					 5.00000000E-01	 0.00000000E+00	 0.00000000E+00
					 7.50000000E-01	 0.00000000E+00	 0.00000000E+00
					 1.00000000E+00	 3.75000000E-01	 0.00000000E+00
					 1.00000000E+00	 7.50000000E-01	 0.00000000E+00
					 1.00000000E+00	 1.12500000E+00	 0.00000000E+00
					 7.50000000E-01	 1.50000000E+00	 0.00000000E+00
					 5.00000000E-01	 1.50000000E+00	 0.00000000E+00
					 2.50000000E-01	 1.50000000E+00	 0.00000000E+00
					 0.00000000E+00	 1.12500000E+00	 0.00000000E+00
					 0.00000000E+00	 7.50000000E-01	 0.00000000E+00
					 0.00000000E+00	 3.75000000E-01	 0.00000000E+00
					 2.50000000E-01	 0.00000000E+00	 8.00000000E+00
					 5.00000000E-01	 0.00000000E+00	 8.00000000E+00
					 7.50000000E-01	 0.00000000E+00	 8.00000000E+00
					 1.00000000E+00	 3.75000000E-01	 8.00000000E+00
					 1.00000000E+00	 7.50000000E-01	 8.00000000E+00
					 1.00000000E+00	 1.12500000E+00	 8.00000000E+00
					 7.50000000E-01	 1.50000000E+00	 8.00000000E+00
					 5.00000000E-01	 1.50000000E+00	 8.00000000E+00
					 2.50000000E-01	 1.50000000E+00	 8.00000000E+00
					 0.00000000E+00	 1.12500000E+00	 8.00000000E+00
					 0.00000000E+00	 7.50000000E-01	 8.00000000E+00
					 0.00000000E+00	 3.75000000E-01	 8.00000000E+00
					 1.00000000E+00	 0.00000000E+00	 5.00000000E-01
					 1.00000000E+00	 0.00000000E+00	 1.00000000E+00
					 1.00000000E+00	 0.00000000E+00	 1.50000000E+00
					 1.00000000E+00	 0.00000000E+00	 2.00000000E+00
					 1.00000000E+00	 0.00000000E+00	 2.50000000E+00
					 1.00000000E+00	 0.00000000E+00	 3.00000000E+00
					 1.00000000E+00	 0.00000000E+00	 3.50000000E+00
					 1.00000000E+00	 0.00000000E+00	 4.00000000E+00
					 1.00000000E+00	 0.00000000E+00	 4.50000000E+00
					 1.00000000E+00	 0.00000000E+00	 5.00000000E+00
					 1.00000000E+00	 0.00000000E+00	 5.50000000E+00
					 1.00000000E+00	 0.00000000E+00	 6.00000000E+00
					 1.00000000E+00	 0.00000000E+00	 6.50000000E+00
					 1.00000000E+00	 0.00000000E+00	 7.00000000E+00
					 1.00000000E+00	 0.00000000E+00	 7.50000000E+00
					 0.00000000E+00	 0.00000000E+00	 7.50000000E+00
					 0.00000000E+00	 0.00000000E+00	 7.00000000E+00
					 0.00000000E+00	 0.00000000E+00	 6.50000000E+00
					 0.00000000E+00	 0.00000000E+00	 6.00000000E+00
					 0.00000000E+00	 0.00000000E+00	 5.50000000E+00
					 0.00000000E+00	 0.00000000E+00	 5.00000000E+00
					 0.00000000E+00	 0.00000000E+00	 4.50000000E+00
					 0.00000000E+00	 0.00000000E+00	 4.00000000E+00
					 0.00000000E+00	 0.00000000E+00	 3.50000000E+00
					 0.00000000E+00	 0.00000000E+00	 3.00000000E+00
					 0.00000000E+00	 0.00000000E+00	 2.50000000E+00
					 0.00000000E+00	 0.00000000E+00	 2.00000000E+00
					 0.00000000E+00	 0.00000000E+00	 1.50000000E+00
					 0.00000000E+00	 0.00000000E+00	 1.00000000E+00
					 0.00000000E+00	 0.00000000E+00	 5.00000000E-01
					 1.00000000E+00	 1.50000000E+00	 5.00000000E-01
					 1.00000000E+00	 1.50000000E+00	 1.00000000E+00
					 1.00000000E+00	 1.50000000E+00	 1.50000000E+00
					 1.00000000E+00	 1.50000000E+00	 2.00000000E+00
					 1.00000000E+00	 1.50000000E+00	 2.50000000E+00
					 1.00000000E+00	 1.50000000E+00	 3.00000000E+00
					 1.00000000E+00	 1.50000000E+00	 3.50000000E+00
					 1.00000000E+00	 1.50000000E+00	 4.00000000E+00
					 1.00000000E+00	 1.50000000E+00	 4.50000000E+00
					 1.00000000E+00	 1.50000000E+00	 5.00000000E+00
					 1.00000000E+00	 1.50000000E+00	 5.50000000E+00
					 1.00000000E+00	 1.50000000E+00	 6.00000000E+00
					 1.00000000E+00	 1.50000000E+00	 6.50000000E+00
					 1.00000000E+00	 1.50000000E+00	 7.00000000E+00
					 1.00000000E+00	 1.50000000E+00	 7.50000000E+00
					 0.00000000E+00	 1.50000000E+00	 5.00000000E-01
					 0.00000000E+00	 1.50000000E+00	 1.00000000E+00
					 0.00000000E+00	 1.50000000E+00	 1.50000000E+00
					 0.00000000E+00	 1.50000000E+00	 2.00000000E+00
					 0.00000000E+00	 1.50000000E+00	 2.50000000E+00
					 0.00000000E+00	 1.50000000E+00	 3.00000000E+00
					 0.00000000E+00	 1.50000000E+00	 3.50000000E+00
					 0.00000000E+00	 1.50000000E+00	 4.00000000E+00
					 0.00000000E+00	 1.50000000E+00	 4.50000000E+00
					 0.00000000E+00	 1.50000000E+00	 5.00000000E+00
					 0.00000000E+00	 1.50000000E+00	 5.50000000E+00
					 0.00000000E+00	 1.50000000E+00	 6.00000000E+00
					 0.00000000E+00	 1.50000000E+00	 6.50000000E+00
					 0.00000000E+00	 1.50000000E+00	 7.00000000E+00
					 0.00000000E+00	 1.50000000E+00	 7.50000000E+00
					 5.00000000E-01	 3.75000000E-01	 0.00000000E+00
					 2.50000000E-01	 7.50000000E-01	 0.00000000E+00
					 5.00000000E-01	 7.50000000E-01	 0.00000000E+00
					 7.50000000E-01	 7.50000000E-01	 0.00000000E+00
					 5.00000000E-01	 1.12500000E+00	 0.00000000E+00
					 5.00000000E-01	 3.75000000E-01	 8.00000000E+00
					 2.50000000E-01	 7.50000000E-01	 8.00000000E+00
					 5.00000000E-01	 7.50000000E-01	 8.00000000E+00
					 7.50000000E-01	 7.50000000E-01	 8.00000000E+00
					 5.00000000E-01	 1.12500000E+00	 8.00000000E+00
					 5.00000000E-01	 0.00000000E+00	 5.00000000E-01
					 2.50000000E-01	 0.00000000E+00	 1.00000000E+00
					 5.00000000E-01	 0.00000000E+00	 1.00000000E+00
					 7.50000000E-01	 0.00000000E+00	 1.00000000E+00
					 5.00000000E-01	 0.00000000E+00	 1.50000000E+00
					 2.50000000E-01	 0.00000000E+00	 2.00000000E+00
					 5.00000000E-01	 0.00000000E+00	 2.00000000E+00
					 7.50000000E-01	 0.00000000E+00	 2.00000000E+00
					 5.00000000E-01	 0.00000000E+00	 2.50000000E+00
					 2.50000000E-01	 0.00000000E+00	 3.00000000E+00
					 5.00000000E-01	 0.00000000E+00	 3.00000000E+00
					 7.50000000E-01	 0.00000000E+00	 3.00000000E+00
					 5.00000000E-01	 0.00000000E+00	 3.50000000E+00
					 2.50000000E-01	 0.00000000E+00	 4.00000000E+00
					 5.00000000E-01	 0.00000000E+00	 4.00000000E+00
					 7.50000000E-01	 0.00000000E+00	 4.00000000E+00
					 5.00000000E-01	 0.00000000E+00	 4.50000000E+00
					 2.50000000E-01	 0.00000000E+00	 5.00000000E+00
					 5.00000000E-01	 0.00000000E+00	 5.00000000E+00
					 7.50000000E-01	 0.00000000E+00	 5.00000000E+00
					 5.00000000E-01	 0.00000000E+00	 5.50000000E+00
					 2.50000000E-01	 0.00000000E+00	 6.00000000E+00
					 5.00000000E-01	 0.00000000E+00	 6.00000000E+00
					 7.50000000E-01	 0.00000000E+00	 6.00000000E+00
					 5.00000000E-01	 0.00000000E+00	 6.50000000E+00
					 2.50000000E-01	 0.00000000E+00	 7.00000000E+00
					 5.00000000E-01	 0.00000000E+00	 7.00000000E+00
					 7.50000000E-01	 0.00000000E+00	 7.00000000E+00
					 5.00000000E-01	 0.00000000E+00	 7.50000000E+00
					 1.00000000E+00	 7.50000000E-01	 5.00000000E-01
					 1.00000000E+00	 3.75000000E-01	 1.00000000E+00
					 1.00000000E+00	 7.50000000E-01	 1.00000000E+00
					 1.00000000E+00	 1.12500000E+00	 1.00000000E+00
					 1.00000000E+00	 7.50000000E-01	 1.50000000E+00
					 1.00000000E+00	 3.75000000E-01	 2.00000000E+00
					 1.00000000E+00	 7.50000000E-01	 2.00000000E+00
					 1.00000000E+00	 1.12500000E+00	 2.00000000E+00
					 1.00000000E+00	 7.50000000E-01	 2.50000000E+00
					 1.00000000E+00	 3.75000000E-01	 3.00000000E+00
					 1.00000000E+00	 7.50000000E-01	 3.00000000E+00
					 1.00000000E+00	 1.12500000E+00	 3.00000000E+00
					 1.00000000E+00	 7.50000000E-01	 3.50000000E+00
					 1.00000000E+00	 3.75000000E-01	 4.00000000E+00
					 1.00000000E+00	 7.50000000E-01	 4.00000000E+00
					 1.00000000E+00	 1.12500000E+00	 4.00000000E+00
					 1.00000000E+00	 7.50000000E-01	 4.50000000E+00
					 1.00000000E+00	 3.75000000E-01	 5.00000000E+00
					 1.00000000E+00	 7.50000000E-01	 5.00000000E+00
					 1.00000000E+00	 1.12500000E+00	 5.00000000E+00
					 1.00000000E+00	 7.50000000E-01	 5.50000000E+00
					 1.00000000E+00	 3.75000000E-01	 6.00000000E+00
					 1.00000000E+00	 7.50000000E-01	 6.00000000E+00
					 1.00000000E+00	 1.12500000E+00	 6.00000000E+00
					 1.00000000E+00	 7.50000000E-01	 6.50000000E+00
					 1.00000000E+00	 3.75000000E-01	 7.00000000E+00
					 1.00000000E+00	 7.50000000E-01	 7.00000000E+00
					 1.00000000E+00	 1.12500000E+00	 7.00000000E+00
					 1.00000000E+00	 7.50000000E-01	 7.50000000E+00
					 5.00000000E-01	 1.50000000E+00	 5.00000000E-01
					 7.50000000E-01	 1.50000000E+00	 1.00000000E+00
					 5.00000000E-01	 1.50000000E+00	 1.00000000E+00
					 2.50000000E-01	 1.50000000E+00	 1.00000000E+00
					 5.00000000E-01	 1.50000000E+00	 1.50000000E+00
					 7.50000000E-01	 1.50000000E+00	 2.00000000E+00
					 5.00000000E-01	 1.50000000E+00	 2.00000000E+00
					 2.50000000E-01	 1.50000000E+00	 2.00000000E+00
					 5.00000000E-01	 1.50000000E+00	 2.50000000E+00
					 7.50000000E-01	 1.50000000E+00	 3.00000000E+00
					 5.00000000E-01	 1.50000000E+00	 3.00000000E+00
					 2.50000000E-01	 1.50000000E+00	 3.00000000E+00
					 5.00000000E-01	 1.50000000E+00	 3.50000000E+00
					 7.50000000E-01	 1.50000000E+00	 4.00000000E+00
					 5.00000000E-01	 1.50000000E+00	 4.00000000E+00
					 2.50000000E-01	 1.50000000E+00	 4.00000000E+00
					 5.00000000E-01	 1.50000000E+00	 4.50000000E+00
					 7.50000000E-01	 1.50000000E+00	 5.00000000E+00
					 5.00000000E-01	 1.50000000E+00	 5.00000000E+00
					 2.50000000E-01	 1.50000000E+00	 5.00000000E+00
					 5.00000000E-01	 1.50000000E+00	 5.50000000E+00
					 7.50000000E-01	 1.50000000E+00	 6.00000000E+00
					 5.00000000E-01	 1.50000000E+00	 6.00000000E+00
					 2.50000000E-01	 1.50000000E+00	 6.00000000E+00
					 5.00000000E-01	 1.50000000E+00	 6.50000000E+00
					 7.50000000E-01	 1.50000000E+00	 7.00000000E+00
					 5.00000000E-01	 1.50000000E+00	 7.00000000E+00
					 2.50000000E-01	 1.50000000E+00	 7.00000000E+00
					 5.00000000E-01	 1.50000000E+00	 7.50000000E+00
					 0.00000000E+00	 7.50000000E-01	 5.00000000E-01
					 0.00000000E+00	 1.12500000E+00	 1.00000000E+00
					 0.00000000E+00	 7.50000000E-01	 1.00000000E+00
					 0.00000000E+00	 3.75000000E-01	 1.00000000E+00
					 0.00000000E+00	 7.50000000E-01	 1.50000000E+00
					 0.00000000E+00	 1.12500000E+00	 2.00000000E+00
					 0.00000000E+00	 7.50000000E-01	 2.00000000E+00
					 0.00000000E+00	 3.75000000E-01	 2.00000000E+00
					 0.00000000E+00	 7.50000000E-01	 2.50000000E+00
					 0.00000000E+00	 1.12500000E+00	 3.00000000E+00
					 0.00000000E+00	 7.50000000E-01	 3.00000000E+00
					 0.00000000E+00	 3.75000000E-01	 3.00000000E+00
					 0.00000000E+00	 7.50000000E-01	 3.50000000E+00
					 0.00000000E+00	 1.12500000E+00	 4.00000000E+00
					 0.00000000E+00	 7.50000000E-01	 4.00000000E+00
					 0.00000000E+00	 3.75000000E-01	 4.00000000E+00
					 0.00000000E+00	 7.50000000E-01	 4.50000000E+00
					 0.00000000E+00	 1.12500000E+00	 5.00000000E+00
					 0.00000000E+00	 7.50000000E-01	 5.00000000E+00
					 0.00000000E+00	 3.75000000E-01	 5.00000000E+00
					 0.00000000E+00	 7.50000000E-01	 5.50000000E+00
					 0.00000000E+00	 1.12500000E+00	 6.00000000E+00
					 0.00000000E+00	 7.50000000E-01	 6.00000000E+00
					 0.00000000E+00	 3.75000000E-01	 6.00000000E+00
					 0.00000000E+00	 7.50000000E-01	 6.50000000E+00
					 0.00000000E+00	 1.12500000E+00	 7.00000000E+00
					 0.00000000E+00	 7.50000000E-01	 7.00000000E+00
					 0.00000000E+00	 3.75000000E-01	 7.00000000E+00
					 0.00000000E+00	 7.50000000E-01	 7.50000000E+00
					 5.00000000E-01	 7.50000000E-01	 5.00000000E-01
					 5.00000000E-01	 3.75000000E-01	 1.00000000E+00
					 2.50000000E-01	 7.50000000E-01	 1.00000000E+00
					 5.00000000E-01	 7.50000000E-01	 1.00000000E+00
					 7.50000000E-01	 7.50000000E-01	 1.00000000E+00
					 5.00000000E-01	 1.12500000E+00	 1.00000000E+00
					 5.00000000E-01	 7.50000000E-01	 1.50000000E+00
					 5.00000000E-01	 3.75000000E-01	 2.00000000E+00
					 2.50000000E-01	 7.50000000E-01	 2.00000000E+00
					 5.00000000E-01	 7.50000000E-01	 2.00000000E+00
					 7.50000000E-01	 7.50000000E-01	 2.00000000E+00
					 5.00000000E-01	 1.12500000E+00	 2.00000000E+00
					 5.00000000E-01	 7.50000000E-01	 2.50000000E+00
					 5.00000000E-01	 3.75000000E-01	 3.00000000E+00
					 2.50000000E-01	 7.50000000E-01	 3.00000000E+00
					 5.00000000E-01	 7.50000000E-01	 3.00000000E+00
					 7.50000000E-01	 7.50000000E-01	 3.00000000E+00
					 5.00000000E-01	 1.12500000E+00	 3.00000000E+00
					 5.00000000E-01	 7.50000000E-01	 3.50000000E+00
					 5.00000000E-01	 3.75000000E-01	 4.00000000E+00
					 2.50000000E-01	 7.50000000E-01	 4.00000000E+00
					 5.00000000E-01	 7.50000000E-01	 4.00000000E+00
					 7.50000000E-01	 7.50000000E-01	 4.00000000E+00
					 5.00000000E-01	 1.12500000E+00	 4.00000000E+00
					 5.00000000E-01	 7.50000000E-01	 4.50000000E+00
					 5.00000000E-01	 3.75000000E-01	 5.00000000E+00
					 2.50000000E-01	 7.50000000E-01	 5.00000000E+00
					 5.00000000E-01	 7.50000000E-01	 5.00000000E+00
					 7.50000000E-01	 7.50000000E-01	 5.00000000E+00
					 5.00000000E-01	 1.12500000E+00	 5.00000000E+00
					 5.00000000E-01	 7.50000000E-01	 5.50000000E+00
					 5.00000000E-01	 3.75000000E-01	 6.00000000E+00
					 2.50000000E-01	 7.50000000E-01	 6.00000000E+00
					 5.00000000E-01	 7.50000000E-01	 6.00000000E+00
					 7.50000000E-01	 7.50000000E-01	 6.00000000E+00
					 5.00000000E-01	 1.12500000E+00	 6.00000000E+00
					 5.00000000E-01	 7.50000000E-01	 6.50000000E+00
					 5.00000000E-01	 3.75000000E-01	 7.00000000E+00
					 2.50000000E-01	 7.50000000E-01	 7.00000000E+00
					 5.00000000E-01	 7.50000000E-01	 7.00000000E+00
					 7.50000000E-01	 7.50000000E-01	 7.00000000E+00
					 5.00000000E-01	 1.12500000E+00	 7.00000000E+00
					 5.00000000E-01	 7.50000000E-01	 7.50000000E+00
				</DataArray>
			</Points>
			<Cells>
				<DataArray type="Int32" Name="connectivity" format="ascii">
					0 9 94 18 60 104 221 191 8 92 93 19 103 219 220 192 61 102 218 189 9 1 12 94 104 33 133 221 10 11 95 92 105 132 222 219 102 32 131 218 18 94 15 3 191 221 162 78 93 96 16 17 220 223 163 190 189 218 160 77 94 12 2 15 221 133 63 162 95 13 14 96 222 134 161 223 218 131 62 160 60 104 221 191 58 108 227 195 103 219 220 192 107 225 226 196 59 106 224 193 104 33 133 221 108 35 137 227 105 132 222 219 109 136 228 225 106 34 135 224 191 221 162 78 195 227 166 80 220 223 163 190 226 229 167 194 193 224 164 79 221 133 63 162 227 137 65 166 222 134 161 223 228 138 165 229 224 135 64 164 58 108 227 195 56 112 233 199 107 225 226 196 111 231 232 200 57 110 230 197 108 35 137 227 112 37 141 233 109 136 228 225 113 140 234 231 110 36 139 230 195 227 166 80 199 233 170 82 226 229 167 194 232 235 171 198 197 230 168 81 227 137 65 166 233 141 67 170 228 138 165 229 234 142 169 235 230 139 66 168 56 112 233 199 54 116 239 203 111 231 232 200 115 237 238 204 55 114 236 201 112 37 141 233 116 39 145 239 113 140 234 231 117 144 240 237 114 38 143 236 199 233 170 82 203 239 174 84 232 235 171 198 238 241 175 202 201 236 172 83 233 141 67 170 239 145 69 174 234 142 169 235 240 146 173 241 236 143 68 172 54 116 239 203 52 120 245 207 115 237 238 204 119 243 244 208 53 118 242 205 116 39 145 239 120 41 149 245 117 144 240 237 121 148 246 243 118 40 147 242 203 239 174 84 207 245 178 86 238 241 175 202 244 247 179 206 205 242 176 85 239 145 69 174 245 149 71 178 240 146 173 241 246 150 177 247 242 147 70 176 52 120 245 207 50 124 251 211 119 243 244 208 123 249 250 212 51 122 248 209 120 41 149 245 124 43 153 251 121 148 246 243 125 152 252 249 122 42 151 248 207 245 178 86 211 251 182 88 244 247 179 206 250 253 183 210 209 248 180 87 245 149 71 178 251 153 73 182 246 150 177 247 252 154 181 253 248 151 72 180 50 124 251 211 48 128 257 215 123 249 250 212 127 255 256 216 49 126 254 213 124 43 153 251 128 45 157 257 125 152 252 249 129 156 258 255 126 44 155 254 211 251 182 88 215 257 186 90 250 253 183 210 256 259 187 214 213 254 184 89 251 153 73 182 257 157 75 186 252 154 181 253 258 158 185 259 254 155 74 184 48 128 257 215 4 21 99 30 127 255 256 216 20 97 98 31 47 130 260 217 128 45 157 257 21 5 24 99 129 156 258 255 22 23 100 97 130 46 159 260 215 257 186 90 30 99 27 7 256 259 187 214 98 101 28 29 217 260 188 91 257 157 75 186 99 24 6 27 258 158 185 259 100 25 26 101 260 159 76 188 
				</DataArray>
				<DataArray type="Int32" Name="offsets" format="ascii">
					20 40 60 80 100 120 140 160 180 200 220 240 260 280 300 320 340 360 380 400 420 440 460 480 500 520 540 560 580 600 620 640 
				</DataArray>
				<DataArray type="UInt8" Name="types" format="ascii">
					25 25 25 25 25 25 25 25 25 25 25 25 25 25 25 25 25 25 25 25 25 25 25 25 25 25 25 25 25 25 25 25 
				</DataArray>
			</Cells>
			<PointData>
				<DataArray type="Float32" Name="U" NumberOfComponents="3" ComponentName0="D1" ComponentName1="D2" ComponentName2="D3" format="ascii">
					 0.00000000E+00	 0.00000000E+00	 0.00000000E+00
					 0.00000000E+00	 0.00000000E+00	 0.00000000E+00
					 0.00000000E+00	 0.00000000E+00	 0.00000000E+00
					 0.00000000E+00	 0.00000000E+00	 0.00000000E+00
					-3.80030000E-03	-2.08023000E-02	 4.61885000E+03
					 3.80030000E-03	-2.08023000E-02	 4.61885000E+03
					 3.80030000E-03	 2.08023000E-02	 4.61885000E+03
					-3.80030000E-03	 2.08023000E-02	 4.61885000E+03
					 0.00000000E+00	 0.00000000E+00	 0.00000000E+00
					 0.00000000E+00	 0.00000000E+00	 0.00000000E+00
					 0.00000000E+00	 0.00000000E+00	 0.00000000E+00
					 0.00000000E+00	 0.00000000E+00	 0.00000000E+00
					 0.00000000E+00	 0.00000000E+00	 0.00000000E+00
					 0.00000000E+00	 0.00000000E+00	 0.00000000E+00
					 0.00000000E+00	 0.00000000E+00	 0.00000000E+00
					 0.00000000E+00	 0.00000000E+00	 0.00000000E+00
					 0.00000000E+00	 0.00000000E+00	 0.00000000E+00
					 0.00000000E+00	 0.00000000E+00	 0.00000000E+00
					 0.00000000E+00	 0.00000000E+00	 0.00000000E+00
					 0.00000000E+00	 0.00000000E+00	 0.00000000E+00
					-2.18194000E-03	-2.05086000E-02	 4.62395000E+03
					 1.27329000E-11	-1.81040000E-02	 4.62564000E+03
					 2.18194000E-03	-2.05086000E-02	 4.62395000E+03
					 6.44076000E-04	-1.20105000E-02	 4.63040000E+03
					-3.44805000E-04	-6.95763000E-11	 4.63425000E+03
					 6.44076000E-04	 1.20105000E-02	 4.63040000E+03
					 2.18194000E-03	 2.05086000E-02	 4.62395000E+03
					 8.54925000E-11	 1.81040000E-02	 4.62564000E+03
					-2.18194000E-03	 2.05086000E-02	 4.62395000E+03
					-6.44076000E-04	 1.20105000E-02	 4.63040000E+03
					 3.44805000E-04	-3.09228000E-11	 4.63425000E+03
					-6.44076000E-04	-1.20105000E-02	 4.63040000E+03
					-1.57530000E+02	 1.91416000E+02	 4.43179000E+02
					-1.06374000E+02	 1.89809000E+02	 8.71198000E+02
					-1.31829000E+02	 2.02494000E+02	 1.31301000E+03
					-1.23420000E+02	 1.89604000E+02	 1.73695000E+03
					-1.21945000E+02	 1.83146000E+02	 2.15195000E+03
					-1.14124000E+02	 1.71998000E+02	 2.54470000E+03
					-1.06605000E+02	 1.60889000E+02	 2.91226000E+03
					-9.74024000E+01	 1.46920000E+02	 3.25119000E+03
					-8.75607000E+01	 1.31929000E+02	 3.55885000E+03
					-7.66658000E+01	 1.15523000E+02	 3.83180000E+03
					-6.50756000E+01	 9.80976000E+01	 4.06735000E+03
					-5.28269000E+01	 7.96354000E+01	 4.26328000E+03
					-4.00859000E+01	 6.04170000E+01	 4.41771000E+03
					-2.69405000E+01	 4.06043000E+01	 4.52910000E+03
					-1.35361000E+01	 2.04061000E+01	 4.59636000E+03
					 1.35361000E+01	 2.04061000E+01	 4.59636000E+03
					 2.69405000E+01	 4.06043000E+01	 4.52910000E+03
					 4.00859000E+01	 6.04170000E+01	 4.41771000E+03
					 5.28269000E+01	 7.96354000E+01	 4.26328000E+03
					 6.50756000E+01	 9.80976000E+01	 4.06735000E+03
					 7.66658000E+01	 1.15523000E+02	 3.83180000E+03
					 8.75607000E+01	 1.31929000E+02	 3.55885000E+03
					 9.74024000E+01	 1.46920000E+02	 3.25119000E+03
					 1.06605000E+02	 1.60889000E+02	 2.91226000E+03
					 1.14124000E+02	 1.71998000E+02	 2.54470000E+03
					 1.21945000E+02	 1.83146000E+02	 2.15195000E+03
					 1.23420000E+02	 1.89604000E+02	 1.73695000E+03
					 1.31829000E+02	 2.02494000E+02	 1.31301000E+03
					 1.06374000E+02	 1.89809000E+02	 8.71198000E+02
					 1.57530000E+02	 1.91416000E+02	 4.43179000E+02
					-1.57530000E+02	-1.91416000E+02	 4.43179000E+02
					-1.06374000E+02	-1.89809000E+02	 8.71198000E+02
					-1.31829000E+02	-2.02494000E+02	 1.31301000E+03
					-1.23420000E+02	-1.89604000E+02	 1.73695000E+03
					-1.21945000E+02	-1.83146000E+02	 2.15195000E+03
					-1.14124000E+02	-1.71998000E+02	 2.54470000E+03
					-1.06605000E+02	-1.60889000E+02	 2.91226000E+03
					-9.74024000E+01	-1.46920000E+02	 3.25119000E+03
					-8.75607000E+01	-1.31929000E+02	 3.55885000E+03
					-7.66658000E+01	-1.15523000E+02	 3.83180000E+03
					-6.50756000E+01	-9.80976000E+01	 4.06735000E+03
					-5.28269000E+01	-7.96354000E+01	 4.26328000E+03
					-4.00859000E+01	-6.04170000E+01	 4.41771000E+03
					-2.69405000E+01	-4.06043000E+01	 4.52910000E+03
					-1.35361000E+01	-2.04061000E+01	 4.59636000E+03
					 1.57530000E+02	-1.91416000E+02	 4.43179000E+02
					 1.06374000E+02	-1.89809000E+02	 8.71198000E+02
					 1.31829000E+02	-2.02494000E+02	 1.31301000E+03
					 1.23420000E+02	-1.89604000E+02	 1.73695000E+03
					 1.21945000E+02	-1.83146000E+02	 2.15195000E+03
					 1.14124000E+02	-1.71998000E+02	 2.54470000E+03
					 1.06605000E+02	-1.60889000E+02	 2.91226000E+03
					 9.74024000E+01	-1.46920000E+02	 3.25119000E+03
					 8.75607000E+01	-1.31929000E+02	 3.55885000E+03
					 7.66658000E+01	-1.15523000E+02	 3.83180000E+03
					 6.50756000E+01	-9.80976000E+01	 4.06735000E+03
					 5.28269000E+01	-7.96354000E+01	 4.26328000E+03
					 4.00859000E+01	-6.04170000E+01	 4.41771000E+03
					 2.69405000E+01	-4.06043000E+01	 4.52910000E+03
					 1.35361000E+01	-2.04061000E+01	 4.59636000E+03
					 0.00000000E+00	 0.00000000E+00	 0.00000000E+00
					 0.00000000E+00	 0.00000000E+00	 0.00000000E+00
					 0.00000000E+00	 0.00000000E+00	 0.00000000E+00
					 0.00000000E+00	 0.00000000E+00	 0.00000000E+00
					 0.00000000E+00	 0.00000000E+00	 0.00000000E+00
					 4.54747000E-11	-1.08532000E-02	 4.63719000E+03
					-4.87441000E-04	-3.91083000E-11	 4.63934000E+03
					 6.09930000E-11	-3.54703000E-11	 4.64104000E+03
					 4.87441000E-04	-4.56737000E-11	 4.63934000E+03
					 7.54881000E-11	 1.08532000E-02	 4.63719000E+03
					-8.18545000E-12	 1.92055000E+02	 4.22276000E+02
					 5.37514000E+01	 1.89793000E+02	 8.77514000E+02
					-1.93268000E-11	 1.91714000E+02	 8.84667000E+02
					-5.37514000E+01	 1.89793000E+02	 8.77514000E+02
					-3.13776000E-11	 1.99215000E+02	 1.31246000E+03
					 6.14731000E+01	 1.91134000E+02	 1.74002000E+03
					-3.91083000E-11	 1.92529000E+02	 1.74233000E+03
					-6.14731000E+01	 1.91134000E+02	 1.74002000E+03
					-5.18412000E-11	 1.82594000E+02	 2.15454000E+03
					 5.72068000E+01	 1.72524000E+02	 2.54773000E+03
					-6.18456000E-11	 1.73024000E+02	 2.54879000E+03
					-5.72068000E+01	 1.72524000E+02	 2.54773000E+03
					-6.54836000E-11	 1.60656000E+02	 2.91651000E+03
					 4.87484000E+01	 1.47046000E+02	 3.25481000E+03
					-6.63931000E-11	 1.47169000E+02	 3.25609000E+03
					-4.87484000E+01	 1.47046000E+02	 3.25481000E+03
					-7.00311000E-11	 1.31900000E+02	 3.56405000E+03
					 3.83935000E+01	 1.15572000E+02	 3.83603000E+03
					-7.36691000E-11	 1.15597000E+02	 3.83744000E+03
					-3.83935000E+01	 1.15572000E+02	 3.83603000E+03
					-6.88942000E-11	 9.80890000E+01	 4.07333000E+03
					 2.64493000E+01	 7.96473000E+01	 4.26799000E+03
					-5.38876000E-11	 7.96513000E+01	 4.26955000E+03
					-2.64493000E+01	 7.96473000E+01	 4.26799000E+03
					-4.00178000E-11	 6.04175000E+01	 4.42420000E+03
					 1.34900000E+01	 4.06108000E+01	 4.53410000E+03
					-1.90994000E-11	 4.06104000E+01	 4.53576000E+03
					-1.34900000E+01	 4.06108000E+01	 4.53410000E+03
					 2.00089000E-11	 2.04049000E+01	 4.60312000E+03
					-1.55948000E+02	-4.37694000E-12	 4.06918000E+02
					-1.14423000E+02	 9.48365000E+01	 8.63567000E+02
					-1.21602000E+02	-4.32010000E-12	 8.68600000E+02
					-1.14423000E+02	-9.48365000E+01	 8.63567000E+02
					-1.32180000E+02	-5.00222000E-12	 1.31299000E+03
					-1.24924000E+02	 9.53857000E+01	 1.74334000E+03
					-1.26223000E+02	-1.04592000E-11	 1.74294000E+03
					-1.24924000E+02	-9.53857000E+01	 1.74334000E+03
					-1.21010000E+02	-8.64020000E-12	 2.15899000E+03
					-1.14375000E+02	 8.62036000E+01	 2.55062000E+03
					-1.14779000E+02	-1.13687000E-11	 2.55348000E+03
					-1.14375000E+02	-8.62036000E+01	 2.55062000E+03
					-1.06510000E+02	-1.45519000E-11	 2.92183000E+03
					-9.74699000E+01	 7.37150000E+01	 3.25950000E+03
					-9.74937000E+01	-8.18545000E-12	 3.26207000E+03
					-9.74699000E+01	-7.37150000E+01	 3.25950000E+03
					-8.74358000E+01	-9.54969000E-12	 3.57071000E+03
					-7.66390000E+01	 5.79428000E+01	 3.84133000E+03
					-7.66442000E+01	-2.25100000E-11	 3.84459000E+03
					-7.66390000E+01	-5.79428000E+01	 3.84133000E+03
					-6.50262000E+01	-2.43290000E-11	 4.08090000E+03
					-5.28120000E+01	 3.99472000E+01	 4.27395000E+03
					-5.27959000E+01	-3.13776000E-11	 4.27749000E+03
					-5.28120000E+01	-3.99472000E+01	 4.27395000E+03
					-4.00507000E+01	-8.18545000E-12	 4.43243000E+03
					-2.69286000E+01	 2.03682000E+01	 4.54041000E+03
					-2.69222000E+01	-4.09273000E-11	 4.54419000E+03
					-2.69286000E+01	-2.03682000E+01	 4.54041000E+03
					-1.35290000E+01	-4.22915000E-11	 4.61168000E+03
					 1.21645000E-11	-1.92055000E+02	 4.22276000E+02
					-5.37514000E+01	-1.89793000E+02	 8.77514000E+02
					 2.75122000E-11	-1.91714000E+02	 8.84667000E+02
					 5.37514000E+01	-1.89793000E+02	 8.77514000E+02
					 4.13820000E-11	-1.99215000E+02	 1.31246000E+03
					-6.14731000E+01	-1.91134000E+02	 1.74002000E+03
					 5.41149000E-11	-1.92529000E+02	 1.74233000E+03
					 6.14731000E+01	-1.91134000E+02	 1.74002000E+03
					 6.45741000E-11	-1.82594000E+02	 2.15454000E+03
					-5.72068000E+01	-1.72524000E+02	 2.54773000E+03
					 6.41194000E-11	-1.73024000E+02	 2.54879000E+03
					 5.72068000E+01	-1.72524000E+02	 2.54773000E+03
					 6.36646000E-11	-1.60656000E+02	 2.91651000E+03
					-4.87484000E+01	-1.47046000E+02	 3.25481000E+03
					 5.36602000E-11	-1.47169000E+02	 3.25609000E+03
					 4.87484000E+01	-1.47046000E+02	 3.25481000E+03
					 4.59295000E-11	-1.31900000E+02	 3.56405000E+03
					-3.83935000E+01	-1.15572000E+02	 3.83603000E+03
					 4.18368000E-11	-1.15597000E+02	 3.83744000E+03
					 3.83935000E+01	-1.15572000E+02	 3.83603000E+03
					 4.25189000E-11	-9.80890000E+01	 4.07333000E+03
					-2.64493000E+01	-7.96473000E+01	 4.26799000E+03
					 5.19549000E-11	-7.96513000E+01	 4.26955000E+03
					 2.64493000E+01	-7.96473000E+01	 4.26799000E+03
					 4.82032000E-11	-6.04175000E+01	 4.42420000E+03
					-1.34900000E+01	-4.06108000E+01	 4.53410000E+03
					 4.91127000E-11	-4.06104000E+01	 4.53576000E+03
					 1.34900000E+01	-4.06108000E+01	 4.53410000E+03
					 5.72982000E-11	-2.04049000E+01	 4.60312000E+03
					 1.55948000E+02	 1.26192000E-11	 4.06918000E+02
					 1.14423000E+02	-9.48365000E+01	 8.63567000E+02
					 1.21602000E+02	 2.70575000E-11	 8.68600000E+02
					 1.14423000E+02	 9.48365000E+01	 8.63567000E+02
					 1.32180000E+02	 4.34284000E-11	 1.31299000E+03
					 1.24924000E+02	-9.53857000E+01	 1.74334000E+03
					 1.26223000E+02	 5.43423000E-11	 1.74294000E+03
					 1.24924000E+02	 9.53857000E+01	 1.74334000E+03
					 1.21010000E+02	 6.45741000E-11	 2.15899000E+03
					 1.14375000E+02	-8.62036000E+01	 2.55062000E+03
					 1.14779000E+02	 6.82121000E-11	 2.55348000E+03
					 1.14375000E+02	 8.62036000E+01	 2.55062000E+03
					 1.06510000E+02	 7.68523000E-11	 2.92183000E+03
					 9.74699000E+01	-7.37150000E+01	 3.25950000E+03
					 9.74937000E+01	 6.98037000E-11	 3.26207000E+03
					 9.74699000E+01	 7.37150000E+01	 3.25950000E+03
					 8.74358000E+01	 7.09406000E-11	 3.57071000E+03
					 7.66390000E+01	-5.79428000E+01	 3.84133000E+03
					 7.66442000E+01	 6.50289000E-11	 3.84459000E+03
					 7.66390000E+01	 5.79428000E+01	 3.84133000E+03
					 6.50262000E+01	 4.32010000E-11	 4.08090000E+03
					 5.28120000E+01	-3.99472000E+01	 4.27395000E+03
					 5.27959000E+01	 3.81988000E-11	 4.27749000E+03
					 5.28120000E+01	 3.99472000E+01	 4.27395000E+03
					 4.00507000E+01	 3.27418000E-11	 4.43243000E+03
					 2.69286000E+01	-2.03682000E+01	 4.54041000E+03
					 2.69222000E+01	 6.36646000E-12	 4.54419000E+03
					 2.69286000E+01	 2.03682000E+01	 4.54041000E+03
					 1.35290000E+01	 9.09495000E-12	 4.61168000E+03
					 1.32561000E-12	 4.37694000E-12	 3.83821000E+02
					-6.70752000E-12	 9.47572000E+01	 8.77571000E+02
					 6.11894000E+01	 1.83036000E-11	 8.74796000E+02
					 6.16751000E-12	 1.18234000E-11	 8.82360000E+02
					-6.11894000E+01	 4.29168000E-12	 8.74796000E+02
					 1.69393000E-11	-9.47572000E+01	 8.77571000E+02
					 5.18696000E-12	 1.91420000E-11	 1.31377000E+03
					-1.50067000E-11	 9.68983000E+01	 1.74775000E+03
					 6.30008000E+01	 4.18368000E-11	 1.74582000E+03
					 9.72022000E-12	 2.77964000E-11	 1.74713000E+03
					-6.30008000E+01	 6.82121000E-12	 1.74582000E+03
					 3.27418000E-11	-9.68983000E+01	 1.74775000E+03
					 5.96856000E-12	 3.03544000E-11	 2.16217000E+03
					-3.04681000E-11	 8.67011000E+01	 2.55453000E+03
					 5.75006000E+01	 5.78666000E-11	 2.55608000E+03
					 6.77147000E-12	 3.18323000E-11	 2.55696000E+03
					-5.75006000E+01	 1.13687000E-11	 2.55608000E+03
					 3.22871000E-11	-8.67011000E+01	 2.55453000E+03
					-3.46745000E-12	 2.79670000E-11	 2.92619000E+03
					-4.32010000E-11	 7.38623000E+01	 3.26428000E+03
					 4.88055000E+01	 4.41673000E-11	 3.26565000E+03
					-6.48015000E-12	 2.60343000E-11	 3.26680000E+03
					-4.88055000E+01	 1.31877000E-11	 3.26565000E+03
					 2.36469000E-11	-7.38623000E+01	 3.26428000E+03