    1C
    1UUSER                                                              
    1UDATE              25.january.2020                                 
    1UTIME              14:45:21                                        
    1UHOST                                                              
    1UPGM               CalculiX                                        
    1UVERSION           Version 2.16                             
    1UCOMPILETIME       Tue  7 Jan 19:57:43 CET 2020                    
    1UDIR                                                               
    1UDBN                                                               
    1UMAT    1EL1                                                       
    1UMAT    2EL2                                                       
    2C                            64                                     1
 -1         6-1.49012E-08-2.50000E-02 8.00000E-02
 -1         7-1.49012E-08-2.50000E-02 0.00000E+00
 -1         8-1.49012E-08 2.50000E-02 0.00000E+00
 -1         9-1.49012E-08 2.50000E-02 8.00000E-02
 -1        10-1.49012E-08-2.50000E-02 4.00000E-02
 -1        11-1.49012E-08 0.00000E+00 0.00000E+00
 -1        12-1.49012E-08 2.50000E-02 4.00000E-02
 -1        13-1.49012E-08 0.00000E+00 8.00000E-02
 -1        14-1.49012E-08-2.50000E-02 0.00000E+00
 -1        15-1.49012E-08-2.50000E-02-8.00000E-02
 -1        16-1.49012E-08 2.50000E-02-8.00000E-02
 -1        17-1.49012E-08 2.50000E-02 0.00000E+00
 -1        18-1.49012E-08-2.50000E-02-4.00000E-02
 -1        19-1.49012E-08 0.00000E+00-8.00000E-02
 -1        20-1.49012E-08 2.50000E-02-4.00000E-02
 -1        21-1.49012E-08 0.00000E+00 0.00000E+00
 -1        40 1.00000E+00-2.50000E-02 8.00000E-02
 -1        41 1.00000E+00-2.50000E-02 0.00000E+00
 -1        42 1.00000E+00 2.50000E-02 0.00000E+00
 -1        43 1.00000E+00 2.50000E-02 8.00000E-02
 -1        44 1.00000E+00-2.50000E-02 4.00000E-02
 -1        45 1.00000E+00 0.00000E+00 0.00000E+00
 -1        46 1.00000E+00 2.50000E-02 4.00000E-02
 -1        47 1.00000E+00 0.00000E+00 8.00000E-02
 -1        48 1.00000E+00-2.50000E-02 0.00000E+00
 -1        49 1.00000E+00-2.50000E-02-8.00000E-02
 -1        50 1.00000E+00 2.50000E-02-8.00000E-02
 -1        51 1.00000E+00 2.50000E-02 0.00000E+00
 -1        52 1.00000E+00-2.50000E-02-4.00000E-02
 -1        53 1.00000E+00 0.00000E+00-8.00000E-02
 -1        54 1.00000E+00 2.50000E-02-4.00000E-02
 -1        55 1.00000E+00 0.00000E+00 0.00000E+00
 -1        74 5.00000E-01-2.50000E-02 8.00000E-02
 -1        75 5.00000E-01-2.50000E-02 0.00000E+00
 -1        76 5.00000E-01 2.50000E-02 0.00000E+00
 -1        77 5.00000E-01 2.50000E-02 8.00000E-02
 -1        82 5.00000E-01-2.50000E-02 0.00000E+00
 -1        83 5.00000E-01-2.50000E-02-8.00000E-02
 -1        84 5.00000E-01 2.50000E-02-8.00000E-02
 -1        85 5.00000E-01 2.50000E-02 0.00000E+00
 -1       108 2.00000E+00-2.50000E-02 8.00000E-02
 -1       109 2.00000E+00-2.50000E-02 0.00000E+00
 -1       110 2.00000E+00 2.50000E-02 0.00000E+00
 -1       111 2.00000E+00 2.50000E-02 8.00000E-02
 -1       112 2.00000E+00-2.50000E-02 4.00000E-02
 -1       113 2.00000E+00 0.00000E+00 0.00000E+00
 -1       114 2.00000E+00 2.50000E-02 4.00000E-02
 -1       115 2.00000E+00 0.00000E+00 8.00000E-02
 -1       116 2.00000E+00-2.50000E-02 0.00000E+00
 -1       117 2.00000E+00-2.50000E-02-8.00000E-02
 -1       118 2.00000E+00 2.50000E-02-8.00000E-02
 -1       119 2.00000E+00 2.50000E-02 0.00000E+00
 -1       120 2.00000E+00-2.50000E-02-4.00000E-02
 -1       121 2.00000E+00 0.00000E+00-8.00000E-02
 -1       122 2.00000E+00 2.50000E-02-4.00000E-02
 -1       123 2.00000E+00 0.00000E+00 0.00000E+00
 -1       142 1.50000E+00-2.50000E-02 8.00000E-02
 -1       143 1.50000E+00-2.50000E-02 0.00000E+00
 -1       144 1.50000E+00 2.50000E-02 0.00000E+00
 -1       145 1.50000E+00 2.50000E-02 8.00000E-02
 -1       150 1.50000E+00-2.50000E-02 0.00000E+00
 -1       151 1.50000E+00-2.50000E-02-8.00000E-02
 -1       152 1.50000E+00 2.50000E-02-8.00000E-02
 -1       153 1.50000E+00 2.50000E-02 0.00000E+00
 -3
    3C                             4                                     1
 -1         1    4    0    1
 -2         6        40        41         7         9        43        42         8        74        44
 -2        75        10        13        47        45        11        77        46        76        12
 -1         2    4    0    1
 -2        40       108       109        41        43       111       110        42       142       112
 -2       143        44        47       115       113        45       145       114       144        46
 -1         3    4    0    2
 -2        14        48        49        15        17        51        50        16        82        52
 -2        83        18        21        55        53        19        85        54        84        20
 -1         4    4    0    2
 -2        48       116       117        49        51       119       118        50       150       120
 -2       151        52        55       123       121        53       153       122       152        54
 -3
 9999
