<?xml version="1.0"?>
<VTKFile type="UnstructuredGrid" version="0.1" byte_order="LittleEndian">
	<UnstructuredGrid>
		<Piece NumberOfPoints="90" NumberOfCells="32">
			<Points>
				<DataArray type="Float64" NumberOfComponents="3" format="ascii">
					 0.00000000E+00	 0.00000000E+00	 0.00000000E+00
					 1.00000000E+00	 0.00000000E+00	 0.00000000E+00
					 1.00000000E+00	 1.00000000E+00	 0.00000000E+00
					 0.00000000E+00	 1.00000000E+00	 0.00000000E+00
					 0.00000000E+00	 0.00000000E+00	 8.00000000E+00
					 1.00000000E+00	 0.00000000E+00	 8.00000000E+00
					 1.00000000E+00	 1.00000000E+00	 8.00000000E+00
					 0.00000000E+00	 1.00000000E+00	 8.00000000E+00
					 5.00000000E-01	 0.00000000E+00	 0.00000000E+00
					 1.00000000E+00	 5.00000000E-01	 0.00000000E+00
					 5.00000000E-01	 1.00000000E+00	 0.00000000E+00
					 0.00000000E+00	 5.00000000E-01	 0.00000000E+00
					 5.00000000E-01	 0.00000000E+00	 8.00000000E+00
					 1.00000000E+00	 5.00000000E-01	 8.00000000E+00
					 5.00000000E-01	 1.00000000E+00	 8.00000000E+00
					 0.00000000E+00	 5.00000000E-01	 8.00000000E+00
					 1.00000000E+00	 0.00000000E+00	 1.00000000E+00
					 1.00000000E+00	 0.00000000E+00	 2.00000000E+00
					 1.00000000E+00	 0.00000000E+00	 3.00000000E+00
					 1.00000000E+00	 0.00000000E+00	 4.00000000E+00
					 1.00000000E+00	 0.00000000E+00	 5.00000000E+00
					 1.00000000E+00	 0.00000000E+00	 6.00000000E+00
					 1.00000000E+00	 0.00000000E+00	 7.00000000E+00
					 0.00000000E+00	 0.00000000E+00	 7.00000000E+00
					 0.00000000E+00	 0.00000000E+00	 6.00000000E+00
					 0.00000000E+00	 0.00000000E+00	 5.00000000E+00
					 0.00000000E+00	 0.00000000E+00	 4.00000000E+00
					 0.00000000E+00	 0.00000000E+00	 3.00000000E+00
					 0.00000000E+00	 0.00000000E+00	 2.00000000E+00
					 0.00000000E+00	 0.00000000E+00	 1.00000000E+00
					 1.00000000E+00	 1.00000000E+00	 1.00000000E+00
					 1.00000000E+00	 1.00000000E+00	 2.00000000E+00
					 1.00000000E+00	 1.00000000E+00	 3.00000000E+00
					 1.00000000E+00	 1.00000000E+00	 4.00000000E+00
					 1.00000000E+00	 1.00000000E+00	 5.00000000E+00
					 1.00000000E+00	 1.00000000E+00	 6.00000000E+00
					 1.00000000E+00	 1.00000000E+00	 7.00000000E+00
					 0.00000000E+00	 1.00000000E+00	 1.00000000E+00
					 0.00000000E+00	 1.00000000E+00	 2.00000000E+00
					 0.00000000E+00	 1.00000000E+00	 3.00000000E+00
					 0.00000000E+00	 1.00000000E+00	 4.00000000E+00
					 0.00000000E+00	 1.00000000E+00	 5.00000000E+00
					 0.00000000E+00	 1.00000000E+00	 6.00000000E+00
					 0.00000000E+00	 1.00000000E+00	 7.00000000E+00
					 5.00000000E-01	 5.00000000E-01	 0.00000000E+00
					 5.00000000E-01	 5.00000000E-01	 8.00000000E+00
					 5.00000000E-01	 0.00000000E+00	 1.00000000E+00
					 5.00000000E-01	 0.00000000E+00	 2.00000000E+00
					 5.00000000E-01	 0.00000000E+00	 3.00000000E+00
					 5.00000000E-01	 0.00000000E+00	 4.00000000E+00
					 5.00000000E-01	 0.00000000E+00	 5.00000000E+00
					 5.00000000E-01	 0.00000000E+00	 6.00000000E+00
					 5.00000000E-01	 0.00000000E+00	 7.00000000E+00
					 1.00000000E+00	 5.00000000E-01	 1.00000000E+00
					 1.00000000E+00	 5.00000000E-01	 2.00000000E+00
					 1.00000000E+00	 5.00000000E-01	 3.00000000E+00
					 1.00000000E+00	 5.00000000E-01	 4.00000000E+00
					 1.00000000E+00	 5.00000000E-01	 5.00000000E+00
					 1.00000000E+00	 5.00000000E-01	 6.00000000E+00
					 1.00000000E+00	 5.00000000E-01	 7.00000000E+00
					 5.00000000E-01	 1.00000000E+00	 1.00000000E+00
					 5.00000000E-01	 1.00000000E+00	 2.00000000E+00
					 5.00000000E-01	 1.00000000E+00	 3.00000000E+00
					 5.00000000E-01	 1.00000000E+00	 4.00000000E+00
					 5.00000000E-01	 1.00000000E+00	 5.00000000E+00
					 5.00000000E-01	 1.00000000E+00	 6.00000000E+00
					 5.00000000E-01	 1.00000000E+00	 7.00000000E+00
					 0.00000000E+00	 5.00000000E-01	 1.00000000E+00
					 0.00000000E+00	 5.00000000E-01	 2.00000000E+00
					 0.00000000E+00	 5.00000000E-01	 3.00000000E+00
					 0.00000000E+00	 5.00000000E-01	 4.00000000E+00
					 0.00000000E+00	 5.00000000E-01	 5.00000000E+00
					 0.00000000E+00	 5.00000000E-01	 6.00000000E+00
					 0.00000000E+00	 5.00000000E-01	 7.00000000E+00
					 5.00000000E-01	 5.00000000E-01	 1.00000000E+00
					 5.00000000E-01	 5.00000000E-01	 2.00000000E+00
					 5.00000000E-01	 5.00000000E-01	 3.00000000E+00
					 5.00000000E-01	 5.00000000E-01	 4.00000000E+00
					 5.00000000E-01	 5.00000000E-01	 5.00000000E+00
					 5.00000000E-01	 5.00000000E-01	 6.00000000E+00
					 5.00000000E-01	 5.00000000E-01	 7.00000000E+00
					 1.00000000E+00	 0.00000000E+00	 4.00000000E+00
					 0.00000000E+00	 0.00000000E+00	 4.00000000E+00
					 1.00000000E+00	 1.00000000E+00	 4.00000000E+00
					 0.00000000E+00	 1.00000000E+00	 4.00000000E+00
					 5.00000000E-01	 0.00000000E+00	 4.00000000E+00
					 1.00000000E+00	 5.00000000E-01	 4.00000000E+00
					 5.00000000E-01	 1.00000000E+00	 4.00000000E+00
					 0.00000000E+00	 5.00000000E-01	 4.00000000E+00
					 5.00000000E-01	 5.00000000E-01	 4.00000000E+00
				</DataArray>
			</Points>
			<Cells>
				<DataArray type="Int32" Name="connectivity" format="ascii">
					0 8 44 11 29 46 74 67 8 1 9 44 46 16 53 74 11 44 10 3 67 74 60 37 44 9 2 10 74 53 30 60 29 46 74 67 28 47 75 68 46 16 53 74 47 17 54 75 67 74 60 37 68 75 61 38 74 53 30 60 75 54 31 61 28 47 75 68 27 48 76 69 47 17 54 75 48 18 55 76 68 75 61 38 69 76 62 39 75 54 31 61 76 55 32 62 27 48 76 69 26 49 77 70 48 18 55 76 49 19 56 77 69 76 62 39 70 77 63 40 76 55 32 62 77 56 33 63 82 85 89 88 25 50 78 71 85 81 86 89 50 20 57 78 88 89 87 84 71 78 64 41 89 86 83 87 78 57 34 64 25 50 78 71 24 51 79 72 50 20 57 78 51 21 58 79 71 78 64 41 72 79 65 42 78 57 34 64 79 58 35 65 24 51 79 72 23 52 80 73 51 21 58 79 52 22 59 80 72 79 65 42 73 80 66 43 79 58 35 65 80 59 36 66 23 52 80 73 4 12 45 15 52 22 59 80 12 5 13 45 73 80 66 43 15 45 14 7 80 59 36 66 45 13 6 14 
				</DataArray>
				<DataArray type="Int32" Name="offsets" format="ascii">
					8 16 24 32 40 48 56 64 72 80 88 96 104 112 120 128 136 144 152 160 168 176 184 192 200 208 216 224 232 240 248 256 
				</DataArray>
				<DataArray type="UInt8" Name="types" format="ascii">
					12 12 12 12 12 12 12 12 12 12 12 12 12 12 12 12 12 12 12 12 12 12 12 12 12 12 12 12 12 12 12 12 
				</DataArray>
			</Cells>
			<PointData>
				<DataArray type="Float32" Name="U" NumberOfComponents="3" ComponentName0="D1" ComponentName1="D2" ComponentName2="D3" format="ascii">
					 0.00000000E+00	 0.00000000E+00	 0.00000000E+00
					 0.00000000E+00	 0.00000000E+00	 0.00000000E+00
					 0.00000000E+00	 0.00000000E+00	 0.00000000E+00
					 0.00000000E+00	 0.00000000E+00	 0.00000000E+00
					-7.74965000E+03	 7.74965000E+03	 6.51994000E-11
					-7.74965000E+03	-7.74965000E+03	 9.95840000E-10
					 7.74965000E+03	-7.74965000E+03	-7.93818000E-11
					 7.74965000E+03	 7.74965000E+03	-1.01107000E-09
					 0.00000000E+00	 0.00000000E+00	 0.00000000E+00
					 0.00000000E+00	 0.00000000E+00	 0.00000000E+00
					 0.00000000E+00	 0.00000000E+00	 0.00000000E+00
					 0.00000000E+00	 0.00000000E+00	 0.00000000E+00
					-8.05540000E+03	-7.06791000E-10	 5.59954000E-10
					 7.30154000E-10	-8.05540000E+03	 4.85869000E-10
					 8.05540000E+03	-1.37993000E-09	-5.77812000E-10
					 1.38895000E-09	 8.05540000E+03	-5.00037000E-10
					-1.42382000E+03	-1.42382000E+03	 1.21474000E-10
					-2.66877000E+03	-2.66877000E+03	 3.25599000E-10
					-3.81085000E+03	-3.81085000E+03	 5.73436000E-10
					-4.80968000E+03	-4.80968000E+03	 8.10132000E-10
					-5.68510000E+03	-5.68510000E+03	 1.00556000E-09
					-6.17751000E+03	-6.17751000E+03	 1.07684000E-09
					-7.09332000E+03	-7.09332000E+03	 1.06920000E-09
					-7.09332000E+03	 7.09332000E+03	 5.95008000E-11
					-6.17751000E+03	 6.17751000E+03	 4.93969000E-11
					-5.68510000E+03	 5.68510000E+03	 3.84262000E-11
					-4.80968000E+03	 4.80968000E+03	 3.04681000E-11
					-3.81085000E+03	 3.81085000E+03	 2.06910000E-11
					-2.66877000E+03	 2.66877000E+03	 1.40972000E-11
					-1.42382000E+03	 1.42382000E+03	 8.41283000E-12
					 1.42382000E+03	-1.42382000E+03	-1.18803000E-11
					 2.66877000E+03	-2.66877000E+03	-1.93268000E-11
					 3.81085000E+03	-3.81085000E+03	-2.77396000E-11
					 4.80968000E+03	-4.80968000E+03	-3.97904000E-11
					 5.68510000E+03	-5.68510000E+03	-4.95675000E-11
					 6.17751000E+03	-6.17751000E+03	-5.96856000E-11
					 7.09332000E+03	-7.09332000E+03	-7.26459000E-11
					 1.42382000E+03	 1.42382000E+03	-1.24260000E-10
					 2.66877000E+03	 2.66877000E+03	-3.32193000E-10
					 3.81085000E+03	 3.81085000E+03	-5.82531000E-10
					 4.80968000E+03	 4.80968000E+03	-8.19909000E-10
					 5.68510000E+03	 5.68510000E+03	-1.01659000E-09
					 6.17751000E+03	 6.17751000E+03	-1.08662000E-09
					 7.09332000E+03	 7.09332000E+03	-1.08133000E-09
					 0.00000000E+00	 0.00000000E+00	 0.00000000E+00
					-1.09338000E-10	 3.06500000E-10	-8.05045000E-12
					-1.41623000E+03	 7.98934000E-11	 6.69615000E-11
					-2.66881000E+03	 1.98156000E-10	 1.69848000E-10
					-3.80884000E+03	 3.19801000E-10	 2.97860000E-10
					-4.82531000E+03	 4.27235000E-10	 4.22233000E-10
					-5.61047000E+03	 5.11591000E-10	 5.15683000E-10
					-6.47550000E+03	 5.43082000E-10	 5.90976000E-10
					-6.13105000E+03	 6.28916000E-10	 4.89337000E-10
					-4.43379000E-11	-1.41623000E+03	 5.65592000E-11
					-1.17325000E-10	-2.66881000E+03	 1.52795000E-10
					-1.93268000E-10	-3.80884000E+03	 2.73303000E-10
					-2.68528000E-10	-4.82531000E+03	 3.87445000E-10
					-3.30601000E-10	-5.61047000E+03	 4.72369000E-10
					-3.35262000E-10	-6.47550000E+03	 5.33959000E-10
					-4.20869000E-10	-6.13105000E+03	 4.31420000E-10
					 1.41623000E+03	 5.51665000E-11	-6.98037000E-11
					 2.66881000E+03	 1.08798000E-10	-1.75305000E-10
					 3.80884000E+03	 1.35515000E-10	-3.05363000E-10
					 4.82531000E+03	 1.26192000E-10	-4.31100000E-10
					 5.61047000E+03	 9.77707000E-11	-5.26370000E-10
					 6.47550000E+03	 2.25100000E-11	-6.01062000E-10
					 6.13105000E+03	 2.95586000E-11	-5.01473000E-10
					-2.04636000E-11	 1.41623000E+03	-5.88898000E-11
					-2.81943000E-11	 2.66881000E+03	-1.59162000E-10
					-8.41283000E-12	 3.80884000E+03	-2.80579000E-10
					 2.95586000E-11	 4.82531000E+03	-3.97677000E-10
					 8.95852000E-11	 5.61047000E+03	-4.82260000E-10
					 1.75987000E-10	 6.47550000E+03	-5.42855000E-10
					 1.90937000E-10	 6.13105000E+03	-4.44452000E-10
					-1.93268000E-11	 5.22391000E-11	-1.13687000E-12
					-6.23004000E-11	 1.39948000E-10	-2.95586000E-12
					-8.75389000E-11	 2.12708000E-10	-4.54747000E-12
					-1.09821000E-10	 2.66255000E-10	-3.63798000E-12
					-1.22100000E-10	 3.04453000E-10	-5.45697000E-12
					-9.33369000E-11	 2.95586000E-10	-4.94538000E-12
					 3.05818000E-11	 1.54159000E-10	-6.22613000E-12
					-4.80968000E+03	-4.80968000E+03	 8.10132000E-10
					-4.80968000E+03	 4.80968000E+03	 3.04681000E-11
					 4.80968000E+03	-4.80968000E+03	-3.97904000E-11
					 4.80968000E+03	 4.80968000E+03	-8.19909000E-10
					-4.82531000E+03	 4.27235000E-10	 4.22233000E-10
					-2.68528000E-10	-4.82531000E+03	 3.87445000E-10
					 4.82531000E+03	 1.26192000E-10	-4.31100000E-10
					 2.95586000E-11	 4.82531000E+03	-3.97677000E-10
					-1.09821000E-10	 2.66255000E-10	-3.63798000E-12
				</DataArray>
				<DataArray type="Float32" Name="SENFREQ" NumberOfComponents="2" ComponentName0="DFDN" ComponentName1="DFDNFIL" format="ascii">
					 0.00000000E+00	 0.00000000E+00
					 0.00000000E+00	 0.00000000E+00
					 0.00000000E+00	 0.00000000E+00
					 0.00000000E+00	 0.00000000E+00
					-1.34521000E+11	-1.14159000E-02
					-1.34521000E+11	-1.14159000E-02
					-1.34521000E+11	-1.14159000E-02
					-1.34521000E+11	-1.14159000E-02
					 0.00000000E+00	 0.00000000E+00
					 0.00000000E+00	 0.00000000E+00
					 0.00000000E+00	 0.00000000E+00
					 0.00000000E+00	 0.00000000E+00
					 3.57231000E+12	 3.03157000E-01
					 3.57231000E+12	 3.03157000E-01
					 3.57231000E+12	 3.03157000E-01
					 3.57231000E+12	 3.03157000E-01
					 5.69559000E+11	 4.83345000E-02
					 1.99173000E+11	 1.69024000E-02
					 2.39212000E+11	 2.03002000E-02
					 0.00000000E+00	 0.00000000E+00
					-1.35368000E+11	-1.14878000E-02
					-4.51833000E+10	-3.83439000E-03
					-2.71679000E+12	-2.30555000E-01
					-2.71679000E+12	-2.30555000E-01
					-4.51833000E+10	-3.83439000E-03
					-1.35369000E+11	-1.14878000E-02
					 0.00000000E+00	 0.00000000E+00
					 2.39212000E+11	 2.03002000E-02
					 1.99173000E+11	 1.69024000E-02
					 5.69559000E+11	 4.83345000E-02
					 5.69559000E+11	 4.83345000E-02
					 1.99173000E+11	 1.69024000E-02
					 2.39212000E+11	 2.03002000E-02
					 0.00000000E+00	 0.00000000E+00
					-1.35368000E+11	-1.14878000E-02
					-4.51833000E+10	-3.83439000E-03
					-2.71679000E+12	-2.30555000E-01
					 5.69559000E+11	 4.83345000E-02
					 1.99173000E+11	 1.69024000E-02
					 2.39212000E+11	 2.03002000E-02
					 0.00000000E+00	 0.00000000E+00
					-1.35368000E+11	-1.14878000E-02
					-4.51832000E+10	-3.83438000E-03
					-2.71679000E+12	-2.30555000E-01
					 0.00000000E+00	 0.00000000E+00
					 1.17837000E+13	 1.00000000E+00
					 6.71525000E+11	 5.69876000E-02
					 2.32935000E+11	 1.97676000E-02
					 2.76332000E+11	 2.34504000E-02
					 0.00000000E+00	 0.00000000E+00
					-1.74376000E+11	-1.47981000E-02
					-1.00168000E+11	-8.50055000E-03
					-2.73415000E+12	-2.32028000E-01
					 6.71525000E+11	 5.69876000E-02
					 2.32935000E+11	 1.97676000E-02
					 2.76332000E+11	 2.34504000E-02
					 0.00000000E+00	 0.00000000E+00
					-1.74376000E+11	-1.47981000E-02
					-1.00168000E+11	-8.50055000E-03
					-2.73415000E+12	-2.32028000E-01
					 6.71525000E+11	 5.69876000E-02
					 2.32935000E+11	 1.97676000E-02
					 2.76332000E+11	 2.34504000E-02
					 0.00000000E+00	 0.00000000E+00
					-1.74376000E+11	-1.47981000E-02
					-1.00168000E+11	-8.50055000E-03
					-2.73415000E+12	-2.32028000E-01
					 6.71525000E+11	 5.69876000E-02
					 2.32935000E+11	 1.97676000E-02
					 2.76332000E+11	 2.34504000E-02
					 0.00000000E+00	 0.00000000E+00
					-1.74376000E+11	-1.47981000E-02
					-1.00168000E+11	-8.50055000E-03
					-2.73415000E+12	-2.32028000E-01
					 0.00000000E+00	 0.00000000E+00
					 0.00000000E+00	 0.00000000E+00
					 0.00000000E+00	 0.00000000E+00
					 0.00000000E+00	 0.00000000E+00
					 0.00000000E+00	 0.00000000E+00
					 0.00000000E+00	 0.00000000E+00
					 0.00000000E+00	 0.00000000E+00
					 0.00000000E+00	 0.00000000E+00
					 0.00000000E+00	 0.00000000E+00
					 0.00000000E+00	 0.00000000E+00
					 0.00000000E+00	 0.00000000E+00
					 0.00000000E+00	 0.00000000E+00
					 0.00000000E+00	 0.00000000E+00
					 0.00000000E+00	 0.00000000E+00
					 0.00000000E+00	 0.00000000E+00
					 0.00000000E+00	 0.00000000E+00
				</DataArray>
			</PointData>
		</Piece>
	</UnstructuredGrid>
</VTKFile>