<?xml version="1.0"?>
<VTKFile type="UnstructuredGrid" version="0.1" byte_order="LittleEndian">
	<UnstructuredGrid>
		<Piece NumberOfPoints="81" NumberOfCells="32">
			<Points>
				<DataArray type="Float64" NumberOfComponents="3" format="ascii">
					 0.00000000E+00	 0.00000000E+00	 0.00000000E+00
					 1.00000000E+00	 0.00000000E+00	 0.00000000E+00
					 1.00000000E+00	 1.50000000E+00	 0.00000000E+00
					 0.00000000E+00	 1.50000000E+00	 0.00000000E+00
					 0.00000000E+00	 0.00000000E+00	 8.00000000E+00
					 1.00000000E+00	 0.00000000E+00	 8.00000000E+00
					 1.00000000E+00	 1.50000000E+00	 8.00000000E+00
					 0.00000000E+00	 1.50000000E+00	 8.00000000E+00
					 5.00000000E-01	 0.00000000E+00	 0.00000000E+00
					 1.00000000E+00	 7.50000000E-01	 0.00000000E+00
					 5.00000000E-01	 1.50000000E+00	 0.00000000E+00
					 0.00000000E+00	 7.50000000E-01	 0.00000000E+00
					 5.00000000E-01	 0.00000000E+00	 8.00000000E+00
					 1.00000000E+00	 7.50000000E-01	 8.00000000E+00
					 5.00000000E-01	 1.50000000E+00	 8.00000000E+00
					 0.00000000E+00	 7.50000000E-01	 8.00000000E+00
					 1.00000000E+00	 0.00000000E+00	 1.00000000E+00
					 1.00000000E+00	 0.00000000E+00	 2.00000000E+00
					 1.00000000E+00	 0.00000000E+00	 3.00000000E+00
					 1.00000000E+00	 0.00000000E+00	 4.00000000E+00
					 1.00000000E+00	 0.00000000E+00	 5.00000000E+00
					 1.00000000E+00	 0.00000000E+00	 6.00000000E+00
					 1.00000000E+00	 0.00000000E+00	 7.00000000E+00
					 0.00000000E+00	 0.00000000E+00	 7.00000000E+00
					 0.00000000E+00	 0.00000000E+00	 6.00000000E+00
					 0.00000000E+00	 0.00000000E+00	 5.00000000E+00
					 0.00000000E+00	 0.00000000E+00	 4.00000000E+00
					 0.00000000E+00	 0.00000000E+00	 3.00000000E+00
					 0.00000000E+00	 0.00000000E+00	 2.00000000E+00
					 0.00000000E+00	 0.00000000E+00	 1.00000000E+00
					 1.00000000E+00	 1.50000000E+00	 1.00000000E+00
					 1.00000000E+00	 1.50000000E+00	 2.00000000E+00
					 1.00000000E+00	 1.50000000E+00	 3.00000000E+00
					 1.00000000E+00	 1.50000000E+00	 4.00000000E+00
					 1.00000000E+00	 1.50000000E+00	 5.00000000E+00
					 1.00000000E+00	 1.50000000E+00	 6.00000000E+00
					 1.00000000E+00	 1.50000000E+00	 7.00000000E+00
					 0.00000000E+00	 1.50000000E+00	 1.00000000E+00
					 0.00000000E+00	 1.50000000E+00	 2.00000000E+00
					 0.00000000E+00	 1.50000000E+00	 3.00000000E+00
					 0.00000000E+00	 1.50000000E+00	 4.00000000E+00
					 0.00000000E+00	 1.50000000E+00	 5.00000000E+00
					 0.00000000E+00	 1.50000000E+00	 6.00000000E+00
					 0.00000000E+00	 1.50000000E+00	 7.00000000E+00
					 5.00000000E-01	 7.50000000E-01	 0.00000000E+00
					 5.00000000E-01	 7.50000000E-01	 8.00000000E+00
					 5.00000000E-01	 0.00000000E+00	 1.00000000E+00
					 5.00000000E-01	 0.00000000E+00	 2.00000000E+00
					 5.00000000E-01	 0.00000000E+00	 3.00000000E+00
					 5.00000000E-01	 0.00000000E+00	 4.00000000E+00
					 5.00000000E-01	 0.00000000E+00	 5.00000000E+00
					 5.00000000E-01	 0.00000000E+00	 6.00000000E+00
					 5.00000000E-01	 0.00000000E+00	 7.00000000E+00
					 1.00000000E+00	 7.50000000E-01	 1.00000000E+00
					 1.00000000E+00	 7.50000000E-01	 2.00000000E+00
					 1.00000000E+00	 7.50000000E-01	 3.00000000E+00
					 1.00000000E+00	 7.50000000E-01	 4.00000000E+00
					 1.00000000E+00	 7.50000000E-01	 5.00000000E+00
					 1.00000000E+00	 7.50000000E-01	 6.00000000E+00
					 1.00000000E+00	 7.50000000E-01	 7.00000000E+00
					 5.00000000E-01	 1.50000000E+00	 1.00000000E+00
					 5.00000000E-01	 1.50000000E+00	 2.00000000E+00
					 5.00000000E-01	 1.50000000E+00	 3.00000000E+00
					 5.00000000E-01	 1.50000000E+00	 4.00000000E+00
					 5.00000000E-01	 1.50000000E+00	 5.00000000E+00
					 5.00000000E-01	 1.50000000E+00	 6.00000000E+00
					 5.00000000E-01	 1.50000000E+00	 7.00000000E+00
					 0.00000000E+00	 7.50000000E-01	 1.00000000E+00
					 0.00000000E+00	 7.50000000E-01	 2.00000000E+00
					 0.00000000E+00	 7.50000000E-01	 3.00000000E+00
					 0.00000000E+00	 7.50000000E-01	 4.00000000E+00
					 0.00000000E+00	 7.50000000E-01	 5.00000000E+00
					 0.00000000E+00	 7.50000000E-01	 6.00000000E+00
					 0.00000000E+00	 7.50000000E-01	 7.00000000E+00
					 5.00000000E-01	 7.50000000E-01	 1.00000000E+00
					 5.00000000E-01	 7.50000000E-01	 2.00000000E+00
					 5.00000000E-01	 7.50000000E-01	 3.00000000E+00
					 5.00000000E-01	 7.50000000E-01	 4.00000000E+00
					 5.00000000E-01	 7.50000000E-01	 5.00000000E+00
					 5.00000000E-01	 7.50000000E-01	 6.00000000E+00
					 5.00000000E-01	 7.50000000E-01	 7.00000000E+00
				</DataArray>
			</Points>
			<Cells>
				<DataArray type="Int32" Name="connectivity" format="ascii">
					0 8 44 11 29 46 74 67 8 1 9 44 46 16 53 74 11 44 10 3 67 74 60 37 44 9 2 10 74 53 30 60 29 46 74 67 28 47 75 68 46 16 53 74 47 17 54 75 67 74 60 37 68 75 61 38 74 53 30 60 75 54 31 61 28 47 75 68 27 48 76 69 47 17 54 75 48 18 55 76 68 75 61 38 69 76 62 39 75 54 31 61 76 55 32 62 27 48 76 69 26 49 77 70 48 18 55 76 49 19 56 77 69 76 62 39 70 77 63 40 76 55 32 62 77 56 33 63 26 49 77 70 25 50 78 71 49 19 56 77 50 20 57 78 70 77 63 40 71 78 64 41 77 56 33 63 78 57 34 64 25 50 78 71 24 51 79 72 50 20 57 78 51 21 58 79 71 78 64 41 72 79 65 42 78 57 34 64 79 58 35 65 24 51 79 72 23 52 80 73 51 21 58 79 52 22 59 80 72 79 65 42 73 80 66 43 79 58 35 65 80 59 36 66 23 52 80 73 4 12 45 15 52 22 59 80 12 5 13 45 73 80 66 43 15 45 14 7 80 59 36 66 45 13 6 14 
				</DataArray>
				<DataArray type="Int32" Name="offsets" format="ascii">
					8 16 24 32 40 48 56 64 72 80 88 96 104 112 120 128 136 144 152 160 168 176 184 192 200 208 216 224 232 240 248 256 
				</DataArray>
				<DataArray type="UInt8" Name="types" format="ascii">
					12 12 12 12 12 12 12 12 12 12 12 12 12 12 12 12 12 12 12 12 12 12 12 12 12 12 12 12 12 12 12 12 
				</DataArray>
			</Cells>
			<PointData>
				<DataArray type="Float32" Name="U" NumberOfComponents="3" ComponentName0="D1" ComponentName1="D2" ComponentName2="D3" format="ascii">
					 0.00000000E+00	 0.00000000E+00	 0.00000000E+00
					 0.00000000E+00	 0.00000000E+00	 0.00000000E+00
					 0.00000000E+00	 0.00000000E+00	 0.00000000E+00
					 0.00000000E+00	 0.00000000E+00	 0.00000000E+00
					 2.33670000E-06	 2.39296000E-03	 3.31623000E-04
					-2.33670000E-06	 2.39296000E-03	 3.31623000E-04
					 2.33670000E-06	 2.39296000E-03	-3.31623000E-04
					-2.33670000E-06	 2.39296000E-03	-3.31623000E-04
					 0.00000000E+00	 0.00000000E+00	 0.00000000E+00
					 0.00000000E+00	 0.00000000E+00	 0.00000000E+00
					 0.00000000E+00	 0.00000000E+00	 0.00000000E+00
					 0.00000000E+00	 0.00000000E+00	 0.00000000E+00
					 4.85579000E-17	 2.39281000E-03	 3.31130000E-04
					 3.05072000E-17	 2.39121000E-03	-1.07355000E-18
					 1.23533000E-17	 2.39281000E-03	-3.31130000E-04
					 3.03984000E-17	 2.39121000E-03	 7.18951000E-18
					-1.41615000E-05	 5.88438000E-05	 7.25896000E-05
					-1.00523000E-05	 2.08368000E-04	 1.41292000E-04
					-8.57961000E-06	 4.44088000E-04	 1.99383000E-04
					-6.86988000E-06	 7.49644000E-04	 2.46812000E-04
					-5.12592000E-06	 1.11155000E-03	 2.83706000E-04
					-3.51124000E-06	 1.51559000E-03	 3.10110000E-04
					-1.29471000E-06	 1.94792000E-03	 3.25781000E-04
					 1.29471000E-06	 1.94792000E-03	 3.25781000E-04
					 3.51124000E-06	 1.51559000E-03	 3.10110000E-04
					 5.12592000E-06	 1.11155000E-03	 2.83706000E-04
					 6.86988000E-06	 7.49644000E-04	 2.46812000E-04
					 8.57961000E-06	 4.44088000E-04	 1.99383000E-04
					 1.00523000E-05	 2.08368000E-04	 1.41292000E-04
					 1.41615000E-05	 5.88438000E-05	 7.25896000E-05
					 1.41615000E-05	 5.88438000E-05	-7.25896000E-05
					 1.00523000E-05	 2.08368000E-04	-1.41292000E-04
					 8.57961000E-06	 4.44088000E-04	-1.99383000E-04
					 6.86988000E-06	 7.49644000E-04	-2.46812000E-04
					 5.12592000E-06	 1.11155000E-03	-2.83706000E-04
					 3.51124000E-06	 1.51559000E-03	-3.10110000E-04
					 1.29471000E-06	 1.94792000E-03	-3.25781000E-04
					-1.41615000E-05	 5.88438000E-05	-7.25896000E-05
					-1.00523000E-05	 2.08368000E-04	-1.41292000E-04
					-8.57961000E-06	 4.44088000E-04	-1.99383000E-04
					-6.86988000E-06	 7.49644000E-04	-2.46812000E-04
					-5.12592000E-06	 1.11155000E-03	-2.83706000E-04
					-3.51124000E-06	 1.51559000E-03	-3.10110000E-04
					-1.29471000E-06	 1.94792000E-03	-3.25781000E-04
					 0.00000000E+00	 0.00000000E+00	 0.00000000E+00
					 3.04710000E-17	 2.39922000E-03	 2.95233000E-18
					 2.45628000E-18	 6.33773000E-05	 7.12189000E-05
					 5.93235000E-18	 2.11817000E-04	 1.42147000E-04
					 1.00425000E-17	 4.46915000E-04	 1.99632000E-04
					 1.48659000E-17	 7.51936000E-04	 2.47160000E-04
					 2.07801000E-17	 1.11328000E-03	 2.84071000E-04
					 2.85713000E-17	 1.51665000E-03	 3.10376000E-04
					 3.91228000E-17	 1.94870000E-03	 3.26370000E-04
					 2.89505000E-19	 4.90193000E-05	 1.06475000E-19
					 1.29193000E-18	 2.01965000E-04	 2.60560000E-19
					 2.87002000E-18	 4.38250000E-04	 3.95746000E-19
					 5.31598000E-18	 7.45095000E-04	 4.38937000E-19
					 9.16530000E-18	 1.10814000E-03	-1.39395000E-19
					 1.47346000E-17	 1.51317000E-03	-5.55654000E-19
					 2.24328000E-17	 1.94726000E-03	-9.23665000E-19
					-1.87260000E-18	 6.33773000E-05	-7.12189000E-05
					-3.40084000E-18	 2.11817000E-04	-1.42147000E-04
					-4.46350000E-18	 4.46915000E-04	-1.99632000E-04
					-4.64513000E-18	 7.51936000E-04	-2.47160000E-04
					-3.47622000E-18	 1.11328000E-03	-2.84071000E-04
					 1.69127000E-20	 1.51665000E-03	-3.10376000E-04
					 5.13302000E-18	 1.94870000E-03	-3.26370000E-04
					 4.68246000E-19	 4.90193000E-05	 7.55553000E-19
					 1.39379000E-18	 2.01965000E-04	 1.55515000E-18
					 3.12399000E-18	 4.38250000E-04	 2.43607000E-18
					 5.19397000E-18	 7.45095000E-04	 3.41370000E-18
					 9.00565000E-18	 1.10814000E-03	 4.75694000E-18
					 1.47079000E-17	 1.51317000E-03	 6.22061000E-18
					 2.26034000E-17	 1.94726000E-03	 7.10217000E-18
					 3.51264000E-19	 5.35203000E-05	 4.13476000E-19
					 1.30440000E-18	 2.05290000E-04	 9.30042000E-19
					 3.01229000E-18	 4.41142000E-04	 1.43701000E-18
					 5.18384000E-18	 7.47387000E-04	 1.93927000E-18
					 8.98154000E-18	 1.10978000E-03	 2.26031000E-18
					 1.45733000E-17	 1.51470000E-03	 2.83925000E-18
					 2.25514000E-17	 1.94609000E-03	 3.12294000E-18
				</DataArray>
				<DataArray type="Float32" Name="S" NumberOfComponents="10" ComponentName0="xx" ComponentName1="yy" ComponentName2="zz" ComponentName3="xy" ComponentName4="yz" ComponentName5="zx" ComponentName6="Mises" ComponentName7="Min Principal" ComponentName8="Mid Principal" ComponentName9="Max Principal" format="ascii">
					 8.79439000E+00	 8.79440000E+00	 2.05201000E+01	-2.14093000E-06	 4.75272000E+00	 1.14380000E+00	 1.44631267E+01	 7.02379361E+00	 8.79439152E+00	 2.22907049E+01
					 8.79439000E+00	 8.79440000E+00	 2.05201000E+01	 2.14093000E-06	 4.75272000E+00	-1.14380000E+00	 1.44631267E+01	 7.02379361E+00	 8.79439152E+00	 2.22907049E+01
					-8.79439000E+00	-8.79440000E+00	-2.05201000E+01	 2.14093000E-06	 4.75272000E+00	 1.14380000E+00	 1.44631267E+01	-2.22907049E+01	-8.79439152E+00	-7.02379361E+00
					-8.79439000E+00	-8.79440000E+00	-2.05201000E+01	-2.14093000E-06	 4.75272000E+00	-1.14380000E+00	 1.44631267E+01	-2.22907049E+01	-8.79439152E+00	-7.02379361E+00
					-8.95904000E-01	-5.17674000E-01	 8.02643000E-01	-2.74472000E-01	 2.31992000E-01	 4.61575000E-03	 1.66529512E+00	-1.04711663E+00	-4.07064614E-01	 8.43246247E-01
					-8.95904000E-01	-5.17674000E-01	 8.02643000E-01	 2.74472000E-01	 2.31992000E-01	-4.61575000E-03	 1.66529512E+00	-1.04711663E+00	-4.07064614E-01	 8.43246247E-01
					 8.95904000E-01	 5.17674000E-01	-8.02643000E-01	 2.74472000E-01	 2.31992000E-01	 4.61575000E-03	 1.66529512E+00	-8.43246247E-01	 4.07064614E-01	 1.04711663E+00
					 8.95904000E-01	 5.17674000E-01	-8.02643000E-01	-2.74472000E-01	 2.31992000E-01	-4.61575000E-03	 1.66529512E+00	-8.43246247E-01	 4.07064614E-01	 1.04711663E+00
					 8.62833000E+00	 8.62833000E+00	 2.01326000E+01	-7.11237000E-17	 5.11888000E+00	 1.98176000E-13	 1.45243597E+01	 6.68046568E+00	 8.62833000E+00	 2.20804643E+01
					 1.34615000E-14	 1.24067000E-14	 3.04201000E-14	 2.15957000E-06	 3.95920000E+00	 2.33633000E-14	 6.85753556E+00	-3.95920000E+00	 1.34614745E-14	 3.95920000E+00
					-8.62833000E+00	-8.62833000E+00	-2.01326000E+01	 2.08167000E-17	 5.11888000E+00	-1.51091000E-13	 1.45243597E+01	-2.20804643E+01	-8.62833000E+00	-6.68046568E+00
					 9.08822000E-14	 9.13991000E-14	 2.13440000E-13	-2.15957000E-06	 3.95920000E+00	 3.77107000E-14	 6.85753556E+00	-3.95920000E+00	 9.08822413E-14	 3.95920000E+00
					 2.89687000E-01	 2.42348000E+00	 1.81346000E+00	 1.94983000E-14	 2.10997000E-01	 4.62616000E-14	 1.93832396E+00	 2.89687000E-01	 1.74759154E+00	 2.48934846E+00
					-2.10110000E-14	-7.49401000E-14	-4.56302000E-14	-1.04220000E+00	 1.43776000E-01	 1.79023000E-15	 1.82223959E+00	-1.05207052E+00	-4.45199433E-14	 1.05207052E+00
					-2.89687000E-01	-2.42348000E+00	-1.81346000E+00	-1.91080000E-14	 2.10997000E-01	-6.43374000E-14	 1.93832396E+00	-2.48934846E+00	-1.74759154E+00	-2.89687000E-01
					 8.27394000E-14	 1.04139000E-13	 7.00551000E-14	 1.04220000E+00	 1.43776000E-01	-5.42103000E-14	 1.82223959E+00	-1.05207052E+00	 8.54871729E-14	 1.05207052E+00
					-1.03468000E+00	 1.42451000E+00	 1.49523000E+01	 7.92748000E-01	 5.97511000E-01	-1.84534000E-01	 1.50124844E+01	-1.27548961E+00	 1.63758071E+00	 1.49800389E+01
					 9.62933000E-01	 2.83135000E+00	 1.44513000E+01	 5.25480000E-01	 3.41804000E-01	 8.73798000E-02	 1.27053892E+01	 8.25285428E-01	 2.95816810E+00	 1.44621295E+01
					 5.98275000E-01	 2.11279000E+00	 1.18926000E+01	 4.67264000E-01	 3.87176000E-01	 8.82465000E-02	 1.06713726E+01	 4.65677289E-01	 2.22907638E+00	 1.19089113E+01
					 4.89002000E-01	 1.72864000E+00	 9.51898000E+00	 3.69556000E-01	 3.75223000E-01	 8.32372000E-02	 8.52855077E+00	 3.87151097E-01	 1.81133324E+00	 9.53813766E+00
					 3.86109000E-01	 1.30862000E+00	 7.15453000E+00	 2.71618000E-01	 3.79354000E-01	 7.66668000E-02	 6.41009340E+00	 3.11977533E-01	 1.35693369E+00	 7.18034777E+00
					 1.73801000E-01	 7.88473000E-01	 4.70649000E+00	 2.06092000E-01	 3.80169000E-01	 1.11775000E-01	 4.32844803E+00	 1.11094205E-01	 8.10873014E-01	 4.74679678E+00
					 4.65070000E-01	 7.41912000E-01	 2.62086000E+00	 1.42066000E-02	 3.48113000E-01	-4.77939000E-02	 2.12091137E+00	 4.61867544E-01	 6.81799308E-01	 2.68417515E+00
					 4.65070000E-01	 7.41912000E-01	 2.62086000E+00	-1.42066000E-02	 3.48113000E-01	 4.77939000E-02	 2.12091137E+00	 4.61867544E-01	 6.81799308E-01	 2.68417515E+00
					 1.73801000E-01	 7.88473000E-01	 4.70649000E+00	-2.06092000E-01	 3.80169000E-01	-1.11775000E-01	 4.32844803E+00	 1.11094205E-01	 8.10873014E-01	 4.74679678E+00
					 3.86109000E-01	 1.30862000E+00	 7.15453000E+00	-2.71618000E-01	 3.79354000E-01	-7.66668000E-02	 6.41009340E+00	 3.11977533E-01	 1.35693369E+00	 7.18034777E+00
					 4.89002000E-01	 1.72864000E+00	 9.51898000E+00	-3.69556000E-01	 3.75223000E-01	-8.32372000E-02	 8.52855077E+00	 3.87151097E-01	 1.81133324E+00	 9.53813766E+00
					 5.98275000E-01	 2.11279000E+00	 1.18926000E+01	-4.67264000E-01	 3.87176000E-01	-8.82465000E-02	 1.06713726E+01	 4.65677289E-01	 2.22907638E+00	 1.19089113E+01
					 9.62933000E-01	 2.83135000E+00	 1.44513000E+01	-5.25480000E-01	 3.41804000E-01	-8.73798000E-02	 1.27053892E+01	 8.25285428E-01	 2.95816810E+00	 1.44621295E+01
					-1.03468000E+00	 1.42451000E+00	 1.49523000E+01	-7.92748000E-01	 5.97511000E-01	 1.84534000E-01	 1.50124844E+01	-1.27548961E+00	 1.63758071E+00	 1.49800389E+01
					 1.03468000E+00	-1.42451000E+00	-1.49523000E+01	 7.92748000E-01	 5.97511000E-01	 1.84534000E-01	 1.50124844E+01	-1.49800389E+01	-1.63758071E+00	 1.27548961E+00
					-9.62933000E-01	-2.83135000E+00	-1.44513000E+01	 5.25480000E-01	 3.41804000E-01	-8.73798000E-02	 1.27053892E+01	-1.44621295E+01	-2.95816810E+00	-8.25285428E-01
					-5.98275000E-01	-2.11279000E+00	-1.18926000E+01	 4.67264000E-01	 3.87176000E-01	-8.82465000E-02	 1.06713726E+01	-1.19089113E+01	-2.22907638E+00	-4.65677289E-01
					-4.89002000E-01	-1.72864000E+00	-9.51898000E+00	 3.69556000E-01	 3.75223000E-01	-8.32372000E-02	 8.52855077E+00	-9.53813766E+00	-1.81133324E+00	-3.87151097E-01
					-3.86109000E-01	-1.30862000E+00	-7.15453000E+00	 2.71618000E-01	 3.79354000E-01	-7.66668000E-02	 6.41009340E+00	-7.18034777E+00	-1.35693369E+00	-3.11977533E-01
					-1.73801000E-01	-7.88473000E-01	-4.70649000E+00	 2.06092000E-01	 3.80169000E-01	-1.11775000E-01	 4.32844803E+00	-4.74679678E+00	-8.10873014E-01	-1.11094205E-01
					-4.65070000E-01	-7.41912000E-01	-2.62086000E+00	 1.42066000E-02	 3.48113000E-01	 4.77939000E-02	 2.12091137E+00	-2.68417515E+00	-6.81799308E-01	-4.61867544E-01
					 1.03468000E+00	-1.42451000E+00	-1.49523000E+01	-7.92748000E-01	 5.97511000E-01	-1.84534000E-01	 1.50124844E+01	-1.49800389E+01	-1.63758071E+00	 1.27548961E+00
					-9.62933000E-01	-2.83135000E+00	-1.44513000E+01	-5.25480000E-01	 3.41804000E-01	 8.73798000E-02	 1.27053892E+01	-1.44621295E+01	-2.95816810E+00	-8.25285428E-01
					-5.98275000E-01	-2.11279000E+00	-1.18926000E+01	-4.67264000E-01	 3.87176000E-01	 8.82465000E-02	 1.06713726E+01	-1.19089113E+01	-2.22907638E+00	-4.65677289E-01
					-4.89002000E-01	-1.72864000E+00	-9.51898000E+00	-3.69556000E-01	 3.75223000E-01	 8.32372000E-02	 8.52855077E+00	-9.53813766E+00	-1.81133324E+00	-3.87151097E-01
					-3.86109000E-01	-1.30862000E+00	-7.15453000E+00	-2.71618000E-01	 3.79354000E-01	 7.66668000E-02	 6.41009340E+00	-7.18034777E+00	-1.35693369E+00	-3.11977533E-01
					-1.73801000E-01	-7.88473000E-01	-4.70649000E+00	-2.06092000E-01	 3.80169000E-01	 1.11775000E-01	 4.32844803E+00	-4.74679678E+00	-8.10873014E-01	-1.11094205E-01
					-4.65070000E-01	-7.41912000E-01	-2.62086000E+00	-1.42066000E-02	 3.48113000E-01	-4.77939000E-02	 2.12091137E+00	-2.68417515E+00	-6.81799308E-01	-4.61867544E-01
					 5.01734000E-14	 4.99323000E-14	 1.18142000E-13	-2.60209000E-18	 4.32274000E+00	 2.83731000E-14	 7.48720531E+00	-4.32274000E+00	 5.01734000E-14	 4.32274000E+00
					-2.87548000E-14	-9.93650000E-14	-7.28861000E-14	 1.68199000E-14	 9.38117000E-01	-2.74011000E-14	 1.62486631E+00	-9.38117000E-01	-2.87548000E-14	 9.38117000E-01
					-9.88170000E-01	 1.46401000E+00	 1.50678000E+01	-1.11022000E-15	 8.84388000E-01	 1.22555000E-13	 1.50592715E+01	-9.88170000E-01	 1.40675653E+00	 1.51250535E+01
					 1.04111000E+00	 2.88292000E+00	 1.46603000E+01	-2.77556000E-17	 1.80869000E-01	 1.17184000E-13	 1.28019054E+01	 1.04111000E+00	 2.88014299E+00	 1.46630770E+01
					 5.78091000E-01	 2.10659000E+00	 1.18316000E+01	-1.64591000E-14	 3.13630000E-01	 1.20638000E-13	 1.05864011E+01	 5.78091000E-01	 2.09648598E+00	 1.18417040E+01
					 4.96007000E-01	 1.73563000E+00	 9.53533000E+00	-3.21965000E-15	 2.93660000E-01	 1.26104000E-13	 8.50290429E+00	 4.96007000E-01	 1.72458928E+00	 9.54637072E+00
					 3.64891000E-01	 1.26576000E+00	 7.12667000E+00	-8.72913000E-15	 2.90483000E-01	 1.08732000E-13	 6.37925421E+00	 3.64891000E-01	 1.25139805E+00	 7.14103195E+00
					 2.61448000E-01	 9.74853000E-01	 4.81227000E+00	-3.63737000E-14	 3.12745000E-01	 1.37643000E-13	 4.27384800E+00	 2.61448000E-01	 9.49531731E-01	 4.83759127E+00
					 1.05131000E-01	-3.67003000E-02	 2.19968000E+00	-3.70884000E-14	 2.35913000E-01	 7.89820000E-14	 2.20709970E+00	-6.13155381E-02	 1.05131000E-01	 2.22429524E+00
					-2.29261000E-14	-8.88178000E-15	 1.99840000E-14	 7.98002000E-01	 3.38908000E-01	 2.42167000E-15	 1.50166490E+00	-8.66986635E-01	 1.16713155E-14	 8.66986635E-01
					 6.10623000E-16	-1.14353000E-14	 3.14193000E-14	 5.45437000E-01	 5.02809000E-01	-4.53327000E-15	 1.28489503E+00	-7.41834491E-01	 2.13197515E-14	 7.41834491E-01
					-5.50671000E-14	 4.32987000E-15	 1.33782000E-14	 4.56772000E-01	 4.62058000E-01	-6.62057000E-15	 1.12535095E+00	-6.49721675E-01	-1.45803508E-14	 6.49721675E-01
					 3.22797000E-14	-3.13083000E-14	-4.71567000E-14	 3.69563000E-01	 4.73436000E-01	 1.16975000E-14	 1.04026697E+00	-6.00598416E-01	-9.10306986E-15	 6.00598416E-01
					 1.69587000E-13	 2.69840000E-13	 3.78308000E-14	 2.87851000E-01	 4.65627000E-01	-7.40380000E-15	 9.48156160E-01	-5.47418214E-01	 1.39766670E-13	 5.47418214E-01
					 4.72955000E-14	-4.85723000E-15	-6.30745000E-14	 1.32042000E-01	 4.91187000E-01	-1.20351000E-14	 8.80964969E-01	-5.08625362E-01	 4.58938443E-14	 5.08625362E-01
					-4.40654000E-14	 5.76691000E-14	-3.86011000E-14	 3.28212000E-01	 3.74932000E-01	-1.65025000E-14	 8.63070892E-01	-4.98294212E-01	-2.54631385E-14	 4.98294212E-01
					 9.88170000E-01	-1.46401000E+00	-1.50678000E+01	 1.38500000E-14	 8.84388000E-01	-1.19134000E-13	 1.50592715E+01	-1.51250535E+01	-1.40675653E+00	 9.88170000E-01
					-1.04111000E+00	-2.88292000E+00	-1.46603000E+01	-2.44249000E-15	 1.80869000E-01	-1.28841000E-13	 1.28019054E+01	-1.46630770E+01	-2.88014299E+00	-1.04111000E+00
					-5.78091000E-01	-2.10659000E+00	-1.18316000E+01	 1.76248000E-15	 3.13630000E-01	-1.32587000E-13	 1.05864011E+01	-1.18417040E+01	-2.09648598E+00	-5.78091000E-01
					-4.96007000E-01	-1.73563000E+00	-9.53533000E+00	 2.61458000E-14	 2.93660000E-01	-1.37048000E-13	 8.50290429E+00	-9.54637072E+00	-1.72458928E+00	-4.96007000E-01
					-3.64891000E-01	-1.26576000E+00	-7.12667000E+00	 9.05803000E-14	 2.90483000E-01	-1.03731000E-13	 6.37925421E+00	-7.14103195E+00	-1.25139805E+00	-3.64891000E-01
					-2.61448000E-01	-9.74853000E-01	-4.81227000E+00	 2.24543000E-14	 3.12745000E-01	-1.19644000E-13	 4.27384800E+00	-4.83759127E+00	-9.49531731E-01	-2.61448000E-01
					-1.05131000E-01	 3.67003000E-02	-2.19968000E+00	 3.58741000E-15	 2.35913000E-01	-1.06852000E-13	 2.20709970E+00	-2.22429524E+00	-1.05131000E-01	 6.13155381E-02
					-6.88338000E-15	-1.45439000E-14	 1.55320000E-13	-7.98002000E-01	 3.38908000E-01	 9.44177000E-16	 1.50166490E+00	-8.66986635E-01	 1.31200606E-13	 8.66986635E-01
					 3.14748000E-14	 3.53051000E-14	 1.95233000E-13	-5.45437000E-01	 5.02809000E-01	 7.01121000E-15	 1.28489503E+00	-7.41834491E-01	 1.26876808E-13	 7.41834491E-01
					-5.38458000E-15	-3.81917000E-14	 1.78024000E-13	-4.56772000E-01	 4.62058000E-01	-8.03798000E-15	 1.12535095E+00	-6.49721675E-01	 7.72203482E-14	 6.49721675E-01
					 7.89646000E-14	 1.09357000E-14	 2.67175000E-13	-3.69563000E-01	 4.73436000E-01	 1.00516000E-15	 1.04026697E+00	-6.00598416E-01	 1.51205166E-13	 6.00598416E-01
					 1.09773000E-13	 5.72875000E-14	 3.43364000E-13	-2.87851000E-01	 4.65627000E-01	-2.13330000E-14	 9.48156160E-01	-5.47418214E-01	 1.55311270E-13	 5.47418214E-01
					-1.06845000E-13	-2.87742000E-13	 1.19932000E-13	-1.32042000E-01	 4.91187000E-01	 2.65678000E-15	 8.80964969E-01	-5.08625362E-01	-9.02137347E-14	 5.08625362E-01
					 3.65680000E-15	-8.56260000E-15	 9.36612000E-14	-3.28212000E-01	 3.74932000E-01	-8.58656000E-15	 8.63070892E-01	-4.98294212E-01	 3.41818587E-14	 4.98294212E-01
					-1.19904000E-14	-7.16094000E-15	 9.24261000E-14	 1.06165000E-14	 6.20796000E-01	 2.19985000E-16	 1.07525021E+00	-6.20796000E-01	-1.19904000E-14	 6.20796000E-01
					 7.91034000E-15	-9.54792000E-15	 1.07303000E-13	 3.62210000E-15	 3.45810000E-01	 3.04094000E-15	 5.98960490E-01	-3.45810000E-01	 7.91034000E-15	 3.45810000E-01
					-3.33622000E-14	-2.28706000E-14	 8.87623000E-14	-5.24580000E-15	 3.93499000E-01	-8.61805000E-15	 6.81560261E-01	-3.93499000E-01	-3.33622000E-14	 3.93499000E-01
					 5.49699000E-14	-4.08007000E-15	 1.02113000E-13	 5.48867000E-14	 3.85191000E-01	 1.54797000E-15	 6.67170383E-01	-3.85191000E-01	 5.49699000E-14	 3.85191000E-01
					 3.81917000E-14	-7.01939000E-14	 8.54733000E-14	-1.36627000E-14	 3.95270000E-01	-1.74107000E-14	 6.84627723E-01	-3.95270000E-01	 3.81917000E-14	 3.95270000E-01
					-2.04281000E-14	-1.34365000E-13	 4.76980000E-14	-1.13416000E-14	 3.49320000E-01	 8.64922000E-16	 6.05039988E-01	-3.49320000E-01	-2.04281000E-14	 3.49320000E-01
					 2.06918000E-14	 1.28217000E-13	 6.02088000E-14	-1.19037000E-14	 5.73386000E-01	-5.83852000E-15	 9.93133684E-01	-5.73386000E-01	 2.06918000E-14	 5.73386000E-01
				</DataArray>
				<DataArray type="Float32" Name="ERROR" NumberOfComponents="1" ComponentName0="STR" format="ascii">
					 6.08651000E+01
					 6.08651000E+01
					 6.08651000E+01
					 6.08651000E+01
					 4.70004000E+01
					 4.70004000E+01
					 4.70004000E+01
					 4.70004000E+01
					 6.08651000E+01
					 6.08651000E+01
					 6.08651000E+01
					 6.08651000E+01
					 4.70004000E+01
					 4.70004000E+01
					 4.70004000E+01
					 4.70004000E+01
					 6.08651000E+01
					 5.79534000E+01
					 5.84113000E+01
					 5.91987000E+01
					 6.00778000E+01
					 6.23107000E+01
					 6.23107000E+01
					 6.23107000E+01
					 6.23107000E+01
					 6.00778000E+01
					 5.91987000E+01
					 5.84113000E+01
					 5.79534000E+01
					 6.08651000E+01
					 6.08651000E+01
					 5.79534000E+01
					 5.84113000E+01
					 5.91987000E+01
					 6.00778000E+01
					 6.23107000E+01
					 6.23107000E+01
					 6.08651000E+01
					 5.79534000E+01
					 5.84113000E+01
					 5.91987000E+01
					 6.00778000E+01
					 6.23107000E+01
					 6.23107000E+01
					 6.08651000E+01
					 4.70004000E+01
					 6.08651000E+01
					 5.79534000E+01
					 5.84113000E+01
					 5.91987000E+01
					 6.00778000E+01
					 6.23107000E+01
					 6.23107000E+01
					 6.08651000E+01
					 5.79534000E+01
					 5.84113000E+01
					 5.91987000E+01
					 6.00778000E+01
					 6.23107000E+01
					 6.23107000E+01
					 6.08651000E+01
					 5.79534000E+01
					 5.84113000E+01
					 5.91987000E+01
					 6.00778000E+01
					 6.23107000E+01
					 6.23107000E+01
					 6.08651000E+01
					 5.79534000E+01
					 5.84113000E+01
					 5.91987000E+01
					 6.00778000E+01
					 6.23107000E+01
					 6.23107000E+01
					 6.08651000E+01
					 5.79534000E+01
					 5.84113000E+01
					 5.91987000E+01
					 6.00778000E+01
					 6.23107000E+01
					 6.23107000E+01
				</DataArray>
			</PointData>
		</Piece>
	</UnstructuredGrid>
</VTKFile>