<?xml version="1.0"?>
<VTKFile type="UnstructuredGrid" version="0.1" byte_order="LittleEndian">
	<UnstructuredGrid>
		<Piece NumberOfPoints="261" NumberOfCells="32">
			<Points>
				<DataArray type="Float64" NumberOfComponents="3" format="ascii">
					 0.00000000E+00	 0.00000000E+00	 0.00000000E+00
					 1.00000000E+00	 0.00000000E+00	 0.00000000E+00
					 1.00000000E+00	 1.00000000E+00	 0.00000000E+00
					 0.00000000E+00	 1.00000000E+00	 0.00000000E+00
					 0.00000000E+00	 0.00000000E+00	 8.00000000E+00
					 1.00000000E+00	 0.00000000E+00	 8.00000000E+00
					 1.00000000E+00	 1.00000000E+00	 8.00000000E+00
					 0.00000000E+00	 1.00000000E+00	 8.00000000E+00
					 2.50000000E-01	 0.00000000E+00	 0.00000000E+00
					 5.00000000E-01	 0.00000000E+00	 0.00000000E+00
					 7.50000000E-01	 0.00000000E+00	 0.00000000E+00
					 1.00000000E+00	 2.50000000E-01	 0.00000000E+00
					 1.00000000E+00	 5.00000000E-01	 0.00000000E+00
					 1.00000000E+00	 7.50000000E-01	 0.00000000E+00
					 7.50000000E-01	 1.00000000E+00	 0.00000000E+00
					 5.00000000E-01	 1.00000000E+00	 0.00000000E+00
					 2.50000000E-01	 1.00000000E+00	 0.00000000E+00
					 0.00000000E+00	 7.50000000E-01	 0.00000000E+00
					 0.00000000E+00	 5.00000000E-01	 0.00000000E+00
					 0.00000000E+00	 2.50000000E-01	 0.00000000E+00
					 2.50000000E-01	 0.00000000E+00	 8.00000000E+00
					 5.00000000E-01	 0.00000000E+00	 8.00000000E+00
					 7.50000000E-01	 0.00000000E+00	 8.00000000E+00
					 1.00000000E+00	 2.50000000E-01	 8.00000000E+00
					 1.00000000E+00	 5.00000000E-01	 8.00000000E+00
					 1.00000000E+00	 7.50000000E-01	 8.00000000E+00
					 7.50000000E-01	 1.00000000E+00	 8.00000000E+00
					 5.00000000E-01	 1.00000000E+00	 8.00000000E+00
					 2.50000000E-01	 1.00000000E+00	 8.00000000E+00
					 0.00000000E+00	 7.50000000E-01	 8.00000000E+00
					 0.00000000E+00	 5.00000000E-01	 8.00000000E+00
					 0.00000000E+00	 2.50000000E-01	 8.00000000E+00
					 1.00000000E+00	 0.00000000E+00	 5.00000000E-01
					 1.00000000E+00	 0.00000000E+00	 1.00000000E+00
					 1.00000000E+00	 0.00000000E+00	 1.50000000E+00
					 1.00000000E+00	 0.00000000E+00	 2.00000000E+00
					 1.00000000E+00	 0.00000000E+00	 2.50000000E+00
					 1.00000000E+00	 0.00000000E+00	 3.00000000E+00
					 1.00000000E+00	 0.00000000E+00	 3.50000000E+00
					 1.00000000E+00	 0.00000000E+00	 4.00000000E+00
					 1.00000000E+00	 0.00000000E+00	 4.50000000E+00
					 1.00000000E+00	 0.00000000E+00	 5.00000000E+00
					 1.00000000E+00	 0.00000000E+00	 5.50000000E+00
					 1.00000000E+00	 0.00000000E+00	 6.00000000E+00
					 1.00000000E+00	 0.00000000E+00	 6.50000000E+00
					 1.00000000E+00	 0.00000000E+00	 7.00000000E+00
					 1.00000000E+00	 0.00000000E+00	 7.50000000E+00
					 0.00000000E+00	 0.00000000E+00	 7.50000000E+00
					 0.00000000E+00	 0.00000000E+00	 7.00000000E+00
					 0.00000000E+00	 0.00000000E+00	 6.50000000E+00
					 0.00000000E+00	 0.00000000E+00	 6.00000000E+00
					 0.00000000E+00	 0.00000000E+00	 5.50000000E+00
					 0.00000000E+00	 0.00000000E+00	 5.00000000E+00
					 0.00000000E+00	 0.00000000E+00	 4.50000000E+00
					 0.00000000E+00	 0.00000000E+00	 4.00000000E+00
					 0.00000000E+00	 0.00000000E+00	 3.50000000E+00
					 0.00000000E+00	 0.00000000E+00	 3.00000000E+00
					 0.00000000E+00	 0.00000000E+00	 2.50000000E+00
					 0.00000000E+00	 0.00000000E+00	 2.00000000E+00
					 0.00000000E+00	 0.00000000E+00	 1.50000000E+00
					 0.00000000E+00	 0.00000000E+00	 1.00000000E+00
					 0.00000000E+00	 0.00000000E+00	 5.00000000E-01
					 1.00000000E+00	 1.00000000E+00	 5.00000000E-01
					 1.00000000E+00	 1.00000000E+00	 1.00000000E+00
					 1.00000000E+00	 1.00000000E+00	 1.50000000E+00
					 1.00000000E+00	 1.00000000E+00	 2.00000000E+00
					 1.00000000E+00	 1.00000000E+00	 2.50000000E+00
					 1.00000000E+00	 1.00000000E+00	 3.00000000E+00
					 1.00000000E+00	 1.00000000E+00	 3.50000000E+00
					 1.00000000E+00	 1.00000000E+00	 4.00000000E+00
					 1.00000000E+00	 1.00000000E+00	 4.50000000E+00
					 1.00000000E+00	 1.00000000E+00	 5.00000000E+00
					 1.00000000E+00	 1.00000000E+00	 5.50000000E+00
					 1.00000000E+00	 1.00000000E+00	 6.00000000E+00
					 1.00000000E+00	 1.00000000E+00	 6.50000000E+00
					 1.00000000E+00	 1.00000000E+00	 7.00000000E+00
					 1.00000000E+00	 1.00000000E+00	 7.50000000E+00
					 0.00000000E+00	 1.00000000E+00	 5.00000000E-01
					 0.00000000E+00	 1.00000000E+00	 1.00000000E+00
					 0.00000000E+00	 1.00000000E+00	 1.50000000E+00
					 0.00000000E+00	 1.00000000E+00	 2.00000000E+00
					 0.00000000E+00	 1.00000000E+00	 2.50000000E+00
					 0.00000000E+00	 1.00000000E+00	 3.00000000E+00
					 0.00000000E+00	 1.00000000E+00	 3.50000000E+00
					 0.00000000E+00	 1.00000000E+00	 4.00000000E+00
					 0.00000000E+00	 1.00000000E+00	 4.50000000E+00
					 0.00000000E+00	 1.00000000E+00	 5.00000000E+00
					 0.00000000E+00	 1.00000000E+00	 5.50000000E+00
					 0.00000000E+00	 1.00000000E+00	 6.00000000E+00
					 0.00000000E+00	 1.00000000E+00	 6.50000000E+00
					 0.00000000E+00	 1.00000000E+00	 7.00000000E+00
					 0.00000000E+00	 1.00000000E+00	 7.50000000E+00
					 5.00000000E-01	 2.50000000E-01	 0.00000000E+00
					 2.50000000E-01	 5.00000000E-01	 0.00000000E+00
					 5.00000000E-01	 5.00000000E-01	 0.00000000E+00
					 7.50000000E-01	 5.00000000E-01	 0.00000000E+00
					 5.00000000E-01	 7.50000000E-01	 0.00000000E+00
					 5.00000000E-01	 2.50000000E-01	 8.00000000E+00
					 2.50000000E-01	 5.00000000E-01	 8.00000000E+00
					 5.00000000E-01	 5.00000000E-01	 8.00000000E+00
					 7.50000000E-01	 5.00000000E-01	 8.00000000E+00
					 5.00000000E-01	 7.50000000E-01	 8.00000000E+00
					 5.00000000E-01	 0.00000000E+00	 5.00000000E-01
					 2.50000000E-01	 0.00000000E+00	 1.00000000E+00
					 5.00000000E-01	 0.00000000E+00	 1.00000000E+00
					 7.50000000E-01	 0.00000000E+00	 1.00000000E+00
					 5.00000000E-01	 0.00000000E+00	 1.50000000E+00
					 2.50000000E-01	 0.00000000E+00	 2.00000000E+00
					 5.00000000E-01	 0.00000000E+00	 2.00000000E+00
					 7.50000000E-01	 0.00000000E+00	 2.00000000E+00
					 5.00000000E-01	 0.00000000E+00	 2.50000000E+00
					 2.50000000E-01	 0.00000000E+00	 3.00000000E+00
					 5.00000000E-01	 0.00000000E+00	 3.00000000E+00
					 7.50000000E-01	 0.00000000E+00	 3.00000000E+00
					 5.00000000E-01	 0.00000000E+00	 3.50000000E+00
					 2.50000000E-01	 0.00000000E+00	 4.00000000E+00
					 5.00000000E-01	 0.00000000E+00	 4.00000000E+00
					 7.50000000E-01	 0.00000000E+00	 4.00000000E+00
					 5.00000000E-01	 0.00000000E+00	 4.50000000E+00
					 2.50000000E-01	 0.00000000E+00	 5.00000000E+00
					 5.00000000E-01	 0.00000000E+00	 5.00000000E+00
					 7.50000000E-01	 0.00000000E+00	 5.00000000E+00
					 5.00000000E-01	 0.00000000E+00	 5.50000000E+00
					 2.50000000E-01	 0.00000000E+00	 6.00000000E+00
					 5.00000000E-01	 0.00000000E+00	 6.00000000E+00
					 7.50000000E-01	 0.00000000E+00	 6.00000000E+00
					 5.00000000E-01	 0.00000000E+00	 6.50000000E+00
					 2.50000000E-01	 0.00000000E+00	 7.00000000E+00
					 5.00000000E-01	 0.00000000E+00	 7.00000000E+00
					 7.50000000E-01	 0.00000000E+00	 7.00000000E+00
					 5.00000000E-01	 0.00000000E+00	 7.50000000E+00
					 1.00000000E+00	 5.00000000E-01	 5.00000000E-01
					 1.00000000E+00	 2.50000000E-01	 1.00000000E+00
					 1.00000000E+00	 5.00000000E-01	 1.00000000E+00
					 1.00000000E+00	 7.50000000E-01	 1.00000000E+00
					 1.00000000E+00	 5.00000000E-01	 1.50000000E+00
					 1.00000000E+00	 2.50000000E-01	 2.00000000E+00
					 1.00000000E+00	 5.00000000E-01	 2.00000000E+00
					 1.00000000E+00	 7.50000000E-01	 2.00000000E+00
					 1.00000000E+00	 5.00000000E-01	 2.50000000E+00
					 1.00000000E+00	 2.50000000E-01	 3.00000000E+00
					 1.00000000E+00	 5.00000000E-01	 3.00000000E+00
					 1.00000000E+00	 7.50000000E-01	 3.00000000E+00
					 1.00000000E+00	 5.00000000E-01	 3.50000000E+00
					 1.00000000E+00	 2.50000000E-01	 4.00000000E+00
					 1.00000000E+00	 5.00000000E-01	 4.00000000E+00
					 1.00000000E+00	 7.50000000E-01	 4.00000000E+00
					 1.00000000E+00	 5.00000000E-01	 4.50000000E+00
					 1.00000000E+00	 2.50000000E-01	 5.00000000E+00
					 1.00000000E+00	 5.00000000E-01	 5.00000000E+00
					 1.00000000E+00	 7.50000000E-01	 5.00000000E+00
					 1.00000000E+00	 5.00000000E-01	 5.50000000E+00
					 1.00000000E+00	 2.50000000E-01	 6.00000000E+00
					 1.00000000E+00	 5.00000000E-01	 6.00000000E+00
					 1.00000000E+00	 7.50000000E-01	 6.00000000E+00
					 1.00000000E+00	 5.00000000E-01	 6.50000000E+00
					 1.00000000E+00	 2.50000000E-01	 7.00000000E+00
					 1.00000000E+00	 5.00000000E-01	 7.00000000E+00
					 1.00000000E+00	 7.50000000E-01	 7.00000000E+00
					 1.00000000E+00	 5.00000000E-01	 7.50000000E+00
					 5.00000000E-01	 1.00000000E+00	 5.00000000E-01
					 7.50000000E-01	 1.00000000E+00	 1.00000000E+00
					 5.00000000E-01	 1.00000000E+00	 1.00000000E+00
					 2.50000000E-01	 1.00000000E+00	 1.00000000E+00
					 5.00000000E-01	 1.00000000E+00	 1.50000000E+00
					 7.50000000E-01	 1.00000000E+00	 2.00000000E+00
					 5.00000000E-01	 1.00000000E+00	 2.00000000E+00
					 2.50000000E-01	 1.00000000E+00	 2.00000000E+00
					 5.00000000E-01	 1.00000000E+00	 2.50000000E+00
					 7.50000000E-01	 1.00000000E+00	 3.00000000E+00
					 5.00000000E-01	 1.00000000E+00	 3.00000000E+00
					 2.50000000E-01	 1.00000000E+00	 3.00000000E+00
					 5.00000000E-01	 1.00000000E+00	 3.50000000E+00
					 7.50000000E-01	 1.00000000E+00	 4.00000000E+00
					 5.00000000E-01	 1.00000000E+00	 4.00000000E+00
					 2.50000000E-01	 1.00000000E+00	 4.00000000E+00
					 5.00000000E-01	 1.00000000E+00	 4.50000000E+00
					 7.50000000E-01	 1.00000000E+00	 5.00000000E+00
					 5.00000000E-01	 1.00000000E+00	 5.00000000E+00
					 2.50000000E-01	 1.00000000E+00	 5.00000000E+00
					 5.00000000E-01	 1.00000000E+00	 5.50000000E+00
					 7.50000000E-01	 1.00000000E+00	 6.00000000E+00
					 5.00000000E-01	 1.00000000E+00	 6.00000000E+00
					 2.50000000E-01	 1.00000000E+00	 6.00000000E+00
					 5.00000000E-01	 1.00000000E+00	 6.50000000E+00
					 7.50000000E-01	 1.00000000E+00	 7.00000000E+00
					 5.00000000E-01	 1.00000000E+00	 7.00000000E+00
					 2.50000000E-01	 1.00000000E+00	 7.00000000E+00
					 5.00000000E-01	 1.00000000E+00	 7.50000000E+00
					 0.00000000E+00	 5.00000000E-01	 5.00000000E-01
					 0.00000000E+00	 7.50000000E-01	 1.00000000E+00
					 0.00000000E+00	 5.00000000E-01	 1.00000000E+00
					 0.00000000E+00	 2.50000000E-01	 1.00000000E+00
					 0.00000000E+00	 5.00000000E-01	 1.50000000E+00
					 0.00000000E+00	 7.50000000E-01	 2.00000000E+00
					 0.00000000E+00	 5.00000000E-01	 2.00000000E+00
					 0.00000000E+00	 2.50000000E-01	 2.00000000E+00
					 0.00000000E+00	 5.00000000E-01	 2.50000000E+00
					 0.00000000E+00	 7.50000000E-01	 3.00000000E+00
					 0.00000000E+00	 5.00000000E-01	 3.00000000E+00
					 0.00000000E+00	 2.50000000E-01	 3.00000000E+00
					 0.00000000E+00	 5.00000000E-01	 3.50000000E+00
					 0.00000000E+00	 7.50000000E-01	 4.00000000E+00
					 0.00000000E+00	 5.00000000E-01	 4.00000000E+00
					 0.00000000E+00	 2.50000000E-01	 4.00000000E+00
					 0.00000000E+00	 5.00000000E-01	 4.50000000E+00
					 0.00000000E+00	 7.50000000E-01	 5.00000000E+00
					 0.00000000E+00	 5.00000000E-01	 5.00000000E+00
					 0.00000000E+00	 2.50000000E-01	 5.00000000E+00
					 0.00000000E+00	 5.00000000E-01	 5.50000000E+00
					 0.00000000E+00	 7.50000000E-01	 6.00000000E+00
					 0.00000000E+00	 5.00000000E-01	 6.00000000E+00
					 0.00000000E+00	 2.50000000E-01	 6.00000000E+00
					 0.00000000E+00	 5.00000000E-01	 6.50000000E+00
					 0.00000000E+00	 7.50000000E-01	 7.00000000E+00
					 0.00000000E+00	 5.00000000E-01	 7.00000000E+00
					 0.00000000E+00	 2.50000000E-01	 7.00000000E+00
					 0.00000000E+00	 5.00000000E-01	 7.50000000E+00
					 5.00000000E-01	 5.00000000E-01	 5.00000000E-01
					 5.00000000E-01	 2.50000000E-01	 1.00000000E+00
					 2.50000000E-01	 5.00000000E-01	 1.00000000E+00
					 5.00000000E-01	 5.00000000E-01	 1.00000000E+00
					 7.50000000E-01	 5.00000000E-01	 1.00000000E+00
					 5.00000000E-01	 7.50000000E-01	 1.00000000E+00
					 5.00000000E-01	 5.00000000E-01	 1.50000000E+00
					 5.00000000E-01	 2.50000000E-01	 2.00000000E+00
					 2.50000000E-01	 5.00000000E-01	 2.00000000E+00
					 5.00000000E-01	 5.00000000E-01	 2.00000000E+00
					 7.50000000E-01	 5.00000000E-01	 2.00000000E+00
					 5.00000000E-01	 7.50000000E-01	 2.00000000E+00
					 5.00000000E-01	 5.00000000E-01	 2.50000000E+00
					 5.00000000E-01	 2.50000000E-01	 3.00000000E+00
					 2.50000000E-01	 5.00000000E-01	 3.00000000E+00
					 5.00000000E-01	 5.00000000E-01	 3.00000000E+00
					 7.50000000E-01	 5.00000000E-01	 3.00000000E+00
					 5.00000000E-01	 7.50000000E-01	 3.00000000E+00
					 5.00000000E-01	 5.00000000E-01	 3.50000000E+00
					 5.00000000E-01	 2.50000000E-01	 4.00000000E+00
					 2.50000000E-01	 5.00000000E-01	 4.00000000E+00
					 5.00000000E-01	 5.00000000E-01	 4.00000000E+00
					 7.50000000E-01	 5.00000000E-01	 4.00000000E+00
					 5.00000000E-01	 7.50000000E-01	 4.00000000E+00
					 5.00000000E-01	 5.00000000E-01	 4.50000000E+00
					 5.00000000E-01	 2.50000000E-01	 5.00000000E+00
					 2.50000000E-01	 5.00000000E-01	 5.00000000E+00
					 5.00000000E-01	 5.00000000E-01	 5.00000000E+00
					 7.50000000E-01	 5.00000000E-01	 5.00000000E+00
					 5.00000000E-01	 7.50000000E-01	 5.00000000E+00
					 5.00000000E-01	 5.00000000E-01	 5.50000000E+00
					 5.00000000E-01	 2.50000000E-01	 6.00000000E+00
					 2.50000000E-01	 5.00000000E-01	 6.00000000E+00
					 5.00000000E-01	 5.00000000E-01	 6.00000000E+00
					 7.50000000E-01	 5.00000000E-01	 6.00000000E+00
					 5.00000000E-01	 7.50000000E-01	 6.00000000E+00
					 5.00000000E-01	 5.00000000E-01	 6.50000000E+00
					 5.00000000E-01	 2.50000000E-01	 7.00000000E+00
					 2.50000000E-01	 5.00000000E-01	 7.00000000E+00
					 5.00000000E-01	 5.00000000E-01	 7.00000000E+00
					 7.50000000E-01	 5.00000000E-01	 7.00000000E+00
					 5.00000000E-01	 7.50000000E-01	 7.00000000E+00
					 5.00000000E-01	 5.00000000E-01	 7.50000000E+00
				</DataArray>
			</Points>
			<Cells>
				<DataArray type="Int32" Name="connectivity" format="ascii">
					0 9 94 18 60 104 221 191 8 92 93 19 103 219 220 192 61 102 218 189 9 1 12 94 104 33 133 221 10 11 95 92 105 132 222 219 102 32 131 218 18 94 15 3 191 221 162 78 93 96 16 17 220 223 163 190 189 218 160 77 94 12 2 15 221 133 63 162 95 13 14 96 222 134 161 223 218 131 62 160 60 104 221 191 58 108 227 195 103 219 220 192 107 225 226 196 59 106 224 193 104 33 133 221 108 35 137 227 105 132 222 219 109 136 228 225 106 34 135 224 191 221 162 78 195 227 166 80 220 223 163 190 226 229 167 194 193 224 164 79 221 133 63 162 227 137 65 166 222 134 161 223 228 138 165 229 224 135 64 164 58 108 227 195 56 112 233 199 107 225 226 196 111 231 232 200 57 110 230 197 108 35 137 227 112 37 141 233 109 136 228 225 113 140 234 231 110 36 139 230 195 227 166 80 199 233 170 82 226 229 167 194 232 235 171 198 197 230 168 81 227 137 65 166 233 141 67 170 228 138 165 229 234 142 169 235 230 139 66 168 56 112 233 199 54 116 239 203 111 231 232 200 115 237 238 204 55 114 236 201 112 37 141 233 116 39 145 239 113 140 234 231 117 144 240 237 114 38 143 236 199 233 170 82 203 239 174 84 232 235 171 198 238 241 175 202 201 236 172 83 233 141 67 170 239 145 69 174 234 142 169 235 240 146 173 241 236 143 68 172 54 116 239 203 52 120 245 207 115 237 238 204 119 243 244 208 53 118 242 205 116 39 145 239 120 41 149 245 117 144 240 237 121 148 246 243 118 40 147 242 203 239 174 84 207 245 178 86 238 241 175 202 244 247 179 206 205 242 176 85 239 145 69 174 245 149 71 178 240 146 173 241 246 150 177 247 242 147 70 176 52 120 245 207 50 124 251 211 119 243 244 208 123 249 250 212 51 122 248 209 120 41 149 245 124 43 153 251 121 148 246 243 125 152 252 249 122 42 151 248 207 245 178 86 211 251 182 88 244 247 179 206 250 253 183 210 209 248 180 87 245 149 71 178 251 153 73 182 246 150 177 247 252 154 181 253 248 151 72 180 50 124 251 211 48 128 257 215 123 249 250 212 127 255 256 216 49 126 254 213 124 43 153 251 128 45 157 257 125 152 252 249 129 156 258 255 126 44 155 254 211 251 182 88 215 257 186 90 250 253 183 210 256 259 187 214 213 254 184 89 251 153 73 182 257 157 75 186 252 154 181 253 258 158 185 259 254 155 74 184 48 128 257 215 4 21 99 30 127 255 256 216 20 97 98 31 47 130 260 217 128 45 157 257 21 5 24 99 129 156 258 255 22 23 100 97 130 46 159 260 215 257 186 90 30 99 27 7 256 259 187 214 98 101 28 29 217 260 188 91 257 157 75 186 99 24 6 27 258 158 185 259 100 25 26 101 260 159 76 188 
				</DataArray>
				<DataArray type="Int32" Name="offsets" format="ascii">
					20 40 60 80 100 120 140 160 180 200 220 240 260 280 300 320 340 360 380 400 420 440 460 480 500 520 540 560 580 600 620 640 
				</DataArray>
				<DataArray type="UInt8" Name="types" format="ascii">
					25 25 25 25 25 25 25 25 25 25 25 25 25 25 25 25 25 25 25 25 25 25 25 25 25 25 25 25 25 25 25 25 
				</DataArray>
			</Cells>
			<PointData>
				<DataArray type="Float32" Name="U" NumberOfComponents="3" ComponentName0="D1" ComponentName1="D2" ComponentName2="D3" format="ascii">
					 0.00000000E+00	 0.00000000E+00	 0.00000000E+00
					 0.00000000E+00	 0.00000000E+00	 0.00000000E+00
					 0.00000000E+00	 0.00000000E+00	 0.00000000E+00
					 0.00000000E+00	 0.00000000E+00	 0.00000000E+00
					 2.00986000E-05	 3.84076000E-02	 3.85830000E-03
					-1.61096000E-05	 3.84216000E-02	 3.85916000E-03
					 6.21033000E-06	 3.83904000E-02	-4.08231000E-03
					-2.93653000E-05	 3.83762000E-02	-4.08283000E-03
					 0.00000000E+00	 0.00000000E+00	 0.00000000E+00
					 0.00000000E+00	 0.00000000E+00	 0.00000000E+00
					 0.00000000E+00	 0.00000000E+00	 0.00000000E+00
					 0.00000000E+00	 0.00000000E+00	 0.00000000E+00
					 0.00000000E+00	 0.00000000E+00	 0.00000000E+00
					 0.00000000E+00	 0.00000000E+00	 0.00000000E+00
					 0.00000000E+00	 0.00000000E+00	 0.00000000E+00
					 0.00000000E+00	 0.00000000E+00	 0.00000000E+00
					 0.00000000E+00	 0.00000000E+00	 0.00000000E+00
					 0.00000000E+00	 0.00000000E+00	 0.00000000E+00
					 0.00000000E+00	 0.00000000E+00	 0.00000000E+00
					 0.00000000E+00	 0.00000000E+00	 0.00000000E+00
					 1.85367000E-05	 3.84254000E-02	 3.85661000E-03
					 2.13849000E-06	 3.83689000E-02	 3.85315000E-03
					-1.43579000E-05	 3.84324000E-02	 3.85695000E-03
					-4.36876000E-07	 3.83974000E-02	 1.86127000E-03
					-4.19536000E-06	 3.83557000E-02	-1.11791000E-04
					-8.73669000E-06	 3.83822000E-02	-2.08425000E-03
					 4.74585000E-06	 3.84012000E-02	-4.08072000E-03
					-1.15844000E-05	 3.83374000E-02	-4.07687000E-03
					-2.79152000E-05	 3.83939000E-02	-4.08090000E-03
					-7.56985000E-06	 3.83682000E-02	-2.08467000E-03
					-5.00975000E-06	 3.83421000E-02	-1.12127000E-04
					-2.08765000E-06	 3.83837000E-02	 1.86064000E-03
					-1.25929000E-04	 2.46139000E-04	 3.86109000E-04
					-8.37147000E-05	 8.31233000E-04	 7.54489000E-04
					-9.34993000E-05	 1.80438000E-03	 1.08259000E-03
					-8.27565000E-05	 3.04720000E-03	 1.38250000E-03
					-8.37755000E-05	 4.59337000E-03	 1.66607000E-03
					-8.17105000E-05	 6.40634000E-03	 1.94612000E-03
					-8.15316000E-05	 8.50766000E-03	 2.22209000E-03
					-7.84079000E-05	 1.08894000E-02	 2.49117000E-03
					-7.48262000E-05	 1.35391000E-02	 2.74469000E-03
					-7.13970000E-05	 1.64502000E-02	 2.98795000E-03
					-6.87660000E-05	 1.95931000E-02	 3.21965000E-03
					-6.26378000E-05	 2.29998000E-02	 3.44418000E-03
					-5.43301000E-05	 2.66246000E-02	 3.63221000E-03
					-2.95689000E-05	 3.04936000E-02	 3.78340000E-03
					-2.19083000E-05	 3.44084000E-02	 3.84992000E-03
					 2.74042000E-05	 3.43941000E-02	 3.84939000E-03
					 3.60029000E-05	 3.04788000E-02	 3.78293000E-03
					 6.16342000E-05	 2.66097000E-02	 3.63153000E-03
					 6.93282000E-05	 2.29863000E-02	 3.44344000E-03
					 7.42401000E-05	 1.95816000E-02	 3.21899000E-03
					 7.56598000E-05	 1.64406000E-02	 2.98728000E-03
					 7.85261000E-05	 1.35309000E-02	 2.74402000E-03
					 8.22347000E-05	 1.08817000E-02	 2.49052000E-03
					 8.57409000E-05	 8.50034000E-03	 2.22149000E-03
					 8.60865000E-05	 6.39947000E-03	 1.94556000E-03
					 8.80320000E-05	 4.58718000E-03	 1.66554000E-03
					 8.65949000E-05	 3.04198000E-03	 1.38200000E-03
					 9.66527000E-05	 1.80034000E-03	 1.08216000E-03
					 8.59363000E-05	 8.28558000E-04	 7.54155000E-04
					 1.27029000E-04	 2.44848000E-04	 3.85927000E-04
					 1.25676000E-04	 2.45455000E-04	-3.85701000E-04
					 8.31106000E-05	 8.29761000E-04	-7.54286000E-04
					 9.24425000E-05	 1.80175000E-03	-1.08369000E-03
					 8.12028000E-05	 3.04304000E-03	-1.38612000E-03
					 8.16566000E-05	 4.58753000E-03	-1.67386000E-03
					 7.90172000E-05	 6.39841000E-03	-1.95987000E-03
					 7.82413000E-05	 8.49741000E-03	-2.24405000E-03
					 7.44325000E-05	 1.08765000E-02	-2.52388000E-03
					 7.01728000E-05	 1.35236000E-02	-2.79093000E-03
					 6.60373000E-05	 1.64317000E-02	-3.05076000E-03
					 6.27765000E-05	 1.95716000E-02	-3.30178000E-03
					 5.57518000E-05	 2.29751000E-02	-3.54911000E-03
					 4.69413000E-05	 2.65971000E-02	-3.76330000E-03
					 2.08234000E-05	 3.04642000E-02	-3.94457000E-03
					 1.32799000E-05	 3.43767000E-02	-4.04162000E-03
					-1.27047000E-04	 2.44281000E-04	-3.85892000E-04
					-8.61760000E-05	 8.27146000E-04	-7.54621000E-04
					-9.73296000E-05	 1.79776000E-03	-1.08413000E-03
					-8.77851000E-05	 3.03784000E-03	-1.38662000E-03
					-8.97621000E-05	 4.58135000E-03	-1.67438000E-03
					-8.83753000E-05	 6.39156000E-03	-1.96043000E-03
					-8.86461000E-05	 8.49011000E-03	-2.24465000E-03
					-8.58291000E-05	 1.08689000E-02	-2.52452000E-03
					-8.28876000E-05	 1.35154000E-02	-2.79155000E-03
					-8.07521000E-05	 1.64222000E-02	-3.05132000E-03
					-7.99833000E-05	 1.95603000E-02	-3.30244000E-03
					-7.57647000E-05	 2.29617000E-02	-3.54985000E-03
					-6.90383000E-05	 2.65823000E-02	-3.76369000E-03
					-4.38329000E-05	 3.04488000E-02	-3.94445000E-03
					-3.61621000E-05	 3.43628000E-02	-4.04184000E-03
					 0.00000000E+00	 0.00000000E+00	 0.00000000E+00
					 0.00000000E+00	 0.00000000E+00	 0.00000000E+00
					 0.00000000E+00	 0.00000000E+00	 0.00000000E+00
					 0.00000000E+00	 0.00000000E+00	 0.00000000E+00
					 0.00000000E+00	 0.00000000E+00	 0.00000000E+00
					-1.27577000E-06	 3.85065000E-02	 1.88782000E-03
					-4.75916000E-06	 3.84429000E-02	-1.11957000E-04
					-4.66207000E-06	 3.86721000E-02	-1.12082000E-04
					-4.53223000E-06	 3.84496000E-02	-1.11733000E-04
					-8.09823000E-06	 3.84903000E-02	-2.11243000E-03
					 5.98517000E-07	 2.99448000E-04	 3.75970000E-04
					 4.30694000E-05	 8.71270000E-04	 7.60283000E-04
					 1.11545000E-06	 8.80955000E-04	 7.65665000E-04
					-4.08381000E-05	 8.72611000E-04	 7.60704000E-04
					 1.57350000E-06	 1.84739000E-03	 1.08254000E-03
					 4.42538000E-05	 3.07567000E-03	 1.38358000E-03
					 1.91556000E-06	 3.08991000E-03	 1.38440000E-03
					-4.04165000E-05	 3.07828000E-03	 1.38398000E-03
					 2.12307000E-06	 4.63263000E-03	 1.66580000E-03
					 4.41100000E-05	 6.43274000E-03	 1.94554000E-03
					 2.18826000E-06	 6.44428000E-03	 1.94578000E-03
					-3.97314000E-05	 6.43617000E-03	 1.94590000E-03
					 2.09944000E-06	 8.54687000E-03	 2.22223000E-03
					 4.21321000E-05	 1.09117000E-02	 2.49087000E-03
					 1.92571000E-06	 1.09213000E-02	 2.49027000E-03
					-3.82927000E-05	 1.09155000E-02	 2.49122000E-03
					 1.87362000E-06	 1.35765000E-02	 2.74586000E-03
					 3.87268000E-05	 1.64638000E-02	 2.98633000E-03
					 2.14588000E-06	 1.64699000E-02	 2.98518000E-03
					-3.44536000E-05	 1.64686000E-02	 2.98693000E-03
					 2.74350000E-06	 1.96322000E-02	 3.22074000E-03
					 3.69005000E-05	 2.30039000E-02	 3.44013000E-03
					 3.42426000E-06	 2.29996000E-02	 3.43604000E-03
					-3.01295000E-05	 2.30108000E-02	 3.44079000E-03
					 3.55155000E-06	 2.66627000E-02	 3.64465000E-03
					 1.84067000E-05	 3.04562000E-02	 3.78186000E-03
					 3.23369000E-06	 3.04415000E-02	 3.77512000E-03
					-1.19716000E-05	 3.04635000E-02	 3.78210000E-03
					 2.71867000E-06	 3.44643000E-02	 3.85712000E-03
					-1.11197000E-07	 1.68613000E-04	 2.15273000E-07
					-4.23997000E-05	 8.02377000E-04	 3.70551000E-04
					-2.50562000E-07	 8.08058000E-04	 1.72524000E-07
					 4.18544000E-05	 8.01639000E-04	-3.70246000E-04
					-4.82439000E-07	 1.74540000E-03	-4.10417000E-07
					-4.17042000E-05	 3.02101000E-03	 6.88074000E-04
					-7.51088000E-07	 3.01393000E-03	-1.70891000E-06
					 4.01821000E-05	 3.01894000E-03	-6.91519000E-04
					-1.03168000E-06	 4.54412000E-03	-3.73589000E-06
					-4.15330000E-05	 6.37401000E-03	 9.69501000E-04
					-1.31571000E-06	 6.36357000E-03	-6.71843000E-06
					 3.88739000E-05	 6.37005000E-03	-9.83016000E-04
					-1.62178000E-06	 8.46110000E-03	-1.07835000E-05
					-4.01551000E-05	 1.08553000E-02	 1.23539000E-03
					-1.95093000E-06	 1.08413000E-02	-1.61275000E-05
					 3.62210000E-05	 1.08489000E-02	-1.26777000E-03
					-2.30694000E-06	 1.34945000E-02	-2.29075000E-05
					-3.71455000E-05	 1.64131000E-02	 1.47727000E-03
					-2.64089000E-06	 1.63947000E-02	-3.11080000E-05
					 3.18219000E-05	 1.64039000E-02	-1.53966000E-03
					-3.02313000E-06	 1.95548000E-02	-4.09136000E-05
					-3.24988000E-05	 2.29598000E-02	 1.69210000E-03
					-3.32438000E-06	 2.29362000E-02	-5.22078000E-05
					 2.57023000E-05	 2.29475000E-02	-1.79667000E-03
					-3.86520000E-06	 2.65945000E-02	-6.53001000E-05
					-1.86990000E-05	 3.04347000E-02	 1.84259000E-03
					-3.82267000E-06	 3.03898000E-02	-7.93476000E-05
					 1.04585000E-05	 3.04201000E-02	-2.00260000E-03
					-4.66018000E-06	 3.44471000E-02	-9.57116000E-05
					-6.98958000E-07	 2.98829000E-04	-3.75852000E-04
					 4.03529000E-05	 8.71101000E-04	-7.60824000E-04
					-1.53567000E-06	 8.79474000E-04	-7.65986000E-04
					-4.34125000E-05	 8.69791000E-04	-7.60720000E-04
					-2.42050000E-06	 1.84474000E-03	-1.08428000E-03
					 3.89617000E-05	 3.07411000E-03	-1.38805000E-03
					-3.28632000E-06	 3.08576000E-03	-1.38878000E-03
					-4.55409000E-05	 3.07151000E-03	-1.38813000E-03
					-4.03984000E-06	 4.62677000E-03	-1.67441000E-03
					 3.71536000E-05	 6.42824000E-03	-1.96017000E-03
					-4.67202000E-06	 6.43637000E-03	-1.96041000E-03
					-4.65040000E-05	 6.42481000E-03	-1.96038000E-03
					-5.19677000E-06	 8.53661000E-03	-2.24517000E-03
					 3.44264000E-05	 1.09026000E-02	-2.52453000E-03
					-5.69866000E-06	 1.09084000E-02	-2.52397000E-03
					-4.58234000E-05	 1.08988000E-02	-2.52481000E-03
					-6.38993000E-06	 1.35609000E-02	-2.79320000E-03
					 2.91713000E-05	 1.64502000E-02	-3.05028000E-03
					-7.36144000E-06	 1.64515000E-02	-3.04889000E-03
					-4.38836000E-05	 1.64454000E-02	-3.05031000E-03
					-8.64322000E-06	 1.96107000E-02	-3.30416000E-03
					 2.33808000E-05	 2.29862000E-02	-3.54632000E-03
					-1.00354000E-05	 2.29752000E-02	-3.54176000E-03
					-4.34364000E-05	 2.29794000E-02	-3.54630000E-03
					-1.10411000E-05	 2.66351000E-02	-3.77711000E-03
					 3.44967000E-06	 3.04338000E-02	-3.94283000E-03
					-1.14178000E-05	 3.04118000E-02	-3.93578000E-03
					-2.63772000E-05	 3.04263000E-02	-3.94299000E-03
					-1.15582000E-05	 3.44329000E-02	-4.04938000E-03
					-4.74246000E-08	 1.67318000E-04	 3.97986000E-08
					-4.36189000E-05	 7.99008000E-04	-3.70847000E-04
					-1.92402000E-07	 8.05406000E-04	-1.64266000E-07
					 4.32857000E-05	 7.99715000E-04	 3.70474000E-04
					-3.94662000E-07	 1.74141000E-03	-8.45385000E-07
					-4.41598000E-05	 3.01374000E-03	-6.92176000E-04
					-6.29012000E-07	 3.00872000E-03	-2.20523000E-06
					 4.29296000E-05	 3.01579000E-03	 6.87730000E-04
					-8.96780000E-07	 4.53796000E-03	-4.26741000E-06
					-4.47987000E-05	 6.36318000E-03	-9.83659000E-04
					-1.17716000E-06	 6.35671000E-03	-7.27928000E-06
					 4.24706000E-05	 6.36714000E-03	 9.69025000E-04
					-1.48576000E-06	 8.45380000E-03	-1.13911000E-05
					-4.38166000E-05	 1.08413000E-02	-1.26844000E-03
					-1.82901000E-06	 1.08336000E-02	-1.67752000E-05
					 4.01838000E-05	 1.08477000E-02	 1.23477000E-03
					-2.20677000E-06	 1.34862000E-02	-2.35505000E-05
					-4.17840000E-05	 1.63943000E-02	-1.54051000E-03
					-2.57936000E-06	 1.63852000E-02	-3.17122000E-05
					 3.66525000E-05	 1.64036000E-02	 1.47689000E-03
					-2.93079000E-06	 1.95434000E-02	-4.15196000E-05
					-3.90705000E-05	 2.29341000E-02	-1.79758000E-03
					-3.33246000E-06	 2.29227000E-02	-5.27793000E-05
					 3.25059000E-05	 2.29463000E-02	 1.69173000E-03
					-3.62604000E-06	 2.65797000E-02	-6.60034000E-05
					-2.59117000E-05	 3.04052000E-02	-2.00309000E-03
					-4.20896000E-06	 3.03753000E-02	-8.02773000E-05
					 1.78027000E-05	 3.04201000E-02	 1.84203000E-03
					-4.21305000E-06	 3.44325000E-02	-9.63854000E-05
					-6.23526000E-08	 2.21167000E-04	 6.79278000E-08
					 4.45512000E-07	 8.49851000E-04	 3.76030000E-04
					-2.04221000E-07	 8.46791000E-04	-1.38176000E-07
					-2.18353000E-07	 8.54320000E-04	-7.23603000E-08
					-2.28438000E-07	 8.48118000E-04	 2.37679000E-08
					-8.80996000E-07	 8.49101000E-04	-3.76237000E-04
					-4.30327000E-07	 1.79027000E-03	-7.36459000E-07
					 6.12421000E-07	 3.06294000E-03	 6.89467000E-04
					-6.60008000E-07	 3.04137000E-03	-2.17354000E-06
					-6.89226000E-07	 3.05475000E-03	-2.08131000E-06
					-7.18489000E-07	 3.04397000E-03	-1.92850000E-06
					-1.98800000E-06	 3.06087000E-03	-6.93667000E-04
					-9.60443000E-07	 4.58372000E-03	-4.14586000E-06
					 4.69771000E-07	 6.41300000E-03	 9.69139000E-04
					-1.21266000E-06	 6.39114000E-03	-7.26689000E-06
					-1.24651000E-06	 6.40361000E-03	-7.16930000E-06
					-1.27858000E-06	 6.39457000E-03	-6.98483000E-06
					-2.96006000E-06	 6.40903000E-03	-9.83543000E-04
					-1.54979000E-06	 8.49794000E-03	-1.12645000E-05
					 1.74182000E-08	 1.08917000E-02	 1.23524000E-03
					-1.86206000E-06	 1.08677000E-02	-1.67713000E-05
					-1.89342000E-06	 1.08823000E-02	-1.66758000E-05
					-1.91997000E-06	 1.08715000E-02	-1.64544000E-05
					-3.79678000E-06	 1.08853000E-02	-1.26866000E-03