<?xml version="1.0"?>
<VTKFile type="UnstructuredGrid" version="0.1" byte_order="LittleEndian">
	<UnstructuredGrid>
		<Piece NumberOfPoints="90" NumberOfCells="32">
			<Points>
				<DataArray type="Float64" NumberOfComponents="3" format="ascii">
					 0.00000000E+00	 0.00000000E+00	 0.00000000E+00
					 1.00000000E+00	 0.00000000E+00	 0.00000000E+00
					 1.00000000E+00	 1.00000000E+00	 0.00000000E+00
					 0.00000000E+00	 1.00000000E+00	 0.00000000E+00
					 0.00000000E+00	 0.00000000E+00	 8.00000000E+00
					 1.00000000E+00	 0.00000000E+00	 8.00000000E+00
					 1.00000000E+00	 1.00000000E+00	 8.00000000E+00
					 0.00000000E+00	 1.00000000E+00	 8.00000000E+00
					 5.00000000E-01	 0.00000000E+00	 0.00000000E+00
					 1.00000000E+00	 5.00000000E-01	 0.00000000E+00
					 5.00000000E-01	 1.00000000E+00	 0.00000000E+00
					 0.00000000E+00	 5.00000000E-01	 0.00000000E+00
					 5.00000000E-01	 0.00000000E+00	 8.00000000E+00
					 1.00000000E+00	 5.00000000E-01	 8.00000000E+00
					 5.00000000E-01	 1.00000000E+00	 8.00000000E+00
					 0.00000000E+00	 5.00000000E-01	 8.00000000E+00
					 1.00000000E+00	 0.00000000E+00	 1.00000000E+00
					 1.00000000E+00	 0.00000000E+00	 2.00000000E+00
					 1.00000000E+00	 0.00000000E+00	 3.00000000E+00
					 1.00000000E+00	 0.00000000E+00	 4.00000000E+00
					 1.00000000E+00	 0.00000000E+00	 5.00000000E+00
					 1.00000000E+00	 0.00000000E+00	 6.00000000E+00
					 1.00000000E+00	 0.00000000E+00	 7.00000000E+00
					 0.00000000E+00	 0.00000000E+00	 7.00000000E+00
					 0.00000000E+00	 0.00000000E+00	 6.00000000E+00
					 0.00000000E+00	 0.00000000E+00	 5.00000000E+00
					 0.00000000E+00	 0.00000000E+00	 4.00000000E+00
					 0.00000000E+00	 0.00000000E+00	 3.00000000E+00
					 0.00000000E+00	 0.00000000E+00	 2.00000000E+00
					 0.00000000E+00	 0.00000000E+00	 1.00000000E+00
					 1.00000000E+00	 1.00000000E+00	 1.00000000E+00
					 1.00000000E+00	 1.00000000E+00	 2.00000000E+00
					 1.00000000E+00	 1.00000000E+00	 3.00000000E+00
					 1.00000000E+00	 1.00000000E+00	 4.00000000E+00
					 1.00000000E+00	 1.00000000E+00	 5.00000000E+00
					 1.00000000E+00	 1.00000000E+00	 6.00000000E+00
					 1.00000000E+00	 1.00000000E+00	 7.00000000E+00
					 0.00000000E+00	 1.00000000E+00	 1.00000000E+00
					 0.00000000E+00	 1.00000000E+00	 2.00000000E+00
					 0.00000000E+00	 1.00000000E+00	 3.00000000E+00
					 0.00000000E+00	 1.00000000E+00	 4.00000000E+00
					 0.00000000E+00	 1.00000000E+00	 5.00000000E+00
					 0.00000000E+00	 1.00000000E+00	 6.00000000E+00
					 0.00000000E+00	 1.00000000E+00	 7.00000000E+00
					 5.00000000E-01	 5.00000000E-01	 0.00000000E+00
					 5.00000000E-01	 5.00000000E-01	 8.00000000E+00
					 5.00000000E-01	 0.00000000E+00	 1.00000000E+00
					 5.00000000E-01	 0.00000000E+00	 2.00000000E+00
					 5.00000000E-01	 0.00000000E+00	 3.00000000E+00
					 5.00000000E-01	 0.00000000E+00	 4.00000000E+00
					 5.00000000E-01	 0.00000000E+00	 5.00000000E+00
					 5.00000000E-01	 0.00000000E+00	 6.00000000E+00
					 5.00000000E-01	 0.00000000E+00	 7.00000000E+00
					 1.00000000E+00	 5.00000000E-01	 1.00000000E+00
					 1.00000000E+00	 5.00000000E-01	 2.00000000E+00
					 1.00000000E+00	 5.00000000E-01	 3.00000000E+00
					 1.00000000E+00	 5.00000000E-01	 4.00000000E+00
					 1.00000000E+00	 5.00000000E-01	 5.00000000E+00
					 1.00000000E+00	 5.00000000E-01	 6.00000000E+00
					 1.00000000E+00	 5.00000000E-01	 7.00000000E+00
					 5.00000000E-01	 1.00000000E+00	 1.00000000E+00
					 5.00000000E-01	 1.00000000E+00	 2.00000000E+00
					 5.00000000E-01	 1.00000000E+00	 3.00000000E+00
					 5.00000000E-01	 1.00000000E+00	 4.00000000E+00
					 5.00000000E-01	 1.00000000E+00	 5.00000000E+00
					 5.00000000E-01	 1.00000000E+00	 6.00000000E+00
					 5.00000000E-01	 1.00000000E+00	 7.00000000E+00
					 0.00000000E+00	 5.00000000E-01	 1.00000000E+00
					 0.00000000E+00	 5.00000000E-01	 2.00000000E+00
					 0.00000000E+00	 5.00000000E-01	 3.00000000E+00
					 0.00000000E+00	 5.00000000E-01	 4.00000000E+00
					 0.00000000E+00	 5.00000000E-01	 5.00000000E+00
					 0.00000000E+00	 5.00000000E-01	 6.00000000E+00
					 0.00000000E+00	 5.00000000E-01	 7.00000000E+00
					 5.00000000E-01	 5.00000000E-01	 1.00000000E+00
					 5.00000000E-01	 5.00000000E-01	 2.00000000E+00
					 5.00000000E-01	 5.00000000E-01	 3.00000000E+00
					 5.00000000E-01	 5.00000000E-01	 4.00000000E+00
					 5.00000000E-01	 5.00000000E-01	 5.00000000E+00
					 5.00000000E-01	 5.00000000E-01	 6.00000000E+00
					 5.00000000E-01	 5.00000000E-01	 7.00000000E+00
					 1.00000000E+00	 0.00000000E+00	 4.00000000E+00
					 0.00000000E+00	 0.00000000E+00	 4.00000000E+00
					 1.00000000E+00	 1.00000000E+00	 4.00000000E+00
					 0.00000000E+00	 1.00000000E+00	 4.00000000E+00
					 5.00000000E-01	 0.00000000E+00	 4.00000000E+00
					 1.00000000E+00	 5.00000000E-01	 4.00000000E+00
					 5.00000000E-01	 1.00000000E+00	 4.00000000E+00
					 0.00000000E+00	 5.00000000E-01	 4.00000000E+00
					 5.00000000E-01	 5.00000000E-01	 4.00000000E+00
				</DataArray>
			</Points>
			<Cells>
				<DataArray type="Int32" Name="connectivity" format="ascii">
					0 8 44 11 29 46 74 67 8 1 9 44 46 16 53 74 11 44 10 3 67 74 60 37 44 9 2 10 74 53 30 60 29 46 74 67 28 47 75 68 46 16 53 74 47 17 54 75 67 74 60 37 68 75 61 38 74 53 30 60 75 54 31 61 28 47 75 68 27 48 76 69 47 17 54 75 48 18 55 76 68 75 61 38 69 76 62 39 75 54 31 61 76 55 32 62 27 48 76 69 26 49 77 70 48 18 55 76 49 19 56 77 69 76 62 39 70 77 63 40 76 55 32 62 77 56 33 63 82 85 89 88 25 50 78 71 85 81 86 89 50 20 57 78 88 89 87 84 71 78 64 41 89 86 83 87 78 57 34 64 25 50 78 71 24 51 79 72 50 20 57 78 51 21 58 79 71 78 64 41 72 79 65 42 78 57 34 64 79 58 35 65 24 51 79 72 23 52 80 73 51 21 58 79 52 22 59 80 72 79 65 42 73 80 66 43 79 58 35 65 80 59 36 66 23 52 80 73 4 12 45 15 52 22 59 80 12 5 13 45 73 80 66 43 15 45 14 7 80 59 36 66 45 13 6 14 
				</DataArray>
				<DataArray type="Int32" Name="offsets" format="ascii">
					8 16 24 32 40 48 56 64 72 80 88 96 104 112 120 128 136 144 152 160 168 176 184 192 200 208 216 224 232 240 248 256 
				</DataArray>
				<DataArray type="UInt8" Name="types" format="ascii">
					12 12 12 12 12 12 12 12 12 12 12 12 12 12 12 12 12 12 12 12 12 12 12 12 12 12 12 12 12 12 12 12 
				</DataArray>
			</Cells>
			<PointData>
				<DataArray type="Float32" Name="U" NumberOfComponents="3" ComponentName0="D1" ComponentName1="D2" ComponentName2="D3" format="ascii">
					 0.00000000E+00	 0.00000000E+00	 0.00000000E+00
					 0.00000000E+00	 0.00000000E+00	 0.00000000E+00
					 0.00000000E+00	 0.00000000E+00	 0.00000000E+00
					 0.00000000E+00	 0.00000000E+00	 0.00000000E+00
					-1.26916000E+01	-1.26916000E+01	-5.69987000E+03
					 1.26916000E+01	-1.26916000E+01	-5.69987000E+03
					 1.26916000E+01	 1.26916000E+01	-5.69987000E+03
					-1.26916000E+01	 1.26916000E+01	-5.69987000E+03
					 0.00000000E+00	 0.00000000E+00	 0.00000000E+00
					 0.00000000E+00	 0.00000000E+00	 0.00000000E+00
					 0.00000000E+00	 0.00000000E+00	 0.00000000E+00
					 0.00000000E+00	 0.00000000E+00	 0.00000000E+00
					-9.09495000E-13	 1.91746000E+01	-5.72885000E+03
					-1.91746000E+01	-2.36469000E-11	-5.72885000E+03
					-1.02318000E-11	-1.91746000E+01	-5.72885000E+03
					 1.91746000E+01	-4.41105000E-11	-5.72885000E+03
					 3.18653000E+02	-3.18653000E+02	-1.07127000E+03
					 2.69192000E+02	-2.69192000E+02	-2.13240000E+03
					 2.43791000E+02	-2.43791000E+02	-3.12722000E+03
					 2.07422000E+02	-2.07422000E+02	-3.99767000E+03
					 1.62464000E+02	-1.62464000E+02	-4.71392000E+03
					 1.14828000E+02	-1.14828000E+02	-5.24413000E+03
					 5.36328000E+01	-5.36328000E+01	-5.57607000E+03
					-5.36328000E+01	-5.36328000E+01	-5.57607000E+03
					-1.14828000E+02	-1.14828000E+02	-5.24413000E+03
					-1.62464000E+02	-1.62464000E+02	-4.71392000E+03
					-2.07422000E+02	-2.07422000E+02	-3.99767000E+03
					-2.43791000E+02	-2.43791000E+02	-3.12722000E+03
					-2.69192000E+02	-2.69192000E+02	-2.13240000E+03
					-3.18653000E+02	-3.18653000E+02	-1.07127000E+03
					 3.18653000E+02	 3.18653000E+02	-1.07127000E+03
					 2.69192000E+02	 2.69192000E+02	-2.13240000E+03
					 2.43791000E+02	 2.43791000E+02	-3.12722000E+03
					 2.07422000E+02	 2.07422000E+02	-3.99767000E+03
					 1.62464000E+02	 1.62464000E+02	-4.71392000E+03
					 1.14828000E+02	 1.14828000E+02	-5.24413000E+03
					 5.36328000E+01	 5.36328000E+01	-5.57607000E+03
					-3.18653000E+02	 3.18653000E+02	-1.07127000E+03
					-2.69192000E+02	 2.69192000E+02	-2.13240000E+03
					-2.43791000E+02	 2.43791000E+02	-3.12722000E+03
					-2.07422000E+02	 2.07422000E+02	-3.99767000E+03
					-1.62464000E+02	 1.62464000E+02	-4.71392000E+03
					-1.14828000E+02	 1.14828000E+02	-5.24413000E+03
					-5.36328000E+01	 5.36328000E+01	-5.57607000E+03
					 0.00000000E+00	 0.00000000E+00	 0.00000000E+00
					-2.06910000E-11	-4.08704000E-11	-5.66362000E+03
					-2.76486000E-10	-3.13822000E+02	-1.05966000E+03
					-5.07043000E-10	-2.72592000E+02	-2.13687000E+03
					-5.65251000E-10	-2.42857000E+02	-3.13196000E+03
					-4.84761000E-10	-2.07972000E+02	-4.00384000E+03
					-3.37423000E-10	-1.62827000E+02	-4.71891000E+03
					-1.81331000E-10	-1.11036000E+02	-5.25858000E+03
					-6.54836000E-11	-6.66699000E+01	-5.56365000E+03
					 3.13822000E+02	-2.56023000E-10	-1.05966000E+03
					 2.72592000E+02	-4.64070000E-10	-2.13687000E+03
					 2.42857000E+02	-5.17815000E-10	-3.13196000E+03
					 2.07972000E+02	-4.56339000E-10	-4.00384000E+03
					 1.62827000E+02	-3.24690000E-10	-4.71891000E+03
					 1.11036000E+02	-1.81217000E-10	-5.25858000E+03
					 6.66699000E+01	-7.50333000E-11	-5.56365000E+03
					-2.74213000E-10	 3.13822000E+02	-1.05966000E+03
					-5.03405000E-10	 2.72592000E+02	-2.13687000E+03
					-5.62522000E-10	 2.42857000E+02	-3.13196000E+03
					-4.85670000E-10	 2.07972000E+02	-4.00384000E+03
					-3.39924000E-10	 1.62827000E+02	-4.71891000E+03
					-1.82467000E-10	 1.11036000E+02	-5.25858000E+03
					-7.13953000E-11	 6.66699000E+01	-5.56365000E+03
					-3.13822000E+02	-2.53067000E-10	-1.05966000E+03
					-2.72592000E+02	-4.62933000E-10	-2.13687000E+03
					-2.42857000E+02	-5.17502000E-10	-3.13196000E+03
					-2.07972000E+02	-4.55032000E-10	-4.00384000E+03
					-1.62827000E+02	-3.24235000E-10	-4.71891000E+03
					-1.11036000E+02	-1.83945000E-10	-5.25858000E+03
					-6.66699000E+01	-7.94671000E-11	-5.56365000E+03
					-2.77851000E-10	-2.55568000E-10	-1.04812000E+03
					-5.02041000E-10	-4.61569000E-10	-2.14106000E+03
					-5.59339000E-10	-5.13865000E-10	-3.13668000E+03
					-4.84761000E-10	-4.53156000E-10	-4.01030000E+03
					-3.38787000E-10	-3.24007000E-10	-4.72578000E+03
					-1.90767000E-10	-1.87356000E-10	-5.25787000E+03
					-6.82121000E-11	-7.88987000E-11	-5.61837000E+03
					 2.07422000E+02	-2.07422000E+02	-3.99767000E+03
					-2.07422000E+02	-2.07422000E+02	-3.99767000E+03
					 2.07422000E+02	 2.07422000E+02	-3.99767000E+03
					-2.07422000E+02	 2.07422000E+02	-3.99767000E+03
					-4.84761000E-10	-2.07972000E+02	-4.00384000E+03
					 2.07972000E+02	-4.56339000E-10	-4.00384000E+03
					-4.85670000E-10	 2.07972000E+02	-4.00384000E+03
					-2.07972000E+02	-4.55032000E-10	-4.00384000E+03
					-4.84761000E-10	-4.53156000E-10	-4.01030000E+03
				</DataArray>
				<DataArray type="Float32" Name="SENFREQ" NumberOfComponents="2" ComponentName0="DFDN" ComponentName1="DFDNFIL" format="ascii">
					 0.00000000E+00	 0.00000000E+00
					 0.00000000E+00	 0.00000000E+00
					 0.00000000E+00	 0.00000000E+00
					 0.00000000E+00	 0.00000000E+00
					-4.00708000E+11	-3.37727000E-01
					-4.00708000E+11	-3.37727000E-01
					-4.00708000E+11	-3.37727000E-01
					-4.00708000E+11	-3.37727000E-01
					 0.00000000E+00	 0.00000000E+00
					 0.00000000E+00	 0.00000000E+00
					 0.00000000E+00	 0.00000000E+00
					 0.00000000E+00	 0.00000000E+00
					-4.91088000E+11	-4.13901000E-01
					-4.91088000E+11	-4.13901000E-01
					-4.91088000E+11	-4.13901000E-01
					-4.91088000E+11	-4.13901000E-01
					 8.43116000E+11	 7.10598000E-01
					 3.46622000E+11	 2.92141000E-01
					 3.85105000E+11	 3.24576000E-01
					 0.00000000E+00	 0.00000000E+00
					-3.65478000E+11	-3.08034000E-01
					-3.42417000E+11	-2.88597000E-01
					-4.49757000E+11	-3.79066000E-01
					-4.49757000E+11	-3.79066000E-01
					-3.42417000E+11	-2.88597000E-01
					-3.65478000E+11	-3.08034000E-01
					 0.00000000E+00	 0.00000000E+00
					 3.85105000E+11	 3.24576000E-01
					 3.46622000E+11	 2.92141000E-01
					 8.43116000E+11	 7.10598000E-01
					 8.43116000E+11	 7.10598000E-01
					 3.46622000E+11	 2.92141000E-01
					 3.85105000E+11	 3.24576000E-01
					 0.00000000E+00	 0.00000000E+00
					-3.65478000E+11	-3.08034000E-01
					-3.42417000E+11	-2.88597000E-01
					-4.49757000E+11	-3.79066000E-01
					 8.43116000E+11	 7.10598000E-01
					 3.46622000E+11	 2.92141000E-01
					 3.85105000E+11	 3.24576000E-01
					 0.00000000E+00	 0.00000000E+00
					-3.65478000E+11	-3.08033000E-01
					-3.42417000E+11	-2.88597000E-01
					-4.49757000E+11	-3.79066000E-01
					 0.00000000E+00	 0.00000000E+00
					-7.11799000E+11	-5.99921000E-01
					 1.18649000E+12	 1.00000000E+00
					 4.95838000E+11	 4.17904000E-01
					 5.44555000E+11	 4.58964000E-01
					 0.00000000E+00	 0.00000000E+00
					-5.16756000E+11	-4.35534000E-01
					-4.85384000E+11	-4.09093000E-01
					-6.37189000E+11	-5.37039000E-01
					 1.18649000E+12	 1.00000000E+00
					 4.95838000E+11	 4.17904000E-01
					 5.44555000E+11	 4.58964000E-01
					 0.00000000E+00	 0.00000000E+00
					-5.16756000E+11	-4.35534000E-01
					-4.85384000E+11	-4.09093000E-01
					-6.37189000E+11	-5.37039000E-01
					 1.18649000E+12	 1.00000000E+00
					 4.95838000E+11	 4.17904000E-01
					 5.44555000E+11	 4.58964000E-01
					 0.00000000E+00	 0.00000000E+00
					-5.16756000E+11	-4.35534000E-01
					-4.85384000E+11	-4.09093000E-01
					-6.37189000E+11	-5.37039000E-01
					 1.18649000E+12	 1.00000000E+00
					 4.95838000E+11	 4.17904000E-01
					 5.44555000E+11	 4.58964000E-01
					 0.00000000E+00	 0.00000000E+00
					-5.16756000E+11	-4.35534000E-01
					-4.85384000E+11	-4.09093000E-01
					-6.37189000E+11	-5.37039000E-01
					 0.00000000E+00	 0.00000000E+00
					 0.00000000E+00	 0.00000000E+00
					 0.00000000E+00	 0.00000000E+00
					 0.00000000E+00	 0.00000000E+00
					 0.00000000E+00	 0.00000000E+00
					 0.00000000E+00	 0.00000000E+00
					 0.00000000E+00	 0.00000000E+00
					 0.00000000E+00	 0.00000000E+00
					 0.00000000E+00	 0.00000000E+00
					 0.00000000E+00	 0.00000000E+00
					 0.00000000E+00	 0.00000000E+00
					 0.00000000E+00	 0.00000000E+00
					 0.00000000E+00	 0.00000000E+00
					 0.00000000E+00	 0.00000000E+00
					 0.00000000E+00	 0.00000000E+00
					 0.00000000E+00	 0.00000000E+00
				</DataArray>
			</PointData>
		</Piece>
	</UnstructuredGrid>
</VTKFile>