<?xml version="1.0"?>
<VTKFile type="UnstructuredGrid" version="0.1" byte_order="LittleEndian">
	<UnstructuredGrid>
		<Piece NumberOfPoints="81" NumberOfCells="32">
			<Points>
				<DataArray type="Float64" NumberOfComponents="3" format="ascii">
					 0.00000000E+00	 0.00000000E+00	 0.00000000E+00
					 1.00000000E+00	 0.00000000E+00	 0.00000000E+00
					 1.00000000E+00	 1.50000000E+00	 0.00000000E+00
					 0.00000000E+00	 1.50000000E+00	 0.00000000E+00
					 0.00000000E+00	 0.00000000E+00	 8.00000000E+00
					 1.00000000E+00	 0.00000000E+00	 8.00000000E+00
					 1.00000000E+00	 1.50000000E+00	 8.00000000E+00
					 0.00000000E+00	 1.50000000E+00	 8.00000000E+00
					 5.00000000E-01	 0.00000000E+00	 0.00000000E+00
					 1.00000000E+00	 7.50000000E-01	 0.00000000E+00
					 5.00000000E-01	 1.50000000E+00	 0.00000000E+00
					 0.00000000E+00	 7.50000000E-01	 0.00000000E+00
					 5.00000000E-01	 0.00000000E+00	 8.00000000E+00
					 1.00000000E+00	 7.50000000E-01	 8.00000000E+00
					 5.00000000E-01	 1.50000000E+00	 8.00000000E+00
					 0.00000000E+00	 7.50000000E-01	 8.00000000E+00
					 1.00000000E+00	 0.00000000E+00	 1.00000000E+00
					 1.00000000E+00	 0.00000000E+00	 2.00000000E+00
					 1.00000000E+00	 0.00000000E+00	 3.00000000E+00
					 1.00000000E+00	 0.00000000E+00	 4.00000000E+00
					 1.00000000E+00	 0.00000000E+00	 5.00000000E+00
					 1.00000000E+00	 0.00000000E+00	 6.00000000E+00
					 1.00000000E+00	 0.00000000E+00	 7.00000000E+00
					 0.00000000E+00	 0.00000000E+00	 7.00000000E+00
					 0.00000000E+00	 0.00000000E+00	 6.00000000E+00
					 0.00000000E+00	 0.00000000E+00	 5.00000000E+00
					 0.00000000E+00	 0.00000000E+00	 4.00000000E+00
					 0.00000000E+00	 0.00000000E+00	 3.00000000E+00
					 0.00000000E+00	 0.00000000E+00	 2.00000000E+00
					 0.00000000E+00	 0.00000000E+00	 1.00000000E+00
					 1.00000000E+00	 1.50000000E+00	 1.00000000E+00
					 1.00000000E+00	 1.50000000E+00	 2.00000000E+00
					 1.00000000E+00	 1.50000000E+00	 3.00000000E+00
					 1.00000000E+00	 1.50000000E+00	 4.00000000E+00
					 1.00000000E+00	 1.50000000E+00	 5.00000000E+00
					 1.00000000E+00	 1.50000000E+00	 6.00000000E+00
					 1.00000000E+00	 1.50000000E+00	 7.00000000E+00
					 0.00000000E+00	 1.50000000E+00	 1.00000000E+00
					 0.00000000E+00	 1.50000000E+00	 2.00000000E+00
					 0.00000000E+00	 1.50000000E+00	 3.00000000E+00
					 0.00000000E+00	 1.50000000E+00	 4.00000000E+00
					 0.00000000E+00	 1.50000000E+00	 5.00000000E+00
					 0.00000000E+00	 1.50000000E+00	 6.00000000E+00
					 0.00000000E+00	 1.50000000E+00	 7.00000000E+00
					 5.00000000E-01	 7.50000000E-01	 0.00000000E+00
					 5.00000000E-01	 7.50000000E-01	 8.00000000E+00
					 5.00000000E-01	 0.00000000E+00	 1.00000000E+00
					 5.00000000E-01	 0.00000000E+00	 2.00000000E+00
					 5.00000000E-01	 0.00000000E+00	 3.00000000E+00
					 5.00000000E-01	 0.00000000E+00	 4.00000000E+00
					 5.00000000E-01	 0.00000000E+00	 5.00000000E+00
					 5.00000000E-01	 0.00000000E+00	 6.00000000E+00
					 5.00000000E-01	 0.00000000E+00	 7.00000000E+00
					 1.00000000E+00	 7.50000000E-01	 1.00000000E+00
					 1.00000000E+00	 7.50000000E-01	 2.00000000E+00
					 1.00000000E+00	 7.50000000E-01	 3.00000000E+00
					 1.00000000E+00	 7.50000000E-01	 4.00000000E+00
					 1.00000000E+00	 7.50000000E-01	 5.00000000E+00
					 1.00000000E+00	 7.50000000E-01	 6.00000000E+00
					 1.00000000E+00	 7.50000000E-01	 7.00000000E+00
					 5.00000000E-01	 1.50000000E+00	 1.00000000E+00
					 5.00000000E-01	 1.50000000E+00	 2.00000000E+00
					 5.00000000E-01	 1.50000000E+00	 3.00000000E+00
					 5.00000000E-01	 1.50000000E+00	 4.00000000E+00
					 5.00000000E-01	 1.50000000E+00	 5.00000000E+00
					 5.00000000E-01	 1.50000000E+00	 6.00000000E+00
					 5.00000000E-01	 1.50000000E+00	 7.00000000E+00
					 0.00000000E+00	 7.50000000E-01	 1.00000000E+00
					 0.00000000E+00	 7.50000000E-01	 2.00000000E+00
					 0.00000000E+00	 7.50000000E-01	 3.00000000E+00
					 0.00000000E+00	 7.50000000E-01	 4.00000000E+00
					 0.00000000E+00	 7.50000000E-01	 5.00000000E+00
					 0.00000000E+00	 7.50000000E-01	 6.00000000E+00
					 0.00000000E+00	 7.50000000E-01	 7.00000000E+00
					 5.00000000E-01	 7.50000000E-01	 1.00000000E+00
					 5.00000000E-01	 7.50000000E-01	 2.00000000E+00
					 5.00000000E-01	 7.50000000E-01	 3.00000000E+00
					 5.00000000E-01	 7.50000000E-01	 4.00000000E+00
					 5.00000000E-01	 7.50000000E-01	 5.00000000E+00
					 5.00000000E-01	 7.50000000E-01	 6.00000000E+00
					 5.00000000E-01	 7.50000000E-01	 7.00000000E+00
				</DataArray>
			</Points>
			<Cells>
				<DataArray type="Int32" Name="connectivity" format="ascii">
					0 8 44 11 29 46 74 67 8 1 9 44 46 16 53 74 11 44 10 3 67 74 60 37 44 9 2 10 74 53 30 60 29 46 74 67 28 47 75 68 46 16 53 74 47 17 54 75 67 74 60 37 68 75 61 38 74 53 30 60 75 54 31 61 28 47 75 68 27 48 76 69 47 17 54 75 48 18 55 76 68 75 61 38 69 76 62 39 75 54 31 61 76 55 32 62 27 48 76 69 26 49 77 70 48 18 55 76 49 19 56 77 69 76 62 39 70 77 63 40 76 55 32 62 77 56 33 63 26 49 77 70 25 50 78 71 49 19 56 77 50 20 57 78 70 77 63 40 71 78 64 41 77 56 33 63 78 57 34 64 25 50 78 71 24 51 79 72 50 20 57 78 51 21 58 79 71 78 64 41 72 79 65 42 78 57 34 64 79 58 35 65 24 51 79 72 23 52 80 73 51 21 58 79 52 22 59 80 72 79 65 42 73 80 66 43 79 58 35 65 80 59 36 66 23 52 80 73 4 12 45 15 52 22 59 80 12 5 13 45 73 80 66 43 15 45 14 7 80 59 36 66 45 13 6 14 
				</DataArray>
				<DataArray type="Int32" Name="offsets" format="ascii">
					8 16 24 32 40 48 56 64 72 80 88 96 104 112 120 128 136 144 152 160 168 176 184 192 200 208 216 224 232 240 248 256 
				</DataArray>
				<DataArray type="UInt8" Name="types" format="ascii">
					12 12 12 12 12 12 12 12 12 12 12 12 12 12 12 12 12 12 12 12 12 12 12 12 12 12 12 12 12 12 12 12 
				</DataArray>
			</Cells>
			<PointData>
				<DataArray type="Float32" Name="SENFREQ" NumberOfComponents="2" ComponentName0="DFDN" ComponentName1="DFDNFIL" format="ascii">
					 0.00000000E+00	 0.00000000E+00
					 0.00000000E+00	 0.00000000E+00
					 0.00000000E+00	 0.00000000E+00
					 0.00000000E+00	 0.00000000E+00
					-3.14112000E+09	-4.57816000E-01
					-3.14112000E+09	-4.57816000E-01
					-3.14112000E+09	-4.57816000E-01
					-3.14112000E+09	-4.57816000E-01
					 0.00000000E+00	 0.00000000E+00
					 0.00000000E+00	 0.00000000E+00
					 0.00000000E+00	 0.00000000E+00
					 0.00000000E+00	 0.00000000E+00
					-3.94532000E+09	-4.57600000E-01
					-3.86134000E+09	-4.57195000E-01
					-3.94532000E+09	-4.57600000E-01
					-3.86134000E+09	-4.57195000E-01
					 1.06625000E+10	 1.00000000E+00
					 3.62232000E+09	 7.02333000E-01
					 1.88195000E+09	 3.23506000E-01
					 4.97843000E+08	 7.21086000E-02
					-6.71916000E+08	-1.07403000E-01
					-1.76259000E+09	-2.70159000E-01
					-2.90865000E+09	-4.00049000E-01
					-2.90865000E+09	-4.00049000E-01
					-1.76260000E+09	-2.70159000E-01
					-6.71918000E+08	-1.07403000E-01
					 4.97842000E+08	 7.21086000E-02
					 1.88195000E+09	 3.23506000E-01
					 3.62232000E+09	 7.02333000E-01
					 1.06625000E+10	 1.00000000E+00
					 1.06625000E+10	 1.00000000E+00
					 3.62232000E+09	 7.02333000E-01
					 1.88195000E+09	 3.23506000E-01
					 4.97843000E+08	 7.21086000E-02
					-6.71917000E+08	-1.07403000E-01
					-1.76259000E+09	-2.70159000E-01
					-2.90865000E+09	-4.00049000E-01
					 1.06625000E+10	 1.00000000E+00
					 3.62232000E+09	 7.02333000E-01
					 1.88195000E+09	 3.23506000E-01
					 4.97842000E+08	 7.21086000E-02
					-6.71917000E+08	-1.07403000E-01
					-1.76259000E+09	-2.70159000E-01
					-2.90865000E+09	-4.00049000E-01
					 0.00000000E+00	 0.00000000E+00
					-5.88674000E+09	-4.57055000E-01
					 2.24957000E+10	 9.98769000E-01
					 7.05395000E+09	 7.02922000E-01
					 3.74047000E+09	 3.24381000E-01
					 1.20095000E+09	 7.22690000E-02
					-7.91203000E+08	-1.07370000E-01
					-2.48157000E+09	-2.70106000E-01
					-4.14062000E+09	-3.99891000E-01
					 4.45255000E+09	 9.87734000E-01
					 1.57469000E+09	 7.02081000E-01
					 6.75299000E+08	 3.25612000E-01
					-2.35620000E+08	 7.21936000E-02
					-1.27968000E+09	-1.07449000E-01
					-2.54042000E+09	-2.69967000E-01
					-4.07498000E+09	-3.99514000E-01
					 2.24957000E+10	 9.98769000E-01
					 7.05395000E+09	 7.02922000E-01
					 3.74047000E+09	 3.24381000E-01
					 1.20096000E+09	 7.22690000E-02
					-7.91199000E+08	-1.07370000E-01
					-2.48156000E+09	-2.70106000E-01
					-4.14061000E+09	-3.99891000E-01
					 4.45255000E+09	 9.87734000E-01
					 1.57469000E+09	 7.02081000E-01
					 6.75298000E+08	 3.25612000E-01
					-2.35622000E+08	 7.21936000E-02
					-1.27968000E+09	-1.07449000E-01
					-2.54042000E+09	-2.69967000E-01
					-4.07498000E+09	-3.99514000E-01
					 0.00000000E+00	 0.00000000E+00
					 0.00000000E+00	 0.00000000E+00
					 0.00000000E+00	 0.00000000E+00
					 0.00000000E+00	 0.00000000E+00
					 0.00000000E+00	 0.00000000E+00
					 0.00000000E+00	 0.00000000E+00
					 0.00000000E+00	 0.00000000E+00
				</DataArray>
			</PointData>
		</Piece>
	</UnstructuredGrid>
</VTKFile>