# vtk DataFile Version 3.0

ASCII
DATASET UNSTRUCTURED_GRID

POINTS 261 double
	 0.00000000E+00	 0.00000000E+00	 0.00000000E+00
	 1.00000000E+00	 0.00000000E+00	 0.00000000E+00
	 1.00000000E+00	 1.50000000E+00	 0.00000000E+00
	 0.00000000E+00	 1.50000000E+00	 0.00000000E+00
	 0.00000000E+00	 0.00000000E+00	 8.00000000E+00
	 1.00000000E+00	 0.00000000E+00	 8.00000000E+00
	 1.00000000E+00	 1.50000000E+00	 8.00000000E+00
	 0.00000000E+00	 1.50000000E+00	 8.00000000E+00
	 2.50000000E-01	 0.00000000E+00	 0.00000000E+00
	 5.00000000E-01	 0.00000000E+00	 0.00000000E+00
	 7.50000000E-01	 0.00000000E+00	 0.00000000E+00
	 1.00000000E+00	 3.75000000E-01	 0.00000000E+00
	 1.00000000E+00	 7.50000000E-01	 0.00000000E+00
	 1.00000000E+00	 1.12500000E+00	 0.00000000E+00
	 7.50000000E-01	 1.50000000E+00	 0.00000000E+00
	 5.00000000E-01	 1.50000000E+00	 0.00000000E+00
	 2.50000000E-01	 1.50000000E+00	 0.00000000E+00
	 0.00000000E+00	 1.12500000E+00	 0.00000000E+00
	 0.00000000E+00	 7.50000000E-01	 0.00000000E+00
	 0.00000000E+00	 3.75000000E-01	 0.00000000E+00
	 2.50000000E-01	 0.00000000E+00	 8.00000000E+00
	 5.00000000E-01	 0.00000000E+00	 8.00000000E+00
	 7.50000000E-01	 0.00000000E+00	 8.00000000E+00
	 1.00000000E+00	 3.75000000E-01	 8.00000000E+00
	 1.00000000E+00	 7.50000000E-01	 8.00000000E+00
	 1.00000000E+00	 1.12500000E+00	 8.00000000E+00
	 7.50000000E-01	 1.50000000E+00	 8.00000000E+00
	 5.00000000E-01	 1.50000000E+00	 8.00000000E+00
	 2.50000000E-01	 1.50000000E+00	 8.00000000E+00
	 0.00000000E+00	 1.12500000E+00	 8.00000000E+00
	 0.00000000E+00	 7.50000000E-01	 8.00000000E+00
	 0.00000000E+00	 3.75000000E-01	 8.00000000E+00
	 1.00000000E+00	 0.00000000E+00	 5.00000000E-01
	 1.00000000E+00	 0.00000000E+00	 1.00000000E+00
	 1.00000000E+00	 0.00000000E+00	 1.50000000E+00
	 1.00000000E+00	 0.00000000E+00	 2.00000000E+00
	 1.00000000E+00	 0.00000000E+00	 2.50000000E+00
	 1.00000000E+00	 0.00000000E+00	 3.00000000E+00
	 1.00000000E+00	 0.00000000E+00	 3.50000000E+00
	 1.00000000E+00	 0.00000000E+00	 4.00000000E+00
	 1.00000000E+00	 0.00000000E+00	 4.50000000E+00
	 1.00000000E+00	 0.00000000E+00	 5.00000000E+00
	 1.00000000E+00	 0.00000000E+00	 5.50000000E+00
	 1.00000000E+00	 0.00000000E+00	 6.00000000E+00
	 1.00000000E+00	 0.00000000E+00	 6.50000000E+00
	 1.00000000E+00	 0.00000000E+00	 7.00000000E+00
	 1.00000000E+00	 0.00000000E+00	 7.50000000E+00
	 0.00000000E+00	 0.00000000E+00	 7.50000000E+00
	 0.00000000E+00	 0.00000000E+00	 7.00000000E+00
	 0.00000000E+00	 0.00000000E+00	 6.50000000E+00
	 0.00000000E+00	 0.00000000E+00	 6.00000000E+00
	 0.00000000E+00	 0.00000000E+00	 5.50000000E+00
	 0.00000000E+00	 0.00000000E+00	 5.00000000E+00
	 0.00000000E+00	 0.00000000E+00	 4.50000000E+00
	 0.00000000E+00	 0.00000000E+00	 4.00000000E+00
	 0.00000000E+00	 0.00000000E+00	 3.50000000E+00
	 0.00000000E+00	 0.00000000E+00	 3.00000000E+00
	 0.00000000E+00	 0.00000000E+00	 2.50000000E+00
	 0.00000000E+00	 0.00000000E+00	 2.00000000E+00
	 0.00000000E+00	 0.00000000E+00	 1.50000000E+00
	 0.00000000E+00	 0.00000000E+00	 1.00000000E+00
	 0.00000000E+00	 0.00000000E+00	 5.00000000E-01
	 1.00000000E+00	 1.50000000E+00	 5.00000000E-01
	 1.00000000E+00	 1.50000000E+00	 1.00000000E+00
	 1.00000000E+00	 1.50000000E+00	 1.50000000E+00
	 1.00000000E+00	 1.50000000E+00	 2.00000000E+00
	 1.00000000E+00	 1.50000000E+00	 2.50000000E+00
	 1.00000000E+00	 1.50000000E+00	 3.00000000E+00
	 1.00000000E+00	 1.50000000E+00	 3.50000000E+00
	 1.00000000E+00	 1.50000000E+00	 4.00000000E+00
	 1.00000000E+00	 1.50000000E+00	 4.50000000E+00
	 1.00000000E+00	 1.50000000E+00	 5.00000000E+00
	 1.00000000E+00	 1.50000000E+00	 5.50000000E+00
	 1.00000000E+00	 1.50000000E+00	 6.00000000E+00
	 1.00000000E+00	 1.50000000E+00	 6.50000000E+00
	 1.00000000E+00	 1.50000000E+00	 7.00000000E+00
	 1.00000000E+00	 1.50000000E+00	 7.50000000E+00
	 0.00000000E+00	 1.50000000E+00	 5.00000000E-01
	 0.00000000E+00	 1.50000000E+00	 1.00000000E+00
	 0.00000000E+00	 1.50000000E+00	 1.50000000E+00
	 0.00000000E+00	 1.50000000E+00	 2.00000000E+00
	 0.00000000E+00	 1.50000000E+00	 2.50000000E+00
	 0.00000000E+00	 1.50000000E+00	 3.00000000E+00
	 0.00000000E+00	 1.50000000E+00	 3.50000000E+00
	 0.00000000E+00	 1.50000000E+00	 4.00000000E+00
	 0.00000000E+00	 1.50000000E+00	 4.50000000E+00
	 0.00000000E+00	 1.50000000E+00	 5.00000000E+00
	 0.00000000E+00	 1.50000000E+00	 5.50000000E+00
	 0.00000000E+00	 1.50000000E+00	 6.00000000E+00
	 0.00000000E+00	 1.50000000E+00	 6.50000000E+00
	 0.00000000E+00	 1.50000000E+00	 7.00000000E+00
	 0.00000000E+00	 1.50000000E+00	 7.50000000E+00
	 5.00000000E-01	 3.75000000E-01	 0.00000000E+00
	 2.50000000E-01	 7.50000000E-01	 0.00000000E+00
	 5.00000000E-01	 7.50000000E-01	 0.00000000E+00
	 7.50000000E-01	 7.50000000E-01	 0.00000000E+00
	 5.00000000E-01	 1.12500000E+00	 0.00000000E+00
	 5.00000000E-01	 3.75000000E-01	 8.00000000E+00
	 2.50000000E-01	 7.50000000E-01	 8.00000000E+00
	 5.00000000E-01	 7.50000000E-01	 8.00000000E+00
	 7.50000000E-01	 7.50000000E-01	 8.00000000E+00
	 5.00000000E-01	 1.12500000E+00	 8.00000000E+00
	 5.00000000E-01	 0.00000000E+00	 5.00000000E-01
	 2.50000000E-01	 0.00000000E+00	 1.00000000E+00
	 5.00000000E-01	 0.00000000E+00	 1.00000000E+00
	 7.50000000E-01	 0.00000000E+00	 1.00000000E+00
	 5.00000000E-01	 0.00000000E+00	 1.50000000E+00
	 2.50000000E-01	 0.00000000E+00	 2.00000000E+00
	 5.00000000E-01	 0.00000000E+00	 2.00000000E+00
	 7.50000000E-01	 0.00000000E+00	 2.00000000E+00
	 5.00000000E-01	 0.00000000E+00	 2.50000000E+00
	 2.50000000E-01	 0.00000000E+00	 3.00000000E+00
	 5.00000000E-01	 0.00000000E+00	 3.00000000E+00
	 7.50000000E-01	 0.00000000E+00	 3.00000000E+00
	 5.00000000E-01	 0.00000000E+00	 3.50000000E+00
	 2.50000000E-01	 0.00000000E+00	 4.00000000E+00
	 5.00000000E-01	 0.00000000E+00	 4.00000000E+00
	 7.50000000E-01	 0.00000000E+00	 4.00000000E+00
	 5.00000000E-01	 0.00000000E+00	 4.50000000E+00
	 2.50000000E-01	 0.00000000E+00	 5.00000000E+00
	 5.00000000E-01	 0.00000000E+00	 5.00000000E+00
	 7.50000000E-01	 0.00000000E+00	 5.00000000E+00
	 5.00000000E-01	 0.00000000E+00	 5.50000000E+00
	 2.50000000E-01	 0.00000000E+00	 6.00000000E+00
	 5.00000000E-01	 0.00000000E+00	 6.00000000E+00
	 7.50000000E-01	 0.00000000E+00	 6.00000000E+00
	 5.00000000E-01	 0.00000000E+00	 6.50000000E+00
	 2.50000000E-01	 0.00000000E+00	 7.00000000E+00
	 5.00000000E-01	 0.00000000E+00	 7.00000000E+00
	 7.50000000E-01	 0.00000000E+00	 7.00000000E+00
	 5.00000000E-01	 0.00000000E+00	 7.50000000E+00
	 1.00000000E+00	 7.50000000E-01	 5.00000000E-01
	 1.00000000E+00	 3.75000000E-01	 1.00000000E+00
	 1.00000000E+00	 7.50000000E-01	 1.00000000E+00
	 1.00000000E+00	 1.12500000E+00	 1.00000000E+00
	 1.00000000E+00	 7.50000000E-01	 1.50000000E+00
	 1.00000000E+00	 3.75000000E-01	 2.00000000E+00
	 1.00000000E+00	 7.50000000E-01	 2.00000000E+00
	 1.00000000E+00	 1.12500000E+00	 2.00000000E+00
	 1.00000000E+00	 7.50000000E-01	 2.50000000E+00
	 1.00000000E+00	 3.75000000E-01	 3.00000000E+00
	 1.00000000E+00	 7.50000000E-01	 3.00000000E+00
	 1.00000000E+00	 1.12500000E+00	 3.00000000E+00
	 1.00000000E+00	 7.50000000E-01	 3.50000000E+00
	 1.00000000E+00	 3.75000000E-01	 4.00000000E+00
	 1.00000000E+00	 7.50000000E-01	 4.00000000E+00
	 1.00000000E+00	 1.12500000E+00	 4.00000000E+00
	 1.00000000E+00	 7.50000000E-01	 4.50000000E+00
	 1.00000000E+00	 3.75000000E-01	 5.00000000E+00
	 1.00000000E+00	 7.50000000E-01	 5.00000000E+00
	 1.00000000E+00	 1.12500000E+00	 5.00000000E+00
	 1.00000000E+00	 7.50000000E-01	 5.50000000E+00
	 1.00000000E+00	 3.75000000E-01	 6.00000000E+00
	 1.00000000E+00	 7.50000000E-01	 6.00000000E+00
	 1.00000000E+00	 1.12500000E+00	 6.00000000E+00
	 1.00000000E+00	 7.50000000E-01	 6.50000000E+00
	 1.00000000E+00	 3.75000000E-01	 7.00000000E+00
	 1.00000000E+00	 7.50000000E-01	 7.00000000E+00
	 1.00000000E+00	 1.12500000E+00	 7.00000000E+00
	 1.00000000E+00	 7.50000000E-01	 7.50000000E+00
	 5.00000000E-01	 1.50000000E+00	 5.00000000E-01
	 7.50000000E-01	 1.50000000E+00	 1.00000000E+00
	 5.00000000E-01	 1.50000000E+00	 1.00000000E+00
	 2.50000000E-01	 1.50000000E+00	 1.00000000E+00
	 5.00000000E-01	 1.50000000E+00	 1.50000000E+00
	 7.50000000E-01	 1.50000000E+00	 2.00000000E+00
	 5.00000000E-01	 1.50000000E+00	 2.00000000E+00
	 2.50000000E-01	 1.50000000E+00	 2.00000000E+00
	 5.00000000E-01	 1.50000000E+00	 2.50000000E+00
	 7.50000000E-01	 1.50000000E+00	 3.00000000E+00
	 5.00000000E-01	 1.50000000E+00	 3.00000000E+00
	 2.50000000E-01	 1.50000000E+00	 3.00000000E+00
	 5.00000000E-01	 1.50000000E+00	 3.50000000E+00
	 7.50000000E-01	 1.50000000E+00	 4.00000000E+00
	 5.00000000E-01	 1.50000000E+00	 4.00000000E+00
	 2.50000000E-01	 1.50000000E+00	 4.00000000E+00
	 5.00000000E-01	 1.50000000E+00	 4.50000000E+00
	 7.50000000E-01	 1.50000000E+00	 5.00000000E+00
	 5.00000000E-01	 1.50000000E+00	 5.00000000E+00
	 2.50000000E-01	 1.50000000E+00	 5.00000000E+00
	 5.00000000E-01	 1.50000000E+00	 5.50000000E+00
	 7.50000000E-01	 1.50000000E+00	 6.00000000E+00
	 5.00000000E-01	 1.50000000E+00	 6.00000000E+00
	 2.50000000E-01	 1.50000000E+00	 6.00000000E+00
	 5.00000000E-01	 1.50000000E+00	 6.50000000E+00
	 7.50000000E-01	 1.50000000E+00	 7.00000000E+00
	 5.00000000E-01	 1.50000000E+00	 7.00000000E+00
	 2.50000000E-01	 1.50000000E+00	 7.00000000E+00
	 5.00000000E-01	 1.50000000E+00	 7.50000000E+00
	 0.00000000E+00	 7.50000000E-01	 5.00000000E-01
	 0.00000000E+00	 1.12500000E+00	 1.00000000E+00
	 0.00000000E+00	 7.50000000E-01	 1.00000000E+00
	 0.00000000E+00	 3.75000000E-01	 1.00000000E+00
	 0.00000000E+00	 7.50000000E-01	 1.50000000E+00
	 0.00000000E+00	 1.12500000E+00	 2.00000000E+00
	 0.00000000E+00	 7.50000000E-01	 2.00000000E+00
	 0.00000000E+00	 3.75000000E-01	 2.00000000E+00
	 0.00000000E+00	 7.50000000E-01	 2.50000000E+00
	 0.00000000E+00	 1.12500000E+00	 3.00000000E+00
	 0.00000000E+00	 7.50000000E-01	 3.00000000E+00
	 0.00000000E+00	 3.75000000E-01	 3.00000000E+00
	 0.00000000E+00	 7.50000000E-01	 3.50000000E+00
	 0.00000000E+00	 1.12500000E+00	 4.00000000E+00
	 0.00000000E+00	 7.50000000E-01	 4.00000000E+00
	 0.00000000E+00	 3.75000000E-01	 4.00000000E+00
	 0.00000000E+00	 7.50000000E-01	 4.50000000E+00
	 0.00000000E+00	 1.12500000E+00	 5.00000000E+00
	 0.00000000E+00	 7.50000000E-01	 5.00000000E+00
	 0.00000000E+00	 3.75000000E-01	 5.00000000E+00
	 0.00000000E+00	 7.50000000E-01	 5.50000000E+00
	 0.00000000E+00	 1.12500000E+00	 6.00000000E+00
	 0.00000000E+00	 7.50000000E-01	 6.00000000E+00
	 0.00000000E+00	 3.75000000E-01	 6.00000000E+00
	 0.00000000E+00	 7.50000000E-01	 6.50000000E+00
	 0.00000000E+00	 1.12500000E+00	 7.00000000E+00
	 0.00000000E+00	 7.50000000E-01	 7.00000000E+00
	 0.00000000E+00	 3.75000000E-01	 7.00000000E+00
	 0.00000000E+00	 7.50000000E-01	 7.50000000E+00
	 5.00000000E-01	 7.50000000E-01	 5.00000000E-01
	 5.00000000E-01	 3.75000000E-01	 1.00000000E+00
	 2.50000000E-01	 7.50000000E-01	 1.00000000E+00
	 5.00000000E-01	 7.50000000E-01	 1.00000000E+00
	 7.50000000E-01	 7.50000000E-01	 1.00000000E+00
	 5.00000000E-01	 1.12500000E+00	 1.00000000E+00
	 5.00000000E-01	 7.50000000E-01	 1.50000000E+00
	 5.00000000E-01	 3.75000000E-01	 2.00000000E+00
	 2.50000000E-01	 7.50000000E-01	 2.00000000E+00
	 5.00000000E-01	 7.50000000E-01	 2.00000000E+00
	 7.50000000E-01	 7.50000000E-01	 2.00000000E+00
	 5.00000000E-01	 1.12500000E+00	 2.00000000E+00
	 5.00000000E-01	 7.50000000E-01	 2.50000000E+00
	 5.00000000E-01	 3.75000000E-01	 3.00000000E+00
	 2.50000000E-01	 7.50000000E-01	 3.00000000E+00
	 5.00000000E-01	 7.50000000E-01	 3.00000000E+00
	 7.50000000E-01	 7.50000000E-01	 3.00000000E+00
	 5.00000000E-01	 1.12500000E+00	 3.00000000E+00
	 5.00000000E-01	 7.50000000E-01	 3.50000000E+00
	 5.00000000E-01	 3.75000000E-01	 4.00000000E+00
	 2.50000000E-01	 7.50000000E-01	 4.00000000E+00
	 5.00000000E-01	 7.50000000E-01	 4.00000000E+00
	 7.50000000E-01	 7.50000000E-01	 4.00000000E+00
	 5.00000000E-01	 1.12500000E+00	 4.00000000E+00
	 5.00000000E-01	 7.50000000E-01	 4.50000000E+00
	 5.00000000E-01	 3.75000000E-01	 5.00000000E+00
	 2.50000000E-01	 7.50000000E-01	 5.00000000E+00
	 5.00000000E-01	 7.50000000E-01	 5.00000000E+00
	 7.50000000E-01	 7.50000000E-01	 5.00000000E+00
	 5.00000000E-01	 1.12500000E+00	 5.00000000E+00
	 5.00000000E-01	 7.50000000E-01	 5.50000000E+00
	 5.00000000E-01	 3.75000000E-01	 6.00000000E+00
	 2.50000000E-01	 7.50000000E-01	 6.00000000E+00
	 5.00000000E-01	 7.50000000E-01	 6.00000000E+00
	 7.50000000E-01	 7.50000000E-01	 6.00000000E+00
	 5.00000000E-01	 1.12500000E+00	 6.00000000E+00
	 5.00000000E-01	 7.50000000E-01	 6.50000000E+00
	 5.00000000E-01	 3.75000000E-01	 7.00000000E+00
	 2.50000000E-01	 7.50000000E-01	 7.00000000E+00
	 5.00000000E-01	 7.50000000E-01	 7.00000000E+00
	 7.50000000E-01	 7.50000000E-01	 7.00000000E+00
	 5.00000000E-01	 1.12500000E+00	 7.00000000E+00
	 5.00000000E-01	 7.50000000E-01	 7.50000000E+00

CELLS 32 672
	20 0 9 94 18 60 104 221 191 8 92 93 19 103 219 220 192 61 102 218 189 
	20 9 1 12 94 104 33 133 221 10 11 95 92 105 132 222 219 102 32 131 218 
	20 18 94 15 3 191 221 162 78 93 96 16 17 220 223 163 190 189 218 160 77 
	20 94 12 2 15 221 133 63 162 95 13 14 96 222 134 161 223 218 131 62 160 
	20 60 104 221 191 58 108 227 195 103 219 220 192 107 225 226 196 59 106 224 193 
	20 104 33 133 221 108 35 137 227 105 132 222 219 109 136 228 225 106 34 135 224 
	20 191 221 162 78 195 227 166 80 220 223 163 190 226 229 167 194 193 224 164 79 
	20 221 133 63 162 227 137 65 166 222 134 161 223 228 138 165 229 224 135 64 164 
	20 58 108 227 195 56 112 233 199 107 225 226 196 111 231 232 200 57 110 230 197 
	20 108 35 137 227 112 37 141 233 109 136 228 225 113 140 234 231 110 36 139 230 
	20 195 227 166 80 199 233 170 82 226 229 167 194 232 235 171 198 197 230 168 81 
	20 227 137 65 166 233 141 67 170 228 138 165 229 234 142 169 235 230 139 66 168 
	20 56 112 233 199 54 116 239 203 111 231 232 200 115 237 238 204 55 114 236 201 
	20 112 37 141 233 116 39 145 239 113 140 234 231 117 144 240 237 114 38 143 236 
	20 199 233 170 82 203 239 174 84 232 235 171 198 238 241 175 202 201 236 172 83 
	20 233 141 67 170 239 145 69 174 234 142 169 235 240 146 173 241 236 143 68 172 
	20 54 116 239 203 52 120 245 207 115 237 238 204 119 243 244 208 53 118 242 205 
	20 116 39 145 239 120 41 149 245 117 144 240 237 121 148 246 243 118 40 147 242 
	20 203 239 174 84 207 245 178 86 238 241 175 202 244 247 179 206 205 242 176 85 
	20 239 145 69 174 245 149 71 178 240 146 173 241 246 150 177 247 242 147 70 176 
	20 52 120 245 207 50 124 251 211 119 243 244 208 123 249 250 212 51 122 248 209 
	20 120 41 149 245 124 43 153 251 121 148 246 243 125 152 252 249 122 42 151 248 
	20 207 245 178 86 211 251 182 88 244 247 179 206 250 253 183 210 209 248 180 87 
	20 245 149 71 178 251 153 73 182 246 150 177 247 252 154 181 253 248 151 72 180 
	20 50 124 251 211 48 128 257 215 123 249 250 212 127 255 256 216 49 126 254 213 
	20 124 43 153 251 128 45 157 257 125 152 252 249 129 156 258 255 126 44 155 254 
	20 211 251 182 88 215 257 186 90 250 253 183 210 256 259 187 214 213 254 184 89 
	20 251 153 73 182 257 157 75 186 252 154 181 253 258 158 185 259 254 155 74 184 
	20 48 128 257 215 4 21 99 30 127 255 256 216 20 97 98 31 47 130 260 217 
	20 128 45 157 257 21 5 24 99 129 156 258 255 22 23 100 97 130 46 159 260 
	20 215 257 186 90 30 99 27 7 256 259 187 214 98 101 28 29 217 260 188 91 
	20 257 157 75 186 99 24 6 27 258 158 185 259 100 25 26 101 260 159 76 188 

CELL_TYPES 32
	25
	25
	25
	25
	25
	25
	25
	25
	25
	25
	25
	25
	25
	25
	25
	25
	25
	25
	25
	25
	25
	25
	25
	25
	25
	25
	25
	25
	25
	25
	25
	25

POINT_DATA 261
FIELD U 1
	U 3 261 double
		 0.00000000E+00	 0.00000000E+00	 0.00000000E+00
		 0.00000000E+00	 0.00000000E+00	 0.00000000E+00
		 0.00000000E+00	 0.00000000E+00	 0.00000000E+00
		 0.00000000E+00	 0.00000000E+00	 0.00000000E+00
		 6.72621000E+03	-4.46614000E+03	 2.84443000E+01
		 6.72621000E+03	 4.46614000E+03	-2.84443000E+01
		-6.72621000E+03	 4.46614000E+03	 2.84443000E+01
		-6.72621000E+03	-4.46614000E+03	-2.84443000E+01
		 0.00000000E+00	 0.00000000E+00	 0.00000000E+00
		 0.00000000E+00	 0.00000000E+00	 0.00000000E+00
		 0.00000000E+00	 0.00000000E+00	 0.00000000E+00
		 0.00000000E+00	 0.00000000E+00	 0.00000000E+00
		 0.00000000E+00	 0.00000000E+00	 0.00000000E+00
		 0.00000000E+00	 0.00000000E+00	 0.00000000E+00
		 0.00000000E+00	 0.00000000E+00	 0.00000000E+00
		 0.00000000E+00	 0.00000000E+00	 0.00000000E+00
		 0.00000000E+00	 0.00000000E+00	 0.00000000E+00
		 0.00000000E+00	 0.00000000E+00	 0.00000000E+00
		 0.00000000E+00	 0.00000000E+00	 0.00000000E+00
		 0.00000000E+00	 0.00000000E+00	 0.00000000E+00
		 6.72441000E+03	-2.23188000E+03	 1.43991000E+01
		 6.72217000E+03	 2.59206000E-11	 3.13776000E-11
		 6.72441000E+03	 2.23188000E+03	-1.43991000E+01
		 3.36635000E+03	 4.46322000E+03	-1.94885000E+01
		 1.11709000E-09	 4.45955000E+03	-2.69438000E-10
		-3.36635000E+03	 4.46322000E+03	 1.94885000E+01
		-6.72441000E+03	 2.23188000E+03	 1.43991000E+01
		-6.72217000E+03	 2.72848000E-12	 6.18456000E-11
		-6.72441000E+03	-2.23188000E+03	-1.43991000E+01
		-3.36635000E+03	-4.46322000E+03	-1.94885000E+01
		 1.10833000E-09	-4.45955000E+03	 3.55158000E-10
		 3.36635000E+03	-4.46322000E+03	 1.94885000E+01
		 5.36178000E+02	 3.45930000E+02	-1.29021000E+02
		 1.17250000E+03	 7.92486000E+02	-1.61959000E+02
		 1.84656000E+03	 1.23220000E+03	-1.74038000E+02
		 2.47010000E+03	 1.65098000E+03	-1.73632000E+02
		 3.07684000E+03	 2.04885000E+03	-1.64940000E+02
		 3.65037000E+03	 2.43438000E+03	-1.55752000E+02
		 4.19369000E+03	 2.79466000E+03	-1.45044000E+02
		 4.69158000E+03	 3.12723000E+03	-1.32809000E+02
		 5.14450000E+03	 3.42835000E+03	-1.19264000E+02
		 5.54562000E+03	 3.69612000E+03	-1.04437000E+02
		 5.89283000E+03	 3.92716000E+03	-8.87786000E+01
		 6.18125000E+03	 4.11973000E+03	-7.20810000E+01
		 6.40925000E+03	 4.27160000E+03	-5.54277000E+01
		 6.57435000E+03	 4.38131000E+03	-3.95462000E+01
		 6.67542000E+03	 4.44730000E+03	-2.90515000E+01
		 6.67542000E+03	-4.44730000E+03	 2.90515000E+01
		 6.57435000E+03	-4.38131000E+03	 3.95462000E+01
		 6.40925000E+03	-4.27160000E+03	 5.54277000E+01
		 6.18125000E+03	-4.11973000E+03	 7.20810000E+01
		 5.89283000E+03	-3.92716000E+03	 8.87786000E+01
		 5.54562000E+03	-3.69612000E+03	 1.04437000E+02
		 5.14450000E+03	-3.42835000E+03	 1.19264000E+02
		 4.69158000E+03	-3.12723000E+03	 1.32809000E+02
		 4.19369000E+03	-2.79466000E+03	 1.45044000E+02
		 3.65037000E+03	-2.43438000E+03	 1.55752000E+02
		 3.07684000E+03	-2.04885000E+03	 1.64940000E+02
		 2.47010000E+03	-1.65098000E+03	 1.73632000E+02
		 1.84656000E+03	-1.23220000E+03	 1.74038000E+02
		 1.17250000E+03	-7.92486000E+02	 1.61959000E+02
		 5.36178000E+02	-3.45930000E+02	 1.29021000E+02
		-5.36178000E+02	 3.45930000E+02	 1.29021000E+02
		-1.17250000E+03	 7.92486000E+02	 1.61959000E+02
		-1.84656000E+03	 1.23220000E+03	 1.74038000E+02
		-2.47010000E+03	 1.65098000E+03	 1.73632000E+02
		-3.07684000E+03	 2.04885000E+03	 1.64940000E+02
		-3.65037000E+03	 2.43438000E+03	 1.55752000E+02
		-4.19369000E+03	 2.79466000E+03	 1.45044000E+02
		-4.69158000E+03	 3.12723000E+03	 1.32809000E+02
		-5.14450000E+03	 3.42835000E+03	 1.19264000E+02
		-5.54562000E+03	 3.69612000E+03	 1.04437000E+02
		-5.89283000E+03	 3.92716000E+03	 8.87786000E+01
		-6.18125000E+03	 4.11973000E+03	 7.20810000E+01
		-6.40925000E+03	 4.27160000E+03	 5.54277000E+01
		-6.57435000E+03	 4.38131000E+03	 3.95462000E+01
		-6.67542000E+03	 4.44730000E+03	 2.90515000E+01
		-5.36178000E+02	-3.45930000E+02	-1.29021000E+02
		-1.17250000E+03	-7.92486000E+02	-1.61959000E+02
		-1.84656000E+03	-1.23220000E+03	-1.74038000E+02
		-2.47010000E+03	-1.65098000E+03	-1.73632000E+02
		-3.07684000E+03	-2.04885000E+03	-1.64940000E+02
		-3.65037000E+03	-2.43438000E+03	-1.55752000E+02
		-4.19369000E+03	-2.79466000E+03	-1.45044000E+02
		-4.69158000E+03	-3.12723000E+03	-1.32809000E+02
		-5.14450000E+03	-3.42835000E+03	-1.19264000E+02
		-5.54562000E+03	-3.69612000E+03	-1.04437000E+02
		-5.89283000E+03	-3.92716000E+03	-8.87786000E+01
		-6.18125000E+03	-4.11973000E+03	-7.20810000E+01
		-6.40925000E+03	-4.27160000E+03	-5.54277000E+01
		-6.57435000E+03	-4.38131000E+03	-3.95462000E+01
		-6.67542000E+03	-4.44730000E+03	-2.90515000E+01
		 0.00000000E+00	 0.00000000E+00	 0.00000000E+00
		 0.00000000E+00	 0.00000000E+00	 0.00000000E+00
		 0.00000000E+00	 0.00000000E+00	 0.00000000E+00
		 0.00000000E+00	 0.00000000E+00	 0.00000000E+00
		 0.00000000E+00	 0.00000000E+00	 0.00000000E+00
		 3.36512000E+03	 2.72848000E-11	 3.54703000E-11
		 1.12999000E-09	-2.22616000E+03	 2.03272000E-10
		 1.12452000E-09	 1.27329000E-11	 4.04725000E-11
		 1.11254000E-09	 2.22616000E+03	-1.15278000E-10
		-3.36512000E+03	 1.54614000E-11	 5.32054000E-11
		 5.32016000E+02	 7.17648000E-12	 7.98650000E-12
		 1.17913000E+03	-3.97988000E+02	-3.68119000E+00
		 1.19265000E+03	 1.38698000E-11	 1.71099000E-11
		 1.17913000E+03	 3.97988000E+02	 3.68119000E+00
		 1.83521000E+03	 2.27374000E-11	 2.29647000E-11
		 2.47420000E+03	-8.24750000E+02	 3.17692000E+01
		 2.47549000E+03	 3.36513000E-11	 2.83080000E-11
		 2.47420000E+03	 8.24750000E+02	-3.17692000E+01
		 3.07569000E+03	 4.59295000E-11	 3.56977000E-11
		 3.65223000E+03	-1.21700000E+03	 2.27303000E+01
		 3.65349000E+03	 5.63887000E-11	 3.41061000E-11
		 3.65223000E+03	 1.21700000E+03	-2.27303000E+01
		 4.19244000E+03	 7.32143000E-11	 3.81988000E-11
		 4.69289000E+03	-1.56311000E+03	 2.07318000E+01
		 4.69236000E+03	 8.54925000E-11	 3.95630000E-11
		 4.69289000E+03	 1.56311000E+03	-2.07318000E+01
		 5.14394000E+03	 8.73115000E-11	 3.59250000E-11
		 5.54669000E+03	-1.84754000E+03	 1.60195000E+01
		 5.54589000E+03	 9.86802000E-11	 3.22871000E-11
		 5.54669000E+03	 1.84754000E+03	-1.60195000E+01
		 5.89235000E+03	 9.19727000E-11	 3.36513000E-11
		 6.18228000E+03	-2.05922000E+03	 1.10608000E+01
		 6.18114000E+03	 8.33893000E-11	 2.13731000E-11
		 6.18228000E+03	 2.05922000E+03	-1.10608000E+01
		 6.40853000E+03	 6.93490000E-11	 1.81899000E-11
		 6.57519000E+03	-2.19022000E+03	 7.63273000E+00
		 6.57402000E+03	 4.91127000E-11	 2.18279000E-11
		 6.57519000E+03	 2.19022000E+03	-7.63273000E+00
		 6.67304000E+03	 4.86580000E-11	 3.72893000E-11
		-5.21823000E-11	 4.16748000E+02	 5.07043000E-11
		 5.86976000E+02	 7.90684000E+02	-2.28863000E+02
		-1.30754000E-10	 7.85451000E+02	 8.92442000E-11
		-5.86976000E+02	 7.90684000E+02	 2.28863000E+02
		-2.33314000E-10	 1.22333000E+03	 1.06638000E-10
		 1.23392000E+03	 1.64770000E+03	-2.01869000E+02
		-3.40577000E-10	 1.64473000E+03	 1.10504000E-10
		-1.23392000E+03	 1.64770000E+03	 2.01869000E+02
		-4.38320000E-10	 2.04796000E+03	 9.86802000E-11
		 1.82575000E+03	 2.43109000E+03	-1.88085000E+02
		-5.18298000E-10	 2.42894000E+03	 7.54881000E-11
		-1.82575000E+03	 2.43109000E+03	 1.88085000E+02
		-5.62466000E-10	 2.78905000E+03	 4.36557000E-11
		 2.34585000E+03	 3.12358000E+03	-1.58970000E+02
		-5.62608000E-10	 3.12097000E+03	 7.73070000E-12
		-2.34585000E+03	 3.12358000E+03	 1.58970000E+02
		-5.28189000E-10	 3.42198000E+03	-3.81988000E-11
		 2.77307000E+03	 3.69183000E+03	-1.25288000E+02
		-4.31697000E-10	 3.68896000E+03	-9.00400000E-11
		-2.77307000E+03	 3.69183000E+03	 1.25288000E+02
		-2.85418000E-10	 3.91980000E+03	-1.39607000E-10
		 3.09094000E+03	 4.11503000E+03	-8.65550000E+01
		-8.39293000E-11	 4.11184000E+03	-1.86901000E-10
		-3.09094000E+03	 4.11503000E+03	 8.65550000E+01
		 1.85210000E-10	 4.26344000E+03	-2.34195000E-10
		 3.28688000E+03	 4.37595000E+03	-4.55517000E+01
		 4.56964000E-10	 4.37186000E+03	-2.62844000E-10
		-3.28688000E+03	 4.37595000E+03	 4.55517000E+01
		 7.98309000E-10	 4.44517000E+03	-2.72394000E-10
		-5.32016000E+02	 3.29692000E-12	-1.81899000E-12
		-1.17913000E+03	 3.97988000E+02	-3.68119000E+00
		-1.19265000E+03	 9.09495000E-12	-3.41061000E-12
		-1.17913000E+03	-3.97988000E+02	 3.68119000E+00
		-1.83521000E+03	 1.97815000E-11	-3.18323000E-12
		-2.47420000E+03	 8.24750000E+02	 3.17692000E+01
		-2.47549000E+03	 2.95586000E-11	-1.36424000E-12
		-2.47420000E+03	-8.24750000E+02	-3.17692000E+01
		-3.07569000E+03	 4.36557000E-11	 1.36424000E-12
		-3.65223000E+03	 1.21700000E+03	 2.27303000E+01
		-3.65349000E+03	 5.45697000E-11	 2.72848000E-12
		-3.65223000E+03	-1.21700000E+03	-2.27303000E+01
		-4.19244000E+03	 7.00311000E-11	 5.91172000E-12
		-4.69289000E+03	 1.56311000E+03	 2.07318000E+01
		-4.69236000E+03	 7.63976000E-11	 1.31877000E-11
		-4.69289000E+03	-1.56311000E+03	-2.07318000E+01
		-5.14394000E+03	 9.00400000E-11	 2.61480000E-11
		-5.54669000E+03	 1.84754000E+03	 1.60195000E+01
		-5.54589000E+03	 9.59517000E-11	 3.86535000E-11
		-5.54669000E+03	-1.84754000E+03	-1.60195000E+01
		-5.89235000E+03	 9.00968000E-11	 5.00222000E-11
		-6.18228000E+03	 2.05922000E+03	 1.10608000E+01
		-6.18114000E+03	 6.50857000E-11	 5.50244000E-11
		-6.18228000E+03	-2.05922000E+03	-1.10608000E+01
		-6.40853000E+03	 6.30962000E-11	 5.95719000E-11
		-6.57519000E+03	 2.19022000E+03	 7.63273000E+00
		-6.57402000E+03	 3.50155000E-11	 5.82077000E-11
		-6.57519000E+03	-2.19022000E+03	-7.63273000E+00
		-6.67304000E+03	 9.09495000E-12	 6.25278000E-11
		-4.99654000E-11	-4.16748000E+02	-4.46789000E-11
		-5.86976000E+02	-7.90684000E+02	-2.28863000E+02
		-1.26860000E-10	-7.85451000E+02	-7.60565000E-11
		 5.86976000E+02	-7.90684000E+02	 2.28863000E+02
		-2.31217000E-10	-1.22333000E+03	-8.50378000E-11
		-1.23392000E+03	-1.64770000E+03	-2.01869000E+02
		-3.39170000E-10	-1.64473000E+03	-8.25366000E-11
		 1.23392000E+03	-1.64770000E+03	 2.01869000E+02
		-4.41389000E-10	-2.04796000E+03	-6.54836000E-11
		-1.82575000E+03	-2.43109000E+03	-1.88085000E+02
		-5.20050000E-10	-2.42894000E+03	-3.41061000E-11
		 1.82575000E+03	-2.43109000E+03	 1.88085000E+02
		-5.57336000E-10	-2.78905000E+03	 1.81899000E-12
		-2.34585000E+03	-3.12358000E+03	-1.58970000E+02
		-5.67724000E-10	-3.12097000E+03	 4.50200000E-11
		 2.34585000E+03	-3.12358000E+03	 1.58970000E+02
		-5.18867000E-10	-3.42198000E+03	 9.95897000E-11
		-2.77307000E+03	-3.69183000E+03	-1.25288000E+02
		-4.25004000E-10	-3.68896000E+03	 1.54159000E-10
		 2.77307000E+03	-3.69183000E+03	 1.25288000E+02
		-2.81446000E-10	-3.91980000E+03	 2.08729000E-10
		-3.09094000E+03	-4.11503000E+03	-8.65550000E+01
		-9.20579000E-11	-4.11184000E+03	 2.67391000E-10
		 3.09094000E+03	-4.11503000E+03	 8.65550000E+01
		 1.74936000E-10	-4.26344000E+03	 3.15595000E-10
		-3.28688000E+03	-4.37595000E+03	-4.55517000E+01
		 4.80213000E-10	-4.37186000E+03	 3.47427000E-10
		 3.28688000E+03	-4.37595000E+03	 4.55517000E+01
		 8.02594000E-10	-4.44517000E+03	 3.59250000E-10
		-4.26024000E-11	 3.93641000E-12	 2.78533000E-12
		 5.93252000E+02	 1.30171000E-11	 1.13687000E-11
		-1.26789000E-10	-3.97080000E+02	-3.18323000E-11
		-1.31344000E-10	 1.21645000E-11	 6.82121000E-12
		-1.29283000E-10	 3.97080000E+02	 4.57021000E-11
		-5.93252000E+02	 1.15961000E-11	 1.59162000E-12
		-2.31481000E-10	 2.04636000E-11	 1.00044000E-11
		 1.23828000E+03	 3.29692000E-11	 2.04636000E-11
		-3.41771000E-10	-8.21031000E+02	-3.27418000E-11
		-3.41629000E-10	 3.06954000E-11	 1.36424000E-11
		-3.41629000E-10	 8.21031000E+02	 6.11635000E-11
		-1.23828000E+03	 3.04681000E-11	 5.91172000E-12
		-4.40394000E-10	 4.27463000E-11	 1.63709000E-11
		 1.82757000E+03	 5.77529000E-11	 2.86491000E-11
		-5.22721000E-10	-1.21376000E+03	-6.36646000E-12
		-5.22334000E-10	 5.63887000E-11	 2.13731000E-11
		-5.19208000E-10	 1.21376000E+03	 4.68390000E-11
		-1.82757000E+03	 5.45697000E-11	 1.04592000E-11
		-5.64768000E-10	 7.13953000E-11	 2.59206000E-11
		 2.34722000E+03	 8.04903000E-11	 3.09228000E-11
		-5.76648000E-10	-1.55920000E+03	 3.72893000E-11
		-5.77103000E-10	 8.36735000E-11	 2.59206000E-11
		-5.75255000E-10	 1.55920000E+03	 1.72804000E-11
		-2.34722000E+03	 7.23048000E-11	 2.09184000E-11
		-5.36318000E-10	 9.14042000E-11	 3.00133000E-11
		 2.77417000E+03	 9.11768000E-11	 3.22871000E-11
		-4.32280000E-10	-1.84309000E+03	 9.41327000E-11
		-4.45041000E-10	 8.91305000E-11	 3.41061000E-11
		-4.45027000E-10	 1.84309000E+03	-2.54659000E-11
		-2.77417000E+03	 1.02091000E-10	 3.72893000E-11
		-2.98442000E-10	 7.51470000E-11	 3.45608000E-11
		 3.09203000E+03	 7.77618000E-11	 2.95586000E-11
		-9.60085000E-11	-2.05420000E+03	 1.52795000E-10
		-9.13474000E-11	 7.36691000E-11	 3.81988000E-11
		-8.93152000E-11	 2.05420000E+03	-7.36691000E-11
		-3.09203000E+03	 6.53699000E-11	 4.52474000E-11
		 1.69194000E-10	 5.38876000E-11	 3.86535000E-11
		 3.28777000E+03	 2.75122000E-11	 3.18323000E-11
		 4.76760000E-10	-2.18497000E+03	 1.92358000E-10
		 4.79361000E-10	 4.02451000E-11	 4.20641000E-11
		 4.74598000E-10	 2.18497000E+03	-1.08912000E-10
		-3.28777000E+03	 3.27418000E-11	 4.84306000E-11
		 8.01222000E-10	 3.43334000E-11	 3.97904000E-11
