# vtk DataFile Version 3.0

ASCII
DATASET UNSTRUCTURED_GRID

POINTS 90 double
	 0.00000000E+00	 0.00000000E+00	 0.00000000E+00
	 1.00000000E+00	 0.00000000E+00	 0.00000000E+00
	 1.00000000E+00	 1.00000000E+00	 0.00000000E+00
	 0.00000000E+00	 1.00000000E+00	 0.00000000E+00
	 0.00000000E+00	 0.00000000E+00	 8.00000000E+00
	 1.00000000E+00	 0.00000000E+00	 8.00000000E+00
	 1.00000000E+00	 1.00000000E+00	 8.00000000E+00
	 0.00000000E+00	 1.00000000E+00	 8.00000000E+00
	 5.00000000E-01	 0.00000000E+00	 0.00000000E+00
	 1.00000000E+00	 5.00000000E-01	 0.00000000E+00
	 5.00000000E-01	 1.00000000E+00	 0.00000000E+00
	 0.00000000E+00	 5.00000000E-01	 0.00000000E+00
	 5.00000000E-01	 0.00000000E+00	 8.00000000E+00
	 1.00000000E+00	 5.00000000E-01	 8.00000000E+00
	 5.00000000E-01	 1.00000000E+00	 8.00000000E+00
	 0.00000000E+00	 5.00000000E-01	 8.00000000E+00
	 1.00000000E+00	 0.00000000E+00	 1.00000000E+00
	 1.00000000E+00	 0.00000000E+00	 2.00000000E+00
	 1.00000000E+00	 0.00000000E+00	 3.00000000E+00
	 1.00000000E+00	 0.00000000E+00	 4.00000000E+00
	 1.00000000E+00	 0.00000000E+00	 5.00000000E+00
	 1.00000000E+00	 0.00000000E+00	 6.00000000E+00
	 1.00000000E+00	 0.00000000E+00	 7.00000000E+00
	 0.00000000E+00	 0.00000000E+00	 7.00000000E+00
	 0.00000000E+00	 0.00000000E+00	 6.00000000E+00
	 0.00000000E+00	 0.00000000E+00	 5.00000000E+00
	 0.00000000E+00	 0.00000000E+00	 4.00000000E+00
	 0.00000000E+00	 0.00000000E+00	 3.00000000E+00
	 0.00000000E+00	 0.00000000E+00	 2.00000000E+00
	 0.00000000E+00	 0.00000000E+00	 1.00000000E+00
	 1.00000000E+00	 1.00000000E+00	 1.00000000E+00
	 1.00000000E+00	 1.00000000E+00	 2.00000000E+00
	 1.00000000E+00	 1.00000000E+00	 3.00000000E+00
	 1.00000000E+00	 1.00000000E+00	 4.00000000E+00
	 1.00000000E+00	 1.00000000E+00	 5.00000000E+00
	 1.00000000E+00	 1.00000000E+00	 6.00000000E+00
	 1.00000000E+00	 1.00000000E+00	 7.00000000E+00
	 0.00000000E+00	 1.00000000E+00	 1.00000000E+00
	 0.00000000E+00	 1.00000000E+00	 2.00000000E+00
	 0.00000000E+00	 1.00000000E+00	 3.00000000E+00
	 0.00000000E+00	 1.00000000E+00	 4.00000000E+00
	 0.00000000E+00	 1.00000000E+00	 5.00000000E+00
	 0.00000000E+00	 1.00000000E+00	 6.00000000E+00
	 0.00000000E+00	 1.00000000E+00	 7.00000000E+00
	 5.00000000E-01	 5.00000000E-01	 0.00000000E+00
	 5.00000000E-01	 5.00000000E-01	 8.00000000E+00
	 5.00000000E-01	 0.00000000E+00	 1.00000000E+00
	 5.00000000E-01	 0.00000000E+00	 2.00000000E+00
	 5.00000000E-01	 0.00000000E+00	 3.00000000E+00
	 5.00000000E-01	 0.00000000E+00	 4.00000000E+00
	 5.00000000E-01	 0.00000000E+00	 5.00000000E+00
	 5.00000000E-01	 0.00000000E+00	 6.00000000E+00
	 5.00000000E-01	 0.00000000E+00	 7.00000000E+00
	 1.00000000E+00	 5.00000000E-01	 1.00000000E+00
	 1.00000000E+00	 5.00000000E-01	 2.00000000E+00
	 1.00000000E+00	 5.00000000E-01	 3.00000000E+00
	 1.00000000E+00	 5.00000000E-01	 4.00000000E+00
	 1.00000000E+00	 5.00000000E-01	 5.00000000E+00
	 1.00000000E+00	 5.00000000E-01	 6.00000000E+00
	 1.00000000E+00	 5.00000000E-01	 7.00000000E+00
	 5.00000000E-01	 1.00000000E+00	 1.00000000E+00
	 5.00000000E-01	 1.00000000E+00	 2.00000000E+00
	 5.00000000E-01	 1.00000000E+00	 3.00000000E+00
	 5.00000000E-01	 1.00000000E+00	 4.00000000E+00
	 5.00000000E-01	 1.00000000E+00	 5.00000000E+00
	 5.00000000E-01	 1.00000000E+00	 6.00000000E+00
	 5.00000000E-01	 1.00000000E+00	 7.00000000E+00
	 0.00000000E+00	 5.00000000E-01	 1.00000000E+00
	 0.00000000E+00	 5.00000000E-01	 2.00000000E+00
	 0.00000000E+00	 5.00000000E-01	 3.00000000E+00
	 0.00000000E+00	 5.00000000E-01	 4.00000000E+00
	 0.00000000E+00	 5.00000000E-01	 5.00000000E+00
	 0.00000000E+00	 5.00000000E-01	 6.00000000E+00
	 0.00000000E+00	 5.00000000E-01	 7.00000000E+00
	 5.00000000E-01	 5.00000000E-01	 1.00000000E+00
	 5.00000000E-01	 5.00000000E-01	 2.00000000E+00
	 5.00000000E-01	 5.00000000E-01	 3.00000000E+00
	 5.00000000E-01	 5.00000000E-01	 4.00000000E+00
	 5.00000000E-01	 5.00000000E-01	 5.00000000E+00
	 5.00000000E-01	 5.00000000E-01	 6.00000000E+00
	 5.00000000E-01	 5.00000000E-01	 7.00000000E+00
	 1.00000000E+00	 0.00000000E+00	 4.00000000E+00
	 0.00000000E+00	 0.00000000E+00	 4.00000000E+00
	 1.00000000E+00	 1.00000000E+00	 4.00000000E+00
	 0.00000000E+00	 1.00000000E+00	 4.00000000E+00
	 5.00000000E-01	 0.00000000E+00	 4.00000000E+00
	 1.00000000E+00	 5.00000000E-01	 4.00000000E+00
	 5.00000000E-01	 1.00000000E+00	 4.00000000E+00
	 0.00000000E+00	 5.00000000E-01	 4.00000000E+00
	 5.00000000E-01	 5.00000000E-01	 4.00000000E+00

CELLS 32 288
	8 0 8 44 11 29 46 74 67 
	8 8 1 9 44 46 16 53 74 
	8 11 44 10 3 67 74 60 37 
	8 44 9 2 10 74 53 30 60 
	8 29 46 74 67 28 47 75 68 
	8 46 16 53 74 47 17 54 75 
	8 67 74 60 37 68 75 61 38 
	8 74 53 30 60 75 54 31 61 
	8 28 47 75 68 27 48 76 69 
	8 47 17 54 75 48 18 55 76 
	8 68 75 61 38 69 76 62 39 
	8 75 54 31 61 76 55 32 62 
	8 27 48 76 69 26 49 77 70 
	8 48 18 55 76 49 19 56 77 
	8 69 76 62 39 70 77 63 40 
	8 76 55 32 62 77 56 33 63 
	8 82 85 89 88 25 50 78 71 
	8 85 81 86 89 50 20 57 78 
	8 88 89 87 84 71 78 64 41 
	8 89 86 83 87 78 57 34 64 
	8 25 50 78 71 24 51 79 72 
	8 50 20 57 78 51 21 58 79 
	8 71 78 64 41 72 79 65 42 
	8 78 57 34 64 79 58 35 65 
	8 24 51 79 72 23 52 80 73 
	8 51 21 58 79 52 22 59 80 
	8 72 79 65 42 73 80 66 43 
	8 79 58 35 65 80 59 36 66 
	8 23 52 80 73 4 12 45 15 
	8 52 22 59 80 12 5 13 45 
	8 73 80 66 43 15 45 14 7 
	8 80 59 36 66 45 13 6 14 

CELL_TYPES 32
	12
	12
	12
	12
	12
	12
	12
	12
	12
	12
	12
	12
	12
	12
	12
	12
	12
	12
	12
	12
	12
	12
	12
	12
	12
	12
	12
	12
	12
	12
	12
	12

POINT_DATA 90
FIELD U 1
	U 3 90 double
		 0.00000000E+00	 0.00000000E+00	 0.00000000E+00
		 0.00000000E+00	 0.00000000E+00	 0.00000000E+00
		 0.00000000E+00	 0.00000000E+00	 0.00000000E+00
		 0.00000000E+00	 0.00000000E+00	 0.00000000E+00
		 8.56935000E+03	-8.56935000E+03	-8.18545000E-11
		 8.56935000E+03	 8.56935000E+03	-1.14414000E-09
		-8.56935000E+03	 8.56935000E+03	 8.82210000E-11
		-8.56935000E+03	-8.56935000E+03	 1.14960000E-09
		 0.00000000E+00	 0.00000000E+00	 0.00000000E+00
		 0.00000000E+00	 0.00000000E+00	 0.00000000E+00
		 0.00000000E+00	 0.00000000E+00	 0.00000000E+00
		 0.00000000E+00	 0.00000000E+00	 0.00000000E+00
		 8.97525000E+03	 4.52928000E-10	-6.39830000E-10
		-3.47654000E-10	 8.97525000E+03	-5.56611000E-10
		-8.97525000E+03	 1.20230000E-09	 6.50289000E-10
		-1.08957000E-09	-8.97525000E+03	 5.60703000E-10
		-4.05066000E+03	-4.05066000E+03	 3.82443000E-10
		-6.48935000E+03	-6.48935000E+03	 7.66704000E-10
		-6.85289000E+03	-6.85289000E+03	 9.10234000E-10
		-5.07300000E+03	-5.07300000E+03	 6.62794000E-10
		-1.63286000E+03	-1.63286000E+03	 9.77707000E-11
		 2.14990000E+03	 2.14990000E+03	-4.89536000E-10
		 5.70068000E+03	 5.70068000E+03	-8.54016000E-10
		 5.70068000E+03	-5.70068000E+03	-4.93401000E-11
		 2.14990000E+03	-2.14990000E+03	-2.91038000E-11
		-1.63286000E+03	 1.63286000E+03	-9.09495000E-12
		-5.07300000E+03	 5.07300000E+03	 3.18323000E-12
		-6.85289000E+03	 6.85289000E+03	 1.40972000E-11
		-6.48935000E+03	 6.48935000E+03	 1.30740000E-11
		-4.05066000E+03	 4.05066000E+03	 8.52651000E-12
		 4.05066000E+03	-4.05066000E+03	-1.50067000E-11
		 6.48935000E+03	-6.48935000E+03	-1.86446000E-11
		 6.85289000E+03	-6.85289000E+03	-2.18279000E-11
		 5.07300000E+03	-5.07300000E+03	-1.36424000E-11
		 1.63286000E+03	-1.63286000E+03	 2.72848000E-12
		-2.14990000E+03	 2.14990000E+03	 2.72280000E-11
		-5.70068000E+03	 5.70068000E+03	 5.18412000E-11
		 4.05066000E+03	 4.05066000E+03	-3.92902000E-10
		 6.48935000E+03	 6.48935000E+03	-7.78527000E-10
		 6.85289000E+03	 6.85289000E+03	-9.16998000E-10
		 5.07300000E+03	 5.07300000E+03	-6.69161000E-10
		 1.63286000E+03	 1.63286000E+03	-1.04137000E-10
		-2.14990000E+03	-2.14990000E+03	 4.87610000E-10
		-5.70068000E+03	-5.70068000E+03	 8.54470000E-10
		 0.00000000E+00	 0.00000000E+00	 0.00000000E+00
		 5.17502000E-10	-6.04359000E-10	 5.45697000E-12
		-4.02432000E+03	 3.44698000E-10	 2.00089000E-10
		-6.48953000E+03	 6.70525000E-10	 3.92220000E-10
		-6.85927000E+03	 7.33507000E-10	 4.65377000E-10
		-5.05494000E+03	 4.69853000E-10	 3.31511000E-10
		-1.70320000E+03	-1.36424000E-11	 5.00222000E-11
		 2.43036000E+03	-4.85670000E-10	-2.81716000E-10
		 4.69987000E+03	-8.46285000E-10	-3.87445000E-10
		-2.96822000E-10	-4.02432000E+03	 1.91449000E-10
		-5.80940000E-10	-6.48953000E+03	 3.75621000E-10
		-6.36419000E-10	-6.85927000E+03	 4.47614000E-10
		-4.20187000E-10	-5.05494000E+03	 3.24121000E-10
		-4.54747000E-12	-1.70320000E+03	 5.45697000E-11
		 4.10864000E-10	 2.43036000E+03	-2.50566000E-10
		 7.52607000E-10	 4.69987000E+03	-3.42880000E-10
		 4.02432000E+03	 2.75008000E-10	-2.06455000E-10
		 6.48953000E+03	 4.57476000E-10	-3.96994000E-10
		 6.85927000E+03	 4.01542000E-10	-4.68503000E-10
		 5.05494000E+03	 1.54969000E-10	-3.40378000E-10
		 1.70320000E+03	-1.39607000E-10	-5.36602000E-11
		-2.43036000E+03	-2.89958000E-10	 2.78078000E-10
		-4.69987000E+03	-3.84944000E-10	 3.95630000E-10
		-2.25782000E-10	 4.02432000E+03	-1.94177000E-10
		-3.59705000E-10	 6.48953000E+03	-3.83352000E-10
		-2.99224000E-10	 6.85927000E+03	-4.52246000E-10
		-1.09594000E-10	 5.05494000E+03	-3.28555000E-10
		 1.24373000E-10	 1.70320000E+03	-5.96856000E-11
		 2.16005000E-10	-2.43036000E+03	 2.46359000E-10
		 2.78760000E-10	-4.69987000E+03	 3.47427000E-10
		-2.20552000E-10	 2.65572000E-10	-2.27374000E-12
		-4.49973000E-10	 5.42514000E-10	-2.72848000E-12
		-4.52474000E-10	 5.51978000E-10	-1.08002000E-12
		-2.57842000E-10	 3.04908000E-10	-1.36424000E-12
		 6.34373000E-11	-7.95808000E-11	-1.36424000E-12
		 3.34239000E-10	-4.11546000E-10	 1.13687000E-12
		 3.96540000E-10	-4.72937000E-10	 0.00000000E+00
		-5.07300000E+03	-5.07300000E+03	 6.62794000E-10
		-5.07300000E+03	 5.07300000E+03	 3.18323000E-12
		 5.07300000E+03	-5.07300000E+03	-1.36424000E-11
		 5.07300000E+03	 5.07300000E+03	-6.69161000E-10
		-5.05494000E+03	 4.69853000E-10	 3.31511000E-10
		-4.20187000E-10	-5.05494000E+03	 3.24121000E-10
		 5.05494000E+03	 1.54969000E-10	-3.40378000E-10
		-1.09594000E-10	 5.05494000E+03	-3.28555000E-10
		-2.57842000E-10	 3.04908000E-10	-1.36424000E-12
FIELD SENFREQ 1
	SENFREQ 2 90 double
		 0.00000000E+00	 0.00000000E+00
		 0.00000000E+00	 0.00000000E+00
		 0.00000000E+00	 0.00000000E+00
		 0.00000000E+00	 0.00000000E+00
		-2.70927000E+12	-2.62382000E-01
		-2.70927000E+12	-2.62382000E-01
		-2.70927000E+12	-2.62382000E-01
		-2.70927000E+12	-2.62382000E-01
		 0.00000000E+00	 0.00000000E+00
		 0.00000000E+00	 0.00000000E+00
		 0.00000000E+00	 0.00000000E+00
		 0.00000000E+00	 0.00000000E+00
		 1.14530000E+12	 1.10918000E-01
		 1.14530000E+12	 1.10918000E-01
		 1.14530000E+12	 1.10918000E-01
		 1.14530000E+12	 1.10918000E-01
		 1.87218000E+12	 1.81313000E-01
		-1.76551000E+12	-1.70982000E-01
		-4.38008000E+12	-4.24193000E-01
		 0.00000000E+00	 0.00000000E+00
		 4.39290000E+12	 4.25435000E-01
		 1.81190000E+12	 1.75475000E-01
		-2.31057000E+12	-2.23769000E-01
		-2.31057000E+12	-2.23769000E-01
		 1.81190000E+12	 1.75475000E-01
		 4.39290000E+12	 4.25435000E-01
		 0.00000000E+00	 0.00000000E+00
		-4.38008000E+12	-4.24193000E-01
		-1.76551000E+12	-1.70982000E-01
		 1.87218000E+12	 1.81313000E-01
		 1.87218000E+12	 1.81313000E-01
		-1.76551000E+12	-1.70982000E-01
		-4.38008000E+12	-4.24193000E-01
		 0.00000000E+00	 0.00000000E+00
		 4.39290000E+12	 4.25435000E-01
		 1.81190000E+12	 1.75475000E-01
		-2.31057000E+12	-2.23769000E-01
		 1.87218000E+12	 1.81313000E-01
		-1.76551000E+12	-1.70982000E-01
		-4.38008000E+12	-4.24193000E-01
		 0.00000000E+00	 0.00000000E+00
		 4.39290000E+12	 4.25435000E-01
		 1.81190000E+12	 1.75475000E-01
		-2.31057000E+12	-2.23769000E-01
		 0.00000000E+00	 0.00000000E+00
		 1.03257000E+13	 1.00000000E+00
		 2.33695000E+12	 2.26324000E-01
		-1.93565000E+12	-1.87460000E-01
		-4.89177000E+12	-4.73749000E-01
		 0.00000000E+00	 0.00000000E+00
		 4.88590000E+12	 4.73180000E-01
		 2.32471000E+12	 2.25139000E-01
		-2.87219000E+12	-2.78160000E-01
		 2.33695000E+12	 2.26324000E-01
		-1.93565000E+12	-1.87460000E-01
		-4.89177000E+12	-4.73749000E-01
		 0.00000000E+00	 0.00000000E+00
		 4.88590000E+12	 4.73180000E-01
		 2.32471000E+12	 2.25139000E-01
		-2.87219000E+12	-2.78160000E-01
		 2.33695000E+12	 2.26324000E-01
		-1.93565000E+12	-1.87460000E-01
		-4.89177000E+12	-4.73749000E-01
		 0.00000000E+00	 0.00000000E+00
		 4.88590000E+12	 4.73180000E-01
		 2.32471000E+12	 2.25139000E-01
		-2.87219000E+12	-2.78160000E-01
		 2.33695000E+12	 2.26324000E-01
		-1.93565000E+12	-1.87460000E-01
		-4.89177000E+12	-4.73749000E-01
		 0.00000000E+00	 0.00000000E+00
		 4.88590000E+12	 4.73180000E-01
		 2.32471000E+12	 2.25139000E-01
		-2.87219000E+12	-2.78160000E-01
		 0.00000000E+00	 0.00000000E+00
		 0.00000000E+00	 0.00000000E+00
		 0.00000000E+00	 0.00000000E+00
		 0.00000000E+00	 0.00000000E+00
		 0.00000000E+00	 0.00000000E+00
		 0.00000000E+00	 0.00000000E+00
		 0.00000000E+00	 0.00000000E+00
		 0.00000000E+00	 0.00000000E+00
		 0.00000000E+00	 0.00000000E+00
		 0.00000000E+00	 0.00000000E+00
		 0.00000000E+00	 0.00000000E+00
		 0.00000000E+00	 0.00000000E+00
		 0.00000000E+00	 0.00000000E+00
		 0.00000000E+00	 0.00000000E+00
		 0.00000000E+00	 0.00000000E+00
		 0.00000000E+00	 0.00000000E+00
