# vtk DataFile Version 3.0

ASCII
DATASET UNSTRUCTURED_GRID

POINTS 261 double
	 0.00000000E+00	 0.00000000E+00	 0.00000000E+00
	 1.00000000E+00	 0.00000000E+00	 0.00000000E+00
	 1.00000000E+00	 1.00000000E+00	 0.00000000E+00
	 0.00000000E+00	 1.00000000E+00	 0.00000000E+00
	 0.00000000E+00	 0.00000000E+00	 8.00000000E+00
	 1.00000000E+00	 0.00000000E+00	 8.00000000E+00
	 1.00000000E+00	 1.00000000E+00	 8.00000000E+00
	 0.00000000E+00	 1.00000000E+00	 8.00000000E+00
	 2.50000000E-01	 0.00000000E+00	 0.00000000E+00
	 5.00000000E-01	 0.00000000E+00	 0.00000000E+00
	 7.50000000E-01	 0.00000000E+00	 0.00000000E+00
	 1.00000000E+00	 2.50000000E-01	 0.00000000E+00
	 1.00000000E+00	 5.00000000E-01	 0.00000000E+00
	 1.00000000E+00	 7.50000000E-01	 0.00000000E+00
	 7.50000000E-01	 1.00000000E+00	 0.00000000E+00
	 5.00000000E-01	 1.00000000E+00	 0.00000000E+00
	 2.50000000E-01	 1.00000000E+00	 0.00000000E+00
	 0.00000000E+00	 7.50000000E-01	 0.00000000E+00
	 0.00000000E+00	 5.00000000E-01	 0.00000000E+00
	 0.00000000E+00	 2.50000000E-01	 0.00000000E+00
	 2.50000000E-01	 0.00000000E+00	 8.00000000E+00
	 5.00000000E-01	 0.00000000E+00	 8.00000000E+00
	 7.50000000E-01	 0.00000000E+00	 8.00000000E+00
	 1.00000000E+00	 2.50000000E-01	 8.00000000E+00
	 1.00000000E+00	 5.00000000E-01	 8.00000000E+00
	 1.00000000E+00	 7.50000000E-01	 8.00000000E+00
	 7.50000000E-01	 1.00000000E+00	 8.00000000E+00
	 5.00000000E-01	 1.00000000E+00	 8.00000000E+00
	 2.50000000E-01	 1.00000000E+00	 8.00000000E+00
	 0.00000000E+00	 7.50000000E-01	 8.00000000E+00
	 0.00000000E+00	 5.00000000E-01	 8.00000000E+00
	 0.00000000E+00	 2.50000000E-01	 8.00000000E+00
	 1.00000000E+00	 0.00000000E+00	 5.00000000E-01
	 1.00000000E+00	 0.00000000E+00	 1.00000000E+00
	 1.00000000E+00	 0.00000000E+00	 1.50000000E+00
	 1.00000000E+00	 0.00000000E+00	 2.00000000E+00
	 1.00000000E+00	 0.00000000E+00	 2.50000000E+00
	 1.00000000E+00	 0.00000000E+00	 3.00000000E+00
	 1.00000000E+00	 0.00000000E+00	 3.50000000E+00
	 1.00000000E+00	 0.00000000E+00	 4.00000000E+00
	 1.00000000E+00	 0.00000000E+00	 4.50000000E+00
	 1.00000000E+00	 0.00000000E+00	 5.00000000E+00
	 1.00000000E+00	 0.00000000E+00	 5.50000000E+00
	 1.00000000E+00	 0.00000000E+00	 6.00000000E+00
	 1.00000000E+00	 0.00000000E+00	 6.50000000E+00
	 1.00000000E+00	 0.00000000E+00	 7.00000000E+00
	 1.00000000E+00	 0.00000000E+00	 7.50000000E+00
	 0.00000000E+00	 0.00000000E+00	 7.50000000E+00
	 0.00000000E+00	 0.00000000E+00	 7.00000000E+00
	 0.00000000E+00	 0.00000000E+00	 6.50000000E+00
	 0.00000000E+00	 0.00000000E+00	 6.00000000E+00
	 0.00000000E+00	 0.00000000E+00	 5.50000000E+00
	 0.00000000E+00	 0.00000000E+00	 5.00000000E+00
	 0.00000000E+00	 0.00000000E+00	 4.50000000E+00
	 0.00000000E+00	 0.00000000E+00	 4.00000000E+00
	 0.00000000E+00	 0.00000000E+00	 3.50000000E+00
	 0.00000000E+00	 0.00000000E+00	 3.00000000E+00
	 0.00000000E+00	 0.00000000E+00	 2.50000000E+00
	 0.00000000E+00	 0.00000000E+00	 2.00000000E+00
	 0.00000000E+00	 0.00000000E+00	 1.50000000E+00
	 0.00000000E+00	 0.00000000E+00	 1.00000000E+00
	 0.00000000E+00	 0.00000000E+00	 5.00000000E-01
	 1.00000000E+00	 1.00000000E+00	 5.00000000E-01
	 1.00000000E+00	 1.00000000E+00	 1.00000000E+00
	 1.00000000E+00	 1.00000000E+00	 1.50000000E+00
	 1.00000000E+00	 1.00000000E+00	 2.00000000E+00
	 1.00000000E+00	 1.00000000E+00	 2.50000000E+00
	 1.00000000E+00	 1.00000000E+00	 3.00000000E+00
	 1.00000000E+00	 1.00000000E+00	 3.50000000E+00
	 1.00000000E+00	 1.00000000E+00	 4.00000000E+00
	 1.00000000E+00	 1.00000000E+00	 4.50000000E+00
	 1.00000000E+00	 1.00000000E+00	 5.00000000E+00
	 1.00000000E+00	 1.00000000E+00	 5.50000000E+00
	 1.00000000E+00	 1.00000000E+00	 6.00000000E+00
	 1.00000000E+00	 1.00000000E+00	 6.50000000E+00
	 1.00000000E+00	 1.00000000E+00	 7.00000000E+00
	 1.00000000E+00	 1.00000000E+00	 7.50000000E+00
	 0.00000000E+00	 1.00000000E+00	 5.00000000E-01
	 0.00000000E+00	 1.00000000E+00	 1.00000000E+00
	 0.00000000E+00	 1.00000000E+00	 1.50000000E+00
	 0.00000000E+00	 1.00000000E+00	 2.00000000E+00
	 0.00000000E+00	 1.00000000E+00	 2.50000000E+00
	 0.00000000E+00	 1.00000000E+00	 3.00000000E+00
	 0.00000000E+00	 1.00000000E+00	 3.50000000E+00
	 0.00000000E+00	 1.00000000E+00	 4.00000000E+00
	 0.00000000E+00	 1.00000000E+00	 4.50000000E+00
	 0.00000000E+00	 1.00000000E+00	 5.00000000E+00
	 0.00000000E+00	 1.00000000E+00	 5.50000000E+00
	 0.00000000E+00	 1.00000000E+00	 6.00000000E+00
	 0.00000000E+00	 1.00000000E+00	 6.50000000E+00
	 0.00000000E+00	 1.00000000E+00	 7.00000000E+00
	 0.00000000E+00	 1.00000000E+00	 7.50000000E+00
	 5.00000000E-01	 2.50000000E-01	 0.00000000E+00
	 2.50000000E-01	 5.00000000E-01	 0.00000000E+00
	 5.00000000E-01	 5.00000000E-01	 0.00000000E+00
	 7.50000000E-01	 5.00000000E-01	 0.00000000E+00
	 5.00000000E-01	 7.50000000E-01	 0.00000000E+00
	 5.00000000E-01	 2.50000000E-01	 8.00000000E+00
	 2.50000000E-01	 5.00000000E-01	 8.00000000E+00
	 5.00000000E-01	 5.00000000E-01	 8.00000000E+00
	 7.50000000E-01	 5.00000000E-01	 8.00000000E+00
	 5.00000000E-01	 7.50000000E-01	 8.00000000E+00
	 5.00000000E-01	 0.00000000E+00	 5.00000000E-01
	 2.50000000E-01	 0.00000000E+00	 1.00000000E+00
	 5.00000000E-01	 0.00000000E+00	 1.00000000E+00
	 7.50000000E-01	 0.00000000E+00	 1.00000000E+00
	 5.00000000E-01	 0.00000000E+00	 1.50000000E+00
	 2.50000000E-01	 0.00000000E+00	 2.00000000E+00
	 5.00000000E-01	 0.00000000E+00	 2.00000000E+00
	 7.50000000E-01	 0.00000000E+00	 2.00000000E+00
	 5.00000000E-01	 0.00000000E+00	 2.50000000E+00
	 2.50000000E-01	 0.00000000E+00	 3.00000000E+00
	 5.00000000E-01	 0.00000000E+00	 3.00000000E+00
	 7.50000000E-01	 0.00000000E+00	 3.00000000E+00
	 5.00000000E-01	 0.00000000E+00	 3.50000000E+00
	 2.50000000E-01	 0.00000000E+00	 4.00000000E+00
	 5.00000000E-01	 0.00000000E+00	 4.00000000E+00
	 7.50000000E-01	 0.00000000E+00	 4.00000000E+00
	 5.00000000E-01	 0.00000000E+00	 4.50000000E+00
	 2.50000000E-01	 0.00000000E+00	 5.00000000E+00
	 5.00000000E-01	 0.00000000E+00	 5.00000000E+00
	 7.50000000E-01	 0.00000000E+00	 5.00000000E+00
	 5.00000000E-01	 0.00000000E+00	 5.50000000E+00
	 2.50000000E-01	 0.00000000E+00	 6.00000000E+00
	 5.00000000E-01	 0.00000000E+00	 6.00000000E+00
	 7.50000000E-01	 0.00000000E+00	 6.00000000E+00
	 5.00000000E-01	 0.00000000E+00	 6.50000000E+00
	 2.50000000E-01	 0.00000000E+00	 7.00000000E+00
	 5.00000000E-01	 0.00000000E+00	 7.00000000E+00
	 7.50000000E-01	 0.00000000E+00	 7.00000000E+00
	 5.00000000E-01	 0.00000000E+00	 7.50000000E+00
	 1.00000000E+00	 5.00000000E-01	 5.00000000E-01
	 1.00000000E+00	 2.50000000E-01	 1.00000000E+00
	 1.00000000E+00	 5.00000000E-01	 1.00000000E+00
	 1.00000000E+00	 7.50000000E-01	 1.00000000E+00
	 1.00000000E+00	 5.00000000E-01	 1.50000000E+00
	 1.00000000E+00	 2.50000000E-01	 2.00000000E+00
	 1.00000000E+00	 5.00000000E-01	 2.00000000E+00
	 1.00000000E+00	 7.50000000E-01	 2.00000000E+00
	 1.00000000E+00	 5.00000000E-01	 2.50000000E+00
	 1.00000000E+00	 2.50000000E-01	 3.00000000E+00
	 1.00000000E+00	 5.00000000E-01	 3.00000000E+00
	 1.00000000E+00	 7.50000000E-01	 3.00000000E+00
	 1.00000000E+00	 5.00000000E-01	 3.50000000E+00
	 1.00000000E+00	 2.50000000E-01	 4.00000000E+00
	 1.00000000E+00	 5.00000000E-01	 4.00000000E+00
	 1.00000000E+00	 7.50000000E-01	 4.00000000E+00
	 1.00000000E+00	 5.00000000E-01	 4.50000000E+00
	 1.00000000E+00	 2.50000000E-01	 5.00000000E+00
	 1.00000000E+00	 5.00000000E-01	 5.00000000E+00
	 1.00000000E+00	 7.50000000E-01	 5.00000000E+00
	 1.00000000E+00	 5.00000000E-01	 5.50000000E+00
	 1.00000000E+00	 2.50000000E-01	 6.00000000E+00
	 1.00000000E+00	 5.00000000E-01	 6.00000000E+00
	 1.00000000E+00	 7.50000000E-01	 6.00000000E+00
	 1.00000000E+00	 5.00000000E-01	 6.50000000E+00
	 1.00000000E+00	 2.50000000E-01	 7.00000000E+00
	 1.00000000E+00	 5.00000000E-01	 7.00000000E+00
	 1.00000000E+00	 7.50000000E-01	 7.00000000E+00
	 1.00000000E+00	 5.00000000E-01	 7.50000000E+00
	 5.00000000E-01	 1.00000000E+00	 5.00000000E-01
	 7.50000000E-01	 1.00000000E+00	 1.00000000E+00
	 5.00000000E-01	 1.00000000E+00	 1.00000000E+00
	 2.50000000E-01	 1.00000000E+00	 1.00000000E+00
	 5.00000000E-01	 1.00000000E+00	 1.50000000E+00
	 7.50000000E-01	 1.00000000E+00	 2.00000000E+00
	 5.00000000E-01	 1.00000000E+00	 2.00000000E+00
	 2.50000000E-01	 1.00000000E+00	 2.00000000E+00
	 5.00000000E-01	 1.00000000E+00	 2.50000000E+00
	 7.50000000E-01	 1.00000000E+00	 3.00000000E+00
	 5.00000000E-01	 1.00000000E+00	 3.00000000E+00
	 2.50000000E-01	 1.00000000E+00	 3.00000000E+00
	 5.00000000E-01	 1.00000000E+00	 3.50000000E+00
	 7.50000000E-01	 1.00000000E+00	 4.00000000E+00
	 5.00000000E-01	 1.00000000E+00	 4.00000000E+00
	 2.50000000E-01	 1.00000000E+00	 4.00000000E+00
	 5.00000000E-01	 1.00000000E+00	 4.50000000E+00
	 7.50000000E-01	 1.00000000E+00	 5.00000000E+00
	 5.00000000E-01	 1.00000000E+00	 5.00000000E+00
	 2.50000000E-01	 1.00000000E+00	 5.00000000E+00
	 5.00000000E-01	 1.00000000E+00	 5.50000000E+00
	 7.50000000E-01	 1.00000000E+00	 6.00000000E+00
	 5.00000000E-01	 1.00000000E+00	 6.00000000E+00
	 2.50000000E-01	 1.00000000E+00	 6.00000000E+00
	 5.00000000E-01	 1.00000000E+00	 6.50000000E+00
	 7.50000000E-01	 1.00000000E+00	 7.00000000E+00
	 5.00000000E-01	 1.00000000E+00	 7.00000000E+00
	 2.50000000E-01	 1.00000000E+00	 7.00000000E+00
	 5.00000000E-01	 1.00000000E+00	 7.50000000E+00
	 0.00000000E+00	 5.00000000E-01	 5.00000000E-01
	 0.00000000E+00	 7.50000000E-01	 1.00000000E+00
	 0.00000000E+00	 5.00000000E-01	 1.00000000E+00
	 0.00000000E+00	 2.50000000E-01	 1.00000000E+00
	 0.00000000E+00	 5.00000000E-01	 1.50000000E+00
	 0.00000000E+00	 7.50000000E-01	 2.00000000E+00
	 0.00000000E+00	 5.00000000E-01	 2.00000000E+00
	 0.00000000E+00	 2.50000000E-01	 2.00000000E+00
	 0.00000000E+00	 5.00000000E-01	 2.50000000E+00
	 0.00000000E+00	 7.50000000E-01	 3.00000000E+00
	 0.00000000E+00	 5.00000000E-01	 3.00000000E+00
	 0.00000000E+00	 2.50000000E-01	 3.00000000E+00
	 0.00000000E+00	 5.00000000E-01	 3.50000000E+00
	 0.00000000E+00	 7.50000000E-01	 4.00000000E+00
	 0.00000000E+00	 5.00000000E-01	 4.00000000E+00
	 0.00000000E+00	 2.50000000E-01	 4.00000000E+00
	 0.00000000E+00	 5.00000000E-01	 4.50000000E+00
	 0.00000000E+00	 7.50000000E-01	 5.00000000E+00
	 0.00000000E+00	 5.00000000E-01	 5.00000000E+00
	 0.00000000E+00	 2.50000000E-01	 5.00000000E+00
	 0.00000000E+00	 5.00000000E-01	 5.50000000E+00
	 0.00000000E+00	 7.50000000E-01	 6.00000000E+00
	 0.00000000E+00	 5.00000000E-01	 6.00000000E+00
	 0.00000000E+00	 2.50000000E-01	 6.00000000E+00
	 0.00000000E+00	 5.00000000E-01	 6.50000000E+00
	 0.00000000E+00	 7.50000000E-01	 7.00000000E+00
	 0.00000000E+00	 5.00000000E-01	 7.00000000E+00
	 0.00000000E+00	 2.50000000E-01	 7.00000000E+00
	 0.00000000E+00	 5.00000000E-01	 7.50000000E+00
	 5.00000000E-01	 5.00000000E-01	 5.00000000E-01
	 5.00000000E-01	 2.50000000E-01	 1.00000000E+00
	 2.50000000E-01	 5.00000000E-01	 1.00000000E+00
	 5.00000000E-01	 5.00000000E-01	 1.00000000E+00
	 7.50000000E-01	 5.00000000E-01	 1.00000000E+00
	 5.00000000E-01	 7.50000000E-01	 1.00000000E+00
	 5.00000000E-01	 5.00000000E-01	 1.50000000E+00
	 5.00000000E-01	 2.50000000E-01	 2.00000000E+00
	 2.50000000E-01	 5.00000000E-01	 2.00000000E+00
	 5.00000000E-01	 5.00000000E-01	 2.00000000E+00
	 7.50000000E-01	 5.00000000E-01	 2.00000000E+00
	 5.00000000E-01	 7.50000000E-01	 2.00000000E+00
	 5.00000000E-01	 5.00000000E-01	 2.50000000E+00
	 5.00000000E-01	 2.50000000E-01	 3.00000000E+00
	 2.50000000E-01	 5.00000000E-01	 3.00000000E+00
	 5.00000000E-01	 5.00000000E-01	 3.00000000E+00
	 7.50000000E-01	 5.00000000E-01	 3.00000000E+00
	 5.00000000E-01	 7.50000000E-01	 3.00000000E+00
	 5.00000000E-01	 5.00000000E-01	 3.50000000E+00
	 5.00000000E-01	 2.50000000E-01	 4.00000000E+00
	 2.50000000E-01	 5.00000000E-01	 4.00000000E+00
	 5.00000000E-01	 5.00000000E-01	 4.00000000E+00
	 7.50000000E-01	 5.00000000E-01	 4.00000000E+00
	 5.00000000E-01	 7.50000000E-01	 4.00000000E+00
	 5.00000000E-01	 5.00000000E-01	 4.50000000E+00
	 5.00000000E-01	 2.50000000E-01	 5.00000000E+00
	 2.50000000E-01	 5.00000000E-01	 5.00000000E+00
	 5.00000000E-01	 5.00000000E-01	 5.00000000E+00
	 7.50000000E-01	 5.00000000E-01	 5.00000000E+00
	 5.00000000E-01	 7.50000000E-01	 5.00000000E+00
	 5.00000000E-01	 5.00000000E-01	 5.50000000E+00
	 5.00000000E-01	 2.50000000E-01	 6.00000000E+00
	 2.50000000E-01	 5.00000000E-01	 6.00000000E+00
	 5.00000000E-01	 5.00000000E-01	 6.00000000E+00
	 7.50000000E-01	 5.00000000E-01	 6.00000000E+00
	 5.00000000E-01	 7.50000000E-01	 6.00000000E+00
	 5.00000000E-01	 5.00000000E-01	 6.50000000E+00
	 5.00000000E-01	 2.50000000E-01	 7.00000000E+00
	 2.50000000E-01	 5.00000000E-01	 7.00000000E+00
	 5.00000000E-01	 5.00000000E-01	 7.00000000E+00
	 7.50000000E-01	 5.00000000E-01	 7.00000000E+00
	 5.00000000E-01	 7.50000000E-01	 7.00000000E+00
	 5.00000000E-01	 5.00000000E-01	 7.50000000E+00

CELLS 32 672
	20 0 9 94 18 60 104 221 191 8 92 93 19 103 219 220 192 61 102 218 189 
	20 9 1 12 94 104 33 133 221 10 11 95 92 105 132 222 219 102 32 131 218 
	20 18 94 15 3 191 221 162 78 93 96 16 17 220 223 163 190 189 218 160 77 
	20 94 12 2 15 221 133 63 162 95 13 14 96 222 134 161 223 218 131 62 160 
	20 60 104 221 191 58 108 227 195 103 219 220 192 107 225 226 196 59 106 224 193 
	20 104 33 133 221 108 35 137 227 105 132 222 219 109 136 228 225 106 34 135 224 
	20 191 221 162 78 195 227 166 80 220 223 163 190 226 229 167 194 193 224 164 79 
	20 221 133 63 162 227 137 65 166 222 134 161 223 228 138 165 229 224 135 64 164 
	20 58 108 227 195 56 112 233 199 107 225 226 196 111 231 232 200 57 110 230 197 
	20 108 35 137 227 112 37 141 233 109 136 228 225 113 140 234 231 110 36 139 230 
	20 195 227 166 80 199 233 170 82 226 229 167 194 232 235 171 198 197 230 168 81 
	20 227 137 65 166 233 141 67 170 228 138 165 229 234 142 169 235 230 139 66 168 
	20 56 112 233 199 54 116 239 203 111 231 232 200 115 237 238 204 55 114 236 201 
	20 112 37 141 233 116 39 145 239 113 140 234 231 117 144 240 237 114 38 143 236 
	20 199 233 170 82 203 239 174 84 232 235 171 198 238 241 175 202 201 236 172 83 
	20 233 141 67 170 239 145 69 174 234 142 169 235 240 146 173 241 236 143 68 172 
	20 54 116 239 203 52 120 245 207 115 237 238 204 119 243 244 208 53 118 242 205 
	20 116 39 145 239 120 41 149 245 117 144 240 237 121 148 246 243 118 40 147 242 
	20 203 239 174 84 207 245 178 86 238 241 175 202 244 247 179 206 205 242 176 85 
	20 239 145 69 174 245 149 71 178 240 146 173 241 246 150 177 247 242 147 70 176 
	20 52 120 245 207 50 124 251 211 119 243 244 208 123 249 250 212 51 122 248 209 
	20 120 41 149 245 124 43 153 251 121 148 246 243 125 152 252 249 122 42 151 248 
	20 207 245 178 86 211 251 182 88 244 247 179 206 250 253 183 210 209 248 180 87 
	20 245 149 71 178 251 153 73 182 246 150 177 247 252 154 181 253 248 151 72 180 
	20 50 124 251 211 48 128 257 215 123 249 250 212 127 255 256 216 49 126 254 213 
	20 124 43 153 251 128 45 157 257 125 152 252 249 129 156 258 255 126 44 155 254 
	20 211 251 182 88 215 257 186 90 250 253 183 210 256 259 187 214 213 254 184 89 
	20 251 153 73 182 257 157 75 186 252 154 181 253 258 158 185 259 254 155 74 184 
	20 48 128 257 215 4 21 99 30 127 255 256 216 20 97 98 31 47 130 260 217 
	20 128 45 157 257 21 5 24 99 129 156 258 255 22 23 100 97 130 46 159 260 
	20 215 257 186 90 30 99 27 7 256 259 187 214 98 101 28 29 217 260 188 91 
	20 257 157 75 186 99 24 6 27 258 158 185 259 100 25 26 101 260 159 76 188 

CELL_TYPES 32
	25
	25
	25
	25
	25
	25
	25
	25
	25
	25
	25
	25
	25
	25
	25
	25
	25
	25
	25
	25
	25
	25
	25
	25
	25
	25
	25
	25
	25
	25
	25
	25

POINT_DATA 261
FIELD RAND 1
	RAND 3 261 double
		 0.00000000E+00	 0.00000000E+00	 0.00000000E+00
		 0.00000000E+00	 0.00000000E+00	 0.00000000E+00
		 0.00000000E+00	 0.00000000E+00	 0.00000000E+00
		 0.00000000E+00	 0.00000000E+00	 0.00000000E+00
		 4.08731000E-02	 4.08731000E-02	-4.08731000E-02
		-4.11852000E-02	 4.11852000E-02	-4.11852000E-02
		-4.08684000E-02	-4.08684000E-02	-4.08684000E-02
		 2.87031000E-02	-2.87031000E-02	-2.87031000E-02
		 0.00000000E+00	 0.00000000E+00	 0.00000000E+00
		 0.00000000E+00	 0.00000000E+00	 0.00000000E+00
		 0.00000000E+00	 0.00000000E+00	 0.00000000E+00
		 0.00000000E+00	 0.00000000E+00	 0.00000000E+00
		 0.00000000E+00	 0.00000000E+00	 0.00000000E+00
		 0.00000000E+00	 0.00000000E+00	 0.00000000E+00
		 0.00000000E+00	 0.00000000E+00	 0.00000000E+00
		 0.00000000E+00	 0.00000000E+00	 0.00000000E+00
		 0.00000000E+00	 0.00000000E+00	 0.00000000E+00
		 0.00000000E+00	 0.00000000E+00	 0.00000000E+00
		 0.00000000E+00	 0.00000000E+00	 0.00000000E+00
		 0.00000000E+00	 0.00000000E+00	 0.00000000E+00
		-0.00000000E+00	 5.23694000E-02	-5.23694000E-02
		-0.00000000E+00	 5.32305000E-02	-5.32305000E-02
		-0.00000000E+00	 5.25693000E-02	-5.25693000E-02
		-5.25679000E-02	-0.00000000E+00	-5.25679000E-02
		-5.32276000E-02	-0.00000000E+00	-5.32276000E-02
		-5.23649000E-02	-0.00000000E+00	-5.23649000E-02
		-0.00000000E+00	-5.21372000E-02	-5.21372000E-02
		-0.00000000E+00	-5.27642000E-02	-5.27642000E-02
		-0.00000000E+00	-5.18814000E-02	-5.18814000E-02
		 5.18830000E-02	-0.00000000E+00	-5.18830000E-02
		 5.27673000E-02	-0.00000000E+00	-5.27673000E-02
		 5.35109000E-02	-0.00000000E+00	-5.35109000E-02
		 4.32087000E-02	-4.32087000E-02	 0.00000000E+00
		 5.33682000E-02	-5.33682000E-02	 0.00000000E+00
		 6.04302000E-02	-6.04302000E-02	 0.00000000E+00
		 6.27371000E-02	-6.27371000E-02	 0.00000000E+00
		 5.93859000E-02	-5.93859000E-02	 0.00000000E+00
		 5.03498000E-02	-5.03498000E-02	 0.00000000E+00
		 3.63857000E-02	-3.63857000E-02	 0.00000000E+00
		 1.88391000E-02	-1.88391000E-02	 0.00000000E+00
		-5.67383000E-04	 5.67383000E-04	-0.00000000E+00
		-1.99273000E-02	 1.99273000E-02	-0.00000000E+00
		-3.73264000E-02	 3.73264000E-02	-0.00000000E+00
		-5.10161000E-02	 5.10161000E-02	-0.00000000E+00
		-5.96112000E-02	 5.96112000E-02	-0.00000000E+00
		-6.23309000E-02	 6.23309000E-02	-0.00000000E+00
		-5.92446000E-02	 5.92446000E-02	-0.00000000E+00
		 5.91327000E-02	 5.91327000E-02	-0.00000000E+00
		 6.22304000E-02	 6.22304000E-02	-0.00000000E+00
		 5.95308000E-02	 5.95308000E-02	-0.00000000E+00
		 5.09586000E-02	 5.09586000E-02	-0.00000000E+00
		 3.72894000E-02	 3.72894000E-02	-0.00000000E+00
		 1.99058000E-02	 1.99058000E-02	-0.00000000E+00
		 5.55858000E-04	 5.55858000E-04	-0.00000000E+00
		-1.88449000E-02	-1.88449000E-02	 0.00000000E+00
		-3.63885000E-02	-3.63885000E-02	 0.00000000E+00
		-5.03512000E-02	-5.03512000E-02	 0.00000000E+00
		-5.93865000E-02	-5.93865000E-02	 0.00000000E+00
		-6.27374000E-02	-6.27374000E-02	 0.00000000E+00
		-6.04303000E-02	-6.04303000E-02	 0.00000000E+00
		-5.33682000E-02	-5.33682000E-02	 0.00000000E+00
		-4.32088000E-02	-4.32088000E-02	 0.00000000E+00
		 4.32088000E-02	 4.32088000E-02	 0.00000000E+00
		 5.33682000E-02	 5.33682000E-02	 0.00000000E+00
		 6.04303000E-02	 6.04303000E-02	 0.00000000E+00
		 6.27374000E-02	 6.27374000E-02	 0.00000000E+00
		 5.93866000E-02	 5.93866000E-02	 0.00000000E+00
		 5.03512000E-02	 5.03512000E-02	 0.00000000E+00
		 3.63886000E-02	 3.63886000E-02	 0.00000000E+00
		 1.88450000E-02	 1.88450000E-02	 0.00000000E+00
		-5.55479000E-04	-5.55479000E-04	-0.00000000E+00
		-1.99050000E-02	-1.99050000E-02	-0.00000000E+00
		-3.72881000E-02	-3.72881000E-02	-0.00000000E+00
		-5.09562000E-02	-5.09562000E-02	-0.00000000E+00
		-5.95273000E-02	-5.95273000E-02	-0.00000000E+00
		-6.22258000E-02	-6.22258000E-02	-0.00000000E+00
		-5.91272000E-02	-5.91272000E-02	-0.00000000E+00
		-4.32088000E-02	 4.32088000E-02	 0.00000000E+00
		-5.33683000E-02	 5.33683000E-02	 0.00000000E+00
		-6.04305000E-02	 6.04305000E-02	 0.00000000E+00
		-6.27377000E-02	 6.27377000E-02	 0.00000000E+00
		-5.93872000E-02	 5.93872000E-02	 0.00000000E+00
		-5.03527000E-02	 5.03527000E-02	 0.00000000E+00
		-3.63918000E-02	 3.63918000E-02	 0.00000000E+00
		-1.88518000E-02	 1.88518000E-02	 0.00000000E+00
		 5.41585000E-04	-5.41585000E-04	-0.00000000E+00
		 1.98786000E-02	-1.98786000E-02	-0.00000000E+00
		 3.72422000E-02	-3.72422000E-02	-0.00000000E+00
		 5.08843000E-02	-5.08843000E-02	-0.00000000E+00
		 5.94262000E-02	-5.94262000E-02	-0.00000000E+00
		 6.20989000E-02	-6.20989000E-02	-0.00000000E+00
		 4.39681000E-02	-4.39681000E-02	-0.00000000E+00
		 0.00000000E+00	 0.00000000E+00	 0.00000000E+00
		 0.00000000E+00	 0.00000000E+00	 0.00000000E+00
		 0.00000000E+00	 0.00000000E+00	 0.00000000E+00
		 0.00000000E+00	 0.00000000E+00	 0.00000000E+00
		 0.00000000E+00	 0.00000000E+00	 0.00000000E+00
		-0.00000000E+00	-0.00000000E+00	-7.84325000E-02
		-0.00000000E+00	-0.00000000E+00	-7.80899000E-02
		-0.00000000E+00	-0.00000000E+00	-7.93956000E-02
		-0.00000000E+00	-0.00000000E+00	-7.84303000E-02
		-0.00000000E+00	-0.00000000E+00	-8.01487000E-02
		 0.00000000E+00	-6.46936000E-02	 0.00000000E+00
		 0.00000000E+00	-7.87736000E-02	 0.00000000E+00
		 0.00000000E+00	-7.99051000E-02	 0.00000000E+00
		 0.00000000E+00	-7.87736000E-02	 0.00000000E+00
		 0.00000000E+00	-9.04790000E-02	 0.00000000E+00
		 0.00000000E+00	-9.26033000E-02	 0.00000000E+00
		 0.00000000E+00	-9.39334000E-02	 0.00000000E+00
		 0.00000000E+00	-9.26031000E-02	 0.00000000E+00
		 0.00000000E+00	-8.89163000E-02	 0.00000000E+00
		 0.00000000E+00	-7.43204000E-02	 0.00000000E+00
		 0.00000000E+00	-7.53875000E-02	 0.00000000E+00
		 0.00000000E+00	-7.43194000E-02	 0.00000000E+00
		 0.00000000E+00	-5.44806000E-02	 0.00000000E+00
		 0.00000000E+00	-2.78134000E-02	 0.00000000E+00
		 0.00000000E+00	-2.82106000E-02	 0.00000000E+00
		 0.00000000E+00	-2.78091000E-02	 0.00000000E+00
		-0.00000000E+00	 8.42695000E-04	-0.00000000E+00
		-0.00000000E+00	 2.93929000E-02	-0.00000000E+00
		-0.00000000E+00	 2.98243000E-02	-0.00000000E+00
		-0.00000000E+00	 2.94088000E-02	-0.00000000E+00
		-0.00000000E+00	 5.58676000E-02	-0.00000000E+00
		-0.00000000E+00	 7.52491000E-02	-0.00000000E+00
		-0.00000000E+00	 7.63552000E-02	-0.00000000E+00
		-0.00000000E+00	 7.52916000E-02	-0.00000000E+00
		-0.00000000E+00	 8.92148000E-02	-0.00000000E+00
		-0.00000000E+00	 9.19142000E-02	-0.00000000E+00
		-0.00000000E+00	 9.32798000E-02	-0.00000000E+00
		-0.00000000E+00	 9.19885000E-02	-0.00000000E+00
		-0.00000000E+00	 8.86563000E-02	-0.00000000E+00
		 6.46936000E-02	 0.00000000E+00	 0.00000000E+00
		 7.87736000E-02	 0.00000000E+00	 0.00000000E+00
		 7.99051000E-02	 0.00000000E+00	 0.00000000E+00
		 7.87736000E-02	 0.00000000E+00	 0.00000000E+00
		 9.04790000E-02	 0.00000000E+00	 0.00000000E+00
		 9.26031000E-02	 0.00000000E+00	 0.00000000E+00
		 9.39334000E-02	 0.00000000E+00	 0.00000000E+00
		 9.26033000E-02	 0.00000000E+00	 0.00000000E+00
		 8.89163000E-02	 0.00000000E+00	 0.00000000E+00
		 7.43194000E-02	 0.00000000E+00	 0.00000000E+00
		 7.53876000E-02	 0.00000000E+00	 0.00000000E+00
		 7.43204000E-02	 0.00000000E+00	 0.00000000E+00
		 5.44807000E-02	 0.00000000E+00	 0.00000000E+00
		 2.78092000E-02	 0.00000000E+00	 0.00000000E+00
		 2.82107000E-02	 0.00000000E+00	 0.00000000E+00
		 2.78136000E-02	 0.00000000E+00	 0.00000000E+00
		-8.42418000E-04	-0.00000000E+00	-0.00000000E+00
		-2.94086000E-02	-0.00000000E+00	-0.00000000E+00
		-2.98237000E-02	-0.00000000E+00	-0.00000000E+00
		-2.93921000E-02	-0.00000000E+00	-0.00000000E+00
		-5.58666000E-02	-0.00000000E+00	-0.00000000E+00
		-7.52908000E-02	-0.00000000E+00	-0.00000000E+00
		-7.63535000E-02	-0.00000000E+00	-0.00000000E+00
		-7.52466000E-02	-0.00000000E+00	-0.00000000E+00
		-8.92123000E-02	-0.00000000E+00	-0.00000000E+00
		-9.19869000E-02	-0.00000000E+00	-0.00000000E+00
		-9.32764000E-02	-0.00000000E+00	-0.00000000E+00
		-9.19092000E-02	-0.00000000E+00	-0.00000000E+00
		-8.86523000E-02	-0.00000000E+00	-0.00000000E+00
		 0.00000000E+00	 6.46936000E-02	 0.00000000E+00
		 0.00000000E+00	 7.87737000E-02	 0.00000000E+00
		 0.00000000E+00	 7.99052000E-02	 0.00000000E+00
		 0.00000000E+00	 7.87738000E-02	 0.00000000E+00
		 0.00000000E+00	 9.04793000E-02	 0.00000000E+00
		 0.00000000E+00	 9.26035000E-02	 0.00000000E+00
		 0.00000000E+00	 9.39339000E-02	 0.00000000E+00
		 0.00000000E+00	 9.26038000E-02	 0.00000000E+00
		 0.00000000E+00	 8.89173000E-02	 0.00000000E+00
		 0.00000000E+00	 7.43214000E-02	 0.00000000E+00
		 0.00000000E+00	 7.53897000E-02	 0.00000000E+00
		 0.00000000E+00	 7.43225000E-02	 0.00000000E+00
		 0.00000000E+00	 5.44852000E-02	 0.00000000E+00
		 0.00000000E+00	 2.78182000E-02	 0.00000000E+00
		 0.00000000E+00	 2.82203000E-02	 0.00000000E+00
		 0.00000000E+00	 2.78233000E-02	 0.00000000E+00
		-0.00000000E+00	-8.23126000E-04	-0.00000000E+00
		-0.00000000E+00	-2.93742000E-02	-0.00000000E+00
		-0.00000000E+00	-2.97873000E-02	-0.00000000E+00
		-0.00000000E+00	-2.93546000E-02	-0.00000000E+00
		-0.00000000E+00	-5.58036000E-02	-0.00000000E+00
		-0.00000000E+00	-7.51981000E-02	-0.00000000E+00
		-0.00000000E+00	-7.62550000E-02	-0.00000000E+00
		-0.00000000E+00	-7.51449000E-02	-0.00000000E+00
		-0.00000000E+00	-8.90740000E-02	-0.00000000E+00
		-0.00000000E+00	-9.18240000E-02	-0.00000000E+00
		-0.00000000E+00	-9.31030000E-02	-0.00000000E+00
		-0.00000000E+00	-9.17301000E-02	-0.00000000E+00
		-0.00000000E+00	-8.84587000E-02	-0.00000000E+00
		-6.46936000E-02	 0.00000000E+00	 0.00000000E+00
		-7.87738000E-02	 0.00000000E+00	 0.00000000E+00
		-7.99052000E-02	 0.00000000E+00	 0.00000000E+00
		-7.87737000E-02	 0.00000000E+00	 0.00000000E+00
		-9.04793000E-02	 0.00000000E+00	 0.00000000E+00
		-9.26038000E-02	 0.00000000E+00	 0.00000000E+00
		-9.39339000E-02	 0.00000000E+00	 0.00000000E+00
		-9.26035000E-02	 0.00000000E+00	 0.00000000E+00
		-8.89173000E-02	 0.00000000E+00	 0.00000000E+00
		-7.43225000E-02	 0.00000000E+00	 0.00000000E+00
		-7.53896000E-02	 0.00000000E+00	 0.00000000E+00
		-7.43214000E-02	 0.00000000E+00	 0.00000000E+00
		-5.44852000E-02	 0.00000000E+00	 0.00000000E+00
		-2.78232000E-02	 0.00000000E+00	 0.00000000E+00
		-2.82201000E-02	 0.00000000E+00	 0.00000000E+00
		-2.78180000E-02	 0.00000000E+00	 0.00000000E+00
		 8.23416000E-04	-0.00000000E+00	-0.00000000E+00
		 2.93549000E-02	-0.00000000E+00	-0.00000000E+00
		 2.97879000E-02	-0.00000000E+00	-0.00000000E+00
		 2.93750000E-02	-0.00000000E+00	-0.00000000E+00
		 5.58047000E-02	-0.00000000E+00	-0.00000000E+00
		 7.51458000E-02	-0.00000000E+00	-0.00000000E+00
		 7.62568000E-02	-0.00000000E+00	-0.00000000E+00
		 7.52007000E-02	-0.00000000E+00	-0.00000000E+00
		 8.90767000E-02	-0.00000000E+00	-0.00000000E+00
		 9.17319000E-02	-0.00000000E+00	-0.00000000E+00
		 9.31066000E-02	-0.00000000E+00	-0.00000000E+00
		 9.18291000E-02	-0.00000000E+00	-0.00000000E+00
		 8.84629000E-02	-0.00000000E+00	-0.00000000E+00
		 0.00000000E+00	 0.00000000E+00	 0.00000000E+00
		 0.00000000E+00	 0.00000000E+00	 0.00000000E+00
		 0.00000000E+00	 0.00000000E+00	 0.00000000E+00
		 0.00000000E+00	 0.00000000E+00	 0.00000000E+00
		 0.00000000E+00	 0.00000000E+00	 0.00000000E+00
		 0.00000000E+00	 0.00000000E+00	 0.00000000E+00
		 0.00000000E+00	 0.00000000E+00	 0.00000000E+00
		 0.00000000E+00	 0.00000000E+00	 0.00000000E+00
		 0.00000000E+00	 0.00000000E+00	 0.00000000E+00
		 0.00000000E+00	 0.00000000E+00	 0.00000000E+00
		 0.00000000E+00	 0.00000000E+00	 0.00000000E+00
		 0.00000000E+00	 0.00000000E+00	 0.00000000E+00
		 0.00000000E+00	 0.00000000E+00	 0.00000000E+00
		 0.00000000E+00	 0.00000000E+00	 0.00000000E+00
		 0.00000000E+00	 0.00000000E+00	 0.00000000E+00
		 0.00000000E+00	 0.00000000E+00	 0.00000000E+00
		 0.00000000E+00	 0.00000000E+00	 0.00000000E+00
		 0.00000000E+00	 0.00000000E+00	 0.00000000E+00
		 0.00000000E+00	 0.00000000E+00	 0.00000000E+00
		 0.00000000E+00	 0.00000000E+00	 0.00000000E+00
		 0.00000000E+00	 0.00000000E+00	 0.00000000E+00
		 0.00000000E+00	 0.00000000E+00	 0.00000000E+00
		 0.00000000E+00	 0.00000000E+00	 0.00000000E+00
		 0.00000000E+00	 0.00000000E+00	 0.00000000E+00
		 0.00000000E+00	 0.00000000E+00	 0.00000000E+00
		 0.00000000E+00	 0.00000000E+00	 0.00000000E+00
		 0.00000000E+00	 0.00000000E+00	 0.00000000E+00
		 0.00000000E+00	 0.00000000E+00	 0.00000000E+00
		 0.00000000E+00	 0.00000000E+00	 0.00000000E+00
		 0.00000000E+00	 0.00000000E+00	 0.00000000E+00
		 0.00000000E+00	 0.00000000E+00	 0.00000000E+00
		 0.00000000E+00	 0.00000000E+00	 0.00000000E+00
		 0.00000000E+00	 0.00000000E+00	 0.00000000E+00
		 0.00000000E+00	 0.00000000E+00	 0.00000000E+00
		 0.00000000E+00	 0.00000000E+00	 0.00000000E+00
		 0.00000000E+00	 0.00000000E+00	 0.00000000E+00
		 0.00000000E+00	 0.00000000E+00	 0.00000000E+00
		 0.00000000E+00	 0.00000000E+00	 0.00000000E+00
		 0.00000000E+00	 0.00000000E+00	 0.00000000E+00
		 0.00000000E+00	 0.00000000E+00	 0.00000000E+00
		 0.00000000E+00	 0.00000000E+00	 0.00000000E+00
		 0.00000000E+00	 0.00000000E+00	 0.00000000E+00
		 0.00000000E+00	 0.00000000E+00	 0.00000000E+00
