# vtk DataFile Version 3.0

ASCII
DATASET UNSTRUCTURED_GRID

POINTS 81 double
	 0.00000000E+00	 0.00000000E+00	 0.00000000E+00
	 1.00000000E+00	 0.00000000E+00	 0.00000000E+00
	 1.00000000E+00	 1.50000000E+00	 0.00000000E+00
	 0.00000000E+00	 1.50000000E+00	 0.00000000E+00
	 0.00000000E+00	 0.00000000E+00	 8.00000000E+00
	 1.00000000E+00	 0.00000000E+00	 8.00000000E+00
	 1.00000000E+00	 1.50000000E+00	 8.00000000E+00
	 0.00000000E+00	 1.50000000E+00	 8.00000000E+00
	 5.00000000E-01	 0.00000000E+00	 0.00000000E+00
	 1.00000000E+00	 7.50000000E-01	 0.00000000E+00
	 5.00000000E-01	 1.50000000E+00	 0.00000000E+00
	 0.00000000E+00	 7.50000000E-01	 0.00000000E+00
	 5.00000000E-01	 0.00000000E+00	 8.00000000E+00
	 1.00000000E+00	 7.50000000E-01	 8.00000000E+00
	 5.00000000E-01	 1.50000000E+00	 8.00000000E+00
	 0.00000000E+00	 7.50000000E-01	 8.00000000E+00
	 1.00000000E+00	 0.00000000E+00	 1.00000000E+00
	 1.00000000E+00	 0.00000000E+00	 2.00000000E+00
	 1.00000000E+00	 0.00000000E+00	 3.00000000E+00
	 1.00000000E+00	 0.00000000E+00	 4.00000000E+00
	 1.00000000E+00	 0.00000000E+00	 5.00000000E+00
	 1.00000000E+00	 0.00000000E+00	 6.00000000E+00
	 1.00000000E+00	 0.00000000E+00	 7.00000000E+00
	 0.00000000E+00	 0.00000000E+00	 7.00000000E+00
	 0.00000000E+00	 0.00000000E+00	 6.00000000E+00
	 0.00000000E+00	 0.00000000E+00	 5.00000000E+00
	 0.00000000E+00	 0.00000000E+00	 4.00000000E+00
	 0.00000000E+00	 0.00000000E+00	 3.00000000E+00
	 0.00000000E+00	 0.00000000E+00	 2.00000000E+00
	 0.00000000E+00	 0.00000000E+00	 1.00000000E+00
	 1.00000000E+00	 1.50000000E+00	 1.00000000E+00
	 1.00000000E+00	 1.50000000E+00	 2.00000000E+00
	 1.00000000E+00	 1.50000000E+00	 3.00000000E+00
	 1.00000000E+00	 1.50000000E+00	 4.00000000E+00
	 1.00000000E+00	 1.50000000E+00	 5.00000000E+00
	 1.00000000E+00	 1.50000000E+00	 6.00000000E+00
	 1.00000000E+00	 1.50000000E+00	 7.00000000E+00
	 0.00000000E+00	 1.50000000E+00	 1.00000000E+00
	 0.00000000E+00	 1.50000000E+00	 2.00000000E+00
	 0.00000000E+00	 1.50000000E+00	 3.00000000E+00
	 0.00000000E+00	 1.50000000E+00	 4.00000000E+00
	 0.00000000E+00	 1.50000000E+00	 5.00000000E+00
	 0.00000000E+00	 1.50000000E+00	 6.00000000E+00
	 0.00000000E+00	 1.50000000E+00	 7.00000000E+00
	 5.00000000E-01	 7.50000000E-01	 0.00000000E+00
	 5.00000000E-01	 7.50000000E-01	 8.00000000E+00
	 5.00000000E-01	 0.00000000E+00	 1.00000000E+00
	 5.00000000E-01	 0.00000000E+00	 2.00000000E+00
	 5.00000000E-01	 0.00000000E+00	 3.00000000E+00
	 5.00000000E-01	 0.00000000E+00	 4.00000000E+00
	 5.00000000E-01	 0.00000000E+00	 5.00000000E+00
	 5.00000000E-01	 0.00000000E+00	 6.00000000E+00
	 5.00000000E-01	 0.00000000E+00	 7.00000000E+00
	 1.00000000E+00	 7.50000000E-01	 1.00000000E+00
	 1.00000000E+00	 7.50000000E-01	 2.00000000E+00
	 1.00000000E+00	 7.50000000E-01	 3.00000000E+00
	 1.00000000E+00	 7.50000000E-01	 4.00000000E+00
	 1.00000000E+00	 7.50000000E-01	 5.00000000E+00
	 1.00000000E+00	 7.50000000E-01	 6.00000000E+00
	 1.00000000E+00	 7.50000000E-01	 7.00000000E+00
	 5.00000000E-01	 1.50000000E+00	 1.00000000E+00
	 5.00000000E-01	 1.50000000E+00	 2.00000000E+00
	 5.00000000E-01	 1.50000000E+00	 3.00000000E+00
	 5.00000000E-01	 1.50000000E+00	 4.00000000E+00
	 5.00000000E-01	 1.50000000E+00	 5.00000000E+00
	 5.00000000E-01	 1.50000000E+00	 6.00000000E+00
	 5.00000000E-01	 1.50000000E+00	 7.00000000E+00
	 0.00000000E+00	 7.50000000E-01	 1.00000000E+00
	 0.00000000E+00	 7.50000000E-01	 2.00000000E+00
	 0.00000000E+00	 7.50000000E-01	 3.00000000E+00
	 0.00000000E+00	 7.50000000E-01	 4.00000000E+00
	 0.00000000E+00	 7.50000000E-01	 5.00000000E+00
	 0.00000000E+00	 7.50000000E-01	 6.00000000E+00
	 0.00000000E+00	 7.50000000E-01	 7.00000000E+00
	 5.00000000E-01	 7.50000000E-01	 1.00000000E+00
	 5.00000000E-01	 7.50000000E-01	 2.00000000E+00
	 5.00000000E-01	 7.50000000E-01	 3.00000000E+00
	 5.00000000E-01	 7.50000000E-01	 4.00000000E+00
	 5.00000000E-01	 7.50000000E-01	 5.00000000E+00
	 5.00000000E-01	 7.50000000E-01	 6.00000000E+00
	 5.00000000E-01	 7.50000000E-01	 7.00000000E+00

CELLS 32 288
	8 0 8 44 11 29 46 74 67 
	8 8 1 9 44 46 16 53 74 
	8 11 44 10 3 67 74 60 37 
	8 44 9 2 10 74 53 30 60 
	8 29 46 74 67 28 47 75 68 
	8 46 16 53 74 47 17 54 75 
	8 67 74 60 37 68 75 61 38 
	8 74 53 30 60 75 54 31 61 
	8 28 47 75 68 27 48 76 69 
	8 47 17 54 75 48 18 55 76 
	8 68 75 61 38 69 76 62 39 
	8 75 54 31 61 76 55 32 62 
	8 27 48 76 69 26 49 77 70 
	8 48 18 55 76 49 19 56 77 
	8 69 76 62 39 70 77 63 40 
	8 76 55 32 62 77 56 33 63 
	8 26 49 77 70 25 50 78 71 
	8 49 19 56 77 50 20 57 78 
	8 70 77 63 40 71 78 64 41 
	8 77 56 33 63 78 57 34 64 
	8 25 50 78 71 24 51 79 72 
	8 50 20 57 78 51 21 58 79 
	8 71 78 64 41 72 79 65 42 
	8 78 57 34 64 79 58 35 65 
	8 24 51 79 72 23 52 80 73 
	8 51 21 58 79 52 22 59 80 
	8 72 79 65 42 73 80 66 43 
	8 79 58 35 65 80 59 36 66 
	8 23 52 80 73 4 12 45 15 
	8 52 22 59 80 12 5 13 45 
	8 73 80 66 43 15 45 14 7 
	8 80 59 36 66 45 13 6 14 

CELL_TYPES 32
	12
	12
	12
	12
	12
	12
	12
	12
	12
	12
	12
	12
	12
	12
	12
	12
	12
	12
	12
	12
	12
	12
	12
	12
	12
	12
	12
	12
	12
	12
	12
	12

POINT_DATA 81
FIELD U 1
	U 3 81 double
		 0.00000000E+00	 0.00000000E+00	 0.00000000E+00
		 0.00000000E+00	 0.00000000E+00	 0.00000000E+00
		 0.00000000E+00	 0.00000000E+00	 0.00000000E+00
		 0.00000000E+00	 0.00000000E+00	 0.00000000E+00
		 2.33670000E-06	 2.39296000E-03	 3.31623000E-04
		-2.33670000E-06	 2.39296000E-03	 3.31623000E-04
		 2.33670000E-06	 2.39296000E-03	-3.31623000E-04
		-2.33670000E-06	 2.39296000E-03	-3.31623000E-04
		 0.00000000E+00	 0.00000000E+00	 0.00000000E+00
		 0.00000000E+00	 0.00000000E+00	 0.00000000E+00
		 0.00000000E+00	 0.00000000E+00	 0.00000000E+00
		 0.00000000E+00	 0.00000000E+00	 0.00000000E+00
		 4.85494000E-17	 2.39281000E-03	 3.31130000E-04
		 3.03365000E-17	 2.39121000E-03	-1.01315000E-18
		 1.23449000E-17	 2.39281000E-03	-3.31130000E-04
		 3.03237000E-17	 2.39121000E-03	 7.12672000E-18
		-1.41615000E-05	 5.88438000E-05	 7.25896000E-05
		-1.00523000E-05	 2.08368000E-04	 1.41292000E-04
		-8.57961000E-06	 4.44088000E-04	 1.99383000E-04
		-6.86988000E-06	 7.49644000E-04	 2.46812000E-04
		-5.12592000E-06	 1.11155000E-03	 2.83706000E-04
		-3.51124000E-06	 1.51559000E-03	 3.10110000E-04
		-1.29471000E-06	 1.94792000E-03	 3.25781000E-04
		 1.29471000E-06	 1.94792000E-03	 3.25781000E-04
		 3.51124000E-06	 1.51559000E-03	 3.10110000E-04
		 5.12592000E-06	 1.11155000E-03	 2.83706000E-04
		 6.86988000E-06	 7.49644000E-04	 2.46812000E-04
		 8.57961000E-06	 4.44088000E-04	 1.99383000E-04
		 1.00523000E-05	 2.08368000E-04	 1.41292000E-04
		 1.41615000E-05	 5.88438000E-05	 7.25896000E-05
		 1.41615000E-05	 5.88438000E-05	-7.25896000E-05
		 1.00523000E-05	 2.08368000E-04	-1.41292000E-04
		 8.57961000E-06	 4.44088000E-04	-1.99383000E-04
		 6.86988000E-06	 7.49644000E-04	-2.46812000E-04
		 5.12592000E-06	 1.11155000E-03	-2.83706000E-04
		 3.51124000E-06	 1.51559000E-03	-3.10110000E-04
		 1.29471000E-06	 1.94792000E-03	-3.25781000E-04
		-1.41615000E-05	 5.88438000E-05	-7.25896000E-05
		-1.00523000E-05	 2.08368000E-04	-1.41292000E-04
		-8.57961000E-06	 4.44088000E-04	-1.99383000E-04
		-6.86988000E-06	 7.49644000E-04	-2.46812000E-04
		-5.12592000E-06	 1.11155000E-03	-2.83706000E-04
		-3.51124000E-06	 1.51559000E-03	-3.10110000E-04
		-1.29471000E-06	 1.94792000E-03	-3.25781000E-04
		 0.00000000E+00	 0.00000000E+00	 0.00000000E+00
		 3.03238000E-17	 2.39922000E-03	 2.94929000E-18
		 2.45628000E-18	 6.33773000E-05	 7.12189000E-05
		 5.93235000E-18	 2.11817000E-04	 1.42147000E-04
		 1.00425000E-17	 4.46915000E-04	 1.99632000E-04
		 1.48659000E-17	 7.51936000E-04	 2.47160000E-04
		 2.07801000E-17	 1.11328000E-03	 2.84071000E-04
		 2.85713000E-17	 1.51665000E-03	 3.10376000E-04
		 3.91113000E-17	 1.94870000E-03	 3.26370000E-04
		 2.89505000E-19	 4.90193000E-05	 1.06475000E-19
		 1.29193000E-18	 2.01965000E-04	 2.60560000E-19
		 2.87002000E-18	 4.38250000E-04	 3.95746000E-19
		 5.31598000E-18	 7.45095000E-04	 4.38937000E-19
		 9.16530000E-18	 1.10814000E-03	-1.39395000E-19
		 1.47345000E-17	 1.51317000E-03	-6.09864000E-19
		 2.24294000E-17	 1.94726000E-03	-9.77326000E-19
		-1.87260000E-18	 6.33773000E-05	-7.12189000E-05
		-3.40084000E-18	 2.11817000E-04	-1.42147000E-04
		-4.46350000E-18	 4.46915000E-04	-1.99632000E-04
		-4.64513000E-18	 7.51936000E-04	-2.47160000E-04
		-3.47622000E-18	 1.11328000E-03	-2.84071000E-04
		 1.62391000E-20	 1.51665000E-03	-3.10376000E-04
		 5.13641000E-18	 1.94870000E-03	-3.26370000E-04
		 4.68246000E-19	 4.90193000E-05	 7.55553000E-19
		 1.39379000E-18	 2.01965000E-04	 1.55515000E-18
		 3.12399000E-18	 4.38250000E-04	 2.43607000E-18
		 5.19397000E-18	 7.45095000E-04	 3.41370000E-18
		 9.00565000E-18	 1.10814000E-03	 4.75694000E-18
		 1.47079000E-17	 1.51317000E-03	 6.22061000E-18
		 2.26059000E-17	 1.94726000E-03	 7.10253000E-18
		 3.51264000E-19	 5.35203000E-05	 4.13476000E-19
		 1.30440000E-18	 2.05290000E-04	 9.30042000E-19
		 3.01229000E-18	 4.41142000E-04	 1.43701000E-18
		 5.18384000E-18	 7.47387000E-04	 1.93927000E-18
		 8.98154000E-18	 1.10978000E-03	 2.26031000E-18
		 1.45733000E-17	 1.51470000E-03	 2.83925000E-18
		 2.26056000E-17	 1.94609000E-03	 3.12294000E-18
FIELD S 1
	S 10 81 double
		 8.79439000E+00	 8.79440000E+00	 2.05201000E+01	-2.14093000E-06	 4.75272000E+00	 1.14380000E+00	 1.44631267E+01	 7.02379361E+00	 8.79439152E+00	 2.22907049E+01
		 8.79439000E+00	 8.79440000E+00	 2.05201000E+01	 2.14093000E-06	 4.75272000E+00	-1.14380000E+00	 1.44631267E+01	 7.02379361E+00	 8.79439152E+00	 2.22907049E+01
		-8.79439000E+00	-8.79440000E+00	-2.05201000E+01	 2.14093000E-06	 4.75272000E+00	 1.14380000E+00	 1.44631267E+01	-2.22907049E+01	-8.79439152E+00	-7.02379361E+00
		-8.79439000E+00	-8.79440000E+00	-2.05201000E+01	-2.14093000E-06	 4.75272000E+00	-1.14380000E+00	 1.44631267E+01	-2.22907049E+01	-8.79439152E+00	-7.02379361E+00
		-8.95904000E-01	-5.17674000E-01	 8.02643000E-01	-2.74472000E-01	 2.31992000E-01	 4.61575000E-03	 1.66529512E+00	-1.04711663E+00	-4.07064614E-01	 8.43246247E-01
		-8.95904000E-01	-5.17674000E-01	 8.02643000E-01	 2.74472000E-01	 2.31992000E-01	-4.61575000E-03	 1.66529512E+00	-1.04711663E+00	-4.07064614E-01	 8.43246247E-01
		 8.95904000E-01	 5.17674000E-01	-8.02643000E-01	 2.74472000E-01	 2.31992000E-01	 4.61575000E-03	 1.66529512E+00	-8.43246247E-01	 4.07064614E-01	 1.04711663E+00
		 8.95904000E-01	 5.17674000E-01	-8.02643000E-01	-2.74472000E-01	 2.31992000E-01	-4.61575000E-03	 1.66529512E+00	-8.43246247E-01	 4.07064614E-01	 1.04711663E+00
		 8.62833000E+00	 8.62833000E+00	 2.01326000E+01	-7.11237000E-17	 5.11888000E+00	 1.98176000E-13	 1.45243597E+01	 6.68046568E+00	 8.62833000E+00	 2.20804643E+01
		 1.34615000E-14	 1.24067000E-14	 3.04201000E-14	 2.15957000E-06	 3.95920000E+00	 2.33633000E-14	 6.85753556E+00	-3.95920000E+00	 1.34614745E-14	 3.95920000E+00
		-8.62833000E+00	-8.62833000E+00	-2.01326000E+01	 2.08167000E-17	 5.11888000E+00	-1.51091000E-13	 1.45243597E+01	-2.20804643E+01	-8.62833000E+00	-6.68046568E+00
		 9.08822000E-14	 9.13991000E-14	 2.13440000E-13	-2.15957000E-06	 3.95920000E+00	 3.77107000E-14	 6.85753556E+00	-3.95920000E+00	 9.08822413E-14	 3.95920000E+00
		 2.89687000E-01	 2.42348000E+00	 1.81346000E+00	 8.90329000E-14	 2.10997000E-01	 6.08749000E-14	 1.93832396E+00	 2.89687000E-01	 1.74759154E+00	 2.48934846E+00
		-3.87190000E-14	-1.05416000E-13	-4.17166000E-14	-1.04220000E+00	 1.43776000E-01	-1.70437000E-15	 1.82223959E+00	-1.05207052E+00	-4.24105195E-14	 1.05207052E+00
		-2.89687000E-01	-2.42348000E+00	-1.81346000E+00	-2.46105000E-14	 2.10997000E-01	-4.74482000E-14	 1.93832396E+00	-2.48934846E+00	-1.74759154E+00	-2.89687000E-01
		-2.62568000E-14	-5.98410000E-14	-2.76168000E-14	 1.04220000E+00	 1.43776000E-01	-5.32963000E-14	 1.82223959E+00	-1.05207052E+00	-1.31265389E-14	 1.05207052E+00
		-1.03468000E+00	 1.42451000E+00	 1.49523000E+01	 7.92748000E-01	 5.97511000E-01	-1.84534000E-01	 1.50124844E+01	-1.27548961E+00	 1.63758071E+00	 1.49800389E+01
		 9.62933000E-01	 2.83135000E+00	 1.44513000E+01	 5.25480000E-01	 3.41804000E-01	 8.73798000E-02	 1.27053892E+01	 8.25285428E-01	 2.95816810E+00	 1.44621295E+01
		 5.98275000E-01	 2.11279000E+00	 1.18926000E+01	 4.67264000E-01	 3.87176000E-01	 8.82465000E-02	 1.06713726E+01	 4.65677289E-01	 2.22907638E+00	 1.19089113E+01
		 4.89002000E-01	 1.72864000E+00	 9.51898000E+00	 3.69556000E-01	 3.75223000E-01	 8.32372000E-02	 8.52855077E+00	 3.87151097E-01	 1.81133324E+00	 9.53813766E+00
		 3.86109000E-01	 1.30862000E+00	 7.15453000E+00	 2.71618000E-01	 3.79354000E-01	 7.66668000E-02	 6.41009340E+00	 3.11977533E-01	 1.35693369E+00	 7.18034777E+00
		 1.73801000E-01	 7.88473000E-01	 4.70649000E+00	 2.06092000E-01	 3.80169000E-01	 1.11775000E-01	 4.32844803E+00	 1.11094205E-01	 8.10873014E-01	 4.74679678E+00
		 4.65070000E-01	 7.41912000E-01	 2.62086000E+00	 1.42066000E-02	 3.48113000E-01	-4.77939000E-02	 2.12091137E+00	 4.61867544E-01	 6.81799308E-01	 2.68417515E+00
		 4.65070000E-01	 7.41912000E-01	 2.62086000E+00	-1.42066000E-02	 3.48113000E-01	 4.77939000E-02	 2.12091137E+00	 4.61867544E-01	 6.81799308E-01	 2.68417515E+00
		 1.73801000E-01	 7.88473000E-01	 4.70649000E+00	-2.06092000E-01	 3.80169000E-01	-1.11775000E-01	 4.32844803E+00	 1.11094205E-01	 8.10873014E-01	 4.74679678E+00
		 3.86109000E-01	 1.30862000E+00	 7.15453000E+00	-2.71618000E-01	 3.79354000E-01	-7.66668000E-02	 6.41009340E+00	 3.11977533E-01	 1.35693369E+00	 7.18034777E+00
		 4.89002000E-01	 1.72864000E+00	 9.51898000E+00	-3.69556000E-01	 3.75223000E-01	-8.32372000E-02	 8.52855077E+00	 3.87151097E-01	 1.81133324E+00	 9.53813766E+00
		 5.98275000E-01	 2.11279000E+00	 1.18926000E+01	-4.67264000E-01	 3.87176000E-01	-8.82465000E-02	 1.06713726E+01	 4.65677289E-01	 2.22907638E+00	 1.19089113E+01
		 9.62933000E-01	 2.83135000E+00	 1.44513000E+01	-5.25480000E-01	 3.41804000E-01	-8.73798000E-02	 1.27053892E+01	 8.25285428E-01	 2.95816810E+00	 1.44621295E+01
		-1.03468000E+00	 1.42451000E+00	 1.49523000E+01	-7.92748000E-01	 5.97511000E-01	 1.84534000E-01	 1.50124844E+01	-1.27548961E+00	 1.63758071E+00	 1.49800389E+01
		 1.03468000E+00	-1.42451000E+00	-1.49523000E+01	 7.92748000E-01	 5.97511000E-01	 1.84534000E-01	 1.50124844E+01	-1.49800389E+01	-1.63758071E+00	 1.27548961E+00
		-9.62933000E-01	-2.83135000E+00	-1.44513000E+01	 5.25480000E-01	 3.41804000E-01	-8.73798000E-02	 1.27053892E+01	-1.44621295E+01	-2.95816810E+00	-8.25285428E-01
		-5.98275000E-01	-2.11279000E+00	-1.18926000E+01	 4.67264000E-01	 3.87176000E-01	-8.82465000E-02	 1.06713726E+01	-1.19089113E+01	-2.22907638E+00	-4.65677289E-01
		-4.89002000E-01	-1.72864000E+00	-9.51898000E+00	 3.69556000E-01	 3.75223000E-01	-8.32372000E-02	 8.52855077E+00	-9.53813766E+00	-1.81133324E+00	-3.87151097E-01
		-3.86109000E-01	-1.30862000E+00	-7.15453000E+00	 2.71618000E-01	 3.79354000E-01	-7.66668000E-02	 6.41009340E+00	-7.18034777E+00	-1.35693369E+00	-3.11977533E-01
		-1.73801000E-01	-7.88473000E-01	-4.70649000E+00	 2.06092000E-01	 3.80169000E-01	-1.11775000E-01	 4.32844803E+00	-4.74679678E+00	-8.10873014E-01	-1.11094205E-01
		-4.65070000E-01	-7.41912000E-01	-2.62086000E+00	 1.42066000E-02	 3.48113000E-01	 4.77939000E-02	 2.12091137E+00	-2.68417515E+00	-6.81799308E-01	-4.61867544E-01
		 1.03468000E+00	-1.42451000E+00	-1.49523000E+01	-7.92748000E-01	 5.97511000E-01	-1.84534000E-01	 1.50124844E+01	-1.49800389E+01	-1.63758071E+00	 1.27548961E+00
		-9.62933000E-01	-2.83135000E+00	-1.44513000E+01	-5.25480000E-01	 3.41804000E-01	 8.73798000E-02	 1.27053892E+01	-1.44621295E+01	-2.95816810E+00	-8.25285428E-01
		-5.98275000E-01	-2.11279000E+00	-1.18926000E+01	-4.67264000E-01	 3.87176000E-01	 8.82465000E-02	 1.06713726E+01	-1.19089113E+01	-2.22907638E+00	-4.65677289E-01
		-4.89002000E-01	-1.72864000E+00	-9.51898000E+00	-3.69556000E-01	 3.75223000E-01	 8.32372000E-02	 8.52855077E+00	-9.53813766E+00	-1.81133324E+00	-3.87151097E-01
		-3.86109000E-01	-1.30862000E+00	-7.15453000E+00	-2.71618000E-01	 3.79354000E-01	 7.66668000E-02	 6.41009340E+00	-7.18034777E+00	-1.35693369E+00	-3.11977533E-01
		-1.73801000E-01	-7.88473000E-01	-4.70649000E+00	-2.06092000E-01	 3.80169000E-01	 1.11775000E-01	 4.32844803E+00	-4.74679678E+00	-8.10873014E-01	-1.11094205E-01
		-4.65070000E-01	-7.41912000E-01	-2.62086000E+00	-1.42066000E-02	 3.48113000E-01	-4.77939000E-02	 2.12091137E+00	-2.68417515E+00	-6.81799308E-01	-4.61867544E-01
		 5.01734000E-14	 4.99323000E-14	 1.18142000E-13	-2.60209000E-18	 4.32274000E+00	 2.83731000E-14	 7.48720531E+00	-4.32274000E+00	 5.01734000E-14	 4.32274000E+00
		 2.43139000E-14	 7.41629000E-14	-2.10942000E-15	-3.84137000E-14	 9.38117000E-01	-3.51062000E-14	 1.62486631E+00	-9.38117000E-01	 2.43139000E-14	 9.38117000E-01
		-9.88170000E-01	 1.46401000E+00	 1.50678000E+01	-1.11022000E-15	 8.84388000E-01	 1.22555000E-13	 1.50592715E+01	-9.88170000E-01	 1.40675653E+00	 1.51250535E+01
		 1.04111000E+00	 2.88292000E+00	 1.46603000E+01	-2.77556000E-17	 1.80869000E-01	 1.17184000E-13	 1.28019054E+01	 1.04111000E+00	 2.88014299E+00	 1.46630770E+01
		 5.78091000E-01	 2.10659000E+00	 1.18316000E+01	-1.64591000E-14	 3.13630000E-01	 1.20638000E-13	 1.05864011E+01	 5.78091000E-01	 2.09648598E+00	 1.18417040E+01
		 4.96007000E-01	 1.73563000E+00	 9.53533000E+00	-3.21965000E-15	 2.93660000E-01	 1.26104000E-13	 8.50290429E+00	 4.96007000E-01	 1.72458928E+00	 9.54637072E+00
		 3.64891000E-01	 1.26576000E+00	 7.12667000E+00	-9.53404000E-15	 2.90483000E-01	 1.09321000E-13	 6.37925421E+00	 3.64891000E-01	 1.25139805E+00	 7.14103195E+00
		 2.61448000E-01	 9.74853000E-01	 4.81227000E+00	-5.19099000E-14	 3.12745000E-01	 1.31681000E-13	 4.27384800E+00	 2.61448000E-01	 9.49531731E-01	 4.83759127E+00
		 1.05131000E-01	-3.67003000E-02	 2.19968000E+00	-2.86507000E-14	 2.35913000E-01	 7.76358000E-14	 2.20709970E+00	-6.13155381E-02	 1.05131000E-01	 2.22429524E+00
		-2.29261000E-14	-8.88178000E-15	 1.99840000E-14	 7.98002000E-01	 3.38908000E-01	 2.42167000E-15	 1.50166490E+00	-8.66986635E-01	 1.16713155E-14	 8.66986635E-01
		 6.10623000E-16	-1.14353000E-14	 3.14193000E-14	 5.45437000E-01	 5.02809000E-01	-4.53327000E-15	 1.28489503E+00	-7.41834491E-01	 2.13197515E-14	 7.41834491E-01
		-5.50671000E-14	 4.32987000E-15	 1.33782000E-14	 4.56772000E-01	 4.62058000E-01	-6.62057000E-15	 1.12535095E+00	-6.49721675E-01	-1.45803508E-14	 6.49721675E-01
		 3.25850000E-14	-3.07532000E-14	-4.67126000E-14	 3.69563000E-01	 4.73436000E-01	 1.14299000E-14	 1.04026697E+00	-6.00598416E-01	-8.32976266E-15	 6.00598416E-01
		 1.52822000E-13	 2.35090000E-13	 1.70974000E-14	 2.87851000E-01	 4.65627000E-01	-6.51259000E-15	 9.48156160E-01	-5.47418214E-01	 1.21120128E-13	 5.47418214E-01
		 5.06956000E-14	 5.99520000E-15	-6.27831000E-14	 1.32042000E-01	 4.91187000E-01	-2.09472000E-14	 8.80964969E-01	-5.08625362E-01	 5.35400275E-14	 5.08625362E-01
		-5.59656000E-14	 8.19900000E-14	-2.17673000E-14	 3.28212000E-01	 3.74932000E-01	-3.16236000E-14	 8.63070892E-01	-4.98294212E-01	-9.91220994E-15	 4.98294212E-01
		 9.88170000E-01	-1.46401000E+00	-1.50678000E+01	 1.38500000E-14	 8.84388000E-01	-1.19134000E-13	 1.50592715E+01	-1.51250535E+01	-1.40675653E+00	 9.88170000E-01
		-1.04111000E+00	-2.88292000E+00	-1.46603000E+01	-2.44249000E-15	 1.80869000E-01	-1.28841000E-13	 1.28019054E+01	-1.46630770E+01	-2.88014299E+00	-1.04111000E+00
		-5.78091000E-01	-2.10659000E+00	-1.18316000E+01	 1.76248000E-15	 3.13630000E-01	-1.32587000E-13	 1.05864011E+01	-1.18417040E+01	-2.09648598E+00	-5.78091000E-01
		-4.96007000E-01	-1.73563000E+00	-9.53533000E+00	 2.64233000E-14	 2.93660000E-01	-1.36533000E-13	 8.50290429E+00	-9.54637072E+00	-1.72458928E+00	-4.96007000E-01
		-3.64891000E-01	-1.26576000E+00	-7.12667000E+00	 6.11039000E-14	 2.90483000E-01	-1.00380000E-13	 6.37925421E+00	-7.14103195E+00	-1.25139805E+00	-3.64891000E-01
		-2.61448000E-01	-9.74853000E-01	-4.81227000E+00	 2.18020000E-14	 3.12745000E-01	-1.26555000E-13	 4.27384800E+00	-4.83759127E+00	-9.49531731E-01	-2.61448000E-01
		-1.05131000E-01	 3.67003000E-02	-2.19968000E+00	 3.01981000E-14	 2.35913000E-01	-9.71445000E-14	 2.20709970E+00	-2.22429524E+00	-1.05131000E-01	 6.13155381E-02
		-6.88338000E-15	-1.45439000E-14	 1.55320000E-13	-7.98002000E-01	 3.38908000E-01	 9.44177000E-16	 1.50166490E+00	-8.66986635E-01	 1.31200606E-13	 8.66986635E-01
		 3.14748000E-14	 3.53051000E-14	 1.95233000E-13	-5.45437000E-01	 5.02809000E-01	 7.01121000E-15	 1.28489503E+00	-7.41834491E-01	 1.26876808E-13	 7.41834491E-01
		-5.38458000E-15	-3.81917000E-14	 1.78024000E-13	-4.56772000E-01	 4.62058000E-01	-8.03798000E-15	 1.12535095E+00	-6.49721675E-01	 7.72203482E-14	 6.49721675E-01
		 7.89646000E-14	 1.09357000E-14	 2.67175000E-13	-3.69563000E-01	 4.73436000E-01	 1.00516000E-15	 1.04026697E+00	-6.00598416E-01	 1.51205166E-13	 6.00598416E-01
		 1.09190000E-13	 5.67879000E-14	 3.42060000E-13	-2.87851000E-01	 4.65627000E-01	-2.14703000E-14	 9.48156160E-01	-5.47418214E-01	 1.54374519E-13	 5.47418214E-01
		-1.07789000E-13	-2.88602000E-13	 1.16726000E-13	-1.32042000E-01	 4.91187000E-01	 4.07042000E-15	 8.80964969E-01	-5.08625362E-01	-9.06187729E-14	 5.08625362E-01
		 2.07612000E-14	-1.95122000E-14	 8.91891000E-14	-3.28212000E-01	 3.74932000E-01	-1.22856000E-14	 8.63070892E-01	-4.98294212E-01	 3.83701317E-14	 4.98294212E-01
		-1.19904000E-14	-7.16094000E-15	 9.24261000E-14	 1.06165000E-14	 6.20796000E-01	 2.19985000E-16	 1.07525021E+00	-6.20796000E-01	-1.19904000E-14	 6.20796000E-01
		 7.91034000E-15	-9.54792000E-15	 1.07303000E-13	 3.62210000E-15	 3.45810000E-01	 3.04094000E-15	 5.98960490E-01	-3.45810000E-01	 7.91034000E-15	 3.45810000E-01
		-3.33622000E-14	-2.28706000E-14	 8.87623000E-14	-5.24580000E-15	 3.93499000E-01	-8.61805000E-15	 6.81560261E-01	-3.93499000E-01	-3.33622000E-14	 3.93499000E-01
		 5.49977000E-14	-4.08007000E-15	 1.02127000E-13	 5.48658000E-14	 3.85191000E-01	 1.41049000E-15	 6.67170383E-01	-3.85191000E-01	 5.49977000E-14	 3.85191000E-01
		 3.47361000E-14	-7.79099000E-14	 8.21010000E-14	-1.51684000E-14	 3.95270000E-01	-1.70460000E-14	 6.84627723E-01	-3.95270000E-01	 3.47361000E-14	 3.95270000E-01
		-1.53350000E-14	-1.22347000E-13	 5.24719000E-14	-7.71952000E-15	 3.49320000E-01	-6.78006000E-16	 6.05039988E-01	-3.49320000E-01	-1.53350000E-14	 3.49320000E-01
		 4.62130000E-15	 9.67976000E-14	 4.19040000E-14	-1.38674000E-14	 5.73386000E-01	-1.62368000E-14	 9.93133684E-01	-5.73386000E-01	 4.62130000E-15	 5.73386000E-01
FIELD ERROR 1
	ERROR 1 81 double
		 6.08651000E+01
		 6.08651000E+01
		 6.08651000E+01
		 6.08651000E+01
		 4.70004000E+01
		 4.70004000E+01
		 4.70004000E+01
		 4.70004000E+01
		 6.08651000E+01
		 6.08651000E+01
		 6.08651000E+01
		 6.08651000E+01
		 4.70004000E+01
		 4.70004000E+01
		 4.70004000E+01
		 4.70004000E+01
		 6.08651000E+01
		 5.79534000E+01
		 5.84113000E+01
		 5.91987000E+01
		 6.00778000E+01
		 6.23107000E+01
		 6.23107000E+01
		 6.23107000E+01
		 6.23107000E+01
		 6.00778000E+01
		 5.91987000E+01
		 5.84113000E+01
		 5.79534000E+01
		 6.08651000E+01
		 6.08651000E+01
		 5.79534000E+01
		 5.84113000E+01
		 5.91987000E+01
		 6.00778000E+01
		 6.23107000E+01
		 6.23107000E+01
		 6.08651000E+01
		 5.79534000E+01
		 5.84113000E+01
		 5.91987000E+01
		 6.00778000E+01
		 6.23107000E+01
		 6.23107000E+01
		 6.08651000E+01
		 4.70004000E+01
		 6.08651000E+01
		 5.79534000E+01
		 5.84113000E+01
		 5.91987000E+01
		 6.00778000E+01
		 6.23107000E+01
		 6.23107000E+01
		 6.08651000E+01
		 5.79534000E+01
		 5.84113000E+01
		 5.91987000E+01
		 6.00778000E+01
		 6.23107000E+01
		 6.23107000E+01
		 6.08651000E+01
		 5.79534000E+01
		 5.84113000E+01
		 5.91987000E+01
		 6.00778000E+01
		 6.23107000E+01
		 6.23107000E+01
		 6.08651000E+01
		 5.79534000E+01
		 5.84113000E+01
		 5.91987000E+01
		 6.00778000E+01
		 6.23107000E+01
		 6.23107000E+01
		 6.08651000E+01
		 5.79534000E+01
		 5.84113000E+01
		 5.91987000E+01
		 6.00778000E+01
		 6.23107000E+01
		 6.23107000E+01
