<?xml version="1.0"?>
<VTKFile type="UnstructuredGrid" version="0.1" byte_order="LittleEndian">
	<UnstructuredGrid>
		<Piece NumberOfPoints="261" NumberOfCells="32">
			<Points>
				<DataArray type="Float64" NumberOfComponents="3" format="ascii">
					 0.00000000E+00	 0.00000000E+00	 0.00000000E+00
					 1.00000000E+00	 0.00000000E+00	 0.00000000E+00
					 1.00000000E+00	 1.00000000E+00	 0.00000000E+00
					 0.00000000E+00	 1.00000000E+00	 0.00000000E+00
					 0.00000000E+00	 0.00000000E+00	 8.00000000E+00
					 1.00000000E+00	 0.00000000E+00	 8.00000000E+00
					 1.00000000E+00	 1.00000000E+00	 8.00000000E+00
					 0.00000000E+00	 1.00000000E+00	 8.00000000E+00
					 2.50000000E-01	 0.00000000E+00	 0.00000000E+00
					 5.00000000E-01	 0.00000000E+00	 0.00000000E+00
					 7.50000000E-01	 0.00000000E+00	 0.00000000E+00
					 1.00000000E+00	 2.50000000E-01	 0.00000000E+00
					 1.00000000E+00	 5.00000000E-01	 0.00000000E+00
					 1.00000000E+00	 7.50000000E-01	 0.00000000E+00
					 7.50000000E-01	 1.00000000E+00	 0.00000000E+00
					 5.00000000E-01	 1.00000000E+00	 0.00000000E+00
					 2.50000000E-01	 1.00000000E+00	 0.00000000E+00
					 0.00000000E+00	 7.50000000E-01	 0.00000000E+00
					 0.00000000E+00	 5.00000000E-01	 0.00000000E+00
					 0.00000000E+00	 2.50000000E-01	 0.00000000E+00
					 2.50000000E-01	 0.00000000E+00	 8.00000000E+00
					 5.00000000E-01	 0.00000000E+00	 8.00000000E+00
					 7.50000000E-01	 0.00000000E+00	 8.00000000E+00
					 1.00000000E+00	 2.50000000E-01	 8.00000000E+00
					 1.00000000E+00	 5.00000000E-01	 8.00000000E+00
					 1.00000000E+00	 7.50000000E-01	 8.00000000E+00
					 7.50000000E-01	 1.00000000E+00	 8.00000000E+00
					 5.00000000E-01	 1.00000000E+00	 8.00000000E+00
					 2.50000000E-01	 1.00000000E+00	 8.00000000E+00
					 0.00000000E+00	 7.50000000E-01	 8.00000000E+00
					 0.00000000E+00	 5.00000000E-01	 8.00000000E+00
					 0.00000000E+00	 2.50000000E-01	 8.00000000E+00
					 1.00000000E+00	 0.00000000E+00	 5.00000000E-01
					 1.00000000E+00	 0.00000000E+00	 1.00000000E+00
					 1.00000000E+00	 0.00000000E+00	 1.50000000E+00
					 1.00000000E+00	 0.00000000E+00	 2.00000000E+00
					 1.00000000E+00	 0.00000000E+00	 2.50000000E+00
					 1.00000000E+00	 0.00000000E+00	 3.00000000E+00
					 1.00000000E+00	 0.00000000E+00	 3.50000000E+00
					 1.00000000E+00	 0.00000000E+00	 4.00000000E+00
					 1.00000000E+00	 0.00000000E+00	 4.50000000E+00
					 1.00000000E+00	 0.00000000E+00	 5.00000000E+00
					 1.00000000E+00	 0.00000000E+00	 5.50000000E+00
					 1.00000000E+00	 0.00000000E+00	 6.00000000E+00
					 1.00000000E+00	 0.00000000E+00	 6.50000000E+00
					 1.00000000E+00	 0.00000000E+00	 7.00000000E+00
					 1.00000000E+00	 0.00000000E+00	 7.50000000E+00
					 0.00000000E+00	 0.00000000E+00	 7.50000000E+00
					 0.00000000E+00	 0.00000000E+00	 7.00000000E+00
					 0.00000000E+00	 0.00000000E+00	 6.50000000E+00
					 0.00000000E+00	 0.00000000E+00	 6.00000000E+00
					 0.00000000E+00	 0.00000000E+00	 5.50000000E+00
					 0.00000000E+00	 0.00000000E+00	 5.00000000E+00
					 0.00000000E+00	 0.00000000E+00	 4.50000000E+00
					 0.00000000E+00	 0.00000000E+00	 4.00000000E+00
					 0.00000000E+00	 0.00000000E+00	 3.50000000E+00
					 0.00000000E+00	 0.00000000E+00	 3.00000000E+00
					 0.00000000E+00	 0.00000000E+00	 2.50000000E+00
					 0.00000000E+00	 0.00000000E+00	 2.00000000E+00
					 0.00000000E+00	 0.00000000E+00	 1.50000000E+00
					 0.00000000E+00	 0.00000000E+00	 1.00000000E+00
					 0.00000000E+00	 0.00000000E+00	 5.00000000E-01
					 1.00000000E+00	 1.00000000E+00	 5.00000000E-01
					 1.00000000E+00	 1.00000000E+00	 1.00000000E+00
					 1.00000000E+00	 1.00000000E+00	 1.50000000E+00
					 1.00000000E+00	 1.00000000E+00	 2.00000000E+00
					 1.00000000E+00	 1.00000000E+00	 2.50000000E+00
					 1.00000000E+00	 1.00000000E+00	 3.00000000E+00
					 1.00000000E+00	 1.00000000E+00	 3.50000000E+00
					 1.00000000E+00	 1.00000000E+00	 4.00000000E+00
					 1.00000000E+00	 1.00000000E+00	 4.50000000E+00
					 1.00000000E+00	 1.00000000E+00	 5.00000000E+00
					 1.00000000E+00	 1.00000000E+00	 5.50000000E+00
					 1.00000000E+00	 1.00000000E+00	 6.00000000E+00
					 1.00000000E+00	 1.00000000E+00	 6.50000000E+00
					 1.00000000E+00	 1.00000000E+00	 7.00000000E+00
					 1.00000000E+00	 1.00000000E+00	 7.50000000E+00
					 0.00000000E+00	 1.00000000E+00	 5.00000000E-01
					 0.00000000E+00	 1.00000000E+00	 1.00000000E+00
					 0.00000000E+00	 1.00000000E+00	 1.50000000E+00
					 0.00000000E+00	 1.00000000E+00	 2.00000000E+00
					 0.00000000E+00	 1.00000000E+00	 2.50000000E+00
					 0.00000000E+00	 1.00000000E+00	 3.00000000E+00
					 0.00000000E+00	 1.00000000E+00	 3.50000000E+00
					 0.00000000E+00	 1.00000000E+00	 4.00000000E+00
					 0.00000000E+00	 1.00000000E+00	 4.50000000E+00
					 0.00000000E+00	 1.00000000E+00	 5.00000000E+00
					 0.00000000E+00	 1.00000000E+00	 5.50000000E+00
					 0.00000000E+00	 1.00000000E+00	 6.00000000E+00
					 0.00000000E+00	 1.00000000E+00	 6.50000000E+00
					 0.00000000E+00	 1.00000000E+00	 7.00000000E+00
					 0.00000000E+00	 1.00000000E+00	 7.50000000E+00
					 5.00000000E-01	 2.50000000E-01	 0.00000000E+00
					 2.50000000E-01	 5.00000000E-01	 0.00000000E+00
					 5.00000000E-01	 5.00000000E-01	 0.00000000E+00
					 7.50000000E-01	 5.00000000E-01	 0.00000000E+00
					 5.00000000E-01	 7.50000000E-01	 0.00000000E+00
					 5.00000000E-01	 2.50000000E-01	 8.00000000E+00
					 2.50000000E-01	 5.00000000E-01	 8.00000000E+00
					 5.00000000E-01	 5.00000000E-01	 8.00000000E+00
					 7.50000000E-01	 5.00000000E-01	 8.00000000E+00
					 5.00000000E-01	 7.50000000E-01	 8.00000000E+00
					 5.00000000E-01	 0.00000000E+00	 5.00000000E-01
					 2.50000000E-01	 0.00000000E+00	 1.00000000E+00
					 5.00000000E-01	 0.00000000E+00	 1.00000000E+00
					 7.50000000E-01	 0.00000000E+00	 1.00000000E+00
					 5.00000000E-01	 0.00000000E+00	 1.50000000E+00
					 2.50000000E-01	 0.00000000E+00	 2.00000000E+00
					 5.00000000E-01	 0.00000000E+00	 2.00000000E+00
					 7.50000000E-01	 0.00000000E+00	 2.00000000E+00
					 5.00000000E-01	 0.00000000E+00	 2.50000000E+00
					 2.50000000E-01	 0.00000000E+00	 3.00000000E+00
					 5.00000000E-01	 0.00000000E+00	 3.00000000E+00
					 7.50000000E-01	 0.00000000E+00	 3.00000000E+00
					 5.00000000E-01	 0.00000000E+00	 3.50000000E+00
					 2.50000000E-01	 0.00000000E+00	 4.00000000E+00
					 5.00000000E-01	 0.00000000E+00	 4.00000000E+00
					 7.50000000E-01	 0.00000000E+00	 4.00000000E+00
					 5.00000000E-01	 0.00000000E+00	 4.50000000E+00
					 2.50000000E-01	 0.00000000E+00	 5.00000000E+00
					 5.00000000E-01	 0.00000000E+00	 5.00000000E+00
					 7.50000000E-01	 0.00000000E+00	 5.00000000E+00
					 5.00000000E-01	 0.00000000E+00	 5.50000000E+00
					 2.50000000E-01	 0.00000000E+00	 6.00000000E+00
					 5.00000000E-01	 0.00000000E+00	 6.00000000E+00
					 7.50000000E-01	 0.00000000E+00	 6.00000000E+00
					 5.00000000E-01	 0.00000000E+00	 6.50000000E+00
					 2.50000000E-01	 0.00000000E+00	 7.00000000E+00
					 5.00000000E-01	 0.00000000E+00	 7.00000000E+00
					 7.50000000E-01	 0.00000000E+00	 7.00000000E+00
					 5.00000000E-01	 0.00000000E+00	 7.50000000E+00
					 1.00000000E+00	 5.00000000E-01	 5.00000000E-01
					 1.00000000E+00	 2.50000000E-01	 1.00000000E+00
					 1.00000000E+00	 5.00000000E-01	 1.00000000E+00
					 1.00000000E+00	 7.50000000E-01	 1.00000000E+00
					 1.00000000E+00	 5.00000000E-01	 1.50000000E+00
					 1.00000000E+00	 2.50000000E-01	 2.00000000E+00
					 1.00000000E+00	 5.00000000E-01	 2.00000000E+00
					 1.00000000E+00	 7.50000000E-01	 2.00000000E+00
					 1.00000000E+00	 5.00000000E-01	 2.50000000E+00
					 1.00000000E+00	 2.50000000E-01	 3.00000000E+00
					 1.00000000E+00	 5.00000000E-01	 3.00000000E+00
					 1.00000000E+00	 7.50000000E-01	 3.00000000E+00
					 1.00000000E+00	 5.00000000E-01	 3.50000000E+00
					 1.00000000E+00	 2.50000000E-01	 4.00000000E+00
					 1.00000000E+00	 5.00000000E-01	 4.00000000E+00
					 1.00000000E+00	 7.50000000E-01	 4.00000000E+00
					 1.00000000E+00	 5.00000000E-01	 4.50000000E+00
					 1.00000000E+00	 2.50000000E-01	 5.00000000E+00
					 1.00000000E+00	 5.00000000E-01	 5.00000000E+00
					 1.00000000E+00	 7.50000000E-01	 5.00000000E+00
					 1.00000000E+00	 5.00000000E-01	 5.50000000E+00
					 1.00000000E+00	 2.50000000E-01	 6.00000000E+00
					 1.00000000E+00	 5.00000000E-01	 6.00000000E+00
					 1.00000000E+00	 7.50000000E-01	 6.00000000E+00
					 1.00000000E+00	 5.00000000E-01	 6.50000000E+00
					 1.00000000E+00	 2.50000000E-01	 7.00000000E+00
					 1.00000000E+00	 5.00000000E-01	 7.00000000E+00
					 1.00000000E+00	 7.50000000E-01	 7.00000000E+00
					 1.00000000E+00	 5.00000000E-01	 7.50000000E+00
					 5.00000000E-01	 1.00000000E+00	 5.00000000E-01
					 7.50000000E-01	 1.00000000E+00	 1.00000000E+00
					 5.00000000E-01	 1.00000000E+00	 1.00000000E+00
					 2.50000000E-01	 1.00000000E+00	 1.00000000E+00
					 5.00000000E-01	 1.00000000E+00	 1.50000000E+00
					 7.50000000E-01	 1.00000000E+00	 2.00000000E+00
					 5.00000000E-01	 1.00000000E+00	 2.00000000E+00
					 2.50000000E-01	 1.00000000E+00	 2.00000000E+00
					 5.00000000E-01	 1.00000000E+00	 2.50000000E+00
					 7.50000000E-01	 1.00000000E+00	 3.00000000E+00
					 5.00000000E-01	 1.00000000E+00	 3.00000000E+00
					 2.50000000E-01	 1.00000000E+00	 3.00000000E+00
					 5.00000000E-01	 1.00000000E+00	 3.50000000E+00
					 7.50000000E-01	 1.00000000E+00	 4.00000000E+00
					 5.00000000E-01	 1.00000000E+00	 4.00000000E+00
					 2.50000000E-01	 1.00000000E+00	 4.00000000E+00
					 5.00000000E-01	 1.00000000E+00	 4.50000000E+00
					 7.50000000E-01	 1.00000000E+00	 5.00000000E+00
					 5.00000000E-01	 1.00000000E+00	 5.00000000E+00
					 2.50000000E-01	 1.00000000E+00	 5.00000000E+00
					 5.00000000E-01	 1.00000000E+00	 5.50000000E+00
					 7.50000000E-01	 1.00000000E+00	 6.00000000E+00
					 5.00000000E-01	 1.00000000E+00	 6.00000000E+00
					 2.50000000E-01	 1.00000000E+00	 6.00000000E+00
					 5.00000000E-01	 1.00000000E+00	 6.50000000E+00
					 7.50000000E-01	 1.00000000E+00	 7.00000000E+00
					 5.00000000E-01	 1.00000000E+00	 7.00000000E+00
					 2.50000000E-01	 1.00000000E+00	 7.00000000E+00
					 5.00000000E-01	 1.00000000E+00	 7.50000000E+00
					 0.00000000E+00	 5.00000000E-01	 5.00000000E-01
					 0.00000000E+00	 7.50000000E-01	 1.00000000E+00
					 0.00000000E+00	 5.00000000E-01	 1.00000000E+00
					 0.00000000E+00	 2.50000000E-01	 1.00000000E+00
					 0.00000000E+00	 5.00000000E-01	 1.50000000E+00
					 0.00000000E+00	 7.50000000E-01	 2.00000000E+00
					 0.00000000E+00	 5.00000000E-01	 2.00000000E+00
					 0.00000000E+00	 2.50000000E-01	 2.00000000E+00
					 0.00000000E+00	 5.00000000E-01	 2.50000000E+00
					 0.00000000E+00	 7.50000000E-01	 3.00000000E+00
					 0.00000000E+00	 5.00000000E-01	 3.00000000E+00
					 0.00000000E+00	 2.50000000E-01	 3.00000000E+00
					 0.00000000E+00	 5.00000000E-01	 3.50000000E+00
					 0.00000000E+00	 7.50000000E-01	 4.00000000E+00
					 0.00000000E+00	 5.00000000E-01	 4.00000000E+00
					 0.00000000E+00	 2.50000000E-01	 4.00000000E+00
					 0.00000000E+00	 5.00000000E-01	 4.50000000E+00
					 0.00000000E+00	 7.50000000E-01	 5.00000000E+00
					 0.00000000E+00	 5.00000000E-01	 5.00000000E+00
					 0.00000000E+00	 2.50000000E-01	 5.00000000E+00
					 0.00000000E+00	 5.00000000E-01	 5.50000000E+00
					 0.00000000E+00	 7.50000000E-01	 6.00000000E+00
					 0.00000000E+00	 5.00000000E-01	 6.00000000E+00
					 0.00000000E+00	 2.50000000E-01	 6.00000000E+00
					 0.00000000E+00	 5.00000000E-01	 6.50000000E+00
					 0.00000000E+00	 7.50000000E-01	 7.00000000E+00
					 0.00000000E+00	 5.00000000E-01	 7.00000000E+00
					 0.00000000E+00	 2.50000000E-01	 7.00000000E+00
					 0.00000000E+00	 5.00000000E-01	 7.50000000E+00
					 5.00000000E-01	 5.00000000E-01	 5.00000000E-01
					 5.00000000E-01	 2.50000000E-01	 1.00000000E+00
					 2.50000000E-01	 5.00000000E-01	 1.00000000E+00
					 5.00000000E-01	 5.00000000E-01	 1.00000000E+00
					 7.50000000E-01	 5.00000000E-01	 1.00000000E+00
					 5.00000000E-01	 7.50000000E-01	 1.00000000E+00
					 5.00000000E-01	 5.00000000E-01	 1.50000000E+00
					 5.00000000E-01	 2.50000000E-01	 2.00000000E+00
					 2.50000000E-01	 5.00000000E-01	 2.00000000E+00
					 5.00000000E-01	 5.00000000E-01	 2.00000000E+00
					 7.50000000E-01	 5.00000000E-01	 2.00000000E+00
					 5.00000000E-01	 7.50000000E-01	 2.00000000E+00
					 5.00000000E-01	 5.00000000E-01	 2.50000000E+00
					 5.00000000E-01	 2.50000000E-01	 3.00000000E+00
					 2.50000000E-01	 5.00000000E-01	 3.00000000E+00
					 5.00000000E-01	 5.00000000E-01	 3.00000000E+00
					 7.50000000E-01	 5.00000000E-01	 3.00000000E+00
					 5.00000000E-01	 7.50000000E-01	 3.00000000E+00
					 5.00000000E-01	 5.00000000E-01	 3.50000000E+00
					 5.00000000E-01	 2.50000000E-01	 4.00000000E+00
					 2.50000000E-01	 5.00000000E-01	 4.00000000E+00
					 5.00000000E-01	 5.00000000E-01	 4.00000000E+00
					 7.50000000E-01	 5.00000000E-01	 4.00000000E+00
					 5.00000000E-01	 7.50000000E-01	 4.00000000E+00
					 5.00000000E-01	 5.00000000E-01	 4.50000000E+00
					 5.00000000E-01	 2.50000000E-01	 5.00000000E+00
					 2.50000000E-01	 5.00000000E-01	 5.00000000E+00
					 5.00000000E-01	 5.00000000E-01	 5.00000000E+00
					 7.50000000E-01	 5.00000000E-01	 5.00000000E+00
					 5.00000000E-01	 7.50000000E-01	 5.00000000E+00
					 5.00000000E-01	 5.00000000E-01	 5.50000000E+00
					 5.00000000E-01	 2.50000000E-01	 6.00000000E+00
					 2.50000000E-01	 5.00000000E-01	 6.00000000E+00
					 5.00000000E-01	 5.00000000E-01	 6.00000000E+00
					 7.50000000E-01	 5.00000000E-01	 6.00000000E+00
					 5.00000000E-01	 7.50000000E-01	 6.00000000E+00
					 5.00000000E-01	 5.00000000E-01	 6.50000000E+00
					 5.00000000E-01	 2.50000000E-01	 7.00000000E+00
					 2.50000000E-01	 5.00000000E-01	 7.00000000E+00
					 5.00000000E-01	 5.00000000E-01	 7.00000000E+00
					 7.50000000E-01	 5.00000000E-01	 7.00000000E+00
					 5.00000000E-01	 7.50000000E-01	 7.00000000E+00
					 5.00000000E-01	 5.00000000E-01	 7.50000000E+00
				</DataArray>
			</Points>
			<Cells>
				<DataArray type="Int32" Name="connectivity" format="ascii">
					0 9 94 18 60 104 221 191 8 92 93 19 103 219 220 192 61 102 218 189 9 1 12 94 104 33 133 221 10 11 95 92 105 132 222 219 102 32 131 218 18 94 15 3 191 221 162 78 93 96 16 17 220 223 163 190 189 218 160 77 94 12 2 15 221 133 63 162 95 13 14 96 222 134 161 223 218 131 62 160 60 104 221 191 58 108 227 195 103 219 220 192 107 225 226 196 59 106 224 193 104 33 133 221 108 35 137 227 105 132 222 219 109 136 228 225 106 34 135 224 191 221 162 78 195 227 166 80 220 223 163 190 226 229 167 194 193 224 164 79 221 133 63 162 227 137 65 166 222 134 161 223 228 138 165 229 224 135 64 164 58 108 227 195 56 112 233 199 107 225 226 196 111 231 232 200 57 110 230 197 108 35 137 227 112 37 141 233 109 136 228 225 113 140 234 231 110 36 139 230 195 227 166 80 199 233 170 82 226 229 167 194 232 235 171 198 197 230 168 81 227 137 65 166 233 141 67 170 228 138 165 229 234 142 169 235 230 139 66 168 56 112 233 199 54 116 239 203 111 231 232 200 115 237 238 204 55 114 236 201 112 37 141 233 116 39 145 239 113 140 234 231 117 144 240 237 114 38 143 236 199 233 170 82 203 239 174 84 232 235 171 198 238 241 175 202 201 236 172 83 233 141 67 170 239 145 69 174 234 142 169 235 240 146 173 241 236 143 68 172 54 116 239 203 52 120 245 207 115 237 238 204 119 243 244 208 53 118 242 205 116 39 145 239 120 41 149 245 117 144 240 237 121 148 246 243 118 40 147 242 203 239 174 84 207 245 178 86 238 241 175 202 244 247 179 206 205 242 176 85 239 145 69 174 245 149 71 178 240 146 173 241 246 150 177 247 242 147 70 176 52 120 245 207 50 124 251 211 119 243 244 208 123 249 250 212 51 122 248 209 120 41 149 245 124 43 153 251 121 148 246 243 125 152 252 249 122 42 151 248 207 245 178 86 211 251 182 88 244 247 179 206 250 253 183 210 209 248 180 87 245 149 71 178 251 153 73 182 246 150 177 247 252 154 181 253 248 151 72 180 50 124 251 211 48 128 257 215 123 249 250 212 127 255 256 216 49 126 254 213 124 43 153 251 128 45 157 257 125 152 252 249 129 156 258 255 126 44 155 254 211 251 182 88 215 257 186 90 250 253 183 210 256 259 187 214 213 254 184 89 251 153 73 182 257 157 75 186 252 154 181 253 258 158 185 259 254 155 74 184 48 128 257 215 4 21 99 30 127 255 256 216 20 97 98 31 47 130 260 217 128 45 157 257 21 5 24 99 129 156 258 255 22 23 100 97 130 46 159 260 215 257 186 90 30 99 27 7 256 259 187 214 98 101 28 29 217 260 188 91 257 157 75 186 99 24 6 27 258 158 185 259 100 25 26 101 260 159 76 188 
				</DataArray>
				<DataArray type="Int32" Name="offsets" format="ascii">
					20 40 60 80 100 120 140 160 180 200 220 240 260 280 300 320 340 360 380 400 420 440 460 480 500 520 540 560 580 600 620 640 
				</DataArray>
				<DataArray type="UInt8" Name="types" format="ascii">
					25 25 25 25 25 25 25 25 25 25 25 25 25 25 25 25 25 25 25 25 25 25 25 25 25 25 25 25 25 25 25 25 
				</DataArray>
			</Cells>
			<PointData>
				<DataArray type="Float32" Name="U" NumberOfComponents="3" ComponentName0="D1" ComponentName1="D2" ComponentName2="D3" format="ascii">
					 0.00000000E+00	 0.00000000E+00	 0.00000000E+00
					 0.00000000E+00	 0.00000000E+00	 0.00000000E+00
					 0.00000000E+00	 0.00000000E+00	 0.00000000E+00
					 0.00000000E+00	 0.00000000E+00	 0.00000000E+00
					-4.02325000E-05	 8.77453000E-02	 7.60284000E-03
					 4.02325000E-05	 8.77453000E-02	 7.60284000E-03
					-4.15045000E-05	 8.76102000E-02	-8.75593000E-03
					 4.15045000E-05	 8.76102000E-02	-8.75593000E-03
					 0.00000000E+00	 0.00000000E+00	 0.00000000E+00
					 0.00000000E+00	 0.00000000E+00	 0.00000000E+00
					 0.00000000E+00	 0.00000000E+00	 0.00000000E+00
					 0.00000000E+00	 0.00000000E+00	 0.00000000E+00
					 0.00000000E+00	 0.00000000E+00	 0.00000000E+00
					 0.00000000E+00	 0.00000000E+00	 0.00000000E+00
					 0.00000000E+00	 0.00000000E+00	 0.00000000E+00
					 0.00000000E+00	 0.00000000E+00	 0.00000000E+00
					 0.00000000E+00	 0.00000000E+00	 0.00000000E+00
					 0.00000000E+00	 0.00000000E+00	 0.00000000E+00
					 0.00000000E+00	 0.00000000E+00	 0.00000000E+00
					 0.00000000E+00	 0.00000000E+00	 0.00000000E+00
					-1.84077000E-05	 8.76588000E-02	 7.59528000E-03
					 5.26684000E-17	 8.76508000E-02	 7.57812000E-03
					 1.84077000E-05	 8.76588000E-02	 7.59528000E-03
					-3.24638000E-07	 8.76440000E-02	 3.48631000E-03
					-1.63694000E-07	 8.75657000E-02	-5.76063000E-04
					-5.36257000E-07	 8.75774000E-02	-4.63959000E-03
					-1.89370000E-05	 8.75244000E-02	-8.74792000E-03
					 8.57371000E-18	 8.75174000E-02	-8.73084000E-03
					 1.89370000E-05	 8.75244000E-02	-8.74792000E-03
					 5.36257000E-07	 8.75774000E-02	-4.63959000E-03
					 1.63694000E-07	 8.75657000E-02	-5.76063000E-04
					 3.24638000E-07	 8.76440000E-02	 3.48631000E-03
					-3.08433000E-04	 5.39159000E-04	 9.24798000E-04
					-2.25084000E-04	 1.92358000E-03	 1.85063000E-03
					-2.54115000E-04	 4.32746000E-03	 2.71615000E-03
					-2.24317000E-04	 7.49546000E-03	 3.51159000E-03
					-2.13241000E-04	 1.14865000E-02	 4.22997000E-03
					-1.90942000E-04	 1.61509000E-02	 4.88399000E-03
					-1.73905000E-04	 2.14771000E-02	 5.46560000E-03
					-1.53804000E-04	 2.73712000E-02	 5.97836000E-03
					-1.35277000E-04	 3.37838000E-02	 6.41833000E-03
					-1.16509000E-04	 4.06450000E-02	 6.78969000E-03
					-9.54078000E-05	 4.78897000E-02	 7.09077000E-03
					-7.65392000E-05	 5.54650000E-02	 7.32480000E-03
					-5.96742000E-05	 6.32711000E-02	 7.48588000E-03
					-4.90871000E-05	 7.12971000E-02	 7.58256000E-03
					-3.73282000E-06	 7.94388000E-02	 7.61621000E-03
					 3.73282000E-06	 7.94388000E-02	 7.61621000E-03
					 4.90871000E-05	 7.12971000E-02	 7.58256000E-03
					 5.96742000E-05	 6.32711000E-02	 7.48588000E-03
					 7.65392000E-05	 5.54650000E-02	 7.32480000E-03
					 9.54078000E-05	 4.78897000E-02	 7.09077000E-03
					 1.16509000E-04	 4.06450000E-02	 6.78969000E-03
					 1.35277000E-04	 3.37838000E-02	 6.41833000E-03
					 1.53804000E-04	 2.73712000E-02	 5.97836000E-03
					 1.73905000E-04	 2.14771000E-02	 5.46560000E-03
					 1.90942000E-04	 1.61509000E-02	 4.88399000E-03
					 2.13241000E-04	 1.14865000E-02	 4.22997000E-03
					 2.24317000E-04	 7.49546000E-03	 3.51159000E-03
					 2.54115000E-04	 4.32746000E-03	 2.71615000E-03
					 2.25084000E-04	 1.92358000E-03	 1.85063000E-03
					 3.08433000E-04	 5.39159000E-04	 9.24798000E-04
					 3.08933000E-04	 5.36725000E-04	-9.26862000E-04
					 2.24957000E-04	 1.91579000E-03	-1.85819000E-03
					 2.54203000E-04	 4.31206000E-03	-2.73630000E-03
					 2.24333000E-04	 7.46968000E-03	-3.55276000E-03
					 2.13240000E-04	 1.14496000E-02	-4.30341000E-03
					 1.90869000E-04	 1.61015000E-02	-5.00124000E-03
					 1.73844000E-04	 2.14151000E-02	-5.63963000E-03
					 1.53688000E-04	 2.72964000E-02	-6.22177000E-03
					 1.35151000E-04	 3.36968000E-02	-6.74368000E-03
					 1.16338000E-04	 4.05466000E-02	-7.20881000E-03
					 9.52604000E-05	 4.77813000E-02	-7.61424000E-03
					 7.62844000E-05	 5.53479000E-02	-7.96238000E-03
					 5.94998000E-05	 6.31472000E-02	-8.24483000E-03
					 4.86236000E-05	 7.11678000E-02	-8.46987000E-03
					 3.87012000E-06	 7.93068000E-02	-8.63446000E-03
					-3.08933000E-04	 5.36725000E-04	-9.26862000E-04
					-2.24957000E-04	 1.91579000E-03	-1.85819000E-03
					-2.54203000E-04	 4.31206000E-03	-2.73630000E-03
					-2.24333000E-04	 7.46968000E-03	-3.55276000E-03
					-2.13240000E-04	 1.14496000E-02	-4.30341000E-03
					-1.90869000E-04	 1.61015000E-02	-5.00124000E-03
					-1.73844000E-04	 2.14151000E-02	-5.63963000E-03
					-1.53688000E-04	 2.72964000E-02	-6.22177000E-03
					-1.35151000E-04	 3.36968000E-02	-6.74368000E-03
					-1.16338000E-04	 4.05466000E-02	-7.20881000E-03
					-9.52604000E-05	 4.77813000E-02	-7.61424000E-03
					-7.62844000E-05	 5.53479000E-02	-7.96238000E-03
					-5.94998000E-05	 6.31472000E-02	-8.24483000E-03
					-4.86236000E-05	 7.11678000E-02	-8.46987000E-03
					-3.87012000E-06	 7.93068000E-02	-8.63446000E-03
					 0.00000000E+00	 0.00000000E+00	 0.00000000E+00
					 0.00000000E+00	 0.00000000E+00	 0.00000000E+00
					 0.00000000E+00	 0.00000000E+00	 0.00000000E+00
					 0.00000000E+00	 0.00000000E+00	 0.00000000E+00
					 0.00000000E+00	 0.00000000E+00	 0.00000000E+00
					 4.52395000E-17	 8.75966000E-02	 3.49144000E-03
					 9.58271000E-08	 8.75608000E-02	-5.76229000E-04
					 2.96965000E-17	 8.75456000E-02	-5.76175000E-04
					-9.58271000E-08	 8.75608000E-02	-5.76229000E-04
					 5.35895000E-18	 8.75302000E-02	-4.64399000E-03
					 1.23099000E-19	 6.71498000E-04	 8.97953000E-04
					 1.11365000E-04	 2.03250000E-03	 1.86212000E-03
					 1.95120000E-18	 2.05696000E-03	 1.87546000E-03
					-1.11365000E-04	 2.03250000E-03	 1.86212000E-03
					 1.92759000E-18	 4.44837000E-03	 2.71616000E-03
					 1.12148000E-04	 7.58255000E-03	 3.51749000E-03
					 3.95794000E-18	 7.61652000E-03	 3.51829000E-03
					-1.12148000E-04	 7.58255000E-03	 3.51749000E-03
					 5.61174000E-18	 1.15906000E-02	 4.23257000E-03
					 9.53869000E-05	 1.62252000E-02	 4.88788000E-03
					 1.12892000E-17	 1.62498000E-02	 4.88777000E-03
					-9.53869000E-05	 1.62252000E-02	 4.88788000E-03
					 1.75725000E-17	 2.15634000E-02	 5.46874000E-03
					 7.69057000E-05	 2.74289000E-02	 5.98207000E-03
					 2.39077000E-17	 2.74487000E-02	 5.98145000E-03
					-7.69057000E-05	 2.74289000E-02	 5.98207000E-03
					 2.49496000E-17	 3.38518000E-02	 6.42160000E-03
					 5.81998000E-05	 4.06885000E-02	 6.79361000E-03
					 1.45134000E-17	 4.07016000E-02	 6.79298000E-03
					-5.81998000E-05	 4.06885000E-02	 6.79361000E-03
					 2.45132000E-17	 4.79387000E-02	 7.09417000E-03
					 3.84426000E-05	 5.54877000E-02	 7.32827000E-03
					 3.04531000E-17	 5.54963000E-02	 7.32762000E-03
					-3.84426000E-05	 5.54877000E-02	 7.32827000E-03
					 3.13182000E-17	 6.33064000E-02	 7.48975000E-03
					 2.37958000E-05	 7.13167000E-02	 7.58793000E-03
					 3.52670000E-17	 7.13065000E-02	 7.58809000E-03
					-2.37958000E-05	 7.13167000E-02	 7.58793000E-03
					 2.80588000E-17	 7.94488000E-02	 7.61784000E-03
					 4.30534000E-07	 3.48094000E-04	-8.68641000E-07
					-1.13345000E-04	 1.84521000E-03	 9.15482000E-04
					 3.74754000E-07	 1.85483000E-03	-3.37700000E-06
					 1.13745000E-04	 1.84124000E-03	-9.22471000E-04
					 3.60429000E-07	 4.17192000E-03	-9.17835000E-06
					-1.11752000E-04	 7.42082000E-03	 1.73473000E-03
					 2.63036000E-07	 7.39868000E-03	-1.98563000E-05
					 1.12066000E-04	 7.40805000E-03	-1.77468000E-03
					 1.95158000E-07	 1.13533000E-02	-3.56623000E-05
					-9.54363000E-05	 1.60713000E-02	 2.40345000E-03
					 1.53942000E-07	 1.60415000E-02	-5.77233000E-05
					 9.55859000E-05	 1.60468000E-02	-2.51932000E-03
					 1.07161000E-07	 2.13563000E-02	-8.59587000E-05
					-7.69158000E-05	 2.72963000E-02	 2.91855000E-03
					 6.32127000E-08	 2.72598000E-02	-1.20748000E-04
					 7.69409000E-05	 2.72591000E-02	-3.16052000E-03
					 1.80039000E-08	 3.36729000E-02	-1.61743000E-04
					-5.79480000E-05	 4.05762000E-02	 3.28067000E-03
					-7.88444000E-09	 4.05364000E-02	-2.08673000E-04
					 5.78675000E-05	 4.05273000E-02	-3.69847000E-03
					-4.01620000E-08	 4.77889000E-02	-2.61027000E-04
					-3.95766000E-05	 5.53998000E-02	 3.49232000E-03
					-4.65874000E-08	 5.53555000E-02	-3.17993000E-04
					 3.94012000E-05	 5.53416000E-02	-4.12885000E-03
					-1.04799000E-07	 6.31903000E-02	-3.79155000E-04
					-1.96517000E-05	 7.12454000E-02	 3.56308000E-03
					-1.02737000E-07	 7.11983000E-02	-4.42994000E-04
					 1.93351000E-05	 7.11810000E-02	-4.44938000E-03
					-2.79545000E-08	 7.93693000E-02	-5.09265000E-04
					 2.63724000E-19	 6.69090000E-04	-9.00397000E-04
					 1.11433000E-04	 2.02442000E-03	-1.87058000E-03
					 1.19352000E-18	 2.04899000E-03	-1.88423000E-03
					-1.11433000E-04	 2.02442000E-03	-1.87058000E-03
					 2.89728000E-18	 4.43270000E-03	-2.73770000E-03
					 1.12208000E-04	 7.55661000E-03	-3.56001000E-03
					 6.31595000E-18	 7.59069000E-03	-3.56130000E-03
					-1.12208000E-04	 7.55661000E-03	-3.56001000E-03
					 3.88901000E-18	 1.15535000E-02	-4.30785000E-03
					 9.53987000E-05	 1.61756000E-02	-5.00663000E-03
					 2.18064000E-18	 1.62003000E-02	-5.00702000E-03
					-9.53987000E-05	 1.61756000E-02	-5.00663000E-03
					 9.22440000E-18	 2.15011000E-02	-5.64473000E-03
					 7.68759000E-05	 2.73539000E-02	-6.22694000E-03
					 1.35913000E-17	 2.73737000E-02	-6.22680000E-03
					-7.68759000E-05	 2.73539000E-02	-6.22694000E-03
					 4.26756000E-18	 3.37647000E-02	-6.74878000E-03
					 5.81298000E-05	 4.05900000E-02	-7.21394000E-03
					 4.94083000E-18	 4.06031000E-02	-7.21368000E-03
					-5.81298000E-05	 4.05900000E-02	-7.21394000E-03
					 1.75240000E-17	 4.78301000E-02	-7.61912000E-03
					 3.83242000E-05	 5.53704000E-02	-7.96664000E-03
					 1.23687000E-17	 5.53791000E-02	-7.96620000E-03
					-3.83242000E-05	 5.53704000E-02	-7.96664000E-03
					 1.01027000E-17	 6.31823000E-02	-8.24981000E-03
					 2.35598000E-05	 7.11873000E-02	-8.47551000E-03
					 8.43567000E-18	 7.11772000E-02	-8.47552000E-03
					-2.35598000E-05	 7.11873000E-02	-8.47551000E-03
					-2.01468000E-18	 7.93166000E-02	-8.63682000E-03
					-4.30534000E-07	 3.48094000E-04	-8.68641000E-07
					-1.13745000E-04	 1.84124000E-03	-9.22471000E-04
					-3.74754000E-07	 1.85483000E-03	-3.37700000E-06
					 1.13345000E-04	 1.84521000E-03	 9.15482000E-04
					-3.60429000E-07	 4.17192000E-03	-9.17835000E-06
					-1.12066000E-04	 7.40805000E-03	-1.77468000E-03
					-2.63036000E-07	 7.39868000E-03	-1.98563000E-05
					 1.11752000E-04	 7.42082000E-03	 1.73473000E-03
					-1.95158000E-07	 1.13533000E-02	-3.56623000E-05
					-9.55859000E-05	 1.60468000E-02	-2.51932000E-03
					-1.53942000E-07	 1.60415000E-02	-5.77233000E-05
					 9.54363000E-05	 1.60713000E-02	 2.40345000E-03
					-1.07161000E-07	 2.13563000E-02	-8.59587000E-05
					-7.69409000E-05	 2.72591000E-02	-3.16052000E-03
					-6.32127000E-08	 2.72598000E-02	-1.20748000E-04
					 7.69158000E-05	 2.72963000E-02	 2.91855000E-03
					-1.80039000E-08	 3.36729000E-02	-1.61743000E-04
					-5.78675000E-05	 4.05273000E-02	-3.69847000E-03
					 7.88444000E-09	 4.05364000E-02	-2.08673000E-04
					 5.79480000E-05	 4.05762000E-02	 3.28067000E-03
					 4.01620000E-08	 4.77889000E-02	-2.61027000E-04
					-3.94012000E-05	 5.53416000E-02	-4.12885000E-03
					 4.65874000E-08	 5.53555000E-02	-3.17993000E-04
					 3.95766000E-05	 5.53998000E-02	 3.49232000E-03
					 1.04799000E-07	 6.31903000E-02	-3.79155000E-04
					-1.93351000E-05	 7.11810000E-02	-4.44938000E-03
					 1.02737000E-07	 7.11983000E-02	-4.42994000E-04
					 1.96517000E-05	 7.12454000E-02	 3.56308000E-03
					 2.79545000E-08	 7.93693000E-02	-5.09265000E-04
					 3.53843000E-19	 4.79700000E-04	-1.11105000E-06
					 1.39567000E-18	 1.97207000E-03	 9.25759000E-04
					-2.04673000E-07	 1.95947000E-03	-3.76610000E-06
					 1.28438000E-18	 1.97780000E-03	-3.89005000E-06
					 2.04673000E-07	 1.95947000E-03	-3.76610000E-06
					 1.33019000E-18	 1.96797000E-03	-9.33881000E-04
					 2.45006000E-18	 4.29711000E-03	-9.89788000E-06
					 3.91922000E-18	 7.53783000E-03	 1.74027000E-03
					-1.41552000E-07	 7.48107000E-03	-2.04980000E-05
					 3.77611000E-18	 7.51096000E-03	-2.06910000E-05
					 1.41552000E-07	 7.48107000E-03	-2.04980000E-05
					 4.35517000E-18	 7.52497000E-03	-1.78195000E-03
					 6.53967000E-18	 1.14603000E-02	-3.66106000E-05
					 1.28566000E-17	 1.61681000E-02	 2.40681000E-03
					-8.45862000E-08	 1.61137000E-02	-5.84478000E-05
					 8.16343000E-18	 1.61363000E-02	-5.86769000E-05
					 8.45862000E-08	 1.61137000E-02	-5.84478000E-05
					 7.35992000E-18	 1.61434000E-02	-2.52463000E-03
					 1.12320000E-17	 2.14435000E-02	-8.69491000E-05
					 1.27511000E-17	 2.73736000E-02	 2.92174000E-03
					-3.61081000E-08	 2.73174000E-02	-1.21476000E-04
					 1.78225000E-17	 2.73367000E-02	-1.21710000E-04
					 3.61081000E-08	 2.73174000E-02	-1.21476000E-04
					 9.41495000E-18	 2.73362000E-02	-3.16562000E-03