    1C
    1UModel: beam     Date: 10-Mar-1998                                 
    1UUSER                                                              
    1UDATE              25.january.2020                                 
    1UTIME              14:45:19                                        
    1UHOST                                                              
    1UPGM               CalculiX                                        
    1UVERSION           Version 2.16                             
    1UCOMPILETIME       Tue  7 Jan 19:57:43 CET 2020                    
    1UDIR                                                               
    1UDBN                                                               
    1UMAT    1EL                                                        
    2C                            81                                     1
 -1         1 0.00000E+00 0.00000E+00 0.00000E+00
 -1         2 1.00000E+00 0.00000E+00 0.00000E+00
 -1         3 1.00000E+00 1.00000E+00 0.00000E+00
 -1         4 0.00000E+00 1.00000E+00 0.00000E+00
 -1         5 0.00000E+00 0.00000E+00 8.00000E+00
 -1         6 1.00000E+00 0.00000E+00 8.00000E+00
 -1         7 1.00000E+00 1.00000E+00 8.00000E+00
 -1         8 0.00000E+00 1.00000E+00 8.00000E+00
 -1        10 5.00000E-01 0.00000E+00 0.00000E+00
 -1        13 1.00000E+00 5.00000E-01 0.00000E+00
 -1        16 5.00000E-01 1.00000E+00 0.00000E+00
 -1        19 0.00000E+00 5.00000E-01 0.00000E+00
 -1        22 5.00000E-01 0.00000E+00 8.00000E+00
 -1        25 1.00000E+00 5.00000E-01 8.00000E+00
 -1        28 5.00000E-01 1.00000E+00 8.00000E+00
 -1        31 0.00000E+00 5.00000E-01 8.00000E+00
 -1        34 1.00000E+00 0.00000E+00 1.00000E+00
 -1        36 1.00000E+00 0.00000E+00 2.00000E+00
 -1        38 1.00000E+00 0.00000E+00 3.00000E+00
 -1        40 1.00000E+00 0.00000E+00 4.00000E+00
 -1        42 1.00000E+00 0.00000E+00 5.00000E+00
 -1        44 1.00000E+00 0.00000E+00 6.00000E+00
 -1        46 1.00000E+00 0.00000E+00 7.00000E+00
 -1        49 0.00000E+00 0.00000E+00 7.00000E+00
 -1        51 0.00000E+00 0.00000E+00 6.00000E+00
 -1        53 0.00000E+00 0.00000E+00 5.00000E+00
 -1        55 0.00000E+00 0.00000E+00 4.00000E+00
 -1        57 0.00000E+00 0.00000E+00 3.00000E+00
 -1        59 0.00000E+00 0.00000E+00 2.00000E+00
 -1        61 0.00000E+00 0.00000E+00 1.00000E+00
 -1        64 1.00000E+00 1.00000E+00 1.00000E+00
 -1        66 1.00000E+00 1.00000E+00 2.00000E+00
 -1        68 1.00000E+00 1.00000E+00 3.00000E+00
 -1        70 1.00000E+00 1.00000E+00 4.00000E+00
 -1        72 1.00000E+00 1.00000E+00 5.00000E+00
 -1        74 1.00000E+00 1.00000E+00 6.00000E+00
 -1        76 1.00000E+00 1.00000E+00 7.00000E+00
 -1        79 0.00000E+00 1.00000E+00 1.00000E+00
 -1        81 0.00000E+00 1.00000E+00 2.00000E+00
 -1        83 0.00000E+00 1.00000E+00 3.00000E+00
 -1        85 0.00000E+00 1.00000E+00 4.00000E+00
 -1        87 0.00000E+00 1.00000E+00 5.00000E+00
 -1        89 0.00000E+00 1.00000E+00 6.00000E+00
 -1        91 0.00000E+00 1.00000E+00 7.00000E+00
 -1        95 5.00000E-01 5.00000E-01 0.00000E+00
 -1       100 5.00000E-01 5.00000E-01 8.00000E+00
 -1       105 5.00000E-01 0.00000E+00 1.00000E+00
 -1       109 5.00000E-01 0.00000E+00 2.00000E+00
 -1       113 5.00000E-01 0.00000E+00 3.00000E+00
 -1       117 5.00000E-01 0.00000E+00 4.00000E+00
 -1       121 5.00000E-01 0.00000E+00 5.00000E+00
 -1       125 5.00000E-01 0.00000E+00 6.00000E+00
 -1       129 5.00000E-01 0.00000E+00 7.00000E+00
 -1       134 1.00000E+00 5.00000E-01 1.00000E+00
 -1       138 1.00000E+00 5.00000E-01 2.00000E+00
 -1       142 1.00000E+00 5.00000E-01 3.00000E+00
 -1       146 1.00000E+00 5.00000E-01 4.00000E+00
 -1       150 1.00000E+00 5.00000E-01 5.00000E+00
 -1       154 1.00000E+00 5.00000E-01 6.00000E+00
 -1       158 1.00000E+00 5.00000E-01 7.00000E+00
 -1       163 5.00000E-01 1.00000E+00 1.00000E+00
 -1       167 5.00000E-01 1.00000E+00 2.00000E+00
 -1       171 5.00000E-01 1.00000E+00 3.00000E+00
 -1       175 5.00000E-01 1.00000E+00 4.00000E+00
 -1       179 5.00000E-01 1.00000E+00 5.00000E+00
 -1       183 5.00000E-01 1.00000E+00 6.00000E+00
 -1       187 5.00000E-01 1.00000E+00 7.00000E+00
 -1       192 0.00000E+00 5.00000E-01 1.00000E+00
 -1       196 0.00000E+00 5.00000E-01 2.00000E+00
 -1       200 0.00000E+00 5.00000E-01 3.00000E+00
 -1       204 0.00000E+00 5.00000E-01 4.00000E+00
 -1       208 0.00000E+00 5.00000E-01 5.00000E+00
 -1       212 0.00000E+00 5.00000E-01 6.00000E+00
 -1       216 0.00000E+00 5.00000E-01 7.00000E+00
 -1       222 5.00000E-01 5.00000E-01 1.00000E+00
 -1       228 5.00000E-01 5.00000E-01 2.00000E+00
 -1       234 5.00000E-01 5.00000E-01 3.00000E+00
 -1       240 5.00000E-01 5.00000E-01 4.00000E+00
 -1       246 5.00000E-01 5.00000E-01 5.00000E+00
 -1       252 5.00000E-01 5.00000E-01 6.00000E+00
 -1       258 5.00000E-01 5.00000E-01 7.00000E+00
 -3
    3C                            32                                     1
 -1         1    1    0    1
 -2         1        10        95        19        61       105       222       192
 -1         2    1    0    1
 -2        10         2        13        95       105        34       134       222
 -1         3    1    0    1
 -2        19        95        16         4       192       222       163        79
 -1         4    1    0    1
 -2        95        13         3        16       222       134        64       163
 -1         5    1    0    1
 -2        61       105       222       192        59       109       228       196
 -1         6    1    0    1
 -2       105        34       134       222       109        36       138       228
 -1         7    1    0    1
 -2       192       222       163        79       196       228       167        81
 -1         8    1    0    1
 -2       222       134        64       163       228       138        66       167
 -1         9    1    0    1
 -2        59       109       228       196        57       113       234       200
 -1        10    1    0    1
 -2       109        36       138       228       113        38       142       234
 -1        11    1    0    1
 -2       196       228       167        81       200       234       171        83
 -1        12    1    0    1
 -2       228       138        66       167       234       142        68       171
 -1        13    1    0    1
 -2        57       113       234       200        55       117       240       204
 -1        14    1    0    1
 -2       113        38       142       234       117        40       146       240
 -1        15    1    0    1
 -2       200       234       171        83       204       240       175        85
 -1        16    1    0    1
 -2       234       142        68       171       240       146        70       175
 -1        17    1    0    1
 -2        55       117       240       204        53       121       246       208
 -1        18    1    0    1
 -2       117        40       146       240       121        42       150       246
 -1        19    1    0    1
 -2       204       240       175        85       208       246       179        87
 -1        20    1    0    1
 -2       240       146        70       175       246       150        72       179
 -1        21    1    0    1
 -2        53       121       246       208        51       125       252       212
 -1        22    1    0    1
 -2       121        42       150       246       125        44       154       252
 -1        23    1    0    1
 -2       208       246       179        87       212       252       183        89
 -1        24    1    0    1
 -2       246       150        72       179       252       154        74       183
 -1        25    1    0    1
 -2        51       125       252       212        49       129       258       216
 -1        26    1    0    1
 -2       125        44       154       252       129        46       158       258
 -1        27    1    0    1
 -2       212       252       183        89       216       258       187        91
 -1        28    1    0    1
 -2       252       154        74       183       258       158        76       187
 -1        29    1    0    1
 -2        49       129       258       216         5        22       100        31
 -1        30    1    0    1
 -2       129        46       158       258        22         6        25       100
 -1        31    1    0    1
 -2       216       258       187        91        31       100        28         8
 -1        32    1    0    1
 -2       258       158        76       187       100        25         7        28
 -3
    1PSTEP                         1           1           1          
  100CL  101 1.000000000          81                     0    1           1
 -4  DISP        4    1
 -5  D1          1    2    1    0
 -5  D2          1    2    2    0
 -5  D3          1    2    3    0
 -5  ALL         1    2    0    0    1ALL
 -1         1 0.00000E+00 0.00000E+00 0.00000E+00
 -1         2 0.00000E+00 0.00000E+00 0.00000E+00
 -1         3 0.00000E+00 0.00000E+00 0.00000E+00
 -1         4 0.00000E+00 0.00000E+00 0.00000E+00
 -1         5 3.95069E-02 3.95069E-02 3.69317E+00
 -1         6-3.95069E-02 3.95069E-02 3.69317E+00
 -1         7-3.95069E-02-3.95069E-02 3.69317E+00
 -1         8 3.95069E-02-3.95069E-02 3.69317E+00
 -1        10 0.00000E+00 0.00000E+00 0.00000E+00
 -1        13 0.00000E+00 0.00000E+00 0.00000E+00
 -1        16 0.00000E+00 0.00000E+00 0.00000E+00
 -1        19 0.00000E+00 0.00000E+00 0.00000E+00
 -1        22 8.30597E-13 2.34086E-02 3.42371E+00
 -1        25-2.34086E-02 7.91251E-13 3.42371E+00
 -1        28 8.65695E-13-2.34086E-02 3.42371E+00
 -1        31 2.34086E-02 8.26522E-13 3.42371E+00
 -1        34-8.24414E-02 8.24414E-02 4.35572E-01
 -1        36-6.99543E-02 6.99543E-02 9.05998E-01
 -1        38-7.14760E-02 7.14760E-02 1.38474E+00
 -1        40-7.20135E-02 7.20135E-02 1.86080E+00
 -1        42-6.94768E-02 6.94768E-02 2.33478E+00
 -1        44-7.57606E-02 7.57606E-02 2.81912E+00
 -1        46-6.97539E-02 6.97539E-02 3.28253E+00
 -1        49 6.97539E-02 6.97539E-02 3.28253E+00
 -1        51 7.57606E-02 7.57606E-02 2.81912E+00
 -1        53 6.94768E-02 6.94768E-02 2.33478E+00
 -1        55 7.20135E-02 7.20135E-02 1.86080E+00
 -1        57 7.14760E-02 7.14760E-02 1.38474E+00
 -1        59 6.99543E-02 6.99543E-02 9.05998E-01
 -1        61 8.24414E-02 8.24414E-02 4.35572E-01
 -1        64-8.24414E-02-8.24414E-02 4.35572E-01
 -1        66-6.99543E-02-6.99543E-02 9.05998E-01
 -1        68-7.14760E-02-7.14760E-02 1.38474E+00
 -1        70-7.20135E-02-7.20135E-02 1.86080E+00
 -1        72-6.94768E-02-6.94768E-02 2.33478E+00
 -1        74-7.57606E-02-7.57606E-02 2.81912E+00
 -1        76-6.97539E-02-6.97539E-02 3.28253E+00
 -1        79 8.24414E-02-8.24414E-02 4.35572E-01
 -1        81 6.99543E-02-6.99543E-02 9.05998E-01
 -1        83 7.14760E-02-7.14760E-02 1.38474E+00
 -1        85 7.20135E-02-7.20135E-02 1.86080E+00
 -1        87 6.94768E-02-6.94768E-02 2.33478E+00
 -1        89 7.57606E-02-7.57606E-02 2.81912E+00
 -1        91 6.97539E-02-6.97539E-02 3.28253E+00
 -1        95 0.00000E+00 0.00000E+00 0.00000E+00
 -1       100 8.48075E-13 8.09029E-13 4.52043E+00
 -1       105 1.84790E-14 8.24653E-02 4.24438E-01
 -1       109 7.83956E-14 7.05300E-02 9.09050E-01
 -1       113 1.70883E-13 7.14394E-02 1.38414E+00
 -1       117 2.86326E-13 7.07662E-02 1.86054E+00
 -1       121 4.14011E-13 7.51077E-02 2.33808E+00
 -1       125 5.48643E-13 5.54595E-02 2.80025E+00
 -1       129 6.87811E-13 1.23106E-01 3.36379E+00
 -1       134-8.24653E-02 2.02859E-14 4.24438E-01
 -1       138-7.05300E-02 8.32667E-14 9.09050E-01
 -1       142-7.14394E-02 1.76167E-13 1.38414E+00
 -1       146-7.07662E-02 2.87850E-13 1.86054E+00
 -1       150-7.51077E-02 4.09904E-13 2.33808E+00
 -1       154-5.54595E-02 5.36887E-13 2.80025E+00
 -1       158-1.23106E-01 6.64241E-13 3.36379E+00
 -1       163 2.48063E-14-8.24653E-02 4.24438E-01
 -1       167 9.09752E-14-7.05300E-02 9.09050E-01
 -1       171 1.88766E-13-7.14394E-02 1.38414E+00
 -1       175 3.09695E-13-7.07662E-02 1.86054E+00
 -1       179 4.42438E-13-7.51077E-02 2.33808E+00
 -1       183 5.79952E-13-5.54595E-02 2.80025E+00
 -1       187 7.21988E-13-1.23106E-01 3.36379E+00
 -1       192 8.24653E-02 2.66401E-14 4.24438E-01
 -1       196 7.05300E-02 9.59233E-14 9.09050E-01
 -1       200 7.14394E-02 1.94144E-13 1.38414E+00
 -1       204 7.07662E-02 3.11140E-13 1.86054E+00
 -1       208 7.51077E-02 4.38420E-13 2.33808E+00
 -1       212 5.54595E-02 5.68413E-13 2.80025E+00
 -1       216 1.23106E-01 6.98198E-13 3.36379E+00
 -1       222 2.34332E-14 2.53785E-14 4.13215E-01
 -1       228 8.59629E-14 9.06535E-14 9.12058E-01
 -1       234 1.80671E-13 1.86082E-13 1.38394E+00
 -1       240 2.98404E-13 3.00052E-13 1.85979E+00
 -1       246 4.28224E-13 4.24221E-13 2.33834E+00
 -1       252 5.64787E-13 5.52697E-13 2.81743E+00
 -1       258 7.04956E-13 6.81170E-13 3.19746E+00
 -3
    1PSTEP                         2           1           2          
    1PGM                1.000000E+00                                  
    1PGK                5.454937E+11                                  
    1PHID                         -1                                  
    1PSUBC                         0                                  
    1PMODE                         1                                  
  100CL  102 117547.9305          81                     2    2MODAL      1
 -4  DISP        4    1
 -5  D1          1    2    1    0
 -5  D2          1    2    2    0
 -5  D3          1    2    3    0
 -5  ALL         1    2    0    0    1ALL
 -1         1 0.00000E+00 0.00000E+00 0.00000E+00
 -1         2 0.00000E+00 0.00000E+00 0.00000E+00
 -1         3 0.00000E+00 0.00000E+00 0.00000E+00
 -1         4 0.00000E+00 0.00000E+00 0.00000E+00
 -1         5 5.70786E+03 1.17258E+03 1.51444E+01
 -1         6 5.72705E+03 1.26268E+03-9.82642E+00
 -1         7 5.70786E+03 1.17258E+03-1.51444E+01
 -1         8 5.72705E+03 1.26268E+03 9.82642E+00
 -1        10 0.00000E+00 0.00000E+00 0.00000E+00
 -1        13 0.00000E+00 0.00000E+00 0.00000E+00
 -1        16 0.00000E+00 0.00000E+00 0.00000E+00
 -1        19 0.00000E+00 0.00000E+00 0.00000E+00
 -1        22 5.73871E+03 1.21004E+03 1.18605E+00
 -1        25 5.68181E+03 1.22215E+03-5.56918E+00
 -1        28 5.73871E+03 1.21004E+03-1.18605E+00
 -1        31 5.68181E+03 1.22215E+03 5.56918E+00
 -1        34 8.26424E+02 1.20192E+02-1.89410E+02
 -1        36 1.89556E+03 4.03617E+02-2.36913E+02
 -1        38 2.94155E+03 6.34223E+02-2.22818E+02
 -1        40 3.86537E+03 8.34731E+02-1.91837E+02
 -1        42 4.63046E+03 1.00112E+03-1.52519E+02
 -1        44 5.19887E+03 1.12204E+03-1.03268E+02
 -1        46 5.55568E+03 1.19820E+03-5.66652E+01
 -1        49 5.54898E+03 1.16673E+03 8.73319E+01
 -1        51 5.19225E+03 1.09092E+03 1.59156E+02
 -1        53 4.62377E+03 9.69721E+02 2.35061E+02
 -1        55 3.86023E+03 8.10567E+02 2.95658E+02
 -1        57 2.93808E+03 6.17943E+02 3.43405E+02
 -1        59 1.89560E+03 4.03775E+02 3.65128E+02
 -1        61 8.51324E+02 2.37113E+02 2.91917E+02
 -1        64 8.51324E+02 2.37113E+02-2.91917E+02
 -1        66 1.89560E+03 4.03775E+02-3.65128E+02
 -1        68 2.93808E+03 6.17943E+02-3.43405E+02
 -1        70 3.86023E+03 8.10567E+02-2.95658E+02
 -1        72 4.62377E+03 9.69721E+02-2.35061E+02
 -1        74 5.19225E+03 1.09092E+03-1.59156E+02
 -1        76 5.54898E+03 1.16673E+03-8.73319E+01
 -1        79 8.26424E+02 1.20192E+02 1.89410E+02
 -1        81 1.89556E+03 4.03617E+02 2.36913E+02
 -1        83 2.94155E+03 6.34223E+02 2.22818E+02
 -1        85 3.86537E+03 8.34731E+02 1.91837E+02
 -1        87 4.63046E+03 1.00112E+03 1.52519E+02
 -1        89 5.19887E+03 1.12204E+03 1.03268E+02
 -1        91 5.55568E+03 1.19820E+03 5.66652E+01
 -1        95 0.00000E+00 0.00000E+00 0.00000E+00
 -1       100 5.66016E+03 1.20543E+03-4.53156E-10
 -1       105 7.99390E+02 1.83403E+02 5.13245E+01
 -1       109 1.90157E+03 4.04491E+02 6.47709E+01
 -1       113 2.94228E+03 6.25089E+02 6.03196E+01
 -1       117 3.86939E+03 8.21486E+02 5.21471E+01
 -1       121 4.63307E+03 9.83520E+02 4.07231E+01
 -1       125 5.20591E+03 1.10522E+03 2.94776E+01
 -1       129 5.54999E+03 1.18003E+03 1.26219E+01
 -1       134 8.61182E+02 1.70244E+02-2.40997E+02
 -1       138 1.89931E+03 4.04971E+02-3.04136E+02
 -1       142 2.93515E+03 6.26608E+02-2.83234E+02
 -1       146 3.85734E+03 8.24053E+02-2.44860E+02
 -1       150 4.61818E+03 9.86691E+02-1.91218E+02
 -1       154 5.18962E+03 1.10869E+03-1.38414E+02
 -1       158 5.54093E+03 1.18196E+03-5.92669E+01
 -1       163 7.99390E+02 1.83403E+02-5.13245E+01
 -1       167 1.90157E+03 4.04491E+02-6.47709E+01
 -1       171 2.94228E+03 6.25089E+02-6.03196E+01
 -1       175 3.86939E+03 8.21486E+02-5.21471E+01
 -1       179 4.63307E+03 9.83520E+02-4.07231E+01
 -1       183 5.20591E+03 1.10522E+03-2.94776E+01
 -1       187 5.54999E+03 1.18003E+03-1.26219E+01
 -1       192 8.61182E+02 1.70244E+02 2.40997E+02
 -1       196 1.89931E+03 4.04971E+02 3.04136E+02
 -1       200 2.93515E+03 6.26608E+02 2.83234E+02
 -1       204 3.85734E+03 8.24053E+02 2.44860E+02
 -1       208 4.61818E+03 9.86691E+02 1.91218E+02
 -1       212 5.18962E+03 1.10869E+03 1.38414E+02
 -1       216 5.54093E+03 1.18196E+03 5.92669E+01
 -1       222 8.21836E+02 1.75024E+02-3.18856E-11
 -1       228 1.90511E+03 4.05725E+02-9.42251E-11
 -1       234 2.93855E+03 6.25813E+02-1.76357E-10
 -1       240 3.86218E+03 8.22517E+02-2.63128E-10
 -1       246 4.62883E+03 9.85787E+02-3.42084E-10
 -1       252 5.18950E+03 1.10519E+03-4.03247E-10
 -1       258 5.56812E+03 1.18583E+03-4.45652E-10
 -3
    1PSTEP                         3           1           2          
    1PGM                1.000000E+00                                  
    1PGK                5.454937E+11                                  
    1PHID                         -1                                  
    1PSUBC                         0                                  
    1PMODE                         2                                  
  100CL  103 117547.9305          81                     2    3MODAL      1
 -4  DISP        4    1
 -5  D1          1    2    1    0
 -5  D2          1    2    2    0
 -5  D3          1    2    3    0
 -5  ALL         1    2    0    0    1ALL
 -1         1 0.00000E+00 0.00000E+00 0.00000E+00
 -1         2 0.00000E+00 0.00000E+00 0.00000E+00
 -1         3 0.00000E+00 0.00000E+00 0.00000E+00
 -1         4 0.00000E+00 0.00000E+00 0.00000E+00
 -1         5-1.26268E+03 5.72705E+03 9.82642E+00
 -1         6-1.17258E+03 5.70786E+03 1.51444E+01
 -1         7-1.26268E+03 5.72705E+03-9.82642E+00
 -1         8-1.17258E+03 5.70786E+03-1.51444E+01
 -1        10 0.00000E+00 0.00000E+00 0.00000E+00
 -1        13 0.00000E+00 0.00000E+00 0.00000E+00
 -1        16 0.00000E+00 0.00000E+00 0.00000E+00
 -1        19 0.00000E+00 0.00000E+00 0.00000E+00
 -1        22-1.22215E+03 5.68181E+03 5.56918E+00
 -1        25-1.21004E+03 5.73871E+03 1.18605E+00
 -1        28-1.22215E+03 5.68181E+03-5.56918E+00
 -1        31-1.21004E+03 5.73871E+03-1.18605E+00
 -1        34-2.37113E+02 8.51324E+02 2.91917E+02
 -1        36-4.03775E+02 1.89560E+03 3.65128E+02
 -1        38-6.17943E+02 2.93808E+03 3.43405E+02
 -1        40-8.10567E+02 3.86023E+03 2.95658E+02
 -1        42-9.69721E+02 4.62377E+03 2.35061E+02
 -1        44-1.09092E+03 5.19225E+03 1.59156E+02
 -1        46-1.16673E+03 5.54898E+03 8.73319E+01
 -1        49-1.19820E+03 5.55568E+03 5.66652E+01
 -1        51-1.12204E+03 5.19887E+03 1.03268E+02
 -1        53-1.00112E+03 4.63046E+03 1.52519E+02
 -1        55-8.34731E+02 3.86537E+03 1.91837E+02
 -1        57-6.34223E+02 2.94155E+03 2.22818E+02
 -1        59-4.03617E+02 1.89556E+03 2.36913E+02
 -1        61-1.20192E+02 8.26424E+02 1.89410E+02
 -1        64-1.20192E+02 8.26424E+02-1.89410E+02
 -1        66-4.03617E+02 1.89556E+03-2.36913E+02
 -1        68-6.34223E+02 2.94155E+03-2.22818E+02
 -1        70-8.34731E+02 3.86537E+03-1.91837E+02
 -1        72-1.00112E+03 4.63046E+03-1.52519E+02
 -1        74-1.12204E+03 5.19887E+03-1.03268E+02
 -1        76-1.19820E+03 5.55568E+03-5.66652E+01
 -1        79-2.37113E+02 8.51324E+02-2.91917E+02
 -1        81-4.03775E+02 1.89560E+03-3.65128E+02
 -1        83-6.17943E+02 2.93808E+03-3.43405E+02
 -1        85-8.10567E+02 3.86023E+03-2.95658E+02
 -1        87-9.69721E+02 4.62377E+03-2.35061E+02
 -1        89-1.09092E+03 5.19225E+03-1.59156E+02
 -1        91-1.16673E+03 5.54898E+03-8.73319E+01
 -1        95 0.00000E+00 0.00000E+00 0.00000E+00
 -1       100-1.20543E+03 5.66016E+03-2.71029E-10
 -1       105-1.70244E+02 8.61182E+02 2.40997E+02
 -1       109-4.04971E+02 1.89931E+03 3.04136E+02
 -1       113-6.26608E+02 2.93515E+03 2.83234E+02
 -1       117-8.24053E+02 3.85734E+03 2.44860E+02
 -1       121-9.86691E+02 4.61818E+03 1.91218E+02
 -1       125-1.10869E+03 5.18962E+03 1.38414E+02
 -1       129-1.18196E+03 5.54093E+03 5.92669E+01
 -1       134-1.83403E+02 7.99390E+02 5.13245E+01
 -1       138-4.04491E+02 1.90157E+03 6.47709E+01
 -1       142-6.25089E+02 2.94228E+03 6.03196E+01
 -1       146-8.21486E+02 3.86939E+03 5.21471E+01
 -1       150-9.83520E+02 4.63307E+03 4.07231E+01
 -1       154-1.10522E+03 5.20591E+03 2.94776E+01
 -1       158-1.18003E+03 5.54999E+03 1.26219E+01
 -1       163-1.70244E+02 8.61182E+02-2.40997E+02
 -1       167-4.04971E+02 1.89931E+03-3.04136E+02
 -1       171-6.26608E+02 2.93515E+03-2.83234E+02
 -1       175-8.24053E+02 3.85734E+03-2.44860E+02
 -1       179-9.86691E+02 4.61818E+03-1.91218E+02
 -1       183-1.10869E+03 5.18962E+03-1.38414E+02
 -1       187-1.18196E+03 5.54093E+03-5.92669E+01
 -1       192-1.83403E+02 7.99390E+02-5.13245E+01
 -1       196-4.04491E+02 1.90157E+03-6.47709E+01
 -1       200-6.25089E+02 2.94228E+03-6.03196E+01
 -1       204-8.21486E+02 3.86939E+03-5.21471E+01
 -1       208-9.83520E+02 4.63307E+03-4.07231E+01
 -1       212-1.10522E+03 5.20591E+03-2.94776E+01
 -1       216-1.18003E+03 5.54999E+03-1.26219E+01
 -1       222-1.75024E+02 8.21836E+02-1.92770E-11
 -1       228-4.05725E+02 1.90511E+03-5.86411E-11
 -1       234-6.25813E+02 2.93855E+03-1.08798E-10
 -1       240-8.22517E+02 3.86218E+03-1.61435E-10
 -1       246-9.85787E+02 4.62883E+03-2.07820E-10
 -1       252-1.10519E+03 5.18950E+03-2.43745E-10
 -1       258-1.18583E+03 5.56812E+03-2.66937E-10
 -3
    1PSTEP                         4           1           2          
    1PGM                1.000000E+00                                  
    1PGK                7.413272E+11                                  
    1PHID                         -1                                  
    1PSUBC                         0                                  
    1PMODE                         3                                  
  100CL  104 137032.9829          81                     2    4MODAL      1
 -4  DISP        4    1
 -5  D1          1    2    1    0
 -5  D2          1    2    2    0
 -5  D3          1    2    3    0
 -5  ALL         1    2    0    0    1ALL
 -1         1 0.00000E+00 0.00000E+00 0.00000E+00
 -1         2 0.00000E+00 0.00000E+00 0.00000E+00
 -1         3 0.00000E+00 0.00000E+00 0.00000E+00
 -1         4 0.00000E+00 0.00000E+00 0.00000E+00
 -1         5-7.74965E+03 7.74965E+03 4.76916E-11
 -1         6-7.74965E+03-7.74965E+03 9.80151E-10
 -1         7 7.74965E+03-7.74965E+03-6.48015E-11
 -1         8 7.74965E+03 7.74965E+03-9.92962E-10
 -1        10 0.00000E+00 0.00000E+00 0.00000E+00
 -1        13 0.00000E+00 0.00000E+00 0.00000E+00
 -1        16 0.00000E+00 0.00000E+00 0.00000E+00
 -1        19 0.00000E+00 0.00000E+00 0.00000E+00
 -1        22-8.05540E+03-8.66009E-10 5.40837E-10
 -1        25 5.07868E-10-8.05540E+03 4.84079E-10
 -1        28 8.05540E+03-1.46542E-09-5.59226E-10
 -1        31 1.09944E-09 8.05540E+03-5.00535E-10
 -1        34-1.42382E+03-1.42382E+03 1.24999E-10
 -1        36-2.66877E+03-2.66877E+03 3.29010E-10
 -1        38-3.81085E+03-3.81085E+03 5.74801E-10
 -1        40-4.80968E+03-4.80968E+03 8.08996E-10
 -1        42-5.68510E+03-5.68510E+03 9.97261E-10
 -1        44-6.17751E+03-6.17751E+03 1.06206E-09
 -1        46-7.09332E+03-7.09332E+03 1.05129E-09
 -1        49-7.09332E+03 7.09332E+03 3.95062E-11
 -1        51-6.17751E+03 6.17751E+03 2.76259E-11
 -1        53-5.68510E+03 5.68510E+03 1.27329E-11
 -1        55-4.80968E+03 4.80968E+03 1.59162E-12
 -1        57-3.81085E+03 3.81085E+03-8.41283E-12
 -1        59-2.66877E+03 2.66877E+03-1.20508E-11
 -1        61-1.42382E+03 1.42382E+03-1.00044E-11
 -1        64 1.42382E+03-1.42382E+03 8.52651E-12
 -1        66 2.66877E+03-2.66877E+03 1.02318E-11
 -1        68 3.81085E+03-3.81085E+03 6.36646E-12
 -1        70 4.80968E+03-4.80968E+03-5.91172E-12
 -1        72 5.68510E+03-5.68510E+03-2.13731E-11
 -1        74 6.17751E+03-6.17751E+03-3.91083E-11
 -1        76 7.09332E+03-7.09332E+03-5.37739E-11
 -1        79 1.42382E+03 1.42382E+03-1.26306E-10
 -1        81 2.66877E+03 2.66877E+03-3.30829E-10
 -1        83 3.81085E+03 3.81085E+03-5.78439E-10
 -1        85 4.80968E+03 4.80968E+03-8.12406E-10
 -1        87 5.68510E+03 5.68510E+03-1.00272E-09
 -1        89 6.17751E+03 6.17751E+03-1.07184E-09
 -1        91 7.09332E+03 7.09332E+03-1.06508E-09
 -1        95 0.00000E+00 0.00000E+00 0.00000E+00
 -1       100-3.61354E-10 1.42109E-10-8.12861E-12
 -1       105-1.41623E+03 5.46834E-11 5.96856E-11
 -1       109-2.66881E+03 1.40233E-10 1.57797E-10
 -1       113-3.80884E+03 2.23849E-10 2.84672E-10
 -1       117-4.82531E+03 2.96382E-10 4.06317E-10
 -1       121-5.61047E+03 3.61524E-10 4.98972E-10
 -1       125-6.47550E+03 3.68800E-10 5.72328E-10
 -1       129-6.13105E+03 4.43606E-10 4.72369E-10
 -1       134-8.00355E-11-1.41623E+03 6.86100E-11
 -1       138-1.96451E-10-2.66881E+03 1.69848E-10
 -1       142-3.14571E-10-3.80884E+03 2.92403E-10
 -1       146-4.32919E-10-4.82531E+03 4.03816E-10
 -1       150-5.31372E-10-5.61047E+03 4.82146E-10
 -1       154-5.60419E-10-6.47550E+03 5.37000E-10
 -1       158-6.41535E-10-6.13105E+03 4.31129E-10
 -1       163 1.41623E+03 3.27987E-11-6.03677E-11
 -1       167 2.66881E+03 6.26414E-11-1.59844E-10
 -1       171 3.80884E+03 6.58247E-11-2.86718E-10
 -1       175 4.82531E+03 3.75167E-11-4.11092E-10
 -1       179 5.61047E+03-1.22782E-11-5.06589E-10
 -1       183 6.47550E+03-9.73159E-11-5.82986E-10
 -1       187 6.13105E+03-1.05729E-10-4.87034E-10
 -1       192-5.82077E-11 1.41623E+03-7.00311E-11
 -1       196-1.17325E-10 2.66881E+03-1.71667E-10
 -1       200-1.54159E-10 3.80884E+03-2.93994E-10
 -1       204-1.68257E-10 4.82531E+03-4.07681E-10
 -1       208-1.62117E-10 5.61047E+03-4.88853E-10
 -1       212-9.64064E-11 6.47550E+03-5.46606E-10
 -1       216-9.40190E-11 6.13105E+03-4.46391E-10
 -1       222-5.43423E-11 2.96723E-11-1.13687E-13
 -1       228-1.44155E-10 8.81073E-11-1.36424E-12
 -1       234-2.21235E-10 1.30854E-10-1.81899E-12
 -1       240-2.89901E-10 1.57456E-10-1.36424E-12
 -1       246-3.48791E-10 1.75078E-10-3.41061E-12
 -1       252-3.43675E-10 1.46883E-10-5.34328E-12
 -1       258-2.21007E-10 9.09495E-13-6.90648E-12
 -3
    1PSTEP                         5           1           2          
    1PGM                1.000000E+00                                  
    1PGK                2.798655E+12                                  
    1PHID                         -1                                  
    1PSUBC                         0                                  
    1PMODE                         4                                  
  100CL  105 266253.1736          81                     2    5MODAL      1
 -4  DISP        4    1
 -5  D1          1    2    1    0
 -5  D2          1    2    2    0
 -5  D3          1    2    3    0
 -5  ALL         1    2    0    0    1ALL
 -1         1 0.00000E+00 0.00000E+00 0.00000E+00
 -1         2 0.00000E+00 0.00000E+00 0.00000E+00
 -1         3 0.00000E+00 0.00000E+00 0.00000E+00
 -1         4 0.00000E+00 0.00000E+00 0.00000E+00
 -1         5-1.26916E+01-1.26916E+01-5.69987E+03
 -1         6 1.26916E+01-1.26916E+01-5.69987E+03
 -1         7 1.26916E+01 1.26916E+01-5.69987E+03
 -1         8-1.26916E+01 1.26916E+01-5.69987E+03
 -1        10 0.00000E+00 0.00000E+00 0.00000E+00
 -1        13 0.00000E+00 0.00000E+00 0.00000E+00
 -1        16 0.00000E+00 0.00000E+00 0.00000E+00
 -1        19 0.00000E+00 0.00000E+00 0.00000E+00
 -1        22 6.36646E-12 1.91746E+01-5.72885E+03
 -1        25-1.91746E+01-2.50111E-11-5.72885E+03
 -1        28-4.77485E-12-1.91746E+01-5.72885E+03
 -1        31 1.91746E+01-3.31966E-11-5.72885E+03
 -1        34 3.18653E+02-3.18653E+02-1.07127E+03
 -1        36 2.69192E+02-2.69192E+02-2.13240E+03
 -1        38 2.43791E+02-2.43791E+02-3.12722E+03
 -1        40 2.07422E+02-2.07422E+02-3.99767E+03
 -1        42 1.62464E+02-1.62464E+02-4.71392E+03
 -1        44 1.14828E+02-1.14828E+02-5.24413E+03
 -1        46 5.36328E+01-5.36328E+01-5.57607E+03
 -1        49-5.36328E+01-5.36328E+01-5.57607E+03
 -1        51-1.14828E+02-1.14828E+02-5.24413E+03
 -1        53-1.62464E+02-1.62464E+02-4.71392E+03
 -1        55-2.07422E+02-2.07422E+02-3.99767E+03
 -1        57-2.43791E+02-2.43791E+02-3.12722E+03
 -1        59-2.69192E+02-2.69192E+02-2.13240E+03
 -1        61-3.18653E+02-3.18653E+02-1.07127E+03
 -1        64 3.18653E+02 3.18653E+02-1.07127E+03
 -1        66 2.69192E+02 2.69192E+02-2.13240E+03
 -1        68 2.43791E+02 2.43791E+02-3.12722E+03
 -1        70 2.07422E+02 2.07422E+02-3.99767E+03
 -1        72 1.62464E+02 1.62464E+02-4.71392E+03
 -1        74 1.14828E+02 1.14828E+02-5.24413E+03
 -1        76 5.36328E+01 5.36328E+01-5.57607E+03
 -1        79-3.18653E+02 3.18653E+02-1.07127E+03
 -1        81-2.69192E+02 2.69192E+02-2.13240E+03
 -1        83-2.43791E+02 2.43791E+02-3.12722E+03
 -1        85-2.07422E+02 2.07422E+02-3.99767E+03
 -1        87-1.62464E+02 1.62464E+02-4.71392E+03
 -1        89-1.14828E+02 1.14828E+02-5.24413E+03