# vtk DataFile Version 3.0

ASCII
DATASET UNSTRUCTURED_GRID

POINTS 90 double
	 0.00000000E+00	 0.00000000E+00	 0.00000000E+00
	 1.00000000E+00	 0.00000000E+00	 0.00000000E+00
	 1.00000000E+00	 1.00000000E+00	 0.00000000E+00
	 0.00000000E+00	 1.00000000E+00	 0.00000000E+00
	 0.00000000E+00	 0.00000000E+00	 8.00000000E+00
	 1.00000000E+00	 0.00000000E+00	 8.00000000E+00
	 1.00000000E+00	 1.00000000E+00	 8.00000000E+00
	 0.00000000E+00	 1.00000000E+00	 8.00000000E+00
	 5.00000000E-01	 0.00000000E+00	 0.00000000E+00
	 1.00000000E+00	 5.00000000E-01	 0.00000000E+00
	 5.00000000E-01	 1.00000000E+00	 0.00000000E+00
	 0.00000000E+00	 5.00000000E-01	 0.00000000E+00
	 5.00000000E-01	 0.00000000E+00	 8.00000000E+00
	 1.00000000E+00	 5.00000000E-01	 8.00000000E+00
	 5.00000000E-01	 1.00000000E+00	 8.00000000E+00
	 0.00000000E+00	 5.00000000E-01	 8.00000000E+00
	 1.00000000E+00	 0.00000000E+00	 1.00000000E+00
	 1.00000000E+00	 0.00000000E+00	 2.00000000E+00
	 1.00000000E+00	 0.00000000E+00	 3.00000000E+00
	 1.00000000E+00	 0.00000000E+00	 4.00000000E+00
	 1.00000000E+00	 0.00000000E+00	 5.00000000E+00
	 1.00000000E+00	 0.00000000E+00	 6.00000000E+00
	 1.00000000E+00	 0.00000000E+00	 7.00000000E+00
	 0.00000000E+00	 0.00000000E+00	 7.00000000E+00
	 0.00000000E+00	 0.00000000E+00	 6.00000000E+00
	 0.00000000E+00	 0.00000000E+00	 5.00000000E+00
	 0.00000000E+00	 0.00000000E+00	 4.00000000E+00
	 0.00000000E+00	 0.00000000E+00	 3.00000000E+00
	 0.00000000E+00	 0.00000000E+00	 2.00000000E+00
	 0.00000000E+00	 0.00000000E+00	 1.00000000E+00
	 1.00000000E+00	 1.00000000E+00	 1.00000000E+00
	 1.00000000E+00	 1.00000000E+00	 2.00000000E+00
	 1.00000000E+00	 1.00000000E+00	 3.00000000E+00
	 1.00000000E+00	 1.00000000E+00	 4.00000000E+00
	 1.00000000E+00	 1.00000000E+00	 5.00000000E+00
	 1.00000000E+00	 1.00000000E+00	 6.00000000E+00
	 1.00000000E+00	 1.00000000E+00	 7.00000000E+00
	 0.00000000E+00	 1.00000000E+00	 1.00000000E+00
	 0.00000000E+00	 1.00000000E+00	 2.00000000E+00
	 0.00000000E+00	 1.00000000E+00	 3.00000000E+00
	 0.00000000E+00	 1.00000000E+00	 4.00000000E+00
	 0.00000000E+00	 1.00000000E+00	 5.00000000E+00
	 0.00000000E+00	 1.00000000E+00	 6.00000000E+00
	 0.00000000E+00	 1.00000000E+00	 7.00000000E+00
	 5.00000000E-01	 5.00000000E-01	 0.00000000E+00
	 5.00000000E-01	 5.00000000E-01	 8.00000000E+00
	 5.00000000E-01	 0.00000000E+00	 1.00000000E+00
	 5.00000000E-01	 0.00000000E+00	 2.00000000E+00
	 5.00000000E-01	 0.00000000E+00	 3.00000000E+00
	 5.00000000E-01	 0.00000000E+00	 4.00000000E+00
	 5.00000000E-01	 0.00000000E+00	 5.00000000E+00
	 5.00000000E-01	 0.00000000E+00	 6.00000000E+00
	 5.00000000E-01	 0.00000000E+00	 7.00000000E+00
	 1.00000000E+00	 5.00000000E-01	 1.00000000E+00
	 1.00000000E+00	 5.00000000E-01	 2.00000000E+00
	 1.00000000E+00	 5.00000000E-01	 3.00000000E+00
	 1.00000000E+00	 5.00000000E-01	 4.00000000E+00
	 1.00000000E+00	 5.00000000E-01	 5.00000000E+00
	 1.00000000E+00	 5.00000000E-01	 6.00000000E+00
	 1.00000000E+00	 5.00000000E-01	 7.00000000E+00
	 5.00000000E-01	 1.00000000E+00	 1.00000000E+00
	 5.00000000E-01	 1.00000000E+00	 2.00000000E+00
	 5.00000000E-01	 1.00000000E+00	 3.00000000E+00
	 5.00000000E-01	 1.00000000E+00	 4.00000000E+00
	 5.00000000E-01	 1.00000000E+00	 5.00000000E+00
	 5.00000000E-01	 1.00000000E+00	 6.00000000E+00
	 5.00000000E-01	 1.00000000E+00	 7.00000000E+00
	 0.00000000E+00	 5.00000000E-01	 1.00000000E+00
	 0.00000000E+00	 5.00000000E-01	 2.00000000E+00
	 0.00000000E+00	 5.00000000E-01	 3.00000000E+00
	 0.00000000E+00	 5.00000000E-01	 4.00000000E+00
	 0.00000000E+00	 5.00000000E-01	 5.00000000E+00
	 0.00000000E+00	 5.00000000E-01	 6.00000000E+00
	 0.00000000E+00	 5.00000000E-01	 7.00000000E+00
	 5.00000000E-01	 5.00000000E-01	 1.00000000E+00
	 5.00000000E-01	 5.00000000E-01	 2.00000000E+00
	 5.00000000E-01	 5.00000000E-01	 3.00000000E+00
	 5.00000000E-01	 5.00000000E-01	 4.00000000E+00
	 5.00000000E-01	 5.00000000E-01	 5.00000000E+00
	 5.00000000E-01	 5.00000000E-01	 6.00000000E+00
	 5.00000000E-01	 5.00000000E-01	 7.00000000E+00
	 1.00000000E+00	 0.00000000E+00	 4.00000000E+00
	 0.00000000E+00	 0.00000000E+00	 4.00000000E+00
	 1.00000000E+00	 1.00000000E+00	 4.00000000E+00
	 0.00000000E+00	 1.00000000E+00	 4.00000000E+00
	 5.00000000E-01	 0.00000000E+00	 4.00000000E+00
	 1.00000000E+00	 5.00000000E-01	 4.00000000E+00
	 5.00000000E-01	 1.00000000E+00	 4.00000000E+00
	 0.00000000E+00	 5.00000000E-01	 4.00000000E+00
	 5.00000000E-01	 5.00000000E-01	 4.00000000E+00

CELLS 32 288
	8 0 8 44 11 29 46 74 67 
	8 8 1 9 44 46 16 53 74 
	8 11 44 10 3 67 74 60 37 
	8 44 9 2 10 74 53 30 60 
	8 29 46 74 67 28 47 75 68 
	8 46 16 53 74 47 17 54 75 
	8 67 74 60 37 68 75 61 38 
	8 74 53 30 60 75 54 31 61 
	8 28 47 75 68 27 48 76 69 
	8 47 17 54 75 48 18 55 76 
	8 68 75 61 38 69 76 62 39 
	8 75 54 31 61 76 55 32 62 
	8 27 48 76 69 26 49 77 70 
	8 48 18 55 76 49 19 56 77 
	8 69 76 62 39 70 77 63 40 
	8 76 55 32 62 77 56 33 63 
	8 82 85 89 88 25 50 78 71 
	8 85 81 86 89 50 20 57 78 
	8 88 89 87 84 71 78 64 41 
	8 89 86 83 87 78 57 34 64 
	8 25 50 78 71 24 51 79 72 
	8 50 20 57 78 51 21 58 79 
	8 71 78 64 41 72 79 65 42 
	8 78 57 34 64 79 58 35 65 
	8 24 51 79 72 23 52 80 73 
	8 51 21 58 79 52 22 59 80 
	8 72 79 65 42 73 80 66 43 
	8 79 58 35 65 80 59 36 66 
	8 23 52 80 73 4 12 45 15 
	8 52 22 59 80 12 5 13 45 
	8 73 80 66 43 15 45 14 7 
	8 80 59 36 66 45 13 6 14 

CELL_TYPES 32
	12
	12
	12
	12
	12
	12
	12
	12
	12
	12
	12
	12
	12
	12
	12
	12
	12
	12
	12
	12
	12
	12
	12
	12
	12
	12
	12
	12
	12
	12
	12
	12

POINT_DATA 90
FIELD U 1
	U 3 90 double
		 0.00000000E+00	 0.00000000E+00	 0.00000000E+00
		 0.00000000E+00	 0.00000000E+00	 0.00000000E+00
		 0.00000000E+00	 0.00000000E+00	 0.00000000E+00
		 0.00000000E+00	 0.00000000E+00	 0.00000000E+00
		-4.75182000E+03	-3.76546000E+03	-4.75995000E+02
		-6.16383000E+03	-5.43982000E+03	 4.04617000E+01
		-4.75182000E+03	-3.76546000E+03	 4.75995000E+02
		-6.16383000E+03	-5.43982000E+03	-4.04617000E+01
		 0.00000000E+00	 0.00000000E+00	 0.00000000E+00
		 0.00000000E+00	 0.00000000E+00	 0.00000000E+00
		 0.00000000E+00	 0.00000000E+00	 0.00000000E+00
		 0.00000000E+00	 0.00000000E+00	 0.00000000E+00
		-5.84410000E+03	-4.01975000E+03	-1.25821000E+02
		-4.76663000E+03	-4.92839000E+03	 1.49199000E+02
		-5.84410000E+03	-4.01975000E+03	 1.25821000E+02
		-4.76663000E+03	-4.92839000E+03	-1.49199000E+02
		-3.48383000E+03	-2.93467000E+03	 7.26891000E+01
		-4.72111000E+03	-4.05407000E+03	-4.17960000E+01
		-1.70438000E+03	-1.46443000E+03	-1.56508000E+02
		 2.90621000E+03	 2.49890000E+03	-1.33274000E+02
		 4.84593000E+03	 4.16853000E+03	 1.29476000E+01
		 2.31445000E+03	 1.99326000E+03	 1.41922000E+02
		-2.34847000E+03	-2.01152000E+03	 1.51201000E+02
		-2.16727000E+03	-1.79665000E+03	-1.77874000E+03
		 2.07234000E+03	 1.70617000E+03	-1.66958000E+03
		 4.36759000E+03	 3.60132000E+03	-1.52316000E+02
		 2.62555000E+03	 2.16609000E+03	 1.56785000E+03
		-1.54607000E+03	-1.27671000E+03	 1.84117000E+03
		-4.29649000E+03	-3.55056000E+03	 4.91692000E+02
		-3.50294000E+03	-2.95734000E+03	-8.55120000E+02
		-3.50294000E+03	-2.95734000E+03	 8.55120000E+02
		-4.29649000E+03	-3.55056000E+03	-4.91692000E+02
		-1.54607000E+03	-1.27671000E+03	-1.84117000E+03
		 2.62555000E+03	 2.16609000E+03	-1.56785000E+03
		 4.36759000E+03	 3.60132000E+03	 1.52316000E+02
		 2.07234000E+03	 1.70617000E+03	 1.66958000E+03
		-2.16727000E+03	-1.79665000E+03	 1.77874000E+03
		-3.48383000E+03	-2.93467000E+03	-7.26891000E+01
		-4.72111000E+03	-4.05407000E+03	 4.17960000E+01
		-1.70438000E+03	-1.46443000E+03	 1.56508000E+02
		 2.90621000E+03	 2.49890000E+03	 1.33274000E+02
		 4.84593000E+03	 4.16853000E+03	-1.29476000E+01
		 2.31445000E+03	 1.99326000E+03	-1.41922000E+02
		-2.34847000E+03	-2.01152000E+03	-1.51201000E+02
		 0.00000000E+00	 0.00000000E+00	 0.00000000E+00
		-4.24818000E+03	-3.58254000E+03	 1.04046000E-09
		-3.43414000E+03	-2.90855000E+03	-3.99575000E+02
		-4.65537000E+03	-3.71642000E+03	 2.16175000E+02
		-1.66557000E+03	-1.32868000E+03	 8.62696000E+02
		 2.84421000E+03	 2.25947000E+03	 7.30084000E+02
		 4.74855000E+03	 3.77640000E+03	-5.46923000E+01
		 2.22658000E+03	 1.77478000E+03	-8.51540000E+02
		-2.13494000E+03	-1.81573000E+03	-6.57560000E+02
		-3.44897000E+03	-2.89605000E+03	 4.73817000E+02
		-4.40694000E+03	-3.92592000E+03	-2.56341000E+02
		-1.57555000E+03	-1.40459000E+03	-1.02299000E+03
		 2.67929000E+03	 2.39855000E+03	-8.65736000E+02
		 4.47807000E+03	 4.00450000E+03	 6.48543000E+01
		 2.10454000E+03	 1.87770000E+03	 1.00976000E+03
		-2.15310000E+03	-1.80042000E+03	 7.79737000E+02
		-3.43414000E+03	-2.90855000E+03	 3.99575000E+02
		-4.65537000E+03	-3.71642000E+03	-2.16175000E+02
		-1.66557000E+03	-1.32868000E+03	-8.62696000E+02
		 2.84421000E+03	 2.25947000E+03	-7.30084000E+02
		 4.74855000E+03	 3.77640000E+03	 5.46923000E+01
		 2.22658000E+03	 1.77478000E+03	 8.51540000E+02
		-2.13494000E+03	-1.81573000E+03	 6.57560000E+02
		-3.44897000E+03	-2.89605000E+03	-4.73817000E+02
		-4.40694000E+03	-3.92592000E+03	 2.56341000E+02
		-1.57555000E+03	-1.40459000E+03	 1.02299000E+03
		 2.67929000E+03	 2.39855000E+03	 8.65736000E+02
		 4.47807000E+03	 4.00450000E+03	-6.48543000E+01
		 2.10454000E+03	 1.87770000E+03	-1.00976000E+03
		-2.15310000E+03	-1.80042000E+03	-7.79737000E+02
		-3.39022000E+03	-2.85901000E+03	 1.18689000E-10
		-4.55731000E+03	-3.84323000E+03	 1.94632000E-10
		-1.61842000E+03	-1.36483000E+03	-1.02261000E-10
		 2.76627000E+03	 2.33283000E+03	-5.89353000E-10
		 4.58405000E+03	 3.86577000E+03	-6.88772000E-10
		 2.27007000E+03	 1.91437000E+03	-1.32786000E-10
		-2.52967000E+03	-2.13329000E+03	 8.24912000E-10
		 2.90621000E+03	 2.49890000E+03	-1.33274000E+02
		 2.62555000E+03	 2.16609000E+03	 1.56785000E+03
		 2.62555000E+03	 2.16609000E+03	-1.56785000E+03
		 2.90621000E+03	 2.49890000E+03	 1.33274000E+02
		 2.84421000E+03	 2.25947000E+03	 7.30084000E+02
		 2.67929000E+03	 2.39855000E+03	-8.65736000E+02
		 2.84421000E+03	 2.25947000E+03	-7.30084000E+02
		 2.67929000E+03	 2.39855000E+03	 8.65736000E+02
		 2.76627000E+03	 2.33283000E+03	-5.89353000E-10
FIELD U 1
	U 3 90 double
		 0.00000000E+00	 0.00000000E+00	 0.00000000E+00
		 0.00000000E+00	 0.00000000E+00	 0.00000000E+00
		 0.00000000E+00	 0.00000000E+00	 0.00000000E+00
		 0.00000000E+00	 0.00000000E+00	 0.00000000E+00
		-5.43982000E+03	 6.16383000E+03	 4.04617000E+01
		-3.76546000E+03	 4.75182000E+03	 4.75995000E+02
		-5.43982000E+03	 6.16383000E+03	-4.04617000E+01
		-3.76546000E+03	 4.75182000E+03	-4.75995000E+02
		 0.00000000E+00	 0.00000000E+00	 0.00000000E+00
		 0.00000000E+00	 0.00000000E+00	 0.00000000E+00
		 0.00000000E+00	 0.00000000E+00	 0.00000000E+00
		 0.00000000E+00	 0.00000000E+00	 0.00000000E+00
		-4.92839000E+03	 4.76663000E+03	 1.49199000E+02
		-4.01975000E+03	 5.84410000E+03	 1.25821000E+02
		-4.92839000E+03	 4.76663000E+03	-1.49199000E+02
		-4.01975000E+03	 5.84410000E+03	-1.25821000E+02
		-2.95734000E+03	 3.50294000E+03	 8.55120000E+02
		-3.55056000E+03	 4.29649000E+03	-4.91692000E+02
		-1.27671000E+03	 1.54607000E+03	-1.84117000E+03
		 2.16609000E+03	-2.62555000E+03	-1.56785000E+03
		 3.60132000E+03	-4.36759000E+03	 1.52316000E+02
		 1.70617000E+03	-2.07234000E+03	 1.66958000E+03
		-1.79665000E+03	 2.16727000E+03	 1.77874000E+03
		-2.01152000E+03	 2.34847000E+03	 1.51201000E+02
		 1.99326000E+03	-2.31445000E+03	 1.41922000E+02
		 4.16853000E+03	-4.84593000E+03	 1.29476000E+01
		 2.49890000E+03	-2.90621000E+03	-1.33274000E+02
		-1.46443000E+03	 1.70438000E+03	-1.56508000E+02
		-4.05407000E+03	 4.72111000E+03	-4.17960000E+01
		-2.93467000E+03	 3.48383000E+03	 7.26891000E+01
		-2.93467000E+03	 3.48383000E+03	-7.26891000E+01
		-4.05407000E+03	 4.72111000E+03	 4.17960000E+01
		-1.46443000E+03	 1.70438000E+03	 1.56508000E+02
		 2.49890000E+03	-2.90621000E+03	 1.33274000E+02
		 4.16853000E+03	-4.84593000E+03	-1.29476000E+01
		 1.99326000E+03	-2.31445000E+03	-1.41922000E+02
		-2.01152000E+03	 2.34847000E+03	-1.51201000E+02
		-2.95734000E+03	 3.50294000E+03	-8.55120000E+02
		-3.55056000E+03	 4.29649000E+03	 4.91692000E+02
		-1.27671000E+03	 1.54607000E+03	 1.84117000E+03
		 2.16609000E+03	-2.62555000E+03	 1.56785000E+03
		 3.60132000E+03	-4.36759000E+03	-1.52316000E+02
		 1.70617000E+03	-2.07234000E+03	-1.66958000E+03
		-1.79665000E+03	 2.16727000E+03	-1.77874000E+03
		 0.00000000E+00	 0.00000000E+00	 0.00000000E+00
		-3.58254000E+03	 4.24818000E+03	-1.43245000E-11
		-2.89605000E+03	 3.44897000E+03	 4.73817000E+02
		-3.92592000E+03	 4.40694000E+03	-2.56341000E+02
		-1.40459000E+03	 1.57555000E+03	-1.02299000E+03
		 2.39855000E+03	-2.67929000E+03	-8.65736000E+02
		 4.00450000E+03	-4.47807000E+03	 6.48543000E+01
		 1.87770000E+03	-2.10454000E+03	 1.00976000E+03
		-1.80042000E+03	 2.15310000E+03	 7.79737000E+02
		-2.90855000E+03	 3.43414000E+03	 3.99575000E+02
		-3.71642000E+03	 4.65537000E+03	-2.16175000E+02
		-1.32868000E+03	 1.66557000E+03	-8.62696000E+02
		 2.25947000E+03	-2.84421000E+03	-7.30084000E+02
		 3.77640000E+03	-4.74855000E+03	 5.46923000E+01
		 1.77478000E+03	-2.22658000E+03	 8.51540000E+02
		-1.81573000E+03	 2.13494000E+03	 6.57560000E+02
		-2.89605000E+03	 3.44897000E+03	-4.73817000E+02
		-3.92592000E+03	 4.40694000E+03	 2.56341000E+02
		-1.40459000E+03	 1.57555000E+03	 1.02299000E+03
		 2.39855000E+03	-2.67929000E+03	 8.65736000E+02
		 4.00450000E+03	-4.47807000E+03	-6.48543000E+01
		 1.87770000E+03	-2.10454000E+03	-1.00976000E+03
		-1.80042000E+03	 2.15310000E+03	-7.79737000E+02
		-2.90855000E+03	 3.43414000E+03	-3.99575000E+02
		-3.71642000E+03	 4.65537000E+03	 2.16175000E+02
		-1.32868000E+03	 1.66557000E+03	 8.62696000E+02
		 2.25947000E+03	-2.84421000E+03	 7.30084000E+02
		 3.77640000E+03	-4.74855000E+03	-5.46923000E+01
		 1.77478000E+03	-2.22658000E+03	-8.51540000E+02
		-1.81573000E+03	 2.13494000E+03	-6.57560000E+02
		-2.85901000E+03	 3.39022000E+03	-2.28511000E-11
		-3.84323000E+03	 4.55731000E+03	-3.91083000E-11
		-1.36483000E+03	 1.61842000E+03	-1.90994000E-11
		 2.33283000E+03	-2.76627000E+03	 9.54969000E-12
		 3.86577000E+03	-4.58405000E+03	 2.22826000E-11
		 1.91437000E+03	-2.27007000E+03	 1.00044000E-11
		-2.13329000E+03	 2.52967000E+03	-1.59162000E-11
		 2.16609000E+03	-2.62555000E+03	-1.56785000E+03
		 2.49890000E+03	-2.90621000E+03	-1.33274000E+02
		 2.49890000E+03	-2.90621000E+03	 1.33274000E+02
		 2.16609000E+03	-2.62555000E+03	 1.56785000E+03
		 2.39855000E+03	-2.67929000E+03	-8.65736000E+02
		 2.25947000E+03	-2.84421000E+03	-7.30084000E+02
		 2.39855000E+03	-2.67929000E+03	 8.65736000E+02
		 2.25947000E+03	-2.84421000E+03	 7.30084000E+02
		 2.33283000E+03	-2.76627000E+03	 9.54969000E-12
FIELD SENFREQ 1
	SENFREQ 2 90 double
		 0.00000000E+00	 0.00000000E+00
		 0.00000000E+00	 0.00000000E+00
		 0.00000000E+00	 0.00000000E+00
		 0.00000000E+00	 0.00000000E+00
		-1.28379000E+12	-2.36441000E-01
		-2.24248000E+12	-4.13007000E-01
		-1.28379000E+12	-2.36441000E-01
		-2.24248000E+12	-4.13007000E-01
		 0.00000000E+00	 0.00000000E+00
		 0.00000000E+00	 0.00000000E+00
		 0.00000000E+00	 0.00000000E+00
		 0.00000000E+00	 0.00000000E+00
		-2.16261000E+12	-3.98297000E-01
		-1.95167000E+12	-3.59447000E-01
		-2.16261000E+12	-3.98297000E-01
		-1.95167000E+12	-3.59447000E-01
		-1.05507000E+12	-1.94316000E-01
		-1.68795000E+12	-3.10876000E-01
		 2.44251000E+12	 4.49847000E-01
		 0.00000000E+00	 0.00000000E+00
		-3.56890000E+12	-6.57299000E-01
		 9.17572000E+11	 1.68993000E-01
		 9.23148000E+11	 1.70020000E-01
		 6.78836000E+11	 1.25024000E-01
		 9.52339000E+11	 1.75396000E-01
		-1.08312000E+12	-1.99482000E-01
		 0.00000000E+00	 0.00000000E+00
		 2.13352000E+12	 3.92940000E-01
		-8.11810000E+11	-1.49514000E-01
		-4.65920000E+11	-8.58104000E-02
		-4.65920000E+11	-8.58104000E-02
		-8.11810000E+11	-1.49514000E-01
		 2.13352000E+12	 3.92940000E-01
		 0.00000000E+00	 0.00000000E+00
		-1.08312000E+12	-1.99482000E-01
		 9.52339000E+11	 1.75396000E-01
		 6.78836000E+11	 1.25024000E-01
		-1.05507000E+12	-1.94316000E-01
		-1.68795000E+12	-3.10876000E-01
		 2.44251000E+12	 4.49847000E-01
		 0.00000000E+00	 0.00000000E+00
		-3.56890000E+12	-6.57299000E-01
		 9.17572000E+11	 1.68993000E-01
		 9.23148000E+11	 1.70020000E-01
		 0.00000000E+00	 0.00000000E+00
		-5.42964000E+12	-1.00000000E+00
		-1.28800000E+12	-2.37217000E-01
		-1.89726000E+12	-3.49426000E-01
		 3.21356000E+12	 5.91854000E-01
		 0.00000000E+00	 0.00000000E+00
		-3.72441000E+12	-6.85940000E-01
		 1.18695000E+12	 2.18605000E-01
		 1.30055000E+12	 2.39528000E-01
		-1.24190000E+12	-2.28725000E-01
		-1.74094000E+12	-3.20636000E-01
		 3.15908000E+12	 5.81820000E-01
		 0.00000000E+00	 0.00000000E+00
		-3.32241000E+12	-6.11902000E-01
		 1.20536000E+12	 2.21995000E-01
		 1.30950000E+12	 2.41176000E-01
		-1.28800000E+12	-2.37217000E-01
		-1.89726000E+12	-3.49426000E-01
		 3.21356000E+12	 5.91854000E-01
		 0.00000000E+00	 0.00000000E+00
		-3.72441000E+12	-6.85940000E-01
		 1.18695000E+12	 2.18605000E-01
		 1.30055000E+12	 2.39528000E-01
		-1.24190000E+12	-2.28725000E-01
		-1.74094000E+12	-3.20636000E-01
		 3.15908000E+12	 5.81820000E-01
		 0.00000000E+00	 0.00000000E+00
		-3.32241000E+12	-6.11902000E-01
		 1.20536000E+12	 2.21995000E-01
		 1.30950000E+12	 2.41176000E-01
		 0.00000000E+00	 0.00000000E+00
		 0.00000000E+00	 0.00000000E+00
		 0.00000000E+00	 0.00000000E+00
		 0.00000000E+00	 0.00000000E+00
		 0.00000000E+00	 0.00000000E+00
		 0.00000000E+00	 0.00000000E+00
		 0.00000000E+00	 0.00000000E+00
		 0.00000000E+00	 0.00000000E+00
		 0.00000000E+00	 0.00000000E+00
		 0.00000000E+00	 0.00000000E+00
		 0.00000000E+00	 0.00000000E+00
		 0.00000000E+00	 0.00000000E+00
		 0.00000000E+00	 0.00000000E+00
		 0.00000000E+00	 0.00000000E+00
		 0.00000000E+00	 0.00000000E+00
		 0.00000000E+00	 0.00000000E+00
FIELD SENFREQ 1
	SENFREQ 2 90 double
		 0.00000000E+00	 0.00000000E+00
		 0.00000000E+00	 0.00000000E+00
		 0.00000000E+00	 0.00000000E+00
		 0.00000000E+00	 0.00000000E+00
		-2.24248000E+12	-4.13007000E-01
		-1.28379000E+12	-2.36441000E-01
		-2.24248000E+12	-4.13007000E-01
		-1.28379000E+12	-2.36441000E-01
		 0.00000000E+00	 0.00000000E+00
		 0.00000000E+00	 0.00000000E+00
		 0.00000000E+00	 0.00000000E+00
		 0.00000000E+00	 0.00000000E+00
		-1.95167000E+12	-3.59447000E-01
		-2.16261000E+12	-3.98297000E-01
		-1.95167000E+12	-3.59447000E-01
		-2.16261000E+12	-3.98297000E-01
		-4.65920000E+11	-8.58104000E-02
		-8.11810000E+11	-1.49514000E-01
		 2.13352000E+12	 3.92940000E-01
		 0.00000000E+00	 0.00000000E+00
		-1.08312000E+12	-1.99482000E-01
		 9.52339000E+11	 1.75396000E-01
		 6.78836000E+11	 1.25024000E-01
		 9.23148000E+11	 1.70020000E-01
		 9.17572000E+11	 1.68993000E-01
		-3.56890000E+12	-6.57299000E-01
		 0.00000000E+00	 0.00000000E+00
		 2.44251000E+12	 4.49847000E-01
		-1.68795000E+12	-3.10876000E-01
		-1.05507000E+12	-1.94316000E-01
		-1.05507000E+12	-1.94316000E-01
		-1.68795000E+12	-3.10876000E-01
		 2.44251000E+12	 4.49847000E-01
		 0.00000000E+00	 0.00000000E+00
		-3.56890000E+12	-6.57299000E-01
		 9.17572000E+11	 1.68993000E-01
		 9.23148000E+11	 1.70020000E-01
		-4.65920000E+11	-8.58104000E-02
		-8.11810000E+11	-1.49514000E-01
		 2.13352000E+12	 3.92940000E-01
		 0.00000000E+00	 0.00000000E+00
		-1.08312000E+12	-1.99482000E-01
		 9.52339000E+11	 1.75396000E-01
		 6.78836000E+11	 1.25024000E-01
		 0.00000000E+00	 0.00000000E+00
		-5.42964000E+12	-1.00000000E+00
		-1.24190000E+12	-2.28725000E-01
		-1.74094000E+12	-3.20636000E-01
		 3.15908000E+12	 5.81820000E-01
		 0.00000000E+00	 0.00000000E+00
		-3.32241000E+12	-6.11902000E-01
		 1.20536000E+12	 2.21995000E-01
		 1.30950000E+12	 2.41176000E-01
		-1.28800000E+12	-2.37217000E-01
		-1.89726000E+12	-3.49426000E-01
		 3.21356000E+12	 5.91854000E-01
		 0.00000000E+00	 0.00000000E+00
		-3.72441000E+12	-6.85940000E-01
		 1.18695000E+12	 2.18605000E-01
		 1.30055000E+12	 2.39528000E-01
		-1.24190000E+12	-2.28725000E-01
		-1.74094000E+12	-3.20636000E-01
		 3.15908000E+12	 5.81820000E-01
		 0.00000000E+00	 0.00000000E+00
		-3.32241000E+12	-6.11902000E-01
		 1.20536000E+12	 2.21995000E-01
		 1.30950000E+12	 2.41176000E-01
		-1.28800000E+12	-2.37217000E-01
		-1.89726000E+12	-3.49426000E-01
		 3.21356000E+12	 5.91854000E-01
		 0.00000000E+00	 0.00000000E+00
		-3.72441000E+12	-6.85940000E-01
		 1.18695000E+12	 2.18605000E-01
		 1.30055000E+12	 2.39528000E-01
		 0.00000000E+00	 0.00000000E+00
		 0.00000000E+00	 0.00000000E+00
		 0.00000000E+00	 0.00000000E+00
		 0.00000000E+00	 0.00000000E+00
		 0.00000000E+00	 0.00000000E+00
		 0.00000000E+00	 0.00000000E+00
		 0.00000000E+00	 0.00000000E+00
		 0.00000000E+00	 0.00000000E+00
		 0.00000000E+00	 0.00000000E+00
		 0.00000000E+00	 0.00000000E+00
		 0.00000000E+00	 0.00000000E+00
		 0.00000000E+00	 0.00000000E+00
		 0.00000000E+00	 0.00000000E+00
		 0.00000000E+00	 0.00000000E+00
		 0.00000000E+00	 0.00000000E+00
		 0.00000000E+00	 0.00000000E+00
