# vtk DataFile Version 3.0

ASCII
DATASET UNSTRUCTURED_GRID

POINTS 261 double
	 0.00000000E+00	 0.00000000E+00	 0.00000000E+00
	 1.00000000E+00	 0.00000000E+00	 0.00000000E+00
	 1.00000000E+00	 1.00000000E+00	 0.00000000E+00
	 0.00000000E+00	 1.00000000E+00	 0.00000000E+00
	 0.00000000E+00	 0.00000000E+00	 8.00000000E+00
	 1.00000000E+00	 0.00000000E+00	 8.00000000E+00
	 1.00000000E+00	 1.00000000E+00	 8.00000000E+00
	 0.00000000E+00	 1.00000000E+00	 8.00000000E+00
	 2.50000000E-01	 0.00000000E+00	 0.00000000E+00
	 5.00000000E-01	 0.00000000E+00	 0.00000000E+00
	 7.50000000E-01	 0.00000000E+00	 0.00000000E+00
	 1.00000000E+00	 2.50000000E-01	 0.00000000E+00
	 1.00000000E+00	 5.00000000E-01	 0.00000000E+00
	 1.00000000E+00	 7.50000000E-01	 0.00000000E+00
	 7.50000000E-01	 1.00000000E+00	 0.00000000E+00
	 5.00000000E-01	 1.00000000E+00	 0.00000000E+00
	 2.50000000E-01	 1.00000000E+00	 0.00000000E+00
	 0.00000000E+00	 7.50000000E-01	 0.00000000E+00
	 0.00000000E+00	 5.00000000E-01	 0.00000000E+00
	 0.00000000E+00	 2.50000000E-01	 0.00000000E+00
	 2.50000000E-01	 0.00000000E+00	 8.00000000E+00
	 5.00000000E-01	 0.00000000E+00	 8.00000000E+00
	 7.50000000E-01	 0.00000000E+00	 8.00000000E+00
	 1.00000000E+00	 2.50000000E-01	 8.00000000E+00
	 1.00000000E+00	 5.00000000E-01	 8.00000000E+00
	 1.00000000E+00	 7.50000000E-01	 8.00000000E+00
	 7.50000000E-01	 1.00000000E+00	 8.00000000E+00
	 5.00000000E-01	 1.00000000E+00	 8.00000000E+00
	 2.50000000E-01	 1.00000000E+00	 8.00000000E+00
	 0.00000000E+00	 7.50000000E-01	 8.00000000E+00
	 0.00000000E+00	 5.00000000E-01	 8.00000000E+00
	 0.00000000E+00	 2.50000000E-01	 8.00000000E+00
	 1.00000000E+00	 0.00000000E+00	 5.00000000E-01
	 1.00000000E+00	 0.00000000E+00	 1.00000000E+00
	 1.00000000E+00	 0.00000000E+00	 1.50000000E+00
	 1.00000000E+00	 0.00000000E+00	 2.00000000E+00
	 1.00000000E+00	 0.00000000E+00	 2.50000000E+00
	 1.00000000E+00	 0.00000000E+00	 3.00000000E+00
	 1.00000000E+00	 0.00000000E+00	 3.50000000E+00
	 1.00000000E+00	 0.00000000E+00	 4.00000000E+00
	 1.00000000E+00	 0.00000000E+00	 4.50000000E+00
	 1.00000000E+00	 0.00000000E+00	 5.00000000E+00
	 1.00000000E+00	 0.00000000E+00	 5.50000000E+00
	 1.00000000E+00	 0.00000000E+00	 6.00000000E+00
	 1.00000000E+00	 0.00000000E+00	 6.50000000E+00
	 1.00000000E+00	 0.00000000E+00	 7.00000000E+00
	 1.00000000E+00	 0.00000000E+00	 7.50000000E+00
	 0.00000000E+00	 0.00000000E+00	 7.50000000E+00
	 0.00000000E+00	 0.00000000E+00	 7.00000000E+00
	 0.00000000E+00	 0.00000000E+00	 6.50000000E+00
	 0.00000000E+00	 0.00000000E+00	 6.00000000E+00
	 0.00000000E+00	 0.00000000E+00	 5.50000000E+00
	 0.00000000E+00	 0.00000000E+00	 5.00000000E+00
	 0.00000000E+00	 0.00000000E+00	 4.50000000E+00
	 0.00000000E+00	 0.00000000E+00	 4.00000000E+00
	 0.00000000E+00	 0.00000000E+00	 3.50000000E+00
	 0.00000000E+00	 0.00000000E+00	 3.00000000E+00
	 0.00000000E+00	 0.00000000E+00	 2.50000000E+00
	 0.00000000E+00	 0.00000000E+00	 2.00000000E+00
	 0.00000000E+00	 0.00000000E+00	 1.50000000E+00
	 0.00000000E+00	 0.00000000E+00	 1.00000000E+00
	 0.00000000E+00	 0.00000000E+00	 5.00000000E-01
	 1.00000000E+00	 1.00000000E+00	 5.00000000E-01
	 1.00000000E+00	 1.00000000E+00	 1.00000000E+00
	 1.00000000E+00	 1.00000000E+00	 1.50000000E+00
	 1.00000000E+00	 1.00000000E+00	 2.00000000E+00
	 1.00000000E+00	 1.00000000E+00	 2.50000000E+00
	 1.00000000E+00	 1.00000000E+00	 3.00000000E+00
	 1.00000000E+00	 1.00000000E+00	 3.50000000E+00
	 1.00000000E+00	 1.00000000E+00	 4.00000000E+00
	 1.00000000E+00	 1.00000000E+00	 4.50000000E+00
	 1.00000000E+00	 1.00000000E+00	 5.00000000E+00
	 1.00000000E+00	 1.00000000E+00	 5.50000000E+00
	 1.00000000E+00	 1.00000000E+00	 6.00000000E+00
	 1.00000000E+00	 1.00000000E+00	 6.50000000E+00
	 1.00000000E+00	 1.00000000E+00	 7.00000000E+00
	 1.00000000E+00	 1.00000000E+00	 7.50000000E+00
	 0.00000000E+00	 1.00000000E+00	 5.00000000E-01
	 0.00000000E+00	 1.00000000E+00	 1.00000000E+00
	 0.00000000E+00	 1.00000000E+00	 1.50000000E+00
	 0.00000000E+00	 1.00000000E+00	 2.00000000E+00
	 0.00000000E+00	 1.00000000E+00	 2.50000000E+00
	 0.00000000E+00	 1.00000000E+00	 3.00000000E+00
	 0.00000000E+00	 1.00000000E+00	 3.50000000E+00
	 0.00000000E+00	 1.00000000E+00	 4.00000000E+00
	 0.00000000E+00	 1.00000000E+00	 4.50000000E+00
	 0.00000000E+00	 1.00000000E+00	 5.00000000E+00
	 0.00000000E+00	 1.00000000E+00	 5.50000000E+00
	 0.00000000E+00	 1.00000000E+00	 6.00000000E+00
	 0.00000000E+00	 1.00000000E+00	 6.50000000E+00
	 0.00000000E+00	 1.00000000E+00	 7.00000000E+00
	 0.00000000E+00	 1.00000000E+00	 7.50000000E+00
	 5.00000000E-01	 2.50000000E-01	 0.00000000E+00
	 2.50000000E-01	 5.00000000E-01	 0.00000000E+00
	 5.00000000E-01	 5.00000000E-01	 0.00000000E+00
	 7.50000000E-01	 5.00000000E-01	 0.00000000E+00
	 5.00000000E-01	 7.50000000E-01	 0.00000000E+00
	 5.00000000E-01	 2.50000000E-01	 8.00000000E+00
	 2.50000000E-01	 5.00000000E-01	 8.00000000E+00
	 5.00000000E-01	 5.00000000E-01	 8.00000000E+00
	 7.50000000E-01	 5.00000000E-01	 8.00000000E+00
	 5.00000000E-01	 7.50000000E-01	 8.00000000E+00
	 5.00000000E-01	 0.00000000E+00	 5.00000000E-01
	 2.50000000E-01	 0.00000000E+00	 1.00000000E+00
	 5.00000000E-01	 0.00000000E+00	 1.00000000E+00
	 7.50000000E-01	 0.00000000E+00	 1.00000000E+00
	 5.00000000E-01	 0.00000000E+00	 1.50000000E+00
	 2.50000000E-01	 0.00000000E+00	 2.00000000E+00
	 5.00000000E-01	 0.00000000E+00	 2.00000000E+00
	 7.50000000E-01	 0.00000000E+00	 2.00000000E+00
	 5.00000000E-01	 0.00000000E+00	 2.50000000E+00
	 2.50000000E-01	 0.00000000E+00	 3.00000000E+00
	 5.00000000E-01	 0.00000000E+00	 3.00000000E+00
	 7.50000000E-01	 0.00000000E+00	 3.00000000E+00
	 5.00000000E-01	 0.00000000E+00	 3.50000000E+00
	 2.50000000E-01	 0.00000000E+00	 4.00000000E+00
	 5.00000000E-01	 0.00000000E+00	 4.00000000E+00
	 7.50000000E-01	 0.00000000E+00	 4.00000000E+00
	 5.00000000E-01	 0.00000000E+00	 4.50000000E+00
	 2.50000000E-01	 0.00000000E+00	 5.00000000E+00
	 5.00000000E-01	 0.00000000E+00	 5.00000000E+00
	 7.50000000E-01	 0.00000000E+00	 5.00000000E+00
	 5.00000000E-01	 0.00000000E+00	 5.50000000E+00
	 2.50000000E-01	 0.00000000E+00	 6.00000000E+00
	 5.00000000E-01	 0.00000000E+00	 6.00000000E+00
	 7.50000000E-01	 0.00000000E+00	 6.00000000E+00
	 5.00000000E-01	 0.00000000E+00	 6.50000000E+00
	 2.50000000E-01	 0.00000000E+00	 7.00000000E+00
	 5.00000000E-01	 0.00000000E+00	 7.00000000E+00
	 7.50000000E-01	 0.00000000E+00	 7.00000000E+00
	 5.00000000E-01	 0.00000000E+00	 7.50000000E+00
	 1.00000000E+00	 5.00000000E-01	 5.00000000E-01
	 1.00000000E+00	 2.50000000E-01	 1.00000000E+00
	 1.00000000E+00	 5.00000000E-01	 1.00000000E+00
	 1.00000000E+00	 7.50000000E-01	 1.00000000E+00
	 1.00000000E+00	 5.00000000E-01	 1.50000000E+00
	 1.00000000E+00	 2.50000000E-01	 2.00000000E+00
	 1.00000000E+00	 5.00000000E-01	 2.00000000E+00
	 1.00000000E+00	 7.50000000E-01	 2.00000000E+00
	 1.00000000E+00	 5.00000000E-01	 2.50000000E+00
	 1.00000000E+00	 2.50000000E-01	 3.00000000E+00
	 1.00000000E+00	 5.00000000E-01	 3.00000000E+00
	 1.00000000E+00	 7.50000000E-01	 3.00000000E+00
	 1.00000000E+00	 5.00000000E-01	 3.50000000E+00
	 1.00000000E+00	 2.50000000E-01	 4.00000000E+00
	 1.00000000E+00	 5.00000000E-01	 4.00000000E+00
	 1.00000000E+00	 7.50000000E-01	 4.00000000E+00
	 1.00000000E+00	 5.00000000E-01	 4.50000000E+00
	 1.00000000E+00	 2.50000000E-01	 5.00000000E+00
	 1.00000000E+00	 5.00000000E-01	 5.00000000E+00
	 1.00000000E+00	 7.50000000E-01	 5.00000000E+00
	 1.00000000E+00	 5.00000000E-01	 5.50000000E+00
	 1.00000000E+00	 2.50000000E-01	 6.00000000E+00
	 1.00000000E+00	 5.00000000E-01	 6.00000000E+00
	 1.00000000E+00	 7.50000000E-01	 6.00000000E+00
	 1.00000000E+00	 5.00000000E-01	 6.50000000E+00
	 1.00000000E+00	 2.50000000E-01	 7.00000000E+00
	 1.00000000E+00	 5.00000000E-01	 7.00000000E+00
	 1.00000000E+00	 7.50000000E-01	 7.00000000E+00
	 1.00000000E+00	 5.00000000E-01	 7.50000000E+00
	 5.00000000E-01	 1.00000000E+00	 5.00000000E-01
	 7.50000000E-01	 1.00000000E+00	 1.00000000E+00
	 5.00000000E-01	 1.00000000E+00	 1.00000000E+00
	 2.50000000E-01	 1.00000000E+00	 1.00000000E+00
	 5.00000000E-01	 1.00000000E+00	 1.50000000E+00
	 7.50000000E-01	 1.00000000E+00	 2.00000000E+00
	 5.00000000E-01	 1.00000000E+00	 2.00000000E+00
	 2.50000000E-01	 1.00000000E+00	 2.00000000E+00
	 5.00000000E-01	 1.00000000E+00	 2.50000000E+00
	 7.50000000E-01	 1.00000000E+00	 3.00000000E+00
	 5.00000000E-01	 1.00000000E+00	 3.00000000E+00
	 2.50000000E-01	 1.00000000E+00	 3.00000000E+00
	 5.00000000E-01	 1.00000000E+00	 3.50000000E+00
	 7.50000000E-01	 1.00000000E+00	 4.00000000E+00
	 5.00000000E-01	 1.00000000E+00	 4.00000000E+00
	 2.50000000E-01	 1.00000000E+00	 4.00000000E+00
	 5.00000000E-01	 1.00000000E+00	 4.50000000E+00
	 7.50000000E-01	 1.00000000E+00	 5.00000000E+00
	 5.00000000E-01	 1.00000000E+00	 5.00000000E+00
	 2.50000000E-01	 1.00000000E+00	 5.00000000E+00
	 5.00000000E-01	 1.00000000E+00	 5.50000000E+00
	 7.50000000E-01	 1.00000000E+00	 6.00000000E+00
	 5.00000000E-01	 1.00000000E+00	 6.00000000E+00
	 2.50000000E-01	 1.00000000E+00	 6.00000000E+00
	 5.00000000E-01	 1.00000000E+00	 6.50000000E+00
	 7.50000000E-01	 1.00000000E+00	 7.00000000E+00
	 5.00000000E-01	 1.00000000E+00	 7.00000000E+00
	 2.50000000E-01	 1.00000000E+00	 7.00000000E+00
	 5.00000000E-01	 1.00000000E+00	 7.50000000E+00
	 0.00000000E+00	 5.00000000E-01	 5.00000000E-01
	 0.00000000E+00	 7.50000000E-01	 1.00000000E+00
	 0.00000000E+00	 5.00000000E-01	 1.00000000E+00
	 0.00000000E+00	 2.50000000E-01	 1.00000000E+00
	 0.00000000E+00	 5.00000000E-01	 1.50000000E+00
	 0.00000000E+00	 7.50000000E-01	 2.00000000E+00
	 0.00000000E+00	 5.00000000E-01	 2.00000000E+00
	 0.00000000E+00	 2.50000000E-01	 2.00000000E+00
	 0.00000000E+00	 5.00000000E-01	 2.50000000E+00
	 0.00000000E+00	 7.50000000E-01	 3.00000000E+00
	 0.00000000E+00	 5.00000000E-01	 3.00000000E+00
	 0.00000000E+00	 2.50000000E-01	 3.00000000E+00
	 0.00000000E+00	 5.00000000E-01	 3.50000000E+00
	 0.00000000E+00	 7.50000000E-01	 4.00000000E+00
	 0.00000000E+00	 5.00000000E-01	 4.00000000E+00
	 0.00000000E+00	 2.50000000E-01	 4.00000000E+00
	 0.00000000E+00	 5.00000000E-01	 4.50000000E+00
	 0.00000000E+00	 7.50000000E-01	 5.00000000E+00
	 0.00000000E+00	 5.00000000E-01	 5.00000000E+00
	 0.00000000E+00	 2.50000000E-01	 5.00000000E+00
	 0.00000000E+00	 5.00000000E-01	 5.50000000E+00
	 0.00000000E+00	 7.50000000E-01	 6.00000000E+00
	 0.00000000E+00	 5.00000000E-01	 6.00000000E+00
	 0.00000000E+00	 2.50000000E-01	 6.00000000E+00
	 0.00000000E+00	 5.00000000E-01	 6.50000000E+00
	 0.00000000E+00	 7.50000000E-01	 7.00000000E+00
	 0.00000000E+00	 5.00000000E-01	 7.00000000E+00
	 0.00000000E+00	 2.50000000E-01	 7.00000000E+00
	 0.00000000E+00	 5.00000000E-01	 7.50000000E+00
	 5.00000000E-01	 5.00000000E-01	 5.00000000E-01
	 5.00000000E-01	 2.50000000E-01	 1.00000000E+00
	 2.50000000E-01	 5.00000000E-01	 1.00000000E+00
	 5.00000000E-01	 5.00000000E-01	 1.00000000E+00
	 7.50000000E-01	 5.00000000E-01	 1.00000000E+00
	 5.00000000E-01	 7.50000000E-01	 1.00000000E+00
	 5.00000000E-01	 5.00000000E-01	 1.50000000E+00
	 5.00000000E-01	 2.50000000E-01	 2.00000000E+00
	 2.50000000E-01	 5.00000000E-01	 2.00000000E+00
	 5.00000000E-01	 5.00000000E-01	 2.00000000E+00
	 7.50000000E-01	 5.00000000E-01	 2.00000000E+00
	 5.00000000E-01	 7.50000000E-01	 2.00000000E+00
	 5.00000000E-01	 5.00000000E-01	 2.50000000E+00
	 5.00000000E-01	 2.50000000E-01	 3.00000000E+00
	 2.50000000E-01	 5.00000000E-01	 3.00000000E+00
	 5.00000000E-01	 5.00000000E-01	 3.00000000E+00
	 7.50000000E-01	 5.00000000E-01	 3.00000000E+00
	 5.00000000E-01	 7.50000000E-01	 3.00000000E+00
	 5.00000000E-01	 5.00000000E-01	 3.50000000E+00
	 5.00000000E-01	 2.50000000E-01	 4.00000000E+00
	 2.50000000E-01	 5.00000000E-01	 4.00000000E+00
	 5.00000000E-01	 5.00000000E-01	 4.00000000E+00
	 7.50000000E-01	 5.00000000E-01	 4.00000000E+00
	 5.00000000E-01	 7.50000000E-01	 4.00000000E+00
	 5.00000000E-01	 5.00000000E-01	 4.50000000E+00
	 5.00000000E-01	 2.50000000E-01	 5.00000000E+00
	 2.50000000E-01	 5.00000000E-01	 5.00000000E+00
	 5.00000000E-01	 5.00000000E-01	 5.00000000E+00
	 7.50000000E-01	 5.00000000E-01	 5.00000000E+00
	 5.00000000E-01	 7.50000000E-01	 5.00000000E+00
	 5.00000000E-01	 5.00000000E-01	 5.50000000E+00
	 5.00000000E-01	 2.50000000E-01	 6.00000000E+00
	 2.50000000E-01	 5.00000000E-01	 6.00000000E+00
	 5.00000000E-01	 5.00000000E-01	 6.00000000E+00
	 7.50000000E-01	 5.00000000E-01	 6.00000000E+00
	 5.00000000E-01	 7.50000000E-01	 6.00000000E+00
	 5.00000000E-01	 5.00000000E-01	 6.50000000E+00
	 5.00000000E-01	 2.50000000E-01	 7.00000000E+00
	 2.50000000E-01	 5.00000000E-01	 7.00000000E+00
	 5.00000000E-01	 5.00000000E-01	 7.00000000E+00
	 7.50000000E-01	 5.00000000E-01	 7.00000000E+00
	 5.00000000E-01	 7.50000000E-01	 7.00000000E+00
	 5.00000000E-01	 5.00000000E-01	 7.50000000E+00

CELLS 32 672
	20 0 9 94 18 60 104 221 191 8 92 93 19 103 219 220 192 61 102 218 189 
	20 9 1 12 94 104 33 133 221 10 11 95 92 105 132 222 219 102 32 131 218 
	20 18 94 15 3 191 221 162 78 93 96 16 17 220 223 163 190 189 218 160 77 
	20 94 12 2 15 221 133 63 162 95 13 14 96 222 134 161 223 218 131 62 160 
	20 60 104 221 191 58 108 227 195 103 219 220 192 107 225 226 196 59 106 224 193 
	20 104 33 133 221 108 35 137 227 105 132 222 219 109 136 228 225 106 34 135 224 
	20 191 221 162 78 195 227 166 80 220 223 163 190 226 229 167 194 193 224 164 79 
	20 221 133 63 162 227 137 65 166 222 134 161 223 228 138 165 229 224 135 64 164 
	20 58 108 227 195 56 112 233 199 107 225 226 196 111 231 232 200 57 110 230 197 
	20 108 35 137 227 112 37 141 233 109 136 228 225 113 140 234 231 110 36 139 230 
	20 195 227 166 80 199 233 170 82 226 229 167 194 232 235 171 198 197 230 168 81 
	20 227 137 65 166 233 141 67 170 228 138 165 229 234 142 169 235 230 139 66 168 
	20 56 112 233 199 54 116 239 203 111 231 232 200 115 237 238 204 55 114 236 201 
	20 112 37 141 233 116 39 145 239 113 140 234 231 117 144 240 237 114 38 143 236 
	20 199 233 170 82 203 239 174 84 232 235 171 198 238 241 175 202 201 236 172 83 
	20 233 141 67 170 239 145 69 174 234 142 169 235 240 146 173 241 236 143 68 172 
	20 54 116 239 203 52 120 245 207 115 237 238 204 119 243 244 208 53 118 242 205 
	20 116 39 145 239 120 41 149 245 117 144 240 237 121 148 246 243 118 40 147 242 
	20 203 239 174 84 207 245 178 86 238 241 175 202 244 247 179 206 205 242 176 85 
	20 239 145 69 174 245 149 71 178 240 146 173 241 246 150 177 247 242 147 70 176 
	20 52 120 245 207 50 124 251 211 119 243 244 208 123 249 250 212 51 122 248 209 
	20 120 41 149 245 124 43 153 251 121 148 246 243 125 152 252 249 122 42 151 248 
	20 207 245 178 86 211 251 182 88 244 247 179 206 250 253 183 210 209 248 180 87 
	20 245 149 71 178 251 153 73 182 246 150 177 247 252 154 181 253 248 151 72 180 
	20 50 124 251 211 48 128 257 215 123 249 250 212 127 255 256 216 49 126 254 213 
	20 124 43 153 251 128 45 157 257 125 152 252 249 129 156 258 255 126 44 155 254 
	20 211 251 182 88 215 257 186 90 250 253 183 210 256 259 187 214 213 254 184 89 
	20 251 153 73 182 257 157 75 186 252 154 181 253 258 158 185 259 254 155 74 184 
	20 48 128 257 215 4 21 99 30 127 255 256 216 20 97 98 31 47 130 260 217 
	20 128 45 157 257 21 5 24 99 129 156 258 255 22 23 100 97 130 46 159 260 
	20 215 257 186 90 30 99 27 7 256 259 187 214 98 101 28 29 217 260 188 91 
	20 257 157 75 186 99 24 6 27 258 158 185 259 100 25 26 101 260 159 76 188 

CELL_TYPES 32
	25
	25
	25
	25
	25
	25
	25
	25
	25
	25
	25
	25
	25
	25
	25
	25
	25
	25
	25
	25
	25
	25
	25
	25
	25
	25
	25
	25
	25
	25
	25
	25

POINT_DATA 261
FIELD RAND 1
	RAND 3 261 double
		 0.00000000E+00	 0.00000000E+00	 0.00000000E+00
		 0.00000000E+00	 0.00000000E+00	 0.00000000E+00
		 0.00000000E+00	 0.00000000E+00	 0.00000000E+00
		 0.00000000E+00	 0.00000000E+00	 0.00000000E+00
		-2.33178000E-02	-2.33178000E-02	 2.33178000E-02
		 2.34557000E-02	-2.34557000E-02	 2.34557000E-02
		 2.33161000E-02	 2.33161000E-02	 2.33161000E-02
		-1.82420000E-02	 1.82420000E-02	 1.82420000E-02
		 0.00000000E+00	 0.00000000E+00	 0.00000000E+00
		 0.00000000E+00	 0.00000000E+00	 0.00000000E+00
		 0.00000000E+00	 0.00000000E+00	 0.00000000E+00
		 0.00000000E+00	 0.00000000E+00	 0.00000000E+00
		 0.00000000E+00	 0.00000000E+00	 0.00000000E+00
		 0.00000000E+00	 0.00000000E+00	 0.00000000E+00
		 0.00000000E+00	 0.00000000E+00	 0.00000000E+00
		 0.00000000E+00	 0.00000000E+00	 0.00000000E+00
		 0.00000000E+00	 0.00000000E+00	 0.00000000E+00
		 0.00000000E+00	 0.00000000E+00	 0.00000000E+00
		 0.00000000E+00	 0.00000000E+00	 0.00000000E+00
		 0.00000000E+00	 0.00000000E+00	 0.00000000E+00
		 0.00000000E+00	-2.98604000E-02	 2.98604000E-02
		 0.00000000E+00	-3.03373000E-02	 3.03373000E-02
		 0.00000000E+00	-2.99487000E-02	 2.99487000E-02
		 2.99482000E-02	 0.00000000E+00	 2.99482000E-02
		 3.03363000E-02	 0.00000000E+00	 3.03363000E-02
		 2.98588000E-02	 0.00000000E+00	 2.98588000E-02
		 0.00000000E+00	 2.97582000E-02	 2.97582000E-02
		 0.00000000E+00	 3.01316000E-02	 3.01316000E-02
		 0.00000000E+00	 2.96450000E-02	 2.96450000E-02
		-2.96456000E-02	 0.00000000E+00	 2.96456000E-02
		-3.01327000E-02	 0.00000000E+00	 3.01327000E-02
		-3.04399000E-02	 0.00000000E+00	 3.04399000E-02
		 2.19253000E-02	-2.19253000E-02	 0.00000000E+00
		 2.93146000E-02	-2.93146000E-02	 0.00000000E+00
		 3.68628000E-02	-3.68628000E-02	 0.00000000E+00
		 4.39999000E-02	-4.39999000E-02	 0.00000000E+00
		 5.02757000E-02	-5.02757000E-02	 0.00000000E+00
		 5.53884000E-02	-5.53884000E-02	 0.00000000E+00
		 5.91581000E-02	-5.91581000E-02	 0.00000000E+00
		 6.14850000E-02	-6.14850000E-02	 0.00000000E+00
		 6.23186000E-02	-6.23186000E-02	 0.00000000E+00
		 6.16412000E-02	-6.16412000E-02	 0.00000000E+00
		 5.94593000E-02	-5.94593000E-02	 0.00000000E+00
		 5.57999000E-02	-5.57999000E-02	 0.00000000E+00
		 5.07246000E-02	-5.07246000E-02	 0.00000000E+00
		 4.43736000E-02	-4.43736000E-02	 0.00000000E+00
		 3.70364000E-02	-3.70364000E-02	 0.00000000E+00
		-3.70022000E-02	-3.70022000E-02	 0.00000000E+00
		-4.43429000E-02	-4.43429000E-02	 0.00000000E+00
		-5.07002000E-02	-5.07002000E-02	 0.00000000E+00
		-5.57826000E-02	-5.57826000E-02	 0.00000000E+00
		-5.94482000E-02	-5.94482000E-02	 0.00000000E+00
		-6.16348000E-02	-6.16348000E-02	 0.00000000E+00
		-6.23152000E-02	-6.23152000E-02	 0.00000000E+00
		-6.14834000E-02	-6.14834000E-02	 0.00000000E+00
		-5.91573000E-02	-5.91573000E-02	 0.00000000E+00
		-5.53881000E-02	-5.53881000E-02	 0.00000000E+00
		-5.02755000E-02	-5.02755000E-02	 0.00000000E+00
		-4.39998000E-02	-4.39998000E-02	 0.00000000E+00
		-3.68627000E-02	-3.68627000E-02	 0.00000000E+00
		-2.93146000E-02	-2.93146000E-02	 0.00000000E+00
		-2.19253000E-02	-2.19253000E-02	 0.00000000E+00
		 2.19253000E-02	 2.19253000E-02	 0.00000000E+00
		 2.93146000E-02	 2.93146000E-02	 0.00000000E+00
		 3.68627000E-02	 3.68627000E-02	 0.00000000E+00
		 4.39998000E-02	 4.39998000E-02	 0.00000000E+00
		 5.02755000E-02	 5.02755000E-02	 0.00000000E+00
		 5.53881000E-02	 5.53881000E-02	 0.00000000E+00
		 5.91573000E-02	 5.91573000E-02	 0.00000000E+00
		 6.14833000E-02	 6.14833000E-02	 0.00000000E+00
		 6.23151000E-02	 6.23151000E-02	 0.00000000E+00
		 6.16346000E-02	 6.16346000E-02	 0.00000000E+00
		 5.94477000E-02	 5.94477000E-02	 0.00000000E+00
		 5.57817000E-02	 5.57817000E-02	 0.00000000E+00
		 5.06989000E-02	 5.06989000E-02	 0.00000000E+00
		 4.43413000E-02	 4.43413000E-02	 0.00000000E+00
		 3.70002000E-02	 3.70002000E-02	 0.00000000E+00
		-2.19253000E-02	 2.19253000E-02	 0.00000000E+00
		-2.93146000E-02	 2.93146000E-02	 0.00000000E+00
		-3.68627000E-02	 3.68627000E-02	 0.00000000E+00
		-4.39997000E-02	 4.39997000E-02	 0.00000000E+00
		-5.02754000E-02	 5.02754000E-02	 0.00000000E+00
		-5.53877000E-02	 5.53877000E-02	 0.00000000E+00
		-5.91564000E-02	 5.91564000E-02	 0.00000000E+00
		-6.14814000E-02	 6.14814000E-02	 0.00000000E+00
		-6.23111000E-02	 6.23111000E-02	 0.00000000E+00
		-6.16267000E-02	 6.16267000E-02	 0.00000000E+00
		-5.94339000E-02	 5.94339000E-02	 0.00000000E+00
		-5.57598000E-02	 5.57598000E-02	 0.00000000E+00
		-5.06680000E-02	 5.06680000E-02	 0.00000000E+00
		-4.43023000E-02	 4.43023000E-02	 0.00000000E+00
		-3.05866000E-02	 3.05866000E-02	 0.00000000E+00
		 0.00000000E+00	 0.00000000E+00	 0.00000000E+00
		 0.00000000E+00	 0.00000000E+00	 0.00000000E+00
		 0.00000000E+00	 0.00000000E+00	 0.00000000E+00
		 0.00000000E+00	 0.00000000E+00	 0.00000000E+00
		 0.00000000E+00	 0.00000000E+00	 0.00000000E+00
		 0.00000000E+00	 0.00000000E+00	 4.47178000E-02
		 0.00000000E+00	 0.00000000E+00	 4.45665000E-02
		 0.00000000E+00	 0.00000000E+00	 4.52879000E-02
		 0.00000000E+00	 0.00000000E+00	 4.47170000E-02
		 0.00000000E+00	 0.00000000E+00	 4.55894000E-02
		 0.00000000E+00	-3.28275000E-02	 0.00000000E+00
		 0.00000000E+00	-4.32696000E-02	 0.00000000E+00
		 0.00000000E+00	-4.38912000E-02	 0.00000000E+00
		 0.00000000E+00	-4.32696000E-02	 0.00000000E+00
		 0.00000000E+00	-5.51928000E-02	 0.00000000E+00
		 0.00000000E+00	-6.49460000E-02	 0.00000000E+00
		 0.00000000E+00	-6.58790000E-02	 0.00000000E+00
		 0.00000000E+00	-6.49460000E-02	 0.00000000E+00
		 0.00000000E+00	-7.52756000E-02	 0.00000000E+00
		 0.00000000E+00	-8.17559000E-02	 0.00000000E+00
		 0.00000000E+00	-8.29305000E-02	 0.00000000E+00
		 0.00000000E+00	-8.17561000E-02	 0.00000000E+00
		 0.00000000E+00	-8.85745000E-02	 0.00000000E+00
		 0.00000000E+00	-9.07536000E-02	 0.00000000E+00
		 0.00000000E+00	-9.20580000E-02	 0.00000000E+00
		 0.00000000E+00	-9.07547000E-02	 0.00000000E+00
		 0.00000000E+00	-9.33053000E-02	 0.00000000E+00
		 0.00000000E+00	-9.09799000E-02	 0.00000000E+00
		 0.00000000E+00	-9.22898000E-02	 0.00000000E+00
		 0.00000000E+00	-9.09846000E-02	 0.00000000E+00
		 0.00000000E+00	-8.90210000E-02	 0.00000000E+00
		 0.00000000E+00	-8.23488000E-02	 0.00000000E+00
		 0.00000000E+00	-8.35398000E-02	 0.00000000E+00
		 0.00000000E+00	-8.23616000E-02	 0.00000000E+00
		 0.00000000E+00	-7.59386000E-02	 0.00000000E+00
		 0.00000000E+00	-6.54730000E-02	 0.00000000E+00
		 0.00000000E+00	-6.64282000E-02	 0.00000000E+00
		 0.00000000E+00	-6.54957000E-02	 0.00000000E+00
		 0.00000000E+00	-5.54424000E-02	 0.00000000E+00
		 3.28275000E-02	 0.00000000E+00	 0.00000000E+00
		 4.32696000E-02	 0.00000000E+00	 0.00000000E+00
		 4.38912000E-02	 0.00000000E+00	 0.00000000E+00
		 4.32696000E-02	 0.00000000E+00	 0.00000000E+00
		 5.51928000E-02	 0.00000000E+00	 0.00000000E+00
		 6.49460000E-02	 0.00000000E+00	 0.00000000E+00
		 6.58790000E-02	 0.00000000E+00	 0.00000000E+00
		 6.49460000E-02	 0.00000000E+00	 0.00000000E+00
		 7.52756000E-02	 0.00000000E+00	 0.00000000E+00
		 8.17561000E-02	 0.00000000E+00	 0.00000000E+00
		 8.29305000E-02	 0.00000000E+00	 0.00000000E+00
		 8.17559000E-02	 0.00000000E+00	 0.00000000E+00
		 8.85745000E-02	 0.00000000E+00	 0.00000000E+00
		 9.07547000E-02	 0.00000000E+00	 0.00000000E+00
		 9.20580000E-02	 0.00000000E+00	 0.00000000E+00
		 9.07535000E-02	 0.00000000E+00	 0.00000000E+00
		 9.33052000E-02	 0.00000000E+00	 0.00000000E+00
		 9.09845000E-02	 0.00000000E+00	 0.00000000E+00
		 9.22896000E-02	 0.00000000E+00	 0.00000000E+00
		 9.09796000E-02	 0.00000000E+00	 0.00000000E+00
		 8.90206000E-02	 0.00000000E+00	 0.00000000E+00
		 8.23613000E-02	 0.00000000E+00	 0.00000000E+00
		 8.35392000E-02	 0.00000000E+00	 0.00000000E+00
		 8.23479000E-02	 0.00000000E+00	 0.00000000E+00
		 7.59377000E-02	 0.00000000E+00	 0.00000000E+00
		 6.54951000E-02	 0.00000000E+00	 0.00000000E+00
		 6.64270000E-02	 0.00000000E+00	 0.00000000E+00
		 6.54712000E-02	 0.00000000E+00	 0.00000000E+00
		 5.54409000E-02	 0.00000000E+00	 0.00000000E+00
		 0.00000000E+00	 3.28274000E-02	 0.00000000E+00
		 0.00000000E+00	 4.32696000E-02	 0.00000000E+00
		 0.00000000E+00	 4.38912000E-02	 0.00000000E+00
		 0.00000000E+00	 4.32696000E-02	 0.00000000E+00
		 0.00000000E+00	 5.51928000E-02	 0.00000000E+00
		 0.00000000E+00	 6.49459000E-02	 0.00000000E+00
		 0.00000000E+00	 6.58789000E-02	 0.00000000E+00
		 0.00000000E+00	 6.49458000E-02	 0.00000000E+00
		 0.00000000E+00	 7.52753000E-02	 0.00000000E+00
		 0.00000000E+00	 8.17556000E-02	 0.00000000E+00
		 0.00000000E+00	 8.29300000E-02	 0.00000000E+00
		 0.00000000E+00	 8.17553000E-02	 0.00000000E+00
		 0.00000000E+00	 8.85733000E-02	 0.00000000E+00
		 0.00000000E+00	 9.07522000E-02	 0.00000000E+00
		 0.00000000E+00	 9.20553000E-02	 0.00000000E+00
		 0.00000000E+00	 9.07508000E-02	 0.00000000E+00
		 0.00000000E+00	 9.32996000E-02	 0.00000000E+00
		 0.00000000E+00	 9.09743000E-02	 0.00000000E+00
		 0.00000000E+00	 9.22788000E-02	 0.00000000E+00
		 0.00000000E+00	 9.09685000E-02	 0.00000000E+00
		 0.00000000E+00	 8.90016000E-02	 0.00000000E+00
		 0.00000000E+00	 8.23331000E-02	 0.00000000E+00
		 0.00000000E+00	 8.35092000E-02	 0.00000000E+00
		 0.00000000E+00	 8.23170000E-02	 0.00000000E+00
		 0.00000000E+00	 7.58954000E-02	 0.00000000E+00
		 0.00000000E+00	 6.54449000E-02	 0.00000000E+00
		 0.00000000E+00	 6.63737000E-02	 0.00000000E+00
		 0.00000000E+00	 6.54161000E-02	 0.00000000E+00
		 0.00000000E+00	 5.53812000E-02	 0.00000000E+00
		-3.28274000E-02	 0.00000000E+00	 0.00000000E+00
		-4.32696000E-02	 0.00000000E+00	 0.00000000E+00
		-4.38912000E-02	 0.00000000E+00	 0.00000000E+00
		-4.32696000E-02	 0.00000000E+00	 0.00000000E+00
		-5.51928000E-02	 0.00000000E+00	 0.00000000E+00
		-6.49458000E-02	 0.00000000E+00	 0.00000000E+00
		-6.58789000E-02	 0.00000000E+00	 0.00000000E+00
		-6.49459000E-02	 0.00000000E+00	 0.00000000E+00
		-7.52753000E-02	 0.00000000E+00	 0.00000000E+00
		-8.17553000E-02	 0.00000000E+00	 0.00000000E+00
		-8.29300000E-02	 0.00000000E+00	 0.00000000E+00
		-8.17556000E-02	 0.00000000E+00	 0.00000000E+00
		-8.85733000E-02	 0.00000000E+00	 0.00000000E+00
		-9.07508000E-02	 0.00000000E+00	 0.00000000E+00
		-9.20554000E-02	 0.00000000E+00	 0.00000000E+00
		-9.07523000E-02	 0.00000000E+00	 0.00000000E+00
		-9.32997000E-02	 0.00000000E+00	 0.00000000E+00
		-9.09686000E-02	 0.00000000E+00	 0.00000000E+00
		-9.22790000E-02	 0.00000000E+00	 0.00000000E+00
		-9.09746000E-02	 0.00000000E+00	 0.00000000E+00
		-8.90020000E-02	 0.00000000E+00	 0.00000000E+00
		-8.23173000E-02	 0.00000000E+00	 0.00000000E+00
		-8.35099000E-02	 0.00000000E+00	 0.00000000E+00
		-8.23341000E-02	 0.00000000E+00	 0.00000000E+00
		-7.58963000E-02	 0.00000000E+00	 0.00000000E+00
		-6.54168000E-02	 0.00000000E+00	 0.00000000E+00
		-6.63749000E-02	 0.00000000E+00	 0.00000000E+00
		-6.54468000E-02	 0.00000000E+00	 0.00000000E+00
		-5.53828000E-02	 0.00000000E+00	 0.00000000E+00
		 0.00000000E+00	 0.00000000E+00	 0.00000000E+00
		 0.00000000E+00	 0.00000000E+00	 0.00000000E+00
		 0.00000000E+00	 0.00000000E+00	 0.00000000E+00
		 0.00000000E+00	 0.00000000E+00	 0.00000000E+00
		 0.00000000E+00	 0.00000000E+00	 0.00000000E+00
		 0.00000000E+00	 0.00000000E+00	 0.00000000E+00
		 0.00000000E+00	 0.00000000E+00	 0.00000000E+00
		 0.00000000E+00	 0.00000000E+00	 0.00000000E+00
		 0.00000000E+00	 0.00000000E+00	 0.00000000E+00
		 0.00000000E+00	 0.00000000E+00	 0.00000000E+00
		 0.00000000E+00	 0.00000000E+00	 0.00000000E+00
		 0.00000000E+00	 0.00000000E+00	 0.00000000E+00
		 0.00000000E+00	 0.00000000E+00	 0.00000000E+00
		 0.00000000E+00	 0.00000000E+00	 0.00000000E+00
		 0.00000000E+00	 0.00000000E+00	 0.00000000E+00
		 0.00000000E+00	 0.00000000E+00	 0.00000000E+00
		 0.00000000E+00	 0.00000000E+00	 0.00000000E+00
		 0.00000000E+00	 0.00000000E+00	 0.00000000E+00
		 0.00000000E+00	 0.00000000E+00	 0.00000000E+00
		 0.00000000E+00	 0.00000000E+00	 0.00000000E+00
		 0.00000000E+00	 0.00000000E+00	 0.00000000E+00
		 0.00000000E+00	 0.00000000E+00	 0.00000000E+00
		 0.00000000E+00	 0.00000000E+00	 0.00000000E+00
		 0.00000000E+00	 0.00000000E+00	 0.00000000E+00
		 0.00000000E+00	 0.00000000E+00	 0.00000000E+00
		 0.00000000E+00	 0.00000000E+00	 0.00000000E+00
		 0.00000000E+00	 0.00000000E+00	 0.00000000E+00
		 0.00000000E+00	 0.00000000E+00	 0.00000000E+00
		 0.00000000E+00	 0.00000000E+00	 0.00000000E+00
		 0.00000000E+00	 0.00000000E+00	 0.00000000E+00
		 0.00000000E+00	 0.00000000E+00	 0.00000000E+00
		 0.00000000E+00	 0.00000000E+00	 0.00000000E+00
		 0.00000000E+00	 0.00000000E+00	 0.00000000E+00
		 0.00000000E+00	 0.00000000E+00	 0.00000000E+00
		 0.00000000E+00	 0.00000000E+00	 0.00000000E+00
		 0.00000000E+00	 0.00000000E+00	 0.00000000E+00
		 0.00000000E+00	 0.00000000E+00	 0.00000000E+00
		 0.00000000E+00	 0.00000000E+00	 0.00000000E+00
		 0.00000000E+00	 0.00000000E+00	 0.00000000E+00
		 0.00000000E+00	 0.00000000E+00	 0.00000000E+00
		 0.00000000E+00	 0.00000000E+00	 0.00000000E+00
		 0.00000000E+00	 0.00000000E+00	 0.00000000E+00
		 0.00000000E+00	 0.00000000E+00	 0.00000000E+00
