# vtk DataFile Version 3.0

ASCII
DATASET UNSTRUCTURED_GRID

POINTS 261 double
	 0.00000000E+00	 0.00000000E+00	 0.00000000E+00
	 1.00000000E+00	 0.00000000E+00	 0.00000000E+00
	 1.00000000E+00	 1.50000000E+00	 0.00000000E+00
	 0.00000000E+00	 1.50000000E+00	 0.00000000E+00
	 0.00000000E+00	 0.00000000E+00	 8.00000000E+00
	 1.00000000E+00	 0.00000000E+00	 8.00000000E+00
	 1.00000000E+00	 1.50000000E+00	 8.00000000E+00
	 0.00000000E+00	 1.50000000E+00	 8.00000000E+00
	 2.50000000E-01	 0.00000000E+00	 0.00000000E+00
	 5.00000000E-01	 0.00000000E+00	 0.00000000E+00
	 7.50000000E-01	 0.00000000E+00	 0.00000000E+00
	 1.00000000E+00	 3.75000000E-01	 0.00000000E+00
	 1.00000000E+00	 7.50000000E-01	 0.00000000E+00
	 1.00000000E+00	 1.12500000E+00	 0.00000000E+00
	 7.50000000E-01	 1.50000000E+00	 0.00000000E+00
	 5.00000000E-01	 1.50000000E+00	 0.00000000E+00
	 2.50000000E-01	 1.50000000E+00	 0.00000000E+00
	 0.00000000E+00	 1.12500000E+00	 0.00000000E+00
	 0.00000000E+00	 7.50000000E-01	 0.00000000E+00
	 0.00000000E+00	 3.75000000E-01	 0.00000000E+00
	 2.50000000E-01	 0.00000000E+00	 8.00000000E+00
	 5.00000000E-01	 0.00000000E+00	 8.00000000E+00
	 7.50000000E-01	 0.00000000E+00	 8.00000000E+00
	 1.00000000E+00	 3.75000000E-01	 8.00000000E+00
	 1.00000000E+00	 7.50000000E-01	 8.00000000E+00
	 1.00000000E+00	 1.12500000E+00	 8.00000000E+00
	 7.50000000E-01	 1.50000000E+00	 8.00000000E+00
	 5.00000000E-01	 1.50000000E+00	 8.00000000E+00
	 2.50000000E-01	 1.50000000E+00	 8.00000000E+00
	 0.00000000E+00	 1.12500000E+00	 8.00000000E+00
	 0.00000000E+00	 7.50000000E-01	 8.00000000E+00
	 0.00000000E+00	 3.75000000E-01	 8.00000000E+00
	 1.00000000E+00	 0.00000000E+00	 5.00000000E-01
	 1.00000000E+00	 0.00000000E+00	 1.00000000E+00
	 1.00000000E+00	 0.00000000E+00	 1.50000000E+00
	 1.00000000E+00	 0.00000000E+00	 2.00000000E+00
	 1.00000000E+00	 0.00000000E+00	 2.50000000E+00
	 1.00000000E+00	 0.00000000E+00	 3.00000000E+00
	 1.00000000E+00	 0.00000000E+00	 3.50000000E+00
	 1.00000000E+00	 0.00000000E+00	 4.00000000E+00
	 1.00000000E+00	 0.00000000E+00	 4.50000000E+00
	 1.00000000E+00	 0.00000000E+00	 5.00000000E+00
	 1.00000000E+00	 0.00000000E+00	 5.50000000E+00
	 1.00000000E+00	 0.00000000E+00	 6.00000000E+00
	 1.00000000E+00	 0.00000000E+00	 6.50000000E+00
	 1.00000000E+00	 0.00000000E+00	 7.00000000E+00
	 1.00000000E+00	 0.00000000E+00	 7.50000000E+00
	 0.00000000E+00	 0.00000000E+00	 7.50000000E+00
	 0.00000000E+00	 0.00000000E+00	 7.00000000E+00
	 0.00000000E+00	 0.00000000E+00	 6.50000000E+00
	 0.00000000E+00	 0.00000000E+00	 6.00000000E+00
	 0.00000000E+00	 0.00000000E+00	 5.50000000E+00
	 0.00000000E+00	 0.00000000E+00	 5.00000000E+00
	 0.00000000E+00	 0.00000000E+00	 4.50000000E+00
	 0.00000000E+00	 0.00000000E+00	 4.00000000E+00
	 0.00000000E+00	 0.00000000E+00	 3.50000000E+00
	 0.00000000E+00	 0.00000000E+00	 3.00000000E+00
	 0.00000000E+00	 0.00000000E+00	 2.50000000E+00
	 0.00000000E+00	 0.00000000E+00	 2.00000000E+00
	 0.00000000E+00	 0.00000000E+00	 1.50000000E+00
	 0.00000000E+00	 0.00000000E+00	 1.00000000E+00
	 0.00000000E+00	 0.00000000E+00	 5.00000000E-01
	 1.00000000E+00	 1.50000000E+00	 5.00000000E-01
	 1.00000000E+00	 1.50000000E+00	 1.00000000E+00
	 1.00000000E+00	 1.50000000E+00	 1.50000000E+00
	 1.00000000E+00	 1.50000000E+00	 2.00000000E+00
	 1.00000000E+00	 1.50000000E+00	 2.50000000E+00
	 1.00000000E+00	 1.50000000E+00	 3.00000000E+00
	 1.00000000E+00	 1.50000000E+00	 3.50000000E+00
	 1.00000000E+00	 1.50000000E+00	 4.00000000E+00
	 1.00000000E+00	 1.50000000E+00	 4.50000000E+00
	 1.00000000E+00	 1.50000000E+00	 5.00000000E+00
	 1.00000000E+00	 1.50000000E+00	 5.50000000E+00
	 1.00000000E+00	 1.50000000E+00	 6.00000000E+00
	 1.00000000E+00	 1.50000000E+00	 6.50000000E+00
	 1.00000000E+00	 1.50000000E+00	 7.00000000E+00
	 1.00000000E+00	 1.50000000E+00	 7.50000000E+00
	 0.00000000E+00	 1.50000000E+00	 5.00000000E-01
	 0.00000000E+00	 1.50000000E+00	 1.00000000E+00
	 0.00000000E+00	 1.50000000E+00	 1.50000000E+00
	 0.00000000E+00	 1.50000000E+00	 2.00000000E+00
	 0.00000000E+00	 1.50000000E+00	 2.50000000E+00
	 0.00000000E+00	 1.50000000E+00	 3.00000000E+00
	 0.00000000E+00	 1.50000000E+00	 3.50000000E+00
	 0.00000000E+00	 1.50000000E+00	 4.00000000E+00
	 0.00000000E+00	 1.50000000E+00	 4.50000000E+00
	 0.00000000E+00	 1.50000000E+00	 5.00000000E+00
	 0.00000000E+00	 1.50000000E+00	 5.50000000E+00
	 0.00000000E+00	 1.50000000E+00	 6.00000000E+00
	 0.00000000E+00	 1.50000000E+00	 6.50000000E+00
	 0.00000000E+00	 1.50000000E+00	 7.00000000E+00
	 0.00000000E+00	 1.50000000E+00	 7.50000000E+00
	 5.00000000E-01	 3.75000000E-01	 0.00000000E+00
	 2.50000000E-01	 7.50000000E-01	 0.00000000E+00
	 5.00000000E-01	 7.50000000E-01	 0.00000000E+00
	 7.50000000E-01	 7.50000000E-01	 0.00000000E+00
	 5.00000000E-01	 1.12500000E+00	 0.00000000E+00
	 5.00000000E-01	 3.75000000E-01	 8.00000000E+00
	 2.50000000E-01	 7.50000000E-01	 8.00000000E+00
	 5.00000000E-01	 7.50000000E-01	 8.00000000E+00
	 7.50000000E-01	 7.50000000E-01	 8.00000000E+00
	 5.00000000E-01	 1.12500000E+00	 8.00000000E+00
	 5.00000000E-01	 0.00000000E+00	 5.00000000E-01
	 2.50000000E-01	 0.00000000E+00	 1.00000000E+00
	 5.00000000E-01	 0.00000000E+00	 1.00000000E+00
	 7.50000000E-01	 0.00000000E+00	 1.00000000E+00
	 5.00000000E-01	 0.00000000E+00	 1.50000000E+00
	 2.50000000E-01	 0.00000000E+00	 2.00000000E+00
	 5.00000000E-01	 0.00000000E+00	 2.00000000E+00
	 7.50000000E-01	 0.00000000E+00	 2.00000000E+00
	 5.00000000E-01	 0.00000000E+00	 2.50000000E+00
	 2.50000000E-01	 0.00000000E+00	 3.00000000E+00
	 5.00000000E-01	 0.00000000E+00	 3.00000000E+00
	 7.50000000E-01	 0.00000000E+00	 3.00000000E+00
	 5.00000000E-01	 0.00000000E+00	 3.50000000E+00
	 2.50000000E-01	 0.00000000E+00	 4.00000000E+00
	 5.00000000E-01	 0.00000000E+00	 4.00000000E+00
	 7.50000000E-01	 0.00000000E+00	 4.00000000E+00
	 5.00000000E-01	 0.00000000E+00	 4.50000000E+00
	 2.50000000E-01	 0.00000000E+00	 5.00000000E+00
	 5.00000000E-01	 0.00000000E+00	 5.00000000E+00
	 7.50000000E-01	 0.00000000E+00	 5.00000000E+00
	 5.00000000E-01	 0.00000000E+00	 5.50000000E+00
	 2.50000000E-01	 0.00000000E+00	 6.00000000E+00
	 5.00000000E-01	 0.00000000E+00	 6.00000000E+00
	 7.50000000E-01	 0.00000000E+00	 6.00000000E+00
	 5.00000000E-01	 0.00000000E+00	 6.50000000E+00
	 2.50000000E-01	 0.00000000E+00	 7.00000000E+00
	 5.00000000E-01	 0.00000000E+00	 7.00000000E+00
	 7.50000000E-01	 0.00000000E+00	 7.00000000E+00
	 5.00000000E-01	 0.00000000E+00	 7.50000000E+00
	 1.00000000E+00	 7.50000000E-01	 5.00000000E-01
	 1.00000000E+00	 3.75000000E-01	 1.00000000E+00
	 1.00000000E+00	 7.50000000E-01	 1.00000000E+00
	 1.00000000E+00	 1.12500000E+00	 1.00000000E+00
	 1.00000000E+00	 7.50000000E-01	 1.50000000E+00
	 1.00000000E+00	 3.75000000E-01	 2.00000000E+00
	 1.00000000E+00	 7.50000000E-01	 2.00000000E+00
	 1.00000000E+00	 1.12500000E+00	 2.00000000E+00
	 1.00000000E+00	 7.50000000E-01	 2.50000000E+00
	 1.00000000E+00	 3.75000000E-01	 3.00000000E+00
	 1.00000000E+00	 7.50000000E-01	 3.00000000E+00
	 1.00000000E+00	 1.12500000E+00	 3.00000000E+00
	 1.00000000E+00	 7.50000000E-01	 3.50000000E+00
	 1.00000000E+00	 3.75000000E-01	 4.00000000E+00
	 1.00000000E+00	 7.50000000E-01	 4.00000000E+00
	 1.00000000E+00	 1.12500000E+00	 4.00000000E+00
	 1.00000000E+00	 7.50000000E-01	 4.50000000E+00
	 1.00000000E+00	 3.75000000E-01	 5.00000000E+00
	 1.00000000E+00	 7.50000000E-01	 5.00000000E+00
	 1.00000000E+00	 1.12500000E+00	 5.00000000E+00
	 1.00000000E+00	 7.50000000E-01	 5.50000000E+00
	 1.00000000E+00	 3.75000000E-01	 6.00000000E+00
	 1.00000000E+00	 7.50000000E-01	 6.00000000E+00
	 1.00000000E+00	 1.12500000E+00	 6.00000000E+00
	 1.00000000E+00	 7.50000000E-01	 6.50000000E+00
	 1.00000000E+00	 3.75000000E-01	 7.00000000E+00
	 1.00000000E+00	 7.50000000E-01	 7.00000000E+00
	 1.00000000E+00	 1.12500000E+00	 7.00000000E+00
	 1.00000000E+00	 7.50000000E-01	 7.50000000E+00
	 5.00000000E-01	 1.50000000E+00	 5.00000000E-01
	 7.50000000E-01	 1.50000000E+00	 1.00000000E+00
	 5.00000000E-01	 1.50000000E+00	 1.00000000E+00
	 2.50000000E-01	 1.50000000E+00	 1.00000000E+00
	 5.00000000E-01	 1.50000000E+00	 1.50000000E+00
	 7.50000000E-01	 1.50000000E+00	 2.00000000E+00
	 5.00000000E-01	 1.50000000E+00	 2.00000000E+00
	 2.50000000E-01	 1.50000000E+00	 2.00000000E+00
	 5.00000000E-01	 1.50000000E+00	 2.50000000E+00
	 7.50000000E-01	 1.50000000E+00	 3.00000000E+00
	 5.00000000E-01	 1.50000000E+00	 3.00000000E+00
	 2.50000000E-01	 1.50000000E+00	 3.00000000E+00
	 5.00000000E-01	 1.50000000E+00	 3.50000000E+00
	 7.50000000E-01	 1.50000000E+00	 4.00000000E+00
	 5.00000000E-01	 1.50000000E+00	 4.00000000E+00
	 2.50000000E-01	 1.50000000E+00	 4.00000000E+00
	 5.00000000E-01	 1.50000000E+00	 4.50000000E+00
	 7.50000000E-01	 1.50000000E+00	 5.00000000E+00
	 5.00000000E-01	 1.50000000E+00	 5.00000000E+00
	 2.50000000E-01	 1.50000000E+00	 5.00000000E+00
	 5.00000000E-01	 1.50000000E+00	 5.50000000E+00
	 7.50000000E-01	 1.50000000E+00	 6.00000000E+00
	 5.00000000E-01	 1.50000000E+00	 6.00000000E+00
	 2.50000000E-01	 1.50000000E+00	 6.00000000E+00
	 5.00000000E-01	 1.50000000E+00	 6.50000000E+00
	 7.50000000E-01	 1.50000000E+00	 7.00000000E+00
	 5.00000000E-01	 1.50000000E+00	 7.00000000E+00
	 2.50000000E-01	 1.50000000E+00	 7.00000000E+00
	 5.00000000E-01	 1.50000000E+00	 7.50000000E+00
	 0.00000000E+00	 7.50000000E-01	 5.00000000E-01
	 0.00000000E+00	 1.12500000E+00	 1.00000000E+00
	 0.00000000E+00	 7.50000000E-01	 1.00000000E+00
	 0.00000000E+00	 3.75000000E-01	 1.00000000E+00
	 0.00000000E+00	 7.50000000E-01	 1.50000000E+00
	 0.00000000E+00	 1.12500000E+00	 2.00000000E+00
	 0.00000000E+00	 7.50000000E-01	 2.00000000E+00
	 0.00000000E+00	 3.75000000E-01	 2.00000000E+00
	 0.00000000E+00	 7.50000000E-01	 2.50000000E+00
	 0.00000000E+00	 1.12500000E+00	 3.00000000E+00
	 0.00000000E+00	 7.50000000E-01	 3.00000000E+00
	 0.00000000E+00	 3.75000000E-01	 3.00000000E+00
	 0.00000000E+00	 7.50000000E-01	 3.50000000E+00
	 0.00000000E+00	 1.12500000E+00	 4.00000000E+00
	 0.00000000E+00	 7.50000000E-01	 4.00000000E+00
	 0.00000000E+00	 3.75000000E-01	 4.00000000E+00
	 0.00000000E+00	 7.50000000E-01	 4.50000000E+00
	 0.00000000E+00	 1.12500000E+00	 5.00000000E+00
	 0.00000000E+00	 7.50000000E-01	 5.00000000E+00
	 0.00000000E+00	 3.75000000E-01	 5.00000000E+00
	 0.00000000E+00	 7.50000000E-01	 5.50000000E+00
	 0.00000000E+00	 1.12500000E+00	 6.00000000E+00
	 0.00000000E+00	 7.50000000E-01	 6.00000000E+00
	 0.00000000E+00	 3.75000000E-01	 6.00000000E+00
	 0.00000000E+00	 7.50000000E-01	 6.50000000E+00
	 0.00000000E+00	 1.12500000E+00	 7.00000000E+00
	 0.00000000E+00	 7.50000000E-01	 7.00000000E+00
	 0.00000000E+00	 3.75000000E-01	 7.00000000E+00
	 0.00000000E+00	 7.50000000E-01	 7.50000000E+00
	 5.00000000E-01	 7.50000000E-01	 5.00000000E-01
	 5.00000000E-01	 3.75000000E-01	 1.00000000E+00
	 2.50000000E-01	 7.50000000E-01	 1.00000000E+00
	 5.00000000E-01	 7.50000000E-01	 1.00000000E+00
	 7.50000000E-01	 7.50000000E-01	 1.00000000E+00
	 5.00000000E-01	 1.12500000E+00	 1.00000000E+00
	 5.00000000E-01	 7.50000000E-01	 1.50000000E+00
	 5.00000000E-01	 3.75000000E-01	 2.00000000E+00
	 2.50000000E-01	 7.50000000E-01	 2.00000000E+00
	 5.00000000E-01	 7.50000000E-01	 2.00000000E+00
	 7.50000000E-01	 7.50000000E-01	 2.00000000E+00
	 5.00000000E-01	 1.12500000E+00	 2.00000000E+00
	 5.00000000E-01	 7.50000000E-01	 2.50000000E+00
	 5.00000000E-01	 3.75000000E-01	 3.00000000E+00
	 2.50000000E-01	 7.50000000E-01	 3.00000000E+00
	 5.00000000E-01	 7.50000000E-01	 3.00000000E+00
	 7.50000000E-01	 7.50000000E-01	 3.00000000E+00
	 5.00000000E-01	 1.12500000E+00	 3.00000000E+00
	 5.00000000E-01	 7.50000000E-01	 3.50000000E+00
	 5.00000000E-01	 3.75000000E-01	 4.00000000E+00
	 2.50000000E-01	 7.50000000E-01	 4.00000000E+00
	 5.00000000E-01	 7.50000000E-01	 4.00000000E+00
	 7.50000000E-01	 7.50000000E-01	 4.00000000E+00
	 5.00000000E-01	 1.12500000E+00	 4.00000000E+00
	 5.00000000E-01	 7.50000000E-01	 4.50000000E+00
	 5.00000000E-01	 3.75000000E-01	 5.00000000E+00
	 2.50000000E-01	 7.50000000E-01	 5.00000000E+00
	 5.00000000E-01	 7.50000000E-01	 5.00000000E+00
	 7.50000000E-01	 7.50000000E-01	 5.00000000E+00
	 5.00000000E-01	 1.12500000E+00	 5.00000000E+00
	 5.00000000E-01	 7.50000000E-01	 5.50000000E+00
	 5.00000000E-01	 3.75000000E-01	 6.00000000E+00
	 2.50000000E-01	 7.50000000E-01	 6.00000000E+00
	 5.00000000E-01	 7.50000000E-01	 6.00000000E+00
	 7.50000000E-01	 7.50000000E-01	 6.00000000E+00
	 5.00000000E-01	 1.12500000E+00	 6.00000000E+00
	 5.00000000E-01	 7.50000000E-01	 6.50000000E+00
	 5.00000000E-01	 3.75000000E-01	 7.00000000E+00
	 2.50000000E-01	 7.50000000E-01	 7.00000000E+00
	 5.00000000E-01	 7.50000000E-01	 7.00000000E+00
	 7.50000000E-01	 7.50000000E-01	 7.00000000E+00
	 5.00000000E-01	 1.12500000E+00	 7.00000000E+00
	 5.00000000E-01	 7.50000000E-01	 7.50000000E+00

CELLS 32 672
	20 0 9 94 18 60 104 221 191 8 92 93 19 103 219 220 192 61 102 218 189 
	20 9 1 12 94 104 33 133 221 10 11 95 92 105 132 222 219 102 32 131 218 
	20 18 94 15 3 191 221 162 78 93 96 16 17 220 223 163 190 189 218 160 77 
	20 94 12 2 15 221 133 63 162 95 13 14 96 222 134 161 223 218 131 62 160 
	20 60 104 221 191 58 108 227 195 103 219 220 192 107 225 226 196 59 106 224 193 
	20 104 33 133 221 108 35 137 227 105 132 222 219 109 136 228 225 106 34 135 224 
	20 191 221 162 78 195 227 166 80 220 223 163 190 226 229 167 194 193 224 164 79 
	20 221 133 63 162 227 137 65 166 222 134 161 223 228 138 165 229 224 135 64 164 
	20 58 108 227 195 56 112 233 199 107 225 226 196 111 231 232 200 57 110 230 197 
	20 108 35 137 227 112 37 141 233 109 136 228 225 113 140 234 231 110 36 139 230 
	20 195 227 166 80 199 233 170 82 226 229 167 194 232 235 171 198 197 230 168 81 
	20 227 137 65 166 233 141 67 170 228 138 165 229 234 142 169 235 230 139 66 168 
	20 56 112 233 199 54 116 239 203 111 231 232 200 115 237 238 204 55 114 236 201 
	20 112 37 141 233 116 39 145 239 113 140 234 231 117 144 240 237 114 38 143 236 
	20 199 233 170 82 203 239 174 84 232 235 171 198 238 241 175 202 201 236 172 83 
	20 233 141 67 170 239 145 69 174 234 142 169 235 240 146 173 241 236 143 68 172 
	20 54 116 239 203 52 120 245 207 115 237 238 204 119 243 244 208 53 118 242 205 
	20 116 39 145 239 120 41 149 245 117 144 240 237 121 148 246 243 118 40 147 242 
	20 203 239 174 84 207 245 178 86 238 241 175 202 244 247 179 206 205 242 176 85 
	20 239 145 69 174 245 149 71 178 240 146 173 241 246 150 177 247 242 147 70 176 
	20 52 120 245 207 50 124 251 211 119 243 244 208 123 249 250 212 51 122 248 209 
	20 120 41 149 245 124 43 153 251 121 148 246 243 125 152 252 249 122 42 151 248 
	20 207 245 178 86 211 251 182 88 244 247 179 206 250 253 183 210 209 248 180 87 
	20 245 149 71 178 251 153 73 182 246 150 177 247 252 154 181 253 248 151 72 180 
	20 50 124 251 211 48 128 257 215 123 249 250 212 127 255 256 216 49 126 254 213 
	20 124 43 153 251 128 45 157 257 125 152 252 249 129 156 258 255 126 44 155 254 
	20 211 251 182 88 215 257 186 90 250 253 183 210 256 259 187 214 213 254 184 89 
	20 251 153 73 182 257 157 75 186 252 154 181 253 258 158 185 259 254 155 74 184 
	20 48 128 257 215 4 21 99 30 127 255 256 216 20 97 98 31 47 130 260 217 
	20 128 45 157 257 21 5 24 99 129 156 258 255 22 23 100 97 130 46 159 260 
	20 215 257 186 90 30 99 27 7 256 259 187 214 98 101 28 29 217 260 188 91 
	20 257 157 75 186 99 24 6 27 258 158 185 259 100 25 26 101 260 159 76 188 

CELL_TYPES 32
	25
	25
	25
	25
	25
	25
	25
	25
	25
	25
	25
	25
	25
	25
	25
	25
	25
	25
	25
	25
	25
	25
	25
	25
	25
	25
	25
	25
	25
	25
	25
	25

POINT_DATA 261
FIELD U 1
	U 3 261 double
		 0.00000000E+00	 0.00000000E+00	 0.00000000E+00
		 0.00000000E+00	 0.00000000E+00	 0.00000000E+00
		 0.00000000E+00	 0.00000000E+00	 0.00000000E+00
		 0.00000000E+00	 0.00000000E+00	 0.00000000E+00
		 6.25047000E+03	 4.67823000E+02	 2.56167000E+03
		 6.25047000E+03	-4.67823000E+02	-2.56167000E+03
		 5.51549000E+03	-4.26655000E+02	-2.56304000E+03
		 5.51549000E+03	 4.26655000E+02	 2.56304000E+03
		 0.00000000E+00	 0.00000000E+00	 0.00000000E+00
		 0.00000000E+00	 0.00000000E+00	 0.00000000E+00
		 0.00000000E+00	 0.00000000E+00	 0.00000000E+00
		 0.00000000E+00	 0.00000000E+00	 0.00000000E+00
		 0.00000000E+00	 0.00000000E+00	 0.00000000E+00
		 0.00000000E+00	 0.00000000E+00	 0.00000000E+00
		 0.00000000E+00	 0.00000000E+00	 0.00000000E+00
		 0.00000000E+00	 0.00000000E+00	 0.00000000E+00
		 0.00000000E+00	 0.00000000E+00	 0.00000000E+00
		 0.00000000E+00	 0.00000000E+00	 0.00000000E+00
		 0.00000000E+00	 0.00000000E+00	 0.00000000E+00
		 0.00000000E+00	 0.00000000E+00	 0.00000000E+00
		 6.24322000E+03	 2.27214000E+02	 1.26934000E+03
		 6.22773000E+03	-6.64841000E-10	-1.26693000E-09
		 6.24322000E+03	-2.27214000E+02	-1.26934000E+03
		 6.09012000E+03	-4.70414000E+02	-2.57811000E+03
		 5.92502000E+03	-4.55386000E+02	-2.58510000E+03
		 5.72648000E+03	-4.35904000E+02	-2.58356000E+03
		 5.51509000E+03	-2.14640000E+02	-1.27120000E+03
		 5.50666000E+03	-6.01631000E-10	-1.08994000E-09
		 5.51509000E+03	 2.14640000E+02	 1.27120000E+03
		 5.72648000E+03	 4.35904000E+02	 2.58356000E+03
		 5.92502000E+03	 4.55386000E+02	 2.58510000E+03
		 6.09012000E+03	 4.70414000E+02	 2.57811000E+03
		 8.48078000E+02	-3.16686000E+02	-7.00963000E+02
		 2.13114000E+03	-2.15354000E+02	-1.01176000E+03
		 3.52778000E+03	-1.42849000E+02	-8.03433000E+02
		 4.31949000E+03	-2.77744000E+01	-2.69177000E+02
		 4.29409000E+03	 6.72715000E+01	 4.36348000E+02
		 3.35128000E+03	 1.33313000E+02	 1.10704000E+03
		 1.67777000E+03	 1.42398000E+02	 1.56120000E+03
		-3.67012000E+02	 8.68358000E+01	 1.69439000E+03
		-2.30060000E+03	-3.80877000E+01	 1.43237000E+03
		-3.67516000E+03	-2.01948000E+02	 8.43524000E+02
		-4.11111000E+03	-3.74308000E+02	 2.29855000E+01
		-3.47149000E+03	-5.09685000E+02	-8.63660000E+02
		-1.79944000E+03	-5.76484000E+02	-1.64303000E+03
		 6.37010000E+02	-5.71727000E+02	-2.21427000E+03
		 3.43653000E+03	-5.18205000E+02	-2.49162000E+03
		 3.43653000E+03	 5.18205000E+02	 2.49162000E+03
		 6.37010000E+02	 5.71727000E+02	 2.21427000E+03
		-1.79944000E+03	 5.76484000E+02	 1.64303000E+03
		-3.47149000E+03	 5.09685000E+02	 8.63660000E+02
		-4.11111000E+03	 3.74308000E+02	-2.29855000E+01
		-3.67516000E+03	 2.01948000E+02	-8.43524000E+02
		-2.30060000E+03	 3.80877000E+01	-1.43237000E+03
		-3.67012000E+02	-8.68358000E+01	-1.69439000E+03
		 1.67777000E+03	-1.42398000E+02	-1.56120000E+03
		 3.35128000E+03	-1.33313000E+02	-1.10704000E+03
		 4.29409000E+03	-6.72715000E+01	-4.36348000E+02
		 4.31949000E+03	 2.77744000E+01	 2.69177000E+02
		 3.52778000E+03	 1.42849000E+02	 8.03433000E+02
		 2.13114000E+03	 2.15354000E+02	 1.01176000E+03
		 8.48078000E+02	 3.16686000E+02	 7.00963000E+02
		 1.07056000E+03	 9.94192000E+01	-8.64140000E+02
		 2.65434000E+03	-2.80006000E+02	-1.18581000E+03
		 4.35393000E+03	-5.21315000E+02	-9.14856000E+02
		 5.32966000E+03	-6.55286000E+02	-2.59718000E+02
		 5.38466000E+03	-5.89071000E+02	 5.56349000E+02
		 4.38545000E+03	-3.88453000E+02	 1.29057000E+03
		 2.55878000E+03	-1.01146000E+02	 1.74732000E+03
		 2.83152000E+02	 1.84815000E+02	 1.82232000E+03
		-1.92084000E+03	 3.91737000E+02	 1.46971000E+03
		-3.56538000E+03	 4.73368000E+02	 7.81510000E+02
		-4.25106000E+03	 4.12968000E+02	-1.11488000E+02
		-3.82127000E+03	 2.40836000E+02	-1.02783000E+03
		-2.31048000E+03	 1.23035000E+01	-1.79024000E+03
		 3.40264000E+00	-2.11974000E+02	-2.30886000E+03
		 2.73454000E+03	-3.60038000E+02	-2.53072000E+03
		 1.07056000E+03	-9.94192000E+01	 8.64140000E+02
		 2.65434000E+03	 2.80006000E+02	 1.18581000E+03
		 4.35393000E+03	 5.21315000E+02	 9.14856000E+02
		 5.32966000E+03	 6.55286000E+02	 2.59718000E+02
		 5.38466000E+03	 5.89071000E+02	-5.56349000E+02
		 4.38545000E+03	 3.88453000E+02	-1.29057000E+03
		 2.55878000E+03	 1.01146000E+02	-1.74732000E+03
		 2.83152000E+02	-1.84815000E+02	-1.82232000E+03
		-1.92084000E+03	-3.91737000E+02	-1.46971000E+03
		-3.56538000E+03	-4.73368000E+02	-7.81510000E+02
		-4.25106000E+03	-4.12968000E+02	 1.11488000E+02
		-3.82127000E+03	-2.40836000E+02	 1.02783000E+03
		-2.31048000E+03	-1.23035000E+01	 1.79024000E+03
		 3.40264000E+00	 2.11974000E+02	 2.30886000E+03
		 2.73454000E+03	 3.60038000E+02	 2.53072000E+03
		 0.00000000E+00	 0.00000000E+00	 0.00000000E+00
		 0.00000000E+00	 0.00000000E+00	 0.00000000E+00
		 0.00000000E+00	 0.00000000E+00	 0.00000000E+00
		 0.00000000E+00	 0.00000000E+00	 0.00000000E+00
		 0.00000000E+00	 0.00000000E+00	 0.00000000E+00
		 6.08239000E+03	-6.44377000E-10	-1.21963000E-09
		 5.93376000E+03	 2.26781000E+02	 1.28663000E+03
		 5.93680000E+03	-6.30735000E-10	-1.17507000E-09
		 5.93376000E+03	-2.26781000E+02	-1.28663000E+03
		 5.70993000E+03	-6.19366000E-10	-1.13300000E-09
		 7.29060000E+02	-1.10049000E-10	-1.20735000E-10
		 2.15304000E+03	 1.06774000E+02	 4.25226000E+02
		 2.19728000E+03	-1.82581000E-10	-2.37833000E-10
		 2.15304000E+03	-1.06774000E+02	-4.25226000E+02
		 3.55702000E+03	-2.56023000E-10	-3.28782000E-10
		 4.41817000E+03	 4.90455000E+00	 1.14031000E+02
		 4.45283000E+03	-2.97177000E-10	-3.98131000E-10
		 4.41817000E+03	-4.90455000E+00	-1.14031000E+02
		 4.39262000E+03	-2.80629000E-10	-4.17231000E-10
		 3.42586000E+03	-6.49024000E+01	-5.21495000E+02
		 3.45250000E+03	-2.21917000E-10	-3.92220000E-10
		 3.42586000E+03	 6.49024000E+01	 5.21495000E+02
		 1.71701000E+03	-1.15506000E-10	-3.07409000E-10
		-3.75831000E+02	-3.20749000E+01	-7.92806000E+02
		-3.77701000E+02	 1.11413000E-11	-1.92358000E-10
		-3.75831000E+02	 3.20749000E+01	 7.92806000E+02
		-2.36913000E+03	 1.39551000E-10	-8.75389000E-11
		-3.76515000E+03	 1.09830000E+02	-3.96408000E+02
		-3.79125000E+03	 2.23849000E-10	-2.89901000E-11
		-3.76515000E+03	-1.09830000E+02	 3.96408000E+02
		-4.23969000E+03	 2.36923000E-10	-5.11591000E-11
		-3.57466000E+03	 2.49780000E+02	 4.03154000E+02
		-3.60635000E+03	 1.68939000E-10	-1.65301000E-10
		-3.57466000E+03	-2.49780000E+02	-4.03154000E+02
		-1.89684000E+03	 1.93836000E-11	-3.84262000E-10
		 5.85989000E+02	 2.72922000E+02	 1.05681000E+03
		 5.64529000E+02	-1.90198000E-10	-6.65295000E-10
		 5.85989000E+02	-2.72922000E+02	-1.05681000E+03
		 3.41407000E+03	-4.35193000E-10	-9.64064000E-10
		 1.05892000E+03	-1.34116000E+02	-7.84833000E+02
		 2.27846000E+03	-2.20616000E+02	-1.06609000E+03
		 2.39593000E+03	-2.40314000E+02	-1.12999000E+03
		 2.54105000E+03	-2.72924000E+02	-1.24467000E+03
		 3.80324000E+03	-3.26858000E+02	-8.71614000E+02
		 4.38587000E+03	-1.89673000E+02	-2.71223000E+02
		 4.60616000E+03	-3.43270000E+02	-2.71576000E+02
		 4.90927000E+03	-4.96267000E+02	-2.95905000E+02
		 4.59472000E+03	-2.59492000E+02	 4.96955000E+02
		 3.45325000E+03	 2.82946000E+00	 1.16128000E+03
		 3.67307000E+03	-1.26706000E+02	 1.20595000E+03
		 3.98027000E+03	-2.48592000E+02	 1.28574000E+03
		 2.01916000E+03	 2.52295000E+01	 1.66958000E+03
		-1.80254000E+02	 1.14752000E+02	 1.73674000E+03
		-1.28560000E+01	 1.41365000E+02	 1.77344000E+03
		 1.39375000E+02	 1.76810000E+02	 1.86614000E+03
		-1.95532000E+03	 1.81500000E+02	 1.46676000E+03
		-3.44784000E+03	-3.03520000E+01	 8.23554000E+02
		-3.36886000E+03	 1.40739000E+02	 8.21418000E+02
		-3.40390000E+03	 3.15147000E+02	 8.49802000E+02
		-3.88090000E+03	 2.08679000E+01	-4.16860000E+01
		-3.33431000E+03	-3.26876000E+02	-9.33432000E+02
		-3.35786000E+03	-1.34646000E+02	-9.49464000E+02
		-3.51378000E+03	 5.16962000E+01	-9.83210000E+02
		-1.82303000E+03	-2.85077000E+02	-1.72822000E+03
		 5.84007000E+02	-4.92970000E+02	-2.27347000E+03
		 4.65089000E+02	-3.96106000E+02	-2.27155000E+03
		 2.71101000E+02	-3.07806000E+02	-2.30786000E+03
		 3.15843000E+03	-4.42793000E+02	-2.52487000E+03
		 9.48599000E+02	-3.14344000E-11	-4.21778000E-11
		 2.68300000E+03	-1.31180000E+02	-4.58249000E+02
		 2.73625000E+03	-1.18689000E-10	-1.49157000E-10
		 2.68300000E+03	 1.31180000E+02	 4.58249000E+02
		 4.37470000E+03	-2.02533000E-10	-2.98769000E-10
		 5.43376000E+03	-3.19748000E+02	-9.46336000E+01
		 5.46413000E+03	-2.63221000E-10	-4.58840000E-10
		 5.43376000E+03	 3.19748000E+02	 9.46336000E+01
		 5.47432000E+03	-2.74838000E-10	-5.62068000E-10
		 4.46339000E+03	-2.00316000E+02	 5.94376000E+02
		 4.48712000E+03	-2.29647000E-10	-5.89807000E-10
		 4.46339000E+03	 2.00316000E+02	-5.94376000E+02
		 2.59468000E+03	-1.25738000E-10	-5.21140000E-10
		 2.76078000E+02	 7.43723000E+01	 8.21829000E+02
		 2.74695000E+02	 6.70752000E-12	-3.81760000E-10
		 2.76078000E+02	-7.43723000E+01	-8.21829000E+02
		-1.98719000E+03	 1.50322000E-10	-2.20211000E-10
		-3.65467000E+03	 2.22985000E+02	 3.36870000E+02
		-3.67732000E+03	 2.49656000E-10	-7.73070000E-11
		-3.65467000E+03	-2.22985000E+02	-3.36870000E+02
		-4.37632000E+03	 2.95131000E-10	-1.88152000E-11
		-3.92339000E+03	 1.22835000E+02	-5.00495000E+02
		-3.95088000E+03	 2.45109000E-10	-7.48059000E-11
		-3.92339000E+03	-1.22835000E+02	 5.00495000E+02
		-2.40913000E+03	 1.03796000E-10	-2.52328000E-10
		-4.69207000E+01	-9.40620000E+01	-1.10939000E+03
		-6.56156000E+01	-1.09708000E-10	-4.89649000E-10
		-4.69207000E+01	 9.40620000E+01	 1.10939000E+03
		 2.71495000E+03	-3.52884000E-10	-7.93534000E-10
		 1.05892000E+03	 1.34116000E+02	 7.84833000E+02
		 2.54105000E+03	 2.72924000E+02	 1.24467000E+03
		 2.39593000E+03	 2.40314000E+02	 1.12999000E+03
		 2.27846000E+03	 2.20616000E+02	 1.06609000E+03
		 3.80324000E+03	 3.26858000E+02	 8.71614000E+02
		 4.90927000E+03	 4.96267000E+02	 2.95905000E+02
		 4.60616000E+03	 3.43270000E+02	 2.71576000E+02
		 4.38587000E+03	 1.89673000E+02	 2.71223000E+02
		 4.59472000E+03	 2.59492000E+02	-4.96955000E+02
		 3.98027000E+03	 2.48592000E+02	-1.28574000E+03
		 3.67307000E+03	 1.26706000E+02	-1.20595000E+03
		 3.45325000E+03	-2.82946000E+00	-1.16128000E+03
		 2.01916000E+03	-2.52295000E+01	-1.66958000E+03
		 1.39375000E+02	-1.76810000E+02	-1.86614000E+03
		-1.28560000E+01	-1.41365000E+02	-1.77344000E+03
		-1.80254000E+02	-1.14752000E+02	-1.73674000E+03
		-1.95532000E+03	-1.81500000E+02	-1.46676000E+03
		-3.40390000E+03	-3.15147000E+02	-8.49802000E+02
		-3.36886000E+03	-1.40739000E+02	-8.21418000E+02
		-3.44784000E+03	 3.03520000E+01	-8.23554000E+02
		-3.88090000E+03	-2.08679000E+01	 4.16860000E+01
		-3.51378000E+03	-5.16962000E+01	 9.83210000E+02
		-3.35786000E+03	 1.34646000E+02	 9.49464000E+02
		-3.33431000E+03	 3.26876000E+02	 9.33432000E+02
		-1.82303000E+03	 2.85077000E+02	 1.72822000E+03
		 2.71101000E+02	 3.07806000E+02	 2.30786000E+03
		 4.65089000E+02	 3.96106000E+02	 2.27155000E+03
		 5.84007000E+02	 4.92970000E+02	 2.27347000E+03
		 3.15843000E+03	 4.42793000E+02	 2.52487000E+03
		 9.22857000E+02	-6.74163000E-11	-8.44693000E-11
		 2.35005000E+03	-1.67574000E-10	-2.12367000E-10
		 2.41499000E+03	 1.18677000E+02	 4.84910000E+02
		 2.46273000E+03	-1.54387000E-10	-2.02590000E-10
		 2.41499000E+03	-1.18677000E+02	-4.84910000E+02
		 2.61762000E+03	-1.36538000E-10	-1.90084000E-10
		 3.83634000E+03	-2.31239000E-10	-3.14230000E-10
		 4.51545000E+03	-2.89788000E-10	-4.03134000E-10
		 4.71256000E+03	 1.58481000E+02	 1.20780000E+02
		 4.74506000E+03	-2.80977000E-10	-4.17458000E-10
		 4.71256000E+03	-1.58481000E+02	-1.20780000E+02
		 5.04769000E+03	-2.74184000E-10	-4.36103000E-10
		 4.70251000E+03	-2.81005000E-10	-4.74756000E-10
		 3.55292000E+03	-2.19984000E-10	-4.27008000E-10
		 3.75263000E+03	 6.05082000E+01	-5.76853000E+02
		 3.77885000E+03	-2.21576000E-10	-4.71573000E-10
		 3.75263000E+03	-6.05082000E+01	 5.76853000E+02
		 4.08571000E+03	-2.25100000E-10	-5.20686000E-10
		 2.06181000E+03	-1.19826000E-10	-3.99723000E-10
		-1.90912000E+02	 1.00044000E-11	-2.40561000E-10
		-2.12415000E+01	-6.14303000E+01	-8.41727000E+02
		-2.32302000E+01	 9.32232000E-12	-2.83762000E-10
		-2.12415000E+01	 6.14303000E+01	 8.41727000E+02
		 1.30363000E+02	 8.98126000E-12	-3.26963000E-10
		-2.02781000E+03	 1.38414000E-10	-1.63254000E-10
		-3.56294000E+03	 2.21235000E-10	-6.03677000E-11
		-3.46270000E+03	-5.99604000E+01	-3.86466000E+02
		-3.48877000E+03	 2.31239000E-10	-7.88418000E-11
		-3.46270000E+03	 5.99604000E+01	 3.86466000E+02
		-3.52000000E+03	 2.40561000E-10	-8.21672000E-11
		-4.01793000E+03	 2.52385000E-10	-6.62794000E-11
		-3.46710000E+03	 1.80762000E-10	-1.73486000E-10
		-3.46376000E+03	 6.75704000E+01	 4.60870000E+02
		-3.49395000E+03	 1.94859000E-10	-1.59389000E-10
		-3.46376000E+03	-6.75704000E+01	-4.60870000E+02
		-3.64767000E+03	 2.14413000E-10	-1.29262000E-10
		-1.92652000E+03	 4.87717000E-11	-3.43107000E-10
		 5.17921000E+02	-1.77351000E-10	-6.31189000E-10
		 4.20072000E+02	 1.90838000E+02	 1.10499000E+03
		 4.03661000E+02	-1.58877000E-10	-5.94127000E-10
		 4.20072000E+02	-1.90838000E+02	-1.10499000E+03
		 2.07834000E+02	-1.37163000E-10	-5.50472000E-10
		 3.13659000E+03	-3.99723000E-10	-8.87667000E-10
