<?xml version="1.0"?>
<VTKFile type="UnstructuredGrid" version="0.1" byte_order="LittleEndian">
	<UnstructuredGrid>
		<Piece NumberOfPoints="81" NumberOfCells="32">
			<Points>
				<DataArray type="Float64" NumberOfComponents="3" format="ascii">
					 0.00000000E+00	 0.00000000E+00	 0.00000000E+00
					 1.00000000E+00	 0.00000000E+00	 0.00000000E+00
					 1.00000000E+00	 1.00000000E+00	 0.00000000E+00
					 0.00000000E+00	 1.00000000E+00	 0.00000000E+00
					 0.00000000E+00	 0.00000000E+00	 8.00000000E+00
					 1.00000000E+00	 0.00000000E+00	 8.00000000E+00
					 1.00000000E+00	 1.00000000E+00	 8.00000000E+00
					 0.00000000E+00	 1.00000000E+00	 8.00000000E+00
					 5.00000000E-01	 0.00000000E+00	 0.00000000E+00
					 1.00000000E+00	 5.00000000E-01	 0.00000000E+00
					 5.00000000E-01	 1.00000000E+00	 0.00000000E+00
					 0.00000000E+00	 5.00000000E-01	 0.00000000E+00
					 5.00000000E-01	 0.00000000E+00	 8.00000000E+00
					 1.00000000E+00	 5.00000000E-01	 8.00000000E+00
					 5.00000000E-01	 1.00000000E+00	 8.00000000E+00
					 0.00000000E+00	 5.00000000E-01	 8.00000000E+00
					 1.00000000E+00	 0.00000000E+00	 1.00000000E+00
					 1.00000000E+00	 0.00000000E+00	 2.00000000E+00
					 1.00000000E+00	 0.00000000E+00	 3.00000000E+00
					 1.00000000E+00	 0.00000000E+00	 4.00000000E+00
					 1.00000000E+00	 0.00000000E+00	 5.00000000E+00
					 1.00000000E+00	 0.00000000E+00	 6.00000000E+00
					 1.00000000E+00	 0.00000000E+00	 7.00000000E+00
					 0.00000000E+00	 0.00000000E+00	 7.00000000E+00
					 0.00000000E+00	 0.00000000E+00	 6.00000000E+00
					 0.00000000E+00	 0.00000000E+00	 5.00000000E+00
					 0.00000000E+00	 0.00000000E+00	 4.00000000E+00
					 0.00000000E+00	 0.00000000E+00	 3.00000000E+00
					 0.00000000E+00	 0.00000000E+00	 2.00000000E+00
					 0.00000000E+00	 0.00000000E+00	 1.00000000E+00
					 1.00000000E+00	 1.00000000E+00	 1.00000000E+00
					 1.00000000E+00	 1.00000000E+00	 2.00000000E+00
					 1.00000000E+00	 1.00000000E+00	 3.00000000E+00
					 1.00000000E+00	 1.00000000E+00	 4.00000000E+00
					 1.00000000E+00	 1.00000000E+00	 5.00000000E+00
					 1.00000000E+00	 1.00000000E+00	 6.00000000E+00
					 1.00000000E+00	 1.00000000E+00	 7.00000000E+00
					 0.00000000E+00	 1.00000000E+00	 1.00000000E+00
					 0.00000000E+00	 1.00000000E+00	 2.00000000E+00
					 0.00000000E+00	 1.00000000E+00	 3.00000000E+00
					 0.00000000E+00	 1.00000000E+00	 4.00000000E+00
					 0.00000000E+00	 1.00000000E+00	 5.00000000E+00
					 0.00000000E+00	 1.00000000E+00	 6.00000000E+00
					 0.00000000E+00	 1.00000000E+00	 7.00000000E+00
					 5.00000000E-01	 5.00000000E-01	 0.00000000E+00
					 5.00000000E-01	 5.00000000E-01	 8.00000000E+00
					 5.00000000E-01	 0.00000000E+00	 1.00000000E+00
					 5.00000000E-01	 0.00000000E+00	 2.00000000E+00
					 5.00000000E-01	 0.00000000E+00	 3.00000000E+00
					 5.00000000E-01	 0.00000000E+00	 4.00000000E+00
					 5.00000000E-01	 0.00000000E+00	 5.00000000E+00
					 5.00000000E-01	 0.00000000E+00	 6.00000000E+00
					 5.00000000E-01	 0.00000000E+00	 7.00000000E+00
					 1.00000000E+00	 5.00000000E-01	 1.00000000E+00
					 1.00000000E+00	 5.00000000E-01	 2.00000000E+00
					 1.00000000E+00	 5.00000000E-01	 3.00000000E+00
					 1.00000000E+00	 5.00000000E-01	 4.00000000E+00
					 1.00000000E+00	 5.00000000E-01	 5.00000000E+00
					 1.00000000E+00	 5.00000000E-01	 6.00000000E+00
					 1.00000000E+00	 5.00000000E-01	 7.00000000E+00
					 5.00000000E-01	 1.00000000E+00	 1.00000000E+00
					 5.00000000E-01	 1.00000000E+00	 2.00000000E+00
					 5.00000000E-01	 1.00000000E+00	 3.00000000E+00
					 5.00000000E-01	 1.00000000E+00	 4.00000000E+00
					 5.00000000E-01	 1.00000000E+00	 5.00000000E+00
					 5.00000000E-01	 1.00000000E+00	 6.00000000E+00
					 5.00000000E-01	 1.00000000E+00	 7.00000000E+00
					 0.00000000E+00	 5.00000000E-01	 1.00000000E+00
					 0.00000000E+00	 5.00000000E-01	 2.00000000E+00
					 0.00000000E+00	 5.00000000E-01	 3.00000000E+00
					 0.00000000E+00	 5.00000000E-01	 4.00000000E+00
					 0.00000000E+00	 5.00000000E-01	 5.00000000E+00
					 0.00000000E+00	 5.00000000E-01	 6.00000000E+00
					 0.00000000E+00	 5.00000000E-01	 7.00000000E+00
					 5.00000000E-01	 5.00000000E-01	 1.00000000E+00
					 5.00000000E-01	 5.00000000E-01	 2.00000000E+00
					 5.00000000E-01	 5.00000000E-01	 3.00000000E+00
					 5.00000000E-01	 5.00000000E-01	 4.00000000E+00
					 5.00000000E-01	 5.00000000E-01	 5.00000000E+00
					 5.00000000E-01	 5.00000000E-01	 6.00000000E+00
					 5.00000000E-01	 5.00000000E-01	 7.00000000E+00
				</DataArray>
			</Points>
			<Cells>
				<DataArray type="Int32" Name="connectivity" format="ascii">
					0 8 44 11 29 46 74 67 8 1 9 44 46 16 53 74 11 44 10 3 67 74 60 37 44 9 2 10 74 53 30 60 29 46 74 67 28 47 75 68 46 16 53 74 47 17 54 75 67 74 60 37 68 75 61 38 74 53 30 60 75 54 31 61 28 47 75 68 27 48 76 69 47 17 54 75 48 18 55 76 68 75 61 38 69 76 62 39 75 54 31 61 76 55 32 62 27 48 76 69 26 49 77 70 48 18 55 76 49 19 56 77 69 76 62 39 70 77 63 40 76 55 32 62 77 56 33 63 26 49 77 70 25 50 78 71 49 19 56 77 50 20 57 78 70 77 63 40 71 78 64 41 77 56 33 63 78 57 34 64 25 50 78 71 24 51 79 72 50 20 57 78 51 21 58 79 71 78 64 41 72 79 65 42 78 57 34 64 79 58 35 65 24 51 79 72 23 52 80 73 51 21 58 79 52 22 59 80 72 79 65 42 73 80 66 43 79 58 35 65 80 59 36 66 23 52 80 73 4 12 45 15 52 22 59 80 12 5 13 45 73 80 66 43 15 45 14 7 80 59 36 66 45 13 6 14 
				</DataArray>
				<DataArray type="Int32" Name="offsets" format="ascii">
					8 16 24 32 40 48 56 64 72 80 88 96 104 112 120 128 136 144 152 160 168 176 184 192 200 208 216 224 232 240 248 256 
				</DataArray>
				<DataArray type="UInt8" Name="types" format="ascii">
					12 12 12 12 12 12 12 12 12 12 12 12 12 12 12 12 12 12 12 12 12 12 12 12 12 12 12 12 12 12 12 12 
				</DataArray>
			</Cells>
			<PointData>
				<DataArray type="Float32" Name="U" NumberOfComponents="3" ComponentName0="D1" ComponentName1="D2" ComponentName2="D3" format="ascii">
					 0.00000000E+00	 0.00000000E+00	 0.00000000E+00
					 0.00000000E+00	 0.00000000E+00	 0.00000000E+00
					 0.00000000E+00	 0.00000000E+00	 0.00000000E+00
					 0.00000000E+00	 0.00000000E+00	 0.00000000E+00
					 1.01656000E+04	-1.01656000E+04	 2.77396000E-11
					 1.01656000E+04	 1.01656000E+04	-1.33014000E-09
					-1.01656000E+04	 1.01656000E+04	 2.06228000E-10
					-1.01656000E+04	-1.01656000E+04	 1.51977000E-09
					 0.00000000E+00	 0.00000000E+00	 0.00000000E+00
					 0.00000000E+00	 0.00000000E+00	 0.00000000E+00
					 0.00000000E+00	 0.00000000E+00	 0.00000000E+00
					 0.00000000E+00	 0.00000000E+00	 0.00000000E+00
					 1.07624000E+04	 1.37334000E-10	-6.76096000E-10
					-1.46429000E-10	 1.07624000E+04	-5.90546000E-10
					-1.07624000E+04	 9.41327000E-10	 8.95056000E-10
					-9.45192000E-10	-1.07624000E+04	 7.85803000E-10
					 6.00276000E+03	 6.00276000E+03	-5.80258000E-10
					 6.66482000E+03	 6.66482000E+03	-6.57565000E-10
					 1.83330000E+03	 1.83330000E+03	 4.86580000E-11
					-4.50691000E+03	-4.50691000E+03	 8.59018000E-10
					-7.12176000E+03	-7.12176000E+03	 1.02409000E-09
					-4.03870000E+03	-4.03870000E+03	 4.05635000E-10
					 2.61438000E+03	 2.61438000E+03	-3.92447000E-10
					 2.61438000E+03	-2.61438000E+03	 4.79758000E-11
					-4.03870000E+03	 4.03870000E+03	 2.54659000E-11
					-7.12176000E+03	 7.12176000E+03	-1.31877000E-11
					-4.50691000E+03	 4.50691000E+03	-8.64020000E-11
					 1.83330000E+03	-1.83330000E+03	-7.79892000E-11
					 6.66482000E+03	-6.66482000E+03	-6.82121000E-11
					 6.00276000E+03	-6.00276000E+03	-5.04770000E-11
					-6.00276000E+03	 6.00276000E+03	-4.96811000E-11
					-6.66482000E+03	 6.66482000E+03	-1.10390000E-10
					-1.83330000E+03	 1.83330000E+03	-1.67347000E-10
					 4.50691000E+03	-4.50691000E+03	-1.36879000E-10
					 7.12176000E+03	-7.12176000E+03	-6.13909000E-11
					 4.03870000E+03	-4.03870000E+03	 3.25144000E-11
					-2.61438000E+03	 2.61438000E+03	 1.29148000E-10
					-6.00276000E+03	-6.00276000E+03	 4.51109000E-10
					-6.66482000E+03	-6.66482000E+03	 4.27917000E-10
					-1.83330000E+03	-1.83330000E+03	-2.42153000E-10
					 4.50691000E+03	 4.50691000E+03	-1.02568000E-09
					 7.12176000E+03	 7.12176000E+03	-1.08750000E-09
					 4.03870000E+03	 4.03870000E+03	-3.46517000E-10
					-2.61438000E+03	-2.61438000E+03	 5.44787000E-10
					 0.00000000E+00	 0.00000000E+00	 0.00000000E+00
					 7.75799000E-10	-9.31522000E-10	 1.01863000E-10
					 5.94938000E+03	-7.54881000E-10	-3.44244000E-10
					 6.67224000E+03	-9.42237000E-10	-3.46063000E-10
					 1.83299000E+03	-1.43700000E-10	 5.00222000E-12
					-4.49994000E+03	 8.24457000E-10	 3.81988000E-10
					-7.16306000E+03	 9.50536000E-10	 5.26370000E-10
					-3.82670000E+03	 1.84627000E-10	 2.02874000E-10
					 1.59466000E+03	-8.26731000E-10	-1.13005000E-10
					 6.56655000E-10	 5.94938000E+03	-3.04681000E-10
					 7.71706000E-10	 6.67224000E+03	-3.82101000E-10
					 8.36735000E-11	 1.83299000E+03	-4.68390000E-11
					-6.99174000E-10	-4.49994000E+03	 3.82564000E-10
					-8.56971000E-10	-7.16306000E+03	 4.88399000E-10
					-1.32786000E-10	-3.82670000E+03	 2.17938000E-10
					 7.42602000E-10	 1.59466000E+03	-8.04903000E-11
					-5.94938000E+03	-6.07088000E-10	 2.11003000E-10
					-6.67224000E+03	-6.91216000E-10	 1.59844000E-10
					-1.83299000E+03	-1.01636000E-10	-1.89175000E-10
					 4.49994000E+03	 5.43423000E-10	-5.70822000E-10
					 7.16306000E+03	 4.22006000E-10	-5.80712000E-10
					 3.82670000E+03	-1.06411000E-10	-1.28580000E-10
					-1.59466000E+03	-6.75755000E-10	 3.08773000E-10
					 5.27507000E-10	-5.94938000E+03	 2.21917000E-10
					 5.56838000E-10	-6.67224000E+03	 1.73713000E-10
					 7.57154000E-11	-1.83299000E+03	-1.68768000E-10
					-4.24507000E-10	 4.49994000E+03	-5.39103000E-10
					-3.08319000E-10	 7.16306000E+03	-5.40012000E-10
					 1.23691000E-10	 3.82670000E+03	-1.43928000E-10
					 6.10271000E-10	-1.59466000E+03	 2.46473000E-10
					 5.39330000E-10	-6.39375000E-10	-5.30918000E-11
					 6.70980000E-10	-8.14453000E-10	-9.94476000E-11
					 7.00311000E-11	-7.82165000E-11	-9.77707000E-11
					-5.65251000E-10	 6.62453000E-10	-7.71934000E-11
					-6.16637000E-10	 7.55335000E-10	 9.09495000E-13
					-2.09184000E-11	 7.44649000E-12	 6.77574000E-11
					 6.10498000E-10	-6.96218000E-10	 8.39009000E-11
				</DataArray>
				<DataArray type="Float32" Name="SENFREQ" NumberOfComponents="2" ComponentName0="DFDN" ComponentName1="DFDNFIL" format="ascii">
					 0.00000000E+00	 0.00000000E+00
					 0.00000000E+00	 0.00000000E+00
					 0.00000000E+00	 0.00000000E+00
					 0.00000000E+00	 0.00000000E+00
					-6.46220000E+12	-1.00000000E+00
					-6.46220000E+12	-1.00000000E+00
					-6.46220000E+12	-1.00000000E+00
					-6.46220000E+12	-1.00000000E+00
					 0.00000000E+00	 0.00000000E+00
					 0.00000000E+00	 0.00000000E+00
					 0.00000000E+00	 0.00000000E+00
					 0.00000000E+00	 0.00000000E+00
					-2.97616000E+12	-4.60550000E-01
					-2.97616000E+12	-4.60550000E-01
					-2.97616000E+12	-4.60550000E-01
					-2.97616000E+12	-4.60550000E-01
					-3.74112000E+12	-5.78923000E-01
					-3.94094000E+12	-6.09845000E-01
					 4.69977000E+12	 7.27271000E-01
					 1.14913000E+12	 1.77823000E-01
					-5.24745000E+12	-8.12022000E-01
					 1.76293000E+12	 2.72806000E-01
					 4.10278000E+12	 6.34889000E-01
					 4.10278000E+12	 6.34889000E-01
					 1.76293000E+12	 2.72806000E-01
					-5.24745000E+12	-8.12022000E-01
					 1.14913000E+12	 1.77823000E-01
					 4.69977000E+12	 7.27271000E-01
					-3.94094000E+12	-6.09845000E-01
					-3.74112000E+12	-5.78923000E-01
					-3.74112000E+12	-5.78923000E-01
					-3.94094000E+12	-6.09845000E-01
					 4.69977000E+12	 7.27271000E-01
					 1.14913000E+12	 1.77823000E-01
					-5.24745000E+12	-8.12022000E-01
					 1.76293000E+12	 2.72806000E-01
					 4.10278000E+12	 6.34889000E-01
					-3.74112000E+12	-5.78923000E-01
					-3.94094000E+12	-6.09845000E-01
					 4.69977000E+12	 7.27271000E-01
					 1.14913000E+12	 1.77823000E-01
					-5.24745000E+12	-8.12022000E-01
					 1.76293000E+12	 2.72806000E-01
					 4.10278000E+12	 6.34889000E-01
					 0.00000000E+00	 0.00000000E+00
					 7.89547000E+09	 1.22179000E-03
					-3.84980000E+12	-5.95742000E-01
					-4.35871000E+12	-6.74493000E-01
					 5.55306000E+12	 8.59314000E-01
					 1.44492000E+12	 2.23595000E-01
					-5.92436000E+12	-9.16771000E-01
					 2.71782000E+12	 4.20571000E-01
					 2.49325000E+12	 3.85820000E-01
					-3.84980000E+12	-5.95742000E-01
					-4.35871000E+12	-6.74493000E-01
					 5.55306000E+12	 8.59314000E-01
					 1.44492000E+12	 2.23595000E-01
					-5.92436000E+12	-9.16771000E-01
					 2.71782000E+12	 4.20571000E-01
					 2.49325000E+12	 3.85820000E-01
					-3.84980000E+12	-5.95742000E-01
					-4.35871000E+12	-6.74493000E-01
					 5.55306000E+12	 8.59314000E-01
					 1.44492000E+12	 2.23595000E-01
					-5.92436000E+12	-9.16771000E-01
					 2.71782000E+12	 4.20571000E-01
					 2.49325000E+12	 3.85820000E-01
					-3.84980000E+12	-5.95742000E-01
					-4.35871000E+12	-6.74493000E-01
					 5.55306000E+12	 8.59314000E-01
					 1.44492000E+12	 2.23595000E-01
					-5.92436000E+12	-9.16771000E-01
					 2.71782000E+12	 4.20571000E-01
					 2.49325000E+12	 3.85820000E-01
					 0.00000000E+00	 0.00000000E+00
					 0.00000000E+00	 0.00000000E+00
					 0.00000000E+00	 0.00000000E+00
					 0.00000000E+00	 0.00000000E+00
					 0.00000000E+00	 0.00000000E+00
					 0.00000000E+00	 0.00000000E+00
					 0.00000000E+00	 0.00000000E+00
				</DataArray>
			</PointData>
		</Piece>
	</UnstructuredGrid>
</VTKFile>