<?xml version="1.0"?>
<VTKFile type="UnstructuredGrid" version="0.1" byte_order="LittleEndian">
	<UnstructuredGrid>
		<Piece NumberOfPoints="261" NumberOfCells="32">
			<Points>
				<DataArray type="Float64" NumberOfComponents="3" format="ascii">
					 0.00000000E+00	 0.00000000E+00	 0.00000000E+00
					 1.00000000E+00	 0.00000000E+00	 0.00000000E+00
					 1.00000000E+00	 1.00000000E+00	 0.00000000E+00
					 0.00000000E+00	 1.00000000E+00	 0.00000000E+00
					 0.00000000E+00	 0.00000000E+00	 8.00000000E+00
					 1.00000000E+00	 0.00000000E+00	 8.00000000E+00
					 1.00000000E+00	 1.00000000E+00	 8.00000000E+00
					 0.00000000E+00	 1.00000000E+00	 8.00000000E+00
					 2.50000000E-01	 0.00000000E+00	 0.00000000E+00
					 5.00000000E-01	 0.00000000E+00	 0.00000000E+00
					 7.50000000E-01	 0.00000000E+00	 0.00000000E+00
					 1.00000000E+00	 2.50000000E-01	 0.00000000E+00
					 1.00000000E+00	 5.00000000E-01	 0.00000000E+00
					 1.00000000E+00	 7.50000000E-01	 0.00000000E+00
					 7.50000000E-01	 1.00000000E+00	 0.00000000E+00
					 5.00000000E-01	 1.00000000E+00	 0.00000000E+00
					 2.50000000E-01	 1.00000000E+00	 0.00000000E+00
					 0.00000000E+00	 7.50000000E-01	 0.00000000E+00
					 0.00000000E+00	 5.00000000E-01	 0.00000000E+00
					 0.00000000E+00	 2.50000000E-01	 0.00000000E+00
					 2.50000000E-01	 0.00000000E+00	 8.00000000E+00
					 5.00000000E-01	 0.00000000E+00	 8.00000000E+00
					 7.50000000E-01	 0.00000000E+00	 8.00000000E+00
					 1.00000000E+00	 2.50000000E-01	 8.00000000E+00
					 1.00000000E+00	 5.00000000E-01	 8.00000000E+00
					 1.00000000E+00	 7.50000000E-01	 8.00000000E+00
					 7.50000000E-01	 1.00000000E+00	 8.00000000E+00
					 5.00000000E-01	 1.00000000E+00	 8.00000000E+00
					 2.50000000E-01	 1.00000000E+00	 8.00000000E+00
					 0.00000000E+00	 7.50000000E-01	 8.00000000E+00
					 0.00000000E+00	 5.00000000E-01	 8.00000000E+00
					 0.00000000E+00	 2.50000000E-01	 8.00000000E+00
					 1.00000000E+00	 0.00000000E+00	 5.00000000E-01
					 1.00000000E+00	 0.00000000E+00	 1.00000000E+00
					 1.00000000E+00	 0.00000000E+00	 1.50000000E+00
					 1.00000000E+00	 0.00000000E+00	 2.00000000E+00
					 1.00000000E+00	 0.00000000E+00	 2.50000000E+00
					 1.00000000E+00	 0.00000000E+00	 3.00000000E+00
					 1.00000000E+00	 0.00000000E+00	 3.50000000E+00
					 1.00000000E+00	 0.00000000E+00	 4.00000000E+00
					 1.00000000E+00	 0.00000000E+00	 4.50000000E+00
					 1.00000000E+00	 0.00000000E+00	 5.00000000E+00
					 1.00000000E+00	 0.00000000E+00	 5.50000000E+00
					 1.00000000E+00	 0.00000000E+00	 6.00000000E+00
					 1.00000000E+00	 0.00000000E+00	 6.50000000E+00
					 1.00000000E+00	 0.00000000E+00	 7.00000000E+00
					 1.00000000E+00	 0.00000000E+00	 7.50000000E+00
					 0.00000000E+00	 0.00000000E+00	 7.50000000E+00
					 0.00000000E+00	 0.00000000E+00	 7.00000000E+00
					 0.00000000E+00	 0.00000000E+00	 6.50000000E+00
					 0.00000000E+00	 0.00000000E+00	 6.00000000E+00
					 0.00000000E+00	 0.00000000E+00	 5.50000000E+00
					 0.00000000E+00	 0.00000000E+00	 5.00000000E+00
					 0.00000000E+00	 0.00000000E+00	 4.50000000E+00
					 0.00000000E+00	 0.00000000E+00	 4.00000000E+00
					 0.00000000E+00	 0.00000000E+00	 3.50000000E+00
					 0.00000000E+00	 0.00000000E+00	 3.00000000E+00
					 0.00000000E+00	 0.00000000E+00	 2.50000000E+00
					 0.00000000E+00	 0.00000000E+00	 2.00000000E+00
					 0.00000000E+00	 0.00000000E+00	 1.50000000E+00
					 0.00000000E+00	 0.00000000E+00	 1.00000000E+00
					 0.00000000E+00	 0.00000000E+00	 5.00000000E-01
					 1.00000000E+00	 1.00000000E+00	 5.00000000E-01
					 1.00000000E+00	 1.00000000E+00	 1.00000000E+00
					 1.00000000E+00	 1.00000000E+00	 1.50000000E+00
					 1.00000000E+00	 1.00000000E+00	 2.00000000E+00
					 1.00000000E+00	 1.00000000E+00	 2.50000000E+00
					 1.00000000E+00	 1.00000000E+00	 3.00000000E+00
					 1.00000000E+00	 1.00000000E+00	 3.50000000E+00
					 1.00000000E+00	 1.00000000E+00	 4.00000000E+00
					 1.00000000E+00	 1.00000000E+00	 4.50000000E+00
					 1.00000000E+00	 1.00000000E+00	 5.00000000E+00
					 1.00000000E+00	 1.00000000E+00	 5.50000000E+00
					 1.00000000E+00	 1.00000000E+00	 6.00000000E+00
					 1.00000000E+00	 1.00000000E+00	 6.50000000E+00
					 1.00000000E+00	 1.00000000E+00	 7.00000000E+00
					 1.00000000E+00	 1.00000000E+00	 7.50000000E+00
					 0.00000000E+00	 1.00000000E+00	 5.00000000E-01
					 0.00000000E+00	 1.00000000E+00	 1.00000000E+00
					 0.00000000E+00	 1.00000000E+00	 1.50000000E+00
					 0.00000000E+00	 1.00000000E+00	 2.00000000E+00
					 0.00000000E+00	 1.00000000E+00	 2.50000000E+00
					 0.00000000E+00	 1.00000000E+00	 3.00000000E+00
					 0.00000000E+00	 1.00000000E+00	 3.50000000E+00
					 0.00000000E+00	 1.00000000E+00	 4.00000000E+00
					 0.00000000E+00	 1.00000000E+00	 4.50000000E+00
					 0.00000000E+00	 1.00000000E+00	 5.00000000E+00
					 0.00000000E+00	 1.00000000E+00	 5.50000000E+00
					 0.00000000E+00	 1.00000000E+00	 6.00000000E+00
					 0.00000000E+00	 1.00000000E+00	 6.50000000E+00
					 0.00000000E+00	 1.00000000E+00	 7.00000000E+00
					 0.00000000E+00	 1.00000000E+00	 7.50000000E+00
					 5.00000000E-01	 2.50000000E-01	 0.00000000E+00
					 2.50000000E-01	 5.00000000E-01	 0.00000000E+00
					 5.00000000E-01	 5.00000000E-01	 0.00000000E+00
					 7.50000000E-01	 5.00000000E-01	 0.00000000E+00
					 5.00000000E-01	 7.50000000E-01	 0.00000000E+00
					 5.00000000E-01	 2.50000000E-01	 8.00000000E+00
					 2.50000000E-01	 5.00000000E-01	 8.00000000E+00
					 5.00000000E-01	 5.00000000E-01	 8.00000000E+00
					 7.50000000E-01	 5.00000000E-01	 8.00000000E+00
					 5.00000000E-01	 7.50000000E-01	 8.00000000E+00
					 5.00000000E-01	 0.00000000E+00	 5.00000000E-01
					 2.50000000E-01	 0.00000000E+00	 1.00000000E+00
					 5.00000000E-01	 0.00000000E+00	 1.00000000E+00
					 7.50000000E-01	 0.00000000E+00	 1.00000000E+00
					 5.00000000E-01	 0.00000000E+00	 1.50000000E+00
					 2.50000000E-01	 0.00000000E+00	 2.00000000E+00
					 5.00000000E-01	 0.00000000E+00	 2.00000000E+00
					 7.50000000E-01	 0.00000000E+00	 2.00000000E+00
					 5.00000000E-01	 0.00000000E+00	 2.50000000E+00
					 2.50000000E-01	 0.00000000E+00	 3.00000000E+00
					 5.00000000E-01	 0.00000000E+00	 3.00000000E+00
					 7.50000000E-01	 0.00000000E+00	 3.00000000E+00
					 5.00000000E-01	 0.00000000E+00	 3.50000000E+00
					 2.50000000E-01	 0.00000000E+00	 4.00000000E+00
					 5.00000000E-01	 0.00000000E+00	 4.00000000E+00
					 7.50000000E-01	 0.00000000E+00	 4.00000000E+00
					 5.00000000E-01	 0.00000000E+00	 4.50000000E+00
					 2.50000000E-01	 0.00000000E+00	 5.00000000E+00
					 5.00000000E-01	 0.00000000E+00	 5.00000000E+00
					 7.50000000E-01	 0.00000000E+00	 5.00000000E+00
					 5.00000000E-01	 0.00000000E+00	 5.50000000E+00
					 2.50000000E-01	 0.00000000E+00	 6.00000000E+00
					 5.00000000E-01	 0.00000000E+00	 6.00000000E+00
					 7.50000000E-01	 0.00000000E+00	 6.00000000E+00
					 5.00000000E-01	 0.00000000E+00	 6.50000000E+00
					 2.50000000E-01	 0.00000000E+00	 7.00000000E+00
					 5.00000000E-01	 0.00000000E+00	 7.00000000E+00
					 7.50000000E-01	 0.00000000E+00	 7.00000000E+00
					 5.00000000E-01	 0.00000000E+00	 7.50000000E+00
					 1.00000000E+00	 5.00000000E-01	 5.00000000E-01
					 1.00000000E+00	 2.50000000E-01	 1.00000000E+00
					 1.00000000E+00	 5.00000000E-01	 1.00000000E+00
					 1.00000000E+00	 7.50000000E-01	 1.00000000E+00
					 1.00000000E+00	 5.00000000E-01	 1.50000000E+00
					 1.00000000E+00	 2.50000000E-01	 2.00000000E+00
					 1.00000000E+00	 5.00000000E-01	 2.00000000E+00
					 1.00000000E+00	 7.50000000E-01	 2.00000000E+00
					 1.00000000E+00	 5.00000000E-01	 2.50000000E+00
					 1.00000000E+00	 2.50000000E-01	 3.00000000E+00
					 1.00000000E+00	 5.00000000E-01	 3.00000000E+00
					 1.00000000E+00	 7.50000000E-01	 3.00000000E+00
					 1.00000000E+00	 5.00000000E-01	 3.50000000E+00
					 1.00000000E+00	 2.50000000E-01	 4.00000000E+00
					 1.00000000E+00	 5.00000000E-01	 4.00000000E+00
					 1.00000000E+00	 7.50000000E-01	 4.00000000E+00
					 1.00000000E+00	 5.00000000E-01	 4.50000000E+00
					 1.00000000E+00	 2.50000000E-01	 5.00000000E+00
					 1.00000000E+00	 5.00000000E-01	 5.00000000E+00
					 1.00000000E+00	 7.50000000E-01	 5.00000000E+00
					 1.00000000E+00	 5.00000000E-01	 5.50000000E+00
					 1.00000000E+00	 2.50000000E-01	 6.00000000E+00
					 1.00000000E+00	 5.00000000E-01	 6.00000000E+00
					 1.00000000E+00	 7.50000000E-01	 6.00000000E+00
					 1.00000000E+00	 5.00000000E-01	 6.50000000E+00
					 1.00000000E+00	 2.50000000E-01	 7.00000000E+00
					 1.00000000E+00	 5.00000000E-01	 7.00000000E+00
					 1.00000000E+00	 7.50000000E-01	 7.00000000E+00
					 1.00000000E+00	 5.00000000E-01	 7.50000000E+00
					 5.00000000E-01	 1.00000000E+00	 5.00000000E-01
					 7.50000000E-01	 1.00000000E+00	 1.00000000E+00
					 5.00000000E-01	 1.00000000E+00	 1.00000000E+00
					 2.50000000E-01	 1.00000000E+00	 1.00000000E+00
					 5.00000000E-01	 1.00000000E+00	 1.50000000E+00
					 7.50000000E-01	 1.00000000E+00	 2.00000000E+00
					 5.00000000E-01	 1.00000000E+00	 2.00000000E+00
					 2.50000000E-01	 1.00000000E+00	 2.00000000E+00
					 5.00000000E-01	 1.00000000E+00	 2.50000000E+00
					 7.50000000E-01	 1.00000000E+00	 3.00000000E+00
					 5.00000000E-01	 1.00000000E+00	 3.00000000E+00
					 2.50000000E-01	 1.00000000E+00	 3.00000000E+00
					 5.00000000E-01	 1.00000000E+00	 3.50000000E+00
					 7.50000000E-01	 1.00000000E+00	 4.00000000E+00
					 5.00000000E-01	 1.00000000E+00	 4.00000000E+00
					 2.50000000E-01	 1.00000000E+00	 4.00000000E+00
					 5.00000000E-01	 1.00000000E+00	 4.50000000E+00
					 7.50000000E-01	 1.00000000E+00	 5.00000000E+00
					 5.00000000E-01	 1.00000000E+00	 5.00000000E+00
					 2.50000000E-01	 1.00000000E+00	 5.00000000E+00
					 5.00000000E-01	 1.00000000E+00	 5.50000000E+00
					 7.50000000E-01	 1.00000000E+00	 6.00000000E+00
					 5.00000000E-01	 1.00000000E+00	 6.00000000E+00
					 2.50000000E-01	 1.00000000E+00	 6.00000000E+00
					 5.00000000E-01	 1.00000000E+00	 6.50000000E+00
					 7.50000000E-01	 1.00000000E+00	 7.00000000E+00
					 5.00000000E-01	 1.00000000E+00	 7.00000000E+00
					 2.50000000E-01	 1.00000000E+00	 7.00000000E+00
					 5.00000000E-01	 1.00000000E+00	 7.50000000E+00
					 0.00000000E+00	 5.00000000E-01	 5.00000000E-01
					 0.00000000E+00	 7.50000000E-01	 1.00000000E+00
					 0.00000000E+00	 5.00000000E-01	 1.00000000E+00
					 0.00000000E+00	 2.50000000E-01	 1.00000000E+00
					 0.00000000E+00	 5.00000000E-01	 1.50000000E+00
					 0.00000000E+00	 7.50000000E-01	 2.00000000E+00
					 0.00000000E+00	 5.00000000E-01	 2.00000000E+00
					 0.00000000E+00	 2.50000000E-01	 2.00000000E+00
					 0.00000000E+00	 5.00000000E-01	 2.50000000E+00
					 0.00000000E+00	 7.50000000E-01	 3.00000000E+00
					 0.00000000E+00	 5.00000000E-01	 3.00000000E+00
					 0.00000000E+00	 2.50000000E-01	 3.00000000E+00
					 0.00000000E+00	 5.00000000E-01	 3.50000000E+00
					 0.00000000E+00	 7.50000000E-01	 4.00000000E+00
					 0.00000000E+00	 5.00000000E-01	 4.00000000E+00
					 0.00000000E+00	 2.50000000E-01	 4.00000000E+00
					 0.00000000E+00	 5.00000000E-01	 4.50000000E+00
					 0.00000000E+00	 7.50000000E-01	 5.00000000E+00
					 0.00000000E+00	 5.00000000E-01	 5.00000000E+00
					 0.00000000E+00	 2.50000000E-01	 5.00000000E+00
					 0.00000000E+00	 5.00000000E-01	 5.50000000E+00
					 0.00000000E+00	 7.50000000E-01	 6.00000000E+00
					 0.00000000E+00	 5.00000000E-01	 6.00000000E+00
					 0.00000000E+00	 2.50000000E-01	 6.00000000E+00
					 0.00000000E+00	 5.00000000E-01	 6.50000000E+00
					 0.00000000E+00	 7.50000000E-01	 7.00000000E+00
					 0.00000000E+00	 5.00000000E-01	 7.00000000E+00
					 0.00000000E+00	 2.50000000E-01	 7.00000000E+00
					 0.00000000E+00	 5.00000000E-01	 7.50000000E+00
					 5.00000000E-01	 5.00000000E-01	 5.00000000E-01
					 5.00000000E-01	 2.50000000E-01	 1.00000000E+00
					 2.50000000E-01	 5.00000000E-01	 1.00000000E+00
					 5.00000000E-01	 5.00000000E-01	 1.00000000E+00
					 7.50000000E-01	 5.00000000E-01	 1.00000000E+00
					 5.00000000E-01	 7.50000000E-01	 1.00000000E+00
					 5.00000000E-01	 5.00000000E-01	 1.50000000E+00
					 5.00000000E-01	 2.50000000E-01	 2.00000000E+00
					 2.50000000E-01	 5.00000000E-01	 2.00000000E+00
					 5.00000000E-01	 5.00000000E-01	 2.00000000E+00
					 7.50000000E-01	 5.00000000E-01	 2.00000000E+00
					 5.00000000E-01	 7.50000000E-01	 2.00000000E+00
					 5.00000000E-01	 5.00000000E-01	 2.50000000E+00
					 5.00000000E-01	 2.50000000E-01	 3.00000000E+00
					 2.50000000E-01	 5.00000000E-01	 3.00000000E+00
					 5.00000000E-01	 5.00000000E-01	 3.00000000E+00
					 7.50000000E-01	 5.00000000E-01	 3.00000000E+00
					 5.00000000E-01	 7.50000000E-01	 3.00000000E+00
					 5.00000000E-01	 5.00000000E-01	 3.50000000E+00
					 5.00000000E-01	 2.50000000E-01	 4.00000000E+00
					 2.50000000E-01	 5.00000000E-01	 4.00000000E+00
					 5.00000000E-01	 5.00000000E-01	 4.00000000E+00
					 7.50000000E-01	 5.00000000E-01	 4.00000000E+00
					 5.00000000E-01	 7.50000000E-01	 4.00000000E+00
					 5.00000000E-01	 5.00000000E-01	 4.50000000E+00
					 5.00000000E-01	 2.50000000E-01	 5.00000000E+00
					 2.50000000E-01	 5.00000000E-01	 5.00000000E+00
					 5.00000000E-01	 5.00000000E-01	 5.00000000E+00
					 7.50000000E-01	 5.00000000E-01	 5.00000000E+00
					 5.00000000E-01	 7.50000000E-01	 5.00000000E+00
					 5.00000000E-01	 5.00000000E-01	 5.50000000E+00
					 5.00000000E-01	 2.50000000E-01	 6.00000000E+00
					 2.50000000E-01	 5.00000000E-01	 6.00000000E+00
					 5.00000000E-01	 5.00000000E-01	 6.00000000E+00
					 7.50000000E-01	 5.00000000E-01	 6.00000000E+00
					 5.00000000E-01	 7.50000000E-01	 6.00000000E+00
					 5.00000000E-01	 5.00000000E-01	 6.50000000E+00
					 5.00000000E-01	 2.50000000E-01	 7.00000000E+00
					 2.50000000E-01	 5.00000000E-01	 7.00000000E+00
					 5.00000000E-01	 5.00000000E-01	 7.00000000E+00
					 7.50000000E-01	 5.00000000E-01	 7.00000000E+00
					 5.00000000E-01	 7.50000000E-01	 7.00000000E+00
					 5.00000000E-01	 5.00000000E-01	 7.50000000E+00
				</DataArray>
			</Points>
			<Cells>
				<DataArray type="Int32" Name="connectivity" format="ascii">
					0 9 94 18 60 104 221 191 8 92 93 19 103 219 220 192 61 102 218 189 9 1 12 94 104 33 133 221 10 11 95 92 105 132 222 219 102 32 131 218 18 94 15 3 191 221 162 78 93 96 16 17 220 223 163 190 189 218 160 77 94 12 2 15 221 133 63 162 95 13 14 96 222 134 161 223 218 131 62 160 60 104 221 191 58 108 227 195 103 219 220 192 107 225 226 196 59 106 224 193 104 33 133 221 108 35 137 227 105 132 222 219 109 136 228 225 106 34 135 224 191 221 162 78 195 227 166 80 220 223 163 190 226 229 167 194 193 224 164 79 221 133 63 162 227 137 65 166 222 134 161 223 228 138 165 229 224 135 64 164 58 108 227 195 56 112 233 199 107 225 226 196 111 231 232 200 57 110 230 197 108 35 137 227 112 37 141 233 109 136 228 225 113 140 234 231 110 36 139 230 195 227 166 80 199 233 170 82 226 229 167 194 232 235 171 198 197 230 168 81 227 137 65 166 233 141 67 170 228 138 165 229 234 142 169 235 230 139 66 168 56 112 233 199 54 116 239 203 111 231 232 200 115 237 238 204 55 114 236 201 112 37 141 233 116 39 145 239 113 140 234 231 117 144 240 237 114 38 143 236 199 233 170 82 203 239 174 84 232 235 171 198 238 241 175 202 201 236 172 83 233 141 67 170 239 145 69 174 234 142 169 235 240 146 173 241 236 143 68 172 54 116 239 203 52 120 245 207 115 237 238 204 119 243 244 208 53 118 242 205 116 39 145 239 120 41 149 245 117 144 240 237 121 148 246 243 118 40 147 242 203 239 174 84 207 245 178 86 238 241 175 202 244 247 179 206 205 242 176 85 239 145 69 174 245 149 71 178 240 146 173 241 246 150 177 247 242 147 70 176 52 120 245 207 50 124 251 211 119 243 244 208 123 249 250 212 51 122 248 209 120 41 149 245 124 43 153 251 121 148 246 243 125 152 252 249 122 42 151 248 207 245 178 86 211 251 182 88 244 247 179 206 250 253 183 210 209 248 180 87 245 149 71 178 251 153 73 182 246 150 177 247 252 154 181 253 248 151 72 180 50 124 251 211 48 128 257 215 123 249 250 212 127 255 256 216 49 126 254 213 124 43 153 251 128 45 157 257 125 152 252 249 129 156 258 255 126 44 155 254 211 251 182 88 215 257 186 90 250 253 183 210 256 259 187 214 213 254 184 89 251 153 73 182 257 157 75 186 252 154 181 253 258 158 185 259 254 155 74 184 48 128 257 215 4 21 99 30 127 255 256 216 20 97 98 31 47 130 260 217 128 45 157 257 21 5 24 99 129 156 258 255 22 23 100 97 130 46 159 260 215 257 186 90 30 99 27 7 256 259 187 214 98 101 28 29 217 260 188 91 257 157 75 186 99 24 6 27 258 158 185 259 100 25 26 101 260 159 76 188 
				</DataArray>
				<DataArray type="Int32" Name="offsets" format="ascii">
					20 40 60 80 100 120 140 160 180 200 220 240 260 280 300 320 340 360 380 400 420 440 460 480 500 520 540 560 580 600 620 640 
				</DataArray>
				<DataArray type="UInt8" Name="types" format="ascii">
					25 25 25 25 25 25 25 25 25 25 25 25 25 25 25 25 25 25 25 25 25 25 25 25 25 25 25 25 25 25 25 25 
				</DataArray>
			</Cells>
			<PointData>
				<DataArray type="Float32" Name="U" NumberOfComponents="3" ComponentName0="D1" ComponentName1="D2" ComponentName2="D3" format="ascii">
					 0.00000000E+00	 0.00000000E+00	 0.00000000E+00
					 0.00000000E+00	 0.00000000E+00	 0.00000000E+00
					 0.00000000E+00	 0.00000000E+00	 0.00000000E+00
					 0.00000000E+00	 0.00000000E+00	 0.00000000E+00
					 3.48740000E-05	 3.37331000E-02	 3.73798000E-03
					-1.97828000E-05	 3.37567000E-02	 3.73837000E-03
					 1.11338000E-05	 3.37266000E-02	-3.93117000E-03
					-4.37231000E-05	 3.37035000E-02	-3.93179000E-03
					 0.00000000E+00	 0.00000000E+00	 0.00000000E+00
					 0.00000000E+00	 0.00000000E+00	 0.00000000E+00
					 0.00000000E+00	 0.00000000E+00	 0.00000000E+00
					 0.00000000E+00	 0.00000000E+00	 0.00000000E+00
					 0.00000000E+00	 0.00000000E+00	 0.00000000E+00
					 0.00000000E+00	 0.00000000E+00	 0.00000000E+00
					 0.00000000E+00	 0.00000000E+00	 0.00000000E+00
					 0.00000000E+00	 0.00000000E+00	 0.00000000E+00
					 0.00000000E+00	 0.00000000E+00	 0.00000000E+00
					 0.00000000E+00	 0.00000000E+00	 0.00000000E+00
					 0.00000000E+00	 0.00000000E+00	 0.00000000E+00
					 0.00000000E+00	 0.00000000E+00	 0.00000000E+00
					 2.91033000E-05	 3.37643000E-02	 3.74589000E-03
					 7.43477000E-06	 3.37325000E-02	 3.74817000E-03
					-1.41530000E-05	 3.37760000E-02	 3.74619000E-03
					 1.01429000E-06	 3.37335000E-02	 1.80584000E-03
					-4.47723000E-06	 3.36987000E-02	-9.60412000E-05
					-9.73700000E-06	 3.37186000E-02	-1.99819000E-03
					 5.39157000E-06	 3.37465000E-02	-3.93930000E-03
					-1.62286000E-05	 3.37037000E-02	-3.94156000E-03
					-3.79143000E-05	 3.37351000E-02	-3.93960000E-03
					-1.09488000E-05	 3.36951000E-02	-1.99876000E-03
					-4.46580000E-06	 3.36747000E-02	-9.66507000E-05
					 2.02853000E-06	 3.37097000E-02	 1.80540000E-03
					-8.53018000E-05	 1.55522000E-04	 2.58748000E-04
					-6.00923000E-05	 5.43109000E-04	 5.14780000E-04
					-6.89665000E-05	 1.20374000E-03	 7.53598000E-04
					-6.49937000E-05	 2.06795000E-03	 9.84558000E-04
					-7.05180000E-05	 3.16563000E-03	 1.21896000E-03
					-7.68031000E-05	 4.49115000E-03	 1.47406000E-03
					-8.59835000E-05	 6.08724000E-03	 1.75878000E-03
					-9.27314000E-05	 7.99149000E-03	 2.07125000E-03
					-9.47383000E-05	 1.02348000E-02	 2.39931000E-03
					-8.92698000E-05	 1.28391000E-02	 2.72296000E-03
					-7.82335000E-05	 1.57636000E-02	 3.01207000E-03
					-6.34972000E-05	 1.89933000E-02	 3.26328000E-03
					-5.27685000E-05	 2.24385000E-02	 3.45907000E-03
					-3.27820000E-05	 2.61145000E-02	 3.62354000E-03
					-3.34080000E-05	 2.98769000E-02	 3.71707000E-03
					 4.79866000E-05	 2.98541000E-02	 3.71657000E-03
					 4.60825000E-05	 2.60937000E-02	 3.62300000E-03
					 6.44957000E-05	 2.24199000E-02	 3.45869000E-03
					 7.46846000E-05	 1.89760000E-02	 3.26285000E-03
					 8.94757000E-05	 1.57466000E-02	 3.01152000E-03
					 1.00889000E-04	 1.28226000E-02	 2.72239000E-03
					 1.06269000E-04	 1.02189000E-02	 2.39871000E-03
					 1.03479000E-04	 7.97711000E-03	 2.07063000E-03
					 9.54413000E-05	 6.07483000E-03	 1.75812000E-03
					 8.47979000E-05	 4.48095000E-03	 1.47338000E-03
					 7.70352000E-05	 3.15760000E-03	 1.21834000E-03
					 7.01371000E-05	 2.06192000E-03	 9.84050000E-04
					 7.27761000E-05	 1.19949000E-03	 7.53237000E-04
					 6.25689000E-05	 5.40482000E-04	 5.14573000E-04
					 8.64618000E-05	 1.54326000E-04	 2.58665000E-04
					 8.53376000E-05	 1.55303000E-04	-2.58831000E-04
					 5.99690000E-05	 5.42471000E-04	-5.15166000E-04
					 6.85832000E-05	 1.20253000E-03	-7.54789000E-04
					 6.41569000E-05	 2.06591000E-03	-9.87203000E-04
					 6.90653000E-05	 3.16260000E-03	-1.22403000E-03
					 7.46423000E-05	 4.48673000E-03	-1.48277000E-03
					 8.30888000E-05	 6.08096000E-03	-1.77285000E-03
					 8.91345000E-05	 7.98277000E-03	-2.09290000E-03
					 9.04676000E-05	 1.02231000E-02	-2.43130000E-03
					 8.42916000E-05	 1.28239000E-02	-2.76873000E-03
					 7.25367000E-05	 1.57451000E-02	-3.07518000E-03
					 5.71911000E-05	 1.89712000E-02	-3.34742000E-03
					 4.59188000E-05	 2.24140000E-02	-3.56677000E-03
					 2.55764000E-05	 2.60861000E-02	-3.75728000E-03
					 2.49547000E-05	 2.98485000E-02	-3.87956000E-03
					-8.65055000E-05	 1.54172000E-04	-2.58915000E-04
					-6.26685000E-05	 5.39923000E-04	-5.15373000E-04
					-7.31763000E-05	 1.19837000E-03	-7.55150000E-04
					-7.10043000E-05	 2.05996000E-03	-9.87713000E-04
					-7.85450000E-05	 3.15463000E-03	-1.22465000E-03
					-8.70483000E-05	 4.47654000E-03	-1.48345000E-03
					-9.84562000E-05	 6.06854000E-03	-1.77351000E-03
					-1.07188000E-04	 7.96838000E-03	-2.09353000E-03
					-1.10657000E-04	 1.02072000E-02	-2.43192000E-03
					-1.05897000E-04	 1.28074000E-02	-2.76937000E-03
					-9.51728000E-05	 1.57281000E-02	-3.07570000E-03
					-8.09116000E-05	 1.89539000E-02	-3.34786000E-03
					-7.13650000E-05	 2.23952000E-02	-3.56730000E-03
					-5.36249000E-05	 2.60661000E-02	-3.75837000E-03
					-5.59061000E-05	 2.98253000E-02	-3.88038000E-03
					 0.00000000E+00	 0.00000000E+00	 0.00000000E+00
					 0.00000000E+00	 0.00000000E+00	 0.00000000E+00
					 0.00000000E+00	 0.00000000E+00	 0.00000000E+00
					 0.00000000E+00	 0.00000000E+00	 0.00000000E+00
					 0.00000000E+00	 0.00000000E+00	 0.00000000E+00
					 1.50678000E-06	 3.38357000E-02	 1.83668000E-03
					-4.42023000E-06	 3.37712000E-02	-9.67263000E-05
					-4.45826000E-06	 3.39552000E-02	-9.68847000E-05
					-4.48085000E-06	 3.37833000E-02	-9.64604000E-05
					-1.03494000E-05	 3.38210000E-02	-2.03059000E-03
					 6.22441000E-07	 1.91767000E-04	 2.51478000E-04
					 3.16095000E-05	 5.70797000E-04	 5.17860000E-04
					 1.25326000E-06	 5.78031000E-04	 5.21606000E-04
					-2.91142000E-05	 5.72116000E-04	 5.18237000E-04
					 1.91623000E-06	 1.23555000E-03	 7.52934000E-04
					 3.63646000E-05	 2.08893000E-03	 9.84084000E-04
					 2.58163000E-06	 2.10034000E-03	 9.84678000E-04
					-3.12057000E-05	 2.09195000E-03	 9.84606000E-04
					 3.27497000E-06	 3.19840000E-03	 1.21725000E-03
					 4.43589000E-05	 4.51329000E-03	 1.47101000E-03
					 3.99515000E-06	 4.52522000E-03	 1.47160000E-03
					-3.63667000E-05	 4.51839000E-03	 1.47168000E-03
					 4.72263000E-06	 6.12772000E-03	 1.75665000E-03
					 5.44396000E-05	 8.01555000E-03	 2.06861000E-03
					 5.35035000E-06	 8.02864000E-03	 2.06865000E-03
					-4.37145000E-05	 8.02273000E-03	 2.06920000E-03
					 5.74409000E-06	 1.02804000E-02	 2.39995000E-03
					 5.32458000E-05	 1.28562000E-02	 2.72320000E-03
					 5.78803000E-06	 1.28665000E-02	 2.72158000E-03
					-4.16482000E-05	 1.28644000E-02	 2.72352000E-03
					 5.64427000E-06	 1.58058000E-02	 3.01549000E-03
					 4.03785000E-05	 1.89968000E-02	 3.26174000E-03
					 5.54946000E-06	 1.89959000E-02	 3.25741000E-03
					-2.92347000E-05	 1.90056000E-02	 3.26205000E-03
					 6.00293000E-06	 2.24731000E-02	 3.46958000E-03
					 2.56524000E-05	 2.60825000E-02	 3.62024000E-03
					 6.66214000E-06	 2.60755000E-02	 3.61543000E-03
					-1.23181000E-05	 2.60930000E-02	 3.62086000E-03
					 7.28309000E-06	 2.99287000E-02	 3.72462000E-03
					 2.32404000E-08	 1.02721000E-04	-2.96508000E-08
					-3.03629000E-05	 5.22037000E-04	 2.54574000E-04
					-4.01661000E-08	 5.25060000E-04	-1.61401000E-07
					 3.02616000E-05	 5.21715000E-04	-2.54918000E-04
					-1.78127000E-07	 1.16105000E-03	-5.27665000E-07
					-3.26787000E-05	 2.04632000E-03	 4.92169000E-04
					-4.08046000E-07	 2.04001000E-03	-1.26259000E-06
					 3.18510000E-05	 2.04529000E-03	-4.94714000E-04
					-7.06223000E-07	 3.12437000E-03	-2.44255000E-06
					-3.89723000E-05	 4.46021000E-03	 7.39728000E-04
					-1.05159000E-06	 4.44982000E-03	-4.25194000E-06
					 3.68455000E-05	 4.45797000E-03	-7.48283000E-04
					-1.40472000E-06	 6.03949000E-03	-6.89065000E-06
					-4.71600000E-05	 7.95140000E-03	 1.03315000E-03
					-1.75255000E-06	 7.93626000E-03	-1.06110000E-05
					 4.36204000E-05	 7.94700000E-03	-1.05448000E-03
					-2.09281000E-06	 1.01826000E-02	-1.57843000E-05
					-4.59401000E-05	 1.27946000E-02	 1.34538000E-03
					-2.44338000E-06	 1.27750000E-02	-2.25823000E-05
					 4.10096000E-05	 1.27871000E-02	-1.39072000E-03
					-2.78709000E-06	 1.57203000E-02	-3.13337000E-05
					-3.27078000E-05	 1.89537000E-02	 1.60334000E-03
					-3.12296000E-06	 1.89307000E-02	-4.16241000E-05
					 2.65065000E-05	 1.89428000E-02	-1.68685000E-03
					-3.42504000E-06	 2.24070000E-02	-5.38570000E-05
					-2.06242000E-05	 2.60584000E-02	 1.77110000E-03
					-3.72215000E-06	 2.60171000E-02	-6.71624000E-05
					 1.32626000E-05	 2.60443000E-02	-1.90487000E-03
					-4.10691000E-06	 2.99050000E-02	-8.16945000E-05
					-6.05165000E-07	 1.91583000E-04	-2.51675000E-04
					 2.90209000E-05	 5.71475000E-04	-5.18788000E-04
					-1.34889000E-06	 5.77418000E-04	-5.22290000E-04
					-3.17107000E-05	 5.70197000E-04	-5.18631000E-04
					-2.28604000E-06	 1.23437000E-03	-7.54588000E-04
					 3.03789000E-05	 2.08992000E-03	-9.87611000E-04
					-3.41778000E-06	 2.09834000E-03	-9.87969000E-04
					-3.72149000E-05	 2.08694000E-03	-9.87585000E-04
					-4.74284000E-06	 3.19539000E-03	-1.22311000E-03
					 3.41917000E-05	 4.51397000E-03	-1.48090000E-03
					-6.20128000E-06	 4.52080000E-03	-1.48120000E-03
					-4.65952000E-05	 4.50887000E-03	-1.48088000E-03
					-7.67559000E-06	 6.12144000E-03	-1.77170000E-03
					 4.00928000E-05	 8.01400000E-03	-2.09143000E-03
					-9.02022000E-06	 8.01992000E-03	-2.09128000E-03
					-5.81430000E-05	 8.00681000E-03	-2.09147000E-03
					-1.00690000E-05	 1.02686000E-02	-2.43309000E-03
					 3.66602000E-05	 1.28493000E-02	-2.76996000E-03
					-1.08072000E-05	 1.28514000E-02	-2.76837000E-03
					-5.82749000E-05	 1.28410000E-02	-2.77023000E-03
					-1.13033000E-05	 1.57871000E-02	-3.07973000E-03
					 2.29374000E-05	 1.89836000E-02	-3.34653000E-03
					-1.18435000E-05	 1.89743000E-02	-3.34214000E-03
					-4.66368000E-05	 1.89750000E-02	-3.34672000E-03
					-1.27321000E-05	 2.24479000E-02	-3.57836000E-03
					 5.06951000E-06	 2.60656000E-02	-3.75540000E-03
					-1.40482000E-05	 2.60490000E-02	-3.75032000E-03
					-3.31346000E-05	 2.60555000E-02	-3.75549000E-03
					-1.53833000E-05	 2.98992000E-02	-3.88862000E-03
					-4.17065000E-08	 1.01494000E-04	-1.08108000E-07
					-3.16887000E-05	 5.19142000E-04	-2.55390000E-04
					-9.29819000E-08	 5.22457000E-04	-3.68218000E-07
					 3.15332000E-05	 5.19424000E-04	 2.54637000E-04
					-2.36537000E-07	 1.15684000E-03	-8.88193000E-07
					-3.57173000E-05	 2.03931000E-03	-4.95502000E-04
					-4.66212000E-07	 2.03400000E-03	-1.77507000E-06
					 3.48078000E-05	 2.04030000E-03	 4.91931000E-04
					-7.86346000E-07	 3.11635000E-03	-3.06516000E-06
					-4.41569000E-05	 4.44777000E-03	-7.49310000E-04
					-1.16106000E-06	 4.43962000E-03	-4.92839000E-06
					 4.18645000E-05	 4.45001000E-03	 7.39401000E-04
					-1.54293000E-06	 6.02709000E-03	-7.55470000E-06
					-5.44683000E-05	 7.93260000E-03	-1.05539000E-03
					-1.90758000E-06	 7.92187000E-03	-1.12418000E-05
					 5.06988000E-05	 7.93701000E-03	 1.03280000E-03
					-2.22567000E-06	 1.01668000E-02	-1.63870000E-05
					-5.43213000E-05	 1.27705000E-02	-1.39136000E-03
					-2.56469000E-06	 1.27583000E-02	-2.31611000E-05
					 4.92489000E-05	 1.27780000E-02	 1.34485000E-03
					-2.84499000E-06	 1.57034000E-02	-3.18486000E-05
					-4.14851000E-05	 1.89254000E-02	-1.68749000E-03
					-3.17242000E-06	 1.89132000E-02	-4.21433000E-05
					 3.51955000E-05	 1.89362000E-02	 1.60300000E-03
					-3.34975000E-06	 2.23884000E-02	-5.42184000E-05
					-3.10176000E-05	 2.60237000E-02	-1.90564000E-03
					-3.74482000E-06	 2.59960000E-02	-6.71935000E-05
					 2.35725000E-05	 2.60374000E-02	 1.77082000E-03
					-3.94292000E-06	 2.98827000E-02	-8.20396000E-05
					 9.58219000E-10	 1.38580000E-04	-8.80463000E-08
					 5.95178000E-07	 5.55585000E-04	 2.57616000E-04
					-7.33238000E-08	 5.52029000E-04	-3.48626000E-07
					-5.74270000E-08	 5.57917000E-04	-3.03979000E-07
					-4.42270000E-08	 5.53331000E-04	-2.40389000E-07
					-7.06634000E-07	 5.55272000E-04	-2.58250000E-04
					-1.96407000E-07	 1.19396000E-03	-7.60755000E-07
					 1.07479000E-06	 2.07864000E-03	 4.92164000E-04
					-4.44691000E-07	 2.06074000E-03	-1.69425000E-06
					-4.26973000E-07	 2.07200000E-03	-1.58618000E-06
					-4.13800000E-07	 2.06375000E-03	-1.44310000E-06
					-1.92505000E-06	 2.07763000E-03	-4.95357000E-04
					-7.40683000E-07	 3.15711000E-03	-2.83846000E-06
					 1.44572000E-06	 4.49588000E-03	 7.37372000E-04
					-1.13300000E-06	 4.47369000E-03	-4.84154000E-06
					-1.10237000E-06	 4.48704000E-03	-4.71051000E-06
					-1.07548000E-06	 4.47879000E-03	-4.51088000E-06
					-3.65211000E-06	 4.49364000E-03	-7.46830000E-04
					-1.47662000E-06	 6.07719000E-03	-7.36994000E-06
					 1.76464000E-06	 7.99298000E-03	 1.03114000E-03
					-1.86943000E-06	 7.96445000E-03	-1.12514000E-05
					-1.82588000E-06	 7.98267000E-03	-1.11545000E-05
					-1.78762000E-06	 7.97165000E-03	-1.09341000E-05
					-5.42214000E-06	 7.98858000E-03	-1.05351000E-03