<?xml version="1.0"?>
<VTKFile type="UnstructuredGrid" version="0.1" byte_order="LittleEndian">
	<UnstructuredGrid>
		<Piece NumberOfPoints="261" NumberOfCells="32">
			<Points>
				<DataArray type="Float64" NumberOfComponents="3" format="ascii">
					 0.00000000E+00	 0.00000000E+00	 0.00000000E+00
					 1.00000000E+00	 0.00000000E+00	 0.00000000E+00
					 1.00000000E+00	 1.00000000E+00	 0.00000000E+00
					 0.00000000E+00	 1.00000000E+00	 0.00000000E+00
					 0.00000000E+00	 0.00000000E+00	 8.00000000E+00
					 1.00000000E+00	 0.00000000E+00	 8.00000000E+00
					 1.00000000E+00	 1.00000000E+00	 8.00000000E+00
					 0.00000000E+00	 1.00000000E+00	 8.00000000E+00
					 2.50000000E-01	 0.00000000E+00	 0.00000000E+00
					 5.00000000E-01	 0.00000000E+00	 0.00000000E+00
					 7.50000000E-01	 0.00000000E+00	 0.00000000E+00
					 1.00000000E+00	 2.50000000E-01	 0.00000000E+00
					 1.00000000E+00	 5.00000000E-01	 0.00000000E+00
					 1.00000000E+00	 7.50000000E-01	 0.00000000E+00
					 7.50000000E-01	 1.00000000E+00	 0.00000000E+00
					 5.00000000E-01	 1.00000000E+00	 0.00000000E+00
					 2.50000000E-01	 1.00000000E+00	 0.00000000E+00
					 0.00000000E+00	 7.50000000E-01	 0.00000000E+00
					 0.00000000E+00	 5.00000000E-01	 0.00000000E+00
					 0.00000000E+00	 2.50000000E-01	 0.00000000E+00
					 2.50000000E-01	 0.00000000E+00	 8.00000000E+00
					 5.00000000E-01	 0.00000000E+00	 8.00000000E+00
					 7.50000000E-01	 0.00000000E+00	 8.00000000E+00
					 1.00000000E+00	 2.50000000E-01	 8.00000000E+00
					 1.00000000E+00	 5.00000000E-01	 8.00000000E+00
					 1.00000000E+00	 7.50000000E-01	 8.00000000E+00
					 7.50000000E-01	 1.00000000E+00	 8.00000000E+00
					 5.00000000E-01	 1.00000000E+00	 8.00000000E+00
					 2.50000000E-01	 1.00000000E+00	 8.00000000E+00
					 0.00000000E+00	 7.50000000E-01	 8.00000000E+00
					 0.00000000E+00	 5.00000000E-01	 8.00000000E+00
					 0.00000000E+00	 2.50000000E-01	 8.00000000E+00
					 1.00000000E+00	 0.00000000E+00	 5.00000000E-01
					 1.00000000E+00	 0.00000000E+00	 1.00000000E+00
					 1.00000000E+00	 0.00000000E+00	 1.50000000E+00
					 1.00000000E+00	 0.00000000E+00	 2.00000000E+00
					 1.00000000E+00	 0.00000000E+00	 2.50000000E+00
					 1.00000000E+00	 0.00000000E+00	 3.00000000E+00
					 1.00000000E+00	 0.00000000E+00	 3.50000000E+00
					 1.00000000E+00	 0.00000000E+00	 4.00000000E+00
					 1.00000000E+00	 0.00000000E+00	 4.50000000E+00
					 1.00000000E+00	 0.00000000E+00	 5.00000000E+00
					 1.00000000E+00	 0.00000000E+00	 5.50000000E+00
					 1.00000000E+00	 0.00000000E+00	 6.00000000E+00
					 1.00000000E+00	 0.00000000E+00	 6.50000000E+00
					 1.00000000E+00	 0.00000000E+00	 7.00000000E+00
					 1.00000000E+00	 0.00000000E+00	 7.50000000E+00
					 0.00000000E+00	 0.00000000E+00	 7.50000000E+00
					 0.00000000E+00	 0.00000000E+00	 7.00000000E+00
					 0.00000000E+00	 0.00000000E+00	 6.50000000E+00
					 0.00000000E+00	 0.00000000E+00	 6.00000000E+00
					 0.00000000E+00	 0.00000000E+00	 5.50000000E+00
					 0.00000000E+00	 0.00000000E+00	 5.00000000E+00
					 0.00000000E+00	 0.00000000E+00	 4.50000000E+00
					 0.00000000E+00	 0.00000000E+00	 4.00000000E+00
					 0.00000000E+00	 0.00000000E+00	 3.50000000E+00
					 0.00000000E+00	 0.00000000E+00	 3.00000000E+00
					 0.00000000E+00	 0.00000000E+00	 2.50000000E+00
					 0.00000000E+00	 0.00000000E+00	 2.00000000E+00
					 0.00000000E+00	 0.00000000E+00	 1.50000000E+00
					 0.00000000E+00	 0.00000000E+00	 1.00000000E+00
					 0.00000000E+00	 0.00000000E+00	 5.00000000E-01
					 1.00000000E+00	 1.00000000E+00	 5.00000000E-01
					 1.00000000E+00	 1.00000000E+00	 1.00000000E+00
					 1.00000000E+00	 1.00000000E+00	 1.50000000E+00
					 1.00000000E+00	 1.00000000E+00	 2.00000000E+00
					 1.00000000E+00	 1.00000000E+00	 2.50000000E+00
					 1.00000000E+00	 1.00000000E+00	 3.00000000E+00
					 1.00000000E+00	 1.00000000E+00	 3.50000000E+00
					 1.00000000E+00	 1.00000000E+00	 4.00000000E+00
					 1.00000000E+00	 1.00000000E+00	 4.50000000E+00
					 1.00000000E+00	 1.00000000E+00	 5.00000000E+00
					 1.00000000E+00	 1.00000000E+00	 5.50000000E+00
					 1.00000000E+00	 1.00000000E+00	 6.00000000E+00
					 1.00000000E+00	 1.00000000E+00	 6.50000000E+00
					 1.00000000E+00	 1.00000000E+00	 7.00000000E+00
					 1.00000000E+00	 1.00000000E+00	 7.50000000E+00
					 0.00000000E+00	 1.00000000E+00	 5.00000000E-01
					 0.00000000E+00	 1.00000000E+00	 1.00000000E+00
					 0.00000000E+00	 1.00000000E+00	 1.50000000E+00
					 0.00000000E+00	 1.00000000E+00	 2.00000000E+00
					 0.00000000E+00	 1.00000000E+00	 2.50000000E+00
					 0.00000000E+00	 1.00000000E+00	 3.00000000E+00
					 0.00000000E+00	 1.00000000E+00	 3.50000000E+00
					 0.00000000E+00	 1.00000000E+00	 4.00000000E+00
					 0.00000000E+00	 1.00000000E+00	 4.50000000E+00
					 0.00000000E+00	 1.00000000E+00	 5.00000000E+00
					 0.00000000E+00	 1.00000000E+00	 5.50000000E+00
					 0.00000000E+00	 1.00000000E+00	 6.00000000E+00
					 0.00000000E+00	 1.00000000E+00	 6.50000000E+00
					 0.00000000E+00	 1.00000000E+00	 7.00000000E+00
					 0.00000000E+00	 1.00000000E+00	 7.50000000E+00
					 5.00000000E-01	 2.50000000E-01	 0.00000000E+00
					 2.50000000E-01	 5.00000000E-01	 0.00000000E+00
					 5.00000000E-01	 5.00000000E-01	 0.00000000E+00
					 7.50000000E-01	 5.00000000E-01	 0.00000000E+00
					 5.00000000E-01	 7.50000000E-01	 0.00000000E+00
					 5.00000000E-01	 2.50000000E-01	 8.00000000E+00
					 2.50000000E-01	 5.00000000E-01	 8.00000000E+00
					 5.00000000E-01	 5.00000000E-01	 8.00000000E+00
					 7.50000000E-01	 5.00000000E-01	 8.00000000E+00
					 5.00000000E-01	 7.50000000E-01	 8.00000000E+00
					 5.00000000E-01	 0.00000000E+00	 5.00000000E-01
					 2.50000000E-01	 0.00000000E+00	 1.00000000E+00
					 5.00000000E-01	 0.00000000E+00	 1.00000000E+00
					 7.50000000E-01	 0.00000000E+00	 1.00000000E+00
					 5.00000000E-01	 0.00000000E+00	 1.50000000E+00
					 2.50000000E-01	 0.00000000E+00	 2.00000000E+00
					 5.00000000E-01	 0.00000000E+00	 2.00000000E+00
					 7.50000000E-01	 0.00000000E+00	 2.00000000E+00
					 5.00000000E-01	 0.00000000E+00	 2.50000000E+00
					 2.50000000E-01	 0.00000000E+00	 3.00000000E+00
					 5.00000000E-01	 0.00000000E+00	 3.00000000E+00
					 7.50000000E-01	 0.00000000E+00	 3.00000000E+00
					 5.00000000E-01	 0.00000000E+00	 3.50000000E+00
					 2.50000000E-01	 0.00000000E+00	 4.00000000E+00
					 5.00000000E-01	 0.00000000E+00	 4.00000000E+00
					 7.50000000E-01	 0.00000000E+00	 4.00000000E+00
					 5.00000000E-01	 0.00000000E+00	 4.50000000E+00
					 2.50000000E-01	 0.00000000E+00	 5.00000000E+00
					 5.00000000E-01	 0.00000000E+00	 5.00000000E+00
					 7.50000000E-01	 0.00000000E+00	 5.00000000E+00
					 5.00000000E-01	 0.00000000E+00	 5.50000000E+00
					 2.50000000E-01	 0.00000000E+00	 6.00000000E+00
					 5.00000000E-01	 0.00000000E+00	 6.00000000E+00
					 7.50000000E-01	 0.00000000E+00	 6.00000000E+00
					 5.00000000E-01	 0.00000000E+00	 6.50000000E+00
					 2.50000000E-01	 0.00000000E+00	 7.00000000E+00
					 5.00000000E-01	 0.00000000E+00	 7.00000000E+00
					 7.50000000E-01	 0.00000000E+00	 7.00000000E+00
					 5.00000000E-01	 0.00000000E+00	 7.50000000E+00
					 1.00000000E+00	 5.00000000E-01	 5.00000000E-01
					 1.00000000E+00	 2.50000000E-01	 1.00000000E+00
					 1.00000000E+00	 5.00000000E-01	 1.00000000E+00
					 1.00000000E+00	 7.50000000E-01	 1.00000000E+00
					 1.00000000E+00	 5.00000000E-01	 1.50000000E+00
					 1.00000000E+00	 2.50000000E-01	 2.00000000E+00
					 1.00000000E+00	 5.00000000E-01	 2.00000000E+00
					 1.00000000E+00	 7.50000000E-01	 2.00000000E+00
					 1.00000000E+00	 5.00000000E-01	 2.50000000E+00
					 1.00000000E+00	 2.50000000E-01	 3.00000000E+00
					 1.00000000E+00	 5.00000000E-01	 3.00000000E+00
					 1.00000000E+00	 7.50000000E-01	 3.00000000E+00
					 1.00000000E+00	 5.00000000E-01	 3.50000000E+00
					 1.00000000E+00	 2.50000000E-01	 4.00000000E+00
					 1.00000000E+00	 5.00000000E-01	 4.00000000E+00
					 1.00000000E+00	 7.50000000E-01	 4.00000000E+00
					 1.00000000E+00	 5.00000000E-01	 4.50000000E+00
					 1.00000000E+00	 2.50000000E-01	 5.00000000E+00
					 1.00000000E+00	 5.00000000E-01	 5.00000000E+00
					 1.00000000E+00	 7.50000000E-01	 5.00000000E+00
					 1.00000000E+00	 5.00000000E-01	 5.50000000E+00
					 1.00000000E+00	 2.50000000E-01	 6.00000000E+00
					 1.00000000E+00	 5.00000000E-01	 6.00000000E+00
					 1.00000000E+00	 7.50000000E-01	 6.00000000E+00
					 1.00000000E+00	 5.00000000E-01	 6.50000000E+00
					 1.00000000E+00	 2.50000000E-01	 7.00000000E+00
					 1.00000000E+00	 5.00000000E-01	 7.00000000E+00
					 1.00000000E+00	 7.50000000E-01	 7.00000000E+00
					 1.00000000E+00	 5.00000000E-01	 7.50000000E+00
					 5.00000000E-01	 1.00000000E+00	 5.00000000E-01
					 7.50000000E-01	 1.00000000E+00	 1.00000000E+00
					 5.00000000E-01	 1.00000000E+00	 1.00000000E+00
					 2.50000000E-01	 1.00000000E+00	 1.00000000E+00
					 5.00000000E-01	 1.00000000E+00	 1.50000000E+00
					 7.50000000E-01	 1.00000000E+00	 2.00000000E+00
					 5.00000000E-01	 1.00000000E+00	 2.00000000E+00
					 2.50000000E-01	 1.00000000E+00	 2.00000000E+00
					 5.00000000E-01	 1.00000000E+00	 2.50000000E+00
					 7.50000000E-01	 1.00000000E+00	 3.00000000E+00
					 5.00000000E-01	 1.00000000E+00	 3.00000000E+00
					 2.50000000E-01	 1.00000000E+00	 3.00000000E+00
					 5.00000000E-01	 1.00000000E+00	 3.50000000E+00
					 7.50000000E-01	 1.00000000E+00	 4.00000000E+00
					 5.00000000E-01	 1.00000000E+00	 4.00000000E+00
					 2.50000000E-01	 1.00000000E+00	 4.00000000E+00
					 5.00000000E-01	 1.00000000E+00	 4.50000000E+00
					 7.50000000E-01	 1.00000000E+00	 5.00000000E+00
					 5.00000000E-01	 1.00000000E+00	 5.00000000E+00
					 2.50000000E-01	 1.00000000E+00	 5.00000000E+00
					 5.00000000E-01	 1.00000000E+00	 5.50000000E+00
					 7.50000000E-01	 1.00000000E+00	 6.00000000E+00
					 5.00000000E-01	 1.00000000E+00	 6.00000000E+00
					 2.50000000E-01	 1.00000000E+00	 6.00000000E+00
					 5.00000000E-01	 1.00000000E+00	 6.50000000E+00
					 7.50000000E-01	 1.00000000E+00	 7.00000000E+00
					 5.00000000E-01	 1.00000000E+00	 7.00000000E+00
					 2.50000000E-01	 1.00000000E+00	 7.00000000E+00
					 5.00000000E-01	 1.00000000E+00	 7.50000000E+00
					 0.00000000E+00	 5.00000000E-01	 5.00000000E-01
					 0.00000000E+00	 7.50000000E-01	 1.00000000E+00
					 0.00000000E+00	 5.00000000E-01	 1.00000000E+00
					 0.00000000E+00	 2.50000000E-01	 1.00000000E+00
					 0.00000000E+00	 5.00000000E-01	 1.50000000E+00
					 0.00000000E+00	 7.50000000E-01	 2.00000000E+00
					 0.00000000E+00	 5.00000000E-01	 2.00000000E+00
					 0.00000000E+00	 2.50000000E-01	 2.00000000E+00
					 0.00000000E+00	 5.00000000E-01	 2.50000000E+00
					 0.00000000E+00	 7.50000000E-01	 3.00000000E+00
					 0.00000000E+00	 5.00000000E-01	 3.00000000E+00
					 0.00000000E+00	 2.50000000E-01	 3.00000000E+00
					 0.00000000E+00	 5.00000000E-01	 3.50000000E+00
					 0.00000000E+00	 7.50000000E-01	 4.00000000E+00
					 0.00000000E+00	 5.00000000E-01	 4.00000000E+00
					 0.00000000E+00	 2.50000000E-01	 4.00000000E+00
					 0.00000000E+00	 5.00000000E-01	 4.50000000E+00
					 0.00000000E+00	 7.50000000E-01	 5.00000000E+00
					 0.00000000E+00	 5.00000000E-01	 5.00000000E+00
					 0.00000000E+00	 2.50000000E-01	 5.00000000E+00
					 0.00000000E+00	 5.00000000E-01	 5.50000000E+00
					 0.00000000E+00	 7.50000000E-01	 6.00000000E+00
					 0.00000000E+00	 5.00000000E-01	 6.00000000E+00
					 0.00000000E+00	 2.50000000E-01	 6.00000000E+00
					 0.00000000E+00	 5.00000000E-01	 6.50000000E+00
					 0.00000000E+00	 7.50000000E-01	 7.00000000E+00
					 0.00000000E+00	 5.00000000E-01	 7.00000000E+00
					 0.00000000E+00	 2.50000000E-01	 7.00000000E+00
					 0.00000000E+00	 5.00000000E-01	 7.50000000E+00
					 5.00000000E-01	 5.00000000E-01	 5.00000000E-01
					 5.00000000E-01	 2.50000000E-01	 1.00000000E+00
					 2.50000000E-01	 5.00000000E-01	 1.00000000E+00
					 5.00000000E-01	 5.00000000E-01	 1.00000000E+00
					 7.50000000E-01	 5.00000000E-01	 1.00000000E+00
					 5.00000000E-01	 7.50000000E-01	 1.00000000E+00
					 5.00000000E-01	 5.00000000E-01	 1.50000000E+00
					 5.00000000E-01	 2.50000000E-01	 2.00000000E+00
					 2.50000000E-01	 5.00000000E-01	 2.00000000E+00
					 5.00000000E-01	 5.00000000E-01	 2.00000000E+00
					 7.50000000E-01	 5.00000000E-01	 2.00000000E+00
					 5.00000000E-01	 7.50000000E-01	 2.00000000E+00
					 5.00000000E-01	 5.00000000E-01	 2.50000000E+00
					 5.00000000E-01	 2.50000000E-01	 3.00000000E+00
					 2.50000000E-01	 5.00000000E-01	 3.00000000E+00
					 5.00000000E-01	 5.00000000E-01	 3.00000000E+00
					 7.50000000E-01	 5.00000000E-01	 3.00000000E+00
					 5.00000000E-01	 7.50000000E-01	 3.00000000E+00
					 5.00000000E-01	 5.00000000E-01	 3.50000000E+00
					 5.00000000E-01	 2.50000000E-01	 4.00000000E+00
					 2.50000000E-01	 5.00000000E-01	 4.00000000E+00
					 5.00000000E-01	 5.00000000E-01	 4.00000000E+00
					 7.50000000E-01	 5.00000000E-01	 4.00000000E+00
					 5.00000000E-01	 7.50000000E-01	 4.00000000E+00
					 5.00000000E-01	 5.00000000E-01	 4.50000000E+00
					 5.00000000E-01	 2.50000000E-01	 5.00000000E+00
					 2.50000000E-01	 5.00000000E-01	 5.00000000E+00
					 5.00000000E-01	 5.00000000E-01	 5.00000000E+00
					 7.50000000E-01	 5.00000000E-01	 5.00000000E+00
					 5.00000000E-01	 7.50000000E-01	 5.00000000E+00
					 5.00000000E-01	 5.00000000E-01	 5.50000000E+00
					 5.00000000E-01	 2.50000000E-01	 6.00000000E+00
					 2.50000000E-01	 5.00000000E-01	 6.00000000E+00
					 5.00000000E-01	 5.00000000E-01	 6.00000000E+00
					 7.50000000E-01	 5.00000000E-01	 6.00000000E+00
					 5.00000000E-01	 7.50000000E-01	 6.00000000E+00
					 5.00000000E-01	 5.00000000E-01	 6.50000000E+00
					 5.00000000E-01	 2.50000000E-01	 7.00000000E+00
					 2.50000000E-01	 5.00000000E-01	 7.00000000E+00
					 5.00000000E-01	 5.00000000E-01	 7.00000000E+00
					 7.50000000E-01	 5.00000000E-01	 7.00000000E+00
					 5.00000000E-01	 7.50000000E-01	 7.00000000E+00
					 5.00000000E-01	 5.00000000E-01	 7.50000000E+00
				</DataArray>
			</Points>
			<Cells>
				<DataArray type="Int32" Name="connectivity" format="ascii">
					0 9 94 18 60 104 221 191 8 92 93 19 103 219 220 192 61 102 218 189 9 1 12 94 104 33 133 221 10 11 95 92 105 132 222 219 102 32 131 218 18 94 15 3 191 221 162 78 93 96 16 17 220 223 163 190 189 218 160 77 94 12 2 15 221 133 63 162 95 13 14 96 222 134 161 223 218 131 62 160 60 104 221 191 58 108 227 195 103 219 220 192 107 225 226 196 59 106 224 193 104 33 133 221 108 35 137 227 105 132 222 219 109 136 228 225 106 34 135 224 191 221 162 78 195 227 166 80 220 223 163 190 226 229 167 194 193 224 164 79 221 133 63 162 227 137 65 166 222 134 161 223 228 138 165 229 224 135 64 164 58 108 227 195 56 112 233 199 107 225 226 196 111 231 232 200 57 110 230 197 108 35 137 227 112 37 141 233 109 136 228 225 113 140 234 231 110 36 139 230 195 227 166 80 199 233 170 82 226 229 167 194 232 235 171 198 197 230 168 81 227 137 65 166 233 141 67 170 228 138 165 229 234 142 169 235 230 139 66 168 56 112 233 199 54 116 239 203 111 231 232 200 115 237 238 204 55 114 236 201 112 37 141 233 116 39 145 239 113 140 234 231 117 144 240 237 114 38 143 236 199 233 170 82 203 239 174 84 232 235 171 198 238 241 175 202 201 236 172 83 233 141 67 170 239 145 69 174 234 142 169 235 240 146 173 241 236 143 68 172 54 116 239 203 52 120 245 207 115 237 238 204 119 243 244 208 53 118 242 205 116 39 145 239 120 41 149 245 117 144 240 237 121 148 246 243 118 40 147 242 203 239 174 84 207 245 178 86 238 241 175 202 244 247 179 206 205 242 176 85 239 145 69 174 245 149 71 178 240 146 173 241 246 150 177 247 242 147 70 176 52 120 245 207 50 124 251 211 119 243 244 208 123 249 250 212 51 122 248 209 120 41 149 245 124 43 153 251 121 148 246 243 125 152 252 249 122 42 151 248 207 245 178 86 211 251 182 88 244 247 179 206 250 253 183 210 209 248 180 87 245 149 71 178 251 153 73 182 246 150 177 247 252 154 181 253 248 151 72 180 50 124 251 211 48 128 257 215 123 249 250 212 127 255 256 216 49 126 254 213 124 43 153 251 128 45 157 257 125 152 252 249 129 156 258 255 126 44 155 254 211 251 182 88 215 257 186 90 250 253 183 210 256 259 187 214 213 254 184 89 251 153 73 182 257 157 75 186 252 154 181 253 258 158 185 259 254 155 74 184 48 128 257 215 4 21 99 30 127 255 256 216 20 97 98 31 47 130 260 217 128 45 157 257 21 5 24 99 129 156 258 255 22 23 100 97 130 46 159 260 215 257 186 90 30 99 27 7 256 259 187 214 98 101 28 29 217 260 188 91 257 157 75 186 99 24 6 27 258 158 185 259 100 25 26 101 260 159 76 188 
				</DataArray>
				<DataArray type="Int32" Name="offsets" format="ascii">
					20 40 60 80 100 120 140 160 180 200 220 240 260 280 300 320 340 360 380 400 420 440 460 480 500 520 540 560 580 600 620 640 
				</DataArray>
				<DataArray type="UInt8" Name="types" format="ascii">
					25 25 25 25 25 25 25 25 25 25 25 25 25 25 25 25 25 25 25 25 25 25 25 25 25 25 25 25 25 25 25 25 
				</DataArray>
			</Cells>
			<PointData>
				<DataArray type="Float32" Name="RAND" NumberOfComponents="3" ComponentName0="x" ComponentName1="y" ComponentName2="z" format="ascii">
					 0.00000000E+00	 0.00000000E+00	 0.00000000E+00
					 0.00000000E+00	 0.00000000E+00	 0.00000000E+00
					 0.00000000E+00	 0.00000000E+00	 0.00000000E+00
					 0.00000000E+00	 0.00000000E+00	 0.00000000E+00
					-5.89076000E-02	-5.89076000E-02	 5.89076000E-02
					 7.32644000E-02	-7.32644000E-02	 7.32644000E-02
					 6.17135000E-02	 6.17135000E-02	 6.17135000E-02
					 1.42061000E-01	-1.42061000E-01	-1.42061000E-01
					 0.00000000E+00	 0.00000000E+00	 0.00000000E+00
					 0.00000000E+00	 0.00000000E+00	 0.00000000E+00
					 0.00000000E+00	 0.00000000E+00	 0.00000000E+00
					 0.00000000E+00	 0.00000000E+00	 0.00000000E+00
					 0.00000000E+00	 0.00000000E+00	 0.00000000E+00
					 0.00000000E+00	 0.00000000E+00	 0.00000000E+00
					 0.00000000E+00	 0.00000000E+00	 0.00000000E+00
					 0.00000000E+00	 0.00000000E+00	 0.00000000E+00
					 0.00000000E+00	 0.00000000E+00	 0.00000000E+00
					 0.00000000E+00	 0.00000000E+00	 0.00000000E+00
					 0.00000000E+00	 0.00000000E+00	 0.00000000E+00
					 0.00000000E+00	 0.00000000E+00	 0.00000000E+00
					 0.00000000E+00	-8.00910000E-02	 8.00910000E-02
					 0.00000000E+00	-8.59778000E-02	 8.59778000E-02
					 0.00000000E+00	-8.92875000E-02	 8.92875000E-02
					 9.01652000E-02	 0.00000000E+00	 9.01652000E-02
					 8.77737000E-02	 0.00000000E+00	 8.77737000E-02
					 8.27658000E-02	 0.00000000E+00	 8.27658000E-02
					 0.00000000E+00	 7.45007000E-02	 7.45007000E-02
					 0.00000000E+00	 7.09669000E-02	 7.09669000E-02
					 0.00000000E+00	 6.52915000E-02	 6.52915000E-02
					-6.43788000E-02	 0.00000000E+00	 6.43788000E-02
					-6.91234000E-02	 0.00000000E+00	 6.91234000E-02
					-2.31963000E-02	 0.00000000E+00	 2.31963000E-02
					 7.61371000E-02	-7.61371000E-02	 0.00000000E+00
					 4.49875000E-02	-4.49875000E-02	 0.00000000E+00
					 3.48954000E-03	-3.48954000E-03	 0.00000000E+00
					-3.08763000E-02	 3.08763000E-02	-0.00000000E+00
					-4.15160000E-02	 4.15160000E-02	-0.00000000E+00
					-2.26778000E-02	 2.26778000E-02	-0.00000000E+00
					 1.60191000E-02	-1.60191000E-02	 0.00000000E+00
					 5.40608000E-02	-5.40608000E-02	 0.00000000E+00
					 7.13280000E-02	-7.13280000E-02	 0.00000000E+00
					 5.95426000E-02	-5.95426000E-02	 0.00000000E+00
					 2.69396000E-02	-2.69396000E-02	 0.00000000E+00
					-6.73747000E-03	 6.73747000E-03	-0.00000000E+00
					-2.19201000E-02	 2.19201000E-02	-0.00000000E+00
					-1.03756000E-02	 1.03756000E-02	-0.00000000E+00
					 2.10228000E-02	-2.10228000E-02	 0.00000000E+00
					 9.69001000E-03	 9.69001000E-03	-0.00000000E+00
					 4.24740000E-02	 4.24740000E-02	-0.00000000E+00
					 5.34227000E-02	 5.34227000E-02	-0.00000000E+00
					 3.62228000E-02	 3.62228000E-02	-0.00000000E+00
					-2.18693000E-04	-2.18693000E-04	 0.00000000E+00
					-3.58011000E-02	-3.58011000E-02	 0.00000000E+00
					-5.04821000E-02	-5.04821000E-02	 0.00000000E+00
					-3.59166000E-02	-3.59166000E-02	 0.00000000E+00
					-3.73956000E-04	-3.73956000E-04	 0.00000000E+00
					 3.60018000E-02	 3.60018000E-02	-0.00000000E+00
					 5.26703000E-02	 5.26703000E-02	-0.00000000E+00
					 3.99975000E-02	 3.99975000E-02	-0.00000000E+00
					 3.73732000E-03	 3.73732000E-03	-0.00000000E+00
					-3.94927000E-02	-3.94927000E-02	 0.00000000E+00
					-7.21700000E-02	-7.21700000E-02	 0.00000000E+00
					 7.25990000E-02	 7.25990000E-02	 0.00000000E+00
					 4.00869000E-02	 4.00869000E-02	 0.00000000E+00
					-2.95574000E-03	-2.95574000E-03	-0.00000000E+00
					-3.90110000E-02	-3.90110000E-02	-0.00000000E+00
					-5.14636000E-02	-5.14636000E-02	-0.00000000E+00
					-3.45598000E-02	-3.45598000E-02	-0.00000000E+00
					 2.06807000E-03	 2.06807000E-03	 0.00000000E+00
					 3.78835000E-02	 3.78835000E-02	 0.00000000E+00
					 5.27471000E-02	 5.27471000E-02	 0.00000000E+00
					 3.83936000E-02	 3.83936000E-02	 0.00000000E+00
					 3.16471000E-03	 3.16471000E-03	 0.00000000E+00
					-3.29199000E-02	-3.29199000E-02	-0.00000000E+00
					-4.98125000E-02	-4.98125000E-02	-0.00000000E+00
					-3.86880000E-02	-3.86880000E-02	-0.00000000E+00
					-5.94607000E-03	-5.94607000E-03	-0.00000000E+00
					-6.86316000E-02	 6.86316000E-02	 0.00000000E+00
					-3.45914000E-02	 3.45914000E-02	 0.00000000E+00
					 1.01841000E-02	-1.01841000E-02	-0.00000000E+00
					 4.81357000E-02	-4.81357000E-02	-0.00000000E+00
					 6.26261000E-02	-6.26261000E-02	-0.00000000E+00
					 4.79035000E-02	-4.79035000E-02	-0.00000000E+00
					 1.36246000E-02	-1.36246000E-02	-0.00000000E+00
					-1.96293000E-02	 1.96293000E-02	 0.00000000E+00
					-3.16632000E-02	 3.16632000E-02	 0.00000000E+00
					-1.41813000E-02	 1.41813000E-02	 0.00000000E+00
					 2.43972000E-02	-2.43972000E-02	-0.00000000E+00
					 6.37512000E-02	-6.37512000E-02	-0.00000000E+00
					 8.32369000E-02	-8.32369000E-02	-0.00000000E+00
					 7.32280000E-02	-7.32280000E-02	-0.00000000E+00
					 2.04782000E-01	-2.04782000E-01	-0.00000000E+00
					 0.00000000E+00	 0.00000000E+00	 0.00000000E+00
					 0.00000000E+00	 0.00000000E+00	 0.00000000E+00
					 0.00000000E+00	 0.00000000E+00	 0.00000000E+00
					 0.00000000E+00	 0.00000000E+00	 0.00000000E+00
					 0.00000000E+00	 0.00000000E+00	 0.00000000E+00
					 0.00000000E+00	 0.00000000E+00	 1.21661000E-01
					 0.00000000E+00	 0.00000000E+00	 1.09203000E-01
					 0.00000000E+00	 0.00000000E+00	 1.17873000E-01
					 0.00000000E+00	 0.00000000E+00	 1.22998000E-01
					 0.00000000E+00	 0.00000000E+00	 3.74030000E-02
					 0.00000000E+00	-1.11011000E-01	 0.00000000E+00
					 0.00000000E+00	-6.03068000E-02	 0.00000000E+00
					 0.00000000E+00	-6.32313000E-02	 0.00000000E+00
					 0.00000000E+00	-6.43711000E-02	 0.00000000E+00
					-0.00000000E+00	 1.93594000E-04	-0.00000000E+00
					-0.00000000E+00	 5.56820000E-02	-0.00000000E+00
					-0.00000000E+00	 5.30608000E-02	-0.00000000E+00
					-0.00000000E+00	 4.89354000E-02	-0.00000000E+00
					-0.00000000E+00	 7.05080000E-02	-0.00000000E+00
					-0.00000000E+00	 4.82291000E-02	-0.00000000E+00
					-0.00000000E+00	 4.39216000E-02	-0.00000000E+00
					-0.00000000E+00	 3.83739000E-02	-0.00000000E+00
					 0.00000000E+00	-1.22859000E-02	 0.00000000E+00
					 0.00000000E+00	-5.97128000E-02	 0.00000000E+00
					 0.00000000E+00	-6.73832000E-02	 0.00000000E+00
					 0.00000000E+00	-7.31333000E-02	 0.00000000E+00
					 0.00000000E+00	-9.12331000E-02	 0.00000000E+00
					 0.00000000E+00	-6.16436000E-02	 0.00000000E+00
					 0.00000000E+00	-7.14552000E-02	 0.00000000E+00
					 0.00000000E+00	-7.92042000E-02	 0.00000000E+00
					 0.00000000E+00	-2.04697000E-02	 0.00000000E+00
					-0.00000000E+00	 4.24435000E-02	-0.00000000E+00
					-0.00000000E+00	 3.19356000E-02	-0.00000000E+00
					-0.00000000E+00	 2.06346000E-02	-0.00000000E+00
					-0.00000000E+00	 5.60702000E-02	-0.00000000E+00
					-0.00000000E+00	 5.05493000E-02	-0.00000000E+00
					-0.00000000E+00	 3.91236000E-02	-0.00000000E+00
					-0.00000000E+00	 2.68078000E-02	-0.00000000E+00
					 0.00000000E+00	-9.00293000E-03	 0.00000000E+00
					 1.11332000E-01	 0.00000000E+00	 0.00000000E+00
					 6.45903000E-02	 0.00000000E+00	 0.00000000E+00
					 6.36766000E-02	 0.00000000E+00	 0.00000000E+00
					 6.09655000E-02	 0.00000000E+00	 0.00000000E+00
					 3.92103000E-04	 0.00000000E+00	 0.00000000E+00
					-4.85716000E-02	-0.00000000E+00	-0.00000000E+00
					-5.23215000E-02	-0.00000000E+00	-0.00000000E+00
					-5.45885000E-02	-0.00000000E+00	-0.00000000E+00
					-6.96037000E-02	-0.00000000E+00	-0.00000000E+00
					-3.78422000E-02	-0.00000000E+00	-0.00000000E+00
					-4.28412000E-02	-0.00000000E+00	-0.00000000E+00
					-4.66309000E-02	-0.00000000E+00	-0.00000000E+00
					 1.35552000E-02	 0.00000000E+00	 0.00000000E+00
					 7.38581000E-02	 0.00000000E+00	 0.00000000E+00
					 6.88564000E-02	 0.00000000E+00	 0.00000000E+00
					 6.18924000E-02	 0.00000000E+00	 0.00000000E+00
					 9.29287000E-02	 0.00000000E+00	 0.00000000E+00
					 8.01573000E-02	 0.00000000E+00	 0.00000000E+00
					 7.33942000E-02	 0.00000000E+00	 0.00000000E+00
					 6.45143000E-02	 0.00000000E+00	 0.00000000E+00
					 2.26698000E-02	 0.00000000E+00	 0.00000000E+00
					-1.94264000E-02	-0.00000000E+00	-0.00000000E+00
					-2.94736000E-02	-0.00000000E+00	-0.00000000E+00
					-3.87923000E-02	-0.00000000E+00	-0.00000000E+00
					-5.33851000E-02	-0.00000000E+00	-0.00000000E+00
					-2.54321000E-02	-0.00000000E+00	-0.00000000E+00
					-3.63142000E-02	-0.00000000E+00	-0.00000000E+00
					-4.63735000E-02	-0.00000000E+00	-0.00000000E+00
					 1.17752000E-02	 0.00000000E+00	 0.00000000E+00
					 0.00000000E+00	 1.05708000E-01	 0.00000000E+00
					 0.00000000E+00	 5.71319000E-02	 0.00000000E+00
					 0.00000000E+00	 5.58859000E-02	 0.00000000E+00
					 0.00000000E+00	 5.30670000E-02	 0.00000000E+00
					-0.00000000E+00	-9.85473000E-03	-0.00000000E+00
					-0.00000000E+00	-6.09530000E-02	-0.00000000E+00
					-0.00000000E+00	-6.52554000E-02	-0.00000000E+00
					-0.00000000E+00	-6.77021000E-02	-0.00000000E+00
					-0.00000000E+00	-8.54234000E-02	-0.00000000E+00
					-0.00000000E+00	-5.59328000E-02	-0.00000000E+00
					-0.00000000E+00	-6.17447000E-02	-0.00000000E+00
					-0.00000000E+00	-6.58026000E-02	-0.00000000E+00
					-0.00000000E+00	-8.65862000E-03	-0.00000000E+00
					 0.00000000E+00	 4.91972000E-02	 0.00000000E+00
					 0.00000000E+00	 4.30562000E-02	 0.00000000E+00
					 0.00000000E+00	 3.56953000E-02	 0.00000000E+00
					 0.00000000E+00	 6.32099000E-02	 0.00000000E+00
					 0.00000000E+00	 4.77956000E-02	 0.00000000E+00
					 0.00000000E+00	 3.94126000E-02	 0.00000000E+00
					 0.00000000E+00	 2.98868000E-02	 0.00000000E+00
					-0.00000000E+00	-1.57795000E-02	-0.00000000E+00
					-0.00000000E+00	-5.97897000E-02	-0.00000000E+00
					-0.00000000E+00	-7.21625000E-02	-0.00000000E+00
					-0.00000000E+00	-8.25941000E-02	-0.00000000E+00
					-0.00000000E+00	-9.92813000E-02	-0.00000000E+00
					-0.00000000E+00	-6.94991000E-02	-0.00000000E+00
					-0.00000000E+00	-8.33446000E-02	-0.00000000E+00
					-0.00000000E+00	-9.50463000E-02	-0.00000000E+00
					-0.00000000E+00	-3.34343000E-02	-0.00000000E+00
					-1.05386000E-01	 0.00000000E+00	 0.00000000E+00
					-5.28479000E-02	 0.00000000E+00	 0.00000000E+00
					-5.54406000E-02	 0.00000000E+00	 0.00000000E+00
					-5.64732000E-02	 0.00000000E+00	 0.00000000E+00
					 1.04404000E-02	-0.00000000E+00	-0.00000000E+00
					 6.80659000E-02	-0.00000000E+00	-0.00000000E+00
					 6.59948000E-02	-0.00000000E+00	-0.00000000E+00
					 6.20465000E-02	-0.00000000E+00	-0.00000000E+00
					 8.63277000E-02	-0.00000000E+00	-0.00000000E+00
					 6.63344000E-02	-0.00000000E+00	-0.00000000E+00
					 6.28254000E-02	-0.00000000E+00	-0.00000000E+00
					 5.75311000E-02	-0.00000000E+00	-0.00000000E+00
					 9.92842000E-03	-0.00000000E+00	-0.00000000E+00
					-3.49696000E-02	 0.00000000E+00	 0.00000000E+00
					-4.15816000E-02	 0.00000000E+00	 0.00000000E+00
					-4.70167000E-02	 0.00000000E+00	 0.00000000E+00
					-6.15109000E-02	 0.00000000E+00	 0.00000000E+00
					-2.89282000E-02	 0.00000000E+00	 0.00000000E+00
					-3.74663000E-02	 0.00000000E+00	 0.00000000E+00
					-4.49194000E-02	 0.00000000E+00	 0.00000000E+00
					 1.79941000E-02	-0.00000000E+00	-0.00000000E+00
					 8.38209000E-02	-0.00000000E+00	-0.00000000E+00
					 7.46495000E-02	-0.00000000E+00	-0.00000000E+00
					 6.34595000E-02	-0.00000000E+00	-0.00000000E+00
					 1.02005000E-01	-0.00000000E+00	-0.00000000E+00
					 9.64609000E-02	-0.00000000E+00	-0.00000000E+00
					 8.62067000E-02	-0.00000000E+00	-0.00000000E+00
					 7.37139000E-02	-0.00000000E+00	-0.00000000E+00
					 3.62700000E-02	-0.00000000E+00	-0.00000000E+00
					 0.00000000E+00	 0.00000000E+00	 0.00000000E+00
					 0.00000000E+00	 0.00000000E+00	 0.00000000E+00
					 0.00000000E+00	 0.00000000E+00	 0.00000000E+00
					 0.00000000E+00	 0.00000000E+00	 0.00000000E+00
					 0.00000000E+00	 0.00000000E+00	 0.00000000E+00
					 0.00000000E+00	 0.00000000E+00	 0.00000000E+00
					 0.00000000E+00	 0.00000000E+00	 0.00000000E+00
					 0.00000000E+00	 0.00000000E+00	 0.00000000E+00
					 0.00000000E+00	 0.00000000E+00	 0.00000000E+00
					 0.00000000E+00	 0.00000000E+00	 0.00000000E+00
					 0.00000000E+00	 0.00000000E+00	 0.00000000E+00
					 0.00000000E+00	 0.00000000E+00	 0.00000000E+00
					 0.00000000E+00	 0.00000000E+00	 0.00000000E+00
					 0.00000000E+00	 0.00000000E+00	 0.00000000E+00
					 0.00000000E+00	 0.00000000E+00	 0.00000000E+00
					 0.00000000E+00	 0.00000000E+00	 0.00000000E+00
					 0.00000000E+00	 0.00000000E+00	 0.00000000E+00
					 0.00000000E+00	 0.00000000E+00	 0.00000000E+00
					 0.00000000E+00	 0.00000000E+00	 0.00000000E+00
					 0.00000000E+00	 0.00000000E+00	 0.00000000E+00
					 0.00000000E+00	 0.00000000E+00	 0.00000000E+00
					 0.00000000E+00	 0.00000000E+00	 0.00000000E+00
					 0.00000000E+00	 0.00000000E+00	 0.00000000E+00
					 0.00000000E+00	 0.00000000E+00	 0.00000000E+00