<?xml version="1.0"?>
<VTKFile type="UnstructuredGrid" version="0.1" byte_order="LittleEndian">
	<UnstructuredGrid>
		<Piece NumberOfPoints="261" NumberOfCells="32">
			<Points>
				<DataArray type="Float64" NumberOfComponents="3" format="ascii">
					 0.00000000E+00	 0.00000000E+00	 0.00000000E+00
					 1.00000000E+00	 0.00000000E+00	 0.00000000E+00
					 1.00000000E+00	 1.00000000E+00	 0.00000000E+00
					 0.00000000E+00	 1.00000000E+00	 0.00000000E+00
					 0.00000000E+00	 0.00000000E+00	 8.00000000E+00
					 1.00000000E+00	 0.00000000E+00	 8.00000000E+00
					 1.00000000E+00	 1.00000000E+00	 8.00000000E+00
					 0.00000000E+00	 1.00000000E+00	 8.00000000E+00
					 2.50000000E-01	 0.00000000E+00	 0.00000000E+00
					 5.00000000E-01	 0.00000000E+00	 0.00000000E+00
					 7.50000000E-01	 0.00000000E+00	 0.00000000E+00
					 1.00000000E+00	 2.50000000E-01	 0.00000000E+00
					 1.00000000E+00	 5.00000000E-01	 0.00000000E+00
					 1.00000000E+00	 7.50000000E-01	 0.00000000E+00
					 7.50000000E-01	 1.00000000E+00	 0.00000000E+00
					 5.00000000E-01	 1.00000000E+00	 0.00000000E+00
					 2.50000000E-01	 1.00000000E+00	 0.00000000E+00
					 0.00000000E+00	 7.50000000E-01	 0.00000000E+00
					 0.00000000E+00	 5.00000000E-01	 0.00000000E+00
					 0.00000000E+00	 2.50000000E-01	 0.00000000E+00
					 2.50000000E-01	 0.00000000E+00	 8.00000000E+00
					 5.00000000E-01	 0.00000000E+00	 8.00000000E+00
					 7.50000000E-01	 0.00000000E+00	 8.00000000E+00
					 1.00000000E+00	 2.50000000E-01	 8.00000000E+00
					 1.00000000E+00	 5.00000000E-01	 8.00000000E+00
					 1.00000000E+00	 7.50000000E-01	 8.00000000E+00
					 7.50000000E-01	 1.00000000E+00	 8.00000000E+00
					 5.00000000E-01	 1.00000000E+00	 8.00000000E+00
					 2.50000000E-01	 1.00000000E+00	 8.00000000E+00
					 0.00000000E+00	 7.50000000E-01	 8.00000000E+00
					 0.00000000E+00	 5.00000000E-01	 8.00000000E+00
					 0.00000000E+00	 2.50000000E-01	 8.00000000E+00
					 1.00000000E+00	 0.00000000E+00	 5.00000000E-01
					 1.00000000E+00	 0.00000000E+00	 1.00000000E+00
					 1.00000000E+00	 0.00000000E+00	 1.50000000E+00
					 1.00000000E+00	 0.00000000E+00	 2.00000000E+00
					 1.00000000E+00	 0.00000000E+00	 2.50000000E+00
					 1.00000000E+00	 0.00000000E+00	 3.00000000E+00
					 1.00000000E+00	 0.00000000E+00	 3.50000000E+00
					 1.00000000E+00	 0.00000000E+00	 4.00000000E+00
					 1.00000000E+00	 0.00000000E+00	 4.50000000E+00
					 1.00000000E+00	 0.00000000E+00	 5.00000000E+00
					 1.00000000E+00	 0.00000000E+00	 5.50000000E+00
					 1.00000000E+00	 0.00000000E+00	 6.00000000E+00
					 1.00000000E+00	 0.00000000E+00	 6.50000000E+00
					 1.00000000E+00	 0.00000000E+00	 7.00000000E+00
					 1.00000000E+00	 0.00000000E+00	 7.50000000E+00
					 0.00000000E+00	 0.00000000E+00	 7.50000000E+00
					 0.00000000E+00	 0.00000000E+00	 7.00000000E+00
					 0.00000000E+00	 0.00000000E+00	 6.50000000E+00
					 0.00000000E+00	 0.00000000E+00	 6.00000000E+00
					 0.00000000E+00	 0.00000000E+00	 5.50000000E+00
					 0.00000000E+00	 0.00000000E+00	 5.00000000E+00
					 0.00000000E+00	 0.00000000E+00	 4.50000000E+00
					 0.00000000E+00	 0.00000000E+00	 4.00000000E+00
					 0.00000000E+00	 0.00000000E+00	 3.50000000E+00
					 0.00000000E+00	 0.00000000E+00	 3.00000000E+00
					 0.00000000E+00	 0.00000000E+00	 2.50000000E+00
					 0.00000000E+00	 0.00000000E+00	 2.00000000E+00
					 0.00000000E+00	 0.00000000E+00	 1.50000000E+00
					 0.00000000E+00	 0.00000000E+00	 1.00000000E+00
					 0.00000000E+00	 0.00000000E+00	 5.00000000E-01
					 1.00000000E+00	 1.00000000E+00	 5.00000000E-01
					 1.00000000E+00	 1.00000000E+00	 1.00000000E+00
					 1.00000000E+00	 1.00000000E+00	 1.50000000E+00
					 1.00000000E+00	 1.00000000E+00	 2.00000000E+00
					 1.00000000E+00	 1.00000000E+00	 2.50000000E+00
					 1.00000000E+00	 1.00000000E+00	 3.00000000E+00
					 1.00000000E+00	 1.00000000E+00	 3.50000000E+00
					 1.00000000E+00	 1.00000000E+00	 4.00000000E+00
					 1.00000000E+00	 1.00000000E+00	 4.50000000E+00
					 1.00000000E+00	 1.00000000E+00	 5.00000000E+00
					 1.00000000E+00	 1.00000000E+00	 5.50000000E+00
					 1.00000000E+00	 1.00000000E+00	 6.00000000E+00
					 1.00000000E+00	 1.00000000E+00	 6.50000000E+00
					 1.00000000E+00	 1.00000000E+00	 7.00000000E+00
					 1.00000000E+00	 1.00000000E+00	 7.50000000E+00
					 0.00000000E+00	 1.00000000E+00	 5.00000000E-01
					 0.00000000E+00	 1.00000000E+00	 1.00000000E+00
					 0.00000000E+00	 1.00000000E+00	 1.50000000E+00
					 0.00000000E+00	 1.00000000E+00	 2.00000000E+00
					 0.00000000E+00	 1.00000000E+00	 2.50000000E+00
					 0.00000000E+00	 1.00000000E+00	 3.00000000E+00
					 0.00000000E+00	 1.00000000E+00	 3.50000000E+00
					 0.00000000E+00	 1.00000000E+00	 4.00000000E+00
					 0.00000000E+00	 1.00000000E+00	 4.50000000E+00
					 0.00000000E+00	 1.00000000E+00	 5.00000000E+00
					 0.00000000E+00	 1.00000000E+00	 5.50000000E+00
					 0.00000000E+00	 1.00000000E+00	 6.00000000E+00
					 0.00000000E+00	 1.00000000E+00	 6.50000000E+00
					 0.00000000E+00	 1.00000000E+00	 7.00000000E+00
					 0.00000000E+00	 1.00000000E+00	 7.50000000E+00
					 5.00000000E-01	 2.50000000E-01	 0.00000000E+00
					 2.50000000E-01	 5.00000000E-01	 0.00000000E+00
					 5.00000000E-01	 5.00000000E-01	 0.00000000E+00
					 7.50000000E-01	 5.00000000E-01	 0.00000000E+00
					 5.00000000E-01	 7.50000000E-01	 0.00000000E+00
					 5.00000000E-01	 2.50000000E-01	 8.00000000E+00
					 2.50000000E-01	 5.00000000E-01	 8.00000000E+00
					 5.00000000E-01	 5.00000000E-01	 8.00000000E+00
					 7.50000000E-01	 5.00000000E-01	 8.00000000E+00
					 5.00000000E-01	 7.50000000E-01	 8.00000000E+00
					 5.00000000E-01	 0.00000000E+00	 5.00000000E-01
					 2.50000000E-01	 0.00000000E+00	 1.00000000E+00
					 5.00000000E-01	 0.00000000E+00	 1.00000000E+00
					 7.50000000E-01	 0.00000000E+00	 1.00000000E+00
					 5.00000000E-01	 0.00000000E+00	 1.50000000E+00
					 2.50000000E-01	 0.00000000E+00	 2.00000000E+00
					 5.00000000E-01	 0.00000000E+00	 2.00000000E+00
					 7.50000000E-01	 0.00000000E+00	 2.00000000E+00
					 5.00000000E-01	 0.00000000E+00	 2.50000000E+00
					 2.50000000E-01	 0.00000000E+00	 3.00000000E+00
					 5.00000000E-01	 0.00000000E+00	 3.00000000E+00
					 7.50000000E-01	 0.00000000E+00	 3.00000000E+00
					 5.00000000E-01	 0.00000000E+00	 3.50000000E+00
					 2.50000000E-01	 0.00000000E+00	 4.00000000E+00
					 5.00000000E-01	 0.00000000E+00	 4.00000000E+00
					 7.50000000E-01	 0.00000000E+00	 4.00000000E+00
					 5.00000000E-01	 0.00000000E+00	 4.50000000E+00
					 2.50000000E-01	 0.00000000E+00	 5.00000000E+00
					 5.00000000E-01	 0.00000000E+00	 5.00000000E+00
					 7.50000000E-01	 0.00000000E+00	 5.00000000E+00
					 5.00000000E-01	 0.00000000E+00	 5.50000000E+00
					 2.50000000E-01	 0.00000000E+00	 6.00000000E+00
					 5.00000000E-01	 0.00000000E+00	 6.00000000E+00
					 7.50000000E-01	 0.00000000E+00	 6.00000000E+00
					 5.00000000E-01	 0.00000000E+00	 6.50000000E+00
					 2.50000000E-01	 0.00000000E+00	 7.00000000E+00
					 5.00000000E-01	 0.00000000E+00	 7.00000000E+00
					 7.50000000E-01	 0.00000000E+00	 7.00000000E+00
					 5.00000000E-01	 0.00000000E+00	 7.50000000E+00
					 1.00000000E+00	 5.00000000E-01	 5.00000000E-01
					 1.00000000E+00	 2.50000000E-01	 1.00000000E+00
					 1.00000000E+00	 5.00000000E-01	 1.00000000E+00
					 1.00000000E+00	 7.50000000E-01	 1.00000000E+00
					 1.00000000E+00	 5.00000000E-01	 1.50000000E+00
					 1.00000000E+00	 2.50000000E-01	 2.00000000E+00
					 1.00000000E+00	 5.00000000E-01	 2.00000000E+00
					 1.00000000E+00	 7.50000000E-01	 2.00000000E+00
					 1.00000000E+00	 5.00000000E-01	 2.50000000E+00
					 1.00000000E+00	 2.50000000E-01	 3.00000000E+00
					 1.00000000E+00	 5.00000000E-01	 3.00000000E+00
					 1.00000000E+00	 7.50000000E-01	 3.00000000E+00
					 1.00000000E+00	 5.00000000E-01	 3.50000000E+00
					 1.00000000E+00	 2.50000000E-01	 4.00000000E+00
					 1.00000000E+00	 5.00000000E-01	 4.00000000E+00
					 1.00000000E+00	 7.50000000E-01	 4.00000000E+00
					 1.00000000E+00	 5.00000000E-01	 4.50000000E+00
					 1.00000000E+00	 2.50000000E-01	 5.00000000E+00
					 1.00000000E+00	 5.00000000E-01	 5.00000000E+00
					 1.00000000E+00	 7.50000000E-01	 5.00000000E+00
					 1.00000000E+00	 5.00000000E-01	 5.50000000E+00
					 1.00000000E+00	 2.50000000E-01	 6.00000000E+00
					 1.00000000E+00	 5.00000000E-01	 6.00000000E+00
					 1.00000000E+00	 7.50000000E-01	 6.00000000E+00
					 1.00000000E+00	 5.00000000E-01	 6.50000000E+00
					 1.00000000E+00	 2.50000000E-01	 7.00000000E+00
					 1.00000000E+00	 5.00000000E-01	 7.00000000E+00
					 1.00000000E+00	 7.50000000E-01	 7.00000000E+00
					 1.00000000E+00	 5.00000000E-01	 7.50000000E+00
					 5.00000000E-01	 1.00000000E+00	 5.00000000E-01
					 7.50000000E-01	 1.00000000E+00	 1.00000000E+00
					 5.00000000E-01	 1.00000000E+00	 1.00000000E+00
					 2.50000000E-01	 1.00000000E+00	 1.00000000E+00
					 5.00000000E-01	 1.00000000E+00	 1.50000000E+00
					 7.50000000E-01	 1.00000000E+00	 2.00000000E+00
					 5.00000000E-01	 1.00000000E+00	 2.00000000E+00
					 2.50000000E-01	 1.00000000E+00	 2.00000000E+00
					 5.00000000E-01	 1.00000000E+00	 2.50000000E+00
					 7.50000000E-01	 1.00000000E+00	 3.00000000E+00
					 5.00000000E-01	 1.00000000E+00	 3.00000000E+00
					 2.50000000E-01	 1.00000000E+00	 3.00000000E+00
					 5.00000000E-01	 1.00000000E+00	 3.50000000E+00
					 7.50000000E-01	 1.00000000E+00	 4.00000000E+00
					 5.00000000E-01	 1.00000000E+00	 4.00000000E+00
					 2.50000000E-01	 1.00000000E+00	 4.00000000E+00
					 5.00000000E-01	 1.00000000E+00	 4.50000000E+00
					 7.50000000E-01	 1.00000000E+00	 5.00000000E+00
					 5.00000000E-01	 1.00000000E+00	 5.00000000E+00
					 2.50000000E-01	 1.00000000E+00	 5.00000000E+00
					 5.00000000E-01	 1.00000000E+00	 5.50000000E+00
					 7.50000000E-01	 1.00000000E+00	 6.00000000E+00
					 5.00000000E-01	 1.00000000E+00	 6.00000000E+00
					 2.50000000E-01	 1.00000000E+00	 6.00000000E+00
					 5.00000000E-01	 1.00000000E+00	 6.50000000E+00
					 7.50000000E-01	 1.00000000E+00	 7.00000000E+00
					 5.00000000E-01	 1.00000000E+00	 7.00000000E+00
					 2.50000000E-01	 1.00000000E+00	 7.00000000E+00
					 5.00000000E-01	 1.00000000E+00	 7.50000000E+00
					 0.00000000E+00	 5.00000000E-01	 5.00000000E-01
					 0.00000000E+00	 7.50000000E-01	 1.00000000E+00
					 0.00000000E+00	 5.00000000E-01	 1.00000000E+00
					 0.00000000E+00	 2.50000000E-01	 1.00000000E+00
					 0.00000000E+00	 5.00000000E-01	 1.50000000E+00
					 0.00000000E+00	 7.50000000E-01	 2.00000000E+00
					 0.00000000E+00	 5.00000000E-01	 2.00000000E+00
					 0.00000000E+00	 2.50000000E-01	 2.00000000E+00
					 0.00000000E+00	 5.00000000E-01	 2.50000000E+00
					 0.00000000E+00	 7.50000000E-01	 3.00000000E+00
					 0.00000000E+00	 5.00000000E-01	 3.00000000E+00
					 0.00000000E+00	 2.50000000E-01	 3.00000000E+00
					 0.00000000E+00	 5.00000000E-01	 3.50000000E+00
					 0.00000000E+00	 7.50000000E-01	 4.00000000E+00
					 0.00000000E+00	 5.00000000E-01	 4.00000000E+00
					 0.00000000E+00	 2.50000000E-01	 4.00000000E+00
					 0.00000000E+00	 5.00000000E-01	 4.50000000E+00
					 0.00000000E+00	 7.50000000E-01	 5.00000000E+00
					 0.00000000E+00	 5.00000000E-01	 5.00000000E+00
					 0.00000000E+00	 2.50000000E-01	 5.00000000E+00
					 0.00000000E+00	 5.00000000E-01	 5.50000000E+00
					 0.00000000E+00	 7.50000000E-01	 6.00000000E+00
					 0.00000000E+00	 5.00000000E-01	 6.00000000E+00
					 0.00000000E+00	 2.50000000E-01	 6.00000000E+00
					 0.00000000E+00	 5.00000000E-01	 6.50000000E+00
					 0.00000000E+00	 7.50000000E-01	 7.00000000E+00
					 0.00000000E+00	 5.00000000E-01	 7.00000000E+00
					 0.00000000E+00	 2.50000000E-01	 7.00000000E+00
					 0.00000000E+00	 5.00000000E-01	 7.50000000E+00
					 5.00000000E-01	 5.00000000E-01	 5.00000000E-01
					 5.00000000E-01	 2.50000000E-01	 1.00000000E+00
					 2.50000000E-01	 5.00000000E-01	 1.00000000E+00
					 5.00000000E-01	 5.00000000E-01	 1.00000000E+00
					 7.50000000E-01	 5.00000000E-01	 1.00000000E+00
					 5.00000000E-01	 7.50000000E-01	 1.00000000E+00
					 5.00000000E-01	 5.00000000E-01	 1.50000000E+00
					 5.00000000E-01	 2.50000000E-01	 2.00000000E+00
					 2.50000000E-01	 5.00000000E-01	 2.00000000E+00
					 5.00000000E-01	 5.00000000E-01	 2.00000000E+00
					 7.50000000E-01	 5.00000000E-01	 2.00000000E+00
					 5.00000000E-01	 7.50000000E-01	 2.00000000E+00
					 5.00000000E-01	 5.00000000E-01	 2.50000000E+00
					 5.00000000E-01	 2.50000000E-01	 3.00000000E+00
					 2.50000000E-01	 5.00000000E-01	 3.00000000E+00
					 5.00000000E-01	 5.00000000E-01	 3.00000000E+00
					 7.50000000E-01	 5.00000000E-01	 3.00000000E+00
					 5.00000000E-01	 7.50000000E-01	 3.00000000E+00
					 5.00000000E-01	 5.00000000E-01	 3.50000000E+00
					 5.00000000E-01	 2.50000000E-01	 4.00000000E+00
					 2.50000000E-01	 5.00000000E-01	 4.00000000E+00
					 5.00000000E-01	 5.00000000E-01	 4.00000000E+00
					 7.50000000E-01	 5.00000000E-01	 4.00000000E+00
					 5.00000000E-01	 7.50000000E-01	 4.00000000E+00
					 5.00000000E-01	 5.00000000E-01	 4.50000000E+00
					 5.00000000E-01	 2.50000000E-01	 5.00000000E+00
					 2.50000000E-01	 5.00000000E-01	 5.00000000E+00
					 5.00000000E-01	 5.00000000E-01	 5.00000000E+00
					 7.50000000E-01	 5.00000000E-01	 5.00000000E+00
					 5.00000000E-01	 7.50000000E-01	 5.00000000E+00
					 5.00000000E-01	 5.00000000E-01	 5.50000000E+00
					 5.00000000E-01	 2.50000000E-01	 6.00000000E+00
					 2.50000000E-01	 5.00000000E-01	 6.00000000E+00
					 5.00000000E-01	 5.00000000E-01	 6.00000000E+00
					 7.50000000E-01	 5.00000000E-01	 6.00000000E+00
					 5.00000000E-01	 7.50000000E-01	 6.00000000E+00
					 5.00000000E-01	 5.00000000E-01	 6.50000000E+00
					 5.00000000E-01	 2.50000000E-01	 7.00000000E+00
					 2.50000000E-01	 5.00000000E-01	 7.00000000E+00
					 5.00000000E-01	 5.00000000E-01	 7.00000000E+00
					 7.50000000E-01	 5.00000000E-01	 7.00000000E+00
					 5.00000000E-01	 7.50000000E-01	 7.00000000E+00
					 5.00000000E-01	 5.00000000E-01	 7.50000000E+00
				</DataArray>
			</Points>
			<Cells>
				<DataArray type="Int32" Name="connectivity" format="ascii">
					0 9 94 18 60 104 221 191 8 92 93 19 103 219 220 192 61 102 218 189 9 1 12 94 104 33 133 221 10 11 95 92 105 132 222 219 102 32 131 218 18 94 15 3 191 221 162 78 93 96 16 17 220 223 163 190 189 218 160 77 94 12 2 15 221 133 63 162 95 13 14 96 222 134 161 223 218 131 62 160 60 104 221 191 58 108 227 195 103 219 220 192 107 225 226 196 59 106 224 193 104 33 133 221 108 35 137 227 105 132 222 219 109 136 228 225 106 34 135 224 191 221 162 78 195 227 166 80 220 223 163 190 226 229 167 194 193 224 164 79 221 133 63 162 227 137 65 166 222 134 161 223 228 138 165 229 224 135 64 164 58 108 227 195 56 112 233 199 107 225 226 196 111 231 232 200 57 110 230 197 108 35 137 227 112 37 141 233 109 136 228 225 113 140 234 231 110 36 139 230 195 227 166 80 199 233 170 82 226 229 167 194 232 235 171 198 197 230 168 81 227 137 65 166 233 141 67 170 228 138 165 229 234 142 169 235 230 139 66 168 56 112 233 199 54 116 239 203 111 231 232 200 115 237 238 204 55 114 236 201 112 37 141 233 116 39 145 239 113 140 234 231 117 144 240 237 114 38 143 236 199 233 170 82 203 239 174 84 232 235 171 198 238 241 175 202 201 236 172 83 233 141 67 170 239 145 69 174 234 142 169 235 240 146 173 241 236 143 68 172 54 116 239 203 52 120 245 207 115 237 238 204 119 243 244 208 53 118 242 205 116 39 145 239 120 41 149 245 117 144 240 237 121 148 246 243 118 40 147 242 203 239 174 84 207 245 178 86 238 241 175 202 244 247 179 206 205 242 176 85 239 145 69 174 245 149 71 178 240 146 173 241 246 150 177 247 242 147 70 176 52 120 245 207 50 124 251 211 119 243 244 208 123 249 250 212 51 122 248 209 120 41 149 245 124 43 153 251 121 148 246 243 125 152 252 249 122 42 151 248 207 245 178 86 211 251 182 88 244 247 179 206 250 253 183 210 209 248 180 87 245 149 71 178 251 153 73 182 246 150 177 247 252 154 181 253 248 151 72 180 50 124 251 211 48 128 257 215 123 249 250 212 127 255 256 216 49 126 254 213 124 43 153 251 128 45 157 257 125 152 252 249 129 156 258 255 126 44 155 254 211 251 182 88 215 257 186 90 250 253 183 210 256 259 187 214 213 254 184 89 251 153 73 182 257 157 75 186 252 154 181 253 258 158 185 259 254 155 74 184 48 128 257 215 4 21 99 30 127 255 256 216 20 97 98 31 47 130 260 217 128 45 157 257 21 5 24 99 129 156 258 255 22 23 100 97 130 46 159 260 215 257 186 90 30 99 27 7 256 259 187 214 98 101 28 29 217 260 188 91 257 157 75 186 99 24 6 27 258 158 185 259 100 25 26 101 260 159 76 188 
				</DataArray>
				<DataArray type="Int32" Name="offsets" format="ascii">
					20 40 60 80 100 120 140 160 180 200 220 240 260 280 300 320 340 360 380 400 420 440 460 480 500 520 540 560 580 600 620 640 
				</DataArray>
				<DataArray type="UInt8" Name="types" format="ascii">
					25 25 25 25 25 25 25 25 25 25 25 25 25 25 25 25 25 25 25 25 25 25 25 25 25 25 25 25 25 25 25 25 
				</DataArray>
			</Cells>
			<PointData>
				<DataArray type="Float32" Name="U" NumberOfComponents="3" ComponentName0="D1" ComponentName1="D2" ComponentName2="D3" format="ascii">
					 0.00000000E+00	 0.00000000E+00	 0.00000000E+00
					 0.00000000E+00	 0.00000000E+00	 0.00000000E+00
					 0.00000000E+00	 0.00000000E+00	 0.00000000E+00
					 0.00000000E+00	 0.00000000E+00	 0.00000000E+00
					 3.65467000E-05	 1.05506000E-01	 9.24632000E-03
					-3.77435000E-05	 1.05518000E-01	 9.24696000E-03
					 2.37669000E-05	 1.05316000E-01	-1.09457000E-02
					-5.06398000E-05	 1.05302000E-01	-1.09464000E-02
					 0.00000000E+00	 0.00000000E+00	 0.00000000E+00
					 0.00000000E+00	 0.00000000E+00	 0.00000000E+00
					 0.00000000E+00	 0.00000000E+00	 0.00000000E+00
					 0.00000000E+00	 0.00000000E+00	 0.00000000E+00
					 0.00000000E+00	 0.00000000E+00	 0.00000000E+00
					 0.00000000E+00	 0.00000000E+00	 0.00000000E+00
					 0.00000000E+00	 0.00000000E+00	 0.00000000E+00
					 0.00000000E+00	 0.00000000E+00	 0.00000000E+00
					 0.00000000E+00	 0.00000000E+00	 0.00000000E+00
					 0.00000000E+00	 0.00000000E+00	 0.00000000E+00
					 0.00000000E+00	 0.00000000E+00	 0.00000000E+00
					 0.00000000E+00	 0.00000000E+00	 0.00000000E+00
					 2.91397000E-05	 1.05540000E-01	 9.25079000E-03
					-5.08899000E-07	 1.05488000E-01	 9.25319000E-03
					-3.02558000E-05	 1.05547000E-01	 9.25092000E-03
					-5.29467000E-06	 1.05448000E-01	 4.18395000E-03
					-6.43808000E-06	 1.05361000E-01	-8.48066000E-04
					-8.35875000E-06	 1.05347000E-01	-5.88008000E-03
					 1.63923000E-05	 1.05344000E-01	-1.09504000E-02
					-1.34210000E-05	 1.05285000E-01	-1.09519000E-02
					-4.32667000E-05	 1.05337000E-01	-1.09506000E-02
					-1.23136000E-05	 1.05334000E-01	-5.88158000E-03
					-7.63844000E-06	 1.05349000E-01	-8.49418000E-04
					-2.34243000E-06	 1.05436000E-01	 4.18299000E-03
					-3.25524000E-04	 5.24748000E-04	 9.64615000E-04
					-2.52231000E-04	 1.94695000E-03	 1.96774000E-03
					-2.93634000E-04	 4.48923000E-03	 2.95216000E-03
					-2.74583000E-04	 7.93500000E-03	 3.90407000E-03
					-2.73087000E-04	 1.23870000E-02	 4.81359000E-03
					-2.56695000E-04	 1.77338000E-02	 5.68276000E-03
					-2.39968000E-04	 2.39873000E-02	 6.48620000E-03
					-2.13559000E-04	 3.10585000E-02	 7.20636000E-03
					-1.84872000E-04	 3.88621000E-02	 7.81729000E-03
					-1.55347000E-04	 4.72971000E-02	 8.32430000E-03
					-1.27637000E-04	 5.62384000E-02	 8.72232000E-03
					-9.75661000E-05	 6.56365000E-02	 9.02524000E-03
					-7.20102000E-05	 7.53427000E-02	 9.21212000E-03
					-3.71903000E-05	 8.53336000E-02	 9.31963000E-03
					-4.21921000E-05	 9.53708000E-02	 9.32126000E-03
					 4.28420000E-05	 9.53576000E-02	 9.32033000E-03
					 3.94754000E-05	 8.53206000E-02	 9.31863000E-03
					 7.58331000E-05	 7.53296000E-02	 9.21116000E-03
					 1.02192000E-04	 6.56236000E-02	 9.02419000E-03
					 1.32554000E-04	 5.62266000E-02	 8.72144000E-03
					 1.60257000E-04	 4.72860000E-02	 8.32350000E-03
					 1.89981000E-04	 3.88518000E-02	 7.81655000E-03
					 2.19213000E-04	 3.10484000E-02	 7.20560000E-03
					 2.46307000E-04	 2.39775000E-02	 6.48549000E-03
					 2.63295000E-04	 1.77245000E-02	 5.68209000E-03
					 2.79413000E-04	 1.23787000E-02	 4.81299000E-03
					 2.80076000E-04	 7.92825000E-03	 3.90353000E-03
					 2.97944000E-04	 4.48422000E-03	 2.95173000E-03
					 2.55116000E-04	 1.94376000E-03	 1.96745000E-03
					 3.26897000E-04	 5.23271000E-04	 9.64480000E-04
					 3.25399000E-04	 5.21457000E-04	-9.64897000E-04
					 2.51435000E-04	 1.93763000E-03	-1.97216000E-03
					 2.92615000E-04	 4.47042000E-03	-2.96905000E-03
					 2.72988000E-04	 7.90260000E-03	-3.94440000E-03
					 2.70812000E-04	 1.23386000E-02	-4.89281000E-03
					 2.53607000E-04	 1.76663000E-02	-5.81836000E-03
					 2.36057000E-04	 2.38992000E-02	-6.69889000E-03
					 2.08690000E-04	 3.09490000E-02	-7.51773000E-03
					 1.79084000E-04	 3.87322000E-02	-8.24878000E-03
					 1.48618000E-04	 4.71481000E-02	-8.89636000E-03
					 1.19972000E-04	 5.60726000E-02	-9.45253000E-03
					 8.85609000E-05	 6.54564000E-02	-9.93047000E-03
					 6.18304000E-05	 7.51520000E-02	-1.03041000E-02
					 2.49273000E-05	 8.51357000E-02	-1.06100000E-02
					 2.96635000E-05	 9.51666000E-02	-1.08138000E-02
					-3.26886000E-04	 5.20074000E-04	-9.65032000E-04
					-2.54847000E-04	 1.93452000E-03	-1.97245000E-03
					-2.98250000E-04	 4.46549000E-03	-2.96948000E-03
					-2.80910000E-04	 7.89591000E-03	-3.94493000E-03
					-2.80898000E-04	 1.23304000E-02	-4.89342000E-03
					-2.65463000E-04	 1.76571000E-02	-5.81902000E-03
					-2.49284000E-04	 2.38894000E-02	-6.69960000E-03
					-2.23020000E-04	 3.09389000E-02	-7.51847000E-03
					-1.94653000E-04	 3.87219000E-02	-8.24957000E-03
					-1.65930000E-04	 4.71369000E-02	-8.89720000E-03
					-1.39472000E-04	 5.60605000E-02	-9.45348000E-03
					-1.10265000E-04	 6.54430000E-02	-9.93154000E-03
					-8.53586000E-05	 7.51387000E-02	-1.03053000E-02
					-4.97389000E-05	 8.51216000E-02	-1.06109000E-02
					-5.50878000E-05	 9.51544000E-02	-1.08148000E-02
					 0.00000000E+00	 0.00000000E+00	 0.00000000E+00
					 0.00000000E+00	 0.00000000E+00	 0.00000000E+00
					 0.00000000E+00	 0.00000000E+00	 0.00000000E+00
					 0.00000000E+00	 0.00000000E+00	 0.00000000E+00
					 0.00000000E+00	 0.00000000E+00	 0.00000000E+00
					-3.77965000E-06	 1.05600000E-01	 4.22130000E-03
					-7.11068000E-06	 1.05478000E-01	-8.49596000E-04
					-7.05316000E-06	 1.05733000E-01	-8.50257000E-04
					-6.98837000E-06	 1.05484000E-01	-8.48866000E-04
					-1.02115000E-05	 1.05497000E-01	-5.92258000E-03
					 7.39542000E-07	 6.64511000E-04	 9.34428000E-04
					 1.27034000E-04	 2.06435000E-03	 1.97592000E-03
					 1.45531000E-06	 2.09299000E-03	 1.99056000E-03
					-1.24132000E-04	 2.06595000E-03	 1.97639000E-03
					 2.15534000E-06	 4.62852000E-03	 2.94938000E-03
					 1.41380000E-04	 8.03651000E-03	 3.90667000E-03
					 2.74971000E-06	 8.07822000E-03	 3.90774000E-03
					-1.35878000E-04	 8.03988000E-03	 3.90718000E-03
					 3.14972000E-06	 1.25190000E-02	 4.81384000E-03
					 1.33187000E-04	 1.78258000E-02	 5.68455000E-03
					 3.30325000E-06	 1.78598000E-02	 5.68448000E-03
					-1.26580000E-04	 1.78305000E-02	 5.68499000E-03
					 3.15592000E-06	 2.41051000E-02	 6.48932000E-03
					 1.11054000E-04	 3.11295000E-02	 7.21056000E-03
					 2.84965000E-06	 3.11560000E-02	 7.20882000E-03
					-1.05379000E-04	 3.11346000E-02	 7.21094000E-03
					 2.55810000E-06	 3.89550000E-02	 7.82298000E-03
					 8.11635000E-05	 4.73394000E-02	 8.32751000E-03
					 2.47550000E-06	 4.73544000E-02	 8.32532000E-03
					-7.62290000E-05	 4.73450000E-02	 8.32808000E-03
					 2.42667000E-06	 5.63095000E-02	 8.72792000E-03
					 5.28023000E-05	 6.56501000E-02	 9.02490000E-03
					 2.32527000E-06	 6.56465000E-02	 9.01872000E-03
					-4.81614000E-05	 6.56565000E-02	 9.02556000E-03
					 1.75501000E-06	 7.53940000E-02	 9.22911000E-03
					 1.88042000E-05	 8.52950000E-02	 9.31653000E-03
					 1.13811000E-06	 8.52767000E-02	 9.30962000E-03
					-1.65250000E-05	 8.53014000E-02	 9.31693000E-03
					 2.07072000E-07	 9.54472000E-02	 9.32886000E-03
					 1.50112000E-07	 3.21220000E-04	-4.54804000E-08
					-1.27162000E-04	 1.85772000E-03	 9.82438000E-04
					 1.04562000E-07	 1.86405000E-03	-1.75141000E-06
					 1.26969000E-04	 1.85292000E-03	-9.86239000E-04
					-9.92768000E-08	 4.31140000E-03	-7.41781000E-06
					-1.37158000E-04	 7.83912000E-03	 1.93684000E-03
					-4.23019000E-07	 7.80897000E-03	-1.91881000E-05
					 1.36000000E-04	 7.82294000E-03	-1.97555000E-03
					-8.03978000E-07	 1.22177000E-02	-3.81407000E-05
					-1.28969000E-04	 1.76230000E-02	 2.80052000E-03
					-1.21142000E-06	 1.75800000E-02	-6.63366000E-05
					 1.26269000E-04	 1.75894000E-02	-2.93390000E-03
					-1.69470000E-06	 2.38219000E-02	-1.04645000E-04
					-1.07809000E-04	 3.09499000E-02	 3.51119000E-03
					-2.20838000E-06	 3.08958000E-02	-1.53964000E-04
					 1.03205000E-04	 3.08955000E-02	-3.81997000E-03
					-2.73244000E-06	 3.87054000E-02	-2.14159000E-04
					-7.93653000E-05	 4.71945000E-02	 4.00521000E-03
					-3.19060000E-06	 4.71321000E-02	-2.84368000E-04
					 7.28328000E-05	 4.71204000E-02	-4.57492000E-03
					-3.75243000E-06	 5.61003000E-02	-3.63995000E-04
					-5.04024000E-05	 6.55419000E-02	 4.27141000E-03
					-4.19432000E-06	 6.54719000E-02	-4.51143000E-04
					 4.17008000E-05	 6.54525000E-02	-5.17456000E-03
					-5.03492000E-06	 7.52243000E-02	-5.45482000E-04
					-2.36770000E-05	 8.52236000E-02	 4.32570000E-03
					-5.18381000E-06	 8.51294000E-02	-6.43183000E-04
					 1.25038000E-05	 8.51251000E-02	-5.61433000E-03
					-6.87674000E-06	 9.53315000E-02	-7.46391000E-04
					-7.68355000E-07	 6.61277000E-04	-9.35306000E-04
					 1.23769000E-04	 2.05632000E-03	-1.98193000E-03
					-1.70444000E-06	 2.08350000E-03	-1.99659000E-03
					-1.27170000E-04	 2.05476000E-03	-1.98174000E-03
					-2.79875000E-06	 4.60946000E-03	-2.96842000E-03
					 1.34571000E-04	 8.00730000E-03	-3.94954000E-03
					-3.95122000E-06	 8.04578000E-03	-3.95099000E-03
					-1.42482000E-04	 8.00396000E-03	-3.94956000E-03
					-5.02148000E-06	 1.24705000E-02	-4.89636000E-03
					 1.23818000E-04	 1.77627000E-02	-5.82324000E-03
					-5.91960000E-06	 1.77922000E-02	-5.82379000E-03
					-1.35666000E-04	 1.77581000E-02	-5.82345000E-03
					-6.59797000E-06	 2.40167000E-02	-6.70604000E-03
					 1.00841000E-04	 3.10247000E-02	-7.52507000E-03
					-7.16436000E-06	 3.10463000E-02	-7.52400000E-03
					-1.15170000E-04	 3.10197000E-02	-7.52543000E-03
					-7.79716000E-06	 3.88247000E-02	-8.25846000E-03
					 6.98166000E-05	 4.71956000E-02	-8.90229000E-03
					-8.63388000E-06	 4.72051000E-02	-8.90034000E-03
					-8.71018000E-05	 4.71900000E-02	-8.90256000E-03
					-9.73760000E-06	 5.61433000E-02	-9.46178000E-03
					 3.94677000E-05	 6.54763000E-02	-9.93207000E-03
					-1.08014000E-05	 6.54663000E-02	-9.92542000E-03
					-6.11207000E-05	 6.54696000E-02	-9.93244000E-03
					-1.17110000E-05	 7.52022000E-02	-1.03248000E-02
					 4.73570000E-06	 8.51028000E-02	-1.06073000E-02
					-1.22623000E-05	 8.50780000E-02	-1.05998000E-02
					-2.94111000E-05	 8.50959000E-02	-1.06079000E-02
					-1.28455000E-05	 9.52433000E-02	-1.08238000E-02
					-2.28144000E-07	 3.19711000E-04	-1.76450000E-07
					-1.28829000E-04	 1.84979000E-03	-9.86849000E-04
					-3.88689000E-07	 1.86090000E-03	-2.03996000E-06
					 1.28460000E-04	 1.85455000E-03	 9.82476000E-04
					-5.83488000E-07	 4.30644000E-03	-7.84486000E-06
					-1.40572000E-04	 7.81624000E-03	-1.97633000E-03
					-8.00945000E-07	 7.80227000E-03	-1.97258000E-05
					 1.39285000E-04	 7.83239000E-03	 1.93655000E-03
					-1.08694000E-06	 1.22095000E-02	-3.87502000E-05
					-1.33509000E-04	 1.75802000E-02	-2.93467000E-03
					-1.41525000E-06	 1.75708000E-02	-6.69982000E-05
					 1.30950000E-04	 1.76138000E-02	 2.79997000E-03
					-1.75886000E-06	 2.38121000E-02	-1.05357000E-04
					-1.12531000E-04	 3.08855000E-02	-3.82072000E-03
					-2.11031000E-06	 3.08858000E-02	-1.54711000E-04
					 1.08477000E-04	 3.09399000E-02	 3.51045000E-03
					-2.51727000E-06	 3.86950000E-02	-2.14943000E-04
					-8.45734000E-05	 4.71093000E-02	-4.57594000E-03
					-2.96805000E-06	 4.71211000E-02	-2.85236000E-04
					 7.87483000E-05	 4.71834000E-02	 4.00452000E-03
					-3.50181000E-06	 5.60882000E-02	-3.64987000E-04
					-5.67931000E-05	 6.54393000E-02	-5.17570000E-03
					-4.22190000E-06	 6.54591000E-02	-4.52107000E-04
					 4.85330000E-05	 6.55291000E-02	 4.27049000E-03
					-4.72497000E-06	 7.52108000E-02	-5.46696000E-04
					-3.05193000E-05	 8.51118000E-02	-5.61542000E-03
					-5.97597000E-06	 8.51168000E-02	-6.44578000E-04
					 1.92625000E-05	 8.52108000E-02	 4.32471000E-03
					-5.87636000E-06	 9.53181000E-02	-7.47658000E-04
					-2.44189000E-08	 4.60866000E-04	-4.07435000E-07
					 6.56766000E-07	 1.99728000E-03	 9.90103000E-04
					-2.79217000E-07	 1.97738000E-03	-2.38917000E-06
					-1.35630000E-07	 1.99982000E-03	-2.45210000E-06
					 9.06032000E-09	 1.97896000E-03	-2.24556000E-06
					-9.24055000E-07	 1.99236000E-03	-9.95414000E-04
					-3.30466000E-07	 4.45451000E-03	-8.51382000E-06
					 1.06814000E-06	 7.97908000E-03	 1.93957000E-03
					-7.20647000E-07	 7.90650000E-03	-2.04406000E-05
					-6.09350000E-07	 7.94503000E-03	-2.05768000E-05
					-4.97922000E-07	 7.90984000E-03	-2.01766000E-05
					-2.28133000E-06	 7.96280000E-03	-1.98112000E-03
					-9.38417000E-07	 1.23510000E-02	-3.98107000E-05
					 9.93825000E-07	 1.77493000E-02	 2.80202000E-03
					-1.37783000E-06	 1.76725000E-02	-6.79921000E-05
					-1.31552000E-06	 1.77067000E-02	-6.82034000E-05
					-1.24893000E-06	 1.76771000E-02	-6.76630000E-05
					-3.61812000E-06	 1.77155000E-02	-2.93912000E-03
					-1.72095000E-06	 2.39363000E-02	-1.06607000E-04
					 3.34725000E-07	 3.10531000E-02	 3.51470000E-03
					-2.15095000E-06	 3.09720000E-02	-1.55801000E-04
					-2.17047000E-06	 3.10049000E-02	-1.56055000E-04
					-2.17999000E-06	 3.09770000E-02	-1.55430000E-04
					-4.66679000E-06	 3.09985000E-02	-3.82748000E-03