<?xml version="1.0"?>
<VTKFile type="UnstructuredGrid" version="0.1" byte_order="LittleEndian">
	<UnstructuredGrid>
		<Piece NumberOfPoints="81" NumberOfCells="32">
			<Points>
				<DataArray type="Float64" NumberOfComponents="3" format="ascii">
					 0.00000000E+00	 0.00000000E+00	 0.00000000E+00
					 1.00000000E+00	 0.00000000E+00	 0.00000000E+00
					 1.00000000E+00	 1.00000000E+00	 0.00000000E+00
					 0.00000000E+00	 1.00000000E+00	 0.00000000E+00
					 0.00000000E+00	 0.00000000E+00	 8.00000000E+00
					 1.00000000E+00	 0.00000000E+00	 8.00000000E+00
					 1.00000000E+00	 1.00000000E+00	 8.00000000E+00
					 0.00000000E+00	 1.00000000E+00	 8.00000000E+00
					 5.00000000E-01	 0.00000000E+00	 0.00000000E+00
					 1.00000000E+00	 5.00000000E-01	 0.00000000E+00
					 5.00000000E-01	 1.00000000E+00	 0.00000000E+00
					 0.00000000E+00	 5.00000000E-01	 0.00000000E+00
					 5.00000000E-01	 0.00000000E+00	 8.00000000E+00
					 1.00000000E+00	 5.00000000E-01	 8.00000000E+00
					 5.00000000E-01	 1.00000000E+00	 8.00000000E+00
					 0.00000000E+00	 5.00000000E-01	 8.00000000E+00
					 1.00000000E+00	 0.00000000E+00	 1.00000000E+00
					 1.00000000E+00	 0.00000000E+00	 2.00000000E+00
					 1.00000000E+00	 0.00000000E+00	 3.00000000E+00
					 1.00000000E+00	 0.00000000E+00	 4.00000000E+00
					 1.00000000E+00	 0.00000000E+00	 5.00000000E+00
					 1.00000000E+00	 0.00000000E+00	 6.00000000E+00
					 1.00000000E+00	 0.00000000E+00	 7.00000000E+00
					 0.00000000E+00	 0.00000000E+00	 7.00000000E+00
					 0.00000000E+00	 0.00000000E+00	 6.00000000E+00
					 0.00000000E+00	 0.00000000E+00	 5.00000000E+00
					 0.00000000E+00	 0.00000000E+00	 4.00000000E+00
					 0.00000000E+00	 0.00000000E+00	 3.00000000E+00
					 0.00000000E+00	 0.00000000E+00	 2.00000000E+00
					 0.00000000E+00	 0.00000000E+00	 1.00000000E+00
					 1.00000000E+00	 1.00000000E+00	 1.00000000E+00
					 1.00000000E+00	 1.00000000E+00	 2.00000000E+00
					 1.00000000E+00	 1.00000000E+00	 3.00000000E+00
					 1.00000000E+00	 1.00000000E+00	 4.00000000E+00
					 1.00000000E+00	 1.00000000E+00	 5.00000000E+00
					 1.00000000E+00	 1.00000000E+00	 6.00000000E+00
					 1.00000000E+00	 1.00000000E+00	 7.00000000E+00
					 0.00000000E+00	 1.00000000E+00	 1.00000000E+00
					 0.00000000E+00	 1.00000000E+00	 2.00000000E+00
					 0.00000000E+00	 1.00000000E+00	 3.00000000E+00
					 0.00000000E+00	 1.00000000E+00	 4.00000000E+00
					 0.00000000E+00	 1.00000000E+00	 5.00000000E+00
					 0.00000000E+00	 1.00000000E+00	 6.00000000E+00
					 0.00000000E+00	 1.00000000E+00	 7.00000000E+00
					 5.00000000E-01	 5.00000000E-01	 0.00000000E+00
					 5.00000000E-01	 5.00000000E-01	 8.00000000E+00
					 5.00000000E-01	 0.00000000E+00	 1.00000000E+00
					 5.00000000E-01	 0.00000000E+00	 2.00000000E+00
					 5.00000000E-01	 0.00000000E+00	 3.00000000E+00
					 5.00000000E-01	 0.00000000E+00	 4.00000000E+00
					 5.00000000E-01	 0.00000000E+00	 5.00000000E+00
					 5.00000000E-01	 0.00000000E+00	 6.00000000E+00
					 5.00000000E-01	 0.00000000E+00	 7.00000000E+00
					 1.00000000E+00	 5.00000000E-01	 1.00000000E+00
					 1.00000000E+00	 5.00000000E-01	 2.00000000E+00
					 1.00000000E+00	 5.00000000E-01	 3.00000000E+00
					 1.00000000E+00	 5.00000000E-01	 4.00000000E+00
					 1.00000000E+00	 5.00000000E-01	 5.00000000E+00
					 1.00000000E+00	 5.00000000E-01	 6.00000000E+00
					 1.00000000E+00	 5.00000000E-01	 7.00000000E+00
					 5.00000000E-01	 1.00000000E+00	 1.00000000E+00
					 5.00000000E-01	 1.00000000E+00	 2.00000000E+00
					 5.00000000E-01	 1.00000000E+00	 3.00000000E+00
					 5.00000000E-01	 1.00000000E+00	 4.00000000E+00
					 5.00000000E-01	 1.00000000E+00	 5.00000000E+00
					 5.00000000E-01	 1.00000000E+00	 6.00000000E+00
					 5.00000000E-01	 1.00000000E+00	 7.00000000E+00
					 0.00000000E+00	 5.00000000E-01	 1.00000000E+00
					 0.00000000E+00	 5.00000000E-01	 2.00000000E+00
					 0.00000000E+00	 5.00000000E-01	 3.00000000E+00
					 0.00000000E+00	 5.00000000E-01	 4.00000000E+00
					 0.00000000E+00	 5.00000000E-01	 5.00000000E+00
					 0.00000000E+00	 5.00000000E-01	 6.00000000E+00
					 0.00000000E+00	 5.00000000E-01	 7.00000000E+00
					 5.00000000E-01	 5.00000000E-01	 1.00000000E+00
					 5.00000000E-01	 5.00000000E-01	 2.00000000E+00
					 5.00000000E-01	 5.00000000E-01	 3.00000000E+00
					 5.00000000E-01	 5.00000000E-01	 4.00000000E+00
					 5.00000000E-01	 5.00000000E-01	 5.00000000E+00
					 5.00000000E-01	 5.00000000E-01	 6.00000000E+00
					 5.00000000E-01	 5.00000000E-01	 7.00000000E+00
				</DataArray>
			</Points>
			<Cells>
				<DataArray type="Int32" Name="connectivity" format="ascii">
					0 8 44 11 29 46 74 67 8 1 9 44 46 16 53 74 11 44 10 3 67 74 60 37 44 9 2 10 74 53 30 60 29 46 74 67 28 47 75 68 46 16 53 74 47 17 54 75 67 74 60 37 68 75 61 38 74 53 30 60 75 54 31 61 28 47 75 68 27 48 76 69 47 17 54 75 48 18 55 76 68 75 61 38 69 76 62 39 75 54 31 61 76 55 32 62 27 48 76 69 26 49 77 70 48 18 55 76 49 19 56 77 69 76 62 39 70 77 63 40 76 55 32 62 77 56 33 63 26 49 77 70 25 50 78 71 49 19 56 77 50 20 57 78 70 77 63 40 71 78 64 41 77 56 33 63 78 57 34 64 25 50 78 71 24 51 79 72 50 20 57 78 51 21 58 79 71 78 64 41 72 79 65 42 78 57 34 64 79 58 35 65 24 51 79 72 23 52 80 73 51 21 58 79 52 22 59 80 72 79 65 42 73 80 66 43 79 58 35 65 80 59 36 66 23 52 80 73 4 12 45 15 52 22 59 80 12 5 13 45 73 80 66 43 15 45 14 7 80 59 36 66 45 13 6 14 
				</DataArray>
				<DataArray type="Int32" Name="offsets" format="ascii">
					8 16 24 32 40 48 56 64 72 80 88 96 104 112 120 128 136 144 152 160 168 176 184 192 200 208 216 224 232 240 248 256 
				</DataArray>
				<DataArray type="UInt8" Name="types" format="ascii">
					12 12 12 12 12 12 12 12 12 12 12 12 12 12 12 12 12 12 12 12 12 12 12 12 12 12 12 12 12 12 12 12 
				</DataArray>
			</Cells>
			<PointData>
				<DataArray type="Float32" Name="U" NumberOfComponents="3" ComponentName0="D1" ComponentName1="D2" ComponentName2="D3" format="ascii">
					 0.00000000E+00	 0.00000000E+00	 0.00000000E+00
					 0.00000000E+00	 0.00000000E+00	 0.00000000E+00
					 0.00000000E+00	 0.00000000E+00	 0.00000000E+00
					 0.00000000E+00	 0.00000000E+00	 0.00000000E+00
					 3.95069000E-02	 3.95069000E-02	 3.69317000E+00
					-3.95069000E-02	 3.95069000E-02	 3.69317000E+00
					-3.95069000E-02	-3.95069000E-02	 3.69317000E+00
					 3.95069000E-02	-3.95069000E-02	 3.69317000E+00
					 0.00000000E+00	 0.00000000E+00	 0.00000000E+00
					 0.00000000E+00	 0.00000000E+00	 0.00000000E+00
					 0.00000000E+00	 0.00000000E+00	 0.00000000E+00
					 0.00000000E+00	 0.00000000E+00	 0.00000000E+00
					 8.30597000E-13	 2.34086000E-02	 3.42371000E+00
					-2.34086000E-02	 7.91251000E-13	 3.42371000E+00
					 8.65695000E-13	-2.34086000E-02	 3.42371000E+00
					 2.34086000E-02	 8.26522000E-13	 3.42371000E+00
					-8.24414000E-02	 8.24414000E-02	 4.35572000E-01
					-6.99543000E-02	 6.99543000E-02	 9.05998000E-01
					-7.14760000E-02	 7.14760000E-02	 1.38474000E+00
					-7.20135000E-02	 7.20135000E-02	 1.86080000E+00
					-6.94768000E-02	 6.94768000E-02	 2.33478000E+00
					-7.57606000E-02	 7.57606000E-02	 2.81912000E+00
					-6.97539000E-02	 6.97539000E-02	 3.28253000E+00
					 6.97539000E-02	 6.97539000E-02	 3.28253000E+00
					 7.57606000E-02	 7.57606000E-02	 2.81912000E+00
					 6.94768000E-02	 6.94768000E-02	 2.33478000E+00
					 7.20135000E-02	 7.20135000E-02	 1.86080000E+00
					 7.14760000E-02	 7.14760000E-02	 1.38474000E+00
					 6.99543000E-02	 6.99543000E-02	 9.05998000E-01
					 8.24414000E-02	 8.24414000E-02	 4.35572000E-01
					-8.24414000E-02	-8.24414000E-02	 4.35572000E-01
					-6.99543000E-02	-6.99543000E-02	 9.05998000E-01
					-7.14760000E-02	-7.14760000E-02	 1.38474000E+00
					-7.20135000E-02	-7.20135000E-02	 1.86080000E+00
					-6.94768000E-02	-6.94768000E-02	 2.33478000E+00
					-7.57606000E-02	-7.57606000E-02	 2.81912000E+00
					-6.97539000E-02	-6.97539000E-02	 3.28253000E+00
					 8.24414000E-02	-8.24414000E-02	 4.35572000E-01
					 6.99543000E-02	-6.99543000E-02	 9.05998000E-01
					 7.14760000E-02	-7.14760000E-02	 1.38474000E+00
					 7.20135000E-02	-7.20135000E-02	 1.86080000E+00
					 6.94768000E-02	-6.94768000E-02	 2.33478000E+00
					 7.57606000E-02	-7.57606000E-02	 2.81912000E+00
					 6.97539000E-02	-6.97539000E-02	 3.28253000E+00
					 0.00000000E+00	 0.00000000E+00	 0.00000000E+00
					 8.48075000E-13	 8.09029000E-13	 4.52043000E+00
					 1.84790000E-14	 8.24653000E-02	 4.24438000E-01
					 7.83956000E-14	 7.05300000E-02	 9.09050000E-01
					 1.70883000E-13	 7.14394000E-02	 1.38414000E+00
					 2.86326000E-13	 7.07662000E-02	 1.86054000E+00
					 4.14011000E-13	 7.51077000E-02	 2.33808000E+00
					 5.48643000E-13	 5.54595000E-02	 2.80025000E+00
					 6.87811000E-13	 1.23106000E-01	 3.36379000E+00
					-8.24653000E-02	 2.02859000E-14	 4.24438000E-01
					-7.05300000E-02	 8.32667000E-14	 9.09050000E-01
					-7.14394000E-02	 1.76167000E-13	 1.38414000E+00
					-7.07662000E-02	 2.87850000E-13	 1.86054000E+00
					-7.51077000E-02	 4.09904000E-13	 2.33808000E+00
					-5.54595000E-02	 5.36887000E-13	 2.80025000E+00
					-1.23106000E-01	 6.64241000E-13	 3.36379000E+00
					 2.48063000E-14	-8.24653000E-02	 4.24438000E-01
					 9.09752000E-14	-7.05300000E-02	 9.09050000E-01
					 1.88766000E-13	-7.14394000E-02	 1.38414000E+00
					 3.09695000E-13	-7.07662000E-02	 1.86054000E+00
					 4.42438000E-13	-7.51077000E-02	 2.33808000E+00
					 5.79952000E-13	-5.54595000E-02	 2.80025000E+00
					 7.21988000E-13	-1.23106000E-01	 3.36379000E+00
					 8.24653000E-02	 2.66401000E-14	 4.24438000E-01
					 7.05300000E-02	 9.59233000E-14	 9.09050000E-01
					 7.14394000E-02	 1.94144000E-13	 1.38414000E+00
					 7.07662000E-02	 3.11140000E-13	 1.86054000E+00
					 7.51077000E-02	 4.38420000E-13	 2.33808000E+00
					 5.54595000E-02	 5.68413000E-13	 2.80025000E+00
					 1.23106000E-01	 6.98198000E-13	 3.36379000E+00
					 2.34332000E-14	 2.53785000E-14	 4.13215000E-01
					 8.59629000E-14	 9.06535000E-14	 9.12058000E-01
					 1.80671000E-13	 1.86082000E-13	 1.38394000E+00
					 2.98404000E-13	 3.00052000E-13	 1.85979000E+00
					 4.28224000E-13	 4.24221000E-13	 2.33834000E+00
					 5.64787000E-13	 5.52697000E-13	 2.81743000E+00
					 7.04956000E-13	 6.81170000E-13	 3.19746000E+00
				</DataArray>
			</PointData>
		</Piece>
	</UnstructuredGrid>
</VTKFile>