<?xml version="1.0"?>
<VTKFile type="UnstructuredGrid" version="0.1" byte_order="LittleEndian">
	<UnstructuredGrid>
		<Piece NumberOfPoints="261" NumberOfCells="32">
			<Points>
				<DataArray type="Float64" NumberOfComponents="3" format="ascii">
					 0.00000000E+00	 0.00000000E+00	 0.00000000E+00
					 1.00000000E+00	 0.00000000E+00	 0.00000000E+00
					 1.00000000E+00	 1.00000000E+00	 0.00000000E+00
					 0.00000000E+00	 1.00000000E+00	 0.00000000E+00
					 0.00000000E+00	 0.00000000E+00	 8.00000000E+00
					 1.00000000E+00	 0.00000000E+00	 8.00000000E+00
					 1.00000000E+00	 1.00000000E+00	 8.00000000E+00
					 0.00000000E+00	 1.00000000E+00	 8.00000000E+00
					 2.50000000E-01	 0.00000000E+00	 0.00000000E+00
					 5.00000000E-01	 0.00000000E+00	 0.00000000E+00
					 7.50000000E-01	 0.00000000E+00	 0.00000000E+00
					 1.00000000E+00	 2.50000000E-01	 0.00000000E+00
					 1.00000000E+00	 5.00000000E-01	 0.00000000E+00
					 1.00000000E+00	 7.50000000E-01	 0.00000000E+00
					 7.50000000E-01	 1.00000000E+00	 0.00000000E+00
					 5.00000000E-01	 1.00000000E+00	 0.00000000E+00
					 2.50000000E-01	 1.00000000E+00	 0.00000000E+00
					 0.00000000E+00	 7.50000000E-01	 0.00000000E+00
					 0.00000000E+00	 5.00000000E-01	 0.00000000E+00
					 0.00000000E+00	 2.50000000E-01	 0.00000000E+00
					 2.50000000E-01	 0.00000000E+00	 8.00000000E+00
					 5.00000000E-01	 0.00000000E+00	 8.00000000E+00
					 7.50000000E-01	 0.00000000E+00	 8.00000000E+00
					 1.00000000E+00	 2.50000000E-01	 8.00000000E+00
					 1.00000000E+00	 5.00000000E-01	 8.00000000E+00
					 1.00000000E+00	 7.50000000E-01	 8.00000000E+00
					 7.50000000E-01	 1.00000000E+00	 8.00000000E+00
					 5.00000000E-01	 1.00000000E+00	 8.00000000E+00
					 2.50000000E-01	 1.00000000E+00	 8.00000000E+00
					 0.00000000E+00	 7.50000000E-01	 8.00000000E+00
					 0.00000000E+00	 5.00000000E-01	 8.00000000E+00
					 0.00000000E+00	 2.50000000E-01	 8.00000000E+00
					 1.00000000E+00	 0.00000000E+00	 5.00000000E-01
					 1.00000000E+00	 0.00000000E+00	 1.00000000E+00
					 1.00000000E+00	 0.00000000E+00	 1.50000000E+00
					 1.00000000E+00	 0.00000000E+00	 2.00000000E+00
					 1.00000000E+00	 0.00000000E+00	 2.50000000E+00
					 1.00000000E+00	 0.00000000E+00	 3.00000000E+00
					 1.00000000E+00	 0.00000000E+00	 3.50000000E+00
					 1.00000000E+00	 0.00000000E+00	 4.00000000E+00
					 1.00000000E+00	 0.00000000E+00	 4.50000000E+00
					 1.00000000E+00	 0.00000000E+00	 5.00000000E+00
					 1.00000000E+00	 0.00000000E+00	 5.50000000E+00
					 1.00000000E+00	 0.00000000E+00	 6.00000000E+00
					 1.00000000E+00	 0.00000000E+00	 6.50000000E+00
					 1.00000000E+00	 0.00000000E+00	 7.00000000E+00
					 1.00000000E+00	 0.00000000E+00	 7.50000000E+00
					 0.00000000E+00	 0.00000000E+00	 7.50000000E+00
					 0.00000000E+00	 0.00000000E+00	 7.00000000E+00
					 0.00000000E+00	 0.00000000E+00	 6.50000000E+00
					 0.00000000E+00	 0.00000000E+00	 6.00000000E+00
					 0.00000000E+00	 0.00000000E+00	 5.50000000E+00
					 0.00000000E+00	 0.00000000E+00	 5.00000000E+00
					 0.00000000E+00	 0.00000000E+00	 4.50000000E+00
					 0.00000000E+00	 0.00000000E+00	 4.00000000E+00
					 0.00000000E+00	 0.00000000E+00	 3.50000000E+00
					 0.00000000E+00	 0.00000000E+00	 3.00000000E+00
					 0.00000000E+00	 0.00000000E+00	 2.50000000E+00
					 0.00000000E+00	 0.00000000E+00	 2.00000000E+00
					 0.00000000E+00	 0.00000000E+00	 1.50000000E+00
					 0.00000000E+00	 0.00000000E+00	 1.00000000E+00
					 0.00000000E+00	 0.00000000E+00	 5.00000000E-01
					 1.00000000E+00	 1.00000000E+00	 5.00000000E-01
					 1.00000000E+00	 1.00000000E+00	 1.00000000E+00
					 1.00000000E+00	 1.00000000E+00	 1.50000000E+00
					 1.00000000E+00	 1.00000000E+00	 2.00000000E+00
					 1.00000000E+00	 1.00000000E+00	 2.50000000E+00
					 1.00000000E+00	 1.00000000E+00	 3.00000000E+00
					 1.00000000E+00	 1.00000000E+00	 3.50000000E+00
					 1.00000000E+00	 1.00000000E+00	 4.00000000E+00
					 1.00000000E+00	 1.00000000E+00	 4.50000000E+00
					 1.00000000E+00	 1.00000000E+00	 5.00000000E+00
					 1.00000000E+00	 1.00000000E+00	 5.50000000E+00
					 1.00000000E+00	 1.00000000E+00	 6.00000000E+00
					 1.00000000E+00	 1.00000000E+00	 6.50000000E+00
					 1.00000000E+00	 1.00000000E+00	 7.00000000E+00
					 1.00000000E+00	 1.00000000E+00	 7.50000000E+00
					 0.00000000E+00	 1.00000000E+00	 5.00000000E-01
					 0.00000000E+00	 1.00000000E+00	 1.00000000E+00
					 0.00000000E+00	 1.00000000E+00	 1.50000000E+00
					 0.00000000E+00	 1.00000000E+00	 2.00000000E+00
					 0.00000000E+00	 1.00000000E+00	 2.50000000E+00
					 0.00000000E+00	 1.00000000E+00	 3.00000000E+00
					 0.00000000E+00	 1.00000000E+00	 3.50000000E+00
					 0.00000000E+00	 1.00000000E+00	 4.00000000E+00
					 0.00000000E+00	 1.00000000E+00	 4.50000000E+00
					 0.00000000E+00	 1.00000000E+00	 5.00000000E+00
					 0.00000000E+00	 1.00000000E+00	 5.50000000E+00
					 0.00000000E+00	 1.00000000E+00	 6.00000000E+00
					 0.00000000E+00	 1.00000000E+00	 6.50000000E+00
					 0.00000000E+00	 1.00000000E+00	 7.00000000E+00
					 0.00000000E+00	 1.00000000E+00	 7.50000000E+00
					 5.00000000E-01	 2.50000000E-01	 0.00000000E+00
					 2.50000000E-01	 5.00000000E-01	 0.00000000E+00
					 5.00000000E-01	 5.00000000E-01	 0.00000000E+00
					 7.50000000E-01	 5.00000000E-01	 0.00000000E+00
					 5.00000000E-01	 7.50000000E-01	 0.00000000E+00
					 5.00000000E-01	 2.50000000E-01	 8.00000000E+00
					 2.50000000E-01	 5.00000000E-01	 8.00000000E+00
					 5.00000000E-01	 5.00000000E-01	 8.00000000E+00
					 7.50000000E-01	 5.00000000E-01	 8.00000000E+00
					 5.00000000E-01	 7.50000000E-01	 8.00000000E+00
					 5.00000000E-01	 0.00000000E+00	 5.00000000E-01
					 2.50000000E-01	 0.00000000E+00	 1.00000000E+00
					 5.00000000E-01	 0.00000000E+00	 1.00000000E+00
					 7.50000000E-01	 0.00000000E+00	 1.00000000E+00
					 5.00000000E-01	 0.00000000E+00	 1.50000000E+00
					 2.50000000E-01	 0.00000000E+00	 2.00000000E+00
					 5.00000000E-01	 0.00000000E+00	 2.00000000E+00
					 7.50000000E-01	 0.00000000E+00	 2.00000000E+00
					 5.00000000E-01	 0.00000000E+00	 2.50000000E+00
					 2.50000000E-01	 0.00000000E+00	 3.00000000E+00
					 5.00000000E-01	 0.00000000E+00	 3.00000000E+00
					 7.50000000E-01	 0.00000000E+00	 3.00000000E+00
					 5.00000000E-01	 0.00000000E+00	 3.50000000E+00
					 2.50000000E-01	 0.00000000E+00	 4.00000000E+00
					 5.00000000E-01	 0.00000000E+00	 4.00000000E+00
					 7.50000000E-01	 0.00000000E+00	 4.00000000E+00
					 5.00000000E-01	 0.00000000E+00	 4.50000000E+00
					 2.50000000E-01	 0.00000000E+00	 5.00000000E+00
					 5.00000000E-01	 0.00000000E+00	 5.00000000E+00
					 7.50000000E-01	 0.00000000E+00	 5.00000000E+00
					 5.00000000E-01	 0.00000000E+00	 5.50000000E+00
					 2.50000000E-01	 0.00000000E+00	 6.00000000E+00
					 5.00000000E-01	 0.00000000E+00	 6.00000000E+00
					 7.50000000E-01	 0.00000000E+00	 6.00000000E+00
					 5.00000000E-01	 0.00000000E+00	 6.50000000E+00
					 2.50000000E-01	 0.00000000E+00	 7.00000000E+00
					 5.00000000E-01	 0.00000000E+00	 7.00000000E+00
					 7.50000000E-01	 0.00000000E+00	 7.00000000E+00
					 5.00000000E-01	 0.00000000E+00	 7.50000000E+00
					 1.00000000E+00	 5.00000000E-01	 5.00000000E-01
					 1.00000000E+00	 2.50000000E-01	 1.00000000E+00
					 1.00000000E+00	 5.00000000E-01	 1.00000000E+00
					 1.00000000E+00	 7.50000000E-01	 1.00000000E+00
					 1.00000000E+00	 5.00000000E-01	 1.50000000E+00
					 1.00000000E+00	 2.50000000E-01	 2.00000000E+00
					 1.00000000E+00	 5.00000000E-01	 2.00000000E+00
					 1.00000000E+00	 7.50000000E-01	 2.00000000E+00
					 1.00000000E+00	 5.00000000E-01	 2.50000000E+00
					 1.00000000E+00	 2.50000000E-01	 3.00000000E+00
					 1.00000000E+00	 5.00000000E-01	 3.00000000E+00
					 1.00000000E+00	 7.50000000E-01	 3.00000000E+00
					 1.00000000E+00	 5.00000000E-01	 3.50000000E+00
					 1.00000000E+00	 2.50000000E-01	 4.00000000E+00
					 1.00000000E+00	 5.00000000E-01	 4.00000000E+00
					 1.00000000E+00	 7.50000000E-01	 4.00000000E+00
					 1.00000000E+00	 5.00000000E-01	 4.50000000E+00
					 1.00000000E+00	 2.50000000E-01	 5.00000000E+00
					 1.00000000E+00	 5.00000000E-01	 5.00000000E+00
					 1.00000000E+00	 7.50000000E-01	 5.00000000E+00
					 1.00000000E+00	 5.00000000E-01	 5.50000000E+00
					 1.00000000E+00	 2.50000000E-01	 6.00000000E+00
					 1.00000000E+00	 5.00000000E-01	 6.00000000E+00
					 1.00000000E+00	 7.50000000E-01	 6.00000000E+00
					 1.00000000E+00	 5.00000000E-01	 6.50000000E+00
					 1.00000000E+00	 2.50000000E-01	 7.00000000E+00
					 1.00000000E+00	 5.00000000E-01	 7.00000000E+00
					 1.00000000E+00	 7.50000000E-01	 7.00000000E+00
					 1.00000000E+00	 5.00000000E-01	 7.50000000E+00
					 5.00000000E-01	 1.00000000E+00	 5.00000000E-01
					 7.50000000E-01	 1.00000000E+00	 1.00000000E+00
					 5.00000000E-01	 1.00000000E+00	 1.00000000E+00
					 2.50000000E-01	 1.00000000E+00	 1.00000000E+00
					 5.00000000E-01	 1.00000000E+00	 1.50000000E+00
					 7.50000000E-01	 1.00000000E+00	 2.00000000E+00
					 5.00000000E-01	 1.00000000E+00	 2.00000000E+00
					 2.50000000E-01	 1.00000000E+00	 2.00000000E+00
					 5.00000000E-01	 1.00000000E+00	 2.50000000E+00
					 7.50000000E-01	 1.00000000E+00	 3.00000000E+00
					 5.00000000E-01	 1.00000000E+00	 3.00000000E+00
					 2.50000000E-01	 1.00000000E+00	 3.00000000E+00
					 5.00000000E-01	 1.00000000E+00	 3.50000000E+00
					 7.50000000E-01	 1.00000000E+00	 4.00000000E+00
					 5.00000000E-01	 1.00000000E+00	 4.00000000E+00
					 2.50000000E-01	 1.00000000E+00	 4.00000000E+00
					 5.00000000E-01	 1.00000000E+00	 4.50000000E+00
					 7.50000000E-01	 1.00000000E+00	 5.00000000E+00
					 5.00000000E-01	 1.00000000E+00	 5.00000000E+00
					 2.50000000E-01	 1.00000000E+00	 5.00000000E+00
					 5.00000000E-01	 1.00000000E+00	 5.50000000E+00
					 7.50000000E-01	 1.00000000E+00	 6.00000000E+00
					 5.00000000E-01	 1.00000000E+00	 6.00000000E+00
					 2.50000000E-01	 1.00000000E+00	 6.00000000E+00
					 5.00000000E-01	 1.00000000E+00	 6.50000000E+00
					 7.50000000E-01	 1.00000000E+00	 7.00000000E+00
					 5.00000000E-01	 1.00000000E+00	 7.00000000E+00
					 2.50000000E-01	 1.00000000E+00	 7.00000000E+00
					 5.00000000E-01	 1.00000000E+00	 7.50000000E+00
					 0.00000000E+00	 5.00000000E-01	 5.00000000E-01
					 0.00000000E+00	 7.50000000E-01	 1.00000000E+00
					 0.00000000E+00	 5.00000000E-01	 1.00000000E+00
					 0.00000000E+00	 2.50000000E-01	 1.00000000E+00
					 0.00000000E+00	 5.00000000E-01	 1.50000000E+00
					 0.00000000E+00	 7.50000000E-01	 2.00000000E+00
					 0.00000000E+00	 5.00000000E-01	 2.00000000E+00
					 0.00000000E+00	 2.50000000E-01	 2.00000000E+00
					 0.00000000E+00	 5.00000000E-01	 2.50000000E+00
					 0.00000000E+00	 7.50000000E-01	 3.00000000E+00
					 0.00000000E+00	 5.00000000E-01	 3.00000000E+00
					 0.00000000E+00	 2.50000000E-01	 3.00000000E+00
					 0.00000000E+00	 5.00000000E-01	 3.50000000E+00
					 0.00000000E+00	 7.50000000E-01	 4.00000000E+00
					 0.00000000E+00	 5.00000000E-01	 4.00000000E+00
					 0.00000000E+00	 2.50000000E-01	 4.00000000E+00
					 0.00000000E+00	 5.00000000E-01	 4.50000000E+00
					 0.00000000E+00	 7.50000000E-01	 5.00000000E+00
					 0.00000000E+00	 5.00000000E-01	 5.00000000E+00
					 0.00000000E+00	 2.50000000E-01	 5.00000000E+00
					 0.00000000E+00	 5.00000000E-01	 5.50000000E+00
					 0.00000000E+00	 7.50000000E-01	 6.00000000E+00
					 0.00000000E+00	 5.00000000E-01	 6.00000000E+00
					 0.00000000E+00	 2.50000000E-01	 6.00000000E+00
					 0.00000000E+00	 5.00000000E-01	 6.50000000E+00
					 0.00000000E+00	 7.50000000E-01	 7.00000000E+00
					 0.00000000E+00	 5.00000000E-01	 7.00000000E+00
					 0.00000000E+00	 2.50000000E-01	 7.00000000E+00
					 0.00000000E+00	 5.00000000E-01	 7.50000000E+00
					 5.00000000E-01	 5.00000000E-01	 5.00000000E-01
					 5.00000000E-01	 2.50000000E-01	 1.00000000E+00
					 2.50000000E-01	 5.00000000E-01	 1.00000000E+00
					 5.00000000E-01	 5.00000000E-01	 1.00000000E+00
					 7.50000000E-01	 5.00000000E-01	 1.00000000E+00
					 5.00000000E-01	 7.50000000E-01	 1.00000000E+00
					 5.00000000E-01	 5.00000000E-01	 1.50000000E+00
					 5.00000000E-01	 2.50000000E-01	 2.00000000E+00
					 2.50000000E-01	 5.00000000E-01	 2.00000000E+00
					 5.00000000E-01	 5.00000000E-01	 2.00000000E+00
					 7.50000000E-01	 5.00000000E-01	 2.00000000E+00
					 5.00000000E-01	 7.50000000E-01	 2.00000000E+00
					 5.00000000E-01	 5.00000000E-01	 2.50000000E+00
					 5.00000000E-01	 2.50000000E-01	 3.00000000E+00
					 2.50000000E-01	 5.00000000E-01	 3.00000000E+00
					 5.00000000E-01	 5.00000000E-01	 3.00000000E+00
					 7.50000000E-01	 5.00000000E-01	 3.00000000E+00
					 5.00000000E-01	 7.50000000E-01	 3.00000000E+00
					 5.00000000E-01	 5.00000000E-01	 3.50000000E+00
					 5.00000000E-01	 2.50000000E-01	 4.00000000E+00
					 2.50000000E-01	 5.00000000E-01	 4.00000000E+00
					 5.00000000E-01	 5.00000000E-01	 4.00000000E+00
					 7.50000000E-01	 5.00000000E-01	 4.00000000E+00
					 5.00000000E-01	 7.50000000E-01	 4.00000000E+00
					 5.00000000E-01	 5.00000000E-01	 4.50000000E+00
					 5.00000000E-01	 2.50000000E-01	 5.00000000E+00
					 2.50000000E-01	 5.00000000E-01	 5.00000000E+00
					 5.00000000E-01	 5.00000000E-01	 5.00000000E+00
					 7.50000000E-01	 5.00000000E-01	 5.00000000E+00
					 5.00000000E-01	 7.50000000E-01	 5.00000000E+00
					 5.00000000E-01	 5.00000000E-01	 5.50000000E+00
					 5.00000000E-01	 2.50000000E-01	 6.00000000E+00
					 2.50000000E-01	 5.00000000E-01	 6.00000000E+00
					 5.00000000E-01	 5.00000000E-01	 6.00000000E+00
					 7.50000000E-01	 5.00000000E-01	 6.00000000E+00
					 5.00000000E-01	 7.50000000E-01	 6.00000000E+00
					 5.00000000E-01	 5.00000000E-01	 6.50000000E+00
					 5.00000000E-01	 2.50000000E-01	 7.00000000E+00
					 2.50000000E-01	 5.00000000E-01	 7.00000000E+00
					 5.00000000E-01	 5.00000000E-01	 7.00000000E+00
					 7.50000000E-01	 5.00000000E-01	 7.00000000E+00
					 5.00000000E-01	 7.50000000E-01	 7.00000000E+00
					 5.00000000E-01	 5.00000000E-01	 7.50000000E+00
				</DataArray>
			</Points>
			<Cells>
				<DataArray type="Int32" Name="connectivity" format="ascii">
					0 9 94 18 60 104 221 191 8 92 93 19 103 219 220 192 61 102 218 189 9 1 12 94 104 33 133 221 10 11 95 92 105 132 222 219 102 32 131 218 18 94 15 3 191 221 162 78 93 96 16 17 220 223 163 190 189 218 160 77 94 12 2 15 221 133 63 162 95 13 14 96 222 134 161 223 218 131 62 160 60 104 221 191 58 108 227 195 103 219 220 192 107 225 226 196 59 106 224 193 104 33 133 221 108 35 137 227 105 132 222 219 109 136 228 225 106 34 135 224 191 221 162 78 195 227 166 80 220 223 163 190 226 229 167 194 193 224 164 79 221 133 63 162 227 137 65 166 222 134 161 223 228 138 165 229 224 135 64 164 58 108 227 195 56 112 233 199 107 225 226 196 111 231 232 200 57 110 230 197 108 35 137 227 112 37 141 233 109 136 228 225 113 140 234 231 110 36 139 230 195 227 166 80 199 233 170 82 226 229 167 194 232 235 171 198 197 230 168 81 227 137 65 166 233 141 67 170 228 138 165 229 234 142 169 235 230 139 66 168 56 112 233 199 54 116 239 203 111 231 232 200 115 237 238 204 55 114 236 201 112 37 141 233 116 39 145 239 113 140 234 231 117 144 240 237 114 38 143 236 199 233 170 82 203 239 174 84 232 235 171 198 238 241 175 202 201 236 172 83 233 141 67 170 239 145 69 174 234 142 169 235 240 146 173 241 236 143 68 172 54 116 239 203 52 120 245 207 115 237 238 204 119 243 244 208 53 118 242 205 116 39 145 239 120 41 149 245 117 144 240 237 121 148 246 243 118 40 147 242 203 239 174 84 207 245 178 86 238 241 175 202 244 247 179 206 205 242 176 85 239 145 69 174 245 149 71 178 240 146 173 241 246 150 177 247 242 147 70 176 52 120 245 207 50 124 251 211 119 243 244 208 123 249 250 212 51 122 248 209 120 41 149 245 124 43 153 251 121 148 246 243 125 152 252 249 122 42 151 248 207 245 178 86 211 251 182 88 244 247 179 206 250 253 183 210 209 248 180 87 245 149 71 178 251 153 73 182 246 150 177 247 252 154 181 253 248 151 72 180 50 124 251 211 48 128 257 215 123 249 250 212 127 255 256 216 49 126 254 213 124 43 153 251 128 45 157 257 125 152 252 249 129 156 258 255 126 44 155 254 211 251 182 88 215 257 186 90 250 253 183 210 256 259 187 214 213 254 184 89 251 153 73 182 257 157 75 186 252 154 181 253 258 158 185 259 254 155 74 184 48 128 257 215 4 21 99 30 127 255 256 216 20 97 98 31 47 130 260 217 128 45 157 257 21 5 24 99 129 156 258 255 22 23 100 97 130 46 159 260 215 257 186 90 30 99 27 7 256 259 187 214 98 101 28 29 217 260 188 91 257 157 75 186 99 24 6 27 258 158 185 259 100 25 26 101 260 159 76 188 
				</DataArray>
				<DataArray type="Int32" Name="offsets" format="ascii">
					20 40 60 80 100 120 140 160 180 200 220 240 260 280 300 320 340 360 380 400 420 440 460 480 500 520 540 560 580 600 620 640 
				</DataArray>
				<DataArray type="UInt8" Name="types" format="ascii">
					25 25 25 25 25 25 25 25 25 25 25 25 25 25 25 25 25 25 25 25 25 25 25 25 25 25 25 25 25 25 25 25 
				</DataArray>
			</Cells>
			<PointData>
				<DataArray type="Float32" Name="U" NumberOfComponents="3" ComponentName0="D1" ComponentName1="D2" ComponentName2="D3" format="ascii">
					 0.00000000E+00	 0.00000000E+00	 0.00000000E+00
					 0.00000000E+00	 0.00000000E+00	 0.00000000E+00
					 0.00000000E+00	 0.00000000E+00	 0.00000000E+00
					 0.00000000E+00	 0.00000000E+00	 0.00000000E+00
					-4.08740000E-05	 8.76882000E-02	 8.18055000E-03
					 4.08740000E-05	 8.76882000E-02	 8.18055000E-03
					-4.08740000E-05	 8.76882000E-02	-8.18055000E-03
					 4.08740000E-05	 8.76882000E-02	-8.18055000E-03
					 0.00000000E+00	 0.00000000E+00	 0.00000000E+00
					 0.00000000E+00	 0.00000000E+00	 0.00000000E+00
					 0.00000000E+00	 0.00000000E+00	 0.00000000E+00
					 0.00000000E+00	 0.00000000E+00	 0.00000000E+00
					 0.00000000E+00	 0.00000000E+00	 0.00000000E+00
					 0.00000000E+00	 0.00000000E+00	 0.00000000E+00
					 0.00000000E+00	 0.00000000E+00	 0.00000000E+00
					 0.00000000E+00	 0.00000000E+00	 0.00000000E+00
					 0.00000000E+00	 0.00000000E+00	 0.00000000E+00
					 0.00000000E+00	 0.00000000E+00	 0.00000000E+00
					 0.00000000E+00	 0.00000000E+00	 0.00000000E+00
					 0.00000000E+00	 0.00000000E+00	 0.00000000E+00
					-1.86749000E-05	 8.76020000E-02	 8.17275000E-03
					 2.14469000E-14	 8.75946000E-02	 8.15563000E-03
					 1.86749000E-05	 8.76020000E-02	 8.17275000E-03
					 1.05820000E-07	 8.76211000E-02	 4.06352000E-03
					 1.70413000E-14	 8.75762000E-02	-8.07080000E-16
					-1.05820000E-07	 8.76211000E-02	-4.06352000E-03
					-1.86749000E-05	 8.76020000E-02	-8.17275000E-03
					 1.26015000E-14	 8.75946000E-02	-8.15563000E-03
					 1.86749000E-05	 8.76020000E-02	-8.17275000E-03
					 1.05820000E-07	 8.76211000E-02	-4.06352000E-03
					 1.70694000E-14	 8.75762000E-02	 1.36041000E-15
					-1.05820000E-07	 8.76211000E-02	 4.06352000E-03
					-3.08705000E-04	 5.37976000E-04	 9.25895000E-04
					-2.25039000E-04	 1.91981000E-03	 1.85455000E-03
					-2.54181000E-04	 4.32007000E-03	 2.72644000E-03
					-2.24346000E-04	 7.48314000E-03	 3.53248000E-03
					-2.13262000E-04	 1.14690000E-02	 4.26708000E-03
					-1.90925000E-04	 1.61276000E-02	 4.94310000E-03
					-1.73893000E-04	 2.14480000E-02	 5.55320000E-03
					-1.53764000E-04	 2.73364000E-02	 6.10075000E-03
					-1.35230000E-04	 3.37436000E-02	 6.58178000E-03
					-1.16437000E-04	 4.05999000E-02	 7.00012000E-03
					-9.53461000E-05	 4.78405000E-02	 7.35345000E-03
					-7.64218000E-05	 5.54125000E-02	 7.64461000E-03
					-5.95948000E-05	 6.32162000E-02	 7.86643000E-03
					-4.88620000E-05	 7.12406000E-02	 8.02733000E-03
					-3.80196000E-06	 7.93821000E-02	 8.12647000E-03
					 3.80196000E-06	 7.93821000E-02	 8.12647000E-03
					 4.88620000E-05	 7.12406000E-02	 8.02733000E-03
					 5.95948000E-05	 6.32162000E-02	 7.86643000E-03
					 7.64218000E-05	 5.54125000E-02	 7.64461000E-03
					 9.53461000E-05	 4.78405000E-02	 7.35345000E-03
					 1.16437000E-04	 4.05999000E-02	 7.00012000E-03
					 1.35230000E-04	 3.37436000E-02	 6.58178000E-03
					 1.53764000E-04	 2.73364000E-02	 6.10075000E-03
					 1.73893000E-04	 2.14480000E-02	 5.55320000E-03
					 1.90925000E-04	 1.61276000E-02	 4.94310000E-03
					 2.13262000E-04	 1.14690000E-02	 4.26708000E-03
					 2.24346000E-04	 7.48314000E-03	 3.53248000E-03
					 2.54181000E-04	 4.32007000E-03	 2.72644000E-03
					 2.25039000E-04	 1.91981000E-03	 1.85455000E-03
					 3.08705000E-04	 5.37976000E-04	 9.25895000E-04
					 3.08705000E-04	 5.37976000E-04	-9.25895000E-04
					 2.25039000E-04	 1.91981000E-03	-1.85455000E-03
					 2.54181000E-04	 4.32007000E-03	-2.72644000E-03
					 2.24346000E-04	 7.48314000E-03	-3.53248000E-03
					 2.13262000E-04	 1.14690000E-02	-4.26708000E-03
					 1.90925000E-04	 1.61276000E-02	-4.94310000E-03
					 1.73893000E-04	 2.14480000E-02	-5.55320000E-03
					 1.53764000E-04	 2.73364000E-02	-6.10075000E-03
					 1.35230000E-04	 3.37436000E-02	-6.58178000E-03
					 1.16437000E-04	 4.05999000E-02	-7.00012000E-03
					 9.53461000E-05	 4.78405000E-02	-7.35345000E-03
					 7.64218000E-05	 5.54125000E-02	-7.64461000E-03
					 5.95948000E-05	 6.32162000E-02	-7.86643000E-03
					 4.88620000E-05	 7.12406000E-02	-8.02733000E-03
					 3.80196000E-06	 7.93821000E-02	-8.12647000E-03
					-3.08705000E-04	 5.37976000E-04	-9.25895000E-04
					-2.25039000E-04	 1.91981000E-03	-1.85455000E-03
					-2.54181000E-04	 4.32007000E-03	-2.72644000E-03
					-2.24346000E-04	 7.48314000E-03	-3.53248000E-03
					-2.13262000E-04	 1.14690000E-02	-4.26708000E-03
					-1.90925000E-04	 1.61276000E-02	-4.94310000E-03
					-1.73893000E-04	 2.14480000E-02	-5.55320000E-03
					-1.53764000E-04	 2.73364000E-02	-6.10075000E-03
					-1.35230000E-04	 3.37436000E-02	-6.58178000E-03
					-1.16437000E-04	 4.05999000E-02	-7.00012000E-03
					-9.53461000E-05	 4.78405000E-02	-7.35345000E-03
					-7.64218000E-05	 5.54125000E-02	-7.64461000E-03
					-5.95948000E-05	 6.32162000E-02	-7.86643000E-03
					-4.88620000E-05	 7.12406000E-02	-8.02733000E-03
					-3.80196000E-06	 7.93821000E-02	-8.12647000E-03
					 0.00000000E+00	 0.00000000E+00	 0.00000000E+00
					 0.00000000E+00	 0.00000000E+00	 0.00000000E+00
					 0.00000000E+00	 0.00000000E+00	 0.00000000E+00
					 0.00000000E+00	 0.00000000E+00	 0.00000000E+00
					 0.00000000E+00	 0.00000000E+00	 0.00000000E+00
					 1.92567000E-14	 8.75739000E-02	 4.06829000E-03
					 1.70490000E-14	 8.75712000E-02	 8.01685000E-16
					 1.70553000E-14	 8.75561000E-02	 2.41951000E-16
					 1.70309000E-14	 8.75712000E-02	-2.98953000E-16
					 1.48094000E-14	 8.75739000E-02	-4.06829000E-03
					 4.81048000E-16	 6.70338000E-04	 8.99238000E-04
					 1.11408000E-04	 2.02860000E-03	 1.86649000E-03
					 1.40279000E-15	 2.05311000E-03	 1.87998000E-03
					-1.11408000E-04	 2.02860000E-03	 1.86649000E-03
					 2.58853000E-15	 4.44086000E-03	 2.72715000E-03
					 1.12188000E-04	 7.57016000E-03	 3.53905000E-03
					 4.04592000E-15	 7.60419000E-03	 3.54010000E-03
					-1.12188000E-04	 7.57016000E-03	 3.53905000E-03
					 5.64828000E-15	 1.15730000E-02	 4.27060000E-03
					 9.54027000E-05	 1.62018000E-02	 4.94775000E-03
					 7.44278000E-15	 1.62264000E-02	 4.94789000E-03
					-9.54027000E-05	 1.62018000E-02	 4.94775000E-03
					 9.23609000E-15	 2.15342000E-02	 5.55732000E-03
					 7.68996000E-05	 2.73940000E-02	 6.10519000E-03
					 1.11280000E-14	 2.74137000E-02	 6.10481000E-03
					-7.68996000E-05	 2.73940000E-02	 6.10519000E-03
					 1.26967000E-14	 3.38115000E-02	 6.58596000E-03
					 5.81720000E-05	 4.06434000E-02	 7.00465000E-03
					 1.43218000E-14	 4.06565000E-02	 7.00420000E-03
					-5.81720000E-05	 4.06434000E-02	 7.00465000E-03
					 1.57357000E-14	 4.78894000E-02	 7.35759000E-03
					 3.83884000E-05	 5.54351000E-02	 7.64847000E-03
					 1.70653000E-14	 5.54437000E-02	 7.64792000E-03
					-3.83884000E-05	 5.54351000E-02	 7.64847000E-03
					 1.82770000E-14	 6.32514000E-02	 7.87085000E-03
					 2.36810000E-05	 7.12602000E-02	 8.03283000E-03
					 1.94415000E-14	 7.12500000E-02	 8.03292000E-03
					-2.36810000E-05	 7.12602000E-02	 8.03283000E-03
					 2.04566000E-14	 7.93920000E-02	 8.12847000E-03
					 2.74574000E-16	 3.48114000E-04	-3.22395000E-16
					-1.13554000E-04	 1.84335000E-03	 9.19045000E-04
					 8.08036000E-16	 1.85495000E-03	-6.41426000E-16
					 1.13554000E-04	 1.84335000E-03	-9.19045000E-04
					 1.65597000E-15	 4.17222000E-03	-8.68263000E-16
					-1.11920000E-04	 7.41500000E-03	 1.75486000E-03
					 2.71790000E-15	 7.39924000E-03	-1.05731000E-15
					 1.11920000E-04	 7.41500000E-03	-1.75486000E-03
					 3.96428000E-15	 1.13542000E-02	-1.19880000E-15
					-9.55209000E-05	 1.60604000E-02	 2.46163000E-03
					 5.33460000E-15	 1.60428000E-02	-1.25936000E-15
					 9.55209000E-05	 1.60604000E-02	-2.46163000E-03
					 6.74927000E-15	 2.13582000E-02	-1.24922000E-15
					-7.69371000E-05	 2.72802000E-02	 3.03987000E-03
					 8.13318000E-15	 2.72623000E-02	-1.21179000E-15
					 7.69371000E-05	 2.72802000E-02	-3.03987000E-03
					 9.40448000E-15	 3.36761000E-02	-1.07673000E-15
					-5.79149000E-05	 4.05559000E-02	 3.49000000E-03
					 1.06141000E-14	 4.05405000E-02	-9.85217000E-16
					 5.79149000E-05	 4.05559000E-02	-3.49000000E-03
					 1.16660000E-14	 4.77939000E-02	-9.20738000E-16
					-3.94940000E-05	 5.53767000E-02	 3.81109000E-03
					 1.28157000E-14	 5.53615000E-02	-8.72566000E-16
					 3.94940000E-05	 5.53767000E-02	-3.81109000E-03
					 1.38236000E-14	 6.31973000E-02	-8.62537000E-16
					-1.94960000E-05	 7.12214000E-02	 4.00679000E-03
					 1.49028000E-14	 7.12064000E-02	-8.05345000E-16
					 1.94960000E-05	 7.12214000E-02	-4.00679000E-03
					 1.59821000E-14	 7.93786000E-02	-8.26569000E-16
					-1.49566000E-16	 6.70338000E-04	-8.99238000E-04
					 1.11408000E-04	 2.02860000E-03	-1.86649000E-03
					 9.75240000E-17	 2.05311000E-03	-1.87998000E-03
					-1.11408000E-04	 2.02860000E-03	-1.86649000E-03
					 5.86120000E-16	 4.44086000E-03	-2.72715000E-03
					 1.12188000E-04	 7.57016000E-03	-3.53905000E-03
					 1.32696000E-15	 7.60419000E-03	-3.54010000E-03
					-1.12188000E-04	 7.57016000E-03	-3.53905000E-03
					 2.21506000E-15	 1.15730000E-02	-4.27060000E-03
					 9.54027000E-05	 1.62018000E-02	-4.94775000E-03
					 3.21371000E-15	 1.62264000E-02	-4.94789000E-03
					-9.54027000E-05	 1.62018000E-02	-4.94775000E-03
					 4.27257000E-15	 2.15342000E-02	-5.55732000E-03
					 7.68996000E-05	 2.73940000E-02	-6.10519000E-03
					 5.31606000E-15	 2.74137000E-02	-6.10481000E-03
					-7.68996000E-05	 2.73940000E-02	-6.10519000E-03
					 6.18193000E-15	 3.38115000E-02	-6.58596000E-03
					 5.81720000E-05	 4.06434000E-02	-7.00465000E-03
					 6.97210000E-15	 4.06565000E-02	-7.00420000E-03
					-5.81720000E-05	 4.06434000E-02	-7.00465000E-03
					 7.70109000E-15	 4.78894000E-02	-7.35759000E-03
					 3.83884000E-05	 5.54351000E-02	-7.64847000E-03
					 8.51055000E-15	 5.54437000E-02	-7.64792000E-03
					-3.83884000E-05	 5.54351000E-02	-7.64847000E-03
					 9.40467000E-15	 6.32514000E-02	-7.87085000E-03
					 2.36810000E-05	 7.12602000E-02	-8.03283000E-03
					 1.03748000E-14	 7.12500000E-02	-8.03292000E-03
					-2.36810000E-05	 7.12602000E-02	-8.03283000E-03
					 1.14489000E-14	 7.93920000E-02	-8.12847000E-03
					 2.85138000E-16	 3.48114000E-04	 3.52729000E-16
					-1.13554000E-04	 1.84335000E-03	-9.19045000E-04
					 8.16377000E-16	 1.85495000E-03	 7.04506000E-16
					 1.13554000E-04	 1.84335000E-03	 9.19045000E-04
					 1.66441000E-15	 4.17222000E-03	 9.68252000E-16
					-1.11920000E-04	 7.41500000E-03	-1.75486000E-03
					 2.72837000E-15	 7.39924000E-03	 1.18389000E-15
					 1.11920000E-04	 7.41500000E-03	 1.75486000E-03
					 3.97045000E-15	 1.13542000E-02	 1.35456000E-15
					-9.55209000E-05	 1.60604000E-02	-2.46163000E-03
					 5.35119000E-15	 1.60428000E-02	 1.45548000E-15
					 9.55209000E-05	 1.60604000E-02	 2.46163000E-03
					 6.75154000E-15	 2.13582000E-02	 1.48361000E-15
					-7.69371000E-05	 2.72802000E-02	-3.03987000E-03
					 8.17835000E-15	 2.72623000E-02	 1.44488000E-15
					 7.69371000E-05	 2.72802000E-02	 3.03987000E-03
					 9.42218000E-15	 3.36761000E-02	 1.37508000E-15
					-5.79149000E-05	 4.05559000E-02	-3.49000000E-03
					 1.05870000E-14	 4.05405000E-02	 1.29995000E-15
					 5.79149000E-05	 4.05559000E-02	 3.49000000E-03
					 1.16831000E-14	 4.77939000E-02	 1.28017000E-15
					-3.94940000E-05	 5.53767000E-02	-3.81109000E-03
					 1.27728000E-14	 5.53615000E-02	 1.25074000E-15
					 3.94940000E-05	 5.53767000E-02	 3.81109000E-03
					 1.38327000E-14	 6.31973000E-02	 1.26065000E-15
					-1.94960000E-05	 7.12214000E-02	-4.00679000E-03
					 1.49172000E-14	 7.12064000E-02	 1.30099000E-15
					 1.94960000E-05	 7.12214000E-02	 4.00679000E-03
					 1.59310000E-14	 7.93786000E-02	 1.29993000E-15
					 2.11203000E-16	 4.79731000E-04	 1.44046000E-17
					 1.10920000E-15	 1.97016000E-03	 9.29890000E-04
					 7.86496000E-16	 1.95961000E-03	 3.59745000E-16
					 7.87686000E-16	 1.97793000E-03	 3.48085000E-17
					 7.82759000E-16	 1.95961000E-03	-2.93577000E-16
					 4.59044000E-16	 1.97016000E-03	-9.29890000E-04
					 1.62473000E-15	 4.29742000E-03	 4.84638000E-17
					 3.37834000E-15	 7.53197000E-03	 1.76126000E-03
					 2.71099000E-15	 7.48164000E-03	 6.20425000E-16
					 2.70159000E-15	 7.51153000E-03	 6.55511000E-17
					 2.70530000E-15	 7.48164000E-03	-4.87674000E-16
					 2.01001000E-15	 7.53197000E-03	-1.76126000E-03
					 3.95406000E-15	 1.14613000E-02	 8.61534000E-17
					 6.38661000E-15	 1.61571000E-02	 2.46597000E-03
					 5.32625000E-15	 1.61150000E-02	 7.68794000E-16
					 5.31172000E-15	 1.61377000E-02	 1.08203000E-16
					 5.31915000E-15	 1.61150000E-02	-5.69629000E-16
					 4.27964000E-15	 1.61571000E-02	-2.46597000E-03
					 6.76443000E-15	 2.14454000E-02	 1.21871000E-16
					 9.61273000E-15	 2.73574000E-02	 3.04402000E-03
					 8.17488000E-15	 2.73199000E-02	 7.91773000E-16
					 8.14799000E-15	 2.73393000E-02	 1.40838000E-16
					 8.13716000E-15	 2.73199000E-02	-5.25946000E-16
					 6.71182000E-15	 2.73574000E-02	-3.04402000E-03