# vtk DataFile Version 3.0

ASCII
DATASET UNSTRUCTURED_GRID

POINTS 90 double
	 0.00000000E+00	 0.00000000E+00	 0.00000000E+00
	 1.00000000E+00	 0.00000000E+00	 0.00000000E+00
	 1.00000000E+00	 1.00000000E+00	 0.00000000E+00
	 0.00000000E+00	 1.00000000E+00	 0.00000000E+00
	 0.00000000E+00	 0.00000000E+00	 8.00000000E+00
	 1.00000000E+00	 0.00000000E+00	 8.00000000E+00
	 1.00000000E+00	 1.00000000E+00	 8.00000000E+00
	 0.00000000E+00	 1.00000000E+00	 8.00000000E+00
	 5.00000000E-01	 0.00000000E+00	 0.00000000E+00
	 1.00000000E+00	 5.00000000E-01	 0.00000000E+00
	 5.00000000E-01	 1.00000000E+00	 0.00000000E+00
	 0.00000000E+00	 5.00000000E-01	 0.00000000E+00
	 5.00000000E-01	 0.00000000E+00	 8.00000000E+00
	 1.00000000E+00	 5.00000000E-01	 8.00000000E+00
	 5.00000000E-01	 1.00000000E+00	 8.00000000E+00
	 0.00000000E+00	 5.00000000E-01	 8.00000000E+00
	 1.00000000E+00	 0.00000000E+00	 1.00000000E+00
	 1.00000000E+00	 0.00000000E+00	 2.00000000E+00
	 1.00000000E+00	 0.00000000E+00	 3.00000000E+00
	 1.00000000E+00	 0.00000000E+00	 4.00000000E+00
	 1.00000000E+00	 0.00000000E+00	 5.00000000E+00
	 1.00000000E+00	 0.00000000E+00	 6.00000000E+00
	 1.00000000E+00	 0.00000000E+00	 7.00000000E+00
	 0.00000000E+00	 0.00000000E+00	 7.00000000E+00
	 0.00000000E+00	 0.00000000E+00	 6.00000000E+00
	 0.00000000E+00	 0.00000000E+00	 5.00000000E+00
	 0.00000000E+00	 0.00000000E+00	 4.00000000E+00
	 0.00000000E+00	 0.00000000E+00	 3.00000000E+00
	 0.00000000E+00	 0.00000000E+00	 2.00000000E+00
	 0.00000000E+00	 0.00000000E+00	 1.00000000E+00
	 1.00000000E+00	 1.00000000E+00	 1.00000000E+00
	 1.00000000E+00	 1.00000000E+00	 2.00000000E+00
	 1.00000000E+00	 1.00000000E+00	 3.00000000E+00
	 1.00000000E+00	 1.00000000E+00	 4.00000000E+00
	 1.00000000E+00	 1.00000000E+00	 5.00000000E+00
	 1.00000000E+00	 1.00000000E+00	 6.00000000E+00
	 1.00000000E+00	 1.00000000E+00	 7.00000000E+00
	 0.00000000E+00	 1.00000000E+00	 1.00000000E+00
	 0.00000000E+00	 1.00000000E+00	 2.00000000E+00
	 0.00000000E+00	 1.00000000E+00	 3.00000000E+00
	 0.00000000E+00	 1.00000000E+00	 4.00000000E+00
	 0.00000000E+00	 1.00000000E+00	 5.00000000E+00
	 0.00000000E+00	 1.00000000E+00	 6.00000000E+00
	 0.00000000E+00	 1.00000000E+00	 7.00000000E+00
	 5.00000000E-01	 5.00000000E-01	 0.00000000E+00
	 5.00000000E-01	 5.00000000E-01	 8.00000000E+00
	 5.00000000E-01	 0.00000000E+00	 1.00000000E+00
	 5.00000000E-01	 0.00000000E+00	 2.00000000E+00
	 5.00000000E-01	 0.00000000E+00	 3.00000000E+00
	 5.00000000E-01	 0.00000000E+00	 4.00000000E+00
	 5.00000000E-01	 0.00000000E+00	 5.00000000E+00
	 5.00000000E-01	 0.00000000E+00	 6.00000000E+00
	 5.00000000E-01	 0.00000000E+00	 7.00000000E+00
	 1.00000000E+00	 5.00000000E-01	 1.00000000E+00
	 1.00000000E+00	 5.00000000E-01	 2.00000000E+00
	 1.00000000E+00	 5.00000000E-01	 3.00000000E+00
	 1.00000000E+00	 5.00000000E-01	 4.00000000E+00
	 1.00000000E+00	 5.00000000E-01	 5.00000000E+00
	 1.00000000E+00	 5.00000000E-01	 6.00000000E+00
	 1.00000000E+00	 5.00000000E-01	 7.00000000E+00
	 5.00000000E-01	 1.00000000E+00	 1.00000000E+00
	 5.00000000E-01	 1.00000000E+00	 2.00000000E+00
	 5.00000000E-01	 1.00000000E+00	 3.00000000E+00
	 5.00000000E-01	 1.00000000E+00	 4.00000000E+00
	 5.00000000E-01	 1.00000000E+00	 5.00000000E+00
	 5.00000000E-01	 1.00000000E+00	 6.00000000E+00
	 5.00000000E-01	 1.00000000E+00	 7.00000000E+00
	 0.00000000E+00	 5.00000000E-01	 1.00000000E+00
	 0.00000000E+00	 5.00000000E-01	 2.00000000E+00
	 0.00000000E+00	 5.00000000E-01	 3.00000000E+00
	 0.00000000E+00	 5.00000000E-01	 4.00000000E+00
	 0.00000000E+00	 5.00000000E-01	 5.00000000E+00
	 0.00000000E+00	 5.00000000E-01	 6.00000000E+00
	 0.00000000E+00	 5.00000000E-01	 7.00000000E+00
	 5.00000000E-01	 5.00000000E-01	 1.00000000E+00
	 5.00000000E-01	 5.00000000E-01	 2.00000000E+00
	 5.00000000E-01	 5.00000000E-01	 3.00000000E+00
	 5.00000000E-01	 5.00000000E-01	 4.00000000E+00
	 5.00000000E-01	 5.00000000E-01	 5.00000000E+00
	 5.00000000E-01	 5.00000000E-01	 6.00000000E+00
	 5.00000000E-01	 5.00000000E-01	 7.00000000E+00
	 1.00000000E+00	 0.00000000E+00	 4.00000000E+00
	 0.00000000E+00	 0.00000000E+00	 4.00000000E+00
	 1.00000000E+00	 1.00000000E+00	 4.00000000E+00
	 0.00000000E+00	 1.00000000E+00	 4.00000000E+00
	 5.00000000E-01	 0.00000000E+00	 4.00000000E+00
	 1.00000000E+00	 5.00000000E-01	 4.00000000E+00
	 5.00000000E-01	 1.00000000E+00	 4.00000000E+00
	 0.00000000E+00	 5.00000000E-01	 4.00000000E+00
	 5.00000000E-01	 5.00000000E-01	 4.00000000E+00

CELLS 32 288
	8 0 8 44 11 29 46 74 67 
	8 8 1 9 44 46 16 53 74 
	8 11 44 10 3 67 74 60 37 
	8 44 9 2 10 74 53 30 60 
	8 29 46 74 67 28 47 75 68 
	8 46 16 53 74 47 17 54 75 
	8 67 74 60 37 68 75 61 38 
	8 74 53 30 60 75 54 31 61 
	8 28 47 75 68 27 48 76 69 
	8 47 17 54 75 48 18 55 76 
	8 68 75 61 38 69 76 62 39 
	8 75 54 31 61 76 55 32 62 
	8 27 48 76 69 26 49 77 70 
	8 48 18 55 76 49 19 56 77 
	8 69 76 62 39 70 77 63 40 
	8 76 55 32 62 77 56 33 63 
	8 82 85 89 88 25 50 78 71 
	8 85 81 86 89 50 20 57 78 
	8 88 89 87 84 71 78 64 41 
	8 89 86 83 87 78 57 34 64 
	8 25 50 78 71 24 51 79 72 
	8 50 20 57 78 51 21 58 79 
	8 71 78 64 41 72 79 65 42 
	8 78 57 34 64 79 58 35 65 
	8 24 51 79 72 23 52 80 73 
	8 51 21 58 79 52 22 59 80 
	8 72 79 65 42 73 80 66 43 
	8 79 58 35 65 80 59 36 66 
	8 23 52 80 73 4 12 45 15 
	8 52 22 59 80 12 5 13 45 
	8 73 80 66 43 15 45 14 7 
	8 80 59 36 66 45 13 6 14 

CELL_TYPES 32
	12
	12
	12
	12
	12
	12
	12
	12
	12
	12
	12
	12
	12
	12
	12
	12
	12
	12
	12
	12
	12
	12
	12
	12
	12
	12
	12
	12
	12
	12
	12
	12

POINT_DATA 90
FIELD U 1
	U 3 90 double
		 0.00000000E+00	 0.00000000E+00	 0.00000000E+00
		 0.00000000E+00	 0.00000000E+00	 0.00000000E+00
		 0.00000000E+00	 0.00000000E+00	 0.00000000E+00
		 0.00000000E+00	 0.00000000E+00	 0.00000000E+00
		 3.95069000E-02	 3.95069000E-02	 3.69317000E+00
		-3.95069000E-02	 3.95069000E-02	 3.69317000E+00
		-3.95069000E-02	-3.95069000E-02	 3.69317000E+00
		 3.95069000E-02	-3.95069000E-02	 3.69317000E+00
		 0.00000000E+00	 0.00000000E+00	 0.00000000E+00
		 0.00000000E+00	 0.00000000E+00	 0.00000000E+00
		 0.00000000E+00	 0.00000000E+00	 0.00000000E+00
		 0.00000000E+00	 0.00000000E+00	 0.00000000E+00
		 8.52932000E-13	 2.34086000E-02	 3.42371000E+00
		-2.34086000E-02	 7.88354000E-13	 3.42371000E+00
		 8.92060000E-13	-2.34086000E-02	 3.42371000E+00
		 2.34086000E-02	 8.27740000E-13	 3.42371000E+00
		-8.24414000E-02	 8.24414000E-02	 4.35572000E-01
		-6.99543000E-02	 6.99543000E-02	 9.05998000E-01
		-7.14760000E-02	 7.14760000E-02	 1.38474000E+00
		-7.20135000E-02	 7.20135000E-02	 1.86080000E+00
		-6.94768000E-02	 6.94768000E-02	 2.33478000E+00
		-7.57606000E-02	 7.57606000E-02	 2.81912000E+00
		-6.97539000E-02	 6.97539000E-02	 3.28253000E+00
		 6.97539000E-02	 6.97539000E-02	 3.28253000E+00
		 7.57606000E-02	 7.57606000E-02	 2.81912000E+00
		 6.94768000E-02	 6.94768000E-02	 2.33478000E+00
		 7.20135000E-02	 7.20135000E-02	 1.86080000E+00
		 7.14760000E-02	 7.14760000E-02	 1.38474000E+00
		 6.99543000E-02	 6.99543000E-02	 9.05998000E-01
		 8.24414000E-02	 8.24414000E-02	 4.35572000E-01
		-8.24414000E-02	-8.24414000E-02	 4.35572000E-01
		-6.99543000E-02	-6.99543000E-02	 9.05998000E-01
		-7.14760000E-02	-7.14760000E-02	 1.38474000E+00
		-7.20135000E-02	-7.20135000E-02	 1.86080000E+00
		-6.94768000E-02	-6.94768000E-02	 2.33478000E+00
		-7.57606000E-02	-7.57606000E-02	 2.81912000E+00
		-6.97539000E-02	-6.97539000E-02	 3.28253000E+00
		 8.24414000E-02	-8.24414000E-02	 4.35572000E-01
		 6.99543000E-02	-6.99543000E-02	 9.05998000E-01
		 7.14760000E-02	-7.14760000E-02	 1.38474000E+00
		 7.20135000E-02	-7.20135000E-02	 1.86080000E+00
		 6.94768000E-02	-6.94768000E-02	 2.33478000E+00
		 7.57606000E-02	-7.57606000E-02	 2.81912000E+00
		 6.97539000E-02	-6.97539000E-02	 3.28253000E+00
		 0.00000000E+00	 0.00000000E+00	 0.00000000E+00
		 8.72357000E-13	 8.08092000E-13	 4.52043000E+00
		 1.88051000E-14	 8.24653000E-02	 4.24438000E-01
		 8.05050000E-14	 7.05300000E-02	 9.09050000E-01
		 1.75701000E-13	 7.14394000E-02	 1.38414000E+00
		 2.94154000E-13	 7.07662000E-02	 1.86054000E+00
		 4.25240000E-13	 7.51077000E-02	 2.33808000E+00
		 5.63189000E-13	 5.54595000E-02	 2.80025000E+00
		 7.05686000E-13	 1.23106000E-01	 3.36379000E+00
		-8.24653000E-02	 1.95055000E-14	 4.24438000E-01
		-7.05300000E-02	 8.13932000E-14	 9.09050000E-01
		-7.14394000E-02	 1.73284000E-13	 1.38414000E+00
		-7.07662000E-02	 2.84378000E-13	 1.86054000E+00
		-7.51077000E-02	 4.06607000E-13	 2.33808000E+00
		-5.54595000E-02	 5.34083000E-13	 2.80025000E+00
		-1.23106000E-01	 6.61614000E-13	 3.36379000E+00
		 2.60917000E-14	-8.24653000E-02	 4.24438000E-01
		 9.50871000E-14	-7.05300000E-02	 9.09050000E-01
		 1.96278000E-13	-7.14394000E-02	 1.38414000E+00
		 3.20730000E-13	-7.07662000E-02	 1.86054000E+00
		 4.57110000E-13	-7.51077000E-02	 2.33808000E+00
		 5.97992000E-13	-5.54595000E-02	 2.80025000E+00
		 7.43530000E-13	-1.23106000E-01	 3.36379000E+00
		 8.24653000E-02	 2.67911000E-14	 4.24438000E-01
		 7.05300000E-02	 9.59788000E-14	 9.09050000E-01
		 7.14394000E-02	 1.94170000E-13	 1.38414000E+00
		 7.07662000E-02	 3.10973000E-13	 1.86054000E+00
		 7.51077000E-02	 4.38469000E-13	 2.33808000E+00
		 5.54595000E-02	 5.69315000E-13	 2.80025000E+00
		 1.23106000E-01	 6.99100000E-13	 3.36379000E+00
		 2.43048000E-14	 2.50306000E-14	 4.13215000E-01
		 8.90783000E-14	 8.97206000E-14	 9.12058000E-01
		 1.86844000E-13	 1.84566000E-13	 1.38394000E+00
		 3.07907000E-13	 2.98199000E-13	 1.85979000E+00
		 4.41191000E-13	 4.22659000E-13	 2.33834000E+00
		 5.80976000E-13	 5.51809000E-13	 2.81743000E+00
		 7.24758000E-13	 6.80331000E-13	 3.19746000E+00
		-7.20135000E-02	 7.20135000E-02	 1.86080000E+00
		 7.20135000E-02	 7.20135000E-02	 1.86080000E+00
		-7.20135000E-02	-7.20135000E-02	 1.86080000E+00
		 7.20135000E-02	-7.20135000E-02	 1.86080000E+00
		 2.94154000E-13	 7.07662000E-02	 1.86054000E+00
		-7.07662000E-02	 2.84378000E-13	 1.86054000E+00
		 3.20730000E-13	-7.07662000E-02	 1.86054000E+00
		 7.07662000E-02	 3.10973000E-13	 1.86054000E+00
		 3.07907000E-13	 2.98199000E-13	 1.85979000E+00
