# vtk DataFile Version 3.0

ASCII
DATASET UNSTRUCTURED_GRID

POINTS 261 double
	 0.00000000E+00	 0.00000000E+00	 0.00000000E+00
	 1.00000000E+00	 0.00000000E+00	 0.00000000E+00
	 1.00000000E+00	 1.50000000E+00	 0.00000000E+00
	 0.00000000E+00	 1.50000000E+00	 0.00000000E+00
	 0.00000000E+00	 0.00000000E+00	 8.00000000E+00
	 1.00000000E+00	 0.00000000E+00	 8.00000000E+00
	 1.00000000E+00	 1.50000000E+00	 8.00000000E+00
	 0.00000000E+00	 1.50000000E+00	 8.00000000E+00
	 2.50000000E-01	 0.00000000E+00	 0.00000000E+00
	 5.00000000E-01	 0.00000000E+00	 0.00000000E+00
	 7.50000000E-01	 0.00000000E+00	 0.00000000E+00
	 1.00000000E+00	 3.75000000E-01	 0.00000000E+00
	 1.00000000E+00	 7.50000000E-01	 0.00000000E+00
	 1.00000000E+00	 1.12500000E+00	 0.00000000E+00
	 7.50000000E-01	 1.50000000E+00	 0.00000000E+00
	 5.00000000E-01	 1.50000000E+00	 0.00000000E+00
	 2.50000000E-01	 1.50000000E+00	 0.00000000E+00
	 0.00000000E+00	 1.12500000E+00	 0.00000000E+00
	 0.00000000E+00	 7.50000000E-01	 0.00000000E+00
	 0.00000000E+00	 3.75000000E-01	 0.00000000E+00
	 2.50000000E-01	 0.00000000E+00	 8.00000000E+00
	 5.00000000E-01	 0.00000000E+00	 8.00000000E+00
	 7.50000000E-01	 0.00000000E+00	 8.00000000E+00
	 1.00000000E+00	 3.75000000E-01	 8.00000000E+00
	 1.00000000E+00	 7.50000000E-01	 8.00000000E+00
	 1.00000000E+00	 1.12500000E+00	 8.00000000E+00
	 7.50000000E-01	 1.50000000E+00	 8.00000000E+00
	 5.00000000E-01	 1.50000000E+00	 8.00000000E+00
	 2.50000000E-01	 1.50000000E+00	 8.00000000E+00
	 0.00000000E+00	 1.12500000E+00	 8.00000000E+00
	 0.00000000E+00	 7.50000000E-01	 8.00000000E+00
	 0.00000000E+00	 3.75000000E-01	 8.00000000E+00
	 1.00000000E+00	 0.00000000E+00	 5.00000000E-01
	 1.00000000E+00	 0.00000000E+00	 1.00000000E+00
	 1.00000000E+00	 0.00000000E+00	 1.50000000E+00
	 1.00000000E+00	 0.00000000E+00	 2.00000000E+00
	 1.00000000E+00	 0.00000000E+00	 2.50000000E+00
	 1.00000000E+00	 0.00000000E+00	 3.00000000E+00
	 1.00000000E+00	 0.00000000E+00	 3.50000000E+00
	 1.00000000E+00	 0.00000000E+00	 4.00000000E+00
	 1.00000000E+00	 0.00000000E+00	 4.50000000E+00
	 1.00000000E+00	 0.00000000E+00	 5.00000000E+00
	 1.00000000E+00	 0.00000000E+00	 5.50000000E+00
	 1.00000000E+00	 0.00000000E+00	 6.00000000E+00
	 1.00000000E+00	 0.00000000E+00	 6.50000000E+00
	 1.00000000E+00	 0.00000000E+00	 7.00000000E+00
	 1.00000000E+00	 0.00000000E+00	 7.50000000E+00
	 0.00000000E+00	 0.00000000E+00	 7.50000000E+00
	 0.00000000E+00	 0.00000000E+00	 7.00000000E+00
	 0.00000000E+00	 0.00000000E+00	 6.50000000E+00
	 0.00000000E+00	 0.00000000E+00	 6.00000000E+00
	 0.00000000E+00	 0.00000000E+00	 5.50000000E+00
	 0.00000000E+00	 0.00000000E+00	 5.00000000E+00
	 0.00000000E+00	 0.00000000E+00	 4.50000000E+00
	 0.00000000E+00	 0.00000000E+00	 4.00000000E+00
	 0.00000000E+00	 0.00000000E+00	 3.50000000E+00
	 0.00000000E+00	 0.00000000E+00	 3.00000000E+00
	 0.00000000E+00	 0.00000000E+00	 2.50000000E+00
	 0.00000000E+00	 0.00000000E+00	 2.00000000E+00
	 0.00000000E+00	 0.00000000E+00	 1.50000000E+00
	 0.00000000E+00	 0.00000000E+00	 1.00000000E+00
	 0.00000000E+00	 0.00000000E+00	 5.00000000E-01
	 1.00000000E+00	 1.50000000E+00	 5.00000000E-01
	 1.00000000E+00	 1.50000000E+00	 1.00000000E+00
	 1.00000000E+00	 1.50000000E+00	 1.50000000E+00
	 1.00000000E+00	 1.50000000E+00	 2.00000000E+00
	 1.00000000E+00	 1.50000000E+00	 2.50000000E+00
	 1.00000000E+00	 1.50000000E+00	 3.00000000E+00
	 1.00000000E+00	 1.50000000E+00	 3.50000000E+00
	 1.00000000E+00	 1.50000000E+00	 4.00000000E+00
	 1.00000000E+00	 1.50000000E+00	 4.50000000E+00
	 1.00000000E+00	 1.50000000E+00	 5.00000000E+00
	 1.00000000E+00	 1.50000000E+00	 5.50000000E+00
	 1.00000000E+00	 1.50000000E+00	 6.00000000E+00
	 1.00000000E+00	 1.50000000E+00	 6.50000000E+00
	 1.00000000E+00	 1.50000000E+00	 7.00000000E+00
	 1.00000000E+00	 1.50000000E+00	 7.50000000E+00
	 0.00000000E+00	 1.50000000E+00	 5.00000000E-01
	 0.00000000E+00	 1.50000000E+00	 1.00000000E+00
	 0.00000000E+00	 1.50000000E+00	 1.50000000E+00
	 0.00000000E+00	 1.50000000E+00	 2.00000000E+00
	 0.00000000E+00	 1.50000000E+00	 2.50000000E+00
	 0.00000000E+00	 1.50000000E+00	 3.00000000E+00
	 0.00000000E+00	 1.50000000E+00	 3.50000000E+00
	 0.00000000E+00	 1.50000000E+00	 4.00000000E+00
	 0.00000000E+00	 1.50000000E+00	 4.50000000E+00
	 0.00000000E+00	 1.50000000E+00	 5.00000000E+00
	 0.00000000E+00	 1.50000000E+00	 5.50000000E+00
	 0.00000000E+00	 1.50000000E+00	 6.00000000E+00
	 0.00000000E+00	 1.50000000E+00	 6.50000000E+00
	 0.00000000E+00	 1.50000000E+00	 7.00000000E+00
	 0.00000000E+00	 1.50000000E+00	 7.50000000E+00
	 5.00000000E-01	 3.75000000E-01	 0.00000000E+00
	 2.50000000E-01	 7.50000000E-01	 0.00000000E+00
	 5.00000000E-01	 7.50000000E-01	 0.00000000E+00
	 7.50000000E-01	 7.50000000E-01	 0.00000000E+00
	 5.00000000E-01	 1.12500000E+00	 0.00000000E+00
	 5.00000000E-01	 3.75000000E-01	 8.00000000E+00
	 2.50000000E-01	 7.50000000E-01	 8.00000000E+00
	 5.00000000E-01	 7.50000000E-01	 8.00000000E+00
	 7.50000000E-01	 7.50000000E-01	 8.00000000E+00
	 5.00000000E-01	 1.12500000E+00	 8.00000000E+00
	 5.00000000E-01	 0.00000000E+00	 5.00000000E-01
	 2.50000000E-01	 0.00000000E+00	 1.00000000E+00
	 5.00000000E-01	 0.00000000E+00	 1.00000000E+00
	 7.50000000E-01	 0.00000000E+00	 1.00000000E+00
	 5.00000000E-01	 0.00000000E+00	 1.50000000E+00
	 2.50000000E-01	 0.00000000E+00	 2.00000000E+00
	 5.00000000E-01	 0.00000000E+00	 2.00000000E+00
	 7.50000000E-01	 0.00000000E+00	 2.00000000E+00
	 5.00000000E-01	 0.00000000E+00	 2.50000000E+00
	 2.50000000E-01	 0.00000000E+00	 3.00000000E+00
	 5.00000000E-01	 0.00000000E+00	 3.00000000E+00
	 7.50000000E-01	 0.00000000E+00	 3.00000000E+00
	 5.00000000E-01	 0.00000000E+00	 3.50000000E+00
	 2.50000000E-01	 0.00000000E+00	 4.00000000E+00
	 5.00000000E-01	 0.00000000E+00	 4.00000000E+00
	 7.50000000E-01	 0.00000000E+00	 4.00000000E+00
	 5.00000000E-01	 0.00000000E+00	 4.50000000E+00
	 2.50000000E-01	 0.00000000E+00	 5.00000000E+00
	 5.00000000E-01	 0.00000000E+00	 5.00000000E+00
	 7.50000000E-01	 0.00000000E+00	 5.00000000E+00
	 5.00000000E-01	 0.00000000E+00	 5.50000000E+00
	 2.50000000E-01	 0.00000000E+00	 6.00000000E+00
	 5.00000000E-01	 0.00000000E+00	 6.00000000E+00
	 7.50000000E-01	 0.00000000E+00	 6.00000000E+00
	 5.00000000E-01	 0.00000000E+00	 6.50000000E+00
	 2.50000000E-01	 0.00000000E+00	 7.00000000E+00
	 5.00000000E-01	 0.00000000E+00	 7.00000000E+00
	 7.50000000E-01	 0.00000000E+00	 7.00000000E+00
	 5.00000000E-01	 0.00000000E+00	 7.50000000E+00
	 1.00000000E+00	 7.50000000E-01	 5.00000000E-01
	 1.00000000E+00	 3.75000000E-01	 1.00000000E+00
	 1.00000000E+00	 7.50000000E-01	 1.00000000E+00
	 1.00000000E+00	 1.12500000E+00	 1.00000000E+00
	 1.00000000E+00	 7.50000000E-01	 1.50000000E+00
	 1.00000000E+00	 3.75000000E-01	 2.00000000E+00
	 1.00000000E+00	 7.50000000E-01	 2.00000000E+00
	 1.00000000E+00	 1.12500000E+00	 2.00000000E+00
	 1.00000000E+00	 7.50000000E-01	 2.50000000E+00
	 1.00000000E+00	 3.75000000E-01	 3.00000000E+00
	 1.00000000E+00	 7.50000000E-01	 3.00000000E+00
	 1.00000000E+00	 1.12500000E+00	 3.00000000E+00
	 1.00000000E+00	 7.50000000E-01	 3.50000000E+00
	 1.00000000E+00	 3.75000000E-01	 4.00000000E+00
	 1.00000000E+00	 7.50000000E-01	 4.00000000E+00
	 1.00000000E+00	 1.12500000E+00	 4.00000000E+00
	 1.00000000E+00	 7.50000000E-01	 4.50000000E+00
	 1.00000000E+00	 3.75000000E-01	 5.00000000E+00
	 1.00000000E+00	 7.50000000E-01	 5.00000000E+00
	 1.00000000E+00	 1.12500000E+00	 5.00000000E+00
	 1.00000000E+00	 7.50000000E-01	 5.50000000E+00
	 1.00000000E+00	 3.75000000E-01	 6.00000000E+00
	 1.00000000E+00	 7.50000000E-01	 6.00000000E+00
	 1.00000000E+00	 1.12500000E+00	 6.00000000E+00
	 1.00000000E+00	 7.50000000E-01	 6.50000000E+00
	 1.00000000E+00	 3.75000000E-01	 7.00000000E+00
	 1.00000000E+00	 7.50000000E-01	 7.00000000E+00
	 1.00000000E+00	 1.12500000E+00	 7.00000000E+00
	 1.00000000E+00	 7.50000000E-01	 7.50000000E+00
	 5.00000000E-01	 1.50000000E+00	 5.00000000E-01
	 7.50000000E-01	 1.50000000E+00	 1.00000000E+00
	 5.00000000E-01	 1.50000000E+00	 1.00000000E+00
	 2.50000000E-01	 1.50000000E+00	 1.00000000E+00
	 5.00000000E-01	 1.50000000E+00	 1.50000000E+00
	 7.50000000E-01	 1.50000000E+00	 2.00000000E+00
	 5.00000000E-01	 1.50000000E+00	 2.00000000E+00
	 2.50000000E-01	 1.50000000E+00	 2.00000000E+00
	 5.00000000E-01	 1.50000000E+00	 2.50000000E+00
	 7.50000000E-01	 1.50000000E+00	 3.00000000E+00
	 5.00000000E-01	 1.50000000E+00	 3.00000000E+00
	 2.50000000E-01	 1.50000000E+00	 3.00000000E+00
	 5.00000000E-01	 1.50000000E+00	 3.50000000E+00
	 7.50000000E-01	 1.50000000E+00	 4.00000000E+00
	 5.00000000E-01	 1.50000000E+00	 4.00000000E+00
	 2.50000000E-01	 1.50000000E+00	 4.00000000E+00
	 5.00000000E-01	 1.50000000E+00	 4.50000000E+00
	 7.50000000E-01	 1.50000000E+00	 5.00000000E+00
	 5.00000000E-01	 1.50000000E+00	 5.00000000E+00
	 2.50000000E-01	 1.50000000E+00	 5.00000000E+00
	 5.00000000E-01	 1.50000000E+00	 5.50000000E+00
	 7.50000000E-01	 1.50000000E+00	 6.00000000E+00
	 5.00000000E-01	 1.50000000E+00	 6.00000000E+00
	 2.50000000E-01	 1.50000000E+00	 6.00000000E+00
	 5.00000000E-01	 1.50000000E+00	 6.50000000E+00
	 7.50000000E-01	 1.50000000E+00	 7.00000000E+00
	 5.00000000E-01	 1.50000000E+00	 7.00000000E+00
	 2.50000000E-01	 1.50000000E+00	 7.00000000E+00
	 5.00000000E-01	 1.50000000E+00	 7.50000000E+00
	 0.00000000E+00	 7.50000000E-01	 5.00000000E-01
	 0.00000000E+00	 1.12500000E+00	 1.00000000E+00
	 0.00000000E+00	 7.50000000E-01	 1.00000000E+00
	 0.00000000E+00	 3.75000000E-01	 1.00000000E+00
	 0.00000000E+00	 7.50000000E-01	 1.50000000E+00
	 0.00000000E+00	 1.12500000E+00	 2.00000000E+00
	 0.00000000E+00	 7.50000000E-01	 2.00000000E+00
	 0.00000000E+00	 3.75000000E-01	 2.00000000E+00
	 0.00000000E+00	 7.50000000E-01	 2.50000000E+00
	 0.00000000E+00	 1.12500000E+00	 3.00000000E+00
	 0.00000000E+00	 7.50000000E-01	 3.00000000E+00
	 0.00000000E+00	 3.75000000E-01	 3.00000000E+00
	 0.00000000E+00	 7.50000000E-01	 3.50000000E+00
	 0.00000000E+00	 1.12500000E+00	 4.00000000E+00
	 0.00000000E+00	 7.50000000E-01	 4.00000000E+00
	 0.00000000E+00	 3.75000000E-01	 4.00000000E+00
	 0.00000000E+00	 7.50000000E-01	 4.50000000E+00
	 0.00000000E+00	 1.12500000E+00	 5.00000000E+00
	 0.00000000E+00	 7.50000000E-01	 5.00000000E+00
	 0.00000000E+00	 3.75000000E-01	 5.00000000E+00
	 0.00000000E+00	 7.50000000E-01	 5.50000000E+00
	 0.00000000E+00	 1.12500000E+00	 6.00000000E+00
	 0.00000000E+00	 7.50000000E-01	 6.00000000E+00
	 0.00000000E+00	 3.75000000E-01	 6.00000000E+00
	 0.00000000E+00	 7.50000000E-01	 6.50000000E+00
	 0.00000000E+00	 1.12500000E+00	 7.00000000E+00
	 0.00000000E+00	 7.50000000E-01	 7.00000000E+00
	 0.00000000E+00	 3.75000000E-01	 7.00000000E+00
	 0.00000000E+00	 7.50000000E-01	 7.50000000E+00
	 5.00000000E-01	 7.50000000E-01	 5.00000000E-01
	 5.00000000E-01	 3.75000000E-01	 1.00000000E+00
	 2.50000000E-01	 7.50000000E-01	 1.00000000E+00
	 5.00000000E-01	 7.50000000E-01	 1.00000000E+00
	 7.50000000E-01	 7.50000000E-01	 1.00000000E+00
	 5.00000000E-01	 1.12500000E+00	 1.00000000E+00
	 5.00000000E-01	 7.50000000E-01	 1.50000000E+00
	 5.00000000E-01	 3.75000000E-01	 2.00000000E+00
	 2.50000000E-01	 7.50000000E-01	 2.00000000E+00
	 5.00000000E-01	 7.50000000E-01	 2.00000000E+00
	 7.50000000E-01	 7.50000000E-01	 2.00000000E+00
	 5.00000000E-01	 1.12500000E+00	 2.00000000E+00
	 5.00000000E-01	 7.50000000E-01	 2.50000000E+00
	 5.00000000E-01	 3.75000000E-01	 3.00000000E+00
	 2.50000000E-01	 7.50000000E-01	 3.00000000E+00
	 5.00000000E-01	 7.50000000E-01	 3.00000000E+00
	 7.50000000E-01	 7.50000000E-01	 3.00000000E+00
	 5.00000000E-01	 1.12500000E+00	 3.00000000E+00
	 5.00000000E-01	 7.50000000E-01	 3.50000000E+00
	 5.00000000E-01	 3.75000000E-01	 4.00000000E+00
	 2.50000000E-01	 7.50000000E-01	 4.00000000E+00
	 5.00000000E-01	 7.50000000E-01	 4.00000000E+00
	 7.50000000E-01	 7.50000000E-01	 4.00000000E+00
	 5.00000000E-01	 1.12500000E+00	 4.00000000E+00
	 5.00000000E-01	 7.50000000E-01	 4.50000000E+00
	 5.00000000E-01	 3.75000000E-01	 5.00000000E+00
	 2.50000000E-01	 7.50000000E-01	 5.00000000E+00
	 5.00000000E-01	 7.50000000E-01	 5.00000000E+00
	 7.50000000E-01	 7.50000000E-01	 5.00000000E+00
	 5.00000000E-01	 1.12500000E+00	 5.00000000E+00
	 5.00000000E-01	 7.50000000E-01	 5.50000000E+00
	 5.00000000E-01	 3.75000000E-01	 6.00000000E+00
	 2.50000000E-01	 7.50000000E-01	 6.00000000E+00
	 5.00000000E-01	 7.50000000E-01	 6.00000000E+00
	 7.50000000E-01	 7.50000000E-01	 6.00000000E+00
	 5.00000000E-01	 1.12500000E+00	 6.00000000E+00
	 5.00000000E-01	 7.50000000E-01	 6.50000000E+00
	 5.00000000E-01	 3.75000000E-01	 7.00000000E+00
	 2.50000000E-01	 7.50000000E-01	 7.00000000E+00
	 5.00000000E-01	 7.50000000E-01	 7.00000000E+00
	 7.50000000E-01	 7.50000000E-01	 7.00000000E+00
	 5.00000000E-01	 1.12500000E+00	 7.00000000E+00
	 5.00000000E-01	 7.50000000E-01	 7.50000000E+00

CELLS 32 672
	20 0 9 94 18 60 104 221 191 8 92 93 19 103 219 220 192 61 102 218 189 
	20 9 1 12 94 104 33 133 221 10 11 95 92 105 132 222 219 102 32 131 218 
	20 18 94 15 3 191 221 162 78 93 96 16 17 220 223 163 190 189 218 160 77 
	20 94 12 2 15 221 133 63 162 95 13 14 96 222 134 161 223 218 131 62 160 
	20 60 104 221 191 58 108 227 195 103 219 220 192 107 225 226 196 59 106 224 193 
	20 104 33 133 221 108 35 137 227 105 132 222 219 109 136 228 225 106 34 135 224 
	20 191 221 162 78 195 227 166 80 220 223 163 190 226 229 167 194 193 224 164 79 
	20 221 133 63 162 227 137 65 166 222 134 161 223 228 138 165 229 224 135 64 164 
	20 58 108 227 195 56 112 233 199 107 225 226 196 111 231 232 200 57 110 230 197 
	20 108 35 137 227 112 37 141 233 109 136 228 225 113 140 234 231 110 36 139 230 
	20 195 227 166 80 199 233 170 82 226 229 167 194 232 235 171 198 197 230 168 81 
	20 227 137 65 166 233 141 67 170 228 138 165 229 234 142 169 235 230 139 66 168 
	20 56 112 233 199 54 116 239 203 111 231 232 200 115 237 238 204 55 114 236 201 
	20 112 37 141 233 116 39 145 239 113 140 234 231 117 144 240 237 114 38 143 236 
	20 199 233 170 82 203 239 174 84 232 235 171 198 238 241 175 202 201 236 172 83 
	20 233 141 67 170 239 145 69 174 234 142 169 235 240 146 173 241 236 143 68 172 
	20 54 116 239 203 52 120 245 207 115 237 238 204 119 243 244 208 53 118 242 205 
	20 116 39 145 239 120 41 149 245 117 144 240 237 121 148 246 243 118 40 147 242 
	20 203 239 174 84 207 245 178 86 238 241 175 202 244 247 179 206 205 242 176 85 
	20 239 145 69 174 245 149 71 178 240 146 173 241 246 150 177 247 242 147 70 176 
	20 52 120 245 207 50 124 251 211 119 243 244 208 123 249 250 212 51 122 248 209 
	20 120 41 149 245 124 43 153 251 121 148 246 243 125 152 252 249 122 42 151 248 
	20 207 245 178 86 211 251 182 88 244 247 179 206 250 253 183 210 209 248 180 87 
	20 245 149 71 178 251 153 73 182 246 150 177 247 252 154 181 253 248 151 72 180 
	20 50 124 251 211 48 128 257 215 123 249 250 212 127 255 256 216 49 126 254 213 
	20 124 43 153 251 128 45 157 257 125 152 252 249 129 156 258 255 126 44 155 254 
	20 211 251 182 88 215 257 186 90 250 253 183 210 256 259 187 214 213 254 184 89 
	20 251 153 73 182 257 157 75 186 252 154 181 253 258 158 185 259 254 155 74 184 
	20 48 128 257 215 4 21 99 30 127 255 256 216 20 97 98 31 47 130 260 217 
	20 128 45 157 257 21 5 24 99 129 156 258 255 22 23 100 97 130 46 159 260 
	20 215 257 186 90 30 99 27 7 256 259 187 214 98 101 28 29 217 260 188 91 
	20 257 157 75 186 99 24 6 27 258 158 185 259 100 25 26 101 260 159 76 188 

CELL_TYPES 32
	25
	25
	25
	25
	25
	25
	25
	25
	25
	25
	25
	25
	25
	25
	25
	25
	25
	25
	25
	25
	25
	25
	25
	25
	25
	25
	25
	25
	25
	25
	25
	25

POINT_DATA 261
FIELD U 1
	U 3 261 double
		 0.00000000E+00	 0.00000000E+00	 0.00000000E+00
		 0.00000000E+00	 0.00000000E+00	 0.00000000E+00
		 0.00000000E+00	 0.00000000E+00	 0.00000000E+00
		 0.00000000E+00	 0.00000000E+00	 0.00000000E+00
		 6.89033000E+03	-4.42967000E+03	 2.55871000E+02
		 6.89033000E+03	 4.42967000E+03	-2.55871000E+02
		-6.89033000E+03	 4.42967000E+03	 2.55871000E+02
		-6.89033000E+03	-4.42967000E+03	-2.55871000E+02
		 0.00000000E+00	 0.00000000E+00	 0.00000000E+00
		 0.00000000E+00	 0.00000000E+00	 0.00000000E+00
		 0.00000000E+00	 0.00000000E+00	 0.00000000E+00
		 0.00000000E+00	 0.00000000E+00	 0.00000000E+00
		 0.00000000E+00	 0.00000000E+00	 0.00000000E+00
		 0.00000000E+00	 0.00000000E+00	 0.00000000E+00
		 0.00000000E+00	 0.00000000E+00	 0.00000000E+00
		 0.00000000E+00	 0.00000000E+00	 0.00000000E+00
		 0.00000000E+00	 0.00000000E+00	 0.00000000E+00
		 0.00000000E+00	 0.00000000E+00	 0.00000000E+00
		 0.00000000E+00	 0.00000000E+00	 0.00000000E+00
		 0.00000000E+00	 0.00000000E+00	 0.00000000E+00
		 6.87547000E+03	-2.20415000E+03	 1.28795000E+02
		 6.85624000E+03	-7.16227000E-11	-8.18545000E-11
		 6.87547000E+03	 2.20415000E+03	-1.28795000E+02
		 3.47474000E+03	 4.40618000E+03	-1.76738000E+02
		-6.09361000E-11	 4.37647000E+03	 1.45519000E-11
		-3.47474000E+03	 4.40618000E+03	 1.76738000E+02
		-6.87547000E+03	 2.20415000E+03	 1.28795000E+02
		-6.85624000E+03	-8.00355000E-11	 4.27463000E-11
		-6.87547000E+03	-2.20415000E+03	-1.28795000E+02
		-3.47474000E+03	-4.40618000E+03	-1.76738000E+02
		-4.88427000E-11	-4.37647000E+03	-4.63842000E-11
		 3.47474000E+03	-4.40618000E+03	 1.76738000E+02
		-1.59604000E+03	-1.02637000E+03	 3.66876000E+02
		-3.36664000E+03	-2.27011000E+03	 4.03404000E+02
		-4.98786000E+03	-3.32197000E+03	 3.55207000E+02
		-6.06967000E+03	-4.04759000E+03	 2.33188000E+02
		-6.64203000E+03	-4.41157000E+03	 7.64882000E+01
		-6.61592000E+03	-4.40111000E+03	-8.42072000E+01
		-6.02832000E+03	-4.00800000E+03	-2.41479000E+02
		-4.89287000E+03	-3.25287000E+03	-3.69191000E+02
		-3.33336000E+03	-2.21591000E+03	-4.76886000E+02
		-1.47519000E+03	-9.80558000E+02	-5.27769000E+02
		 5.10281000E+02	 3.38913000E+02	-5.48043000E+02
		 2.45195000E+03	 1.63099000E+03	-5.04352000E+02
		 4.18169000E+03	 2.78250000E+03	-4.36442000E+02
		 5.54632000E+03	 3.68434000E+03	-3.31384000E+02
		 6.43294000E+03	 4.26340000E+03	-2.59124000E+02
		 6.43294000E+03	-4.26340000E+03	 2.59124000E+02
		 5.54632000E+03	-3.68434000E+03	 3.31384000E+02
		 4.18169000E+03	-2.78250000E+03	 4.36442000E+02
		 2.45195000E+03	-1.63099000E+03	 5.04352000E+02
		 5.10281000E+02	-3.38913000E+02	 5.48043000E+02
		-1.47519000E+03	 9.80558000E+02	 5.27769000E+02
		-3.33336000E+03	 2.21591000E+03	 4.76886000E+02
		-4.89287000E+03	 3.25287000E+03	 3.69191000E+02
		-6.02832000E+03	 4.00800000E+03	 2.41479000E+02
		-6.61592000E+03	 4.40111000E+03	 8.42072000E+01
		-6.64203000E+03	 4.41157000E+03	-7.64882000E+01
		-6.06967000E+03	 4.04759000E+03	-2.33188000E+02
		-4.98786000E+03	 3.32197000E+03	-3.55207000E+02
		-3.36664000E+03	 2.27011000E+03	-4.03404000E+02
		-1.59604000E+03	 1.02637000E+03	-3.66876000E+02
		 1.59604000E+03	-1.02637000E+03	-3.66876000E+02
		 3.36664000E+03	-2.27011000E+03	-4.03404000E+02
		 4.98786000E+03	-3.32197000E+03	-3.55207000E+02
		 6.06967000E+03	-4.04759000E+03	-2.33188000E+02
		 6.64203000E+03	-4.41157000E+03	-7.64882000E+01
		 6.61592000E+03	-4.40111000E+03	 8.42072000E+01
		 6.02832000E+03	-4.00800000E+03	 2.41479000E+02
		 4.89287000E+03	-3.25287000E+03	 3.69191000E+02
		 3.33336000E+03	-2.21591000E+03	 4.76886000E+02
		 1.47519000E+03	-9.80558000E+02	 5.27769000E+02
		-5.10281000E+02	 3.38913000E+02	 5.48043000E+02
		-2.45195000E+03	 1.63099000E+03	 5.04352000E+02
		-4.18169000E+03	 2.78250000E+03	 4.36442000E+02
		-5.54632000E+03	 3.68434000E+03	 3.31384000E+02
		-6.43294000E+03	 4.26340000E+03	 2.59124000E+02
		 1.59604000E+03	 1.02637000E+03	 3.66876000E+02
		 3.36664000E+03	 2.27011000E+03	 4.03404000E+02
		 4.98786000E+03	 3.32197000E+03	 3.55207000E+02
		 6.06967000E+03	 4.04759000E+03	 2.33188000E+02
		 6.64203000E+03	 4.41157000E+03	 7.64882000E+01
		 6.61592000E+03	 4.40111000E+03	-8.42072000E+01
		 6.02832000E+03	 4.00800000E+03	-2.41479000E+02
		 4.89287000E+03	 3.25287000E+03	-3.69191000E+02
		 3.33336000E+03	 2.21591000E+03	-4.76886000E+02
		 1.47519000E+03	 9.80558000E+02	-5.27769000E+02
		-5.10281000E+02	-3.38913000E+02	-5.48043000E+02
		-2.45195000E+03	-1.63099000E+03	-5.04352000E+02
		-4.18169000E+03	-2.78250000E+03	-4.36442000E+02
		-5.54632000E+03	-3.68434000E+03	-3.31384000E+02
		-6.43294000E+03	-4.26340000E+03	-2.59124000E+02
		 0.00000000E+00	 0.00000000E+00	 0.00000000E+00
		 0.00000000E+00	 0.00000000E+00	 0.00000000E+00
		 0.00000000E+00	 0.00000000E+00	 0.00000000E+00
		 0.00000000E+00	 0.00000000E+00	 0.00000000E+00
		 0.00000000E+00	 0.00000000E+00	 0.00000000E+00
		 3.46473000E+03	-9.52696000E-11	-6.13909000E-11
		-6.11635000E-11	-2.15524000E+03	-2.81943000E-11
		-2.56932000E-11	-7.13953000E-11	-2.13731000E-11
		-2.34195000E-11	 2.15524000E+03	-1.70530000E-11
		-3.46473000E+03	-8.77662000E-11	 1.81899000E-12
		-1.58633000E+03	-2.81943000E-11	-1.75646000E-11
		-3.39104000E+03	 1.13775000E+03	 3.68136000E+01
		-3.42665000E+03	-5.54792000E-11	-2.75691000E-11
		-3.39104000E+03	-1.13775000E+03	-3.68136000E+01
		-4.94943000E+03	-7.63691000E-11	-1.88720000E-11
		-6.09048000E+03	 2.01691000E+03	-4.58481000E+01
		-6.08618000E+03	-8.82210000E-11	-5.22959000E-12
		-6.09048000E+03	-2.01691000E+03	 4.58481000E+01
		-6.63329000E+03	-8.89031000E-11	 5.00222000E-12
		-6.63051000E+03	 2.19522000E+03	 1.45417000E+01
		-6.62619000E+03	-6.44036000E-11	 2.54090000E-11
		-6.63051000E+03	-2.19522000E+03	-1.45417000E+01
		-6.01983000E+03	-4.60147000E-11	 2.91038000E-11
		-4.90252000E+03	 1.62200000E+03	 4.65269000E+01
		-4.89609000E+03	 1.36424000E-12	 2.75122000E-11
		-4.90252000E+03	-1.62200000E+03	-4.65269000E+01
		-3.32969000E+03	 4.14389000E-11	 1.95541000E-11
		-1.47802000E+03	 4.88899000E+02	 6.85524000E+01
		-1.47632000E+03	 4.54747000E-11	-5.45697000E-12
		-1.47802000E+03	-4.88899000E+02	-6.85524000E+01
		 5.10029000E+02	 5.36602000E-11	-2.72848000E-11
		 2.45563000E+03	-8.12962000E+02	 6.47306000E+01
		 2.45156000E+03	 4.09273000E-11	-4.95675000E-11
		 2.45563000E+03	 8.12962000E+02	-6.47306000E+01
		 4.17520000E+03	 1.59162000E-11	-5.88898000E-11
		 5.55308000E+03	-1.83914000E+03	 5.77632000E+01
		 5.54499000E+03	-6.67910000E-13	-8.49241000E-11
		 5.55308000E+03	 1.83914000E+03	-5.77632000E+01
		 6.40976000E+03	-7.81597000E-11	-1.06411000E-10
		 9.09495000E-12	-1.22317000E+03	-5.85487000E-12
		-1.68672000E+03	-2.24649000E+03	 6.02826000E+02
		 2.00089000E-11	-2.21964000E+03	-5.57066000E-12
		 1.68672000E+03	-2.24649000E+03	-6.02826000E+02
		 1.59162000E-11	-3.24285000E+03	-6.36646000E-12
		-3.03308000E+03	-4.00590000E+03	 2.67053000E+02
		 1.25056000E-11	-3.97666000E+03	-9.54969000E-12
		 3.03308000E+03	-4.00590000E+03	-2.67053000E+02
		 1.93268000E-11	-4.34215000E+03	-1.13118000E-11
		-3.31153000E+03	-4.35859000E+03	-9.99208000E+01
		 3.39639000E-11	-4.33153000E+03	-1.81899000E-11
		 3.31153000E+03	-4.35859000E+03	 9.99208000E+01
		 4.50200000E-11	-3.93579000E+03	-1.68257000E-11
		-2.44768000E+03	-3.22230000E+03	-4.55483000E+02
		 2.48122000E-11	-3.20229000E+03	-2.31921000E-11
		 2.44768000E+03	-3.22230000E+03	 4.55483000E+02
		 5.72982000E-11	-2.17715000E+03	-1.97815000E-11
		-7.38335000E+02	-9.71545000E+02	-6.48614000E+02
		 5.65024000E-11	-9.65927000E+02	-7.61702000E-12
		 7.38335000E+02	-9.71545000E+02	 6.48614000E+02
		 5.32907000E-11	 3.34291000E+02	-6.59384000E-12
		 1.22748000E+03	 1.61543000E+03	-6.21274000E+02
		 2.35332000E-11	 1.60533000E+03	-7.50333000E-12
		-1.22748000E+03	 1.61543000E+03	 6.21274000E+02
		 1.50067000E-11	 2.73313000E+03	-1.15961000E-11
		 2.76978000E+03	 3.64635000E+03	-3.89385000E+02
		 1.02318000E-11	 3.61730000E+03	-2.50111000E-12
		-2.76978000E+03	 3.64635000E+03	 3.89385000E+02
		 1.22782000E-11	 4.24558000E+03	-8.64020000E-12
		 1.58633000E+03	-2.44995000E-11	 1.45519000E-11
		 3.39104000E+03	-1.13775000E+03	 3.68136000E+01
		 3.42665000E+03	-4.88853000E-11	 2.18279000E-11
		 3.39104000E+03	 1.13775000E+03	-3.68136000E+01
		 4.94943000E+03	-7.63976000E-11	 1.24203000E-11
		 6.09048000E+03	-2.01691000E+03	-4.58481000E+01
		 6.08618000E+03	-8.45830000E-11	-2.95586000E-12
		 6.09048000E+03	 2.01691000E+03	 4.58481000E+01
		 6.63329000E+03	-8.91305000E-11	-2.28226000E-11
		 6.63051000E+03	-2.19522000E+03	 1.45417000E+01
		 6.62619000E+03	-6.01403000E-11	-3.61524000E-11
		 6.63051000E+03	 2.19522000E+03	-1.45417000E+01
		 6.01983000E+03	-4.68390000E-11	-4.41105000E-11
		 4.90252000E+03	-1.62200000E+03	 4.65269000E+01
		 4.89609000E+03	 1.36424000E-12	-4.32010000E-11
		 4.90252000E+03	 1.62200000E+03	-4.65269000E+01
		 3.32969000E+03	 2.64890000E-11	-4.54747000E-11
		 1.47802000E+03	-4.88899000E+02	 6.85524000E+01
		 1.47632000E+03	 4.68674000E-11	-3.18323000E-11
		 1.47802000E+03	 4.88899000E+02	-6.85524000E+01
		-5.10029000E+02	 5.48539000E-11	-1.81899000E-11
		-2.45563000E+03	 8.12962000E+02	 6.47306000E+01
		-2.45156000E+03	 6.82121000E-11	 6.36646000E-12
		-2.45563000E+03	-8.12962000E+02	-6.47306000E+01
		-4.17520000E+03	 2.36469000E-11	 3.51292000E-11
		-5.55308000E+03	 1.83914000E+03	 5.77632000E+01
		-5.54499000E+03	-3.47455000E-12	 3.91083000E-11
		-5.55308000E+03	-1.83914000E+03	-5.77632000E+01
		-6.40976000E+03	-1.00044000E-11	 4.09273000E-11
		 8.18545000E-12	 1.22317000E+03	 4.09273000E-12
		 1.68672000E+03	 2.24649000E+03	 6.02826000E+02
		 1.54330000E-11	 2.21964000E+03	 4.54747000E-13
		-1.68672000E+03	 2.24649000E+03	-6.02826000E+02
		 9.89075000E-12	 3.24285000E+03	-3.41061000E-12
		 3.03308000E+03	 4.00590000E+03	 2.67053000E+02
		 1.27329000E-11	 3.97666000E+03	-2.27374000E-12
		-3.03308000E+03	 4.00590000E+03	-2.67053000E+02
		 2.12594000E-11	 4.34215000E+03	 1.47793000E-12
		 3.31153000E+03	 4.35859000E+03	-9.99208000E+01
		 3.64935000E-11	 4.33153000E+03	-6.82121000E-13
		-3.31153000E+03	 4.35859000E+03	 9.99208000E+01
		 3.31966000E-11	 3.93579000E+03	 2.27374000E-12
		 2.44768000E+03	 3.22230000E+03	-4.55483000E+02
		 4.54747000E-11	 3.20229000E+03	-1.36424000E-12
		-2.44768000E+03	 3.22230000E+03	 4.55483000E+02
		 4.76916000E-11	 2.17715000E+03	-1.29603000E-11
		 7.38335000E+02	 9.71545000E+02	-6.48614000E+02
		 4.37410000E-11	 9.65927000E+02	-2.09184000E-11
		-7.38335000E+02	 9.71545000E+02	 6.48614000E+02
		 4.38831000E-11	-3.34291000E+02	-2.09184000E-11
		-1.22748000E+03	-1.61543000E+03	-6.21274000E+02
		 1.93268000E-11	-1.60533000E+03	-3.04681000E-11
		 1.22748000E+03	-1.61543000E+03	 6.21274000E+02
		 2.06910000E-11	-2.73313000E+03	-4.14957000E-11
		-2.76978000E+03	-3.64635000E+03	-3.89385000E+02
		-7.78755000E-12	-3.61730000E+03	-3.83125000E-11
		 2.76978000E+03	-3.64635000E+03	 3.89385000E+02
		 7.16227000E-12	-4.24558000E+03	-3.54703000E-11
		 9.66338000E-12	-2.31921000E-11	-2.27374000E-13
		-1.71017000E+03	-5.65024000E-11	-1.02638000E-11
		 2.08047000E-11	 1.11596000E+03	-1.36424000E-12
		 2.36469000E-11	-5.68434000E-11	-9.09495000E-13
		 2.34195000E-11	-1.11596000E+03	-2.98428000E-12
		 1.71017000E+03	-5.36602000E-11	 7.04858000E-12
		 1.75078000E-11	-7.86713000E-11	-2.04636000E-12
		-3.05504000E+03	-9.41682000E-11	-3.69482000E-12
		 1.40972000E-11	 1.97214000E+03	-5.45697000E-12
		 1.88152000E-11	-9.09495000E-11	-3.97904000E-12
		 1.77351000E-11	-1.97214000E+03	-6.59384000E-12
		 3.05504000E+03	-9.27685000E-11	-4.43379000E-12
		 1.17097000E-11	-8.56630000E-11	-5.74119000E-12
		-3.32634000E+03	-7.20775000E-11	 8.12861000E-12
		 4.19185000E-11	 2.15106000E+03	-1.81899000E-12
		 3.44471000E-11	-6.91784000E-11	-4.77485000E-12
		 2.52385000E-11	-2.15106000E+03	-1.04592000E-11
		 3.32634000E+03	-6.64642000E-11	-1.40972000E-11
		 3.55840000E-11	-3.83693000E-11	-8.64020000E-12
		-2.45773000E+03	 2.21689000E-12	 5.62750000E-12
		 6.17320000E-11	 1.58962000E+03	-8.86757000E-12
		 6.08793000E-11	-7.27596000E-12	-1.30740000E-11
		 5.01288000E-11	-1.58962000E+03	-1.96394000E-11
		 2.45773000E+03	 1.77351000E-11	-2.45564000E-11
		 5.78666000E-11	 3.49019000E-11	-1.06297000E-11
		-7.41296000E+02	 6.23004000E-11	-8.18545000E-12
		 3.12070000E-11	 4.79312000E+02	-1.75078000E-11
		 5.82361000E-11	 5.38876000E-11	-1.52340000E-11
		 6.18172000E-11	-4.79312000E+02	-1.25056000E-11
		 7.41296000E+02	 3.17186000E-11	-2.47837000E-11
		 5.11591000E-11	 8.89031000E-11	-1.73941000E-11
		 1.23138000E+03	 5.17844000E-11	-3.16049000E-11
		 3.72893000E-11	-7.95986000E+02	-2.59206000E-11
		 3.04681000E-11	 6.52562000E-11	-1.65983000E-11
		 2.85922000E-11	 7.95986000E+02	-1.15961000E-11
		-1.23138000E+03	 7.23048000E-11	-5.91172000E-12
		 1.45519000E-11	 4.77485000E-11	-2.29647000E-11
		 2.77710000E+03	 4.43094000E-11	-5.41718000E-11
		-8.69704000E-12	-1.80256000E+03	-3.16049000E-11
		 7.95808000E-13	 1.92131000E-11	-2.38316000E-11
		-4.32010000E-12	 1.80256000E+03	-7.04858000E-12
		-2.77710000E+03	 1.77351000E-11	 4.77485000E-12
		-2.91038000E-11	-6.02540000E-11	-1.72804000E-11
