# vtk DataFile Version 3.0

ASCII
DATASET UNSTRUCTURED_GRID

POINTS 261 double
	 0.00000000E+00	 0.00000000E+00	 0.00000000E+00
	 1.00000000E+00	 0.00000000E+00	 0.00000000E+00
	 1.00000000E+00	 1.00000000E+00	 0.00000000E+00
	 0.00000000E+00	 1.00000000E+00	 0.00000000E+00
	 0.00000000E+00	 0.00000000E+00	 8.00000000E+00
	 1.00000000E+00	 0.00000000E+00	 8.00000000E+00
	 1.00000000E+00	 1.00000000E+00	 8.00000000E+00
	 0.00000000E+00	 1.00000000E+00	 8.00000000E+00
	 2.50000000E-01	 0.00000000E+00	 0.00000000E+00
	 5.00000000E-01	 0.00000000E+00	 0.00000000E+00
	 7.50000000E-01	 0.00000000E+00	 0.00000000E+00
	 1.00000000E+00	 2.50000000E-01	 0.00000000E+00
	 1.00000000E+00	 5.00000000E-01	 0.00000000E+00
	 1.00000000E+00	 7.50000000E-01	 0.00000000E+00
	 7.50000000E-01	 1.00000000E+00	 0.00000000E+00
	 5.00000000E-01	 1.00000000E+00	 0.00000000E+00
	 2.50000000E-01	 1.00000000E+00	 0.00000000E+00
	 0.00000000E+00	 7.50000000E-01	 0.00000000E+00
	 0.00000000E+00	 5.00000000E-01	 0.00000000E+00
	 0.00000000E+00	 2.50000000E-01	 0.00000000E+00
	 2.50000000E-01	 0.00000000E+00	 8.00000000E+00
	 5.00000000E-01	 0.00000000E+00	 8.00000000E+00
	 7.50000000E-01	 0.00000000E+00	 8.00000000E+00
	 1.00000000E+00	 2.50000000E-01	 8.00000000E+00
	 1.00000000E+00	 5.00000000E-01	 8.00000000E+00
	 1.00000000E+00	 7.50000000E-01	 8.00000000E+00
	 7.50000000E-01	 1.00000000E+00	 8.00000000E+00
	 5.00000000E-01	 1.00000000E+00	 8.00000000E+00
	 2.50000000E-01	 1.00000000E+00	 8.00000000E+00
	 0.00000000E+00	 7.50000000E-01	 8.00000000E+00
	 0.00000000E+00	 5.00000000E-01	 8.00000000E+00
	 0.00000000E+00	 2.50000000E-01	 8.00000000E+00
	 1.00000000E+00	 0.00000000E+00	 5.00000000E-01
	 1.00000000E+00	 0.00000000E+00	 1.00000000E+00
	 1.00000000E+00	 0.00000000E+00	 1.50000000E+00
	 1.00000000E+00	 0.00000000E+00	 2.00000000E+00
	 1.00000000E+00	 0.00000000E+00	 2.50000000E+00
	 1.00000000E+00	 0.00000000E+00	 3.00000000E+00
	 1.00000000E+00	 0.00000000E+00	 3.50000000E+00
	 1.00000000E+00	 0.00000000E+00	 4.00000000E+00
	 1.00000000E+00	 0.00000000E+00	 4.50000000E+00
	 1.00000000E+00	 0.00000000E+00	 5.00000000E+00
	 1.00000000E+00	 0.00000000E+00	 5.50000000E+00
	 1.00000000E+00	 0.00000000E+00	 6.00000000E+00
	 1.00000000E+00	 0.00000000E+00	 6.50000000E+00
	 1.00000000E+00	 0.00000000E+00	 7.00000000E+00
	 1.00000000E+00	 0.00000000E+00	 7.50000000E+00
	 0.00000000E+00	 0.00000000E+00	 7.50000000E+00
	 0.00000000E+00	 0.00000000E+00	 7.00000000E+00
	 0.00000000E+00	 0.00000000E+00	 6.50000000E+00
	 0.00000000E+00	 0.00000000E+00	 6.00000000E+00
	 0.00000000E+00	 0.00000000E+00	 5.50000000E+00
	 0.00000000E+00	 0.00000000E+00	 5.00000000E+00
	 0.00000000E+00	 0.00000000E+00	 4.50000000E+00
	 0.00000000E+00	 0.00000000E+00	 4.00000000E+00
	 0.00000000E+00	 0.00000000E+00	 3.50000000E+00
	 0.00000000E+00	 0.00000000E+00	 3.00000000E+00
	 0.00000000E+00	 0.00000000E+00	 2.50000000E+00
	 0.00000000E+00	 0.00000000E+00	 2.00000000E+00
	 0.00000000E+00	 0.00000000E+00	 1.50000000E+00
	 0.00000000E+00	 0.00000000E+00	 1.00000000E+00
	 0.00000000E+00	 0.00000000E+00	 5.00000000E-01
	 1.00000000E+00	 1.00000000E+00	 5.00000000E-01
	 1.00000000E+00	 1.00000000E+00	 1.00000000E+00
	 1.00000000E+00	 1.00000000E+00	 1.50000000E+00
	 1.00000000E+00	 1.00000000E+00	 2.00000000E+00
	 1.00000000E+00	 1.00000000E+00	 2.50000000E+00
	 1.00000000E+00	 1.00000000E+00	 3.00000000E+00
	 1.00000000E+00	 1.00000000E+00	 3.50000000E+00
	 1.00000000E+00	 1.00000000E+00	 4.00000000E+00
	 1.00000000E+00	 1.00000000E+00	 4.50000000E+00
	 1.00000000E+00	 1.00000000E+00	 5.00000000E+00
	 1.00000000E+00	 1.00000000E+00	 5.50000000E+00
	 1.00000000E+00	 1.00000000E+00	 6.00000000E+00
	 1.00000000E+00	 1.00000000E+00	 6.50000000E+00
	 1.00000000E+00	 1.00000000E+00	 7.00000000E+00
	 1.00000000E+00	 1.00000000E+00	 7.50000000E+00
	 0.00000000E+00	 1.00000000E+00	 5.00000000E-01
	 0.00000000E+00	 1.00000000E+00	 1.00000000E+00
	 0.00000000E+00	 1.00000000E+00	 1.50000000E+00
	 0.00000000E+00	 1.00000000E+00	 2.00000000E+00
	 0.00000000E+00	 1.00000000E+00	 2.50000000E+00
	 0.00000000E+00	 1.00000000E+00	 3.00000000E+00
	 0.00000000E+00	 1.00000000E+00	 3.50000000E+00
	 0.00000000E+00	 1.00000000E+00	 4.00000000E+00
	 0.00000000E+00	 1.00000000E+00	 4.50000000E+00
	 0.00000000E+00	 1.00000000E+00	 5.00000000E+00
	 0.00000000E+00	 1.00000000E+00	 5.50000000E+00
	 0.00000000E+00	 1.00000000E+00	 6.00000000E+00
	 0.00000000E+00	 1.00000000E+00	 6.50000000E+00
	 0.00000000E+00	 1.00000000E+00	 7.00000000E+00
	 0.00000000E+00	 1.00000000E+00	 7.50000000E+00
	 5.00000000E-01	 2.50000000E-01	 0.00000000E+00
	 2.50000000E-01	 5.00000000E-01	 0.00000000E+00
	 5.00000000E-01	 5.00000000E-01	 0.00000000E+00
	 7.50000000E-01	 5.00000000E-01	 0.00000000E+00
	 5.00000000E-01	 7.50000000E-01	 0.00000000E+00
	 5.00000000E-01	 2.50000000E-01	 8.00000000E+00
	 2.50000000E-01	 5.00000000E-01	 8.00000000E+00
	 5.00000000E-01	 5.00000000E-01	 8.00000000E+00
	 7.50000000E-01	 5.00000000E-01	 8.00000000E+00
	 5.00000000E-01	 7.50000000E-01	 8.00000000E+00
	 5.00000000E-01	 0.00000000E+00	 5.00000000E-01
	 2.50000000E-01	 0.00000000E+00	 1.00000000E+00
	 5.00000000E-01	 0.00000000E+00	 1.00000000E+00
	 7.50000000E-01	 0.00000000E+00	 1.00000000E+00
	 5.00000000E-01	 0.00000000E+00	 1.50000000E+00
	 2.50000000E-01	 0.00000000E+00	 2.00000000E+00
	 5.00000000E-01	 0.00000000E+00	 2.00000000E+00
	 7.50000000E-01	 0.00000000E+00	 2.00000000E+00
	 5.00000000E-01	 0.00000000E+00	 2.50000000E+00
	 2.50000000E-01	 0.00000000E+00	 3.00000000E+00
	 5.00000000E-01	 0.00000000E+00	 3.00000000E+00
	 7.50000000E-01	 0.00000000E+00	 3.00000000E+00
	 5.00000000E-01	 0.00000000E+00	 3.50000000E+00
	 2.50000000E-01	 0.00000000E+00	 4.00000000E+00
	 5.00000000E-01	 0.00000000E+00	 4.00000000E+00
	 7.50000000E-01	 0.00000000E+00	 4.00000000E+00
	 5.00000000E-01	 0.00000000E+00	 4.50000000E+00
	 2.50000000E-01	 0.00000000E+00	 5.00000000E+00
	 5.00000000E-01	 0.00000000E+00	 5.00000000E+00
	 7.50000000E-01	 0.00000000E+00	 5.00000000E+00
	 5.00000000E-01	 0.00000000E+00	 5.50000000E+00
	 2.50000000E-01	 0.00000000E+00	 6.00000000E+00
	 5.00000000E-01	 0.00000000E+00	 6.00000000E+00
	 7.50000000E-01	 0.00000000E+00	 6.00000000E+00
	 5.00000000E-01	 0.00000000E+00	 6.50000000E+00
	 2.50000000E-01	 0.00000000E+00	 7.00000000E+00
	 5.00000000E-01	 0.00000000E+00	 7.00000000E+00
	 7.50000000E-01	 0.00000000E+00	 7.00000000E+00
	 5.00000000E-01	 0.00000000E+00	 7.50000000E+00
	 1.00000000E+00	 5.00000000E-01	 5.00000000E-01
	 1.00000000E+00	 2.50000000E-01	 1.00000000E+00
	 1.00000000E+00	 5.00000000E-01	 1.00000000E+00
	 1.00000000E+00	 7.50000000E-01	 1.00000000E+00
	 1.00000000E+00	 5.00000000E-01	 1.50000000E+00
	 1.00000000E+00	 2.50000000E-01	 2.00000000E+00
	 1.00000000E+00	 5.00000000E-01	 2.00000000E+00
	 1.00000000E+00	 7.50000000E-01	 2.00000000E+00
	 1.00000000E+00	 5.00000000E-01	 2.50000000E+00
	 1.00000000E+00	 2.50000000E-01	 3.00000000E+00
	 1.00000000E+00	 5.00000000E-01	 3.00000000E+00
	 1.00000000E+00	 7.50000000E-01	 3.00000000E+00
	 1.00000000E+00	 5.00000000E-01	 3.50000000E+00
	 1.00000000E+00	 2.50000000E-01	 4.00000000E+00
	 1.00000000E+00	 5.00000000E-01	 4.00000000E+00
	 1.00000000E+00	 7.50000000E-01	 4.00000000E+00
	 1.00000000E+00	 5.00000000E-01	 4.50000000E+00
	 1.00000000E+00	 2.50000000E-01	 5.00000000E+00
	 1.00000000E+00	 5.00000000E-01	 5.00000000E+00
	 1.00000000E+00	 7.50000000E-01	 5.00000000E+00
	 1.00000000E+00	 5.00000000E-01	 5.50000000E+00
	 1.00000000E+00	 2.50000000E-01	 6.00000000E+00
	 1.00000000E+00	 5.00000000E-01	 6.00000000E+00
	 1.00000000E+00	 7.50000000E-01	 6.00000000E+00
	 1.00000000E+00	 5.00000000E-01	 6.50000000E+00
	 1.00000000E+00	 2.50000000E-01	 7.00000000E+00
	 1.00000000E+00	 5.00000000E-01	 7.00000000E+00
	 1.00000000E+00	 7.50000000E-01	 7.00000000E+00
	 1.00000000E+00	 5.00000000E-01	 7.50000000E+00
	 5.00000000E-01	 1.00000000E+00	 5.00000000E-01
	 7.50000000E-01	 1.00000000E+00	 1.00000000E+00
	 5.00000000E-01	 1.00000000E+00	 1.00000000E+00
	 2.50000000E-01	 1.00000000E+00	 1.00000000E+00
	 5.00000000E-01	 1.00000000E+00	 1.50000000E+00
	 7.50000000E-01	 1.00000000E+00	 2.00000000E+00
	 5.00000000E-01	 1.00000000E+00	 2.00000000E+00
	 2.50000000E-01	 1.00000000E+00	 2.00000000E+00
	 5.00000000E-01	 1.00000000E+00	 2.50000000E+00
	 7.50000000E-01	 1.00000000E+00	 3.00000000E+00
	 5.00000000E-01	 1.00000000E+00	 3.00000000E+00
	 2.50000000E-01	 1.00000000E+00	 3.00000000E+00
	 5.00000000E-01	 1.00000000E+00	 3.50000000E+00
	 7.50000000E-01	 1.00000000E+00	 4.00000000E+00
	 5.00000000E-01	 1.00000000E+00	 4.00000000E+00
	 2.50000000E-01	 1.00000000E+00	 4.00000000E+00
	 5.00000000E-01	 1.00000000E+00	 4.50000000E+00
	 7.50000000E-01	 1.00000000E+00	 5.00000000E+00
	 5.00000000E-01	 1.00000000E+00	 5.00000000E+00
	 2.50000000E-01	 1.00000000E+00	 5.00000000E+00
	 5.00000000E-01	 1.00000000E+00	 5.50000000E+00
	 7.50000000E-01	 1.00000000E+00	 6.00000000E+00
	 5.00000000E-01	 1.00000000E+00	 6.00000000E+00
	 2.50000000E-01	 1.00000000E+00	 6.00000000E+00
	 5.00000000E-01	 1.00000000E+00	 6.50000000E+00
	 7.50000000E-01	 1.00000000E+00	 7.00000000E+00
	 5.00000000E-01	 1.00000000E+00	 7.00000000E+00
	 2.50000000E-01	 1.00000000E+00	 7.00000000E+00
	 5.00000000E-01	 1.00000000E+00	 7.50000000E+00
	 0.00000000E+00	 5.00000000E-01	 5.00000000E-01
	 0.00000000E+00	 7.50000000E-01	 1.00000000E+00
	 0.00000000E+00	 5.00000000E-01	 1.00000000E+00
	 0.00000000E+00	 2.50000000E-01	 1.00000000E+00
	 0.00000000E+00	 5.00000000E-01	 1.50000000E+00
	 0.00000000E+00	 7.50000000E-01	 2.00000000E+00
	 0.00000000E+00	 5.00000000E-01	 2.00000000E+00
	 0.00000000E+00	 2.50000000E-01	 2.00000000E+00
	 0.00000000E+00	 5.00000000E-01	 2.50000000E+00
	 0.00000000E+00	 7.50000000E-01	 3.00000000E+00
	 0.00000000E+00	 5.00000000E-01	 3.00000000E+00
	 0.00000000E+00	 2.50000000E-01	 3.00000000E+00
	 0.00000000E+00	 5.00000000E-01	 3.50000000E+00
	 0.00000000E+00	 7.50000000E-01	 4.00000000E+00
	 0.00000000E+00	 5.00000000E-01	 4.00000000E+00
	 0.00000000E+00	 2.50000000E-01	 4.00000000E+00
	 0.00000000E+00	 5.00000000E-01	 4.50000000E+00
	 0.00000000E+00	 7.50000000E-01	 5.00000000E+00
	 0.00000000E+00	 5.00000000E-01	 5.00000000E+00
	 0.00000000E+00	 2.50000000E-01	 5.00000000E+00
	 0.00000000E+00	 5.00000000E-01	 5.50000000E+00
	 0.00000000E+00	 7.50000000E-01	 6.00000000E+00
	 0.00000000E+00	 5.00000000E-01	 6.00000000E+00
	 0.00000000E+00	 2.50000000E-01	 6.00000000E+00
	 0.00000000E+00	 5.00000000E-01	 6.50000000E+00
	 0.00000000E+00	 7.50000000E-01	 7.00000000E+00
	 0.00000000E+00	 5.00000000E-01	 7.00000000E+00
	 0.00000000E+00	 2.50000000E-01	 7.00000000E+00
	 0.00000000E+00	 5.00000000E-01	 7.50000000E+00
	 5.00000000E-01	 5.00000000E-01	 5.00000000E-01
	 5.00000000E-01	 2.50000000E-01	 1.00000000E+00
	 2.50000000E-01	 5.00000000E-01	 1.00000000E+00
	 5.00000000E-01	 5.00000000E-01	 1.00000000E+00
	 7.50000000E-01	 5.00000000E-01	 1.00000000E+00
	 5.00000000E-01	 7.50000000E-01	 1.00000000E+00
	 5.00000000E-01	 5.00000000E-01	 1.50000000E+00
	 5.00000000E-01	 2.50000000E-01	 2.00000000E+00
	 2.50000000E-01	 5.00000000E-01	 2.00000000E+00
	 5.00000000E-01	 5.00000000E-01	 2.00000000E+00
	 7.50000000E-01	 5.00000000E-01	 2.00000000E+00
	 5.00000000E-01	 7.50000000E-01	 2.00000000E+00
	 5.00000000E-01	 5.00000000E-01	 2.50000000E+00
	 5.00000000E-01	 2.50000000E-01	 3.00000000E+00
	 2.50000000E-01	 5.00000000E-01	 3.00000000E+00
	 5.00000000E-01	 5.00000000E-01	 3.00000000E+00
	 7.50000000E-01	 5.00000000E-01	 3.00000000E+00
	 5.00000000E-01	 7.50000000E-01	 3.00000000E+00
	 5.00000000E-01	 5.00000000E-01	 3.50000000E+00
	 5.00000000E-01	 2.50000000E-01	 4.00000000E+00
	 2.50000000E-01	 5.00000000E-01	 4.00000000E+00
	 5.00000000E-01	 5.00000000E-01	 4.00000000E+00
	 7.50000000E-01	 5.00000000E-01	 4.00000000E+00
	 5.00000000E-01	 7.50000000E-01	 4.00000000E+00
	 5.00000000E-01	 5.00000000E-01	 4.50000000E+00
	 5.00000000E-01	 2.50000000E-01	 5.00000000E+00
	 2.50000000E-01	 5.00000000E-01	 5.00000000E+00
	 5.00000000E-01	 5.00000000E-01	 5.00000000E+00
	 7.50000000E-01	 5.00000000E-01	 5.00000000E+00
	 5.00000000E-01	 7.50000000E-01	 5.00000000E+00
	 5.00000000E-01	 5.00000000E-01	 5.50000000E+00
	 5.00000000E-01	 2.50000000E-01	 6.00000000E+00
	 2.50000000E-01	 5.00000000E-01	 6.00000000E+00
	 5.00000000E-01	 5.00000000E-01	 6.00000000E+00
	 7.50000000E-01	 5.00000000E-01	 6.00000000E+00
	 5.00000000E-01	 7.50000000E-01	 6.00000000E+00
	 5.00000000E-01	 5.00000000E-01	 6.50000000E+00
	 5.00000000E-01	 2.50000000E-01	 7.00000000E+00
	 2.50000000E-01	 5.00000000E-01	 7.00000000E+00
	 5.00000000E-01	 5.00000000E-01	 7.00000000E+00
	 7.50000000E-01	 5.00000000E-01	 7.00000000E+00
	 5.00000000E-01	 7.50000000E-01	 7.00000000E+00
	 5.00000000E-01	 5.00000000E-01	 7.50000000E+00

CELLS 32 672
	20 0 9 94 18 60 104 221 191 8 92 93 19 103 219 220 192 61 102 218 189 
	20 9 1 12 94 104 33 133 221 10 11 95 92 105 132 222 219 102 32 131 218 
	20 18 94 15 3 191 221 162 78 93 96 16 17 220 223 163 190 189 218 160 77 
	20 94 12 2 15 221 133 63 162 95 13 14 96 222 134 161 223 218 131 62 160 
	20 60 104 221 191 58 108 227 195 103 219 220 192 107 225 226 196 59 106 224 193 
	20 104 33 133 221 108 35 137 227 105 132 222 219 109 136 228 225 106 34 135 224 
	20 191 221 162 78 195 227 166 80 220 223 163 190 226 229 167 194 193 224 164 79 
	20 221 133 63 162 227 137 65 166 222 134 161 223 228 138 165 229 224 135 64 164 
	20 58 108 227 195 56 112 233 199 107 225 226 196 111 231 232 200 57 110 230 197 
	20 108 35 137 227 112 37 141 233 109 136 228 225 113 140 234 231 110 36 139 230 
	20 195 227 166 80 199 233 170 82 226 229 167 194 232 235 171 198 197 230 168 81 
	20 227 137 65 166 233 141 67 170 228 138 165 229 234 142 169 235 230 139 66 168 
	20 56 112 233 199 54 116 239 203 111 231 232 200 115 237 238 204 55 114 236 201 
	20 112 37 141 233 116 39 145 239 113 140 234 231 117 144 240 237 114 38 143 236 
	20 199 233 170 82 203 239 174 84 232 235 171 198 238 241 175 202 201 236 172 83 
	20 233 141 67 170 239 145 69 174 234 142 169 235 240 146 173 241 236 143 68 172 
	20 54 116 239 203 52 120 245 207 115 237 238 204 119 243 244 208 53 118 242 205 
	20 116 39 145 239 120 41 149 245 117 144 240 237 121 148 246 243 118 40 147 242 
	20 203 239 174 84 207 245 178 86 238 241 175 202 244 247 179 206 205 242 176 85 
	20 239 145 69 174 245 149 71 178 240 146 173 241 246 150 177 247 242 147 70 176 
	20 52 120 245 207 50 124 251 211 119 243 244 208 123 249 250 212 51 122 248 209 
	20 120 41 149 245 124 43 153 251 121 148 246 243 125 152 252 249 122 42 151 248 
	20 207 245 178 86 211 251 182 88 244 247 179 206 250 253 183 210 209 248 180 87 
	20 245 149 71 178 251 153 73 182 246 150 177 247 252 154 181 253 248 151 72 180 
	20 50 124 251 211 48 128 257 215 123 249 250 212 127 255 256 216 49 126 254 213 
	20 124 43 153 251 128 45 157 257 125 152 252 249 129 156 258 255 126 44 155 254 
	20 211 251 182 88 215 257 186 90 250 253 183 210 256 259 187 214 213 254 184 89 
	20 251 153 73 182 257 157 75 186 252 154 181 253 258 158 185 259 254 155 74 184 
	20 48 128 257 215 4 21 99 30 127 255 256 216 20 97 98 31 47 130 260 217 
	20 128 45 157 257 21 5 24 99 129 156 258 255 22 23 100 97 130 46 159 260 
	20 215 257 186 90 30 99 27 7 256 259 187 214 98 101 28 29 217 260 188 91 
	20 257 157 75 186 99 24 6 27 258 158 185 259 100 25 26 101 260 159 76 188 

CELL_TYPES 32
	25
	25
	25
	25
	25
	25
	25
	25
	25
	25
	25
	25
	25
	25
	25
	25
	25
	25
	25
	25
	25
	25
	25
	25
	25
	25
	25
	25
	25
	25
	25
	25

POINT_DATA 261
FIELD U 1
	U 3 261 double
		 0.00000000E+00	 0.00000000E+00	 0.00000000E+00
		 0.00000000E+00	 0.00000000E+00	 0.00000000E+00
		 0.00000000E+00	 0.00000000E+00	 0.00000000E+00
		 0.00000000E+00	 0.00000000E+00	 0.00000000E+00
		 6.03814000E-07	 3.14158000E-03	 8.57608000E-04
		-2.02044000E-05	 3.12342000E-03	 8.58114000E-04
		 1.91636000E-05	 3.11857000E-03	-8.62870000E-04
		-2.29038000E-06	 3.13953000E-03	-8.63481000E-04
		 0.00000000E+00	 0.00000000E+00	 0.00000000E+00
		 0.00000000E+00	 0.00000000E+00	 0.00000000E+00
		 0.00000000E+00	 0.00000000E+00	 0.00000000E+00
		 0.00000000E+00	 0.00000000E+00	 0.00000000E+00
		 0.00000000E+00	 0.00000000E+00	 0.00000000E+00
		 0.00000000E+00	 0.00000000E+00	 0.00000000E+00
		 0.00000000E+00	 0.00000000E+00	 0.00000000E+00
		 0.00000000E+00	 0.00000000E+00	 0.00000000E+00
		 0.00000000E+00	 0.00000000E+00	 0.00000000E+00
		 0.00000000E+00	 0.00000000E+00	 0.00000000E+00
		 0.00000000E+00	 0.00000000E+00	 0.00000000E+00
		 0.00000000E+00	 0.00000000E+00	 0.00000000E+00
		-2.19319000E-06	 3.14717000E-03	 8.64503000E-04
		-9.97297000E-06	 3.12622000E-03	 8.66226000E-04
		-1.76490000E-05	 3.13799000E-03	 8.65047000E-04
		-4.10167000E-06	 3.11437000E-03	 4.17809000E-04
		-1.08037000E-06	 3.09949000E-03	-2.89826000E-06
		 3.02216000E-06	 3.11187000E-03	-4.24007000E-04
		 1.61477000E-05	 3.13512000E-03	-8.69814000E-04
		 8.32733000E-06	 3.12649000E-03	-8.72302000E-04
		 6.51925000E-07	 3.14623000E-03	-8.70518000E-04
		 5.03674000E-06	 3.13056000E-03	-4.23238000E-04
		-6.51595000E-07	 3.11569000E-03	-2.80676000E-06
		-6.64935000E-06	 3.13153000E-03	 4.17427000E-04
		 6.66913000E-07	 2.85068000E-07	-2.53086000E-06
		 7.66524000E-07	-2.60155000E-06	-7.19152000E-06
		 8.94257000E-07	-1.22732000E-05	-1.43770000E-05
		 5.47577000E-07	-3.03322000E-05	-2.28595000E-05
		-5.54202000E-07	-6.03812000E-05	-3.16794000E-05
		-3.08405000E-06	-1.00477000E-04	-3.66607000E-05
		-7.63820000E-06	-1.49851000E-04	-3.34714000E-05
		-1.50258000E-05	-1.93509000E-04	-1.32068000E-05
		-2.51463000E-05	-2.15875000E-04	 3.24248000E-05
		-3.75029000E-05	-1.77236000E-04	 1.13285000E-04
		-5.02735000E-05	-4.51755000E-05	 2.34820000E-04
		-5.93344000E-05	 2.45484000E-04	 3.93056000E-04
		-6.23192000E-05	 7.20671000E-04	 5.67171000E-04
		-4.89860000E-05	 1.41500000E-03	 7.30549000E-04
		-3.62070000E-05	 2.22908000E-03	 8.27557000E-04
		 1.60822000E-05	 2.24730000E-03	 8.27177000E-04
		 3.02789000E-05	 1.43109000E-03	 7.30157000E-04
		 4.46123000E-05	 7.36054000E-04	 5.67020000E-04
		 4.26980000E-05	 2.60605000E-04	 3.92977000E-04
		 3.42432000E-05	-3.09398000E-05	 2.34448000E-04
		 2.27335000E-05	-1.63109000E-04	 1.13000000E-04
		 1.20000000E-05	-2.03253000E-04	 3.21035000E-05
		 4.02066000E-06	-1.82576000E-04	-1.34041000E-05
		-1.37493000E-06	-1.40841000E-04	-3.36225000E-05
		-4.05960000E-06	-9.31511000E-05	-3.67215000E-05
		-5.00312000E-06	-5.46740000E-05	-3.16969000E-05
		-4.71603000E-06	-2.59987000E-05	-2.28332000E-05
		-3.86879000E-06	-9.19959000E-06	-1.43415000E-05
		-2.62843000E-06	-6.75234000E-07	-7.15506000E-06
		-1.52109000E-06	 1.16323000E-06	-2.51073000E-06
		-5.98184000E-07	 3.40601000E-07	 2.36686000E-06
		-6.73430000E-07	-2.56449000E-06	 6.87278000E-06
		-7.44574000E-07	-1.22307000E-05	 1.39108000E-05
		-3.54058000E-07	-3.03045000E-05	 2.22656000E-05
		 7.71939000E-07	-6.03562000E-05	 3.09905000E-05
		 3.27504000E-06	-1.00479000E-04	 3.59006000E-05
		 7.71788000E-06	-1.49837000E-04	 3.26814000E-05
		 1.48894000E-05	-1.93570000E-04	 1.23839000E-05
		 2.47431000E-05	-2.15853000E-04	-3.31995000E-05
		 3.67648000E-05	-1.77519000E-04	-1.14054000E-04
		 4.91950000E-05	-4.51427000E-05	-2.35824000E-04
		 5.81193000E-05	 2.44349000E-04	-3.94521000E-04
		 6.10422000E-05	 7.20325000E-04	-5.68963000E-04
		 4.88508000E-05	 1.40969000E-03	-7.31327000E-04
		 3.34385000E-05	 2.23052000E-03	-8.30431000E-04
		 1.49081000E-06	 1.20670000E-06	 2.38836000E-06
		 2.64991000E-06	-6.40790000E-07	 6.90618000E-06
		 3.92966000E-06	-9.15365000E-06	 1.39481000E-05
		 4.83420000E-06	-2.59558000E-05	 2.22857000E-05
		 5.13724000E-06	-5.46218000E-05	 3.09768000E-05
		 4.19816000E-06	-9.31066000E-05	 3.58220000E-05
		 1.39011000E-06	-1.40781000E-04	 3.25420000E-05
		-4.14364000E-06	-1.82559000E-04	 1.21585000E-05
		-1.25092000E-05	-2.03256000E-04	-3.34612000E-05
		-2.33799000E-05	-1.63188000E-04	-1.14387000E-04
		-3.51520000E-05	-3.03435000E-05	-2.35929000E-04
		-4.36981000E-05	 2.60520000E-04	-3.94480000E-04
		-4.62399000E-05	 7.35657000E-04	-5.69063000E-04
		-3.29174000E-05	 1.42927000E-03	-7.33135000E-04
		-1.75861000E-05	 2.24630000E-03	-8.31371000E-04
		 0.00000000E+00	 0.00000000E+00	 0.00000000E+00
		 0.00000000E+00	 0.00000000E+00	 0.00000000E+00
		 0.00000000E+00	 0.00000000E+00	 0.00000000E+00
		 0.00000000E+00	 0.00000000E+00	 0.00000000E+00
		 0.00000000E+00	 0.00000000E+00	 0.00000000E+00
		-5.36597000E-06	 3.17287000E-03	 4.34656000E-04
		-8.08455000E-07	 3.15172000E-03	-2.88324000E-06
		-8.22097000E-07	 3.22633000E-03	-2.86200000E-06
		-8.04770000E-07	 3.14389000E-03	-3.07520000E-06
		 3.70429000E-06	 3.17289000E-03	-4.40301000E-04
		-4.51462000E-07	 2.69613000E-07	-2.30626000E-06
		-1.77765000E-06	-1.90637000E-06	-6.93321000E-06
		-9.38591000E-07	-2.68029000E-06	-7.14302000E-06
		-9.07105000E-08	-2.87259000E-06	-7.14555000E-06
		-1.48347000E-06	-1.17623000E-05	-1.42389000E-05
		-3.39801000E-06	-2.83179000E-05	-2.28008000E-05
		-2.09332000E-06	-2.99440000E-05	-2.29737000E-05
		-7.78714000E-07	-3.04853000E-05	-2.29996000E-05
		-2.77559000E-06	-5.82908000E-05	-3.18456000E-05
		-3.81817000E-06	-9.58646000E-05	-3.72689000E-05
		-3.58455000E-06	-9.81790000E-05	-3.75078000E-05
		-3.33485000E-06	-9.95260000E-05	-3.74873000E-05
		-4.49937000E-06	-1.42955000E-04	-3.44887000E-05
		-7.50890000E-07	-1.82944000E-04	-1.52807000E-05
		-5.54772000E-06	-1.85722000E-04	-1.54766000E-05
		-1.02950000E-05	-1.88425000E-04	-1.54788000E-05
		-6.51034000E-06	-1.98647000E-04	 3.04620000E-05
		 7.61402000E-06	-1.58984000E-04	 1.09678000E-04
		-7.41755000E-06	-1.61090000E-04	 1.09297000E-04
		-2.24240000E-05	-1.65985000E-04	 1.09638000E-04
		-7.91814000E-06	-1.24081000E-05	 2.33070000E-04
		 1.72475000E-05	 2.73009000E-04	 3.89505000E-04
		-8.42575000E-06	 2.68134000E-04	 3.88154000E-04
		-3.39768000E-05	 2.65637000E-04	 3.89453000E-04
		-8.47212000E-06	 7.62126000E-04	 5.71092000E-04
		 1.06263000E-05	 1.42539000E-03	 7.31652000E-04
		-9.26940000E-06	 1.42022000E-03	 7.28155000E-04
		-2.92054000E-05	 1.41769000E-03	 7.31586000E-04
		-9.82048000E-06	 2.26896000E-03	 8.34058000E-04
		 3.58718000E-08	 1.05619000E-06	-7.86848000E-08
		 4.11201000E-07	-2.06861000E-06	-4.01083000E-06
		 4.71452000E-08	-2.00457000E-06	-1.61099000E-07
		-3.17034000E-07	-2.05004000E-06	 3.69050000E-06
		 7.46971000E-08	-1.09972000E-05	-2.33827000E-07
		 3.13852000E-07	-2.95793000E-05	-1.14695000E-05
		 9.34403000E-08	-2.95643000E-05	-2.95825000E-07
		-1.24377000E-07	-2.95653000E-05	 1.08751000E-05
		 1.06250000E-07	-5.93012000E-05	-3.48568000E-07
		-1.52865000E-06	-1.00810000E-04	-1.70518000E-05
		 8.77619000E-08	-1.01466000E-04	-3.78013000E-07
		 1.70813000E-06	-1.00812000E-04	 1.62938000E-05
		 3.60960000E-08	-1.51385000E-04	-3.99260000E-07
		-7.54559000E-06	-1.97853000E-04	-2.60388000E-06
		-7.86864000E-08	-2.00218000E-04	-3.85409000E-07
		 7.40010000E-06	-1.97882000E-04	 1.80598000E-06
		-2.13483000E-07	-2.24874000E-04	-4.23648000E-07
		-1.91381000E-05	-1.91317000E-04	 6.31119000E-05
		-4.08590000E-07	-1.97690000E-04	-4.23825000E-07
		 1.83391000E-05	-1.91465000E-04	-6.39126000E-05
		-5.43515000E-07	-6.13053000E-05	-5.20637000E-07
		-2.93149000E-05	 2.23171000E-04	 1.99471000E-04
		-8.20156000E-07	 2.13672000E-04	-4.32453000E-07
		 2.80276000E-05	 2.22511000E-04	-2.00577000E-04
		-8.48337000E-07	 7.00816000E-04	-1.32955000E-06
		-2.71406000E-05	 1.38100000E-03	 3.56813000E-04
		-1.12079000E-06	 1.36060000E-03	-2.69346000E-06
		 2.57242000E-05	 1.37838000E-03	-3.58967000E-04
		-4.60976000E-07	 2.24238000E-03	-2.74230000E-06
		 4.67841000E-07	 3.18949000E-07	 2.17008000E-06
		 1.64570000E-07	-2.83486000E-06	 6.84501000E-06
		 9.94168000E-07	-2.64135000E-06	 6.85622000E-06
		 1.81529000E-06	-1.86979000E-06	 6.66339000E-06
		 1.59098000E-06	-1.17201000E-05	 1.38084000E-05
		 9.52638000E-07	-3.04495000E-05	 2.24209000E-05
		 2.24573000E-06	-2.99014000E-05	 2.24032000E-05
		 3.53444000E-06	-2.82751000E-05	 2.22394000E-05
		 2.96473000E-06	-5.82567000E-05	 3.11384000E-05
		 3.51209000E-06	-9.95067000E-05	 3.66934000E-05
		 3.74287000E-06	-9.81347000E-05	 3.66802000E-05
		 3.96850000E-06	-9.58198000E-05	 3.63972000E-05
		 4.56573000E-06	-1.42935000E-04	 3.35439000E-05
		 1.01444000E-05	-1.88419000E-04	 1.45656000E-05
		 5.37393000E-06	-1.85659000E-04	 1.44609000E-05
		 6.06816000E-07	-1.82906000E-04	 1.41680000E-05
		 6.10094000E-06	-1.98691000E-04	-3.15524000E-05
		 2.16600000E-05	-1.66037000E-04	-1.10652000E-04
		 6.62856000E-06	-1.60914000E-04	-1.10442000E-04
		-8.34109000E-06	-1.58917000E-04	-1.10979000E-04
		 7.05210000E-06	-1.24980000E-05	-2.34335000E-04
		 3.27101000E-05	 2.65145000E-04	-3.90797000E-04
		 7.17307000E-06	 2.68626000E-04	-3.89809000E-04
		-1.83182000E-05	 2.73365000E-04	-3.90987000E-04
		 7.44429000E-06	 7.60995000E-04	-5.72765000E-04
		 2.85015000E-05	 1.41597000E-03	-7.34151000E-04
		 7.61587000E-06	 1.42132000E-03	-7.31382000E-04
		-1.28983000E-05	 1.42535000E-03	-7.34888000E-04
		 8.26494000E-06	 2.26637000E-03	-8.38655000E-04
		-1.35161000E-08	 1.97631000E-06	-5.76676000E-08
		 1.33672000E-06	-1.26007000E-07	 3.92157000E-06
		 8.29600000E-09	-7.67922000E-08	-1.25927000E-07
		-1.31713000E-06	-1.43625000E-07	-4.17078000E-06
		 3.18799000E-08	-7.91878000E-06	-1.96293000E-07
		 2.43568000E-06	-2.52293000E-05	 1.10856000E-05
		 5.02343000E-08	-2.52405000E-05	-2.73365000E-07
		-2.32690000E-06	-2.52499000E-05	-1.16338000E-05
		 6.90261000E-08	-5.35501000E-05	-3.59606000E-07
		 2.09308000E-06	-9.34788000E-05	 1.64730000E-05
		 4.69086000E-08	-9.41739000E-05	-4.52756000E-07
		-1.98059000E-06	-9.35043000E-05	-1.73692000E-05
		 1.21030000E-08	-1.42296000E-04	-5.43178000E-07
		-2.12018000E-06	-1.86974000E-04	 1.85935000E-06
		-1.16083000E-07	-1.89403000E-04	-6.16307000E-07
		 1.94293000E-06	-1.86972000E-04	-3.12162000E-06
		-2.09372000E-07	-2.12178000E-04	-6.74745000E-07
		-1.20832000E-05	-1.77397000E-04	-6.39700000E-05
		-4.13530000E-07	-1.83921000E-04	-6.26690000E-07
		 1.13447000E-05	-1.77388000E-04	 6.27171000E-05
		-4.28760000E-07	-4.64403000E-05	-6.08314000E-07
		-2.13933000E-05	 2.38135000E-04	-2.00835000E-04
		-5.89970000E-07	 2.28448000E-04	-8.03635000E-07
		 2.02803000E-05	 2.37938000E-04	 1.99328000E-04
		-5.75241000E-07	 7.17009000E-04	-1.07215000E-06
		-1.85663000E-05	 1.39547000E-03	-3.58601000E-04
		-6.25565000E-07	 1.37541000E-03	-1.38565000E-06
		 1.69582000E-05	 1.39639000E-03	 3.55846000E-04
		-8.18700000E-07	 2.26178000E-03	-2.17768000E-06
		 9.00688000E-09	 9.53120000E-07	-6.42909000E-08
		-4.54609000E-07	-1.95319000E-06	-3.97599000E-06
		 1.85458000E-08	-1.11952000E-06	-1.36582000E-07
		 2.96262000E-08	-1.70541000E-06	-1.45973000E-07
		 3.80918000E-08	-2.08392000E-06	-1.52494000E-07
		 5.12452000E-07	-1.93366000E-06	 3.68707000E-06
		 5.22724000E-08	-1.07194000E-05	-2.14814000E-07
		-1.00694000E-06	-2.86978000E-05	-1.16092000E-05
		 6.52434000E-08	-2.70848000E-05	-2.81815000E-07
		 7.89929000E-08	-2.81907000E-05	-2.87041000E-07
		 8.66103000E-08	-2.92467000E-05	-2.90491000E-07
		 1.16187000E-06	-2.86765000E-05	 1.10360000E-05
		 8.73964000E-08	-5.77138000E-05	-3.53552000E-07
		-1.75422000E-06	-9.73043000E-05	-1.78654000E-05
		 6.63430000E-08	-9.55854000E-05	-4.37983000E-07
		 8.46975000E-08	-9.68664000E-05	-4.21630000E-07
		 8.78490000E-08	-9.92315000E-05	-3.98010000E-07
		 1.91286000E-06	-9.72815000E-05	 1.70322000E-05
		 2.09002000E-08	-1.45716000E-04	-4.68212000E-07
		-2.79392000E-06	-1.87569000E-04	-4.76099000E-06
		-8.38832000E-08	-1.87531000E-04	-5.67984000E-07
		-6.12661000E-08	-1.87281000E-04	-5.16432000E-07
		-6.91713000E-08	-1.92939000E-04	-4.57112000E-07
		 2.65256000E-06	-1.87538000E-04	 3.72216000E-06
		-2.34800000E-07	-2.10849000E-04	-5.35855000E-07
		-3.93716000E-06	-1.68852000E-04	 5.96161000E-05
		-4.01137000E-07	-1.72166000E-04	-5.89421000E-07
		-3.58534000E-07	-1.69726000E-04	-5.82899000E-07
		-3.84116000E-07	-1.79041000E-04	-4.96932000E-07
		 3.14800000E-06	-1.68760000E-04	-6.07306000E-05
		-6.12793000E-07	-3.71940000E-05	-5.04179000E-07
		-4.55284000E-06	 2.57732000E-04	 1.96685000E-04
		-6.31863000E-07	 2.49278000E-04	-7.07859000E-07
		-6.17593000E-07	 2.63043000E-04	-5.47239000E-07
		-7.32505000E-07	 2.42049000E-04	-5.89407000E-07
		 3.26289000E-06	 2.57984000E-04	-1.98243000E-04
		-9.08537000E-07	 7.22161000E-04	-7.30088000E-07
		-5.27668000E-06	 1.42236000E-03	 3.58041000E-04
		-5.51854000E-07	 1.41799000E-03	-1.23025000E-06
		-5.53754000E-07	 1.43074000E-03	-1.11464000E-06
		-9.57538000E-07	 1.41070000E-03	-1.67438000E-06
		 3.55876000E-06	 1.42319000E-03	-3.60989000E-04
		-5.56365000E-07	 2.23129000E-03	-1.87782000E-06
