# vtk DataFile Version 3.0

ASCII
DATASET UNSTRUCTURED_GRID

POINTS 81 double
	 0.00000000E+00	 0.00000000E+00	 0.00000000E+00
	 1.00000000E+00	 0.00000000E+00	 0.00000000E+00
	 1.00000000E+00	 1.00000000E+00	 0.00000000E+00
	 0.00000000E+00	 1.00000000E+00	 0.00000000E+00
	 0.00000000E+00	 0.00000000E+00	 8.00000000E+00
	 1.00000000E+00	 0.00000000E+00	 8.00000000E+00
	 1.00000000E+00	 1.00000000E+00	 8.00000000E+00
	 0.00000000E+00	 1.00000000E+00	 8.00000000E+00
	 5.00000000E-01	 0.00000000E+00	 0.00000000E+00
	 1.00000000E+00	 5.00000000E-01	 0.00000000E+00
	 5.00000000E-01	 1.00000000E+00	 0.00000000E+00
	 0.00000000E+00	 5.00000000E-01	 0.00000000E+00
	 5.00000000E-01	 0.00000000E+00	 8.00000000E+00
	 1.00000000E+00	 5.00000000E-01	 8.00000000E+00
	 5.00000000E-01	 1.00000000E+00	 8.00000000E+00
	 0.00000000E+00	 5.00000000E-01	 8.00000000E+00
	 1.00000000E+00	 0.00000000E+00	 1.00000000E+00
	 1.00000000E+00	 0.00000000E+00	 2.00000000E+00
	 1.00000000E+00	 0.00000000E+00	 3.00000000E+00
	 1.00000000E+00	 0.00000000E+00	 4.00000000E+00
	 1.00000000E+00	 0.00000000E+00	 5.00000000E+00
	 1.00000000E+00	 0.00000000E+00	 6.00000000E+00
	 1.00000000E+00	 0.00000000E+00	 7.00000000E+00
	 0.00000000E+00	 0.00000000E+00	 7.00000000E+00
	 0.00000000E+00	 0.00000000E+00	 6.00000000E+00
	 0.00000000E+00	 0.00000000E+00	 5.00000000E+00
	 0.00000000E+00	 0.00000000E+00	 4.00000000E+00
	 0.00000000E+00	 0.00000000E+00	 3.00000000E+00
	 0.00000000E+00	 0.00000000E+00	 2.00000000E+00
	 0.00000000E+00	 0.00000000E+00	 1.00000000E+00
	 1.00000000E+00	 1.00000000E+00	 1.00000000E+00
	 1.00000000E+00	 1.00000000E+00	 2.00000000E+00
	 1.00000000E+00	 1.00000000E+00	 3.00000000E+00
	 1.00000000E+00	 1.00000000E+00	 4.00000000E+00
	 1.00000000E+00	 1.00000000E+00	 5.00000000E+00
	 1.00000000E+00	 1.00000000E+00	 6.00000000E+00
	 1.00000000E+00	 1.00000000E+00	 7.00000000E+00
	 0.00000000E+00	 1.00000000E+00	 1.00000000E+00
	 0.00000000E+00	 1.00000000E+00	 2.00000000E+00
	 0.00000000E+00	 1.00000000E+00	 3.00000000E+00
	 0.00000000E+00	 1.00000000E+00	 4.00000000E+00
	 0.00000000E+00	 1.00000000E+00	 5.00000000E+00
	 0.00000000E+00	 1.00000000E+00	 6.00000000E+00
	 0.00000000E+00	 1.00000000E+00	 7.00000000E+00
	 5.00000000E-01	 5.00000000E-01	 0.00000000E+00
	 5.00000000E-01	 5.00000000E-01	 8.00000000E+00
	 5.00000000E-01	 0.00000000E+00	 1.00000000E+00
	 5.00000000E-01	 0.00000000E+00	 2.00000000E+00
	 5.00000000E-01	 0.00000000E+00	 3.00000000E+00
	 5.00000000E-01	 0.00000000E+00	 4.00000000E+00
	 5.00000000E-01	 0.00000000E+00	 5.00000000E+00
	 5.00000000E-01	 0.00000000E+00	 6.00000000E+00
	 5.00000000E-01	 0.00000000E+00	 7.00000000E+00
	 1.00000000E+00	 5.00000000E-01	 1.00000000E+00
	 1.00000000E+00	 5.00000000E-01	 2.00000000E+00
	 1.00000000E+00	 5.00000000E-01	 3.00000000E+00
	 1.00000000E+00	 5.00000000E-01	 4.00000000E+00
	 1.00000000E+00	 5.00000000E-01	 5.00000000E+00
	 1.00000000E+00	 5.00000000E-01	 6.00000000E+00
	 1.00000000E+00	 5.00000000E-01	 7.00000000E+00
	 5.00000000E-01	 1.00000000E+00	 1.00000000E+00
	 5.00000000E-01	 1.00000000E+00	 2.00000000E+00
	 5.00000000E-01	 1.00000000E+00	 3.00000000E+00
	 5.00000000E-01	 1.00000000E+00	 4.00000000E+00
	 5.00000000E-01	 1.00000000E+00	 5.00000000E+00
	 5.00000000E-01	 1.00000000E+00	 6.00000000E+00
	 5.00000000E-01	 1.00000000E+00	 7.00000000E+00
	 0.00000000E+00	 5.00000000E-01	 1.00000000E+00
	 0.00000000E+00	 5.00000000E-01	 2.00000000E+00
	 0.00000000E+00	 5.00000000E-01	 3.00000000E+00
	 0.00000000E+00	 5.00000000E-01	 4.00000000E+00
	 0.00000000E+00	 5.00000000E-01	 5.00000000E+00
	 0.00000000E+00	 5.00000000E-01	 6.00000000E+00
	 0.00000000E+00	 5.00000000E-01	 7.00000000E+00
	 5.00000000E-01	 5.00000000E-01	 1.00000000E+00
	 5.00000000E-01	 5.00000000E-01	 2.00000000E+00
	 5.00000000E-01	 5.00000000E-01	 3.00000000E+00
	 5.00000000E-01	 5.00000000E-01	 4.00000000E+00
	 5.00000000E-01	 5.00000000E-01	 5.00000000E+00
	 5.00000000E-01	 5.00000000E-01	 6.00000000E+00
	 5.00000000E-01	 5.00000000E-01	 7.00000000E+00

CELLS 32 288
	8 0 8 44 11 29 46 74 67 
	8 8 1 9 44 46 16 53 74 
	8 11 44 10 3 67 74 60 37 
	8 44 9 2 10 74 53 30 60 
	8 29 46 74 67 28 47 75 68 
	8 46 16 53 74 47 17 54 75 
	8 67 74 60 37 68 75 61 38 
	8 74 53 30 60 75 54 31 61 
	8 28 47 75 68 27 48 76 69 
	8 47 17 54 75 48 18 55 76 
	8 68 75 61 38 69 76 62 39 
	8 75 54 31 61 76 55 32 62 
	8 27 48 76 69 26 49 77 70 
	8 48 18 55 76 49 19 56 77 
	8 69 76 62 39 70 77 63 40 
	8 76 55 32 62 77 56 33 63 
	8 26 49 77 70 25 50 78 71 
	8 49 19 56 77 50 20 57 78 
	8 70 77 63 40 71 78 64 41 
	8 77 56 33 63 78 57 34 64 
	8 25 50 78 71 24 51 79 72 
	8 50 20 57 78 51 21 58 79 
	8 71 78 64 41 72 79 65 42 
	8 78 57 34 64 79 58 35 65 
	8 24 51 79 72 23 52 80 73 
	8 51 21 58 79 52 22 59 80 
	8 72 79 65 42 73 80 66 43 
	8 79 58 35 65 80 59 36 66 
	8 23 52 80 73 4 12 45 15 
	8 52 22 59 80 12 5 13 45 
	8 73 80 66 43 15 45 14 7 
	8 80 59 36 66 45 13 6 14 

CELL_TYPES 32
	12
	12
	12
	12
	12
	12
	12
	12
	12
	12
	12
	12
	12
	12
	12
	12
	12
	12
	12
	12
	12
	12
	12
	12
	12
	12
	12
	12
	12
	12
	12
	12

POINT_DATA 81
FIELD U 1
	U 3 81 double
		 0.00000000E+00	 0.00000000E+00	 0.00000000E+00
		 0.00000000E+00	 0.00000000E+00	 0.00000000E+00
		 0.00000000E+00	 0.00000000E+00	 0.00000000E+00
		 0.00000000E+00	 0.00000000E+00	 0.00000000E+00
		-1.26916000E+01	-1.26916000E+01	-5.69987000E+03
		 1.26916000E+01	-1.26916000E+01	-5.69987000E+03
		 1.26916000E+01	 1.26916000E+01	-5.69987000E+03
		-1.26916000E+01	 1.26916000E+01	-5.69987000E+03
		 0.00000000E+00	 0.00000000E+00	 0.00000000E+00
		 0.00000000E+00	 0.00000000E+00	 0.00000000E+00
		 0.00000000E+00	 0.00000000E+00	 0.00000000E+00
		 0.00000000E+00	 0.00000000E+00	 0.00000000E+00
		 6.36646000E-12	 1.91746000E+01	-5.72885000E+03
		-1.91746000E+01	-2.50111000E-11	-5.72885000E+03
		-4.77485000E-12	-1.91746000E+01	-5.72885000E+03
		 1.91746000E+01	-3.31966000E-11	-5.72885000E+03
		 3.18653000E+02	-3.18653000E+02	-1.07127000E+03
		 2.69192000E+02	-2.69192000E+02	-2.13240000E+03
		 2.43791000E+02	-2.43791000E+02	-3.12722000E+03
		 2.07422000E+02	-2.07422000E+02	-3.99767000E+03
		 1.62464000E+02	-1.62464000E+02	-4.71392000E+03
		 1.14828000E+02	-1.14828000E+02	-5.24413000E+03
		 5.36328000E+01	-5.36328000E+01	-5.57607000E+03
		-5.36328000E+01	-5.36328000E+01	-5.57607000E+03
		-1.14828000E+02	-1.14828000E+02	-5.24413000E+03
		-1.62464000E+02	-1.62464000E+02	-4.71392000E+03
		-2.07422000E+02	-2.07422000E+02	-3.99767000E+03
		-2.43791000E+02	-2.43791000E+02	-3.12722000E+03
		-2.69192000E+02	-2.69192000E+02	-2.13240000E+03
		-3.18653000E+02	-3.18653000E+02	-1.07127000E+03
		 3.18653000E+02	 3.18653000E+02	-1.07127000E+03
		 2.69192000E+02	 2.69192000E+02	-2.13240000E+03
		 2.43791000E+02	 2.43791000E+02	-3.12722000E+03
		 2.07422000E+02	 2.07422000E+02	-3.99767000E+03
		 1.62464000E+02	 1.62464000E+02	-4.71392000E+03
		 1.14828000E+02	 1.14828000E+02	-5.24413000E+03
		 5.36328000E+01	 5.36328000E+01	-5.57607000E+03
		-3.18653000E+02	 3.18653000E+02	-1.07127000E+03
		-2.69192000E+02	 2.69192000E+02	-2.13240000E+03
		-2.43791000E+02	 2.43791000E+02	-3.12722000E+03
		-2.07422000E+02	 2.07422000E+02	-3.99767000E+03
		-1.62464000E+02	 1.62464000E+02	-4.71392000E+03
		-1.14828000E+02	 1.14828000E+02	-5.24413000E+03
		-5.36328000E+01	 5.36328000E+01	-5.57607000E+03
		 0.00000000E+00	 0.00000000E+00	 0.00000000E+00
		-1.68257000E-11	-4.56168000E-11	-5.66362000E+03
		-2.74667000E-10	-3.13822000E+02	-1.05966000E+03
		-5.05224000E-10	-2.72592000E+02	-2.13687000E+03
		-5.67297000E-10	-2.42857000E+02	-3.13196000E+03
		-4.97494000E-10	-2.07972000E+02	-4.00384000E+03
		-3.49246000E-10	-1.62827000E+02	-4.71891000E+03
		-1.83945000E-10	-1.11036000E+02	-5.25858000E+03
		-6.27551000E-11	-6.66699000E+01	-5.56365000E+03
		 3.13822000E+02	-2.52612000E-10	-1.05966000E+03
		 2.72592000E+02	-4.58286000E-10	-2.13687000E+03
		 2.42857000E+02	-5.12813000E-10	-3.13196000E+03
		 2.07972000E+02	-4.46448000E-10	-4.00384000E+03
		 1.62827000E+02	-3.19346000E-10	-4.71891000E+03
		 1.11036000E+02	-1.78716000E-10	-5.25858000E+03
		 6.66699000E+01	-8.03766000E-11	-5.56365000E+03
		-2.71029000E-10	 3.13822000E+02	-1.05966000E+03
		-5.04315000E-10	 2.72592000E+02	-2.13687000E+03
		-5.72072000E-10	 2.42857000E+02	-3.13196000E+03
		-4.99313000E-10	 2.07972000E+02	-4.00384000E+03
		-3.51520000E-10	 1.62827000E+02	-4.71891000E+03
		-1.89516000E-10	 1.11036000E+02	-5.25858000E+03
		-6.91216000E-11	 6.66699000E+01	-5.56365000E+03
		-3.13822000E+02	-2.51930000E-10	-1.05966000E+03
		-2.72592000E+02	-4.57817000E-10	-2.13687000E+03
		-2.42857000E+02	-5.13410000E-10	-3.13196000E+03
		-2.07972000E+02	-4.49347000E-10	-4.00384000E+03
		-1.62827000E+02	-3.22416000E-10	-4.71891000E+03
		-1.11036000E+02	-1.84400000E-10	-5.25858000E+03
		-6.66699000E+01	-7.96945000E-11	-5.56365000E+03
		-2.74667000E-10	-2.54431000E-10	-1.04812000E+03
		-5.00677000E-10	-4.55771000E-10	-2.14106000E+03
		-5.66615000E-10	-5.08066000E-10	-3.13668000E+03
		-4.97494000E-10	-4.48267000E-10	-4.01030000E+03
		-3.48336000E-10	-3.20597000E-10	-4.72578000E+03
		-1.94063000E-10	-1.87583000E-10	-5.25787000E+03
		-6.32099000E-11	-8.32188000E-11	-5.61837000E+03
FIELD SENFREQ 1
	SENFREQ 2 81 double
		 0.00000000E+00	 0.00000000E+00
		 0.00000000E+00	 0.00000000E+00
		 0.00000000E+00	 0.00000000E+00
		 0.00000000E+00	 0.00000000E+00
		-4.00708000E+11	-3.37727000E-01
		-4.00708000E+11	-3.37727000E-01
		-4.00708000E+11	-3.37727000E-01
		-4.00708000E+11	-3.37726000E-01
		 0.00000000E+00	 0.00000000E+00
		 0.00000000E+00	 0.00000000E+00
		 0.00000000E+00	 0.00000000E+00
		 0.00000000E+00	 0.00000000E+00
		-4.91088000E+11	-4.13901000E-01
		-4.91088000E+11	-4.13901000E-01
		-4.91088000E+11	-4.13901000E-01
		-4.91088000E+11	-4.13901000E-01
		 8.43116000E+11	 7.10598000E-01
		 3.46622000E+11	 2.92141000E-01
		 1.92552000E+11	 1.62288000E-01
		 4.54845000E+09	 3.83355000E-03
		-1.82739000E+11	-1.54017000E-01
		-3.42417000E+11	-2.88597000E-01
		-4.49757000E+11	-3.79066000E-01
		-4.49757000E+11	-3.79066000E-01
		-3.42417000E+11	-2.88598000E-01
		-1.82739000E+11	-1.54017000E-01
		 4.54846000E+09	 3.83355000E-03
		 1.92552000E+11	 1.62288000E-01
		 3.46622000E+11	 2.92141000E-01
		 8.43116000E+11	 7.10598000E-01
		 8.43116000E+11	 7.10598000E-01
		 3.46622000E+11	 2.92141000E-01
		 1.92552000E+11	 1.62288000E-01
		 4.54846000E+09	 3.83355000E-03
		-1.82739000E+11	-1.54017000E-01
		-3.42417000E+11	-2.88597000E-01
		-4.49757000E+11	-3.79066000E-01
		 8.43116000E+11	 7.10598000E-01
		 3.46622000E+11	 2.92141000E-01
		 1.92552000E+11	 1.62288000E-01
		 4.54846000E+09	 3.83355000E-03
		-1.82739000E+11	-1.54017000E-01
		-3.42417000E+11	-2.88597000E-01
		-4.49757000E+11	-3.79066000E-01
		 0.00000000E+00	 0.00000000E+00
		-7.11799000E+11	-5.99921000E-01
		 1.18649000E+12	 1.00000000E+00
		 4.95838000E+11	 4.17904000E-01
		 2.72277000E+11	 2.29482000E-01
		 6.65311000E+09	 5.60740000E-03
		-2.58378000E+11	-2.17767000E-01
		-4.85384000E+11	-4.09093000E-01
		-6.37189000E+11	-5.37039000E-01
		 1.18649000E+12	 1.00000000E+00
		 4.95838000E+11	 4.17904000E-01
		 2.72277000E+11	 2.29482000E-01
		 6.65311000E+09	 5.60741000E-03
		-2.58378000E+11	-2.17767000E-01
		-4.85384000E+11	-4.09093000E-01
		-6.37189000E+11	-5.37039000E-01
		 1.18649000E+12	 1.00000000E+00
		 4.95838000E+11	 4.17904000E-01
		 2.72277000E+11	 2.29482000E-01
		 6.65311000E+09	 5.60740000E-03
		-2.58378000E+11	-2.17767000E-01
		-4.85384000E+11	-4.09093000E-01
		-6.37189000E+11	-5.37039000E-01
		 1.18649000E+12	 1.00000000E+00
		 4.95838000E+11	 4.17904000E-01
		 2.72277000E+11	 2.29482000E-01
		 6.65310000E+09	 5.60739000E-03
		-2.58378000E+11	-2.17767000E-01
		-4.85384000E+11	-4.09093000E-01
		-6.37189000E+11	-5.37039000E-01
		 0.00000000E+00	 0.00000000E+00
		 0.00000000E+00	 0.00000000E+00
		 0.00000000E+00	 0.00000000E+00
		 0.00000000E+00	 0.00000000E+00
		 0.00000000E+00	 0.00000000E+00
		 0.00000000E+00	 0.00000000E+00
		 0.00000000E+00	 0.00000000E+00
