<?xml version="1.0"?>
<VTKFile type="UnstructuredGrid" version="0.1" byte_order="LittleEndian">
	<UnstructuredGrid>
		<Piece NumberOfPoints="261" NumberOfCells="32">
			<Points>
				<DataArray type="Float64" NumberOfComponents="3" format="ascii">
					 0.00000000E+00	 0.00000000E+00	 0.00000000E+00
					 1.00000000E+00	 0.00000000E+00	 0.00000000E+00
					 1.00000000E+00	 1.00000000E+00	 0.00000000E+00
					 0.00000000E+00	 1.00000000E+00	 0.00000000E+00
					 0.00000000E+00	 0.00000000E+00	 8.00000000E+00
					 1.00000000E+00	 0.00000000E+00	 8.00000000E+00
					 1.00000000E+00	 1.00000000E+00	 8.00000000E+00
					 0.00000000E+00	 1.00000000E+00	 8.00000000E+00
					 2.50000000E-01	 0.00000000E+00	 0.00000000E+00
					 5.00000000E-01	 0.00000000E+00	 0.00000000E+00
					 7.50000000E-01	 0.00000000E+00	 0.00000000E+00
					 1.00000000E+00	 2.50000000E-01	 0.00000000E+00
					 1.00000000E+00	 5.00000000E-01	 0.00000000E+00
					 1.00000000E+00	 7.50000000E-01	 0.00000000E+00
					 7.50000000E-01	 1.00000000E+00	 0.00000000E+00
					 5.00000000E-01	 1.00000000E+00	 0.00000000E+00
					 2.50000000E-01	 1.00000000E+00	 0.00000000E+00
					 0.00000000E+00	 7.50000000E-01	 0.00000000E+00
					 0.00000000E+00	 5.00000000E-01	 0.00000000E+00
					 0.00000000E+00	 2.50000000E-01	 0.00000000E+00
					 2.50000000E-01	 0.00000000E+00	 8.00000000E+00
					 5.00000000E-01	 0.00000000E+00	 8.00000000E+00
					 7.50000000E-01	 0.00000000E+00	 8.00000000E+00
					 1.00000000E+00	 2.50000000E-01	 8.00000000E+00
					 1.00000000E+00	 5.00000000E-01	 8.00000000E+00
					 1.00000000E+00	 7.50000000E-01	 8.00000000E+00
					 7.50000000E-01	 1.00000000E+00	 8.00000000E+00
					 5.00000000E-01	 1.00000000E+00	 8.00000000E+00
					 2.50000000E-01	 1.00000000E+00	 8.00000000E+00
					 0.00000000E+00	 7.50000000E-01	 8.00000000E+00
					 0.00000000E+00	 5.00000000E-01	 8.00000000E+00
					 0.00000000E+00	 2.50000000E-01	 8.00000000E+00
					 1.00000000E+00	 0.00000000E+00	 5.00000000E-01
					 1.00000000E+00	 0.00000000E+00	 1.00000000E+00
					 1.00000000E+00	 0.00000000E+00	 1.50000000E+00
					 1.00000000E+00	 0.00000000E+00	 2.00000000E+00
					 1.00000000E+00	 0.00000000E+00	 2.50000000E+00
					 1.00000000E+00	 0.00000000E+00	 3.00000000E+00
					 1.00000000E+00	 0.00000000E+00	 3.50000000E+00
					 1.00000000E+00	 0.00000000E+00	 4.00000000E+00
					 1.00000000E+00	 0.00000000E+00	 4.50000000E+00
					 1.00000000E+00	 0.00000000E+00	 5.00000000E+00
					 1.00000000E+00	 0.00000000E+00	 5.50000000E+00
					 1.00000000E+00	 0.00000000E+00	 6.00000000E+00
					 1.00000000E+00	 0.00000000E+00	 6.50000000E+00
					 1.00000000E+00	 0.00000000E+00	 7.00000000E+00
					 1.00000000E+00	 0.00000000E+00	 7.50000000E+00
					 0.00000000E+00	 0.00000000E+00	 7.50000000E+00
					 0.00000000E+00	 0.00000000E+00	 7.00000000E+00
					 0.00000000E+00	 0.00000000E+00	 6.50000000E+00
					 0.00000000E+00	 0.00000000E+00	 6.00000000E+00
					 0.00000000E+00	 0.00000000E+00	 5.50000000E+00
					 0.00000000E+00	 0.00000000E+00	 5.00000000E+00
					 0.00000000E+00	 0.00000000E+00	 4.50000000E+00
					 0.00000000E+00	 0.00000000E+00	 4.00000000E+00
					 0.00000000E+00	 0.00000000E+00	 3.50000000E+00
					 0.00000000E+00	 0.00000000E+00	 3.00000000E+00
					 0.00000000E+00	 0.00000000E+00	 2.50000000E+00
					 0.00000000E+00	 0.00000000E+00	 2.00000000E+00
					 0.00000000E+00	 0.00000000E+00	 1.50000000E+00
					 0.00000000E+00	 0.00000000E+00	 1.00000000E+00
					 0.00000000E+00	 0.00000000E+00	 5.00000000E-01
					 1.00000000E+00	 1.00000000E+00	 5.00000000E-01
					 1.00000000E+00	 1.00000000E+00	 1.00000000E+00
					 1.00000000E+00	 1.00000000E+00	 1.50000000E+00
					 1.00000000E+00	 1.00000000E+00	 2.00000000E+00
					 1.00000000E+00	 1.00000000E+00	 2.50000000E+00
					 1.00000000E+00	 1.00000000E+00	 3.00000000E+00
					 1.00000000E+00	 1.00000000E+00	 3.50000000E+00
					 1.00000000E+00	 1.00000000E+00	 4.00000000E+00
					 1.00000000E+00	 1.00000000E+00	 4.50000000E+00
					 1.00000000E+00	 1.00000000E+00	 5.00000000E+00
					 1.00000000E+00	 1.00000000E+00	 5.50000000E+00
					 1.00000000E+00	 1.00000000E+00	 6.00000000E+00
					 1.00000000E+00	 1.00000000E+00	 6.50000000E+00
					 1.00000000E+00	 1.00000000E+00	 7.00000000E+00
					 1.00000000E+00	 1.00000000E+00	 7.50000000E+00
					 0.00000000E+00	 1.00000000E+00	 5.00000000E-01
					 0.00000000E+00	 1.00000000E+00	 1.00000000E+00
					 0.00000000E+00	 1.00000000E+00	 1.50000000E+00
					 0.00000000E+00	 1.00000000E+00	 2.00000000E+00
					 0.00000000E+00	 1.00000000E+00	 2.50000000E+00
					 0.00000000E+00	 1.00000000E+00	 3.00000000E+00
					 0.00000000E+00	 1.00000000E+00	 3.50000000E+00
					 0.00000000E+00	 1.00000000E+00	 4.00000000E+00
					 0.00000000E+00	 1.00000000E+00	 4.50000000E+00
					 0.00000000E+00	 1.00000000E+00	 5.00000000E+00
					 0.00000000E+00	 1.00000000E+00	 5.50000000E+00
					 0.00000000E+00	 1.00000000E+00	 6.00000000E+00
					 0.00000000E+00	 1.00000000E+00	 6.50000000E+00
					 0.00000000E+00	 1.00000000E+00	 7.00000000E+00
					 0.00000000E+00	 1.00000000E+00	 7.50000000E+00
					 5.00000000E-01	 2.50000000E-01	 0.00000000E+00
					 2.50000000E-01	 5.00000000E-01	 0.00000000E+00
					 5.00000000E-01	 5.00000000E-01	 0.00000000E+00
					 7.50000000E-01	 5.00000000E-01	 0.00000000E+00
					 5.00000000E-01	 7.50000000E-01	 0.00000000E+00
					 5.00000000E-01	 2.50000000E-01	 8.00000000E+00
					 2.50000000E-01	 5.00000000E-01	 8.00000000E+00
					 5.00000000E-01	 5.00000000E-01	 8.00000000E+00
					 7.50000000E-01	 5.00000000E-01	 8.00000000E+00
					 5.00000000E-01	 7.50000000E-01	 8.00000000E+00
					 5.00000000E-01	 0.00000000E+00	 5.00000000E-01
					 2.50000000E-01	 0.00000000E+00	 1.00000000E+00
					 5.00000000E-01	 0.00000000E+00	 1.00000000E+00
					 7.50000000E-01	 0.00000000E+00	 1.00000000E+00
					 5.00000000E-01	 0.00000000E+00	 1.50000000E+00
					 2.50000000E-01	 0.00000000E+00	 2.00000000E+00
					 5.00000000E-01	 0.00000000E+00	 2.00000000E+00
					 7.50000000E-01	 0.00000000E+00	 2.00000000E+00
					 5.00000000E-01	 0.00000000E+00	 2.50000000E+00
					 2.50000000E-01	 0.00000000E+00	 3.00000000E+00
					 5.00000000E-01	 0.00000000E+00	 3.00000000E+00
					 7.50000000E-01	 0.00000000E+00	 3.00000000E+00
					 5.00000000E-01	 0.00000000E+00	 3.50000000E+00
					 2.50000000E-01	 0.00000000E+00	 4.00000000E+00
					 5.00000000E-01	 0.00000000E+00	 4.00000000E+00
					 7.50000000E-01	 0.00000000E+00	 4.00000000E+00
					 5.00000000E-01	 0.00000000E+00	 4.50000000E+00
					 2.50000000E-01	 0.00000000E+00	 5.00000000E+00
					 5.00000000E-01	 0.00000000E+00	 5.00000000E+00
					 7.50000000E-01	 0.00000000E+00	 5.00000000E+00
					 5.00000000E-01	 0.00000000E+00	 5.50000000E+00
					 2.50000000E-01	 0.00000000E+00	 6.00000000E+00
					 5.00000000E-01	 0.00000000E+00	 6.00000000E+00
					 7.50000000E-01	 0.00000000E+00	 6.00000000E+00
					 5.00000000E-01	 0.00000000E+00	 6.50000000E+00
					 2.50000000E-01	 0.00000000E+00	 7.00000000E+00
					 5.00000000E-01	 0.00000000E+00	 7.00000000E+00
					 7.50000000E-01	 0.00000000E+00	 7.00000000E+00
					 5.00000000E-01	 0.00000000E+00	 7.50000000E+00
					 1.00000000E+00	 5.00000000E-01	 5.00000000E-01
					 1.00000000E+00	 2.50000000E-01	 1.00000000E+00
					 1.00000000E+00	 5.00000000E-01	 1.00000000E+00
					 1.00000000E+00	 7.50000000E-01	 1.00000000E+00
					 1.00000000E+00	 5.00000000E-01	 1.50000000E+00
					 1.00000000E+00	 2.50000000E-01	 2.00000000E+00
					 1.00000000E+00	 5.00000000E-01	 2.00000000E+00
					 1.00000000E+00	 7.50000000E-01	 2.00000000E+00
					 1.00000000E+00	 5.00000000E-01	 2.50000000E+00
					 1.00000000E+00	 2.50000000E-01	 3.00000000E+00
					 1.00000000E+00	 5.00000000E-01	 3.00000000E+00
					 1.00000000E+00	 7.50000000E-01	 3.00000000E+00
					 1.00000000E+00	 5.00000000E-01	 3.50000000E+00
					 1.00000000E+00	 2.50000000E-01	 4.00000000E+00
					 1.00000000E+00	 5.00000000E-01	 4.00000000E+00
					 1.00000000E+00	 7.50000000E-01	 4.00000000E+00
					 1.00000000E+00	 5.00000000E-01	 4.50000000E+00
					 1.00000000E+00	 2.50000000E-01	 5.00000000E+00
					 1.00000000E+00	 5.00000000E-01	 5.00000000E+00
					 1.00000000E+00	 7.50000000E-01	 5.00000000E+00
					 1.00000000E+00	 5.00000000E-01	 5.50000000E+00
					 1.00000000E+00	 2.50000000E-01	 6.00000000E+00
					 1.00000000E+00	 5.00000000E-01	 6.00000000E+00
					 1.00000000E+00	 7.50000000E-01	 6.00000000E+00
					 1.00000000E+00	 5.00000000E-01	 6.50000000E+00
					 1.00000000E+00	 2.50000000E-01	 7.00000000E+00
					 1.00000000E+00	 5.00000000E-01	 7.00000000E+00
					 1.00000000E+00	 7.50000000E-01	 7.00000000E+00
					 1.00000000E+00	 5.00000000E-01	 7.50000000E+00
					 5.00000000E-01	 1.00000000E+00	 5.00000000E-01
					 7.50000000E-01	 1.00000000E+00	 1.00000000E+00
					 5.00000000E-01	 1.00000000E+00	 1.00000000E+00
					 2.50000000E-01	 1.00000000E+00	 1.00000000E+00
					 5.00000000E-01	 1.00000000E+00	 1.50000000E+00
					 7.50000000E-01	 1.00000000E+00	 2.00000000E+00
					 5.00000000E-01	 1.00000000E+00	 2.00000000E+00
					 2.50000000E-01	 1.00000000E+00	 2.00000000E+00
					 5.00000000E-01	 1.00000000E+00	 2.50000000E+00
					 7.50000000E-01	 1.00000000E+00	 3.00000000E+00
					 5.00000000E-01	 1.00000000E+00	 3.00000000E+00
					 2.50000000E-01	 1.00000000E+00	 3.00000000E+00
					 5.00000000E-01	 1.00000000E+00	 3.50000000E+00
					 7.50000000E-01	 1.00000000E+00	 4.00000000E+00
					 5.00000000E-01	 1.00000000E+00	 4.00000000E+00
					 2.50000000E-01	 1.00000000E+00	 4.00000000E+00
					 5.00000000E-01	 1.00000000E+00	 4.50000000E+00
					 7.50000000E-01	 1.00000000E+00	 5.00000000E+00
					 5.00000000E-01	 1.00000000E+00	 5.00000000E+00
					 2.50000000E-01	 1.00000000E+00	 5.00000000E+00
					 5.00000000E-01	 1.00000000E+00	 5.50000000E+00
					 7.50000000E-01	 1.00000000E+00	 6.00000000E+00
					 5.00000000E-01	 1.00000000E+00	 6.00000000E+00
					 2.50000000E-01	 1.00000000E+00	 6.00000000E+00
					 5.00000000E-01	 1.00000000E+00	 6.50000000E+00
					 7.50000000E-01	 1.00000000E+00	 7.00000000E+00
					 5.00000000E-01	 1.00000000E+00	 7.00000000E+00
					 2.50000000E-01	 1.00000000E+00	 7.00000000E+00
					 5.00000000E-01	 1.00000000E+00	 7.50000000E+00
					 0.00000000E+00	 5.00000000E-01	 5.00000000E-01
					 0.00000000E+00	 7.50000000E-01	 1.00000000E+00
					 0.00000000E+00	 5.00000000E-01	 1.00000000E+00
					 0.00000000E+00	 2.50000000E-01	 1.00000000E+00
					 0.00000000E+00	 5.00000000E-01	 1.50000000E+00
					 0.00000000E+00	 7.50000000E-01	 2.00000000E+00
					 0.00000000E+00	 5.00000000E-01	 2.00000000E+00
					 0.00000000E+00	 2.50000000E-01	 2.00000000E+00
					 0.00000000E+00	 5.00000000E-01	 2.50000000E+00
					 0.00000000E+00	 7.50000000E-01	 3.00000000E+00
					 0.00000000E+00	 5.00000000E-01	 3.00000000E+00
					 0.00000000E+00	 2.50000000E-01	 3.00000000E+00
					 0.00000000E+00	 5.00000000E-01	 3.50000000E+00
					 0.00000000E+00	 7.50000000E-01	 4.00000000E+00
					 0.00000000E+00	 5.00000000E-01	 4.00000000E+00
					 0.00000000E+00	 2.50000000E-01	 4.00000000E+00
					 0.00000000E+00	 5.00000000E-01	 4.50000000E+00
					 0.00000000E+00	 7.50000000E-01	 5.00000000E+00
					 0.00000000E+00	 5.00000000E-01	 5.00000000E+00
					 0.00000000E+00	 2.50000000E-01	 5.00000000E+00
					 0.00000000E+00	 5.00000000E-01	 5.50000000E+00
					 0.00000000E+00	 7.50000000E-01	 6.00000000E+00
					 0.00000000E+00	 5.00000000E-01	 6.00000000E+00
					 0.00000000E+00	 2.50000000E-01	 6.00000000E+00
					 0.00000000E+00	 5.00000000E-01	 6.50000000E+00
					 0.00000000E+00	 7.50000000E-01	 7.00000000E+00
					 0.00000000E+00	 5.00000000E-01	 7.00000000E+00
					 0.00000000E+00	 2.50000000E-01	 7.00000000E+00
					 0.00000000E+00	 5.00000000E-01	 7.50000000E+00
					 5.00000000E-01	 5.00000000E-01	 5.00000000E-01
					 5.00000000E-01	 2.50000000E-01	 1.00000000E+00
					 2.50000000E-01	 5.00000000E-01	 1.00000000E+00
					 5.00000000E-01	 5.00000000E-01	 1.00000000E+00
					 7.50000000E-01	 5.00000000E-01	 1.00000000E+00
					 5.00000000E-01	 7.50000000E-01	 1.00000000E+00
					 5.00000000E-01	 5.00000000E-01	 1.50000000E+00
					 5.00000000E-01	 2.50000000E-01	 2.00000000E+00
					 2.50000000E-01	 5.00000000E-01	 2.00000000E+00
					 5.00000000E-01	 5.00000000E-01	 2.00000000E+00
					 7.50000000E-01	 5.00000000E-01	 2.00000000E+00
					 5.00000000E-01	 7.50000000E-01	 2.00000000E+00
					 5.00000000E-01	 5.00000000E-01	 2.50000000E+00
					 5.00000000E-01	 2.50000000E-01	 3.00000000E+00
					 2.50000000E-01	 5.00000000E-01	 3.00000000E+00
					 5.00000000E-01	 5.00000000E-01	 3.00000000E+00
					 7.50000000E-01	 5.00000000E-01	 3.00000000E+00
					 5.00000000E-01	 7.50000000E-01	 3.00000000E+00
					 5.00000000E-01	 5.00000000E-01	 3.50000000E+00
					 5.00000000E-01	 2.50000000E-01	 4.00000000E+00
					 2.50000000E-01	 5.00000000E-01	 4.00000000E+00
					 5.00000000E-01	 5.00000000E-01	 4.00000000E+00
					 7.50000000E-01	 5.00000000E-01	 4.00000000E+00
					 5.00000000E-01	 7.50000000E-01	 4.00000000E+00
					 5.00000000E-01	 5.00000000E-01	 4.50000000E+00
					 5.00000000E-01	 2.50000000E-01	 5.00000000E+00
					 2.50000000E-01	 5.00000000E-01	 5.00000000E+00
					 5.00000000E-01	 5.00000000E-01	 5.00000000E+00
					 7.50000000E-01	 5.00000000E-01	 5.00000000E+00
					 5.00000000E-01	 7.50000000E-01	 5.00000000E+00
					 5.00000000E-01	 5.00000000E-01	 5.50000000E+00
					 5.00000000E-01	 2.50000000E-01	 6.00000000E+00
					 2.50000000E-01	 5.00000000E-01	 6.00000000E+00
					 5.00000000E-01	 5.00000000E-01	 6.00000000E+00
					 7.50000000E-01	 5.00000000E-01	 6.00000000E+00
					 5.00000000E-01	 7.50000000E-01	 6.00000000E+00
					 5.00000000E-01	 5.00000000E-01	 6.50000000E+00
					 5.00000000E-01	 2.50000000E-01	 7.00000000E+00
					 2.50000000E-01	 5.00000000E-01	 7.00000000E+00
					 5.00000000E-01	 5.00000000E-01	 7.00000000E+00
					 7.50000000E-01	 5.00000000E-01	 7.00000000E+00
					 5.00000000E-01	 7.50000000E-01	 7.00000000E+00
					 5.00000000E-01	 5.00000000E-01	 7.50000000E+00
				</DataArray>
			</Points>
			<Cells>
				<DataArray type="Int32" Name="connectivity" format="ascii">
					0 9 94 18 60 104 221 191 8 92 93 19 103 219 220 192 61 102 218 189 9 1 12 94 104 33 133 221 10 11 95 92 105 132 222 219 102 32 131 218 18 94 15 3 191 221 162 78 93 96 16 17 220 223 163 190 189 218 160 77 94 12 2 15 221 133 63 162 95 13 14 96 222 134 161 223 218 131 62 160 60 104 221 191 58 108 227 195 103 219 220 192 107 225 226 196 59 106 224 193 104 33 133 221 108 35 137 227 105 132 222 219 109 136 228 225 106 34 135 224 191 221 162 78 195 227 166 80 220 223 163 190 226 229 167 194 193 224 164 79 221 133 63 162 227 137 65 166 222 134 161 223 228 138 165 229 224 135 64 164 58 108 227 195 56 112 233 199 107 225 226 196 111 231 232 200 57 110 230 197 108 35 137 227 112 37 141 233 109 136 228 225 113 140 234 231 110 36 139 230 195 227 166 80 199 233 170 82 226 229 167 194 232 235 171 198 197 230 168 81 227 137 65 166 233 141 67 170 228 138 165 229 234 142 169 235 230 139 66 168 56 112 233 199 54 116 239 203 111 231 232 200 115 237 238 204 55 114 236 201 112 37 141 233 116 39 145 239 113 140 234 231 117 144 240 237 114 38 143 236 199 233 170 82 203 239 174 84 232 235 171 198 238 241 175 202 201 236 172 83 233 141 67 170 239 145 69 174 234 142 169 235 240 146 173 241 236 143 68 172 54 116 239 203 52 120 245 207 115 237 238 204 119 243 244 208 53 118 242 205 116 39 145 239 120 41 149 245 117 144 240 237 121 148 246 243 118 40 147 242 203 239 174 84 207 245 178 86 238 241 175 202 244 247 179 206 205 242 176 85 239 145 69 174 245 149 71 178 240 146 173 241 246 150 177 247 242 147 70 176 52 120 245 207 50 124 251 211 119 243 244 208 123 249 250 212 51 122 248 209 120 41 149 245 124 43 153 251 121 148 246 243 125 152 252 249 122 42 151 248 207 245 178 86 211 251 182 88 244 247 179 206 250 253 183 210 209 248 180 87 245 149 71 178 251 153 73 182 246 150 177 247 252 154 181 253 248 151 72 180 50 124 251 211 48 128 257 215 123 249 250 212 127 255 256 216 49 126 254 213 124 43 153 251 128 45 157 257 125 152 252 249 129 156 258 255 126 44 155 254 211 251 182 88 215 257 186 90 250 253 183 210 256 259 187 214 213 254 184 89 251 153 73 182 257 157 75 186 252 154 181 253 258 158 185 259 254 155 74 184 48 128 257 215 4 21 99 30 127 255 256 216 20 97 98 31 47 130 260 217 128 45 157 257 21 5 24 99 129 156 258 255 22 23 100 97 130 46 159 260 215 257 186 90 30 99 27 7 256 259 187 214 98 101 28 29 217 260 188 91 257 157 75 186 99 24 6 27 258 158 185 259 100 25 26 101 260 159 76 188 
				</DataArray>
				<DataArray type="Int32" Name="offsets" format="ascii">
					20 40 60 80 100 120 140 160 180 200 220 240 260 280 300 320 340 360 380 400 420 440 460 480 500 520 540 560 580 600 620 640 
				</DataArray>
				<DataArray type="UInt8" Name="types" format="ascii">
					25 25 25 25 25 25 25 25 25 25 25 25 25 25 25 25 25 25 25 25 25 25 25 25 25 25 25 25 25 25 25 25 
				</DataArray>
			</Cells>
			<PointData>
				<DataArray type="Float32" Name="U" NumberOfComponents="3" ComponentName0="D1" ComponentName1="D2" ComponentName2="D3" format="ascii">
					-9.24325000E-07	 5.00070000E-01	 5.00006000E-01
					 9.24325000E-07	 5.00070000E-01	 5.00006000E-01
					 9.24325000E-07	-4.99930000E-01	-5.00006000E-01
					-9.24325000E-07	-4.99930000E-01	-5.00006000E-01
					 3.91774000E-05	 8.50047000E+00	-7.50004000E+00
					-3.91774000E-05	 8.50047000E+00	-7.50004000E+00
					-3.91774000E-05	 7.50047000E+00	-8.49996000E+00
					 3.91774000E-05	 7.50047000E+00	-8.49996000E+00
					 2.35501000E-07	 5.00070000E-01	 5.00013000E-01
					 3.91985000E-16	 5.00071000E-01	 5.00013000E-01
					-2.35501000E-07	 5.00070000E-01	 5.00013000E-01
					-4.58757000E-06	 2.50044000E-01	 2.50000000E-01
					 0.00000000E+00	 0.00000000E+00	 0.00000000E+00
					-4.58757000E-06	-2.49956000E-01	-2.50000000E-01
					-2.35501000E-07	-4.99930000E-01	-5.00013000E-01
					 8.60361000E-17	-4.99929000E-01	-5.00013000E-01
					 2.35501000E-07	-4.99930000E-01	-5.00013000E-01
					 4.58757000E-06	-2.49956000E-01	-2.50000000E-01
					 0.00000000E+00	 0.00000000E+00	 0.00000000E+00
					 4.58757000E-06	 2.50044000E-01	 2.50000000E-01
					 1.63771000E-05	 8.50040000E+00	-7.50003000E+00
					 1.21793000E-15	 8.50039000E+00	-7.50001000E+00
					-1.63771000E-05	 8.50040000E+00	-7.50003000E+00
					-2.61347000E-05	 8.25040000E+00	-7.75002000E+00
					-1.00478000E-05	 8.00039000E+00	-8.00000000E+00
					-2.61347000E-05	 7.75040000E+00	-8.24998000E+00
					-1.63771000E-05	 7.50040000E+00	-8.49997000E+00
					 7.13636000E-16	 7.50039000E+00	-8.49999000E+00
					 1.63771000E-05	 7.50040000E+00	-8.49997000E+00
					 2.61347000E-05	 7.75040000E+00	-8.24998000E+00
					 1.00478000E-05	 8.00039000E+00	-8.00000000E+00
					 2.61347000E-05	 8.25040000E+00	-7.75002000E+00
					-9.03979000E-08	 1.00006000E+00	-1.60152000E-05
					-9.87640000E-06	 1.50009000E+00	-5.00001000E-01
					-6.46615000E-06	 2.00010000E+00	-1.00001000E+00
					-6.52710000E-06	 2.50013000E+00	-1.50001000E+00
					-6.28575000E-06	 3.00015000E+00	-2.00001000E+00
					-6.64274000E-06	 3.50017000E+00	-2.50001000E+00
					-6.37507000E-06	 4.00019000E+00	-3.00001000E+00
					-6.61701000E-06	 4.50021000E+00	-3.50001000E+00
					-6.35582000E-06	 5.00023000E+00	-4.00001000E+00
					-6.97480000E-06	 5.50025000E+00	-4.50001000E+00
					-5.79650000E-06	 6.00028000E+00	-5.00001000E+00
					-8.72135000E-06	 6.50030000E+00	-5.50001000E+00
					-5.70751000E-06	 7.00032000E+00	-6.00001000E+00
					-1.42960000E-05	 7.50033000E+00	-6.50001000E+00
					 4.08208000E-06	 8.00038000E+00	-7.00000000E+00
					-4.08208000E-06	 8.00038000E+00	-7.00000000E+00
					 1.42960000E-05	 7.50033000E+00	-6.50001000E+00
					 5.70751000E-06	 7.00032000E+00	-6.00001000E+00
					 8.72135000E-06	 6.50030000E+00	-5.50001000E+00
					 5.79650000E-06	 6.00028000E+00	-5.00001000E+00
					 6.97480000E-06	 5.50025000E+00	-4.50001000E+00
					 6.35582000E-06	 5.00023000E+00	-4.00001000E+00
					 6.61701000E-06	 4.50021000E+00	-3.50001000E+00
					 6.37507000E-06	 4.00019000E+00	-3.00001000E+00
					 6.64274000E-06	 3.50017000E+00	-2.50001000E+00
					 6.28575000E-06	 3.00015000E+00	-2.00001000E+00
					 6.52710000E-06	 2.50013000E+00	-1.50001000E+00
					 6.46615000E-06	 2.00010000E+00	-1.00001000E+00
					 9.87640000E-06	 1.50009000E+00	-5.00001000E-01
					 9.03979000E-08	 1.00006000E+00	-1.60152000E-05
					-9.03979000E-08	 6.23513000E-05	-9.99984000E-01
					-9.87640000E-06	 5.00086000E-01	-1.50000000E+00
					-6.46615000E-06	 1.00011000E+00	-1.99999000E+00
					-6.52710000E-06	 1.50013000E+00	-2.49999000E+00
					-6.28575000E-06	 2.00015000E+00	-2.99999000E+00
					-6.64274000E-06	 2.50017000E+00	-3.49999000E+00
					-6.37507000E-06	 3.00019000E+00	-3.99999000E+00
					-6.61701000E-06	 3.50021000E+00	-4.49999000E+00
					-6.35582000E-06	 4.00023000E+00	-4.99999000E+00
					-6.97480000E-06	 4.50025000E+00	-5.49999000E+00
					-5.79650000E-06	 5.00028000E+00	-5.99999000E+00
					-8.72135000E-06	 5.50030000E+00	-6.49999000E+00
					-5.70751000E-06	 6.00032000E+00	-6.99999000E+00
					-1.42960000E-05	 6.50033000E+00	-7.49999000E+00
					 4.08208000E-06	 7.00038000E+00	-8.00000000E+00
					 9.03979000E-08	 6.23513000E-05	-9.99984000E-01
					 9.87640000E-06	 5.00086000E-01	-1.50000000E+00
					 6.46615000E-06	 1.00011000E+00	-1.99999000E+00
					 6.52710000E-06	 1.50013000E+00	-2.49999000E+00
					 6.28575000E-06	 2.00015000E+00	-2.99999000E+00
					 6.64274000E-06	 2.50017000E+00	-3.49999000E+00
					 6.37507000E-06	 3.00019000E+00	-3.99999000E+00
					 6.61701000E-06	 3.50021000E+00	-4.49999000E+00
					 6.35582000E-06	 4.00023000E+00	-4.99999000E+00
					 6.97480000E-06	 4.50025000E+00	-5.49999000E+00
					 5.79650000E-06	 5.00028000E+00	-5.99999000E+00
					 8.72135000E-06	 5.50030000E+00	-6.49999000E+00
					 5.70751000E-06	 6.00032000E+00	-6.99999000E+00
					 1.42960000E-05	 6.50033000E+00	-7.49999000E+00
					-4.08208000E-06	 7.00038000E+00	-8.00000000E+00
					 2.41253000E-16	 2.50043000E-01	 2.50004000E-01
					 0.00000000E+00	 0.00000000E+00	 0.00000000E+00
					 0.00000000E+00	 0.00000000E+00	 0.00000000E+00
					 0.00000000E+00	 0.00000000E+00	 0.00000000E+00
					-1.82125000E-17	-2.49957000E-01	-2.50004000E-01
					 6.61662000E-16	 8.25038000E+00	-7.75001000E+00
					 5.81775000E-06	 8.00038000E+00	-8.00000000E+00
					 0.00000000E+00	 8.00036000E+00	-8.00000000E+00
					-5.81775000E-06	 8.00038000E+00	-8.00000000E+00
					-1.08172000E-16	 7.75038000E+00	-8.24999000E+00
					-9.00505000E-17	 1.00006000E+00	-1.28160000E-05
					 4.80130000E-06	 1.50008000E+00	-5.00001000E-01
					 2.77662000E-16	 1.50008000E+00	-5.00001000E-01
					-4.80130000E-06	 1.50008000E+00	-5.00001000E-01
					-6.76324000E-16	 2.00011000E+00	-1.00001000E+00
					 3.31319000E-06	 2.50013000E+00	-1.50001000E+00
					-7.27011000E-16	 2.50012000E+00	-1.50001000E+00
					-3.31319000E-06	 2.50013000E+00	-1.50001000E+00
					-1.56754000E-15	 3.00015000E+00	-2.00001000E+00
					 3.31269000E-06	 3.50017000E+00	-2.50001000E+00
					 2.76134000E-16	 3.50017000E+00	-2.50001000E+00
					-3.31269000E-06	 3.50017000E+00	-2.50001000E+00
					-1.59367000E-15	 4.00019000E+00	-3.00001000E+00
					 3.30515000E-06	 4.50021000E+00	-3.50001000E+00
					-6.67614000E-17	 4.50021000E+00	-3.50001000E+00
					-3.30515000E-06	 4.50021000E+00	-3.50001000E+00
					-1.46290000E-15	 5.00023000E+00	-4.00001000E+00
					 3.51200000E-06	 5.50025000E+00	-4.50001000E+00
					-2.74690000E-15	 5.50025000E+00	-4.50001000E+00
					-3.51200000E-06	 5.50025000E+00	-4.50001000E+00
					-9.80694000E-16	 6.00028000E+00	-5.00001000E+00
					 4.28709000E-06	 6.50030000E+00	-5.50001000E+00
					 5.53824000E-16	 6.50030000E+00	-5.50001000E+00
					-4.28709000E-06	 6.50030000E+00	-5.50001000E+00
					 6.21311000E-16	 7.00032000E+00	-6.00001000E+00
					 7.34743000E-06	 7.50034000E+00	-6.50001000E+00
					 2.09674000E-15	 7.50034000E+00	-6.50001000E+00
					-7.34743000E-06	 7.50034000E+00	-6.50001000E+00
					 9.70732000E-16	 8.00037000E+00	-7.00000000E+00
					-1.02016000E-05	 5.00055000E-01	-5.00000000E-01
					-5.04355000E-06	 1.25008000E+00	-7.50001000E-01
					-2.34732000E-06	 1.00008000E+00	-1.00000000E+00
					-5.04355000E-06	 7.50083000E-01	-1.25000000E+00
					-7.38117000E-06	 1.50010000E+00	-1.50000000E+00
					-6.12911000E-06	 2.25013000E+00	-1.75000000E+00
					-5.19230000E-06	 2.00013000E+00	-2.00000000E+00
					-6.12911000E-06	 1.75013000E+00	-2.25000000E+00
					-6.59551000E-06	 2.50015000E+00	-2.50000000E+00
					-6.36228000E-06	 3.25017000E+00	-2.75000000E+00
					-6.23654000E-06	 3.00017000E+00	-3.00000000E+00
					-6.36228000E-06	 2.75017000E+00	-3.25000000E+00
					-6.46005000E-06	 3.50019000E+00	-3.50000000E+00
					-6.45771000E-06	 4.25021000E+00	-3.75000000E+00
					-6.22682000E-06	 4.00021000E+00	-4.00000000E+00
					-6.45771000E-06	 3.75021000E+00	-4.25000000E+00
					-6.60838000E-06	 4.50023000E+00	-4.50000000E+00
					-6.49098000E-06	 5.25025000E+00	-4.75000000E+00
					-6.12219000E-06	 5.00025000E+00	-5.00000000E+00
					-6.49098000E-06	 4.75025000E+00	-5.25000000E+00
					-6.45747000E-06	 5.50028000E+00	-5.50000000E+00
					-7.20228000E-06	 6.25030000E+00	-5.75000000E+00
					-5.33027000E-06	 6.00030000E+00	-6.00000000E+00
					-7.20228000E-06	 5.75030000E+00	-6.25000000E+00
					-7.87940000E-06	 6.50032000E+00	-6.50000000E+00
					-1.00989000E-05	 7.25034000E+00	-6.75001000E+00
					-6.86443000E-06	 7.00034000E+00	-7.00000000E+00
					-1.00989000E-05	 6.75034000E+00	-7.24999000E+00
					-1.92840000E-06	 7.50037000E+00	-7.50000000E+00
					-1.00473000E-16	 6.23274000E-05	-9.99987000E-01
					-4.80130000E-06	 5.00085000E-01	-1.50000000E+00
					-6.98576000E-17	 5.00085000E-01	-1.50000000E+00
					 4.80130000E-06	 5.00085000E-01	-1.50000000E+00
					-2.84982000E-16	 1.00011000E+00	-1.99999000E+00
					-3.31319000E-06	 1.50013000E+00	-2.49999000E+00
					 7.98137000E-17	 1.50012000E+00	-2.49999000E+00
					 3.31319000E-06	 1.50013000E+00	-2.49999000E+00
					-3.45603000E-16	 2.00015000E+00	-2.99999000E+00
					-3.31269000E-06	 2.50017000E+00	-3.49999000E+00
					-2.91274000E-16	 2.50017000E+00	-3.49999000E+00
					 3.31269000E-06	 2.50017000E+00	-3.49999000E+00
					-1.05675000E-15	 3.00019000E+00	-3.99999000E+00
					-3.30515000E-06	 3.50021000E+00	-4.49999000E+00
					-1.14110000E-16	 3.50021000E+00	-4.49999000E+00
					 3.30515000E-06	 3.50021000E+00	-4.49999000E+00
					-3.08744000E-16	 4.00023000E+00	-4.99999000E+00
					-3.51200000E-06	 4.50025000E+00	-5.49999000E+00
					 1.06009000E-15	 4.50025000E+00	-5.49999000E+00
					 3.51200000E-06	 4.50025000E+00	-5.49999000E+00
					 2.56877000E-15	 5.00028000E+00	-5.99999000E+00
					-4.28709000E-06	 5.50030000E+00	-6.49999000E+00
					 3.07869000E-15	 5.50030000E+00	-6.49999000E+00
					 4.28709000E-06	 5.50030000E+00	-6.49999000E+00
					 5.33995000E-15	 6.00032000E+00	-6.99999000E+00
					-7.34743000E-06	 6.50034000E+00	-7.49999000E+00
					 3.24035000E-15	 6.50034000E+00	-7.49999000E+00
					 7.34743000E-06	 6.50034000E+00	-7.49999000E+00
					 2.30824000E-15	 7.00037000E+00	-8.00000000E+00
					 1.02016000E-05	 5.00055000E-01	-5.00000000E-01
					 5.04355000E-06	 7.50083000E-01	-1.25000000E+00
					 2.34732000E-06	 1.00008000E+00	-1.00000000E+00
					 5.04355000E-06	 1.25008000E+00	-7.50001000E-01
					 7.38117000E-06	 1.50010000E+00	-1.50000000E+00
					 6.12911000E-06	 1.75013000E+00	-2.25000000E+00
					 5.19230000E-06	 2.00013000E+00	-2.00000000E+00
					 6.12911000E-06	 2.25013000E+00	-1.75000000E+00
					 6.59551000E-06	 2.50015000E+00	-2.50000000E+00
					 6.36228000E-06	 2.75017000E+00	-3.25000000E+00
					 6.23654000E-06	 3.00017000E+00	-3.00000000E+00
					 6.36228000E-06	 3.25017000E+00	-2.75000000E+00
					 6.46005000E-06	 3.50019000E+00	-3.50000000E+00
					 6.45771000E-06	 3.75021000E+00	-4.25000000E+00
					 6.22682000E-06	 4.00021000E+00	-4.00000000E+00
					 6.45771000E-06	 4.25021000E+00	-3.75000000E+00
					 6.60838000E-06	 4.50023000E+00	-4.50000000E+00
					 6.49098000E-06	 4.75025000E+00	-5.25000000E+00
					 6.12219000E-06	 5.00025000E+00	-5.00000000E+00
					 6.49098000E-06	 5.25025000E+00	-4.75000000E+00
					 6.45747000E-06	 5.50028000E+00	-5.50000000E+00
					 7.20228000E-06	 5.75030000E+00	-6.25000000E+00
					 5.33027000E-06	 6.00030000E+00	-6.00000000E+00
					 7.20228000E-06	 6.25030000E+00	-5.75000000E+00
					 7.87940000E-06	 6.50032000E+00	-6.50000000E+00
					 1.00989000E-05	 6.75034000E+00	-7.24999000E+00
					 6.86443000E-06	 7.00034000E+00	-7.00000000E+00
					 1.00989000E-05	 7.25034000E+00	-6.75001000E+00
					 1.92840000E-06	 7.50037000E+00	-7.50000000E+00
					-7.26810000E-17	 5.00054000E-01	-5.00000000E-01
					-9.83690000E-18	 1.25008000E+00	-7.50001000E-01
					 1.27890000E-06	 1.00008000E+00	-1.00000000E+00
					-1.06367000E-16	 1.00008000E+00	-1.00000000E+00
					-1.27890000E-06	 1.00008000E+00	-1.00000000E+00
					-2.65919000E-16	 7.50083000E-01	-1.25000000E+00
					-5.48097000E-16	 1.50010000E+00	-1.50000000E+00
					-7.41910000E-16	 2.25013000E+00	-1.75000000E+00
					 2.54462000E-06	 2.00013000E+00	-2.00000000E+00
					-6.43527000E-16	 2.00013000E+00	-2.00000000E+00
					-2.54462000E-06	 2.00013000E+00	-2.00000000E+00
					-4.69740000E-16	 1.75013000E+00	-2.25000000E+00
					-9.45631000E-16	 2.50015000E+00	-2.50000000E+00
					-6.01485000E-16	 3.25017000E+00	-2.75000000E+00
					 3.12083000E-06	 3.00017000E+00	-3.00000000E+00
					-1.74014000E-15	 3.00017000E+00	-3.00000000E+00
					-3.12083000E-06	 3.00017000E+00	-3.00000000E+00
					-8.95232000E-16	 2.75017000E+00	-3.25000000E+00
					-1.08136000E-15	 3.50019000E+00	-3.50000000E+00
					-1.04019000E-15	 4.25021000E+00	-3.75000000E+00
					 3.13816000E-06	 4.00021000E+00	-4.00000000E+00
					-1.49824000E-15	 4.00021000E+00	-4.00000000E+00
					-3.13816000E-06	 4.00021000E+00	-4.00000000E+00
					-6.13981000E-16	 3.75021000E+00	-4.25000000E+00