<?xml version="1.0"?>
<VTKFile type="UnstructuredGrid" version="0.1" byte_order="LittleEndian">
	<UnstructuredGrid>
		<Piece NumberOfPoints="81" NumberOfCells="32">
			<Points>
				<DataArray type="Float64" NumberOfComponents="3" format="ascii">
					 0.00000000E+00	 0.00000000E+00	 0.00000000E+00
					 1.00000000E+00	 0.00000000E+00	 0.00000000E+00
					 1.00000000E+00	 1.00000000E+00	 0.00000000E+00
					 0.00000000E+00	 1.00000000E+00	 0.00000000E+00
					 0.00000000E+00	 0.00000000E+00	 8.00000000E+00
					 1.00000000E+00	 0.00000000E+00	 8.00000000E+00
					 1.00000000E+00	 1.00000000E+00	 8.00000000E+00
					 0.00000000E+00	 1.00000000E+00	 8.00000000E+00
					 5.00000000E-01	 0.00000000E+00	 0.00000000E+00
					 1.00000000E+00	 5.00000000E-01	 0.00000000E+00
					 5.00000000E-01	 1.00000000E+00	 0.00000000E+00
					 0.00000000E+00	 5.00000000E-01	 0.00000000E+00
					 5.00000000E-01	 0.00000000E+00	 8.00000000E+00
					 1.00000000E+00	 5.00000000E-01	 8.00000000E+00
					 5.00000000E-01	 1.00000000E+00	 8.00000000E+00
					 0.00000000E+00	 5.00000000E-01	 8.00000000E+00
					 1.00000000E+00	 0.00000000E+00	 1.00000000E+00
					 1.00000000E+00	 0.00000000E+00	 2.00000000E+00
					 1.00000000E+00	 0.00000000E+00	 3.00000000E+00
					 1.00000000E+00	 0.00000000E+00	 4.00000000E+00
					 1.00000000E+00	 0.00000000E+00	 5.00000000E+00
					 1.00000000E+00	 0.00000000E+00	 6.00000000E+00
					 1.00000000E+00	 0.00000000E+00	 7.00000000E+00
					 0.00000000E+00	 0.00000000E+00	 7.00000000E+00
					 0.00000000E+00	 0.00000000E+00	 6.00000000E+00
					 0.00000000E+00	 0.00000000E+00	 5.00000000E+00
					 0.00000000E+00	 0.00000000E+00	 4.00000000E+00
					 0.00000000E+00	 0.00000000E+00	 3.00000000E+00
					 0.00000000E+00	 0.00000000E+00	 2.00000000E+00
					 0.00000000E+00	 0.00000000E+00	 1.00000000E+00
					 1.00000000E+00	 1.00000000E+00	 1.00000000E+00
					 1.00000000E+00	 1.00000000E+00	 2.00000000E+00
					 1.00000000E+00	 1.00000000E+00	 3.00000000E+00
					 1.00000000E+00	 1.00000000E+00	 4.00000000E+00
					 1.00000000E+00	 1.00000000E+00	 5.00000000E+00
					 1.00000000E+00	 1.00000000E+00	 6.00000000E+00
					 1.00000000E+00	 1.00000000E+00	 7.00000000E+00
					 0.00000000E+00	 1.00000000E+00	 1.00000000E+00
					 0.00000000E+00	 1.00000000E+00	 2.00000000E+00
					 0.00000000E+00	 1.00000000E+00	 3.00000000E+00
					 0.00000000E+00	 1.00000000E+00	 4.00000000E+00
					 0.00000000E+00	 1.00000000E+00	 5.00000000E+00
					 0.00000000E+00	 1.00000000E+00	 6.00000000E+00
					 0.00000000E+00	 1.00000000E+00	 7.00000000E+00
					 5.00000000E-01	 5.00000000E-01	 0.00000000E+00
					 5.00000000E-01	 5.00000000E-01	 8.00000000E+00
					 5.00000000E-01	 0.00000000E+00	 1.00000000E+00
					 5.00000000E-01	 0.00000000E+00	 2.00000000E+00
					 5.00000000E-01	 0.00000000E+00	 3.00000000E+00
					 5.00000000E-01	 0.00000000E+00	 4.00000000E+00
					 5.00000000E-01	 0.00000000E+00	 5.00000000E+00
					 5.00000000E-01	 0.00000000E+00	 6.00000000E+00
					 5.00000000E-01	 0.00000000E+00	 7.00000000E+00
					 1.00000000E+00	 5.00000000E-01	 1.00000000E+00
					 1.00000000E+00	 5.00000000E-01	 2.00000000E+00
					 1.00000000E+00	 5.00000000E-01	 3.00000000E+00
					 1.00000000E+00	 5.00000000E-01	 4.00000000E+00
					 1.00000000E+00	 5.00000000E-01	 5.00000000E+00
					 1.00000000E+00	 5.00000000E-01	 6.00000000E+00
					 1.00000000E+00	 5.00000000E-01	 7.00000000E+00
					 5.00000000E-01	 1.00000000E+00	 1.00000000E+00
					 5.00000000E-01	 1.00000000E+00	 2.00000000E+00
					 5.00000000E-01	 1.00000000E+00	 3.00000000E+00
					 5.00000000E-01	 1.00000000E+00	 4.00000000E+00
					 5.00000000E-01	 1.00000000E+00	 5.00000000E+00
					 5.00000000E-01	 1.00000000E+00	 6.00000000E+00
					 5.00000000E-01	 1.00000000E+00	 7.00000000E+00
					 0.00000000E+00	 5.00000000E-01	 1.00000000E+00
					 0.00000000E+00	 5.00000000E-01	 2.00000000E+00
					 0.00000000E+00	 5.00000000E-01	 3.00000000E+00
					 0.00000000E+00	 5.00000000E-01	 4.00000000E+00
					 0.00000000E+00	 5.00000000E-01	 5.00000000E+00
					 0.00000000E+00	 5.00000000E-01	 6.00000000E+00
					 0.00000000E+00	 5.00000000E-01	 7.00000000E+00
					 5.00000000E-01	 5.00000000E-01	 1.00000000E+00
					 5.00000000E-01	 5.00000000E-01	 2.00000000E+00
					 5.00000000E-01	 5.00000000E-01	 3.00000000E+00
					 5.00000000E-01	 5.00000000E-01	 4.00000000E+00
					 5.00000000E-01	 5.00000000E-01	 5.00000000E+00
					 5.00000000E-01	 5.00000000E-01	 6.00000000E+00
					 5.00000000E-01	 5.00000000E-01	 7.00000000E+00
				</DataArray>
			</Points>
			<Cells>
				<DataArray type="Int32" Name="connectivity" format="ascii">
					0 8 44 11 29 46 74 67 8 1 9 44 46 16 53 74 11 44 10 3 67 74 60 37 44 9 2 10 74 53 30 60 29 46 74 67 28 47 75 68 46 16 53 74 47 17 54 75 67 74 60 37 68 75 61 38 74 53 30 60 75 54 31 61 28 47 75 68 27 48 76 69 47 17 54 75 48 18 55 76 68 75 61 38 69 76 62 39 75 54 31 61 76 55 32 62 27 48 76 69 26 49 77 70 48 18 55 76 49 19 56 77 69 76 62 39 70 77 63 40 76 55 32 62 77 56 33 63 26 49 77 70 25 50 78 71 49 19 56 77 50 20 57 78 70 77 63 40 71 78 64 41 77 56 33 63 78 57 34 64 25 50 78 71 24 51 79 72 50 20 57 78 51 21 58 79 71 78 64 41 72 79 65 42 78 57 34 64 79 58 35 65 24 51 79 72 23 52 80 73 51 21 58 79 52 22 59 80 72 79 65 42 73 80 66 43 79 58 35 65 80 59 36 66 23 52 80 73 4 12 45 15 52 22 59 80 12 5 13 45 73 80 66 43 15 45 14 7 80 59 36 66 45 13 6 14 
				</DataArray>
				<DataArray type="Int32" Name="offsets" format="ascii">
					8 16 24 32 40 48 56 64 72 80 88 96 104 112 120 128 136 144 152 160 168 176 184 192 200 208 216 224 232 240 248 256 
				</DataArray>
				<DataArray type="UInt8" Name="types" format="ascii">
					12 12 12 12 12 12 12 12 12 12 12 12 12 12 12 12 12 12 12 12 12 12 12 12 12 12 12 12 12 12 12 12 
				</DataArray>
			</Cells>
			<PointData>
				<DataArray type="Float32" Name="U" NumberOfComponents="3" ComponentName0="D1" ComponentName1="D2" ComponentName2="D3" format="ascii">
					 0.00000000E+00	 0.00000000E+00	 0.00000000E+00
					 0.00000000E+00	 0.00000000E+00	 0.00000000E+00
					 0.00000000E+00	 0.00000000E+00	 0.00000000E+00
					 0.00000000E+00	 0.00000000E+00	 0.00000000E+00
					 5.70786000E+03	 1.17258000E+03	 1.51444000E+01
					 5.72705000E+03	 1.26268000E+03	-9.82642000E+00
					 5.70786000E+03	 1.17258000E+03	-1.51444000E+01
					 5.72705000E+03	 1.26268000E+03	 9.82642000E+00
					 0.00000000E+00	 0.00000000E+00	 0.00000000E+00
					 0.00000000E+00	 0.00000000E+00	 0.00000000E+00
					 0.00000000E+00	 0.00000000E+00	 0.00000000E+00
					 0.00000000E+00	 0.00000000E+00	 0.00000000E+00
					 5.73871000E+03	 1.21004000E+03	 1.18605000E+00
					 5.68181000E+03	 1.22215000E+03	-5.56918000E+00
					 5.73871000E+03	 1.21004000E+03	-1.18605000E+00
					 5.68181000E+03	 1.22215000E+03	 5.56918000E+00
					 8.26424000E+02	 1.20192000E+02	-1.89410000E+02
					 1.89556000E+03	 4.03617000E+02	-2.36913000E+02
					 2.94155000E+03	 6.34223000E+02	-2.22818000E+02
					 3.86537000E+03	 8.34731000E+02	-1.91837000E+02
					 4.63046000E+03	 1.00112000E+03	-1.52519000E+02
					 5.19887000E+03	 1.12204000E+03	-1.03268000E+02
					 5.55568000E+03	 1.19820000E+03	-5.66652000E+01
					 5.54898000E+03	 1.16673000E+03	 8.73319000E+01
					 5.19225000E+03	 1.09092000E+03	 1.59156000E+02
					 4.62377000E+03	 9.69721000E+02	 2.35061000E+02
					 3.86023000E+03	 8.10567000E+02	 2.95658000E+02
					 2.93808000E+03	 6.17943000E+02	 3.43405000E+02
					 1.89560000E+03	 4.03775000E+02	 3.65128000E+02
					 8.51324000E+02	 2.37113000E+02	 2.91917000E+02
					 8.51324000E+02	 2.37113000E+02	-2.91917000E+02
					 1.89560000E+03	 4.03775000E+02	-3.65128000E+02
					 2.93808000E+03	 6.17943000E+02	-3.43405000E+02
					 3.86023000E+03	 8.10567000E+02	-2.95658000E+02
					 4.62377000E+03	 9.69721000E+02	-2.35061000E+02
					 5.19225000E+03	 1.09092000E+03	-1.59156000E+02
					 5.54898000E+03	 1.16673000E+03	-8.73319000E+01
					 8.26424000E+02	 1.20192000E+02	 1.89410000E+02
					 1.89556000E+03	 4.03617000E+02	 2.36913000E+02
					 2.94155000E+03	 6.34223000E+02	 2.22818000E+02
					 3.86537000E+03	 8.34731000E+02	 1.91837000E+02
					 4.63046000E+03	 1.00112000E+03	 1.52519000E+02
					 5.19887000E+03	 1.12204000E+03	 1.03268000E+02
					 5.55568000E+03	 1.19820000E+03	 5.66652000E+01
					 0.00000000E+00	 0.00000000E+00	 0.00000000E+00
					 5.66016000E+03	 1.20543000E+03	-4.53156000E-10
					 7.99390000E+02	 1.83403000E+02	 5.13245000E+01
					 1.90157000E+03	 4.04491000E+02	 6.47709000E+01
					 2.94228000E+03	 6.25089000E+02	 6.03196000E+01
					 3.86939000E+03	 8.21486000E+02	 5.21471000E+01
					 4.63307000E+03	 9.83520000E+02	 4.07231000E+01
					 5.20591000E+03	 1.10522000E+03	 2.94776000E+01
					 5.54999000E+03	 1.18003000E+03	 1.26219000E+01
					 8.61182000E+02	 1.70244000E+02	-2.40997000E+02
					 1.89931000E+03	 4.04971000E+02	-3.04136000E+02
					 2.93515000E+03	 6.26608000E+02	-2.83234000E+02
					 3.85734000E+03	 8.24053000E+02	-2.44860000E+02
					 4.61818000E+03	 9.86691000E+02	-1.91218000E+02
					 5.18962000E+03	 1.10869000E+03	-1.38414000E+02
					 5.54093000E+03	 1.18196000E+03	-5.92669000E+01
					 7.99390000E+02	 1.83403000E+02	-5.13245000E+01
					 1.90157000E+03	 4.04491000E+02	-6.47709000E+01
					 2.94228000E+03	 6.25089000E+02	-6.03196000E+01
					 3.86939000E+03	 8.21486000E+02	-5.21471000E+01
					 4.63307000E+03	 9.83520000E+02	-4.07231000E+01
					 5.20591000E+03	 1.10522000E+03	-2.94776000E+01
					 5.54999000E+03	 1.18003000E+03	-1.26219000E+01
					 8.61182000E+02	 1.70244000E+02	 2.40997000E+02
					 1.89931000E+03	 4.04971000E+02	 3.04136000E+02
					 2.93515000E+03	 6.26608000E+02	 2.83234000E+02
					 3.85734000E+03	 8.24053000E+02	 2.44860000E+02
					 4.61818000E+03	 9.86691000E+02	 1.91218000E+02
					 5.18962000E+03	 1.10869000E+03	 1.38414000E+02
					 5.54093000E+03	 1.18196000E+03	 5.92669000E+01
					 8.21836000E+02	 1.75024000E+02	-3.18856000E-11
					 1.90511000E+03	 4.05725000E+02	-9.42251000E-11
					 2.93855000E+03	 6.25813000E+02	-1.76357000E-10
					 3.86218000E+03	 8.22517000E+02	-2.63128000E-10
					 4.62883000E+03	 9.85787000E+02	-3.42084000E-10
					 5.18950000E+03	 1.10519000E+03	-4.03247000E-10
					 5.56812000E+03	 1.18583000E+03	-4.45652000E-10
				</DataArray>
				<DataArray type="Float32" Name="U" NumberOfComponents="3" ComponentName0="D1" ComponentName1="D2" ComponentName2="D3" format="ascii">
					 0.00000000E+00	 0.00000000E+00	 0.00000000E+00
					 0.00000000E+00	 0.00000000E+00	 0.00000000E+00
					 0.00000000E+00	 0.00000000E+00	 0.00000000E+00
					 0.00000000E+00	 0.00000000E+00	 0.00000000E+00
					-1.26268000E+03	 5.72705000E+03	 9.82642000E+00
					-1.17258000E+03	 5.70786000E+03	 1.51444000E+01
					-1.26268000E+03	 5.72705000E+03	-9.82642000E+00
					-1.17258000E+03	 5.70786000E+03	-1.51444000E+01
					 0.00000000E+00	 0.00000000E+00	 0.00000000E+00
					 0.00000000E+00	 0.00000000E+00	 0.00000000E+00
					 0.00000000E+00	 0.00000000E+00	 0.00000000E+00
					 0.00000000E+00	 0.00000000E+00	 0.00000000E+00
					-1.22215000E+03	 5.68181000E+03	 5.56918000E+00
					-1.21004000E+03	 5.73871000E+03	 1.18605000E+00
					-1.22215000E+03	 5.68181000E+03	-5.56918000E+00
					-1.21004000E+03	 5.73871000E+03	-1.18605000E+00
					-2.37113000E+02	 8.51324000E+02	 2.91917000E+02
					-4.03775000E+02	 1.89560000E+03	 3.65128000E+02
					-6.17943000E+02	 2.93808000E+03	 3.43405000E+02
					-8.10567000E+02	 3.86023000E+03	 2.95658000E+02
					-9.69721000E+02	 4.62377000E+03	 2.35061000E+02
					-1.09092000E+03	 5.19225000E+03	 1.59156000E+02
					-1.16673000E+03	 5.54898000E+03	 8.73319000E+01
					-1.19820000E+03	 5.55568000E+03	 5.66652000E+01
					-1.12204000E+03	 5.19887000E+03	 1.03268000E+02
					-1.00112000E+03	 4.63046000E+03	 1.52519000E+02
					-8.34731000E+02	 3.86537000E+03	 1.91837000E+02
					-6.34223000E+02	 2.94155000E+03	 2.22818000E+02
					-4.03617000E+02	 1.89556000E+03	 2.36913000E+02
					-1.20192000E+02	 8.26424000E+02	 1.89410000E+02
					-1.20192000E+02	 8.26424000E+02	-1.89410000E+02
					-4.03617000E+02	 1.89556000E+03	-2.36913000E+02
					-6.34223000E+02	 2.94155000E+03	-2.22818000E+02
					-8.34731000E+02	 3.86537000E+03	-1.91837000E+02
					-1.00112000E+03	 4.63046000E+03	-1.52519000E+02
					-1.12204000E+03	 5.19887000E+03	-1.03268000E+02
					-1.19820000E+03	 5.55568000E+03	-5.66652000E+01
					-2.37113000E+02	 8.51324000E+02	-2.91917000E+02
					-4.03775000E+02	 1.89560000E+03	-3.65128000E+02
					-6.17943000E+02	 2.93808000E+03	-3.43405000E+02
					-8.10567000E+02	 3.86023000E+03	-2.95658000E+02
					-9.69721000E+02	 4.62377000E+03	-2.35061000E+02
					-1.09092000E+03	 5.19225000E+03	-1.59156000E+02
					-1.16673000E+03	 5.54898000E+03	-8.73319000E+01
					 0.00000000E+00	 0.00000000E+00	 0.00000000E+00
					-1.20543000E+03	 5.66016000E+03	-2.71029000E-10
					-1.70244000E+02	 8.61182000E+02	 2.40997000E+02
					-4.04971000E+02	 1.89931000E+03	 3.04136000E+02
					-6.26608000E+02	 2.93515000E+03	 2.83234000E+02
					-8.24053000E+02	 3.85734000E+03	 2.44860000E+02
					-9.86691000E+02	 4.61818000E+03	 1.91218000E+02
					-1.10869000E+03	 5.18962000E+03	 1.38414000E+02
					-1.18196000E+03	 5.54093000E+03	 5.92669000E+01
					-1.83403000E+02	 7.99390000E+02	 5.13245000E+01
					-4.04491000E+02	 1.90157000E+03	 6.47709000E+01
					-6.25089000E+02	 2.94228000E+03	 6.03196000E+01
					-8.21486000E+02	 3.86939000E+03	 5.21471000E+01
					-9.83520000E+02	 4.63307000E+03	 4.07231000E+01
					-1.10522000E+03	 5.20591000E+03	 2.94776000E+01
					-1.18003000E+03	 5.54999000E+03	 1.26219000E+01
					-1.70244000E+02	 8.61182000E+02	-2.40997000E+02
					-4.04971000E+02	 1.89931000E+03	-3.04136000E+02
					-6.26608000E+02	 2.93515000E+03	-2.83234000E+02
					-8.24053000E+02	 3.85734000E+03	-2.44860000E+02
					-9.86691000E+02	 4.61818000E+03	-1.91218000E+02
					-1.10869000E+03	 5.18962000E+03	-1.38414000E+02
					-1.18196000E+03	 5.54093000E+03	-5.92669000E+01
					-1.83403000E+02	 7.99390000E+02	-5.13245000E+01
					-4.04491000E+02	 1.90157000E+03	-6.47709000E+01
					-6.25089000E+02	 2.94228000E+03	-6.03196000E+01
					-8.21486000E+02	 3.86939000E+03	-5.21471000E+01
					-9.83520000E+02	 4.63307000E+03	-4.07231000E+01
					-1.10522000E+03	 5.20591000E+03	-2.94776000E+01
					-1.18003000E+03	 5.54999000E+03	-1.26219000E+01
					-1.75024000E+02	 8.21836000E+02	-1.92770000E-11
					-4.05725000E+02	 1.90511000E+03	-5.86411000E-11
					-6.25813000E+02	 2.93855000E+03	-1.08798000E-10
					-8.22517000E+02	 3.86218000E+03	-1.61435000E-10
					-9.85787000E+02	 4.62883000E+03	-2.07820000E-10
					-1.10519000E+03	 5.18950000E+03	-2.43745000E-10
					-1.18583000E+03	 5.56812000E+03	-2.66937000E-10
				</DataArray>
				<DataArray type="Float32" Name="SENFREQ" NumberOfComponents="2" ComponentName0="DFDN" ComponentName1="DFDNFIL" format="ascii">
					 0.00000000E+00	 0.00000000E+00
					 0.00000000E+00	 0.00000000E+00
					 0.00000000E+00	 0.00000000E+00
					 0.00000000E+00	 0.00000000E+00
					-8.03719000E+10	-3.59551000E-01
					-8.12692000E+10	-3.63564000E-01
					-8.03719000E+10	-3.59550000E-01
					-8.12692000E+10	-3.63564000E-01
					 0.00000000E+00	 0.00000000E+00
					 0.00000000E+00	 0.00000000E+00
					 0.00000000E+00	 0.00000000E+00
					 0.00000000E+00	 0.00000000E+00
					-1.00025000E+11	-4.47472000E-01
					-9.78490000E+10	-4.37736000E-01
					-1.00025000E+11	-4.47472000E-01
					-9.78490000E+10	-4.37735000E-01
					 1.45751000E+11	 6.52030000E-01
					 7.20118000E+10	 3.22151000E-01
					 4.47716000E+10	 2.00290000E-01
					 6.92199000E+09	 3.09661000E-02
					-3.24553000E+10	-1.45192000E-01
					-6.60216000E+10	-2.95353000E-01
					-8.96676000E+10	-4.01136000E-01
					-8.84851000E+10	-3.95846000E-01
					-6.48841000E+10	-2.90264000E-01
					-3.15887000E+10	-1.41315000E-01
					 7.24772000E+09	 3.24233000E-02
					 4.44592000E+10	 1.98892000E-01
					 6.91635000E+10	 3.09409000E-01
					 1.60571000E+11	 7.18326000E-01
					 1.60571000E+11	 7.18326000E-01
					 6.91635000E+10	 3.09409000E-01
					 4.44592000E+10	 1.98892000E-01
					 7.24771000E+09	 3.24232000E-02
					-3.15887000E+10	-1.41315000E-01
					-6.48841000E+10	-2.90264000E-01
					-8.84851000E+10	-3.95846000E-01
					 1.45751000E+11	 6.52030000E-01
					 7.20118000E+10	 3.22151000E-01
					 4.47716000E+10	 2.00290000E-01
					 6.92199000E+09	 3.09661000E-02
					-3.24553000E+10	-1.45192000E-01
					-6.60216000E+10	-2.95353000E-01
					-8.96676000E+10	-4.01136000E-01
					 0.00000000E+00	 0.00000000E+00
					-1.46505000E+11	-6.55403000E-01
					 1.97175000E+11	 8.82080000E-01
					 1.03070000E+11	 4.61093000E-01
					 6.28421000E+10	 2.81130000E-01
					 9.56531000E+09	 4.27912000E-02
					-4.63557000E+10	-2.07376000E-01
					-9.45736000E+10	-4.23083000E-01
					-1.27335000E+11	-5.69642000E-01
					 2.23534000E+11	 1.00000000E+00
					 9.82050000E+10	 4.39328000E-01
					 6.25769000E+10	 2.79943000E-01
					 1.02719000E+10	 4.59522000E-02
					-4.46303000E+10	-1.99658000E-01
					-9.21565000E+10	-4.12270000E-01
					-1.24671000E+11	-5.57725000E-01
					 1.97175000E+11	 8.82080000E-01
					 1.03070000E+11	 4.61093000E-01
					 6.28421000E+10	 2.81130000E-01
					 9.56530000E+09	 4.27912000E-02
					-4.63557000E+10	-2.07376000E-01
					-9.45736000E+10	-4.23083000E-01
					-1.27335000E+11	-5.69642000E-01
					 2.23534000E+11	 1.00000000E+00
					 9.82050000E+10	 4.39328000E-01
					 6.25769000E+10	 2.79943000E-01
					 1.02719000E+10	 4.59521000E-02
					-4.46304000E+10	-1.99658000E-01
					-9.21565000E+10	-4.12270000E-01
					-1.24671000E+11	-5.57725000E-01
					 0.00000000E+00	 0.00000000E+00
					 0.00000000E+00	 0.00000000E+00
					 0.00000000E+00	 0.00000000E+00
					 0.00000000E+00	 0.00000000E+00
					 0.00000000E+00	 0.00000000E+00
					 0.00000000E+00	 0.00000000E+00
					 0.00000000E+00	 0.00000000E+00
				</DataArray>
				<DataArray type="Float32" Name="SENFREQ" NumberOfComponents="2" ComponentName0="DFDN" ComponentName1="DFDNFIL" format="ascii">
					 0.00000000E+00	 0.00000000E+00
					 0.00000000E+00	 0.00000000E+00
					 0.00000000E+00	 0.00000000E+00
					 0.00000000E+00	 0.00000000E+00
					-8.12692000E+10	-3.63564000E-01
					-8.03719000E+10	-3.59550000E-01
					-8.12691000E+10	-3.63564000E-01
					-8.03719000E+10	-3.59550000E-01
					 0.00000000E+00	 0.00000000E+00
					 0.00000000E+00	 0.00000000E+00
					 0.00000000E+00	 0.00000000E+00
					 0.00000000E+00	 0.00000000E+00
					-9.78490000E+10	-4.37735000E-01
					-1.00025000E+11	-4.47472000E-01
					-9.78490000E+10	-4.37735000E-01
					-1.00025000E+11	-4.47472000E-01
					 1.60571000E+11	 7.18326000E-01
					 6.91635000E+10	 3.09409000E-01
					 4.44592000E+10	 1.98892000E-01
					 7.24771000E+09	 3.24232000E-02
					-3.15887000E+10	-1.41315000E-01
					-6.48841000E+10	-2.90264000E-01
					-8.84851000E+10	-3.95846000E-01
					-8.96676000E+10	-4.01135000E-01
					-6.60216000E+10	-2.95353000E-01
					-3.24553000E+10	-1.45192000E-01
					 6.92199000E+09	 3.09661000E-02
					 4.47716000E+10	 2.00290000E-01
					 7.20118000E+10	 3.22151000E-01
					 1.45751000E+11	 6.52030000E-01
					 1.45751000E+11	 6.52030000E-01
					 7.20118000E+10	 3.22151000E-01
					 4.47716000E+10	 2.00290000E-01
					 6.92199000E+09	 3.09661000E-02
					-3.24553000E+10	-1.45192000E-01
					-6.60216000E+10	-2.95353000E-01
					-8.96676000E+10	-4.01136000E-01
					 1.60571000E+11	 7.18326000E-01
					 6.91635000E+10	 3.09409000E-01
					 4.44592000E+10	 1.98892000E-01
					 7.24771000E+09	 3.24233000E-02
					-3.15887000E+10	-1.41315000E-01
					-6.48841000E+10	-2.90264000E-01
					-8.84851000E+10	-3.95846000E-01
					 0.00000000E+00	 0.00000000E+00
					-1.46505000E+11	-6.55403000E-01
					 2.23534000E+11	 1.00000000E+00
					 9.82050000E+10	 4.39328000E-01
					 6.25769000E+10	 2.79943000E-01
					 1.02719000E+10	 4.59522000E-02
					-4.46304000E+10	-1.99658000E-01
					-9.21565000E+10	-4.12270000E-01
					-1.24671000E+11	-5.57725000E-01
					 1.97175000E+11	 8.82080000E-01
					 1.03070000E+11	 4.61093000E-01
					 6.28421000E+10	 2.81129000E-01
					 9.56530000E+09	 4.27912000E-02
					-4.63557000E+10	-2.07376000E-01
					-9.45736000E+10	-4.23083000E-01
					-1.27335000E+11	-5.69642000E-01
					 2.23534000E+11	 1.00000000E+00
					 9.82050000E+10	 4.39328000E-01
					 6.25769000E+10	 2.79943000E-01
					 1.02719000E+10	 4.59522000E-02
					-4.46304000E+10	-1.99658000E-01
					-9.21566000E+10	-4.12270000E-01
					-1.24671000E+11	-5.57725000E-01
					 1.97175000E+11	 8.82080000E-01
					 1.03070000E+11	 4.61093000E-01
					 6.28421000E+10	 2.81130000E-01
					 9.56531000E+09	 4.27912000E-02
					-4.63557000E+10	-2.07376000E-01
					-9.45736000E+10	-4.23083000E-01
					-1.27335000E+11	-5.69642000E-01
					 0.00000000E+00	 0.00000000E+00
					 0.00000000E+00	 0.00000000E+00
					 0.00000000E+00	 0.00000000E+00
					 0.00000000E+00	 0.00000000E+00
					 0.00000000E+00	 0.00000000E+00
					 0.00000000E+00	 0.00000000E+00
					 0.00000000E+00	 0.00000000E+00
				</DataArray>
			</PointData>
		</Piece>
	</UnstructuredGrid>
</VTKFile>