# vtk DataFile Version 3.0

ASCII
DATASET UNSTRUCTURED_GRID

POINTS 81 double
	 0.00000000E+00	 0.00000000E+00	 0.00000000E+00
	 1.00000000E+00	 0.00000000E+00	 0.00000000E+00
	 1.00000000E+00	 1.00000000E+00	 0.00000000E+00
	 0.00000000E+00	 1.00000000E+00	 0.00000000E+00
	 0.00000000E+00	 0.00000000E+00	 8.00000000E+00
	 1.00000000E+00	 0.00000000E+00	 8.00000000E+00
	 1.00000000E+00	 1.00000000E+00	 8.00000000E+00
	 0.00000000E+00	 1.00000000E+00	 8.00000000E+00
	 5.00000000E-01	 0.00000000E+00	 0.00000000E+00
	 1.00000000E+00	 5.00000000E-01	 0.00000000E+00
	 5.00000000E-01	 1.00000000E+00	 0.00000000E+00
	 0.00000000E+00	 5.00000000E-01	 0.00000000E+00
	 5.00000000E-01	 0.00000000E+00	 8.00000000E+00
	 1.00000000E+00	 5.00000000E-01	 8.00000000E+00
	 5.00000000E-01	 1.00000000E+00	 8.00000000E+00
	 0.00000000E+00	 5.00000000E-01	 8.00000000E+00
	 1.00000000E+00	 0.00000000E+00	 1.00000000E+00
	 1.00000000E+00	 0.00000000E+00	 2.00000000E+00
	 1.00000000E+00	 0.00000000E+00	 3.00000000E+00
	 1.00000000E+00	 0.00000000E+00	 4.00000000E+00
	 1.00000000E+00	 0.00000000E+00	 5.00000000E+00
	 1.00000000E+00	 0.00000000E+00	 6.00000000E+00
	 1.00000000E+00	 0.00000000E+00	 7.00000000E+00
	 0.00000000E+00	 0.00000000E+00	 7.00000000E+00
	 0.00000000E+00	 0.00000000E+00	 6.00000000E+00
	 0.00000000E+00	 0.00000000E+00	 5.00000000E+00
	 0.00000000E+00	 0.00000000E+00	 4.00000000E+00
	 0.00000000E+00	 0.00000000E+00	 3.00000000E+00
	 0.00000000E+00	 0.00000000E+00	 2.00000000E+00
	 0.00000000E+00	 0.00000000E+00	 1.00000000E+00
	 1.00000000E+00	 1.00000000E+00	 1.00000000E+00
	 1.00000000E+00	 1.00000000E+00	 2.00000000E+00
	 1.00000000E+00	 1.00000000E+00	 3.00000000E+00
	 1.00000000E+00	 1.00000000E+00	 4.00000000E+00
	 1.00000000E+00	 1.00000000E+00	 5.00000000E+00
	 1.00000000E+00	 1.00000000E+00	 6.00000000E+00
	 1.00000000E+00	 1.00000000E+00	 7.00000000E+00
	 0.00000000E+00	 1.00000000E+00	 1.00000000E+00
	 0.00000000E+00	 1.00000000E+00	 2.00000000E+00
	 0.00000000E+00	 1.00000000E+00	 3.00000000E+00
	 0.00000000E+00	 1.00000000E+00	 4.00000000E+00
	 0.00000000E+00	 1.00000000E+00	 5.00000000E+00
	 0.00000000E+00	 1.00000000E+00	 6.00000000E+00
	 0.00000000E+00	 1.00000000E+00	 7.00000000E+00
	 5.00000000E-01	 5.00000000E-01	 0.00000000E+00
	 5.00000000E-01	 5.00000000E-01	 8.00000000E+00
	 5.00000000E-01	 0.00000000E+00	 1.00000000E+00
	 5.00000000E-01	 0.00000000E+00	 2.00000000E+00
	 5.00000000E-01	 0.00000000E+00	 3.00000000E+00
	 5.00000000E-01	 0.00000000E+00	 4.00000000E+00
	 5.00000000E-01	 0.00000000E+00	 5.00000000E+00
	 5.00000000E-01	 0.00000000E+00	 6.00000000E+00
	 5.00000000E-01	 0.00000000E+00	 7.00000000E+00
	 1.00000000E+00	 5.00000000E-01	 1.00000000E+00
	 1.00000000E+00	 5.00000000E-01	 2.00000000E+00
	 1.00000000E+00	 5.00000000E-01	 3.00000000E+00
	 1.00000000E+00	 5.00000000E-01	 4.00000000E+00
	 1.00000000E+00	 5.00000000E-01	 5.00000000E+00
	 1.00000000E+00	 5.00000000E-01	 6.00000000E+00
	 1.00000000E+00	 5.00000000E-01	 7.00000000E+00
	 5.00000000E-01	 1.00000000E+00	 1.00000000E+00
	 5.00000000E-01	 1.00000000E+00	 2.00000000E+00
	 5.00000000E-01	 1.00000000E+00	 3.00000000E+00
	 5.00000000E-01	 1.00000000E+00	 4.00000000E+00
	 5.00000000E-01	 1.00000000E+00	 5.00000000E+00
	 5.00000000E-01	 1.00000000E+00	 6.00000000E+00
	 5.00000000E-01	 1.00000000E+00	 7.00000000E+00
	 0.00000000E+00	 5.00000000E-01	 1.00000000E+00
	 0.00000000E+00	 5.00000000E-01	 2.00000000E+00
	 0.00000000E+00	 5.00000000E-01	 3.00000000E+00
	 0.00000000E+00	 5.00000000E-01	 4.00000000E+00
	 0.00000000E+00	 5.00000000E-01	 5.00000000E+00
	 0.00000000E+00	 5.00000000E-01	 6.00000000E+00
	 0.00000000E+00	 5.00000000E-01	 7.00000000E+00
	 5.00000000E-01	 5.00000000E-01	 1.00000000E+00
	 5.00000000E-01	 5.00000000E-01	 2.00000000E+00
	 5.00000000E-01	 5.00000000E-01	 3.00000000E+00
	 5.00000000E-01	 5.00000000E-01	 4.00000000E+00
	 5.00000000E-01	 5.00000000E-01	 5.00000000E+00
	 5.00000000E-01	 5.00000000E-01	 6.00000000E+00
	 5.00000000E-01	 5.00000000E-01	 7.00000000E+00

CELLS 32 288
	8 0 8 44 11 29 46 74 67 
	8 8 1 9 44 46 16 53 74 
	8 11 44 10 3 67 74 60 37 
	8 44 9 2 10 74 53 30 60 
	8 29 46 74 67 28 47 75 68 
	8 46 16 53 74 47 17 54 75 
	8 67 74 60 37 68 75 61 38 
	8 74 53 30 60 75 54 31 61 
	8 28 47 75 68 27 48 76 69 
	8 47 17 54 75 48 18 55 76 
	8 68 75 61 38 69 76 62 39 
	8 75 54 31 61 76 55 32 62 
	8 27 48 76 69 26 49 77 70 
	8 48 18 55 76 49 19 56 77 
	8 69 76 62 39 70 77 63 40 
	8 76 55 32 62 77 56 33 63 
	8 26 49 77 70 25 50 78 71 
	8 49 19 56 77 50 20 57 78 
	8 70 77 63 40 71 78 64 41 
	8 77 56 33 63 78 57 34 64 
	8 25 50 78 71 24 51 79 72 
	8 50 20 57 78 51 21 58 79 
	8 71 78 64 41 72 79 65 42 
	8 78 57 34 64 79 58 35 65 
	8 24 51 79 72 23 52 80 73 
	8 51 21 58 79 52 22 59 80 
	8 72 79 65 42 73 80 66 43 
	8 79 58 35 65 80 59 36 66 
	8 23 52 80 73 4 12 45 15 
	8 52 22 59 80 12 5 13 45 
	8 73 80 66 43 15 45 14 7 
	8 80 59 36 66 45 13 6 14 

CELL_TYPES 32
	12
	12
	12
	12
	12
	12
	12
	12
	12
	12
	12
	12
	12
	12
	12
	12
	12
	12
	12
	12
	12
	12
	12
	12
	12
	12
	12
	12
	12
	12
	12
	12

POINT_DATA 81
FIELD U 1
	U 3 81 double
		 0.00000000E+00	 0.00000000E+00	 0.00000000E+00
		 0.00000000E+00	 0.00000000E+00	 0.00000000E+00
		 0.00000000E+00	 0.00000000E+00	 0.00000000E+00
		 0.00000000E+00	 0.00000000E+00	 0.00000000E+00
		-7.74965000E+03	 7.74965000E+03	 4.76916000E-11
		-7.74965000E+03	-7.74965000E+03	 9.80151000E-10
		 7.74965000E+03	-7.74965000E+03	-6.48015000E-11
		 7.74965000E+03	 7.74965000E+03	-9.92962000E-10
		 0.00000000E+00	 0.00000000E+00	 0.00000000E+00
		 0.00000000E+00	 0.00000000E+00	 0.00000000E+00
		 0.00000000E+00	 0.00000000E+00	 0.00000000E+00
		 0.00000000E+00	 0.00000000E+00	 0.00000000E+00
		-8.05540000E+03	-8.66009000E-10	 5.40837000E-10
		 5.07868000E-10	-8.05540000E+03	 4.84079000E-10
		 8.05540000E+03	-1.46542000E-09	-5.59226000E-10
		 1.09944000E-09	 8.05540000E+03	-5.00535000E-10
		-1.42382000E+03	-1.42382000E+03	 1.24999000E-10
		-2.66877000E+03	-2.66877000E+03	 3.29010000E-10
		-3.81085000E+03	-3.81085000E+03	 5.74801000E-10
		-4.80968000E+03	-4.80968000E+03	 8.08996000E-10
		-5.68510000E+03	-5.68510000E+03	 9.97261000E-10
		-6.17751000E+03	-6.17751000E+03	 1.06206000E-09
		-7.09332000E+03	-7.09332000E+03	 1.05129000E-09
		-7.09332000E+03	 7.09332000E+03	 3.95062000E-11
		-6.17751000E+03	 6.17751000E+03	 2.76259000E-11
		-5.68510000E+03	 5.68510000E+03	 1.27329000E-11
		-4.80968000E+03	 4.80968000E+03	 1.59162000E-12
		-3.81085000E+03	 3.81085000E+03	-8.41283000E-12
		-2.66877000E+03	 2.66877000E+03	-1.20508000E-11
		-1.42382000E+03	 1.42382000E+03	-1.00044000E-11
		 1.42382000E+03	-1.42382000E+03	 8.52651000E-12
		 2.66877000E+03	-2.66877000E+03	 1.02318000E-11
		 3.81085000E+03	-3.81085000E+03	 6.36646000E-12
		 4.80968000E+03	-4.80968000E+03	-5.91172000E-12
		 5.68510000E+03	-5.68510000E+03	-2.13731000E-11
		 6.17751000E+03	-6.17751000E+03	-3.91083000E-11
		 7.09332000E+03	-7.09332000E+03	-5.37739000E-11
		 1.42382000E+03	 1.42382000E+03	-1.26306000E-10
		 2.66877000E+03	 2.66877000E+03	-3.30829000E-10
		 3.81085000E+03	 3.81085000E+03	-5.78439000E-10
		 4.80968000E+03	 4.80968000E+03	-8.12406000E-10
		 5.68510000E+03	 5.68510000E+03	-1.00272000E-09
		 6.17751000E+03	 6.17751000E+03	-1.07184000E-09
		 7.09332000E+03	 7.09332000E+03	-1.06508000E-09
		 0.00000000E+00	 0.00000000E+00	 0.00000000E+00
		-3.61354000E-10	 1.42109000E-10	-8.12861000E-12
		-1.41623000E+03	 5.46834000E-11	 5.96856000E-11
		-2.66881000E+03	 1.40233000E-10	 1.57797000E-10
		-3.80884000E+03	 2.23849000E-10	 2.84672000E-10
		-4.82531000E+03	 2.96382000E-10	 4.06317000E-10
		-5.61047000E+03	 3.61524000E-10	 4.98972000E-10
		-6.47550000E+03	 3.68800000E-10	 5.72328000E-10
		-6.13105000E+03	 4.43606000E-10	 4.72369000E-10
		-8.00355000E-11	-1.41623000E+03	 6.86100000E-11
		-1.96451000E-10	-2.66881000E+03	 1.69848000E-10
		-3.14571000E-10	-3.80884000E+03	 2.92403000E-10
		-4.32919000E-10	-4.82531000E+03	 4.03816000E-10
		-5.31372000E-10	-5.61047000E+03	 4.82146000E-10
		-5.60419000E-10	-6.47550000E+03	 5.37000000E-10
		-6.41535000E-10	-6.13105000E+03	 4.31129000E-10
		 1.41623000E+03	 3.27987000E-11	-6.03677000E-11
		 2.66881000E+03	 6.26414000E-11	-1.59844000E-10
		 3.80884000E+03	 6.58247000E-11	-2.86718000E-10
		 4.82531000E+03	 3.75167000E-11	-4.11092000E-10
		 5.61047000E+03	-1.22782000E-11	-5.06589000E-10
		 6.47550000E+03	-9.73159000E-11	-5.82986000E-10
		 6.13105000E+03	-1.05729000E-10	-4.87034000E-10
		-5.82077000E-11	 1.41623000E+03	-7.00311000E-11
		-1.17325000E-10	 2.66881000E+03	-1.71667000E-10
		-1.54159000E-10	 3.80884000E+03	-2.93994000E-10
		-1.68257000E-10	 4.82531000E+03	-4.07681000E-10
		-1.62117000E-10	 5.61047000E+03	-4.88853000E-10
		-9.64064000E-11	 6.47550000E+03	-5.46606000E-10
		-9.40190000E-11	 6.13105000E+03	-4.46391000E-10
		-5.43423000E-11	 2.96723000E-11	-1.13687000E-13
		-1.44155000E-10	 8.81073000E-11	-1.36424000E-12
		-2.21235000E-10	 1.30854000E-10	-1.81899000E-12
		-2.89901000E-10	 1.57456000E-10	-1.36424000E-12
		-3.48791000E-10	 1.75078000E-10	-3.41061000E-12
		-3.43675000E-10	 1.46883000E-10	-5.34328000E-12
		-2.21007000E-10	 9.09495000E-13	-6.90648000E-12
FIELD SENFREQ 1
	SENFREQ 2 81 double
		 0.00000000E+00	 0.00000000E+00
		 0.00000000E+00	 0.00000000E+00
		 0.00000000E+00	 0.00000000E+00
		 0.00000000E+00	 0.00000000E+00
		-1.34521000E+11	-1.14159000E-02
		-1.34521000E+11	-1.14159000E-02
		-1.34521000E+11	-1.14159000E-02
		-1.34521000E+11	-1.14159000E-02
		 0.00000000E+00	 0.00000000E+00
		 0.00000000E+00	 0.00000000E+00
		 0.00000000E+00	 0.00000000E+00
		 0.00000000E+00	 0.00000000E+00
		 3.57231000E+12	 3.03157000E-01
		 3.57231000E+12	 3.03157000E-01
		 3.57231000E+12	 3.03157000E-01
		 3.57231000E+12	 3.03157000E-01
		 5.69559000E+11	 4.83345000E-02
		 1.99173000E+11	 1.69024000E-02
		 1.19606000E+11	 1.01501000E-02
		-6.18604000E+09	-5.24966000E-04
		-6.76842000E+10	-5.74389000E-03
		-4.51833000E+10	-3.83439000E-03
		-2.71679000E+12	-2.30555000E-01
		-2.71679000E+12	-2.30555000E-01
		-4.51833000E+10	-3.83439000E-03
		-6.76843000E+10	-5.74389000E-03
		-6.18603000E+09	-5.24965000E-04
		 1.19606000E+11	 1.01501000E-02
		 1.99173000E+11	 1.69024000E-02
		 5.69559000E+11	 4.83345000E-02
		 5.69559000E+11	 4.83345000E-02
		 1.99173000E+11	 1.69024000E-02
		 1.19606000E+11	 1.01501000E-02
		-6.18605000E+09	-5.24967000E-04
		-6.76842000E+10	-5.74389000E-03
		-4.51833000E+10	-3.83439000E-03
		-2.71679000E+12	-2.30555000E-01
		 5.69559000E+11	 4.83345000E-02
		 1.99173000E+11	 1.69024000E-02
		 1.19606000E+11	 1.01501000E-02
		-6.18604000E+09	-5.24966000E-04
		-6.76842000E+10	-5.74389000E-03
		-4.51832000E+10	-3.83438000E-03
		-2.71679000E+12	-2.30555000E-01
		 0.00000000E+00	 0.00000000E+00
		 1.17837000E+13	 1.00000000E+00
		 6.71525000E+11	 5.69876000E-02
		 2.32935000E+11	 1.97676000E-02
		 1.38166000E+11	 1.17252000E-02
		 5.49749000E+09	 4.66534000E-04
		-8.71879000E+10	-7.39903000E-03
		-1.00168000E+11	-8.50055000E-03
		-2.73415000E+12	-2.32028000E-01
		 6.71525000E+11	 5.69876000E-02
		 2.32935000E+11	 1.97676000E-02
		 1.38166000E+11	 1.17252000E-02
		 5.49749000E+09	 4.66533000E-04
		-8.71879000E+10	-7.39903000E-03
		-1.00168000E+11	-8.50055000E-03
		-2.73415000E+12	-2.32028000E-01
		 6.71525000E+11	 5.69876000E-02
		 2.32935000E+11	 1.97676000E-02
		 1.38166000E+11	 1.17252000E-02
		 5.49746000E+09	 4.66531000E-04
		-8.71879000E+10	-7.39903000E-03
		-1.00168000E+11	-8.50055000E-03
		-2.73415000E+12	-2.32028000E-01
		 6.71525000E+11	 5.69876000E-02
		 2.32935000E+11	 1.97676000E-02
		 1.38166000E+11	 1.17252000E-02
		 5.49747000E+09	 4.66532000E-04
		-8.71880000E+10	-7.39903000E-03
		-1.00168000E+11	-8.50055000E-03
		-2.73415000E+12	-2.32028000E-01
		 0.00000000E+00	 0.00000000E+00
		 0.00000000E+00	 0.00000000E+00
		 0.00000000E+00	 0.00000000E+00
		 0.00000000E+00	 0.00000000E+00
		 0.00000000E+00	 0.00000000E+00
		 0.00000000E+00	 0.00000000E+00
		 0.00000000E+00	 0.00000000E+00
