<?xml version="1.0"?>
<VTKFile type="UnstructuredGrid" version="0.1" byte_order="LittleEndian">
	<UnstructuredGrid>
		<Piece NumberOfPoints="261" NumberOfCells="32">
			<Points>
				<DataArray type="Float64" NumberOfComponents="3" format="ascii">
					 0.00000000E+00	 0.00000000E+00	 0.00000000E+00
					 1.00000000E+00	 0.00000000E+00	 0.00000000E+00
					 1.00000000E+00	 1.00000000E+00	 0.00000000E+00
					 0.00000000E+00	 1.00000000E+00	 0.00000000E+00
					 0.00000000E+00	 0.00000000E+00	 8.00000000E+00
					 1.00000000E+00	 0.00000000E+00	 8.00000000E+00
					 1.00000000E+00	 1.00000000E+00	 8.00000000E+00
					 0.00000000E+00	 1.00000000E+00	 8.00000000E+00
					 2.50000000E-01	 0.00000000E+00	 0.00000000E+00
					 5.00000000E-01	 0.00000000E+00	 0.00000000E+00
					 7.50000000E-01	 0.00000000E+00	 0.00000000E+00
					 1.00000000E+00	 2.50000000E-01	 0.00000000E+00
					 1.00000000E+00	 5.00000000E-01	 0.00000000E+00
					 1.00000000E+00	 7.50000000E-01	 0.00000000E+00
					 7.50000000E-01	 1.00000000E+00	 0.00000000E+00
					 5.00000000E-01	 1.00000000E+00	 0.00000000E+00
					 2.50000000E-01	 1.00000000E+00	 0.00000000E+00
					 0.00000000E+00	 7.50000000E-01	 0.00000000E+00
					 0.00000000E+00	 5.00000000E-01	 0.00000000E+00
					 0.00000000E+00	 2.50000000E-01	 0.00000000E+00
					 2.50000000E-01	 0.00000000E+00	 8.00000000E+00
					 5.00000000E-01	 0.00000000E+00	 8.00000000E+00
					 7.50000000E-01	 0.00000000E+00	 8.00000000E+00
					 1.00000000E+00	 2.50000000E-01	 8.00000000E+00
					 1.00000000E+00	 5.00000000E-01	 8.00000000E+00
					 1.00000000E+00	 7.50000000E-01	 8.00000000E+00
					 7.50000000E-01	 1.00000000E+00	 8.00000000E+00
					 5.00000000E-01	 1.00000000E+00	 8.00000000E+00
					 2.50000000E-01	 1.00000000E+00	 8.00000000E+00
					 0.00000000E+00	 7.50000000E-01	 8.00000000E+00
					 0.00000000E+00	 5.00000000E-01	 8.00000000E+00
					 0.00000000E+00	 2.50000000E-01	 8.00000000E+00
					 1.00000000E+00	 0.00000000E+00	 5.00000000E-01
					 1.00000000E+00	 0.00000000E+00	 1.00000000E+00
					 1.00000000E+00	 0.00000000E+00	 1.50000000E+00
					 1.00000000E+00	 0.00000000E+00	 2.00000000E+00
					 1.00000000E+00	 0.00000000E+00	 2.50000000E+00
					 1.00000000E+00	 0.00000000E+00	 3.00000000E+00
					 1.00000000E+00	 0.00000000E+00	 3.50000000E+00
					 1.00000000E+00	 0.00000000E+00	 4.00000000E+00
					 1.00000000E+00	 0.00000000E+00	 4.50000000E+00
					 1.00000000E+00	 0.00000000E+00	 5.00000000E+00
					 1.00000000E+00	 0.00000000E+00	 5.50000000E+00
					 1.00000000E+00	 0.00000000E+00	 6.00000000E+00
					 1.00000000E+00	 0.00000000E+00	 6.50000000E+00
					 1.00000000E+00	 0.00000000E+00	 7.00000000E+00
					 1.00000000E+00	 0.00000000E+00	 7.50000000E+00
					 0.00000000E+00	 0.00000000E+00	 7.50000000E+00
					 0.00000000E+00	 0.00000000E+00	 7.00000000E+00
					 0.00000000E+00	 0.00000000E+00	 6.50000000E+00
					 0.00000000E+00	 0.00000000E+00	 6.00000000E+00
					 0.00000000E+00	 0.00000000E+00	 5.50000000E+00
					 0.00000000E+00	 0.00000000E+00	 5.00000000E+00
					 0.00000000E+00	 0.00000000E+00	 4.50000000E+00
					 0.00000000E+00	 0.00000000E+00	 4.00000000E+00
					 0.00000000E+00	 0.00000000E+00	 3.50000000E+00
					 0.00000000E+00	 0.00000000E+00	 3.00000000E+00
					 0.00000000E+00	 0.00000000E+00	 2.50000000E+00
					 0.00000000E+00	 0.00000000E+00	 2.00000000E+00
					 0.00000000E+00	 0.00000000E+00	 1.50000000E+00
					 0.00000000E+00	 0.00000000E+00	 1.00000000E+00
					 0.00000000E+00	 0.00000000E+00	 5.00000000E-01
					 1.00000000E+00	 1.00000000E+00	 5.00000000E-01
					 1.00000000E+00	 1.00000000E+00	 1.00000000E+00
					 1.00000000E+00	 1.00000000E+00	 1.50000000E+00
					 1.00000000E+00	 1.00000000E+00	 2.00000000E+00
					 1.00000000E+00	 1.00000000E+00	 2.50000000E+00
					 1.00000000E+00	 1.00000000E+00	 3.00000000E+00
					 1.00000000E+00	 1.00000000E+00	 3.50000000E+00
					 1.00000000E+00	 1.00000000E+00	 4.00000000E+00
					 1.00000000E+00	 1.00000000E+00	 4.50000000E+00
					 1.00000000E+00	 1.00000000E+00	 5.00000000E+00
					 1.00000000E+00	 1.00000000E+00	 5.50000000E+00
					 1.00000000E+00	 1.00000000E+00	 6.00000000E+00
					 1.00000000E+00	 1.00000000E+00	 6.50000000E+00
					 1.00000000E+00	 1.00000000E+00	 7.00000000E+00
					 1.00000000E+00	 1.00000000E+00	 7.50000000E+00
					 0.00000000E+00	 1.00000000E+00	 5.00000000E-01
					 0.00000000E+00	 1.00000000E+00	 1.00000000E+00
					 0.00000000E+00	 1.00000000E+00	 1.50000000E+00
					 0.00000000E+00	 1.00000000E+00	 2.00000000E+00
					 0.00000000E+00	 1.00000000E+00	 2.50000000E+00
					 0.00000000E+00	 1.00000000E+00	 3.00000000E+00
					 0.00000000E+00	 1.00000000E+00	 3.50000000E+00
					 0.00000000E+00	 1.00000000E+00	 4.00000000E+00
					 0.00000000E+00	 1.00000000E+00	 4.50000000E+00
					 0.00000000E+00	 1.00000000E+00	 5.00000000E+00
					 0.00000000E+00	 1.00000000E+00	 5.50000000E+00
					 0.00000000E+00	 1.00000000E+00	 6.00000000E+00
					 0.00000000E+00	 1.00000000E+00	 6.50000000E+00
					 0.00000000E+00	 1.00000000E+00	 7.00000000E+00
					 0.00000000E+00	 1.00000000E+00	 7.50000000E+00
					 5.00000000E-01	 2.50000000E-01	 0.00000000E+00
					 2.50000000E-01	 5.00000000E-01	 0.00000000E+00
					 5.00000000E-01	 5.00000000E-01	 0.00000000E+00
					 7.50000000E-01	 5.00000000E-01	 0.00000000E+00
					 5.00000000E-01	 7.50000000E-01	 0.00000000E+00
					 5.00000000E-01	 2.50000000E-01	 8.00000000E+00
					 2.50000000E-01	 5.00000000E-01	 8.00000000E+00
					 5.00000000E-01	 5.00000000E-01	 8.00000000E+00
					 7.50000000E-01	 5.00000000E-01	 8.00000000E+00
					 5.00000000E-01	 7.50000000E-01	 8.00000000E+00
					 5.00000000E-01	 0.00000000E+00	 5.00000000E-01
					 2.50000000E-01	 0.00000000E+00	 1.00000000E+00
					 5.00000000E-01	 0.00000000E+00	 1.00000000E+00
					 7.50000000E-01	 0.00000000E+00	 1.00000000E+00
					 5.00000000E-01	 0.00000000E+00	 1.50000000E+00
					 2.50000000E-01	 0.00000000E+00	 2.00000000E+00
					 5.00000000E-01	 0.00000000E+00	 2.00000000E+00
					 7.50000000E-01	 0.00000000E+00	 2.00000000E+00
					 5.00000000E-01	 0.00000000E+00	 2.50000000E+00
					 2.50000000E-01	 0.00000000E+00	 3.00000000E+00
					 5.00000000E-01	 0.00000000E+00	 3.00000000E+00
					 7.50000000E-01	 0.00000000E+00	 3.00000000E+00
					 5.00000000E-01	 0.00000000E+00	 3.50000000E+00
					 2.50000000E-01	 0.00000000E+00	 4.00000000E+00
					 5.00000000E-01	 0.00000000E+00	 4.00000000E+00
					 7.50000000E-01	 0.00000000E+00	 4.00000000E+00
					 5.00000000E-01	 0.00000000E+00	 4.50000000E+00
					 2.50000000E-01	 0.00000000E+00	 5.00000000E+00
					 5.00000000E-01	 0.00000000E+00	 5.00000000E+00
					 7.50000000E-01	 0.00000000E+00	 5.00000000E+00
					 5.00000000E-01	 0.00000000E+00	 5.50000000E+00
					 2.50000000E-01	 0.00000000E+00	 6.00000000E+00
					 5.00000000E-01	 0.00000000E+00	 6.00000000E+00
					 7.50000000E-01	 0.00000000E+00	 6.00000000E+00
					 5.00000000E-01	 0.00000000E+00	 6.50000000E+00
					 2.50000000E-01	 0.00000000E+00	 7.00000000E+00
					 5.00000000E-01	 0.00000000E+00	 7.00000000E+00
					 7.50000000E-01	 0.00000000E+00	 7.00000000E+00
					 5.00000000E-01	 0.00000000E+00	 7.50000000E+00
					 1.00000000E+00	 5.00000000E-01	 5.00000000E-01
					 1.00000000E+00	 2.50000000E-01	 1.00000000E+00
					 1.00000000E+00	 5.00000000E-01	 1.00000000E+00
					 1.00000000E+00	 7.50000000E-01	 1.00000000E+00
					 1.00000000E+00	 5.00000000E-01	 1.50000000E+00
					 1.00000000E+00	 2.50000000E-01	 2.00000000E+00
					 1.00000000E+00	 5.00000000E-01	 2.00000000E+00
					 1.00000000E+00	 7.50000000E-01	 2.00000000E+00
					 1.00000000E+00	 5.00000000E-01	 2.50000000E+00
					 1.00000000E+00	 2.50000000E-01	 3.00000000E+00
					 1.00000000E+00	 5.00000000E-01	 3.00000000E+00
					 1.00000000E+00	 7.50000000E-01	 3.00000000E+00
					 1.00000000E+00	 5.00000000E-01	 3.50000000E+00
					 1.00000000E+00	 2.50000000E-01	 4.00000000E+00
					 1.00000000E+00	 5.00000000E-01	 4.00000000E+00
					 1.00000000E+00	 7.50000000E-01	 4.00000000E+00
					 1.00000000E+00	 5.00000000E-01	 4.50000000E+00
					 1.00000000E+00	 2.50000000E-01	 5.00000000E+00
					 1.00000000E+00	 5.00000000E-01	 5.00000000E+00
					 1.00000000E+00	 7.50000000E-01	 5.00000000E+00
					 1.00000000E+00	 5.00000000E-01	 5.50000000E+00
					 1.00000000E+00	 2.50000000E-01	 6.00000000E+00
					 1.00000000E+00	 5.00000000E-01	 6.00000000E+00
					 1.00000000E+00	 7.50000000E-01	 6.00000000E+00
					 1.00000000E+00	 5.00000000E-01	 6.50000000E+00
					 1.00000000E+00	 2.50000000E-01	 7.00000000E+00
					 1.00000000E+00	 5.00000000E-01	 7.00000000E+00
					 1.00000000E+00	 7.50000000E-01	 7.00000000E+00
					 1.00000000E+00	 5.00000000E-01	 7.50000000E+00
					 5.00000000E-01	 1.00000000E+00	 5.00000000E-01
					 7.50000000E-01	 1.00000000E+00	 1.00000000E+00
					 5.00000000E-01	 1.00000000E+00	 1.00000000E+00
					 2.50000000E-01	 1.00000000E+00	 1.00000000E+00
					 5.00000000E-01	 1.00000000E+00	 1.50000000E+00
					 7.50000000E-01	 1.00000000E+00	 2.00000000E+00
					 5.00000000E-01	 1.00000000E+00	 2.00000000E+00
					 2.50000000E-01	 1.00000000E+00	 2.00000000E+00
					 5.00000000E-01	 1.00000000E+00	 2.50000000E+00
					 7.50000000E-01	 1.00000000E+00	 3.00000000E+00
					 5.00000000E-01	 1.00000000E+00	 3.00000000E+00
					 2.50000000E-01	 1.00000000E+00	 3.00000000E+00
					 5.00000000E-01	 1.00000000E+00	 3.50000000E+00
					 7.50000000E-01	 1.00000000E+00	 4.00000000E+00
					 5.00000000E-01	 1.00000000E+00	 4.00000000E+00
					 2.50000000E-01	 1.00000000E+00	 4.00000000E+00
					 5.00000000E-01	 1.00000000E+00	 4.50000000E+00
					 7.50000000E-01	 1.00000000E+00	 5.00000000E+00
					 5.00000000E-01	 1.00000000E+00	 5.00000000E+00
					 2.50000000E-01	 1.00000000E+00	 5.00000000E+00
					 5.00000000E-01	 1.00000000E+00	 5.50000000E+00
					 7.50000000E-01	 1.00000000E+00	 6.00000000E+00
					 5.00000000E-01	 1.00000000E+00	 6.00000000E+00
					 2.50000000E-01	 1.00000000E+00	 6.00000000E+00
					 5.00000000E-01	 1.00000000E+00	 6.50000000E+00
					 7.50000000E-01	 1.00000000E+00	 7.00000000E+00
					 5.00000000E-01	 1.00000000E+00	 7.00000000E+00
					 2.50000000E-01	 1.00000000E+00	 7.00000000E+00
					 5.00000000E-01	 1.00000000E+00	 7.50000000E+00
					 0.00000000E+00	 5.00000000E-01	 5.00000000E-01
					 0.00000000E+00	 7.50000000E-01	 1.00000000E+00
					 0.00000000E+00	 5.00000000E-01	 1.00000000E+00
					 0.00000000E+00	 2.50000000E-01	 1.00000000E+00
					 0.00000000E+00	 5.00000000E-01	 1.50000000E+00
					 0.00000000E+00	 7.50000000E-01	 2.00000000E+00
					 0.00000000E+00	 5.00000000E-01	 2.00000000E+00
					 0.00000000E+00	 2.50000000E-01	 2.00000000E+00
					 0.00000000E+00	 5.00000000E-01	 2.50000000E+00
					 0.00000000E+00	 7.50000000E-01	 3.00000000E+00
					 0.00000000E+00	 5.00000000E-01	 3.00000000E+00
					 0.00000000E+00	 2.50000000E-01	 3.00000000E+00
					 0.00000000E+00	 5.00000000E-01	 3.50000000E+00
					 0.00000000E+00	 7.50000000E-01	 4.00000000E+00
					 0.00000000E+00	 5.00000000E-01	 4.00000000E+00
					 0.00000000E+00	 2.50000000E-01	 4.00000000E+00
					 0.00000000E+00	 5.00000000E-01	 4.50000000E+00
					 0.00000000E+00	 7.50000000E-01	 5.00000000E+00
					 0.00000000E+00	 5.00000000E-01	 5.00000000E+00
					 0.00000000E+00	 2.50000000E-01	 5.00000000E+00
					 0.00000000E+00	 5.00000000E-01	 5.50000000E+00
					 0.00000000E+00	 7.50000000E-01	 6.00000000E+00
					 0.00000000E+00	 5.00000000E-01	 6.00000000E+00
					 0.00000000E+00	 2.50000000E-01	 6.00000000E+00
					 0.00000000E+00	 5.00000000E-01	 6.50000000E+00
					 0.00000000E+00	 7.50000000E-01	 7.00000000E+00
					 0.00000000E+00	 5.00000000E-01	 7.00000000E+00
					 0.00000000E+00	 2.50000000E-01	 7.00000000E+00
					 0.00000000E+00	 5.00000000E-01	 7.50000000E+00
					 5.00000000E-01	 5.00000000E-01	 5.00000000E-01
					 5.00000000E-01	 2.50000000E-01	 1.00000000E+00
					 2.50000000E-01	 5.00000000E-01	 1.00000000E+00
					 5.00000000E-01	 5.00000000E-01	 1.00000000E+00
					 7.50000000E-01	 5.00000000E-01	 1.00000000E+00
					 5.00000000E-01	 7.50000000E-01	 1.00000000E+00
					 5.00000000E-01	 5.00000000E-01	 1.50000000E+00
					 5.00000000E-01	 2.50000000E-01	 2.00000000E+00
					 2.50000000E-01	 5.00000000E-01	 2.00000000E+00
					 5.00000000E-01	 5.00000000E-01	 2.00000000E+00
					 7.50000000E-01	 5.00000000E-01	 2.00000000E+00
					 5.00000000E-01	 7.50000000E-01	 2.00000000E+00
					 5.00000000E-01	 5.00000000E-01	 2.50000000E+00
					 5.00000000E-01	 2.50000000E-01	 3.00000000E+00
					 2.50000000E-01	 5.00000000E-01	 3.00000000E+00
					 5.00000000E-01	 5.00000000E-01	 3.00000000E+00
					 7.50000000E-01	 5.00000000E-01	 3.00000000E+00
					 5.00000000E-01	 7.50000000E-01	 3.00000000E+00
					 5.00000000E-01	 5.00000000E-01	 3.50000000E+00
					 5.00000000E-01	 2.50000000E-01	 4.00000000E+00
					 2.50000000E-01	 5.00000000E-01	 4.00000000E+00
					 5.00000000E-01	 5.00000000E-01	 4.00000000E+00
					 7.50000000E-01	 5.00000000E-01	 4.00000000E+00
					 5.00000000E-01	 7.50000000E-01	 4.00000000E+00
					 5.00000000E-01	 5.00000000E-01	 4.50000000E+00
					 5.00000000E-01	 2.50000000E-01	 5.00000000E+00
					 2.50000000E-01	 5.00000000E-01	 5.00000000E+00
					 5.00000000E-01	 5.00000000E-01	 5.00000000E+00
					 7.50000000E-01	 5.00000000E-01	 5.00000000E+00
					 5.00000000E-01	 7.50000000E-01	 5.00000000E+00
					 5.00000000E-01	 5.00000000E-01	 5.50000000E+00
					 5.00000000E-01	 2.50000000E-01	 6.00000000E+00
					 2.50000000E-01	 5.00000000E-01	 6.00000000E+00
					 5.00000000E-01	 5.00000000E-01	 6.00000000E+00
					 7.50000000E-01	 5.00000000E-01	 6.00000000E+00
					 5.00000000E-01	 7.50000000E-01	 6.00000000E+00
					 5.00000000E-01	 5.00000000E-01	 6.50000000E+00
					 5.00000000E-01	 2.50000000E-01	 7.00000000E+00
					 2.50000000E-01	 5.00000000E-01	 7.00000000E+00
					 5.00000000E-01	 5.00000000E-01	 7.00000000E+00
					 7.50000000E-01	 5.00000000E-01	 7.00000000E+00
					 5.00000000E-01	 7.50000000E-01	 7.00000000E+00
					 5.00000000E-01	 5.00000000E-01	 7.50000000E+00
				</DataArray>
			</Points>
			<Cells>
				<DataArray type="Int32" Name="connectivity" format="ascii">
					0 9 94 18 60 104 221 191 8 92 93 19 103 219 220 192 61 102 218 189 9 1 12 94 104 33 133 221 10 11 95 92 105 132 222 219 102 32 131 218 18 94 15 3 191 221 162 78 93 96 16 17 220 223 163 190 189 218 160 77 94 12 2 15 221 133 63 162 95 13 14 96 222 134 161 223 218 131 62 160 60 104 221 191 58 108 227 195 103 219 220 192 107 225 226 196 59 106 224 193 104 33 133 221 108 35 137 227 105 132 222 219 109 136 228 225 106 34 135 224 191 221 162 78 195 227 166 80 220 223 163 190 226 229 167 194 193 224 164 79 221 133 63 162 227 137 65 166 222 134 161 223 228 138 165 229 224 135 64 164 58 108 227 195 56 112 233 199 107 225 226 196 111 231 232 200 57 110 230 197 108 35 137 227 112 37 141 233 109 136 228 225 113 140 234 231 110 36 139 230 195 227 166 80 199 233 170 82 226 229 167 194 232 235 171 198 197 230 168 81 227 137 65 166 233 141 67 170 228 138 165 229 234 142 169 235 230 139 66 168 56 112 233 199 54 116 239 203 111 231 232 200 115 237 238 204 55 114 236 201 112 37 141 233 116 39 145 239 113 140 234 231 117 144 240 237 114 38 143 236 199 233 170 82 203 239 174 84 232 235 171 198 238 241 175 202 201 236 172 83 233 141 67 170 239 145 69 174 234 142 169 235 240 146 173 241 236 143 68 172 54 116 239 203 52 120 245 207 115 237 238 204 119 243 244 208 53 118 242 205 116 39 145 239 120 41 149 245 117 144 240 237 121 148 246 243 118 40 147 242 203 239 174 84 207 245 178 86 238 241 175 202 244 247 179 206 205 242 176 85 239 145 69 174 245 149 71 178 240 146 173 241 246 150 177 247 242 147 70 176 52 120 245 207 50 124 251 211 119 243 244 208 123 249 250 212 51 122 248 209 120 41 149 245 124 43 153 251 121 148 246 243 125 152 252 249 122 42 151 248 207 245 178 86 211 251 182 88 244 247 179 206 250 253 183 210 209 248 180 87 245 149 71 178 251 153 73 182 246 150 177 247 252 154 181 253 248 151 72 180 50 124 251 211 48 128 257 215 123 249 250 212 127 255 256 216 49 126 254 213 124 43 153 251 128 45 157 257 125 152 252 249 129 156 258 255 126 44 155 254 211 251 182 88 215 257 186 90 250 253 183 210 256 259 187 214 213 254 184 89 251 153 73 182 257 157 75 186 252 154 181 253 258 158 185 259 254 155 74 184 48 128 257 215 4 21 99 30 127 255 256 216 20 97 98 31 47 130 260 217 128 45 157 257 21 5 24 99 129 156 258 255 22 23 100 97 130 46 159 260 215 257 186 90 30 99 27 7 256 259 187 214 98 101 28 29 217 260 188 91 257 157 75 186 99 24 6 27 258 158 185 259 100 25 26 101 260 159 76 188 
				</DataArray>
				<DataArray type="Int32" Name="offsets" format="ascii">
					20 40 60 80 100 120 140 160 180 200 220 240 260 280 300 320 340 360 380 400 420 440 460 480 500 520 540 560 580 600 620 640 
				</DataArray>
				<DataArray type="UInt8" Name="types" format="ascii">
					25 25 25 25 25 25 25 25 25 25 25 25 25 25 25 25 25 25 25 25 25 25 25 25 25 25 25 25 25 25 25 25 
				</DataArray>
			</Cells>
			<PointData>
				<DataArray type="Float32" Name="U" NumberOfComponents="3" ComponentName0="D1" ComponentName1="D2" ComponentName2="D3" format="ascii">
					 0.00000000E+00	 0.00000000E+00	 0.00000000E+00
					-1.21705000E-04	 0.00000000E+00	 0.00000000E+00
					 7.67079000E-03	-2.32077000E-04	 0.00000000E+00
					 8.60474000E-03	-3.25597000E-03	 0.00000000E+00
					 2.14511000E-01	 1.88694000E-01	 1.62763000E-01
					 2.08787000E-01	 1.86035000E-01	 1.28300000E-01
					 1.99590000E-01	 1.79894000E-01	 1.27671000E-01
					 2.14201000E-01	 1.83138000E-01	 1.30610000E-01
					 1.85074000E-03	 5.12792000E-03	 0.00000000E+00
					 4.57879000E-03	 6.79151000E-03	 0.00000000E+00
					 2.09775000E-03	 4.21315000E-03	 0.00000000E+00
					 3.11378000E-03	-7.24987000E-04	 0.00000000E+00
					 5.27988000E-03	-9.28693000E-04	 0.00000000E+00
					 6.94550000E-03	-8.53932000E-04	 0.00000000E+00
					 7.10356000E-03	 7.26286000E-05	 0.00000000E+00
					 7.19982000E-03	-4.26530000E-04	 0.00000000E+00
					 7.59835000E-03	-1.40940000E-03	 0.00000000E+00
					 1.15083000E-02	-7.61549000E-04	 0.00000000E+00
					 1.26391000E-02	 1.97425000E-03	 0.00000000E+00
					 8.80738000E-03	 3.15564000E-04	 0.00000000E+00
					 2.13719000E-01	 1.89407000E-01	 1.54737000E-01
					 2.12509000E-01	 1.88959000E-01	 1.46791000E-01
					 2.10690000E-01	 1.87813000E-01	 1.36919000E-01
					 2.10338000E-01	 1.84768000E-01	 1.18804000E-01
					 2.09112000E-01	 1.83528000E-01	 1.08640000E-01
					 2.16157000E-01	 1.81265000E-01	 1.07309000E-01
					 2.07790000E-01	 1.90575000E-01	 1.07820000E-01
					 2.11904000E-01	 1.82354000E-01	 1.08929000E-01
					 2.12860000E-01	 1.84476000E-01	 1.20078000E-01
					 2.15590000E-01	 1.84962000E-01	 1.38569000E-01
					 2.16028000E-01	 1.86847000E-01	 1.47935000E-01
					 2.15833000E-01	 1.88017000E-01	 1.55309000E-01
					 2.85260000E-03	 4.11730000E-03	 7.40719000E-03
					 1.18139000E-02	 1.24425000E-02	 1.54695000E-02
					 2.50279000E-02	 2.40909000E-02	 2.41010000E-02
					 3.80469000E-02	 3.58778000E-02	 3.25204000E-02
					 5.26848000E-02	 4.86287000E-02	 4.14432000E-02
					 6.65352000E-02	 6.13973000E-02	 5.00662000E-02
					 8.08783000E-02	 7.37631000E-02	 5.87364000E-02
					 9.49583000E-02	 8.65437000E-02	 6.75862000E-02
					 1.08655000E-01	 9.85018000E-02	 7.63630000E-02
					 1.22496000E-01	 1.11233000E-01	 8.55143000E-02
					 1.34812000E-01	 1.20905000E-01	 9.32191000E-02
					 1.47773000E-01	 1.31299000E-01	 1.01007000E-01
					 1.60521000E-01	 1.41878000E-01	 1.08135000E-01
					 1.76201000E-01	 1.54998000E-01	 1.14262000E-01
					 1.90881000E-01	 1.69404000E-01	 1.21437000E-01
					 1.97536000E-01	 1.73099000E-01	 1.54884000E-01
					 1.81146000E-01	 1.58387000E-01	 1.45179000E-01
					 1.66274000E-01	 1.45258000E-01	 1.35062000E-01
					 1.52856000E-01	 1.33331000E-01	 1.26088000E-01
					 1.40703000E-01	 1.22600000E-01	 1.17789000E-01
					 1.28281000E-01	 1.11655000E-01	 1.10267000E-01
					 1.15277000E-01	 1.00129000E-01	 1.02611000E-01
					 1.01442000E-01	 8.77999000E-02	 9.44899000E-02
					 8.79063000E-02	 7.57602000E-02	 8.57337000E-02
					 7.36101000E-02	 6.30266000E-02	 7.74263000E-02
					 6.02365000E-02	 5.12093000E-02	 6.81198000E-02
					 4.53517000E-02	 3.79733000E-02	 5.94580000E-02
					 3.45495000E-02	 2.84812000E-02	 4.75146000E-02
					 2.02782000E-02	 1.57964000E-02	 3.62462000E-02
					 1.64279000E-02	 1.35242000E-02	 1.71083000E-02
					 1.02023000E-02	 1.88160000E-03	-2.40053000E-03
					 1.72629000E-02	 7.98584000E-03	-1.97284000E-03
					 2.79614000E-02	 1.76562000E-02	 2.33337000E-03
					 4.08321000E-02	 2.94023000E-02	 9.00806000E-03
					 5.42223000E-02	 4.15736000E-02	 1.72387000E-02
					 6.83285000E-02	 5.44086000E-02	 2.54714000E-02
					 8.18370000E-02	 6.65797000E-02	 3.44102000E-02
					 9.65955000E-02	 7.99380000E-02	 4.29208000E-02
					 1.09219000E-01	 9.12202000E-02	 5.38437000E-02
					 1.24753000E-01	 1.05435000E-01	 6.26771000E-02
					 1.34272000E-01	 1.13270000E-01	 7.14190000E-02
					 1.56568000E-01	 1.33426000E-01	 7.05804000E-02
					 1.61980000E-01	 1.37018000E-01	 7.97021000E-02
					 1.92473000E-01	 1.64943000E-01	 8.89635000E-02
					 1.86109000E-01	 1.61401000E-01	 1.04100000E-01
					 1.30312000E-02	-6.26618000E-04	 8.71382000E-03
					 2.18828000E-02	 7.23909000E-03	 1.75322000E-02
					 3.45291000E-02	 1.89801000E-02	 2.64504000E-02
					 4.74260000E-02	 3.06431000E-02	 3.50847000E-02
					 6.13819000E-02	 4.36702000E-02	 4.40667000E-02
					 7.54198000E-02	 5.60233000E-02	 5.27664000E-02
					 8.90997000E-02	 6.88016000E-02	 6.14627000E-02
					 1.03257000E-01	 8.13730000E-02	 7.03520000E-02
					 1.16587000E-01	 9.35578000E-02	 7.91298000E-02
					 1.30800000E-01	 1.05928000E-01	 8.83051000E-02
					 1.41865000E-01	 1.16801000E-01	 9.59868000E-02
					 1.53672000E-01	 1.28198000E-01	 1.03857000E-01
					 1.65969000E-01	 1.39463000E-01	 1.11262000E-01
					 1.80883000E-01	 1.53658000E-01	 1.17455000E-01
					 1.96160000E-01	 1.66713000E-01	 1.24072000E-01
					 5.70939000E-03	 3.50892000E-03	 0.00000000E+00
					 9.14375000E-03	 1.68765000E-03	 0.00000000E+00
					 6.95405000E-03	 1.42866000E-03	 0.00000000E+00
					 5.70830000E-03	 4.98052000E-04	 0.00000000E+00
					 7.34467000E-03	 1.45725000E-04	 0.00000000E+00
					 2.12640000E-01	 1.87715000E-01	 1.36589000E-01
					 2.14880000E-01	 1.86262000E-01	 1.37111000E-01
					 2.14844000E-01	 1.87781000E-01	 1.26122000E-01
					 2.11398000E-01	 1.86092000E-01	 1.18920000E-01
					 2.13645000E-01	 1.84565000E-01	 1.19256000E-01
					 7.19481000E-03	 8.30769000E-03	 1.22107000E-02
					 1.87613000E-02	 1.63207000E-02	 3.08742000E-02
					 1.75630000E-02	 1.72264000E-02	 2.54625000E-02
					 1.43949000E-02	 1.49168000E-02	 2.06444000E-02
					 2.83991000E-02	 2.59820000E-02	 3.62197000E-02
					 4.40563000E-02	 3.80420000E-02	 5.26424000E-02
					 4.28515000E-02	 3.78966000E-02	 4.58599000E-02
					 4.04744000E-02	 3.69365000E-02	 3.92690000E-02
					 5.61084000E-02	 4.97529000E-02	 5.48541000E-02
					 7.20635000E-02	 6.27104000E-02	 7.05120000E-02
					 7.04914000E-02	 6.24460000E-02	 6.36043000E-02
					 6.84911000E-02	 6.19110000E-02	 5.68572000E-02
					 8.42823000E-02	 7.47367000E-02	 7.23890000E-02
					 9.98836000E-02	 8.74684000E-02	 8.77427000E-02
					 9.83345000E-02	 8.71214000E-02	 8.09639000E-02
					 9.66808000E-02	 8.68247000E-02	 7.43070000E-02
					 1.12090000E-01	 9.92122000E-02	 8.95371000E-02
					 1.26964000E-01	 1.11312000E-01	 1.04040000E-01
					 1.25511000E-01	 1.11107000E-01	 9.78131000E-02
					 1.24002000E-01	 1.11110000E-01	 9.16164000E-02
					 1.37880000E-01	 1.21935000E-01	 1.05767000E-01
					 1.51417000E-01	 1.32835000E-01	 1.19814000E-01
					 1.50101000E-01	 1.32222000E-01	 1.13504000E-01
					 1.48936000E-01	 1.31880000E-01	 1.07613000E-01
					 1.62899000E-01	 1.43769000E-01	 1.21801000E-01
					 1.78949000E-01	 1.57648000E-01	 1.37561000E-01
					 1.77165000E-01	 1.57095000E-01	 1.29872000E-01
					 1.76604000E-01	 1.56130000E-01	 1.21935000E-01
					 1.94507000E-01	 1.71706000E-01	 1.37841000E-01
					 7.85866000E-03	 1.79219000E-03	 2.10543000E-03
					 1.37605000E-02	 1.08398000E-02	 1.08323000E-02
					 1.53862000E-02	 9.61870000E-03	 6.61097000E-03
					 1.65113000E-02	 8.57569000E-03	 2.17389000E-03
					 2.66673000E-02	 2.04393000E-02	 1.31611000E-02
					 3.89616000E-02	 3.41950000E-02	 2.67217000E-02
					 3.98258000E-02	 3.25569000E-02	 2.09431000E-02
					 4.03499000E-02	 3.09863000E-02	 1.50248000E-02
					 5.34512000E-02	 4.50930000E-02	 2.91892000E-02
					 6.69538000E-02	 5.95178000E-02	 4.39707000E-02
					 6.73657000E-02	 5.76167000E-02	 3.79335000E-02
					 6.78434000E-02	 5.59769000E-02	 3.16545000E-02
					 8.14409000E-02	 7.04543000E-02	 4.66818000E-02
					 9.50690000E-02	 8.45313000E-02	 6.15412000E-02
					 9.52167000E-02	 8.25404000E-02	 5.54814000E-02
					 9.59298000E-02	 8.13199000E-02	 4.94253000E-02
					 1.09235000E-01	 9.53434000E-02	 6.45415000E-02
					 1.22038000E-01	 1.08947000E-01	 7.97004000E-02
					 1.21707000E-01	 1.06485000E-01	 7.40491000E-02
					 1.23068000E-01	 1.05874000E-01	 6.75066000E-02
					 1.35613000E-01	 1.18914000E-01	 8.36335000E-02
					 1.47963000E-01	 1.29371000E-01	 9.61633000E-02
					 1.47665000E-01	 1.27646000E-01	 9.08496000E-02
					 1.52313000E-01	 1.30529000E-01	 8.36616000E-02
					 1.62965000E-01	 1.41182000E-01	 9.65244000E-02
					 1.75709000E-01	 1.53815000E-01	 1.07290000E-01
					 1.76496000E-01	 1.52825000E-01	 1.00536000E-01
					 1.78752000E-01	 1.60014000E-01	 9.46298000E-02
					 1.94120000E-01	 1.67341000E-01	 1.04358000E-01
					 1.02751000E-02	 1.78921000E-03	 2.82585000E-03
					 1.78728000E-02	 8.37647000E-03	 2.69385000E-03
					 1.89523000E-02	 8.41165000E-03	 7.66148000E-03
					 2.02177000E-02	 7.98726000E-03	 1.24449000E-02
					 3.07842000E-02	 1.85117000E-02	 1.43408000E-02
					 4.24393000E-02	 2.98932000E-02	 1.56313000E-02
					 4.40401000E-02	 3.03498000E-02	 2.22132000E-02
					 4.57075000E-02	 3.05219000E-02	 2.86584000E-02
					 5.77906000E-02	 4.26234000E-02	 3.05109000E-02
					 6.99227000E-02	 5.47526000E-02	 3.23094000E-02
					 7.15873000E-02	 5.51268000E-02	 3.92806000E-02
					 7.35146000E-02	 5.55804000E-02	 4.60157000E-02
					 8.57566000E-02	 6.77732000E-02	 4.80507000E-02
					 9.79714000E-02	 8.00617000E-02	 5.01136000E-02
					 9.91995000E-02	 8.01058000E-02	 5.68535000E-02
					 1.01215000E-01	 8.07263000E-02	 6.36158000E-02
					 1.13408000E-01	 9.26812000E-02	 6.59137000E-02
					 1.25299000E-01	 1.04346000E-01	 6.81730000E-02
					 1.25956000E-01	 1.03722000E-01	 7.54433000E-02
					 1.28472000E-01	 1.04759000E-01	 8.17977000E-02
					 1.39908000E-01	 1.16109000E-01	 8.50731000E-02
					 1.53133000E-01	 1.30481000E-01	 8.46289000E-02
					 1.49972000E-01	 1.26744000E-01	 9.21758000E-02
					 1.51703000E-01	 1.27726000E-01	 9.82501000E-02
					 1.64984000E-01	 1.40494000E-01	 9.79616000E-02
					 1.85890000E-01	 1.53507000E-01	 9.53702000E-02
					 1.78410000E-01	 1.52456000E-01	 1.02426000E-01
					 1.79628000E-01	 1.52363000E-01	 1.09808000E-01
					 1.94762000E-01	 1.68439000E-01	 1.05876000E-01
					 1.42829000E-02	 4.05699000E-03	 1.30223000E-02
					 2.32030000E-02	 9.83380000E-03	 2.21063000E-02
					 2.43589000E-02	 1.29609000E-02	 2.64074000E-02
					 2.19660000E-02	 1.42905000E-02	 3.14190000E-02
					 3.41932000E-02	 2.25059000E-02	 3.73989000E-02
					 4.74918000E-02	 3.30120000E-02	 4.11541000E-02
					 4.74361000E-02	 3.53373000E-02	 4.71195000E-02
					 4.65406000E-02	 3.66005000E-02	 5.32973000E-02
					 6.06512000E-02	 4.71210000E-02	 5.61747000E-02
					 7.50817000E-02	 5.79507000E-02	 5.88633000E-02
					 7.47614000E-02	 5.99168000E-02	 6.49486000E-02
					 7.41470000E-02	 6.14894000E-02	 7.12044000E-02
					 8.84719000E-02	 7.21937000E-02	 7.37505000E-02
					 1.02775000E-01	 8.30765000E-02	 7.63652000E-02
					 1.02296000E-01	 8.47093000E-02	 8.23414000E-02
					 1.01879000E-01	 8.62503000E-02	 8.84404000E-02
					 1.15850000E-01	 9.69796000E-02	 9.09289000E-02
					 1.29934000E-01	 1.07421000E-01	 9.37106000E-02
					 1.29191000E-01	 1.08922000E-01	 9.91956000E-02
					 1.28658000E-01	 1.10358000E-01	 1.04732000E-01
					 1.41453000E-01	 1.19820000E-01	 1.07147000E-01
					 1.53568000E-01	 1.29411000E-01	 1.09727000E-01
					 1.53193000E-01	 1.30585000E-01	 1.14935000E-01
					 1.53093000E-01	 1.31896000E-01	 1.20521000E-01
					 1.66342000E-01	 1.41896000E-01	 1.23348000E-01
					 1.81095000E-01	 1.54015000E-01	 1.24371000E-01
					 1.81259000E-01	 1.54494000E-01	 1.31449000E-01
					 1.81109000E-01	 1.56214000E-01	 1.38364000E-01
					 1.97394000E-01	 1.70148000E-01	 1.39266000E-01
					 1.03223000E-02	 4.33060000E-03	 7.50679000E-03
					 1.82839000E-02	 1.42460000E-02	 2.08919000E-02
					 2.12797000E-02	 1.24775000E-02	 2.13696000E-02
					 1.84149000E-02	 1.14740000E-02	 1.61915000E-02
					 1.66920000E-02	 1.07786000E-02	 1.13107000E-02
					 1.89307000E-02	 9.74226000E-03	 1.18434000E-02
					 3.02548000E-02	 2.20864000E-02	 2.55123000E-02
					 4.30451000E-02	 3.57923000E-02	 3.99711000E-02
					 4.52950000E-02	 3.45530000E-02	 4.06013000E-02
					 4.32561000E-02	 3.37794000E-02	 3.40273000E-02
					 4.15381000E-02	 3.31735000E-02	 2.74999000E-02
					 4.36564000E-02	 3.20654000E-02	 2.81344000E-02
					 5.71027000E-02	 4.62403000E-02	 4.26626000E-02
					 7.07361000E-02	 6.05985000E-02	 5.75456000E-02
					 7.28897000E-02	 5.93141000E-02	 5.82189000E-02
					 7.09678000E-02	 5.87025000E-02	 5.14450000E-02
					 6.91565000E-02	 5.81600000E-02	 4.46884000E-02
					 7.12796000E-02	 5.69065000E-02	 4.53611000E-02
					 8.49838000E-02	 7.12844000E-02	 6.03158000E-02
					 9.86005000E-02	 8.53955000E-02	 7.49934000E-02
					 1.00550000E-01	 8.42168000E-02	 7.56797000E-02
					 9.88749000E-02	 8.37318000E-02	 6.90538000E-02
					 9.70588000E-02	 8.31361000E-02	 6.22477000E-02
					 9.90394000E-02	 8.19280000E-02	 6.29355000E-02