# vtk DataFile Version 3.0

ASCII
DATASET UNSTRUCTURED_GRID

POINTS 261 double
	 0.00000000E+00	 0.00000000E+00	 0.00000000E+00
	 1.00000000E+00	 0.00000000E+00	 0.00000000E+00
	 1.00000000E+00	 1.50000000E+00	 0.00000000E+00
	 0.00000000E+00	 1.50000000E+00	 0.00000000E+00
	 0.00000000E+00	 0.00000000E+00	 8.00000000E+00
	 1.00000000E+00	 0.00000000E+00	 8.00000000E+00
	 1.00000000E+00	 1.50000000E+00	 8.00000000E+00
	 0.00000000E+00	 1.50000000E+00	 8.00000000E+00
	 2.50000000E-01	 0.00000000E+00	 0.00000000E+00
	 5.00000000E-01	 0.00000000E+00	 0.00000000E+00
	 7.50000000E-01	 0.00000000E+00	 0.00000000E+00
	 1.00000000E+00	 3.75000000E-01	 0.00000000E+00
	 1.00000000E+00	 7.50000000E-01	 0.00000000E+00
	 1.00000000E+00	 1.12500000E+00	 0.00000000E+00
	 7.50000000E-01	 1.50000000E+00	 0.00000000E+00
	 5.00000000E-01	 1.50000000E+00	 0.00000000E+00
	 2.50000000E-01	 1.50000000E+00	 0.00000000E+00
	 0.00000000E+00	 1.12500000E+00	 0.00000000E+00
	 0.00000000E+00	 7.50000000E-01	 0.00000000E+00
	 0.00000000E+00	 3.75000000E-01	 0.00000000E+00
	 2.50000000E-01	 0.00000000E+00	 8.00000000E+00
	 5.00000000E-01	 0.00000000E+00	 8.00000000E+00
	 7.50000000E-01	 0.00000000E+00	 8.00000000E+00
	 1.00000000E+00	 3.75000000E-01	 8.00000000E+00
	 1.00000000E+00	 7.50000000E-01	 8.00000000E+00
	 1.00000000E+00	 1.12500000E+00	 8.00000000E+00
	 7.50000000E-01	 1.50000000E+00	 8.00000000E+00
	 5.00000000E-01	 1.50000000E+00	 8.00000000E+00
	 2.50000000E-01	 1.50000000E+00	 8.00000000E+00
	 0.00000000E+00	 1.12500000E+00	 8.00000000E+00
	 0.00000000E+00	 7.50000000E-01	 8.00000000E+00
	 0.00000000E+00	 3.75000000E-01	 8.00000000E+00
	 1.00000000E+00	 0.00000000E+00	 5.00000000E-01
	 1.00000000E+00	 0.00000000E+00	 1.00000000E+00
	 1.00000000E+00	 0.00000000E+00	 1.50000000E+00
	 1.00000000E+00	 0.00000000E+00	 2.00000000E+00
	 1.00000000E+00	 0.00000000E+00	 2.50000000E+00
	 1.00000000E+00	 0.00000000E+00	 3.00000000E+00
	 1.00000000E+00	 0.00000000E+00	 3.50000000E+00
	 1.00000000E+00	 0.00000000E+00	 4.00000000E+00
	 1.00000000E+00	 0.00000000E+00	 4.50000000E+00
	 1.00000000E+00	 0.00000000E+00	 5.00000000E+00
	 1.00000000E+00	 0.00000000E+00	 5.50000000E+00
	 1.00000000E+00	 0.00000000E+00	 6.00000000E+00
	 1.00000000E+00	 0.00000000E+00	 6.50000000E+00
	 1.00000000E+00	 0.00000000E+00	 7.00000000E+00
	 1.00000000E+00	 0.00000000E+00	 7.50000000E+00
	 0.00000000E+00	 0.00000000E+00	 7.50000000E+00
	 0.00000000E+00	 0.00000000E+00	 7.00000000E+00
	 0.00000000E+00	 0.00000000E+00	 6.50000000E+00
	 0.00000000E+00	 0.00000000E+00	 6.00000000E+00
	 0.00000000E+00	 0.00000000E+00	 5.50000000E+00
	 0.00000000E+00	 0.00000000E+00	 5.00000000E+00
	 0.00000000E+00	 0.00000000E+00	 4.50000000E+00
	 0.00000000E+00	 0.00000000E+00	 4.00000000E+00
	 0.00000000E+00	 0.00000000E+00	 3.50000000E+00
	 0.00000000E+00	 0.00000000E+00	 3.00000000E+00
	 0.00000000E+00	 0.00000000E+00	 2.50000000E+00
	 0.00000000E+00	 0.00000000E+00	 2.00000000E+00
	 0.00000000E+00	 0.00000000E+00	 1.50000000E+00
	 0.00000000E+00	 0.00000000E+00	 1.00000000E+00
	 0.00000000E+00	 0.00000000E+00	 5.00000000E-01
	 1.00000000E+00	 1.50000000E+00	 5.00000000E-01
	 1.00000000E+00	 1.50000000E+00	 1.00000000E+00
	 1.00000000E+00	 1.50000000E+00	 1.50000000E+00
	 1.00000000E+00	 1.50000000E+00	 2.00000000E+00
	 1.00000000E+00	 1.50000000E+00	 2.50000000E+00
	 1.00000000E+00	 1.50000000E+00	 3.00000000E+00
	 1.00000000E+00	 1.50000000E+00	 3.50000000E+00
	 1.00000000E+00	 1.50000000E+00	 4.00000000E+00
	 1.00000000E+00	 1.50000000E+00	 4.50000000E+00
	 1.00000000E+00	 1.50000000E+00	 5.00000000E+00
	 1.00000000E+00	 1.50000000E+00	 5.50000000E+00
	 1.00000000E+00	 1.50000000E+00	 6.00000000E+00
	 1.00000000E+00	 1.50000000E+00	 6.50000000E+00
	 1.00000000E+00	 1.50000000E+00	 7.00000000E+00
	 1.00000000E+00	 1.50000000E+00	 7.50000000E+00
	 0.00000000E+00	 1.50000000E+00	 5.00000000E-01
	 0.00000000E+00	 1.50000000E+00	 1.00000000E+00
	 0.00000000E+00	 1.50000000E+00	 1.50000000E+00
	 0.00000000E+00	 1.50000000E+00	 2.00000000E+00
	 0.00000000E+00	 1.50000000E+00	 2.50000000E+00
	 0.00000000E+00	 1.50000000E+00	 3.00000000E+00
	 0.00000000E+00	 1.50000000E+00	 3.50000000E+00
	 0.00000000E+00	 1.50000000E+00	 4.00000000E+00
	 0.00000000E+00	 1.50000000E+00	 4.50000000E+00
	 0.00000000E+00	 1.50000000E+00	 5.00000000E+00
	 0.00000000E+00	 1.50000000E+00	 5.50000000E+00
	 0.00000000E+00	 1.50000000E+00	 6.00000000E+00
	 0.00000000E+00	 1.50000000E+00	 6.50000000E+00
	 0.00000000E+00	 1.50000000E+00	 7.00000000E+00
	 0.00000000E+00	 1.50000000E+00	 7.50000000E+00
	 5.00000000E-01	 3.75000000E-01	 0.00000000E+00
	 2.50000000E-01	 7.50000000E-01	 0.00000000E+00
	 5.00000000E-01	 7.50000000E-01	 0.00000000E+00
	 7.50000000E-01	 7.50000000E-01	 0.00000000E+00
	 5.00000000E-01	 1.12500000E+00	 0.00000000E+00
	 5.00000000E-01	 3.75000000E-01	 8.00000000E+00
	 2.50000000E-01	 7.50000000E-01	 8.00000000E+00
	 5.00000000E-01	 7.50000000E-01	 8.00000000E+00
	 7.50000000E-01	 7.50000000E-01	 8.00000000E+00
	 5.00000000E-01	 1.12500000E+00	 8.00000000E+00
	 5.00000000E-01	 0.00000000E+00	 5.00000000E-01
	 2.50000000E-01	 0.00000000E+00	 1.00000000E+00
	 5.00000000E-01	 0.00000000E+00	 1.00000000E+00
	 7.50000000E-01	 0.00000000E+00	 1.00000000E+00
	 5.00000000E-01	 0.00000000E+00	 1.50000000E+00
	 2.50000000E-01	 0.00000000E+00	 2.00000000E+00
	 5.00000000E-01	 0.00000000E+00	 2.00000000E+00
	 7.50000000E-01	 0.00000000E+00	 2.00000000E+00
	 5.00000000E-01	 0.00000000E+00	 2.50000000E+00
	 2.50000000E-01	 0.00000000E+00	 3.00000000E+00
	 5.00000000E-01	 0.00000000E+00	 3.00000000E+00
	 7.50000000E-01	 0.00000000E+00	 3.00000000E+00
	 5.00000000E-01	 0.00000000E+00	 3.50000000E+00
	 2.50000000E-01	 0.00000000E+00	 4.00000000E+00
	 5.00000000E-01	 0.00000000E+00	 4.00000000E+00
	 7.50000000E-01	 0.00000000E+00	 4.00000000E+00
	 5.00000000E-01	 0.00000000E+00	 4.50000000E+00
	 2.50000000E-01	 0.00000000E+00	 5.00000000E+00
	 5.00000000E-01	 0.00000000E+00	 5.00000000E+00
	 7.50000000E-01	 0.00000000E+00	 5.00000000E+00
	 5.00000000E-01	 0.00000000E+00	 5.50000000E+00
	 2.50000000E-01	 0.00000000E+00	 6.00000000E+00
	 5.00000000E-01	 0.00000000E+00	 6.00000000E+00
	 7.50000000E-01	 0.00000000E+00	 6.00000000E+00
	 5.00000000E-01	 0.00000000E+00	 6.50000000E+00
	 2.50000000E-01	 0.00000000E+00	 7.00000000E+00
	 5.00000000E-01	 0.00000000E+00	 7.00000000E+00
	 7.50000000E-01	 0.00000000E+00	 7.00000000E+00
	 5.00000000E-01	 0.00000000E+00	 7.50000000E+00
	 1.00000000E+00	 7.50000000E-01	 5.00000000E-01
	 1.00000000E+00	 3.75000000E-01	 1.00000000E+00
	 1.00000000E+00	 7.50000000E-01	 1.00000000E+00
	 1.00000000E+00	 1.12500000E+00	 1.00000000E+00
	 1.00000000E+00	 7.50000000E-01	 1.50000000E+00
	 1.00000000E+00	 3.75000000E-01	 2.00000000E+00
	 1.00000000E+00	 7.50000000E-01	 2.00000000E+00
	 1.00000000E+00	 1.12500000E+00	 2.00000000E+00
	 1.00000000E+00	 7.50000000E-01	 2.50000000E+00
	 1.00000000E+00	 3.75000000E-01	 3.00000000E+00
	 1.00000000E+00	 7.50000000E-01	 3.00000000E+00
	 1.00000000E+00	 1.12500000E+00	 3.00000000E+00
	 1.00000000E+00	 7.50000000E-01	 3.50000000E+00
	 1.00000000E+00	 3.75000000E-01	 4.00000000E+00
	 1.00000000E+00	 7.50000000E-01	 4.00000000E+00
	 1.00000000E+00	 1.12500000E+00	 4.00000000E+00
	 1.00000000E+00	 7.50000000E-01	 4.50000000E+00
	 1.00000000E+00	 3.75000000E-01	 5.00000000E+00
	 1.00000000E+00	 7.50000000E-01	 5.00000000E+00
	 1.00000000E+00	 1.12500000E+00	 5.00000000E+00
	 1.00000000E+00	 7.50000000E-01	 5.50000000E+00
	 1.00000000E+00	 3.75000000E-01	 6.00000000E+00
	 1.00000000E+00	 7.50000000E-01	 6.00000000E+00
	 1.00000000E+00	 1.12500000E+00	 6.00000000E+00
	 1.00000000E+00	 7.50000000E-01	 6.50000000E+00
	 1.00000000E+00	 3.75000000E-01	 7.00000000E+00
	 1.00000000E+00	 7.50000000E-01	 7.00000000E+00
	 1.00000000E+00	 1.12500000E+00	 7.00000000E+00
	 1.00000000E+00	 7.50000000E-01	 7.50000000E+00
	 5.00000000E-01	 1.50000000E+00	 5.00000000E-01
	 7.50000000E-01	 1.50000000E+00	 1.00000000E+00
	 5.00000000E-01	 1.50000000E+00	 1.00000000E+00
	 2.50000000E-01	 1.50000000E+00	 1.00000000E+00
	 5.00000000E-01	 1.50000000E+00	 1.50000000E+00
	 7.50000000E-01	 1.50000000E+00	 2.00000000E+00
	 5.00000000E-01	 1.50000000E+00	 2.00000000E+00
	 2.50000000E-01	 1.50000000E+00	 2.00000000E+00
	 5.00000000E-01	 1.50000000E+00	 2.50000000E+00
	 7.50000000E-01	 1.50000000E+00	 3.00000000E+00
	 5.00000000E-01	 1.50000000E+00	 3.00000000E+00
	 2.50000000E-01	 1.50000000E+00	 3.00000000E+00
	 5.00000000E-01	 1.50000000E+00	 3.50000000E+00
	 7.50000000E-01	 1.50000000E+00	 4.00000000E+00
	 5.00000000E-01	 1.50000000E+00	 4.00000000E+00
	 2.50000000E-01	 1.50000000E+00	 4.00000000E+00
	 5.00000000E-01	 1.50000000E+00	 4.50000000E+00
	 7.50000000E-01	 1.50000000E+00	 5.00000000E+00
	 5.00000000E-01	 1.50000000E+00	 5.00000000E+00
	 2.50000000E-01	 1.50000000E+00	 5.00000000E+00
	 5.00000000E-01	 1.50000000E+00	 5.50000000E+00
	 7.50000000E-01	 1.50000000E+00	 6.00000000E+00
	 5.00000000E-01	 1.50000000E+00	 6.00000000E+00
	 2.50000000E-01	 1.50000000E+00	 6.00000000E+00
	 5.00000000E-01	 1.50000000E+00	 6.50000000E+00
	 7.50000000E-01	 1.50000000E+00	 7.00000000E+00
	 5.00000000E-01	 1.50000000E+00	 7.00000000E+00
	 2.50000000E-01	 1.50000000E+00	 7.00000000E+00
	 5.00000000E-01	 1.50000000E+00	 7.50000000E+00
	 0.00000000E+00	 7.50000000E-01	 5.00000000E-01
	 0.00000000E+00	 1.12500000E+00	 1.00000000E+00
	 0.00000000E+00	 7.50000000E-01	 1.00000000E+00
	 0.00000000E+00	 3.75000000E-01	 1.00000000E+00
	 0.00000000E+00	 7.50000000E-01	 1.50000000E+00
	 0.00000000E+00	 1.12500000E+00	 2.00000000E+00
	 0.00000000E+00	 7.50000000E-01	 2.00000000E+00
	 0.00000000E+00	 3.75000000E-01	 2.00000000E+00
	 0.00000000E+00	 7.50000000E-01	 2.50000000E+00
	 0.00000000E+00	 1.12500000E+00	 3.00000000E+00
	 0.00000000E+00	 7.50000000E-01	 3.00000000E+00
	 0.00000000E+00	 3.75000000E-01	 3.00000000E+00
	 0.00000000E+00	 7.50000000E-01	 3.50000000E+00
	 0.00000000E+00	 1.12500000E+00	 4.00000000E+00
	 0.00000000E+00	 7.50000000E-01	 4.00000000E+00
	 0.00000000E+00	 3.75000000E-01	 4.00000000E+00
	 0.00000000E+00	 7.50000000E-01	 4.50000000E+00
	 0.00000000E+00	 1.12500000E+00	 5.00000000E+00
	 0.00000000E+00	 7.50000000E-01	 5.00000000E+00
	 0.00000000E+00	 3.75000000E-01	 5.00000000E+00
	 0.00000000E+00	 7.50000000E-01	 5.50000000E+00
	 0.00000000E+00	 1.12500000E+00	 6.00000000E+00
	 0.00000000E+00	 7.50000000E-01	 6.00000000E+00
	 0.00000000E+00	 3.75000000E-01	 6.00000000E+00
	 0.00000000E+00	 7.50000000E-01	 6.50000000E+00
	 0.00000000E+00	 1.12500000E+00	 7.00000000E+00
	 0.00000000E+00	 7.50000000E-01	 7.00000000E+00
	 0.00000000E+00	 3.75000000E-01	 7.00000000E+00
	 0.00000000E+00	 7.50000000E-01	 7.50000000E+00
	 5.00000000E-01	 7.50000000E-01	 5.00000000E-01
	 5.00000000E-01	 3.75000000E-01	 1.00000000E+00
	 2.50000000E-01	 7.50000000E-01	 1.00000000E+00
	 5.00000000E-01	 7.50000000E-01	 1.00000000E+00
	 7.50000000E-01	 7.50000000E-01	 1.00000000E+00
	 5.00000000E-01	 1.12500000E+00	 1.00000000E+00
	 5.00000000E-01	 7.50000000E-01	 1.50000000E+00
	 5.00000000E-01	 3.75000000E-01	 2.00000000E+00
	 2.50000000E-01	 7.50000000E-01	 2.00000000E+00
	 5.00000000E-01	 7.50000000E-01	 2.00000000E+00
	 7.50000000E-01	 7.50000000E-01	 2.00000000E+00
	 5.00000000E-01	 1.12500000E+00	 2.00000000E+00
	 5.00000000E-01	 7.50000000E-01	 2.50000000E+00
	 5.00000000E-01	 3.75000000E-01	 3.00000000E+00
	 2.50000000E-01	 7.50000000E-01	 3.00000000E+00
	 5.00000000E-01	 7.50000000E-01	 3.00000000E+00
	 7.50000000E-01	 7.50000000E-01	 3.00000000E+00
	 5.00000000E-01	 1.12500000E+00	 3.00000000E+00
	 5.00000000E-01	 7.50000000E-01	 3.50000000E+00
	 5.00000000E-01	 3.75000000E-01	 4.00000000E+00
	 2.50000000E-01	 7.50000000E-01	 4.00000000E+00
	 5.00000000E-01	 7.50000000E-01	 4.00000000E+00
	 7.50000000E-01	 7.50000000E-01	 4.00000000E+00
	 5.00000000E-01	 1.12500000E+00	 4.00000000E+00
	 5.00000000E-01	 7.50000000E-01	 4.50000000E+00
	 5.00000000E-01	 3.75000000E-01	 5.00000000E+00
	 2.50000000E-01	 7.50000000E-01	 5.00000000E+00
	 5.00000000E-01	 7.50000000E-01	 5.00000000E+00
	 7.50000000E-01	 7.50000000E-01	 5.00000000E+00
	 5.00000000E-01	 1.12500000E+00	 5.00000000E+00
	 5.00000000E-01	 7.50000000E-01	 5.50000000E+00
	 5.00000000E-01	 3.75000000E-01	 6.00000000E+00
	 2.50000000E-01	 7.50000000E-01	 6.00000000E+00
	 5.00000000E-01	 7.50000000E-01	 6.00000000E+00
	 7.50000000E-01	 7.50000000E-01	 6.00000000E+00
	 5.00000000E-01	 1.12500000E+00	 6.00000000E+00
	 5.00000000E-01	 7.50000000E-01	 6.50000000E+00
	 5.00000000E-01	 3.75000000E-01	 7.00000000E+00
	 2.50000000E-01	 7.50000000E-01	 7.00000000E+00
	 5.00000000E-01	 7.50000000E-01	 7.00000000E+00
	 7.50000000E-01	 7.50000000E-01	 7.00000000E+00
	 5.00000000E-01	 1.12500000E+00	 7.00000000E+00
	 5.00000000E-01	 7.50000000E-01	 7.50000000E+00

CELLS 32 672
	20 0 9 94 18 60 104 221 191 8 92 93 19 103 219 220 192 61 102 218 189 
	20 9 1 12 94 104 33 133 221 10 11 95 92 105 132 222 219 102 32 131 218 
	20 18 94 15 3 191 221 162 78 93 96 16 17 220 223 163 190 189 218 160 77 
	20 94 12 2 15 221 133 63 162 95 13 14 96 222 134 161 223 218 131 62 160 
	20 60 104 221 191 58 108 227 195 103 219 220 192 107 225 226 196 59 106 224 193 
	20 104 33 133 221 108 35 137 227 105 132 222 219 109 136 228 225 106 34 135 224 
	20 191 221 162 78 195 227 166 80 220 223 163 190 226 229 167 194 193 224 164 79 
	20 221 133 63 162 227 137 65 166 222 134 161 223 228 138 165 229 224 135 64 164 
	20 58 108 227 195 56 112 233 199 107 225 226 196 111 231 232 200 57 110 230 197 
	20 108 35 137 227 112 37 141 233 109 136 228 225 113 140 234 231 110 36 139 230 
	20 195 227 166 80 199 233 170 82 226 229 167 194 232 235 171 198 197 230 168 81 
	20 227 137 65 166 233 141 67 170 228 138 165 229 234 142 169 235 230 139 66 168 
	20 56 112 233 199 54 116 239 203 111 231 232 200 115 237 238 204 55 114 236 201 
	20 112 37 141 233 116 39 145 239 113 140 234 231 117 144 240 237 114 38 143 236 
	20 199 233 170 82 203 239 174 84 232 235 171 198 238 241 175 202 201 236 172 83 
	20 233 141 67 170 239 145 69 174 234 142 169 235 240 146 173 241 236 143 68 172 
	20 54 116 239 203 52 120 245 207 115 237 238 204 119 243 244 208 53 118 242 205 
	20 116 39 145 239 120 41 149 245 117 144 240 237 121 148 246 243 118 40 147 242 
	20 203 239 174 84 207 245 178 86 238 241 175 202 244 247 179 206 205 242 176 85 
	20 239 145 69 174 245 149 71 178 240 146 173 241 246 150 177 247 242 147 70 176 
	20 52 120 245 207 50 124 251 211 119 243 244 208 123 249 250 212 51 122 248 209 
	20 120 41 149 245 124 43 153 251 121 148 246 243 125 152 252 249 122 42 151 248 
	20 207 245 178 86 211 251 182 88 244 247 179 206 250 253 183 210 209 248 180 87 
	20 245 149 71 178 251 153 73 182 246 150 177 247 252 154 181 253 248 151 72 180 
	20 50 124 251 211 48 128 257 215 123 249 250 212 127 255 256 216 49 126 254 213 
	20 124 43 153 251 128 45 157 257 125 152 252 249 129 156 258 255 126 44 155 254 
	20 211 251 182 88 215 257 186 90 250 253 183 210 256 259 187 214 213 254 184 89 
	20 251 153 73 182 257 157 75 186 252 154 181 253 258 158 185 259 254 155 74 184 
	20 48 128 257 215 4 21 99 30 127 255 256 216 20 97 98 31 47 130 260 217 
	20 128 45 157 257 21 5 24 99 129 156 258 255 22 23 100 97 130 46 159 260 
	20 215 257 186 90 30 99 27 7 256 259 187 214 98 101 28 29 217 260 188 91 
	20 257 157 75 186 99 24 6 27 258 158 185 259 100 25 26 101 260 159 76 188 

CELL_TYPES 32
	25
	25
	25
	25
	25
	25
	25
	25
	25
	25
	25
	25
	25
	25
	25
	25
	25
	25
	25
	25
	25
	25
	25
	25
	25
	25
	25
	25
	25
	25
	25
	25

POINT_DATA 261
FIELD E 1
	E 10 261 double
		-1.00726000E-02	-7.70322000E-03	 8.16933000E-02	-4.15456000E-03	 2.45470000E-02	 4.33181000E-03	 6.70817297E-02	-1.75323913E-02	-6.64238927E-03	 8.80922605E-02
		 1.00726000E-02	 7.70322000E-03	-8.16933000E-02	-4.15456000E-03	-2.45470000E-02	 4.33181000E-03	 6.70817297E-02	-8.80922605E-02	 6.64238927E-03	 1.75323913E-02
		 1.00726000E-02	 7.70322000E-03	-8.16933000E-02	 4.15456000E-03	 2.45470000E-02	 4.33181000E-03	 6.70817297E-02	-8.80922605E-02	 6.64238927E-03	 1.75323913E-02
		-1.00726000E-02	-7.70322000E-03	 8.16933000E-02	 4.15456000E-03	-2.45470000E-02	 4.33181000E-03	 6.70817297E-02	-1.75323913E-02	-6.64238927E-03	 8.80922605E-02
		 9.22738000E-05	 1.86302000E-04	-5.33742000E-04	 1.46274000E-05	 4.50922000E-06	-2.78936000E-05	 4.53449624E-04	-5.35019259E-04	 9.13280156E-05	 1.88525043E-04
		-9.22738000E-05	-1.86302000E-04	 5.33742000E-04	 1.46274000E-05	-4.50922000E-06	-2.78936000E-05	 4.53449624E-04	-1.88525043E-04	-9.13280156E-05	 5.35019259E-04
		-9.22738000E-05	-1.86302000E-04	 5.33742000E-04	-1.46274000E-05	 4.50922000E-06	-2.78936000E-05	 4.53449624E-04	-1.88525043E-04	-9.13280156E-05	 5.35019259E-04
		 9.22738000E-05	 1.86302000E-04	-5.33742000E-04	-1.46274000E-05	-4.50922000E-06	-2.78936000E-05	 4.53449624E-04	-5.35019259E-04	 9.13280156E-05	 1.88525043E-04
		-1.00726000E-02	-3.85144000E-03	 4.07359000E-02	-4.10108000E-03	 1.23014000E-02	-3.86423000E-03	 3.56111432E-02	-1.22175192E-02	-5.29399399E-03	 4.43233732E-02
		-1.38778000E-15	-9.01785000E-16	 9.34040000E-15	-4.04760000E-03	 1.95350000E-15	-1.20603000E-02	 1.46894022E-02	-1.27213954E-02	-1.04342943E-15	 1.27213954E-02
		 1.00726000E-02	 3.85144000E-03	-4.07359000E-02	-4.10108000E-03	-1.23014000E-02	-3.86423000E-03	 3.56111432E-02	-4.43233732E-02	 5.29399399E-03	 1.22175192E-02
		 9.91217000E-03	 7.70321000E-03	-7.97001000E-02	-1.26576000E-03	-1.19457000E-02	 1.14337000E-02	 6.20479481E-02	-8.26509879E-02	 7.36013887E-03	 1.32061290E-02
		 9.75172000E-03	 7.70320000E-03	-7.77069000E-02	 2.30393000E-16	-3.18555000E-15	 1.85356000E-02	 6.14808057E-02	-8.14730742E-02	 7.70320000E-03	 1.35178942E-02
		 9.91217000E-03	 7.70321000E-03	-7.97001000E-02	 1.26576000E-03	 1.19457000E-02	 1.14337000E-02	 6.20479481E-02	-8.26509879E-02	 7.36013887E-03	 1.32061290E-02
		 1.00726000E-02	 3.85144000E-03	-4.07359000E-02	 4.10108000E-03	 1.23014000E-02	-3.86423000E-03	 3.56111432E-02	-4.43233732E-02	 5.29399399E-03	 1.22175192E-02
		 1.87437000E-15	 1.00180000E-15	-1.10007000E-14	 4.04760000E-03	 2.13311000E-15	-1.20603000E-02	 1.46894022E-02	-1.27213954E-02	 1.07359544E-15	 1.27213954E-02
		-1.00726000E-02	-3.85144000E-03	 4.07359000E-02	 4.10108000E-03	-1.23014000E-02	-3.86423000E-03	 3.56111432E-02	-1.22175192E-02	-5.29399399E-03	 4.43233732E-02
		-9.91217000E-03	-7.70321000E-03	 7.97001000E-02	 1.26576000E-03	-1.19457000E-02	 1.14337000E-02	 6.20479481E-02	-1.32061290E-02	-7.36013887E-03	 8.26509879E-02
		-9.75172000E-03	-7.70320000E-03	 7.77069000E-02	-4.20779000E-16	-5.59015000E-16	 1.85356000E-02	 6.14808057E-02	-1.35178942E-02	-7.70320000E-03	 8.14730742E-02
		-9.91217000E-03	-7.70321000E-03	 7.97001000E-02	-1.26576000E-03	 1.19457000E-02	 1.14337000E-02	 6.20479481E-02	-1.32061290E-02	-7.36013887E-03	 8.26509879E-02
		-3.27180000E-05	 9.90045000E-05	-1.85978000E-04	 5.10182000E-05	 3.84303000E-06	 8.06904000E-05	 1.98228750E-04	-2.21516061E-04	-1.78766065E-05	 1.19701167E-04
		 1.31960000E-15	-1.34568000E-14	 4.26743000E-15	 8.74089000E-05	 2.34334000E-15	 1.89274000E-04	 2.40734883E-04	-2.08482524E-04	-1.21251208E-14	 2.08482524E-04
		 3.27180000E-05	-9.90045000E-05	 1.85978000E-04	 5.10182000E-05	-3.84303000E-06	 8.06904000E-05	 1.98228750E-04	-1.19701167E-04	 1.78766065E-05	 2.21516061E-04
		-1.38624000E-04	-4.15256000E-05	 4.90999000E-04	 1.82660000E-05	-9.76973000E-06	-2.67117000E-05	 3.93359131E-04	-1.42898859E-04	-3.85899922E-05	 4.92338252E-04
		-1.84975000E-04	 1.03250000E-04	 4.48257000E-04	 2.94011000E-15	 5.72283000E-15	-2.55297000E-05	 3.67271271E-04	-1.86002601E-04	 1.03250000E-04	 4.49284601E-04
		-1.38624000E-04	-4.15256000E-05	 4.90999000E-04	-1.82660000E-05	 9.76973000E-06	-2.67117000E-05	 3.93359131E-04	-1.42898859E-04	-3.85899922E-05	 4.92338252E-04
		 3.27180000E-05	-9.90045000E-05	 1.85978000E-04	-5.10182000E-05	 3.84303000E-06	 8.06904000E-05	 1.98228750E-04	-1.19701167E-04	 1.78766065E-05	 2.21516061E-04
		 2.31332000E-14	-7.93356000E-15	-5.11204000E-15	-8.74089000E-05	 2.91138000E-15	 1.89274000E-04	 2.40734883E-04	-2.08482524E-04	-5.22125130E-15	 2.08482524E-04
		-3.27180000E-05	 9.90045000E-05	-1.85978000E-04	-5.10182000E-05	-3.84303000E-06	 8.06904000E-05	 1.98228750E-04	-2.21516061E-04	-1.78766065E-05	 1.19701167E-04
		 1.38624000E-04	 4.15256000E-05	-4.90999000E-04	-1.82660000E-05	-9.76973000E-06	-2.67117000E-05	 3.93359131E-04	-4.92338252E-04	 3.85899922E-05	 1.42898859E-04
		 1.84975000E-04	-1.03250000E-04	-4.48257000E-04	 4.68008000E-15	-2.94511000E-15	-2.55297000E-05	 3.67271271E-04	-4.49284601E-04	-1.03250000E-04	 1.86002601E-04
		 1.38624000E-04	 4.15256000E-05	-4.90999000E-04	 1.82660000E-05	 9.76973000E-06	-2.67117000E-05	 3.93359131E-04	-4.92338252E-04	 3.85899922E-05	 1.42898859E-04
		 2.04642000E-02	 1.93337000E-02	-8.18606000E-02	-2.39130000E-03	-6.88667000E-03	 1.29015000E-04	 6.83632393E-02	-8.23271248E-02	 1.77147550E-02	 2.25496698E-02
		 2.79505000E-02	 2.76394000E-02	-8.04175000E-02	 1.08075000E-03	 4.96429000E-03	 8.32251000E-04	 7.23863751E-02	-8.06507171E-02	 2.67929687E-02	 2.90301484E-02
		 2.23078000E-02	 2.18295000E-02	-7.13800000E-02	 8.97466000E-04	 4.34075000E-04	 1.74797000E-03	 6.23430280E-02	-7.14144686E-02	 2.11453952E-02	 2.30263734E-02
		 1.83231000E-02	 1.88683000E-02	-6.32034000E-02	-7.08278000E-04	 7.77534000E-04	-7.32240000E-06	 5.45471641E-02	-6.32107656E-02	 1.78390913E-02	 1.93596743E-02
		 1.63149000E-02	 1.65397000E-02	-5.57051000E-02	-1.78133000E-04	 3.78512000E-04	 1.12814000E-03	 4.81085076E-02	-5.57247786E-02	 1.62356898E-02	 1.66385888E-02
		 1.49831000E-02	 1.46437000E-02	-4.85937000E-02	 1.22792000E-04	 7.54340000E-04	 8.66746000E-04	 4.22929087E-02	-4.86144680E-02	 1.46070158E-02	 1.50405522E-02
		 1.24625000E-02	 1.24624000E-02	-4.13867000E-02	 5.81773000E-05	 5.86543000E-04	 1.08490000E-03	 3.59277314E-02	-4.14149061E-02	 1.24061488E-02	 1.25469572E-02
		 1.03146000E-02	 1.03006000E-02	-3.44064000E-02	-4.07587000E-05	 5.19242000E-04	 7.79079000E-04	 2.98289692E-02	-3.44260108E-02	 1.02839198E-02	 1.03508910E-02
		 8.44622000E-03	 8.45737000E-03	-2.82236000E-02	-6.39462000E-06	 4.74710000E-04	 8.73238000E-04	 2.44771866E-02	-2.82505226E-02	 8.46005262E-03	 8.47045994E-03
		 6.68922000E-03	 6.63441000E-03	-2.21174000E-02	 1.17783000E-05	 4.75224000E-04	 7.73335000E-04	 1.92147807E-02	-2.21459767E-02	 6.63429858E-03	 6.71790810E-03
		 5.05668000E-03	 5.04732000E-03	-1.68172000E-02	 6.26476000E-06	 4.23729000E-04	 7.46048000E-04	 1.46130914E-02	-1.68507972E-02	 5.04420897E-03	 5.09338822E-03
		 3.47284000E-03	 3.44499000E-03	-1.14880000E-02	 2.34712000E-06	 3.82665000E-04	 6.50246000E-04	 1.00026357E-02	-1.15259661E-02	 3.44799734E-03	 3.50779879E-03
		 2.23427000E-03	 2.20614000E-03	-7.37156000E-03	 8.28036000E-06	 3.25478000E-04	 5.70784000E-04	 6.43939079E-03	-7.41629526E-03	 2.20508097E-03	 2.28006429E-03
		 9.99468000E-04	 9.64553000E-04	-3.21887000E-03	 7.34481000E-06	 2.54321000E-04	 4.52500000E-04	 2.86409027E-03	-3.28183447E-03	 9.65383140E-04	 1.06160233E-03
		 4.36292000E-04	 3.78257000E-04	-1.28036000E-03	 1.16436000E-05	 1.15455000E-04	 2.18689000E-04	 1.16132246E-03	-1.31533723E-03	 3.78008569E-04	 4.71517662E-04
		-4.36292000E-04	-3.78257000E-04	 1.28036000E-03	 1.16436000E-05	-1.15455000E-04	 2.18689000E-04	 1.16132246E-03	-4.71517662E-04	-3.78008569E-04	 1.31533723E-03
		-9.99468000E-04	-9.64553000E-04	 3.21887000E-03	 7.34481000E-06	-2.54321000E-04	 4.52500000E-04	 2.86409027E-03	-1.06160233E-03	-9.65383140E-04	 3.28183447E-03
		-2.23427000E-03	-2.20614000E-03	 7.37156000E-03	 8.28036000E-06	-3.25478000E-04	 5.70784000E-04	 6.43939079E-03	-2.28006429E-03	-2.20508097E-03	 7.41629526E-03
		-3.47284000E-03	-3.44499000E-03	 1.14880000E-02	 2.34712000E-06	-3.82665000E-04	 6.50246000E-04	 1.00026357E-02	-3.50779879E-03	-3.44799734E-03	 1.15259661E-02
		-5.05668000E-03	-5.04732000E-03	 1.68172000E-02	 6.26476000E-06	-4.23729000E-04	 7.46048000E-04	 1.46130914E-02	-5.09338822E-03	-5.04420897E-03	 1.68507972E-02
		-6.68922000E-03	-6.63441000E-03	 2.21174000E-02	 1.17783000E-05	-4.75224000E-04	 7.73335000E-04	 1.92147807E-02	-6.71790810E-03	-6.63429858E-03	 2.21459767E-02
		-8.44622000E-03	-8.45737000E-03	 2.82236000E-02	-6.39462000E-06	-4.74710000E-04	 8.73238000E-04	 2.44771866E-02	-8.47045994E-03	-8.46005262E-03	 2.82505226E-02
		-1.03146000E-02	-1.03006000E-02	 3.44064000E-02	-4.07587000E-05	-5.19242000E-04	 7.79079000E-04	 2.98289692E-02	-1.03508910E-02	-1.02839198E-02	 3.44260108E-02
		-1.24625000E-02	-1.24624000E-02	 4.13867000E-02	 5.81773000E-05	-5.86543000E-04	 1.08490000E-03	 3.59277314E-02	-1.25469572E-02	-1.24061488E-02	 4.14149061E-02
		-1.49831000E-02	-1.46437000E-02	 4.85937000E-02	 1.22792000E-04	-7.54340000E-04	 8.66746000E-04	 4.22929087E-02	-1.50405522E-02	-1.46070158E-02	 4.86144680E-02
		-1.63149000E-02	-1.65397000E-02	 5.57051000E-02	-1.78133000E-04	-3.78512000E-04	 1.12814000E-03	 4.81085076E-02	-1.66385888E-02	-1.62356898E-02	 5.57247786E-02
		-1.83231000E-02	-1.88683000E-02	 6.32034000E-02	-7.08278000E-04	-7.77534000E-04	-7.32240000E-06	 5.45471641E-02	-1.93596743E-02	-1.78390913E-02	 6.32107656E-02
		-2.23078000E-02	-2.18295000E-02	 7.13800000E-02	 8.97466000E-04	-4.34075000E-04	 1.74797000E-03	 6.23430280E-02	-2.30263734E-02	-2.11453952E-02	 7.14144686E-02
		-2.79505000E-02	-2.76394000E-02	 8.04175000E-02	 1.08075000E-03	-4.96429000E-03	 8.32251000E-04	 7.23863751E-02	-2.90301484E-02	-2.67929687E-02	 8.06507171E-02
		-2.04642000E-02	-1.93337000E-02	 8.18606000E-02	-2.39130000E-03	 6.88667000E-03	 1.29015000E-04	 6.83632393E-02	-2.25496698E-02	-1.77147550E-02	 8.23271248E-02
		 2.04642000E-02	 1.93337000E-02	-8.18606000E-02	 2.39130000E-03	 6.88667000E-03	 1.29015000E-04	 6.83632393E-02	-8.23271248E-02	 1.77147550E-02	 2.25496698E-02
		 2.79505000E-02	 2.76394000E-02	-8.04175000E-02	-1.08075000E-03	-4.96429000E-03	 8.32251000E-04	 7.23863751E-02	-8.06507171E-02	 2.67929687E-02	 2.90301484E-02
		 2.23078000E-02	 2.18295000E-02	-7.13800000E-02	-8.97466000E-04	-4.34075000E-04	 1.74797000E-03	 6.23430280E-02	-7.14144686E-02	 2.11453952E-02	 2.30263734E-02
		 1.83231000E-02	 1.88683000E-02	-6.32034000E-02	 7.08278000E-04	-7.77534000E-04	-7.32240000E-06	 5.45471641E-02	-6.32107656E-02	 1.78390913E-02	 1.93596743E-02
		 1.63149000E-02	 1.65397000E-02	-5.57051000E-02	 1.78133000E-04	-3.78512000E-04	 1.12814000E-03	 4.81085076E-02	-5.57247786E-02	 1.62356898E-02	 1.66385888E-02
		 1.49831000E-02	 1.46437000E-02	-4.85937000E-02	-1.22792000E-04	-7.54340000E-04	 8.66746000E-04	 4.22929087E-02	-4.86144680E-02	 1.46070158E-02	 1.50405522E-02
		 1.24625000E-02	 1.24624000E-02	-4.13867000E-02	-5.81773000E-05	-5.86543000E-04	 1.08490000E-03	 3.59277314E-02	-4.14149061E-02	 1.24061488E-02	 1.25469572E-02
		 1.03146000E-02	 1.03006000E-02	-3.44064000E-02	 4.07587000E-05	-5.19242000E-04	 7.79079000E-04	 2.98289692E-02	-3.44260108E-02	 1.02839198E-02	 1.03508910E-02
		 8.44622000E-03	 8.45737000E-03	-2.82236000E-02	 6.39462000E-06	-4.74710000E-04	 8.73238000E-04	 2.44771866E-02	-2.82505226E-02	 8.46005262E-03	 8.47045994E-03
		 6.68922000E-03	 6.63441000E-03	-2.21174000E-02	-1.17783000E-05	-4.75224000E-04	 7.73335000E-04	 1.92147807E-02	-2.21459767E-02	 6.63429858E-03	 6.71790810E-03
		 5.05668000E-03	 5.04732000E-03	-1.68172000E-02	-6.26476000E-06	-4.23729000E-04	 7.46048000E-04	 1.46130914E-02	-1.68507972E-02	 5.04420897E-03	 5.09338822E-03
		 3.47284000E-03	 3.44499000E-03	-1.14880000E-02	-2.34712000E-06	-3.82665000E-04	 6.50246000E-04	 1.00026357E-02	-1.15259661E-02	 3.44799734E-03	 3.50779879E-03
		 2.23427000E-03	 2.20614000E-03	-7.37156000E-03	-8.28036000E-06	-3.25478000E-04	 5.70784000E-04	 6.43939079E-03	-7.41629526E-03	 2.20508097E-03	 2.28006429E-03
		 9.99468000E-04	 9.64553000E-04	-3.21887000E-03	-7.34481000E-06	-2.54321000E-04	 4.52500000E-04	 2.86409027E-03	-3.28183447E-03	 9.65383140E-04	 1.06160233E-03
		 4.36292000E-04	 3.78257000E-04	-1.28036000E-03	-1.16436000E-05	-1.15455000E-04	 2.18689000E-04	 1.16132246E-03	-1.31533723E-03	 3.78008569E-04	 4.71517662E-04
		-2.04642000E-02	-1.93337000E-02	 8.18606000E-02	 2.39130000E-03	-6.88667000E-03	 1.29015000E-04	 6.83632393E-02	-2.25496698E-02	-1.77147550E-02	 8.23271248E-02
		-2.79505000E-02	-2.76394000E-02	 8.04175000E-02	-1.08075000E-03	 4.96429000E-03	 8.32251000E-04	 7.23863751E-02	-2.90301484E-02	-2.67929687E-02	 8.06507171E-02
		-2.23078000E-02	-2.18295000E-02	 7.13800000E-02	-8.97466000E-04	 4.34075000E-04	 1.74797000E-03	 6.23430280E-02	-2.30263734E-02	-2.11453952E-02	 7.14144686E-02
		-1.83231000E-02	-1.88683000E-02	 6.32034000E-02	 7.08278000E-04	 7.77534000E-04	-7.32240000E-06	 5.45471641E-02	-1.93596743E-02	-1.78390913E-02	 6.32107656E-02
		-1.63149000E-02	-1.65397000E-02	 5.57051000E-02	 1.78133000E-04	 3.78512000E-04	 1.12814000E-03	 4.81085076E-02	-1.66385888E-02	-1.62356898E-02	 5.57247786E-02
		-1.49831000E-02	-1.46437000E-02	 4.85937000E-02	-1.22792000E-04	 7.54340000E-04	 8.66746000E-04	 4.22929087E-02	-1.50405522E-02	-1.46070158E-02	 4.86144680E-02
		-1.24625000E-02	-1.24624000E-02	 4.13867000E-02	-5.81773000E-05	 5.86543000E-04	 1.08490000E-03	 3.59277314E-02	-1.25469572E-02	-1.24061488E-02	 4.14149061E-02
		-1.03146000E-02	-1.03006000E-02	 3.44064000E-02	 4.07587000E-05	 5.19242000E-04	 7.79079000E-04	 2.98289692E-02	-1.03508910E-02	-1.02839198E-02	 3.44260108E-02
		-8.44622000E-03	-8.45737000E-03	 2.82236000E-02	 6.39462000E-06	 4.74710000E-04	 8.73238000E-04	 2.44771866E-02	-8.47045994E-03	-8.46005262E-03	 2.82505226E-02
		-6.68922000E-03	-6.63441000E-03	 2.21174000E-02	-1.17783000E-05	 4.75224000E-04	 7.73335000E-04	 1.92147807E-02	-6.71790810E-03	-6.63429858E-03	 2.21459767E-02
		-5.05668000E-03	-5.04732000E-03	 1.68172000E-02	-6.26476000E-06	 4.23729000E-04	 7.46048000E-04	 1.46130914E-02	-5.09338822E-03	-5.04420897E-03	 1.68507972E-02