# vtk DataFile Version 3.0

ASCII
DATASET UNSTRUCTURED_GRID

POINTS 261 double
	 0.00000000E+00	 0.00000000E+00	 0.00000000E+00
	 1.00000000E+00	 0.00000000E+00	 0.00000000E+00
	 1.00000000E+00	 1.00000000E+00	 0.00000000E+00
	 0.00000000E+00	 1.00000000E+00	 0.00000000E+00
	 0.00000000E+00	 0.00000000E+00	 8.00000000E+00
	 1.00000000E+00	 0.00000000E+00	 8.00000000E+00
	 1.00000000E+00	 1.00000000E+00	 8.00000000E+00
	 0.00000000E+00	 1.00000000E+00	 8.00000000E+00
	 2.50000000E-01	 0.00000000E+00	 0.00000000E+00
	 5.00000000E-01	 0.00000000E+00	 0.00000000E+00
	 7.50000000E-01	 0.00000000E+00	 0.00000000E+00
	 1.00000000E+00	 2.50000000E-01	 0.00000000E+00
	 1.00000000E+00	 5.00000000E-01	 0.00000000E+00
	 1.00000000E+00	 7.50000000E-01	 0.00000000E+00
	 7.50000000E-01	 1.00000000E+00	 0.00000000E+00
	 5.00000000E-01	 1.00000000E+00	 0.00000000E+00
	 2.50000000E-01	 1.00000000E+00	 0.00000000E+00
	 0.00000000E+00	 7.50000000E-01	 0.00000000E+00
	 0.00000000E+00	 5.00000000E-01	 0.00000000E+00
	 0.00000000E+00	 2.50000000E-01	 0.00000000E+00
	 2.50000000E-01	 0.00000000E+00	 8.00000000E+00
	 5.00000000E-01	 0.00000000E+00	 8.00000000E+00
	 7.50000000E-01	 0.00000000E+00	 8.00000000E+00
	 1.00000000E+00	 2.50000000E-01	 8.00000000E+00
	 1.00000000E+00	 5.00000000E-01	 8.00000000E+00
	 1.00000000E+00	 7.50000000E-01	 8.00000000E+00
	 7.50000000E-01	 1.00000000E+00	 8.00000000E+00
	 5.00000000E-01	 1.00000000E+00	 8.00000000E+00
	 2.50000000E-01	 1.00000000E+00	 8.00000000E+00
	 0.00000000E+00	 7.50000000E-01	 8.00000000E+00
	 0.00000000E+00	 5.00000000E-01	 8.00000000E+00
	 0.00000000E+00	 2.50000000E-01	 8.00000000E+00
	 1.00000000E+00	 0.00000000E+00	 5.00000000E-01
	 1.00000000E+00	 0.00000000E+00	 1.00000000E+00
	 1.00000000E+00	 0.00000000E+00	 1.50000000E+00
	 1.00000000E+00	 0.00000000E+00	 2.00000000E+00
	 1.00000000E+00	 0.00000000E+00	 2.50000000E+00
	 1.00000000E+00	 0.00000000E+00	 3.00000000E+00
	 1.00000000E+00	 0.00000000E+00	 3.50000000E+00
	 1.00000000E+00	 0.00000000E+00	 4.00000000E+00
	 1.00000000E+00	 0.00000000E+00	 4.50000000E+00
	 1.00000000E+00	 0.00000000E+00	 5.00000000E+00
	 1.00000000E+00	 0.00000000E+00	 5.50000000E+00
	 1.00000000E+00	 0.00000000E+00	 6.00000000E+00
	 1.00000000E+00	 0.00000000E+00	 6.50000000E+00
	 1.00000000E+00	 0.00000000E+00	 7.00000000E+00
	 1.00000000E+00	 0.00000000E+00	 7.50000000E+00
	 0.00000000E+00	 0.00000000E+00	 7.50000000E+00
	 0.00000000E+00	 0.00000000E+00	 7.00000000E+00
	 0.00000000E+00	 0.00000000E+00	 6.50000000E+00
	 0.00000000E+00	 0.00000000E+00	 6.00000000E+00
	 0.00000000E+00	 0.00000000E+00	 5.50000000E+00
	 0.00000000E+00	 0.00000000E+00	 5.00000000E+00
	 0.00000000E+00	 0.00000000E+00	 4.50000000E+00
	 0.00000000E+00	 0.00000000E+00	 4.00000000E+00
	 0.00000000E+00	 0.00000000E+00	 3.50000000E+00
	 0.00000000E+00	 0.00000000E+00	 3.00000000E+00
	 0.00000000E+00	 0.00000000E+00	 2.50000000E+00
	 0.00000000E+00	 0.00000000E+00	 2.00000000E+00
	 0.00000000E+00	 0.00000000E+00	 1.50000000E+00
	 0.00000000E+00	 0.00000000E+00	 1.00000000E+00
	 0.00000000E+00	 0.00000000E+00	 5.00000000E-01
	 1.00000000E+00	 1.00000000E+00	 5.00000000E-01
	 1.00000000E+00	 1.00000000E+00	 1.00000000E+00
	 1.00000000E+00	 1.00000000E+00	 1.50000000E+00
	 1.00000000E+00	 1.00000000E+00	 2.00000000E+00
	 1.00000000E+00	 1.00000000E+00	 2.50000000E+00
	 1.00000000E+00	 1.00000000E+00	 3.00000000E+00
	 1.00000000E+00	 1.00000000E+00	 3.50000000E+00
	 1.00000000E+00	 1.00000000E+00	 4.00000000E+00
	 1.00000000E+00	 1.00000000E+00	 4.50000000E+00
	 1.00000000E+00	 1.00000000E+00	 5.00000000E+00
	 1.00000000E+00	 1.00000000E+00	 5.50000000E+00
	 1.00000000E+00	 1.00000000E+00	 6.00000000E+00
	 1.00000000E+00	 1.00000000E+00	 6.50000000E+00
	 1.00000000E+00	 1.00000000E+00	 7.00000000E+00
	 1.00000000E+00	 1.00000000E+00	 7.50000000E+00
	 0.00000000E+00	 1.00000000E+00	 5.00000000E-01
	 0.00000000E+00	 1.00000000E+00	 1.00000000E+00
	 0.00000000E+00	 1.00000000E+00	 1.50000000E+00
	 0.00000000E+00	 1.00000000E+00	 2.00000000E+00
	 0.00000000E+00	 1.00000000E+00	 2.50000000E+00
	 0.00000000E+00	 1.00000000E+00	 3.00000000E+00
	 0.00000000E+00	 1.00000000E+00	 3.50000000E+00
	 0.00000000E+00	 1.00000000E+00	 4.00000000E+00
	 0.00000000E+00	 1.00000000E+00	 4.50000000E+00
	 0.00000000E+00	 1.00000000E+00	 5.00000000E+00
	 0.00000000E+00	 1.00000000E+00	 5.50000000E+00
	 0.00000000E+00	 1.00000000E+00	 6.00000000E+00
	 0.00000000E+00	 1.00000000E+00	 6.50000000E+00
	 0.00000000E+00	 1.00000000E+00	 7.00000000E+00
	 0.00000000E+00	 1.00000000E+00	 7.50000000E+00
	 5.00000000E-01	 2.50000000E-01	 0.00000000E+00
	 2.50000000E-01	 5.00000000E-01	 0.00000000E+00
	 5.00000000E-01	 5.00000000E-01	 0.00000000E+00
	 7.50000000E-01	 5.00000000E-01	 0.00000000E+00
	 5.00000000E-01	 7.50000000E-01	 0.00000000E+00
	 5.00000000E-01	 2.50000000E-01	 8.00000000E+00
	 2.50000000E-01	 5.00000000E-01	 8.00000000E+00
	 5.00000000E-01	 5.00000000E-01	 8.00000000E+00
	 7.50000000E-01	 5.00000000E-01	 8.00000000E+00
	 5.00000000E-01	 7.50000000E-01	 8.00000000E+00
	 5.00000000E-01	 0.00000000E+00	 5.00000000E-01
	 2.50000000E-01	 0.00000000E+00	 1.00000000E+00
	 5.00000000E-01	 0.00000000E+00	 1.00000000E+00
	 7.50000000E-01	 0.00000000E+00	 1.00000000E+00
	 5.00000000E-01	 0.00000000E+00	 1.50000000E+00
	 2.50000000E-01	 0.00000000E+00	 2.00000000E+00
	 5.00000000E-01	 0.00000000E+00	 2.00000000E+00
	 7.50000000E-01	 0.00000000E+00	 2.00000000E+00
	 5.00000000E-01	 0.00000000E+00	 2.50000000E+00
	 2.50000000E-01	 0.00000000E+00	 3.00000000E+00
	 5.00000000E-01	 0.00000000E+00	 3.00000000E+00
	 7.50000000E-01	 0.00000000E+00	 3.00000000E+00
	 5.00000000E-01	 0.00000000E+00	 3.50000000E+00
	 2.50000000E-01	 0.00000000E+00	 4.00000000E+00
	 5.00000000E-01	 0.00000000E+00	 4.00000000E+00
	 7.50000000E-01	 0.00000000E+00	 4.00000000E+00
	 5.00000000E-01	 0.00000000E+00	 4.50000000E+00
	 2.50000000E-01	 0.00000000E+00	 5.00000000E+00
	 5.00000000E-01	 0.00000000E+00	 5.00000000E+00
	 7.50000000E-01	 0.00000000E+00	 5.00000000E+00
	 5.00000000E-01	 0.00000000E+00	 5.50000000E+00
	 2.50000000E-01	 0.00000000E+00	 6.00000000E+00
	 5.00000000E-01	 0.00000000E+00	 6.00000000E+00
	 7.50000000E-01	 0.00000000E+00	 6.00000000E+00
	 5.00000000E-01	 0.00000000E+00	 6.50000000E+00
	 2.50000000E-01	 0.00000000E+00	 7.00000000E+00
	 5.00000000E-01	 0.00000000E+00	 7.00000000E+00
	 7.50000000E-01	 0.00000000E+00	 7.00000000E+00
	 5.00000000E-01	 0.00000000E+00	 7.50000000E+00
	 1.00000000E+00	 5.00000000E-01	 5.00000000E-01
	 1.00000000E+00	 2.50000000E-01	 1.00000000E+00
	 1.00000000E+00	 5.00000000E-01	 1.00000000E+00
	 1.00000000E+00	 7.50000000E-01	 1.00000000E+00
	 1.00000000E+00	 5.00000000E-01	 1.50000000E+00
	 1.00000000E+00	 2.50000000E-01	 2.00000000E+00
	 1.00000000E+00	 5.00000000E-01	 2.00000000E+00
	 1.00000000E+00	 7.50000000E-01	 2.00000000E+00
	 1.00000000E+00	 5.00000000E-01	 2.50000000E+00
	 1.00000000E+00	 2.50000000E-01	 3.00000000E+00
	 1.00000000E+00	 5.00000000E-01	 3.00000000E+00
	 1.00000000E+00	 7.50000000E-01	 3.00000000E+00
	 1.00000000E+00	 5.00000000E-01	 3.50000000E+00
	 1.00000000E+00	 2.50000000E-01	 4.00000000E+00
	 1.00000000E+00	 5.00000000E-01	 4.00000000E+00
	 1.00000000E+00	 7.50000000E-01	 4.00000000E+00
	 1.00000000E+00	 5.00000000E-01	 4.50000000E+00
	 1.00000000E+00	 2.50000000E-01	 5.00000000E+00
	 1.00000000E+00	 5.00000000E-01	 5.00000000E+00
	 1.00000000E+00	 7.50000000E-01	 5.00000000E+00
	 1.00000000E+00	 5.00000000E-01	 5.50000000E+00
	 1.00000000E+00	 2.50000000E-01	 6.00000000E+00
	 1.00000000E+00	 5.00000000E-01	 6.00000000E+00
	 1.00000000E+00	 7.50000000E-01	 6.00000000E+00
	 1.00000000E+00	 5.00000000E-01	 6.50000000E+00
	 1.00000000E+00	 2.50000000E-01	 7.00000000E+00
	 1.00000000E+00	 5.00000000E-01	 7.00000000E+00
	 1.00000000E+00	 7.50000000E-01	 7.00000000E+00
	 1.00000000E+00	 5.00000000E-01	 7.50000000E+00
	 5.00000000E-01	 1.00000000E+00	 5.00000000E-01
	 7.50000000E-01	 1.00000000E+00	 1.00000000E+00
	 5.00000000E-01	 1.00000000E+00	 1.00000000E+00
	 2.50000000E-01	 1.00000000E+00	 1.00000000E+00
	 5.00000000E-01	 1.00000000E+00	 1.50000000E+00
	 7.50000000E-01	 1.00000000E+00	 2.00000000E+00
	 5.00000000E-01	 1.00000000E+00	 2.00000000E+00
	 2.50000000E-01	 1.00000000E+00	 2.00000000E+00
	 5.00000000E-01	 1.00000000E+00	 2.50000000E+00
	 7.50000000E-01	 1.00000000E+00	 3.00000000E+00
	 5.00000000E-01	 1.00000000E+00	 3.00000000E+00
	 2.50000000E-01	 1.00000000E+00	 3.00000000E+00
	 5.00000000E-01	 1.00000000E+00	 3.50000000E+00
	 7.50000000E-01	 1.00000000E+00	 4.00000000E+00
	 5.00000000E-01	 1.00000000E+00	 4.00000000E+00
	 2.50000000E-01	 1.00000000E+00	 4.00000000E+00
	 5.00000000E-01	 1.00000000E+00	 4.50000000E+00
	 7.50000000E-01	 1.00000000E+00	 5.00000000E+00
	 5.00000000E-01	 1.00000000E+00	 5.00000000E+00
	 2.50000000E-01	 1.00000000E+00	 5.00000000E+00
	 5.00000000E-01	 1.00000000E+00	 5.50000000E+00
	 7.50000000E-01	 1.00000000E+00	 6.00000000E+00
	 5.00000000E-01	 1.00000000E+00	 6.00000000E+00
	 2.50000000E-01	 1.00000000E+00	 6.00000000E+00
	 5.00000000E-01	 1.00000000E+00	 6.50000000E+00
	 7.50000000E-01	 1.00000000E+00	 7.00000000E+00
	 5.00000000E-01	 1.00000000E+00	 7.00000000E+00
	 2.50000000E-01	 1.00000000E+00	 7.00000000E+00
	 5.00000000E-01	 1.00000000E+00	 7.50000000E+00
	 0.00000000E+00	 5.00000000E-01	 5.00000000E-01
	 0.00000000E+00	 7.50000000E-01	 1.00000000E+00
	 0.00000000E+00	 5.00000000E-01	 1.00000000E+00
	 0.00000000E+00	 2.50000000E-01	 1.00000000E+00
	 0.00000000E+00	 5.00000000E-01	 1.50000000E+00
	 0.00000000E+00	 7.50000000E-01	 2.00000000E+00
	 0.00000000E+00	 5.00000000E-01	 2.00000000E+00
	 0.00000000E+00	 2.50000000E-01	 2.00000000E+00
	 0.00000000E+00	 5.00000000E-01	 2.50000000E+00
	 0.00000000E+00	 7.50000000E-01	 3.00000000E+00
	 0.00000000E+00	 5.00000000E-01	 3.00000000E+00
	 0.00000000E+00	 2.50000000E-01	 3.00000000E+00
	 0.00000000E+00	 5.00000000E-01	 3.50000000E+00
	 0.00000000E+00	 7.50000000E-01	 4.00000000E+00
	 0.00000000E+00	 5.00000000E-01	 4.00000000E+00
	 0.00000000E+00	 2.50000000E-01	 4.00000000E+00
	 0.00000000E+00	 5.00000000E-01	 4.50000000E+00
	 0.00000000E+00	 7.50000000E-01	 5.00000000E+00
	 0.00000000E+00	 5.00000000E-01	 5.00000000E+00
	 0.00000000E+00	 2.50000000E-01	 5.00000000E+00
	 0.00000000E+00	 5.00000000E-01	 5.50000000E+00
	 0.00000000E+00	 7.50000000E-01	 6.00000000E+00
	 0.00000000E+00	 5.00000000E-01	 6.00000000E+00
	 0.00000000E+00	 2.50000000E-01	 6.00000000E+00
	 0.00000000E+00	 5.00000000E-01	 6.50000000E+00
	 0.00000000E+00	 7.50000000E-01	 7.00000000E+00
	 0.00000000E+00	 5.00000000E-01	 7.00000000E+00
	 0.00000000E+00	 2.50000000E-01	 7.00000000E+00
	 0.00000000E+00	 5.00000000E-01	 7.50000000E+00
	 5.00000000E-01	 5.00000000E-01	 5.00000000E-01
	 5.00000000E-01	 2.50000000E-01	 1.00000000E+00
	 2.50000000E-01	 5.00000000E-01	 1.00000000E+00
	 5.00000000E-01	 5.00000000E-01	 1.00000000E+00
	 7.50000000E-01	 5.00000000E-01	 1.00000000E+00
	 5.00000000E-01	 7.50000000E-01	 1.00000000E+00
	 5.00000000E-01	 5.00000000E-01	 1.50000000E+00
	 5.00000000E-01	 2.50000000E-01	 2.00000000E+00
	 2.50000000E-01	 5.00000000E-01	 2.00000000E+00
	 5.00000000E-01	 5.00000000E-01	 2.00000000E+00
	 7.50000000E-01	 5.00000000E-01	 2.00000000E+00
	 5.00000000E-01	 7.50000000E-01	 2.00000000E+00
	 5.00000000E-01	 5.00000000E-01	 2.50000000E+00
	 5.00000000E-01	 2.50000000E-01	 3.00000000E+00
	 2.50000000E-01	 5.00000000E-01	 3.00000000E+00
	 5.00000000E-01	 5.00000000E-01	 3.00000000E+00
	 7.50000000E-01	 5.00000000E-01	 3.00000000E+00
	 5.00000000E-01	 7.50000000E-01	 3.00000000E+00
	 5.00000000E-01	 5.00000000E-01	 3.50000000E+00
	 5.00000000E-01	 2.50000000E-01	 4.00000000E+00
	 2.50000000E-01	 5.00000000E-01	 4.00000000E+00
	 5.00000000E-01	 5.00000000E-01	 4.00000000E+00
	 7.50000000E-01	 5.00000000E-01	 4.00000000E+00
	 5.00000000E-01	 7.50000000E-01	 4.00000000E+00
	 5.00000000E-01	 5.00000000E-01	 4.50000000E+00
	 5.00000000E-01	 2.50000000E-01	 5.00000000E+00
	 2.50000000E-01	 5.00000000E-01	 5.00000000E+00
	 5.00000000E-01	 5.00000000E-01	 5.00000000E+00
	 7.50000000E-01	 5.00000000E-01	 5.00000000E+00
	 5.00000000E-01	 7.50000000E-01	 5.00000000E+00
	 5.00000000E-01	 5.00000000E-01	 5.50000000E+00
	 5.00000000E-01	 2.50000000E-01	 6.00000000E+00
	 2.50000000E-01	 5.00000000E-01	 6.00000000E+00
	 5.00000000E-01	 5.00000000E-01	 6.00000000E+00
	 7.50000000E-01	 5.00000000E-01	 6.00000000E+00
	 5.00000000E-01	 7.50000000E-01	 6.00000000E+00
	 5.00000000E-01	 5.00000000E-01	 6.50000000E+00
	 5.00000000E-01	 2.50000000E-01	 7.00000000E+00
	 2.50000000E-01	 5.00000000E-01	 7.00000000E+00
	 5.00000000E-01	 5.00000000E-01	 7.00000000E+00
	 7.50000000E-01	 5.00000000E-01	 7.00000000E+00
	 5.00000000E-01	 7.50000000E-01	 7.00000000E+00
	 5.00000000E-01	 5.00000000E-01	 7.50000000E+00

CELLS 32 672
	20 0 9 94 18 60 104 221 191 8 92 93 19 103 219 220 192 61 102 218 189 
	20 9 1 12 94 104 33 133 221 10 11 95 92 105 132 222 219 102 32 131 218 
	20 18 94 15 3 191 221 162 78 93 96 16 17 220 223 163 190 189 218 160 77 
	20 94 12 2 15 221 133 63 162 95 13 14 96 222 134 161 223 218 131 62 160 
	20 60 104 221 191 58 108 227 195 103 219 220 192 107 225 226 196 59 106 224 193 
	20 104 33 133 221 108 35 137 227 105 132 222 219 109 136 228 225 106 34 135 224 
	20 191 221 162 78 195 227 166 80 220 223 163 190 226 229 167 194 193 224 164 79 
	20 221 133 63 162 227 137 65 166 222 134 161 223 228 138 165 229 224 135 64 164 
	20 58 108 227 195 56 112 233 199 107 225 226 196 111 231 232 200 57 110 230 197 
	20 108 35 137 227 112 37 141 233 109 136 228 225 113 140 234 231 110 36 139 230 
	20 195 227 166 80 199 233 170 82 226 229 167 194 232 235 171 198 197 230 168 81 
	20 227 137 65 166 233 141 67 170 228 138 165 229 234 142 169 235 230 139 66 168 
	20 56 112 233 199 54 116 239 203 111 231 232 200 115 237 238 204 55 114 236 201 
	20 112 37 141 233 116 39 145 239 113 140 234 231 117 144 240 237 114 38 143 236 
	20 199 233 170 82 203 239 174 84 232 235 171 198 238 241 175 202 201 236 172 83 
	20 233 141 67 170 239 145 69 174 234 142 169 235 240 146 173 241 236 143 68 172 
	20 54 116 239 203 52 120 245 207 115 237 238 204 119 243 244 208 53 118 242 205 
	20 116 39 145 239 120 41 149 245 117 144 240 237 121 148 246 243 118 40 147 242 
	20 203 239 174 84 207 245 178 86 238 241 175 202 244 247 179 206 205 242 176 85 
	20 239 145 69 174 245 149 71 178 240 146 173 241 246 150 177 247 242 147 70 176 
	20 52 120 245 207 50 124 251 211 119 243 244 208 123 249 250 212 51 122 248 209 
	20 120 41 149 245 124 43 153 251 121 148 246 243 125 152 252 249 122 42 151 248 
	20 207 245 178 86 211 251 182 88 244 247 179 206 250 253 183 210 209 248 180 87 
	20 245 149 71 178 251 153 73 182 246 150 177 247 252 154 181 253 248 151 72 180 
	20 50 124 251 211 48 128 257 215 123 249 250 212 127 255 256 216 49 126 254 213 
	20 124 43 153 251 128 45 157 257 125 152 252 249 129 156 258 255 126 44 155 254 
	20 211 251 182 88 215 257 186 90 250 253 183 210 256 259 187 214 213 254 184 89 
	20 251 153 73 182 257 157 75 186 252 154 181 253 258 158 185 259 254 155 74 184 
	20 48 128 257 215 4 21 99 30 127 255 256 216 20 97 98 31 47 130 260 217 
	20 128 45 157 257 21 5 24 99 129 156 258 255 22 23 100 97 130 46 159 260 
	20 215 257 186 90 30 99 27 7 256 259 187 214 98 101 28 29 217 260 188 91 
	20 257 157 75 186 99 24 6 27 258 158 185 259 100 25 26 101 260 159 76 188 

CELL_TYPES 32
	25
	25
	25
	25
	25
	25
	25
	25
	25
	25
	25
	25
	25
	25
	25
	25
	25
	25
	25
	25
	25
	25
	25
	25
	25
	25
	25
	25
	25
	25
	25
	25

POINT_DATA 261
FIELD U 1
	U 3 261 double
		-9.24325000E-07	-5.84680000E-06	 6.99906000E-05
		 9.24325000E-07	-5.84680000E-06	 6.99906000E-05
		 9.24325000E-07	 5.84680000E-06	 6.99906000E-05
		-9.24325000E-07	 5.84680000E-06	 6.99906000E-05
		 3.91774000E-05	 3.91772000E-05	 4.73649000E-04
		-3.91774000E-05	 3.91772000E-05	 4.73649000E-04
		-3.91774000E-05	-3.91772000E-05	 4.73649000E-04
		 3.91774000E-05	-3.91772000E-05	 4.73649000E-04
		 2.35501000E-07	-1.26967000E-05	 7.02259000E-05
		 2.84772000E-20	-1.28528000E-05	 7.14659000E-05
		-2.35501000E-07	-1.26967000E-05	 7.02259000E-05
		-4.58757000E-06	-5.88390000E-08	 4.37395000E-05
		 0.00000000E+00	 0.00000000E+00	 0.00000000E+00
		-4.58757000E-06	 5.88390000E-08	 4.37395000E-05
		-2.35501000E-07	 1.26967000E-05	 7.02259000E-05
		 1.14353000E-20	 1.28528000E-05	 7.14659000E-05
		 2.35501000E-07	 1.26967000E-05	 7.02259000E-05
		 4.58757000E-06	 5.88390000E-08	 4.37395000E-05
		 0.00000000E+00	 0.00000000E+00	 0.00000000E+00
		 4.58757000E-06	-5.88390000E-08	 4.37395000E-05
		 1.63771000E-05	 2.61340000E-05	 4.00809000E-04
		 2.94553000E-19	 1.00472000E-05	 3.90931000E-04
		-1.63771000E-05	 2.61340000E-05	 4.00809000E-04
		-2.61347000E-05	 1.63771000E-05	 4.00810000E-04
		-1.00478000E-05	 2.51826000E-19	 3.90932000E-04
		-2.61347000E-05	-1.63771000E-05	 4.00810000E-04
		-1.63771000E-05	-2.61340000E-05	 4.00809000E-04
		-9.48692000E-20	-1.00472000E-05	 3.90931000E-04
		 1.63771000E-05	-2.61340000E-05	 4.00809000E-04
		 2.61347000E-05	-1.63771000E-05	 4.00810000E-04
		 1.00478000E-05	-1.50197000E-19	 3.90932000E-04
		 2.61347000E-05	 1.63771000E-05	 4.00810000E-04
		-9.03979000E-08	 1.60152000E-05	 6.23513000E-05
		-9.87640000E-06	 6.03888000E-07	 8.55518000E-05
		-6.46615000E-06	 6.72243000E-06	 1.05007000E-04
		-6.52710000E-06	 6.37704000E-06	 1.25242000E-04
		-6.28575000E-06	 6.30151000E-06	 1.46962000E-04
		-6.64274000E-06	 6.45320000E-06	 1.68574000E-04
		-6.37507000E-06	 6.37099000E-06	 1.90073000E-04
		-6.61701000E-06	 6.64496000E-06	 2.11545000E-04
		-6.35582000E-06	 6.35526000E-06	 2.32528000E-04
		-6.97480000E-06	 6.96458000E-06	 2.53240000E-04
		-5.79650000E-06	 5.79742000E-06	 2.76899000E-04
		-8.72135000E-06	 8.72337000E-06	 3.00041000E-04
		-5.70751000E-06	 5.70713000E-06	 3.15215000E-04
		-1.42960000E-05	 1.42953000E-05	 3.29741000E-04
		 4.08208000E-06	-4.08169000E-06	 3.79002000E-04
		-4.08208000E-06	-4.08169000E-06	 3.79002000E-04
		 1.42960000E-05	 1.42953000E-05	 3.29741000E-04
		 5.70751000E-06	 5.70713000E-06	 3.15215000E-04
		 8.72135000E-06	 8.72337000E-06	 3.00041000E-04
		 5.79650000E-06	 5.79742000E-06	 2.76899000E-04
		 6.97480000E-06	 6.96458000E-06	 2.53240000E-04
		 6.35582000E-06	 6.35526000E-06	 2.32528000E-04
		 6.61701000E-06	 6.64496000E-06	 2.11545000E-04
		 6.37507000E-06	 6.37099000E-06	 1.90073000E-04
		 6.64274000E-06	 6.45320000E-06	 1.68574000E-04
		 6.28575000E-06	 6.30151000E-06	 1.46962000E-04
		 6.52710000E-06	 6.37704000E-06	 1.25242000E-04
		 6.46615000E-06	 6.72243000E-06	 1.05007000E-04
		 9.87640000E-06	 6.03888000E-07	 8.55518000E-05
		 9.03979000E-08	 1.60152000E-05	 6.23513000E-05
		-9.03979000E-08	-1.60152000E-05	 6.23513000E-05
		-9.87640000E-06	-6.03888000E-07	 8.55518000E-05
		-6.46615000E-06	-6.72243000E-06	 1.05007000E-04
		-6.52710000E-06	-6.37704000E-06	 1.25242000E-04
		-6.28575000E-06	-6.30151000E-06	 1.46962000E-04
		-6.64274000E-06	-6.45320000E-06	 1.68574000E-04
		-6.37507000E-06	-6.37099000E-06	 1.90073000E-04
		-6.61701000E-06	-6.64496000E-06	 2.11545000E-04
		-6.35582000E-06	-6.35526000E-06	 2.32528000E-04
		-6.97480000E-06	-6.96458000E-06	 2.53240000E-04
		-5.79650000E-06	-5.79742000E-06	 2.76899000E-04
		-8.72135000E-06	-8.72337000E-06	 3.00041000E-04
		-5.70751000E-06	-5.70713000E-06	 3.15215000E-04
		-1.42960000E-05	-1.42953000E-05	 3.29741000E-04
		 4.08208000E-06	 4.08169000E-06	 3.79002000E-04
		 9.03979000E-08	-1.60152000E-05	 6.23513000E-05
		 9.87640000E-06	-6.03888000E-07	 8.55518000E-05
		 6.46615000E-06	-6.72243000E-06	 1.05007000E-04
		 6.52710000E-06	-6.37704000E-06	 1.25242000E-04
		 6.28575000E-06	-6.30151000E-06	 1.46962000E-04
		 6.64274000E-06	-6.45320000E-06	 1.68574000E-04
		 6.37507000E-06	-6.37099000E-06	 1.90073000E-04
		 6.61701000E-06	-6.64496000E-06	 2.11545000E-04
		 6.35582000E-06	-6.35526000E-06	 2.32528000E-04
		 6.97480000E-06	-6.96458000E-06	 2.53240000E-04
		 5.79650000E-06	-5.79742000E-06	 2.76899000E-04
		 8.72135000E-06	-8.72337000E-06	 3.00041000E-04
		 5.70751000E-06	-5.70713000E-06	 3.15215000E-04
		 1.42960000E-05	-1.42953000E-05	 3.29741000E-04
		-4.08208000E-06	 4.08169000E-06	 3.79002000E-04
		 1.61233000E-20	-3.63108000E-06	 4.28017000E-05
		 0.00000000E+00	 0.00000000E+00	 0.00000000E+00
		 0.00000000E+00	 0.00000000E+00	 0.00000000E+00
		 0.00000000E+00	 0.00000000E+00	 0.00000000E+00
		 7.21330000E-21	 3.63108000E-06	 4.28017000E-05
		 1.50181000E-19	 5.81761000E-06	 3.75797000E-04
		 5.81775000E-06	-8.05585000E-20	 3.75796000E-04
		 0.00000000E+00	 0.00000000E+00	 3.63872000E-04
		-5.81775000E-06	 8.26118000E-20	 3.75796000E-04
		-2.38754000E-20	-5.81761000E-06	 3.75797000E-04
		-2.97066000E-21	 1.28160000E-05	 6.23274000E-05
		 4.80130000E-06	 1.42436000E-06	 8.49642000E-05
		-4.78740000E-21	 1.30299000E-06	 8.49024000E-05
		-4.80130000E-06	 1.42436000E-06	 8.49642000E-05
		-3.74697000E-20	 7.48197000E-06	 1.05236000E-04
		 3.31319000E-06	 5.91106000E-06	 1.25183000E-04
		-5.26537000E-20	 5.66447000E-06	 1.24941000E-04
		-3.31319000E-06	 5.91106000E-06	 1.25183000E-04
		-4.73874000E-20	 6.39712000E-06	 1.46988000E-04
		 3.31269000E-06	 6.37840000E-06	 1.68597000E-04
		-6.25738000E-20	 6.25140000E-06	 1.68581000E-04
		-3.31269000E-06	 6.37840000E-06	 1.68597000E-04
		-6.42403000E-20	 6.48491000E-06	 1.90043000E-04
		 3.30515000E-06	 6.46056000E-06	 2.11356000E-04
		-4.68035000E-20	 6.25489000E-06	 2.11505000E-04
		-3.30515000E-06	 6.46056000E-06	 2.11356000E-04
		-1.63082000E-19	 6.59750000E-06	 2.32562000E-04
		 3.51200000E-06	 6.49114000E-06	 2.54265000E-04
		-7.52821000E-20	 6.11963000E-06	 2.54012000E-04
		-3.51200000E-06	 6.49114000E-06	 2.54265000E-04
		-9.00816000E-20	 6.45984000E-06	 2.76137000E-04
		 4.28709000E-06	 7.20249000E-06	 2.97211000E-04
		 1.06813000E-20	 5.33200000E-06	 2.99174000E-04
		-4.28709000E-06	 7.20249000E-06	 2.97211000E-04
		 4.88739000E-20	 7.87862000E-06	 3.15894000E-04
		 7.34743000E-06	 1.00988000E-05	 3.41069000E-04
		 1.75312000E-19	 6.86402000E-06	 3.35271000E-04
		-7.34743000E-06	 1.00988000E-05	 3.41069000E-04
		 1.38506000E-19	 1.92878000E-06	 3.66764000E-04
		-1.02016000E-05	-1.77249000E-19	 5.45887000E-05
		-5.04355000E-06	 6.66021000E-07	 8.27426000E-05
		-2.34732000E-06	-3.06132000E-19	 8.39675000E-05
		-5.04355000E-06	-6.66021000E-07	 8.27426000E-05
		-7.38117000E-06	-4.91626000E-19	 1.04176000E-04
		-6.12911000E-06	 3.10569000E-06	 1.25936000E-04
		-5.19230000E-06	-5.88117000E-19	 1.25676000E-04
		-6.12911000E-06	-3.10569000E-06	 1.25936000E-04
		-6.59551000E-06	-6.91637000E-19	 1.47046000E-04
		-6.36228000E-06	 3.24233000E-06	 1.68450000E-04
		-6.23654000E-06	-7.53551000E-19	 1.68520000E-04
		-6.36228000E-06	-3.24233000E-06	 1.68450000E-04
		-6.46005000E-06	-8.52246000E-19	 1.90011000E-04
		-6.45771000E-06	 3.31327000E-06	 2.11404000E-04
		-6.22682000E-06	-9.07005000E-19	 2.11539000E-04
		-6.45771000E-06	-3.31327000E-06	 2.11404000E-04
		-6.60838000E-06	-1.09152000E-18	 2.32574000E-04
		-6.49098000E-06	 3.50793000E-06	 2.54252000E-04
		-6.12219000E-06	-1.06696000E-18	 2.54004000E-04
		-6.49098000E-06	-3.50793000E-06	 2.54252000E-04
		-6.45747000E-06	-1.16028000E-18	 2.76133000E-04
		-7.20228000E-06	 4.28795000E-06	 2.97215000E-04
		-5.33027000E-06	-1.06133000E-18	 2.99177000E-04
		-7.20228000E-06	-4.28795000E-06	 2.97215000E-04
		-7.87940000E-06	-1.01164000E-18	 3.15895000E-04
		-1.00989000E-05	 7.34708000E-06	 3.41068000E-04
		-6.86443000E-06	-6.52654000E-19	 3.35270000E-04
		-1.00989000E-05	-7.34708000E-06	 3.41068000E-04
		-1.92840000E-06	-2.72845000E-19	 3.66764000E-04
		-2.95855000E-20	-1.28160000E-05	 6.23274000E-05
		-4.80130000E-06	-1.42436000E-06	 8.49642000E-05
		-5.76043000E-20	-1.30299000E-06	 8.49024000E-05
		 4.80130000E-06	-1.42436000E-06	 8.49642000E-05
		-6.89099000E-20	-7.48197000E-06	 1.05236000E-04
		-3.31319000E-06	-5.91106000E-06	 1.25183000E-04
		-1.11665000E-19	-5.66447000E-06	 1.24941000E-04
		 3.31319000E-06	-5.91106000E-06	 1.25183000E-04
		-1.16319000E-19	-6.39712000E-06	 1.46988000E-04
		-3.31269000E-06	-6.37840000E-06	 1.68597000E-04
		-2.31329000E-19	-6.25140000E-06	 1.68581000E-04
		 3.31269000E-06	-6.37840000E-06	 1.68597000E-04
		-1.93677000E-19	-6.48491000E-06	 1.90043000E-04
		-3.30515000E-06	-6.46056000E-06	 2.11356000E-04
		-2.19160000E-19	-6.25489000E-06	 2.11505000E-04
		 3.30515000E-06	-6.46056000E-06	 2.11356000E-04
		-2.40846000E-19	-6.59750000E-06	 2.32562000E-04
		-3.51200000E-06	-6.49114000E-06	 2.54265000E-04
		-1.99063000E-19	-6.11963000E-06	 2.54012000E-04
		 3.51200000E-06	-6.49114000E-06	 2.54265000E-04
		-1.07507000E-19	-6.45984000E-06	 2.76137000E-04
		-4.28709000E-06	-7.20249000E-06	 2.97211000E-04
		-4.78603000E-20	-5.33200000E-06	 2.99174000E-04
		 4.28709000E-06	-7.20249000E-06	 2.97211000E-04
		 5.77664000E-20	-7.87862000E-06	 3.15894000E-04
		-7.34743000E-06	-1.00988000E-05	 3.41069000E-04
		 1.05473000E-19	-6.86402000E-06	 3.35271000E-04
		 7.34743000E-06	-1.00988000E-05	 3.41069000E-04
		-5.75911000E-20	-1.92878000E-06	 3.66764000E-04
		 1.02016000E-05	-1.98913000E-19	 5.45887000E-05
		 5.04355000E-06	-6.66021000E-07	 8.27426000E-05
		 2.34732000E-06	-3.76684000E-19	 8.39675000E-05
		 5.04355000E-06	 6.66021000E-07	 8.27426000E-05
		 7.38117000E-06	-5.27849000E-19	 1.04176000E-04
		 6.12911000E-06	-3.10569000E-06	 1.25936000E-04
		 5.19230000E-06	-6.56181000E-19	 1.25676000E-04
		 6.12911000E-06	 3.10569000E-06	 1.25936000E-04
		 6.59551000E-06	-7.65722000E-19	 1.47046000E-04
		 6.36228000E-06	-3.24233000E-06	 1.68450000E-04
		 6.23654000E-06	-9.20157000E-19	 1.68520000E-04
		 6.36228000E-06	 3.24233000E-06	 1.68450000E-04
		 6.46005000E-06	-1.02875000E-18	 1.90011000E-04
		 6.45771000E-06	-3.31327000E-06	 2.11404000E-04
		 6.22682000E-06	-1.10329000E-18	 2.11539000E-04
		 6.45771000E-06	 3.31327000E-06	 2.11404000E-04
		 6.60838000E-06	-1.18712000E-18	 2.32574000E-04
		 6.49098000E-06	-3.50793000E-06	 2.54252000E-04
		 6.12219000E-06	-1.16032000E-18	 2.54004000E-04
		 6.49098000E-06	 3.50793000E-06	 2.54252000E-04
		 6.45747000E-06	-1.21394000E-18	 2.76133000E-04
		 7.20228000E-06	-4.28795000E-06	 2.97215000E-04
		 5.33027000E-06	-1.05355000E-18	 2.99177000E-04
		 7.20228000E-06	 4.28795000E-06	 2.97215000E-04
		 7.87940000E-06	-1.02142000E-18	 3.15895000E-04
		 1.00989000E-05	-7.34708000E-06	 3.41068000E-04
		 6.86443000E-06	-7.36038000E-19	 3.35270000E-04
		 1.00989000E-05	 7.34708000E-06	 3.41068000E-04
		 1.92840000E-06	-5.05756000E-19	 3.66764000E-04
		-1.43093000E-20	-1.90522000E-19	 5.43245000E-05
		-1.80221000E-20	 8.00263000E-07	 8.27260000E-05
		 1.27890000E-06	-3.55074000E-19	 8.44912000E-05
		-3.15120000E-20	-3.44104000E-19	 8.44652000E-05
		-1.27890000E-06	-3.19461000E-19	 8.44912000E-05
		-4.33078000E-20	-8.00263000E-07	 8.27260000E-05
		-5.40380000E-20	-5.05270000E-19	 1.03754000E-04
		-6.53452000E-20	 2.84416000E-06	 1.26084000E-04
		 2.54462000E-06	-6.38396000E-19	 1.25797000E-04
		-8.51465000E-20	-6.11801000E-19	 1.26161000E-04
		-2.54462000E-06	-5.93640000E-19	 1.25797000E-04
		-9.99891000E-20	-2.84416000E-06	 1.26084000E-04
		-8.48218000E-20	-7.22705000E-19	 1.46871000E-04
		-9.08219000E-20	 3.10751000E-06	 1.68486000E-04
		 3.12083000E-06	-8.67079000E-19	 1.68652000E-04
		-1.25620000E-19	-8.22799000E-19	 1.68701000E-04
		-3.12083000E-06	-7.90832000E-19	 1.68652000E-04
		-1.79880000E-19	-3.10751000E-06	 1.68486000E-04
		-1.39571000E-19	-9.37055000E-19	 1.89963000E-04
		-1.01132000E-19	 3.15980000E-06	 2.11437000E-04
		 3.13816000E-06	-1.06584000E-18	 2.11394000E-04
		-1.66055000E-19	-1.02476000E-18	 2.11339000E-04
		-3.13816000E-06	-9.62103000E-19	 2.11394000E-04
		-1.95672000E-19	-3.15980000E-06	 2.11437000E-04
		-1.77497000E-19	-1.10706000E-18	 2.32877000E-04
		-1.13857000E-19	 2.97019000E-06	 2.54092000E-04
		 2.97387000E-06	-1.15067000E-18	 2.54104000E-04
		-1.64999000E-19	-1.15304000E-18	 2.53997000E-04
		-2.97387000E-06	-1.10909000E-18	 2.54104000E-04
		-1.87227000E-19	-2.97019000E-06	 2.54092000E-04
		-7.06753000E-20	-1.15481000E-18	 2.75668000E-04
		-1.60678000E-20	 2.94884000E-06	 2.97854000E-04
		 2.94719000E-06	-1.07611000E-18	 2.97851000E-04
		-4.42456000E-20	-1.09934000E-18	 2.97117000E-04
		-2.94719000E-06	-1.06458000E-18	 2.97851000E-04
		-4.71780000E-20	-2.94884000E-06	 2.97854000E-04
		 5.47174000E-20	-9.70092000E-19	 3.18765000E-04
		 1.21973000E-19	 2.70098000E-06	 3.38909000E-04
		 2.70145000E-06	-7.25032000E-19	 3.38910000E-04
		 8.06504000E-20	-7.45568000E-19	 3.41087000E-04
		-2.70145000E-06	-6.93254000E-19	 3.38910000E-04
		 8.70806000E-20	-2.70098000E-06	 3.38909000E-04
		 8.88920000E-20	-3.93205000E-19	 3.54680000E-04
FIELD S 1
	S 10 261 double
		-2.86373000E+00	-1.62353000E+00	-1.25064000E+01	 1.47493000E+00	 4.02961000E+00	-1.23303000E+00	 1.28949073E+01	-1.40754734E+01	-2.99809601E+00	 7.99094071E-02
		-2.86373000E+00	-1.62353000E+00	-1.25064000E+01	-1.47493000E+00	 4.02961000E+00	 1.23303000E+00	 1.28949073E+01	-1.40754734E+01	-2.99809601E+00	 7.99094071E-02
		-2.86373000E+00	-1.62353000E+00	-1.25064000E+01	 1.47493000E+00	-4.02961000E+00	 1.23303000E+00	 1.28949073E+01	-1.40754734E+01	-2.99809601E+00	 7.99094071E-02
		-2.86373000E+00	-1.62353000E+00	-1.25064000E+01	-1.47493000E+00	-4.02961000E+00	-1.23303000E+00	 1.28949073E+01	-1.40754734E+01	-2.99809601E+00	 7.99094071E-02
		-4.26992000E+00	-4.26991000E+00	 3.55277000E+01	-1.34751000E+00	-1.57568000E+01	-1.57569000E+01	 5.54884442E+01	-1.53728524E+01	-2.92240500E+00	 4.52831274E+01
		-4.26992000E+00	-4.26991000E+00	 3.55277000E+01	 1.34751000E+00	-1.57568000E+01	 1.57569000E+01	 5.54884442E+01	-1.53728524E+01	-2.92240500E+00	 4.52831274E+01
		-4.26992000E+00	-4.26991000E+00	 3.55277000E+01	-1.34751000E+00	 1.57568000E+01	 1.57569000E+01	 5.54884442E+01	-1.53728524E+01	-2.92240500E+00	 4.52831274E+01