# vtk DataFile Version 3.0

ASCII
DATASET UNSTRUCTURED_GRID

POINTS 81 double
	 0.00000000E+00	 0.00000000E+00	 0.00000000E+00
	 1.00000000E+00	 0.00000000E+00	 0.00000000E+00
	 1.00000000E+00	 1.00000000E+00	 0.00000000E+00
	 0.00000000E+00	 1.00000000E+00	 0.00000000E+00
	 0.00000000E+00	 0.00000000E+00	 8.00000000E+00
	 1.00000000E+00	 0.00000000E+00	 8.00000000E+00
	 1.00000000E+00	 1.00000000E+00	 8.00000000E+00
	 0.00000000E+00	 1.00000000E+00	 8.00000000E+00
	 5.00000000E-01	 0.00000000E+00	 0.00000000E+00
	 1.00000000E+00	 5.00000000E-01	 0.00000000E+00
	 5.00000000E-01	 1.00000000E+00	 0.00000000E+00
	 0.00000000E+00	 5.00000000E-01	 0.00000000E+00
	 5.00000000E-01	 0.00000000E+00	 8.00000000E+00
	 1.00000000E+00	 5.00000000E-01	 8.00000000E+00
	 5.00000000E-01	 1.00000000E+00	 8.00000000E+00
	 0.00000000E+00	 5.00000000E-01	 8.00000000E+00
	 1.00000000E+00	 0.00000000E+00	 1.00000000E+00
	 1.00000000E+00	 0.00000000E+00	 2.00000000E+00
	 1.00000000E+00	 0.00000000E+00	 3.00000000E+00
	 1.00000000E+00	 0.00000000E+00	 4.00000000E+00
	 1.00000000E+00	 0.00000000E+00	 5.00000000E+00
	 1.00000000E+00	 0.00000000E+00	 6.00000000E+00
	 1.00000000E+00	 0.00000000E+00	 7.00000000E+00
	 0.00000000E+00	 0.00000000E+00	 7.00000000E+00
	 0.00000000E+00	 0.00000000E+00	 6.00000000E+00
	 0.00000000E+00	 0.00000000E+00	 5.00000000E+00
	 0.00000000E+00	 0.00000000E+00	 4.00000000E+00
	 0.00000000E+00	 0.00000000E+00	 3.00000000E+00
	 0.00000000E+00	 0.00000000E+00	 2.00000000E+00
	 0.00000000E+00	 0.00000000E+00	 1.00000000E+00
	 1.00000000E+00	 1.00000000E+00	 1.00000000E+00
	 1.00000000E+00	 1.00000000E+00	 2.00000000E+00
	 1.00000000E+00	 1.00000000E+00	 3.00000000E+00
	 1.00000000E+00	 1.00000000E+00	 4.00000000E+00
	 1.00000000E+00	 1.00000000E+00	 5.00000000E+00
	 1.00000000E+00	 1.00000000E+00	 6.00000000E+00
	 1.00000000E+00	 1.00000000E+00	 7.00000000E+00
	 0.00000000E+00	 1.00000000E+00	 1.00000000E+00
	 0.00000000E+00	 1.00000000E+00	 2.00000000E+00
	 0.00000000E+00	 1.00000000E+00	 3.00000000E+00
	 0.00000000E+00	 1.00000000E+00	 4.00000000E+00
	 0.00000000E+00	 1.00000000E+00	 5.00000000E+00
	 0.00000000E+00	 1.00000000E+00	 6.00000000E+00
	 0.00000000E+00	 1.00000000E+00	 7.00000000E+00
	 5.00000000E-01	 5.00000000E-01	 0.00000000E+00
	 5.00000000E-01	 5.00000000E-01	 8.00000000E+00
	 5.00000000E-01	 0.00000000E+00	 1.00000000E+00
	 5.00000000E-01	 0.00000000E+00	 2.00000000E+00
	 5.00000000E-01	 0.00000000E+00	 3.00000000E+00
	 5.00000000E-01	 0.00000000E+00	 4.00000000E+00
	 5.00000000E-01	 0.00000000E+00	 5.00000000E+00
	 5.00000000E-01	 0.00000000E+00	 6.00000000E+00
	 5.00000000E-01	 0.00000000E+00	 7.00000000E+00
	 1.00000000E+00	 5.00000000E-01	 1.00000000E+00
	 1.00000000E+00	 5.00000000E-01	 2.00000000E+00
	 1.00000000E+00	 5.00000000E-01	 3.00000000E+00
	 1.00000000E+00	 5.00000000E-01	 4.00000000E+00
	 1.00000000E+00	 5.00000000E-01	 5.00000000E+00
	 1.00000000E+00	 5.00000000E-01	 6.00000000E+00
	 1.00000000E+00	 5.00000000E-01	 7.00000000E+00
	 5.00000000E-01	 1.00000000E+00	 1.00000000E+00
	 5.00000000E-01	 1.00000000E+00	 2.00000000E+00
	 5.00000000E-01	 1.00000000E+00	 3.00000000E+00
	 5.00000000E-01	 1.00000000E+00	 4.00000000E+00
	 5.00000000E-01	 1.00000000E+00	 5.00000000E+00
	 5.00000000E-01	 1.00000000E+00	 6.00000000E+00
	 5.00000000E-01	 1.00000000E+00	 7.00000000E+00
	 0.00000000E+00	 5.00000000E-01	 1.00000000E+00
	 0.00000000E+00	 5.00000000E-01	 2.00000000E+00
	 0.00000000E+00	 5.00000000E-01	 3.00000000E+00
	 0.00000000E+00	 5.00000000E-01	 4.00000000E+00
	 0.00000000E+00	 5.00000000E-01	 5.00000000E+00
	 0.00000000E+00	 5.00000000E-01	 6.00000000E+00
	 0.00000000E+00	 5.00000000E-01	 7.00000000E+00
	 5.00000000E-01	 5.00000000E-01	 1.00000000E+00
	 5.00000000E-01	 5.00000000E-01	 2.00000000E+00
	 5.00000000E-01	 5.00000000E-01	 3.00000000E+00
	 5.00000000E-01	 5.00000000E-01	 4.00000000E+00
	 5.00000000E-01	 5.00000000E-01	 5.00000000E+00
	 5.00000000E-01	 5.00000000E-01	 6.00000000E+00
	 5.00000000E-01	 5.00000000E-01	 7.00000000E+00

CELLS 32 288
	8 0 8 44 11 29 46 74 67 
	8 8 1 9 44 46 16 53 74 
	8 11 44 10 3 67 74 60 37 
	8 44 9 2 10 74 53 30 60 
	8 29 46 74 67 28 47 75 68 
	8 46 16 53 74 47 17 54 75 
	8 67 74 60 37 68 75 61 38 
	8 74 53 30 60 75 54 31 61 
	8 28 47 75 68 27 48 76 69 
	8 47 17 54 75 48 18 55 76 
	8 68 75 61 38 69 76 62 39 
	8 75 54 31 61 76 55 32 62 
	8 27 48 76 69 26 49 77 70 
	8 48 18 55 76 49 19 56 77 
	8 69 76 62 39 70 77 63 40 
	8 76 55 32 62 77 56 33 63 
	8 26 49 77 70 25 50 78 71 
	8 49 19 56 77 50 20 57 78 
	8 70 77 63 40 71 78 64 41 
	8 77 56 33 63 78 57 34 64 
	8 25 50 78 71 24 51 79 72 
	8 50 20 57 78 51 21 58 79 
	8 71 78 64 41 72 79 65 42 
	8 78 57 34 64 79 58 35 65 
	8 24 51 79 72 23 52 80 73 
	8 51 21 58 79 52 22 59 80 
	8 72 79 65 42 73 80 66 43 
	8 79 58 35 65 80 59 36 66 
	8 23 52 80 73 4 12 45 15 
	8 52 22 59 80 12 5 13 45 
	8 73 80 66 43 15 45 14 7 
	8 80 59 36 66 45 13 6 14 

CELL_TYPES 32
	12
	12
	12
	12
	12
	12
	12
	12
	12
	12
	12
	12
	12
	12
	12
	12
	12
	12
	12
	12
	12
	12
	12
	12
	12
	12
	12
	12
	12
	12
	12
	12

POINT_DATA 81
FIELD U 1
	U 3 81 double
		 0.00000000E+00	 0.00000000E+00	 0.00000000E+00
		 0.00000000E+00	 0.00000000E+00	 0.00000000E+00
		 0.00000000E+00	 0.00000000E+00	 0.00000000E+00
		 0.00000000E+00	 0.00000000E+00	 0.00000000E+00
		 8.56935000E+03	-8.56935000E+03	-6.63931000E-11
		 8.56935000E+03	 8.56935000E+03	-1.13232000E-09
		-8.56935000E+03	 8.56935000E+03	 6.36646000E-11
		-8.56935000E+03	-8.56935000E+03	 1.12914000E-09
		 0.00000000E+00	 0.00000000E+00	 0.00000000E+00
		 0.00000000E+00	 0.00000000E+00	 0.00000000E+00
		 0.00000000E+00	 0.00000000E+00	 0.00000000E+00
		 0.00000000E+00	 0.00000000E+00	 0.00000000E+00
		 8.97525000E+03	 4.89308000E-10	-6.20730000E-10
		-3.18551000E-10	 8.97525000E+03	-5.59339000E-10
		-8.97525000E+03	 1.16336000E-09	 6.24823000E-10
		-9.83619000E-10	-8.97525000E+03	 5.58884000E-10
		-4.05066000E+03	-4.05066000E+03	 3.86535000E-10
		-6.48935000E+03	-6.48935000E+03	 7.62157000E-10
		-6.85289000E+03	-6.85289000E+03	 8.92697000E-10
		-5.07300000E+03	-5.07300000E+03	 6.45514000E-10
		-1.63286000E+03	-1.63286000E+03	 9.18590000E-11
		 2.14990000E+03	 2.14990000E+03	-4.85670000E-10
		 5.70068000E+03	 5.70068000E+03	-8.44011000E-10
		 5.70068000E+03	-5.70068000E+03	-2.79670000E-11
		 2.14990000E+03	-2.14990000E+03	-5.91172000E-12
		-1.63286000E+03	 1.63286000E+03	 5.00222000E-12
		-5.07300000E+03	 5.07300000E+03	 8.64020000E-12
		-6.85289000E+03	 6.85289000E+03	-9.09495000E-13
		-6.48935000E+03	 6.48935000E+03	-1.11413000E-11
		-4.05066000E+03	 4.05066000E+03	-1.04592000E-11
		 4.05066000E+03	-4.05066000E+03	 4.54747000E-12
		 6.48935000E+03	-6.48935000E+03	 1.81899000E-12
		 6.85289000E+03	-6.85289000E+03	-7.27596000E-12
		 5.07300000E+03	-5.07300000E+03	-1.27329000E-11
		 1.63286000E+03	-1.63286000E+03	-8.18545000E-12
		-2.14990000E+03	 2.14990000E+03	 8.07177000E-12
		-5.70068000E+03	 5.70068000E+03	 3.04681000E-11
		 4.05066000E+03	 4.05066000E+03	-3.91992000E-10
		 6.48935000E+03	 6.48935000E+03	-7.68523000E-10
		 6.85289000E+03	 6.85289000E+03	-9.04406000E-10
		 5.07300000E+03	 5.07300000E+03	-6.52790000E-10
		 1.63286000E+03	 1.63286000E+03	-9.41327000E-11
		-2.14990000E+03	-2.14990000E+03	 4.85358000E-10
		-5.70068000E+03	-5.70068000E+03	 8.44693000E-10
		 0.00000000E+00	 0.00000000E+00	 0.00000000E+00
		 5.81849000E-10	-5.61158000E-10	 2.72848000E-12
		-4.02432000E+03	 3.28782000E-10	 1.93268000E-10
		-6.48953000E+03	 6.31871000E-10	 3.74712000E-10
		-6.85927000E+03	 6.77574000E-10	 4.47926000E-10
		-5.05494000E+03	 4.17913000E-10	 3.24235000E-10
		-1.70320000E+03	-3.04681000E-11	 5.29781000E-11
		 2.43036000E+03	-4.54293000E-10	-2.69210000E-10
		 4.69987000E+03	-7.88532000E-10	-3.75167000E-10
		-3.34381000E-10	-4.02432000E+03	 2.00998000E-10
		-6.37783000E-10	-6.48953000E+03	 3.85171000E-10
		-6.90306000E-10	-6.85927000E+03	 4.44516000E-10
		-4.47926000E-10	-5.05494000E+03	 3.13889000E-10
		-8.64020000E-12	-1.70320000E+03	 4.50200000E-11
		 4.33147000E-10	 2.43036000E+03	-2.60457000E-10
		 7.78527000E-10	 4.69987000E+03	-3.47427000E-10
		 4.02432000E+03	 2.66766000E-10	-1.98270000E-10
		 6.48953000E+03	 4.39286000E-10	-3.83807000E-10
		 6.85927000E+03	 3.92447000E-10	-4.56907000E-10
		 5.05494000E+03	 1.44443000E-10	-3.32193000E-10
		 1.70320000E+03	-1.43245000E-10	-5.41149000E-11
		-2.43036000E+03	-2.84700000E-10	 2.65231000E-10
		-4.69987000E+03	-3.66640000E-10	 3.79259000E-10
		-2.73076000E-10	 4.02432000E+03	-2.04409000E-10
		-4.50200000E-10	 6.48953000E+03	-3.90173000E-10
		-4.00178000E-10	 6.85927000E+03	-4.53156000E-10
		-1.74623000E-10	 5.05494000E+03	-3.20824000E-10
		 1.01863000E-10	 1.70320000E+03	-4.80895000E-11
		 2.60570000E-10	-2.43036000E+03	 2.57273000E-10
		 3.56977000E-10	-4.69987000E+03	 3.52998000E-10
		-2.61252000E-10	 2.56932000E-10	-9.09495000E-13
		-5.25233000E-10	 5.15229000E-10	-1.81899000E-12
		-5.31600000E-10	 5.16053000E-10	-4.43379000E-12
		-3.06500000E-10	 2.74667000E-10	-3.18323000E-12
		 4.68390000E-11	-8.95852000E-11	-3.55271000E-12
		 3.68345000E-10	-3.91765000E-10	-4.54747000E-13
		 4.46107000E-10	-4.37467000E-10	 9.09495000E-13
FIELD SENFREQ 1
	SENFREQ 2 81 double
		 0.00000000E+00	 0.00000000E+00
		 0.00000000E+00	 0.00000000E+00
		 0.00000000E+00	 0.00000000E+00
		 0.00000000E+00	 0.00000000E+00
		-2.70927000E+12	-2.62382000E-01
		-2.70927000E+12	-2.62382000E-01
		-2.70927000E+12	-2.62382000E-01
		-2.70927000E+12	-2.62382000E-01
		 0.00000000E+00	 0.00000000E+00
		 0.00000000E+00	 0.00000000E+00
		 0.00000000E+00	 0.00000000E+00
		 0.00000000E+00	 0.00000000E+00
		 1.14530000E+12	 1.10918000E-01
		 1.14530000E+12	 1.10918000E-01
		 1.14530000E+12	 1.10918000E-01
		 1.14530000E+12	 1.10918000E-01
		 1.87218000E+12	 1.81313000E-01
		-1.76551000E+12	-1.70982000E-01
		-2.19004000E+12	-2.12097000E-01
		-1.18724000E+11	-1.14980000E-02
		 2.19645000E+12	 2.12717000E-01
		 1.81190000E+12	 1.75475000E-01
		-2.31057000E+12	-2.23769000E-01
		-2.31057000E+12	-2.23769000E-01
		 1.81190000E+12	 1.75475000E-01
		 2.19645000E+12	 2.12717000E-01
		-1.18724000E+11	-1.14980000E-02
		-2.19004000E+12	-2.12097000E-01
		-1.76551000E+12	-1.70982000E-01
		 1.87218000E+12	 1.81313000E-01
		 1.87218000E+12	 1.81313000E-01
		-1.76551000E+12	-1.70982000E-01
		-2.19004000E+12	-2.12097000E-01
		-1.18724000E+11	-1.14980000E-02
		 2.19645000E+12	 2.12717000E-01
		 1.81190000E+12	 1.75475000E-01
		-2.31057000E+12	-2.23769000E-01
		 1.87218000E+12	 1.81313000E-01
		-1.76551000E+12	-1.70982000E-01
		-2.19004000E+12	-2.12097000E-01
		-1.18724000E+11	-1.14980000E-02
		 2.19645000E+12	 2.12717000E-01
		 1.81190000E+12	 1.75475000E-01
		-2.31057000E+12	-2.23769000E-01
		 0.00000000E+00	 0.00000000E+00
		 1.03257000E+13	 1.00000000E+00
		 2.33695000E+12	 2.26324000E-01
		-1.93565000E+12	-1.87460000E-01
		-2.44589000E+12	-2.36874000E-01
		-4.85103000E+10	-4.69803000E-03
		 2.44295000E+12	 2.36590000E-01
		 2.32471000E+12	 2.25139000E-01
		-2.87219000E+12	-2.78160000E-01
		 2.33695000E+12	 2.26324000E-01
		-1.93565000E+12	-1.87460000E-01
		-2.44589000E+12	-2.36874000E-01
		-4.85103000E+10	-4.69803000E-03
		 2.44295000E+12	 2.36590000E-01
		 2.32471000E+12	 2.25139000E-01
		-2.87219000E+12	-2.78160000E-01
		 2.33695000E+12	 2.26324000E-01
		-1.93565000E+12	-1.87460000E-01
		-2.44589000E+12	-2.36874000E-01
		-4.85104000E+10	-4.69803000E-03
		 2.44295000E+12	 2.36590000E-01
		 2.32471000E+12	 2.25139000E-01
		-2.87219000E+12	-2.78160000E-01
		 2.33695000E+12	 2.26324000E-01
		-1.93565000E+12	-1.87460000E-01
		-2.44589000E+12	-2.36874000E-01
		-4.85103000E+10	-4.69803000E-03
		 2.44295000E+12	 2.36590000E-01
		 2.32471000E+12	 2.25139000E-01
		-2.87219000E+12	-2.78160000E-01
		 0.00000000E+00	 0.00000000E+00
		 0.00000000E+00	 0.00000000E+00
		 0.00000000E+00	 0.00000000E+00
		 0.00000000E+00	 0.00000000E+00
		 0.00000000E+00	 0.00000000E+00
		 0.00000000E+00	 0.00000000E+00
		 0.00000000E+00	 0.00000000E+00
