<?xml version="1.0"?>
<VTKFile type="UnstructuredGrid" version="0.1" byte_order="LittleEndian">
	<UnstructuredGrid>
		<Piece NumberOfPoints="68" NumberOfCells="5">
			<Points>
				<DataArray type="Float64" NumberOfComponents="3" format="ascii">
					-2.50000000E+01	 2.50000000E+01	 0.00000000E+00
					-2.50000000E+01	-2.50000000E+01	 0.00000000E+00
					 2.50000000E+01	-2.50000000E+01	 0.00000000E+00
					 2.50000000E+01	 2.50000000E+01	 0.00000000E+00
					-2.50000000E+01	 0.00000000E+00	 0.00000000E+00
					 0.00000000E+00	-2.50000000E+01	 0.00000000E+00
					 2.50000000E+01	 0.00000000E+00	 0.00000000E+00
					 0.00000000E+00	 2.50000000E+01	 0.00000000E+00
					-2.50000000E+01	 2.50000000E+01	 1.00000000E+02
					-2.50000000E+01	-2.50000000E+01	 1.00000000E+02
					 2.50000000E+01	-2.50000000E+01	 1.00000000E+02
					 2.50000000E+01	 2.50000000E+01	 1.00000000E+02
					-2.50000000E+01	 2.50000000E+01	 2.00000000E+02
					-2.50000000E+01	-2.50000000E+01	 2.00000000E+02
					 2.50000000E+01	-2.50000000E+01	 2.00000000E+02
					 2.50000000E+01	 2.50000000E+01	 2.00000000E+02
					-2.50000000E+01	 0.00000000E+00	 2.00000000E+02
					 0.00000000E+00	-2.50000000E+01	 2.00000000E+02
					 2.50000000E+01	 0.00000000E+00	 2.00000000E+02
					 0.00000000E+00	 2.50000000E+01	 2.00000000E+02
					-2.50000000E+01	 2.50000000E+01	 3.00000000E+02
					-2.50000000E+01	-2.50000000E+01	 3.00000000E+02
					 2.50000000E+01	-2.50000000E+01	 3.00000000E+02
					 2.50000000E+01	 2.50000000E+01	 3.00000000E+02
					-2.50000000E+01	 2.50000000E+01	 4.00000000E+02
					-2.50000000E+01	-2.50000000E+01	 4.00000000E+02
					 2.50000000E+01	-2.50000000E+01	 4.00000000E+02
					 2.50000000E+01	 2.50000000E+01	 4.00000000E+02
					-2.50000000E+01	 0.00000000E+00	 4.00000000E+02
					 0.00000000E+00	-2.50000000E+01	 4.00000000E+02
					 2.50000000E+01	 0.00000000E+00	 4.00000000E+02
					 0.00000000E+00	 2.50000000E+01	 4.00000000E+02
					-2.50000000E+01	 2.50000000E+01	 5.00000000E+02
					-2.50000000E+01	-2.50000000E+01	 5.00000000E+02
					 2.50000000E+01	-2.50000000E+01	 5.00000000E+02
					 2.50000000E+01	 2.50000000E+01	 5.00000000E+02
					-2.50000000E+01	 2.50000000E+01	 6.00000000E+02
					-2.50000000E+01	-2.50000000E+01	 6.00000000E+02
					 2.50000000E+01	-2.50000000E+01	 6.00000000E+02
					 2.50000000E+01	 2.50000000E+01	 6.00000000E+02
					-2.50000000E+01	 0.00000000E+00	 6.00000000E+02
					 0.00000000E+00	-2.50000000E+01	 6.00000000E+02
					 2.50000000E+01	 0.00000000E+00	 6.00000000E+02
					 0.00000000E+00	 2.50000000E+01	 6.00000000E+02
					-2.50000000E+01	 2.50000000E+01	 7.00000000E+02
					-2.50000000E+01	-2.50000000E+01	 7.00000000E+02
					 2.50000000E+01	-2.50000000E+01	 7.00000000E+02
					 2.50000000E+01	 2.50000000E+01	 7.00000000E+02
					-2.50000000E+01	 2.50000000E+01	 8.00000000E+02
					-2.50000000E+01	-2.50000000E+01	 8.00000000E+02
					 2.50000000E+01	-2.50000000E+01	 8.00000000E+02
					 2.50000000E+01	 2.50000000E+01	 8.00000000E+02
					-2.50000000E+01	 0.00000000E+00	 8.00000000E+02
					 0.00000000E+00	-2.50000000E+01	 8.00000000E+02
					 2.50000000E+01	 0.00000000E+00	 8.00000000E+02
					 0.00000000E+00	 2.50000000E+01	 8.00000000E+02
					-2.50000000E+01	 2.50000000E+01	 9.00000000E+02
					-2.50000000E+01	-2.50000000E+01	 9.00000000E+02
					 2.50000000E+01	-2.50000000E+01	 9.00000000E+02
					 2.50000000E+01	 2.50000000E+01	 9.00000000E+02
					-2.50000000E+01	 2.50000000E+01	 1.00000000E+03
					-2.50000000E+01	-2.50000000E+01	 1.00000000E+03
					 2.50000000E+01	-2.50000000E+01	 1.00000000E+03
					 2.50000000E+01	 2.50000000E+01	 1.00000000E+03
					-2.50000000E+01	 0.00000000E+00	 1.00000000E+03
					 0.00000000E+00	-2.50000000E+01	 1.00000000E+03
					 2.50000000E+01	 0.00000000E+00	 1.00000000E+03
					 0.00000000E+00	 2.50000000E+01	 1.00000000E+03
				</DataArray>
			</Points>
			<Cells>
				<DataArray type="Int32" Name="connectivity" format="ascii">
					0 12 13 1 3 15 14 2 8 16 9 4 11 18 10 6 7 19 17 5 12 24 25 13 15 27 26 14 20 28 21 16 23 30 22 18 19 31 29 17 24 36 37 25 27 39 38 26 32 40 33 28 35 42 34 30 31 43 41 29 36 48 49 37 39 51 50 38 44 52 45 40 47 54 46 42 43 55 53 41 48 60 61 49 51 63 62 50 56 64 57 52 59 66 58 54 55 67 65 53 
				</DataArray>
				<DataArray type="Int32" Name="offsets" format="ascii">
					20 40 60 80 100 
				</DataArray>
				<DataArray type="UInt8" Name="types" format="ascii">
					25 25 25 25 25 
				</DataArray>
			</Cells>
			<PointData>
				<DataArray type="Float32" Name="U" NumberOfComponents="3" ComponentName0="D1" ComponentName1="D2" ComponentName2="D3" format="ascii">
					-2.46719000E-13	 2.32078000E-13	 3.67484000E-14
					 1.26121000E-13	-1.89529000E-13	-3.67484000E-14
					-8.35720000E-14	 1.77525000E-13	 3.67484000E-14
					 2.04170000E-13	-2.20074000E-13	-3.67484000E-14
					-6.02990000E-14	 2.12746000E-14	 0.00000000E+00
					 2.12746000E-14	-6.00214000E-15	 0.00000000E+00
					 6.02990000E-14	-2.12746000E-14	 0.00000000E+00
					-2.12746000E-14	 6.00214000E-15	 0.00000000E+00
					 3.06323000E+00	 3.06323000E+00	-3.03579000E-12
					-3.06323000E+00	 3.06323000E+00	 3.10862000E-15
					-3.06323000E+00	-3.06323000E+00	 2.48512000E-12
					 3.06323000E+00	-3.06323000E+00	-4.97380000E-13
					 6.05118000E+00	 6.05118000E+00	-2.91145000E-12
					-6.05118000E+00	 6.05118000E+00	-2.75335000E-13
					-6.05118000E+00	-6.05118000E+00	 1.86429000E-12
					 6.05118000E+00	-6.05118000E+00	-7.86926000E-13
					-9.40359000E-12	 6.05118000E+00	-1.54010000E-12
					-6.05118000E+00	 1.12248000E-11	 7.63833000E-13
					-9.27258000E-12	-6.05118000E+00	 5.24025000E-13
					 6.05118000E+00	 1.12435000E-11	-1.82609000E-12
					 8.88984000E+00	 8.88984000E+00	-1.81188000E-13
					-8.88984000E+00	 8.88984000E+00	-4.84945000E-13
					-8.88984000E+00	-8.88984000E+00	-1.23102000E-12
					 8.88984000E+00	-8.88984000E+00	-7.42517000E-13
					 1.15100000E+01	 1.15100000E+01	 3.76055000E-12
					-1.15100000E+01	 1.15100000E+01	-1.03562000E-12
					-1.15100000E+01	-1.15100000E+01	-5.42855000E-12
					 1.15100000E+01	-1.15100000E+01	-5.40012000E-13
					-6.58762000E-12	 1.15100000E+01	 1.35181000E-12
					-1.15100000E+01	 8.87646000E-12	-3.22231000E-12
					-6.41798000E-12	-1.15100000E+01	-2.98606000E-12
					 1.15100000E+01	 8.94573000E-12	 1.59162000E-12
					 1.38462000E+01	 1.38462000E+01	 5.90550000E-12
					-1.38462000E+01	 1.38462000E+01	-1.43885000E-12
					-1.38462000E+01	-1.38462000E+01	-7.53353000E-12
					 1.38462000E+01	-1.38462000E+01	-2.52243000E-13
					 1.58422000E+01	 1.58422000E+01	 4.35740000E-12
					-1.58422000E+01	 1.58422000E+01	-1.26743000E-12
					-1.58422000E+01	-1.58422000E+01	-5.93747000E-12
					 1.58422000E+01	-1.58422000E+01	-3.37508000E-13
					 1.73657000E-11	 1.58422000E+01	 1.55698000E-12
					-1.58422000E+01	-1.92237000E-11	-3.59268000E-12
					 1.72626000E-11	-1.58422000E+01	-3.20366000E-12
					 1.58422000E+01	-1.89697000E-11	 2.01261000E-12
					 1.74473000E+01	 1.74473000E+01	 3.86580000E-13
					-1.74473000E+01	 1.74473000E+01	-3.78364000E-13
					-1.74473000E+01	-1.74473000E+01	-1.61959000E-12
					 1.74473000E+01	-1.74473000E+01	-9.51461000E-13
					 1.86236000E+01	 1.86236000E+01	-4.14957000E-12
					-1.86236000E+01	 1.86236000E+01	-1.35003000E-13
					-1.86236000E+01	-1.86236000E+01	 3.02336000E-12
					 1.86236000E+01	-1.86236000E+01	-9.67226000E-13
					 2.19513000E-11	 1.86236000E+01	-2.18758000E-12
					-1.86236000E+01	-2.22258000E-11	 1.42908000E-12
					 2.16307000E-11	-1.86236000E+01	 1.01075000E-12
					 1.86236000E+01	-2.18603000E-11	-2.56239000E-12
					 1.93405000E+01	 1.93405000E+01	-8.22986000E-12
					-1.93405000E+01	 1.93405000E+01	-9.85878000E-13
					-1.93405000E+01	-1.93405000E+01	 6.83364000E-12
					 1.93405000E+01	-1.93405000E+01	-6.57252000E-13
					 1.95820000E+01	 1.95820000E+01	-9.67404000E-12
					-1.95820000E+01	 1.95820000E+01	-4.74287000E-13
					-1.95820000E+01	-1.95820000E+01	 7.98117000E-12
					 1.95820000E+01	-1.95820000E+01	 1.42109000E-13
					-7.38609000E-12	 1.95820000E+01	-5.03775000E-12
					-1.95820000E+01	 6.25566000E-12	 3.72147000E-12
					-7.65077000E-12	-1.95820000E+01	 3.98614000E-12
					 1.95820000E+01	 6.75104000E-12	-4.87077000E-12
				</DataArray>
			</PointData>
		</Piece>
	</UnstructuredGrid>
</VTKFile>