# vtk DataFile Version 3.0

ASCII
DATASET UNSTRUCTURED_GRID

POINTS 68 double
	-2.50000000E+01	 2.50000000E+01	 0.00000000E+00
	-2.50000000E+01	-2.50000000E+01	 0.00000000E+00
	 2.50000000E+01	-2.50000000E+01	 0.00000000E+00
	 2.50000000E+01	 2.50000000E+01	 0.00000000E+00
	-2.50000000E+01	 0.00000000E+00	 0.00000000E+00
	 0.00000000E+00	-2.50000000E+01	 0.00000000E+00
	 2.50000000E+01	 0.00000000E+00	 0.00000000E+00
	 0.00000000E+00	 2.50000000E+01	 0.00000000E+00
	-2.50000000E+01	 2.50000000E+01	 1.00000000E+02
	-2.50000000E+01	-2.50000000E+01	 1.00000000E+02
	 2.50000000E+01	-2.50000000E+01	 1.00000000E+02
	 2.50000000E+01	 2.50000000E+01	 1.00000000E+02
	-2.50000000E+01	 2.50000000E+01	 2.00000000E+02
	-2.50000000E+01	-2.50000000E+01	 2.00000000E+02
	 2.50000000E+01	-2.50000000E+01	 2.00000000E+02
	 2.50000000E+01	 2.50000000E+01	 2.00000000E+02
	-2.50000000E+01	 0.00000000E+00	 2.00000000E+02
	 0.00000000E+00	-2.50000000E+01	 2.00000000E+02
	 2.50000000E+01	 0.00000000E+00	 2.00000000E+02
	 0.00000000E+00	 2.50000000E+01	 2.00000000E+02
	-2.50000000E+01	 2.50000000E+01	 3.00000000E+02
	-2.50000000E+01	-2.50000000E+01	 3.00000000E+02
	 2.50000000E+01	-2.50000000E+01	 3.00000000E+02
	 2.50000000E+01	 2.50000000E+01	 3.00000000E+02
	-2.50000000E+01	 2.50000000E+01	 4.00000000E+02
	-2.50000000E+01	-2.50000000E+01	 4.00000000E+02
	 2.50000000E+01	-2.50000000E+01	 4.00000000E+02
	 2.50000000E+01	 2.50000000E+01	 4.00000000E+02
	-2.50000000E+01	 0.00000000E+00	 4.00000000E+02
	 0.00000000E+00	-2.50000000E+01	 4.00000000E+02
	 2.50000000E+01	 0.00000000E+00	 4.00000000E+02
	 0.00000000E+00	 2.50000000E+01	 4.00000000E+02
	-2.50000000E+01	 2.50000000E+01	 5.00000000E+02
	-2.50000000E+01	-2.50000000E+01	 5.00000000E+02
	 2.50000000E+01	-2.50000000E+01	 5.00000000E+02
	 2.50000000E+01	 2.50000000E+01	 5.00000000E+02
	-2.50000000E+01	 2.50000000E+01	 6.00000000E+02
	-2.50000000E+01	-2.50000000E+01	 6.00000000E+02
	 2.50000000E+01	-2.50000000E+01	 6.00000000E+02
	 2.50000000E+01	 2.50000000E+01	 6.00000000E+02
	-2.50000000E+01	 0.00000000E+00	 6.00000000E+02
	 0.00000000E+00	-2.50000000E+01	 6.00000000E+02
	 2.50000000E+01	 0.00000000E+00	 6.00000000E+02
	 0.00000000E+00	 2.50000000E+01	 6.00000000E+02
	-2.50000000E+01	 2.50000000E+01	 7.00000000E+02
	-2.50000000E+01	-2.50000000E+01	 7.00000000E+02
	 2.50000000E+01	-2.50000000E+01	 7.00000000E+02
	 2.50000000E+01	 2.50000000E+01	 7.00000000E+02
	-2.50000000E+01	 2.50000000E+01	 8.00000000E+02
	-2.50000000E+01	-2.50000000E+01	 8.00000000E+02
	 2.50000000E+01	-2.50000000E+01	 8.00000000E+02
	 2.50000000E+01	 2.50000000E+01	 8.00000000E+02
	-2.50000000E+01	 0.00000000E+00	 8.00000000E+02
	 0.00000000E+00	-2.50000000E+01	 8.00000000E+02
	 2.50000000E+01	 0.00000000E+00	 8.00000000E+02
	 0.00000000E+00	 2.50000000E+01	 8.00000000E+02
	-2.50000000E+01	 2.50000000E+01	 9.00000000E+02
	-2.50000000E+01	-2.50000000E+01	 9.00000000E+02
	 2.50000000E+01	-2.50000000E+01	 9.00000000E+02
	 2.50000000E+01	 2.50000000E+01	 9.00000000E+02
	-2.50000000E+01	 2.50000000E+01	 1.00000000E+03
	-2.50000000E+01	-2.50000000E+01	 1.00000000E+03
	 2.50000000E+01	-2.50000000E+01	 1.00000000E+03
	 2.50000000E+01	 2.50000000E+01	 1.00000000E+03
	-2.50000000E+01	 0.00000000E+00	 1.00000000E+03
	 0.00000000E+00	-2.50000000E+01	 1.00000000E+03
	 2.50000000E+01	 0.00000000E+00	 1.00000000E+03
	 0.00000000E+00	 2.50000000E+01	 1.00000000E+03

CELLS 5 105
	20 0 12 13 1 3 15 14 2 8 16 9 4 11 18 10 6 7 19 17 5 
	20 12 24 25 13 15 27 26 14 20 28 21 16 23 30 22 18 19 31 29 17 
	20 24 36 37 25 27 39 38 26 32 40 33 28 35 42 34 30 31 43 41 29 
	20 36 48 49 37 39 51 50 38 44 52 45 40 47 54 46 42 43 55 53 41 
	20 48 60 61 49 51 63 62 50 56 64 57 52 59 66 58 54 55 67 65 53 

CELL_TYPES 5
	25
	25
	25
	25
	25

POINT_DATA 68
FIELD U 1
	U 3 68 double
		 2.69855000E-03	 1.91485000E-02	-5.67539000E-14
		-2.69855000E-03	-1.91485000E-02	 5.67539000E-14
		 2.69855000E-03	 1.91485000E-02	-5.67539000E-14
		-2.69855000E-03	-1.91485000E-02	 5.67539000E-14
		-1.94705000E-14	-4.66727000E-14	 0.00000000E+00
		-4.66727000E-14	-1.28023000E-14	 0.00000000E+00
		 1.94705000E-14	 4.66727000E-14	 0.00000000E+00
		 4.66727000E-14	 1.28023000E-14	 0.00000000E+00
		-4.67000000E-01	-4.89995000E-02	-1.93588000E-01
		-4.71835000E-01	-8.33080000E-02	-2.57103000E-01
		-4.67000000E-01	-4.89995000E-02	 1.93588000E-01
		-4.71835000E-01	-8.33080000E-02	 2.57103000E-01
		-1.80997000E+00	-2.40727000E-01	-3.75137000E-01
		-1.81409000E+00	-2.70001000E-01	-4.98216000E-01
		-1.80997000E+00	-2.40727000E-01	 3.75137000E-01
		-1.81409000E+00	-2.70001000E-01	 4.98216000E-01
		-1.82197000E+00	-2.53957000E-01	-4.36574000E-01
		-1.80204000E+00	-2.56765000E-01	-6.15251000E-02
		-1.82197000E+00	-2.53957000E-01	 4.36574000E-01
		-1.80204000E+00	-2.56765000E-01	 6.15251000E-02
		-3.95079000E+00	-5.44988000E-01	-5.32518000E-01
		-3.95418000E+00	-5.69037000E-01	-7.07233000E-01
		-3.95079000E+00	-5.44988000E-01	 5.32518000E-01
		-3.95418000E+00	-5.69037000E-01	 7.07233000E-01
		-6.74101000E+00	-9.41004000E-01	-6.54328000E-01
		-6.74360000E+00	-9.59346000E-01	-8.69008000E-01
		-6.74101000E+00	-9.41004000E-01	 6.54328000E-01
		-6.74360000E+00	-9.59346000E-01	 8.69008000E-01
		-6.74624000E+00	-9.49624000E-01	-7.61417000E-01
		-6.73840000E+00	-9.50729000E-01	-1.07304000E-01
		-6.74624000E+00	-9.49624000E-01	 7.61417000E-01
		-6.73840000E+00	-9.50729000E-01	 1.07304000E-01
		-1.00213000E+01	-1.40553000E+00	-7.45103000E-01
		-1.00232000E+01	-1.41929000E+00	-9.89566000E-01
		-1.00213000E+01	-1.40553000E+00	 7.45103000E-01
		-1.00232000E+01	-1.41929000E+00	 9.89566000E-01
		-1.36642000E+01	-1.92115000E+00	-8.10575000E-01
		-1.36655000E+01	-1.93035000E+00	-1.07652000E+00
		-1.36642000E+01	-1.92115000E+00	 8.10575000E-01
		-1.36655000E+01	-1.93035000E+00	 1.07652000E+00
		-1.36673000E+01	-1.92540000E+00	-9.43424000E-01
		-1.36624000E+01	-1.92610000E+00	-1.32954000E-01
		-1.36673000E+01	-1.92540000E+00	 9.43424000E-01
		-1.36624000E+01	-1.92610000E+00	 1.32954000E-01
		-1.75544000E+01	-2.47115000E+00	-8.52992000E-01
		-1.75552000E+01	-2.47674000E+00	-1.13285000E+00
		-1.75544000E+01	-2.47115000E+00	 8.52992000E-01
		-1.75552000E+01	-2.47674000E+00	 1.13285000E+00
		-2.15943000E+01	-3.04200000E+00	-8.75815000E-01
		-2.15947000E+01	-3.04451000E+00	-1.16316000E+00
		-2.15943000E+01	-3.04200000E+00	 8.75815000E-01
		-2.15947000E+01	-3.04451000E+00	 1.16316000E+00
		-2.15950000E+01	-3.04318000E+00	-1.01939000E+00
		-2.15940000E+01	-3.04333000E+00	-1.43660000E-01
		-2.15950000E+01	-3.04318000E+00	 1.01939000E+00
		-2.15940000E+01	-3.04333000E+00	 1.43660000E-01
		-2.57002000E+01	-3.62149000E+00	-8.84510000E-01
		-2.57003000E+01	-3.62224000E+00	-1.17471000E+00
		-2.57002000E+01	-3.62149000E+00	 8.84510000E-01
		-2.57003000E+01	-3.62224000E+00	 1.17471000E+00
		-2.98264000E+01	-4.20339000E+00	-8.85888000E-01
		-2.98264000E+01	-4.20333000E+00	-1.17654000E+00
		-2.98264000E+01	-4.20339000E+00	 8.85888000E-01
		-2.98264000E+01	-4.20333000E+00	 1.17654000E+00
		-2.98264000E+01	-4.20337000E+00	-1.03122000E+00
		-2.98265000E+01	-4.20335000E+00	-1.45327000E-01
		-2.98264000E+01	-4.20337000E+00	 1.03122000E+00
		-2.98265000E+01	-4.20335000E+00	 1.45327000E-01
