<?xml version="1.0"?>
<VTKFile type="UnstructuredGrid" version="0.1" byte_order="LittleEndian">
	<UnstructuredGrid>
		<Piece NumberOfPoints="11" NumberOfCells="5">
			<Points>
				<DataArray type="Float64" NumberOfComponents="3" format="ascii">
					 0.00000000E+00	 0.00000000E+00	 0.00000000E+00
					 0.00000000E+00	 0.00000000E+00	 1.00000000E+02
					 0.00000000E+00	 0.00000000E+00	 2.00000000E+02
					 0.00000000E+00	 0.00000000E+00	 3.00000000E+02
					 0.00000000E+00	 0.00000000E+00	 4.00000000E+02
					 0.00000000E+00	 0.00000000E+00	 5.00000000E+02
					 0.00000000E+00	 0.00000000E+00	 6.00000000E+02
					 0.00000000E+00	 0.00000000E+00	 7.00000000E+02
					 0.00000000E+00	 0.00000000E+00	 8.00000000E+02
					 0.00000000E+00	 0.00000000E+00	 9.00000000E+02
					 0.00000000E+00	 0.00000000E+00	 1.00000000E+03
				</DataArray>
			</Points>
			<Cells>
				<DataArray type="Int32" Name="connectivity" format="ascii">
					0 2 1 2 4 3 4 6 5 6 8 7 8 10 9 
				</DataArray>
				<DataArray type="Int32" Name="offsets" format="ascii">
					3 6 9 12 15 
				</DataArray>
				<DataArray type="UInt8" Name="types" format="ascii">
					21 21 21 21 21 
				</DataArray>
			</Cells>
			<PointData>
				<DataArray type="Float32" Name="S" NumberOfComponents="10" ComponentName0="xx" ComponentName1="yy" ComponentName2="zz" ComponentName3="xy" ComponentName4="yz" ComponentName5="zx" ComponentName6="Mises" ComponentName7="Min Principal" ComponentName8="Mid Principal" ComponentName9="Max Principal" format="ascii">
					-7.94901000E-09	-1.00067000E+02	-4.68390000E-10	 6.78998000E-07	 1.00004000E+05	-6.21076000E-06	 1.73212038E+05	-1.00054046E+05	-7.94900992E-09	 9.99539790E+04
					-7.88919000E-09	-9.98180000E+01	-4.52943000E-10	 6.75928000E-07	 9.00079000E+04	-5.41127000E-06	 1.55898288E+05	-9.00578228E+04	-7.88918992E-09	 8.99580048E+04
					-7.82936000E-09	-9.95689000E+01	-4.37495000E-10	 6.72858000E-07	 8.00118000E+04	-4.61178000E-06	 1.38584539E+05	-8.00615999E+04	-7.82935992E-09	 7.99620310E+04
					-7.39906000E-09	-9.85577000E+01	-4.21196000E-10	 6.46963000E-07	 7.00083000E+04	-3.83806000E-06	 1.21257973E+05	-7.00575962E+04	-7.39905993E-09	 6.99590385E+04
					-6.96876000E-09	-9.75466000E+01	-4.04896000E-10	 6.21068000E-07	 6.00048000E+04	-3.06434000E-06	 1.03931408E+05	-6.00535931E+04	-6.96875994E-09	 5.99560465E+04
					-6.69142000E-09	-9.80515000E+01	-4.94644000E-10	 5.75826000E-07	 5.00004000E+04	-2.38785000E-06	 8.66032887E+04	-5.00494498E+04	-6.69141995E-09	 4.99513983E+04
					-6.41409000E-09	-9.85564000E+01	-5.84393000E-10	 5.30584000E-07	 3.99960000E+04	-1.71136000E-06	 6.92751742E+04	-4.00453086E+04	-6.41408995E-09	 3.99467522E+04
					-5.53521000E-09	-9.85784000E+01	-1.96316000E-10	 4.38626000E-07	 2.99995000E+04	-1.06544000E-06	 5.19607517E+04	-3.00488297E+04	-5.53520997E-09	 2.99502513E+04
					-4.65634000E-09	-9.86004000E+01	 1.91761000E-10	 3.46668000E-07	 2.00030000E+04	-4.19514000E-07	 3.46463526E+04	-2.00523610E+04	-4.65633999E-09	 1.99537606E+04
					-3.11310000E-09	-9.86037000E+01	-6.02166000E-10	 2.57114000E-07	 1.00034000E+04	-2.00216000E-07	 1.73266776E+04	-1.00528233E+04	-3.11309999E-09	 9.95421964E+03
					-1.56986000E-09	-9.86069000E+01	-1.39609000E-09	 1.67561000E-07	 3.80125000E+00	 1.90823000E-08	 9.88264602E+01	-9.87532193E+01	-1.56986417E-09	 1.46319295E-01
				</DataArray>
			</PointData>
		</Piece>
	</UnstructuredGrid>
</VTKFile>