    1C
    1UUSER                                                              
    1UDATE              25.january.2020                                 
    1UTIME              14:48:22                                        
    1UHOST                                                              
    1UPGM               CalculiX                                        
    1UVERSION           Version 2.16                             
    1UCOMPILETIME       Tue  7 Jan 19:57:43 CET 2020                    
    1UDIR                                                               
    1UDBN                                                               
    1UMAT    1GAS                                                       
    2C                            10                                     1
 -1         1 0.00000E+00 0.00000E+00 0.00000E+00
 -1         2 1.00000E+00 0.00000E+00 0.00000E+00
 -1         3 2.00000E+00 1.00000E+00 0.00000E+00
 -1         4 3.00000E+00 2.00000E+00 0.00000E+00
 -1         5 4.00000E+00 2.00000E+00 0.00000E+00
 -1         6 2.00000E+00-1.00000E+00 0.00000E+00
 -1         7 3.00000E+00-2.00000E+00 0.00000E+00
 -1         8 4.00000E+00-2.00000E+00 0.00000E+00
 -1         9 5.00000E+00 2.00000E+00 0.00000E+00
 -1        10 6.00000E+00 2.00000E+00 0.00000E+00
 -3
    3C                             6                                     1
 -1         1   11    0    1
 -2         1         2
 -1         2   12    0    1
 -2         2         4         3
 -1         3   12    0    1
 -2         4         9         5
 -1         4   12    0    1
 -2         2         7         6
 -1         5   11    0    1
 -2         7         8
 -1         6   11    0    1
 -2         9        10
 -3
 9999
