# vtk DataFile Version 3.0

ASCII
DATASET UNSTRUCTURED_GRID

POINTS 16 double
	 1.00000000E+00	 1.00000000E+00	-1.49012000E-08
	 1.00000000E+00	 0.00000000E+00	-1.49012000E-08
	 1.00000000E+00	 0.00000000E+00	 1.00000000E+00
	 1.00000000E+00	 1.00000000E+00	 1.00000000E+00
	-7.45058000E-09	 1.00000000E+00	-1.49012000E-08
	-7.45058000E-09	 0.00000000E+00	-1.49012000E-08
	-7.45058000E-09	 0.00000000E+00	 1.00000000E+00
	-7.45058000E-09	 1.00000000E+00	 1.00000000E+00
	 5.00000000E-01	 6.41421000E-01	 1.00000000E+00
	 6.41421000E-01	 5.00000000E-01	 1.00000000E+00
	 6.41421000E-01	 5.00000000E-01	 1.20000000E+00
	 5.00000000E-01	 6.41421000E-01	 1.20000000E+00
	 3.58579000E-01	 5.00000000E-01	 1.00000000E+00
	 5.00000000E-01	 3.58579000E-01	 1.00000000E+00
	 5.00000000E-01	 3.58579000E-01	 1.20000000E+00
	 3.58579000E-01	 5.00000000E-01	 1.20000000E+00

CELLS 2 18
	8 0 1 2 3 4 5 6 7 
	8 8 9 10 11 12 13 14 15 

CELL_TYPES 2
	12
	12

POINT_DATA 16
FIELD U 1
	U 3 16 double
		 0.00000000E+00	 0.00000000E+00	 0.00000000E+00
		 0.00000000E+00	 0.00000000E+00	 0.00000000E+00
		-5.27660000E-03	 5.27660000E-03	 2.42789000E-02
		-5.27660000E-03	-5.27660000E-03	 2.42789000E-02
		 0.00000000E+00	 0.00000000E+00	 0.00000000E+00
		 0.00000000E+00	 0.00000000E+00	 0.00000000E+00
		 5.27660000E-03	 5.27660000E-03	 2.42789000E-02
		 5.27660000E-03	-5.27660000E-03	 2.42789000E-02
		 1.22746000E-11	-2.80780000E-02	 2.44242000E-02
		-2.80780000E-02	-3.34328000E-18	 2.44242000E-02
		 0.00000000E+00	 0.00000000E+00	 1.00000000E-01
		 0.00000000E+00	 0.00000000E+00	 1.00000000E-01
		 2.80780000E-02	 1.46184000E-17	 2.44242000E-02
		 1.22745000E-11	 2.80780000E-02	 2.44242000E-02
		 0.00000000E+00	 0.00000000E+00	 1.00000000E-01
		 0.00000000E+00	 0.00000000E+00	 1.00000000E-01
FIELD CONTACT 1
	CONTACT 6 16 double
		 0.00000000E+00	 0.00000000E+00	 0.00000000E+00	 0.00000000E+00	 0.00000000E+00	 0.00000000E+00
		 0.00000000E+00	 0.00000000E+00	 0.00000000E+00	 0.00000000E+00	 0.00000000E+00	 0.00000000E+00
		 0.00000000E+00	 0.00000000E+00	 0.00000000E+00	 0.00000000E+00	 0.00000000E+00	 0.00000000E+00
		 0.00000000E+00	 0.00000000E+00	 0.00000000E+00	 0.00000000E+00	 0.00000000E+00	 0.00000000E+00
		 0.00000000E+00	 0.00000000E+00	 0.00000000E+00	 0.00000000E+00	 0.00000000E+00	 0.00000000E+00
		 0.00000000E+00	 0.00000000E+00	 0.00000000E+00	 0.00000000E+00	 0.00000000E+00	 0.00000000E+00
		 0.00000000E+00	 0.00000000E+00	 0.00000000E+00	 0.00000000E+00	 0.00000000E+00	 0.00000000E+00
		 0.00000000E+00	 0.00000000E+00	 0.00000000E+00	 0.00000000E+00	 0.00000000E+00	 0.00000000E+00
		 1.45330000E-04	 4.06348000E-10	-2.12000000E-02	-1.45330000E+05	 4.06348000E-07	-2.12000000E+01
		 1.45330000E-04	-2.12000000E-02	-1.41823000E-18	-1.45330000E+05	-2.12000000E+01	 4.35679000E-15
		 0.00000000E+00	 0.00000000E+00	 0.00000000E+00	 0.00000000E+00	 0.00000000E+00	 0.00000000E+00
		 0.00000000E+00	 0.00000000E+00	 0.00000000E+00	 0.00000000E+00	 0.00000000E+00	 0.00000000E+00
		 1.45330000E-04	 2.12000000E-02	 1.82742000E-17	-1.45330000E+05	 2.12000000E+01	 2.99404000E-14
		 1.45330000E-04	 4.06348000E-10	 2.12000000E-02	-1.45330000E+05	 4.06348000E-07	 2.12000000E+01
		 0.00000000E+00	 0.00000000E+00	 0.00000000E+00	 0.00000000E+00	 0.00000000E+00	 0.00000000E+00
		 0.00000000E+00	 0.00000000E+00	 0.00000000E+00	 0.00000000E+00	 0.00000000E+00	 0.00000000E+00
