# vtk DataFile Version 3.0

ASCII
DATASET UNSTRUCTURED_GRID

POINTS 16 double
	 1.00000000E+00	 1.00000000E+00	-1.49012000E-08
	 1.00000000E+00	 0.00000000E+00	-1.49012000E-08
	 1.00000000E+00	 0.00000000E+00	 1.00000000E+00
	 1.00000000E+00	 1.00000000E+00	 1.00000000E+00
	-7.45058000E-09	 1.00000000E+00	-1.49012000E-08
	-7.45058000E-09	 0.00000000E+00	-1.49012000E-08
	-7.45058000E-09	 0.00000000E+00	 1.00000000E+00
	-7.45058000E-09	 1.00000000E+00	 1.00000000E+00
	 5.00000000E-01	 6.41421000E-01	 1.00000000E+00
	 6.41421000E-01	 5.00000000E-01	 1.00000000E+00
	 6.41421000E-01	 5.00000000E-01	 1.20000000E+00
	 5.00000000E-01	 6.41421000E-01	 1.20000000E+00
	 3.58579000E-01	 5.00000000E-01	 1.00000000E+00
	 5.00000000E-01	 3.58579000E-01	 1.00000000E+00
	 5.00000000E-01	 3.58579000E-01	 1.20000000E+00
	 3.58579000E-01	 5.00000000E-01	 1.20000000E+00

CELLS 2 18
	8 0 1 2 3 4 5 6 7 
	8 8 9 10 11 12 13 14 15 

CELL_TYPES 2
	12
	12

POINT_DATA 16
FIELD U 1
	U 3 16 double
		 0.00000000E+00	 0.00000000E+00	 0.00000000E+00
		 0.00000000E+00	 0.00000000E+00	 0.00000000E+00
		 2.13542000E-06	-2.13064000E-06	-9.96554000E-06
		 2.13678000E-06	 2.14151000E-06	-9.97130000E-06
		 0.00000000E+00	 0.00000000E+00	 0.00000000E+00
		 0.00000000E+00	 0.00000000E+00	 0.00000000E+00
		-2.13542000E-06	-2.13064000E-06	-9.96554000E-06
		-2.13678000E-06	 2.14151000E-06	-9.97130000E-06
		-4.58606000E-14	 2.31919000E-05	-1.95488000E-05
		 1.16183000E-05	 1.15694000E-05	-1.95436000E-05
		 1.16252000E-05	 1.15944000E-05	-7.43377000E-05
		 0.00000000E+00	 2.32257000E-05	-7.43548000E-05
		-1.16183000E-05	 1.15694000E-05	-1.95436000E-05
		-4.57361000E-14	-5.79909000E-08	-1.95325000E-05
		 0.00000000E+00	 0.00000000E+00	-7.43069000E-05
		-1.16252000E-05	 1.15944000E-05	-7.43377000E-05
FIELD S 1
	S 10 16 double
		-1.20805000E+00	-1.20805000E+00	-2.81867000E+00	 7.38939000E-07	 1.72961000E-01	 1.72579000E-01	 1.66529092E+00	-2.85491997E+00	-1.20805074E+00	-1.17179929E+00
		-1.20735000E+00	-1.20735000E+00	-2.81704000E+00	-7.35189000E-07	-1.72083000E-01	 1.72469000E-01	 1.66408420E+00	-2.85310734E+00	-1.20735074E+00	-1.17128193E+00
		 5.17581000E-01	 5.17791000E-01	-1.78203000E+00	 1.09336000E-04	-1.72550000E-01	 1.72471000E-01	 2.33821577E+00	-1.80762764E+00	 5.17794858E-01	 5.43174784E-01
		 5.17653000E-01	 5.17424000E-01	-1.78332000E+00	 1.10819000E-04	 1.72498000E-01	 1.72581000E-01	 2.33935230E+00	-1.80891132E+00	 5.17427124E-01	 5.43241197E-01
		-1.20805000E+00	-1.20805000E+00	-2.81867000E+00	-7.38938000E-07	 1.72961000E-01	-1.72579000E-01	 1.66529092E+00	-2.85491997E+00	-1.20805074E+00	-1.17179929E+00
		-1.20735000E+00	-1.20735000E+00	-2.81704000E+00	 7.35189000E-07	-1.72083000E-01	-1.72469000E-01	 1.66408420E+00	-2.85310734E+00	-1.20735074E+00	-1.17128193E+00
		 5.17581000E-01	 5.17791000E-01	-1.78203000E+00	-1.09345000E-04	-1.72550000E-01	-1.72471000E-01	 2.33821577E+00	-1.80762764E+00	 5.17794867E-01	 5.43174775E-01
		 5.17653000E-01	 5.17424000E-01	-1.78332000E+00	-1.10810000E-04	 1.72498000E-01	-1.72581000E-01	 2.33935230E+00	-1.80891132E+00	 5.17427133E-01	 5.43241188E-01
		-1.28430000E-02	-8.00816000E-03	-5.75172000E+01	 5.27161000E-11	 1.07185000E-02	-1.57514000E-10	 5.75067776E+01	-5.75172020E+01	-1.28430000E-02	-8.00616230E-03
		-3.52748000E-03	 4.09816000E-03	-5.74983000E+01	 1.39542000E-03	 5.46750000E-03	 1.11426000E-03	 5.74985866E+01	-5.74983005E+01	-3.77480660E-03	 4.34602806E-03
		-2.19673000E-05	-1.40759000E-02	-5.75027000E+01	-1.05498000E-02	-3.58625000E-03	-1.13259000E-03	 5.74956556E+01	-5.75027002E+01	-1.97245209E-02	 5.62689960E-03
		 8.58029000E-03	 1.56259000E-02	-5.75037000E+01	-8.14620000E-11	 3.91159000E-03	-7.23512000E-11	 5.75158038E+01	-5.75037003E+01	 8.58029000E-03	 1.56261660E-02
		-3.52748000E-03	 4.09816000E-03	-5.74983000E+01	-1.39542000E-03	 5.46750000E-03	-1.11426000E-03	 5.74985866E+01	-5.74983005E+01	-3.77480660E-03	 4.34602806E-03
		 1.05560000E-02	 2.09725000E-02	-5.74682000E+01	-1.00432000E-10	 1.70915000E-02	-2.07753000E-10	 5.74839726E+01	-5.74682051E+01	 1.05560000E-02	 2.09775813E-02
		-3.85626000E-03	-3.90097000E-02	-5.74905000E+01	 1.05229000E-10	 5.79086000E-03	-1.22590000E-10	 5.74690760E+01	-5.74905006E+01	-3.90091163E-02	-3.85626000E-03
		-2.19681000E-05	-1.40759000E-02	-5.75027000E+01	 1.05498000E-02	-3.58625000E-03	 1.13259000E-03	 5.74956556E+01	-5.75027002E+01	-1.97245210E-02	 5.62689898E-03
FIELD CONTACT 1
	CONTACT 6 16 double
		 0.00000000E+00	 0.00000000E+00	 0.00000000E+00	 0.00000000E+00	 0.00000000E+00	 0.00000000E+00
		 0.00000000E+00	 0.00000000E+00	 0.00000000E+00	 0.00000000E+00	 0.00000000E+00	 0.00000000E+00
		 0.00000000E+00	 0.00000000E+00	 0.00000000E+00	 0.00000000E+00	 0.00000000E+00	 0.00000000E+00
		 0.00000000E+00	 0.00000000E+00	 0.00000000E+00	 0.00000000E+00	 0.00000000E+00	 0.00000000E+00
		 0.00000000E+00	 0.00000000E+00	 0.00000000E+00	 0.00000000E+00	 0.00000000E+00	 0.00000000E+00
		 0.00000000E+00	 0.00000000E+00	 0.00000000E+00	 0.00000000E+00	 0.00000000E+00	 0.00000000E+00
		 0.00000000E+00	 0.00000000E+00	 0.00000000E+00	 0.00000000E+00	 0.00000000E+00	 0.00000000E+00
		 0.00000000E+00	 0.00000000E+00	 0.00000000E+00	 0.00000000E+00	 0.00000000E+00	 0.00000000E+00
		-5.75332000E-06	-1.66432000E-13	 2.03502000E-05	 5.75332000E+01	-5.00937000E-11	 5.74781000E-03
		-5.75124000E-06	 8.78290000E-06	 1.15639000E-05	 5.75124000E+01	 3.70057000E-03	 5.22629000E-03
		 0.00000000E+00	 0.00000000E+00	 0.00000000E+00	 0.00000000E+00	 0.00000000E+00	 0.00000000E+00
		 0.00000000E+00	 0.00000000E+00	 0.00000000E+00	 0.00000000E+00	 0.00000000E+00	 0.00000000E+00
		-5.75124000E-06	-8.78290000E-06	 1.15639000E-05	 5.75124000E+01	-3.70057000E-03	 5.22629000E-03
		-5.74633000E-06	-1.66315000E-13	 2.77370000E-06	 5.74633000E+01	-2.04279000E-10	 3.78160000E-03
		 0.00000000E+00	 0.00000000E+00	 0.00000000E+00	 0.00000000E+00	 0.00000000E+00	 0.00000000E+00
		 0.00000000E+00	 0.00000000E+00	 0.00000000E+00	 0.00000000E+00	 0.00000000E+00	 0.00000000E+00
