<?xml version="1.0"?>
<VTKFile type="UnstructuredGrid" version="0.1" byte_order="LittleEndian">
	<UnstructuredGrid>
		<Piece NumberOfPoints="16" NumberOfCells="2">
			<Points>
				<DataArray type="Float64" NumberOfComponents="3" format="ascii">
					 1.00000000E+00	 1.00000000E+00	-1.49012000E-08
					 1.00000000E+00	 0.00000000E+00	-1.49012000E-08
					 1.00000000E+00	 0.00000000E+00	 1.00000000E+00
					 1.00000000E+00	 1.00000000E+00	 1.00000000E+00
					-7.45058000E-09	 1.00000000E+00	-1.49012000E-08
					-7.45058000E-09	 0.00000000E+00	-1.49012000E-08
					-7.45058000E-09	 0.00000000E+00	 1.00000000E+00
					-7.45058000E-09	 1.00000000E+00	 1.00000000E+00
					 5.00000000E-01	 6.41421000E-01	 1.00000000E+00
					 6.41421000E-01	 5.00000000E-01	 1.00000000E+00
					 6.41421000E-01	 5.00000000E-01	 1.20000000E+00
					 5.00000000E-01	 6.41421000E-01	 1.20000000E+00
					 3.58579000E-01	 5.00000000E-01	 1.00000000E+00
					 5.00000000E-01	 3.58579000E-01	 1.00000000E+00
					 5.00000000E-01	 3.58579000E-01	 1.20000000E+00
					 3.58579000E-01	 5.00000000E-01	 1.20000000E+00
				</DataArray>
			</Points>
			<Cells>
				<DataArray type="Int32" Name="connectivity" format="ascii">
					0 1 2 3 4 5 6 7 8 9 10 11 12 13 14 15 
				</DataArray>
				<DataArray type="Int32" Name="offsets" format="ascii">
					8 16 
				</DataArray>
				<DataArray type="UInt8" Name="types" format="ascii">
					12 12 
				</DataArray>
			</Cells>
			<PointData>
				<DataArray type="Float32" Name="U" NumberOfComponents="3" ComponentName0="D1" ComponentName1="D2" ComponentName2="D3" format="ascii">
					 0.00000000E+00	 0.00000000E+00	 0.00000000E+00
					 0.00000000E+00	 0.00000000E+00	 0.00000000E+00
					 2.03253000E-06	 3.39419000E-06	-1.02335000E-05
					 5.39811000E-06	 1.08254000E-05	-2.44441000E-05
					 0.00000000E+00	 0.00000000E+00	 0.00000000E+00
					 0.00000000E+00	 0.00000000E+00	 0.00000000E+00
					-2.03253000E-06	 3.39419000E-06	-1.02335000E-05
					-5.39811000E-06	 1.08254000E-05	-2.44441000E-05
					-1.21208000E-13	 1.00038000E-01	-3.07765000E-05
					 2.02135000E-05	 1.00017000E-01	-2.87616000E-05
					 2.02233000E-05	 1.00020000E-01	-1.24097000E-04
					 0.00000000E+00	 1.00040000E-01	-1.26135000E-04
					-2.02135000E-05	 1.00017000E-01	-2.87616000E-05
					-1.21226000E-13	 9.99971000E-02	-2.67396000E-05
					 0.00000000E+00	 1.00000000E-01	-1.22036000E-04
					-2.02233000E-05	 1.00020000E-01	-1.24097000E-04
				</DataArray>
				<DataArray type="Float32" Name="S" NumberOfComponents="10" ComponentName0="xx" ComponentName1="yy" ComponentName2="zz" ComponentName3="xy" ComponentName4="yz" ComponentName5="zx" ComponentName6="Mises" ComponentName7="Min Principal" ComponentName8="Mid Principal" ComponentName9="Max Principal" format="ascii">
					-2.96148000E+00	-2.96147000E+00	-6.90972000E+00	 7.32907000E-06	 8.74287000E-01	 4.35964000E-01	 4.29557513E+00	-7.13823228E+00	-2.96148386E+00	-2.73295385E+00
					-1.23981000E+00	-1.23981000E+00	-2.89276000E+00	-2.33543000E-07	 2.74145000E-01	 1.64164000E-01	 1.74314647E+00	-2.95238107E+00	-1.23980979E+00	-1.18018914E+00
					 8.09694000E-01	 1.35347000E+00	-1.49991000E+00	 2.71838000E-01	-8.73622000E-01	 1.64158000E-01	 3.07864380E+00	-1.76709575E+00	 7.73923023E-01	 1.65642672E+00
					 9.90938000E-01	 4.47345000E-01	-4.70135000E+00	 2.71844000E-01	-2.73427000E-01	 4.35972000E-01	 5.53349323E+00	-4.75112766E+00	 3.68625683E-01	 1.11943498E+00
					-2.96148000E+00	-2.96147000E+00	-6.90972000E+00	-7.32907000E-06	 8.74287000E-01	-4.35964000E-01	 4.29557513E+00	-7.13823228E+00	-2.96148386E+00	-2.73295385E+00
					-1.23981000E+00	-1.23981000E+00	-2.89276000E+00	 2.33543000E-07	 2.74145000E-01	-1.64164000E-01	 1.74314647E+00	-2.95238107E+00	-1.23980979E+00	-1.18018914E+00
					 8.09694000E-01	 1.35347000E+00	-1.49991000E+00	-2.71838000E-01	-8.73622000E-01	-1.64158000E-01	 3.07864380E+00	-1.76709575E+00	 7.73923023E-01	 1.65642672E+00
					 9.90938000E-01	 4.47345000E-01	-4.70135000E+00	-2.71844000E-01	-2.73427000E-01	-4.35972000E-01	 5.53349323E+00	-4.75112766E+00	 3.68625683E-01	 1.11943498E+00
					-2.06141000E-02	-1.48808000E-02	-1.00033000E+02	 3.62724000E-12	 1.86706000E-02	-6.34484000E-11	 1.00015258E+02	-1.00033003E+02	-2.06141000E-02	-1.48773147E-02
					-2.73165000E-03	 8.48812000E-03	-9.99964000E+01	 2.74340000E-03	 9.18056000E-03	 1.90998000E-03	 9.99992801E+01	-9.99964009E+01	-3.36652663E-03	 9.12387589E-03
					-2.17233000E-03	-2.76001000E-02	-1.00007000E+02	-2.05147000E-02	-8.40989000E-03	-2.70852000E-03	 9.99921237E+01	-1.00007001E+02	-3.90204134E-02	 9.24876424E-03
					 1.48323000E-02	 3.04343000E-02	-1.00008000E+02	 7.27845000E-12	 5.69827000E-03	-6.40250000E-11	 1.00030635E+02	-1.00008000E+02	 1.48323000E-02	 3.04346246E-02
					-2.73165000E-03	 8.48812000E-03	-9.99964000E+01	-2.74340000E-03	 9.18056000E-03	-1.90998000E-03	 9.99992801E+01	-9.99964009E+01	-3.36652663E-03	 9.12387589E-03
					 2.49548000E-02	 4.16620000E-02	-9.99374000E+01	 6.67310000E-13	 3.25214000E-02	-5.65288000E-11	 9.99707253E+01	-9.99374106E+01	 2.49548000E-02	 4.16725786E-02
					-9.37293000E-03	-7.58295000E-02	-9.99829000E+01	 1.73392000E-11	 1.03128000E-02	-5.71013000E-11	 9.99403170E+01	-9.99829011E+01	-7.58284355E-02	-9.37293000E-03
					-2.17233000E-03	-2.76001000E-02	-1.00007000E+02	 2.05147000E-02	-8.40989000E-03	 2.70852000E-03	 9.99921237E+01	-1.00007001E+02	-3.90204134E-02	 9.24876424E-03
				</DataArray>
				<DataArray type="Float32" Name="CONTACT" NumberOfComponents="6" ComponentName0="COPEN" ComponentName1="CSLIP1" ComponentName2="CSLIP2" ComponentName3="CPRESS" ComponentName4="CSHEAR1" ComponentName5="CSHEAR2" format="ascii">
					 0.00000000E+00	 0.00000000E+00	 0.00000000E+00	 0.00000000E+00	 0.00000000E+00	 0.00000000E+00
					 0.00000000E+00	 0.00000000E+00	 0.00000000E+00	 0.00000000E+00	 0.00000000E+00	 0.00000000E+00
					 0.00000000E+00	 0.00000000E+00	 0.00000000E+00	 0.00000000E+00	 0.00000000E+00	 0.00000000E+00
					 0.00000000E+00	 0.00000000E+00	 0.00000000E+00	 0.00000000E+00	 0.00000000E+00	 0.00000000E+00
					 0.00000000E+00	 0.00000000E+00	 0.00000000E+00	 0.00000000E+00	 0.00000000E+00	 0.00000000E+00
					 0.00000000E+00	 0.00000000E+00	 0.00000000E+00	 0.00000000E+00	 0.00000000E+00	 0.00000000E+00
					 0.00000000E+00	 0.00000000E+00	 0.00000000E+00	 0.00000000E+00	 0.00000000E+00	 0.00000000E+00
					 0.00000000E+00	 0.00000000E+00	 0.00000000E+00	 0.00000000E+00	 0.00000000E+00	 0.00000000E+00
					-1.00057000E-05	-4.61029000E-13	 1.00025000E-01	 1.00057000E+02	-1.33078000E-13	 1.00057000E-02
					-1.00018000E-05	 1.52164000E-05	 1.00009000E-01	 1.00018000E+02	-1.62001000E-08	 1.00018000E-02
					 0.00000000E+00	 0.00000000E+00	 0.00000000E+00	 0.00000000E+00	 0.00000000E+00	 0.00000000E+00
					 0.00000000E+00	 0.00000000E+00	 0.00000000E+00	 0.00000000E+00	 0.00000000E+00	 0.00000000E+00
					-1.00018000E-05	-1.52164000E-05	 1.00009000E-01	 1.00018000E+02	 1.62000000E-08	 1.00018000E-02
					-9.99208000E-06	-4.42934000E-13	 9.99941000E-02	 9.99208000E+01	-3.22740000E-14	 9.99208000E-03
					 0.00000000E+00	 0.00000000E+00	 0.00000000E+00	 0.00000000E+00	 0.00000000E+00	 0.00000000E+00
					 0.00000000E+00	 0.00000000E+00	 0.00000000E+00	 0.00000000E+00	 0.00000000E+00	 0.00000000E+00
				</DataArray>
			</PointData>
		</Piece>
	</UnstructuredGrid>
</VTKFile>