<?xml version="1.0"?>
<VTKFile type="UnstructuredGrid" version="0.1" byte_order="LittleEndian">
	<UnstructuredGrid>
		<Piece NumberOfPoints="16" NumberOfCells="2">
			<Points>
				<DataArray type="Float64" NumberOfComponents="3" format="ascii">
					 1.00000000E+00	 1.00000000E+00	-1.49012000E-08
					 1.00000000E+00	 0.00000000E+00	-1.49012000E-08
					 1.00000000E+00	 0.00000000E+00	 1.00000000E+00
					 1.00000000E+00	 1.00000000E+00	 1.00000000E+00
					-7.45058000E-09	 1.00000000E+00	-1.49012000E-08
					-7.45058000E-09	 0.00000000E+00	-1.49012000E-08
					-7.45058000E-09	 0.00000000E+00	 1.00000000E+00
					-7.45058000E-09	 1.00000000E+00	 1.00000000E+00
					 5.00000000E-01	 6.41421000E-01	 1.00000000E+00
					 6.41421000E-01	 5.00000000E-01	 1.00000000E+00
					 6.41421000E-01	 5.00000000E-01	 1.20000000E+00
					 5.00000000E-01	 6.41421000E-01	 1.20000000E+00
					 3.58579000E-01	 5.00000000E-01	 1.00000000E+00
					 5.00000000E-01	 3.58579000E-01	 1.00000000E+00
					 5.00000000E-01	 3.58579000E-01	 1.20000000E+00
					 3.58579000E-01	 5.00000000E-01	 1.20000000E+00
				</DataArray>
			</Points>
			<Cells>
				<DataArray type="Int32" Name="connectivity" format="ascii">
					0 1 2 3 4 5 6 7 8 9 10 11 12 13 14 15 
				</DataArray>
				<DataArray type="Int32" Name="offsets" format="ascii">
					8 16 
				</DataArray>
				<DataArray type="UInt8" Name="types" format="ascii">
					12 12 
				</DataArray>
			</Cells>
			<PointData>
				<DataArray type="Float32" Name="U" NumberOfComponents="3" ComponentName0="D1" ComponentName1="D2" ComponentName2="D3" format="ascii">
					 0.00000000E+00	 0.00000000E+00	 0.00000000E+00
					 0.00000000E+00	 0.00000000E+00	 0.00000000E+00
					 3.71336000E-07	-3.70543000E-07	-1.73293000E-06
					 3.71549000E-07	 3.72332000E-07	-1.73383000E-06
					 0.00000000E+00	 0.00000000E+00	 0.00000000E+00
					 0.00000000E+00	 0.00000000E+00	 0.00000000E+00
					-3.71336000E-07	-3.70543000E-07	-1.73293000E-06
					-3.71549000E-07	 3.72332000E-07	-1.73383000E-06
					-1.16873000E-14	 4.03279000E-06	-2.73412000E-06
					 2.01992000E-06	 2.01217000E-06	-2.73359000E-06
					 2.02109000E-06	 2.01578000E-06	-1.22585000E-05
					 0.00000000E+00	 4.03798000E-06	-1.22610000E-05
					-2.01992000E-06	 2.01217000E-06	-2.73359000E-06
					-1.16683000E-14	-9.29506000E-09	-2.73234000E-06
					 0.00000000E+00	 0.00000000E+00	-1.22537000E-05
					-2.02109000E-06	 2.01578000E-06	-1.22585000E-05
				</DataArray>
				<DataArray type="Float32" Name="S" NumberOfComponents="10" ComponentName0="xx" ComponentName1="yy" ComponentName2="zz" ComponentName3="xy" ComponentName4="yz" ComponentName5="zx" ComponentName6="Mises" ComponentName7="Min Principal" ComponentName8="Mid Principal" ComponentName9="Max Principal" format="ascii">
					-2.10057000E-01	-2.10057000E-01	-4.90123000E-01	 2.23909000E-08	 3.00726000E-02	 3.00094000E-02	 2.89571650E-01	-4.96425800E-01	-2.10057022E-01	-2.03754178E-01
					-2.09948000E-01	-2.09948000E-01	-4.89868000E-01	-2.21827000E-08	-2.99281000E-02	 2.99922000E-02	 2.89380158E-01	-4.96140776E-01	-2.09948022E-01	-2.03675202E-01
					 9.00007000E-02	 9.00334000E-02	-3.09889000E-01	 1.71818000E-05	-3.00009000E-02	 2.99922000E-02	 4.06600060E-01	-3.14339680E-01	 9.00341672E-02	 9.44506131E-02
					 9.00120000E-02	 8.99759000E-02	-3.10092000E-01	 1.72286000E-05	 2.99999000E-02	 3.00094000E-02	 4.06780584E-01	-3.14542725E-01	 8.99766439E-02	 9.44619809E-02
					-2.10057000E-01	-2.10057000E-01	-4.90123000E-01	-2.23908000E-08	 3.00726000E-02	-3.00094000E-02	 2.89571650E-01	-4.96425800E-01	-2.10057022E-01	-2.03754178E-01
					-2.09948000E-01	-2.09948000E-01	-4.89868000E-01	 2.21827000E-08	-2.99281000E-02	-2.99922000E-02	 2.89380158E-01	-4.96140776E-01	-2.09948022E-01	-2.03675202E-01
					 9.00007000E-02	 9.00334000E-02	-3.09889000E-01	-1.71840000E-05	-3.00009000E-02	-2.99922000E-02	 4.06600060E-01	-3.14339680E-01	 9.00341694E-02	 9.44506109E-02
					 9.00120000E-02	 8.99759000E-02	-3.10092000E-01	-1.72263000E-05	 2.99999000E-02	-3.00094000E-02	 4.06780584E-01	-3.14542725E-01	 8.99766462E-02	 9.44619786E-02
					-2.16785000E-03	-1.37552000E-03	-1.00029000E+01	 1.59971000E-11	 1.79317000E-03	-4.57486000E-11	 1.00011288E+01	-1.00029003E+01	-2.16785000E-03	-1.37519850E-03
					-6.27670000E-04	 6.49678000E-04	-9.99979000E+00	 2.42506000E-04	 9.50053000E-04	 2.63262000E-04	 9.99980122E+00	-9.99979010E+00	-6.72159664E-04	 6.94264850E-04
					-6.55895000E-05	-2.45934000E-03	-1.00006000E+01	-1.83184000E-03	-6.21709000E-04	-1.99424000E-04	 9.99933832E+00	-1.00006000E+01	-3.45060732E-03	 9.25720458E-04
					 1.50574000E-03	 2.77567000E-03	-1.00006000E+01	-2.46980000E-11	 6.84098000E-04	-2.10677000E-11	 1.00027408E+01	-1.00006000E+01	 1.50574000E-03	 2.77571678E-03
					-6.27670000E-04	 6.49678000E-04	-9.99979000E+00	-2.42506000E-04	 9.50053000E-04	-2.63262000E-04	 9.99980122E+00	-9.99979010E+00	-6.72159664E-04	 6.94264850E-04
					 1.89407000E-03	 3.65644000E-03	-9.99439000E+00	-2.76631000E-11	 3.03994000E-03	-5.34293000E-11	 9.99716676E+00	-9.99439092E+00	 1.89407000E-03	 3.65736430E-03
					-6.55358000E-04	-6.71278000E-03	-9.99827000E+00	 2.92045000E-11	 1.00550000E-03	-2.87492000E-11	 9.99458746E+00	-9.99827010E+00	-6.71267881E-03	-6.55358000E-04
					-6.55898000E-05	-2.45934000E-03	-1.00006000E+01	 1.83184000E-03	-6.21709000E-04	 1.99424000E-04	 9.99933832E+00	-1.00006000E+01	-3.45060739E-03	 9.25720226E-04
				</DataArray>
				<DataArray type="Float32" Name="CONTACT" NumberOfComponents="6" ComponentName0="COPEN" ComponentName1="CSLIP1" ComponentName2="CSLIP2" ComponentName3="CPRESS" ComponentName4="CSHEAR1" ComponentName5="CSHEAR2" format="ascii">
					 0.00000000E+00	 0.00000000E+00	 0.00000000E+00	 0.00000000E+00	 0.00000000E+00	 0.00000000E+00
					 0.00000000E+00	 0.00000000E+00	 0.00000000E+00	 0.00000000E+00	 0.00000000E+00	 0.00000000E+00
					 0.00000000E+00	 0.00000000E+00	 0.00000000E+00	 0.00000000E+00	 0.00000000E+00	 0.00000000E+00
					 0.00000000E+00	 0.00000000E+00	 0.00000000E+00	 0.00000000E+00	 0.00000000E+00	 0.00000000E+00
					 0.00000000E+00	 0.00000000E+00	 0.00000000E+00	 0.00000000E+00	 0.00000000E+00	 0.00000000E+00
					 0.00000000E+00	 0.00000000E+00	 0.00000000E+00	 0.00000000E+00	 0.00000000E+00	 0.00000000E+00
					 0.00000000E+00	 0.00000000E+00	 0.00000000E+00	 0.00000000E+00	 0.00000000E+00	 0.00000000E+00
					 0.00000000E+00	 0.00000000E+00	 0.00000000E+00	 0.00000000E+00	 0.00000000E+00	 0.00000000E+00
					-1.00052000E-06	-4.38313000E-14	 3.53879000E-06	 1.00052000E+01	-1.74016000E-11	 9.99577000E-04
					-1.00021000E-06	 1.52697000E-06	 2.01128000E-06	 1.00021000E+01	 6.43375000E-04	 9.08877000E-04
					 0.00000000E+00	 0.00000000E+00	 0.00000000E+00	 0.00000000E+00	 0.00000000E+00	 0.00000000E+00
					 0.00000000E+00	 0.00000000E+00	 0.00000000E+00	 0.00000000E+00	 0.00000000E+00	 0.00000000E+00
					-1.00021000E-06	-1.52697000E-06	 2.01128000E-06	 1.00021000E+01	-6.43375000E-04	 9.08877000E-04
					-9.99309000E-07	-4.38143000E-14	 4.83074000E-07	 9.99308000E+00	-5.24474000E-11	 6.58175000E-04
					 0.00000000E+00	 0.00000000E+00	 0.00000000E+00	 0.00000000E+00	 0.00000000E+00	 0.00000000E+00
					 0.00000000E+00	 0.00000000E+00	 0.00000000E+00	 0.00000000E+00	 0.00000000E+00	 0.00000000E+00
				</DataArray>
			</PointData>
		</Piece>
	</UnstructuredGrid>
</VTKFile>