# vtk DataFile Version 3.0

ASCII
DATASET UNSTRUCTURED_GRID

POINTS 16 double
	 1.00000000E+00	 1.00000000E+00	-1.49012000E-08
	 1.00000000E+00	 0.00000000E+00	-1.49012000E-08
	 1.00000000E+00	 0.00000000E+00	 1.00000000E+00
	 1.00000000E+00	 1.00000000E+00	 1.00000000E+00
	-7.45058000E-09	 1.00000000E+00	-1.49012000E-08
	-7.45058000E-09	 0.00000000E+00	-1.49012000E-08
	-7.45058000E-09	 0.00000000E+00	 1.00000000E+00
	-7.45058000E-09	 1.00000000E+00	 1.00000000E+00
	 5.00000000E-01	 6.41421000E-01	 1.00000000E+00
	 6.41421000E-01	 5.00000000E-01	 1.00000000E+00
	 6.41421000E-01	 5.00000000E-01	 1.20000000E+00
	 5.00000000E-01	 6.41421000E-01	 1.20000000E+00
	 3.58579000E-01	 5.00000000E-01	 1.00000000E+00
	 5.00000000E-01	 3.58579000E-01	 1.00000000E+00
	 5.00000000E-01	 3.58579000E-01	 1.20000000E+00
	 3.58579000E-01	 5.00000000E-01	 1.20000000E+00

CELLS 2 18
	8 0 1 2 3 4 5 6 7 
	8 8 9 10 11 12 13 14 15 

CELL_TYPES 2
	12
	12

POINT_DATA 16
FIELD U 1
	U 3 16 double
		 0.00000000E+00	 0.00000000E+00	 0.00000000E+00
		 0.00000000E+00	 0.00000000E+00	 0.00000000E+00
		-1.46937000E-39	-4.40810000E-39	-4.40810000E-39
		 9.18355000E-40	-3.85709000E-39	 2.93874000E-39
		 0.00000000E+00	 0.00000000E+00	 0.00000000E+00
		 0.00000000E+00	 0.00000000E+00	 0.00000000E+00
		-2.20405000E-39	 2.20405000E-39	 2.93874000E-39
		 3.67342000E-39	 1.10203000E-39	 0.00000000E+00
		-2.29400000E-17	-8.54747000E-15	 1.00000000E-01
		-8.55735000E-15	 4.74259000E-18	 1.00000000E-01
		 0.00000000E+00	 0.00000000E+00	 1.00000000E-01
		 0.00000000E+00	 0.00000000E+00	 1.00000000E-01
		 8.53302000E-15	-8.61131000E-18	 1.00000000E-01
		-4.56505000E-18	 8.54209000E-15	 1.00000000E-01
		 0.00000000E+00	 0.00000000E+00	 1.00000000E-01
		 0.00000000E+00	 0.00000000E+00	 1.00000000E-01
FIELD CONTACT 1
	CONTACT 6 16 double
		 0.00000000E+00	 0.00000000E+00	 0.00000000E+00	 0.00000000E+00	 0.00000000E+00	 0.00000000E+00
		 0.00000000E+00	 0.00000000E+00	 0.00000000E+00	 0.00000000E+00	 0.00000000E+00	 0.00000000E+00
		 0.00000000E+00	 0.00000000E+00	 0.00000000E+00	 0.00000000E+00	 0.00000000E+00	 0.00000000E+00
		 0.00000000E+00	 0.00000000E+00	 0.00000000E+00	 0.00000000E+00	 0.00000000E+00	 0.00000000E+00
		 0.00000000E+00	 0.00000000E+00	 0.00000000E+00	 0.00000000E+00	 0.00000000E+00	 0.00000000E+00
		 0.00000000E+00	 0.00000000E+00	 0.00000000E+00	 0.00000000E+00	 0.00000000E+00	 0.00000000E+00
		 0.00000000E+00	 0.00000000E+00	 0.00000000E+00	 0.00000000E+00	 0.00000000E+00	 0.00000000E+00
		 0.00000000E+00	 0.00000000E+00	 0.00000000E+00	 0.00000000E+00	 0.00000000E+00	 0.00000000E+00
		 0.00000000E+00	 0.00000000E+00	 0.00000000E+00	 0.00000000E+00	 0.00000000E+00	 0.00000000E+00
		 0.00000000E+00	 0.00000000E+00	 0.00000000E+00	 0.00000000E+00	 0.00000000E+00	 0.00000000E+00
		 0.00000000E+00	 0.00000000E+00	 0.00000000E+00	 0.00000000E+00	 0.00000000E+00	 0.00000000E+00
		 0.00000000E+00	 0.00000000E+00	 0.00000000E+00	 0.00000000E+00	 0.00000000E+00	 0.00000000E+00
		 0.00000000E+00	 0.00000000E+00	 0.00000000E+00	 0.00000000E+00	 0.00000000E+00	 0.00000000E+00
		 0.00000000E+00	 0.00000000E+00	 0.00000000E+00	 0.00000000E+00	 0.00000000E+00	 0.00000000E+00
		 0.00000000E+00	 0.00000000E+00	 0.00000000E+00	 0.00000000E+00	 0.00000000E+00	 0.00000000E+00
		 0.00000000E+00	 0.00000000E+00	 0.00000000E+00	 0.00000000E+00	 0.00000000E+00	 0.00000000E+00
