<?xml version="1.0"?>
<VTKFile type="UnstructuredGrid" version="0.1" byte_order="LittleEndian">
	<UnstructuredGrid>
		<Piece NumberOfPoints="16" NumberOfCells="2">
			<Points>
				<DataArray type="Float64" NumberOfComponents="3" format="ascii">
					 1.00000000E+00	 1.00000000E+00	-1.49012000E-08
					 1.00000000E+00	 0.00000000E+00	-1.49012000E-08
					 1.00000000E+00	 0.00000000E+00	 1.00000000E+00
					 1.00000000E+00	 1.00000000E+00	 1.00000000E+00
					-7.45058000E-09	 1.00000000E+00	-1.49012000E-08
					-7.45058000E-09	 0.00000000E+00	-1.49012000E-08
					-7.45058000E-09	 0.00000000E+00	 1.00000000E+00
					-7.45058000E-09	 1.00000000E+00	 1.00000000E+00
					 5.00000000E-01	 6.41421000E-01	 1.00000000E+00
					 6.41421000E-01	 5.00000000E-01	 1.00000000E+00
					 6.41421000E-01	 5.00000000E-01	 1.20000000E+00
					 5.00000000E-01	 6.41421000E-01	 1.20000000E+00
					 3.58579000E-01	 5.00000000E-01	 1.00000000E+00
					 5.00000000E-01	 3.58579000E-01	 1.00000000E+00
					 5.00000000E-01	 3.58579000E-01	 1.20000000E+00
					 3.58579000E-01	 5.00000000E-01	 1.20000000E+00
				</DataArray>
			</Points>
			<Cells>
				<DataArray type="Int32" Name="connectivity" format="ascii">
					0 1 2 3 4 5 6 7 8 9 10 11 12 13 14 15 
				</DataArray>
				<DataArray type="Int32" Name="offsets" format="ascii">
					8 16 
				</DataArray>
				<DataArray type="UInt8" Name="types" format="ascii">
					12 12 
				</DataArray>
			</Cells>
			<PointData>
				<DataArray type="Float32" Name="U" NumberOfComponents="3" ComponentName0="D1" ComponentName1="D2" ComponentName2="D3" format="ascii">
					 0.00000000E+00	 0.00000000E+00	 0.00000000E+00
					 0.00000000E+00	 0.00000000E+00	 0.00000000E+00
					 2.01556000E-06	 3.46579000E-06	-1.01619000E-05
					 5.41509000E-06	 1.08970000E-05	-2.45157000E-05
					 0.00000000E+00	 0.00000000E+00	 0.00000000E+00
					 0.00000000E+00	 0.00000000E+00	 0.00000000E+00
					-2.01556000E-06	 3.46579000E-06	-1.01618000E-05
					-5.41508000E-06	 1.08970000E-05	-2.45157000E-05
					-1.22232000E-13	 1.00037000E-01	-3.08112000E-05
					 2.02135000E-05	 1.00017000E-01	-2.87761000E-05
					 2.02232000E-05	 1.00020000E-01	-1.24112000E-04
					 0.00000000E+00	 1.00040000E-01	-1.26169000E-04
					-2.02135000E-05	 1.00017000E-01	-2.87761000E-05
					-1.22249000E-13	 9.99970000E-02	-2.67339000E-05
					 0.00000000E+00	 1.00000000E-01	-1.22031000E-04
					-2.02232000E-05	 1.00020000E-01	-1.24112000E-04
				</DataArray>
				<DataArray type="Float32" Name="S" NumberOfComponents="10" ComponentName0="xx" ComponentName1="yy" ComponentName2="zz" ComponentName3="xy" ComponentName4="yz" ComponentName5="zx" ComponentName6="Mises" ComponentName7="Min Principal" ComponentName8="Mid Principal" ComponentName9="Max Principal" format="ascii">
					-2.97017000E+00	-2.97015000E+00	-6.92997000E+00	 7.39621000E-06	 8.80069000E-01	 4.37335000E-01	 4.31015606E+00	-7.16045058E+00	-2.97017193E+00	-2.73966749E+00
					-1.23113000E+00	-1.23113000E+00	-2.87250000E+00	-2.29246000E-07	 2.79928000E-01	 1.62793000E-01	 1.73455447E+00	-2.93407637E+00	-1.23112980E+00	-1.16955383E+00
					 8.08780000E-01	 1.35803000E+00	-1.48376000E+00	 2.74579000E-01	-8.79414000E-01	 1.62788000E-01	 3.07284566E+00	-1.75494322E+00	 7.72505711E-01	 1.66548751E+00
					 9.91852000E-01	 4.42776000E-01	-4.71750000E+00	 2.74586000E-01	-2.79219000E-01	 4.37342000E-01	 5.54952275E+00	-4.76803009E+00	 3.63813587E-01	 1.12134450E+00
					-2.97016000E+00	-2.97015000E+00	-6.92997000E+00	-7.39621000E-06	 8.80069000E-01	-4.37335000E-01	 4.31016066E+00	-7.16045048E+00	-2.97016391E+00	-2.73966561E+00
					-1.23113000E+00	-1.23113000E+00	-2.87250000E+00	 2.29246000E-07	 2.79928000E-01	-1.62793000E-01	 1.73455447E+00	-2.93407637E+00	-1.23112980E+00	-1.16955383E+00
					 8.08780000E-01	 1.35803000E+00	-1.48376000E+00	-2.74579000E-01	-8.79414000E-01	-1.62788000E-01	 3.07284566E+00	-1.75494322E+00	 7.72505711E-01	 1.66548751E+00
					 9.91852000E-01	 4.42776000E-01	-4.71750000E+00	-2.74585000E-01	-2.79219000E-01	-4.37342000E-01	 5.54952261E+00	-4.76803008E+00	 3.63814242E-01	 1.12134384E+00
					-2.03937000E-02	-1.47223000E-02	-1.00032000E+02	-7.87367000E-13	 1.84422000E-02	-7.34691000E-11	 1.00014447E+02	-1.00032003E+02	-2.03937000E-02	-1.47188994E-02
					-2.70169000E-03	 8.39774000E-03	-9.99964000E+01	 2.71417000E-03	 9.05327000E-03	 1.88942000E-03	 9.99992499E+01	-9.99964009E+01	-3.32984279E-03	 9.02674806E-03
					-2.14944000E-03	-2.73060000E-02	-1.00007000E+02	-2.02962000E-02	-8.34975000E-03	-2.67973000E-03	 9.99922820E+01	-1.00007001E+02	-3.86047705E-02	 9.15009973E-03
					 1.46739000E-02	 3.01100000E-02	-1.00008000E+02	-1.00172000E-11	 5.60801000E-03	-7.00088000E-11	 1.00030393E+02	-1.00008000E+02	 1.46739000E-02	 3.01103144E-02
					-2.70169000E-03	 8.39774000E-03	-9.99964000E+01	-2.71417000E-03	 9.05327000E-03	-1.88942000E-03	 9.99992499E+01	-9.99964009E+01	-3.32984279E-03	 9.02674806E-03
					 2.46897000E-02	 4.12181000E-02	-9.99380000E+01	-1.61197000E-11	 3.21454000E-02	-6.66612000E-11	 9.99709704E+01	-9.99380103E+01	 2.46897000E-02	 4.12284354E-02
					-9.27347000E-03	-7.50217000E-02	-9.99830000E+01	 2.03940000E-11	 1.01736000E-02	-6.32011000E-11	 9.99408702E+01	-9.99830010E+01	-7.50206640E-02	-9.27347000E-03
					-2.14944000E-03	-2.73060000E-02	-1.00007000E+02	 2.02962000E-02	-8.34975000E-03	 2.67973000E-03	 9.99922820E+01	-1.00007001E+02	-3.86047705E-02	 9.15009973E-03
				</DataArray>
				<DataArray type="Float32" Name="CONTACT" NumberOfComponents="6" ComponentName0="COPEN" ComponentName1="CSLIP1" ComponentName2="CSLIP2" ComponentName3="CPRESS" ComponentName4="CSHEAR1" ComponentName5="CSHEAR2" format="ascii">
					 0.00000000E+00	 0.00000000E+00	 0.00000000E+00	 0.00000000E+00	 0.00000000E+00	 0.00000000E+00
					 0.00000000E+00	 0.00000000E+00	 0.00000000E+00	 0.00000000E+00	 0.00000000E+00	 0.00000000E+00
					 0.00000000E+00	 0.00000000E+00	 0.00000000E+00	 0.00000000E+00	 0.00000000E+00	 0.00000000E+00
					 0.00000000E+00	 0.00000000E+00	 0.00000000E+00	 0.00000000E+00	 0.00000000E+00	 0.00000000E+00
					 0.00000000E+00	 0.00000000E+00	 0.00000000E+00	 0.00000000E+00	 0.00000000E+00	 0.00000000E+00
					 0.00000000E+00	 0.00000000E+00	 0.00000000E+00	 0.00000000E+00	 0.00000000E+00	 0.00000000E+00
					 0.00000000E+00	 0.00000000E+00	 0.00000000E+00	 0.00000000E+00	 0.00000000E+00	 0.00000000E+00
					 0.00000000E+00	 0.00000000E+00	 0.00000000E+00	 0.00000000E+00	 0.00000000E+00	 0.00000000E+00
					-1.00056000E-05	-4.63756000E-13	 1.00025000E-01	 1.00056000E+02	-2.86038000E-12	 9.89895000E-03
					-1.00018000E-05	 1.52150000E-05	 1.00009000E-01	 1.00018000E+02	-1.62080000E-06	 9.89508000E-03
					 0.00000000E+00	 0.00000000E+00	 0.00000000E+00	 0.00000000E+00	 0.00000000E+00	 0.00000000E+00
					 0.00000000E+00	 0.00000000E+00	 0.00000000E+00	 0.00000000E+00	 0.00000000E+00	 0.00000000E+00
					-1.00018000E-05	-1.52150000E-05	 1.00009000E-01	 1.00018000E+02	 1.62075000E-06	 9.89508000E-03
					-9.99217000E-06	-4.48497000E-13	 9.99940000E-02	 9.99217000E+01	-5.59590000E-12	 9.88547000E-03
					 0.00000000E+00	 0.00000000E+00	 0.00000000E+00	 0.00000000E+00	 0.00000000E+00	 0.00000000E+00
					 0.00000000E+00	 0.00000000E+00	 0.00000000E+00	 0.00000000E+00	 0.00000000E+00	 0.00000000E+00
				</DataArray>
			</PointData>
		</Piece>
	</UnstructuredGrid>
</VTKFile>