<?xml version="1.0"?>
<VTKFile type="UnstructuredGrid" version="0.1" byte_order="LittleEndian">
	<UnstructuredGrid>
		<Piece NumberOfPoints="16" NumberOfCells="2">
			<Points>
				<DataArray type="Float64" NumberOfComponents="3" format="ascii">
					 1.00000000E+00	 1.00000000E+00	-1.49012000E-08
					 1.00000000E+00	 0.00000000E+00	-1.49012000E-08
					 1.00000000E+00	 0.00000000E+00	 1.00000000E+00
					 1.00000000E+00	 1.00000000E+00	 1.00000000E+00
					-7.45058000E-09	 1.00000000E+00	-1.49012000E-08
					-7.45058000E-09	 0.00000000E+00	-1.49012000E-08
					-7.45058000E-09	 0.00000000E+00	 1.00000000E+00
					-7.45058000E-09	 1.00000000E+00	 1.00000000E+00
					 5.00000000E-01	 6.41421000E-01	 1.00000000E+00
					 6.41421000E-01	 5.00000000E-01	 1.00000000E+00
					 6.41421000E-01	 5.00000000E-01	 1.20000000E+00
					 5.00000000E-01	 6.41421000E-01	 1.20000000E+00
					 3.58579000E-01	 5.00000000E-01	 1.00000000E+00
					 5.00000000E-01	 3.58579000E-01	 1.00000000E+00
					 5.00000000E-01	 3.58579000E-01	 1.20000000E+00
					 3.58579000E-01	 5.00000000E-01	 1.20000000E+00
				</DataArray>
			</Points>
			<Cells>
				<DataArray type="Int32" Name="connectivity" format="ascii">
					0 1 2 3 4 5 6 7 8 9 10 11 12 13 14 15 
				</DataArray>
				<DataArray type="Int32" Name="offsets" format="ascii">
					8 16 
				</DataArray>
				<DataArray type="UInt8" Name="types" format="ascii">
					12 12 
				</DataArray>
			</Cells>
			<PointData>
				<DataArray type="Float32" Name="U" NumberOfComponents="3" ComponentName0="D1" ComponentName1="D2" ComponentName2="D3" format="ascii">
					 0.00000000E+00	 0.00000000E+00	 0.00000000E+00
					 0.00000000E+00	 0.00000000E+00	 0.00000000E+00
					 3.38909000E-06	-3.38127000E-06	-1.58162000E-05
					 3.39140000E-06	 3.39913000E-06	-1.58260000E-05
					 0.00000000E+00	 0.00000000E+00	 0.00000000E+00
					 0.00000000E+00	 0.00000000E+00	 0.00000000E+00
					-3.38909000E-06	-3.38127000E-06	-1.58162000E-05
					-3.39140000E-06	 3.39913000E-06	-1.58260000E-05
					-1.04023000E-13	 3.68173000E-05	-2.69260000E-05
					 1.84421000E-05	 1.83687000E-05	-2.69199000E-05
					 1.84528000E-05	 1.84042000E-05	-1.13906000E-04
					 0.00000000E+00	 3.68671000E-05	-1.13930000E-04
					-1.84421000E-05	 1.83687000E-05	-2.69199000E-05
					-1.03912000E-13	-8.75727000E-08	-2.69063000E-05
					 0.00000000E+00	 0.00000000E+00	-1.13860000E-04
					-1.84528000E-05	 1.84042000E-05	-1.13906000E-04
				</DataArray>
				<DataArray type="Float32" Name="S" NumberOfComponents="10" ComponentName0="xx" ComponentName1="yy" ComponentName2="zz" ComponentName3="xy" ComponentName4="yz" ComponentName5="zx" ComponentName6="Mises" ComponentName7="Min Principal" ComponentName8="Mid Principal" ComponentName9="Max Principal" format="ascii">
					-1.91736000E+00	-1.91736000E+00	-4.47362000E+00	 1.86111000E-06	 2.74528000E-01	 2.73904000E-01	 2.64303467E+00	-4.53115658E+00	-1.91736186E+00	-1.85982156E+00
					-1.91618000E+00	-1.91618000E+00	-4.47087000E+00	-1.85212000E-06	-2.73086000E-01	 2.73718000E-01	 2.64100994E+00	-4.52810645E+00	-1.91618185E+00	-1.85894170E+00
					 8.21465000E-01	 8.21822000E-01	-2.82819000E+00	 1.84224000E-04	-2.73878000E-01	 2.73723000E-01	 3.71094127E+00	-2.86881930E+00	 8.21826839E-01	 8.62089461E-01
					 8.21588000E-01	 8.21201000E-01	-2.83038000E+00	 1.87958000E-04	 2.73747000E-01	 2.73909000E-01	 3.71286249E+00	-2.87099219E+00	 8.21205525E-01	 8.62195668E-01
					-1.91736000E+00	-1.91736000E+00	-4.47362000E+00	-1.86111000E-06	 2.74528000E-01	-2.73904000E-01	 2.64303467E+00	-4.53115658E+00	-1.91736186E+00	-1.85982156E+00
					-1.91618000E+00	-1.91618000E+00	-4.47087000E+00	 1.85212000E-06	-2.73086000E-01	-2.73718000E-01	 2.64100994E+00	-4.52810645E+00	-1.91618185E+00	-1.85894170E+00
					 8.21465000E-01	 8.21822000E-01	-2.82819000E+00	-1.84244000E-04	-2.73878000E-01	-2.73723000E-01	 3.71094127E+00	-2.86881930E+00	 8.21826859E-01	 8.62089441E-01
					 8.21588000E-01	 8.21201000E-01	-2.83038000E+00	-1.87937000E-04	 2.73747000E-01	-2.73909000E-01	 3.71286249E+00	-2.87099219E+00	 8.21205546E-01	 8.62195647E-01
					-2.00219000E-02	-1.26334000E-02	-9.12768000E+01	 1.40212000E-10	 1.65892000E-02	-4.47711000E-10	 9.12604771E+01	-9.12768030E+01	-2.00219000E-02	-1.26303846E-02
					-5.69464000E-03	 6.12935000E-03	-9.12478000E+01	 2.21776000E-03	 8.68120000E-03	 2.20033000E-03	 9.12480193E+01	-9.12478009E+01	-6.09692183E-03	 6.53251074E-03
					-4.23108000E-04	-2.24624000E-02	-9.12548000E+01	-1.67660000E-02	-5.70562000E-03	-1.82087000E-03	 9.12433645E+01	-9.12548004E+01	-3.15055582E-02	 8.62044345E-03
					 1.37253000E-02	 2.52180000E-02	-9.12553000E+01	-2.16410000E-10	 6.22363000E-03	-2.35273000E-10	 9.12747728E+01	-9.12553004E+01	 1.37253000E-02	 2.52184243E-02
					-5.69464000E-03	 6.12935000E-03	-9.12478000E+01	-2.21776000E-03	 8.68120000E-03	-2.20033000E-03	 9.12480193E+01	-9.12478009E+01	-6.09692183E-03	 6.53251074E-03
					 1.71677000E-02	 3.34272000E-02	-9.11990000E+01	-2.40610000E-10	 2.75747000E-02	-4.92483000E-10	 9.12243110E+01	-9.11990083E+01	 1.71677000E-02	 3.34355344E-02
					-6.03644000E-03	-6.16077000E-02	-9.12344000E+01	 2.49204000E-10	 9.16665000E-03	-2.80040000E-10	 9.12005920E+01	-9.12344009E+01	-6.16067784E-02	-6.03644000E-03
					-4.23110000E-04	-2.24624000E-02	-9.12548000E+01	 1.67660000E-02	-5.70562000E-03	 1.82087000E-03	 9.12433645E+01	-9.12548004E+01	-3.15055587E-02	 8.62044190E-03
				</DataArray>
				<DataArray type="Float32" Name="CONTACT" NumberOfComponents="6" ComponentName0="COPEN" ComponentName1="CSLIP1" ComponentName2="CSLIP2" ComponentName3="CPRESS" ComponentName4="CSHEAR1" ComponentName5="CSHEAR2" format="ascii">
					 0.00000000E+00	 0.00000000E+00	 0.00000000E+00	 0.00000000E+00	 0.00000000E+00	 0.00000000E+00
					 0.00000000E+00	 0.00000000E+00	 0.00000000E+00	 0.00000000E+00	 0.00000000E+00	 0.00000000E+00
					 0.00000000E+00	 0.00000000E+00	 0.00000000E+00	 0.00000000E+00	 0.00000000E+00	 0.00000000E+00
					 0.00000000E+00	 0.00000000E+00	 0.00000000E+00	 0.00000000E+00	 0.00000000E+00	 0.00000000E+00
					 0.00000000E+00	 0.00000000E+00	 0.00000000E+00	 0.00000000E+00	 0.00000000E+00	 0.00000000E+00
					 0.00000000E+00	 0.00000000E+00	 0.00000000E+00	 0.00000000E+00	 0.00000000E+00	 0.00000000E+00
					 0.00000000E+00	 0.00000000E+00	 0.00000000E+00	 0.00000000E+00	 0.00000000E+00	 0.00000000E+00
					 0.00000000E+00	 0.00000000E+00	 0.00000000E+00	 0.00000000E+00	 0.00000000E+00	 0.00000000E+00
					-9.13046000E-06	-4.10016000E-13	 3.23064000E-05	 9.13046000E+01	-1.90930000E-10	 9.12178000E-03
					-9.12744000E-06	 1.39415000E-05	 1.83597000E-05	 9.12744000E+01	 5.87155000E-03	 8.29407000E-03
					 0.00000000E+00	 0.00000000E+00	 0.00000000E+00	 0.00000000E+00	 0.00000000E+00	 0.00000000E+00
					 0.00000000E+00	 0.00000000E+00	 0.00000000E+00	 0.00000000E+00	 0.00000000E+00	 0.00000000E+00
					-9.12744000E-06	-1.39415000E-05	 1.83597000E-05	 9.12744000E+01	-5.87155000E-03	 8.29407000E-03
					-9.11935000E-06	-4.09922000E-13	 4.40682000E-06	 9.11935000E+01	-4.79121000E-10	 6.00497000E-03
					 0.00000000E+00	 0.00000000E+00	 0.00000000E+00	 0.00000000E+00	 0.00000000E+00	 0.00000000E+00
					 0.00000000E+00	 0.00000000E+00	 0.00000000E+00	 0.00000000E+00	 0.00000000E+00	 0.00000000E+00
				</DataArray>
			</PointData>
		</Piece>
	</UnstructuredGrid>
</VTKFile>