<?xml version="1.0"?>
<VTKFile type="UnstructuredGrid" version="0.1" byte_order="LittleEndian">
	<UnstructuredGrid>
		<Piece NumberOfPoints="261" NumberOfCells="32">
			<Points>
				<DataArray type="Float64" NumberOfComponents="3" format="ascii">
					 0.00000000E+00	 0.00000000E+00	 0.00000000E+00
					 1.00000000E+00	 0.00000000E+00	 0.00000000E+00
					 1.00000000E+00	 1.00000000E+00	 0.00000000E+00
					 0.00000000E+00	 1.00000000E+00	 0.00000000E+00
					 0.00000000E+00	 0.00000000E+00	 8.00000000E+00
					 1.00000000E+00	 0.00000000E+00	 8.00000000E+00
					 1.00000000E+00	 1.00000000E+00	 8.00000000E+00
					 0.00000000E+00	 1.00000000E+00	 8.00000000E+00
					 2.50000000E-01	 0.00000000E+00	 0.00000000E+00
					 5.00000000E-01	 0.00000000E+00	 0.00000000E+00
					 7.50000000E-01	 0.00000000E+00	 0.00000000E+00
					 1.00000000E+00	 2.50000000E-01	 0.00000000E+00
					 1.00000000E+00	 5.00000000E-01	 0.00000000E+00
					 1.00000000E+00	 7.50000000E-01	 0.00000000E+00
					 7.50000000E-01	 1.00000000E+00	 0.00000000E+00
					 5.00000000E-01	 1.00000000E+00	 0.00000000E+00
					 2.50000000E-01	 1.00000000E+00	 0.00000000E+00
					 0.00000000E+00	 7.50000000E-01	 0.00000000E+00
					 0.00000000E+00	 5.00000000E-01	 0.00000000E+00
					 0.00000000E+00	 2.50000000E-01	 0.00000000E+00
					 2.50000000E-01	 0.00000000E+00	 8.00000000E+00
					 5.00000000E-01	 0.00000000E+00	 8.00000000E+00
					 7.50000000E-01	 0.00000000E+00	 8.00000000E+00
					 1.00000000E+00	 2.50000000E-01	 8.00000000E+00
					 1.00000000E+00	 5.00000000E-01	 8.00000000E+00
					 1.00000000E+00	 7.50000000E-01	 8.00000000E+00
					 7.50000000E-01	 1.00000000E+00	 8.00000000E+00
					 5.00000000E-01	 1.00000000E+00	 8.00000000E+00
					 2.50000000E-01	 1.00000000E+00	 8.00000000E+00
					 0.00000000E+00	 7.50000000E-01	 8.00000000E+00
					 0.00000000E+00	 5.00000000E-01	 8.00000000E+00
					 0.00000000E+00	 2.50000000E-01	 8.00000000E+00
					 1.00000000E+00	 0.00000000E+00	 5.00000000E-01
					 1.00000000E+00	 0.00000000E+00	 1.00000000E+00
					 1.00000000E+00	 0.00000000E+00	 1.50000000E+00
					 1.00000000E+00	 0.00000000E+00	 2.00000000E+00
					 1.00000000E+00	 0.00000000E+00	 2.50000000E+00
					 1.00000000E+00	 0.00000000E+00	 3.00000000E+00
					 1.00000000E+00	 0.00000000E+00	 3.50000000E+00
					 1.00000000E+00	 0.00000000E+00	 4.00000000E+00
					 1.00000000E+00	 0.00000000E+00	 4.50000000E+00
					 1.00000000E+00	 0.00000000E+00	 5.00000000E+00
					 1.00000000E+00	 0.00000000E+00	 5.50000000E+00
					 1.00000000E+00	 0.00000000E+00	 6.00000000E+00
					 1.00000000E+00	 0.00000000E+00	 6.50000000E+00
					 1.00000000E+00	 0.00000000E+00	 7.00000000E+00
					 1.00000000E+00	 0.00000000E+00	 7.50000000E+00
					 0.00000000E+00	 0.00000000E+00	 7.50000000E+00
					 0.00000000E+00	 0.00000000E+00	 7.00000000E+00
					 0.00000000E+00	 0.00000000E+00	 6.50000000E+00
					 0.00000000E+00	 0.00000000E+00	 6.00000000E+00
					 0.00000000E+00	 0.00000000E+00	 5.50000000E+00
					 0.00000000E+00	 0.00000000E+00	 5.00000000E+00
					 0.00000000E+00	 0.00000000E+00	 4.50000000E+00
					 0.00000000E+00	 0.00000000E+00	 4.00000000E+00
					 0.00000000E+00	 0.00000000E+00	 3.50000000E+00
					 0.00000000E+00	 0.00000000E+00	 3.00000000E+00
					 0.00000000E+00	 0.00000000E+00	 2.50000000E+00
					 0.00000000E+00	 0.00000000E+00	 2.00000000E+00
					 0.00000000E+00	 0.00000000E+00	 1.50000000E+00
					 0.00000000E+00	 0.00000000E+00	 1.00000000E+00
					 0.00000000E+00	 0.00000000E+00	 5.00000000E-01
					 1.00000000E+00	 1.00000000E+00	 5.00000000E-01
					 1.00000000E+00	 1.00000000E+00	 1.00000000E+00
					 1.00000000E+00	 1.00000000E+00	 1.50000000E+00
					 1.00000000E+00	 1.00000000E+00	 2.00000000E+00
					 1.00000000E+00	 1.00000000E+00	 2.50000000E+00
					 1.00000000E+00	 1.00000000E+00	 3.00000000E+00
					 1.00000000E+00	 1.00000000E+00	 3.50000000E+00
					 1.00000000E+00	 1.00000000E+00	 4.00000000E+00
					 1.00000000E+00	 1.00000000E+00	 4.50000000E+00
					 1.00000000E+00	 1.00000000E+00	 5.00000000E+00
					 1.00000000E+00	 1.00000000E+00	 5.50000000E+00
					 1.00000000E+00	 1.00000000E+00	 6.00000000E+00
					 1.00000000E+00	 1.00000000E+00	 6.50000000E+00
					 1.00000000E+00	 1.00000000E+00	 7.00000000E+00
					 1.00000000E+00	 1.00000000E+00	 7.50000000E+00
					 0.00000000E+00	 1.00000000E+00	 5.00000000E-01
					 0.00000000E+00	 1.00000000E+00	 1.00000000E+00
					 0.00000000E+00	 1.00000000E+00	 1.50000000E+00
					 0.00000000E+00	 1.00000000E+00	 2.00000000E+00
					 0.00000000E+00	 1.00000000E+00	 2.50000000E+00
					 0.00000000E+00	 1.00000000E+00	 3.00000000E+00
					 0.00000000E+00	 1.00000000E+00	 3.50000000E+00
					 0.00000000E+00	 1.00000000E+00	 4.00000000E+00
					 0.00000000E+00	 1.00000000E+00	 4.50000000E+00
					 0.00000000E+00	 1.00000000E+00	 5.00000000E+00
					 0.00000000E+00	 1.00000000E+00	 5.50000000E+00
					 0.00000000E+00	 1.00000000E+00	 6.00000000E+00
					 0.00000000E+00	 1.00000000E+00	 6.50000000E+00
					 0.00000000E+00	 1.00000000E+00	 7.00000000E+00
					 0.00000000E+00	 1.00000000E+00	 7.50000000E+00
					 5.00000000E-01	 2.50000000E-01	 0.00000000E+00
					 2.50000000E-01	 5.00000000E-01	 0.00000000E+00
					 5.00000000E-01	 5.00000000E-01	 0.00000000E+00
					 7.50000000E-01	 5.00000000E-01	 0.00000000E+00
					 5.00000000E-01	 7.50000000E-01	 0.00000000E+00
					 5.00000000E-01	 2.50000000E-01	 8.00000000E+00
					 2.50000000E-01	 5.00000000E-01	 8.00000000E+00
					 5.00000000E-01	 5.00000000E-01	 8.00000000E+00
					 7.50000000E-01	 5.00000000E-01	 8.00000000E+00
					 5.00000000E-01	 7.50000000E-01	 8.00000000E+00
					 5.00000000E-01	 0.00000000E+00	 5.00000000E-01
					 2.50000000E-01	 0.00000000E+00	 1.00000000E+00
					 5.00000000E-01	 0.00000000E+00	 1.00000000E+00
					 7.50000000E-01	 0.00000000E+00	 1.00000000E+00
					 5.00000000E-01	 0.00000000E+00	 1.50000000E+00
					 2.50000000E-01	 0.00000000E+00	 2.00000000E+00
					 5.00000000E-01	 0.00000000E+00	 2.00000000E+00
					 7.50000000E-01	 0.00000000E+00	 2.00000000E+00
					 5.00000000E-01	 0.00000000E+00	 2.50000000E+00
					 2.50000000E-01	 0.00000000E+00	 3.00000000E+00
					 5.00000000E-01	 0.00000000E+00	 3.00000000E+00
					 7.50000000E-01	 0.00000000E+00	 3.00000000E+00
					 5.00000000E-01	 0.00000000E+00	 3.50000000E+00
					 2.50000000E-01	 0.00000000E+00	 4.00000000E+00
					 5.00000000E-01	 0.00000000E+00	 4.00000000E+00
					 7.50000000E-01	 0.00000000E+00	 4.00000000E+00
					 5.00000000E-01	 0.00000000E+00	 4.50000000E+00
					 2.50000000E-01	 0.00000000E+00	 5.00000000E+00
					 5.00000000E-01	 0.00000000E+00	 5.00000000E+00
					 7.50000000E-01	 0.00000000E+00	 5.00000000E+00
					 5.00000000E-01	 0.00000000E+00	 5.50000000E+00
					 2.50000000E-01	 0.00000000E+00	 6.00000000E+00
					 5.00000000E-01	 0.00000000E+00	 6.00000000E+00
					 7.50000000E-01	 0.00000000E+00	 6.00000000E+00
					 5.00000000E-01	 0.00000000E+00	 6.50000000E+00
					 2.50000000E-01	 0.00000000E+00	 7.00000000E+00
					 5.00000000E-01	 0.00000000E+00	 7.00000000E+00
					 7.50000000E-01	 0.00000000E+00	 7.00000000E+00
					 5.00000000E-01	 0.00000000E+00	 7.50000000E+00
					 1.00000000E+00	 5.00000000E-01	 5.00000000E-01
					 1.00000000E+00	 2.50000000E-01	 1.00000000E+00
					 1.00000000E+00	 5.00000000E-01	 1.00000000E+00
					 1.00000000E+00	 7.50000000E-01	 1.00000000E+00
					 1.00000000E+00	 5.00000000E-01	 1.50000000E+00
					 1.00000000E+00	 2.50000000E-01	 2.00000000E+00
					 1.00000000E+00	 5.00000000E-01	 2.00000000E+00
					 1.00000000E+00	 7.50000000E-01	 2.00000000E+00
					 1.00000000E+00	 5.00000000E-01	 2.50000000E+00
					 1.00000000E+00	 2.50000000E-01	 3.00000000E+00
					 1.00000000E+00	 5.00000000E-01	 3.00000000E+00
					 1.00000000E+00	 7.50000000E-01	 3.00000000E+00
					 1.00000000E+00	 5.00000000E-01	 3.50000000E+00
					 1.00000000E+00	 2.50000000E-01	 4.00000000E+00
					 1.00000000E+00	 5.00000000E-01	 4.00000000E+00
					 1.00000000E+00	 7.50000000E-01	 4.00000000E+00
					 1.00000000E+00	 5.00000000E-01	 4.50000000E+00
					 1.00000000E+00	 2.50000000E-01	 5.00000000E+00
					 1.00000000E+00	 5.00000000E-01	 5.00000000E+00
					 1.00000000E+00	 7.50000000E-01	 5.00000000E+00
					 1.00000000E+00	 5.00000000E-01	 5.50000000E+00
					 1.00000000E+00	 2.50000000E-01	 6.00000000E+00
					 1.00000000E+00	 5.00000000E-01	 6.00000000E+00
					 1.00000000E+00	 7.50000000E-01	 6.00000000E+00
					 1.00000000E+00	 5.00000000E-01	 6.50000000E+00
					 1.00000000E+00	 2.50000000E-01	 7.00000000E+00
					 1.00000000E+00	 5.00000000E-01	 7.00000000E+00
					 1.00000000E+00	 7.50000000E-01	 7.00000000E+00
					 1.00000000E+00	 5.00000000E-01	 7.50000000E+00
					 5.00000000E-01	 1.00000000E+00	 5.00000000E-01
					 7.50000000E-01	 1.00000000E+00	 1.00000000E+00
					 5.00000000E-01	 1.00000000E+00	 1.00000000E+00
					 2.50000000E-01	 1.00000000E+00	 1.00000000E+00
					 5.00000000E-01	 1.00000000E+00	 1.50000000E+00
					 7.50000000E-01	 1.00000000E+00	 2.00000000E+00
					 5.00000000E-01	 1.00000000E+00	 2.00000000E+00
					 2.50000000E-01	 1.00000000E+00	 2.00000000E+00
					 5.00000000E-01	 1.00000000E+00	 2.50000000E+00
					 7.50000000E-01	 1.00000000E+00	 3.00000000E+00
					 5.00000000E-01	 1.00000000E+00	 3.00000000E+00
					 2.50000000E-01	 1.00000000E+00	 3.00000000E+00
					 5.00000000E-01	 1.00000000E+00	 3.50000000E+00
					 7.50000000E-01	 1.00000000E+00	 4.00000000E+00
					 5.00000000E-01	 1.00000000E+00	 4.00000000E+00
					 2.50000000E-01	 1.00000000E+00	 4.00000000E+00
					 5.00000000E-01	 1.00000000E+00	 4.50000000E+00
					 7.50000000E-01	 1.00000000E+00	 5.00000000E+00
					 5.00000000E-01	 1.00000000E+00	 5.00000000E+00
					 2.50000000E-01	 1.00000000E+00	 5.00000000E+00
					 5.00000000E-01	 1.00000000E+00	 5.50000000E+00
					 7.50000000E-01	 1.00000000E+00	 6.00000000E+00
					 5.00000000E-01	 1.00000000E+00	 6.00000000E+00
					 2.50000000E-01	 1.00000000E+00	 6.00000000E+00
					 5.00000000E-01	 1.00000000E+00	 6.50000000E+00
					 7.50000000E-01	 1.00000000E+00	 7.00000000E+00
					 5.00000000E-01	 1.00000000E+00	 7.00000000E+00
					 2.50000000E-01	 1.00000000E+00	 7.00000000E+00
					 5.00000000E-01	 1.00000000E+00	 7.50000000E+00
					 0.00000000E+00	 5.00000000E-01	 5.00000000E-01
					 0.00000000E+00	 7.50000000E-01	 1.00000000E+00
					 0.00000000E+00	 5.00000000E-01	 1.00000000E+00
					 0.00000000E+00	 2.50000000E-01	 1.00000000E+00
					 0.00000000E+00	 5.00000000E-01	 1.50000000E+00
					 0.00000000E+00	 7.50000000E-01	 2.00000000E+00
					 0.00000000E+00	 5.00000000E-01	 2.00000000E+00
					 0.00000000E+00	 2.50000000E-01	 2.00000000E+00
					 0.00000000E+00	 5.00000000E-01	 2.50000000E+00
					 0.00000000E+00	 7.50000000E-01	 3.00000000E+00
					 0.00000000E+00	 5.00000000E-01	 3.00000000E+00
					 0.00000000E+00	 2.50000000E-01	 3.00000000E+00
					 0.00000000E+00	 5.00000000E-01	 3.50000000E+00
					 0.00000000E+00	 7.50000000E-01	 4.00000000E+00
					 0.00000000E+00	 5.00000000E-01	 4.00000000E+00
					 0.00000000E+00	 2.50000000E-01	 4.00000000E+00
					 0.00000000E+00	 5.00000000E-01	 4.50000000E+00
					 0.00000000E+00	 7.50000000E-01	 5.00000000E+00
					 0.00000000E+00	 5.00000000E-01	 5.00000000E+00
					 0.00000000E+00	 2.50000000E-01	 5.00000000E+00
					 0.00000000E+00	 5.00000000E-01	 5.50000000E+00
					 0.00000000E+00	 7.50000000E-01	 6.00000000E+00
					 0.00000000E+00	 5.00000000E-01	 6.00000000E+00
					 0.00000000E+00	 2.50000000E-01	 6.00000000E+00
					 0.00000000E+00	 5.00000000E-01	 6.50000000E+00
					 0.00000000E+00	 7.50000000E-01	 7.00000000E+00
					 0.00000000E+00	 5.00000000E-01	 7.00000000E+00
					 0.00000000E+00	 2.50000000E-01	 7.00000000E+00
					 0.00000000E+00	 5.00000000E-01	 7.50000000E+00
					 5.00000000E-01	 5.00000000E-01	 5.00000000E-01
					 5.00000000E-01	 2.50000000E-01	 1.00000000E+00
					 2.50000000E-01	 5.00000000E-01	 1.00000000E+00
					 5.00000000E-01	 5.00000000E-01	 1.00000000E+00
					 7.50000000E-01	 5.00000000E-01	 1.00000000E+00
					 5.00000000E-01	 7.50000000E-01	 1.00000000E+00
					 5.00000000E-01	 5.00000000E-01	 1.50000000E+00
					 5.00000000E-01	 2.50000000E-01	 2.00000000E+00
					 2.50000000E-01	 5.00000000E-01	 2.00000000E+00
					 5.00000000E-01	 5.00000000E-01	 2.00000000E+00
					 7.50000000E-01	 5.00000000E-01	 2.00000000E+00
					 5.00000000E-01	 7.50000000E-01	 2.00000000E+00
					 5.00000000E-01	 5.00000000E-01	 2.50000000E+00
					 5.00000000E-01	 2.50000000E-01	 3.00000000E+00
					 2.50000000E-01	 5.00000000E-01	 3.00000000E+00
					 5.00000000E-01	 5.00000000E-01	 3.00000000E+00
					 7.50000000E-01	 5.00000000E-01	 3.00000000E+00
					 5.00000000E-01	 7.50000000E-01	 3.00000000E+00
					 5.00000000E-01	 5.00000000E-01	 3.50000000E+00
					 5.00000000E-01	 2.50000000E-01	 4.00000000E+00
					 2.50000000E-01	 5.00000000E-01	 4.00000000E+00
					 5.00000000E-01	 5.00000000E-01	 4.00000000E+00
					 7.50000000E-01	 5.00000000E-01	 4.00000000E+00
					 5.00000000E-01	 7.50000000E-01	 4.00000000E+00
					 5.00000000E-01	 5.00000000E-01	 4.50000000E+00
					 5.00000000E-01	 2.50000000E-01	 5.00000000E+00
					 2.50000000E-01	 5.00000000E-01	 5.00000000E+00
					 5.00000000E-01	 5.00000000E-01	 5.00000000E+00
					 7.50000000E-01	 5.00000000E-01	 5.00000000E+00
					 5.00000000E-01	 7.50000000E-01	 5.00000000E+00
					 5.00000000E-01	 5.00000000E-01	 5.50000000E+00
					 5.00000000E-01	 2.50000000E-01	 6.00000000E+00
					 2.50000000E-01	 5.00000000E-01	 6.00000000E+00
					 5.00000000E-01	 5.00000000E-01	 6.00000000E+00
					 7.50000000E-01	 5.00000000E-01	 6.00000000E+00
					 5.00000000E-01	 7.50000000E-01	 6.00000000E+00
					 5.00000000E-01	 5.00000000E-01	 6.50000000E+00
					 5.00000000E-01	 2.50000000E-01	 7.00000000E+00
					 2.50000000E-01	 5.00000000E-01	 7.00000000E+00
					 5.00000000E-01	 5.00000000E-01	 7.00000000E+00
					 7.50000000E-01	 5.00000000E-01	 7.00000000E+00
					 5.00000000E-01	 7.50000000E-01	 7.00000000E+00
					 5.00000000E-01	 5.00000000E-01	 7.50000000E+00
				</DataArray>
			</Points>
			<Cells>
				<DataArray type="Int32" Name="connectivity" format="ascii">
					0 9 94 18 60 104 221 191 8 92 93 19 103 219 220 192 61 102 218 189 9 1 12 94 104 33 133 221 10 11 95 92 105 132 222 219 102 32 131 218 18 94 15 3 191 221 162 78 93 96 16 17 220 223 163 190 189 218 160 77 94 12 2 15 221 133 63 162 95 13 14 96 222 134 161 223 218 131 62 160 60 104 221 191 58 108 227 195 103 219 220 192 107 225 226 196 59 106 224 193 104 33 133 221 108 35 137 227 105 132 222 219 109 136 228 225 106 34 135 224 191 221 162 78 195 227 166 80 220 223 163 190 226 229 167 194 193 224 164 79 221 133 63 162 227 137 65 166 222 134 161 223 228 138 165 229 224 135 64 164 58 108 227 195 56 112 233 199 107 225 226 196 111 231 232 200 57 110 230 197 108 35 137 227 112 37 141 233 109 136 228 225 113 140 234 231 110 36 139 230 195 227 166 80 199 233 170 82 226 229 167 194 232 235 171 198 197 230 168 81 227 137 65 166 233 141 67 170 228 138 165 229 234 142 169 235 230 139 66 168 56 112 233 199 54 116 239 203 111 231 232 200 115 237 238 204 55 114 236 201 112 37 141 233 116 39 145 239 113 140 234 231 117 144 240 237 114 38 143 236 199 233 170 82 203 239 174 84 232 235 171 198 238 241 175 202 201 236 172 83 233 141 67 170 239 145 69 174 234 142 169 235 240 146 173 241 236 143 68 172 54 116 239 203 52 120 245 207 115 237 238 204 119 243 244 208 53 118 242 205 116 39 145 239 120 41 149 245 117 144 240 237 121 148 246 243 118 40 147 242 203 239 174 84 207 245 178 86 238 241 175 202 244 247 179 206 205 242 176 85 239 145 69 174 245 149 71 178 240 146 173 241 246 150 177 247 242 147 70 176 52 120 245 207 50 124 251 211 119 243 244 208 123 249 250 212 51 122 248 209 120 41 149 245 124 43 153 251 121 148 246 243 125 152 252 249 122 42 151 248 207 245 178 86 211 251 182 88 244 247 179 206 250 253 183 210 209 248 180 87 245 149 71 178 251 153 73 182 246 150 177 247 252 154 181 253 248 151 72 180 50 124 251 211 48 128 257 215 123 249 250 212 127 255 256 216 49 126 254 213 124 43 153 251 128 45 157 257 125 152 252 249 129 156 258 255 126 44 155 254 211 251 182 88 215 257 186 90 250 253 183 210 256 259 187 214 213 254 184 89 251 153 73 182 257 157 75 186 252 154 181 253 258 158 185 259 254 155 74 184 48 128 257 215 4 21 99 30 127 255 256 216 20 97 98 31 47 130 260 217 128 45 157 257 21 5 24 99 129 156 258 255 22 23 100 97 130 46 159 260 215 257 186 90 30 99 27 7 256 259 187 214 98 101 28 29 217 260 188 91 257 157 75 186 99 24 6 27 258 158 185 259 100 25 26 101 260 159 76 188 
				</DataArray>
				<DataArray type="Int32" Name="offsets" format="ascii">
					20 40 60 80 100 120 140 160 180 200 220 240 260 280 300 320 340 360 380 400 420 440 460 480 500 520 540 560 580 600 620 640 
				</DataArray>
				<DataArray type="UInt8" Name="types" format="ascii">
					25 25 25 25 25 25 25 25 25 25 25 25 25 25 25 25 25 25 25 25 25 25 25 25 25 25 25 25 25 25 25 25 
				</DataArray>
			</Cells>
			<PointData>
				<DataArray type="Float32" Name="U" NumberOfComponents="3" ComponentName0="D1" ComponentName1="D2" ComponentName2="D3" format="ascii">
					 0.00000000E+00	 0.00000000E+00	 0.00000000E+00
					 0.00000000E+00	 0.00000000E+00	 0.00000000E+00
					 0.00000000E+00	 0.00000000E+00	 0.00000000E+00
					 0.00000000E+00	 0.00000000E+00	 0.00000000E+00
					-4.08740000E-05	 8.76882000E-02	 8.18055000E-03
					 4.08740000E-05	 8.76882000E-02	 8.18055000E-03
					-4.08740000E-05	 8.76882000E-02	-8.18055000E-03
					 4.08740000E-05	 8.76882000E-02	-8.18055000E-03
					 0.00000000E+00	 0.00000000E+00	 0.00000000E+00
					 0.00000000E+00	 0.00000000E+00	 0.00000000E+00
					 0.00000000E+00	 0.00000000E+00	 0.00000000E+00
					 0.00000000E+00	 0.00000000E+00	 0.00000000E+00
					 0.00000000E+00	 0.00000000E+00	 0.00000000E+00
					 0.00000000E+00	 0.00000000E+00	 0.00000000E+00
					 0.00000000E+00	 0.00000000E+00	 0.00000000E+00
					 0.00000000E+00	 0.00000000E+00	 0.00000000E+00
					 0.00000000E+00	 0.00000000E+00	 0.00000000E+00
					 0.00000000E+00	 0.00000000E+00	 0.00000000E+00
					 0.00000000E+00	 0.00000000E+00	 0.00000000E+00
					 0.00000000E+00	 0.00000000E+00	 0.00000000E+00
					-1.86749000E-05	 8.76020000E-02	 8.17275000E-03
					 3.33453000E-14	 8.75946000E-02	 8.15563000E-03
					 1.86749000E-05	 8.76020000E-02	 8.17275000E-03
					 1.05820000E-07	 8.76211000E-02	 4.06352000E-03
					 2.78766000E-14	 8.75762000E-02	-1.73949000E-15
					-1.05820000E-07	 8.76211000E-02	-4.06352000E-03
					-1.86749000E-05	 8.76020000E-02	-8.17275000E-03
					 2.23556000E-14	 8.75946000E-02	-8.15563000E-03
					 1.86749000E-05	 8.76020000E-02	-8.17275000E-03
					 1.05820000E-07	 8.76211000E-02	-4.06352000E-03
					 2.79089000E-14	 8.75762000E-02	 2.21821000E-15
					-1.05820000E-07	 8.76211000E-02	 4.06352000E-03
					-3.08705000E-04	 5.37976000E-04	 9.25895000E-04
					-2.25039000E-04	 1.91981000E-03	 1.85455000E-03
					-2.54181000E-04	 4.32007000E-03	 2.72644000E-03
					-2.24346000E-04	 7.48314000E-03	 3.53248000E-03
					-2.13262000E-04	 1.14690000E-02	 4.26708000E-03
					-1.90925000E-04	 1.61276000E-02	 4.94310000E-03
					-1.73893000E-04	 2.14480000E-02	 5.55320000E-03
					-1.53764000E-04	 2.73364000E-02	 6.10075000E-03
					-1.35230000E-04	 3.37436000E-02	 6.58178000E-03
					-1.16437000E-04	 4.05999000E-02	 7.00012000E-03
					-9.53461000E-05	 4.78405000E-02	 7.35345000E-03
					-7.64218000E-05	 5.54125000E-02	 7.64461000E-03
					-5.95948000E-05	 6.32162000E-02	 7.86643000E-03
					-4.88620000E-05	 7.12406000E-02	 8.02733000E-03
					-3.80196000E-06	 7.93821000E-02	 8.12647000E-03
					 3.80196000E-06	 7.93821000E-02	 8.12647000E-03
					 4.88620000E-05	 7.12406000E-02	 8.02733000E-03
					 5.95948000E-05	 6.32162000E-02	 7.86643000E-03
					 7.64218000E-05	 5.54125000E-02	 7.64461000E-03
					 9.53461000E-05	 4.78405000E-02	 7.35345000E-03
					 1.16437000E-04	 4.05999000E-02	 7.00012000E-03
					 1.35230000E-04	 3.37436000E-02	 6.58178000E-03
					 1.53764000E-04	 2.73364000E-02	 6.10075000E-03
					 1.73893000E-04	 2.14480000E-02	 5.55320000E-03
					 1.90925000E-04	 1.61276000E-02	 4.94310000E-03
					 2.13262000E-04	 1.14690000E-02	 4.26708000E-03
					 2.24346000E-04	 7.48314000E-03	 3.53248000E-03
					 2.54181000E-04	 4.32007000E-03	 2.72644000E-03
					 2.25039000E-04	 1.91981000E-03	 1.85455000E-03
					 3.08705000E-04	 5.37976000E-04	 9.25895000E-04
					 3.08705000E-04	 5.37976000E-04	-9.25895000E-04
					 2.25039000E-04	 1.91981000E-03	-1.85455000E-03
					 2.54181000E-04	 4.32007000E-03	-2.72644000E-03
					 2.24346000E-04	 7.48314000E-03	-3.53248000E-03
					 2.13262000E-04	 1.14690000E-02	-4.26708000E-03
					 1.90925000E-04	 1.61276000E-02	-4.94310000E-03
					 1.73893000E-04	 2.14480000E-02	-5.55320000E-03
					 1.53764000E-04	 2.73364000E-02	-6.10075000E-03
					 1.35230000E-04	 3.37436000E-02	-6.58178000E-03
					 1.16437000E-04	 4.05999000E-02	-7.00012000E-03
					 9.53461000E-05	 4.78405000E-02	-7.35345000E-03
					 7.64218000E-05	 5.54125000E-02	-7.64461000E-03
					 5.95948000E-05	 6.32162000E-02	-7.86643000E-03
					 4.88620000E-05	 7.12406000E-02	-8.02733000E-03
					 3.80196000E-06	 7.93821000E-02	-8.12647000E-03
					-3.08705000E-04	 5.37976000E-04	-9.25895000E-04
					-2.25039000E-04	 1.91981000E-03	-1.85455000E-03
					-2.54181000E-04	 4.32007000E-03	-2.72644000E-03
					-2.24346000E-04	 7.48314000E-03	-3.53248000E-03
					-2.13262000E-04	 1.14690000E-02	-4.26708000E-03
					-1.90925000E-04	 1.61276000E-02	-4.94310000E-03
					-1.73893000E-04	 2.14480000E-02	-5.55320000E-03
					-1.53764000E-04	 2.73364000E-02	-6.10075000E-03
					-1.35230000E-04	 3.37436000E-02	-6.58178000E-03
					-1.16437000E-04	 4.05999000E-02	-7.00012000E-03
					-9.53461000E-05	 4.78405000E-02	-7.35345000E-03
					-7.64218000E-05	 5.54125000E-02	-7.64461000E-03
					-5.95948000E-05	 6.32162000E-02	-7.86643000E-03
					-4.88620000E-05	 7.12406000E-02	-8.02733000E-03
					-3.80196000E-06	 7.93821000E-02	-8.12647000E-03
					 0.00000000E+00	 0.00000000E+00	 0.00000000E+00
					 0.00000000E+00	 0.00000000E+00	 0.00000000E+00
					 0.00000000E+00	 0.00000000E+00	 0.00000000E+00
					 0.00000000E+00	 0.00000000E+00	 0.00000000E+00
					 0.00000000E+00	 0.00000000E+00	 0.00000000E+00
					 3.06371000E-14	 8.75739000E-02	 4.06829000E-03
					 2.78922000E-14	 8.75712000E-02	 1.21097000E-15
					 2.79102000E-14	 8.75561000E-02	 1.93405000E-16
					 2.78776000E-14	 8.75712000E-02	-7.90309000E-16
					 2.51012000E-14	 8.75739000E-02	-4.06829000E-03
					 6.13370000E-16	 6.70338000E-04	 8.99238000E-04
					 1.11408000E-04	 2.02860000E-03	 1.86649000E-03
					 1.82563000E-15	 2.05311000E-03	 1.87998000E-03
					-1.11408000E-04	 2.02860000E-03	 1.86649000E-03
					 3.41155000E-15	 4.44086000E-03	 2.72715000E-03
					 1.12188000E-04	 7.57016000E-03	 3.53905000E-03
					 5.38759000E-15	 7.60419000E-03	 3.54010000E-03
					-1.12188000E-04	 7.57016000E-03	 3.53905000E-03
					 7.60030000E-15	 1.15730000E-02	 4.27060000E-03
					 9.54027000E-05	 1.62018000E-02	 4.94775000E-03
					 1.00987000E-14	 1.62264000E-02	 4.94789000E-03
					-9.54027000E-05	 1.62018000E-02	 4.94775000E-03
					 1.26974000E-14	 2.15342000E-02	 5.55732000E-03
					 7.68996000E-05	 2.73940000E-02	 6.10519000E-03
					 1.54654000E-14	 2.74137000E-02	 6.10481000E-03
					-7.68996000E-05	 2.73940000E-02	 6.10519000E-03
					 1.80391000E-14	 3.38115000E-02	 6.58596000E-03
					 5.81720000E-05	 4.06434000E-02	 7.00465000E-03
					 2.06534000E-14	 4.06565000E-02	 7.00420000E-03
					-5.81720000E-05	 4.06434000E-02	 7.00465000E-03
					 2.30762000E-14	 4.78894000E-02	 7.35759000E-03
					 3.83884000E-05	 5.54351000E-02	 7.64847000E-03
					 2.53599000E-14	 5.54437000E-02	 7.64792000E-03
					-3.83884000E-05	 5.54351000E-02	 7.64847000E-03
					 2.74971000E-14	 6.32514000E-02	 7.87085000E-03
					 2.36810000E-05	 7.12602000E-02	 8.03283000E-03
					 2.95413000E-14	 7.12500000E-02	 8.03292000E-03
					-2.36810000E-05	 7.12602000E-02	 8.03283000E-03
					 3.14650000E-14	 7.93920000E-02	 8.12847000E-03
					 3.64553000E-16	 3.48114000E-04	-4.45795000E-16
					-1.13554000E-04	 1.84335000E-03	 9.19045000E-04
					 1.07856000E-15	 1.85495000E-03	-8.98488000E-16
					 1.13554000E-04	 1.84335000E-03	-9.19045000E-04
					 2.24197000E-15	 4.17222000E-03	-1.24189000E-15
					-1.11920000E-04	 7.41500000E-03	 1.75486000E-03
					 3.71249000E-15	 7.39924000E-03	-1.54087000E-15
					 1.11920000E-04	 7.41500000E-03	-1.75486000E-03
					 5.48005000E-15	 1.13542000E-02	-1.78536000E-15
					-9.55209000E-05	 1.60604000E-02	 2.46163000E-03
					 7.45422000E-15	 1.60428000E-02	-1.94235000E-15
					 9.55209000E-05	 1.60604000E-02	-2.46163000E-03
					 9.57529000E-15	 2.13582000E-02	-2.02204000E-15
					-7.69371000E-05	 2.72802000E-02	 3.03987000E-03
					 1.17407000E-14	 2.72623000E-02	-2.06324000E-15
					 7.69371000E-05	 2.72802000E-02	-3.03987000E-03
					 1.38838000E-14	 3.36761000E-02	-1.99704000E-15
					-5.79149000E-05	 4.05559000E-02	 3.49000000E-03
					 1.60065000E-14	 4.05405000E-02	-1.94163000E-15
					 5.79149000E-05	 4.05559000E-02	-3.49000000E-03
					 1.79978000E-14	 4.77939000E-02	-1.90371000E-15
					-3.94940000E-05	 5.53767000E-02	 3.81109000E-03
					 2.00920000E-14	 5.53615000E-02	-1.84054000E-15
					 3.94940000E-05	 5.53767000E-02	-3.81109000E-03
					 2.19826000E-14	 6.31973000E-02	-1.79785000E-15
					-1.94960000E-05	 7.12214000E-02	 4.00679000E-03
					 2.39292000E-14	 7.12064000E-02	-1.74231000E-15
					 1.94960000E-05	 7.12214000E-02	-4.00679000E-03
					 2.59265000E-14	 7.93786000E-02	-1.75791000E-15
					-1.90630000E-16	 6.70338000E-04	-8.99238000E-04
					 1.11408000E-04	 2.02860000E-03	-1.86649000E-03
					 1.62413000E-16	 2.05311000E-03	-1.87998000E-03
					-1.11408000E-04	 2.02860000E-03	-1.86649000E-03
					 8.60314000E-16	 4.44086000E-03	-2.72715000E-03
					 1.12188000E-04	 7.57016000E-03	-3.53905000E-03
					 1.92543000E-15	 7.60419000E-03	-3.54010000E-03
					-1.12188000E-04	 7.57016000E-03	-3.53905000E-03
					 3.23537000E-15	 1.15730000E-02	-4.27060000E-03
					 9.54027000E-05	 1.62018000E-02	-4.94775000E-03
					 4.74729000E-15	 1.62264000E-02	-4.94789000E-03
					-9.54027000E-05	 1.62018000E-02	-4.94775000E-03
					 6.40373000E-15	 2.15342000E-02	-5.55732000E-03
					 7.68996000E-05	 2.73940000E-02	-6.10519000E-03
					 8.12360000E-15	 2.74137000E-02	-6.10481000E-03
					-7.68996000E-05	 2.73940000E-02	-6.10519000E-03
					 9.76170000E-15	 3.38115000E-02	-6.58596000E-03
					 5.81720000E-05	 4.06434000E-02	-7.00465000E-03
					 1.14246000E-14	 4.06565000E-02	-7.00420000E-03
					-5.81720000E-05	 4.06434000E-02	-7.00465000E-03
					 1.30229000E-14	 4.78894000E-02	-7.35759000E-03
					 3.83884000E-05	 5.54351000E-02	-7.64847000E-03
					 1.47382000E-14	 5.54437000E-02	-7.64792000E-03
					-3.83884000E-05	 5.54351000E-02	-7.64847000E-03
					 1.65026000E-14	 6.32514000E-02	-7.87085000E-03
					 2.36810000E-05	 7.12602000E-02	-8.03283000E-03
					 1.83433000E-14	 7.12500000E-02	-8.03292000E-03
					-2.36810000E-05	 7.12602000E-02	-8.03283000E-03
					 2.03322000E-14	 7.93920000E-02	-8.12847000E-03
					 3.71698000E-16	 3.48114000E-04	 4.65711000E-16
					-1.13554000E-04	 1.84335000E-03	-9.19045000E-04
					 1.08499000E-15	 1.85495000E-03	 9.41098000E-16
					 1.13554000E-04	 1.84335000E-03	 9.19045000E-04
					 2.24693000E-15	 4.17222000E-03	 1.30893000E-15
					-1.11920000E-04	 7.41500000E-03	-1.75486000E-03
					 3.72278000E-15	 7.39924000E-03	 1.62506000E-15
					 1.11920000E-04	 7.41500000E-03	 1.75486000E-03
					 5.48418000E-15	 1.13542000E-02	 1.88612000E-15
					-9.55209000E-05	 1.60604000E-02	-2.46163000E-03
					 7.46788000E-15	 1.60428000E-02	 2.07145000E-15
					 9.55209000E-05	 1.60604000E-02	 2.46163000E-03
					 9.57294000E-15	 2.13582000E-02	 2.17798000E-15
					-7.69371000E-05	 2.72802000E-02	-3.03987000E-03
					 1.17681000E-14	 2.72623000E-02	 2.21638000E-15
					 7.69371000E-05	 2.72802000E-02	 3.03987000E-03
					 1.38960000E-14	 3.36761000E-02	 2.21566000E-15
					-5.79149000E-05	 4.05559000E-02	-3.49000000E-03
					 1.59666000E-14	 4.05405000E-02	 2.15744000E-15
					 5.79149000E-05	 4.05559000E-02	 3.49000000E-03
					 1.79928000E-14	 4.77939000E-02	 2.15043000E-15
					-3.94940000E-05	 5.53767000E-02	-3.81109000E-03
					 2.00005000E-14	 5.53615000E-02	 2.12764000E-15
					 3.94940000E-05	 5.53767000E-02	 3.81109000E-03
					 2.19677000E-14	 6.31973000E-02	 2.13561000E-15
					-1.94960000E-05	 7.12214000E-02	-4.00679000E-03
					 2.39926000E-14	 7.12064000E-02	 2.15989000E-15
					 1.94960000E-05	 7.12214000E-02	 4.00679000E-03
					 2.58830000E-14	 7.93786000E-02	 2.13904000E-15
					 2.74793000E-16	 4.79731000E-04	 9.98648000E-18
					 1.45772000E-15	 1.97016000E-03	 9.29890000E-04
					 1.04521000E-15	 1.95961000E-03	 4.70202000E-16
					 1.04891000E-15	 1.97793000E-03	 2.32776000E-17
					 1.04284000E-15	 1.95961000E-03	-4.25999000E-16
					 6.28004000E-16	 1.97016000E-03	-9.29890000E-04
					 2.18938000E-15	 4.29742000E-03	 3.22550000E-17
					 4.54550000E-15	 7.53197000E-03	 1.76126000E-03
					 3.69816000E-15	 7.48164000E-03	 8.28825000E-16
					 3.68756000E-15	 7.51153000E-03	 4.25759000E-17
					 3.69258000E-15	 7.48164000E-03	-7.39643000E-16
					 2.80580000E-15	 7.53197000E-03	-1.76126000E-03
					 5.45117000E-15	 1.14613000E-02	 5.73543000E-17
					 8.77395000E-15	 1.61571000E-02	 2.46597000E-03
					 7.43486000E-15	 1.61150000E-02	 1.06004000E-15
					 7.42472000E-15	 1.61377000E-02	 7.65447000E-17
					 7.43070000E-15	 1.61150000E-02	-9.25049000E-16
					 6.10436000E-15	 1.61571000E-02	-2.46597000E-03
					 9.57061000E-15	 2.14454000E-02	 7.74016000E-17
					 1.35773000E-14	 2.73574000E-02	 3.04402000E-03
					 1.17541000E-14	 2.73199000E-02	 1.15572000E-15
					 1.17251000E-14	 2.73393000E-02	 1.00018000E-16
					 1.17285000E-14	 2.73199000E-02	-9.69494000E-16
					 9.91305000E-15	 2.73574000E-02	-3.04402000E-03