<?xml version="1.0"?>
<VTKFile type="UnstructuredGrid" version="0.1" byte_order="LittleEndian">
	<UnstructuredGrid>
		<Piece NumberOfPoints="16" NumberOfCells="2">
			<Points>
				<DataArray type="Float64" NumberOfComponents="3" format="ascii">
					 1.00000000E+00	 1.00000000E+00	-1.49012000E-08
					 1.00000000E+00	 0.00000000E+00	-1.49012000E-08
					 1.00000000E+00	 0.00000000E+00	 1.00000000E+00
					 1.00000000E+00	 1.00000000E+00	 1.00000000E+00
					-7.45058000E-09	 1.00000000E+00	-1.49012000E-08
					-7.45058000E-09	 0.00000000E+00	-1.49012000E-08
					-7.45058000E-09	 0.00000000E+00	 1.00000000E+00
					-7.45058000E-09	 1.00000000E+00	 1.00000000E+00
					 5.00000000E-01	 6.41421000E-01	 1.00000000E+00
					 6.41421000E-01	 5.00000000E-01	 1.00000000E+00
					 6.41421000E-01	 5.00000000E-01	 1.20000000E+00
					 5.00000000E-01	 6.41421000E-01	 1.20000000E+00
					 3.58579000E-01	 5.00000000E-01	 1.00000000E+00
					 5.00000000E-01	 3.58579000E-01	 1.00000000E+00
					 5.00000000E-01	 3.58579000E-01	 1.20000000E+00
					 3.58579000E-01	 5.00000000E-01	 1.20000000E+00
				</DataArray>
			</Points>
			<Cells>
				<DataArray type="Int32" Name="connectivity" format="ascii">
					0 1 2 3 4 5 6 7 8 9 10 11 12 13 14 15 
				</DataArray>
				<DataArray type="Int32" Name="offsets" format="ascii">
					8 16 
				</DataArray>
				<DataArray type="UInt8" Name="types" format="ascii">
					12 12 
				</DataArray>
			</Cells>
			<PointData>
				<DataArray type="Float32" Name="U" NumberOfComponents="3" ComponentName0="D1" ComponentName1="D2" ComponentName2="D3" format="ascii">
					 0.00000000E+00	 0.00000000E+00	 0.00000000E+00
					 0.00000000E+00	 0.00000000E+00	 0.00000000E+00
					 1.29975000E-06	-1.29690000E-06	-6.06563000E-06
					 1.30054000E-06	 1.30336000E-06	-6.06898000E-06
					 0.00000000E+00	 0.00000000E+00	 0.00000000E+00
					 0.00000000E+00	 0.00000000E+00	 0.00000000E+00
					-1.29975000E-06	-1.29690000E-06	-6.06563000E-06
					-1.30054000E-06	 1.30336000E-06	-6.06898000E-06
					-3.99611000E-14	 1.41146000E-05	-1.19188000E-05
					 7.07088000E-06	 7.04116000E-06	-1.19157000E-05
					 7.07510000E-06	 7.05637000E-06	-4.52611000E-05
					 0.00000000E+00	 1.41352000E-05	-4.52715000E-05
					-7.07088000E-06	 7.04116000E-06	-1.19157000E-05
					-3.99188000E-14	-3.52742000E-08	-1.19089000E-05
					 0.00000000E+00	 0.00000000E+00	-4.52423000E-05
					-7.07510000E-06	 7.05637000E-06	-4.52611000E-05
				</DataArray>
				<DataArray type="Float32" Name="S" NumberOfComponents="10" ComponentName0="xx" ComponentName1="yy" ComponentName2="zz" ComponentName3="xy" ComponentName4="yz" ComponentName5="zx" ComponentName6="Mises" ComponentName7="Min Principal" ComponentName8="Mid Principal" ComponentName9="Max Principal" format="ascii">
					-7.35271000E-01	-7.35271000E-01	-1.71558000E+00	 2.73821000E-07	 1.05269000E-01	 1.05041000E-01	 1.01358337E+00	-1.73764284E+00	-7.35271274E-01	-7.13207888E-01
					-7.34865000E-01	-7.34865000E-01	-1.71463000E+00	-2.72286000E-07	-1.04746000E-01	 1.04977000E-01	 1.01287469E+00	-1.73658415E+00	-7.34865272E-01	-7.12910581E-01
					 3.15027000E-01	 3.15149000E-01	-1.08466000E+00	 6.38139000E-05	-1.05018000E-01	 1.04978000E-01	 1.42318023E+00	-1.10023954E+00	 3.15151552E-01	 3.30603990E-01
					 3.15069000E-01	 3.14935000E-01	-1.08542000E+00	 6.43677000E-05	 1.04999000E-01	 1.05042000E-01	 1.42385310E+00	-1.10099741E+00	 3.14937322E-01	 3.30644091E-01
					-7.35271000E-01	-7.35271000E-01	-1.71558000E+00	-2.73821000E-07	 1.05269000E-01	-1.05041000E-01	 1.01358337E+00	-1.73764284E+00	-7.35271274E-01	-7.13207888E-01
					-7.34865000E-01	-7.34865000E-01	-1.71463000E+00	 2.72286000E-07	-1.04746000E-01	-1.04977000E-01	 1.01287469E+00	-1.73658415E+00	-7.34865272E-01	-7.12910581E-01
					 3.15027000E-01	 3.15149000E-01	-1.08466000E+00	-6.38216000E-05	-1.05018000E-01	-1.04978000E-01	 1.42318023E+00	-1.10023954E+00	 3.15151560E-01	 3.30603982E-01
					 3.15069000E-01	 3.14935000E-01	-1.08542000E+00	-6.43600000E-05	 1.04999000E-01	-1.05042000E-01	 1.42385310E+00	-1.10099741E+00	 3.14937330E-01	 3.30644084E-01
					-7.82502000E-03	-4.87350000E-03	-3.50105000E+01	 5.60184000E-11	 6.53766000E-03	-1.69618000E-10	 3.50041527E+01	-3.50105012E+01	-7.82502000E-03	-4.87227902E-03
					-2.14250000E-03	 2.50647000E-03	-3.49989000E+01	 8.48725000E-04	 3.32678000E-03	 6.61893000E-04	 3.49990827E+01	-3.49989003E+01	-2.29259858E-03	 2.65689730E-03
					 1.74634000E-06	-8.55658000E-03	-3.50016000E+01	-6.41553000E-03	-2.17900000E-03	-6.87527000E-04	 3.49973254E+01	-3.50016001E+01	-1.19889692E-02	 3.43428473E-03
					 5.21561000E-03	 9.48834000E-03	-3.50023000E+01	-8.77608000E-11	 2.38129000E-03	-8.32772000E-11	 3.50096524E+01	-3.50023002E+01	 5.21561000E-03	 9.48850196E-03
					-2.14250000E-03	 2.50647000E-03	-3.49989000E+01	-8.48725000E-04	 3.32678000E-03	-6.61893000E-04	 3.49990827E+01	-3.49989003E+01	-2.29259858E-03	 2.65689730E-03
					 6.40319000E-03	 1.27496000E-02	-3.49807000E+01	-9.50927000E-11	 1.03824000E-02	-1.86689000E-10	 3.49902814E+01	-3.49807031E+01	 6.40319000E-03	 1.27526804E-02
					-2.34895000E-03	-2.37383000E-02	-3.49943000E+01	 1.00409000E-10	 3.52721000E-03	-1.00352000E-10	 3.49812618E+01	-3.49943004E+01	-2.37379442E-02	-2.34895000E-03
					 1.74550000E-06	-8.55658000E-03	-3.50016000E+01	 6.41553000E-03	-2.17900000E-03	 6.87527000E-04	 3.49973254E+01	-3.50016001E+01	-1.19889694E-02	 3.43428408E-03
				</DataArray>
				<DataArray type="Float32" Name="CONTACT" NumberOfComponents="6" ComponentName0="COPEN" ComponentName1="CSLIP1" ComponentName2="CSLIP2" ComponentName3="CPRESS" ComponentName4="CSHEAR1" ComponentName5="CSHEAR2" format="ascii">
					 0.00000000E+00	 0.00000000E+00	 0.00000000E+00	 0.00000000E+00	 0.00000000E+00	 0.00000000E+00
					 0.00000000E+00	 0.00000000E+00	 0.00000000E+00	 0.00000000E+00	 0.00000000E+00	 0.00000000E+00
					 0.00000000E+00	 0.00000000E+00	 0.00000000E+00	 0.00000000E+00	 0.00000000E+00	 0.00000000E+00
					 0.00000000E+00	 0.00000000E+00	 0.00000000E+00	 0.00000000E+00	 0.00000000E+00	 0.00000000E+00
					 0.00000000E+00	 0.00000000E+00	 0.00000000E+00	 0.00000000E+00	 0.00000000E+00	 0.00000000E+00
					 0.00000000E+00	 0.00000000E+00	 0.00000000E+00	 0.00000000E+00	 0.00000000E+00	 0.00000000E+00
					 0.00000000E+00	 0.00000000E+00	 0.00000000E+00	 0.00000000E+00	 0.00000000E+00	 0.00000000E+00
					 0.00000000E+00	 0.00000000E+00	 0.00000000E+00	 0.00000000E+00	 0.00000000E+00	 0.00000000E+00
					-3.50195000E-06	-1.45222000E-13	 1.23852000E-05	 3.50195000E+01	-6.28464000E-11	 3.49859000E-03
					-3.50067000E-06	 5.34526000E-06	 7.03792000E-06	 3.50067000E+01	 2.25252000E-03	 3.18114000E-03
					 0.00000000E+00	 0.00000000E+00	 0.00000000E+00	 0.00000000E+00	 0.00000000E+00	 0.00000000E+00
					 0.00000000E+00	 0.00000000E+00	 0.00000000E+00	 0.00000000E+00	 0.00000000E+00	 0.00000000E+00
					-3.50067000E-06	-5.34526000E-06	 7.03792000E-06	 3.50067000E+01	-2.25252000E-03	 3.18114000E-03
					-3.49769000E-06	-1.45187000E-13	 1.68820000E-06	 3.49769000E+01	-1.74622000E-10	 2.30174000E-03
					 0.00000000E+00	 0.00000000E+00	 0.00000000E+00	 0.00000000E+00	 0.00000000E+00	 0.00000000E+00
					 0.00000000E+00	 0.00000000E+00	 0.00000000E+00	 0.00000000E+00	 0.00000000E+00	 0.00000000E+00
				</DataArray>
			</PointData>
		</Piece>
	</UnstructuredGrid>
</VTKFile>