    1C
    1UUSER                                                              
    1UDATE              25.january.2020                                 
    1UTIME              14:48:26                                        
    1UHOST                                                              
    1UPGM               CalculiX                                        
    1UVERSION           Version 2.16                             
    1UCOMPILETIME       Tue  7 Jan 19:57:43 CET 2020                    
    1UDIR                                                               
    1UDBN                                                               
    1UMAT    1EL                                                        
    2C                          3047                                     1
 -1         1 1.00000E+00 2.05169E-20 1.11022E-16
 -1         2 0.00000E+00 2.05169E-20 1.11022E-16
 -1         3 1.00000E+00 1.00000E+00 1.11022E-16
 -1         7 0.00000E+00 1.00000E+00 1.11022E-16
 -1        10 1.00000E+00-2.14359E+00 8.00000E+00
 -1        11 1.00000E+00-1.14359E+00 8.00000E+00
 -1        12 5.55112E-17-2.14359E+00 8.00000E+00
 -1        16 5.55112E-17-1.14359E+00 8.00000E+00
 -1        19 1.00000E+00-1.25492E-01 2.00000E+00
 -1        22 0.00000E+00-1.25492E-01 2.00000E+00
 -1        25 1.00000E+00-5.08067E-01 4.00000E+00
 -1        28 0.00000E+00-5.08067E-01 4.00000E+00
 -1        31 1.00000E+00-1.16760E+00 6.00000E+00
 -1        34 5.55112E-17-1.16760E+00 6.00000E+00
 -1        40 0.00000E+00 8.74508E-01 2.00000E+00
 -1        44 0.00000E+00 4.91933E-01 4.00000E+00
 -1        48-3.08149E-33-1.67603E-01 6.00000E+00
 -1        54 1.00000E+00 8.74508E-01 2.00000E+00
 -1        58 1.00000E+00 4.91933E-01 4.00000E+00
 -1        62 1.00000E+00-1.67603E-01 6.00000E+00
 -1       149 4.99871E-01-8.16205E-03 3.99987E+00
 -1       165 4.38906E-01-5.53522E-01 6.87781E+00
 -1       166 4.86876E-01 7.20085E-01 2.97980E+00
 -1       167 4.78257E-01 9.71275E-01 9.58396E-01
 -1       168 1.00000E+00 7.21753E-01 2.97100E+00
 -1       169 1.00000E+00 3.80472E-01 2.00000E+00
 -1       170 5.25107E-01 5.25107E-01 2.79939E-19
 -1       171-2.85812E-18-7.63374E-01 4.88344E+00
 -1       172 4.52225E-01 2.26434E-01 4.91505E+00
 -1       173 5.17043E-01 2.38390E-23 1.28999E-19
 -1       174 1.00000E+00-5.53228E-01 6.87720E+00
 -1       175 1.00000E+00 4.13966E-01 9.46740E-01
 -1       176 0.00000E+00 4.24880E-01 9.71700E-01
 -1       177 0.00000E+00 5.12089E-01 6.49007E-20
 -1       178 1.00000E+00-2.76041E-01 2.95933E+00
 -1       179 0.00000E+00 7.21136E-01 2.97426E+00
 -1       180 0.00000E+00-2.75127E-01 2.95448E+00
 -1       181 1.24534E-34 2.27645E-01 4.91131E+00
 -1       182 1.00000E+00-2.74535E-02 9.37017E-01
 -1       183 5.04221E-01-5.08067E-01 4.00000E+00
 -1       184 1.00000E+00-7.69198E-01 4.90153E+00
 -1       185 1.00000E+00 2.28087E-01 4.90994E+00
 -1       186 0.00000E+00 5.21742E-03 4.00000E+00
 -1       187 5.04426E-01 8.74508E-01 2.00000E+00
 -1       188 1.00000E+00 3.78967E-03 4.00000E+00
 -1       189 0.00000E+00 1.75425E-01 2.97475E+00
 -1       190 0.00000E+00-2.92493E-02 9.67084E-01
 -1       191 1.00000E+00-3.51218E-01 4.92139E+00
 -1       192 0.00000E+00 9.71795E-01 9.49706E-01
 -1       193 0.00000E+00 3.77795E-01 2.00000E+00
 -1       194 5.13162E-01 1.00000E+00 7.69327E-20
 -1       195-1.86954E-18-3.50513E-01 4.92552E+00
 -1       196 4.78382E-01-2.76690E-01 2.96277E+00
 -1       197 1.00000E+00 9.72798E-01 9.32729E-01
 -1       198 4.49294E-01-7.71663E-01 4.90916E+00
 -1       199 1.00000E+00 1.76063E-01 2.97681E+00
 -1       200 5.02786E-01 4.91933E-01 4.00000E+00
 -1       201-2.89421E-18-5.55397E-01 6.88174E+00
 -1       202 1.00000E+00 5.08190E-01 2.97862E-20
 -1       203 5.03075E-01 3.79141E-01 2.00001E+00
 -1       204 2.55477E-01 2.52532E-01 4.00000E+00
 -1       205 2.36940E-01-6.42655E-02 2.96584E+00
 -1       206 7.60097E-01 7.31186E-01 4.60629E-01
 -1       207 2.63028E-01-4.32705E-01 4.44273E+00
 -1       208 7.49100E-01 2.50110E-01 3.99999E+00
 -1       209 4.83881E-01-2.62010E-01 5.44545E+00
 -1       210 7.47425E-01 4.68494E-02 2.46329E+00
 -1       211 2.29256E-01-4.92519E-01 5.43801E+00
 -1       212 2.41002E-01 5.31458E-01 2.48200E+00
 -1       213 7.43053E-01 4.32533E-01 2.97528E+00
 -1       214 7.51823E-01 6.27874E-01 2.00000E+00
 -1       215 2.43149E-01-1.54242E-01 3.46974E+00
 -1       216 2.44913E-01 4.33383E-01 2.97424E+00
 -1       217 4.50807E-01-2.90339E-01 4.90161E+00
 -1       218 2.48949E-01 3.32142E-01 3.48240E+00
 -1       219 5.00107E-01 1.26093E-01 2.00001E+00
 -1       220 7.59763E-01 6.37211E-01 1.45731E+00
 -1       221 7.54938E-01 3.31741E-01 3.48112E+00
 -1       222 7.42861E-01-4.32573E-01 4.44351E+00
 -1       223 2.54162E-01 6.28064E-01 2.00001E+00
 -1       224 7.56065E-01 2.04874E-01 4.68539E-01
 -1       225 2.17518E-01 9.58700E-02 4.43503E+00
 -1       226 7.47585E-01 5.31863E-01 2.47901E+00
 -1       227 7.42835E-01-6.28437E-02 2.96692E+00
 -1       228 2.66567E-01 2.05832E-01 4.70746E-01
 -1       229 5.02222E-01 7.27833E-01 4.67379E-01
 -1       230 4.78985E-01-1.67438E-01 4.43904E+00
 -1       231 2.36716E-01 7.23882E-01 4.73424E-01
 -1       232 2.49802E-01 6.47538E-01 1.48094E+00
 -1       233 7.58281E-01 4.70544E-01 4.64840E-01
 -1       234 2.43009E-01 6.86618E-01 9.63992E-01
 -1       235 5.10483E-01 4.19302E-01 9.58952E-01
 -1       236 2.33109E-01 4.33715E-02 2.46620E+00
 -1       237 4.94433E-01 4.02927E-01 1.48014E+00
 -1       238 4.96132E-01 1.58249E-01 1.47860E+00
 -1       239 7.20127E-01-4.91230E-01 5.44024E+00
 -1       240 2.72765E-01 4.76936E-01 4.66970E-01
 -1       241 0.00000E+00 9.25277E-02 3.47408E+00
 -1       242 1.00000E+00 1.79140E-01 9.40997E-01
 -1       243 0.00000E+00 5.31540E-01 2.47787E+00
 -1       244 7.48884E-01 8.06828E-01 2.47967E+00
 -1       245 1.00000E+00 3.97756E-01 1.45650E+00
 -1       246 0.00000E+00 7.59033E-01 2.97976E-17
 -1       247 7.11118E-01-9.50528E-01 5.43183E+00
 -1       248 1.00000E+00 4.62754E-01 4.56525E-01
 -1       249 1.00000E+00 8.07166E-01 2.47752E+00
 -1       250 7.42366E-01 9.72051E-01 9.45404E-01
 -1       251 0.00000E+00 1.55575E-01 1.47541E+00
 -1       252 7.68702E-01 7.68702E-01 3.20636E-17
 -1       253 1.00000E+00-4.91130E-01 5.43433E+00
 -1       254 0.00000E+00 3.31703E-01 3.48097E+00
 -1       255 1.00000E+00 9.34137E-01 1.44972E+00
 -1       256 1.00000E+00-1.64308E-01 4.43628E+00
 -1       257 0.00000E+00-1.52749E-01 3.46786E+00
 -1       258 1.00000E+00 9.54995E-02 4.43056E+00
 -1       259 4.93169E-01-6.84406E-02 1.47776E+00
 -1       260 4.78373E-01-6.25026E-01 4.42935E+00
 -1       261 0.00000E+00 2.59106E-01 3.96298E-17
 -1       262-1.33114E-18-4.32376E-01 4.44464E+00
 -1       263 0.00000E+00 6.46552E-01 1.47867E+00
 -1       264 7.62719E-01 8.22239E-21 4.44935E-17
 -1       265 7.38425E-01-6.24451E-01 4.42735E+00
 -1       266 0.00000E+00 9.93375E-01 4.61801E-01
 -1       267 2.67431E-01-6.76474E-03 4.66616E-01
 -1       268 4.90973E-01-3.81094E-01 3.47059E+00
 -1       269-9.57432E-34 4.88694E-02 5.43349E+00
 -1       270 1.00000E+00-6.35641E-03 4.52404E-01
 -1       271 0.00000E+00 2.09386E-01 4.78865E-01
 -1       272 0.00000E+00 6.85696E-01 9.59633E-01
 -1       273 2.37492E-01 4.86032E-02 5.43423E+00
 -1       274 0.00000E+00-7.00256E-03 4.74695E-01
 -1       275 1.00000E+00 3.32186E-01 3.48254E+00
 -1       276 1.00000E+00 2.35149E-02 2.48267E+00
 -1       277 1.00000E+00 4.92532E-02 5.43243E+00
 -1       278 0.00000E+00 7.23153E-01 4.66942E-01
 -1       279 0.00000E+00 9.32946E-01 1.46274E+00
 -1       280 2.62864E-01 4.61497E-21 2.49728E-17
 -1       281 4.78870E-01 3.73529E-01 4.43436E+00
 -1       282 2.40239E-01 9.71534E-01 9.54072E-01
 -1       283 5.01748E-01-1.25492E-01 2.00000E+00
 -1       284 2.70921E-01-6.19511E-01 4.41016E+00
 -1       285 3.78111E-34 9.62440E-02 4.43224E+00
 -1       286 1.00000E+00 3.74273E-01 4.43178E+00
 -1       287 2.63053E-01 7.62198E-01-2.77795E-17
 -1       288 1.00000E+00 5.33358E-01 2.47675E+00
 -1       289 2.46340E-01 9.32759E-01 1.46478E+00
 -1       290 1.00000E+00 2.56160E-01 4.02740E-17
 -1       291 1.00000E+00 6.17033E-01 3.47900E+00
 -1       292 1.00000E+00-6.23917E-01 4.42550E+00
 -1       293 1.00000E+00-4.32897E-01 4.44158E+00
 -1       294 3.78229E-34 3.73978E-01 4.43281E+00
 -1       295 2.47949E-01 6.16188E-01 3.48279E+00
 -1       296 0.00000E+00-3.80182E-01 3.46648E+00
 -1       297 5.09021E-01-2.83281E-02 9.51780E-01
 -1       298 1.00000E+00 6.79801E-01 9.38761E-01
 -1       299 7.13422E-01 4.78194E-02 5.43640E+00
 -1       300 0.00000E+00 8.06785E-01 2.47995E+00
 -1       301 0.00000E+00-1.90909E-01 2.46521E+00
 -1       302 1.00000E+00-1.53775E-01 3.47081E+00
 -1       303 7.58831E-01-3.80513E-01 3.46797E+00
 -1       304 1.00000E+00 6.38232E-01 1.45964E+00
 -1       305 1.00000E+00 7.18826E-01 4.52427E-01
 -1       306 1.00000E+00 1.55243E-01 1.45388E+00
 -1       307 1.00000E+00 9.19466E-02 3.47641E+00
 -1       308 7.64674E-01 2.60568E-01-2.72234E-17
 -1       309 0.00000E+00 4.01744E-01 1.47697E+00
 -1       310-6.93872E-18-4.83051E-01 5.43420E+00
 -1       311 5.19059E-01 7.65540E-01-2.55025E-17
 -1       312 7.33558E-01 9.32336E-01 1.46937E+00
 -1       313 2.33885E-01-1.91873E-01 2.47138E+00
 -1       314 1.00000E+00 7.56127E-01 2.91326E-17
 -1       315 7.38577E-01 3.73915E-01 4.43302E+00
 -1       316 2.14522E-01 3.73172E-01 4.43560E+00
 -1       317 2.59774E-01 2.54804E-01 2.50652E-17
 -1       318 0.00000E+00 2.30399E-02 2.48113E+00
 -1       319 0.00000E+00 4.69631E-01 4.73075E-01
 -1       320 2.59919E-01 1.00000E+00 2.55969E-17
 -1       321 0.00000E+00-6.82734E-02 1.47596E+00
 -1       322 1.00000E+00 9.93733E-01 4.49231E-01
 -1       323 2.46278E-01-3.80612E-01 3.46842E+00
 -1       324 1.00000E+00-1.91473E-01 2.46882E+00
 -1       325 7.59832E-01 1.00000E+00 4.38380E-17
 -1       326 1.00000E+00-3.81001E-01 3.47017E+00
 -1       327 3.79391E-34-1.63389E-01 4.43867E+00
 -1       328 4.96325E-01 9.93367E-01 4.62052E-01
 -1       329 0.00000E+00 6.16486E-01 3.48145E+00
 -1       330 4.95806E-01 8.06473E-01 2.48193E+00
 -1       331 1.00000E+00 2.80073E-01 2.47978E+00
 -1       332 7.45884E-01-1.91611E-01 2.46971E+00
 -1       333 5.21107E-01 2.64612E-01-2.99432E-17
 -1       334 2.65884E-01 5.18681E-01-2.96943E-17
 -1       335 7.51004E-01 9.93558E-01 4.55416E-01
 -1       336 2.40196E-01 8.06134E-01 2.48409E+00
 -1       337 4.94705E-01 6.15873E-01 3.48420E+00
 -1       338 2.33792E-01 9.93187E-01 4.68244E-01
 -1       339 1.00000E+00 2.01285E-01 4.60339E-01
 -1       340 7.66748E-01 5.16499E-01-2.58011E-17
 -1       341 1.00000E+00-6.61632E-02 1.45302E+00
 -1       342 0.00000E+00 2.78237E-01 2.47954E+00
 -1       343 5.06263E-01 5.76940E-01 7.07802E-01
 -1       344 7.60449E-01 2.33216E-01 2.30125E-01
 -1       345 7.53979E-01 1.58216E-02 1.72106E+00
 -1       346 7.55007E-01 4.08536E-01 1.20748E+00
 -1       347 2.58011E-01 5.80888E-01 7.13369E-01
 -1       348 7.54984E-01 4.80273E-02 1.20239E+00
 -1       349 2.48357E-01 1.40930E-01 1.73592E+00
 -1       350 7.51563E-01 2.54050E-01 2.00000E+00
 -1       351 1.17762E-01 6.17445E-01 2.35512E-01
 -1       352 7.58222E-01 2.97760E-01 9.49870E-01
 -1       353 3.75383E-01 5.14471E-01 1.73771E+00
 -1       354 6.24861E-01 4.55214E-01 2.23859E+00
 -1       355 8.75440E-01 7.05571E-01 2.23604E+00
 -1       356 2.38461E-01 8.31277E-01 7.11053E-01
 -1       357 7.47414E-01 2.69068E-01 1.73862E+00
 -1       358 6.24862E-01 7.04815E-01 2.23718E+00
 -1       359 2.46793E-01 4.82778E-02 1.22057E+00
 -1       360 4.99446E-01 5.80463E-01 2.23839E+00
 -1       361 8.80738E-01 1.00122E-01 2.28970E-01
 -1       362 2.46360E-01 6.67332E-01 1.21914E+00
 -1       363 2.66211E-01 3.64814E-01 2.31259E-01
 -1       364 7.55835E-01 6.32599E-01 1.72563E+00
 -1       365 2.51470E-01 6.20118E-01 2.34020E-01
 -1       366 2.63122E-01 2.30702E-01 2.31719E-01
 -1       367 1.16299E-01 8.64304E-01 2.32587E-01
 -1       368 3.81281E-01 7.45206E-01 2.31048E-01
 -1       369 5.07829E-01 8.67100E-01 2.28014E-01
 -1       370 6.41993E-01 6.27610E-01 2.29110E-01
 -1       371 1.31976E-01 2.32736E-01 2.33065E-01
 -1       372 3.66435E-01 7.96839E-01 1.21321E+00
 -1       373 1.34685E-01 3.14207E-01 7.18583E-01
 -1       374 3.76510E-01 7.60485E-01 1.73923E+00
 -1       375 8.79165E-01 7.55153E-01 1.72703E+00
 -1       376 3.83441E-01 6.22724E-01 2.32490E-01
 -1       377 8.74821E-01 4.55546E-01 2.23756E+00
 -1       378 1.28029E-01 7.05152E-01 2.23637E+00
 -1       379 3.87929E-01 3.12042E-01 7.13663E-01
 -1       380 2.50104E-01 3.90505E-01 1.73703E+00
 -1       381 5.02635E-01 4.84281E-02 1.21209E+00
 -1       382 7.50081E-01 2.85570E-04 2.00000E+00
 -1       383 5.02553E-01 4.11204E-01 1.21662E+00
 -1       384 4.94200E-01 6.82402E-01 9.57727E-01
 -1       385 7.54257E-01 2.87808E-01 1.20542E+00
 -1       386 5.16277E-01 8.99844E-02 4.67277E-01
 -1       387 2.50081E-01 2.51929E-01 2.00000E+00
 -1       388 7.51395E-01 2.79585E-01 1.46740E+00
 -1       389 6.18276E-01 6.09429E-01 2.72439E+00
 -1       390 7.54695E-01 1.68963E-01 1.20273E+00
 -1       391 6.38197E-01 7.48562E-01 2.27682E-01
 -1       392 3.81510E-01 5.32232E-01 1.21721E+00
 -1       393 6.40634E-01 4.98071E-01 2.30300E-01
 -1       394 7.45996E-01 6.10049E-01 2.72272E+00
 -1       395 5.16720E-01 3.39610E-01 4.67756E-01
 -1       396 8.76637E-01 7.45955E-02 6.99201E-01
 -1       397 3.56881E-01 8.31393E-01 7.13751E-01
 -1       398 6.22522E-01 5.14863E-01 1.73883E+00
 -1       399 2.48104E-01 2.79975E-01 1.47779E+00
 -1       400 2.39815E-01 7.05493E-01 7.15468E-01
 -1       401 7.59954E-01 8.68885E-01 2.24699E-01
 -1       402 7.58999E-01 4.16597E-01 9.52747E-01
 -1       403 6.39085E-01 3.67047E-01 2.31214E-01
 -1       404 5.06222E-01 6.42350E-01 1.46905E+00
 -1       405 3.86472E-01 7.45511E-02 7.07730E-01
 -1       406 6.37392E-01 4.45546E-01 7.05910E-01
 -1       407 8.78968E-01 7.05722E-01 6.97536E-01
 -1       408 8.77029E-01 1.92111E-01 7.02814E-01
 -1       409 2.48772E-01 1.62446E-02 1.73551E+00
 -1       410 2.48588E-01 8.65230E-01 2.31094E-01
 -1       411 4.94158E-01 7.79080E-01 1.47395E+00
 -1       412 8.83730E-01 8.69733E-01 2.23115E-01
 -1       413 6.33429E-01 7.54626E-01 1.72584E+00
 -1       414 1.32768E-01 1.02522E-01 2.34458E-01
 -1       415 7.64482E-01 7.50277E-01 2.26170E-01
 -1       416 8.82761E-01 6.17121E-01 2.25014E-01
 -1       417 3.99234E-01 3.68807E-01 2.29150E-01
 -1       418 7.59929E-01 5.52051E-01 9.48668E-01
 -1       419 7.61518E-01 3.64103E-01 2.29195E-01
 -1       420 2.45830E-01 4.13967E-01 1.22450E+00
 -1       421 2.46607E-01 3.14798E-02 1.47546E+00
 -1       422 2.45947E-01 2.92706E-01 1.22299E+00
 -1       423 2.57553E-01 1.81537E-01 9.62034E-01
 -1       424 7.49812E-01 4.00311E-01 1.46820E+00
 -1       425 2.44658E-01 7.96632E-01 1.21148E+00
 -1       426 2.50227E-01 2.67063E-01 1.73702E+00
 -1       427 6.34414E-01 8.67964E-01 2.26194E-01
 -1       428 1.35051E-01 4.94690E-01 2.31197E-01
 -1       429 2.64696E-01 1.01662E-01 2.32497E-01
 -1       430 6.37531E-01 2.35019E-01 2.32155E-01
 -1       431 7.42538E-01 7.70119E-01 1.72935E+00
 -1       432 4.99410E-01 6.37779E-01 1.73903E+00
 -1       433 1.38637E-01 4.51335E-01 7.15156E-01
 -1       434 5.18773E-01 4.73696E-01 4.65883E-01
 -1       435 8.81714E-01 3.61136E-01 2.27064E-01
 -1       436 2.50182E-01 7.70330E-01 1.72708E+00
 -1       437 6.35773E-01 3.09896E-01 7.08745E-01
 -1       438 5.15115E-01 2.05350E-01 4.69619E-01
 -1       439 4.99572E-01 2.67936E-01 1.73750E+00
 -1       440 1.22648E-01 7.96446E-01 1.20991E+00
 -1       441 1.17043E-01 7.41659E-01 2.34071E-01
 -1       442 4.96622E-01 1.59988E-02 1.73596E+00
 -1       443 3.75135E-01 7.07618E-01 7.10860E-01
 -1       444 1.26323E-01 5.14233E-01 1.73692E+00
 -1       445 6.35797E-01 7.61162E-02 7.02877E-01
 -1       446 7.62588E-01 4.93926E-01 2.28267E-01
 -1       447 3.90330E-01 4.48441E-01 7.10283E-01
 -1       448 2.69272E-01 4.98139E-01 2.29721E-01
 -1       449 8.79430E-01 8.35850E-01 6.94546E-01
 -1       450 4.99512E-01 6.62087E-01 1.20887E+00
 -1       451 1.31582E-01 3.60807E-01 2.33451E-01
 -1       452 7.58963E-01 6.19349E-02 9.45382E-01
 -1       453 7.51339E-01 8.34803E-01 6.99337E-01
 -1       454 8.81262E-01 2.31205E-01 2.28055E-01
 -1       455 7.63473E-01 6.22343E-01 2.27106E-01
 -1       456 8.78067E-01 4.42514E-01 7.03637E-01
 -1       457 8.83271E-01 7.43993E-01 2.24093E-01
 -1       458 4.90370E-01 8.32714E-01 7.09186E-01
 -1       459 5.10793E-01 7.47027E-01 2.29546E-01
 -1       460 1.23338E-01 6.66894E-01 1.21745E+00
 -1       461 1.19508E-01 8.31164E-01 7.08342E-01
 -1       462 1.26110E-01 6.37375E-01 1.73734E+00
 -1       463 8.82307E-01 5.23346E-01 1.19688E+00
 -1       464 7.59444E-01 1.01036E-01 2.31051E-01
 -1       465 6.38804E-01 5.79633E-01 7.02792E-01
 -1       466 7.45818E-01 3.91758E-01 1.73862E+00
 -1       467 8.77418E-01 3.08891E-01 7.06419E-01
 -1       468 1.24296E-01 5.35673E-01 1.22510E+00
 -1       469 6.35942E-01 1.01914E-01 2.33060E-01
 -1       470 8.73321E-01 6.10588E-01 2.72109E+00
 -1       471 2.56684E-01 4.22080E-01 9.65282E-01
 -1       472 6.21683E-01 8.33777E-01 7.04244E-01
 -1       473 8.77784E-01 5.11086E-01 1.72417E+00
 -1       474 1.35145E-01 7.44835E-02 7.14527E-01
 -1       475 8.75073E-01 5.80941E-01 2.23678E+00
 -1       476 5.03418E-01 2.90627E-01 1.21509E+00
 -1       477 7.54740E-01 1.40938E-01 1.72181E+00
 -1       478 5.13788E-01 6.25298E-01 2.30999E-01
 -1       479 6.34527E-01 5.27737E-01 1.20693E+00
 -1       480 7.50880E-01 7.92281E-01 1.19490E+00
 -1       481 1.20188E-01 7.05081E-01 7.12754E-01
 -1       482 8.78523E-01 5.74643E-01 7.00580E-01
 -1       483 8.82288E-01 4.89868E-01 2.26150E-01
 -1       484 1.20901E-01 5.77588E-01 7.17330E-01
 -1       485 8.79548E-01-2.00522E-01 3.73152E+00
 -1       486 8.78162E-01 6.33138E-01 1.72493E+00
 -1       487 4.01768E-01 5.01572E-01 2.28242E-01
 -1       488 1.26056E-01 7.59983E-01 1.73809E+00
 -1       489 8.82762E-01 6.59020E-01 1.19184E+00
 -1       490 3.79075E-01 8.66087E-01 2.29504E-01
 -1       491 3.94390E-01 1.00797E-01 2.30505E-01
 -1       492 2.50108E-01 7.43383E-01 2.32563E-01
 -1       493 6.28375E-01 6.84419E-01 9.51129E-01
 -1       494 0.00000E+00 7.96235E-01 1.20828E+00
 -1       495 0.00000E+00 8.64252E-01 2.28846E-01
 -1       496 5.01174E-01-4.60259E-02 1.21238E+00
 -1       497 0.00000E+00 5.13549E-01 1.73666E+00
 -1       498 8.74090E-01 9.85087E-01 6.91376E-01
 -1       499 0.00000E+00 9.06317E-01 1.72843E+00
 -1       500 7.58557E-01-1.56678E-03 2.26101E-01
 -1       501 1.00000E+00 2.87011E-01 1.19536E+00
 -1       502 1.00000E+00-1.48827E-02 6.90684E-01
 -1       503 0.00000E+00 9.54677E-01 1.20311E+00
 -1       504 2.43250E-01 9.54435E-01 1.20631E+00
 -1       505 2.49120E-01-9.45746E-02 1.73663E+00
 -1       506 1.35176E-01-1.59151E-02 7.14136E-01
 -1       507 0.00000E+00 4.47546E-01 7.19148E-01
 -1       508 1.00000E+00 4.68854E-02 1.19115E+00
 -1       509 1.00000E+00 8.62443E-01 2.21094E-01
 -1       510 0.00000E+00 2.02142E-01 2.23823E+00
 -1       511 1.21954E-01 9.54554E-01 1.20473E+00
 -1       512 0.00000E+00 3.63597E-01 2.34804E-01
 -1       513 7.62262E-01-1.50362E-02 6.94220E-01
 -1       514 1.00000E+00 7.54848E-01 1.72634E+00
 -1       515 8.80354E-01-1.53951E-03 2.24151E-01
 -1       516 1.00000E+00 9.98513E-01 2.20334E-01
 -1       517 1.00000E+00 2.04106E-01 2.23848E+00
 -1       518 1.00000E+00 5.24616E-01 1.19980E+00
 -1       519 0.00000E+00 1.03934E-01 2.37698E-01
 -1       520 2.65113E-01-1.61668E-03 2.29626E-01
 -1       521 1.25003E-01 9.06271E-01 1.72885E+00
 -1       522 1.00000E+00 1.90398E-01 6.96638E-01
 -1       523 3.87277E-01-1.56109E-02 7.07306E-01
 -1       524 0.00000E+00 6.16838E-01 2.31738E-01
 -1       525 1.00000E+00-1.51204E-03 2.22169E-01
 -1       526 1.15576E-01 9.98359E-01 2.31336E-01
 -1       527 1.00000E+00 3.58002E-01 2.25046E-01
 -1       528 0.00000E+00 5.12195E-01 3.22217E+00
 -1       529 1.32799E-01-1.64450E-03 2.31568E-01
 -1       530 6.20712E-01 9.06023E-01 1.73114E+00
 -1       531 1.00000E+00 7.37818E-01 2.22070E-01
 -1       532 0.00000E+00 7.04702E-01 2.23660E+00
 -1       533 0.00000E+00 7.58334E-02 7.19464E-01
 -1       534 7.38037E-01 9.54673E-01 1.20316E+00
 -1       535 3.95186E-01-1.58868E-03 2.27655E-01
 -1       536 0.00000E+00 9.98412E-01 2.27605E-01
 -1       537 1.00000E+00 6.12011E-01 2.22998E-01
 -1       538 0.00000E+00 9.84600E-01 7.02521E-01
 -1       539 1.00000E+00 6.99658E-01 6.91299E-01
 -1       540 8.75849E-01 8.42935E-01 2.23723E+00
 -1       541 3.76769E-01 9.98403E-01 2.28244E-01
 -1       542 7.54214E-01 5.57263E-01 3.73725E+00
 -1       543 0.00000E+00 2.34574E-01 2.36276E-01
 -1       544 3.74031E-01 9.06143E-01 1.73003E+00
 -1       545 6.17968E-01 9.84666E-01 7.01035E-01
 -1       546 0.00000E+00 2.65919E-01 1.73590E+00
 -1       547 1.00000E+00 6.59371E-01 1.19476E+00
 -1       548 1.00000E+00 4.38787E-01 6.97338E-01
 -1       549 1.00000E+00 9.92357E-02 2.26952E-01
 -1       550 6.25828E-01 8.42784E-01 2.23829E+00
 -1       551 8.78504E-01 9.98492E-01 2.21842E-01
 -1       552 1.00000E+00 5.13121E-01 3.22076E+00
 -1       553 3.64077E-01 9.54313E-01 1.20791E+00
 -1       554 0.00000E+00 3.16363E-01 7.23523E-01
 -1       555 0.00000E+00 4.91143E-01 2.33382E-01
 -1       556 1.00000E+00 3.89250E-01 1.72396E+00
 -1       557 0.00000E+00 6.66375E-01 1.21583E+00
 -1       558 0.00000E+00 7.41335E-01 2.30318E-01
 -1       559 2.44888E-01-4.66752E-02 1.22088E+00
 -1       560 1.00000E+00 3.06179E-01 7.00233E-01
 -1       561 6.04528E-01 9.54054E-01 1.21133E+00
 -1       562 8.69774E-01 9.55287E-01 1.19500E+00
 -1       563 1.00000E+00 7.92961E-01 1.18971E+00
 -1       564 7.58190E-01-2.78826E-02 9.44288E-01
 -1       565 7.54236E-01-4.52631E-02 1.20232E+00
 -1       566 5.04895E-01 9.98424E-01 2.26734E-01
 -1       567 0.00000E+00 7.04671E-01 7.10049E-01
 -1       568 1.00000E+00 4.85885E-01 2.24117E-01
 -1       569 1.00000E+00 5.69790E-01 6.94337E-01
 -1       570 2.47087E-01 9.98380E-01 2.29825E-01
 -1       571 1.00000E+00-4.44182E-02 1.19107E+00
 -1       572 1.00000E+00 8.28669E-01 6.88359E-01
 -1       573 0.00000E+00 3.55191E-01 2.72393E+00
 -1       574 3.73779E-01 8.42623E-01 2.23944E+00
 -1       575 7.42304E-01 6.70747E-01 3.22876E+00
 -1       576 1.00000E+00-9.30620E-02 1.72271E+00
 -1       577 6.42422E-01-6.55413E-03 4.59341E-01
 -1       578 0.00000E+00 2.91625E-01 1.22094E+00
 -1       579 1.00000E+00 7.39949E-02 6.93085E-01
 -1       580 4.87448E-01 9.84450E-01 7.05934E-01
 -1       581 7.46761E-01 9.84881E-01 6.96116E-01
 -1       582 2.55290E-01-2.87855E-02 9.59408E-01
 -1       583 0.00000E+00 1.64705E-02 1.73504E+00
 -1       584 3.54675E-01 9.84241E-01 7.10630E-01
 -1       585 1.00000E+00 1.74927E-02 1.72185E+00
 -1       586 1.00000E+00 5.11785E-01 1.72472E+00
 -1       587 1.00000E+00 9.07148E-01 1.72076E+00
 -1       588 7.44865E-01-9.46741E-02 1.73754E+00
 -1       589 1.00000E+00 2.66425E-01 1.72347E+00
 -1       590 0.00000E+00 5.76883E-01 7.14596E-01
 -1       591 0.00000E+00 8.31045E-01 7.05634E-01
 -1       592 0.00000E+00 5.34936E-01 1.22340E+00
 -1       593 1.18729E-01 9.84481E-01 7.05214E-01
 -1       594 6.30703E-01 9.98449E-01 2.24931E-01
 -1       595 8.65370E-01 9.05895E-01 1.73232E+00
 -1       596 1.00000E+00 3.56800E-01 2.72386E+00
 -1       597 1.00000E+00 9.55886E-01 1.18699E+00
 -1       598 1.00000E+00 2.29217E-01 2.26022E-01
 -1       599 7.55498E-01 9.98470E-01 2.23422E-01
 -1       600 1.00000E+00 4.05993E-01 1.19746E+00
 -1       601 0.00000E+00 4.67511E-02 1.21851E+00
 -1       602 0.00000E+00 7.59739E-01 1.73752E+00
 -1       603 0.00000E+00-1.69535E-03 2.35076E-01
 -1       604 1.00000E+00 9.85290E-01 6.86683E-01
 -1       605 1.00000E+00 7.05976E-01 2.23552E+00
 -1       606 2.36973E-01 9.84361E-01 7.07925E-01
 -1       607 7.54482E-01 3.21385E-02 1.45833E+00
 -1       608 1.00000E+00-3.67765E-04 1.11087E-01
 -1       609 1.00000E+00 1.28080E-01 7.20056E-17
 -1       610 8.81360E-01 1.37921E-20 7.46325E-17
 -1       611 0.00000E+00-4.13000E-04 1.17541E-01
 -1       612 1.31432E-01 1.11483E-20 6.03262E-17
 -1       613 0.00000E+00 1.29553E-01 7.15992E-17
 -1       614 1.00000E+00 9.99638E-01 1.10170E-01
 -1       615 8.79916E-01 1.00000E+00 7.42283E-17
 -1       616 1.00000E+00 8.78063E-01 6.34745E-17
 -1       617 8.84351E-01 8.84351E-01 6.56034E-17
 -1       618 0.00000E+00 9.99613E-01 1.13805E-01
 -1       619 1.29959E-01 1.00000E+00 6.08092E-17
 -1       620 0.00000E+00 8.79517E-01 6.39635E-17
 -1       621 5.00000E-01-2.14359E+00 8.00000E+00
 -1       622 1.00000E+00-1.62083E+00 7.01702E+00
 -1       623 5.07078E-01-1.61943E+00 7.01416E+00
 -1       624 1.00000E+00-1.64359E+00 8.00000E+00
 -1       625 1.00000E+00-8.37772E-01 7.44420E+00
 -1       626 7.21791E-01-8.37449E-01 7.44358E+00
 -1       627 5.00000E-01-1.64359E+00 8.00000E+00
 -1       628 5.00000E-01-1.14359E+00 8.00000E+00
 -1       629 0.00000E+00-1.64359E+00 8.00000E+00
 -1       630 1.60760E-20-1.62083E+00 7.01702E+00
 -1       631 1.79223E-17-8.38945E-01 7.44642E+00
 -1       632 1.00000E+00-1.08680E-01 1.86142E+00
 -1       633 1.00000E+00-1.56703E-01 2.23466E+00
 -1       634 7.50874E-01-1.25492E-01 2.00000E+00
 -1       635 1.00000E+00 1.27490E-01 2.00000E+00
 -1       636 0.00000E+00-9.47480E-02 1.73821E+00
 -1       637 0.00000E+00-1.56449E-01 2.23285E+00
 -1       638 2.50874E-01-1.25492E-01 2.00000E+00
 -1       639 0.00000E+00 1.26152E-01 2.00000E+00
 -1       640 1.00000E+00-4.42343E-01 3.73561E+00
 -1       641 1.00000E+00-5.64453E-01 4.21317E+00
 -1       642 1.00000E+00-2.52139E-01 4.00000E+00
 -1       643 7.52111E-01-5.08067E-01 4.00000E+00
 -1       644 0.00000E+00-4.41903E-01 3.73377E+00
 -1       645 0.00000E+00-2.51425E-01 4.00000E+00
 -1       646 2.52111E-01-5.08067E-01 4.00000E+00
 -1       647-6.85067E-18-6.29145E-01 4.44362E+00
 -1       648 1.00000E+00-9.58665E-01 5.45430E+00
 -1       649 5.00000E-01-1.16760E+00 6.00000E+00
 -1       650 1.00000E+00-6.67602E-01 6.00000E+00
 -1       651 1.78667E-17-9.55426E-01 5.44536E+00
 -1       652-8.32665E-23-6.67602E-01 6.00000E+00
 -1       653 0.00000E+00 8.90985E-01 1.86428E+00
 -1       654 0.00000E+00 8.42510E-01 2.24024E+00
 -1       655 0.00000E+00 6.26152E-01 2.00000E+00
 -1       656 2.52213E-01 8.74508E-01 2.00000E+00
 -1       657 0.00000E+00 5.56308E-01 3.74123E+00
 -1       658 2.61647E-34 4.34547E-01 4.21684E+00
 -1       659 2.51393E-01 4.91933E-01 4.00000E+00
 -1       660 0.00000E+00 2.48575E-01 4.00000E+00
 -1       661-1.89951E-33-5.68102E-02 5.71772E+00
 -1       662-6.85172E-18-3.54483E-01 6.44396E+00
 -1       663 2.20718E-01-3.53374E-01 6.44144E+00
 -1       664 5.00000E-01-1.67603E-01 6.00000E+00
 -1       665 1.00000E+00 8.91433E-01 1.86045E+00
 -1       666 1.00000E+00 8.42682E-01 2.23902E+00
 -1       667 7.52213E-01 8.74508E-01 2.00000E+00
 -1       668 1.00000E+00 6.27490E-01 2.00000E+00
 -1       669 1.00000E+00 5.56601E-01 3.74001E+00
 -1       670 1.00000E+00 4.34687E-01 4.21632E+00
 -1       671 7.51393E-01 4.91933E-01 4.00000E+00
 -1       672 1.00000E+00 2.47861E-01 4.00000E+00
 -1       673 1.00000E+00-5.66086E-02 5.71720E+00
 -1       674 1.00000E+00-3.53469E-01 6.44165E+00
 -1       675 1.00000E+00 6.71436E-01 3.22542E+00
 -1       676 1.00000E+00 7.66411E-01 2.72460E+00
 -1       677 6.46905E-01 6.46905E-01 9.58388E-18
 -1       678 3.89954E-01 9.93858E-22 5.37802E-18
 -1       679 6.39881E-01 1.60580E-21 8.68939E-18
 -1       680 0.00000E+00 3.85598E-01 5.81220E-18
 -1       681 0.00000E+00 6.35561E-01 8.16095E-18
 -1       682 1.00000E+00-3.26455E-01 3.21517E+00
 -1       683 1.00000E+00-2.31828E-01 2.71441E+00
 -1       684 0.00000E+00 6.70848E-01 3.22827E+00
 -1       685 0.00000E+00 7.65918E-01 2.72744E+00
 -1       686 0.00000E+00-2.31099E-01 2.71017E+00
 -1       687 0.00000E+00-3.25578E-01 3.21091E+00
 -1       688 3.39264E-34 3.02723E-01 4.67264E+00
 -1       689-3.12999E-34 1.40485E-01 5.17316E+00
 -1       690 1.00000E+00-3.54304E-02 1.06408E+00
 -1       691 1.00000E+00-2.06920E-02 8.13875E-01
 -1       692 1.00000E+00-6.94665E-01 4.66409E+00
 -1       693 1.00000E+00 3.03089E-01 4.67145E+00
 -1       694 1.00000E+00 1.40901E-01 5.17195E+00
 -1       695 0.00000E+00-4.67363E-02 1.22168E+00
 -1       696 0.00000E+00-1.62227E-02 7.20976E-01
 -1       697 0.00000E+00 9.78677E-01 8.26138E-01
 -1       698 0.00000E+00 9.63739E-01 1.07644E+00
 -1       699 6.36497E-01 1.00000E+00 8.27403E-18
 -1       700 3.86540E-01 1.00000E+00 5.71681E-18
 -1       701 1.00000E+00 9.79519E-01 8.09730E-01
 -1       702 1.00000E+00 9.64848E-01 1.05989E+00
 -1       703 1.00000E+00 6.32158E-01 7.75637E-18
 -1       704 1.00000E+00 3.82175E-01 6.16518E-18
 -1       705 1.00000E+00 9.45551E-01 1.31840E+00
 -1       706 1.00000E+00 9.21215E-01 1.58530E+00
 -1       707 0.00000E+00 9.89443E-01 5.82177E-01
 -1       708 0.00000E+00 9.96325E-01 3.44712E-01
 -1       709 1.00000E+00-3.51743E-03 3.37295E-01
 -1       710 1.00000E+00-1.01735E-02 5.71560E-01
 -1       711 0.00000E+00-3.89751E-03 3.54896E-01
 -1       712 0.00000E+00 9.44338E-01 1.33297E+00
 -1       713 0.00000E+00 9.20182E-01 1.59564E+00
 -1       714 1.00000E+00 9.89954E-01 5.67973E-01
 -1       715 1.00000E+00 9.96535E-01 3.34791E-01
 -1       716 1.00000E+00-7.90461E-02 1.58792E+00
 -1       717 1.00000E+00-5.47546E-02 1.32209E+00
 -1       718 1.00000E+00 1.77698E-01 1.13476E-01
 -1       719 1.00000E+00 4.96178E-02 1.13476E-01
 -1       720 1.00000E+00 4.88618E-02 2.24560E-01
 -1       721 9.40177E-01-3.74541E-04 1.12078E-01
 -1       722 9.40177E-01-1.52575E-03 2.23160E-01
 -1       723 8.21536E-01-3.74541E-04 1.12078E-01
 -1       724 8.81360E-01 1.28080E-01 2.17404E-17
 -1       725 6.63996E-02-4.00448E-04 1.15787E-01
 -1       726 6.63996E-02-1.66983E-03 2.33322E-01