    1C
    1UUSER                                                              
    1UDATE              25.january.2020                                 
    1UTIME              14:48:25                                        
    1UHOST                                                              
    1UPGM               CalculiX                                        
    1UVERSION           Version 2.16                             
    1UCOMPILETIME       Tue  7 Jan 19:57:43 CET 2020                    
    1UDIR                                                               
    1UDBN                                                               
    1UMAT    1EL                                                        
    2C                            90                                     1
 -1         1 1.00000E+00 0.00000E+00 0.00000E+00
 -1         2 0.00000E+00 0.00000E+00 0.00000E+00
 -1         3 1.00000E+00 1.00000E+00 0.00000E+00
 -1         4 5.00000E-01 0.00000E+00 0.00000E+00
 -1         5 5.00000E-01 5.00000E-01 0.00000E+00
 -1         6 1.00000E+00 5.00000E-01 0.00000E+00
 -1         7 0.00000E+00 1.00000E+00 0.00000E+00
 -1         8 0.00000E+00 5.00000E-01 0.00000E+00
 -1         9 5.00000E-01 1.00000E+00 0.00000E+00
 -1        10 1.00000E+00-2.14359E+00 8.00000E+00
 -1        11 1.00000E+00-1.14359E+00 8.00000E+00
 -1        12 0.00000E+00-2.14359E+00 8.00000E+00
 -1        13 1.00000E+00-1.64359E+00 8.00000E+00
 -1        14 5.00000E-01-1.64359E+00 8.00000E+00
 -1        15 5.00000E-01-2.14359E+00 8.00000E+00
 -1        16 0.00000E+00-1.14359E+00 8.00000E+00
 -1        17 5.00000E-01-1.14359E+00 8.00000E+00
 -1        18 0.00000E+00-1.64359E+00 8.00000E+00
 -1        19 1.00000E+00-1.25492E-01 2.00000E+00
 -1        20 1.00000E+00-3.12806E-02 1.00000E+00
 -1        21 5.00000E-01-3.12806E-02 1.00000E+00
 -1        22 0.00000E+00-1.25492E-01 2.00000E+00
 -1        23 5.00000E-01-1.25492E-01 2.00000E+00
 -1        24 0.00000E+00-3.12806E-02 1.00000E+00
 -1        25 1.00000E+00-5.08067E-01 4.00000E+00
 -1        26 1.00000E+00-2.83766E-01 3.00000E+00
 -1        27 5.00000E-01-2.83766E-01 3.00000E+00
 -1        28 0.00000E+00-5.08067E-01 4.00000E+00
 -1        29 5.00000E-01-5.08067E-01 4.00000E+00
 -1        30 0.00000E+00-2.83766E-01 3.00000E+00
 -1        31 1.00000E+00-1.16760E+00 6.00000E+00
 -1        32 1.00000E+00-8.01316E-01 5.00000E+00
 -1        33 5.00000E-01-8.01316E-01 5.00000E+00
 -1        34 0.00000E+00-1.16760E+00 6.00000E+00
 -1        35 5.00000E-01-1.16760E+00 6.00000E+00
 -1        36 0.00000E+00-8.01316E-01 5.00000E+00
 -1        37 1.00000E+00-1.61251E+00 7.00000E+00
 -1        38 5.00000E-01-1.61251E+00 7.00000E+00
 -1        39 0.00000E+00-1.61251E+00 7.00000E+00
 -1        40 0.00000E+00 8.74508E-01 2.00000E+00
 -1        41 0.00000E+00 4.68719E-01 1.00000E+00
 -1        42 0.00000E+00 9.68719E-01 1.00000E+00
 -1        43 0.00000E+00 3.74508E-01 2.00000E+00
 -1        44 0.00000E+00 4.91933E-01 4.00000E+00
 -1        45 0.00000E+00 2.16234E-01 3.00000E+00
 -1        46 0.00000E+00 7.16234E-01 3.00000E+00
 -1        47 0.00000E+00-8.06662E-03 4.00000E+00
 -1        48 0.00000E+00-1.67603E-01 6.00000E+00
 -1        49 0.00000E+00-3.01316E-01 5.00000E+00
 -1        50 0.00000E+00 1.98684E-01 5.00000E+00
 -1        51 0.00000E+00-6.67603E-01 6.00000E+00
 -1        52 0.00000E+00-1.11251E+00 7.00000E+00
 -1        53 0.00000E+00-6.12505E-01 7.00000E+00
 -1        54 1.00000E+00 8.74508E-01 2.00000E+00
 -1        55 5.00000E-01 9.68719E-01 1.00000E+00
 -1        56 1.00000E+00 9.68719E-01 1.00000E+00
 -1        57 5.00000E-01 8.74508E-01 2.00000E+00
 -1        58 1.00000E+00 4.91933E-01 4.00000E+00
 -1        59 5.00000E-01 7.16234E-01 3.00000E+00
 -1        60 1.00000E+00 7.16234E-01 3.00000E+00
 -1        61 5.00000E-01 4.91933E-01 4.00000E+00
 -1        62 1.00000E+00-1.67603E-01 6.00000E+00
 -1        63 5.00000E-01 1.98684E-01 5.00000E+00
 -1        64 1.00000E+00 1.98684E-01 5.00000E+00
 -1        65 5.00000E-01-1.67603E-01 6.00000E+00
 -1        66 5.00000E-01-6.12505E-01 7.00000E+00
 -1        67 1.00000E+00-6.12505E-01 7.00000E+00
 -1        68 1.00000E+00 4.68719E-01 1.00000E+00
 -1        69 1.00000E+00 3.74508E-01 2.00000E+00
 -1        70 1.00000E+00 2.16234E-01 3.00000E+00
 -1        71 1.00000E+00-8.06662E-03 4.00000E+00
 -1        72 1.00000E+00-3.01316E-01 5.00000E+00
 -1        73 1.00000E+00-6.67603E-01 6.00000E+00
 -1        74 1.00000E+00-1.11251E+00 7.00000E+00
 -1       149 4.99871E-01-8.16205E-03 3.99987E+00
 -1       150 5.00000E-01 3.74508E-01 2.00000E+00
 -1       151 5.00000E-01 4.68719E-01 1.00000E+00
 -1       152 2.49935E-01-3.38199E-02 2.99994E+00
 -1       153 2.49935E-01 2.41884E-01 3.99994E+00
 -1       154 2.49935E-01-2.58116E-01 3.99994E+00
 -1       155 2.49935E-01-5.13611E-02 4.99994E+00
 -1       156 2.49935E-01-5.51361E-01 4.99994E+00
 -1       157 7.49935E-01 2.41884E-01 3.99994E+00
 -1       158 2.49935E-01 4.66180E-01 2.99994E+00
 -1       159 7.49935E-01-5.13611E-02 4.99994E+00
 -1       160 5.00000E-01-1.11251E+00 7.00000E+00
 -1       161 5.00000E-01-6.67603E-01 6.00000E+00
 -1       162 7.49935E-01-3.38199E-02 2.99994E+00
 -1       163 7.49935E-01-2.58116E-01 3.99994E+00
 -1       164 7.49935E-01-5.51361E-01 4.99994E+00
 -3
    3C                            31                                     1
 -1        37    6    0    1
 -2         2        22        19        40        24        23        21        41        43       150
 -1        38    6    0    1
 -2         2         3        54         1         5        56       151         4         6        68
 -1        39    6    0    1
 -2        22        44        28       149        45        47        30       152       153       154
 -1        40    6    0    1
 -2        28        34       149        48        36       156       154        49        51       155
 -1        41    6    0    1
 -2        40         7        54         2        42        55        57        41         8       151
 -1        42    6    0    1
 -2        54         2        19        40       151        21        69        57        41       150
 -1        43    6    0    1
 -2        40        44       149        58        46       153       158        59        61       157
 -1        44    6    0    1
 -2        44        48       149        62        50       155       153        63        65       159
 -1        45    6    0    1
 -2        34        16        11        48        52        17       160        51        53        66
 -1        46    6    0    1
 -2        11        62        31        34        67        73        74       160       161        35
 -1        47    6    0    1
 -2        12        11        34        16        14       160        39        18        17        52
 -1        48    6    0    1
 -2        22        19        40       149        23       150        43       152       162       158
 -1        49    6    0    1
 -2         7         3        54         2         9        56        55         8         5       151
 -1        50    6    0    1
 -2        22        28        25       149        30        29        27       152       154       163
 -1        51    6    0    1
 -2         1         2        19        54         4        21        20        68       151        69
 -1        52    6    0    1
 -2        58        19        40        54        70       150        59        60        69        57
 -1        53    6    0    1
 -2        28        25       149        31        29       163       154        33        32       164
 -1        54    6    0    1
 -2        62        48        34        11        65        51       161        67        66       160
 -1        55    6    0    1
 -2       149        48        34        62       155        51       156       159        65       161
 -1        56    6    0    1
 -2        34        11        10        31       160        13        38        35        74        37
 -1        57    6    0    1
 -2        10        11        34        12        13       160        38        15        14        39
 -1        58    6    0    1
 -2        58        25        62       149        71        72        64       157       163       159
 -1        59    6    0    1
 -2        19        25        58       149        26        71        70       162       163       157
 -1        60    6    0    1
 -2        22        19       149        25        23       162       152        27        26       163
 -1        61    6    0    1
 -2        25        62       149        31        72       159       163        32        73       164
 -1        62    6    0    1
 -2        28        48       149        44        49       155       154        47        50       153
 -1        63    6    0    1
 -2        28        34        31       149        36        35        33       154       156       164
 -1        64    6    0    1
 -2        34        62        31       149       161        73        35       156       159       164
 -1        65    6    0    1
 -2        22       149        40        44       152       158        43        45       153        46
 -1        66    6    0    1
 -2        44        62       149        58        63       159       153        61        64       157
 -1        67    6    0    1
 -2       149        58        19        40       157        70       162       158        59       150
 -3
 9999
