    1C
    1UUSER                                                              
    1UDATE              25.january.2020                                 
    1UTIME              14:48:34                                        
    1UHOST                                                              
    1UPGM               CalculiX                                        
    1UVERSION           Version 2.16                             
    1UCOMPILETIME       Tue  7 Jan 19:57:43 CET 2020                    
    1UDIR                                                               
    1UDBN                                                               
    1UMAT    1EL                                                        
    1UMAT    2SI1                                                       
    2C                            16                                     1
 -1         1 1.00000E+00 1.00000E+00-1.49012E-08
 -1         2 1.00000E+00 0.00000E+00-1.49012E-08
 -1         3 1.00000E+00 0.00000E+00 1.00000E+00
 -1         4 1.00000E+00 1.00000E+00 1.00000E+00
 -1         5-7.45058E-09 1.00000E+00-1.49012E-08
 -1         6-7.45058E-09 0.00000E+00-1.49012E-08
 -1         7-7.45058E-09 0.00000E+00 1.00000E+00
 -1         8-7.45058E-09 1.00000E+00 1.00000E+00
 -1         9 5.00000E-01 6.41421E-01 1.00000E+00
 -1        10 6.41421E-01 5.00000E-01 1.00000E+00
 -1        11 6.41421E-01 5.00000E-01 1.20000E+00
 -1        12 5.00000E-01 6.41421E-01 1.20000E+00
 -1        13 3.58579E-01 5.00000E-01 1.00000E+00
 -1        14 5.00000E-01 3.58579E-01 1.00000E+00
 -1        15 5.00000E-01 3.58579E-01 1.20000E+00
 -1        16 3.58579E-01 5.00000E-01 1.20000E+00
 -3
    3C                             2                                     1
 -1         1    1    0    1
 -2         1         2         3         4         5         6         7         8
 -1         2    1    0    1
 -2         9        10        11        12        13        14        15        16
 -3
 9999
