<?xml version="1.0"?>
<VTKFile type="UnstructuredGrid" version="0.1" byte_order="LittleEndian">
	<UnstructuredGrid>
		<Piece NumberOfPoints="28" NumberOfCells="2">
			<Points>
				<DataArray type="Float64" NumberOfComponents="3" format="ascii">
					 1.00000000E+00	 1.00000000E+00	-1.49012000E-08
					 1.00000000E+00	 0.00000000E+00	-1.49012000E-08
					 1.00000000E+00	 0.00000000E+00	 1.00000000E+00
					 1.00000000E+00	 1.00000000E+00	 1.00000000E+00
					-7.45058000E-09	 1.00000000E+00	-1.49012000E-08
					-7.45058000E-09	 0.00000000E+00	-1.49012000E-08
					-7.45058000E-09	 0.00000000E+00	 1.00000000E+00
					-7.45058000E-09	 1.00000000E+00	 1.00000000E+00
					 6.41422000E-01	 5.00000000E-01	 1.20000000E+00
					 5.00000000E-01	 3.58578000E-01	 1.20000000E+00
					 5.00000000E-01	 3.58578000E-01	 1.00000000E+00
					 6.41422000E-01	 5.00000000E-01	 1.00000000E+00
					 5.70711000E-01	 4.29289000E-01	 1.20000000E+00
					 5.00000000E-01	 3.58578000E-01	 1.10000000E+00
					 5.70711000E-01	 4.29289000E-01	 1.00000000E+00
					 6.41422000E-01	 5.00000000E-01	 1.10000000E+00
					 5.00000000E-01	 6.41422000E-01	 1.20000000E+00
					 3.58578000E-01	 5.00000000E-01	 1.20000000E+00
					 3.58578000E-01	 5.00000000E-01	 1.00000000E+00
					 5.00000000E-01	 6.41422000E-01	 1.00000000E+00
					 4.29289000E-01	 5.70711000E-01	 1.20000000E+00
					 3.58578000E-01	 5.00000000E-01	 1.10000000E+00
					 4.29289000E-01	 5.70711000E-01	 1.00000000E+00
					 5.00000000E-01	 6.41422000E-01	 1.10000000E+00
					 5.70711000E-01	 5.70711000E-01	 1.20000000E+00
					 4.29289000E-01	 4.29289000E-01	 1.20000000E+00
					 4.29289000E-01	 4.29289000E-01	 1.00000000E+00
					 5.70711000E-01	 5.70711000E-01	 1.00000000E+00
				</DataArray>
			</Points>
			<Cells>
				<DataArray type="Int32" Name="connectivity" format="ascii">
					0 1 2 3 4 5 6 7 16 8 9 17 19 11 10 18 24 12 25 20 27 14 26 22 23 15 13 21 
				</DataArray>
				<DataArray type="Int32" Name="offsets" format="ascii">
					8 28 
				</DataArray>
				<DataArray type="UInt8" Name="types" format="ascii">
					12 25 
				</DataArray>
			</Cells>
			<PointData>
				<DataArray type="Float32" Name="U" NumberOfComponents="3" ComponentName0="D1" ComponentName1="D2" ComponentName2="D3" format="ascii">
					 0.00000000E+00	 0.00000000E+00	 0.00000000E+00
					 0.00000000E+00	 0.00000000E+00	 0.00000000E+00
					 0.00000000E+00	 0.00000000E+00	-1.41648000E-05
					 0.00000000E+00	 0.00000000E+00	-1.41416000E-05
					 0.00000000E+00	 0.00000000E+00	 0.00000000E+00
					 0.00000000E+00	 0.00000000E+00	 0.00000000E+00
					 0.00000000E+00	 0.00000000E+00	-1.41416000E-05
					 0.00000000E+00	 0.00000000E+00	-1.41648000E-05
					 1.57211000E-05	 1.67244000E-05	-1.13824000E-04
					-1.67244000E-05	-1.57211000E-05	-1.13824000E-04
					-1.57438000E-05	-1.67471000E-05	-2.63365000E-05
					 1.67471000E-05	 1.57438000E-05	-2.63365000E-05
					 7.66216000E-06	-7.66216000E-06	-1.15292000E-04
					-1.09465000E-05	-2.07338000E-05	-7.02360000E-05
					 8.66489000E-06	-8.66489000E-06	-2.55421000E-05
					 2.07338000E-05	 1.09465000E-05	-7.02360000E-05
					 1.67244000E-05	 1.57211000E-05	-1.13824000E-04
					-1.57211000E-05	-1.67244000E-05	-1.13824000E-04
					-1.67471000E-05	-1.57438000E-05	-2.63365000E-05
					 1.57438000E-05	 1.67471000E-05	-2.63365000E-05
					-7.66216000E-06	 7.66216000E-06	-1.15292000E-04
					-2.07338000E-05	-1.09465000E-05	-7.02360000E-05
					-8.66489000E-06	 8.66489000E-06	-2.55421000E-05
					 1.09465000E-05	 2.07338000E-05	-7.02360000E-05
					 8.05803000E-06	 8.05803000E-06	-1.19058000E-04
					-8.05803000E-06	-8.05803000E-06	-1.19058000E-04
					-8.08148000E-06	-8.08148000E-06	-2.38592000E-05
					 8.08148000E-06	 8.08148000E-06	-2.38592000E-05
				</DataArray>
				<DataArray type="Float32" Name="S" NumberOfComponents="10" ComponentName0="xx" ComponentName1="yy" ComponentName2="zz" ComponentName3="xy" ComponentName4="yz" ComponentName5="zx" ComponentName6="Mises" ComponentName7="Min Principal" ComponentName8="Mid Principal" ComponentName9="Max Principal" format="ascii">
					-1.71325000E+00	-1.71325000E+00	-3.99747000E+00	-7.23922000E-12	 6.64313000E-09	 6.64353000E-09	 2.28422000E+00	-3.99747000E+00	-1.71325000E+00	-1.71325000E+00
					-1.71606000E+00	-1.71606000E+00	-4.00402000E+00	 7.23940000E-12	 6.64313000E-09	-6.64272000E-09	 2.28796000E+00	-4.00402000E+00	-1.71606000E+00	-1.71606000E+00
					-1.71606000E+00	-1.71606000E+00	-4.00402000E+00	-3.61977000E-11	 1.87298000E-03	-1.87300000E-03	 2.28796460E+00	-4.00402307E+00	-1.71606000E+00	-1.71605693E+00
					-1.71325000E+00	-1.71325000E+00	-3.99747000E+00	 3.61968000E-11	 1.87298000E-03	 1.87295000E-03	 2.28422461E+00	-3.99747307E+00	-1.71325000E+00	-1.71324693E+00
					-1.71606000E+00	-1.71606000E+00	-4.00402000E+00	 7.23922000E-12	-6.64313000E-09	 6.64353000E-09	 2.28796000E+00	-4.00402000E+00	-1.71606000E+00	-1.71606000E+00
					-1.71325000E+00	-1.71325000E+00	-3.99747000E+00	-7.23940000E-12	-6.64313000E-09	-6.64272000E-09	 2.28422000E+00	-3.99747000E+00	-1.71325000E+00	-1.71325000E+00
					-1.71325000E+00	-1.71325000E+00	-3.99747000E+00	 3.61977000E-11	-1.87298000E-03	-1.87300000E-03	 2.28422461E+00	-3.99747307E+00	-1.71325000E+00	-1.71324693E+00
					-1.71606000E+00	-1.71606000E+00	-4.00402000E+00	-3.61968000E-11	-1.87298000E-03	 1.87295000E-03	 2.28796460E+00	-4.00402307E+00	-1.71606000E+00	-1.71605693E+00
					-3.17144000E+00	-3.17394000E+00	-9.99919000E+01	 2.64410000E+00	 4.62761000E+00	-2.40811000E-02	 9.72583122E+01	-1.00212815E+02	-5.70442908E+00	-4.20035929E-01
					-3.17394000E+00	-3.17144000E+00	-9.99919000E+01	 2.64410000E+00	 2.40811000E-02	-4.62761000E+00	 9.72583122E+01	-1.00212815E+02	-5.70442908E+00	-4.20035929E-01
					-9.96255000E-01	-9.93871000E-01	-9.99904000E+01	 1.52445000E+00	-3.11085000E+00	 6.21498000E+00	 9.97595042E+01	-1.00481999E+02	-2.08343954E+00	 5.84912808E-01
					-9.93871000E-01	-9.96255000E-01	-9.99904000E+01	 1.52445000E+00	-6.21498000E+00	 3.11085000E+00	 9.97595042E+01	-1.00481999E+02	-2.08343954E+00	 5.84912808E-01
					-3.17269000E+00	-3.17269000E+00	-9.99919000E+01	 2.64410000E+00	 2.32585000E+00	-2.32585000E+00	 9.70947511E+01	-1.00106644E+02	-5.70204641E+00	-5.28590000E-01
					-2.08510000E+00	-2.08266000E+00	-9.99911000E+01	 2.08428000E+00	-1.54338000E+00	 7.93686000E-01	 9.80198566E+01	-1.00022400E+02	-4.13969452E+00	 3.23440348E-03
					-9.95063000E-01	-9.95063000E-01	-9.99904000E+01	 1.52445000E+00	-4.66291000E+00	 4.66291000E+00	 9.96870351E+01	-1.00434514E+02	-2.07539863E+00	 5.29387000E-01
					-2.08266000E+00	-2.08510000E+00	-9.99911000E+01	 2.08428000E+00	-7.93686000E-01	 1.54338000E+00	 9.80198566E+01	-1.00022400E+02	-4.13969452E+00	 3.23440348E-03
					-3.17394000E+00	-3.17144000E+00	-9.99919000E+01	 2.64410000E+00	-2.40811000E-02	 4.62761000E+00	 9.72583122E+01	-1.00212815E+02	-5.70442908E+00	-4.20035929E-01
					-3.17144000E+00	-3.17394000E+00	-9.99919000E+01	 2.64410000E+00	-4.62761000E+00	 2.40811000E-02	 9.72583122E+01	-1.00212815E+02	-5.70442908E+00	-4.20035929E-01
					-9.93871000E-01	-9.96255000E-01	-9.99904000E+01	 1.52445000E+00	 6.21498000E+00	-3.11085000E+00	 9.97595042E+01	-1.00481999E+02	-2.08343954E+00	 5.84912808E-01
					-9.96255000E-01	-9.93871000E-01	-9.99904000E+01	 1.52445000E+00	 3.11085000E+00	-6.21498000E+00	 9.97595042E+01	-1.00481999E+02	-2.08343954E+00	 5.84912808E-01
					-3.17269000E+00	-3.17269000E+00	-9.99919000E+01	 2.64410000E+00	-2.32585000E+00	 2.32585000E+00	 9.70947511E+01	-1.00106644E+02	-5.70204641E+00	-5.28590000E-01
					-2.08266000E+00	-2.08510000E+00	-9.99911000E+01	 2.08428000E+00	 7.93686000E-01	-1.54338000E+00	 9.80198566E+01	-1.00022400E+02	-4.13969452E+00	 3.23440348E-03
					-9.95063000E-01	-9.95063000E-01	-9.99904000E+01	 1.52445000E+00	 4.66291000E+00	-4.66291000E+00	 9.96870351E+01	-1.00434514E+02	-2.07539863E+00	 5.29387000E-01
					-2.08510000E+00	-2.08266000E+00	-9.99911000E+01	 2.08428000E+00	 1.54338000E+00	-7.93686000E-01	 9.80198566E+01	-1.00022400E+02	-4.13969452E+00	 3.23440348E-03
					-3.17269000E+00	-3.17269000E+00	-9.99919000E+01	 2.64410000E+00	 2.30176000E+00	 2.30176000E+00	 9.70913066E+01	-1.00098320E+02	-5.81679000E+00	-4.22170125E-01
					-3.17269000E+00	-3.17269000E+00	-9.99919000E+01	 2.64410000E+00	-2.30176000E+00	-2.30176000E+00	 9.70913066E+01	-1.00098320E+02	-5.81679000E+00	-4.22170125E-01
					-9.95063000E-01	-9.95063000E-01	-9.99904000E+01	 1.52445000E+00	 1.55207000E+00	 1.55207000E+00	 9.91034920E+01	-1.00038306E+02	-2.51951300E+00	 5.77293464E-01
					-9.95063000E-01	-9.95063000E-01	-9.99904000E+01	 1.52445000E+00	-1.55207000E+00	-1.55207000E+00	 9.91034920E+01	-1.00038306E+02	-2.51951300E+00	 5.77293464E-01
				</DataArray>
			</PointData>
		</Piece>
	</UnstructuredGrid>
</VTKFile>