# vtk DataFile Version 3.0

ASCII
DATASET UNSTRUCTURED_GRID

POINTS 40 double
	 1.00000000E+00	 1.00000000E+00	 0.00000000E+00
	 1.00000000E+00	 0.00000000E+00	 0.00000000E+00
	 1.00000000E+00	 0.00000000E+00	 1.00000000E+00
	 1.00000000E+00	 1.00000000E+00	 1.00000000E+00
	 0.00000000E+00	 1.00000000E+00	 0.00000000E+00
	 0.00000000E+00	 0.00000000E+00	 0.00000000E+00
	 0.00000000E+00	 0.00000000E+00	 1.00000000E+00
	 0.00000000E+00	 1.00000000E+00	 1.00000000E+00
	 1.00000000E+00	 5.00000000E-01	 0.00000000E+00
	 1.00000000E+00	 0.00000000E+00	 5.00000000E-01
	 1.00000000E+00	 5.00000000E-01	 1.00000000E+00
	 1.00000000E+00	 1.00000000E+00	 5.00000000E-01
	 5.00000000E-01	 1.00000000E+00	 0.00000000E+00
	 5.00000000E-01	 0.00000000E+00	 0.00000000E+00
	 5.00000000E-01	 0.00000000E+00	 1.00000000E+00
	 5.00000000E-01	 1.00000000E+00	 1.00000000E+00
	 0.00000000E+00	 5.00000000E-01	 0.00000000E+00
	 0.00000000E+00	 0.00000000E+00	 5.00000000E-01
	 0.00000000E+00	 5.00000000E-01	 1.00000000E+00
	 0.00000000E+00	 1.00000000E+00	 5.00000000E-01
	 7.50000000E-01	 7.50000000E-01	 1.00000000E+00
	 7.50000000E-01	 2.50000000E-01	 1.00000000E+00
	 7.50000000E-01	 2.50000000E-01	 1.50000000E+00
	 7.50000000E-01	 7.50000000E-01	 1.50000000E+00
	 2.50000000E-01	 7.50000000E-01	 1.00000000E+00
	 2.50000000E-01	 2.50000000E-01	 1.00000000E+00
	 2.50000000E-01	 2.50000000E-01	 1.50000000E+00
	 2.50000000E-01	 7.50000000E-01	 1.50000000E+00
	 7.50000000E-01	 5.00000000E-01	 1.00000000E+00
	 7.50000000E-01	 2.50000000E-01	 1.25000000E+00
	 7.50000000E-01	 5.00000000E-01	 1.50000000E+00
	 7.50000000E-01	 7.50000000E-01	 1.25000000E+00
	 5.00000000E-01	 7.50000000E-01	 1.00000000E+00
	 5.00000000E-01	 2.50000000E-01	 1.00000000E+00
	 5.00000000E-01	 2.50000000E-01	 1.50000000E+00
	 5.00000000E-01	 7.50000000E-01	 1.50000000E+00
	 2.50000000E-01	 5.00000000E-01	 1.00000000E+00
	 2.50000000E-01	 2.50000000E-01	 1.25000000E+00
	 2.50000000E-01	 5.00000000E-01	 1.50000000E+00
	 2.50000000E-01	 7.50000000E-01	 1.25000000E+00

CELLS 2 42
	20 0 1 2 3 4 5 6 7 8 9 10 11 16 17 18 19 12 13 14 15 
	20 20 21 22 23 24 25 26 27 28 29 30 31 36 37 38 39 32 33 34 35 

CELL_TYPES 2
	25
	25

POINT_DATA 40
FIELD CONTACT 1
	CONTACT 6 40 double
		 0.00000000E+00	 0.00000000E+00	 0.00000000E+00	 0.00000000E+00	 0.00000000E+00	 0.00000000E+00
		 0.00000000E+00	 0.00000000E+00	 0.00000000E+00	 0.00000000E+00	 0.00000000E+00	 0.00000000E+00
		 0.00000000E+00	 0.00000000E+00	 0.00000000E+00	 0.00000000E+00	 0.00000000E+00	 0.00000000E+00
		 0.00000000E+00	 0.00000000E+00	 0.00000000E+00	 0.00000000E+00	 0.00000000E+00	 0.00000000E+00
		 0.00000000E+00	 0.00000000E+00	 0.00000000E+00	 0.00000000E+00	 0.00000000E+00	 0.00000000E+00
		 0.00000000E+00	 0.00000000E+00	 0.00000000E+00	 0.00000000E+00	 0.00000000E+00	 0.00000000E+00
		 0.00000000E+00	 0.00000000E+00	 0.00000000E+00	 0.00000000E+00	 0.00000000E+00	 0.00000000E+00
		 0.00000000E+00	 0.00000000E+00	 0.00000000E+00	 0.00000000E+00	 0.00000000E+00	 0.00000000E+00
		 0.00000000E+00	 0.00000000E+00	 0.00000000E+00	 0.00000000E+00	 0.00000000E+00	 0.00000000E+00
		 0.00000000E+00	 0.00000000E+00	 0.00000000E+00	 0.00000000E+00	 0.00000000E+00	 0.00000000E+00
		 0.00000000E+00	 0.00000000E+00	 0.00000000E+00	 0.00000000E+00	 0.00000000E+00	 0.00000000E+00
		 0.00000000E+00	 0.00000000E+00	 0.00000000E+00	 0.00000000E+00	 0.00000000E+00	 0.00000000E+00
		 0.00000000E+00	 0.00000000E+00	 0.00000000E+00	 0.00000000E+00	 0.00000000E+00	 0.00000000E+00
		 0.00000000E+00	 0.00000000E+00	 0.00000000E+00	 0.00000000E+00	 0.00000000E+00	 0.00000000E+00
		 0.00000000E+00	 0.00000000E+00	 0.00000000E+00	 0.00000000E+00	 0.00000000E+00	 0.00000000E+00
		 0.00000000E+00	 0.00000000E+00	 0.00000000E+00	 0.00000000E+00	 0.00000000E+00	 0.00000000E+00
		 0.00000000E+00	 0.00000000E+00	 0.00000000E+00	 0.00000000E+00	 0.00000000E+00	 0.00000000E+00
		 0.00000000E+00	 0.00000000E+00	 0.00000000E+00	 0.00000000E+00	 0.00000000E+00	 0.00000000E+00
		 0.00000000E+00	 0.00000000E+00	 0.00000000E+00	 0.00000000E+00	 0.00000000E+00	 0.00000000E+00
		 0.00000000E+00	 0.00000000E+00	 0.00000000E+00	 0.00000000E+00	 0.00000000E+00	 0.00000000E+00
		-2.44518000E-05	 4.93832000E-02	 7.28844000E-05	 2.44518000E+02	 4.89036000E+01	 8.28076000E-02
		-2.44518000E-05	 4.93832000E-02	-7.28843000E-05	 2.44518000E+02	 4.89036000E+01	-8.28054000E-02
		 0.00000000E+00	 0.00000000E+00	 0.00000000E+00	 0.00000000E+00	 0.00000000E+00	 0.00000000E+00
		 0.00000000E+00	 0.00000000E+00	 0.00000000E+00	 0.00000000E+00	 0.00000000E+00	 0.00000000E+00
		-7.68520000E-07	 4.93718000E-02	 4.16386000E-06	 7.68520000E+00	 1.53704000E+00	-2.62007000E-02
		-7.68520000E-07	 4.93718000E-02	-4.16379000E-06	 7.68520000E+00	 1.53704000E+00	 2.61941000E-02
		 0.00000000E+00	 0.00000000E+00	 0.00000000E+00	 0.00000000E+00	 0.00000000E+00	 0.00000000E+00
		 0.00000000E+00	 0.00000000E+00	 0.00000000E+00	 0.00000000E+00	 0.00000000E+00	 0.00000000E+00
		-2.44518000E-05	 4.93832000E-02	 1.85239000E-11	 2.44518000E+02	 4.89036000E+01	 1.08912000E-06
		 0.00000000E+00	 0.00000000E+00	 0.00000000E+00	 0.00000000E+00	 0.00000000E+00	 0.00000000E+00
		 0.00000000E+00	 0.00000000E+00	 0.00000000E+00	 0.00000000E+00	 0.00000000E+00	 0.00000000E+00
		 0.00000000E+00	 0.00000000E+00	 0.00000000E+00	 0.00000000E+00	 0.00000000E+00	 0.00000000E+00
		-1.26102000E-05	 4.93775000E-02	 3.85241000E-05	 1.26102000E+02	 2.52203000E+01	 2.83035000E-02
		-1.26102000E-05	 4.93775000E-02	-3.85241000E-05	 1.26102000E+02	 2.52203000E+01	-2.83057000E-02
		 0.00000000E+00	 0.00000000E+00	 0.00000000E+00	 0.00000000E+00	 0.00000000E+00	 0.00000000E+00
		 0.00000000E+00	 0.00000000E+00	 0.00000000E+00	 0.00000000E+00	 0.00000000E+00	 0.00000000E+00
		-7.68520000E-07	 4.93718000E-02	 3.46163000E-11	 7.68520000E+00	 1.53704000E+00	-3.27221000E-06
		 0.00000000E+00	 0.00000000E+00	 0.00000000E+00	 0.00000000E+00	 0.00000000E+00	 0.00000000E+00
		 0.00000000E+00	 0.00000000E+00	 0.00000000E+00	 0.00000000E+00	 0.00000000E+00	 0.00000000E+00
		 0.00000000E+00	 0.00000000E+00	 0.00000000E+00	 0.00000000E+00	 0.00000000E+00	 0.00000000E+00
