    1C
    1UUSER                                                              
    1UDATE              25.january.2020                                 
    1UTIME              14:48:32                                        
    1UHOST                                                              
    1UPGM               CalculiX                                        
    1UVERSION           Version 2.16                             
    1UCOMPILETIME       Tue  7 Jan 19:57:43 CET 2020                    
    1UDIR                                                               
    1UDBN                                                               
    1UMAT    1EL                                                        
    1UMAT    2SI1                                                       
    2C                            40                                     1
 -1         1 1.00000E+00 1.00000E+00 0.00000E+00
 -1         2 1.00000E+00 0.00000E+00 0.00000E+00
 -1         3 1.00000E+00 0.00000E+00 1.00000E+00
 -1         4 1.00000E+00 1.00000E+00 1.00000E+00
 -1         5 0.00000E+00 1.00000E+00 0.00000E+00
 -1         6 0.00000E+00 0.00000E+00 0.00000E+00
 -1         7 0.00000E+00 0.00000E+00 1.00000E+00
 -1         8 0.00000E+00 1.00000E+00 1.00000E+00
 -1         9 1.00000E+00 5.00000E-01 0.00000E+00
 -1        10 1.00000E+00 0.00000E+00 5.00000E-01
 -1        11 1.00000E+00 5.00000E-01 1.00000E+00
 -1        12 1.00000E+00 1.00000E+00 5.00000E-01
 -1        13 5.00000E-01 1.00000E+00 0.00000E+00
 -1        14 5.00000E-01 0.00000E+00 0.00000E+00
 -1        15 5.00000E-01 0.00000E+00 1.00000E+00
 -1        16 5.00000E-01 1.00000E+00 1.00000E+00
 -1        17 0.00000E+00 5.00000E-01 0.00000E+00
 -1        18 0.00000E+00 0.00000E+00 5.00000E-01
 -1        19 0.00000E+00 5.00000E-01 1.00000E+00
 -1        20 0.00000E+00 1.00000E+00 5.00000E-01
 -1        21 7.50000E-01 7.50000E-01 1.00000E+00
 -1        22 7.50000E-01 2.50000E-01 1.00000E+00
 -1        23 7.50000E-01 2.50000E-01 1.50000E+00
 -1        24 7.50000E-01 7.50000E-01 1.50000E+00
 -1        25 2.50000E-01 7.50000E-01 1.00000E+00
 -1        26 2.50000E-01 2.50000E-01 1.00000E+00
 -1        27 2.50000E-01 2.50000E-01 1.50000E+00
 -1        28 2.50000E-01 7.50000E-01 1.50000E+00
 -1        29 7.50000E-01 5.00000E-01 1.00000E+00
 -1        30 7.50000E-01 2.50000E-01 1.25000E+00
 -1        31 7.50000E-01 5.00000E-01 1.50000E+00
 -1        32 7.50000E-01 7.50000E-01 1.25000E+00
 -1        33 5.00000E-01 7.50000E-01 1.00000E+00
 -1        34 5.00000E-01 2.50000E-01 1.00000E+00
 -1        35 5.00000E-01 2.50000E-01 1.50000E+00
 -1        36 5.00000E-01 7.50000E-01 1.50000E+00
 -1        37 2.50000E-01 5.00000E-01 1.00000E+00
 -1        38 2.50000E-01 2.50000E-01 1.25000E+00
 -1        39 2.50000E-01 5.00000E-01 1.50000E+00
 -1        40 2.50000E-01 7.50000E-01 1.25000E+00
 -3
    3C                             2                                     1
 -1         1    4    0    1
 -2         1         2         3         4         5         6         7         8         9        10
 -2        11        12        13        14        15        16        17        18        19        20
 -1         2    4    0    1
 -2        21        22        23        24        25        26        27        28        29        30
 -2        31        32        33        34        35        36        37        38        39        40
 -3
 9999
