<?xml version="1.0"?>
<VTKFile type="UnstructuredGrid" version="0.1" byte_order="LittleEndian">
	<UnstructuredGrid>
		<Piece NumberOfPoints="40" NumberOfCells="2">
			<Points>
				<DataArray type="Float64" NumberOfComponents="3" format="ascii">
					 1.00000000E+00	 1.00000000E+00	 0.00000000E+00
					 1.00000000E+00	 0.00000000E+00	 0.00000000E+00
					 1.00000000E+00	 0.00000000E+00	 1.00000000E+00
					 1.00000000E+00	 1.00000000E+00	 1.00000000E+00
					 0.00000000E+00	 1.00000000E+00	 0.00000000E+00
					 0.00000000E+00	 0.00000000E+00	 0.00000000E+00
					 0.00000000E+00	 0.00000000E+00	 1.00000000E+00
					 0.00000000E+00	 1.00000000E+00	 1.00000000E+00
					 1.00000000E+00	 5.00000000E-01	 0.00000000E+00
					 1.00000000E+00	 0.00000000E+00	 5.00000000E-01
					 1.00000000E+00	 5.00000000E-01	 1.00000000E+00
					 1.00000000E+00	 1.00000000E+00	 5.00000000E-01
					 5.00000000E-01	 1.00000000E+00	 0.00000000E+00
					 5.00000000E-01	 0.00000000E+00	 0.00000000E+00
					 5.00000000E-01	 0.00000000E+00	 1.00000000E+00
					 5.00000000E-01	 1.00000000E+00	 1.00000000E+00
					 0.00000000E+00	 5.00000000E-01	 0.00000000E+00
					 0.00000000E+00	 0.00000000E+00	 5.00000000E-01
					 0.00000000E+00	 5.00000000E-01	 1.00000000E+00
					 0.00000000E+00	 1.00000000E+00	 5.00000000E-01
					 7.50000000E-01	 7.50000000E-01	 1.00000000E+00
					 7.50000000E-01	 2.50000000E-01	 1.00000000E+00
					 7.50000000E-01	 2.50000000E-01	 1.50000000E+00
					 7.50000000E-01	 7.50000000E-01	 1.50000000E+00
					 2.50000000E-01	 7.50000000E-01	 1.00000000E+00
					 2.50000000E-01	 2.50000000E-01	 1.00000000E+00
					 2.50000000E-01	 2.50000000E-01	 1.50000000E+00
					 2.50000000E-01	 7.50000000E-01	 1.50000000E+00
					 7.50000000E-01	 5.00000000E-01	 1.00000000E+00
					 7.50000000E-01	 2.50000000E-01	 1.25000000E+00
					 7.50000000E-01	 5.00000000E-01	 1.50000000E+00
					 7.50000000E-01	 7.50000000E-01	 1.25000000E+00
					 5.00000000E-01	 7.50000000E-01	 1.00000000E+00
					 5.00000000E-01	 2.50000000E-01	 1.00000000E+00
					 5.00000000E-01	 2.50000000E-01	 1.50000000E+00
					 5.00000000E-01	 7.50000000E-01	 1.50000000E+00
					 2.50000000E-01	 5.00000000E-01	 1.00000000E+00
					 2.50000000E-01	 2.50000000E-01	 1.25000000E+00
					 2.50000000E-01	 5.00000000E-01	 1.50000000E+00
					 2.50000000E-01	 7.50000000E-01	 1.25000000E+00
				</DataArray>
			</Points>
			<Cells>
				<DataArray type="Int32" Name="connectivity" format="ascii">
					0 1 2 3 4 5 6 7 8 9 10 11 16 17 18 19 12 13 14 15 20 21 22 23 24 25 26 27 28 29 30 31 36 37 38 39 32 33 34 35 
				</DataArray>
				<DataArray type="Int32" Name="offsets" format="ascii">
					20 40 
				</DataArray>
				<DataArray type="UInt8" Name="types" format="ascii">
					25 25 
				</DataArray>
			</Cells>
			<PointData>
				<DataArray type="Float32" Name="DOR1" NumberOfComponents="3" ComponentName0="dD1dRx" ComponentName1="dD2dRx" ComponentName2="dD3dRx" format="ascii">
					 0.00000000E+00	 0.00000000E+00	 0.00000000E+00
					 0.00000000E+00	 0.00000000E+00	 0.00000000E+00
					 6.01896000E-05	 1.87196000E-04	 5.41982000E-06
					-6.05136000E-05	 1.87034000E-04	-4.77713000E-06
					 0.00000000E+00	 0.00000000E+00	 0.00000000E+00
					 0.00000000E+00	 0.00000000E+00	 0.00000000E+00
					 6.69536000E-05	 6.26204000E-05	 5.70718000E-05
					-6.72324000E-05	 6.26251000E-05	-5.71260000E-05
					 0.00000000E+00	 0.00000000E+00	 0.00000000E+00
					 2.89588000E-05	 9.17581000E-05	-7.42125000E-06
					-1.87325000E-07	 1.84908000E-04	 2.86211000E-07
					-2.90506000E-05	 9.16001000E-05	 7.72252000E-06
					 0.00000000E+00	 0.00000000E+00	 0.00000000E+00
					 0.00000000E+00	 0.00000000E+00	 0.00000000E+00
					 6.25029000E-05	 1.28167000E-04	 2.90722000E-05
					-6.27849000E-05	 1.28077000E-04	-2.87730000E-05
					 0.00000000E+00	 0.00000000E+00	 0.00000000E+00
					 3.59033000E-05	 1.65584000E-05	 3.75650000E-05
					-1.76200000E-07	 5.77320000E-05	-4.46717000E-08
					-3.59446000E-05	 1.65818000E-05	-3.76019000E-05
					 5.36236000E-05	-3.01992000E-04	-3.76289000E-06
					-5.28199000E-05	-3.01631000E-04	 4.20379000E-06
					 0.00000000E+00	 0.00000000E+00	-2.75985000E-06
					 0.00000000E+00	 0.00000000E+00	 3.98887000E-06
					 4.51057000E-05	-1.55380000E-04	-2.31445000E-05
					-4.42313000E-05	-1.55362000E-04	 2.32615000E-05
					 0.00000000E+00	 0.00000000E+00	 3.96120000E-05
					 0.00000000E+00	 0.00000000E+00	-3.93707000E-05
					 3.50909000E-07	-3.00699000E-04	 2.14809000E-07
					-2.01869000E-05	-1.21641000E-04	-2.07486000E-06
					 0.00000000E+00	 0.00000000E+00	 6.95186000E-07
					 2.06603000E-05	-1.21919000E-04	 3.03311000E-06
					 5.09061000E-05	-2.28164000E-04	-1.37259000E-05
					-5.00429000E-05	-2.27977000E-04	 1.40039000E-05
					 0.00000000E+00	 0.00000000E+00	 1.74403000E-05
					 0.00000000E+00	 0.00000000E+00	-1.66799000E-05
					 3.98572000E-07	-1.58800000E-04	 4.66990000E-08
					-2.00054000E-05	-9.56857000E-05	 4.13325000E-05
					 0.00000000E+00	 0.00000000E+00	 1.49022000E-07
					 2.05525000E-05	-9.57529000E-05	-4.11813000E-05
				</DataArray>
				<DataArray type="Float32" Name="DOR1" NumberOfComponents="3" ComponentName0="dD1dRy" ComponentName1="dD2dRy" ComponentName2="dD3dRy" format="ascii">
					 0.00000000E+00	 0.00000000E+00	 0.00000000E+00
					 0.00000000E+00	 0.00000000E+00	 0.00000000E+00
					-8.76379000E-05	 9.95696000E-06	 1.76297000E-05
					-8.76379000E-05	-9.95696000E-06	 1.76297000E-05
					 0.00000000E+00	 0.00000000E+00	 0.00000000E+00
					 0.00000000E+00	 0.00000000E+00	 0.00000000E+00
					-1.03230000E-04	-6.13356000E-06	-3.14608000E-05
					-1.03230000E-04	 6.13357000E-06	-3.14608000E-05
					 0.00000000E+00	 0.00000000E+00	 0.00000000E+00
					-4.74479000E-05	 5.87309000E-06	 9.24584000E-06
					-9.10739000E-05	 3.33373000E-12	 1.20742000E-05
					-4.74479000E-05	-5.87309000E-06	 9.24583000E-06
					 0.00000000E+00	 0.00000000E+00	 0.00000000E+00
					 0.00000000E+00	 0.00000000E+00	 0.00000000E+00
					-9.83723000E-05	 7.61591000E-06	 3.35154000E-05
					-9.83723000E-05	-7.61590000E-06	 3.35154000E-05
					 0.00000000E+00	 0.00000000E+00	 0.00000000E+00
					-3.77078000E-05	-4.70129000E-06	-1.52767000E-05
					-1.10757000E-04	 7.08521000E-12	-3.00621000E-05
					-3.77078000E-05	 4.70129000E-06	-1.52767000E-05
					 2.16421000E-04	-1.64241000E-05	 2.67641000E-05
					 2.16421000E-04	 1.64240000E-05	 2.67641000E-05
					 0.00000000E+00	 0.00000000E+00	 6.60717000E-05
					 0.00000000E+00	 0.00000000E+00	 6.60717000E-05
					 1.77623000E-04	-6.15954000E-06	 9.41089000E-06
					 1.77623000E-04	 6.15951000E-06	 9.41090000E-06
					 0.00000000E+00	 0.00000000E+00	 3.33518000E-05
					 0.00000000E+00	 0.00000000E+00	 3.33518000E-05
					 2.12860000E-04	-1.33916000E-11	 2.73532000E-05
					 9.66777000E-05	 9.14961000E-06	 5.20443000E-05
					 0.00000000E+00	 0.00000000E+00	 6.88441000E-05
					 9.66777000E-05	-9.14963000E-06	 5.20443000E-05
					 1.96732000E-04	-9.79974000E-06	 3.41568000E-05
					 1.96732000E-04	 9.79971000E-06	 3.41568000E-05
					 0.00000000E+00	 0.00000000E+00	 6.63215000E-05
					 0.00000000E+00	 0.00000000E+00	 6.63215000E-05
					 1.79294000E-04	-1.73769000E-11	 9.89834000E-06
					 9.63309000E-05	 6.47733000E-06	 1.37936000E-05
					 0.00000000E+00	 0.00000000E+00	 3.69156000E-05
					 9.63309000E-05	-6.47735000E-06	 1.37936000E-05
				</DataArray>
				<DataArray type="Float32" Name="DOR1" NumberOfComponents="3" ComponentName0="dD1dRz" ComponentName1="dD2dRz" ComponentName2="dD3dRz" format="ascii">
					 0.00000000E+00	 0.00000000E+00	 0.00000000E+00
					 0.00000000E+00	 0.00000000E+00	 0.00000000E+00
					-1.22357000E-06	-9.72030000E-06	 2.85954000E-06
					 1.23793000E-06	-9.73222000E-06	-2.85542000E-06
					 0.00000000E+00	 0.00000000E+00	 0.00000000E+00
					 0.00000000E+00	 0.00000000E+00	 0.00000000E+00
					 8.02308000E-06	-2.02820000E-06	-7.46718000E-08
					-8.02476000E-06	-2.02771000E-06	 7.28086000E-08
					 0.00000000E+00	 0.00000000E+00	 0.00000000E+00
					 4.71226000E-06	-7.64281000E-06	-1.10861000E-06
					 1.15258000E-09	-1.01589000E-05	 2.60930000E-09
					-4.70265000E-06	-7.66018000E-06	 1.11071000E-06
					 0.00000000E+00	 0.00000000E+00	 0.00000000E+00
					 0.00000000E+00	 0.00000000E+00	 0.00000000E+00
					 4.57686000E-06	 2.48623000E-06	 1.85380000E-08
					-4.57391000E-06	 2.47562000E-06	-1.43585000E-08
					 0.00000000E+00	 0.00000000E+00	 0.00000000E+00
					 4.02475000E-06	 1.53375000E-06	 1.41370000E-06
					-8.00070000E-09	-1.44472000E-06	-2.81596000E-09
					-4.02571000E-06	 1.53665000E-06	-1.41473000E-06
					-7.92105000E-06	-1.48700000E-05	-5.00763000E-07
					 7.94517000E-06	-1.48356000E-05	 5.04724000E-07
					 0.00000000E+00	 0.00000000E+00	 9.75233000E-06
					 0.00000000E+00	 0.00000000E+00	-9.74012000E-06
					-7.64643000E-06	 7.93054000E-07	-1.83660000E-07
					 7.66523000E-06	 7.90106000E-07	 1.83898000E-07
					 0.00000000E+00	 0.00000000E+00	-8.43265000E-06
					 0.00000000E+00	 0.00000000E+00	 8.43592000E-06
					 5.95560000E-09	-1.58251000E-05	 1.76878000E-09
					 9.25806000E-06	-1.22195000E-05	 5.11434000E-06
					 0.00000000E+00	 0.00000000E+00	 1.35299000E-08
					-9.23529000E-06	-1.22489000E-05	-5.10356000E-06
					-8.77165000E-06	 3.73372000E-06	 2.27087000E-08
					 8.78729000E-06	 3.74834000E-06	-1.80126000E-08
					 0.00000000E+00	 0.00000000E+00	-6.30320000E-07
					 0.00000000E+00	 0.00000000E+00	 6.32583000E-07
					 5.91357000E-09	 1.66944000E-06	-9.94482000E-10
					 8.32152000E-06	 5.36122000E-06	-4.13575000E-06
					 0.00000000E+00	 0.00000000E+00	 4.40357000E-09
					-8.32028000E-06	 5.35446000E-06	 4.13850000E-06
				</DataArray>
			</PointData>
		</Piece>
	</UnstructuredGrid>
</VTKFile>