    1C
    1C
    1UUSER
    1UDATE              25.january.2020     
    1UTIME              14:48:38
    1UHOST
    1UPGM               CalculiX
    1UDIR
    1UDBN
    2C                                                                   1
 -1         1 6.00000E+00 0.00000E+00 0.00000E+00
 -1         2 5.40000E+00 0.00000E+00 0.00000E+00
 -1         3 5.40000E+00 0.00000E+00 1.00000E-01
 -1         4 6.00000E+00 0.00000E+00 1.00000E-01
 -1         5 6.30000E+00 1.00000E-01 0.00000E+00
 -1         6 5.70000E+00 1.00000E-01 0.00000E+00
 -1         7 5.70000E+00 1.00000E-01 1.00000E-01
 -1         8 6.30000E+00 1.00000E-01 1.00000E-01
 -1         9 6.60000E+00 2.00000E-01 0.00000E+00
 -1        10 6.00000E+00 2.00000E-01 0.00000E+00
 -1        11 6.00000E+00 2.00000E-01 1.00000E-01
 -1        12 6.60000E+00 2.00000E-01 1.00000E-01
 -1        13 6.90000E+00 3.00000E-01 0.00000E+00
 -1        14 6.30000E+00 3.00000E-01 0.00000E+00
 -1        15 6.30000E+00 3.00000E-01 1.00000E-01
 -1        16 6.90000E+00 3.00000E-01 1.00000E-01
 -1        17 7.20000E+00 4.00000E-01 0.00000E+00
 -1        18 6.60000E+00 4.00000E-01 0.00000E+00
 -1        19 6.60000E+00 4.00000E-01 1.00000E-01
 -1        20 7.20000E+00 4.00000E-01 1.00000E-01
 -1        21 7.50000E+00 5.00000E-01 0.00000E+00
 -1        22 6.90000E+00 5.00000E-01 0.00000E+00
 -1        23 6.90000E+00 5.00000E-01 1.00000E-01
 -1        24 7.50000E+00 5.00000E-01 1.00000E-01
 -1        25 7.80000E+00 6.00000E-01 0.00000E+00
 -1        26 7.20000E+00 6.00000E-01 0.00000E+00
 -1        27 7.20000E+00 6.00000E-01 1.00000E-01
 -1        28 7.80000E+00 6.00000E-01 1.00000E-01
 -1        29 8.10000E+00 7.00000E-01 0.00000E+00
 -1        30 7.50000E+00 7.00000E-01 0.00000E+00
 -1        31 7.50000E+00 7.00000E-01 1.00000E-01
 -1        32 8.10000E+00 7.00000E-01 1.00000E-01
 -1        33 8.40000E+00 8.00000E-01 0.00000E+00
 -1        34 7.80000E+00 8.00000E-01 0.00000E+00
 -1        35 7.80000E+00 8.00000E-01 1.00000E-01
 -1        36 8.40000E+00 8.00000E-01 1.00000E-01
 -1        37 8.70000E+00 9.00000E-01 0.00000E+00
 -1        38 8.10000E+00 9.00000E-01 0.00000E+00
 -1        39 8.10000E+00 9.00000E-01 1.00000E-01
 -1        40 8.70000E+00 9.00000E-01 1.00000E-01
 -1        41 9.00000E+00 1.00000E+00 0.00000E+00
 -1        42 8.40000E+00 1.00000E+00 0.00000E+00
 -1        43 8.40000E+00 1.00000E+00 1.00000E-01
 -1        44 9.00000E+00 1.00000E+00 1.00000E-01
 -1        45 4.80000E+00 0.00000E+00 0.00000E+00
 -1        46 4.80000E+00 0.00000E+00 1.00000E-01
 -1        47 5.10000E+00 1.00000E-01 0.00000E+00
 -1        48 5.10000E+00 1.00000E-01 1.00000E-01
 -1        49 5.40000E+00 2.00000E-01 0.00000E+00
 -1        50 5.40000E+00 2.00000E-01 1.00000E-01
 -1        51 5.70000E+00 3.00000E-01 0.00000E+00
 -1        52 5.70000E+00 3.00000E-01 1.00000E-01
 -1        53 6.00000E+00 4.00000E-01 0.00000E+00
 -1        54 6.00000E+00 4.00000E-01 1.00000E-01
 -1        55 6.30000E+00 5.00000E-01 0.00000E+00
 -1        56 6.30000E+00 5.00000E-01 1.00000E-01
 -1        57 6.60000E+00 6.00000E-01 0.00000E+00
 -1        58 6.60000E+00 6.00000E-01 1.00000E-01
 -1        59 6.90000E+00 7.00000E-01 0.00000E+00
 -1        60 6.90000E+00 7.00000E-01 1.00000E-01
 -1        61 7.20000E+00 8.00000E-01 0.00000E+00
 -1        62 7.20000E+00 8.00000E-01 1.00000E-01
 -1        63 7.50000E+00 9.00000E-01 0.00000E+00
 -1        64 7.50000E+00 9.00000E-01 1.00000E-01
 -1        65 7.80000E+00 1.00000E+00 0.00000E+00
 -1        66 7.80000E+00 1.00000E+00 1.00000E-01
 -1        67 4.20000E+00 0.00000E+00 0.00000E+00
 -1        68 4.20000E+00 0.00000E+00 1.00000E-01
 -1        69 4.50000E+00 1.00000E-01 0.00000E+00
 -1        70 4.50000E+00 1.00000E-01 1.00000E-01
 -1        71 4.80000E+00 2.00000E-01 0.00000E+00
 -1        72 4.80000E+00 2.00000E-01 1.00000E-01
 -1        73 5.10000E+00 3.00000E-01 0.00000E+00
 -1        74 5.10000E+00 3.00000E-01 1.00000E-01
 -1        75 5.40000E+00 4.00000E-01 0.00000E+00
 -1        76 5.40000E+00 4.00000E-01 1.00000E-01
 -1        77 5.70000E+00 5.00000E-01 0.00000E+00
 -1        78 5.70000E+00 5.00000E-01 1.00000E-01
 -1        79 6.00000E+00 6.00000E-01 0.00000E+00
 -1        80 6.00000E+00 6.00000E-01 1.00000E-01
 -1        81 6.30000E+00 7.00000E-01 0.00000E+00
 -1        82 6.30000E+00 7.00000E-01 1.00000E-01
 -1        83 6.60000E+00 8.00000E-01 0.00000E+00
 -1        84 6.60000E+00 8.00000E-01 1.00000E-01
 -1        85 6.90000E+00 9.00000E-01 0.00000E+00
 -1        86 6.90000E+00 9.00000E-01 1.00000E-01
 -1        87 7.20000E+00 1.00000E+00 0.00000E+00
 -1        88 7.20000E+00 1.00000E+00 1.00000E-01
 -1        89 3.60000E+00 0.00000E+00 0.00000E+00
 -1        90 3.60000E+00 0.00000E+00 1.00000E-01
 -1        91 3.90000E+00 1.00000E-01 0.00000E+00
 -1        92 3.90000E+00 1.00000E-01 1.00000E-01
 -1        93 4.20000E+00 2.00000E-01 0.00000E+00
 -1        94 4.20000E+00 2.00000E-01 1.00000E-01
 -1        95 4.50000E+00 3.00000E-01 0.00000E+00
 -1        96 4.50000E+00 3.00000E-01 1.00000E-01
 -1        97 4.80000E+00 4.00000E-01 0.00000E+00
 -1        98 4.80000E+00 4.00000E-01 1.00000E-01
 -1        99 5.10000E+00 5.00000E-01 0.00000E+00
 -1       100 5.10000E+00 5.00000E-01 1.00000E-01
 -1       101 5.40000E+00 6.00000E-01 0.00000E+00
 -1       102 5.40000E+00 6.00000E-01 1.00000E-01
 -1       103 5.70000E+00 7.00000E-01 0.00000E+00
 -1       104 5.70000E+00 7.00000E-01 1.00000E-01
 -1       105 6.00000E+00 8.00000E-01 0.00000E+00
 -1       106 6.00000E+00 8.00000E-01 1.00000E-01
 -1       107 6.30000E+00 9.00000E-01 0.00000E+00
 -1       108 6.30000E+00 9.00000E-01 1.00000E-01
 -1       109 6.60000E+00 1.00000E+00 0.00000E+00
 -1       110 6.60000E+00 1.00000E+00 1.00000E-01
 -1       111 3.00000E+00 0.00000E+00 0.00000E+00
 -1       112 3.00000E+00 0.00000E+00 1.00000E-01
 -1       113 3.30000E+00 1.00000E-01 0.00000E+00
 -1       114 3.30000E+00 1.00000E-01 1.00000E-01
 -1       115 3.60000E+00 2.00000E-01 0.00000E+00
 -1       116 3.60000E+00 2.00000E-01 1.00000E-01
 -1       117 3.90000E+00 3.00000E-01 0.00000E+00
 -1       118 3.90000E+00 3.00000E-01 1.00000E-01
 -1       119 4.20000E+00 4.00000E-01 0.00000E+00
 -1       120 4.20000E+00 4.00000E-01 1.00000E-01
 -1       121 4.50000E+00 5.00000E-01 0.00000E+00
 -1       122 4.50000E+00 5.00000E-01 1.00000E-01
 -1       123 4.80000E+00 6.00000E-01 0.00000E+00
 -1       124 4.80000E+00 6.00000E-01 1.00000E-01
 -1       125 5.10000E+00 7.00000E-01 0.00000E+00
 -1       126 5.10000E+00 7.00000E-01 1.00000E-01
 -1       127 5.40000E+00 8.00000E-01 0.00000E+00
 -1       128 5.40000E+00 8.00000E-01 1.00000E-01
 -1       129 5.70000E+00 9.00000E-01 0.00000E+00
 -1       130 5.70000E+00 9.00000E-01 1.00000E-01
 -1       131 6.00000E+00 1.00000E+00 0.00000E+00
 -1       132 6.00000E+00 1.00000E+00 1.00000E-01
 -1       133 2.40000E+00 0.00000E+00 0.00000E+00
 -1       134 2.40000E+00 0.00000E+00 1.00000E-01
 -1       135 2.70000E+00 1.00000E-01 0.00000E+00
 -1       136 2.70000E+00 1.00000E-01 1.00000E-01
 -1       137 3.00000E+00 2.00000E-01 0.00000E+00
 -1       138 3.00000E+00 2.00000E-01 1.00000E-01
 -1       139 3.30000E+00 3.00000E-01 0.00000E+00
 -1       140 3.30000E+00 3.00000E-01 1.00000E-01
 -1       141 3.60000E+00 4.00000E-01 0.00000E+00
 -1       142 3.60000E+00 4.00000E-01 1.00000E-01
 -1       143 3.90000E+00 5.00000E-01 0.00000E+00
 -1       144 3.90000E+00 5.00000E-01 1.00000E-01
 -1       145 4.20000E+00 6.00000E-01 0.00000E+00
 -1       146 4.20000E+00 6.00000E-01 1.00000E-01
 -1       147 4.50000E+00 7.00000E-01 0.00000E+00
 -1       148 4.50000E+00 7.00000E-01 1.00000E-01
 -1       149 4.80000E+00 8.00000E-01 0.00000E+00
 -1       150 4.80000E+00 8.00000E-01 1.00000E-01
 -1       151 5.10000E+00 9.00000E-01 0.00000E+00
 -1       152 5.10000E+00 9.00000E-01 1.00000E-01
 -1       153 5.40000E+00 1.00000E+00 0.00000E+00
 -1       154 5.40000E+00 1.00000E+00 1.00000E-01
 -1       155 1.80000E+00 0.00000E+00 0.00000E+00
 -1       156 1.80000E+00 0.00000E+00 1.00000E-01
 -1       157 2.10000E+00 1.00000E-01 0.00000E+00
 -1       158 2.10000E+00 1.00000E-01 1.00000E-01
 -1       159 2.40000E+00 2.00000E-01 0.00000E+00
 -1       160 2.40000E+00 2.00000E-01 1.00000E-01
 -1       161 2.70000E+00 3.00000E-01 0.00000E+00
 -1       162 2.70000E+00 3.00000E-01 1.00000E-01
 -1       163 3.00000E+00 4.00000E-01 0.00000E+00
 -1       164 3.00000E+00 4.00000E-01 1.00000E-01
 -1       165 3.30000E+00 5.00000E-01 0.00000E+00
 -1       166 3.30000E+00 5.00000E-01 1.00000E-01
 -1       167 3.60000E+00 6.00000E-01 0.00000E+00
 -1       168 3.60000E+00 6.00000E-01 1.00000E-01
 -1       169 3.90000E+00 7.00000E-01 0.00000E+00
 -1       170 3.90000E+00 7.00000E-01 1.00000E-01
 -1       171 4.20000E+00 8.00000E-01 0.00000E+00
 -1       172 4.20000E+00 8.00000E-01 1.00000E-01
 -1       173 4.50000E+00 9.00000E-01 0.00000E+00
 -1       174 4.50000E+00 9.00000E-01 1.00000E-01
 -1       175 4.80000E+00 1.00000E+00 0.00000E+00
 -1       176 4.80000E+00 1.00000E+00 1.00000E-01
 -1       177 1.20000E+00 0.00000E+00 0.00000E+00
 -1       178 1.20000E+00 0.00000E+00 1.00000E-01
 -1       179 1.50000E+00 1.00000E-01 0.00000E+00
 -1       180 1.50000E+00 1.00000E-01 1.00000E-01
 -1       181 1.80000E+00 2.00000E-01 0.00000E+00
 -1       182 1.80000E+00 2.00000E-01 1.00000E-01
 -1       183 2.10000E+00 3.00000E-01 0.00000E+00
 -1       184 2.10000E+00 3.00000E-01 1.00000E-01
 -1       185 2.40000E+00 4.00000E-01 0.00000E+00
 -1       186 2.40000E+00 4.00000E-01 1.00000E-01
 -1       187 2.70000E+00 5.00000E-01 0.00000E+00
 -1       188 2.70000E+00 5.00000E-01 1.00000E-01
 -1       189 3.00000E+00 6.00000E-01 0.00000E+00
 -1       190 3.00000E+00 6.00000E-01 1.00000E-01
 -1       191 3.30000E+00 7.00000E-01 0.00000E+00
 -1       192 3.30000E+00 7.00000E-01 1.00000E-01
 -1       193 3.60000E+00 8.00000E-01 0.00000E+00
 -1       194 3.60000E+00 8.00000E-01 1.00000E-01
 -1       195 3.90000E+00 9.00000E-01 0.00000E+00
 -1       196 3.90000E+00 9.00000E-01 1.00000E-01
 -1       197 4.20000E+00 1.00000E+00 0.00000E+00
 -1       198 4.20000E+00 1.00000E+00 1.00000E-01
 -1       199 6.00000E-01 0.00000E+00 0.00000E+00
 -1       200 6.00000E-01 0.00000E+00 1.00000E-01
 -1       201 9.00000E-01 1.00000E-01 0.00000E+00
 -1       202 9.00000E-01 1.00000E-01 1.00000E-01
 -1       203 1.20000E+00 2.00000E-01 0.00000E+00
 -1       204 1.20000E+00 2.00000E-01 1.00000E-01
 -1       205 1.50000E+00 3.00000E-01 0.00000E+00
 -1       206 1.50000E+00 3.00000E-01 1.00000E-01
 -1       207 1.80000E+00 4.00000E-01 0.00000E+00
 -1       208 1.80000E+00 4.00000E-01 1.00000E-01
 -1       209 2.10000E+00 5.00000E-01 0.00000E+00
 -1       210 2.10000E+00 5.00000E-01 1.00000E-01
 -1       211 2.40000E+00 6.00000E-01 0.00000E+00
 -1       212 2.40000E+00 6.00000E-01 1.00000E-01
 -1       213 2.70000E+00 7.00000E-01 0.00000E+00
 -1       214 2.70000E+00 7.00000E-01 1.00000E-01
 -1       215 3.00000E+00 8.00000E-01 0.00000E+00
 -1       216 3.00000E+00 8.00000E-01 1.00000E-01
 -1       217 3.30000E+00 9.00000E-01 0.00000E+00
 -1       218 3.30000E+00 9.00000E-01 1.00000E-01
 -1       219 3.60000E+00 1.00000E+00 0.00000E+00
 -1       220 3.60000E+00 1.00000E+00 1.00000E-01
 -1       221 0.00000E+00 0.00000E+00 0.00000E+00
 -1       222 0.00000E+00 0.00000E+00 1.00000E-01
 -1       223 3.00000E-01 1.00000E-01 0.00000E+00
 -1       224 3.00000E-01 1.00000E-01 1.00000E-01
 -1       225 6.00000E-01 2.00000E-01 0.00000E+00
 -1       226 6.00000E-01 2.00000E-01 1.00000E-01
 -1       227 9.00000E-01 3.00000E-01 0.00000E+00
 -1       228 9.00000E-01 3.00000E-01 1.00000E-01
 -1       229 1.20000E+00 4.00000E-01 0.00000E+00
 -1       230 1.20000E+00 4.00000E-01 1.00000E-01
 -1       231 1.50000E+00 5.00000E-01 0.00000E+00
 -1       232 1.50000E+00 5.00000E-01 1.00000E-01
 -1       233 1.80000E+00 6.00000E-01 0.00000E+00
 -1       234 1.80000E+00 6.00000E-01 1.00000E-01
 -1       235 2.10000E+00 7.00000E-01 0.00000E+00
 -1       236 2.10000E+00 7.00000E-01 1.00000E-01
 -1       237 2.40000E+00 8.00000E-01 0.00000E+00
 -1       238 2.40000E+00 8.00000E-01 1.00000E-01
 -1       239 2.70000E+00 9.00000E-01 0.00000E+00
 -1       240 2.70000E+00 9.00000E-01 1.00000E-01
 -1       241 3.00000E+00 1.00000E+00 0.00000E+00
 -1       242 3.00000E+00 1.00000E+00 1.00000E-01
 -3
    3C                                                                   1
 -1         1    1    0WATER
 -2         1         2         3         4         5         6         7         8
 -1         2    1    0WATER
 -2         5         6         7         8         9        10        11        12
 -1         3    1    0WATER
 -2         9        10        11        12        13        14        15        16
 -1         4    1    0WATER
 -2        13        14        15        16        17        18        19        20
 -1         5    1    0WATER
 -2        17        18        19        20        21        22        23        24
 -1         6    1    0WATER
 -2        21        22        23        24        25        26        27        28
 -1         7    1    0WATER
 -2        25        26        27        28        29        30        31        32
 -1         8    1    0WATER
 -2        29        30        31        32        33        34        35        36
 -1         9    1    0WATER
 -2        33        34        35        36        37        38        39        40
 -1        10    1    0WATER
 -2        37        38        39        40        41        42        43        44
 -1        11    1    0WATER
 -2         2        45        46         3         6        47        48         7
 -1        12    1    0WATER
 -2         6        47        48         7        10        49        50        11
 -1        13    1    0WATER
 -2        10        49        50        11        14        51        52        15
 -1        14    1    0WATER
 -2        14        51        52        15        18        53        54        19
 -1        15    1    0WATER
 -2        18        53        54        19        22        55        56        23
 -1        16    1    0WATER
 -2        22        55        56        23        26        57        58        27
 -1        17    1    0WATER
 -2        26        57        58        27        30        59        60        31
 -1        18    1    0WATER
 -2        30        59        60        31        34        61        62        35
 -1        19    1    0WATER
 -2        34        61        62        35        38        63        64        39
 -1        20    1    0WATER
 -2        38        63        64        39        42        65        66        43
 -1        21    1    0WATER
 -2        45        67        68        46        47        69        70        48
 -1        22    1    0WATER
 -2        47        69        70        48        49        71        72        50
 -1        23    1    0WATER
 -2        49        71        72        50        51        73        74        52
 -1        24    1    0WATER
 -2        51        73        74        52        53        75        76        54
 -1        25    1    0WATER
 -2        53        75        76        54        55        77        78        56
 -1        26    1    0WATER
 -2        55        77        78        56        57        79        80        58
 -1        27    1    0WATER
 -2        57        79        80        58        59        81        82        60
 -1        28    1    0WATER
 -2        59        81        82        60        61        83        84        62
 -1        29    1    0WATER
 -2        61        83        84        62        63        85        86        64
 -1        30    1    0WATER
 -2        63        85        86        64        65        87        88        66
 -1        31    1    0WATER
 -2        67        89        90        68        69        91        92        70
 -1        32    1    0WATER
 -2        69        91        92        70        71        93        94        72
 -1        33    1    0WATER
 -2        71        93        94        72        73        95        96        74
 -1        34    1    0WATER
 -2        73        95        96        74        75        97        98        76
 -1        35    1    0WATER
 -2        75        97        98        76        77        99       100        78
 -1        36    1    0WATER
 -2        77        99       100        78        79       101       102        80
 -1        37    1    0WATER
 -2        79       101       102        80        81       103       104        82
 -1        38    1    0WATER
 -2        81       103       104        82        83       105       106        84
 -1        39    1    0WATER
 -2        83       105       106        84        85       107       108        86
 -1        40    1    0WATER
 -2        85       107       108        86        87       109       110        88
 -1        41    1    0WATER
 -2        89       111       112        90        91       113       114        92
 -1        42    1    0WATER
 -2        91       113       114        92        93       115       116        94
 -1        43    1    0WATER
 -2        93       115       116        94        95       117       118        96
 -1        44    1    0WATER
 -2        95       117       118        96        97       119       120        98
 -1        45    1    0WATER
 -2        97       119       120        98        99       121       122       100
 -1        46    1    0WATER
 -2        99       121       122       100       101       123       124       102
 -1        47    1    0WATER
 -2       101       123       124       102       103       125       126       104
 -1        48    1    0WATER
 -2       103       125       126       104       105       127       128       106
 -1        49    1    0WATER
 -2       105       127       128       106       107       129       130       108
 -1        50    1    0WATER
 -2       107       129       130       108       109       131       132       110
 -1        51    1    0WATER
 -2       111       133       134       112       113       135       136       114
 -1        52    1    0WATER
 -2       113       135       136       114       115       137       138       116
 -1        53    1    0WATER
 -2       115       137       138       116       117       139       140       118
 -1        54    1    0WATER
 -2       117       139       140       118       119       141       142       120
 -1        55    1    0WATER
 -2       119       141       142       120       121       143       144       122
 -1        56    1    0WATER
 -2       121       143       144       122       123       145       146       124
 -1        57    1    0WATER
 -2       123       145       146       124       125       147       148       126
 -1        58    1    0WATER
 -2       125       147       148       126       127       149       150       128
 -1        59    1    0WATER
 -2       127       149       150       128       129       151       152       130
 -1        60    1    0WATER
 -2       129       151       152       130       131       153       154       132
 -1        61    1    0WATER
 -2       133       155       156       134       135       157       158       136
 -1        62    1    0WATER
 -2       135       157       158       136       137       159       160       138
 -1        63    1    0WATER
 -2       137       159       160       138       139       161       162       140
 -1        64    1    0WATER
 -2       139       161       162       140       141       163       164       142
 -1        65    1    0WATER
 -2       141       163       164       142       143       165       166       144
 -1        66    1    0WATER
 -2       143       165       166       144       145       167       168       146
 -1        67    1    0WATER
 -2       145       167       168       146       147       169       170       148
 -1        68    1    0WATER
 -2       147       169       170       148       149       171       172       150
 -1        69    1    0WATER
 -2       149       171       172       150       151       173       174       152
 -1        70    1    0WATER
 -2       151       173       174       152       153       175       176       154
 -1        71    1    0WATER
 -2       155       177       178       156       157       179       180       158
 -1        72    1    0WATER
 -2       157       179       180       158       159       181       182       160
 -1        73    1    0WATER
 -2       159       181       182       160       161       183       184       162
 -1        74    1    0WATER
 -2       161       183       184       162       163       185       186       164
 -1        75    1    0WATER
 -2       163       185       186       164       165       187       188       166
 -1        76    1    0WATER
 -2       165       187       188       166       167       189       190       168
 -1        77    1    0WATER
 -2       167       189       190       168       169       191       192       170
 -1        78    1    0WATER
 -2       169       191       192       170       171       193       194       172
 -1        79    1    0WATER
 -2       171       193       194       172       173       195       196       174
 -1        80    1    0WATER
 -2       173       195       196       174       175       197       198       176
 -1        81    1    0WATER
 -2       177       199       200       178       179       201       202       180
 -1        82    1    0WATER
 -2       179       201       202       180       181       203       204       182
 -1        83    1    0WATER
 -2       181       203       204       182       183       205       206       184
 -1        84    1    0WATER
 -2       183       205       206       184       185       207       208       186
 -1        85    1    0WATER
 -2       185       207       208       186       187       209       210       188
 -1        86    1    0WATER
 -2       187       209       210       188       189       211       212       190
 -1        87    1    0WATER
 -2       189       211       212       190       191       213       214       192
 -1        88    1    0WATER
 -2       191       213       214       192       193       215       216       194
 -1        89    1    0WATER
 -2       193       215       216       194       195       217       218       196
 -1        90    1    0WATER
 -2       195       217       218       196       197       219       220       198
 -1        91    1    0WATER
 -2       199       221       222       200       201       223       224       202
 -1        92    1    0WATER
 -2       201       223       224       202       203       225       226       204
 -1        93    1    0WATER
 -2       203       225       226       204       205       227       228       206
 -1        94    1    0WATER
 -2       205       227       228       206       207       229       230       208
 -1        95    1    0WATER
 -2       207       229       230       208       209       231       232       210
 -1        96    1    0WATER
 -2       209       231       232       210       211       233       234       212
 -1        97    1    0WATER
 -2       211       233       234       212       213       235       236       214
 -1        98    1    0WATER
 -2       213       235       236       214       215       237       238       216
 -1        99    1    0WATER
 -2       215       237       238       216       217       239       240       218
 -1       100    1    0WATER
 -2       217       239       240       218       219       241       242       220
 -3
 9999
