<?xml version="1.0"?>
<VTKFile type="UnstructuredGrid" version="0.1" byte_order="LittleEndian">
	<UnstructuredGrid>
		<Piece NumberOfPoints="320" NumberOfCells="128">
			<Points>
				<DataArray type="Float64" NumberOfComponents="3" format="ascii">
					-1.00000000E+00	 0.00000000E+00	 0.00000000E+00
					-9.80785000E-01	 1.95090000E-01	 0.00000000E+00
					-9.80785000E-01	 1.95090000E-01	 1.00000000E-01
					-1.00000000E+00	 0.00000000E+00	 1.00000000E-01
					-8.75000000E-01	 0.00000000E+00	 0.00000000E+00
					-8.58187000E-01	 1.70704000E-01	-2.22045000E-16
					-8.58187000E-01	 1.70704000E-01	 1.00000000E-01
					-8.75000000E-01	 0.00000000E+00	 1.00000000E-01
					-7.50000000E-01	 0.00000000E+00	 0.00000000E+00
					-7.35589000E-01	 1.46318000E-01	 5.55112000E-17
					-7.35589000E-01	 1.46318000E-01	 1.00000000E-01
					-7.50000000E-01	 0.00000000E+00	 1.00000000E-01
					-6.25000000E-01	 0.00000000E+00	 0.00000000E+00
					-6.12991000E-01	 1.21931000E-01	 0.00000000E+00
					-6.12991000E-01	 1.21931000E-01	 1.00000000E-01
					-6.25000000E-01	 0.00000000E+00	 1.00000000E-01
					-5.00000000E-01	 0.00000000E+00	 0.00000000E+00
					-4.90393000E-01	 9.75452000E-02	 0.00000000E+00
					-4.90393000E-01	 9.75452000E-02	 1.00000000E-01
					-5.00000000E-01	 0.00000000E+00	 1.00000000E-01
					-9.23880000E-01	 3.82683000E-01	 0.00000000E+00
					-9.23880000E-01	 3.82683000E-01	 1.00000000E-01
					-8.08395000E-01	 3.34848000E-01	 0.00000000E+00
					-8.08395000E-01	 3.34848000E-01	 1.00000000E-01
					-6.92910000E-01	 2.87013000E-01	 1.11022000E-16
					-6.92910000E-01	 2.87013000E-01	 1.00000000E-01
					-5.77425000E-01	 2.39177000E-01	 1.11022000E-16
					-5.77425000E-01	 2.39177000E-01	 1.00000000E-01
					-4.61940000E-01	 1.91342000E-01	 0.00000000E+00
					-4.61940000E-01	 1.91342000E-01	 1.00000000E-01
					-8.31470000E-01	 5.55570000E-01	 0.00000000E+00
					-8.31470000E-01	 5.55570000E-01	 1.00000000E-01
					-7.27536000E-01	 4.86124000E-01	 0.00000000E+00
					-7.27536000E-01	 4.86124000E-01	 1.00000000E-01
					-6.23602000E-01	 4.16678000E-01	 0.00000000E+00
					-6.23602000E-01	 4.16678000E-01	 1.00000000E-01
					-5.19669000E-01	 3.47231000E-01	 0.00000000E+00
					-5.19669000E-01	 3.47231000E-01	 1.00000000E-01
					-4.15735000E-01	 2.77785000E-01	 0.00000000E+00
					-4.15735000E-01	 2.77785000E-01	 1.00000000E-01
					-7.07107000E-01	 7.07107000E-01	 0.00000000E+00
					-7.07107000E-01	 7.07107000E-01	 1.00000000E-01
					-6.18718000E-01	 6.18718000E-01	-1.11022000E-16
					-6.18718000E-01	 6.18718000E-01	 1.00000000E-01
					-5.30330000E-01	 5.30330000E-01	 5.55112000E-17
					-5.30330000E-01	 5.30330000E-01	 1.00000000E-01
					-4.41942000E-01	 4.41942000E-01	-2.22045000E-16
					-4.41942000E-01	 4.41942000E-01	 1.00000000E-01
					-3.53553000E-01	 3.53553000E-01	 0.00000000E+00
					-3.53553000E-01	 3.53553000E-01	 1.00000000E-01
					-5.55570000E-01	 8.31470000E-01	 0.00000000E+00
					-5.55570000E-01	 8.31470000E-01	 1.00000000E-01
					-4.86124000E-01	 7.27536000E-01	-1.11022000E-16
					-4.86124000E-01	 7.27536000E-01	 1.00000000E-01
					-4.16678000E-01	 6.23602000E-01	 0.00000000E+00
					-4.16678000E-01	 6.23602000E-01	 1.00000000E-01
					-3.47231000E-01	 5.19669000E-01	 0.00000000E+00
					-3.47231000E-01	 5.19669000E-01	 1.00000000E-01
					-2.77785000E-01	 4.15735000E-01	 0.00000000E+00
					-2.77785000E-01	 4.15735000E-01	 1.00000000E-01
					-3.82683000E-01	 9.23880000E-01	 0.00000000E+00
					-3.82683000E-01	 9.23880000E-01	 1.00000000E-01
					-3.34848000E-01	 8.08395000E-01	 5.55112000E-17
					-3.34848000E-01	 8.08395000E-01	 1.00000000E-01
					-2.87013000E-01	 6.92910000E-01	 5.55112000E-17
					-2.87013000E-01	 6.92910000E-01	 1.00000000E-01
					-2.39177000E-01	 5.77425000E-01	 1.11022000E-16
					-2.39177000E-01	 5.77425000E-01	 1.00000000E-01
					-1.91342000E-01	 4.61940000E-01	 0.00000000E+00
					-1.91342000E-01	 4.61940000E-01	 1.00000000E-01
					-1.95090000E-01	 9.80785000E-01	 0.00000000E+00
					-1.95090000E-01	 9.80785000E-01	 1.00000000E-01
					-1.70704000E-01	 8.58187000E-01	 5.55112000E-17
					-1.70704000E-01	 8.58187000E-01	 1.00000000E-01
					-1.46318000E-01	 7.35589000E-01	 0.00000000E+00
					-1.46318000E-01	 7.35589000E-01	 1.00000000E-01
					-1.21931000E-01	 6.12991000E-01	 0.00000000E+00
					-1.21931000E-01	 6.12991000E-01	 1.00000000E-01
					-9.75452000E-02	 4.90393000E-01	 0.00000000E+00
					-9.75452000E-02	 4.90393000E-01	 1.00000000E-01
					 0.00000000E+00	 1.00000000E+00	 0.00000000E+00
					 0.00000000E+00	 1.00000000E+00	 1.00000000E-01
					 0.00000000E+00	 8.75000000E-01	 0.00000000E+00
					 0.00000000E+00	 8.75000000E-01	 1.00000000E-01
					 0.00000000E+00	 7.50000000E-01	 0.00000000E+00
					 0.00000000E+00	 7.50000000E-01	 1.00000000E-01
					 0.00000000E+00	 6.25000000E-01	 0.00000000E+00
					 0.00000000E+00	 6.25000000E-01	 1.00000000E-01
					 0.00000000E+00	 5.00000000E-01	 0.00000000E+00
					 0.00000000E+00	 5.00000000E-01	 1.00000000E-01
					 0.00000000E+00	-1.00000000E+00	 0.00000000E+00
					-1.95090000E-01	-9.80785000E-01	 0.00000000E+00
					-1.95090000E-01	-9.80785000E-01	 1.00000000E-01
					 0.00000000E+00	-1.00000000E+00	 1.00000000E-01
					 0.00000000E+00	-8.75000000E-01	 0.00000000E+00
					-1.70704000E-01	-8.58187000E-01	-2.22045000E-16
					-1.70704000E-01	-8.58187000E-01	 1.00000000E-01
					 0.00000000E+00	-8.75000000E-01	 1.00000000E-01
					 0.00000000E+00	-7.50000000E-01	 0.00000000E+00
					-1.46318000E-01	-7.35589000E-01	 5.55112000E-17
					-1.46318000E-01	-7.35589000E-01	 1.00000000E-01
					 0.00000000E+00	-7.50000000E-01	 1.00000000E-01
					 0.00000000E+00	-6.25000000E-01	 0.00000000E+00
					-1.21931000E-01	-6.12991000E-01	 0.00000000E+00
					-1.21931000E-01	-6.12991000E-01	 1.00000000E-01
					 0.00000000E+00	-6.25000000E-01	 1.00000000E-01
					 0.00000000E+00	-5.00000000E-01	 0.00000000E+00
					-9.75452000E-02	-4.90393000E-01	 0.00000000E+00
					-9.75452000E-02	-4.90393000E-01	 1.00000000E-01
					 0.00000000E+00	-5.00000000E-01	 1.00000000E-01
					-3.82683000E-01	-9.23880000E-01	 0.00000000E+00
					-3.82683000E-01	-9.23880000E-01	 1.00000000E-01
					-3.34848000E-01	-8.08395000E-01	 0.00000000E+00
					-3.34848000E-01	-8.08395000E-01	 1.00000000E-01
					-2.87013000E-01	-6.92910000E-01	 1.11022000E-16
					-2.87013000E-01	-6.92910000E-01	 1.00000000E-01
					-2.39177000E-01	-5.77425000E-01	 1.11022000E-16
					-2.39177000E-01	-5.77425000E-01	 1.00000000E-01
					-1.91342000E-01	-4.61940000E-01	 0.00000000E+00
					-1.91342000E-01	-4.61940000E-01	 1.00000000E-01
					-5.55570000E-01	-8.31470000E-01	 0.00000000E+00
					-5.55570000E-01	-8.31470000E-01	 1.00000000E-01
					-4.86124000E-01	-7.27536000E-01	 0.00000000E+00
					-4.86124000E-01	-7.27536000E-01	 1.00000000E-01
					-4.16678000E-01	-6.23602000E-01	 0.00000000E+00
					-4.16678000E-01	-6.23602000E-01	 1.00000000E-01
					-3.47231000E-01	-5.19669000E-01	 0.00000000E+00
					-3.47231000E-01	-5.19669000E-01	 1.00000000E-01
					-2.77785000E-01	-4.15735000E-01	 0.00000000E+00
					-2.77785000E-01	-4.15735000E-01	 1.00000000E-01
					-7.07107000E-01	-7.07107000E-01	 0.00000000E+00
					-7.07107000E-01	-7.07107000E-01	 1.00000000E-01
					-6.18718000E-01	-6.18718000E-01	-1.11022000E-16
					-6.18718000E-01	-6.18718000E-01	 1.00000000E-01
					-5.30330000E-01	-5.30330000E-01	 5.55112000E-17
					-5.30330000E-01	-5.30330000E-01	 1.00000000E-01
					-4.41942000E-01	-4.41942000E-01	-2.22045000E-16
					-4.41942000E-01	-4.41942000E-01	 1.00000000E-01
					-3.53553000E-01	-3.53553000E-01	 0.00000000E+00
					-3.53553000E-01	-3.53553000E-01	 1.00000000E-01
					-8.31470000E-01	-5.55570000E-01	 0.00000000E+00
					-8.31470000E-01	-5.55570000E-01	 1.00000000E-01
					-7.27536000E-01	-4.86124000E-01	-1.11022000E-16
					-7.27536000E-01	-4.86124000E-01	 1.00000000E-01
					-6.23602000E-01	-4.16678000E-01	 0.00000000E+00
					-6.23602000E-01	-4.16678000E-01	 1.00000000E-01
					-5.19669000E-01	-3.47231000E-01	 0.00000000E+00
					-5.19669000E-01	-3.47231000E-01	 1.00000000E-01
					-4.15735000E-01	-2.77785000E-01	 0.00000000E+00
					-4.15735000E-01	-2.77785000E-01	 1.00000000E-01
					-9.23880000E-01	-3.82683000E-01	 0.00000000E+00
					-9.23880000E-01	-3.82683000E-01	 1.00000000E-01
					-8.08395000E-01	-3.34848000E-01	 5.55112000E-17
					-8.08395000E-01	-3.34848000E-01	 1.00000000E-01
					-6.92910000E-01	-2.87013000E-01	 5.55112000E-17
					-6.92910000E-01	-2.87013000E-01	 1.00000000E-01
					-5.77425000E-01	-2.39177000E-01	 1.11022000E-16
					-5.77425000E-01	-2.39177000E-01	 1.00000000E-01
					-4.61940000E-01	-1.91342000E-01	 0.00000000E+00
					-4.61940000E-01	-1.91342000E-01	 1.00000000E-01
					-9.80785000E-01	-1.95090000E-01	 0.00000000E+00
					-9.80785000E-01	-1.95090000E-01	 1.00000000E-01
					-8.58187000E-01	-1.70704000E-01	 5.55112000E-17
					-8.58187000E-01	-1.70704000E-01	 1.00000000E-01
					-7.35589000E-01	-1.46318000E-01	 0.00000000E+00
					-7.35589000E-01	-1.46318000E-01	 1.00000000E-01
					-6.12991000E-01	-1.21931000E-01	 0.00000000E+00
					-6.12991000E-01	-1.21931000E-01	 1.00000000E-01
					-4.90393000E-01	-9.75452000E-02	 0.00000000E+00
					-4.90393000E-01	-9.75452000E-02	 1.00000000E-01
					 1.00000000E+00	 0.00000000E+00	 0.00000000E+00
					 9.80785000E-01	-1.95090000E-01	 0.00000000E+00
					 9.80785000E-01	-1.95090000E-01	 1.00000000E-01
					 1.00000000E+00	 0.00000000E+00	 1.00000000E-01
					 8.75000000E-01	 0.00000000E+00	 0.00000000E+00
					 8.58187000E-01	-1.70704000E-01	-2.22045000E-16
					 8.58187000E-01	-1.70704000E-01	 1.00000000E-01
					 8.75000000E-01	 0.00000000E+00	 1.00000000E-01
					 7.50000000E-01	 0.00000000E+00	 0.00000000E+00
					 7.35589000E-01	-1.46318000E-01	 5.55112000E-17
					 7.35589000E-01	-1.46318000E-01	 1.00000000E-01
					 7.50000000E-01	 0.00000000E+00	 1.00000000E-01
					 6.25000000E-01	 0.00000000E+00	 0.00000000E+00
					 6.12991000E-01	-1.21931000E-01	 0.00000000E+00
[...]
			<PointData>
				<DataArray type="Float32" Name="V3DF" NumberOfComponents="3" ComponentName0="V1" ComponentName1="V2" ComponentName2="V3" format="ascii">
					-6.93889000E-18	-9.95185000E-01	 0.00000000E+00
					-1.94151000E-01	-9.76063000E-01	 0.00000000E+00
					-1.94151000E-01	-9.76063000E-01	 0.00000000E+00
					-6.93889000E-18	-9.95185000E-01	 0.00000000E+00
					-1.45296000E-03	-1.12151000E+00	 0.00000000E+00
					-2.20221000E-01	-1.09968000E+00	 0.00000000E+00
					-2.20221000E-01	-1.09968000E+00	 0.00000000E+00
					-1.45296000E-03	-1.12151000E+00	 0.00000000E+00
					 6.80175000E-04	-1.30030000E+00	 0.00000000E+00
					-2.53007000E-01	-1.27545000E+00	 0.00000000E+00
					-2.53007000E-01	-1.27545000E+00	 0.00000000E+00
					 6.80175000E-04	-1.30030000E+00	 0.00000000E+00
					 3.27542000E-04	-1.55557000E+00	 0.00000000E+00
					-3.03152000E-01	-1.52574000E+00	 0.00000000E+00
					-3.03152000E-01	-1.52574000E+00	 0.00000000E+00
					 3.27542000E-04	-1.55557000E+00	 0.00000000E+00
					-1.38778000E-17	-1.99037000E+00	 0.00000000E+00
					-3.88302000E-01	-1.95213000E+00	 0.00000000E+00
					-3.88302000E-01	-1.95213000E+00	 0.00000000E+00
					-1.38778000E-17	-1.99037000E+00	 0.00000000E+00
					-3.80841000E-01	-9.19431000E-01	 0.00000000E+00
					-3.80841000E-01	-9.19431000E-01	 0.00000000E+00
					-4.30527000E-01	-1.03559000E+00	 0.00000000E+00
					-4.30527000E-01	-1.03559000E+00	 0.00000000E+00
					-4.96972000E-01	-1.20158000E+00	 0.00000000E+00
					-4.96972000E-01	-1.20158000E+00	 0.00000000E+00
					-5.94983000E-01	-1.43728000E+00	 0.00000000E+00
					-5.94983000E-01	-1.43728000E+00	 0.00000000E+00
					-7.61681000E-01	-1.83886000E+00	 0.00000000E+00
					-7.61681000E-01	-1.83886000E+00	 0.00000000E+00
					-5.52895000E-01	-8.27466000E-01	 0.00000000E+00
					-5.52895000E-01	-8.27466000E-01	 0.00000000E+00
					-6.24287000E-01	-9.31698000E-01	 0.00000000E+00
					-6.24287000E-01	-9.31698000E-01	 0.00000000E+00
					-7.21838000E-01	-1.08154000E+00	 0.00000000E+00
					-7.21838000E-01	-1.08154000E+00	 0.00000000E+00
					-8.63949000E-01	-1.29359000E+00	 0.00000000E+00
					-8.63949000E-01	-1.29359000E+00	 0.00000000E+00
					-1.10579000E+00	-1.65493000E+00	 0.00000000E+00
					-1.10579000E+00	-1.65493000E+00	 0.00000000E+00
					-7.03702000E-01	-7.03702000E-01	 0.00000000E+00
					-7.03702000E-01	-7.03702000E-01	 0.00000000E+00
					-7.94055000E-01	-7.92003000E-01	 0.00000000E+00
					-7.94055000E-01	-7.92003000E-01	 0.00000000E+00
					-9.18963000E-01	-9.19934000E-01	 0.00000000E+00
					-9.18963000E-01	-9.19934000E-01	 0.00000000E+00
					-1.09971000E+00	-1.10019000E+00	 0.00000000E+00
					-1.09971000E+00	-1.10019000E+00	 0.00000000E+00
					-1.40740000E+00	-1.40740000E+00	 0.00000000E+00
					-1.40740000E+00	-1.40740000E+00	 0.00000000E+00
					-8.27466000E-01	-5.52895000E-01	 0.00000000E+00
					-8.27466000E-01	-5.52895000E-01	 0.00000000E+00
					-9.33306000E-01	-6.21872000E-01	 0.00000000E+00
					-9.33306000E-01	-6.21872000E-01	 0.00000000E+00
					-1.08077000E+00	-7.22977000E-01	 0.00000000E+00
					-1.08077000E+00	-7.22977000E-01	 0.00000000E+00
					-1.29322000E+00	-8.64505000E-01	 0.00000000E+00
					-1.29322000E+00	-8.64505000E-01	 0.00000000E+00
					-1.65493000E+00	-1.10579000E+00	 0.00000000E+00
					-1.65493000E+00	-1.10579000E+00	 0.00000000E+00
					-9.19431000E-01	-3.80841000E-01	 0.00000000E+00
					-9.19431000E-01	-3.80841000E-01	 0.00000000E+00
					-1.03669000E+00	-4.27842000E-01	 0.00000000E+00
					-1.03669000E+00	-4.27842000E-01	 0.00000000E+00
					-1.20105000E+00	-4.98237000E-01	 0.00000000E+00
					-1.20105000E+00	-4.98237000E-01	 0.00000000E+00
					-1.43702000E+00	-5.95601000E-01	 0.00000000E+00
					-1.43702000E+00	-5.95601000E-01	 0.00000000E+00
					-1.83886000E+00	-7.61681000E-01	 0.00000000E+00
					-1.83886000E+00	-7.61681000E-01	 0.00000000E+00
					-9.76063000E-01	-1.94151000E-01	 0.00000000E+00
					-9.76063000E-01	-1.94151000E-01	 0.00000000E+00
					-1.10024000E+00	-2.17373000E-01	 0.00000000E+00
					-1.10024000E+00	-2.17373000E-01	 0.00000000E+00
					-1.27516000E+00	-2.54352000E-01	 0.00000000E+00
					-1.27516000E+00	-2.54352000E-01	 0.00000000E+00
					-1.52560000E+00	-3.03808000E-01	 0.00000000E+00
					-1.52560000E+00	-3.03808000E-01	 0.00000000E+00
					-1.95213000E+00	-3.88302000E-01	 0.00000000E+00
					-1.95213000E+00	-3.88302000E-01	 0.00000000E+00
					-9.95185000E-01	 6.93889000E-18	 0.00000000E+00
					-9.95185000E-01	 6.93889000E-18	 0.00000000E+00
					-1.12150000E+00	 1.44935000E-03	 0.00000000E+00
					-1.12150000E+00	 1.44935000E-03	 0.00000000E+00
					-1.30028000E+00	-6.93859000E-04	 0.00000000E+00
					-1.30028000E+00	-6.93859000E-04	 0.00000000E+00
					-1.55555000E+00	-3.41690000E-04	 0.00000000E+00
					-1.55555000E+00	-3.41690000E-04	 0.00000000E+00
					-1.99037000E+00	 1.38778000E-17	 0.00000000E+00
					-1.99037000E+00	 1.38778000E-17	 0.00000000E+00
					 9.95185000E-01	-6.93889000E-18	 0.00000000E+00
					 9.76063000E-01	-1.94151000E-01	 0.00000000E+00
					 9.76063000E-01	-1.94151000E-01	 0.00000000E+00
					 9.95185000E-01	-6.93889000E-18	 0.00000000E+00
					 1.12148000E+00	-1.44558000E-03	 0.00000000E+00
					 1.09965000E+00	-2.20210000E-01	 0.00000000E+00
					 1.09965000E+00	-2.20210000E-01	 0.00000000E+00
					 1.12148000E+00	-1.44558000E-03	 0.00000000E+00
					 1.30026000E+00	 6.90820000E-04	 0.00000000E+00
					 1.27542000E+00	-2.52994000E-01	 0.00000000E+00
					 1.27542000E+00	-2.52994000E-01	 0.00000000E+00
					 1.30026000E+00	 6.90820000E-04	 0.00000000E+00
					 1.55554000E+00	 3.33296000E-04	 0.00000000E+00
					 1.52572000E+00	-3.03147000E-01	 0.00000000E+00
					 1.52572000E+00	-3.03147000E-01	 0.00000000E+00
					 1.55554000E+00	 3.33296000E-04	 0.00000000E+00
					 1.99037000E+00	-1.38778000E-17	 0.00000000E+00
					 1.95213000E+00	-3.88302000E-01	 0.00000000E+00
					 1.95213000E+00	-3.88302000E-01	 0.00000000E+00
					 1.99037000E+00	-1.38778000E-17	 0.00000000E+00
					 9.19431000E-01	-3.80841000E-01	 0.00000000E+00
					 9.19431000E-01	-3.80841000E-01	 0.00000000E+00
					 1.03557000E+00	-4.30513000E-01	 0.00000000E+00
					 1.03557000E+00	-4.30513000E-01	 0.00000000E+00
					 1.20156000E+00	-4.96959000E-01	 0.00000000E+00
					 1.20156000E+00	-4.96959000E-01	 0.00000000E+00
					 1.43727000E+00	-5.94978000E-01	 0.00000000E+00
					 1.43727000E+00	-5.94978000E-01	 0.00000000E+00
					 1.83886000E+00	-7.61681000E-01	 0.00000000E+00
					 1.83886000E+00	-7.61681000E-01	 0.00000000E+00
					 8.27466000E-01	-5.52895000E-01	 0.00000000E+00
					 8.27466000E-01	-5.52895000E-01	 0.00000000E+00
					 9.31683000E-01	-6.24274000E-01	 0.00000000E+00
					 9.31683000E-01	-6.24274000E-01	 0.00000000E+00
					 1.08152000E+00	-7.21827000E-01	 0.00000000E+00
					 1.08152000E+00	-7.21827000E-01	 0.00000000E+00
					 1.29358000E+00	-8.63946000E-01	 0.00000000E+00
					 1.29358000E+00	-8.63946000E-01	 0.00000000E+00
					 1.65493000E+00	-1.10579000E+00	 0.00000000E+00
					 1.65493000E+00	-1.10579000E+00	 0.00000000E+00
					 7.03702000E-01	-7.03702000E-01	 0.00000000E+00
					 7.03702000E-01	-7.03702000E-01	 0.00000000E+00
					 7.91994000E-01	-7.94046000E-01	 0.00000000E+00
					 7.91994000E-01	-7.94046000E-01	 0.00000000E+00
					 9.19920000E-01	-9.18957000E-01	 0.00000000E+00
					 9.19920000E-01	-9.18957000E-01	 0.00000000E+00
					 1.10017000E+00	-1.09971000E+00	 0.00000000E+00
					 1.10017000E+00	-1.09971000E+00	 0.00000000E+00
					 1.40740000E+00	-1.40740000E+00	 0.00000000E+00
					 1.40740000E+00	-1.40740000E+00	 0.00000000E+00
					 5.52895000E-01	-8.27466000E-01	 0.00000000E+00
					 5.52895000E-01	-8.27466000E-01	 0.00000000E+00
					 6.21867000E-01	-9.33303000E-01	 0.00000000E+00
					 6.21867000E-01	-9.33303000E-01	 0.00000000E+00
					 7.22966000E-01	-1.08077000E+00	 0.00000000E+00
					 7.22966000E-01	-1.08077000E+00	 0.00000000E+00
					 8.64493000E-01	-1.29322000E+00	 0.00000000E+00
					 8.64493000E-01	-1.29322000E+00	 0.00000000E+00
					 1.10579000E+00	-1.65493000E+00	 0.00000000E+00
					 1.10579000E+00	-1.65493000E+00	 0.00000000E+00
					 3.80841000E-01	-9.19431000E-01	 0.00000000E+00
					 3.80841000E-01	-9.19431000E-01	 0.00000000E+00
					 4.27841000E-01	-1.03669000E+00	 0.00000000E+00
					 4.27841000E-01	-1.03669000E+00	 0.00000000E+00
					 4.98228000E-01	-1.20105000E+00	 0.00000000E+00
					 4.98228000E-01	-1.20105000E+00	 0.00000000E+00
					 5.95589000E-01	-1.43703000E+00	 0.00000000E+00
					 5.95589000E-01	-1.43703000E+00	 0.00000000E+00
					 7.61681000E-01	-1.83886000E+00	 0.00000000E+00
					 7.61681000E-01	-1.83886000E+00	 0.00000000E+00
					 1.94151000E-01	-9.76063000E-01	 0.00000000E+00
					 1.94151000E-01	-9.76063000E-01	 0.00000000E+00
					 2.17371000E-01	-1.10025000E+00	 0.00000000E+00
					 2.17371000E-01	-1.10025000E+00	 0.00000000E+00
					 2.54342000E-01	-1.27518000E+00	 0.00000000E+00
					 2.54342000E-01	-1.27518000E+00	 0.00000000E+00
					 3.03796000E-01	-1.52561000E+00	 0.00000000E+00
					 3.03796000E-01	-1.52561000E+00	 0.00000000E+00
					 3.88302000E-01	-1.95213000E+00	 0.00000000E+00
					 3.88302000E-01	-1.95213000E+00	 0.00000000E+00
					 6.93889000E-18	 9.95185000E-01	 0.00000000E+00
					 1.94151000E-01	 9.76063000E-01	 0.00000000E+00
					 1.94151000E-01	 9.76063000E-01	 0.00000000E+00
					 6.93889000E-18	 9.95185000E-01	 0.00000000E+00
					 1.44594000E-03	 1.12148000E+00	 0.00000000E+00
					 2.20207000E-01	 1.09964000E+00	 0.00000000E+00
					 2.20207000E-01	 1.09964000E+00	 0.00000000E+00
					 1.44594000E-03	 1.12148000E+00	 0.00000000E+00
					-6.99413000E-04	 1.30026000E+00	 0.00000000E+00
					 2.52981000E-01	 1.27541000E+00	 0.00000000E+00
					 2.52981000E-01	 1.27541000E+00	 0.00000000E+00
					-6.99413000E-04	 1.30026000E+00	 0.00000000E+00
					-3.41986000E-04	 1.55554000E+00	 0.00000000E+00
					 3.03135000E-01	 1.52572000E+00	 0.00000000E+00
					 3.03135000E-01	 1.52572000E+00	 0.00000000E+00
					-3.41986000E-04	 1.55554000E+00	 0.00000000E+00
					 1.38778000E-17	 1.99037000E+00	 0.00000000E+00
					 3.88302000E-01	 1.95213000E+00	 0.00000000E+00
					 3.88302000E-01	 1.95213000E+00	 0.00000000E+00
					 1.38778000E-17	 1.99037000E+00	 0.00000000E+00
					 3.80841000E-01	 9.19431000E-01	 0.00000000E+00
					 3.80841000E-01	 9.19431000E-01	 0.00000000E+00
					 4.30504000E-01	 1.03555000E+00	 0.00000000E+00
					 4.30504000E-01	 1.03555000E+00	 0.00000000E+00
					 4.96939000E-01	 1.20155000E+00	 0.00000000E+00
					 4.96939000E-01	 1.20155000E+00	 0.00000000E+00
					 5.94962000E-01	 1.43726000E+00	 0.00000000E+00
					 5.94962000E-01	 1.43726000E+00	 0.00000000E+00
					 7.61681000E-01	 1.83886000E+00	 0.00000000E+00
					 7.61681000E-01	 1.83886000E+00	 0.00000000E+00
					 5.52895000E-01	 8.27466000E-01	 0.00000000E+00
					 5.52895000E-01	 8.27466000E-01	 0.00000000E+00
					 6.24257000E-01	 9.31667000E-01	 0.00000000E+00
					 6.24257000E-01	 9.31667000E-01	 0.00000000E+00
					 7.21800000E-01	 1.08151000E+00	 0.00000000E+00
					 7.21800000E-01	 1.08151000E+00	 0.00000000E+00
					 8.63926000E-01	 1.29357000E+00	 0.00000000E+00
					 8.63926000E-01	 1.29357000E+00	 0.00000000E+00
					 1.10579000E+00	 1.65493000E+00	 0.00000000E+00
					 1.10579000E+00	 1.65493000E+00	 0.00000000E+00
					 7.03702000E-01	 7.03702000E-01	 0.00000000E+00
					 7.03702000E-01	 7.03702000E-01	 0.00000000E+00
					 7.94021000E-01	 7.91980000E-01	 0.00000000E+00
					 7.94021000E-01	 7.91980000E-01	 0.00000000E+00
					 9.18923000E-01	 9.19912000E-01	 0.00000000E+00
					 9.18923000E-01	 9.19912000E-01	 0.00000000E+00
					 1.09969000E+00	 1.10017000E+00	 0.00000000E+00
					 1.09969000E+00	 1.10017000E+00	 0.00000000E+00
					 1.40740000E+00	 1.40740000E+00	 0.00000000E+00
					 1.40740000E+00	 1.40740000E+00	 0.00000000E+00
					 8.27466000E-01	 5.52895000E-01	 0.00000000E+00
					 8.27466000E-01	 5.52895000E-01	 0.00000000E+00
					 9.33272000E-01	 6.21857000E-01	 0.00000000E+00
					 9.33272000E-01	 6.21857000E-01	 0.00000000E+00
					 1.08073000E+00	 7.22963000E-01	 0.00000000E+00
					 1.08073000E+00	 7.22963000E-01	 0.00000000E+00
					 1.29319000E+00	 8.64493000E-01	 0.00000000E+00
					 1.29319000E+00	 8.64493000E-01	 0.00000000E+00
					 1.65493000E+00	 1.10579000E+00	 0.00000000E+00
					 1.65493000E+00	 1.10579000E+00	 0.00000000E+00
					 9.19431000E-01	 3.80841000E-01	 0.00000000E+00
					 9.19431000E-01	 3.80841000E-01	 0.00000000E+00
					 1.03666000E+00	 4.27837000E-01	 0.00000000E+00
					 1.03666000E+00	 4.27837000E-01	 0.00000000E+00
					 1.20101000E+00	 4.98230000E-01	 0.00000000E+00
					 1.20101000E+00	 4.98230000E-01	 0.00000000E+00
					 1.43700000E+00	 5.95592000E-01	 0.00000000E+00
					 1.43700000E+00	 5.95592000E-01	 0.00000000E+00
					 1.83886000E+00	 7.61681000E-01	 0.00000000E+00
					 1.83886000E+00	 7.61681000E-01	 0.00000000E+00
					 9.76063000E-01	 1.94151000E-01	 0.00000000E+00
					 9.76063000E-01	 1.94151000E-01	 0.00000000E+00
					 1.10021000E+00	 2.17373000E-01	 0.00000000E+00
					 1.10021000E+00	 2.17373000E-01	 0.00000000E+00
					 1.27514000E+00	 2.54348000E-01	 0.00000000E+00
					 1.27514000E+00	 2.54348000E-01	 0.00000000E+00
					 1.52559000E+00	 3.03801000E-01	 0.00000000E+00
					 1.52559000E+00	 3.03801000E-01	 0.00000000E+00
					 1.95213000E+00	 3.88302000E-01	 0.00000000E+00
					 1.95213000E+00	 3.88302000E-01	 0.00000000E+00
					-9.76063000E-01	 1.94151000E-01	 0.00000000E+00
					-9.76063000E-01	 1.94151000E-01	 0.00000000E+00
					-1.09967000E+00	 2.20214000E-01	 0.00000000E+00
					-1.09967000E+00	 2.20214000E-01	 0.00000000E+00
					-1.27543000E+00	 2.52990000E-01	 0.00000000E+00
					-1.27543000E+00	 2.52990000E-01	 0.00000000E+00
					-1.52573000E+00	 3.03137000E-01	 0.00000000E+00
					-1.52573000E+00	 3.03137000E-01	 0.00000000E+00
					-1.95213000E+00	 3.88302000E-01	 0.00000000E+00
					-1.95213000E+00	 3.88302000E-01	 0.00000000E+00
					-9.19431000E-01	 3.80841000E-01	 0.00000000E+00
					-9.19431000E-01	 3.80841000E-01	 0.00000000E+00
					-1.03557000E+00	 4.30515000E-01	 0.00000000E+00
					-1.03557000E+00	 4.30515000E-01	 0.00000000E+00
					-1.20157000E+00	 4.96949000E-01	 0.00000000E+00
					-1.20157000E+00	 4.96949000E-01	 0.00000000E+00
					-1.43728000E+00	 5.94966000E-01	 0.00000000E+00
					-1.43728000E+00	 5.94966000E-01	 0.00000000E+00
					-1.83886000E+00	 7.61681000E-01	 0.00000000E+00
					-1.83886000E+00	 7.61681000E-01	 0.00000000E+00
					-8.27466000E-01	 5.52895000E-01	 0.00000000E+00
					-8.27466000E-01	 5.52895000E-01	 0.00000000E+00
					-9.31681000E-01	 6.24270000E-01	 0.00000000E+00
					-9.31681000E-01	 6.24270000E-01	 0.00000000E+00
					-1.08153000E+00	 7.21811000E-01	 0.00000000E+00
					-1.08153000E+00	 7.21811000E-01	 0.00000000E+00
					-1.29359000E+00	 8.63930000E-01	 0.00000000E+00
					-1.29359000E+00	 8.63930000E-01	 0.00000000E+00
					-1.65493000E+00	 1.10579000E+00	 0.00000000E+00
					-1.65493000E+00	 1.10579000E+00	 0.00000000E+00
					-7.03702000E-01	 7.03702000E-01	 0.00000000E+00
					-7.03702000E-01	 7.03702000E-01	 0.00000000E+00
					-7.91989000E-01	 7.94034000E-01	 0.00000000E+00
					-7.91989000E-01	 7.94034000E-01	 0.00000000E+00
					-9.19924000E-01	 9.18934000E-01	 0.00000000E+00
					-9.19924000E-01	 9.18934000E-01	 0.00000000E+00
					-1.10018000E+00	 1.09970000E+00	 0.00000000E+00
					-1.10018000E+00	 1.09970000E+00	 0.00000000E+00
					-1.40740000E+00	 1.40740000E+00	 0.00000000E+00
					-1.40740000E+00	 1.40740000E+00	 0.00000000E+00
					-5.52895000E-01	 8.27466000E-01	 0.00000000E+00
					-5.52895000E-01	 8.27466000E-01	 0.00000000E+00
					-6.21861000E-01	 9.33283000E-01	 0.00000000E+00
					-6.21861000E-01	 9.33283000E-01	 0.00000000E+00
					-7.22970000E-01	 1.08074000E+00	 0.00000000E+00
					-7.22970000E-01	 1.08074000E+00	 0.00000000E+00
					-8.64500000E-01	 1.29320000E+00	 0.00000000E+00
					-8.64500000E-01	 1.29320000E+00	 0.00000000E+00
					-1.10579000E+00	 1.65493000E+00	 0.00000000E+00
					-1.10579000E+00	 1.65493000E+00	 0.00000000E+00
					-3.80841000E-01	 9.19431000E-01	 0.00000000E+00
					-3.80841000E-01	 9.19431000E-01	 0.00000000E+00
					-4.27837000E-01	 1.03667000E+00	 0.00000000E+00
					-4.27837000E-01	 1.03667000E+00	 0.00000000E+00
					-4.98235000E-01	 1.20102000E+00	 0.00000000E+00
					-4.98235000E-01	 1.20102000E+00	 0.00000000E+00
					-5.95597000E-01	 1.43700000E+00	 0.00000000E+00
					-5.95597000E-01	 1.43700000E+00	 0.00000000E+00
					-7.61681000E-01	 1.83886000E+00	 0.00000000E+00
					-7.61681000E-01	 1.83886000E+00	 0.00000000E+00
					-1.94151000E-01	 9.76063000E-01	 0.00000000E+00
					-1.94151000E-01	 9.76063000E-01	 0.00000000E+00
					-2.17372000E-01	 1.10021000E+00	 0.00000000E+00
					-2.17372000E-01	 1.10021000E+00	 0.00000000E+00
					-2.54354000E-01	 1.27514000E+00	 0.00000000E+00
					-2.54354000E-01	 1.27514000E+00	 0.00000000E+00
					-3.03807000E-01	 1.52558000E+00	 0.00000000E+00
					-3.03807000E-01	 1.52558000E+00	 0.00000000E+00
					-3.88302000E-01	 1.95213000E+00	 0.00000000E+00
					-3.88302000E-01	 1.95213000E+00	 0.00000000E+00
				</DataArray>
				<DataArray type="Float32" Name="PS3DF" NumberOfComponents="1" ComponentName0="PS" format="ascii">
					 2.74728000E+00
					 2.74734000E+00
					 2.74734000E+00
					 2.74728000E+00
					 1.77591000E+00
					 1.77596000E+00
					 1.77596000E+00
					 1.77591000E+00
					 9.67997000E-01
					 9.68025000E-01
					 9.68025000E-01
					 9.67997000E-01
					 4.58498000E-01
					 4.58505000E-01
					 4.58505000E-01
					 4.58498000E-01
					 4.09846000E-02
					 4.09821000E-02
					 4.09821000E-02
					 4.09846000E-02
					 2.74740000E+00
					 2.74740000E+00
					 1.77601000E+00
					 1.77601000E+00
					 9.68054000E-01
					 9.68054000E-01
					 4.58512000E-01
					 4.58512000E-01
					 4.09838000E-02
					 4.09838000E-02
					 2.74746000E+00
					 2.74746000E+00
					 1.77606000E+00
					 1.77606000E+00
					 9.68082000E-01
					 9.68082000E-01
					 4.58518000E-01
					 4.58518000E-01
					 4.09878000E-02
					 4.09878000E-02
					 2.74751000E+00
					 2.74751000E+00
					 1.77612000E+00
					 1.77612000E+00
					 9.68110000E-01
					 9.68110000E-01
					 4.58522000E-01
					 4.58522000E-01
					 4.09933000E-02
					 4.09933000E-02
					 2.74756000E+00
					 2.74756000E+00
					 1.77617000E+00
					 1.77617000E+00
					 9.68134000E-01
					 9.68134000E-01
					 4.58524000E-01
					 4.58524000E-01
					 4.10011000E-02
					 4.10011000E-02
					 2.74761000E+00
					 2.74761000E+00
					 1.77621000E+00
					 1.77621000E+00
					 9.68155000E-01
					 9.68155000E-01
					 4.58526000E-01
					 4.58526000E-01
					 4.10119000E-02
					 4.10119000E-02
					 2.74764000E+00
					 2.74764000E+00
					 1.77625000E+00
					 1.77625000E+00
					 9.68174000E-01
					 9.68174000E-01
					 4.58527000E-01
					 4.58527000E-01
					 4.10242000E-02
					 4.10242000E-02
					 2.74766000E+00
					 2.74766000E+00
					 1.77629000E+00
					 1.77629000E+00
					 9.68185000E-01
					 9.68185000E-01
					 4.58514000E-01
					 4.58514000E-01
					 4.10264000E-02
					 4.10264000E-02
					 2.74715000E+00
					 2.74711000E+00
					 2.74711000E+00
					 2.74715000E+00
					 1.77590000E+00
					 1.77586000E+00
					 1.77586000E+00
					 1.77590000E+00
					 9.67960000E-01
					 9.67949000E-01
					 9.67949000E-01
					 9.67960000E-01
					 4.58438000E-01
					 4.58442000E-01
					 4.58442000E-01
					 4.58438000E-01
					 4.10485000E-02
					 4.10378000E-02
					 4.10378000E-02
					 4.10485000E-02
					 2.74710000E+00
					 2.74710000E+00
					 1.77583000E+00
					 1.77583000E+00
					 9.67937000E-01
					 9.67937000E-01
					 4.58449000E-01
					 4.58449000E-01
					 4.10290000E-02
					 4.10290000E-02
					 2.74710000E+00
					 2.74710000E+00
					 1.77581000E+00
					 1.77581000E+00
					 9.67930000E-01
					 9.67930000E-01
					 4.58457000E-01
					 4.58457000E-01
					 4.10201000E-02
					 4.10201000E-02
					 2.74711000E+00