# vtk DataFile Version 3.0

ASCII
DATASET UNSTRUCTURED_GRID

POINTS 2960 double
	 0.00000000E+00	 0.00000000E+00	 0.00000000E+00
	 1.25000000E-01	 0.00000000E+00	 0.00000000E+00
	 2.50000000E-01	 0.00000000E+00	 0.00000000E+00
	 3.75000000E-01	 0.00000000E+00	 0.00000000E+00
	 5.00000000E-01	 0.00000000E+00	 0.00000000E+00
	 6.25000000E-01	 0.00000000E+00	 0.00000000E+00
	 7.50000000E-01	 0.00000000E+00	 0.00000000E+00
	 8.75000000E-01	 0.00000000E+00	 0.00000000E+00
	 1.00000000E+00	 0.00000000E+00	 0.00000000E+00
	 1.00000000E+00	 0.00000000E+00	 1.25000000E-01
	 1.00000000E+00	 0.00000000E+00	 2.50000000E-01
	 1.00000000E+00	 0.00000000E+00	 3.75000000E-01
	 1.00000000E+00	 0.00000000E+00	 5.00000000E-01
	 1.00000000E+00	 0.00000000E+00	 6.25000000E-01
	 1.00000000E+00	 0.00000000E+00	 7.50000000E-01
	 1.00000000E+00	 0.00000000E+00	 8.75000000E-01
	 1.00000000E+00	 0.00000000E+00	 1.00000000E+00
	 8.75000000E-01	 0.00000000E+00	 1.00000000E+00
	 7.50000000E-01	 0.00000000E+00	 1.00000000E+00
	 6.25000000E-01	 0.00000000E+00	 1.00000000E+00
	 5.00000000E-01	 0.00000000E+00	 1.00000000E+00
	 3.75000000E-01	 0.00000000E+00	 1.00000000E+00
	 2.50000000E-01	 0.00000000E+00	 1.00000000E+00
	 1.25000000E-01	 0.00000000E+00	 1.00000000E+00
	 0.00000000E+00	 0.00000000E+00	 1.00000000E+00
	 0.00000000E+00	 0.00000000E+00	 8.75000000E-01
	 0.00000000E+00	 0.00000000E+00	 7.50000000E-01
	 0.00000000E+00	 0.00000000E+00	 6.25000000E-01
	 0.00000000E+00	 0.00000000E+00	 5.00000000E-01
	 0.00000000E+00	 0.00000000E+00	 3.75000000E-01
	 0.00000000E+00	 0.00000000E+00	 2.50000000E-01
	 0.00000000E+00	 0.00000000E+00	 1.25000000E-01
	 5.00000000E-01	 0.00000000E+00	 8.75000000E-01
	 5.00000000E-01	 0.00000000E+00	 7.50000000E-01
	 5.00000000E-01	 0.00000000E+00	 6.25000000E-01
	 5.00000000E-01	 0.00000000E+00	 5.00000000E-01
	 5.00000000E-01	 0.00000000E+00	 3.75000000E-01
	 5.00000000E-01	 0.00000000E+00	 2.50000000E-01
	 5.00000000E-01	 0.00000000E+00	 1.25000000E-01
	 6.25000000E-01	 0.00000000E+00	 5.00000000E-01
	 7.50000000E-01	 0.00000000E+00	 5.00000000E-01
	 8.75000000E-01	 0.00000000E+00	 5.00000000E-01
	 7.50000000E-01	 0.00000000E+00	 6.25000000E-01
	 7.50000000E-01	 0.00000000E+00	 7.50000000E-01
	 7.50000000E-01	 0.00000000E+00	 8.75000000E-01
	 6.25000000E-01	 0.00000000E+00	 7.50000000E-01
	 6.25000000E-01	 0.00000000E+00	 6.25000000E-01
	 6.25000000E-01	 0.00000000E+00	 8.75000000E-01
	 8.75000000E-01	 0.00000000E+00	 7.50000000E-01
	 8.75000000E-01	 0.00000000E+00	 6.25000000E-01
	 8.75000000E-01	 0.00000000E+00	 8.75000000E-01
	 7.50000000E-01	 0.00000000E+00	 1.25000000E-01
	 7.50000000E-01	 0.00000000E+00	 2.50000000E-01
	 7.50000000E-01	 0.00000000E+00	 3.75000000E-01
	 6.25000000E-01	 0.00000000E+00	 2.50000000E-01
	 6.25000000E-01	 0.00000000E+00	 1.25000000E-01
	 6.25000000E-01	 0.00000000E+00	 3.75000000E-01
	 8.75000000E-01	 0.00000000E+00	 2.50000000E-01
	 8.75000000E-01	 0.00000000E+00	 1.25000000E-01
	 8.75000000E-01	 0.00000000E+00	 3.75000000E-01
	 1.25000000E-01	 0.00000000E+00	 5.00000000E-01
	 2.50000000E-01	 0.00000000E+00	 5.00000000E-01
	 3.75000000E-01	 0.00000000E+00	 5.00000000E-01
	 2.50000000E-01	 0.00000000E+00	 6.25000000E-01
	 2.50000000E-01	 0.00000000E+00	 7.50000000E-01
	 2.50000000E-01	 0.00000000E+00	 8.75000000E-01
	 1.25000000E-01	 0.00000000E+00	 7.50000000E-01
	 1.25000000E-01	 0.00000000E+00	 6.25000000E-01
	 1.25000000E-01	 0.00000000E+00	 8.75000000E-01
	 3.75000000E-01	 0.00000000E+00	 7.50000000E-01
	 3.75000000E-01	 0.00000000E+00	 6.25000000E-01
	 3.75000000E-01	 0.00000000E+00	 8.75000000E-01
	 2.50000000E-01	 0.00000000E+00	 1.25000000E-01
	 2.50000000E-01	 0.00000000E+00	 2.50000000E-01
	 2.50000000E-01	 0.00000000E+00	 3.75000000E-01
	 1.25000000E-01	 0.00000000E+00	 2.50000000E-01
	 1.25000000E-01	 0.00000000E+00	 1.25000000E-01
	 1.25000000E-01	 0.00000000E+00	 3.75000000E-01
	 3.75000000E-01	 0.00000000E+00	 2.50000000E-01
	 3.75000000E-01	 0.00000000E+00	 1.25000000E-01
	 3.75000000E-01	 0.00000000E+00	 3.75000000E-01
	 7.50000000E-01	 1.25000000E-01	 7.50000000E-01
	 6.25000000E-01	 1.25000000E-01	 7.50000000E-01
	 6.25000000E-01	 1.25000000E-01	 6.25000000E-01
	 7.50000000E-01	 1.25000000E-01	 6.25000000E-01
	 7.50000000E-01	 2.50000000E-01	 7.50000000E-01
	 6.25000000E-01	 2.50000000E-01	 7.50000000E-01
	 6.25000000E-01	 2.50000000E-01	 6.25000000E-01
	 7.50000000E-01	 2.50000000E-01	 6.25000000E-01
	 7.50000000E-01	 3.75000000E-01	 7.50000000E-01
	 6.25000000E-01	 3.75000000E-01	 7.50000000E-01
	 6.25000000E-01	 3.75000000E-01	 6.25000000E-01
	 7.50000000E-01	 3.75000000E-01	 6.25000000E-01
	 7.50000000E-01	 5.00000000E-01	 7.50000000E-01
	 6.25000000E-01	 5.00000000E-01	 7.50000000E-01
	 6.25000000E-01	 5.00000000E-01	 6.25000000E-01
	 7.50000000E-01	 5.00000000E-01	 6.25000000E-01
	 7.50000000E-01	 6.25000000E-01	 7.50000000E-01
	 6.25000000E-01	 6.25000000E-01	 7.50000000E-01
	 6.25000000E-01	 6.25000000E-01	 6.25000000E-01
	 7.50000000E-01	 6.25000000E-01	 6.25000000E-01
	 7.50000000E-01	 7.50000000E-01	 7.50000000E-01
	 6.25000000E-01	 7.50000000E-01	 7.50000000E-01
	 6.25000000E-01	 7.50000000E-01	 6.25000000E-01
	 7.50000000E-01	 7.50000000E-01	 6.25000000E-01
	 7.50000000E-01	 8.75000000E-01	 7.50000000E-01
	 6.25000000E-01	 8.75000000E-01	 7.50000000E-01
	 6.25000000E-01	 8.75000000E-01	 6.25000000E-01
	 7.50000000E-01	 8.75000000E-01	 6.25000000E-01
	 7.50000000E-01	 1.00000000E+00	 7.50000000E-01
	 6.25000000E-01	 1.00000000E+00	 7.50000000E-01
	 6.25000000E-01	 1.00000000E+00	 6.25000000E-01
	 7.50000000E-01	 1.00000000E+00	 6.25000000E-01
	 6.25000000E-01	 1.25000000E-01	 5.00000000E-01
	 7.50000000E-01	 1.25000000E-01	 5.00000000E-01
	 6.25000000E-01	 2.50000000E-01	 5.00000000E-01
	 7.50000000E-01	 2.50000000E-01	 5.00000000E-01
	 6.25000000E-01	 3.75000000E-01	 5.00000000E-01
	 7.50000000E-01	 3.75000000E-01	 5.00000000E-01
	 6.25000000E-01	 5.00000000E-01	 5.00000000E-01
	 7.50000000E-01	 5.00000000E-01	 5.00000000E-01
	 6.25000000E-01	 6.25000000E-01	 5.00000000E-01
	 7.50000000E-01	 6.25000000E-01	 5.00000000E-01
	 6.25000000E-01	 7.50000000E-01	 5.00000000E-01
	 7.50000000E-01	 7.50000000E-01	 5.00000000E-01
	 6.25000000E-01	 8.75000000E-01	 5.00000000E-01
	 7.50000000E-01	 8.75000000E-01	 5.00000000E-01
	 6.25000000E-01	 1.00000000E+00	 5.00000000E-01
	 7.50000000E-01	 1.00000000E+00	 5.00000000E-01
	 5.00000000E-01	 1.25000000E-01	 7.50000000E-01
	 5.00000000E-01	 1.25000000E-01	 6.25000000E-01
	 5.00000000E-01	 2.50000000E-01	 7.50000000E-01
	 5.00000000E-01	 2.50000000E-01	 6.25000000E-01
	 5.00000000E-01	 3.75000000E-01	 7.50000000E-01
	 5.00000000E-01	 3.75000000E-01	 6.25000000E-01
	 5.00000000E-01	 5.00000000E-01	 7.50000000E-01
	 5.00000000E-01	 5.00000000E-01	 6.25000000E-01
	 5.00000000E-01	 6.25000000E-01	 7.50000000E-01
	 5.00000000E-01	 6.25000000E-01	 6.25000000E-01
	 5.00000000E-01	 7.50000000E-01	 7.50000000E-01
	 5.00000000E-01	 7.50000000E-01	 6.25000000E-01
	 5.00000000E-01	 8.75000000E-01	 7.50000000E-01
	 5.00000000E-01	 8.75000000E-01	 6.25000000E-01
	 5.00000000E-01	 1.00000000E+00	 7.50000000E-01
	 5.00000000E-01	 1.00000000E+00	 6.25000000E-01
	 5.00000000E-01	 1.25000000E-01	 5.00000000E-01
	 5.00000000E-01	 2.50000000E-01	 5.00000000E-01
	 5.00000000E-01	 3.75000000E-01	 5.00000000E-01
	 5.00000000E-01	 5.00000000E-01	 5.00000000E-01
	 5.00000000E-01	 6.25000000E-01	 5.00000000E-01
	 5.00000000E-01	 7.50000000E-01	 5.00000000E-01
	 5.00000000E-01	 8.75000000E-01	 5.00000000E-01
	 5.00000000E-01	 1.00000000E+00	 5.00000000E-01
	 6.25000000E-01	 1.25000000E-01	 3.75000000E-01
	 7.50000000E-01	 1.25000000E-01	 3.75000000E-01
	 6.25000000E-01	 2.50000000E-01	 3.75000000E-01
	 7.50000000E-01	 2.50000000E-01	 3.75000000E-01
	 6.25000000E-01	 3.75000000E-01	 3.75000000E-01
	 7.50000000E-01	 3.75000000E-01	 3.75000000E-01
	 6.25000000E-01	 5.00000000E-01	 3.75000000E-01
	 7.50000000E-01	 5.00000000E-01	 3.75000000E-01
	 6.25000000E-01	 6.25000000E-01	 3.75000000E-01
	 7.50000000E-01	 6.25000000E-01	 3.75000000E-01
	 6.25000000E-01	 7.50000000E-01	 3.75000000E-01
	 7.50000000E-01	 7.50000000E-01	 3.75000000E-01
	 6.25000000E-01	 8.75000000E-01	 3.75000000E-01
	 7.50000000E-01	 8.75000000E-01	 3.75000000E-01
	 6.25000000E-01	 1.00000000E+00	 3.75000000E-01
	 7.50000000E-01	 1.00000000E+00	 3.75000000E-01
	 1.25000000E-01	 1.25000000E-01	 7.50000000E-01
	 0.00000000E+00	 1.25000000E-01	 7.50000000E-01
	 0.00000000E+00	 1.25000000E-01	 6.25000000E-01
	 1.25000000E-01	 1.25000000E-01	 6.25000000E-01
	 1.25000000E-01	 2.50000000E-01	 7.50000000E-01
	 0.00000000E+00	 2.50000000E-01	 7.50000000E-01
	 0.00000000E+00	 2.50000000E-01	 6.25000000E-01
	 1.25000000E-01	 2.50000000E-01	 6.25000000E-01
	 1.25000000E-01	 3.75000000E-01	 7.50000000E-01
	 0.00000000E+00	 3.75000000E-01	 7.50000000E-01
	 0.00000000E+00	 3.75000000E-01	 6.25000000E-01
	 1.25000000E-01	 3.75000000E-01	 6.25000000E-01
	 1.25000000E-01	 5.00000000E-01	 7.50000000E-01
	 0.00000000E+00	 5.00000000E-01	 7.50000000E-01
	 0.00000000E+00	 5.00000000E-01	 6.25000000E-01
	 1.25000000E-01	 5.00000000E-01	 6.25000000E-01
	 1.25000000E-01	 6.25000000E-01	 7.50000000E-01
	 0.00000000E+00	 6.25000000E-01	 7.50000000E-01
	 0.00000000E+00	 6.25000000E-01	 6.25000000E-01
	 1.25000000E-01	 6.25000000E-01	 6.25000000E-01
	 1.25000000E-01	 7.50000000E-01	 7.50000000E-01
	 0.00000000E+00	 7.50000000E-01	 7.50000000E-01
	 0.00000000E+00	 7.50000000E-01	 6.25000000E-01
	 1.25000000E-01	 7.50000000E-01	 6.25000000E-01
	 1.25000000E-01	 8.75000000E-01	 7.50000000E-01
	 0.00000000E+00	 8.75000000E-01	 7.50000000E-01
	 0.00000000E+00	 8.75000000E-01	 6.25000000E-01
	 1.25000000E-01	 8.75000000E-01	 6.25000000E-01
	 1.25000000E-01	 1.00000000E+00	 7.50000000E-01
	 0.00000000E+00	 1.00000000E+00	 7.50000000E-01
	 0.00000000E+00	 1.00000000E+00	 6.25000000E-01
	 1.25000000E-01	 1.00000000E+00	 6.25000000E-01
	 1.25000000E-01	 1.25000000E-01	 2.50000000E-01
[...]
POINT_DATA 2960
FIELD CONTACT 1
	CONTACT 6 2960 double
		 0.00000000E+00	 0.00000000E+00	 0.00000000E+00	 0.00000000E+00	 0.00000000E+00	 0.00000000E+00
		 0.00000000E+00	 0.00000000E+00	 0.00000000E+00	 0.00000000E+00	 0.00000000E+00	 0.00000000E+00
		 0.00000000E+00	 0.00000000E+00	 0.00000000E+00	 0.00000000E+00	 0.00000000E+00	 0.00000000E+00
		 0.00000000E+00	 0.00000000E+00	 0.00000000E+00	 0.00000000E+00	 0.00000000E+00	 0.00000000E+00
		 0.00000000E+00	 0.00000000E+00	 0.00000000E+00	 0.00000000E+00	 0.00000000E+00	 0.00000000E+00
		 0.00000000E+00	 0.00000000E+00	 0.00000000E+00	 0.00000000E+00	 0.00000000E+00	 0.00000000E+00
		 0.00000000E+00	 0.00000000E+00	 0.00000000E+00	 0.00000000E+00	 0.00000000E+00	 0.00000000E+00
		 0.00000000E+00	 0.00000000E+00	 0.00000000E+00	 0.00000000E+00	 0.00000000E+00	 0.00000000E+00
		 0.00000000E+00	 0.00000000E+00	 0.00000000E+00	 0.00000000E+00	 0.00000000E+00	 0.00000000E+00
		 0.00000000E+00	 0.00000000E+00	 0.00000000E+00	 0.00000000E+00	 0.00000000E+00	 0.00000000E+00
		 0.00000000E+00	 0.00000000E+00	 0.00000000E+00	 0.00000000E+00	 0.00000000E+00	 0.00000000E+00
		 0.00000000E+00	 0.00000000E+00	 0.00000000E+00	 0.00000000E+00	 0.00000000E+00	 0.00000000E+00
		 0.00000000E+00	 0.00000000E+00	 0.00000000E+00	 0.00000000E+00	 0.00000000E+00	 0.00000000E+00
		 0.00000000E+00	 0.00000000E+00	 0.00000000E+00	 0.00000000E+00	 0.00000000E+00	 0.00000000E+00
		 0.00000000E+00	 0.00000000E+00	 0.00000000E+00	 0.00000000E+00	 0.00000000E+00	 0.00000000E+00
		 0.00000000E+00	 0.00000000E+00	 0.00000000E+00	 0.00000000E+00	 0.00000000E+00	 0.00000000E+00
		 0.00000000E+00	 0.00000000E+00	 0.00000000E+00	 0.00000000E+00	 0.00000000E+00	 0.00000000E+00
		 0.00000000E+00	 0.00000000E+00	 0.00000000E+00	 0.00000000E+00	 0.00000000E+00	 0.00000000E+00
		 0.00000000E+00	 0.00000000E+00	 0.00000000E+00	 0.00000000E+00	 0.00000000E+00	 0.00000000E+00
		 0.00000000E+00	 0.00000000E+00	 0.00000000E+00	 0.00000000E+00	 0.00000000E+00	 0.00000000E+00
		 0.00000000E+00	 0.00000000E+00	 0.00000000E+00	 0.00000000E+00	 0.00000000E+00	 0.00000000E+00
		 0.00000000E+00	 0.00000000E+00	 0.00000000E+00	 0.00000000E+00	 0.00000000E+00	 0.00000000E+00
		 0.00000000E+00	 0.00000000E+00	 0.00000000E+00	 0.00000000E+00	 0.00000000E+00	 0.00000000E+00
		 0.00000000E+00	 0.00000000E+00	 0.00000000E+00	 0.00000000E+00	 0.00000000E+00	 0.00000000E+00
		 0.00000000E+00	 0.00000000E+00	 0.00000000E+00	 0.00000000E+00	 0.00000000E+00	 0.00000000E+00
		 0.00000000E+00	 0.00000000E+00	 0.00000000E+00	 0.00000000E+00	 0.00000000E+00	 0.00000000E+00
		 0.00000000E+00	 0.00000000E+00	 0.00000000E+00	 0.00000000E+00	 0.00000000E+00	 0.00000000E+00
		 0.00000000E+00	 0.00000000E+00	 0.00000000E+00	 0.00000000E+00	 0.00000000E+00	 0.00000000E+00
		 0.00000000E+00	 0.00000000E+00	 0.00000000E+00	 0.00000000E+00	 0.00000000E+00	 0.00000000E+00
		 0.00000000E+00	 0.00000000E+00	 0.00000000E+00	 0.00000000E+00	 0.00000000E+00	 0.00000000E+00
		 0.00000000E+00	 0.00000000E+00	 0.00000000E+00	 0.00000000E+00	 0.00000000E+00	 0.00000000E+00
		 0.00000000E+00	 0.00000000E+00	 0.00000000E+00	 0.00000000E+00	 0.00000000E+00	 0.00000000E+00
		 0.00000000E+00	 0.00000000E+00	 0.00000000E+00	 0.00000000E+00	 0.00000000E+00	 0.00000000E+00
		 0.00000000E+00	 0.00000000E+00	 0.00000000E+00	 0.00000000E+00	 0.00000000E+00	 0.00000000E+00
		 0.00000000E+00	 0.00000000E+00	 0.00000000E+00	 0.00000000E+00	 0.00000000E+00	 0.00000000E+00
		 0.00000000E+00	 0.00000000E+00	 0.00000000E+00	 0.00000000E+00	 0.00000000E+00	 0.00000000E+00
		 0.00000000E+00	 0.00000000E+00	 0.00000000E+00	 0.00000000E+00	 0.00000000E+00	 0.00000000E+00
		 0.00000000E+00	 0.00000000E+00	 0.00000000E+00	 0.00000000E+00	 0.00000000E+00	 0.00000000E+00
		 0.00000000E+00	 0.00000000E+00	 0.00000000E+00	 0.00000000E+00	 0.00000000E+00	 0.00000000E+00
		 0.00000000E+00	 0.00000000E+00	 0.00000000E+00	 0.00000000E+00	 0.00000000E+00	 0.00000000E+00
		 0.00000000E+00	 0.00000000E+00	 0.00000000E+00	 0.00000000E+00	 0.00000000E+00	 0.00000000E+00
		 0.00000000E+00	 0.00000000E+00	 0.00000000E+00	 0.00000000E+00	 0.00000000E+00	 0.00000000E+00
		 0.00000000E+00	 0.00000000E+00	 0.00000000E+00	 0.00000000E+00	 0.00000000E+00	 0.00000000E+00
		 0.00000000E+00	 0.00000000E+00	 0.00000000E+00	 0.00000000E+00	 0.00000000E+00	 0.00000000E+00
		 0.00000000E+00	 0.00000000E+00	 0.00000000E+00	 0.00000000E+00	 0.00000000E+00	 0.00000000E+00
		 0.00000000E+00	 0.00000000E+00	 0.00000000E+00	 0.00000000E+00	 0.00000000E+00	 0.00000000E+00
		 0.00000000E+00	 0.00000000E+00	 0.00000000E+00	 0.00000000E+00	 0.00000000E+00	 0.00000000E+00
		 0.00000000E+00	 0.00000000E+00	 0.00000000E+00	 0.00000000E+00	 0.00000000E+00	 0.00000000E+00
		 0.00000000E+00	 0.00000000E+00	 0.00000000E+00	 0.00000000E+00	 0.00000000E+00	 0.00000000E+00
		 0.00000000E+00	 0.00000000E+00	 0.00000000E+00	 0.00000000E+00	 0.00000000E+00	 0.00000000E+00
		 0.00000000E+00	 0.00000000E+00	 0.00000000E+00	 0.00000000E+00	 0.00000000E+00	 0.00000000E+00
		 0.00000000E+00	 0.00000000E+00	 0.00000000E+00	 0.00000000E+00	 0.00000000E+00	 0.00000000E+00
		 0.00000000E+00	 0.00000000E+00	 0.00000000E+00	 0.00000000E+00	 0.00000000E+00	 0.00000000E+00
		 0.00000000E+00	 0.00000000E+00	 0.00000000E+00	 0.00000000E+00	 0.00000000E+00	 0.00000000E+00
		 0.00000000E+00	 0.00000000E+00	 0.00000000E+00	 0.00000000E+00	 0.00000000E+00	 0.00000000E+00
		 0.00000000E+00	 0.00000000E+00	 0.00000000E+00	 0.00000000E+00	 0.00000000E+00	 0.00000000E+00
		 0.00000000E+00	 0.00000000E+00	 0.00000000E+00	 0.00000000E+00	 0.00000000E+00	 0.00000000E+00
		 0.00000000E+00	 0.00000000E+00	 0.00000000E+00	 0.00000000E+00	 0.00000000E+00	 0.00000000E+00
		 0.00000000E+00	 0.00000000E+00	 0.00000000E+00	 0.00000000E+00	 0.00000000E+00	 0.00000000E+00
		 0.00000000E+00	 0.00000000E+00	 0.00000000E+00	 0.00000000E+00	 0.00000000E+00	 0.00000000E+00
		 0.00000000E+00	 0.00000000E+00	 0.00000000E+00	 0.00000000E+00	 0.00000000E+00	 0.00000000E+00
		 0.00000000E+00	 0.00000000E+00	 0.00000000E+00	 0.00000000E+00	 0.00000000E+00	 0.00000000E+00
		 0.00000000E+00	 0.00000000E+00	 0.00000000E+00	 0.00000000E+00	 0.00000000E+00	 0.00000000E+00
		 0.00000000E+00	 0.00000000E+00	 0.00000000E+00	 0.00000000E+00	 0.00000000E+00	 0.00000000E+00
		 0.00000000E+00	 0.00000000E+00	 0.00000000E+00	 0.00000000E+00	 0.00000000E+00	 0.00000000E+00
		 0.00000000E+00	 0.00000000E+00	 0.00000000E+00	 0.00000000E+00	 0.00000000E+00	 0.00000000E+00
		 0.00000000E+00	 0.00000000E+00	 0.00000000E+00	 0.00000000E+00	 0.00000000E+00	 0.00000000E+00
		 0.00000000E+00	 0.00000000E+00	 0.00000000E+00	 0.00000000E+00	 0.00000000E+00	 0.00000000E+00
		 0.00000000E+00	 0.00000000E+00	 0.00000000E+00	 0.00000000E+00	 0.00000000E+00	 0.00000000E+00
		 0.00000000E+00	 0.00000000E+00	 0.00000000E+00	 0.00000000E+00	 0.00000000E+00	 0.00000000E+00
		 0.00000000E+00	 0.00000000E+00	 0.00000000E+00	 0.00000000E+00	 0.00000000E+00	 0.00000000E+00
		 0.00000000E+00	 0.00000000E+00	 0.00000000E+00	 0.00000000E+00	 0.00000000E+00	 0.00000000E+00
		 0.00000000E+00	 0.00000000E+00	 0.00000000E+00	 0.00000000E+00	 0.00000000E+00	 0.00000000E+00
		 0.00000000E+00	 0.00000000E+00	 0.00000000E+00	 0.00000000E+00	 0.00000000E+00	 0.00000000E+00
		 0.00000000E+00	 0.00000000E+00	 0.00000000E+00	 0.00000000E+00	 0.00000000E+00	 0.00000000E+00
		 0.00000000E+00	 0.00000000E+00	 0.00000000E+00	 0.00000000E+00	 0.00000000E+00	 0.00000000E+00
		 0.00000000E+00	 0.00000000E+00	 0.00000000E+00	 0.00000000E+00	 0.00000000E+00	 0.00000000E+00
		 0.00000000E+00	 0.00000000E+00	 0.00000000E+00	 0.00000000E+00	 0.00000000E+00	 0.00000000E+00
		 0.00000000E+00	 0.00000000E+00	 0.00000000E+00	 0.00000000E+00	 0.00000000E+00	 0.00000000E+00
		 0.00000000E+00	 0.00000000E+00	 0.00000000E+00	 0.00000000E+00	 0.00000000E+00	 0.00000000E+00
		 0.00000000E+00	 0.00000000E+00	 0.00000000E+00	 0.00000000E+00	 0.00000000E+00	 0.00000000E+00
		 0.00000000E+00	 0.00000000E+00	 0.00000000E+00	 0.00000000E+00	 0.00000000E+00	 0.00000000E+00
		 0.00000000E+00	 0.00000000E+00	 0.00000000E+00	 0.00000000E+00	 0.00000000E+00	 0.00000000E+00
		 0.00000000E+00	 0.00000000E+00	 0.00000000E+00	 0.00000000E+00	 0.00000000E+00	 0.00000000E+00
		 0.00000000E+00	 0.00000000E+00	 0.00000000E+00	 0.00000000E+00	 0.00000000E+00	 0.00000000E+00
		 0.00000000E+00	 0.00000000E+00	 0.00000000E+00	 0.00000000E+00	 0.00000000E+00	 0.00000000E+00
		 0.00000000E+00	 0.00000000E+00	 0.00000000E+00	 0.00000000E+00	 0.00000000E+00	 0.00000000E+00
		 0.00000000E+00	 0.00000000E+00	 0.00000000E+00	 0.00000000E+00	 0.00000000E+00	 0.00000000E+00
		 0.00000000E+00	 0.00000000E+00	 0.00000000E+00	 0.00000000E+00	 0.00000000E+00	 0.00000000E+00
		 0.00000000E+00	 0.00000000E+00	 0.00000000E+00	 0.00000000E+00	 0.00000000E+00	 0.00000000E+00
		 0.00000000E+00	 0.00000000E+00	 0.00000000E+00	 0.00000000E+00	 0.00000000E+00	 0.00000000E+00
		 0.00000000E+00	 0.00000000E+00	 0.00000000E+00	 0.00000000E+00	 0.00000000E+00	 0.00000000E+00
		 0.00000000E+00	 0.00000000E+00	 0.00000000E+00	 0.00000000E+00	 0.00000000E+00	 0.00000000E+00
		 0.00000000E+00	 0.00000000E+00	 0.00000000E+00	 0.00000000E+00	 0.00000000E+00	 0.00000000E+00
		 0.00000000E+00	 0.00000000E+00	 0.00000000E+00	 0.00000000E+00	 0.00000000E+00	 0.00000000E+00
		 0.00000000E+00	 0.00000000E+00	 0.00000000E+00	 0.00000000E+00	 0.00000000E+00	 0.00000000E+00
		 0.00000000E+00	 0.00000000E+00	 0.00000000E+00	 0.00000000E+00	 0.00000000E+00	 0.00000000E+00
		 0.00000000E+00	 0.00000000E+00	 0.00000000E+00	 0.00000000E+00	 0.00000000E+00	 0.00000000E+00
		 0.00000000E+00	 0.00000000E+00	 0.00000000E+00	 0.00000000E+00	 0.00000000E+00	 0.00000000E+00
		 0.00000000E+00	 0.00000000E+00	 0.00000000E+00	 0.00000000E+00	 0.00000000E+00	 0.00000000E+00
		 0.00000000E+00	 0.00000000E+00	 0.00000000E+00	 0.00000000E+00	 0.00000000E+00	 0.00000000E+00
		 0.00000000E+00	 0.00000000E+00	 0.00000000E+00	 0.00000000E+00	 0.00000000E+00	 0.00000000E+00
		 0.00000000E+00	 0.00000000E+00	 0.00000000E+00	 0.00000000E+00	 0.00000000E+00	 0.00000000E+00
		 0.00000000E+00	 0.00000000E+00	 0.00000000E+00	 0.00000000E+00	 0.00000000E+00	 0.00000000E+00
		 0.00000000E+00	 0.00000000E+00	 0.00000000E+00	 0.00000000E+00	 0.00000000E+00	 0.00000000E+00
		 0.00000000E+00	 0.00000000E+00	 0.00000000E+00	 0.00000000E+00	 0.00000000E+00	 0.00000000E+00
		 0.00000000E+00	 0.00000000E+00	 0.00000000E+00	 0.00000000E+00	 0.00000000E+00	 0.00000000E+00
		 0.00000000E+00	 0.00000000E+00	 0.00000000E+00	 0.00000000E+00	 0.00000000E+00	 0.00000000E+00
		 0.00000000E+00	 0.00000000E+00	 0.00000000E+00	 0.00000000E+00	 0.00000000E+00	 0.00000000E+00
		 0.00000000E+00	 0.00000000E+00	 0.00000000E+00	 0.00000000E+00	 0.00000000E+00	 0.00000000E+00
		 0.00000000E+00	 0.00000000E+00	 0.00000000E+00	 0.00000000E+00	 0.00000000E+00	 0.00000000E+00
		 0.00000000E+00	 0.00000000E+00	 0.00000000E+00	 0.00000000E+00	 0.00000000E+00	 0.00000000E+00
		 0.00000000E+00	 0.00000000E+00	 0.00000000E+00	 0.00000000E+00	 0.00000000E+00	 0.00000000E+00
		 0.00000000E+00	 0.00000000E+00	 0.00000000E+00	 0.00000000E+00	 0.00000000E+00	 0.00000000E+00
		 0.00000000E+00	 0.00000000E+00	 0.00000000E+00	 0.00000000E+00	 0.00000000E+00	 0.00000000E+00
		 0.00000000E+00	 0.00000000E+00	 0.00000000E+00	 0.00000000E+00	 0.00000000E+00	 0.00000000E+00
		 0.00000000E+00	 0.00000000E+00	 0.00000000E+00	 0.00000000E+00	 0.00000000E+00	 0.00000000E+00
		 0.00000000E+00	 0.00000000E+00	 0.00000000E+00	 0.00000000E+00	 0.00000000E+00	 0.00000000E+00
		 0.00000000E+00	 0.00000000E+00	 0.00000000E+00	 0.00000000E+00	 0.00000000E+00	 0.00000000E+00
		 0.00000000E+00	 0.00000000E+00	 0.00000000E+00	 0.00000000E+00	 0.00000000E+00	 0.00000000E+00
		 0.00000000E+00	 0.00000000E+00	 0.00000000E+00	 0.00000000E+00	 0.00000000E+00	 0.00000000E+00
		 0.00000000E+00	 0.00000000E+00	 0.00000000E+00	 0.00000000E+00	 0.00000000E+00	 0.00000000E+00
		 0.00000000E+00	 0.00000000E+00	 0.00000000E+00	 0.00000000E+00	 0.00000000E+00	 0.00000000E+00
		 0.00000000E+00	 0.00000000E+00	 0.00000000E+00	 0.00000000E+00	 0.00000000E+00	 0.00000000E+00
		 0.00000000E+00	 0.00000000E+00	 0.00000000E+00	 0.00000000E+00	 0.00000000E+00	 0.00000000E+00
		 0.00000000E+00	 0.00000000E+00	 0.00000000E+00	 0.00000000E+00	 0.00000000E+00	 0.00000000E+00
		 0.00000000E+00	 0.00000000E+00	 0.00000000E+00	 0.00000000E+00	 0.00000000E+00	 0.00000000E+00
		 0.00000000E+00	 0.00000000E+00	 0.00000000E+00	 0.00000000E+00	 0.00000000E+00	 0.00000000E+00
		 0.00000000E+00	 0.00000000E+00	 0.00000000E+00	 0.00000000E+00	 0.00000000E+00	 0.00000000E+00
		 0.00000000E+00	 0.00000000E+00	 0.00000000E+00	 0.00000000E+00	 0.00000000E+00	 0.00000000E+00
		 0.00000000E+00	 0.00000000E+00	 0.00000000E+00	 0.00000000E+00	 0.00000000E+00	 0.00000000E+00
		 0.00000000E+00	 0.00000000E+00	 0.00000000E+00	 0.00000000E+00	 0.00000000E+00	 0.00000000E+00
		 0.00000000E+00	 0.00000000E+00	 0.00000000E+00	 0.00000000E+00	 0.00000000E+00	 0.00000000E+00
		 0.00000000E+00	 0.00000000E+00	 0.00000000E+00	 0.00000000E+00	 0.00000000E+00	 0.00000000E+00
		 0.00000000E+00	 0.00000000E+00	 0.00000000E+00	 0.00000000E+00	 0.00000000E+00	 0.00000000E+00
		 0.00000000E+00	 0.00000000E+00	 0.00000000E+00	 0.00000000E+00	 0.00000000E+00	 0.00000000E+00
		 0.00000000E+00	 0.00000000E+00	 0.00000000E+00	 0.00000000E+00	 0.00000000E+00	 0.00000000E+00
		 0.00000000E+00	 0.00000000E+00	 0.00000000E+00	 0.00000000E+00	 0.00000000E+00	 0.00000000E+00
		 0.00000000E+00	 0.00000000E+00	 0.00000000E+00	 0.00000000E+00	 0.00000000E+00	 0.00000000E+00
		 0.00000000E+00	 0.00000000E+00	 0.00000000E+00	 0.00000000E+00	 0.00000000E+00	 0.00000000E+00
		 0.00000000E+00	 0.00000000E+00	 0.00000000E+00	 0.00000000E+00	 0.00000000E+00	 0.00000000E+00
		 0.00000000E+00	 0.00000000E+00	 0.00000000E+00	 0.00000000E+00	 0.00000000E+00	 0.00000000E+00
		 0.00000000E+00	 0.00000000E+00	 0.00000000E+00	 0.00000000E+00	 0.00000000E+00	 0.00000000E+00
		 0.00000000E+00	 0.00000000E+00	 0.00000000E+00	 0.00000000E+00	 0.00000000E+00	 0.00000000E+00
		 0.00000000E+00	 0.00000000E+00	 0.00000000E+00	 0.00000000E+00	 0.00000000E+00	 0.00000000E+00
		 0.00000000E+00	 0.00000000E+00	 0.00000000E+00	 0.00000000E+00	 0.00000000E+00	 0.00000000E+00
		 0.00000000E+00	 0.00000000E+00	 0.00000000E+00	 0.00000000E+00	 0.00000000E+00	 0.00000000E+00
		 0.00000000E+00	 0.00000000E+00	 0.00000000E+00	 0.00000000E+00	 0.00000000E+00	 0.00000000E+00
		 0.00000000E+00	 0.00000000E+00	 0.00000000E+00	 0.00000000E+00	 0.00000000E+00	 0.00000000E+00
		 0.00000000E+00	 0.00000000E+00	 0.00000000E+00	 0.00000000E+00	 0.00000000E+00	 0.00000000E+00
		 0.00000000E+00	 0.00000000E+00	 0.00000000E+00	 0.00000000E+00	 0.00000000E+00	 0.00000000E+00
		 0.00000000E+00	 0.00000000E+00	 0.00000000E+00	 0.00000000E+00	 0.00000000E+00	 0.00000000E+00
		 0.00000000E+00	 0.00000000E+00	 0.00000000E+00	 0.00000000E+00	 0.00000000E+00	 0.00000000E+00
		 0.00000000E+00	 0.00000000E+00	 0.00000000E+00	 0.00000000E+00	 0.00000000E+00	 0.00000000E+00
		 0.00000000E+00	 0.00000000E+00	 0.00000000E+00	 0.00000000E+00	 0.00000000E+00	 0.00000000E+00
		 0.00000000E+00	 0.00000000E+00	 0.00000000E+00	 0.00000000E+00	 0.00000000E+00	 0.00000000E+00
		 0.00000000E+00	 0.00000000E+00	 0.00000000E+00	 0.00000000E+00	 0.00000000E+00	 0.00000000E+00
		 0.00000000E+00	 0.00000000E+00	 0.00000000E+00	 0.00000000E+00	 0.00000000E+00	 0.00000000E+00
		 0.00000000E+00	 0.00000000E+00	 0.00000000E+00	 0.00000000E+00	 0.00000000E+00	 0.00000000E+00
		 0.00000000E+00	 0.00000000E+00	 0.00000000E+00	 0.00000000E+00	 0.00000000E+00	 0.00000000E+00
		 0.00000000E+00	 0.00000000E+00	 0.00000000E+00	 0.00000000E+00	 0.00000000E+00	 0.00000000E+00
		 0.00000000E+00	 0.00000000E+00	 0.00000000E+00	 0.00000000E+00	 0.00000000E+00	 0.00000000E+00
		 0.00000000E+00	 0.00000000E+00	 0.00000000E+00	 0.00000000E+00	 0.00000000E+00	 0.00000000E+00
		 0.00000000E+00	 0.00000000E+00	 0.00000000E+00	 0.00000000E+00	 0.00000000E+00	 0.00000000E+00
		 0.00000000E+00	 0.00000000E+00	 0.00000000E+00	 0.00000000E+00	 0.00000000E+00	 0.00000000E+00
		 0.00000000E+00	 0.00000000E+00	 0.00000000E+00	 0.00000000E+00	 0.00000000E+00	 0.00000000E+00
		 0.00000000E+00	 0.00000000E+00	 0.00000000E+00	 0.00000000E+00	 0.00000000E+00	 0.00000000E+00
		 0.00000000E+00	 0.00000000E+00	 0.00000000E+00	 0.00000000E+00	 0.00000000E+00	 0.00000000E+00
		 0.00000000E+00	 0.00000000E+00	 0.00000000E+00	 0.00000000E+00	 0.00000000E+00	 0.00000000E+00
		 0.00000000E+00	 0.00000000E+00	 0.00000000E+00	 0.00000000E+00	 0.00000000E+00	 0.00000000E+00
		 0.00000000E+00	 0.00000000E+00	 0.00000000E+00	 0.00000000E+00	 0.00000000E+00	 0.00000000E+00
		 0.00000000E+00	 0.00000000E+00	 0.00000000E+00	 0.00000000E+00	 0.00000000E+00	 0.00000000E+00
		 0.00000000E+00	 0.00000000E+00	 0.00000000E+00	 0.00000000E+00	 0.00000000E+00	 0.00000000E+00
		 0.00000000E+00	 0.00000000E+00	 0.00000000E+00	 0.00000000E+00	 0.00000000E+00	 0.00000000E+00
		 0.00000000E+00	 0.00000000E+00	 0.00000000E+00	 0.00000000E+00	 0.00000000E+00	 0.00000000E+00
		 0.00000000E+00	 0.00000000E+00	 0.00000000E+00	 0.00000000E+00	 0.00000000E+00	 0.00000000E+00
		 0.00000000E+00	 0.00000000E+00	 0.00000000E+00	 0.00000000E+00	 0.00000000E+00	 0.00000000E+00
		 0.00000000E+00	 0.00000000E+00	 0.00000000E+00	 0.00000000E+00	 0.00000000E+00	 0.00000000E+00
		 0.00000000E+00	 0.00000000E+00	 0.00000000E+00	 0.00000000E+00	 0.00000000E+00	 0.00000000E+00
		 0.00000000E+00	 0.00000000E+00	 0.00000000E+00	 0.00000000E+00	 0.00000000E+00	 0.00000000E+00
		 0.00000000E+00	 0.00000000E+00	 0.00000000E+00	 0.00000000E+00	 0.00000000E+00	 0.00000000E+00
		 0.00000000E+00	 0.00000000E+00	 0.00000000E+00	 0.00000000E+00	 0.00000000E+00	 0.00000000E+00
		 0.00000000E+00	 0.00000000E+00	 0.00000000E+00	 0.00000000E+00	 0.00000000E+00	 0.00000000E+00
		 0.00000000E+00	 0.00000000E+00	 0.00000000E+00	 0.00000000E+00	 0.00000000E+00	 0.00000000E+00
		 0.00000000E+00	 0.00000000E+00	 0.00000000E+00	 0.00000000E+00	 0.00000000E+00	 0.00000000E+00
		 0.00000000E+00	 0.00000000E+00	 0.00000000E+00	 0.00000000E+00	 0.00000000E+00	 0.00000000E+00
		 0.00000000E+00	 0.00000000E+00	 0.00000000E+00	 0.00000000E+00	 0.00000000E+00	 0.00000000E+00
		 0.00000000E+00	 0.00000000E+00	 0.00000000E+00	 0.00000000E+00	 0.00000000E+00	 0.00000000E+00
		 0.00000000E+00	 0.00000000E+00	 0.00000000E+00	 0.00000000E+00	 0.00000000E+00	 0.00000000E+00
		 0.00000000E+00	 0.00000000E+00	 0.00000000E+00	 0.00000000E+00	 0.00000000E+00	 0.00000000E+00
		 0.00000000E+00	 0.00000000E+00	 0.00000000E+00	 0.00000000E+00	 0.00000000E+00	 0.00000000E+00
		 0.00000000E+00	 0.00000000E+00	 0.00000000E+00	 0.00000000E+00	 0.00000000E+00	 0.00000000E+00
		 0.00000000E+00	 0.00000000E+00	 0.00000000E+00	 0.00000000E+00	 0.00000000E+00	 0.00000000E+00
		 0.00000000E+00	 0.00000000E+00	 0.00000000E+00	 0.00000000E+00	 0.00000000E+00	 0.00000000E+00
		 0.00000000E+00	 0.00000000E+00	 0.00000000E+00	 0.00000000E+00	 0.00000000E+00	 0.00000000E+00
		 0.00000000E+00	 0.00000000E+00	 0.00000000E+00	 0.00000000E+00	 0.00000000E+00	 0.00000000E+00
		 0.00000000E+00	 0.00000000E+00	 0.00000000E+00	 0.00000000E+00	 0.00000000E+00	 0.00000000E+00
		 0.00000000E+00	 0.00000000E+00	 0.00000000E+00	 0.00000000E+00	 0.00000000E+00	 0.00000000E+00
		 0.00000000E+00	 0.00000000E+00	 0.00000000E+00	 0.00000000E+00	 0.00000000E+00	 0.00000000E+00
		 0.00000000E+00	 0.00000000E+00	 0.00000000E+00	 0.00000000E+00	 0.00000000E+00	 0.00000000E+00
		 0.00000000E+00	 0.00000000E+00	 0.00000000E+00	 0.00000000E+00	 0.00000000E+00	 0.00000000E+00
		 0.00000000E+00	 0.00000000E+00	 0.00000000E+00	 0.00000000E+00	 0.00000000E+00	 0.00000000E+00
		 0.00000000E+00	 0.00000000E+00	 0.00000000E+00	 0.00000000E+00	 0.00000000E+00	 0.00000000E+00