<?xml version="1.0"?>
<VTKFile type="UnstructuredGrid" version="0.1" byte_order="LittleEndian">
	<UnstructuredGrid>
		<Piece NumberOfPoints="2960" NumberOfCells="632">
			<Points>
				<DataArray type="Float64" NumberOfComponents="3" format="ascii">
					 0.00000000E+00	 0.00000000E+00	 0.00000000E+00
					 1.25000000E-01	 0.00000000E+00	 0.00000000E+00
					 2.50000000E-01	 0.00000000E+00	 0.00000000E+00
					 3.75000000E-01	 0.00000000E+00	 0.00000000E+00
					 5.00000000E-01	 0.00000000E+00	 0.00000000E+00
					 6.25000000E-01	 0.00000000E+00	 0.00000000E+00
					 7.50000000E-01	 0.00000000E+00	 0.00000000E+00
					 8.75000000E-01	 0.00000000E+00	 0.00000000E+00
					 1.00000000E+00	 0.00000000E+00	 0.00000000E+00
					 1.00000000E+00	 0.00000000E+00	 1.25000000E-01
					 1.00000000E+00	 0.00000000E+00	 2.50000000E-01
					 1.00000000E+00	 0.00000000E+00	 3.75000000E-01
					 1.00000000E+00	 0.00000000E+00	 5.00000000E-01
					 1.00000000E+00	 0.00000000E+00	 6.25000000E-01
					 1.00000000E+00	 0.00000000E+00	 7.50000000E-01
					 1.00000000E+00	 0.00000000E+00	 8.75000000E-01
					 1.00000000E+00	 0.00000000E+00	 1.00000000E+00
					 8.75000000E-01	 0.00000000E+00	 1.00000000E+00
					 7.50000000E-01	 0.00000000E+00	 1.00000000E+00
					 6.25000000E-01	 0.00000000E+00	 1.00000000E+00
					 5.00000000E-01	 0.00000000E+00	 1.00000000E+00
					 3.75000000E-01	 0.00000000E+00	 1.00000000E+00
					 2.50000000E-01	 0.00000000E+00	 1.00000000E+00
					 1.25000000E-01	 0.00000000E+00	 1.00000000E+00
					 0.00000000E+00	 0.00000000E+00	 1.00000000E+00
					 0.00000000E+00	 0.00000000E+00	 8.75000000E-01
					 0.00000000E+00	 0.00000000E+00	 7.50000000E-01
					 0.00000000E+00	 0.00000000E+00	 6.25000000E-01
					 0.00000000E+00	 0.00000000E+00	 5.00000000E-01
					 0.00000000E+00	 0.00000000E+00	 3.75000000E-01
					 0.00000000E+00	 0.00000000E+00	 2.50000000E-01
					 0.00000000E+00	 0.00000000E+00	 1.25000000E-01
					 5.00000000E-01	 0.00000000E+00	 8.75000000E-01
					 5.00000000E-01	 0.00000000E+00	 7.50000000E-01
					 5.00000000E-01	 0.00000000E+00	 6.25000000E-01
					 5.00000000E-01	 0.00000000E+00	 5.00000000E-01
					 5.00000000E-01	 0.00000000E+00	 3.75000000E-01
					 5.00000000E-01	 0.00000000E+00	 2.50000000E-01
					 5.00000000E-01	 0.00000000E+00	 1.25000000E-01
					 6.25000000E-01	 0.00000000E+00	 5.00000000E-01
					 7.50000000E-01	 0.00000000E+00	 5.00000000E-01
					 8.75000000E-01	 0.00000000E+00	 5.00000000E-01
					 7.50000000E-01	 0.00000000E+00	 6.25000000E-01
					 7.50000000E-01	 0.00000000E+00	 7.50000000E-01
					 7.50000000E-01	 0.00000000E+00	 8.75000000E-01
					 6.25000000E-01	 0.00000000E+00	 7.50000000E-01
					 6.25000000E-01	 0.00000000E+00	 6.25000000E-01
					 6.25000000E-01	 0.00000000E+00	 8.75000000E-01
					 8.75000000E-01	 0.00000000E+00	 7.50000000E-01
					 8.75000000E-01	 0.00000000E+00	 6.25000000E-01
					 8.75000000E-01	 0.00000000E+00	 8.75000000E-01
					 7.50000000E-01	 0.00000000E+00	 1.25000000E-01
					 7.50000000E-01	 0.00000000E+00	 2.50000000E-01
					 7.50000000E-01	 0.00000000E+00	 3.75000000E-01
					 6.25000000E-01	 0.00000000E+00	 2.50000000E-01
					 6.25000000E-01	 0.00000000E+00	 1.25000000E-01
					 6.25000000E-01	 0.00000000E+00	 3.75000000E-01
					 8.75000000E-01	 0.00000000E+00	 2.50000000E-01
					 8.75000000E-01	 0.00000000E+00	 1.25000000E-01
					 8.75000000E-01	 0.00000000E+00	 3.75000000E-01
					 1.25000000E-01	 0.00000000E+00	 5.00000000E-01
					 2.50000000E-01	 0.00000000E+00	 5.00000000E-01
					 3.75000000E-01	 0.00000000E+00	 5.00000000E-01
					 2.50000000E-01	 0.00000000E+00	 6.25000000E-01
					 2.50000000E-01	 0.00000000E+00	 7.50000000E-01
					 2.50000000E-01	 0.00000000E+00	 8.75000000E-01
					 1.25000000E-01	 0.00000000E+00	 7.50000000E-01
					 1.25000000E-01	 0.00000000E+00	 6.25000000E-01
					 1.25000000E-01	 0.00000000E+00	 8.75000000E-01
					 3.75000000E-01	 0.00000000E+00	 7.50000000E-01
					 3.75000000E-01	 0.00000000E+00	 6.25000000E-01
					 3.75000000E-01	 0.00000000E+00	 8.75000000E-01
					 2.50000000E-01	 0.00000000E+00	 1.25000000E-01
					 2.50000000E-01	 0.00000000E+00	 2.50000000E-01
					 2.50000000E-01	 0.00000000E+00	 3.75000000E-01
					 1.25000000E-01	 0.00000000E+00	 2.50000000E-01
					 1.25000000E-01	 0.00000000E+00	 1.25000000E-01
					 1.25000000E-01	 0.00000000E+00	 3.75000000E-01
					 3.75000000E-01	 0.00000000E+00	 2.50000000E-01
					 3.75000000E-01	 0.00000000E+00	 1.25000000E-01
					 3.75000000E-01	 0.00000000E+00	 3.75000000E-01
					 7.50000000E-01	 1.25000000E-01	 7.50000000E-01
					 6.25000000E-01	 1.25000000E-01	 7.50000000E-01
					 6.25000000E-01	 1.25000000E-01	 6.25000000E-01
					 7.50000000E-01	 1.25000000E-01	 6.25000000E-01
					 7.50000000E-01	 2.50000000E-01	 7.50000000E-01
					 6.25000000E-01	 2.50000000E-01	 7.50000000E-01
					 6.25000000E-01	 2.50000000E-01	 6.25000000E-01
					 7.50000000E-01	 2.50000000E-01	 6.25000000E-01
					 7.50000000E-01	 3.75000000E-01	 7.50000000E-01
					 6.25000000E-01	 3.75000000E-01	 7.50000000E-01
					 6.25000000E-01	 3.75000000E-01	 6.25000000E-01
					 7.50000000E-01	 3.75000000E-01	 6.25000000E-01
					 7.50000000E-01	 5.00000000E-01	 7.50000000E-01
					 6.25000000E-01	 5.00000000E-01	 7.50000000E-01
					 6.25000000E-01	 5.00000000E-01	 6.25000000E-01
					 7.50000000E-01	 5.00000000E-01	 6.25000000E-01
					 7.50000000E-01	 6.25000000E-01	 7.50000000E-01
					 6.25000000E-01	 6.25000000E-01	 7.50000000E-01
					 6.25000000E-01	 6.25000000E-01	 6.25000000E-01
					 7.50000000E-01	 6.25000000E-01	 6.25000000E-01
					 7.50000000E-01	 7.50000000E-01	 7.50000000E-01
					 6.25000000E-01	 7.50000000E-01	 7.50000000E-01
					 6.25000000E-01	 7.50000000E-01	 6.25000000E-01
					 7.50000000E-01	 7.50000000E-01	 6.25000000E-01
					 7.50000000E-01	 8.75000000E-01	 7.50000000E-01
					 6.25000000E-01	 8.75000000E-01	 7.50000000E-01
					 6.25000000E-01	 8.75000000E-01	 6.25000000E-01
					 7.50000000E-01	 8.75000000E-01	 6.25000000E-01
					 7.50000000E-01	 1.00000000E+00	 7.50000000E-01
					 6.25000000E-01	 1.00000000E+00	 7.50000000E-01
					 6.25000000E-01	 1.00000000E+00	 6.25000000E-01
					 7.50000000E-01	 1.00000000E+00	 6.25000000E-01
					 6.25000000E-01	 1.25000000E-01	 5.00000000E-01
					 7.50000000E-01	 1.25000000E-01	 5.00000000E-01
					 6.25000000E-01	 2.50000000E-01	 5.00000000E-01
					 7.50000000E-01	 2.50000000E-01	 5.00000000E-01
					 6.25000000E-01	 3.75000000E-01	 5.00000000E-01
					 7.50000000E-01	 3.75000000E-01	 5.00000000E-01
					 6.25000000E-01	 5.00000000E-01	 5.00000000E-01
					 7.50000000E-01	 5.00000000E-01	 5.00000000E-01
					 6.25000000E-01	 6.25000000E-01	 5.00000000E-01
					 7.50000000E-01	 6.25000000E-01	 5.00000000E-01
					 6.25000000E-01	 7.50000000E-01	 5.00000000E-01
					 7.50000000E-01	 7.50000000E-01	 5.00000000E-01
					 6.25000000E-01	 8.75000000E-01	 5.00000000E-01
					 7.50000000E-01	 8.75000000E-01	 5.00000000E-01
					 6.25000000E-01	 1.00000000E+00	 5.00000000E-01
					 7.50000000E-01	 1.00000000E+00	 5.00000000E-01
					 5.00000000E-01	 1.25000000E-01	 7.50000000E-01
					 5.00000000E-01	 1.25000000E-01	 6.25000000E-01
					 5.00000000E-01	 2.50000000E-01	 7.50000000E-01
					 5.00000000E-01	 2.50000000E-01	 6.25000000E-01
					 5.00000000E-01	 3.75000000E-01	 7.50000000E-01
					 5.00000000E-01	 3.75000000E-01	 6.25000000E-01
					 5.00000000E-01	 5.00000000E-01	 7.50000000E-01
					 5.00000000E-01	 5.00000000E-01	 6.25000000E-01
					 5.00000000E-01	 6.25000000E-01	 7.50000000E-01
					 5.00000000E-01	 6.25000000E-01	 6.25000000E-01
					 5.00000000E-01	 7.50000000E-01	 7.50000000E-01
					 5.00000000E-01	 7.50000000E-01	 6.25000000E-01
					 5.00000000E-01	 8.75000000E-01	 7.50000000E-01
					 5.00000000E-01	 8.75000000E-01	 6.25000000E-01
					 5.00000000E-01	 1.00000000E+00	 7.50000000E-01
					 5.00000000E-01	 1.00000000E+00	 6.25000000E-01
					 5.00000000E-01	 1.25000000E-01	 5.00000000E-01
					 5.00000000E-01	 2.50000000E-01	 5.00000000E-01
					 5.00000000E-01	 3.75000000E-01	 5.00000000E-01
					 5.00000000E-01	 5.00000000E-01	 5.00000000E-01
					 5.00000000E-01	 6.25000000E-01	 5.00000000E-01
					 5.00000000E-01	 7.50000000E-01	 5.00000000E-01
					 5.00000000E-01	 8.75000000E-01	 5.00000000E-01
					 5.00000000E-01	 1.00000000E+00	 5.00000000E-01
					 6.25000000E-01	 1.25000000E-01	 3.75000000E-01
					 7.50000000E-01	 1.25000000E-01	 3.75000000E-01
					 6.25000000E-01	 2.50000000E-01	 3.75000000E-01
					 7.50000000E-01	 2.50000000E-01	 3.75000000E-01
					 6.25000000E-01	 3.75000000E-01	 3.75000000E-01
					 7.50000000E-01	 3.75000000E-01	 3.75000000E-01
					 6.25000000E-01	 5.00000000E-01	 3.75000000E-01
					 7.50000000E-01	 5.00000000E-01	 3.75000000E-01
					 6.25000000E-01	 6.25000000E-01	 3.75000000E-01
					 7.50000000E-01	 6.25000000E-01	 3.75000000E-01
					 6.25000000E-01	 7.50000000E-01	 3.75000000E-01
					 7.50000000E-01	 7.50000000E-01	 3.75000000E-01
					 6.25000000E-01	 8.75000000E-01	 3.75000000E-01
					 7.50000000E-01	 8.75000000E-01	 3.75000000E-01
					 6.25000000E-01	 1.00000000E+00	 3.75000000E-01
					 7.50000000E-01	 1.00000000E+00	 3.75000000E-01
					 1.25000000E-01	 1.25000000E-01	 7.50000000E-01
					 0.00000000E+00	 1.25000000E-01	 7.50000000E-01
					 0.00000000E+00	 1.25000000E-01	 6.25000000E-01
					 1.25000000E-01	 1.25000000E-01	 6.25000000E-01
					 1.25000000E-01	 2.50000000E-01	 7.50000000E-01
					 0.00000000E+00	 2.50000000E-01	 7.50000000E-01
					 0.00000000E+00	 2.50000000E-01	 6.25000000E-01
					 1.25000000E-01	 2.50000000E-01	 6.25000000E-01
					 1.25000000E-01	 3.75000000E-01	 7.50000000E-01
					 0.00000000E+00	 3.75000000E-01	 7.50000000E-01
					 0.00000000E+00	 3.75000000E-01	 6.25000000E-01
					 1.25000000E-01	 3.75000000E-01	 6.25000000E-01
					 1.25000000E-01	 5.00000000E-01	 7.50000000E-01
					 0.00000000E+00	 5.00000000E-01	 7.50000000E-01
[...]
			<PointData>
				<DataArray type="Float32" Name="CONTACT" NumberOfComponents="6" ComponentName0="COPEN" ComponentName1="CSLIP1" ComponentName2="CSLIP2" ComponentName3="CPRESS" ComponentName4="CSHEAR1" ComponentName5="CSHEAR2" format="ascii">
					 0.00000000E+00	 0.00000000E+00	 0.00000000E+00	 0.00000000E+00	 0.00000000E+00	 0.00000000E+00
					 0.00000000E+00	 0.00000000E+00	 0.00000000E+00	 0.00000000E+00	 0.00000000E+00	 0.00000000E+00
					 0.00000000E+00	 0.00000000E+00	 0.00000000E+00	 0.00000000E+00	 0.00000000E+00	 0.00000000E+00
					 0.00000000E+00	 0.00000000E+00	 0.00000000E+00	 0.00000000E+00	 0.00000000E+00	 0.00000000E+00
					 0.00000000E+00	 0.00000000E+00	 0.00000000E+00	 0.00000000E+00	 0.00000000E+00	 0.00000000E+00
					 0.00000000E+00	 0.00000000E+00	 0.00000000E+00	 0.00000000E+00	 0.00000000E+00	 0.00000000E+00
					 0.00000000E+00	 0.00000000E+00	 0.00000000E+00	 0.00000000E+00	 0.00000000E+00	 0.00000000E+00
					 0.00000000E+00	 0.00000000E+00	 0.00000000E+00	 0.00000000E+00	 0.00000000E+00	 0.00000000E+00
					 0.00000000E+00	 0.00000000E+00	 0.00000000E+00	 0.00000000E+00	 0.00000000E+00	 0.00000000E+00
					 0.00000000E+00	 0.00000000E+00	 0.00000000E+00	 0.00000000E+00	 0.00000000E+00	 0.00000000E+00
					 0.00000000E+00	 0.00000000E+00	 0.00000000E+00	 0.00000000E+00	 0.00000000E+00	 0.00000000E+00
					 0.00000000E+00	 0.00000000E+00	 0.00000000E+00	 0.00000000E+00	 0.00000000E+00	 0.00000000E+00
					 0.00000000E+00	 0.00000000E+00	 0.00000000E+00	 0.00000000E+00	 0.00000000E+00	 0.00000000E+00
					 0.00000000E+00	 0.00000000E+00	 0.00000000E+00	 0.00000000E+00	 0.00000000E+00	 0.00000000E+00
					 0.00000000E+00	 0.00000000E+00	 0.00000000E+00	 0.00000000E+00	 0.00000000E+00	 0.00000000E+00
					 0.00000000E+00	 0.00000000E+00	 0.00000000E+00	 0.00000000E+00	 0.00000000E+00	 0.00000000E+00
					-3.19410000E-05	-1.18482000E-06	 3.13117000E-07	 3.19410000E+02	-1.18482000E+01	 3.13117000E+00
					-2.60442000E-05	-4.60880000E-06	 4.10053000E-07	 2.60442000E+02	-4.60880000E+01	 4.10053000E+00
					-1.65302000E-05	-7.32550000E-06	 1.22207000E-08	 1.65302000E+02	-7.32550000E+01	 1.22207000E-01
					-8.70014000E-06	-9.03039000E-06	 8.20787000E-08	 8.70014000E+01	-9.03039000E+01	 8.20787000E-01
					 3.79807000E-07	-9.37740000E-06	-1.53189000E-07	-3.79807000E+00	-9.37740000E+01	-1.53189000E+00
					 8.84538000E-06	-9.01716000E-06	-1.25226000E-07	-8.84538000E+01	-9.01716000E+01	-1.25226000E+00
					 1.63197000E-05	-7.20688000E-06	 3.91891000E-07	-1.63197000E+02	-7.20687000E+01	 3.91891000E+00
					 2.57179000E-05	-4.40272000E-06	-3.95830000E-08	-2.57179000E+02	-4.40272000E+01	-3.95830000E-01
					 3.26898000E-05	-8.67058000E-07	-4.53315000E-07	-3.26898000E+02	-8.67058000E+00	-4.53315000E+00
					 0.00000000E+00	 0.00000000E+00	 0.00000000E+00	 0.00000000E+00	 0.00000000E+00	 0.00000000E+00
					 0.00000000E+00	 0.00000000E+00	 0.00000000E+00	 0.00000000E+00	 0.00000000E+00	 0.00000000E+00
					 0.00000000E+00	 0.00000000E+00	 0.00000000E+00	 0.00000000E+00	 0.00000000E+00	 0.00000000E+00
					 0.00000000E+00	 0.00000000E+00	 0.00000000E+00	 0.00000000E+00	 0.00000000E+00	 0.00000000E+00
					 0.00000000E+00	 0.00000000E+00	 0.00000000E+00	 0.00000000E+00	 0.00000000E+00	 0.00000000E+00
					 0.00000000E+00	 0.00000000E+00	 0.00000000E+00	 0.00000000E+00	 0.00000000E+00	 0.00000000E+00
					 0.00000000E+00	 0.00000000E+00	 0.00000000E+00	 0.00000000E+00	 0.00000000E+00	 0.00000000E+00
					 0.00000000E+00	 0.00000000E+00	 0.00000000E+00	 0.00000000E+00	 0.00000000E+00	 0.00000000E+00
					 0.00000000E+00	 0.00000000E+00	 0.00000000E+00	 0.00000000E+00	 0.00000000E+00	 0.00000000E+00
					 0.00000000E+00	 0.00000000E+00	 0.00000000E+00	 0.00000000E+00	 0.00000000E+00	 0.00000000E+00
					 0.00000000E+00	 0.00000000E+00	 0.00000000E+00	 0.00000000E+00	 0.00000000E+00	 0.00000000E+00
					 0.00000000E+00	 0.00000000E+00	 0.00000000E+00	 0.00000000E+00	 0.00000000E+00	 0.00000000E+00
					 0.00000000E+00	 0.00000000E+00	 0.00000000E+00	 0.00000000E+00	 0.00000000E+00	 0.00000000E+00
					 0.00000000E+00	 0.00000000E+00	 0.00000000E+00	 0.00000000E+00	 0.00000000E+00	 0.00000000E+00
					 0.00000000E+00	 0.00000000E+00	 0.00000000E+00	 0.00000000E+00	 0.00000000E+00	 0.00000000E+00
					 0.00000000E+00	 0.00000000E+00	 0.00000000E+00	 0.00000000E+00	 0.00000000E+00	 0.00000000E+00
					 0.00000000E+00	 0.00000000E+00	 0.00000000E+00	 0.00000000E+00	 0.00000000E+00	 0.00000000E+00
					 0.00000000E+00	 0.00000000E+00	 0.00000000E+00	 0.00000000E+00	 0.00000000E+00	 0.00000000E+00
					 0.00000000E+00	 0.00000000E+00	 0.00000000E+00	 0.00000000E+00	 0.00000000E+00	 0.00000000E+00
					 0.00000000E+00	 0.00000000E+00	 0.00000000E+00	 0.00000000E+00	 0.00000000E+00	 0.00000000E+00
					 0.00000000E+00	 0.00000000E+00	 0.00000000E+00	 0.00000000E+00	 0.00000000E+00	 0.00000000E+00
					 0.00000000E+00	 0.00000000E+00	 0.00000000E+00	 0.00000000E+00	 0.00000000E+00	 0.00000000E+00
					 0.00000000E+00	 0.00000000E+00	 0.00000000E+00	 0.00000000E+00	 0.00000000E+00	 0.00000000E+00
					 0.00000000E+00	 0.00000000E+00	 0.00000000E+00	 0.00000000E+00	 0.00000000E+00	 0.00000000E+00
					 0.00000000E+00	 0.00000000E+00	 0.00000000E+00	 0.00000000E+00	 0.00000000E+00	 0.00000000E+00
					 0.00000000E+00	 0.00000000E+00	 0.00000000E+00	 0.00000000E+00	 0.00000000E+00	 0.00000000E+00
					 0.00000000E+00	 0.00000000E+00	 0.00000000E+00	 0.00000000E+00	 0.00000000E+00	 0.00000000E+00
					 0.00000000E+00	 0.00000000E+00	 0.00000000E+00	 0.00000000E+00	 0.00000000E+00	 0.00000000E+00
					 0.00000000E+00	 0.00000000E+00	 0.00000000E+00	 0.00000000E+00	 0.00000000E+00	 0.00000000E+00
					 0.00000000E+00	 0.00000000E+00	 0.00000000E+00	 0.00000000E+00	 0.00000000E+00	 0.00000000E+00
					 0.00000000E+00	 0.00000000E+00	 0.00000000E+00	 0.00000000E+00	 0.00000000E+00	 0.00000000E+00
					 0.00000000E+00	 0.00000000E+00	 0.00000000E+00	 0.00000000E+00	 0.00000000E+00	 0.00000000E+00
					 0.00000000E+00	 0.00000000E+00	 0.00000000E+00	 0.00000000E+00	 0.00000000E+00	 0.00000000E+00
					 0.00000000E+00	 0.00000000E+00	 0.00000000E+00	 0.00000000E+00	 0.00000000E+00	 0.00000000E+00
					 0.00000000E+00	 0.00000000E+00	 0.00000000E+00	 0.00000000E+00	 0.00000000E+00	 0.00000000E+00
					 0.00000000E+00	 0.00000000E+00	 0.00000000E+00	 0.00000000E+00	 0.00000000E+00	 0.00000000E+00
					 0.00000000E+00	 0.00000000E+00	 0.00000000E+00	 0.00000000E+00	 0.00000000E+00	 0.00000000E+00
					 0.00000000E+00	 0.00000000E+00	 0.00000000E+00	 0.00000000E+00	 0.00000000E+00	 0.00000000E+00
					 0.00000000E+00	 0.00000000E+00	 0.00000000E+00	 0.00000000E+00	 0.00000000E+00	 0.00000000E+00
					 0.00000000E+00	 0.00000000E+00	 0.00000000E+00	 0.00000000E+00	 0.00000000E+00	 0.00000000E+00
					 0.00000000E+00	 0.00000000E+00	 0.00000000E+00	 0.00000000E+00	 0.00000000E+00	 0.00000000E+00
					 0.00000000E+00	 0.00000000E+00	 0.00000000E+00	 0.00000000E+00	 0.00000000E+00	 0.00000000E+00
					 0.00000000E+00	 0.00000000E+00	 0.00000000E+00	 0.00000000E+00	 0.00000000E+00	 0.00000000E+00
					 0.00000000E+00	 0.00000000E+00	 0.00000000E+00	 0.00000000E+00	 0.00000000E+00	 0.00000000E+00
					 0.00000000E+00	 0.00000000E+00	 0.00000000E+00	 0.00000000E+00	 0.00000000E+00	 0.00000000E+00
					 0.00000000E+00	 0.00000000E+00	 0.00000000E+00	 0.00000000E+00	 0.00000000E+00	 0.00000000E+00
					 0.00000000E+00	 0.00000000E+00	 0.00000000E+00	 0.00000000E+00	 0.00000000E+00	 0.00000000E+00
					 0.00000000E+00	 0.00000000E+00	 0.00000000E+00	 0.00000000E+00	 0.00000000E+00	 0.00000000E+00
					 0.00000000E+00	 0.00000000E+00	 0.00000000E+00	 0.00000000E+00	 0.00000000E+00	 0.00000000E+00
					 0.00000000E+00	 0.00000000E+00	 0.00000000E+00	 0.00000000E+00	 0.00000000E+00	 0.00000000E+00
					 0.00000000E+00	 0.00000000E+00	 0.00000000E+00	 0.00000000E+00	 0.00000000E+00	 0.00000000E+00
					 0.00000000E+00	 0.00000000E+00	 0.00000000E+00	 0.00000000E+00	 0.00000000E+00	 0.00000000E+00
					 0.00000000E+00	 0.00000000E+00	 0.00000000E+00	 0.00000000E+00	 0.00000000E+00	 0.00000000E+00
					 0.00000000E+00	 0.00000000E+00	 0.00000000E+00	 0.00000000E+00	 0.00000000E+00	 0.00000000E+00
					 0.00000000E+00	 0.00000000E+00	 0.00000000E+00	 0.00000000E+00	 0.00000000E+00	 0.00000000E+00
					 0.00000000E+00	 0.00000000E+00	 0.00000000E+00	 0.00000000E+00	 0.00000000E+00	 0.00000000E+00
					 0.00000000E+00	 0.00000000E+00	 0.00000000E+00	 0.00000000E+00	 0.00000000E+00	 0.00000000E+00
					 0.00000000E+00	 0.00000000E+00	 0.00000000E+00	 0.00000000E+00	 0.00000000E+00	 0.00000000E+00
					 0.00000000E+00	 0.00000000E+00	 0.00000000E+00	 0.00000000E+00	 0.00000000E+00	 0.00000000E+00
					 0.00000000E+00	 0.00000000E+00	 0.00000000E+00	 0.00000000E+00	 0.00000000E+00	 0.00000000E+00
					 0.00000000E+00	 0.00000000E+00	 0.00000000E+00	 0.00000000E+00	 0.00000000E+00	 0.00000000E+00
					 0.00000000E+00	 0.00000000E+00	 0.00000000E+00	 0.00000000E+00	 0.00000000E+00	 0.00000000E+00
					 0.00000000E+00	 0.00000000E+00	 0.00000000E+00	 0.00000000E+00	 0.00000000E+00	 0.00000000E+00
					 0.00000000E+00	 0.00000000E+00	 0.00000000E+00	 0.00000000E+00	 0.00000000E+00	 0.00000000E+00
					 0.00000000E+00	 0.00000000E+00	 0.00000000E+00	 0.00000000E+00	 0.00000000E+00	 0.00000000E+00
					 0.00000000E+00	 0.00000000E+00	 0.00000000E+00	 0.00000000E+00	 0.00000000E+00	 0.00000000E+00
					 0.00000000E+00	 0.00000000E+00	 0.00000000E+00	 0.00000000E+00	 0.00000000E+00	 0.00000000E+00
					 0.00000000E+00	 0.00000000E+00	 0.00000000E+00	 0.00000000E+00	 0.00000000E+00	 0.00000000E+00
					 0.00000000E+00	 0.00000000E+00	 0.00000000E+00	 0.00000000E+00	 0.00000000E+00	 0.00000000E+00
					 0.00000000E+00	 0.00000000E+00	 0.00000000E+00	 0.00000000E+00	 0.00000000E+00	 0.00000000E+00
					 0.00000000E+00	 0.00000000E+00	 0.00000000E+00	 0.00000000E+00	 0.00000000E+00	 0.00000000E+00
					 0.00000000E+00	 0.00000000E+00	 0.00000000E+00	 0.00000000E+00	 0.00000000E+00	 0.00000000E+00
					 0.00000000E+00	 0.00000000E+00	 0.00000000E+00	 0.00000000E+00	 0.00000000E+00	 0.00000000E+00
					 0.00000000E+00	 0.00000000E+00	 0.00000000E+00	 0.00000000E+00	 0.00000000E+00	 0.00000000E+00
					 0.00000000E+00	 0.00000000E+00	 0.00000000E+00	 0.00000000E+00	 0.00000000E+00	 0.00000000E+00
					 0.00000000E+00	 0.00000000E+00	 0.00000000E+00	 0.00000000E+00	 0.00000000E+00	 0.00000000E+00
					 0.00000000E+00	 0.00000000E+00	 0.00000000E+00	 0.00000000E+00	 0.00000000E+00	 0.00000000E+00
					 0.00000000E+00	 0.00000000E+00	 0.00000000E+00	 0.00000000E+00	 0.00000000E+00	 0.00000000E+00
					 0.00000000E+00	 0.00000000E+00	 0.00000000E+00	 0.00000000E+00	 0.00000000E+00	 0.00000000E+00
					 0.00000000E+00	 0.00000000E+00	 0.00000000E+00	 0.00000000E+00	 0.00000000E+00	 0.00000000E+00
					 0.00000000E+00	 0.00000000E+00	 0.00000000E+00	 0.00000000E+00	 0.00000000E+00	 0.00000000E+00
					 0.00000000E+00	 0.00000000E+00	 0.00000000E+00	 0.00000000E+00	 0.00000000E+00	 0.00000000E+00
					 0.00000000E+00	 0.00000000E+00	 0.00000000E+00	 0.00000000E+00	 0.00000000E+00	 0.00000000E+00
					 0.00000000E+00	 0.00000000E+00	 0.00000000E+00	 0.00000000E+00	 0.00000000E+00	 0.00000000E+00
					 0.00000000E+00	 0.00000000E+00	 0.00000000E+00	 0.00000000E+00	 0.00000000E+00	 0.00000000E+00
					 0.00000000E+00	 0.00000000E+00	 0.00000000E+00	 0.00000000E+00	 0.00000000E+00	 0.00000000E+00
					 0.00000000E+00	 0.00000000E+00	 0.00000000E+00	 0.00000000E+00	 0.00000000E+00	 0.00000000E+00
					 0.00000000E+00	 0.00000000E+00	 0.00000000E+00	 0.00000000E+00	 0.00000000E+00	 0.00000000E+00
					 0.00000000E+00	 0.00000000E+00	 0.00000000E+00	 0.00000000E+00	 0.00000000E+00	 0.00000000E+00
					 0.00000000E+00	 0.00000000E+00	 0.00000000E+00	 0.00000000E+00	 0.00000000E+00	 0.00000000E+00
					 0.00000000E+00	 0.00000000E+00	 0.00000000E+00	 0.00000000E+00	 0.00000000E+00	 0.00000000E+00
					 0.00000000E+00	 0.00000000E+00	 0.00000000E+00	 0.00000000E+00	 0.00000000E+00	 0.00000000E+00
					 0.00000000E+00	 0.00000000E+00	 0.00000000E+00	 0.00000000E+00	 0.00000000E+00	 0.00000000E+00
					 0.00000000E+00	 0.00000000E+00	 0.00000000E+00	 0.00000000E+00	 0.00000000E+00	 0.00000000E+00
					 0.00000000E+00	 0.00000000E+00	 0.00000000E+00	 0.00000000E+00	 0.00000000E+00	 0.00000000E+00
					 0.00000000E+00	 0.00000000E+00	 0.00000000E+00	 0.00000000E+00	 0.00000000E+00	 0.00000000E+00
					 0.00000000E+00	 0.00000000E+00	 0.00000000E+00	 0.00000000E+00	 0.00000000E+00	 0.00000000E+00
					 0.00000000E+00	 0.00000000E+00	 0.00000000E+00	 0.00000000E+00	 0.00000000E+00	 0.00000000E+00
					 0.00000000E+00	 0.00000000E+00	 0.00000000E+00	 0.00000000E+00	 0.00000000E+00	 0.00000000E+00
					 0.00000000E+00	 0.00000000E+00	 0.00000000E+00	 0.00000000E+00	 0.00000000E+00	 0.00000000E+00
					 0.00000000E+00	 0.00000000E+00	 0.00000000E+00	 0.00000000E+00	 0.00000000E+00	 0.00000000E+00
					 0.00000000E+00	 0.00000000E+00	 0.00000000E+00	 0.00000000E+00	 0.00000000E+00	 0.00000000E+00
					 0.00000000E+00	 0.00000000E+00	 0.00000000E+00	 0.00000000E+00	 0.00000000E+00	 0.00000000E+00
					 0.00000000E+00	 0.00000000E+00	 0.00000000E+00	 0.00000000E+00	 0.00000000E+00	 0.00000000E+00
					 0.00000000E+00	 0.00000000E+00	 0.00000000E+00	 0.00000000E+00	 0.00000000E+00	 0.00000000E+00
					 0.00000000E+00	 0.00000000E+00	 0.00000000E+00	 0.00000000E+00	 0.00000000E+00	 0.00000000E+00
					 0.00000000E+00	 0.00000000E+00	 0.00000000E+00	 0.00000000E+00	 0.00000000E+00	 0.00000000E+00
					 0.00000000E+00	 0.00000000E+00	 0.00000000E+00	 0.00000000E+00	 0.00000000E+00	 0.00000000E+00
					 0.00000000E+00	 0.00000000E+00	 0.00000000E+00	 0.00000000E+00	 0.00000000E+00	 0.00000000E+00
					 0.00000000E+00	 0.00000000E+00	 0.00000000E+00	 0.00000000E+00	 0.00000000E+00	 0.00000000E+00
					 0.00000000E+00	 0.00000000E+00	 0.00000000E+00	 0.00000000E+00	 0.00000000E+00	 0.00000000E+00
					 0.00000000E+00	 0.00000000E+00	 0.00000000E+00	 0.00000000E+00	 0.00000000E+00	 0.00000000E+00
					 0.00000000E+00	 0.00000000E+00	 0.00000000E+00	 0.00000000E+00	 0.00000000E+00	 0.00000000E+00
					 0.00000000E+00	 0.00000000E+00	 0.00000000E+00	 0.00000000E+00	 0.00000000E+00	 0.00000000E+00
					 0.00000000E+00	 0.00000000E+00	 0.00000000E+00	 0.00000000E+00	 0.00000000E+00	 0.00000000E+00
					 0.00000000E+00	 0.00000000E+00	 0.00000000E+00	 0.00000000E+00	 0.00000000E+00	 0.00000000E+00
					 0.00000000E+00	 0.00000000E+00	 0.00000000E+00	 0.00000000E+00	 0.00000000E+00	 0.00000000E+00
					 0.00000000E+00	 0.00000000E+00	 0.00000000E+00	 0.00000000E+00	 0.00000000E+00	 0.00000000E+00
					 0.00000000E+00	 0.00000000E+00	 0.00000000E+00	 0.00000000E+00	 0.00000000E+00	 0.00000000E+00
					 0.00000000E+00	 0.00000000E+00	 0.00000000E+00	 0.00000000E+00	 0.00000000E+00	 0.00000000E+00
					 0.00000000E+00	 0.00000000E+00	 0.00000000E+00	 0.00000000E+00	 0.00000000E+00	 0.00000000E+00
					 0.00000000E+00	 0.00000000E+00	 0.00000000E+00	 0.00000000E+00	 0.00000000E+00	 0.00000000E+00
					 0.00000000E+00	 0.00000000E+00	 0.00000000E+00	 0.00000000E+00	 0.00000000E+00	 0.00000000E+00
					 0.00000000E+00	 0.00000000E+00	 0.00000000E+00	 0.00000000E+00	 0.00000000E+00	 0.00000000E+00
					 0.00000000E+00	 0.00000000E+00	 0.00000000E+00	 0.00000000E+00	 0.00000000E+00	 0.00000000E+00
					 0.00000000E+00	 0.00000000E+00	 0.00000000E+00	 0.00000000E+00	 0.00000000E+00	 0.00000000E+00
					 0.00000000E+00	 0.00000000E+00	 0.00000000E+00	 0.00000000E+00	 0.00000000E+00	 0.00000000E+00
					 0.00000000E+00	 0.00000000E+00	 0.00000000E+00	 0.00000000E+00	 0.00000000E+00	 0.00000000E+00
					 0.00000000E+00	 0.00000000E+00	 0.00000000E+00	 0.00000000E+00	 0.00000000E+00	 0.00000000E+00
					 0.00000000E+00	 0.00000000E+00	 0.00000000E+00	 0.00000000E+00	 0.00000000E+00	 0.00000000E+00
					 0.00000000E+00	 0.00000000E+00	 0.00000000E+00	 0.00000000E+00	 0.00000000E+00	 0.00000000E+00
					 0.00000000E+00	 0.00000000E+00	 0.00000000E+00	 0.00000000E+00	 0.00000000E+00	 0.00000000E+00
					 0.00000000E+00	 0.00000000E+00	 0.00000000E+00	 0.00000000E+00	 0.00000000E+00	 0.00000000E+00
					 0.00000000E+00	 0.00000000E+00	 0.00000000E+00	 0.00000000E+00	 0.00000000E+00	 0.00000000E+00
					 0.00000000E+00	 0.00000000E+00	 0.00000000E+00	 0.00000000E+00	 0.00000000E+00	 0.00000000E+00
					 0.00000000E+00	 0.00000000E+00	 0.00000000E+00	 0.00000000E+00	 0.00000000E+00	 0.00000000E+00
					 0.00000000E+00	 0.00000000E+00	 0.00000000E+00	 0.00000000E+00	 0.00000000E+00	 0.00000000E+00
					 0.00000000E+00	 0.00000000E+00	 0.00000000E+00	 0.00000000E+00	 0.00000000E+00	 0.00000000E+00
					 0.00000000E+00	 0.00000000E+00	 0.00000000E+00	 0.00000000E+00	 0.00000000E+00	 0.00000000E+00
					 0.00000000E+00	 0.00000000E+00	 0.00000000E+00	 0.00000000E+00	 0.00000000E+00	 0.00000000E+00
					 0.00000000E+00	 0.00000000E+00	 0.00000000E+00	 0.00000000E+00	 0.00000000E+00	 0.00000000E+00
					 0.00000000E+00	 0.00000000E+00	 0.00000000E+00	 0.00000000E+00	 0.00000000E+00	 0.00000000E+00
					 0.00000000E+00	 0.00000000E+00	 0.00000000E+00	 0.00000000E+00	 0.00000000E+00	 0.00000000E+00
					 0.00000000E+00	 0.00000000E+00	 0.00000000E+00	 0.00000000E+00	 0.00000000E+00	 0.00000000E+00
					 0.00000000E+00	 0.00000000E+00	 0.00000000E+00	 0.00000000E+00	 0.00000000E+00	 0.00000000E+00
					 0.00000000E+00	 0.00000000E+00	 0.00000000E+00	 0.00000000E+00	 0.00000000E+00	 0.00000000E+00
					 0.00000000E+00	 0.00000000E+00	 0.00000000E+00	 0.00000000E+00	 0.00000000E+00	 0.00000000E+00
					 0.00000000E+00	 0.00000000E+00	 0.00000000E+00	 0.00000000E+00	 0.00000000E+00	 0.00000000E+00
					 0.00000000E+00	 0.00000000E+00	 0.00000000E+00	 0.00000000E+00	 0.00000000E+00	 0.00000000E+00
					 0.00000000E+00	 0.00000000E+00	 0.00000000E+00	 0.00000000E+00	 0.00000000E+00	 0.00000000E+00
					 0.00000000E+00	 0.00000000E+00	 0.00000000E+00	 0.00000000E+00	 0.00000000E+00	 0.00000000E+00
					 0.00000000E+00	 0.00000000E+00	 0.00000000E+00	 0.00000000E+00	 0.00000000E+00	 0.00000000E+00
					 0.00000000E+00	 0.00000000E+00	 0.00000000E+00	 0.00000000E+00	 0.00000000E+00	 0.00000000E+00
					 0.00000000E+00	 0.00000000E+00	 0.00000000E+00	 0.00000000E+00	 0.00000000E+00	 0.00000000E+00
					 0.00000000E+00	 0.00000000E+00	 0.00000000E+00	 0.00000000E+00	 0.00000000E+00	 0.00000000E+00
					 0.00000000E+00	 0.00000000E+00	 0.00000000E+00	 0.00000000E+00	 0.00000000E+00	 0.00000000E+00
					 0.00000000E+00	 0.00000000E+00	 0.00000000E+00	 0.00000000E+00	 0.00000000E+00	 0.00000000E+00
					 0.00000000E+00	 0.00000000E+00	 0.00000000E+00	 0.00000000E+00	 0.00000000E+00	 0.00000000E+00
					 0.00000000E+00	 0.00000000E+00	 0.00000000E+00	 0.00000000E+00	 0.00000000E+00	 0.00000000E+00
					 0.00000000E+00	 0.00000000E+00	 0.00000000E+00	 0.00000000E+00	 0.00000000E+00	 0.00000000E+00
					 0.00000000E+00	 0.00000000E+00	 0.00000000E+00	 0.00000000E+00	 0.00000000E+00	 0.00000000E+00
					 0.00000000E+00	 0.00000000E+00	 0.00000000E+00	 0.00000000E+00	 0.00000000E+00	 0.00000000E+00
					 0.00000000E+00	 0.00000000E+00	 0.00000000E+00	 0.00000000E+00	 0.00000000E+00	 0.00000000E+00
					 0.00000000E+00	 0.00000000E+00	 0.00000000E+00	 0.00000000E+00	 0.00000000E+00	 0.00000000E+00
					 0.00000000E+00	 0.00000000E+00	 0.00000000E+00	 0.00000000E+00	 0.00000000E+00	 0.00000000E+00
					 0.00000000E+00	 0.00000000E+00	 0.00000000E+00	 0.00000000E+00	 0.00000000E+00	 0.00000000E+00
					 0.00000000E+00	 0.00000000E+00	 0.00000000E+00	 0.00000000E+00	 0.00000000E+00	 0.00000000E+00
					 0.00000000E+00	 0.00000000E+00	 0.00000000E+00	 0.00000000E+00	 0.00000000E+00	 0.00000000E+00
					 0.00000000E+00	 0.00000000E+00	 0.00000000E+00	 0.00000000E+00	 0.00000000E+00	 0.00000000E+00
					 0.00000000E+00	 0.00000000E+00	 0.00000000E+00	 0.00000000E+00	 0.00000000E+00	 0.00000000E+00