# vtk DataFile Version 3.0

ASCII
DATASET UNSTRUCTURED_GRID

POINTS 1200 double
	 5.55112000E-17	 1.10000000E+00	 0.00000000E+00
	 4.20952000E-01	 1.01627000E+00	 0.00000000E+00
	 4.20952000E-01	 1.01627000E+00	 8.00000000E-01
	 5.55112000E-17	 1.10000000E+00	 8.00000000E-01
	 5.55112000E-17	 1.00000000E+00	 0.00000000E+00
	 3.82683000E-01	 9.23880000E-01	 0.00000000E+00
	 3.82683000E-01	 9.23880000E-01	 8.00000000E-01
	 5.55112000E-17	 1.00000000E+00	 8.00000000E-01
	 2.14599000E-01	 1.07886000E+00	 0.00000000E+00
	 4.20952000E-01	 1.01627000E+00	 4.00000000E-01
	 2.14599000E-01	 1.07886000E+00	 8.00000000E-01
	 5.55112000E-17	 1.10000000E+00	 4.00000000E-01
	 5.55112000E-17	 1.05000000E+00	 0.00000000E+00
	 4.01818000E-01	 9.70074000E-01	 8.88178000E-16
	 4.01818000E-01	 9.70074000E-01	 8.00000000E-01
	 5.55112000E-17	 1.05000000E+00	 8.00000000E-01
	 1.95090000E-01	 9.80785000E-01	 0.00000000E+00
	 3.82683000E-01	 9.23880000E-01	 4.00000000E-01
	 1.95090000E-01	 9.80785000E-01	 8.00000000E-01
	 5.55112000E-17	 1.00000000E+00	 4.00000000E-01
	 4.20952000E-01	 1.01627000E+00	 1.60000000E+00
	 5.55112000E-17	 1.10000000E+00	 1.60000000E+00
	 3.82683000E-01	 9.23880000E-01	 1.60000000E+00
	 5.55112000E-17	 1.00000000E+00	 1.60000000E+00
	 4.20952000E-01	 1.01627000E+00	 1.20000000E+00
	 2.14599000E-01	 1.07886000E+00	 1.60000000E+00
	 5.55112000E-17	 1.10000000E+00	 1.20000000E+00
	 4.01818000E-01	 9.70074000E-01	 1.60000000E+00
	 5.55112000E-17	 1.05000000E+00	 1.60000000E+00
	 3.82683000E-01	 9.23880000E-01	 1.20000000E+00
	 1.95090000E-01	 9.80785000E-01	 1.60000000E+00
	 5.55112000E-17	 1.00000000E+00	 1.20000000E+00
	 4.20952000E-01	 1.01627000E+00	 2.40000000E+00
	 5.55112000E-17	 1.10000000E+00	 2.40000000E+00
	 3.82683000E-01	 9.23880000E-01	 2.40000000E+00
	 5.55112000E-17	 1.00000000E+00	 2.40000000E+00
	 4.20952000E-01	 1.01627000E+00	 2.00000000E+00
	 2.14599000E-01	 1.07886000E+00	 2.40000000E+00
	 5.55112000E-17	 1.10000000E+00	 2.00000000E+00
	 4.01818000E-01	 9.70074000E-01	 2.40000000E+00
	 5.55112000E-17	 1.05000000E+00	 2.40000000E+00
	 3.82683000E-01	 9.23880000E-01	 2.00000000E+00
	 1.95090000E-01	 9.80785000E-01	 2.40000000E+00
	 5.55112000E-17	 1.00000000E+00	 2.00000000E+00
	 4.20952000E-01	 1.01627000E+00	 3.20000000E+00
	 5.55112000E-17	 1.10000000E+00	 3.20000000E+00
	 3.82683000E-01	 9.23880000E-01	 3.20000000E+00
	 5.55112000E-17	 1.00000000E+00	 3.20000000E+00
	 4.20952000E-01	 1.01627000E+00	 2.80000000E+00
	 2.14599000E-01	 1.07886000E+00	 3.20000000E+00
	 5.55112000E-17	 1.10000000E+00	 2.80000000E+00
	 4.01818000E-01	 9.70074000E-01	 3.20000000E+00
	 5.55112000E-17	 1.05000000E+00	 3.20000000E+00
	 3.82683000E-01	 9.23880000E-01	 2.80000000E+00
	 1.95090000E-01	 9.80785000E-01	 3.20000000E+00
	 5.55112000E-17	 1.00000000E+00	 2.80000000E+00
	 4.20952000E-01	 1.01627000E+00	 4.00000000E+00
	 5.55112000E-17	 1.10000000E+00	 4.00000000E+00
	 3.82683000E-01	 9.23880000E-01	 4.00000000E+00
	 5.55112000E-17	 1.00000000E+00	 4.00000000E+00
	 4.20952000E-01	 1.01627000E+00	 3.60000000E+00
	 2.14599000E-01	 1.07886000E+00	 4.00000000E+00
	 5.55112000E-17	 1.10000000E+00	 3.60000000E+00
	 4.01818000E-01	 9.70074000E-01	 4.00000000E+00
	 5.55112000E-17	 1.05000000E+00	 4.00000000E+00
	 3.82683000E-01	 9.23880000E-01	 3.60000000E+00
	 1.95090000E-01	 9.80785000E-01	 4.00000000E+00
	 5.55112000E-17	 1.00000000E+00	 3.60000000E+00
	 4.20952000E-01	 1.01627000E+00	 4.80000000E+00
	 5.55112000E-17	 1.10000000E+00	 4.80000000E+00
	 3.82683000E-01	 9.23880000E-01	 4.80000000E+00
	 5.55112000E-17	 1.00000000E+00	 4.80000000E+00
	 4.20952000E-01	 1.01627000E+00	 4.40000000E+00
	 2.14599000E-01	 1.07886000E+00	 4.80000000E+00
	 5.55112000E-17	 1.10000000E+00	 4.40000000E+00
	 4.01818000E-01	 9.70074000E-01	 4.80000000E+00
	 5.55112000E-17	 1.05000000E+00	 4.80000000E+00
	 3.82683000E-01	 9.23880000E-01	 4.40000000E+00
	 1.95090000E-01	 9.80785000E-01	 4.80000000E+00
	 5.55112000E-17	 1.00000000E+00	 4.40000000E+00
	 4.20952000E-01	 1.01627000E+00	 5.60000000E+00
	 5.55112000E-17	 1.10000000E+00	 5.60000000E+00
	 3.82683000E-01	 9.23880000E-01	 5.60000000E+00
	 5.55112000E-17	 1.00000000E+00	 5.60000000E+00
	 4.20952000E-01	 1.01627000E+00	 5.20000000E+00
	 2.14599000E-01	 1.07886000E+00	 5.60000000E+00
	 5.55112000E-17	 1.10000000E+00	 5.20000000E+00
	 4.01818000E-01	 9.70074000E-01	 5.60000000E+00
	 5.55112000E-17	 1.05000000E+00	 5.60000000E+00
	 3.82683000E-01	 9.23880000E-01	 5.20000000E+00
	 1.95090000E-01	 9.80785000E-01	 5.60000000E+00
	 5.55112000E-17	 1.00000000E+00	 5.20000000E+00
	 4.20952000E-01	 1.01627000E+00	 6.40000000E+00
	 5.55112000E-17	 1.10000000E+00	 6.40000000E+00
	 3.82683000E-01	 9.23880000E-01	 6.40000000E+00
	 5.55112000E-17	 1.00000000E+00	 6.40000000E+00
	 4.20952000E-01	 1.01627000E+00	 6.00000000E+00
	 2.14599000E-01	 1.07886000E+00	 6.40000000E+00
	 5.55112000E-17	 1.10000000E+00	 6.00000000E+00
	 4.01818000E-01	 9.70074000E-01	 6.40000000E+00
	 5.55112000E-17	 1.05000000E+00	 6.40000000E+00
	 3.82683000E-01	 9.23880000E-01	 6.00000000E+00
	 1.95090000E-01	 9.80785000E-01	 6.40000000E+00
	 5.55112000E-17	 1.00000000E+00	 6.00000000E+00
	 4.20952000E-01	 1.01627000E+00	 7.20000000E+00
	 5.55112000E-17	 1.10000000E+00	 7.20000000E+00
	 3.82683000E-01	 9.23880000E-01	 7.20000000E+00
	 5.55112000E-17	 1.00000000E+00	 7.20000000E+00
	 4.20952000E-01	 1.01627000E+00	 6.80000000E+00
	 2.14599000E-01	 1.07886000E+00	 7.20000000E+00
	 5.55112000E-17	 1.10000000E+00	 6.80000000E+00
	 4.01818000E-01	 9.70074000E-01	 7.20000000E+00
	 5.55112000E-17	 1.05000000E+00	 7.20000000E+00
	 3.82683000E-01	 9.23880000E-01	 6.80000000E+00
	 1.95090000E-01	 9.80785000E-01	 7.20000000E+00
	 5.55112000E-17	 1.00000000E+00	 6.80000000E+00
	 4.20952000E-01	 1.01627000E+00	 8.00000000E+00
	 5.55112000E-17	 1.10000000E+00	 8.00000000E+00
	 3.82683000E-01	 9.23880000E-01	 8.00000000E+00
	 5.55112000E-17	 1.00000000E+00	 8.00000000E+00
	 4.20952000E-01	 1.01627000E+00	 7.60000000E+00
	 2.14599000E-01	 1.07886000E+00	 8.00000000E+00
	 5.55112000E-17	 1.10000000E+00	 7.60000000E+00
	 4.01818000E-01	 9.70074000E-01	 8.00000000E+00
	 5.55112000E-17	 1.05000000E+00	 8.00000000E+00
	 3.82683000E-01	 9.23880000E-01	 7.60000000E+00
	 1.95090000E-01	 9.80785000E-01	 8.00000000E+00
	 5.55112000E-17	 1.00000000E+00	 7.60000000E+00
	 7.77817000E-01	 7.77817000E-01	 0.00000000E+00
	 7.77817000E-01	 7.77817000E-01	 8.00000000E-01
	 7.07107000E-01	 7.07107000E-01	 0.00000000E+00
	 7.07107000E-01	 7.07107000E-01	 8.00000000E-01
	 6.11127000E-01	 9.14617000E-01	 0.00000000E+00
	 7.77817000E-01	 7.77817000E-01	 4.00000000E-01
	 6.11127000E-01	 9.14617000E-01	 8.00000000E-01
	 7.42462000E-01	 7.42462000E-01	-1.77636000E-15
	 7.42462000E-01	 7.42462000E-01	 8.00000000E-01
	 5.55570000E-01	 8.31470000E-01	 0.00000000E+00
	 7.07107000E-01	 7.07107000E-01	 4.00000000E-01
	 5.55570000E-01	 8.31470000E-01	 8.00000000E-01
	 7.77817000E-01	 7.77817000E-01	 1.60000000E+00
	 7.07107000E-01	 7.07107000E-01	 1.60000000E+00
	 7.77817000E-01	 7.77817000E-01	 1.20000000E+00
	 6.11127000E-01	 9.14617000E-01	 1.60000000E+00
	 7.42462000E-01	 7.42462000E-01	 1.60000000E+00
	 7.07107000E-01	 7.07107000E-01	 1.20000000E+00
	 5.55570000E-01	 8.31470000E-01	 1.60000000E+00
	 7.77817000E-01	 7.77817000E-01	 2.40000000E+00
	 7.07107000E-01	 7.07107000E-01	 2.40000000E+00
	 7.77817000E-01	 7.77817000E-01	 2.00000000E+00
	 6.11127000E-01	 9.14617000E-01	 2.40000000E+00
	 7.42462000E-01	 7.42462000E-01	 2.40000000E+00
	 7.07107000E-01	 7.07107000E-01	 2.00000000E+00
	 5.55570000E-01	 8.31470000E-01	 2.40000000E+00
	 7.77817000E-01	 7.77817000E-01	 3.20000000E+00
	 7.07107000E-01	 7.07107000E-01	 3.20000000E+00
	 7.77817000E-01	 7.77817000E-01	 2.80000000E+00
	 6.11127000E-01	 9.14617000E-01	 3.20000000E+00
	 7.42462000E-01	 7.42462000E-01	 3.20000000E+00
	 7.07107000E-01	 7.07107000E-01	 2.80000000E+00
	 5.55570000E-01	 8.31470000E-01	 3.20000000E+00
	 7.77817000E-01	 7.77817000E-01	 4.00000000E+00
	 7.07107000E-01	 7.07107000E-01	 4.00000000E+00
	 7.77817000E-01	 7.77817000E-01	 3.60000000E+00
	 6.11127000E-01	 9.14617000E-01	 4.00000000E+00
	 7.42462000E-01	 7.42462000E-01	 4.00000000E+00
	 7.07107000E-01	 7.07107000E-01	 3.60000000E+00
	 5.55570000E-01	 8.31470000E-01	 4.00000000E+00
	 7.77817000E-01	 7.77817000E-01	 4.80000000E+00
	 7.07107000E-01	 7.07107000E-01	 4.80000000E+00
	 7.77817000E-01	 7.77817000E-01	 4.40000000E+00
	 6.11127000E-01	 9.14617000E-01	 4.80000000E+00
	 7.42462000E-01	 7.42462000E-01	 4.80000000E+00
	 7.07107000E-01	 7.07107000E-01	 4.40000000E+00
	 5.55570000E-01	 8.31470000E-01	 4.80000000E+00
	 7.77817000E-01	 7.77817000E-01	 5.60000000E+00
	 7.07107000E-01	 7.07107000E-01	 5.60000000E+00
	 7.77817000E-01	 7.77817000E-01	 5.20000000E+00
	 6.11127000E-01	 9.14617000E-01	 5.60000000E+00
	 7.42462000E-01	 7.42462000E-01	 5.60000000E+00
	 7.07107000E-01	 7.07107000E-01	 5.20000000E+00
	 5.55570000E-01	 8.31470000E-01	 5.60000000E+00
	 7.77817000E-01	 7.77817000E-01	 6.40000000E+00
	 7.07107000E-01	 7.07107000E-01	 6.40000000E+00
	 7.77817000E-01	 7.77817000E-01	 6.00000000E+00
	 6.11127000E-01	 9.14617000E-01	 6.40000000E+00
	 7.42462000E-01	 7.42462000E-01	 6.40000000E+00
	 7.07107000E-01	 7.07107000E-01	 6.00000000E+00
	 5.55570000E-01	 8.31470000E-01	 6.40000000E+00
	 7.77817000E-01	 7.77817000E-01	 7.20000000E+00
	 7.07107000E-01	 7.07107000E-01	 7.20000000E+00
	 7.77817000E-01	 7.77817000E-01	 6.80000000E+00
	 6.11127000E-01	 9.14617000E-01	 7.20000000E+00
	 7.42462000E-01	 7.42462000E-01	 7.20000000E+00
	 7.07107000E-01	 7.07107000E-01	 6.80000000E+00
	 5.55570000E-01	 8.31470000E-01	 7.20000000E+00
	 7.77817000E-01	 7.77817000E-01	 8.00000000E+00
	 7.07107000E-01	 7.07107000E-01	 8.00000000E+00
	 7.77817000E-01	 7.77817000E-01	 7.60000000E+00
	 6.11127000E-01	 9.14617000E-01	 8.00000000E+00
	 7.42462000E-01	 7.42462000E-01	 8.00000000E+00
	 7.07107000E-01	 7.07107000E-01	 7.60000000E+00
[...]
POINT_DATA 1200
FIELD U 1
	U 3 1200 double
		 0.00000000E+00	 0.00000000E+00	 0.00000000E+00
		 0.00000000E+00	 0.00000000E+00	 0.00000000E+00
		-1.01627000E-03	 4.20952000E-04	-5.09609000E-15
		-1.10000000E-03	 8.22821000E-15	-7.84386000E-15
		 0.00000000E+00	 0.00000000E+00	 0.00000000E+00
		 0.00000000E+00	 0.00000000E+00	 0.00000000E+00
		-9.23880000E-04	 3.82683000E-04	-4.74776000E-15
		-1.00000000E-03	 8.27867000E-15	-7.10688000E-15
		 0.00000000E+00	 0.00000000E+00	 0.00000000E+00
		-5.08134000E-04	 2.10476000E-04	-2.77898000E-15
		-1.07886000E-03	 2.14599000E-04	-6.30595000E-15
		-5.50000000E-04	 3.84764000E-15	-4.33078000E-15
		 0.00000000E+00	 0.00000000E+00	 0.00000000E+00
		 0.00000000E+00	 0.00000000E+00	 0.00000000E+00
		-9.70074000E-04	 4.01818000E-04	-4.94243000E-15
		-1.05000000E-03	 8.25398000E-15	-7.47682000E-15
		 0.00000000E+00	 0.00000000E+00	 0.00000000E+00
		-4.61940000E-04	 1.91342000E-04	-1.81372000E-15
		-9.80785000E-04	 1.95090000E-04	-5.66302000E-15
		-5.00000000E-04	 3.34170000E-15	-3.01411000E-15
		-2.03253000E-03	 8.41904000E-04	-1.05568000E-14
		-2.20000000E-03	 1.80143000E-14	-1.52984000E-14
		-1.84776000E-03	 7.65367000E-04	-9.50347000E-15
		-2.00000000E-03	 1.80237000E-14	-1.36722000E-14
		-1.52440000E-03	 6.31428000E-04	-7.88966000E-15
		-2.15773000E-03	 4.29199000E-04	-1.28715000E-14
		-1.65000000E-03	 1.24375000E-14	-1.16771000E-14
		-1.94015000E-03	 8.03635000E-04	-1.00447000E-14
		-2.10000000E-03	 1.80116000E-14	-1.44855000E-14
		-1.38582000E-03	 5.74025000E-04	-7.16460000E-15
		-1.96157000E-03	 3.90181000E-04	-1.14813000E-14
		-1.50000000E-03	 1.20367000E-14	-1.04449000E-14
		-3.04880000E-03	 1.26286000E-03	-1.52810000E-14
		-3.30000000E-03	 3.32460000E-14	-2.18163000E-14
		-2.77164000E-03	 1.14805000E-03	-1.38645000E-14
		-3.00000000E-03	 3.32367000E-14	-1.96100000E-14
		-2.54067000E-03	 1.05238000E-03	-1.29126000E-14
		-3.23659000E-03	 6.43798000E-04	-1.86131000E-14
		-2.75000000E-03	 2.51963000E-14	-1.86245000E-14
		-2.91022000E-03	 1.20545000E-03	-1.45890000E-14
		-3.15000000E-03	 3.32346000E-14	-2.07137000E-14
		-2.30970000E-03	 9.56709000E-04	-1.18064000E-14
		-2.94236000E-03	 5.85271000E-04	-1.67153000E-14
		-2.50000000E-03	 2.48633000E-14	-1.67283000E-14
		-4.06507000E-03	 1.68381000E-03	-1.94424000E-14
		-4.40000000E-03	 5.28467000E-14	-2.74722000E-14
		-3.69552000E-03	 1.53073000E-03	-1.76480000E-14
		-4.00000000E-03	 5.28037000E-14	-2.47852000E-14
		-3.55694000E-03	 1.47333000E-03	-1.74097000E-14
		-4.31546000E-03	 8.58397000E-04	-2.36196000E-14
		-3.85000000E-03	 4.26939000E-14	-2.47334000E-14
		-3.88029000E-03	 1.60727000E-03	-1.85613000E-14
		-4.20000000E-03	 5.28159000E-14	-2.61291000E-14
		-3.23358000E-03	 1.33939000E-03	-1.58394000E-14
		-3.92314000E-03	 7.80361000E-04	-2.12843000E-14
		-3.50000000E-03	 4.24078000E-14	-2.22769000E-14
		-5.08134000E-03	 2.10476000E-03	-2.30604000E-14
		-5.50000000E-03	 7.61505000E-14	-3.23272000E-14
		-4.61940000E-03	 1.91342000E-03	-2.09423000E-14
		-5.00000000E-03	 7.61205000E-14	-2.92544000E-14
		-4.57320000E-03	 1.89428000E-03	-2.12800000E-14
		-5.39432000E-03	 1.07300000E-03	-2.79628000E-14
		-4.95000000E-03	 6.42152000E-14	-2.99886000E-14
		-4.85037000E-03	 2.00909000E-03	-2.20170000E-14
		-5.25000000E-03	 7.61307000E-14	-3.07911000E-14
		-4.15746000E-03	 1.72208000E-03	-1.93873000E-14
		-4.90393000E-03	 9.75452000E-04	-2.52445000E-14
		-4.50000000E-03	 6.39779000E-14	-2.70664000E-14
		-6.09760000E-03	 2.52571000E-03	-2.61492000E-14
		-6.60000000E-03	 1.02162000E-13	-3.64946000E-14
		-5.54328000E-03	 2.29610000E-03	-2.36850000E-14
		-6.00000000E-03	 1.02099000E-13	-3.30140000E-14
		-5.58947000E-03	 2.31523000E-03	-2.47216000E-14
		-6.47318000E-03	 1.28760000E-03	-3.16543000E-14
		-6.05000000E-03	 8.88399000E-14	-3.44663000E-14
		-5.82044000E-03	 2.41091000E-03	-2.49332000E-14
		-6.30000000E-03	 1.02119000E-13	-3.47547000E-14
		-5.08134000E-03	 2.10476000E-03	-2.23832000E-14
		-5.88471000E-03	 1.17054000E-03	-2.85698000E-14
		-5.50000000E-03	 8.86442000E-14	-3.12190000E-14
		-7.11387000E-03	 2.94666000E-03	-2.86569000E-14
		-7.70000000E-03	 1.31592000E-13	-4.00839000E-14
		-6.46716000E-03	 2.67878000E-03	-2.59866000E-14
		-7.00000000E-03	 1.31575000E-13	-3.62572000E-14
		-6.60574000E-03	 2.73619000E-03	-2.75525000E-14
		-7.55205000E-03	 1.50220000E-03	-3.47997000E-14
		-7.15000000E-03	 1.16547000E-13	-3.83563000E-14
		-6.79051000E-03	 2.81272000E-03	-2.73378000E-14
		-7.35000000E-03	 1.31558000E-13	-3.81710000E-14
		-6.00522000E-03	 2.48744000E-03	-2.47795000E-14
		-6.86550000E-03	 1.36563000E-03	-3.14015000E-14
		-6.50000000E-03	 1.16407000E-13	-3.46739000E-14
		-8.13014000E-03	 3.36761000E-03	-3.06248000E-14
		-8.80000000E-03	 1.65605000E-13	-4.30864000E-14
		-7.39104000E-03	 3.06147000E-03	-2.77388000E-14
		-8.00000000E-03	 1.65542000E-13	-3.87592000E-14
		-7.62201000E-03	 3.15714000E-03	-2.96939000E-14
		-8.63091000E-03	 1.71679000E-03	-3.73528000E-14
		-8.25000000E-03	 1.48098000E-13	-4.18282000E-14
		-7.76059000E-03	 3.21454000E-03	-2.91977000E-14
		-8.40000000E-03	 1.65578000E-13	-4.09228000E-14
		-6.92910000E-03	 2.87013000E-03	-2.69474000E-14
		-7.84628000E-03	 1.56072000E-03	-3.35924000E-14
		-7.50000000E-03	 1.47973000E-13	-3.74893000E-14
		-9.14641000E-03	 3.78857000E-03	-3.20493000E-14
		-9.90000000E-03	 2.01318000E-13	-4.52765000E-14
		-8.31492000E-03	 3.44415000E-03	-2.88359000E-14
		-9.00000000E-03	 2.01383000E-13	-4.02760000E-14
		-8.63827000E-03	 3.57809000E-03	-3.14462000E-14
		-9.70977000E-03	 1.93139000E-03	-3.91738000E-14
		-9.35000000E-03	 1.82792000E-13	-4.41403000E-14
		-8.73066000E-03	 3.61636000E-03	-3.04586000E-14
		-9.45000000E-03	 2.01345000E-13	-4.27768000E-14
		-7.85298000E-03	 3.25281000E-03	-2.84113000E-14
		-8.82707000E-03	 1.75581000E-03	-3.49308000E-14
		-8.50000000E-03	 1.82690000E-13	-3.97826000E-14
		-1.01627000E-02	 4.20952000E-03	-3.15032000E-14
		-1.10000000E-02	 2.36819000E-13	-4.52044000E-14
		-9.23880000E-03	 3.82683000E-03	-3.00982000E-14
		-1.00000000E-02	 2.36709000E-13	-4.14835000E-14
		-9.65454000E-03	 3.99904000E-03	-3.20873000E-14
		-1.07886000E-02	 2.14599000E-03	-3.88793000E-14
		-1.04500000E-02	 2.20425000E-13	-4.55777000E-14
		-9.70074000E-03	 4.01818000E-03	-3.08147000E-14
		-1.05000000E-02	 2.36789000E-13	-4.33435000E-14
		-8.77686000E-03	 3.63549000E-03	-2.96785000E-14
		-9.80785000E-03	 1.95090000E-03	-3.61434000E-14
		-9.50000000E-03	 2.20345000E-13	-4.10954000E-14
		 0.00000000E+00	 0.00000000E+00	 0.00000000E+00
		-7.77817000E-04	 7.77817000E-04	-3.09836000E-15
		 0.00000000E+00	 0.00000000E+00	 0.00000000E+00
		-7.07107000E-04	 7.07107000E-04	-2.72131000E-15
		 0.00000000E+00	 0.00000000E+00	 0.00000000E+00
		-3.88909000E-04	 3.88909000E-04	-1.77272000E-15
		-9.14617000E-04	 6.11127000E-04	-4.73040000E-15
		 0.00000000E+00	 0.00000000E+00	 0.00000000E+00
		-7.42462000E-04	 7.42462000E-04	-2.91059000E-15
		 0.00000000E+00	 0.00000000E+00	 0.00000000E+00
		-3.53553000E-04	 3.53553000E-04	-1.12897000E-15
		-8.31470000E-04	 5.55570000E-04	-4.06068000E-15
		-1.55563000E-03	 1.55563000E-03	-5.84637000E-15
		-1.41421000E-03	 1.41421000E-03	-5.15020000E-15
		-1.16673000E-03	 1.16673000E-03	-4.57028000E-15
		-1.82923000E-03	 1.22225000E-03	-8.76931000E-15
		-1.48492000E-03	 1.48492000E-03	-5.49836000E-15
		-1.06066000E-03	 1.06066000E-03	-3.93325000E-15
		-1.66294000E-03	 1.11114000E-03	-7.66719000E-15
		-2.33345000E-03	 2.33345000E-03	-8.14691000E-15
		-2.12132000E-03	 2.12132000E-03	-7.27724000E-15
		-1.94454000E-03	 1.94454000E-03	-7.03483000E-15
		-2.74385000E-03	 1.83338000E-03	-1.23614000E-14
		-2.22739000E-03	 2.22739000E-03	-7.71213000E-15
		-1.76777000E-03	 1.76777000E-03	-6.26568000E-15
		-2.49441000E-03	 1.66671000E-03	-1.09774000E-14
		-3.11127000E-03	 3.11127000E-03	-1.01680000E-14
		-2.82843000E-03	 2.82843000E-03	-9.10893000E-15
		-2.72236000E-03	 2.72236000E-03	-9.12077000E-15
		-3.65847000E-03	 2.44451000E-03	-1.55025000E-14
		-2.96985000E-03	 2.96985000E-03	-9.63868000E-15
		-2.47487000E-03	 2.47487000E-03	-8.28509000E-15
		-3.32588000E-03	 2.22228000E-03	-1.38389000E-14
		-3.88909000E-03	 3.88909000E-03	-1.19094000E-14
		-3.53553000E-03	 3.53553000E-03	-1.06536000E-14
		-3.50018000E-03	 3.50018000E-03	-1.11073000E-14
		-4.57308000E-03	 3.05564000E-03	-1.82629000E-14
		-3.71231000E-03	 3.71231000E-03	-1.12814000E-14
		-3.18198000E-03	 3.18198000E-03	-9.87429000E-15
		-4.15735000E-03	 2.77785000E-03	-1.63138000E-14
		-4.66690000E-03	 4.66690000E-03	-1.33281000E-14
		-4.24264000E-03	 4.24264000E-03	-1.19103000E-14
		-4.27800000E-03	 4.27800000E-03	-1.24648000E-14
		-5.48770000E-03	 3.66676000E-03	-2.05943000E-14
		-4.45477000E-03	 4.45477000E-03	-1.26195000E-14
		-3.88909000E-03	 3.88909000E-03	-1.14902000E-14
		-4.98882000E-03	 3.33342000E-03	-1.83515000E-14
		-5.44472000E-03	 5.44472000E-03	-1.43174000E-14
		-4.94975000E-03	 4.94975000E-03	-1.29416000E-14
		-5.05581000E-03	 5.05581000E-03	-1.40459000E-14
		-6.40232000E-03	 4.27789000E-03	-2.23205000E-14
		-5.19723000E-03	 5.19723000E-03	-1.36301000E-14
		-4.59619000E-03	 4.59619000E-03	-1.22276000E-14
		-5.82029000E-03	 3.88899000E-03	-2.00459000E-14
		-6.22254000E-03	 6.22254000E-03	-1.50426000E-14
		-5.65685000E-03	 5.65685000E-03	-1.35333000E-14
		-5.83363000E-03	 5.83363000E-03	-1.45989000E-14
		-7.31693000E-03	 4.88902000E-03	-2.37397000E-14
		-5.93970000E-03	 5.93970000E-03	-1.42873000E-14
		-5.30330000E-03	 5.30330000E-03	-1.33871000E-14
		-6.65176000E-03	 4.44456000E-03	-2.12446000E-14
		-7.00036000E-03	 7.00036000E-03	-1.56665000E-14
		-6.36396000E-03	 6.36396000E-03	-1.40802000E-14
		-6.61145000E-03	 6.61145000E-03	-1.50942000E-14
		-8.23155000E-03	 5.50015000E-03	-2.47093000E-14
		-6.68216000E-03	 6.68216000E-03	-1.48761000E-14
		-6.01041000E-03	 6.01041000E-03	-1.40019000E-14
		-7.48323000E-03	 5.00013000E-03	-2.20377000E-14
		-7.77817000E-03	 7.77817000E-03	-1.41480000E-14
		-7.07107000E-03	 7.07107000E-03	-1.54636000E-14
		-7.38927000E-03	 7.38927000E-03	-1.55781000E-14
		-9.14617000E-03	 6.11127000E-03	-2.36489000E-14
		-7.42462000E-03	 7.42462000E-03	-1.47959000E-14
		-6.71751000E-03	 6.71751000E-03	-1.47558000E-14
		-8.31470000E-03	 5.55570000E-03	-2.35613000E-14
		 0.00000000E+00	 0.00000000E+00	 0.00000000E+00
		-4.20952000E-04	 1.01627000E-03	-5.56925000E-16
		 0.00000000E+00	 0.00000000E+00	 0.00000000E+00
		-3.82683000E-04	 9.23880000E-04	-2.34161000E-16
		 0.00000000E+00	 0.00000000E+00	 0.00000000E+00
		-2.10476000E-04	 5.08134000E-04	-4.09876000E-16
		-6.11127000E-04	 9.14617000E-04	-1.34765000E-15
		 0.00000000E+00	 0.00000000E+00	 0.00000000E+00
		-4.01818000E-04	 9.70074000E-04	-3.76350000E-16
		 0.00000000E+00	 0.00000000E+00	 0.00000000E+00
		-1.91342000E-04	 4.61940000E-04	-2.74825000E-16
		-5.55570000E-04	 8.31470000E-04	-1.25872000E-15
		-8.41904000E-04	 2.03253000E-03	-2.08196000E-16
		-7.65367000E-04	 1.84776000E-03	 5.23534000E-17
		-6.31428000E-04	 1.52440000E-03	-4.36422000E-16
		-1.22225000E-03	 1.82923000E-03	-2.70399000E-15
		-8.03635000E-04	 1.94015000E-03	-6.35105000E-17
		-5.74025000E-04	 1.38582000E-03	-7.98070000E-17
		-1.11114000E-03	 1.66294000E-03	-2.41273000E-15
		-1.26286000E-03	 3.04880000E-03	 2.10254000E-16
		-1.14805000E-03	 2.77164000E-03	 4.41152000E-16
		-1.05238000E-03	 2.54067000E-03	 6.49437000E-17
		-1.83338000E-03	 2.74385000E-03	-3.62605000E-15
		-1.20545000E-03	 2.91022000E-03	 3.41716000E-16
		-9.56709000E-04	 2.30970000E-03	 1.89358000E-16
		-1.66671000E-03	 2.49441000E-03	-3.29251000E-15
		-1.68381000E-03	 4.06507000E-03	 6.96600000E-16
		-1.53073000E-03	 3.69552000E-03	 8.17055000E-16
		-1.47333000E-03	 3.55694000E-03	 4.64786000E-16
		-2.44451000E-03	 3.65847000E-03	-4.42637000E-15
		-1.60727000E-03	 3.88029000E-03	 7.72041000E-16
		-1.33939000E-03	 3.23358000E-03	 6.06211000E-16
		-2.22228000E-03	 3.32588000E-03	-4.03184000E-15
		-2.10476000E-03	 5.08134000E-03	 1.20344000E-15
		-1.91342000E-03	 4.61940000E-03	 1.21335000E-15
		-1.89428000E-03	 4.57320000E-03	 8.85071000E-16
		-3.05564000E-03	 4.57308000E-03	-5.03266000E-15
		-2.00909000E-03	 4.85037000E-03	 1.22423000E-15
		-1.72208000E-03	 4.15746000E-03	 1.10636000E-15
		-2.77785000E-03	 4.15735000E-03	-4.61605000E-15
		-2.52571000E-03	 6.09760000E-03	 1.71015000E-15
		-2.29610000E-03	 5.54328000E-03	 1.68534000E-15
		-2.31523000E-03	 5.58947000E-03	 1.47283000E-15
		-3.66676000E-03	 5.48770000E-03	-5.49165000E-15
		-2.41091000E-03	 5.82044000E-03	 1.71317000E-15
		-2.10476000E-03	 5.08134000E-03	 1.36219000E-15
		-3.33342000E-03	 4.98882000E-03	-5.01541000E-15
		-2.94666000E-03	 7.11387000E-03	 2.24190000E-15
		-2.67878000E-03	 6.46716000E-03	 2.04399000E-15
		-2.73619000E-03	 6.60574000E-03	 1.91478000E-15
		-4.27789000E-03	 6.40232000E-03	-5.74472000E-15
		-2.81272000E-03	 6.79051000E-03	 2.15822000E-15
		-2.48744000E-03	 6.00522000E-03	 1.96880000E-15
		-3.88899000E-03	 5.82029000E-03	-5.33314000E-15
		-3.36761000E-03	 8.13014000E-03	 2.79464000E-15
		-3.06147000E-03	 7.39104000E-03	 2.42689000E-15
		-3.15714000E-03	 7.62201000E-03	 2.35396000E-15
		-4.88902000E-03	 7.31693000E-03	-5.72751000E-15
		-3.21454000E-03	 7.76059000E-03	 2.62647000E-15
		-2.87013000E-03	 6.92910000E-03	 2.33700000E-15
		-4.44456000E-03	 6.65176000E-03	-5.45200000E-15
		-3.78857000E-03	 9.14641000E-03	 3.09502000E-15
		-3.44415000E-03	 8.31492000E-03	 2.70109000E-15
		-3.57809000E-03	 8.63827000E-03	 3.20566000E-15
		-5.50015000E-03	 8.23155000E-03	-5.87842000E-15
		-3.61636000E-03	 8.73066000E-03	 2.91465000E-15
		-3.25281000E-03	 7.85298000E-03	 2.34576000E-15
		-5.00013000E-03	 7.48323000E-03	-5.56702000E-15
		-4.20952000E-03	 1.01627000E-02	 2.82673000E-15
		-3.82683000E-03	 9.23880000E-03	 2.69109000E-15
		-3.99904000E-03	 9.65454000E-03	 2.92962000E-15
		-6.11127000E-03	 9.14617000E-03	-5.41003000E-15
		-4.01818000E-03	 9.70074000E-03	 2.77258000E-15
		-3.63549000E-03	 8.77686000E-03	 2.74216000E-15
		-5.55570000E-03	 8.31470000E-03	-6.32551000E-15
		 0.00000000E+00	 0.00000000E+00	 0.00000000E+00
		-3.87684000E-15	 1.10000000E-03	 3.72075000E-15
		 0.00000000E+00	 0.00000000E+00	 0.00000000E+00
		-3.90097000E-15	 1.00000000E-03	 3.36950000E-15
		 0.00000000E+00	 0.00000000E+00	 0.00000000E+00
		-1.80934000E-15	 5.50000000E-04	 2.04733000E-15
		-2.14599000E-04	 1.07886000E-03	 1.31202000E-15
		 0.00000000E+00	 0.00000000E+00	 0.00000000E+00
		-3.88926000E-15	 1.05000000E-03	 3.54574000E-15
		 0.00000000E+00	 0.00000000E+00	 0.00000000E+00
		-1.57486000E-15	 5.00000000E-04	 1.42664000E-15
		-1.95090000E-04	 9.80785000E-04	 1.21944000E-15
		-8.40608000E-15	 2.20000000E-03	 7.24385000E-15
		-8.37134000E-15	 2.00000000E-03	 6.49030000E-15
		-5.83549000E-15	 1.65000000E-03	 5.53047000E-15
		-4.29199000E-04	 2.15773000E-03	 3.28977000E-15
		-8.38874000E-15	 2.10000000E-03	 6.86710000E-15
		-5.64198000E-15	 1.50000000E-03	 4.96594000E-15
		-3.90181000E-04	 1.96157000E-03	 3.00011000E-15
		-1.53469000E-14	 3.30000000E-03	 1.03216000E-14
		-1.53145000E-14	 3.00000000E-03	 9.33866000E-15
		-1.17246000E-14	 2.75000000E-03	 8.80475000E-15
		-6.43798000E-04	 3.23659000E-03	 5.06862000E-15
		-1.53275000E-14	 3.15000000E-03	 9.83043000E-15
		-1.15610000E-14	 2.50000000E-03	 7.93256000E-15
		-5.85271000E-04	 2.94236000E-03	 4.63251000E-15
		-2.39954000E-14	 4.40000000E-03	 1.31566000E-14
		-2.39690000E-14	 4.00000000E-03	 1.19082000E-14
		-1.94568000E-14	 3.85000000E-03	 1.17346000E-14
		-8.58397000E-04	 4.31546000E-03	 6.76775000E-15
		-2.39755000E-14	 4.20000000E-03	 1.25325000E-14
		-1.93426000E-14	 3.50000000E-03	 1.06707000E-14
		-7.80361000E-04	 3.92314000E-03	 6.14306000E-15
		-3.49318000E-14	 5.50000000E-03	 1.57163000E-14
		-3.48734000E-14	 5.00000000E-03	 1.41751000E-14
		-2.92253000E-14	 4.95000000E-03	 1.44669000E-14
		-1.07300000E-03	 5.39432000E-03	 8.33042000E-15
		-3.48939000E-14	 5.25000000E-03	 1.49460000E-14
		-2.91353000E-14	 4.50000000E-03	 1.31054000E-14
		-9.75452000E-04	 4.90393000E-03	 7.50717000E-15
		-4.83855000E-14	 6.60000000E-03	 1.79844000E-14
		-4.83476000E-14	 6.00000000E-03	 1.62163000E-14
		-4.14602000E-14	 6.05000000E-03	 1.68774000E-14
		-1.28760000E-03	 6.47318000E-03	 9.78286000E-15
		-4.83602000E-14	 6.30000000E-03	 1.71004000E-14
		-4.13910000E-14	 5.50000000E-03	 1.51911000E-14
		-1.17054000E-03	 5.88471000E-03	 8.79066000E-15
		-6.30611000E-14	 7.70000000E-03	 1.97899000E-14
		-6.29706000E-14	 7.00000000E-03	 1.79117000E-14
		-5.56470000E-14	 7.15000000E-03	 1.89687000E-14
		-1.50220000E-03	 7.55205000E-03	 1.09755000E-14
		-6.30094000E-14	 7.35000000E-03	 1.88511000E-14
		-5.55899000E-14	 6.50000000E-03	 1.71179000E-14
		-1.36563000E-03	 6.86550000E-03	 9.84604000E-15
		-7.95270000E-14	 8.80000000E-03	 2.11806000E-14
		-7.94157000E-14	 8.00000000E-03	 1.91866000E-14
		-7.11844000E-14	 8.25000000E-03	 2.06219000E-14
		-1.71679000E-03	 8.63091000E-03	 1.19803000E-14
		-7.94729000E-14	 8.40000000E-03	 2.01835000E-14
		-7.11354000E-14	 7.50000000E-03	 1.85188000E-14
		-1.56072000E-03	 7.84628000E-03	 1.07132000E-14
		-9.60652000E-14	 9.90000000E-03	 2.23562000E-14
		-9.59933000E-14	 9.00000000E-03	 2.00229000E-14
		-8.73105000E-14	 9.35000000E-03	 2.18303000E-14
		-1.93139000E-03	 9.70977000E-03	 1.27058000E-14
		-9.59941000E-14	 9.45000000E-03	 2.11906000E-14
		-8.73175000E-14	 8.50000000E-03	 1.97959000E-14
		-1.75581000E-03	 8.82707000E-03	 1.12430000E-14
		-1.16175000E-13	 1.10000000E-02	 2.32938000E-14
		-1.16003000E-13	 1.00000000E-02	 2.05724000E-14
		-1.05620000E-13	 1.04500000E-02	 2.28562000E-14
		-2.14599000E-03	 1.07886000E-02	 1.30071000E-14
		-1.16079000E-13	 1.05000000E-02	 2.19318000E-14
		-1.05653000E-13	 9.50000000E-03	 2.03765000E-14
		-1.95090000E-03	 9.80785000E-03	 1.16281000E-14
		 0.00000000E+00	 0.00000000E+00	 0.00000000E+00
		 0.00000000E+00	 0.00000000E+00	 0.00000000E+00
		-4.20952000E-04	-1.01627000E-03	-5.80878000E-15
		-4.50255000E-15	-1.10000000E-03	-3.95352000E-15
		 0.00000000E+00	 0.00000000E+00	 0.00000000E+00
		 0.00000000E+00	 0.00000000E+00	 0.00000000E+00
		-3.82683000E-04	-9.23880000E-04	-5.42118000E-15
		-4.54527000E-15	-1.00000000E-03	-3.51981000E-15
		 0.00000000E+00	 0.00000000E+00	 0.00000000E+00
		-2.10476000E-04	-5.08134000E-04	-3.13350000E-15
		-2.14599000E-04	-1.07886000E-03	-4.70090000E-15
		-2.06393000E-15	-5.50000000E-04	-2.20095000E-15
		 0.00000000E+00	 0.00000000E+00	 0.00000000E+00
		 0.00000000E+00	 0.00000000E+00	 0.00000000E+00
		-4.01818000E-04	-9.70074000E-04	-5.63546000E-15
		-4.52426000E-15	-1.05000000E-03	-3.73747000E-15
		 0.00000000E+00	 0.00000000E+00	 0.00000000E+00
		-1.91342000E-04	-4.61940000E-04	-2.10194000E-15
		-1.95090000E-04	-9.80785000E-04	-4.18643000E-15
		-1.80783000E-15	-5.00000000E-04	-1.48724000E-15
		-8.41904000E-04	-2.03253000E-03	-1.20803000E-14
		-9.76369000E-15	-2.20000000E-03	-7.62172000E-15
		-7.65367000E-04	-1.84776000E-03	-1.08604000E-14
		-9.80328000E-15	-2.00000000E-03	-6.77311000E-15
		-6.31428000E-04	-1.52440000E-03	-9.02731000E-15
		-4.29199000E-04	-2.15773000E-03	-9.76382000E-15
		-6.84829000E-15	-1.65000000E-03	-5.85369000E-15
		-8.03635000E-04	-1.94015000E-03	-1.14849000E-14
		-9.77986000E-15	-2.10000000E-03	-7.19741000E-15
		-5.74025000E-04	-1.38582000E-03	-8.14267000E-15
		-3.90181000E-04	-1.96157000E-03	-8.66915000E-15
		-6.64267000E-15	-1.50000000E-03	-5.18979000E-15
		-1.26286000E-03	-3.04880000E-03	-1.76099000E-14
		-1.75191000E-14	-3.30000000E-03	-1.09241000E-14
		-1.14805000E-03	-2.77164000E-03	-1.58841000E-14
		-1.75598000E-14	-3.00000000E-03	-9.75187000E-15
		-1.05238000E-03	-2.54067000E-03	-1.48635000E-14
		-6.43798000E-04	-3.23659000E-03	-1.42946000E-14
		-1.34219000E-14	-2.75000000E-03	-9.26832000E-15
		-1.20545000E-03	-2.91022000E-03	-1.67633000E-14
		-1.75373000E-14	-3.15000000E-03	-1.03381000E-14
		-9.56709000E-04	-2.30970000E-03	-1.34365000E-14
		-5.85271000E-04	-2.94236000E-03	-1.27406000E-14
		-1.32411000E-14	-2.50000000E-03	-8.32460000E-15
		-1.68381000E-03	-4.06507000E-03	-2.25089000E-14
		-2.84610000E-14	-4.40000000E-03	-1.38746000E-14