    1C
    1UUSER                                                              
    1UDATE              25.january.2020                                 
    1UTIME              14:49:32                                        
    1UHOST                                                              
    1UPGM               CalculiX                                        
    1UVERSION           Version 2.16                             
    1UCOMPILETIME       Tue  7 Jan 19:57:43 CET 2020                    
    1UDIR                                                               
    1UDBN                                                               
    1UMAT    1EL                                                        
    1UMAT    2SPRING                                                    
    2C                            10                                     1
 -1         1 0.00000E+00 0.00000E+00 0.00000E+00
 -1         2 1.00000E+00 0.00000E+00 0.00000E+00
 -1         3 1.00000E+00-1.00000E-01 1.00000E-01
 -1         4 1.20000E+00-1.00000E-01 1.00000E-01
 -1         5 1.20000E+00-1.00000E-01-1.00000E-01
 -1         6 1.00000E+00-1.00000E-01-1.00000E-01
 -1         7 1.00000E+00 1.00000E-01 1.00000E-01
 -1         8 1.20000E+00 1.00000E-01 1.00000E-01
 -1         9 1.20000E+00 1.00000E-01-1.00000E-01
 -1        10 1.00000E+00 1.00000E-01-1.00000E-01
 -3
    3C                             2                                     1
 -1         1   11    0    2
 -2         1         2
 -1         2    1    0    1
 -2         3         4         5         6         7         8         9        10
 -3
 9999
