# vtk DataFile Version 3.0

ASCII
DATASET UNSTRUCTURED_GRID

POINTS 8 double
	 0.00000000E+00	 0.00000000E+00	 0.00000000E+00
	 1.00000000E+00	 0.00000000E+00	 0.00000000E+00
	 1.00000000E+00	 1.00000000E+00	 0.00000000E+00
	 0.00000000E+00	 1.00000000E+00	 0.00000000E+00
	 0.00000000E+00	 0.00000000E+00	 1.00000000E+00
	 1.00000000E+00	 0.00000000E+00	 1.00000000E+00
	 1.00000000E+00	 1.00000000E+00	 1.00000000E+00
	 0.00000000E+00	 1.00000000E+00	 1.00000000E+00

CELLS 1 9
	8 0 1 2 3 4 5 6 7 

CELL_TYPES 1
	12

POINT_DATA 8
FIELD U 1
	U 3 8 double
		 5.00000000E-01	 2.03717000E-15	 7.34716000E-16
		 5.00000000E-01	 2.03717000E-15	 7.34716000E-16
		 5.00000000E-01	 2.03717000E-15	 7.34716000E-16
		 5.00000000E-01	 2.03717000E-15	 7.34716000E-16
		 5.00000000E-01	 2.03717000E-15	 7.34716000E-16
		 5.00000000E-01	 2.03717000E-15	 7.34716000E-16
		 5.00000000E-01	 2.03717000E-15	 7.34716000E-16
		 5.00000000E-01	 2.03717000E-15	 7.34716000E-16
FIELD VELO 1
	VELO 3 8 double
		 1.00000000E+00	 4.08568000E-15	 1.47353000E-15
		 1.00000000E+00	 4.08568000E-15	 1.47353000E-15
		 1.00000000E+00	 4.08568000E-15	 1.47353000E-15
		 1.00000000E+00	 4.08568000E-15	 1.47353000E-15
		 1.00000000E+00	 4.08568000E-15	 1.47353000E-15
		 1.00000000E+00	 4.08568000E-15	 1.47353000E-15
		 1.00000000E+00	 4.08568000E-15	 1.47353000E-15
		 1.00000000E+00	 4.08568000E-15	 1.47353000E-15
