# vtk DataFile Version 3.0

ASCII
DATASET UNSTRUCTURED_GRID

POINTS 286 double
	 0.00000000E+00	 1.00000000E+00	 1.00000000E-01
	 0.00000000E+00	 1.00000000E+00	 0.00000000E+00
	 5.00000000E-01	 1.00000000E+00	 0.00000000E+00
	 5.00000000E-01	 1.00000000E+00	 1.00000000E-01
	 0.00000000E+00	 9.00000000E-01	 1.00000000E-01
	 0.00000000E+00	 9.00000000E-01	 0.00000000E+00
	 5.00000000E-01	 9.36818000E-01	-6.93889000E-18
	 5.00000000E-01	 9.36818000E-01	 1.00000000E-01
	 1.00000000E+00	 1.00000000E+00	 0.00000000E+00
	 1.00000000E+00	 1.00000000E+00	 1.00000000E-01
	 1.00000000E+00	 9.73636000E-01	 0.00000000E+00
	 1.00000000E+00	 9.73636000E-01	 1.00000000E-01
	 0.00000000E+00	 8.00000000E-01	 1.00000000E-01
	 0.00000000E+00	 8.00000000E-01	 0.00000000E+00
	 5.00000000E-01	 8.69991000E-01	 6.93889000E-18
	 5.00000000E-01	 8.69991000E-01	 1.00000000E-01
	 1.00000000E+00	 9.39983000E-01	 0.00000000E+00
	 1.00000000E+00	 9.39983000E-01	 1.00000000E-01
	 0.00000000E+00	 7.00000000E-01	 1.00000000E-01
	 0.00000000E+00	 7.00000000E-01	 0.00000000E+00
	 5.00000000E-01	 7.98512000E-01	 6.93889000E-18
	 5.00000000E-01	 7.98512000E-01	 1.00000000E-01
	 1.00000000E+00	 8.97024000E-01	 0.00000000E+00
	 1.00000000E+00	 8.97024000E-01	 1.00000000E-01
	 0.00000000E+00	 6.00000000E-01	 1.00000000E-01
	 0.00000000E+00	 6.00000000E-01	 0.00000000E+00
	 5.00000000E-01	 7.21093000E-01	-1.38778000E-17
	 5.00000000E-01	 7.21093000E-01	 1.00000000E-01
	 1.00000000E+00	 8.42185000E-01	 0.00000000E+00
	 1.00000000E+00	 8.42185000E-01	 1.00000000E-01
	 0.00000000E+00	 5.00000000E-01	 1.00000000E-01
	 0.00000000E+00	 5.00000000E-01	 0.00000000E+00
	 5.00000000E-01	 6.36092000E-01	 6.93889000E-18
	 5.00000000E-01	 6.36092000E-01	 1.00000000E-01
	 1.00000000E+00	 7.72183000E-01	 0.00000000E+00
	 1.00000000E+00	 7.72183000E-01	 1.00000000E-01
	 0.00000000E+00	 4.00000000E-01	 1.00000000E-01
	 0.00000000E+00	 4.00000000E-01	 0.00000000E+00
	 5.00000000E-01	 5.41412000E-01	 6.93889000E-18
	 5.00000000E-01	 5.41412000E-01	 1.00000000E-01
	 1.00000000E+00	 6.82824000E-01	 0.00000000E+00
	 1.00000000E+00	 6.82824000E-01	 1.00000000E-01
	 0.00000000E+00	 3.00000000E-01	 1.00000000E-01
	 0.00000000E+00	 3.00000000E-01	 0.00000000E+00
	 5.00000000E-01	 4.34378000E-01	 6.93889000E-18
	 5.00000000E-01	 4.34378000E-01	 1.00000000E-01
	 1.00000000E+00	 5.68756000E-01	 0.00000000E+00
	 1.00000000E+00	 5.68756000E-01	 1.00000000E-01
	 0.00000000E+00	 2.00000000E-01	 1.00000000E-01
	 0.00000000E+00	 2.00000000E-01	 0.00000000E+00
	 5.00000000E-01	 3.11573000E-01	 1.38778000E-17
	 5.00000000E-01	 3.11573000E-01	 1.00000000E-01
	 1.00000000E+00	 4.23146000E-01	 0.00000000E+00
	 1.00000000E+00	 4.23146000E-01	 1.00000000E-01
	 0.00000000E+00	 1.00000000E-01	 1.00000000E-01
	 0.00000000E+00	 1.00000000E-01	 0.00000000E+00
	 5.00000000E-01	 1.68636000E-01	-6.93889000E-18
	 5.00000000E-01	 1.68636000E-01	 1.00000000E-01
	 1.00000000E+00	 2.37272000E-01	 0.00000000E+00
	 1.00000000E+00	 2.37272000E-01	 1.00000000E-01
	 0.00000000E+00	 0.00000000E+00	 1.00000000E-01
	 0.00000000E+00	 0.00000000E+00	 0.00000000E+00
	 5.00000000E-01	 0.00000000E+00	 0.00000000E+00
	 5.00000000E-01	 0.00000000E+00	 1.00000000E-01
	 1.00000000E+00	 0.00000000E+00	 0.00000000E+00
	 1.00000000E+00	 0.00000000E+00	 1.00000000E-01
	 1.50000000E+00	 1.00000000E+00	 0.00000000E+00
	 1.50000000E+00	 1.00000000E+00	 1.00000000E-01
	 1.50000000E+00	 8.68182000E-01	 0.00000000E+00
	 1.50000000E+00	 8.68182000E-01	 1.00000000E-01
	 2.00000000E+00	 1.00000000E+00	 0.00000000E+00
	 2.00000000E+00	 1.00000000E+00	 1.00000000E-01
	 2.00000000E+00	 7.62728000E-01	 0.00000000E+00
	 2.00000000E+00	 7.62728000E-01	 1.00000000E-01
	 1.50000000E+00	 7.58419000E-01	-6.93889000E-18
	 1.50000000E+00	 7.58419000E-01	 1.00000000E-01
	 2.00000000E+00	 5.76854000E-01	 0.00000000E+00
	 2.00000000E+00	 5.76854000E-01	 1.00000000E-01
	 1.50000000E+00	 6.64134000E-01	-6.93889000E-18
	 1.50000000E+00	 6.64134000E-01	 1.00000000E-01
	 2.00000000E+00	 4.31244000E-01	 0.00000000E+00
	 2.00000000E+00	 4.31244000E-01	 1.00000000E-01
	 1.50000000E+00	 5.79681000E-01	 6.93889000E-18
	 1.50000000E+00	 5.79681000E-01	 1.00000000E-01
	 2.00000000E+00	 3.17176000E-01	 0.00000000E+00
	 2.00000000E+00	 3.17176000E-01	 1.00000000E-01
	 1.50000000E+00	 5.00000000E-01	 0.00000000E+00
	 1.50000000E+00	 5.00000000E-01	 1.00000000E-01
	 2.00000000E+00	 2.27817000E-01	 0.00000000E+00
	 2.00000000E+00	 2.27817000E-01	 1.00000000E-01
	 1.50000000E+00	 4.20319000E-01	-6.93889000E-18
	 1.50000000E+00	 4.20319000E-01	 1.00000000E-01
	 2.00000000E+00	 1.57815000E-01	 0.00000000E+00
	 2.00000000E+00	 1.57815000E-01	 1.00000000E-01
	 1.50000000E+00	 3.35866000E-01	-6.93889000E-18
	 1.50000000E+00	 3.35866000E-01	 1.00000000E-01
	 2.00000000E+00	 1.02976000E-01	 0.00000000E+00
	 2.00000000E+00	 1.02976000E-01	 1.00000000E-01
	 1.50000000E+00	 2.41581000E-01	-6.93889000E-18
	 1.50000000E+00	 2.41581000E-01	 1.00000000E-01
	 2.00000000E+00	 6.00170000E-02	 0.00000000E+00
	 2.00000000E+00	 6.00170000E-02	 1.00000000E-01
	 1.50000000E+00	 1.31818000E-01	 6.93889000E-18
	 1.50000000E+00	 1.31818000E-01	 1.00000000E-01
	 2.00000000E+00	 2.63635000E-02	 0.00000000E+00
	 2.00000000E+00	 2.63635000E-02	 1.00000000E-01
	 1.50000000E+00	 0.00000000E+00	 0.00000000E+00
	 1.50000000E+00	 0.00000000E+00	 1.00000000E-01
	 2.00000000E+00	 0.00000000E+00	 0.00000000E+00
	 2.00000000E+00	 0.00000000E+00	 1.00000000E-01
	 2.50000000E+00	 1.00000000E+00	 0.00000000E+00
	 2.50000000E+00	 1.00000000E+00	 1.00000000E-01
	 2.50000000E+00	 8.68182000E-01	 0.00000000E+00
	 2.50000000E+00	 8.68182000E-01	 1.00000000E-01
	 3.00000000E+00	 1.00000000E+00	 0.00000000E+00
	 3.00000000E+00	 1.00000000E+00	 1.00000000E-01
	 3.00000000E+00	 9.73636000E-01	 0.00000000E+00
	 3.00000000E+00	 9.73636000E-01	 1.00000000E-01
	 2.50000000E+00	 7.58419000E-01	 6.93889000E-18
	 2.50000000E+00	 7.58419000E-01	 1.00000000E-01
	 3.00000000E+00	 9.39983000E-01	 0.00000000E+00
	 3.00000000E+00	 9.39983000E-01	 1.00000000E-01
	 2.50000000E+00	 6.64134000E-01	-6.93889000E-18
	 2.50000000E+00	 6.64134000E-01	 1.00000000E-01
	 3.00000000E+00	 8.97024000E-01	 0.00000000E+00
	 3.00000000E+00	 8.97024000E-01	 1.00000000E-01
	 2.50000000E+00	 5.79681000E-01	 0.00000000E+00
	 2.50000000E+00	 5.79681000E-01	 1.00000000E-01
	 3.00000000E+00	 8.42185000E-01	 0.00000000E+00
	 3.00000000E+00	 8.42185000E-01	 1.00000000E-01
	 2.50000000E+00	 5.00000000E-01	 6.93889000E-18
	 2.50000000E+00	 5.00000000E-01	 1.00000000E-01
	 3.00000000E+00	 7.72183000E-01	 0.00000000E+00
	 3.00000000E+00	 7.72183000E-01	 1.00000000E-01
	 2.50000000E+00	 4.20319000E-01	-1.38778000E-17
	 2.50000000E+00	 4.20319000E-01	 1.00000000E-01
	 3.00000000E+00	 6.82824000E-01	 0.00000000E+00
	 3.00000000E+00	 6.82824000E-01	 1.00000000E-01
	 2.50000000E+00	 3.35866000E-01	-6.93889000E-18
	 2.50000000E+00	 3.35866000E-01	 1.00000000E-01
	 3.00000000E+00	 5.68756000E-01	 0.00000000E+00
	 3.00000000E+00	 5.68756000E-01	 1.00000000E-01
	 2.50000000E+00	 2.41581000E-01	 6.93889000E-18
	 2.50000000E+00	 2.41581000E-01	 1.00000000E-01
	 3.00000000E+00	 4.23146000E-01	 0.00000000E+00
	 3.00000000E+00	 4.23146000E-01	 1.00000000E-01
	 2.50000000E+00	 1.31818000E-01	 6.93889000E-18
	 2.50000000E+00	 1.31818000E-01	 1.00000000E-01
	 3.00000000E+00	 2.37272000E-01	 0.00000000E+00
	 3.00000000E+00	 2.37272000E-01	 1.00000000E-01
	 2.50000000E+00	 0.00000000E+00	 0.00000000E+00
	 2.50000000E+00	 0.00000000E+00	 1.00000000E-01
	 3.00000000E+00	 0.00000000E+00	 0.00000000E+00
	 3.00000000E+00	 0.00000000E+00	 1.00000000E-01
	 3.50000000E+00	 1.00000000E+00	 0.00000000E+00
	 3.50000000E+00	 1.00000000E+00	 1.00000000E-01
	 3.50000000E+00	 8.68182000E-01	 0.00000000E+00
	 3.50000000E+00	 8.68182000E-01	 1.00000000E-01
	 4.00000000E+00	 1.00000000E+00	 0.00000000E+00
	 4.00000000E+00	 1.00000000E+00	 1.00000000E-01
	 4.00000000E+00	 7.62728000E-01	 0.00000000E+00
	 4.00000000E+00	 7.62728000E-01	 1.00000000E-01
	 3.50000000E+00	 7.58419000E-01	-1.38778000E-17
	 3.50000000E+00	 7.58419000E-01	 1.00000000E-01
	 4.00000000E+00	 5.76854000E-01	 0.00000000E+00
	 4.00000000E+00	 5.76854000E-01	 1.00000000E-01
	 3.50000000E+00	 6.64134000E-01	-6.93889000E-18
	 3.50000000E+00	 6.64134000E-01	 1.00000000E-01
	 4.00000000E+00	 4.31244000E-01	 0.00000000E+00
	 4.00000000E+00	 4.31244000E-01	 1.00000000E-01
	 3.50000000E+00	 5.79681000E-01	 0.00000000E+00
	 3.50000000E+00	 5.79681000E-01	 1.00000000E-01
	 4.00000000E+00	 3.17176000E-01	 0.00000000E+00
	 4.00000000E+00	 3.17176000E-01	 1.00000000E-01
	 3.50000000E+00	 5.00000000E-01	 6.93889000E-18
	 3.50000000E+00	 5.00000000E-01	 1.00000000E-01
	 4.00000000E+00	 2.27817000E-01	 0.00000000E+00
	 4.00000000E+00	 2.27817000E-01	 1.00000000E-01
	 3.50000000E+00	 4.20319000E-01	-1.38778000E-17
	 3.50000000E+00	 4.20319000E-01	 1.00000000E-01
	 4.00000000E+00	 1.57815000E-01	 0.00000000E+00
	 4.00000000E+00	 1.57815000E-01	 1.00000000E-01
	 3.50000000E+00	 3.35866000E-01	-6.93889000E-18
	 3.50000000E+00	 3.35866000E-01	 1.00000000E-01
	 4.00000000E+00	 1.02976000E-01	 0.00000000E+00
	 4.00000000E+00	 1.02976000E-01	 1.00000000E-01
	 3.50000000E+00	 2.41581000E-01	 6.93889000E-18
	 3.50000000E+00	 2.41581000E-01	 1.00000000E-01
	 4.00000000E+00	 6.00170000E-02	 0.00000000E+00
	 4.00000000E+00	 6.00170000E-02	 1.00000000E-01
	 3.50000000E+00	 1.31818000E-01	 6.93889000E-18
	 3.50000000E+00	 1.31818000E-01	 1.00000000E-01
	 4.00000000E+00	 2.63635000E-02	 0.00000000E+00
	 4.00000000E+00	 2.63635000E-02	 1.00000000E-01
	 3.50000000E+00	 0.00000000E+00	 0.00000000E+00
	 3.50000000E+00	 0.00000000E+00	 1.00000000E-01
	 4.00000000E+00	 0.00000000E+00	 0.00000000E+00
	 4.00000000E+00	 0.00000000E+00	 1.00000000E-01
	 4.50000000E+00	 1.00000000E+00	 0.00000000E+00
	 4.50000000E+00	 1.00000000E+00	 1.00000000E-01
	 4.50000000E+00	 8.68182000E-01	 0.00000000E+00
	 4.50000000E+00	 8.68182000E-01	 1.00000000E-01
	 5.00000000E+00	 1.00000000E+00	 0.00000000E+00
	 5.00000000E+00	 1.00000000E+00	 1.00000000E-01
	 5.00000000E+00	 9.73636000E-01	 0.00000000E+00
	 5.00000000E+00	 9.73636000E-01	 1.00000000E-01
	 4.50000000E+00	 7.58419000E-01	-6.93889000E-18
	 4.50000000E+00	 7.58419000E-01	 1.00000000E-01
	 5.00000000E+00	 9.39983000E-01	 0.00000000E+00
	 5.00000000E+00	 9.39983000E-01	 1.00000000E-01
	 4.50000000E+00	 6.64134000E-01	-6.93889000E-18
	 4.50000000E+00	 6.64134000E-01	 1.00000000E-01
	 5.00000000E+00	 8.97024000E-01	 0.00000000E+00
	 5.00000000E+00	 8.97024000E-01	 1.00000000E-01
	 4.50000000E+00	 5.79681000E-01	 6.93889000E-18
	 4.50000000E+00	 5.79681000E-01	 1.00000000E-01
	 5.00000000E+00	 8.42185000E-01	 0.00000000E+00
	 5.00000000E+00	 8.42185000E-01	 1.00000000E-01
	 4.50000000E+00	 5.00000000E-01	 6.93889000E-18
	 4.50000000E+00	 5.00000000E-01	 1.00000000E-01
	 5.00000000E+00	 7.72183000E-01	 0.00000000E+00
	 5.00000000E+00	 7.72183000E-01	 1.00000000E-01
	 4.50000000E+00	 4.20319000E-01	 0.00000000E+00
	 4.50000000E+00	 4.20319000E-01	 1.00000000E-01
	 5.00000000E+00	 6.82824000E-01	 0.00000000E+00
	 5.00000000E+00	 6.82824000E-01	 1.00000000E-01
	 4.50000000E+00	 3.35866000E-01	-6.93889000E-18
	 4.50000000E+00	 3.35866000E-01	 1.00000000E-01
	 5.00000000E+00	 5.68756000E-01	 0.00000000E+00
	 5.00000000E+00	 5.68756000E-01	 1.00000000E-01
	 4.50000000E+00	 2.41581000E-01	-6.93889000E-18
	 4.50000000E+00	 2.41581000E-01	 1.00000000E-01
	 5.00000000E+00	 4.23146000E-01	 0.00000000E+00
	 5.00000000E+00	 4.23146000E-01	 1.00000000E-01
	 4.50000000E+00	 1.31818000E-01	 6.93889000E-18
	 4.50000000E+00	 1.31818000E-01	 1.00000000E-01
	 5.00000000E+00	 2.37272000E-01	 0.00000000E+00
	 5.00000000E+00	 2.37272000E-01	 1.00000000E-01
	 4.50000000E+00	 0.00000000E+00	 0.00000000E+00
	 4.50000000E+00	 0.00000000E+00	 1.00000000E-01
	 5.00000000E+00	 0.00000000E+00	 0.00000000E+00
	 5.00000000E+00	 0.00000000E+00	 1.00000000E-01
	 5.50000000E+00	 1.00000000E+00	 0.00000000E+00
	 5.50000000E+00	 1.00000000E+00	 1.00000000E-01
	 5.50000000E+00	 8.68182000E-01	 0.00000000E+00
	 5.50000000E+00	 8.68182000E-01	 1.00000000E-01
	 6.00000000E+00	 1.00000000E+00	 0.00000000E+00
	 6.00000000E+00	 1.00000000E+00	 1.00000000E-01
	 6.00000000E+00	 8.68182000E-01	 0.00000000E+00
	 6.00000000E+00	 8.68182000E-01	 1.00000000E-01
	 5.50000000E+00	 7.58419000E-01	 1.38778000E-17
	 5.50000000E+00	 7.58419000E-01	 1.00000000E-01
	 6.00000000E+00	 7.58419000E-01	 0.00000000E+00
	 6.00000000E+00	 7.58419000E-01	 1.00000000E-01
	 5.50000000E+00	 6.64134000E-01	 2.08167000E-17
	 5.50000000E+00	 6.64134000E-01	 1.00000000E-01
	 6.00000000E+00	 6.64134000E-01	 0.00000000E+00
	 6.00000000E+00	 6.64134000E-01	 1.00000000E-01
	 5.50000000E+00	 5.79681000E-01	 6.93889000E-18
	 5.50000000E+00	 5.79681000E-01	 1.00000000E-01
	 6.00000000E+00	 5.79681000E-01	 0.00000000E+00
	 6.00000000E+00	 5.79681000E-01	 1.00000000E-01
	 5.50000000E+00	 5.00000000E-01	 1.38778000E-17
	 5.50000000E+00	 5.00000000E-01	 1.00000000E-01
	 6.00000000E+00	 5.00000000E-01	 0.00000000E+00
	 6.00000000E+00	 5.00000000E-01	 1.00000000E-01
	 5.50000000E+00	 4.20319000E-01	 6.93889000E-18
	 5.50000000E+00	 4.20319000E-01	 1.00000000E-01
	 6.00000000E+00	 4.20319000E-01	 0.00000000E+00
	 6.00000000E+00	 4.20319000E-01	 1.00000000E-01
	 5.50000000E+00	 3.35866000E-01	 0.00000000E+00
	 5.50000000E+00	 3.35866000E-01	 1.00000000E-01
	 6.00000000E+00	 3.35866000E-01	 0.00000000E+00
	 6.00000000E+00	 3.35866000E-01	 1.00000000E-01
	 5.50000000E+00	 2.41581000E-01	 1.38778000E-17
	 5.50000000E+00	 2.41581000E-01	 1.00000000E-01
	 6.00000000E+00	 2.41581000E-01	 0.00000000E+00
	 6.00000000E+00	 2.41581000E-01	 1.00000000E-01
	 5.50000000E+00	 1.31818000E-01	 6.93889000E-18
	 5.50000000E+00	 1.31818000E-01	 1.00000000E-01
	 6.00000000E+00	 1.31818000E-01	 0.00000000E+00
	 6.00000000E+00	 1.31818000E-01	 1.00000000E-01
	 5.50000000E+00	 0.00000000E+00	 0.00000000E+00
	 5.50000000E+00	 0.00000000E+00	 1.00000000E-01
	 6.00000000E+00	 0.00000000E+00	 0.00000000E+00
	 6.00000000E+00	 0.00000000E+00	 1.00000000E-01

CELLS 120 1080
	8 0 1 2 3 4 5 6 7 
	8 3 2 8 9 7 6 10 11 
	8 4 5 6 7 12 13 14 15 
	8 7 6 10 11 15 14 16 17 
	8 12 13 14 15 18 19 20 21 
	8 15 14 16 17 21 20 22 23 
	8 18 19 20 21 24 25 26 27 
	8 21 20 22 23 27 26 28 29 
	8 24 25 26 27 30 31 32 33 
	8 27 26 28 29 33 32 34 35 
	8 30 31 32 33 36 37 38 39 
	8 33 32 34 35 39 38 40 41 
	8 36 37 38 39 42 43 44 45 
	8 39 38 40 41 45 44 46 47 
	8 42 43 44 45 48 49 50 51 
	8 45 44 46 47 51 50 52 53 
	8 48 49 50 51 54 55 56 57 
	8 51 50 52 53 57 56 58 59 
	8 54 55 56 57 60 61 62 63 
	8 57 56 58 59 63 62 64 65 
	8 9 8 66 67 11 10 68 69 
	8 67 66 70 71 69 68 72 73 
	8 11 10 68 69 17 16 74 75 
	8 69 68 72 73 75 74 76 77 
	8 17 16 74 75 23 22 78 79 
	8 75 74 76 77 79 78 80 81 
	8 23 22 78 79 29 28 82 83 
	8 79 78 80 81 83 82 84 85 
	8 29 28 82 83 35 34 86 87 
	8 83 82 84 85 87 86 88 89 
	8 35 34 86 87 41 40 90 91 
	8 87 86 88 89 91 90 92 93 
	8 41 40 90 91 47 46 94 95 
	8 91 90 92 93 95 94 96 97 
	8 47 46 94 95 53 52 98 99 
	8 95 94 96 97 99 98 100 101 
	8 53 52 98 99 59 58 102 103 
	8 99 98 100 101 103 102 104 105 
	8 59 58 102 103 65 64 106 107 
	8 103 102 104 105 107 106 108 109 
	8 71 70 110 111 73 72 112 113 
	8 111 110 114 115 113 112 116 117 
	8 73 72 112 113 77 76 118 119 
	8 113 112 116 117 119 118 120 121 
	8 77 76 118 119 81 80 122 123 
	8 119 118 120 121 123 122 124 125 
	8 81 80 122 123 85 84 126 127 
	8 123 122 124 125 127 126 128 129 
	8 85 84 126 127 89 88 130 131 
	8 127 126 128 129 131 130 132 133 
	8 89 88 130 131 93 92 134 135 
	8 131 130 132 133 135 134 136 137 
	8 93 92 134 135 97 96 138 139 
	8 135 134 136 137 139 138 140 141 
	8 97 96 138 139 101 100 142 143 
	8 139 138 140 141 143 142 144 145 
	8 101 100 142 143 105 104 146 147 
	8 143 142 144 145 147 146 148 149 
	8 105 104 146 147 109 108 150 151 
	8 147 146 148 149 151 150 152 153 
	8 115 114 154 155 117 116 156 157 
	8 155 154 158 159 157 156 160 161 
	8 117 116 156 157 121 120 162 163 
	8 157 156 160 161 163 162 164 165 
	8 121 120 162 163 125 124 166 167 
	8 163 162 164 165 167 166 168 169 
	8 125 124 166 167 129 128 170 171 
	8 167 166 168 169 171 170 172 173 
	8 129 128 170 171 133 132 174 175 
	8 171 170 172 173 175 174 176 177 
	8 133 132 174 175 137 136 178 179 
	8 175 174 176 177 179 178 180 181 
	8 137 136 178 179 141 140 182 183 
	8 179 178 180 181 183 182 184 185 
	8 141 140 182 183 145 144 186 187 
	8 183 182 184 185 187 186 188 189 
	8 145 144 186 187 149 148 190 191 
	8 187 186 188 189 191 190 192 193 
	8 149 148 190 191 153 152 194 195 
	8 191 190 192 193 195 194 196 197 
	8 159 158 198 199 161 160 200 201 
	8 199 198 202 203 201 200 204 205 
	8 161 160 200 201 165 164 206 207 
	8 201 200 204 205 207 206 208 209 
	8 165 164 206 207 169 168 210 211 
	8 207 206 208 209 211 210 212 213 
	8 169 168 210 211 173 172 214 215 
	8 211 210 212 213 215 214 216 217 
	8 173 172 214 215 177 176 218 219 
	8 215 214 216 217 219 218 220 221 
	8 177 176 218 219 181 180 222 223 
	8 219 218 220 221 223 222 224 225 
	8 181 180 222 223 185 184 226 227 
	8 223 222 224 225 227 226 228 229 
	8 185 184 226 227 189 188 230 231 
	8 227 226 228 229 231 230 232 233 
	8 189 188 230 231 193 192 234 235 
	8 231 230 232 233 235 234 236 237 
	8 193 192 234 235 197 196 238 239 
	8 235 234 236 237 239 238 240 241 
	8 203 202 242 243 205 204 244 245 
	8 243 242 246 247 245 244 248 249 
	8 205 204 244 245 209 208 250 251 
	8 245 244 248 249 251 250 252 253 
	8 209 208 250 251 213 212 254 255 
	8 251 250 252 253 255 254 256 257 
	8 213 212 254 255 217 216 258 259 
	8 255 254 256 257 259 258 260 261 
	8 217 216 258 259 221 220 262 263 
	8 259 258 260 261 263 262 264 265 
	8 221 220 262 263 225 224 266 267 
	8 263 262 264 265 267 266 268 269 
	8 225 224 266 267 229 228 270 271 
	8 267 266 268 269 271 270 272 273 
	8 229 228 270 271 233 232 274 275 
	8 271 270 272 273 275 274 276 277 
	8 233 232 274 275 237 236 278 279 
	8 275 274 276 277 279 278 280 281 
	8 237 236 278 279 241 240 282 283 
	8 279 278 280 281 283 282 284 285 

CELL_TYPES 120
	12
	12
	12
	12
	12
	12
	12
	12
	12
	12
	12
	12
	12
	12
	12
	12
	12
	12
	12
	12
	12
	12
	12
	12
	12
	12
	12
	12
	12
	12
	12
	12
	12
	12
	12
	12
	12
	12
	12
	12
	12
	12
	12
	12
	12
	12
	12
	12
	12
	12
	12
	12
	12
	12
	12
	12
	12
	12
	12
	12
	12
	12
	12
	12
	12
	12
	12
	12
	12
	12
	12
	12
	12
	12
	12
	12
	12
	12
	12
	12
	12
	12
	12
	12
	12
	12
	12
	12
	12
	12
	12
	12
	12
	12
	12
	12
	12
	12
	12
	12
	12
	12
	12
	12
	12
	12
	12
	12
	12
	12
	12
	12
	12
	12
	12
	12
	12
	12
	12
	12

POINT_DATA 286
FIELD V3DF 1
	V3DF 3 286 double
		 9.75000000E-01	 0.00000000E+00	 0.00000000E+00
		 9.75000000E-01	 0.00000000E+00	 0.00000000E+00
		 1.00000000E+00	 0.00000000E+00	 0.00000000E+00
		 1.00000000E+00	 0.00000000E+00	 0.00000000E+00
		 9.00000000E-01	 0.00000000E+00	 0.00000000E+00
		 9.00000000E-01	 0.00000000E+00	 0.00000000E+00
		 9.41107000E-01	-7.76936000E-04	 0.00000000E+00
		 9.41107000E-01	-7.76936000E-04	 0.00000000E+00
		 1.00000000E+00	 0.00000000E+00	 0.00000000E+00
		 1.00000000E+00	 0.00000000E+00	 0.00000000E+00
		 9.62148000E-01	 1.09849000E-04	 0.00000000E+00
		 9.62148000E-01	 1.09849000E-04	 0.00000000E+00
		 8.00000000E-01	 0.00000000E+00	 0.00000000E+00
		 8.00000000E-01	 0.00000000E+00	 0.00000000E+00
		 8.79693000E-01	-1.08444000E-03	 0.00000000E+00
		 8.79693000E-01	-1.08444000E-03	 0.00000000E+00
		 9.16338000E-01	 4.52204000E-04	 0.00000000E+00
		 9.16338000E-01	 4.52204000E-04	 0.00000000E+00
		 7.00000000E-01	 0.00000000E+00	 0.00000000E+00
		 7.00000000E-01	 0.00000000E+00	 0.00000000E+00
		 8.13836000E-01	-1.12447000E-03	 0.00000000E+00
		 8.13836000E-01	-1.12447000E-03	 0.00000000E+00
		 8.61853000E-01	 7.17821000E-04	 0.00000000E+00
		 8.61853000E-01	 7.17821000E-04	 0.00000000E+00
		 6.00000000E-01	 0.00000000E+00	 0.00000000E+00
		 6.00000000E-01	 0.00000000E+00	 0.00000000E+00
		 7.41605000E-01	-9.48560000E-04	 0.00000000E+00
		 7.41605000E-01	-9.48560000E-04	 0.00000000E+00
		 7.97388000E-01	 8.45304000E-04	 0.00000000E+00
		 7.97388000E-01	 8.45304000E-04	 0.00000000E+00
		 5.00000000E-01	 0.00000000E+00	 0.00000000E+00
		 5.00000000E-01	 0.00000000E+00	 0.00000000E+00
		 6.60650000E-01	-6.11679000E-04	 0.00000000E+00
		 6.60650000E-01	-6.11679000E-04	 0.00000000E+00
		 7.21053000E-01	 8.20967000E-04	 0.00000000E+00
		 7.21053000E-01	 8.20967000E-04	 0.00000000E+00
		 4.00000000E-01	 0.00000000E+00	 0.00000000E+00
		 4.00000000E-01	 0.00000000E+00	 0.00000000E+00
		 5.68083000E-01	-1.71280000E-04	 0.00000000E+00
		 5.68083000E-01	-1.71280000E-04	 0.00000000E+00
		 6.29885000E-01	 6.75354000E-04	 0.00000000E+00
		 6.29885000E-01	 6.75354000E-04	 0.00000000E+00
		 3.00000000E-01	 0.00000000E+00	 0.00000000E+00
		 3.00000000E-01	 0.00000000E+00	 0.00000000E+00
		 4.60366000E-01	 3.11464000E-04	 0.00000000E+00
		 4.60366000E-01	 3.11464000E-04	 0.00000000E+00
		 5.19490000E-01	 4.65992000E-04	 0.00000000E+00
		 5.19490000E-01	 4.65992000E-04	 0.00000000E+00
		 2.00000000E-01	 0.00000000E+00	 0.00000000E+00
		 2.00000000E-01	 0.00000000E+00	 0.00000000E+00
		 3.33195000E-01	 7.68380000E-04	 0.00000000E+00
		 3.33195000E-01	 7.68380000E-04	 0.00000000E+00
		 3.83836000E-01	 2.36573000E-04	 0.00000000E+00
		 3.83836000E-01	 2.36573000E-04	 0.00000000E+00
		 1.00000000E-01	 0.00000000E+00	 0.00000000E+00
		 1.00000000E-01	 0.00000000E+00	 0.00000000E+00
		 1.81397000E-01	 1.07179000E-03	 0.00000000E+00
		 1.81397000E-01	 1.07179000E-03	 0.00000000E+00
		 2.14991000E-01	-1.33181000E-06	 0.00000000E+00
		 2.14991000E-01	-1.33181000E-06	 0.00000000E+00
		 2.50000000E-02	 0.00000000E+00	 0.00000000E+00
		 2.50000000E-02	 0.00000000E+00	 0.00000000E+00
		 0.00000000E+00	 0.00000000E+00	 0.00000000E+00
		 0.00000000E+00	 0.00000000E+00	 0.00000000E+00
		 0.00000000E+00	 0.00000000E+00	 0.00000000E+00
		 0.00000000E+00	 0.00000000E+00	 0.00000000E+00
		 1.00000000E+00	 0.00000000E+00	 0.00000000E+00
		 1.00000000E+00	 0.00000000E+00	 0.00000000E+00
		 8.49622000E-01	 2.68083000E-03	 0.00000000E+00
		 8.49622000E-01	 2.68083000E-03	 0.00000000E+00
		 1.00000000E+00	 0.00000000E+00	 0.00000000E+00
		 1.00000000E+00	 0.00000000E+00	 0.00000000E+00
		 7.91399000E-01	 7.62903000E-05	 0.00000000E+00
		 7.91399000E-01	 7.62903000E-05	 0.00000000E+00
		 7.31011000E-01	 2.55400000E-03	 0.00000000E+00
		 7.31011000E-01	 2.55400000E-03	 0.00000000E+00
		 6.30134000E-01	 1.04377000E-04	 0.00000000E+00
		 6.30134000E-01	 1.04377000E-04	 0.00000000E+00
		 6.36064000E-01	 1.90040000E-03	 0.00000000E+00
		 6.36064000E-01	 1.90040000E-03	 0.00000000E+00
		 4.99320000E-01	 1.10535000E-04	 0.00000000E+00
		 4.99320000E-01	 1.10535000E-04	 0.00000000E+00
		 5.56951000E-01	 8.91143000E-04	 0.00000000E+00
		 5.56951000E-01	 8.91143000E-04	 0.00000000E+00
		 3.91348000E-01	 1.30332000E-04	 0.00000000E+00
		 3.91348000E-01	 1.30332000E-04	 0.00000000E+00
		 4.86330000E-01	-2.91440000E-04	 0.00000000E+00
		 4.86330000E-01	-2.91440000E-04	 0.00000000E+00
		 2.99694000E-01	 1.39584000E-04	 0.00000000E+00
		 2.99694000E-01	 1.39584000E-04	 0.00000000E+00
		 4.16997000E-01	-1.40001000E-03	 0.00000000E+00
		 4.16997000E-01	-1.40001000E-03	 0.00000000E+00
		 2.19839000E-01	 1.17096000E-04	 0.00000000E+00
		 2.19839000E-01	 1.17096000E-04	 0.00000000E+00
		 3.41558000E-01	-2.22042000E-03	 0.00000000E+00
		 3.41558000E-01	-2.22042000E-03	 0.00000000E+00
		 1.49675000E-01	 5.25235000E-05	 0.00000000E+00
		 1.49675000E-01	 5.25235000E-05	 0.00000000E+00
		 2.52180000E-01	-2.64268000E-03	 0.00000000E+00
		 2.52180000E-01	-2.64268000E-03	 0.00000000E+00
		 8.91619000E-02	-3.86112000E-05	 0.00000000E+00
		 8.91619000E-02	-3.86112000E-05	 0.00000000E+00
		 1.40580000E-01	-2.61945000E-03	 0.00000000E+00
		 1.40580000E-01	-2.61945000E-03	 0.00000000E+00
		 3.91787000E-02	-1.02157000E-04	 0.00000000E+00
		 3.91787000E-02	-1.02157000E-04	 0.00000000E+00
		 0.00000000E+00	 0.00000000E+00	 0.00000000E+00
		 0.00000000E+00	 0.00000000E+00	 0.00000000E+00
		 0.00000000E+00	 0.00000000E+00	 0.00000000E+00
		 0.00000000E+00	 0.00000000E+00	 0.00000000E+00
		 1.00000000E+00	 0.00000000E+00	 0.00000000E+00
		 1.00000000E+00	 0.00000000E+00	 0.00000000E+00
		 8.58288000E-01	-2.87052000E-03	 0.00000000E+00
		 8.58288000E-01	-2.87052000E-03	 0.00000000E+00
		 1.00000000E+00	 0.00000000E+00	 0.00000000E+00
		 1.00000000E+00	 0.00000000E+00	 0.00000000E+00
		 9.58236000E-01	 1.36021000E-04	 0.00000000E+00
		 9.58236000E-01	 1.36021000E-04	 0.00000000E+00
		 7.46315000E-01	-2.86806000E-03	 0.00000000E+00
		 7.46315000E-01	-2.86806000E-03	 0.00000000E+00
		 9.07559000E-01	 1.54372000E-04	 0.00000000E+00
		 9.07559000E-01	 1.54372000E-04	 0.00000000E+00
		 6.55113000E-01	-2.32696000E-03	 0.00000000E+00
		 6.55113000E-01	-2.32696000E-03	 0.00000000E+00
		 8.47922000E-01	 1.01355000E-04	 0.00000000E+00
		 8.47922000E-01	 1.01355000E-04	 0.00000000E+00
		 5.77835000E-01	-1.31094000E-03	 0.00000000E+00
		 5.77835000E-01	-1.31094000E-03	 0.00000000E+00
		 7.79204000E-01	 2.20028000E-05	 0.00000000E+00
		 7.79204000E-01	 2.20028000E-05	 0.00000000E+00
		 5.07353000E-01	 4.69511000E-06	 0.00000000E+00
		 5.07353000E-01	 4.69511000E-06	 0.00000000E+00
		 7.00842000E-01	-4.39967000E-05	 0.00000000E+00
		 7.00842000E-01	-4.39967000E-05	 0.00000000E+00
		 4.36375000E-01	 1.32494000E-03	 0.00000000E+00
		 4.36375000E-01	 1.32494000E-03	 0.00000000E+00
		 6.10454000E-01	-7.63331000E-05	 0.00000000E+00
		 6.10454000E-01	-7.63331000E-05	 0.00000000E+00
		 3.57433000E-01	 2.35177000E-03	 0.00000000E+00
		 3.57433000E-01	 2.35177000E-03	 0.00000000E+00
		 5.03263000E-01	-7.84204000E-05	 0.00000000E+00
		 5.03263000E-01	-7.84204000E-05	 0.00000000E+00
		 2.62985000E-01	 2.89756000E-03	 0.00000000E+00
		 2.62985000E-01	 2.89756000E-03	 0.00000000E+00
		 3.72357000E-01	-7.22196000E-05	 0.00000000E+00
		 3.72357000E-01	-7.22196000E-05	 0.00000000E+00
		 1.45745000E-01	 2.90012000E-03	 0.00000000E+00
		 1.45745000E-01	 2.90012000E-03	 0.00000000E+00
		 2.09126000E-01	-5.02321000E-05	 0.00000000E+00
		 2.09126000E-01	-5.02321000E-05	 0.00000000E+00
		 0.00000000E+00	 0.00000000E+00	 0.00000000E+00
		 0.00000000E+00	 0.00000000E+00	 0.00000000E+00
		 0.00000000E+00	 0.00000000E+00	 0.00000000E+00
		 0.00000000E+00	 0.00000000E+00	 0.00000000E+00
		 1.00000000E+00	 0.00000000E+00	 0.00000000E+00
		 1.00000000E+00	 0.00000000E+00	 0.00000000E+00
		 8.50694000E-01	 3.03777000E-03	 0.00000000E+00
		 8.50694000E-01	 3.03777000E-03	 0.00000000E+00
		 1.00000000E+00	 0.00000000E+00	 0.00000000E+00
		 1.00000000E+00	 0.00000000E+00	 0.00000000E+00
		 7.91447000E-01	 1.37012000E-05	 0.00000000E+00
		 7.91447000E-01	 1.37012000E-05	 0.00000000E+00
		 7.33666000E-01	 3.01577000E-03	 0.00000000E+00
		 7.33666000E-01	 3.01577000E-03	 0.00000000E+00
		 6.30239000E-01	 1.49674000E-05	 0.00000000E+00
		 6.30239000E-01	 1.49674000E-05	 0.00000000E+00
		 6.40560000E-01	 2.40227000E-03	 0.00000000E+00
		 6.40560000E-01	 2.40227000E-03	 0.00000000E+00
		 4.99467000E-01	 9.48208000E-07	 0.00000000E+00
		 4.99467000E-01	 9.48208000E-07	 0.00000000E+00
		 5.63072000E-01	 1.32084000E-03	 0.00000000E+00
		 5.63072000E-01	 1.32084000E-03	 0.00000000E+00
		 3.91515000E-01	 1.10589000E-05	 0.00000000E+00
		 3.91515000E-01	 1.10589000E-05	 0.00000000E+00
		 4.93407000E-01	-4.18672000E-05	 0.00000000E+00
		 4.93407000E-01	-4.18672000E-05	 0.00000000E+00
		 2.99852000E-01	 2.55779000E-05	 0.00000000E+00
		 2.99852000E-01	 2.55779000E-05	 0.00000000E+00
		 4.24135000E-01	-1.39102000E-03	 0.00000000E+00
		 4.24135000E-01	-1.39102000E-03	 0.00000000E+00
		 2.19953000E-01	 2.67365000E-05	 0.00000000E+00
		 2.19953000E-01	 2.67365000E-05	 0.00000000E+00
		 3.47886000E-01	-2.44103000E-03	 0.00000000E+00
		 3.47886000E-01	-2.44103000E-03	 0.00000000E+00
		 1.49723000E-01	 1.82975000E-06	 0.00000000E+00
		 1.49723000E-01	 1.82975000E-06	 0.00000000E+00
		 2.56978000E-01	-3.02121000E-03	 0.00000000E+00
		 2.56978000E-01	-3.02121000E-03	 0.00000000E+00
		 8.91469000E-02	-3.99120000E-05	 0.00000000E+00
		 8.91469000E-02	-3.99120000E-05	 0.00000000E+00
		 1.43239000E-01	-3.04577000E-03	 0.00000000E+00
		 1.43239000E-01	-3.04577000E-03	 0.00000000E+00
		 3.91372000E-02	-6.05569000E-05	 0.00000000E+00
		 3.91372000E-02	-6.05569000E-05	 0.00000000E+00
		 0.00000000E+00	 0.00000000E+00	 0.00000000E+00
		 0.00000000E+00	 0.00000000E+00	 0.00000000E+00
		 0.00000000E+00	 0.00000000E+00	 0.00000000E+00
		 0.00000000E+00	 0.00000000E+00	 0.00000000E+00
		 1.00000000E+00	 0.00000000E+00	 0.00000000E+00
		 1.00000000E+00	 0.00000000E+00	 0.00000000E+00
		 8.58426000E-01	-2.91132000E-03	 0.00000000E+00
		 8.58426000E-01	-2.91132000E-03	 0.00000000E+00
		 1.00000000E+00	 0.00000000E+00	 0.00000000E+00
		 1.00000000E+00	 0.00000000E+00	 0.00000000E+00
		 9.45547000E-01	 1.23736000E-03	 0.00000000E+00
		 9.45547000E-01	 1.23736000E-03	 0.00000000E+00
		 7.46563000E-01	-2.89928000E-03	 0.00000000E+00
		 7.46563000E-01	-2.89928000E-03	 0.00000000E+00
		 8.87956000E-01	 8.50957000E-04	 0.00000000E+00
		 8.87956000E-01	 8.50957000E-04	 0.00000000E+00
		 6.55402000E-01	-2.30310000E-03	 0.00000000E+00
		 6.55402000E-01	-2.30310000E-03	 0.00000000E+00
		 8.26742000E-01	-2.03048000E-05	 0.00000000E+00
		 8.26742000E-01	-2.03048000E-05	 0.00000000E+00
		 5.78093000E-01	-1.22114000E-03	 0.00000000E+00
		 5.78093000E-01	-1.22114000E-03	 0.00000000E+00
		 7.59482000E-01	-7.55983000E-04	 0.00000000E+00
		 7.59482000E-01	-7.55983000E-04	 0.00000000E+00
		 5.07540000E-01	 1.43360000E-04	 0.00000000E+00
		 5.07540000E-01	 1.43360000E-04	 0.00000000E+00
		 6.83837000E-01	-1.16738000E-03	 0.00000000E+00
		 6.83837000E-01	-1.16738000E-03	 0.00000000E+00
		 4.36477000E-01	 1.48285000E-03	 0.00000000E+00
		 4.36477000E-01	 1.48285000E-03	 0.00000000E+00
		 5.96460000E-01	-1.27541000E-03	 0.00000000E+00
		 5.96460000E-01	-1.27541000E-03	 0.00000000E+00
		 3.57464000E-01	 2.50197000E-03	 0.00000000E+00