<?xml version="1.0"?>
<VTKFile type="UnstructuredGrid" version="0.1" byte_order="LittleEndian">
	<UnstructuredGrid>
		<Piece NumberOfPoints="16" NumberOfCells="2">
			<Points>
				<DataArray type="Float64" NumberOfComponents="3" format="ascii">
					 1.00000000E+00	 1.00000000E+00	-1.49012000E-08
					 1.00000000E+00	 0.00000000E+00	-1.49012000E-08
					 1.00000000E+00	 0.00000000E+00	 1.00000000E+00
					 1.00000000E+00	 1.00000000E+00	 1.00000000E+00
					-7.45058000E-09	 1.00000000E+00	-1.49012000E-08
					-7.45058000E-09	 0.00000000E+00	-1.49012000E-08
					-7.45058000E-09	 0.00000000E+00	 1.00000000E+00
					-7.45058000E-09	 1.00000000E+00	 1.00000000E+00
					 5.00000000E-01	 6.41421000E-01	 1.00000000E+00
					 6.41421000E-01	 5.00000000E-01	 1.00000000E+00
					 6.41421000E-01	 5.00000000E-01	 1.20000000E+00
					 5.00000000E-01	 6.41421000E-01	 1.20000000E+00
					 3.58579000E-01	 5.00000000E-01	 1.00000000E+00
					 5.00000000E-01	 3.58579000E-01	 1.00000000E+00
					 5.00000000E-01	 3.58579000E-01	 1.20000000E+00
					 3.58579000E-01	 5.00000000E-01	 1.20000000E+00
				</DataArray>
			</Points>
			<Cells>
				<DataArray type="Int32" Name="connectivity" format="ascii">
					0 1 2 3 4 5 6 7 8 9 10 11 12 13 14 15 
				</DataArray>
				<DataArray type="Int32" Name="offsets" format="ascii">
					8 16 
				</DataArray>
				<DataArray type="UInt8" Name="types" format="ascii">
					12 12 
				</DataArray>
			</Cells>
			<PointData>
				<DataArray type="Float32" Name="U" NumberOfComponents="3" ComponentName0="D1" ComponentName1="D2" ComponentName2="D3" format="ascii">
					 0.00000000E+00	 0.00000000E+00	 0.00000000E+00
					 0.00000000E+00	 0.00000000E+00	 0.00000000E+00
					 1.30016000E-06	-1.29668000E-06	-6.06732000E-06
					 1.30016000E-06	 1.30363000E-06	-6.06732000E-06
					 0.00000000E+00	 0.00000000E+00	 0.00000000E+00
					 0.00000000E+00	 0.00000000E+00	 0.00000000E+00
					-1.30016000E-06	-1.29668000E-06	-6.06732000E-06
					-1.30016000E-06	 1.30363000E-06	-6.06732000E-06
					 6.15348000E-17	 1.40913000E-05	-1.19148000E-05
					 7.06961000E-06	 7.01885000E-06	-1.19148000E-05
					 7.07717000E-06	 7.03722000E-06	-4.52618000E-05
					 0.00000000E+00	 1.41246000E-05	-4.52755000E-05
					-7.06961000E-06	 7.01885000E-06	-1.19148000E-05
					 6.15941000E-17	-6.02937000E-08	-1.19148000E-05
					 0.00000000E+00	 0.00000000E+00	-4.52325000E-05
					-7.07717000E-06	 7.03722000E-06	-4.52618000E-05
				</DataArray>
				<DataArray type="Float32" Name="S" NumberOfComponents="10" ComponentName0="xx" ComponentName1="yy" ComponentName2="zz" ComponentName3="xy" ComponentName4="yz" ComponentName5="zx" ComponentName6="Mises" ComponentName7="Min Principal" ComponentName8="Mid Principal" ComponentName9="Max Principal" format="ascii">
					-7.35070000E-01	-7.35070000E-01	-1.71511000E+00	 2.73791000E-07	 1.05290000E-01	 1.05010000E-01	 1.01332011E+00	-1.73717659E+00	-7.35070274E-01	-7.13003133E-01
					-7.35070000E-01	-7.35070000E-01	-1.71511000E+00	-2.72332000E-07	-1.04729000E-01	 1.05010000E-01	 1.01314569E+00	-1.73706154E+00	-7.35070272E-01	-7.13118187E-01
					 3.15059000E-01	 3.15059000E-01	-1.08504000E+00	-2.72524000E-07	-1.04730000E-01	 1.05011000E-01	 1.42346909E+00	-1.10057766E+00	 3.15058727E-01	 3.30596931E-01
					 3.15059000E-01	 3.15059000E-01	-1.08504000E+00	 2.73602000E-07	 1.05291000E-01	 1.05011000E-01	 1.42359324E+00	-1.10065998E+00	 3.15058726E-01	 3.30679252E-01
					-7.35070000E-01	-7.35070000E-01	-1.71511000E+00	-2.73791000E-07	 1.05290000E-01	-1.05010000E-01	 1.01332011E+00	-1.73717659E+00	-7.35070274E-01	-7.13003133E-01
					-7.35070000E-01	-7.35070000E-01	-1.71511000E+00	 2.72332000E-07	-1.04729000E-01	-1.05010000E-01	 1.01314569E+00	-1.73706154E+00	-7.35070272E-01	-7.13118187E-01
					 3.15059000E-01	 3.15059000E-01	-1.08504000E+00	 2.72527000E-07	-1.04730000E-01	-1.05011000E-01	 1.42346909E+00	-1.10057766E+00	 3.15058727E-01	 3.30596931E-01
					 3.15059000E-01	 3.15059000E-01	-1.08504000E+00	-2.73599000E-07	 1.05291000E-01	-1.05011000E-01	 1.42359324E+00	-1.10065998E+00	 3.15058726E-01	 3.30679252E-01
					-1.61288000E-02	-1.29099000E-02	-3.50239000E+01	 9.05786000E-12	 1.34553000E-02	-2.48437000E-11	 3.50093885E+01	-3.50239052E+01	-1.61288000E-02	-1.29047289E-02
					-4.92067000E-03	 2.13269000E-03	-3.50015000E+01	 1.91721000E-03	 7.41623000E-03	 3.05052000E-03	 3.50001095E+01	-3.50015018E+01	-5.40807441E-03	 2.62193152E-03
					-1.36225000E-03	-1.83439000E-02	-3.50066000E+01	-1.43294000E-02	-4.87061000E-03	-1.38220000E-03	 3.49967599E+01	-3.50066007E+01	-2.65084885E-02	 6.80307124E-03
					 1.17995000E-02	 2.34767000E-02	-3.50046000E+01	-1.34948000E-11	 5.60115000E-03	-1.19483000E-11	 3.50222409E+01	-3.50046009E+01	 1.17995000E-02	 2.34775956E-02
					-4.92067000E-03	 2.13269000E-03	-3.50015000E+01	-1.91721000E-03	 7.41623000E-03	-3.05052000E-03	 3.50001095E+01	-3.50015018E+01	-5.40807441E-03	 2.62193152E-03
					 1.56927000E-02	 2.65805000E-02	-3.49573000E+01	-9.05275000E-12	 2.43384000E-02	-2.48644000E-11	 3.49784633E+01	-3.49573169E+01	 1.56927000E-02	 2.65974323E-02
					-5.11875000E-03	-5.07591000E-02	-3.49867000E+01	 1.34886000E-11	 7.61880000E-03	-1.19772000E-11	 3.49587859E+01	-3.49867017E+01	-5.07574385E-02	-5.11875000E-03
					-1.36225000E-03	-1.83439000E-02	-3.50066000E+01	 1.43294000E-02	-4.87061000E-03	 1.38220000E-03	 3.49967599E+01	-3.50066007E+01	-2.65084885E-02	 6.80307124E-03
				</DataArray>
				<DataArray type="Float32" Name="CONTACT" NumberOfComponents="6" ComponentName0="COPEN" ComponentName1="CSLIP1" ComponentName2="CSLIP2" ComponentName3="CPRESS" ComponentName4="CSHEAR1" ComponentName5="CSHEAR2" format="ascii">
					 0.00000000E+00	 0.00000000E+00	 0.00000000E+00	 0.00000000E+00	 0.00000000E+00	 0.00000000E+00
					 0.00000000E+00	 0.00000000E+00	 0.00000000E+00	 0.00000000E+00	 0.00000000E+00	 0.00000000E+00
					 0.00000000E+00	 0.00000000E+00	 0.00000000E+00	 0.00000000E+00	 0.00000000E+00	 0.00000000E+00
					 0.00000000E+00	 0.00000000E+00	 0.00000000E+00	 0.00000000E+00	 0.00000000E+00	 0.00000000E+00
					 0.00000000E+00	 0.00000000E+00	 0.00000000E+00	 0.00000000E+00	 0.00000000E+00	 0.00000000E+00
					 0.00000000E+00	 0.00000000E+00	 0.00000000E+00	 0.00000000E+00	 0.00000000E+00	 0.00000000E+00
					 0.00000000E+00	 0.00000000E+00	 0.00000000E+00	 0.00000000E+00	 0.00000000E+00	 0.00000000E+00
					 0.00000000E+00	 0.00000000E+00	 0.00000000E+00	 0.00000000E+00	 0.00000000E+00	 0.00000000E+00
					-3.50015000E-06	-3.89168000E-15	 1.23618000E-05	 3.50015000E+01	-3.89168000E-12	 1.23618000E-02
					-3.50015000E-06	 5.34425000E-06	 7.01536000E-06	 3.50015000E+01	 5.34425000E-03	 7.01536000E-03
					 0.00000000E+00	 0.00000000E+00	 0.00000000E+00	 0.00000000E+00	 0.00000000E+00	 0.00000000E+00
					 0.00000000E+00	 0.00000000E+00	 0.00000000E+00	 0.00000000E+00	 0.00000000E+00	 0.00000000E+00
					-3.50015000E-06	-5.34425000E-06	 7.01536000E-06	 3.50015000E+01	-5.34425000E-03	 7.01536000E-03
					-3.50015000E-06	-3.91278000E-15	 1.66347000E-06	 3.50015000E+01	-3.91279000E-12	 1.66347000E-03
					 0.00000000E+00	 0.00000000E+00	 0.00000000E+00	 0.00000000E+00	 0.00000000E+00	 0.00000000E+00
					 0.00000000E+00	 0.00000000E+00	 0.00000000E+00	 0.00000000E+00	 0.00000000E+00	 0.00000000E+00
				</DataArray>
			</PointData>
		</Piece>
	</UnstructuredGrid>
</VTKFile>