# vtk DataFile Version 3.0

ASCII
DATASET UNSTRUCTURED_GRID

POINTS 16 double
	 1.00000000E+00	 1.00000000E+00	-1.49012000E-08
	 1.00000000E+00	 0.00000000E+00	-1.49012000E-08
	 1.00000000E+00	 0.00000000E+00	 1.00000000E+00
	 1.00000000E+00	 1.00000000E+00	 1.00000000E+00
	-7.45058000E-09	 1.00000000E+00	-1.49012000E-08
	-7.45058000E-09	 0.00000000E+00	-1.49012000E-08
	-7.45058000E-09	 0.00000000E+00	 1.00000000E+00
	-7.45058000E-09	 1.00000000E+00	 1.00000000E+00
	 5.00000000E-01	 6.41421000E-01	 1.00000000E+00
	 6.41421000E-01	 5.00000000E-01	 1.00000000E+00
	 6.41421000E-01	 5.00000000E-01	 1.20000000E+00
	 5.00000000E-01	 6.41421000E-01	 1.20000000E+00
	 3.58579000E-01	 5.00000000E-01	 1.00000000E+00
	 5.00000000E-01	 3.58579000E-01	 1.00000000E+00
	 5.00000000E-01	 3.58579000E-01	 1.20000000E+00
	 3.58579000E-01	 5.00000000E-01	 1.20000000E+00

CELLS 2 18
	8 0 1 2 3 4 5 6 7 
	8 8 9 10 11 12 13 14 15 

CELL_TYPES 2
	12
	12

POINT_DATA 16
FIELD U 1
	U 3 16 double
		 0.00000000E+00	 0.00000000E+00	 0.00000000E+00
		 0.00000000E+00	 0.00000000E+00	 0.00000000E+00
		 3.79404000E-06	 2.92416000E-06	-1.72623000E-05
		 3.79405000E-06	 9.84682000E-06	-1.72623000E-05
		 0.00000000E+00	 0.00000000E+00	 0.00000000E+00
		 0.00000000E+00	 0.00000000E+00	 0.00000000E+00
		-3.79404000E-06	 2.92416000E-06	-1.72623000E-05
		-3.79406000E-06	 9.84682000E-06	-1.72623000E-05
		-1.33980000E-16	-6.68862000E-02	-2.72614000E-05
		 1.63820000E-05	-6.69078000E-02	-2.72614000E-05
		 2.77408000E-05	-6.68739000E-02	-1.27126000E-04
		 0.00000000E+00	-6.68274000E-02	-1.52484000E-04
		-1.63820000E-05	-6.69078000E-02	-2.72614000E-05
		 2.40453000E-16	-6.69417000E-02	-2.72614000E-05
		 0.00000000E+00	-6.68281000E-02	-7.31913000E-05
		-2.77408000E-05	-6.68739000E-02	-1.27126000E-04
FIELD S 1
	S 10 16 double
		-2.09137000E+00	-2.09136000E+00	-4.87960000E+00	 6.03484000E-06	 7.95250000E-01	 3.06422000E-01	 3.15487011E+00	-5.11945886E+00	-2.09137276E+00	-1.85149838E+00
		-2.09138000E+00	-2.09137000E+00	-4.87962000E+00	 1.79214000E-06	 2.36149000E-01	 3.06421000E-01	 2.86762806E+00	-4.93230008E+00	-2.09137546E+00	-2.03869446E+00
		 8.92466000E-01	 7.84974000E-01	-3.12157000E+00	 3.03769000E-06	 2.36154000E-01	 3.06428000E-01	 4.01765644E+00	-3.15888758E+00	 7.96366005E-01	 9.18391578E-01
		 8.92480000E-01	 7.84998000E-01	-3.12156000E+00	 7.27947000E-06	 7.95267000E-01	 3.06429000E-01	 4.22749068E+00	-3.29882985E+00	 8.67154553E-01	 9.87593296E-01
		-2.09137000E+00	-2.09136000E+00	-4.87960000E+00	-6.03484000E-06	 7.95250000E-01	-3.06422000E-01	 3.15487011E+00	-5.11945886E+00	-2.09137276E+00	-1.85149838E+00
		-2.09138000E+00	-2.09137000E+00	-4.87962000E+00	-1.79214000E-06	 2.36149000E-01	-3.06421000E-01	 2.86762806E+00	-4.93230008E+00	-2.09137546E+00	-2.03869446E+00
		 8.92466000E-01	 7.84974000E-01	-3.12157000E+00	-3.03240000E-06	 2.36154000E-01	-3.06428000E-01	 4.01765644E+00	-3.15888758E+00	 7.96366007E-01	 9.18391576E-01
		 8.92480000E-01	 7.84998000E-01	-3.12156000E+00	-7.27610000E-06	 7.95267000E-01	-3.06429000E-01	 4.22749068E+00	-3.29882985E+00	 8.67154556E-01	 9.87593293E-01
		-2.46143000E+01	-1.86727000E+01	-1.44286000E+02	 1.99740000E-12	 2.37218000E+01	 5.40167000E-11	 1.29444317E+02	-1.48616516E+02	-2.46143000E+01	-1.43421838E+01
		-3.97160000E+00	 9.00500000E+00	-1.03243000E+02	 3.52603000E+00	 1.36391000E+01	 4.58105000E+00	 1.09406308E+02	-1.05045428E+02	-4.85742076E+00	 1.16932490E+01
		-4.69304000E+00	-3.59707000E+01	-1.16939000E+02	-2.63930000E+01	-8.98006000E+00	-3.57490000E+00	 1.11519918E+02	-1.18314328E+02	-4.96492010E+01	 1.03607888E+01
		 1.95368000E+01	 4.10601000E+01	-1.13135000E+02	 9.40675000E-12	 9.24845000E+00	 6.53518000E-11	 1.45523865E+02	-1.13687730E+02	 1.95368000E+01	 4.16128304E+01
		-3.97160000E+00	 9.00500000E+00	-1.03243000E+02	-3.52603000E+00	 1.36391000E+01	-4.58105000E+00	 1.09406308E+02	-1.05045428E+02	-4.85742076E+00	 1.16932490E+01
		 3.39997000E+01	 5.40540000E+01	-2.17877000E+01	-1.07982000E-11	 4.58289000E+01	-9.70418000E-11	 1.04566010E+02	-4.33502842E+01	 3.39997000E+01	 7.56165842E+01
		-1.15960000E+01	-9.55889000E+01	-8.03568000E+01	 3.79588000E-11	 1.50199000E+01	-8.57076000E-11	 8.17571285E+01	-1.04813325E+02	-7.11323745E+01	-1.15960000E+01
		-4.69304000E+00	-3.59707000E+01	-1.16939000E+02	 2.63930000E+01	-8.98006000E+00	 3.57490000E+00	 1.11519918E+02	-1.18314328E+02	-4.96492010E+01	 1.03607888E+01
FIELD CONTACT 1
	CONTACT 6 16 double
		 0.00000000E+00	 0.00000000E+00	 0.00000000E+00	 0.00000000E+00	 0.00000000E+00	 0.00000000E+00
		 0.00000000E+00	 0.00000000E+00	 0.00000000E+00	 0.00000000E+00	 0.00000000E+00	 0.00000000E+00
		 0.00000000E+00	 0.00000000E+00	 0.00000000E+00	 0.00000000E+00	 0.00000000E+00	 0.00000000E+00
		 0.00000000E+00	 0.00000000E+00	 0.00000000E+00	 0.00000000E+00	 0.00000000E+00	 0.00000000E+00
		 0.00000000E+00	 0.00000000E+00	 0.00000000E+00	 0.00000000E+00	 0.00000000E+00	 0.00000000E+00
		 0.00000000E+00	 0.00000000E+00	 0.00000000E+00	 0.00000000E+00	 0.00000000E+00	 0.00000000E+00
		 0.00000000E+00	 0.00000000E+00	 0.00000000E+00	 0.00000000E+00	 0.00000000E+00	 0.00000000E+00
		 0.00000000E+00	 0.00000000E+00	 0.00000000E+00	 0.00000000E+00	 0.00000000E+00	 0.00000000E+00
		-9.99910000E-06	-8.92153000E-15	-6.68973000E-02	 9.99910000E+01	 4.63898000E-11	 1.29001000E+01
		-9.99910000E-06	 1.22076000E-05	-6.69136000E-02	 9.99910000E+01	-7.72034000E-03	 1.28975000E+01
		 0.00000000E+00	 0.00000000E+00	 0.00000000E+00	 0.00000000E+00	 0.00000000E+00	 0.00000000E+00
		 0.00000000E+00	 0.00000000E+00	 0.00000000E+00	 0.00000000E+00	 0.00000000E+00	 0.00000000E+00
		-9.99910000E-06	-1.22076000E-05	-6.69136000E-02	 9.99910000E+01	 7.72034000E-03	 1.28975000E+01
		-9.99910000E-06	-3.88511000E-14	-6.69400000E-02	 9.99910000E+01	-4.91135000E-11	 1.28692000E+01
		 0.00000000E+00	 0.00000000E+00	 0.00000000E+00	 0.00000000E+00	 0.00000000E+00	 0.00000000E+00
		 0.00000000E+00	 0.00000000E+00	 0.00000000E+00	 0.00000000E+00	 0.00000000E+00	 0.00000000E+00
