<?xml version="1.0"?>
<VTKFile type="UnstructuredGrid" version="0.1" byte_order="LittleEndian">
	<UnstructuredGrid>
		<Piece NumberOfPoints="16" NumberOfCells="2">
			<Points>
				<DataArray type="Float64" NumberOfComponents="3" format="ascii">
					 1.00000000E+00	 1.00000000E+00	-1.49012000E-08
					 1.00000000E+00	 0.00000000E+00	-1.49012000E-08
					 1.00000000E+00	 0.00000000E+00	 1.00000000E+00
					 1.00000000E+00	 1.00000000E+00	 1.00000000E+00
					-7.45058000E-09	 1.00000000E+00	-1.49012000E-08
					-7.45058000E-09	 0.00000000E+00	-1.49012000E-08
					-7.45058000E-09	 0.00000000E+00	 1.00000000E+00
					-7.45058000E-09	 1.00000000E+00	 1.00000000E+00
					 5.00000000E-01	 6.41421000E-01	 1.00000000E+00
					 6.41421000E-01	 5.00000000E-01	 1.00000000E+00
					 6.41421000E-01	 5.00000000E-01	 1.20000000E+00
					 5.00000000E-01	 6.41421000E-01	 1.20000000E+00
					 3.58579000E-01	 5.00000000E-01	 1.00000000E+00
					 5.00000000E-01	 3.58579000E-01	 1.00000000E+00
					 5.00000000E-01	 3.58579000E-01	 1.20000000E+00
					 3.58579000E-01	 5.00000000E-01	 1.20000000E+00
				</DataArray>
			</Points>
			<Cells>
				<DataArray type="Int32" Name="connectivity" format="ascii">
					0 1 2 3 4 5 6 7 8 9 10 11 12 13 14 15 
				</DataArray>
				<DataArray type="Int32" Name="offsets" format="ascii">
					8 16 
				</DataArray>
				<DataArray type="UInt8" Name="types" format="ascii">
					12 12 
				</DataArray>
			</Cells>
			<PointData>
				<DataArray type="Float32" Name="U" NumberOfComponents="3" ComponentName0="D1" ComponentName1="D2" ComponentName2="D3" format="ascii">
					 0.00000000E+00	 0.00000000E+00	 0.00000000E+00
					 0.00000000E+00	 0.00000000E+00	 0.00000000E+00
					 3.79314000E-06	 6.44300000E-06	-1.72622000E-05
					 3.79312000E-06	 1.33703000E-05	-1.72622000E-05
					 0.00000000E+00	 0.00000000E+00	 0.00000000E+00
					 0.00000000E+00	 0.00000000E+00	 0.00000000E+00
					-3.79314000E-06	 6.44300000E-06	-1.72622000E-05
					-3.79312000E-06	 1.33703000E-05	-1.72622000E-05
					 4.84283000E-17	-2.42257000E-02	-2.72605000E-05
					 1.42629000E-05	-2.42480000E-02	-2.72605000E-05
					 3.18922000E-05	-2.41955000E-02	-1.29633000E-04
					 0.00000000E+00	-2.41344000E-02	-1.68973000E-04
					-1.42629000E-05	-2.42480000E-02	-2.72605000E-05
					 3.02541000E-18	-2.42895000E-02	-2.72605000E-05
					 0.00000000E+00	-2.41133000E-02	-4.59527000E-05
					-3.18922000E-05	-2.41955000E-02	-1.29633000E-04
				</DataArray>
				<DataArray type="Float32" Name="S" NumberOfComponents="10" ComponentName0="xx" ComponentName1="yy" ComponentName2="zz" ComponentName3="xy" ComponentName4="yz" ComponentName5="zx" ComponentName6="Mises" ComponentName7="Min Principal" ComponentName8="Mid Principal" ComponentName9="Max Principal" format="ascii">
					-2.09136000E+00	-2.09133000E+00	-4.87957000E+00	 8.19226000E-06	 1.07981000E+00	 3.06347000E-01	 3.39907532E+00	-5.27525666E+00	-2.09136207E+00	-1.69564127E+00
					-2.09137000E+00	-2.09136000E+00	-4.87959000E+00	 3.94782000E-06	 5.20334000E-01	 3.06349000E-01	 2.97791709E+00	-5.00473591E+00	-2.09137088E+00	-1.96621321E+00
					 8.92524000E-01	 7.86070000E-01	-3.12121000E+00	 2.29753000E-06	 5.20345000E-01	 3.06355000E-01	 4.09731033E+00	-3.21180264E+00	 8.34619816E-01	 9.34566827E-01
					 8.92521000E-01	 7.86096000E-01	-3.12120000E+00	 6.54087000E-06	 1.07983000E+00	 3.06354000E-01	 4.41291050E+00	-3.42017471E+00	 8.81158179E-01	 1.09643353E+00
					-2.09136000E+00	-2.09133000E+00	-4.87957000E+00	-8.19226000E-06	 1.07981000E+00	-3.06347000E-01	 3.39907532E+00	-5.27525666E+00	-2.09136207E+00	-1.69564127E+00
					-2.09137000E+00	-2.09136000E+00	-4.87959000E+00	-3.94782000E-06	 5.20334000E-01	-3.06349000E-01	 2.97791709E+00	-5.00473591E+00	-2.09137088E+00	-1.96621321E+00
					 8.92524000E-01	 7.86070000E-01	-3.12121000E+00	-2.28833000E-06	 5.20345000E-01	-3.06355000E-01	 4.09731033E+00	-3.21180264E+00	 8.34619823E-01	 9.34566820E-01
					 8.92521000E-01	 7.86096000E-01	-3.12120000E+00	-6.53395000E-06	 1.07983000E+00	-3.06354000E-01	 4.41291050E+00	-3.42017471E+00	 8.81158184E-01	 1.09643353E+00
					-3.81922000E+01	-2.89507000E+01	-1.68702000E+02	-5.89023000E-12	 3.67943000E+01	-1.95302000E-11	 1.49618786E+02	-1.77797402E+02	-3.81922000E+01	-1.98552985E+01
					-6.17309000E+00	 1.39694000E+01	-1.05053000E+02	 5.47103000E+00	 2.11533000E+01	 7.10961000E+00	 1.17296490E+02	-1.09060766E+02	-7.53944461E+00	 1.93435204E+01
					-7.28211000E+00	-5.58244000E+01	-1.26298000E+02	-4.09516000E+01	-1.39312000E+01	-5.54621000E+00	 1.28255406E+02	-1.30613074E+02	-7.48728034E+01	 1.60813675E+01
					 3.03184000E+01	 6.37150000E+01	-1.20372000E+02	-3.01427000E-12	 1.43412000E+01	-1.40911000E-11	 1.71675527E+02	-1.21482544E+02	 3.03184000E+01	 6.48255440E+01
					-6.17309000E+00	 1.39694000E+01	-1.05053000E+02	-5.47103000E+00	 2.11533000E+01	-7.10961000E+00	 1.17296490E+02	-1.09060766E+02	-7.53944461E+00	 1.93435204E+01
					 5.27496000E+01	 8.38958000E+01	 2.13734000E+01	-9.39521000E-12	 7.11364000E+01	-1.23888000E-12	 1.34584410E+02	-2.50677168E+01	 5.27496000E+01	 1.30336917E+02
					-1.79831000E+01	-1.48258000E+02	-6.95075000E+01	 1.24880000E-12	 2.33145000E+01	 4.20955000E-12	 1.20601306E+02	-1.54642735E+02	-6.31227650E+01	-1.79831000E+01
					-7.28211000E+00	-5.58244000E+01	-1.26298000E+02	 4.09516000E+01	-1.39312000E+01	 5.54621000E+00	 1.28255406E+02	-1.30613074E+02	-7.48728034E+01	 1.60813675E+01
				</DataArray>
				<DataArray type="Float32" Name="CONTACT" NumberOfComponents="6" ComponentName0="COPEN" ComponentName1="CSLIP1" ComponentName2="CSLIP2" ComponentName3="CPRESS" ComponentName4="CSHEAR1" ComponentName5="CSHEAR2" format="ascii">
					 0.00000000E+00	 0.00000000E+00	 0.00000000E+00	 0.00000000E+00	 0.00000000E+00	 0.00000000E+00
					 0.00000000E+00	 0.00000000E+00	 0.00000000E+00	 0.00000000E+00	 0.00000000E+00	 0.00000000E+00
					 0.00000000E+00	 0.00000000E+00	 0.00000000E+00	 0.00000000E+00	 0.00000000E+00	 0.00000000E+00
					 0.00000000E+00	 0.00000000E+00	 0.00000000E+00	 0.00000000E+00	 0.00000000E+00	 0.00000000E+00
					 0.00000000E+00	 0.00000000E+00	 0.00000000E+00	 0.00000000E+00	 0.00000000E+00	 0.00000000E+00
					 0.00000000E+00	 0.00000000E+00	 0.00000000E+00	 0.00000000E+00	 0.00000000E+00	 0.00000000E+00
					 0.00000000E+00	 0.00000000E+00	 0.00000000E+00	 0.00000000E+00	 0.00000000E+00	 0.00000000E+00
					 0.00000000E+00	 0.00000000E+00	 0.00000000E+00	 0.00000000E+00	 0.00000000E+00	 0.00000000E+00
					-9.99824000E-06	-1.61893000E-14	-2.42407000E-02	 9.99824000E+01	 1.29275000E-11	 1.99965000E+01
					-9.99824000E-06	 1.05180000E-05	-2.42576000E-02	 9.99824000E+01	-2.75569000E-03	 1.99965000E+01
					 0.00000000E+00	 0.00000000E+00	 0.00000000E+00	 0.00000000E+00	 0.00000000E+00	 0.00000000E+00
					 0.00000000E+00	 0.00000000E+00	 0.00000000E+00	 0.00000000E+00	 0.00000000E+00	 0.00000000E+00
					-9.99824000E-06	-1.05180000E-05	-2.42576000E-02	 9.99824000E+01	 2.75569000E-03	 1.99965000E+01
					-9.99824000E-06	-7.26691000E-14	-2.42900000E-02	 9.99824000E+01	-2.30329000E-11	 1.99965000E+01
					 0.00000000E+00	 0.00000000E+00	 0.00000000E+00	 0.00000000E+00	 0.00000000E+00	 0.00000000E+00
					 0.00000000E+00	 0.00000000E+00	 0.00000000E+00	 0.00000000E+00	 0.00000000E+00	 0.00000000E+00
				</DataArray>
			</PointData>
		</Piece>
	</UnstructuredGrid>
</VTKFile>