<?xml version="1.0"?>
<VTKFile type="UnstructuredGrid" version="0.1" byte_order="LittleEndian">
	<UnstructuredGrid>
		<Piece NumberOfPoints="16" NumberOfCells="2">
			<Points>
				<DataArray type="Float64" NumberOfComponents="3" format="ascii">
					 1.00000000E+00	 1.00000000E+00	-1.49012000E-08
					 1.00000000E+00	 0.00000000E+00	-1.49012000E-08
					 1.00000000E+00	 0.00000000E+00	 1.00000000E+00
					 1.00000000E+00	 1.00000000E+00	 1.00000000E+00
					-7.45058000E-09	 1.00000000E+00	-1.49012000E-08
					-7.45058000E-09	 0.00000000E+00	-1.49012000E-08
					-7.45058000E-09	 0.00000000E+00	 1.00000000E+00
					-7.45058000E-09	 1.00000000E+00	 1.00000000E+00
					 5.00000000E-01	 6.41421000E-01	 1.00000000E+00
					 6.41421000E-01	 5.00000000E-01	 1.00000000E+00
					 6.41421000E-01	 5.00000000E-01	 1.20000000E+00
					 5.00000000E-01	 6.41421000E-01	 1.20000000E+00
					 3.58579000E-01	 5.00000000E-01	 1.00000000E+00
					 5.00000000E-01	 3.58579000E-01	 1.00000000E+00
					 5.00000000E-01	 3.58579000E-01	 1.20000000E+00
					 3.58579000E-01	 5.00000000E-01	 1.20000000E+00
				</DataArray>
			</Points>
			<Cells>
				<DataArray type="Int32" Name="connectivity" format="ascii">
					0 1 2 3 4 5 6 7 8 9 10 11 12 13 14 15 
				</DataArray>
				<DataArray type="Int32" Name="offsets" format="ascii">
					8 16 
				</DataArray>
				<DataArray type="UInt8" Name="types" format="ascii">
					12 12 
				</DataArray>
			</Cells>
			<PointData>
				<DataArray type="Float32" Name="U" NumberOfComponents="3" ComponentName0="D1" ComponentName1="D2" ComponentName2="D3" format="ascii">
					 0.00000000E+00	 0.00000000E+00	 0.00000000E+00
					 0.00000000E+00	 0.00000000E+00	 0.00000000E+00
					 3.61691000E-06	 2.43750000E-06	-1.74302000E-05
					 3.61690000E-06	 1.04980000E-05	-1.74302000E-05
					 0.00000000E+00	 0.00000000E+00	 0.00000000E+00
					 0.00000000E+00	 0.00000000E+00	 0.00000000E+00
					-3.61691000E-06	 2.43750000E-06	-1.74302000E-05
					-3.61690000E-06	 1.04980000E-05	-1.74302000E-05
					 2.10358000E-16	 9.29407000E-02	-2.74290000E-05
					 1.63270000E-05	 9.29191000E-02	-2.74290000E-05
					 2.78401000E-05	 9.29533000E-02	-1.27356000E-04
					 0.00000000E+00	 9.30002000E-02	-1.53034000E-04
					-1.63270000E-05	 9.29191000E-02	-2.74290000E-05
					-1.69797000E-16	 9.28850000E-02	-2.74290000E-05
					 0.00000000E+00	 9.30000000E-02	-7.27201000E-05
					-2.78401000E-05	 9.29533000E-02	-1.27356000E-04
				</DataArray>
				<DataArray type="Float32" Name="S" NumberOfComponents="10" ComponentName0="xx" ComponentName1="yy" ComponentName2="zz" ComponentName3="xy" ComponentName4="yz" ComponentName5="zx" ComponentName6="Mises" ComponentName7="Min Principal" ComponentName8="Mid Principal" ComponentName9="Max Principal" format="ascii">
					-2.11171000E+00	-2.11170000E+00	-4.92706000E+00	 6.13352000E-06	 8.47840000E-01	 2.92115000E-01	 3.21538727E+00	-5.18842946E+00	-2.11171272E+00	-1.85032782E+00
					-2.11172000E+00	-2.11172000E+00	-4.92708000E+00	 1.42415000E-06	 1.96844000E-01	 2.92115000E-01	 2.88070966E+00	-4.97048293E+00	-2.11172132E+00	-2.06831575E+00
					 9.09831000E-01	 1.04337000E+00	-3.07410000E+00	 8.26245000E-07	 1.96849000E-01	 2.92122000E-01	 4.09802433E+00	-3.10469818E+00	 9.29476106E-01	 1.05432308E+00
					 9.09833000E-01	 1.04339000E+00	-3.07409000E+00	 5.53710000E-06	 8.47860000E-01	 2.92121000E-01	 4.33983462E+00	-3.26153414E+00	 9.18580869E-01	 1.22208627E+00
					-2.11171000E+00	-2.11170000E+00	-4.92706000E+00	-6.13352000E-06	 8.47840000E-01	-2.92115000E-01	 3.21538727E+00	-5.18842946E+00	-2.11171272E+00	-1.85032782E+00
					-2.11172000E+00	-2.11172000E+00	-4.92708000E+00	-1.42415000E-06	 1.96844000E-01	-2.92115000E-01	 2.88070966E+00	-4.97048293E+00	-2.11172132E+00	-2.06831575E+00
					 9.09831000E-01	 1.04337000E+00	-3.07410000E+00	-8.22419000E-07	 1.96849000E-01	-2.92122000E-01	 4.09802433E+00	-3.10469818E+00	 9.29476107E-01	 1.05432308E+00
					 9.09833000E-01	 1.04339000E+00	-3.07409000E+00	-5.53041000E-06	 8.47860000E-01	-2.92121000E-01	 4.33983462E+00	-3.26153414E+00	 9.18580871E-01	 1.22208627E+00
					-2.49368000E+01	-1.89072000E+01	-1.44853000E+02	-1.96548000E-11	 2.40239000E+01	-8.48237000E-11	 1.29887417E+02	-1.49279906E+02	-2.49368000E+01	-1.44802936E+01
					-4.02997000E+00	 9.12860000E+00	-1.03289000E+02	 3.57324000E+00	 1.38137000E+01	 4.64329000E+00	 1.09576683E+02	-1.05134597E+02	-4.92693183E+00	 1.18711586E+01
					-4.75350000E+00	-3.64404000E+01	-1.17163000E+02	-2.67337000E+01	-9.09645000E+00	-3.62159000E+00	 1.11846783E+02	-1.18582451E+02	-5.02678938E+01	 1.04934445E+01
					 1.97940000E+01	 4.15898000E+01	-1.13299000E+02	-2.75847000E-11	 9.36817000E+00	-8.12141000E-11	 1.46126520E+02	-1.13863559E+02	 1.97940000E+01	 4.21543591E+01
					-4.02997000E+00	 9.12860000E+00	-1.03289000E+02	-3.57324000E+00	 1.38137000E+01	-4.64329000E+00	 1.09576683E+02	-1.05134597E+02	-4.92693183E+00	 1.18711586E+01
					 3.44371000E+01	 5.47685000E+01	-2.07719000E+01	-1.46360000E-11	 4.64247000E+01	 6.84939000E-11	 1.05117240E+02	-4.28501818E+01	 3.44371000E+01	 7.68467818E+01
					-1.17424000E+01	-9.68242000E+01	-8.01014000E+01	-8.81414000E-12	 1.52149000E+01	 7.21285000E-11	 8.24029026E+01	-1.05823854E+02	-7.11017461E+01	-1.17424000E+01
					-4.75350000E+00	-3.64404000E+01	-1.17163000E+02	 2.67337000E+01	-9.09645000E+00	 3.62159000E+00	 1.11846783E+02	-1.18582451E+02	-5.02678938E+01	 1.04934445E+01
				</DataArray>
				<DataArray type="Float32" Name="CONTACT" NumberOfComponents="6" ComponentName0="COPEN" ComponentName1="CSLIP1" ComponentName2="CSLIP2" ComponentName3="CPRESS" ComponentName4="CSHEAR1" ComponentName5="CSHEAR2" format="ascii">
					 0.00000000E+00	 0.00000000E+00	 0.00000000E+00	 0.00000000E+00	 0.00000000E+00	 0.00000000E+00
					 0.00000000E+00	 0.00000000E+00	 0.00000000E+00	 0.00000000E+00	 0.00000000E+00	 0.00000000E+00
					 0.00000000E+00	 0.00000000E+00	 0.00000000E+00	 0.00000000E+00	 0.00000000E+00	 0.00000000E+00
					 0.00000000E+00	 0.00000000E+00	 0.00000000E+00	 0.00000000E+00	 0.00000000E+00	 0.00000000E+00
					 0.00000000E+00	 0.00000000E+00	 0.00000000E+00	 0.00000000E+00	 0.00000000E+00	 0.00000000E+00
					 0.00000000E+00	 0.00000000E+00	 0.00000000E+00	 0.00000000E+00	 0.00000000E+00	 0.00000000E+00
					 0.00000000E+00	 0.00000000E+00	 0.00000000E+00	 0.00000000E+00	 0.00000000E+00	 0.00000000E+00
					 0.00000000E+00	 0.00000000E+00	 0.00000000E+00	 0.00000000E+00	 0.00000000E+00	 0.00000000E+00
					-9.99879000E-06	-1.77784000E-15	 9.29280000E-02	 9.99879000E+01	-7.07409000E-12	 1.30531000E+01
					-9.99879000E-06	 1.22037000E-05	 9.29118000E-02	 9.99879000E+01	 2.31332000E-03	 1.30536000E+01
					 0.00000000E+00	 0.00000000E+00	 0.00000000E+00	 0.00000000E+00	 0.00000000E+00	 0.00000000E+00
					 0.00000000E+00	 0.00000000E+00	 0.00000000E+00	 0.00000000E+00	 0.00000000E+00	 0.00000000E+00
					-9.99879000E-06	-1.22037000E-05	 9.29118000E-02	 9.99879000E+01	-2.31332000E-03	 1.30536000E+01
					-9.99879000E-06	-3.90044000E-14	 9.28855000E-02	 9.99879000E+01	 2.33490000E-12	 1.30595000E+01
					 0.00000000E+00	 0.00000000E+00	 0.00000000E+00	 0.00000000E+00	 0.00000000E+00	 0.00000000E+00
					 0.00000000E+00	 0.00000000E+00	 0.00000000E+00	 0.00000000E+00	 0.00000000E+00	 0.00000000E+00
				</DataArray>
			</PointData>
		</Piece>
	</UnstructuredGrid>
</VTKFile>