# vtk DataFile Version 3.0

ASCII
DATASET UNSTRUCTURED_GRID

POINTS 16 double
	 1.00000000E+00	 1.00000000E+00	-1.49012000E-08
	 1.00000000E+00	 0.00000000E+00	-1.49012000E-08
	 1.00000000E+00	 0.00000000E+00	 1.00000000E+00
	 1.00000000E+00	 1.00000000E+00	 1.00000000E+00
	-7.45058000E-09	 1.00000000E+00	-1.49012000E-08
	-7.45058000E-09	 0.00000000E+00	-1.49012000E-08
	-7.45058000E-09	 0.00000000E+00	 1.00000000E+00
	-7.45058000E-09	 1.00000000E+00	 1.00000000E+00
	 5.00000000E-01	 6.41421000E-01	 1.00000000E+00
	 6.41421000E-01	 5.00000000E-01	 1.00000000E+00
	 6.41421000E-01	 5.00000000E-01	 1.20000000E+00
	 5.00000000E-01	 6.41421000E-01	 1.20000000E+00
	 3.58579000E-01	 5.00000000E-01	 1.00000000E+00
	 5.00000000E-01	 3.58579000E-01	 1.00000000E+00
	 5.00000000E-01	 3.58579000E-01	 1.20000000E+00
	 3.58579000E-01	 5.00000000E-01	 1.20000000E+00

CELLS 2 18
	8 0 1 2 3 4 5 6 7 
	8 8 9 10 11 12 13 14 15 

CELL_TYPES 2
	12
	12

POINT_DATA 16
FIELD U 1
	U 3 16 double
		 0.00000000E+00	 0.00000000E+00	 0.00000000E+00
		 0.00000000E+00	 0.00000000E+00	 0.00000000E+00
		 3.63633000E-06	 5.93944000E-06	-1.74108000E-05
		 3.63630000E-06	 1.38738000E-05	-1.74108000E-05
		 0.00000000E+00	 0.00000000E+00	 0.00000000E+00
		 0.00000000E+00	 0.00000000E+00	 0.00000000E+00
		-3.63633000E-06	 5.93944000E-06	-1.74108000E-05
		-3.63630000E-06	 1.38738000E-05	-1.74108000E-05
		-5.74747000E-17	 7.57743000E-02	-2.74091000E-05
		 1.42615000E-05	 7.57520000E-02	-2.74091000E-05
		 3.18927000E-05	 7.58045000E-02	-1.29782000E-04
		 0.00000000E+00	 7.58656000E-02	-1.69121000E-04
		-1.42615000E-05	 7.57520000E-02	-2.74091000E-05
		 4.36015000E-17	 7.57105000E-02	-2.74091000E-05
		 0.00000000E+00	 7.58867000E-02	-4.61007000E-05
		-3.18927000E-05	 7.58045000E-02	-1.29782000E-04
FIELD S 1
	S 10 16 double
		-2.10936000E+00	-2.10934000E+00	-4.92158000E+00	 8.14935000E-06	 1.12047000E+00	 2.93682000E-01	 3.45452515E+00	-5.33723783E+00	-2.10936271E+00	-1.69367946E+00
		-2.10937000E+00	-2.10937000E+00	-4.92160000E+00	 3.48883000E-06	 4.79665000E-01	 2.93684000E-01	 2.97617607E+00	-5.02991158E+00	-2.10937311E+00	-2.00105531E+00
		 9.07874000E-01	 1.01477000E+00	-3.07921000E+00	 1.39898000E-06	 4.79676000E-01	 2.93690000E-01	 4.15734261E+00	-3.15560877E+00	 9.21225125E-01	 1.07781765E+00
		 9.07869000E-01	 1.01480000E+00	-3.07919000E+00	 6.06031000E-06	 1.12050000E+00	 2.93688000E-01	 4.51217604E+00	-3.38466373E+00	 9.13144237E-01	 1.31499849E+00
		-2.10936000E+00	-2.10934000E+00	-4.92158000E+00	-8.14935000E-06	 1.12047000E+00	-2.93682000E-01	 3.45452515E+00	-5.33723783E+00	-2.10936271E+00	-1.69367946E+00
		-2.10937000E+00	-2.10937000E+00	-4.92160000E+00	-3.48883000E-06	 4.79665000E-01	-2.93684000E-01	 2.97617607E+00	-5.02991158E+00	-2.10937311E+00	-2.00105531E+00
		 9.07874000E-01	 1.01477000E+00	-3.07921000E+00	-1.39441000E-06	 4.79676000E-01	-2.93690000E-01	 4.15734261E+00	-3.15560877E+00	 9.21225127E-01	 1.07781765E+00
		 9.07869000E-01	 1.01480000E+00	-3.07919000E+00	-6.05422000E-06	 1.12050000E+00	-2.93688000E-01	 4.51217604E+00	-3.38466373E+00	 9.13144239E-01	 1.31499849E+00
		-3.81940000E+01	-2.89504000E+01	-1.68702000E+02	-3.06525000E-12	 3.67939000E+01	 2.31640000E-11	 1.49617911E+02	-1.77797198E+02	-3.81940000E+01	-1.98552021E+01
		-6.17555000E+00	 1.39690000E+01	-1.05055000E+02	 5.47102000E+00	 2.11533000E+01	 7.11037000E+00	 1.17297422E+02	-1.09062812E+02	-7.54174007E+00	 1.93430017E+01
		-7.28148000E+00	-5.58247000E+01	-1.26299000E+02	-4.09515000E+01	-1.39311000E+01	-5.54601000E+00	 1.28256376E+02	-1.30613904E+02	-7.48729613E+01	 1.60816849E+01
		 3.03196000E+01	 6.37153000E+01	-1.20371000E+02	-3.44760000E-12	 1.43415000E+01	 2.31399000E-11	 1.71675227E+02	-1.21481594E+02	 3.03196000E+01	 6.48258943E+01
		-6.17555000E+00	 1.39690000E+01	-1.05055000E+02	-5.47102000E+00	 2.11533000E+01	-7.11037000E+00	 1.17297422E+02	-1.09062812E+02	-7.54174007E+00	 1.93430017E+01
		 5.27477000E+01	 8.38960000E+01	 2.13735000E+01	 4.25246000E-14	 7.11367000E+01	-1.75968000E-11	 1.34584918E+02	-2.50678615E+01	 5.27477000E+01	 1.30337362E+02
		-1.79818000E+01	-1.48258000E+02	-6.95063000E+01	 1.01111000E-11	 2.33142000E+01	-1.76473000E-11	 1.20602247E+02	-1.54642498E+02	-6.31218016E+01	-1.79818000E+01
		-7.28148000E+00	-5.58247000E+01	-1.26299000E+02	 4.09515000E+01	-1.39311000E+01	 5.54601000E+00	 1.28256376E+02	-1.30613904E+02	-7.48729613E+01	 1.60816849E+01
FIELD CONTACT 1
	CONTACT 6 16 double
		 0.00000000E+00	 0.00000000E+00	 0.00000000E+00	 0.00000000E+00	 0.00000000E+00	 0.00000000E+00
		 0.00000000E+00	 0.00000000E+00	 0.00000000E+00	 0.00000000E+00	 0.00000000E+00	 0.00000000E+00
		 0.00000000E+00	 0.00000000E+00	 0.00000000E+00	 0.00000000E+00	 0.00000000E+00	 0.00000000E+00
		 0.00000000E+00	 0.00000000E+00	 0.00000000E+00	 0.00000000E+00	 0.00000000E+00	 0.00000000E+00
		 0.00000000E+00	 0.00000000E+00	 0.00000000E+00	 0.00000000E+00	 0.00000000E+00	 0.00000000E+00
		 0.00000000E+00	 0.00000000E+00	 0.00000000E+00	 0.00000000E+00	 0.00000000E+00	 0.00000000E+00
		 0.00000000E+00	 0.00000000E+00	 0.00000000E+00	 0.00000000E+00	 0.00000000E+00	 0.00000000E+00
		 0.00000000E+00	 0.00000000E+00	 0.00000000E+00	 0.00000000E+00	 0.00000000E+00	 0.00000000E+00
		-9.99824000E-06	 7.06234000E-15	 7.57584000E-02	 9.99824000E+01	 1.26558000E-13	 1.99965000E+01
		-9.99824000E-06	 1.05523000E-05	 7.57417000E-02	 9.99824000E+01	 1.47122000E-03	 1.99965000E+01
		 0.00000000E+00	 0.00000000E+00	 0.00000000E+00	 0.00000000E+00	 0.00000000E+00	 0.00000000E+00
		 0.00000000E+00	 0.00000000E+00	 0.00000000E+00	 0.00000000E+00	 0.00000000E+00	 0.00000000E+00
		-9.99824000E-06	-1.05523000E-05	 7.57417000E-02	 9.99824000E+01	-1.47122000E-03	 1.99965000E+01
		-9.99824000E-06	-3.02039000E-14	 7.57094000E-02	 9.99824000E+01	-9.90855000E-13	 1.99965000E+01
		 0.00000000E+00	 0.00000000E+00	 0.00000000E+00	 0.00000000E+00	 0.00000000E+00	 0.00000000E+00
		 0.00000000E+00	 0.00000000E+00	 0.00000000E+00	 0.00000000E+00	 0.00000000E+00	 0.00000000E+00
