# vtk DataFile Version 3.0

ASCII
DATASET UNSTRUCTURED_GRID

POINTS 16 double
	 1.00000000E+00	 1.00000000E+00	-1.49012000E-08
	 1.00000000E+00	 0.00000000E+00	-1.49012000E-08
	 1.00000000E+00	 0.00000000E+00	 1.00000000E+00
	 1.00000000E+00	 1.00000000E+00	 1.00000000E+00
	-7.45058000E-09	 1.00000000E+00	-1.49012000E-08
	-7.45058000E-09	 0.00000000E+00	-1.49012000E-08
	-7.45058000E-09	 0.00000000E+00	 1.00000000E+00
	-7.45058000E-09	 1.00000000E+00	 1.00000000E+00
	 5.00000000E-01	 6.41421000E-01	 1.00000000E+00
	 6.41421000E-01	 5.00000000E-01	 1.00000000E+00
	 6.41421000E-01	 5.00000000E-01	 1.20000000E+00
	 5.00000000E-01	 6.41421000E-01	 1.20000000E+00
	 3.58579000E-01	 5.00000000E-01	 1.00000000E+00
	 5.00000000E-01	 3.58579000E-01	 1.00000000E+00
	 5.00000000E-01	 3.58579000E-01	 1.20000000E+00
	 3.58579000E-01	 5.00000000E-01	 1.20000000E+00

CELLS 2 18
	8 0 1 2 3 4 5 6 7 
	8 8 9 10 11 12 13 14 15 

CELL_TYPES 2
	12
	12

POINT_DATA 16
FIELD U 1
	U 3 16 double
		 0.00000000E+00	 0.00000000E+00	 0.00000000E+00
		 0.00000000E+00	 0.00000000E+00	 0.00000000E+00
		 3.59197000E-06	 3.83149000E-06	-1.74534000E-05
		 3.59195000E-06	 1.20515000E-05	-1.74534000E-05
		 0.00000000E+00	 0.00000000E+00	 0.00000000E+00
		 0.00000000E+00	 0.00000000E+00	 0.00000000E+00
		-3.59197000E-06	 3.83149000E-06	-1.74534000E-05
		-3.59195000E-06	 1.20515000E-05	-1.74534000E-05
		 1.79140000E-16	 9.59179000E-02	-2.74519000E-05
		 1.54418000E-05	 9.58960000E-02	-2.74519000E-05
		 2.95768000E-05	 9.59381000E-02	-1.28427000E-04
		 0.00000000E+00	 9.59911000E-02	-1.59959000E-04
		-1.54418000E-05	 9.58960000E-02	-2.74519000E-05
		-1.90541000E-16	 9.58588000E-02	-2.74519000E-05
		 0.00000000E+00	 9.60000000E-02	-6.13431000E-05
		-2.95768000E-05	 9.59381000E-02	-1.28427000E-04
FIELD S 1
	S 10 16 double
		-2.11452000E+00	-2.11451000E+00	-4.93362000E+00	 6.99260000E-06	 9.73304000E-01	 2.90100000E-01	 3.32291876E+00	-5.26139715E+00	-2.11452301E+00	-1.78672984E+00
		-2.11453000E+00	-2.11453000E+00	-4.93364000E+00	 2.22317000E-06	 3.09424000E-01	 2.90101000E-01	 2.91326048E+00	-4.99607242E+00	-2.11453222E+00	-2.05209536E+00
		 9.12244000E-01	 1.07961000E+00	-3.06738000E+00	 9.56491000E-07	 3.09431000E-01	 2.90107000E-01	 4.13173101E+00	-3.11114551E+00	 9.30384497E-01	 1.10523502E+00
		 9.12243000E-01	 1.07964000E+00	-3.06737000E+00	 5.72763000E-06	 9.73327000E-01	 2.90106000E-01	 4.43013515E+00	-3.30347341E+00	 9.20700574E-01	 1.30728584E+00
		-2.11452000E+00	-2.11451000E+00	-4.93362000E+00	-6.99260000E-06	 9.73304000E-01	-2.90100000E-01	 3.32291876E+00	-5.26139715E+00	-2.11452301E+00	-1.78672984E+00
		-2.11453000E+00	-2.11453000E+00	-4.93364000E+00	-2.22317000E-06	 3.09424000E-01	-2.90101000E-01	 2.91326048E+00	-4.99607242E+00	-2.11453222E+00	-2.05209536E+00
		 9.12244000E-01	 1.07961000E+00	-3.06738000E+00	-9.52218000E-07	 3.09431000E-01	-2.90107000E-01	 4.13173101E+00	-3.11114551E+00	 9.30384498E-01	 1.10523502E+00
		 9.12243000E-01	 1.07964000E+00	-3.06737000E+00	-5.72006000E-06	 9.73327000E-01	-2.90106000E-01	 4.43013515E+00	-3.30347341E+00	 9.20700576E-01	 1.30728584E+00
		-3.06182000E+01	-2.32122000E+01	-1.55073000E+02	-1.84703000E-11	 2.94969000E+01	-7.22352000E-11	 1.38115023E+02	-1.61370605E+02	-3.06182000E+01	-1.69145947E+01
		-4.94891000E+00	 1.12040000E+01	-1.04044000E+02	 4.38668000E+00	 1.69596000E+01	 5.70060000E+00	 1.12692196E+02	-1.06735694E+02	-6.04753980E+00	 1.49943241E+01
		-5.83688000E+00	-4.47468000E+01	-1.21078000E+02	-3.28265000E+01	-1.11685000E+01	-4.44641000E+00	 1.18223221E+02	-1.23460158E+02	-6.10892284E+01	 1.28877066E+01
		 2.43045000E+01	 5.10707000E+01	-1.16330000E+02	-2.39118000E-11	 1.15001000E+01	-7.25001000E-11	 1.57020700E+02	-1.17116341E+02	 2.43045000E+01	 5.18570406E+01
		-4.94891000E+00	 1.12040000E+01	-1.04044000E+02	-4.38668000E+00	 1.69596000E+01	-5.70060000E+00	 1.12692196E+02	-1.06735694E+02	-6.04753980E+00	 1.49943241E+01
		 4.22844000E+01	 6.72503000E+01	-2.71227000E+00	-1.59527000E-11	 5.70127000E+01	 7.68739000E-11	 1.16287242E+02	-3.46199846E+01	 4.22844000E+01	 9.91580146E+01
		-1.44168000E+01	-1.18870000E+02	-7.55624000E+01	-1.83117000E-11	 1.86851000E+01	 7.66287000E-11	 9.64873084E+01	-1.25817249E+02	-6.86151508E+01	-1.44168000E+01
		-5.83688000E+00	-4.47468000E+01	-1.21078000E+02	 3.28265000E+01	-1.11685000E+01	 4.44641000E+00	 1.18223221E+02	-1.23460158E+02	-6.10892284E+01	 1.28877066E+01
FIELD CONTACT 1
	CONTACT 6 16 double
		 0.00000000E+00	 0.00000000E+00	 0.00000000E+00	 0.00000000E+00	 0.00000000E+00	 0.00000000E+00
		 0.00000000E+00	 0.00000000E+00	 0.00000000E+00	 0.00000000E+00	 0.00000000E+00	 0.00000000E+00
		 0.00000000E+00	 0.00000000E+00	 0.00000000E+00	 0.00000000E+00	 0.00000000E+00	 0.00000000E+00
		 0.00000000E+00	 0.00000000E+00	 0.00000000E+00	 0.00000000E+00	 0.00000000E+00	 0.00000000E+00
		 0.00000000E+00	 0.00000000E+00	 0.00000000E+00	 0.00000000E+00	 0.00000000E+00	 0.00000000E+00
		 0.00000000E+00	 0.00000000E+00	 0.00000000E+00	 0.00000000E+00	 0.00000000E+00	 0.00000000E+00
		 0.00000000E+00	 0.00000000E+00	 0.00000000E+00	 0.00000000E+00	 0.00000000E+00	 0.00000000E+00
		 0.00000000E+00	 0.00000000E+00	 0.00000000E+00	 0.00000000E+00	 0.00000000E+00	 0.00000000E+00
		-9.99855000E-06	-7.65610000E-15	 9.59037000E-02	 9.99855000E+01	-1.29523000E-11	 1.60287000E+01
		-9.99855000E-06	 1.15035000E-05	 9.58873000E-02	 9.99855000E+01	 1.61307000E-03	 1.60290000E+01
		 0.00000000E+00	 0.00000000E+00	 0.00000000E+00	 0.00000000E+00	 0.00000000E+00	 0.00000000E+00
		 0.00000000E+00	 0.00000000E+00	 0.00000000E+00	 0.00000000E+00	 0.00000000E+00	 0.00000000E+00
		-9.99855000E-06	-1.15035000E-05	 9.58873000E-02	 9.99855000E+01	-1.61307000E-03	 1.60290000E+01
		-9.99855000E-06	-4.94947000E-14	 9.58584000E-02	 9.99855000E+01	-8.15547000E-12	 1.60324000E+01
		 0.00000000E+00	 0.00000000E+00	 0.00000000E+00	 0.00000000E+00	 0.00000000E+00	 0.00000000E+00
		 0.00000000E+00	 0.00000000E+00	 0.00000000E+00	 0.00000000E+00	 0.00000000E+00	 0.00000000E+00
