# vtk DataFile Version 3.0

ASCII
DATASET UNSTRUCTURED_GRID

POINTS 16 double
	 1.00000000E+00	 1.00000000E+00	-1.49012000E-08
	 1.00000000E+00	 0.00000000E+00	-1.49012000E-08
	 1.00000000E+00	 0.00000000E+00	 1.00000000E+00
	 1.00000000E+00	 1.00000000E+00	 1.00000000E+00
	-7.45058000E-09	 1.00000000E+00	-1.49012000E-08
	-7.45058000E-09	 0.00000000E+00	-1.49012000E-08
	-7.45058000E-09	 0.00000000E+00	 1.00000000E+00
	-7.45058000E-09	 1.00000000E+00	 1.00000000E+00
	 5.00000000E-01	 6.41421000E-01	 1.00000000E+00
	 6.41421000E-01	 5.00000000E-01	 1.00000000E+00
	 6.41421000E-01	 5.00000000E-01	 1.20000000E+00
	 5.00000000E-01	 6.41421000E-01	 1.20000000E+00
	 3.58579000E-01	 5.00000000E-01	 1.00000000E+00
	 5.00000000E-01	 3.58579000E-01	 1.00000000E+00
	 5.00000000E-01	 3.58579000E-01	 1.20000000E+00
	 3.58579000E-01	 5.00000000E-01	 1.20000000E+00

CELLS 2 18
	8 0 1 2 3 4 5 6 7 
	8 8 9 10 11 12 13 14 15 

CELL_TYPES 2
	12
	12

POINT_DATA 16
FIELD U 1
	U 3 16 double
		 0.00000000E+00	 0.00000000E+00	 0.00000000E+00
		 0.00000000E+00	 0.00000000E+00	 0.00000000E+00
		 3.59613000E-06	 5.81038000E-06	-1.74489000E-05
		 3.59610000E-06	 1.40028000E-05	-1.74489000E-05
		 0.00000000E+00	 0.00000000E+00	 0.00000000E+00
		 0.00000000E+00	 0.00000000E+00	 0.00000000E+00
		-3.59613000E-06	 5.81038000E-06	-1.74489000E-05
		-3.59610000E-06	 1.40028000E-05	-1.74489000E-05
		 7.12300000E-17	 9.98876000E-02	-2.74471000E-05
		 1.42618000E-05	 9.98653000E-02	-2.74471000E-05
		 3.18926000E-05	 9.99177000E-02	-1.29820000E-04
		 0.00000000E+00	 9.99788000E-02	-1.69159000E-04
		-1.42618000E-05	 9.98653000E-02	-2.74471000E-05
		-7.35525000E-17	 9.98238000E-02	-2.74471000E-05
		 0.00000000E+00	 1.00000000E-01	-4.61389000E-05
		-3.18926000E-05	 9.99177000E-02	-1.29820000E-04
FIELD S 1
	S 10 16 double
		-2.11398000E+00	-2.11395000E+00	-4.93235000E+00	 8.13421000E-06	 1.13090000E+00	 2.90435000E-01	 3.46888396E+00	-5.35321313E+00	-2.11398206E+00	-1.69308480E+00
		-2.11399000E+00	-2.11399000E+00	-4.93237000E+00	 3.37529000E-06	 4.69241000E-01	 2.90437000E-01	 2.97605244E+00	-5.03657252E+00	-2.11399302E+00	-2.00978446E+00
		 9.11802000E-01	 1.07338000E+00	-3.06844000E+00	 1.14495000E-06	 4.69253000E-01	 2.90443000E-01	 4.17435263E+00	-3.14149512E+00	 9.27135747E-01	 1.13110137E+00
		 9.11796000E-01	 1.07341000E+00	-3.06842000E+00	 5.90562000E-06	 1.13092000E+00	 2.90441000E-01	 4.53888810E+00	-3.37557226E+00	 9.18678524E-01	 1.37367973E+00
		-2.11398000E+00	-2.11395000E+00	-4.93235000E+00	-8.13421000E-06	 1.13090000E+00	-2.90435000E-01	 3.46888396E+00	-5.35321313E+00	-2.11398206E+00	-1.69308480E+00
		-2.11399000E+00	-2.11399000E+00	-4.93237000E+00	-3.37529000E-06	 4.69241000E-01	-2.90437000E-01	 2.97605244E+00	-5.03657252E+00	-2.11399302E+00	-2.00978446E+00
		 9.11802000E-01	 1.07338000E+00	-3.06844000E+00	-1.13877000E-06	 4.69253000E-01	-2.90443000E-01	 4.17435263E+00	-3.14149512E+00	 9.27135749E-01	 1.13110137E+00
		 9.11796000E-01	 1.07341000E+00	-3.06842000E+00	-5.89605000E-06	 1.13092000E+00	-2.90441000E-01	 4.53888810E+00	-3.37557226E+00	 9.18678528E-01	 1.37367973E+00
		-3.81937000E+01	-2.89504000E+01	-1.68702000E+02	-2.44766000E-11	 3.67940000E+01	-2.87229000E-11	 1.49618106E+02	-1.77797244E+02	-3.81937000E+01	-1.98551555E+01
		-6.17509000E+00	 1.39691000E+01	-1.05054000E+02	 5.47102000E+00	 2.11533000E+01	 7.11022000E+00	 1.17296679E+02	-1.09061821E+02	-7.54130830E+00	 1.93431394E+01
		-7.28160000E+00	-5.58246000E+01	-1.26299000E+02	-4.09515000E+01	-1.39311000E+01	-5.54604000E+00	 1.28256310E+02	-1.30613907E+02	-7.48729119E+01	 1.60816185E+01
		 3.03193000E+01	 6.37152000E+01	-1.20371000E+02	-4.65375000E-12	 1.43414000E+01	-2.88399000E-11	 1.71675036E+02	-1.21481580E+02	 3.03193000E+01	 6.48257795E+01
		-6.17509000E+00	 1.39691000E+01	-1.05054000E+02	-5.47102000E+00	 2.11533000E+01	-7.11022000E+00	 1.17296679E+02	-1.09061821E+02	-7.54130830E+00	 1.93431394E+01
		 5.27480000E+01	 8.38960000E+01	 2.13735000E+01	-2.50365000E-11	 7.11367000E+01	 2.96703000E-11	 1.34584919E+02	-2.50678615E+01	 5.27480000E+01	 1.30337362E+02
		-1.79821000E+01	-1.48258000E+02	-6.95066000E+01	 7.38091000E-12	 2.33143000E+01	 2.95686000E-11	 1.20602045E+02	-1.54642570E+02	-6.31220297E+01	-1.79821000E+01
		-7.28160000E+00	-5.58246000E+01	-1.26299000E+02	 4.09515000E+01	-1.39311000E+01	 5.54604000E+00	 1.28256310E+02	-1.30613907E+02	-7.48729119E+01	 1.60816185E+01
FIELD CONTACT 1
	CONTACT 6 16 double
		 0.00000000E+00	 0.00000000E+00	 0.00000000E+00	 0.00000000E+00	 0.00000000E+00	 0.00000000E+00
		 0.00000000E+00	 0.00000000E+00	 0.00000000E+00	 0.00000000E+00	 0.00000000E+00	 0.00000000E+00
		 0.00000000E+00	 0.00000000E+00	 0.00000000E+00	 0.00000000E+00	 0.00000000E+00	 0.00000000E+00
		 0.00000000E+00	 0.00000000E+00	 0.00000000E+00	 0.00000000E+00	 0.00000000E+00	 0.00000000E+00
		 0.00000000E+00	 0.00000000E+00	 0.00000000E+00	 0.00000000E+00	 0.00000000E+00	 0.00000000E+00
		 0.00000000E+00	 0.00000000E+00	 0.00000000E+00	 0.00000000E+00	 0.00000000E+00	 0.00000000E+00
		 0.00000000E+00	 0.00000000E+00	 0.00000000E+00	 0.00000000E+00	 0.00000000E+00	 0.00000000E+00
		 0.00000000E+00	 0.00000000E+00	 0.00000000E+00	 0.00000000E+00	 0.00000000E+00	 0.00000000E+00
		-9.99824000E-06	 3.93237000E-15	 9.98715000E-02	 9.99824000E+01	-1.36389000E-12	 1.99965000E+01
		-9.99824000E-06	 1.05616000E-05	 9.98547000E-02	 9.99824000E+01	 6.71163000E-04	 1.99965000E+01
		 0.00000000E+00	 0.00000000E+00	 0.00000000E+00	 0.00000000E+00	 0.00000000E+00	 0.00000000E+00
		 0.00000000E+00	 0.00000000E+00	 0.00000000E+00	 0.00000000E+00	 0.00000000E+00	 0.00000000E+00
		-9.99824000E-06	-1.05616000E-05	 9.98547000E-02	 9.99824000E+01	-6.71163000E-04	 1.99965000E+01
		-9.99824000E-06	-5.14015000E-14	 9.98225000E-02	 9.99824000E+01	-1.00622000E-11	 1.99965000E+01
		 0.00000000E+00	 0.00000000E+00	 0.00000000E+00	 0.00000000E+00	 0.00000000E+00	 0.00000000E+00
		 0.00000000E+00	 0.00000000E+00	 0.00000000E+00	 0.00000000E+00	 0.00000000E+00	 0.00000000E+00
