# vtk DataFile Version 3.0

ASCII
DATASET UNSTRUCTURED_GRID

POINTS 16 double
	 1.00000000E+00	 1.00000000E+00	-1.49012000E-08
	 1.00000000E+00	 0.00000000E+00	-1.49012000E-08
	 1.00000000E+00	 0.00000000E+00	 1.00000000E+00
	 1.00000000E+00	 1.00000000E+00	 1.00000000E+00
	-7.45058000E-09	 1.00000000E+00	-1.49012000E-08
	-7.45058000E-09	 0.00000000E+00	-1.49012000E-08
	-7.45058000E-09	 0.00000000E+00	 1.00000000E+00
	-7.45058000E-09	 1.00000000E+00	 1.00000000E+00
	 5.00000000E-01	 6.41421000E-01	 1.00000000E+00
	 6.41421000E-01	 5.00000000E-01	 1.00000000E+00
	 6.41421000E-01	 5.00000000E-01	 1.20000000E+00
	 5.00000000E-01	 6.41421000E-01	 1.20000000E+00
	 3.58579000E-01	 5.00000000E-01	 1.00000000E+00
	 5.00000000E-01	 3.58579000E-01	 1.00000000E+00
	 5.00000000E-01	 3.58579000E-01	 1.20000000E+00
	 3.58579000E-01	 5.00000000E-01	 1.20000000E+00

CELLS 2 18
	8 0 1 2 3 4 5 6 7 
	8 8 9 10 11 12 13 14 15 

CELL_TYPES 2
	12
	12

POINT_DATA 16
FIELD U 1
	U 3 16 double
		 0.00000000E+00	 0.00000000E+00	 0.00000000E+00
		 0.00000000E+00	 0.00000000E+00	 0.00000000E+00
		 3.71375000E-06	-8.85854000E-07	-1.73396000E-05
		 3.71374000E-06	 6.55490000E-06	-1.73396000E-05
		 0.00000000E+00	 0.00000000E+00	 0.00000000E+00
		 0.00000000E+00	 0.00000000E+00	 0.00000000E+00
		-3.71375000E-06	-8.85854000E-07	-1.73396000E-05
		-3.71374000E-06	 6.55490000E-06	-1.73396000E-05
		 1.79856000E-16	 5.74671000E-03	-2.73391000E-05
		 1.85099000E-05	 5.72589000E-03	-2.73391000E-05
		 2.35582000E-05	 5.74091000E-03	-1.24682000E-04
		 0.00000000E+00	 5.77282000E-03	-1.35935000E-04
		-1.85099000E-05	 5.72589000E-03	-2.73391000E-05
		 2.43300000E-16	 5.69960000E-03	-2.73391000E-05
		 0.00000000E+00	 5.75000000E-03	-1.00738000E-04
		-2.35582000E-05	 5.74091000E-03	-1.24682000E-04
FIELD S 1
	S 10 16 double
		-2.10074000E+00	-2.10073000E+00	-4.90146000E+00	 3.93227000E-06	 5.29391000E-01	 2.99936000E-01	 2.99244212E+00	-5.02793437E+00	-2.10074094E+00	-1.97425469E+00
		-2.10074000E+00	-2.10074000E+00	-4.90146000E+00	-5.31406000E-07	-7.15527000E-02	 2.99936000E-01	 2.85118865E+00	-4.93500708E+00	-2.10074024E+00	-2.06719268E+00
		 9.00475000E-01	 9.02615000E-01	-3.10011000E+00	-9.84125000E-07	-7.15543000E-02	 2.99943000E-01	 4.03714053E+00	-3.12373775E+00	 9.02488612E-01	 9.24229137E-01
		 9.00475000E-01	 9.02623000E-01	-3.10010000E+00	 3.47963000E-06	 5.29403000E-01	 2.99943000E-01	 4.13810321E+00	-3.19056262E+00	 9.00984947E-01	 9.92575676E-01
		-2.10074000E+00	-2.10073000E+00	-4.90146000E+00	-3.93227000E-06	 5.29391000E-01	-2.99936000E-01	 2.99244212E+00	-5.02793437E+00	-2.10074094E+00	-1.97425469E+00
		-2.10074000E+00	-2.10074000E+00	-4.90146000E+00	 5.31406000E-07	-7.15527000E-02	-2.99936000E-01	 2.85118865E+00	-4.93500708E+00	-2.10074024E+00	-2.06719268E+00
		 9.00475000E-01	 9.02615000E-01	-3.10011000E+00	 9.86956000E-07	-7.15543000E-02	-2.99943000E-01	 4.03714053E+00	-3.12373775E+00	 9.02488610E-01	 9.24229139E-01
		 9.00475000E-01	 9.02623000E-01	-3.10010000E+00	-3.47674000E-06	 5.29403000E-01	-2.99943000E-01	 4.13810321E+00	-3.19056262E+00	 9.00984949E-01	 9.92575674E-01
		-1.09354000E+01	-8.29870000E+00	-1.19659000E+02	 3.49914000E-11	 1.05322000E+01	-7.25308000E-11	 1.11567139E+02	-1.20646357E+02	-1.09354000E+01	-7.31134308E+00
		-1.77109000E+00	 3.99445000E+00	-1.01437000E+02	 1.56608000E+00	 6.05577000E+00	 2.03611000E+00	 1.03300411E+02	-1.01821445E+02	-2.16681279E+00	 4.77461801E+00
		-2.07969000E+00	-1.59622000E+01	-1.07512000E+02	-1.17149000E+01	-3.98691000E+00	-1.58575000E+00	 1.01547909E+02	-1.07727348E+02	-2.24256834E+01	 4.59914168E+00
		 8.67623000E+00	 1.82264000E+01	-1.05824000E+02	-4.32297000E-11	 4.10936000E+00	-2.90687000E-11	 1.19773393E+02	-1.05959980E+02	 8.67623000E+00	 1.83623798E+01
		-1.77109000E+00	 3.99445000E+00	-1.01437000E+02	-1.56608000E+00	 6.05577000E+00	-2.03611000E+00	 1.03300411E+02	-1.01821445E+02	-2.16681279E+00	 4.77461801E+00
		 1.50844000E+01	 2.39871000E+01	-6.52882000E+01	-3.73317000E-11	 2.03343000E+01	-9.81698000E-11	 9.21683097E+01	-6.97015801E+01	 1.50844000E+01	 2.84004801E+01
		-5.14482000E+00	-4.24432000E+01	-9.12795000E+01	 5.13358000E-11	 6.66308000E+00	-5.46755000E-11	 7.57024315E+01	-9.21722703E+01	-4.15504297E+01	-5.14482000E+00
		-2.07969000E+00	-1.59622000E+01	-1.07512000E+02	 1.17149000E+01	-3.98691000E+00	 1.58575000E+00	 1.01547909E+02	-1.07727348E+02	-2.24256834E+01	 4.59914168E+00
FIELD CONTACT 1
	CONTACT 6 16 double
		 0.00000000E+00	 0.00000000E+00	 0.00000000E+00	 0.00000000E+00	 0.00000000E+00	 0.00000000E+00
		 0.00000000E+00	 0.00000000E+00	 0.00000000E+00	 0.00000000E+00	 0.00000000E+00	 0.00000000E+00
		 0.00000000E+00	 0.00000000E+00	 0.00000000E+00	 0.00000000E+00	 0.00000000E+00	 0.00000000E+00
		 0.00000000E+00	 0.00000000E+00	 0.00000000E+00	 0.00000000E+00	 0.00000000E+00	 0.00000000E+00
		 0.00000000E+00	 0.00000000E+00	 0.00000000E+00	 0.00000000E+00	 0.00000000E+00	 0.00000000E+00
		 0.00000000E+00	 0.00000000E+00	 0.00000000E+00	 0.00000000E+00	 0.00000000E+00	 0.00000000E+00
		 0.00000000E+00	 0.00000000E+00	 0.00000000E+00	 0.00000000E+00	 0.00000000E+00	 0.00000000E+00
		 0.00000000E+00	 0.00000000E+00	 0.00000000E+00	 0.00000000E+00	 0.00000000E+00	 0.00000000E+00
		-9.99954000E-06	-3.72632000E-14	 5.73875000E-03	 9.99954000E+01	-3.72632000E-11	 5.73875000E+00
		-9.99954000E-06	 1.39226000E-05	 5.72303000E-03	 9.99954000E+01	 1.39226000E-02	 5.72303000E+00
		 0.00000000E+00	 0.00000000E+00	 0.00000000E+00	 0.00000000E+00	 0.00000000E+00	 0.00000000E+00
		 0.00000000E+00	 0.00000000E+00	 0.00000000E+00	 0.00000000E+00	 0.00000000E+00	 0.00000000E+00
		-9.99954000E-06	-1.39226000E-05	 5.72303000E-03	 9.99954000E+01	-1.39226000E-02	 5.72303000E+00
		-9.99954000E-06	-5.72352000E-14	 5.70286000E-03	 9.99954000E+01	-5.72352000E-11	 5.70286000E+00
		 0.00000000E+00	 0.00000000E+00	 0.00000000E+00	 0.00000000E+00	 0.00000000E+00	 0.00000000E+00
		 0.00000000E+00	 0.00000000E+00	 0.00000000E+00	 0.00000000E+00	 0.00000000E+00	 0.00000000E+00
