<?xml version="1.0"?>
<VTKFile type="UnstructuredGrid" version="0.1" byte_order="LittleEndian">
	<UnstructuredGrid>
		<Piece NumberOfPoints="16" NumberOfCells="2">
			<Points>
				<DataArray type="Float64" NumberOfComponents="3" format="ascii">
					 1.00000000E+00	 1.00000000E+00	-1.49012000E-08
					 1.00000000E+00	 0.00000000E+00	-1.49012000E-08
					 1.00000000E+00	 0.00000000E+00	 1.00000000E+00
					 1.00000000E+00	 1.00000000E+00	 1.00000000E+00
					-7.45058000E-09	 1.00000000E+00	-1.49012000E-08
					-7.45058000E-09	 0.00000000E+00	-1.49012000E-08
					-7.45058000E-09	 0.00000000E+00	 1.00000000E+00
					-7.45058000E-09	 1.00000000E+00	 1.00000000E+00
					 5.00000000E-01	 6.41421000E-01	 1.00000000E+00
					 6.41421000E-01	 5.00000000E-01	 1.00000000E+00
					 6.41421000E-01	 5.00000000E-01	 1.20000000E+00
					 5.00000000E-01	 6.41421000E-01	 1.20000000E+00
					 3.58579000E-01	 5.00000000E-01	 1.00000000E+00
					 5.00000000E-01	 3.58579000E-01	 1.00000000E+00
					 5.00000000E-01	 3.58579000E-01	 1.20000000E+00
					 3.58579000E-01	 5.00000000E-01	 1.20000000E+00
				</DataArray>
			</Points>
			<Cells>
				<DataArray type="Int32" Name="connectivity" format="ascii">
					0 1 2 3 4 5 6 7 8 9 10 11 12 13 14 15 
				</DataArray>
				<DataArray type="Int32" Name="offsets" format="ascii">
					8 16 
				</DataArray>
				<DataArray type="UInt8" Name="types" format="ascii">
					12 12 
				</DataArray>
			</Cells>
			<PointData>
				<DataArray type="Float32" Name="U" NumberOfComponents="3" ComponentName0="D1" ComponentName1="D2" ComponentName2="D3" format="ascii">
					 0.00000000E+00	 0.00000000E+00	 0.00000000E+00
					 0.00000000E+00	 0.00000000E+00	 0.00000000E+00
					 3.68103000E-06	 6.08285000E-06	-1.73685000E-05
					 3.68100000E-06	 1.37304000E-05	-1.73685000E-05
					 0.00000000E+00	 0.00000000E+00	 0.00000000E+00
					 0.00000000E+00	 0.00000000E+00	 0.00000000E+00
					-3.68103000E-06	 6.08285000E-06	-1.73685000E-05
					-3.68100000E-06	 1.37304000E-05	-1.73685000E-05
					-3.25645000E-17	 3.30595000E-02	-2.73668000E-05
					 1.42600000E-05	 3.30371000E-02	-2.73668000E-05
					 3.18933000E-05	 3.30896000E-02	-1.29740000E-04
					 0.00000000E+00	 3.31507000E-02	-1.69078000E-04
					-1.42600000E-05	 3.30371000E-02	-2.73668000E-05
					 1.36215000E-16	 3.29957000E-02	-2.73668000E-05
					 0.00000000E+00	 3.31719000E-02	-4.60576000E-05
					-3.18933000E-05	 3.30896000E-02	-1.29740000E-04
				</DataArray>
				<DataArray type="Float32" Name="S" NumberOfComponents="10" ComponentName0="xx" ComponentName1="yy" ComponentName2="zz" ComponentName3="xy" ComponentName4="yz" ComponentName5="zx" ComponentName6="Mises" ComponentName7="Min Principal" ComponentName8="Mid Principal" ComponentName9="Max Principal" format="ascii">
					-2.10424000E+00	-2.10421000E+00	-4.90962000E+00	 8.16425000E-06	 1.10889000E+00	 2.97292000E-01	 3.43864796E+00	-5.31953742E+00	-2.10424207E+00	-1.69429051E+00
					-2.10425000E+00	-2.10424000E+00	-4.90964000E+00	 3.61699000E-06	 4.91247000E-01	 2.97294000E-01	 2.97646823E+00	-5.02261627E+00	-2.10425052E+00	-1.99126320E+00
					 9.03522000E-01	 9.49643000E-01	-3.09116000E+00	 1.84163000E-06	 4.91258000E-01	 2.97300000E-01	 4.13920467E+00	-3.17141178E+00	 9.12006790E-01	 1.02140999E+00
					 9.03519000E-01	 9.49672000E-01	-3.09115000E+00	 6.38928000E-06	 1.10892000E+00	 2.97299000E-01	 4.48309572E+00	-3.39476545E+00	 9.06250918E-01	 1.25055553E+00
					-2.10424000E+00	-2.10421000E+00	-4.90962000E+00	-8.16425000E-06	 1.10889000E+00	-2.97292000E-01	 3.43864796E+00	-5.31953742E+00	-2.10424207E+00	-1.69429051E+00
					-2.10425000E+00	-2.10424000E+00	-4.90964000E+00	-3.61699000E-06	 4.91247000E-01	-2.97294000E-01	 2.97646823E+00	-5.02261627E+00	-2.10425052E+00	-1.99126320E+00
					 9.03522000E-01	 9.49643000E-01	-3.09116000E+00	-1.83663000E-06	 4.91258000E-01	-2.97300000E-01	 4.13920467E+00	-3.17141178E+00	 9.12006794E-01	 1.02140998E+00
					 9.03519000E-01	 9.49672000E-01	-3.09115000E+00	-6.38362000E-06	 1.10892000E+00	-2.97299000E-01	 4.48309572E+00	-3.39476545E+00	 9.06250921E-01	 1.25055553E+00
					-3.81961000E+01	-2.89501000E+01	-1.68702000E+02	 1.51349000E-11	 3.67936000E+01	 1.31265000E-11	 1.49616988E+02	-1.77797041E+02	-3.81961000E+01	-1.98550592E+01
					-6.17831000E+00	 1.39687000E+01	-1.05056000E+02	 5.47103000E+00	 2.11533000E+01	 7.11121000E+00	 1.17297400E+02	-1.09063896E+02	-7.54431618E+00	 1.93426022E+01
					-7.28080000E+00	-5.58250000E+01	-1.26299000E+02	-4.09516000E+01	-1.39312000E+01	-5.54579000E+00	 1.28256894E+02	-1.30613912E+02	-7.48731040E+01	 1.60822161E+01
					 3.03209000E+01	 6.37157000E+01	-1.20370000E+02	-2.36454000E-12	 1.43417000E+01	 2.42243000E-11	 1.71675000E+02	-1.21480629E+02	 3.03209000E+01	 6.48263287E+01
					-6.17831000E+00	 1.39687000E+01	-1.05056000E+02	-5.47103000E+00	 2.11533000E+01	-7.11121000E+00	 1.17297400E+02	-1.09063896E+02	-7.54431618E+00	 1.93426022E+01
					 5.27456000E+01	 8.38964000E+01	 2.13738000E+01	-2.07346000E-12	 7.11371000E+01	-5.49934000E-11	 1.34585586E+02	-2.50678978E+01	 5.27456000E+01	 1.30338098E+02
					-1.79805000E+01	-1.48258000E+02	-6.95050000E+01	 2.06042000E-11	 2.33140000E+01	-4.38865000E-11	 1.20603258E+02	-1.54642306E+02	-6.31206942E+01	-1.79805000E+01
					-7.28080000E+00	-5.58250000E+01	-1.26299000E+02	 4.09516000E+01	-1.39312000E+01	 5.54579000E+00	 1.28256894E+02	-1.30613912E+02	-7.48731040E+01	 1.60822161E+01
				</DataArray>
				<DataArray type="Float32" Name="CONTACT" NumberOfComponents="6" ComponentName0="COPEN" ComponentName1="CSLIP1" ComponentName2="CSLIP2" ComponentName3="CPRESS" ComponentName4="CSHEAR1" ComponentName5="CSHEAR2" format="ascii">
					 0.00000000E+00	 0.00000000E+00	 0.00000000E+00	 0.00000000E+00	 0.00000000E+00	 0.00000000E+00
					 0.00000000E+00	 0.00000000E+00	 0.00000000E+00	 0.00000000E+00	 0.00000000E+00	 0.00000000E+00
					 0.00000000E+00	 0.00000000E+00	 0.00000000E+00	 0.00000000E+00	 0.00000000E+00	 0.00000000E+00
					 0.00000000E+00	 0.00000000E+00	 0.00000000E+00	 0.00000000E+00	 0.00000000E+00	 0.00000000E+00
					 0.00000000E+00	 0.00000000E+00	 0.00000000E+00	 0.00000000E+00	 0.00000000E+00	 0.00000000E+00
					 0.00000000E+00	 0.00000000E+00	 0.00000000E+00	 0.00000000E+00	 0.00000000E+00	 0.00000000E+00
					 0.00000000E+00	 0.00000000E+00	 0.00000000E+00	 0.00000000E+00	 0.00000000E+00	 0.00000000E+00
					 0.00000000E+00	 0.00000000E+00	 0.00000000E+00	 0.00000000E+00	 0.00000000E+00	 0.00000000E+00
					-9.99824000E-06	 3.10697000E-15	 3.30439000E-02	 9.99824000E+01	 1.65916000E-12	 1.99965000E+01
					-9.99824000E-06	 1.05410000E-05	 3.30271000E-02	 9.99824000E+01	 6.20818000E-03	 1.99965000E+01
					 0.00000000E+00	 0.00000000E+00	 0.00000000E+00	 0.00000000E+00	 0.00000000E+00	 0.00000000E+00
					 0.00000000E+00	 0.00000000E+00	 0.00000000E+00	 0.00000000E+00	 0.00000000E+00	 0.00000000E+00
					-9.99824000E-06	-1.05410000E-05	 3.30271000E-02	 9.99824000E+01	-6.20818000E-03	 1.99965000E+01
					-9.99824000E-06	-3.40914000E-14	 3.29947000E-02	 9.99824000E+01	-1.91620000E-11	 1.99965000E+01
					 0.00000000E+00	 0.00000000E+00	 0.00000000E+00	 0.00000000E+00	 0.00000000E+00	 0.00000000E+00
					 0.00000000E+00	 0.00000000E+00	 0.00000000E+00	 0.00000000E+00	 0.00000000E+00	 0.00000000E+00
				</DataArray>
			</PointData>
		</Piece>
	</UnstructuredGrid>
</VTKFile>