# vtk DataFile Version 3.0

ASCII
DATASET UNSTRUCTURED_GRID

POINTS 16 double
	 1.00000000E+00	 1.00000000E+00	-1.49012000E-08
	 1.00000000E+00	 0.00000000E+00	-1.49012000E-08
	 1.00000000E+00	 0.00000000E+00	 1.00000000E+00
	 1.00000000E+00	 1.00000000E+00	 1.00000000E+00
	-7.45058000E-09	 1.00000000E+00	-1.49012000E-08
	-7.45058000E-09	 0.00000000E+00	-1.49012000E-08
	-7.45058000E-09	 0.00000000E+00	 1.00000000E+00
	-7.45058000E-09	 1.00000000E+00	 1.00000000E+00
	 5.00000000E-01	 6.41421000E-01	 1.00000000E+00
	 6.41421000E-01	 5.00000000E-01	 1.00000000E+00
	 6.41421000E-01	 5.00000000E-01	 1.20000000E+00
	 5.00000000E-01	 6.41421000E-01	 1.20000000E+00
	 3.58579000E-01	 5.00000000E-01	 1.00000000E+00
	 5.00000000E-01	 3.58579000E-01	 1.00000000E+00
	 5.00000000E-01	 3.58579000E-01	 1.20000000E+00
	 3.58579000E-01	 5.00000000E-01	 1.20000000E+00

CELLS 2 18
	8 0 1 2 3 4 5 6 7 
	8 8 9 10 11 12 13 14 15 

CELL_TYPES 2
	12
	12

POINT_DATA 16
FIELD U 1
	U 3 16 double
		 0.00000000E+00	 0.00000000E+00	 0.00000000E+00
		 0.00000000E+00	 0.00000000E+00	 0.00000000E+00
		 3.58894000E-06	-1.23129000E-05	-1.74608000E-05
		 3.58897000E-06	-4.06684000E-06	-1.74608000E-05
		 0.00000000E+00	 0.00000000E+00	 0.00000000E+00
		 0.00000000E+00	 0.00000000E+00	 0.00000000E+00
		-3.58894000E-06	-1.23129000E-05	-1.74608000E-05
		-3.58897000E-06	-4.06683000E-06	-1.74608000E-05
		-1.16967000E-16	-9.63333000E-02	-2.74623000E-05
		 2.51470000E-05	-9.63518000E-02	-2.74623000E-05
		 1.05642000E-05	-9.63952000E-02	-1.16996000E-04
		 0.00000000E+00	-9.64087000E-02	-8.45036000E-05
		-2.51470000E-05	-9.63518000E-02	-2.74623000E-05
		-1.29965000E-17	-9.63544000E-02	-2.74623000E-05
		 0.00000000E+00	-9.65000000E-02	-1.86187000E-04
		-1.05642000E-05	-9.63952000E-02	-1.16996000E-04
FIELD S 1
	S 10 16 double
		-2.11543000E+00	-2.11543000E+00	-4.93573000E+00	-2.35776000E-06	-3.28431000E-01	 2.89859000E-01	 2.92057316E+00	-5.00220048E+00	-2.11543234E+00	-2.04895719E+00
		-2.11542000E+00	-2.11540000E+00	-4.93572000E+00	-7.13830000E-06	-9.94416000E-01	 2.89856000E-01	 3.34257200E+00	-5.27525430E+00	-2.11542227E+00	-1.77586343E+00
		 9.12801000E-01	 1.08538000E+00	-3.06703000E+00	-4.80147000E-06	-9.94440000E-01	 2.89863000E-01	 4.44684922E+00	-3.31181408E+00	 9.21191922E-01	 1.32177316E+00
		 9.12809000E-01	 1.08536000E+00	-3.06704000E+00	-1.87361000E-08	-3.28439000E-01	 2.89865000E-01	 4.13900719E+00	-3.11359789E+00	 9.30704073E-01	 1.11402282E+00
		-2.11543000E+00	-2.11543000E+00	-4.93573000E+00	 2.35776000E-06	-3.28431000E-01	-2.89859000E-01	 2.92057316E+00	-5.00220048E+00	-2.11543234E+00	-2.04895719E+00
		-2.11542000E+00	-2.11540000E+00	-4.93572000E+00	 7.13830000E-06	-9.94416000E-01	-2.89856000E-01	 3.34257200E+00	-5.27525430E+00	-2.11542227E+00	-1.77586343E+00
		 9.12801000E-01	 1.08538000E+00	-3.06703000E+00	 4.79162000E-06	-9.94440000E-01	-2.89863000E-01	 4.44684922E+00	-3.31181408E+00	 9.21191926E-01	 1.32177316E+00
		 9.12809000E-01	 1.08536000E+00	-3.06704000E+00	 1.31702000E-08	-3.28439000E-01	-2.89865000E-01	 4.13900719E+00	-3.11359789E+00	 9.30704074E-01	 1.11402282E+00
		 3.15769000E+01	 2.39817000E+01	-4.31892000E+01	-1.87030000E-11	-3.04358000E+01	 4.72030000E-11	 8.86499129E+01	-5.49283611E+01	 3.15769000E+01	 3.57208611E+01
		 5.08609000E+00	-1.15973000E+01	-9.58845000E+01	-4.53011000E+00	-1.75108000E+01	-5.88252000E+00	 9.93686368E+01	-9.98003736E+01	-8.85507096E+00	 6.25973456E+00
		 6.01701000E+00	 4.61048000E+01	-7.82901000E+01	 3.38385000E+01	 1.15243000E+01	 4.58924000E+00	 1.26456117E+02	-7.93772719E+01	-1.32243740E+01	 6.64333559E+01
		-2.50548000E+01	-5.26194000E+01	-8.31447000E+01	 3.16938000E-11	-1.18891000E+01	 3.30723000E-11	 5.43789564E+01	-8.72288633E+01	-4.85352367E+01	-2.50548000E+01
		 5.08609000E+00	-1.15973000E+01	-9.58845000E+01	 4.53011000E+00	-1.75108000E+01	 5.88252000E+00	 9.93686368E+01	-9.98003736E+01	-8.85507096E+00	 6.25973456E+00
		-4.36051000E+01	-6.93066000E+01	-2.00228000E+02	 3.15631000E-11	-5.86816000E+01	 5.21938000E-12	 1.77472384E+02	-2.22679947E+02	-4.68546535E+01	-4.36051000E+01
		 1.48857000E+01	 1.22767000E+02	-1.25125000E+02	-2.69399000E-11	-1.92305000E+01	-8.85585000E-12	 2.17842475E+02	-1.26607956E+02	 1.48857000E+01	 1.24249956E+02
		 6.01701000E+00	 4.61048000E+01	-7.82901000E+01	-3.38385000E+01	 1.15243000E+01	-4.58924000E+00	 1.26456117E+02	-7.93772719E+01	-1.32243740E+01	 6.64333559E+01
FIELD CONTACT 1
	CONTACT 6 16 double
		 0.00000000E+00	 0.00000000E+00	 0.00000000E+00	 0.00000000E+00	 0.00000000E+00	 0.00000000E+00
		 0.00000000E+00	 0.00000000E+00	 0.00000000E+00	 0.00000000E+00	 0.00000000E+00	 0.00000000E+00
		 0.00000000E+00	 0.00000000E+00	 0.00000000E+00	 0.00000000E+00	 0.00000000E+00	 0.00000000E+00
		 0.00000000E+00	 0.00000000E+00	 0.00000000E+00	 0.00000000E+00	 0.00000000E+00	 0.00000000E+00
		 0.00000000E+00	 0.00000000E+00	 0.00000000E+00	 0.00000000E+00	 0.00000000E+00	 0.00000000E+00
		 0.00000000E+00	 0.00000000E+00	 0.00000000E+00	 0.00000000E+00	 0.00000000E+00	 0.00000000E+00
		 0.00000000E+00	 0.00000000E+00	 0.00000000E+00	 0.00000000E+00	 0.00000000E+00	 0.00000000E+00
		 0.00000000E+00	 0.00000000E+00	 0.00000000E+00	 0.00000000E+00	 0.00000000E+00	 0.00000000E+00
		-1.00015000E-05	-2.64133000E-14	-9.63288000E-02	 1.00015000E+02	 2.88981000E-11	-1.65315000E+01
		-1.00015000E-05	 1.92433000E-05	-9.63428000E-02	 1.00015000E+02	-6.84640000E-04	-1.65317000E+01
		 0.00000000E+00	 0.00000000E+00	 0.00000000E+00	 0.00000000E+00	 0.00000000E+00	 0.00000000E+00
		 0.00000000E+00	 0.00000000E+00	 0.00000000E+00	 0.00000000E+00	 0.00000000E+00	 0.00000000E+00
		-1.00015000E-05	-1.92433000E-05	-9.63428000E-02	 1.00015000E+02	 6.84640000E-04	-1.65317000E+01
		-1.00015000E-05	 2.76855000E-14	-9.63438000E-02	 1.00015000E+02	 1.74230000E-11	-1.65346000E+01
		 0.00000000E+00	 0.00000000E+00	 0.00000000E+00	 0.00000000E+00	 0.00000000E+00	 0.00000000E+00
		 0.00000000E+00	 0.00000000E+00	 0.00000000E+00	 0.00000000E+00	 0.00000000E+00	 0.00000000E+00
