# vtk DataFile Version 3.0

ASCII
DATASET UNSTRUCTURED_GRID

POINTS 16 double
	 1.00000000E+00	 1.00000000E+00	-1.49012000E-08
	 1.00000000E+00	 0.00000000E+00	-1.49012000E-08
	 1.00000000E+00	 0.00000000E+00	 1.00000000E+00
	 1.00000000E+00	 1.00000000E+00	 1.00000000E+00
	-7.45058000E-09	 1.00000000E+00	-1.49012000E-08
	-7.45058000E-09	 0.00000000E+00	-1.49012000E-08
	-7.45058000E-09	 0.00000000E+00	 1.00000000E+00
	-7.45058000E-09	 1.00000000E+00	 1.00000000E+00
	 5.00000000E-01	 6.41421000E-01	 1.00000000E+00
	 6.41421000E-01	 5.00000000E-01	 1.00000000E+00
	 6.41421000E-01	 5.00000000E-01	 1.20000000E+00
	 5.00000000E-01	 6.41421000E-01	 1.20000000E+00
	 3.58579000E-01	 5.00000000E-01	 1.00000000E+00
	 5.00000000E-01	 3.58579000E-01	 1.00000000E+00
	 5.00000000E-01	 3.58579000E-01	 1.20000000E+00
	 3.58579000E-01	 5.00000000E-01	 1.20000000E+00

CELLS 2 18
	8 0 1 2 3 4 5 6 7 
	8 8 9 10 11 12 13 14 15 

CELL_TYPES 2
	12
	12

POINT_DATA 16
FIELD U 1
	U 3 16 double
		 0.00000000E+00	 0.00000000E+00	 0.00000000E+00
		 0.00000000E+00	 0.00000000E+00	 0.00000000E+00
		 3.80475000E-06	-1.33399000E-05	-1.72569000E-05
		 3.80480000E-06	-6.47869000E-06	-1.72569000E-05
		 0.00000000E+00	 0.00000000E+00	 0.00000000E+00
		 0.00000000E+00	 0.00000000E+00	 0.00000000E+00
		-3.80475000E-06	-1.33399000E-05	-1.72569000E-05
		-3.80480000E-06	-6.47869000E-06	-1.72569000E-05
		 1.39499000E-17	 3.38495000E-02	-2.72586000E-05
		 2.61810000E-05	 3.38314000E-02	-2.72586000E-05
		 8.53835000E-06	 3.37788000E-02	-1.15578000E-04
		 0.00000000E+00	 3.37582000E-02	-7.62655000E-05
		-2.61810000E-05	 3.38314000E-02	-2.72586000E-05
		 1.18093000E-16	 3.38324000E-02	-2.72586000E-05
		 0.00000000E+00	 3.36563000E-02	-1.99295000E-04
		-8.53835000E-06	 3.37788000E-02	-1.15578000E-04
FIELD S 1
	S 10 16 double
		-2.09072000E+00	-2.09071000E+00	-4.87809000E+00	-3.98189000E-06	-5.23217000E-01	 3.07290000E-01	 2.97892748E+00	-5.00445094E+00	-2.09072091E+00	-1.96434814E+00
		-2.09071000E+00	-2.09068000E+00	-4.87807000E+00	-8.19876000E-06	-1.07736000E+00	 3.07287000E-01	 3.39629931E+00	-5.27253461E+00	-2.09071207E+00	-1.69621332E+00
		 8.91746000E-01	 7.70899000E-01	-3.12487000E+00	-4.90502000E-06	-1.07738000E+00	 3.07294000E-01	 4.40771413E+00	-3.42349080E+00	 8.77938654E-01	 1.08332715E+00
		 8.91761000E-01	 7.70878000E-01	-3.12488000E+00	-6.89414000E-07	-5.23228000E-01	 3.07297000E-01	 4.09476141E+00	-3.21652373E+00	 8.22438918E-01	 9.31843811E-01
		-2.09072000E+00	-2.09071000E+00	-4.87809000E+00	 3.98189000E-06	-5.23217000E-01	-3.07290000E-01	 2.97892748E+00	-5.00445094E+00	-2.09072091E+00	-1.96434814E+00
		-2.09071000E+00	-2.09068000E+00	-4.87807000E+00	 8.19876000E-06	-1.07736000E+00	-3.07287000E-01	 3.39629931E+00	-5.27253461E+00	-2.09071207E+00	-1.69621332E+00
		 8.91746000E-01	 7.70899000E-01	-3.12487000E+00	 4.89823000E-06	-1.07738000E+00	-3.07294000E-01	 4.40771413E+00	-3.42349080E+00	 8.77938659E-01	 1.08332714E+00
		 8.91761000E-01	 7.70878000E-01	-3.12488000E+00	 6.80018000E-07	-5.23228000E-01	-3.07297000E-01	 4.09476141E+00	-3.21652373E+00	 8.22438925E-01	 9.31843804E-01
		 3.82042000E+01	 2.90229000E+01	-3.12615000E+01	 2.96625000E-11	-3.68283000E+01	-5.64700000E-12	 9.13288857E+01	-4.87100123E+01	 3.82042000E+01	 4.64714123E+01
		 6.14872000E+00	-1.40373000E+01	-9.50308000E+01	-5.48181000E+00	-2.11898000E+01	-7.11701000E+00	 1.00952900E+02	-1.00871743E+02	-9.62381451E+00	 7.57617790E+00
		 7.28051000E+00	 5.57782000E+01	-7.37384000E+01	 4.09408000E+01	 1.39446000E+01	 5.55334000E+00	 1.36197068E+02	-7.52430385E+01	-1.59817609E+01	 8.05451094E+01
		-3.03121000E+01	-6.36600000E+01	-7.96045000E+01	-1.08605000E-11	-1.43886000E+01	 7.96135000E-12	 5.01908412E+01	-8.80818269E+01	-5.51826731E+01	-3.03121000E+01
		 6.14872000E+00	-1.40373000E+01	-9.50308000E+01	 5.48181000E+00	-2.11898000E+01	 7.11701000E+00	 1.00952900E+02	-1.00871743E+02	-9.62381451E+00	 7.57617790E+00
		-5.27613000E+01	-8.38493000E+01	-2.21258000E+02	 3.93774000E-12	-7.09861000E+01	-4.75971000E-11	 1.98081941E+02	-2.51342891E+02	-5.37644092E+01	-5.27613000E+01
		 1.80146000E+01	 1.48564000E+02	-1.30391000E+02	 1.72714000E-11	-2.32629000E+01	-3.40049000E-11	 2.45081859E+02	-1.32317657E+02	 1.80146000E+01	 1.50490657E+02
		 7.28051000E+00	 5.57782000E+01	-7.37384000E+01	-4.09408000E+01	 1.39446000E+01	-5.55334000E+00	 1.36197068E+02	-7.52430385E+01	-1.59817609E+01	 8.05451094E+01
FIELD CONTACT 1
	CONTACT 6 16 double
		 0.00000000E+00	 0.00000000E+00	 0.00000000E+00	 0.00000000E+00	 0.00000000E+00	 0.00000000E+00
		 0.00000000E+00	 0.00000000E+00	 0.00000000E+00	 0.00000000E+00	 0.00000000E+00	 0.00000000E+00
		 0.00000000E+00	 0.00000000E+00	 0.00000000E+00	 0.00000000E+00	 0.00000000E+00	 0.00000000E+00
		 0.00000000E+00	 0.00000000E+00	 0.00000000E+00	 0.00000000E+00	 0.00000000E+00	 0.00000000E+00
		 0.00000000E+00	 0.00000000E+00	 0.00000000E+00	 0.00000000E+00	 0.00000000E+00	 0.00000000E+00
		 0.00000000E+00	 0.00000000E+00	 0.00000000E+00	 0.00000000E+00	 0.00000000E+00	 0.00000000E+00
		 0.00000000E+00	 0.00000000E+00	 0.00000000E+00	 0.00000000E+00	 0.00000000E+00	 0.00000000E+00
		 0.00000000E+00	 0.00000000E+00	 0.00000000E+00	 0.00000000E+00	 0.00000000E+00	 0.00000000E+00
		-1.00018000E-05	-7.84139000E-14	 3.38547000E-02	 1.00018000E+02	-3.39466000E-11	-2.00035000E+01
		-1.00018000E-05	 2.00192000E-05	 3.38419000E-02	 1.00018000E+02	 4.07816000E-03	-2.00035000E+01
		 0.00000000E+00	 0.00000000E+00	 0.00000000E+00	 0.00000000E+00	 0.00000000E+00	 0.00000000E+00
		 0.00000000E+00	 0.00000000E+00	 0.00000000E+00	 0.00000000E+00	 0.00000000E+00	 0.00000000E+00
		-1.00018000E-05	-2.00192000E-05	 3.38419000E-02	 1.00018000E+02	-4.07816000E-03	-2.00035000E+01
		-1.00018000E-05	-2.16282000E-14	 3.38429000E-02	 1.00018000E+02	 7.49437000E-12	-2.00035000E+01
		 0.00000000E+00	 0.00000000E+00	 0.00000000E+00	 0.00000000E+00	 0.00000000E+00	 0.00000000E+00
		 0.00000000E+00	 0.00000000E+00	 0.00000000E+00	 0.00000000E+00	 0.00000000E+00	 0.00000000E+00
