<?xml version="1.0"?>
<VTKFile type="UnstructuredGrid" version="0.1" byte_order="LittleEndian">
	<UnstructuredGrid>
		<Piece NumberOfPoints="16" NumberOfCells="2">
			<Points>
				<DataArray type="Float64" NumberOfComponents="3" format="ascii">
					 1.00000000E+00	 1.00000000E+00	-1.49012000E-08
					 1.00000000E+00	 0.00000000E+00	-1.49012000E-08
					 1.00000000E+00	 0.00000000E+00	 1.00000000E+00
					 1.00000000E+00	 1.00000000E+00	 1.00000000E+00
					-7.45058000E-09	 1.00000000E+00	-1.49012000E-08
					-7.45058000E-09	 0.00000000E+00	-1.49012000E-08
					-7.45058000E-09	 0.00000000E+00	 1.00000000E+00
					-7.45058000E-09	 1.00000000E+00	 1.00000000E+00
					 5.00000000E-01	 6.41421000E-01	 1.00000000E+00
					 6.41421000E-01	 5.00000000E-01	 1.00000000E+00
					 6.41421000E-01	 5.00000000E-01	 1.20000000E+00
					 5.00000000E-01	 6.41421000E-01	 1.20000000E+00
					 3.58579000E-01	 5.00000000E-01	 1.00000000E+00
					 5.00000000E-01	 3.58579000E-01	 1.00000000E+00
					 5.00000000E-01	 3.58579000E-01	 1.20000000E+00
					 3.58579000E-01	 5.00000000E-01	 1.20000000E+00
				</DataArray>
			</Points>
			<Cells>
				<DataArray type="Int32" Name="connectivity" format="ascii">
					0 1 2 3 4 5 6 7 8 9 10 11 12 13 14 15 
				</DataArray>
				<DataArray type="Int32" Name="offsets" format="ascii">
					8 16 
				</DataArray>
				<DataArray type="UInt8" Name="types" format="ascii">
					12 12 
				</DataArray>
			</Cells>
			<PointData>
				<DataArray type="Float32" Name="U" NumberOfComponents="3" ComponentName0="D1" ComponentName1="D2" ComponentName2="D3" format="ascii">
					 0.00000000E+00	 0.00000000E+00	 0.00000000E+00
					 0.00000000E+00	 0.00000000E+00	 0.00000000E+00
					 3.76785000E-06	-7.58037000E-06	-1.72902000E-05
					 3.76790000E-06	-4.84557000E-07	-1.72902000E-05
					 0.00000000E+00	 0.00000000E+00	 0.00000000E+00
					 0.00000000E+00	 0.00000000E+00	 0.00000000E+00
					-3.76785000E-06	-7.58037000E-06	-1.72902000E-05
					-3.76790000E-06	-4.84557000E-07	-1.72902000E-05
					 4.09022000E-16	 7.17276000E-02	-2.72907000E-05
					 2.26395000E-05	 7.17083000E-02	-2.72907000E-05
					 1.54660000E-05	 7.16869000E-02	-1.19769000E-04
					 0.00000000E+00	 7.16905000E-02	-1.03762000E-04
					-2.26395000E-05	 7.17083000E-02	-2.72907000E-05
					-1.67233000E-16	 7.16967000E-02	-2.72907000E-05
					 0.00000000E+00	 7.16250000E-02	-1.53831000E-04
					-1.54660000E-05	 7.16869000E-02	-1.19769000E-04
				</DataArray>
				<DataArray type="Float32" Name="S" NumberOfComponents="10" ComponentName0="xx" ComponentName1="yy" ComponentName2="zz" ComponentName3="xy" ComponentName4="yz" ComponentName5="zx" ComponentName6="Mises" ComponentName7="Min Principal" ComponentName8="Mid Principal" ComponentName9="Max Principal" format="ascii">
					-2.09476000E+00	-2.09476000E+00	-4.88750000E+00	-2.94962000E-07	-3.91237000E-02	 3.04310000E-01	 2.84285111E+00	-4.92080983E+00	-2.09476007E+00	-2.06145010E+00
					-2.09475000E+00	-2.09474000E+00	-4.88749000E+00	-4.61373000E-06	-6.12208000E-01	 3.04306000E-01	 3.03341836E+00	-5.04587017E+00	-2.09475170E+00	-1.93635813E+00
					 8.95262000E-01	 8.24209000E-01	-3.11482000E+00	-1.00031000E-06	-6.12222000E-01	 3.04313000E-01	 4.14766734E+00	-3.22972732E+00	 8.71625607E-01	 9.62752710E-01
					 8.95284000E-01	 8.24207000E-01	-3.11481000E+00	 3.31780000E-06	-3.91246000E-02	 3.04317000E-01	 4.01039887E+00	-3.13815658E+00	 8.24498913E-01	 9.18338668E-01
					-2.09476000E+00	-2.09476000E+00	-4.88750000E+00	 2.94962000E-07	-3.91237000E-02	-3.04310000E-01	 2.84285111E+00	-4.92080983E+00	-2.09476007E+00	-2.06145010E+00
					-2.09475000E+00	-2.09474000E+00	-4.88749000E+00	 4.61373000E-06	-6.12208000E-01	-3.04306000E-01	 3.03341836E+00	-5.04587017E+00	-2.09475170E+00	-1.93635813E+00
					 8.95262000E-01	 8.24209000E-01	-3.11482000E+00	 9.97977000E-07	-6.12222000E-01	-3.04313000E-01	 4.14766734E+00	-3.22972732E+00	 8.71625609E-01	 9.62752707E-01
					 8.95284000E-01	 8.24207000E-01	-3.11481000E+00	-3.32154000E-06	-3.91245000E-02	-3.04317000E-01	 4.01039887E+00	-3.13815658E+00	 8.24498912E-01	 9.18338667E-01
					 1.55432000E+01	 1.18063000E+01	-7.20242000E+01	 1.09713000E-11	-1.49861000E+01	-1.65030000E-10	 8.96020810E+01	-7.46226712E+01	 1.44047712E+01	 1.55432000E+01
					 2.50108000E+00	-5.69935000E+00	-9.79664000E+01	-2.22836000E+00	-8.61992000E+00	-2.89353000E+00	 9.79796327E+01	-9.88588327E+01	-5.37834930E+00	 3.07251198E+00
					 2.96302000E+00	 2.27016000E+01	-8.93083000E+01	 1.66624000E+01	 5.67286000E+00	 2.25871000E+00	 1.08026242E+02	-8.96171057E+01	-6.52503858E+00	 3.24984643E+01
					-1.23335000E+01	-2.59139000E+01	-9.16957000E+01	-5.28120000E-11	-5.84956000E+00	-1.38188000E-10	 7.42136624E+01	-9.22118151E+01	-2.53977849E+01	-1.23335000E+01
					 2.50108000E+00	-5.69935000E+00	-9.79664000E+01	 2.22836000E+00	-8.61992000E+00	 2.89353000E+00	 9.79796327E+01	-9.88588327E+01	-5.37834930E+00	 3.07251198E+00
					-2.14707000E+01	-3.41176000E+01	-1.49353000E+02	-3.00090000E-11	-2.89041000E+01	 6.74370000E-11	 1.31919874E+02	-1.56196500E+02	-2.72740997E+01	-2.14707000E+01
					 7.32914000E+00	 6.04208000E+01	-1.12376000E+02	-1.72259000E-12	-9.47254000E+00	 9.42402000E-11	 1.54183581E+02	-1.12893724E+02	 7.32914000E+00	 6.09385236E+01
					 2.96302000E+00	 2.27016000E+01	-8.93083000E+01	-1.66624000E+01	 5.67286000E+00	-2.25871000E+00	 1.08026242E+02	-8.96171057E+01	-6.52503858E+00	 3.24984643E+01
				</DataArray>
				<DataArray type="Float32" Name="CONTACT" NumberOfComponents="6" ComponentName0="COPEN" ComponentName1="CSLIP1" ComponentName2="CSLIP2" ComponentName3="CPRESS" ComponentName4="CSHEAR1" ComponentName5="CSHEAR2" format="ascii">
					 0.00000000E+00	 0.00000000E+00	 0.00000000E+00	 0.00000000E+00	 0.00000000E+00	 0.00000000E+00
					 0.00000000E+00	 0.00000000E+00	 0.00000000E+00	 0.00000000E+00	 0.00000000E+00	 0.00000000E+00
					 0.00000000E+00	 0.00000000E+00	 0.00000000E+00	 0.00000000E+00	 0.00000000E+00	 0.00000000E+00
					 0.00000000E+00	 0.00000000E+00	 0.00000000E+00	 0.00000000E+00	 0.00000000E+00	 0.00000000E+00
					 0.00000000E+00	 0.00000000E+00	 0.00000000E+00	 0.00000000E+00	 0.00000000E+00	 0.00000000E+00
					 0.00000000E+00	 0.00000000E+00	 0.00000000E+00	 0.00000000E+00	 0.00000000E+00	 0.00000000E+00
					 0.00000000E+00	 0.00000000E+00	 0.00000000E+00	 0.00000000E+00	 0.00000000E+00	 0.00000000E+00
					 0.00000000E+00	 0.00000000E+00	 0.00000000E+00	 0.00000000E+00	 0.00000000E+00	 0.00000000E+00
					-1.00005000E-05	-4.32565000E-14	 7.17264000E-02	 1.00005000E+02	-4.85527000E-11	-8.14856000E+00
					-1.00005000E-05	 1.72034000E-05	 7.17117000E-02	 1.00005000E+02	 7.31302000E-03	-8.14654000E+00
					 0.00000000E+00	 0.00000000E+00	 0.00000000E+00	 0.00000000E+00	 0.00000000E+00	 0.00000000E+00
					 0.00000000E+00	 0.00000000E+00	 0.00000000E+00	 0.00000000E+00	 0.00000000E+00	 0.00000000E+00
					-1.00005000E-05	-1.72034000E-05	 7.17117000E-02	 1.00005000E+02	-7.31302000E-03	-8.14654000E+00
					-1.00005000E-05	-2.25878000E-14	 7.17033000E-02	 1.00005000E+02	 1.87515000E-11	-8.12262000E+00
					 0.00000000E+00	 0.00000000E+00	 0.00000000E+00	 0.00000000E+00	 0.00000000E+00	 0.00000000E+00
					 0.00000000E+00	 0.00000000E+00	 0.00000000E+00	 0.00000000E+00	 0.00000000E+00	 0.00000000E+00
				</DataArray>
			</PointData>
		</Piece>
	</UnstructuredGrid>
</VTKFile>