<?xml version="1.0"?>
<VTKFile type="UnstructuredGrid" version="0.1" byte_order="LittleEndian">
	<UnstructuredGrid>
		<Piece NumberOfPoints="16" NumberOfCells="2">
			<Points>
				<DataArray type="Float64" NumberOfComponents="3" format="ascii">
					 1.00000000E+00	 1.00000000E+00	-1.49012000E-08
					 1.00000000E+00	 0.00000000E+00	-1.49012000E-08
					 1.00000000E+00	 0.00000000E+00	 1.00000000E+00
					 1.00000000E+00	 1.00000000E+00	 1.00000000E+00
					-7.45058000E-09	 1.00000000E+00	-1.49012000E-08
					-7.45058000E-09	 0.00000000E+00	-1.49012000E-08
					-7.45058000E-09	 0.00000000E+00	 1.00000000E+00
					-7.45058000E-09	 1.00000000E+00	 1.00000000E+00
					 5.00000000E-01	 6.41421000E-01	 1.00000000E+00
					 6.41421000E-01	 5.00000000E-01	 1.00000000E+00
					 6.41421000E-01	 5.00000000E-01	 1.20000000E+00
					 5.00000000E-01	 6.41421000E-01	 1.20000000E+00
					 3.58579000E-01	 5.00000000E-01	 1.00000000E+00
					 5.00000000E-01	 3.58579000E-01	 1.00000000E+00
					 5.00000000E-01	 3.58579000E-01	 1.20000000E+00
					 3.58579000E-01	 5.00000000E-01	 1.20000000E+00
				</DataArray>
			</Points>
			<Cells>
				<DataArray type="Int32" Name="connectivity" format="ascii">
					0 1 2 3 4 5 6 7 8 9 10 11 12 13 14 15 
				</DataArray>
				<DataArray type="Int32" Name="offsets" format="ascii">
					8 16 
				</DataArray>
				<DataArray type="UInt8" Name="types" format="ascii">
					12 12 
				</DataArray>
			</Cells>
			<PointData>
				<DataArray type="Float32" Name="U" NumberOfComponents="3" ComponentName0="D1" ComponentName1="D2" ComponentName2="D3" format="ascii">
					 0.00000000E+00	 0.00000000E+00	 0.00000000E+00
					 0.00000000E+00	 0.00000000E+00	 0.00000000E+00
					 3.67324000E-06	-6.79135000E-06	-1.73794000E-05
					 3.67326000E-06	 9.11121000E-07	-1.73794000E-05
					 0.00000000E+00	 0.00000000E+00	 0.00000000E+00
					 0.00000000E+00	 0.00000000E+00	 0.00000000E+00
					-3.67324000E-06	-6.79134000E-06	-1.73794000E-05
					-3.67326000E-06	 9.11121000E-07	-1.73794000E-05
					-1.59346000E-16	-8.57267000E-02	-2.73800000E-05
					 2.19878000E-05	-8.57463000E-02	-2.73800000E-05
					 1.67510000E-05	-8.57619000E-02	-1.20628000E-04
					 0.00000000E+00	-8.57538000E-02	-1.08963000E-04
					-2.19878000E-05	-8.57463000E-02	-2.73800000E-05
					 8.08789000E-17	-8.57602000E-02	-2.73800000E-05
					 0.00000000E+00	-8.58125000E-02	-1.45468000E-04
					-1.67510000E-05	-8.57619000E-02	-1.20628000E-04
				</DataArray>
				<DataArray type="Float32" Name="S" NumberOfComponents="10" ComponentName0="xx" ComponentName1="yy" ComponentName2="zz" ComponentName3="xy" ComponentName4="yz" ComponentName5="zx" ComponentName6="Mises" ComponentName7="Min Principal" ComponentName8="Mid Principal" ComponentName9="Max Principal" format="ascii">
					-2.10557000E+00	-2.10557000E+00	-4.91272000E+00	 5.40595000E-07	 7.35936000E-02	 2.96667000E-01	 2.85663668E+00	-4.94561641E+00	-2.10557025E+00	-2.07267334E+00
					-2.10556000E+00	-2.10556000E+00	-4.91272000E+00	-4.02970000E-06	-5.48487000E-01	 2.96665000E-01	 3.00777187E+00	-5.04500604E+00	-2.10556337E+00	-1.97327059E+00
					 9.04457000E-01	 9.61968000E-01	-3.08947000E+00	-2.01108000E-06	-5.48499000E-01	 2.96671000E-01	 4.16545911E+00	-3.18357183E+00	 9.13117432E-01	 1.04740939E+00
					 9.04468000E-01	 9.61964000E-01	-3.08947000E+00	 2.55973000E-06	 7.35953000E-02	 2.96673000E-01	 4.05768104E+00	-3.11270888E+00	 9.25604169E-01	 9.64066709E-01
					-2.10557000E+00	-2.10557000E+00	-4.91272000E+00	-5.40595000E-07	 7.35936000E-02	-2.96667000E-01	 2.85663668E+00	-4.94561641E+00	-2.10557025E+00	-2.07267334E+00
					-2.10556000E+00	-2.10556000E+00	-4.91272000E+00	 4.02970000E-06	-5.48487000E-01	-2.96665000E-01	 3.00777187E+00	-5.04500604E+00	-2.10556337E+00	-1.97327059E+00
					 9.04457000E-01	 9.61968000E-01	-3.08947000E+00	 2.00882000E-06	-5.48499000E-01	-2.96671000E-01	 4.16545911E+00	-3.18357183E+00	 9.13117434E-01	 1.04740939E+00
					 9.04468000E-01	 9.61964000E-01	-3.08947000E+00	-2.56106000E-06	 7.35953000E-02	-2.96673000E-01	 4.05768104E+00	-3.11270888E+00	 9.25604169E-01	 9.64066709E-01
					 1.13373000E+01	 8.60249000E+00	-7.96047000E+01	-7.88128000E-12	-1.09233000E+01	 6.42776000E-11	 9.15815096E+01	-8.09372753E+01	 9.93506534E+00	 1.13373000E+01
					 1.82997000E+00	-4.16075000E+00	-9.85115000E+01	-1.62612000E+00	-6.28352000E+00	-2.11231000E+00	 9.81985128E+01	-9.89768191E+01	-4.11102011E+00	 2.24555925E+00
					 2.16038000E+00	 1.65580000E+01	-9.21979000E+01	 1.21497000E+01	 4.13663000E+00	 1.64728000E+00	 1.04745561E+02	-9.23700851E+01	-4.75874717E+00	 2.36493123E+01
					-8.99727000E+00	-1.88959000E+01	-9.39489000E+01	 2.90852000E-11	-4.26489000E+00	 5.52340000E-11	 8.07986722E+01	-9.41904750E+01	-1.86543250E+01	-8.99727000E+00
					 1.82997000E+00	-4.16075000E+00	-9.85115000E+01	 1.62612000E+00	-6.28352000E+00	 2.11231000E+00	 9.81985128E+01	-9.89768191E+01	-4.11102011E+00	 2.24555925E+00
					-1.56541000E+01	-2.48916000E+01	-1.35992000E+02	 3.97133000E-12	-2.10811000E+01	-3.26241000E-11	 1.21606573E+02	-1.39857602E+02	-2.10259983E+01	-1.56541000E+01
					 5.34098000E+00	 4.40531000E+01	-1.09026000E+02	-9.36875000E-12	-6.90860000E+00	-4.16546000E-11	 1.38379944E+02	-1.09337159E+02	 5.34098000E+00	 4.43642590E+01
					 2.16038000E+00	 1.65580000E+01	-9.21979000E+01	-1.21497000E+01	 4.13663000E+00	-1.64728000E+00	 1.04745561E+02	-9.23700851E+01	-4.75874717E+00	 2.36493123E+01
				</DataArray>
				<DataArray type="Float32" Name="CONTACT" NumberOfComponents="6" ComponentName0="COPEN" ComponentName1="CSLIP1" ComponentName2="CSLIP2" ComponentName3="CPRESS" ComponentName4="CSHEAR1" ComponentName5="CSHEAR2" format="ascii">
					 0.00000000E+00	 0.00000000E+00	 0.00000000E+00	 0.00000000E+00	 0.00000000E+00	 0.00000000E+00
					 0.00000000E+00	 0.00000000E+00	 0.00000000E+00	 0.00000000E+00	 0.00000000E+00	 0.00000000E+00
					 0.00000000E+00	 0.00000000E+00	 0.00000000E+00	 0.00000000E+00	 0.00000000E+00	 0.00000000E+00
					 0.00000000E+00	 0.00000000E+00	 0.00000000E+00	 0.00000000E+00	 0.00000000E+00	 0.00000000E+00
					 0.00000000E+00	 0.00000000E+00	 0.00000000E+00	 0.00000000E+00	 0.00000000E+00	 0.00000000E+00
					 0.00000000E+00	 0.00000000E+00	 0.00000000E+00	 0.00000000E+00	 0.00000000E+00	 0.00000000E+00
					 0.00000000E+00	 0.00000000E+00	 0.00000000E+00	 0.00000000E+00	 0.00000000E+00	 0.00000000E+00
					 0.00000000E+00	 0.00000000E+00	 0.00000000E+00	 0.00000000E+00	 0.00000000E+00	 0.00000000E+00
					-1.00006000E-05	-2.79544000E-14	-8.57279000E-02	 1.00006000E+02	 2.73569000E-11	-5.93050000E+00
					-1.00006000E-05	 1.67051000E-05	-8.57427000E-02	 1.00006000E+02	-3.22288000E-03	-5.93161000E+00
					 0.00000000E+00	 0.00000000E+00	 0.00000000E+00	 0.00000000E+00	 0.00000000E+00	 0.00000000E+00
					 0.00000000E+00	 0.00000000E+00	 0.00000000E+00	 0.00000000E+00	 0.00000000E+00	 0.00000000E+00
					-1.00006000E-05	-1.67051000E-05	-8.57427000E-02	 1.00006000E+02	 3.22288000E-03	-5.93161000E+00
					-1.00006000E-05	-1.51561000E-14	-8.57529000E-02	 1.00006000E+02	-2.54185000E-11	-5.94368000E+00
					 0.00000000E+00	 0.00000000E+00	 0.00000000E+00	 0.00000000E+00	 0.00000000E+00	 0.00000000E+00
					 0.00000000E+00	 0.00000000E+00	 0.00000000E+00	 0.00000000E+00	 0.00000000E+00	 0.00000000E+00
				</DataArray>
			</PointData>
		</Piece>
	</UnstructuredGrid>
</VTKFile>