<?xml version="1.0"?>
<VTKFile type="UnstructuredGrid" version="0.1" byte_order="LittleEndian">
	<UnstructuredGrid>
		<Piece NumberOfPoints="16" NumberOfCells="2">
			<Points>
				<DataArray type="Float64" NumberOfComponents="3" format="ascii">
					 1.00000000E+00	 1.00000000E+00	-1.49012000E-08
					 1.00000000E+00	 0.00000000E+00	-1.49012000E-08
					 1.00000000E+00	 0.00000000E+00	 1.00000000E+00
					 1.00000000E+00	 1.00000000E+00	 1.00000000E+00
					-7.45058000E-09	 1.00000000E+00	-1.49012000E-08
					-7.45058000E-09	 0.00000000E+00	-1.49012000E-08
					-7.45058000E-09	 0.00000000E+00	 1.00000000E+00
					-7.45058000E-09	 1.00000000E+00	 1.00000000E+00
					 5.00000000E-01	 6.41421000E-01	 1.00000000E+00
					 6.41421000E-01	 5.00000000E-01	 1.00000000E+00
					 6.41421000E-01	 5.00000000E-01	 1.20000000E+00
					 5.00000000E-01	 6.41421000E-01	 1.20000000E+00
					 3.58579000E-01	 5.00000000E-01	 1.00000000E+00
					 5.00000000E-01	 3.58579000E-01	 1.00000000E+00
					 5.00000000E-01	 3.58579000E-01	 1.20000000E+00
					 3.58579000E-01	 5.00000000E-01	 1.20000000E+00
				</DataArray>
			</Points>
			<Cells>
				<DataArray type="Int32" Name="connectivity" format="ascii">
					0 1 2 3 4 5 6 7 8 9 10 11 12 13 14 15 
				</DataArray>
				<DataArray type="Int32" Name="offsets" format="ascii">
					8 16 
				</DataArray>
				<DataArray type="UInt8" Name="types" format="ascii">
					12 12 
				</DataArray>
			</Cells>
			<PointData>
				<DataArray type="Float32" Name="U" NumberOfComponents="3" ComponentName0="D1" ComponentName1="D2" ComponentName2="D3" format="ascii">
					 0.00000000E+00	 0.00000000E+00	 0.00000000E+00
					 0.00000000E+00	 0.00000000E+00	 0.00000000E+00
					 3.69288000E-06	 6.12084000E-06	-1.73573000E-05
					 3.69286000E-06	 1.36924000E-05	-1.73573000E-05
					 0.00000000E+00	 0.00000000E+00	 0.00000000E+00
					 0.00000000E+00	 0.00000000E+00	 0.00000000E+00
					-3.69288000E-06	 6.12084000E-06	-1.73573000E-05
					-3.69286000E-06	 1.36924000E-05	-1.73573000E-05
					 2.19315000E-17	 2.16688000E-02	-2.73557000E-05
					 1.42589000E-05	 2.16465000E-02	-2.73557000E-05
					 3.18937000E-05	 2.16990000E-02	-1.29729000E-04
					 0.00000000E+00	 2.17601000E-02	-1.69066000E-04
					-1.42589000E-05	 2.16465000E-02	-2.73557000E-05
					 2.79247000E-16	 2.16051000E-02	-2.73557000E-05
					 0.00000000E+00	 2.17813000E-02	-4.60460000E-05
					-3.18937000E-05	 2.16990000E-02	-1.29729000E-04
				</DataArray>
				<DataArray type="Float32" Name="S" NumberOfComponents="10" ComponentName0="xx" ComponentName1="yy" ComponentName2="zz" ComponentName3="xy" ComponentName4="yz" ComponentName5="zx" ComponentName6="Mises" ComponentName7="Min Principal" ComponentName8="Mid Principal" ComponentName9="Max Principal" format="ascii">
					-2.10288000E+00	-2.10285000E+00	-4.90646000E+00	 8.16789000E-06	 1.10582000E+00	 2.98250000E-01	 3.43446033E+00	-5.31486144E+00	-2.10288207E+00	-1.69444649E+00
					-2.10289000E+00	-2.10289000E+00	-4.90648000E+00	 3.65130000E-06	 4.94316000E-01	 2.98251000E-01	 2.97657904E+00	-5.02070968E+00	-2.10289323E+00	-1.98865709E+00
					 9.02378000E-01	 9.32393000E-01	-3.09433000E+00	 1.90202000E-06	 4.94327000E-01	 2.98258000E-01	 4.13454810E+00	-3.17562746E+00	 9.08607470E-01	 1.00746099E+00
					 9.02375000E-01	 9.32421000E-01	-3.09431000E+00	 6.41901000E-06	 1.10585000E+00	 2.98256000E-01	 4.47549559E+00	-3.39743368E+00	 9.04248314E-01	 1.23367137E+00
					-2.10288000E+00	-2.10285000E+00	-4.90646000E+00	-8.16789000E-06	 1.10582000E+00	-2.98250000E-01	 3.43446033E+00	-5.31486144E+00	-2.10288207E+00	-1.69444649E+00
					-2.10289000E+00	-2.10289000E+00	-4.90648000E+00	-3.65130000E-06	 4.94316000E-01	-2.98251000E-01	 2.97657904E+00	-5.02070968E+00	-2.10289323E+00	-1.98865709E+00
					 9.02378000E-01	 9.32393000E-01	-3.09433000E+00	-1.89361000E-06	 4.94327000E-01	-2.98258000E-01	 4.13454810E+00	-3.17562746E+00	 9.08607476E-01	 1.00746098E+00
					 9.02375000E-01	 9.32421000E-01	-3.09431000E+00	-6.40990000E-06	 1.10585000E+00	-2.98256000E-01	 4.47549559E+00	-3.39743368E+00	 9.04248319E-01	 1.23367136E+00
					-3.81977000E+01	-2.89500000E+01	-1.68701000E+02	 2.57256000E-11	 3.67934000E+01	-8.83493000E-12	 1.49615338E+02	-1.77795999E+02	-3.81977000E+01	-1.98550005E+01
					-6.18034000E+00	 1.39683000E+01	-1.05057000E+02	 5.47102000E+00	 2.11533000E+01	 7.11182000E+00	 1.17297520E+02	-1.09064954E+02	-7.54621457E+00	 1.93421288E+01
					-7.28025000E+00	-5.58251000E+01	-1.26299000E+02	-4.09515000E+01	-1.39311000E+01	-5.54560000E+00	 1.28257092E+02	-1.30613810E+02	-7.48730626E+01	 1.60825226E+01
					 3.03219000E+01	 6.37160000E+01	-1.20369000E+02	-2.07536000E-11	 1.43420000E+01	 2.27226000E-11	 1.71674632E+02	-1.21479679E+02	 3.03219000E+01	 6.48266791E+01
					-6.18034000E+00	 1.39683000E+01	-1.05057000E+02	-5.47102000E+00	 2.11533000E+01	-7.11182000E+00	 1.17297520E+02	-1.09064954E+02	-7.54621457E+00	 1.93421288E+01
					 5.27440000E+01	 8.38964000E+01	 2.13739000E+01	-2.40976000E-11	 7.11373000E+01	-1.12738000E-10	 1.34585866E+02	-2.50680108E+01	 5.27440000E+01	 1.30338311E+02
					-1.79795000E+01	-1.48257000E+02	-6.95041000E+01	 4.79584000E-11	 2.33137000E+01	-8.11372000E-11	 1.20603073E+02	-1.54641160E+02	-6.31199401E+01	-1.79795000E+01
					-7.28025000E+00	-5.58251000E+01	-1.26299000E+02	 4.09515000E+01	-1.39311000E+01	 5.54560000E+00	 1.28257092E+02	-1.30613810E+02	-7.48730626E+01	 1.60825226E+01
				</DataArray>
				<DataArray type="Float32" Name="CONTACT" NumberOfComponents="6" ComponentName0="COPEN" ComponentName1="CSLIP1" ComponentName2="CSLIP2" ComponentName3="CPRESS" ComponentName4="CSHEAR1" ComponentName5="CSHEAR2" format="ascii">
					 0.00000000E+00	 0.00000000E+00	 0.00000000E+00	 0.00000000E+00	 0.00000000E+00	 0.00000000E+00
					 0.00000000E+00	 0.00000000E+00	 0.00000000E+00	 0.00000000E+00	 0.00000000E+00	 0.00000000E+00
					 0.00000000E+00	 0.00000000E+00	 0.00000000E+00	 0.00000000E+00	 0.00000000E+00	 0.00000000E+00
					 0.00000000E+00	 0.00000000E+00	 0.00000000E+00	 0.00000000E+00	 0.00000000E+00	 0.00000000E+00
					 0.00000000E+00	 0.00000000E+00	 0.00000000E+00	 0.00000000E+00	 0.00000000E+00	 0.00000000E+00
					 0.00000000E+00	 0.00000000E+00	 0.00000000E+00	 0.00000000E+00	 0.00000000E+00	 0.00000000E+00
					 0.00000000E+00	 0.00000000E+00	 0.00000000E+00	 0.00000000E+00	 0.00000000E+00	 0.00000000E+00
					 0.00000000E+00	 0.00000000E+00	 0.00000000E+00	 0.00000000E+00	 0.00000000E+00	 0.00000000E+00
					-9.99836000E-06	 6.70288000E-15	 2.16533000E-02	 9.99836000E+01	 6.15678000E-12	 1.99967000E+01
					-9.99836000E-06	 1.05374000E-05	 2.16365000E-02	 9.99836000E+01	 9.74105000E-03	 1.99967000E+01
					 0.00000000E+00	 0.00000000E+00	 0.00000000E+00	 0.00000000E+00	 0.00000000E+00	 0.00000000E+00
					 0.00000000E+00	 0.00000000E+00	 0.00000000E+00	 0.00000000E+00	 0.00000000E+00	 0.00000000E+00
					-9.99836000E-06	-1.05374000E-05	 2.16365000E-02	 9.99836000E+01	-9.74105000E-03	 1.99967000E+01
					-9.99836000E-06	-5.44181000E-14	 2.16042000E-02	 9.99836000E+01	-5.04126000E-11	 1.99967000E+01
					 0.00000000E+00	 0.00000000E+00	 0.00000000E+00	 0.00000000E+00	 0.00000000E+00	 0.00000000E+00
					 0.00000000E+00	 0.00000000E+00	 0.00000000E+00	 0.00000000E+00	 0.00000000E+00	 0.00000000E+00
				</DataArray>
			</PointData>
		</Piece>
	</UnstructuredGrid>
</VTKFile>