# vtk DataFile Version 3.0

ASCII
DATASET UNSTRUCTURED_GRID

POINTS 16 double
	 1.00000000E+00	 1.00000000E+00	-1.49012000E-08
	 1.00000000E+00	 0.00000000E+00	-1.49012000E-08
	 1.00000000E+00	 0.00000000E+00	 1.00000000E+00
	 1.00000000E+00	 1.00000000E+00	 1.00000000E+00
	-7.45058000E-09	 1.00000000E+00	-1.49012000E-08
	-7.45058000E-09	 0.00000000E+00	-1.49012000E-08
	-7.45058000E-09	 0.00000000E+00	 1.00000000E+00
	-7.45058000E-09	 1.00000000E+00	 1.00000000E+00
	 5.00000000E-01	 6.41421000E-01	 1.00000000E+00
	 6.41421000E-01	 5.00000000E-01	 1.00000000E+00
	 6.41421000E-01	 5.00000000E-01	 1.20000000E+00
	 5.00000000E-01	 6.41421000E-01	 1.20000000E+00
	 3.58579000E-01	 5.00000000E-01	 1.00000000E+00
	 5.00000000E-01	 3.58579000E-01	 1.00000000E+00
	 5.00000000E-01	 3.58579000E-01	 1.20000000E+00
	 3.58579000E-01	 5.00000000E-01	 1.20000000E+00

CELLS 2 18
	8 0 1 2 3 4 5 6 7 
	8 8 9 10 11 12 13 14 15 

CELL_TYPES 2
	12
	12

POINT_DATA 16
FIELD U 1
	U 3 16 double
		 0.00000000E+00	 0.00000000E+00	 0.00000000E+00
		 0.00000000E+00	 0.00000000E+00	 0.00000000E+00
		 3.71482000E-06	-1.98791000E-06	-1.73388000E-05
		 3.71482000E-06	 5.44640000E-06	-1.73388000E-05
		 0.00000000E+00	 0.00000000E+00	 0.00000000E+00
		 0.00000000E+00	 0.00000000E+00	 0.00000000E+00
		-3.71482000E-06	-1.98791000E-06	-1.73388000E-05
		-3.71482000E-06	 5.44640000E-06	-1.73388000E-05
		 1.65519000E-16	 3.51376000E-03	-2.73386000E-05
		 1.91743000E-05	 3.49318000E-03	-2.73386000E-05
		 2.22557000E-05	 3.50234000E-03	-1.23897000E-04
		 0.00000000E+00	 3.52969000E-03	-1.30762000E-04
		-1.91743000E-05	 3.49318000E-03	-2.73386000E-05
		 1.99078000E-16	 3.46925000E-03	-2.73386000E-05
		 0.00000000E+00	 3.50000000E-03	-1.09290000E-04
		-2.22557000E-05	 3.50234000E-03	-1.23897000E-04
FIELD S 1
	S 10 16 double
		-2.10065000E+00	-2.10065000E+00	-4.90126000E+00	 3.26823000E-06	 4.39867000E-01	 3.00023000E-01	 2.94854315E+00	-4.99907067E+00	-2.10065304E+00	-2.00283628E+00
		-2.10065000E+00	-2.10066000E+00	-4.90126000E+00	-1.19288000E-06	-1.60556000E-01	 3.00023000E-01	 2.86195116E+00	-4.94201231E+00	-2.10065877E+00	-2.05989892E+00
		 9.00391000E-01	 9.01142000E-01	-3.10043000E+00	-1.47214000E-06	-1.60560000E-01	 3.00030000E-01	 4.04437466E+00	-3.12916583E+00	 9.00970144E-01	 9.29298690E-01
		 9.00390000E-01	 9.01147000E-01	-3.10042000E+00	 2.98903000E-06	 4.39877000E-01	 3.00030000E-01	 4.10609780E+00	-3.17006180E+00	 9.00625840E-01	 9.70552964E-01
		-2.10065000E+00	-2.10065000E+00	-4.90126000E+00	-3.26823000E-06	 4.39867000E-01	-3.00023000E-01	 2.94854315E+00	-4.99907067E+00	-2.10065304E+00	-2.00283628E+00
		-2.10065000E+00	-2.10066000E+00	-4.90126000E+00	 1.19288000E-06	-1.60556000E-01	-3.00023000E-01	 2.86195116E+00	-4.94201231E+00	-2.10065877E+00	-2.05989892E+00
		 9.00391000E-01	 9.01142000E-01	-3.10043000E+00	 1.47366000E-06	-1.60560000E-01	-3.00030000E-01	 4.04437466E+00	-3.12916583E+00	 9.00970143E-01	 9.29298691E-01
		 9.00390000E-01	 9.01147000E-01	-3.10042000E+00	-2.98749000E-06	 4.39877000E-01	-3.00030000E-01	 4.10609780E+00	-3.17006180E+00	 9.00625841E-01	 9.70552962E-01
		-6.67444000E+00	-5.06645000E+00	-1.11993000E+02	 2.83573000E-11	 6.42617000E+00	-6.67602000E-11	 1.06713743E+02	-1.12377821E+02	-6.67444000E+00	-4.68162908E+00
		-1.08332000E+00	 2.43442000E+00	-1.00875000E+02	 9.55503000E-01	 3.69471000E+00	 1.24284000E+00	 1.01833789E+02	-1.01021569E+02	-1.32526123E+00	 2.82293018E+00
		-1.26739000E+00	-9.73609000E+00	-1.04580000E+02	-7.14663000E+00	-2.43237000E+00	-9.66841000E-01	 1.00220094E+02	-1.04655189E+02	-1.37346580E+01	 2.80636729E+00
		 5.29425000E+00	 1.11199000E+01	-1.03550000E+02	-3.84894000E-11	 2.50802000E+00	-2.88920000E-11	 1.11955205E+02	-1.03604828E+02	 5.29425000E+00	 1.11747283E+01
		-1.08332000E+00	 2.43442000E+00	-1.00875000E+02	-9.55503000E-01	 3.69471000E+00	-1.24284000E+00	 1.01833789E+02	-1.01021569E+02	-1.32526123E+00	 2.82293018E+00
		 9.19934000E+00	 1.46300000E+01	-7.88246000E+01	-2.92757000E-11	 1.24030000E+01	-8.03157000E-11	 9.33661470E+01	-8.04426718E+01	 9.19934000E+00	 1.62480718E+01
		-3.13761000E+00	-2.58944000E+01	-9.46781000E+01	 4.23689000E-11	 4.06372000E+00	-4.24371000E-11	 8.28486968E+01	-9.49173511E+01	-2.56551489E+01	-3.13761000E+00
		-1.26739000E+00	-9.73609000E+00	-1.04580000E+02	 7.14663000E+00	-2.43237000E+00	 9.66841000E-01	 1.00220094E+02	-1.04655189E+02	-1.37346580E+01	 2.80636729E+00
FIELD CONTACT 1
	CONTACT 6 16 double
		 0.00000000E+00	 0.00000000E+00	 0.00000000E+00	 0.00000000E+00	 0.00000000E+00	 0.00000000E+00
		 0.00000000E+00	 0.00000000E+00	 0.00000000E+00	 0.00000000E+00	 0.00000000E+00	 0.00000000E+00
		 0.00000000E+00	 0.00000000E+00	 0.00000000E+00	 0.00000000E+00	 0.00000000E+00	 0.00000000E+00
		 0.00000000E+00	 0.00000000E+00	 0.00000000E+00	 0.00000000E+00	 0.00000000E+00	 0.00000000E+00
		 0.00000000E+00	 0.00000000E+00	 0.00000000E+00	 0.00000000E+00	 0.00000000E+00	 0.00000000E+00
		 0.00000000E+00	 0.00000000E+00	 0.00000000E+00	 0.00000000E+00	 0.00000000E+00	 0.00000000E+00
		 0.00000000E+00	 0.00000000E+00	 0.00000000E+00	 0.00000000E+00	 0.00000000E+00	 0.00000000E+00
		 0.00000000E+00	 0.00000000E+00	 0.00000000E+00	 0.00000000E+00	 0.00000000E+00	 0.00000000E+00
		-9.99972000E-06	-2.16246000E-14	 3.50698000E-03	 9.99972000E+01	-2.16246000E-11	 3.50698000E+00
		-9.99972000E-06	 1.44521000E-05	 3.49143000E-03	 9.99972000E+01	 1.44521000E-02	 3.49143000E+00
		 0.00000000E+00	 0.00000000E+00	 0.00000000E+00	 0.00000000E+00	 0.00000000E+00	 0.00000000E+00
		 0.00000000E+00	 0.00000000E+00	 0.00000000E+00	 0.00000000E+00	 0.00000000E+00	 0.00000000E+00
		-9.99972000E-06	-1.44521000E-05	 3.49143000E-03	 9.99972000E+01	-1.44521000E-02	 3.49143000E+00
		-9.99972000E-06	-3.23045000E-14	 3.47317000E-03	 9.99972000E+01	-3.23045000E-11	 3.47317000E+00
		 0.00000000E+00	 0.00000000E+00	 0.00000000E+00	 0.00000000E+00	 0.00000000E+00	 0.00000000E+00
		 0.00000000E+00	 0.00000000E+00	 0.00000000E+00	 0.00000000E+00	 0.00000000E+00	 0.00000000E+00
