# vtk DataFile Version 3.0

ASCII
DATASET UNSTRUCTURED_GRID

POINTS 16 double
	 1.00000000E+00	 1.00000000E+00	-1.49012000E-08
	 1.00000000E+00	 0.00000000E+00	-1.49012000E-08
	 1.00000000E+00	 0.00000000E+00	 1.00000000E+00
	 1.00000000E+00	 1.00000000E+00	 1.00000000E+00
	-7.45058000E-09	 1.00000000E+00	-1.49012000E-08
	-7.45058000E-09	 0.00000000E+00	-1.49012000E-08
	-7.45058000E-09	 0.00000000E+00	 1.00000000E+00
	-7.45058000E-09	 1.00000000E+00	 1.00000000E+00
	 5.00000000E-01	 6.41421000E-01	 1.00000000E+00
	 6.41421000E-01	 5.00000000E-01	 1.00000000E+00
	 6.41421000E-01	 5.00000000E-01	 1.20000000E+00
	 5.00000000E-01	 6.41421000E-01	 1.20000000E+00
	 3.58579000E-01	 5.00000000E-01	 1.00000000E+00
	 5.00000000E-01	 3.58579000E-01	 1.00000000E+00
	 5.00000000E-01	 3.58579000E-01	 1.20000000E+00
	 3.58579000E-01	 5.00000000E-01	 1.20000000E+00

CELLS 2 18
	8 0 1 2 3 4 5 6 7 
	8 8 9 10 11 12 13 14 15 

CELL_TYPES 2
	12
	12

POINT_DATA 16
FIELD U 1
	U 3 16 double
		 0.00000000E+00	 0.00000000E+00	 0.00000000E+00
		 0.00000000E+00	 0.00000000E+00	 0.00000000E+00
		 3.81981000E-06	 6.52872000E-06	-1.72369000E-05
		 3.81980000E-06	 1.32845000E-05	-1.72369000E-05
		 0.00000000E+00	 0.00000000E+00	 0.00000000E+00
		 0.00000000E+00	 0.00000000E+00	 0.00000000E+00
		-3.81981000E-06	 6.52872000E-06	-1.72369000E-05
		-3.81980000E-06	 1.32845000E-05	-1.72369000E-05
		 1.02075000E-16	-4.98546000E-02	-2.72353000E-05
		 1.42641000E-05	-4.98769000E-02	-2.72353000E-05
		 3.18917000E-05	-4.98244000E-02	-1.29608000E-04
		 0.00000000E+00	-4.97633000E-02	-1.68949000E-04
		-1.42641000E-05	-4.98769000E-02	-2.72353000E-05
		 5.07916000E-17	-4.99184000E-02	-2.72353000E-05
		 0.00000000E+00	-4.97422000E-02	-4.59281000E-05
		-3.18917000E-05	-4.98244000E-02	-1.29608000E-04
FIELD S 1
	S 10 16 double
		-2.08829000E+00	-2.08826000E+00	-4.87242000E+00	 8.19699000E-06	 1.07288000E+00	 3.08502000E-01	 3.38971950E+00	-5.26475332E+00	-2.08829206E+00	-1.69592462E+00
		-2.08830000E+00	-2.08829000E+00	-4.87244000E+00	 4.02846000E-06	 5.27258000E-01	 3.08502000E-01	 2.97842019E+00	-5.00057787E+00	-2.08830096E+00	-1.96015117E+00
		 8.89897000E-01	 7.47132000E-01	-3.12837000E+00	 3.67531000E-06	 5.27269000E-01	 3.08509000E-01	 4.08812363E+00	-3.22157053E+00	 8.02509919E-01	 9.27719614E-01
		 8.89902000E-01	 7.47160000E-01	-3.12835000E+00	 7.84238000E-06	 1.07291000E+00	 3.08509000E-01	 4.39682750E+00	-3.42622896E+00	 8.71732460E-01	 1.06320850E+00
		-2.08829000E+00	-2.08826000E+00	-4.87242000E+00	-8.19699000E-06	 1.07288000E+00	-3.08502000E-01	 3.38971950E+00	-5.26475332E+00	-2.08829206E+00	-1.69592462E+00
		-2.08830000E+00	-2.08829000E+00	-4.87244000E+00	-4.02846000E-06	 5.27258000E-01	-3.08502000E-01	 2.97842019E+00	-5.00057787E+00	-2.08830096E+00	-1.96015117E+00
		 8.89897000E-01	 7.47132000E-01	-3.12837000E+00	-3.66593000E-06	 5.27269000E-01	-3.08509000E-01	 4.08812363E+00	-3.22157053E+00	 8.02509925E-01	 9.27719609E-01
		 8.89902000E-01	 7.47160000E-01	-3.12835000E+00	-7.83600000E-06	 1.07291000E+00	-3.08509000E-01	 4.39682750E+00	-3.42622896E+00	 8.71732466E-01	 1.06320850E+00
		-3.81906000E+01	-2.89511000E+01	-1.68702000E+02	-7.15298000E-12	 3.67946000E+01	-4.11550000E-11	 1.49619456E+02	-1.77797564E+02	-3.81906000E+01	-1.98555357E+01
		-6.17101000E+00	 1.39695000E+01	-1.05052000E+02	 5.47103000E+00	 2.11533000E+01	 7.10895000E+00	 1.17296199E+02	-1.09059710E+02	-7.53751615E+00	 1.93437163E+01
		-7.28259000E+00	-5.58241000E+01	-1.26298000E+02	-4.09516000E+01	-1.39312000E+01	-5.54635000E+00	 1.28255136E+02	-1.30613097E+02	-7.48726697E+01	 1.60810767E+01
		 3.03173000E+01	 6.37148000E+01	-1.20373000E+02	-1.45325000E-11	 1.43410000E+01	-2.59314000E-11	 1.71675950E+02	-1.21483508E+02	 3.03173000E+01	 6.48253084E+01
		-6.17101000E+00	 1.39695000E+01	-1.05052000E+02	-5.47103000E+00	 2.11533000E+01	-7.10895000E+00	 1.17296199E+02	-1.09059710E+02	-7.53751615E+00	 1.93437163E+01
		 5.27511000E+01	 8.38954000E+01	 2.13731000E+01	-3.37562000E-11	 7.11361000E+01	-2.05358000E-11	 1.34583901E+02	-2.50677720E+01	 5.27511000E+01	 1.30336272E+02
		-1.79841000E+01	-1.48259000E+02	-6.95085000E+01	 1.62293000E-11	 2.33147000E+01	-5.27312000E-12	 1.20601422E+02	-1.54643837E+02	-6.31236631E+01	-1.79841000E+01
		-7.28259000E+00	-5.58241000E+01	-1.26298000E+02	 4.09516000E+01	-1.39312000E+01	 5.54635000E+00	 1.28255136E+02	-1.30613097E+02	-7.48726697E+01	 1.60810767E+01
FIELD CONTACT 1
	CONTACT 6 16 double
		 0.00000000E+00	 0.00000000E+00	 0.00000000E+00	 0.00000000E+00	 0.00000000E+00	 0.00000000E+00
		 0.00000000E+00	 0.00000000E+00	 0.00000000E+00	 0.00000000E+00	 0.00000000E+00	 0.00000000E+00
		 0.00000000E+00	 0.00000000E+00	 0.00000000E+00	 0.00000000E+00	 0.00000000E+00	 0.00000000E+00
		 0.00000000E+00	 0.00000000E+00	 0.00000000E+00	 0.00000000E+00	 0.00000000E+00	 0.00000000E+00
		 0.00000000E+00	 0.00000000E+00	 0.00000000E+00	 0.00000000E+00	 0.00000000E+00	 0.00000000E+00
		 0.00000000E+00	 0.00000000E+00	 0.00000000E+00	 0.00000000E+00	 0.00000000E+00	 0.00000000E+00
		 0.00000000E+00	 0.00000000E+00	 0.00000000E+00	 0.00000000E+00	 0.00000000E+00	 0.00000000E+00
		 0.00000000E+00	 0.00000000E+00	 0.00000000E+00	 0.00000000E+00	 0.00000000E+00	 0.00000000E+00
		-9.99839000E-06	-2.62557000E-14	-4.98695000E-02	 9.99839000E+01	 1.94382000E-11	 1.99968000E+01
		-9.99839000E-06	 1.05129000E-05	-4.98864000E-02	 9.99839000E+01	-6.29270000E-03	 1.99968000E+01
		 0.00000000E+00	 0.00000000E+00	 0.00000000E+00	 0.00000000E+00	 0.00000000E+00	 0.00000000E+00
		 0.00000000E+00	 0.00000000E+00	 0.00000000E+00	 0.00000000E+00	 0.00000000E+00	 0.00000000E+00
		-9.99839000E-06	-1.05129000E-05	-4.98864000E-02	 9.99839000E+01	 6.29270000E-03	 1.99968000E+01
		-9.99839000E-06	-8.14936000E-14	-4.99188000E-02	 9.99839000E+01	-6.13869000E-11	 1.99968000E+01
		 0.00000000E+00	 0.00000000E+00	 0.00000000E+00	 0.00000000E+00	 0.00000000E+00	 0.00000000E+00
		 0.00000000E+00	 0.00000000E+00	 0.00000000E+00	 0.00000000E+00	 0.00000000E+00	 0.00000000E+00
