<?xml version="1.0"?>
<VTKFile type="UnstructuredGrid" version="0.1" byte_order="LittleEndian">
	<UnstructuredGrid>
		<Piece NumberOfPoints="16" NumberOfCells="2">
			<Points>
				<DataArray type="Float64" NumberOfComponents="3" format="ascii">
					 1.00000000E+00	 1.00000000E+00	-1.49012000E-08
					 1.00000000E+00	 0.00000000E+00	-1.49012000E-08
					 1.00000000E+00	 0.00000000E+00	 1.00000000E+00
					 1.00000000E+00	 1.00000000E+00	 1.00000000E+00
					-7.45058000E-09	 1.00000000E+00	-1.49012000E-08
					-7.45058000E-09	 0.00000000E+00	-1.49012000E-08
					-7.45058000E-09	 0.00000000E+00	 1.00000000E+00
					-7.45058000E-09	 1.00000000E+00	 1.00000000E+00
					 5.00000000E-01	 6.41421000E-01	 1.00000000E+00
					 6.41421000E-01	 5.00000000E-01	 1.00000000E+00
					 6.41421000E-01	 5.00000000E-01	 1.20000000E+00
					 5.00000000E-01	 6.41421000E-01	 1.20000000E+00
					 3.58579000E-01	 5.00000000E-01	 1.00000000E+00
					 5.00000000E-01	 3.58579000E-01	 1.00000000E+00
					 5.00000000E-01	 3.58579000E-01	 1.20000000E+00
					 3.58579000E-01	 5.00000000E-01	 1.20000000E+00
				</DataArray>
			</Points>
			<Cells>
				<DataArray type="Int32" Name="connectivity" format="ascii">
					0 1 2 3 4 5 6 7 8 9 10 11 12 13 14 15 
				</DataArray>
				<DataArray type="Int32" Name="offsets" format="ascii">
					8 16 
				</DataArray>
				<DataArray type="UInt8" Name="types" format="ascii">
					12 12 
				</DataArray>
			</Cells>
			<PointData>
				<DataArray type="Float32" Name="U" NumberOfComponents="3" ComponentName0="D1" ComponentName1="D2" ComponentName2="D3" format="ascii">
					 0.00000000E+00	 0.00000000E+00	 0.00000000E+00
					 0.00000000E+00	 0.00000000E+00	 0.00000000E+00
					 3.57389000E-06	 4.75618000E-06	-1.74702000E-05
					 3.57387000E-06	 1.30918000E-05	-1.74702000E-05
					 0.00000000E+00	 0.00000000E+00	 0.00000000E+00
					 0.00000000E+00	 0.00000000E+00	 0.00000000E+00
					-3.57389000E-06	 4.75618000E-06	-1.74702000E-05
					-3.57387000E-06	 1.30918000E-05	-1.74702000E-05
					 1.52183000E-16	 9.79027000E-02	-2.74686000E-05
					 1.48518000E-05	 9.78806000E-02	-2.74686000E-05
					 3.07347000E-05	 9.79279000E-02	-1.29142000E-04
					 0.00000000E+00	 9.79850000E-02	-1.64578000E-04
					-1.48518000E-05	 9.78806000E-02	-2.74686000E-05
					-1.96168000E-16	 9.78413000E-02	-2.74686000E-05
					 0.00000000E+00	 9.80000000E-02	-5.37602000E-05
					-3.07347000E-05	 9.79279000E-02	-1.29142000E-04
				</DataArray>
				<DataArray type="Float32" Name="S" NumberOfComponents="10" ComponentName0="xx" ComponentName1="yy" ComponentName2="zz" ComponentName3="xy" ComponentName4="yz" ComponentName5="zx" ComponentName6="Mises" ComponentName7="Min Principal" ComponentName8="Mid Principal" ComponentName9="Max Principal" format="ascii">
					-2.11656000E+00	-2.11654000E+00	-4.93838000E+00	 7.55800000E-06	 1.05732000E+00	 2.88639000E-01	 3.40094674E+00	-5.31405799E+00	-2.11656245E+00	-1.74085956E+00
					-2.11657000E+00	-2.11658000E+00	-4.93840000E+00	 2.74582000E-06	 3.84103000E-01	 2.88641000E-01	 2.94197936E+00	-5.01796485E+00	-2.11657625E+00	-2.03700891E+00
					 9.13994000E-01	 1.10589000E+00	-3.06251000E+00	 1.02483000E-06	 3.84112000E-01	 2.88647000E-01	 4.15993518E+00	-3.11810297E+00	 9.31213757E-01	 1.14426321E+00
					 9.13990000E-01	 1.10591000E+00	-3.06250000E+00	 5.83896000E-06	 1.05735000E+00	 2.88646000E-01	 4.49626407E+00	-3.33392218E+00	 9.22259868E-01	 1.36906231E+00
					-2.11656000E+00	-2.11654000E+00	-4.93838000E+00	-7.55800000E-06	 1.05732000E+00	-2.88639000E-01	 3.40094674E+00	-5.31405799E+00	-2.11656245E+00	-1.74085956E+00
					-2.11657000E+00	-2.11658000E+00	-4.93840000E+00	-2.74582000E-06	 3.84103000E-01	-2.88641000E-01	 2.94197936E+00	-5.01796485E+00	-2.11657625E+00	-2.03700891E+00
					 9.13994000E-01	 1.10589000E+00	-3.06251000E+00	-1.02007000E-06	 3.84112000E-01	-2.88647000E-01	 4.15993518E+00	-3.11810297E+00	 9.31213758E-01	 1.14426321E+00
					 9.13990000E-01	 1.10591000E+00	-3.06250000E+00	-5.83042000E-06	 1.05735000E+00	-2.88646000E-01	 4.49626407E+00	-3.33392218E+00	 9.22259870E-01	 1.36906231E+00
					-3.44058000E+01	-2.60815000E+01	-1.61887000E+02	 3.73976000E-13	 3.31454000E+01	-6.13516000E-11	 1.43797756E+02	-1.69544828E+02	-3.44058000E+01	-1.84236717E+01
					-5.56185000E+00	 1.25868000E+01	-1.04549000E+02	 4.92887000E+00	 1.90565000E+01	 6.40541000E+00	 1.14933599E+02	-1.07873627E+02	-6.79444974E+00	 1.71440266E+01
					-6.55919000E+00	-5.02852000E+01	-1.23688000E+02	-3.68887000E+01	-1.25498000E+01	-4.99623000E+00	 1.23041678E+02	-1.26929868E+02	-6.80869185E+01	 1.44843966E+01
					 2.73117000E+01	 5.73923000E+01	-1.18351000E+02	-1.88051000E-11	 1.29209000E+01	-6.56177000E-11	 1.64331783E+02	-1.19295883E+02	 2.73117000E+01	 5.83371830E+01
					-5.56185000E+00	 1.25868000E+01	-1.04549000E+02	-4.92887000E+00	 1.90565000E+01	-6.40541000E+00	 1.14933599E+02	-1.07873627E+02	-6.79444974E+00	 1.71440266E+01
					 4.75160000E+01	 7.55725000E+01	 9.32942000E+00	-1.77498000E-11	 6.40735000E+01	 7.91603000E-11	 1.25032012E+02	-2.96770499E+01	 4.75160000E+01	 1.14578970E+02
					-1.61995000E+01	-1.33565000E+02	-7.25351000E+01	-1.70153000E-11	 2.09993000E+01	 7.49135000E-11	 1.07978777E+02	-1.40092361E+02	-6.60077394E+01	-1.61995000E+01
					-6.55919000E+00	-5.02852000E+01	-1.23688000E+02	 3.68887000E+01	-1.25498000E+01	 4.99623000E+00	 1.23041678E+02	-1.26929868E+02	-6.80869185E+01	 1.44843966E+01
				</DataArray>
				<DataArray type="Float32" Name="CONTACT" NumberOfComponents="6" ComponentName0="COPEN" ComponentName1="CSLIP1" ComponentName2="CSLIP2" ComponentName3="CPRESS" ComponentName4="CSHEAR1" ComponentName5="CSHEAR2" format="ascii">
					 0.00000000E+00	 0.00000000E+00	 0.00000000E+00	 0.00000000E+00	 0.00000000E+00	 0.00000000E+00
					 0.00000000E+00	 0.00000000E+00	 0.00000000E+00	 0.00000000E+00	 0.00000000E+00	 0.00000000E+00
					 0.00000000E+00	 0.00000000E+00	 0.00000000E+00	 0.00000000E+00	 0.00000000E+00	 0.00000000E+00
					 0.00000000E+00	 0.00000000E+00	 0.00000000E+00	 0.00000000E+00	 0.00000000E+00	 0.00000000E+00
					 0.00000000E+00	 0.00000000E+00	 0.00000000E+00	 0.00000000E+00	 0.00000000E+00	 0.00000000E+00
					 0.00000000E+00	 0.00000000E+00	 0.00000000E+00	 0.00000000E+00	 0.00000000E+00	 0.00000000E+00
					 0.00000000E+00	 0.00000000E+00	 0.00000000E+00	 0.00000000E+00	 0.00000000E+00	 0.00000000E+00
					 0.00000000E+00	 0.00000000E+00	 0.00000000E+00	 0.00000000E+00	 0.00000000E+00	 0.00000000E+00
					-9.99838000E-06	-2.80195000E-15	 9.78874000E-02	 9.99838000E+01	-8.09821000E-12	 1.80125000E+01
					-9.99838000E-06	 1.10371000E-05	 9.78709000E-02	 9.99838000E+01	 1.14664000E-03	 1.80126000E+01
					 0.00000000E+00	 0.00000000E+00	 0.00000000E+00	 0.00000000E+00	 0.00000000E+00	 0.00000000E+00
					 0.00000000E+00	 0.00000000E+00	 0.00000000E+00	 0.00000000E+00	 0.00000000E+00	 0.00000000E+00
					-9.99838000E-06	-1.10371000E-05	 9.78709000E-02	 9.99838000E+01	-1.14664000E-03	 1.80126000E+01
					-9.99838000E-06	-4.97494000E-14	 9.78403000E-02	 9.99838000E+01	-8.41013000E-12	 1.80143000E+01
					 0.00000000E+00	 0.00000000E+00	 0.00000000E+00	 0.00000000E+00	 0.00000000E+00	 0.00000000E+00
					 0.00000000E+00	 0.00000000E+00	 0.00000000E+00	 0.00000000E+00	 0.00000000E+00	 0.00000000E+00
				</DataArray>
			</PointData>
		</Piece>
	</UnstructuredGrid>
</VTKFile>