# vtk DataFile Version 3.0

ASCII
DATASET UNSTRUCTURED_GRID

POINTS 16 double
	 1.00000000E+00	 1.00000000E+00	-1.49012000E-08
	 1.00000000E+00	 0.00000000E+00	-1.49012000E-08
	 1.00000000E+00	 0.00000000E+00	 1.00000000E+00
	 1.00000000E+00	 1.00000000E+00	 1.00000000E+00
	-7.45058000E-09	 1.00000000E+00	-1.49012000E-08
	-7.45058000E-09	 0.00000000E+00	-1.49012000E-08
	-7.45058000E-09	 0.00000000E+00	 1.00000000E+00
	-7.45058000E-09	 1.00000000E+00	 1.00000000E+00
	 5.00000000E-01	 6.41421000E-01	 1.00000000E+00
	 6.41421000E-01	 5.00000000E-01	 1.00000000E+00
	 6.41421000E-01	 5.00000000E-01	 1.20000000E+00
	 5.00000000E-01	 6.41421000E-01	 1.20000000E+00
	 3.58579000E-01	 5.00000000E-01	 1.00000000E+00
	 5.00000000E-01	 3.58579000E-01	 1.00000000E+00
	 5.00000000E-01	 3.58579000E-01	 1.20000000E+00
	 3.58579000E-01	 5.00000000E-01	 1.20000000E+00

CELLS 2 18
	8 0 1 2 3 4 5 6 7 
	8 8 9 10 11 12 13 14 15 

CELL_TYPES 2
	12
	12

POINT_DATA 16
FIELD U 1
	U 3 16 double
		 0.00000000E+00	 0.00000000E+00	 0.00000000E+00
		 0.00000000E+00	 0.00000000E+00	 0.00000000E+00
		 3.70507000E-06	 3.23204000E-06	-1.73466000E-05
		 3.70505000E-06	 1.07267000E-05	-1.73466000E-05
		 0.00000000E+00	 0.00000000E+00	 0.00000000E+00
		 0.00000000E+00	 0.00000000E+00	 0.00000000E+00
		-3.70507000E-06	 3.23204000E-06	-1.73466000E-05
		-3.70505000E-06	 1.07267000E-05	-1.73466000E-05
		 1.00281000E-16	 1.41203000E-02	-2.73455000E-05
		 1.60195000E-05	 1.40986000E-02	-2.73455000E-05
		 2.84427000E-05	 1.41355000E-02	-1.27633000E-04
		 0.00000000E+00	 1.41846000E-02	-1.55347000E-04
		-1.60195000E-05	 1.40986000E-02	-2.73455000E-05
		 2.35152000E-16	 1.40634000E-02	-2.73455000E-05
		 0.00000000E+00	 1.41875000E-02	-6.86790000E-05
		-2.84427000E-05	 1.41355000E-02	-1.27633000E-04
FIELD S 1
	S 10 16 double
		-2.10159000E+00	-2.10157000E+00	-4.90344000E+00	 6.41988000E-06	 8.66310000E-01	 2.99234000E-01	 3.22032940E+00	-5.17661741E+00	-2.10159183E+00	-1.82839075E+00
		-2.10159000E+00	-2.10159000E+00	-4.90345000E+00	 1.93440000E-06	 2.61013000E-01	 2.99235000E-01	 2.88503511E+00	-4.95863611E+00	-2.10159192E+00	-2.04640197E+00
		 9.01245000E-01	 9.14898000E-01	-3.09767000E+00	 7.62440000E-07	 2.61019000E-01	 2.99242000E-01	 4.06437386E+00	-3.13666225E+00	 9.07815732E-01	 9.47319514E-01
		 9.01243000E-01	 9.14918000E-01	-3.09766000E+00	 5.24813000E-06	 8.66329000E-01	 2.99241000E-01	 4.30886418E+00	-3.29717192E+00	 9.02616933E-01	 1.11305598E+00
		-2.10159000E+00	-2.10157000E+00	-4.90344000E+00	-6.41988000E-06	 8.66310000E-01	-2.99234000E-01	 3.22032940E+00	-5.17661741E+00	-2.10159183E+00	-1.82839075E+00
		-2.10159000E+00	-2.10159000E+00	-4.90345000E+00	-1.93440000E-06	 2.61013000E-01	-2.99235000E-01	 2.88503511E+00	-4.95863611E+00	-2.10159192E+00	-2.04640197E+00
		 9.01245000E-01	 9.14898000E-01	-3.09767000E+00	-7.56525000E-07	 2.61019000E-01	-2.99242000E-01	 4.06437386E+00	-3.13666225E+00	 9.07815738E-01	 9.47319509E-01
		 9.01243000E-01	 9.14918000E-01	-3.09766000E+00	-5.24191000E-06	 8.66329000E-01	-2.99241000E-01	 4.30886418E+00	-3.29717192E+00	 9.02616936E-01	 1.11305598E+00
		-2.69142000E+01	-2.04127000E+01	-1.48406000E+02	 2.18666000E-11	 2.59273000E+01	-4.04297000E-11	 1.32699211E+02	-1.53458580E+02	-2.69142000E+01	-1.53601205E+01
		-4.35307000E+00	 9.83751000E+00	-1.03552000E+02	 3.85476000E+00	 1.49064000E+01	 5.01027000E+00	 1.10616359E+02	-1.05676829E+02	-5.32020266E+00	 1.29294718E+01
		-5.12626000E+00	-3.93174000E+01	-1.18516000E+02	-2.88485000E+01	-9.81544000E+00	-3.90605000E+00	 1.13933537E+02	-1.20229930E+02	-5.40581358E+01	 1.13284055E+01
		 2.13604000E+01	 4.48840000E+01	-1.14350000E+02	-2.87202000E-11	 1.01096000E+01	-5.14030000E-12	 1.49898905E+02	-1.14989281E+02	 2.13604000E+01	 4.55232814E+01
		-4.35307000E+00	 9.83751000E+00	-1.03552000E+02	-3.85476000E+00	 1.49064000E+01	-5.01027000E+00	 1.10616359E+02	-1.05676829E+02	-5.32020266E+00	 1.29294718E+01
		 3.71539000E+01	 5.90846000E+01	-1.45101000E+01	-2.61419000E-11	 5.00959000E+01	-9.49215000E-11	 1.08682794E+02	-3.98709688E+01	 3.71539000E+01	 8.44454688E+01
		-1.26691000E+01	-1.04473000E+02	-7.85237000E+01	 4.60899000E-11	 1.64172000E+01	-5.95908000E-11	 8.67620231E+01	-1.12423598E+02	-7.05731021E+01	-1.26691000E+01
		-5.12626000E+00	-3.93174000E+01	-1.18516000E+02	 2.88485000E+01	-9.81544000E+00	 3.90605000E+00	 1.13933537E+02	-1.20229930E+02	-5.40581358E+01	 1.13284055E+01
FIELD CONTACT 1
	CONTACT 6 16 double
		 0.00000000E+00	 0.00000000E+00	 0.00000000E+00	 0.00000000E+00	 0.00000000E+00	 0.00000000E+00
		 0.00000000E+00	 0.00000000E+00	 0.00000000E+00	 0.00000000E+00	 0.00000000E+00	 0.00000000E+00
		 0.00000000E+00	 0.00000000E+00	 0.00000000E+00	 0.00000000E+00	 0.00000000E+00	 0.00000000E+00
		 0.00000000E+00	 0.00000000E+00	 0.00000000E+00	 0.00000000E+00	 0.00000000E+00	 0.00000000E+00
		 0.00000000E+00	 0.00000000E+00	 0.00000000E+00	 0.00000000E+00	 0.00000000E+00	 0.00000000E+00
		 0.00000000E+00	 0.00000000E+00	 0.00000000E+00	 0.00000000E+00	 0.00000000E+00	 0.00000000E+00
		 0.00000000E+00	 0.00000000E+00	 0.00000000E+00	 0.00000000E+00	 0.00000000E+00	 0.00000000E+00
		 0.00000000E+00	 0.00000000E+00	 0.00000000E+00	 0.00000000E+00	 0.00000000E+00	 0.00000000E+00
		-9.99887000E-06	 1.14345000E-14	 1.41079000E-02	 9.99887000E+01	 1.14345000E-11	 1.41079000E+01
		-9.99887000E-06	 1.19387000E-05	 1.40915000E-02	 9.99887000E+01	 1.19387000E-02	 1.40915000E+01
		 0.00000000E+00	 0.00000000E+00	 0.00000000E+00	 0.00000000E+00	 0.00000000E+00	 0.00000000E+00
		 0.00000000E+00	 0.00000000E+00	 0.00000000E+00	 0.00000000E+00	 0.00000000E+00	 0.00000000E+00
		-9.99887000E-06	-1.19387000E-05	 1.40915000E-02	 9.99887000E+01	-1.19387000E-02	 1.40915000E+01
		-9.99887000E-06	-3.09651000E-14	 1.40642000E-02	 9.99887000E+01	-3.09651000E-11	 1.40642000E+01
		 0.00000000E+00	 0.00000000E+00	 0.00000000E+00	 0.00000000E+00	 0.00000000E+00	 0.00000000E+00
		 0.00000000E+00	 0.00000000E+00	 0.00000000E+00	 0.00000000E+00	 0.00000000E+00	 0.00000000E+00
