<?xml version="1.0"?>
<VTKFile type="UnstructuredGrid" version="0.1" byte_order="LittleEndian">
	<UnstructuredGrid>
		<Piece NumberOfPoints="16" NumberOfCells="2">
			<Points>
				<DataArray type="Float64" NumberOfComponents="3" format="ascii">
					 1.00000000E+00	 1.00000000E+00	-1.49012000E-08
					 1.00000000E+00	 0.00000000E+00	-1.49012000E-08
					 1.00000000E+00	 0.00000000E+00	 1.00000000E+00
					 1.00000000E+00	 1.00000000E+00	 1.00000000E+00
					-7.45058000E-09	 1.00000000E+00	-1.49012000E-08
					-7.45058000E-09	 0.00000000E+00	-1.49012000E-08
					-7.45058000E-09	 0.00000000E+00	 1.00000000E+00
					-7.45058000E-09	 1.00000000E+00	 1.00000000E+00
					 5.00000000E-01	 6.41421000E-01	 1.00000000E+00
					 6.41421000E-01	 5.00000000E-01	 1.00000000E+00
					 6.41421000E-01	 5.00000000E-01	 1.20000000E+00
					 5.00000000E-01	 6.41421000E-01	 1.20000000E+00
					 3.58579000E-01	 5.00000000E-01	 1.00000000E+00
					 5.00000000E-01	 3.58579000E-01	 1.00000000E+00
					 5.00000000E-01	 3.58579000E-01	 1.20000000E+00
					 3.58579000E-01	 5.00000000E-01	 1.20000000E+00
				</DataArray>
			</Points>
			<Cells>
				<DataArray type="Int32" Name="connectivity" format="ascii">
					0 1 2 3 4 5 6 7 8 9 10 11 12 13 14 15 
				</DataArray>
				<DataArray type="Int32" Name="offsets" format="ascii">
					8 16 
				</DataArray>
				<DataArray type="UInt8" Name="types" format="ascii">
					12 12 
				</DataArray>
			</Cells>
			<PointData>
				<DataArray type="Float32" Name="U" NumberOfComponents="3" ComponentName0="D1" ComponentName1="D2" ComponentName2="D3" format="ascii">
					 0.00000000E+00	 0.00000000E+00	 0.00000000E+00
					 0.00000000E+00	 0.00000000E+00	 0.00000000E+00
					 3.71525000E-06	-2.72354000E-06	-1.73386000E-05
					 3.71525000E-06	 4.70833000E-06	-1.73386000E-05
					 0.00000000E+00	 0.00000000E+00	 0.00000000E+00
					 0.00000000E+00	 0.00000000E+00	 0.00000000E+00
					-3.71525000E-06	-2.72354000E-06	-1.73386000E-05
					-3.71525000E-06	 4.70833000E-06	-1.73386000E-05
					 1.75011000E-16	 2.02512000E-03	-2.73385000E-05
					 1.96173000E-05	 2.00470000E-03	-2.73385000E-05
					 2.13874000E-05	 2.00996000E-03	-1.23374000E-04
					 0.00000000E+00	 2.03427000E-03	-1.27314000E-04
					-1.96173000E-05	 2.00470000E-03	-2.73385000E-05
					 1.94150000E-16	 1.98236000E-03	-2.73385000E-05
					 0.00000000E+00	 2.00000000E-03	-1.14991000E-04
					-2.13874000E-05	 2.00996000E-03	-1.23374000E-04
				</DataArray>
				<DataArray type="Float32" Name="S" NumberOfComponents="10" ComponentName0="xx" ComponentName1="yy" ComponentName2="zz" ComponentName3="xy" ComponentName4="yz" ComponentName5="zx" ComponentName6="Mises" ComponentName7="Min Principal" ComponentName8="Mid Principal" ComponentName9="Max Principal" format="ascii">
					-2.10063000E+00	-2.10063000E+00	-4.90120000E+00	 2.82566000E-06	 3.80260000E-01	 3.00058000E-01	 2.92354062E+00	-4.98261346E+00	-2.10063275E+00	-2.01921379E+00
					-2.10063000E+00	-2.10063000E+00	-4.90121000E+00	-1.63450000E-06	-2.19966000E-01	 3.00058000E-01	 2.87376197E+00	-4.94979261E+00	-2.10063156E+00	-2.05204583E+00
					 9.00363000E-01	 9.00582000E-01	-3.10056000E+00	-1.80209000E-06	-2.19971000E-01	 3.00065000E-01	 4.05259668E+00	-3.13486379E+00	 9.00503410E-01	 9.34745377E-01
					 9.00362000E-01	 9.00585000E-01	-3.10056000E+00	 2.65813000E-06	 3.80269000E-01	 3.00065000E-01	 4.08805573E+00	-3.15837003E+00	 9.00444788E-01	 9.58312243E-01
					-2.10063000E+00	-2.10063000E+00	-4.90120000E+00	-2.82566000E-06	 3.80260000E-01	-3.00058000E-01	 2.92354062E+00	-4.98261346E+00	-2.10063275E+00	-2.01921379E+00
					-2.10063000E+00	-2.10063000E+00	-4.90121000E+00	 1.63450000E-06	-2.19966000E-01	-3.00058000E-01	 2.87376197E+00	-4.94979261E+00	-2.10063156E+00	-2.05204583E+00
					 9.00363000E-01	 9.00582000E-01	-3.10056000E+00	 1.80295000E-06	-2.19971000E-01	-3.00065000E-01	 4.05259668E+00	-3.13486379E+00	 9.00503410E-01	 9.34745377E-01
					 9.00362000E-01	 9.00585000E-01	-3.10056000E+00	-2.65727000E-06	 3.80269000E-01	-3.00065000E-01	 4.08805573E+00	-3.15837003E+00	 9.00444789E-01	 9.58312242E-01
					-3.83377000E+00	-2.91119000E+00	-1.06883000E+02	 3.19474000E-11	 3.68868000E+00	-7.05897000E-11	 1.03710584E+02	-1.07013702E+02	-3.83377000E+00	-2.78048844E+00
					-6.24983000E-01	 1.39395000E+00	-1.00502000E+02	 5.48387000E-01	 2.12047000E+00	 7.13951000E-01	 1.00980494E+02	-1.00551046E+02	-7.64037779E-01	 1.58205033E+00
					-7.25881000E-01	-5.58576000E+00	-1.02625000E+02	-4.10129000E+00	-1.39594000E+00	-5.54201000E-01	 9.98451831E+01	-1.02648771E+02	-7.89956568E+00	 1.61169610E+00
					 3.03971000E+00	 6.38276000E+00	-1.02034000E+02	-3.97169000E-11	 1.44017000E+00	-3.29125000E-11	 1.06813620E+02	-1.02053127E+02	 3.03971000E+00	 6.40188734E+00
					-6.24983000E-01	 1.39395000E+00	-1.00502000E+02	-5.48387000E-01	 2.12047000E+00	-7.13951000E-01	 1.00980494E+02	-1.00551046E+02	-7.64037779E-01	 1.58205033E+00
					 5.27602000E+00	 8.39235000E+00	-8.78480000E+01	-3.31307000E-11	 7.11662000E+00	-7.83274000E-11	 9.55193103E+01	-8.83714014E+01	 5.27602000E+00	 8.91575137E+00
					-1.79929000E+00	-1.48600000E+01	-9.69430000E+01	 4.20227000E-11	 2.33123000E+00	-4.06358000E-11	 8.94235271E+01	-9.70091557E+01	-1.47938443E+01	-1.79929000E+00
					-7.25881000E-01	-5.58576000E+00	-1.02625000E+02	 4.10129000E+00	-1.39594000E+00	 5.54201000E-01	 9.98451831E+01	-1.02648771E+02	-7.89956568E+00	 1.61169610E+00
				</DataArray>
				<DataArray type="Float32" Name="CONTACT" NumberOfComponents="6" ComponentName0="COPEN" ComponentName1="CSLIP1" ComponentName2="CSLIP2" ComponentName3="CPRESS" ComponentName4="CSHEAR1" ComponentName5="CSHEAR2" format="ascii">
					 0.00000000E+00	 0.00000000E+00	 0.00000000E+00	 0.00000000E+00	 0.00000000E+00	 0.00000000E+00
					 0.00000000E+00	 0.00000000E+00	 0.00000000E+00	 0.00000000E+00	 0.00000000E+00	 0.00000000E+00
					 0.00000000E+00	 0.00000000E+00	 0.00000000E+00	 0.00000000E+00	 0.00000000E+00	 0.00000000E+00
					 0.00000000E+00	 0.00000000E+00	 0.00000000E+00	 0.00000000E+00	 0.00000000E+00	 0.00000000E+00
					 0.00000000E+00	 0.00000000E+00	 0.00000000E+00	 0.00000000E+00	 0.00000000E+00	 0.00000000E+00
					 0.00000000E+00	 0.00000000E+00	 0.00000000E+00	 0.00000000E+00	 0.00000000E+00	 0.00000000E+00
					 0.00000000E+00	 0.00000000E+00	 0.00000000E+00	 0.00000000E+00	 0.00000000E+00	 0.00000000E+00
					 0.00000000E+00	 0.00000000E+00	 0.00000000E+00	 0.00000000E+00	 0.00000000E+00	 0.00000000E+00
					-9.99985000E-06	-4.38181000E-14	 2.01913000E-03	 9.99985000E+01	-4.38181000E-11	 2.01913000E+00
					-9.99985000E-06	 1.48053000E-05	 2.00370000E-03	 9.99985000E+01	 1.48053000E-02	 2.00370000E+00
					 0.00000000E+00	 0.00000000E+00	 0.00000000E+00	 0.00000000E+00	 0.00000000E+00	 0.00000000E+00
					 0.00000000E+00	 0.00000000E+00	 0.00000000E+00	 0.00000000E+00	 0.00000000E+00	 0.00000000E+00
					-9.99985000E-06	-1.48053000E-05	 2.00370000E-03	 9.99985000E+01	-1.48053000E-02	 2.00370000E+00
					-9.99985000E-06	-4.98223000E-14	 1.98671000E-03	 9.99985000E+01	-4.98223000E-11	 1.98671000E+00
					 0.00000000E+00	 0.00000000E+00	 0.00000000E+00	 0.00000000E+00	 0.00000000E+00	 0.00000000E+00
					 0.00000000E+00	 0.00000000E+00	 0.00000000E+00	 0.00000000E+00	 0.00000000E+00	 0.00000000E+00
				</DataArray>
			</PointData>
		</Piece>
	</UnstructuredGrid>
</VTKFile>