# vtk DataFile Version 3.0

ASCII
DATASET UNSTRUCTURED_GRID

POINTS 16 double
	 1.00000000E+00	 1.00000000E+00	-1.49012000E-08
	 1.00000000E+00	 0.00000000E+00	-1.49012000E-08
	 1.00000000E+00	 0.00000000E+00	 1.00000000E+00
	 1.00000000E+00	 1.00000000E+00	 1.00000000E+00
	-7.45058000E-09	 1.00000000E+00	-1.49012000E-08
	-7.45058000E-09	 0.00000000E+00	-1.49012000E-08
	-7.45058000E-09	 0.00000000E+00	 1.00000000E+00
	-7.45058000E-09	 1.00000000E+00	 1.00000000E+00
	 5.00000000E-01	 6.41421000E-01	 1.00000000E+00
	 6.41421000E-01	 5.00000000E-01	 1.00000000E+00
	 6.41421000E-01	 5.00000000E-01	 1.20000000E+00
	 5.00000000E-01	 6.41421000E-01	 1.20000000E+00
	 3.58579000E-01	 5.00000000E-01	 1.00000000E+00
	 5.00000000E-01	 3.58579000E-01	 1.00000000E+00
	 5.00000000E-01	 3.58579000E-01	 1.20000000E+00
	 3.58579000E-01	 5.00000000E-01	 1.20000000E+00

CELLS 2 18
	8 0 1 2 3 4 5 6 7 
	8 8 9 10 11 12 13 14 15 

CELL_TYPES 2
	12
	12

POINT_DATA 16
FIELD U 1
	U 3 16 double
		 0.00000000E+00	 0.00000000E+00	 0.00000000E+00
		 0.00000000E+00	 0.00000000E+00	 0.00000000E+00
		 3.71547000E-06	-3.70554000E-06	-1.73387000E-05
		 3.71547000E-06	 3.72540000E-06	-1.73387000E-05
		 0.00000000E+00	 0.00000000E+00	 0.00000000E+00
		 0.00000000E+00	 0.00000000E+00	 0.00000000E+00
		-3.71547000E-06	-3.70554000E-06	-1.73387000E-05
		-3.71547000E-06	 3.72540000E-06	-1.73387000E-05
		 1.79214000E-16	 4.02786000E-05	-2.73390000E-05
		 2.02080000E-05	 2.00626000E-05	-2.73390000E-05
		 2.02296000E-05	 2.01152000E-05	-1.22678000E-04
		 0.00000000E+00	 4.03741000E-05	-1.22718000E-04
		-2.02080000E-05	 2.00626000E-05	-2.73390000E-05
		 1.79438000E-16	-1.72638000E-07	-2.73390000E-05
		 0.00000000E+00	 0.00000000E+00	-1.22594000E-04
		-2.02296000E-05	 2.01152000E-05	-1.22678000E-04
FIELD S 1
	S 10 16 double
		-2.10064000E+00	-2.10064000E+00	-4.90123000E+00	 2.23589000E-06	 3.00877000E-01	 3.00075000E-01	 2.89568995E+00	-4.96428661E+00	-2.10064224E+00	-2.03758116E+00
		-2.10064000E+00	-2.10064000E+00	-4.90123000E+00	-2.22397000E-06	-2.99273000E-01	 3.00075000E-01	 2.89519125E+00	-4.96395765E+00	-2.10064222E+00	-2.03791012E+00
		 9.00360000E-01	 9.00361000E-01	-3.10064000E+00	-2.22509000E-06	-2.99280000E-01	 3.00082000E-01	 4.06778296E+00	-3.14504045E+00	 9.00358276E-01	 9.44763175E-01
		 9.00360000E-01	 9.00361000E-01	-3.10064000E+00	 2.23482000E-06	 3.00884000E-01	 3.00082000E-01	 4.06813792E+00	-3.14527582E+00	 9.00358264E-01	 9.44998555E-01
		-2.10064000E+00	-2.10064000E+00	-4.90123000E+00	-2.23589000E-06	 3.00877000E-01	-3.00075000E-01	 2.89568995E+00	-4.96428661E+00	-2.10064224E+00	-2.03758116E+00
		-2.10064000E+00	-2.10064000E+00	-4.90123000E+00	 2.22397000E-06	-2.99273000E-01	-3.00075000E-01	 2.89519125E+00	-4.96395765E+00	-2.10064222E+00	-2.03791012E+00
		 9.00360000E-01	 9.00361000E-01	-3.10064000E+00	 2.22510000E-06	-2.99280000E-01	-3.00082000E-01	 4.06778296E+00	-3.14504045E+00	 9.00358276E-01	 9.44763175E-01
		 9.00360000E-01	 9.00361000E-01	-3.10064000E+00	-2.23481000E-06	 3.00884000E-01	-3.00082000E-01	 4.06813792E+00	-3.14527582E+00	 9.00358264E-01	 9.44998555E-01
		-4.61973000E-02	-3.69677000E-02	-1.00068000E+02	 2.90408000E-11	 3.84948000E-02	-7.22872000E-11	 1.00026440E+02	-1.00068015E+02	-4.61973000E-02	-3.69528861E-02
		-1.40841000E-02	 6.12230000E-03	-1.00004000E+02	 5.48844000E-03	 2.12221000E-02	 8.72437000E-03	 1.00000029E+02	-1.00004005E+02	-1.54785183E-02	 7.52198260E-03
		-3.90720000E-03	-5.25395000E-02	-1.00019000E+02	-4.10425000E-02	-1.39704000E-02	-3.96719000E-03	 9.99908140E+01	-1.00019002E+02	-7.59263071E-02	 1.94817173E-02
		 3.37760000E-02	 6.72286000E-02	-1.00013000E+02	-3.94198000E-11	 1.59939000E-02	-3.51524000E-11	 1.00063510E+02	-1.00013003E+02	 3.37760000E-02	 6.72311560E-02
		-1.40841000E-02	 6.12230000E-03	-1.00004000E+02	-5.48844000E-03	 2.12221000E-02	-8.72437000E-03	 1.00000029E+02	-1.00004005E+02	-1.54785183E-02	 7.52198260E-03
		 4.49686000E-02	 7.61520000E-02	-9.98778000E+01	-2.90439000E-11	 6.96317000E-02	-7.23821000E-11	 9.99384367E+01	-9.98778485E+01	 4.49686000E-02	 7.62005080E-02
		-1.46508000E-02	-1.45368000E-01	-9.99621000E+01	 3.94404000E-11	 2.17476000E-02	-3.52309000E-11	 9.98821619E+01	-9.99621047E+01	-1.45363262E-01	-1.46508000E-02
		-3.90720000E-03	-5.25395000E-02	-1.00019000E+02	 4.10425000E-02	-1.39704000E-02	 3.96719000E-03	 9.99908140E+01	-1.00019002E+02	-7.59263071E-02	 1.94817173E-02
FIELD CONTACT 1
	CONTACT 6 16 double
		 0.00000000E+00	 0.00000000E+00	 0.00000000E+00	 0.00000000E+00	 0.00000000E+00	 0.00000000E+00
		 0.00000000E+00	 0.00000000E+00	 0.00000000E+00	 0.00000000E+00	 0.00000000E+00	 0.00000000E+00
		 0.00000000E+00	 0.00000000E+00	 0.00000000E+00	 0.00000000E+00	 0.00000000E+00	 0.00000000E+00
		 0.00000000E+00	 0.00000000E+00	 0.00000000E+00	 0.00000000E+00	 0.00000000E+00	 0.00000000E+00
		 0.00000000E+00	 0.00000000E+00	 0.00000000E+00	 0.00000000E+00	 0.00000000E+00	 0.00000000E+00
		 0.00000000E+00	 0.00000000E+00	 0.00000000E+00	 0.00000000E+00	 0.00000000E+00	 0.00000000E+00
		 0.00000000E+00	 0.00000000E+00	 0.00000000E+00	 0.00000000E+00	 0.00000000E+00	 0.00000000E+00
		 0.00000000E+00	 0.00000000E+00	 0.00000000E+00	 0.00000000E+00	 0.00000000E+00	 0.00000000E+00
		-1.00002000E-05	-2.89690000E-14	 3.53351000E-05	 1.00002000E+02	-2.89690000E-11	 3.53351000E-02
		-1.00002000E-05	 1.52763000E-05	 2.00525000E-05	 1.00002000E+02	 1.52763000E-02	 2.00525000E-02
		 0.00000000E+00	 0.00000000E+00	 0.00000000E+00	 0.00000000E+00	 0.00000000E+00	 0.00000000E+00
		 0.00000000E+00	 0.00000000E+00	 0.00000000E+00	 0.00000000E+00	 0.00000000E+00	 0.00000000E+00
		-1.00002000E-05	-1.52763000E-05	 2.00525000E-05	 1.00002000E+02	-1.52763000E-02	 2.00525000E-02
		-1.00002000E-05	-2.90289000E-14	 4.75437000E-06	 1.00002000E+02	-2.90289000E-11	 4.75437000E-03
		 0.00000000E+00	 0.00000000E+00	 0.00000000E+00	 0.00000000E+00	 0.00000000E+00	 0.00000000E+00
		 0.00000000E+00	 0.00000000E+00	 0.00000000E+00	 0.00000000E+00	 0.00000000E+00	 0.00000000E+00
