<?xml version="1.0"?>
<VTKFile type="UnstructuredGrid" version="0.1" byte_order="LittleEndian">
	<UnstructuredGrid>
		<Piece NumberOfPoints="16" NumberOfCells="2">
			<Points>
				<DataArray type="Float64" NumberOfComponents="3" format="ascii">
					 1.00000000E+00	 1.00000000E+00	-1.49012000E-08
					 1.00000000E+00	 0.00000000E+00	-1.49012000E-08
					 1.00000000E+00	 0.00000000E+00	 1.00000000E+00
					 1.00000000E+00	 1.00000000E+00	 1.00000000E+00
					-7.45058000E-09	 1.00000000E+00	-1.49012000E-08
					-7.45058000E-09	 0.00000000E+00	-1.49012000E-08
					-7.45058000E-09	 0.00000000E+00	 1.00000000E+00
					-7.45058000E-09	 1.00000000E+00	 1.00000000E+00
					 5.00000000E-01	 6.41421000E-01	 1.00000000E+00
					 6.41421000E-01	 5.00000000E-01	 1.00000000E+00
					 6.41421000E-01	 5.00000000E-01	 1.20000000E+00
					 5.00000000E-01	 6.41421000E-01	 1.20000000E+00
					 3.58579000E-01	 5.00000000E-01	 1.00000000E+00
					 5.00000000E-01	 3.58579000E-01	 1.00000000E+00
					 5.00000000E-01	 3.58579000E-01	 1.20000000E+00
					 3.58579000E-01	 5.00000000E-01	 1.20000000E+00
				</DataArray>
			</Points>
			<Cells>
				<DataArray type="Int32" Name="connectivity" format="ascii">
					0 1 2 3 4 5 6 7 8 9 10 11 12 13 14 15 
				</DataArray>
				<DataArray type="Int32" Name="offsets" format="ascii">
					8 16 
				</DataArray>
				<DataArray type="UInt8" Name="types" format="ascii">
					12 12 
				</DataArray>
			</Cells>
			<PointData>
				<DataArray type="Float32" Name="U" NumberOfComponents="3" ComponentName0="D1" ComponentName1="D2" ComponentName2="D3" format="ascii">
					 0.00000000E+00	 0.00000000E+00	 0.00000000E+00
					 0.00000000E+00	 0.00000000E+00	 0.00000000E+00
					 3.71115000E-06	 7.64113000E-07	-1.73415000E-05
					 3.71114000E-06	 8.22079000E-06	-1.73415000E-05
					 0.00000000E+00	 0.00000000E+00	 0.00000000E+00
					 0.00000000E+00	 0.00000000E+00	 0.00000000E+00
					-3.71115000E-06	 7.64113000E-07	-1.73415000E-05
					-3.71114000E-06	 8.22079000E-06	-1.73415000E-05
					 9.53000000E-17	 9.09613000E-03	-2.73408000E-05
					 1.75136000E-05	 9.07496000E-03	-2.73408000E-05
					 2.55120000E-05	 9.09877000E-03	-1.25861000E-04
					 0.00000000E+00	 9.13752000E-03	-1.43697000E-04
					-1.75136000E-05	 9.07496000E-03	-2.73408000E-05
					 1.55663000E-16	 9.04512000E-03	-2.73408000E-05
					 0.00000000E+00	 9.12500000E-03	-8.79130000E-05
					-2.55120000E-05	 9.09877000E-03	-1.25861000E-04
				</DataArray>
				<DataArray type="Float32" Name="S" NumberOfComponents="10" ComponentName0="xx" ComponentName1="yy" ComponentName2="zz" ComponentName3="xy" ComponentName4="yz" ComponentName5="zx" ComponentName6="Mises" ComponentName7="Min Principal" ComponentName8="Mid Principal" ComponentName9="Max Principal" format="ascii">
					-2.10098000E+00	-2.10097000E+00	-4.90201000E+00	 4.92819000E-06	 6.63930000E-01	 2.99726000E-01	 3.07208614E+00	-5.08012695E+00	-2.10098200E+00	-1.92285104E+00
					-2.10098000E+00	-2.10098000E+00	-4.90202000E+00	 4.58093000E-07	 6.17004000E-02	 2.99727000E-01	 2.85074634E+00	-4.93506182E+00	-2.10098018E+00	-2.06793800E+00
					 9.00697000E-01	 9.06247000E-01	-3.09937000E+00	-2.69919000E-07	 6.17018000E-02	 2.99733000E-01	 4.03778505E+00	-3.12264462E+00	 9.05956029E-01	 9.24262589E-01
					 9.00696000E-01	 9.06260000E-01	-3.09936000E+00	 4.20028000E-06	 6.63945000E-01	 2.99733000E-01	 4.19698985E+00	-3.22775421E+00	 9.01602975E-01	 1.03374724E+00
					-2.10098000E+00	-2.10097000E+00	-4.90201000E+00	-4.92819000E-06	 6.63930000E-01	-2.99726000E-01	 3.07208614E+00	-5.08012695E+00	-2.10098200E+00	-1.92285104E+00
					-2.10098000E+00	-2.10098000E+00	-4.90202000E+00	-4.58093000E-07	 6.17004000E-02	-2.99727000E-01	 2.85074634E+00	-4.93506182E+00	-2.10098018E+00	-2.06793800E+00
					 9.00697000E-01	 9.06247000E-01	-3.09937000E+00	 2.72613000E-07	 6.17018000E-02	-2.99733000E-01	 4.03778505E+00	-3.12264462E+00	 9.05956031E-01	 9.24262588E-01
					 9.00696000E-01	 9.06260000E-01	-3.09936000E+00	-4.19749000E-06	 6.63945000E-01	-2.99733000E-01	 4.19698985E+00	-3.22775421E+00	 9.01602977E-01	 1.03374724E+00
					-1.73269000E+01	-1.31456000E+01	-1.31158000E+02	 2.04882000E-11	 1.66907000E+01	-3.84342000E-11	 1.19526997E+02	-1.33473176E+02	-1.73269000E+01	-1.08304244E+01
					-2.80335000E+00	 6.33301000E+00	-1.02281000E+02	 2.48174000E+00	 9.59665000E+00	 3.22589000E+00	 1.05896755E+02	-1.03211903E+02	-3.42858873E+00	 7.88915206E+00
					-3.29823000E+00	-2.53029000E+01	-1.11913000E+02	-1.85678000E+01	-6.31851000E+00	-2.51398000E+00	 1.05187272E+02	-1.12512285E+02	-3.52915598E+01	 7.28971460E+00
					 1.37496000E+01	 2.88878000E+01	-1.09235000E+02	-2.36599000E-11	 6.51037000E+00	-1.24850000E-11	 1.31693953E+02	-1.09541185E+02	 1.37496000E+01	 2.91939853E+01
					-2.80335000E+00	 6.33301000E+00	-1.02281000E+02	-2.48174000E+00	 9.59665000E+00	-3.22589000E+00	 1.05896755E+02	-1.03211903E+02	-3.42858873E+00	 7.88915206E+00
					 2.39121000E+01	 3.80246000E+01	-4.49800000E+01	-2.22477000E-11	 3.22353000E+01	-6.28277000E-11	 9.50519203E+01	-5.60282040E+01	 2.39121000E+01	 4.90728040E+01
					-8.15504000E+00	-6.72604000E+01	-8.61794000E+01	 3.24392000E-11	 1.05635000E+01	-3.68573000E-11	 7.28309621E+01	-9.08998038E+01	-6.25399962E+01	-8.15504000E+00
					-3.29823000E+00	-2.53029000E+01	-1.11913000E+02	 1.85678000E+01	-6.31851000E+00	 2.51398000E+00	 1.05187272E+02	-1.12512285E+02	-3.52915598E+01	 7.28971460E+00
				</DataArray>
				<DataArray type="Float32" Name="CONTACT" NumberOfComponents="6" ComponentName0="COPEN" ComponentName1="CSLIP1" ComponentName2="CSLIP2" ComponentName3="CPRESS" ComponentName4="CSHEAR1" ComponentName5="CSHEAR2" format="ascii">
					 0.00000000E+00	 0.00000000E+00	 0.00000000E+00	 0.00000000E+00	 0.00000000E+00	 0.00000000E+00
					 0.00000000E+00	 0.00000000E+00	 0.00000000E+00	 0.00000000E+00	 0.00000000E+00	 0.00000000E+00
					 0.00000000E+00	 0.00000000E+00	 0.00000000E+00	 0.00000000E+00	 0.00000000E+00	 0.00000000E+00
					 0.00000000E+00	 0.00000000E+00	 0.00000000E+00	 0.00000000E+00	 0.00000000E+00	 0.00000000E+00
					 0.00000000E+00	 0.00000000E+00	 0.00000000E+00	 0.00000000E+00	 0.00000000E+00	 0.00000000E+00
					 0.00000000E+00	 0.00000000E+00	 0.00000000E+00	 0.00000000E+00	 0.00000000E+00	 0.00000000E+00
					 0.00000000E+00	 0.00000000E+00	 0.00000000E+00	 0.00000000E+00	 0.00000000E+00	 0.00000000E+00
					 0.00000000E+00	 0.00000000E+00	 0.00000000E+00	 0.00000000E+00	 0.00000000E+00	 0.00000000E+00
					-9.99927000E-06	-1.57182000E-14	 9.08640000E-03	 9.99927000E+01	-1.57182000E-11	 9.08640000E+00
					-9.99927000E-06	 1.31287000E-05	 9.07043000E-03	 9.99927000E+01	 1.31287000E-02	 9.07043000E+00
					 0.00000000E+00	 0.00000000E+00	 0.00000000E+00	 0.00000000E+00	 0.00000000E+00	 0.00000000E+00
					 0.00000000E+00	 0.00000000E+00	 0.00000000E+00	 0.00000000E+00	 0.00000000E+00	 0.00000000E+00
					-9.99927000E-06	-1.31287000E-05	 9.07043000E-03	 9.99927000E+01	-1.31287000E-02	 9.07043000E+00
					-9.99927000E-06	-3.48456000E-14	 9.04740000E-03	 9.99927000E+01	-3.48456000E-11	 9.04740000E+00
					 0.00000000E+00	 0.00000000E+00	 0.00000000E+00	 0.00000000E+00	 0.00000000E+00	 0.00000000E+00
					 0.00000000E+00	 0.00000000E+00	 0.00000000E+00	 0.00000000E+00	 0.00000000E+00	 0.00000000E+00
				</DataArray>
			</PointData>
		</Piece>
	</UnstructuredGrid>
</VTKFile>