<?xml version="1.0"?>
<VTKFile type="UnstructuredGrid" version="0.1" byte_order="LittleEndian">
	<UnstructuredGrid>
		<Piece NumberOfPoints="16" NumberOfCells="2">
			<Points>
				<DataArray type="Float64" NumberOfComponents="3" format="ascii">
					 1.00000000E+00	 1.00000000E+00	-1.49012000E-08
					 1.00000000E+00	 0.00000000E+00	-1.49012000E-08
					 1.00000000E+00	 0.00000000E+00	 1.00000000E+00
					 1.00000000E+00	 1.00000000E+00	 1.00000000E+00
					-7.45058000E-09	 1.00000000E+00	-1.49012000E-08
					-7.45058000E-09	 0.00000000E+00	-1.49012000E-08
					-7.45058000E-09	 0.00000000E+00	 1.00000000E+00
					-7.45058000E-09	 1.00000000E+00	 1.00000000E+00
					 5.00000000E-01	 6.41421000E-01	 1.00000000E+00
					 6.41421000E-01	 5.00000000E-01	 1.00000000E+00
					 6.41421000E-01	 5.00000000E-01	 1.20000000E+00
					 5.00000000E-01	 6.41421000E-01	 1.20000000E+00
					 3.58579000E-01	 5.00000000E-01	 1.00000000E+00
					 5.00000000E-01	 3.58579000E-01	 1.00000000E+00
					 5.00000000E-01	 3.58579000E-01	 1.20000000E+00
					 3.58579000E-01	 5.00000000E-01	 1.20000000E+00
				</DataArray>
			</Points>
			<Cells>
				<DataArray type="Int32" Name="connectivity" format="ascii">
					0 1 2 3 4 5 6 7 8 9 10 11 12 13 14 15 
				</DataArray>
				<DataArray type="Int32" Name="offsets" format="ascii">
					8 16 
				</DataArray>
				<DataArray type="UInt8" Name="types" format="ascii">
					12 12 
				</DataArray>
			</Cells>
			<PointData>
				<DataArray type="Float32" Name="U" NumberOfComponents="3" ComponentName0="D1" ComponentName1="D2" ComponentName2="D3" format="ascii">
					 0.00000000E+00	 0.00000000E+00	 0.00000000E+00
					 0.00000000E+00	 0.00000000E+00	 0.00000000E+00
					 3.60766000E-06	-1.11474000E-05	-1.74427000E-05
					 3.60769000E-06	-3.02199000E-06	-1.74427000E-05
					 0.00000000E+00	 0.00000000E+00	 0.00000000E+00
					 0.00000000E+00	 0.00000000E+00	 0.00000000E+00
					-3.60766000E-06	-1.11474000E-05	-1.74427000E-05
					-3.60769000E-06	-3.02199000E-06	-1.74427000E-05
					-1.40887000E-16	-9.41003000E-02	-2.74440000E-05
					 2.44817000E-05	-9.41190000E-02	-2.74440000E-05
					 1.18667000E-05	-9.41566000E-02	-1.17759000E-04
					 0.00000000E+00	-9.41656000E-02	-8.96504000E-05
					-2.44817000E-05	-9.41190000E-02	-2.74440000E-05
					 1.30152000E-17	-9.41240000E-02	-2.74440000E-05
					 0.00000000E+00	-9.42500000E-02	-1.77613000E-04
					-1.18667000E-05	-9.41566000E-02	-1.17759000E-04
				</DataArray>
				<DataArray type="Float32" Name="S" NumberOfComponents="10" ComponentName0="xx" ComponentName1="yy" ComponentName2="zz" ComponentName3="xy" ComponentName4="yz" ComponentName5="zx" ComponentName6="Mises" ComponentName7="Min Principal" ComponentName8="Mid Principal" ComponentName9="Max Principal" format="ascii">
					-2.11324000E+00	-2.11324000E+00	-4.93063000E+00	-1.76116000E-06	-2.44048000E-01	 2.91371000E-01	 2.89327770E+00	-4.98100251E+00	-2.11324173E+00	-2.06286576E+00
					-2.11323000E+00	-2.11322000E+00	-4.93061000E+00	-6.49629000E-06	-9.00284000E-01	 2.91369000E-01	 3.25942936E+00	-5.21892058E+00	-2.11323286E+00	-1.82490656E+00
					 9.10949000E-01	 1.05798000E+00	-3.07202000E+00	-4.22038000E-06	-9.00306000E-01	 2.91375000E-01	 4.37694310E+00	-3.27916741E+00	 9.19568626E-01	 1.25650779E+00
					 9.10958000E-01	 1.05796000E+00	-3.07203000E+00	 5.16408000E-07	-2.44054000E-01	 2.91377000E-01	 4.11153243E+00	-3.10745713E+00	 9.29962875E-01	 1.07438225E+00
					-2.11324000E+00	-2.11324000E+00	-4.93063000E+00	 1.76116000E-06	-2.44048000E-01	-2.91371000E-01	 2.89327770E+00	-4.98100251E+00	-2.11324173E+00	-2.06286576E+00
					-2.11323000E+00	-2.11322000E+00	-4.93061000E+00	 6.49629000E-06	-9.00284000E-01	-2.91369000E-01	 3.25942936E+00	-5.21892058E+00	-2.11323286E+00	-1.82490656E+00
					 9.10949000E-01	 1.05798000E+00	-3.07202000E+00	 4.21297000E-06	-9.00306000E-01	-2.91375000E-01	 4.37694310E+00	-3.27916741E+00	 9.19568628E-01	 1.25650779E+00
					 9.10958000E-01	 1.05796000E+00	-3.07203000E+00	-5.20628000E-07	-2.44054000E-01	-2.91377000E-01	 4.11153243E+00	-3.10745713E+00	 9.29962876E-01	 1.07438225E+00
					 2.73159000E+01	 2.07425000E+01	-5.08558000E+01	-9.36614000E-12	-2.63274000E+01	 5.68457000E-11	 8.78610630E+01	-5.94943719E+01	 2.73159000E+01	 2.93810719E+01
					 4.40118000E+00	-1.00303000E+01	-9.64353000E+01	-3.91853000E+00	-1.51465000E+01	-5.08866000E+00	 9.86561760E+01	-9.93241803E+01	-8.15350892E+00	 5.41326925E+00
					 5.20518000E+00	 3.98859000E+01	-8.12169000E+01	 2.92730000E+01	 9.96879000E+00	 3.96976000E+00	 1.20767715E+02	-8.20627924E+01	-1.14469736E+01	 5.73839460E+01
					-2.16747000E+01	-4.55215000E+01	-8.54194000E+01	 1.86707000E-11	-1.02830000E+01	 4.41793000E-11	 5.85591138E+01	-8.79137273E+01	-4.30271727E+01	-2.16747000E+01
					 4.40118000E+00	-1.00303000E+01	-9.64353000E+01	 3.91853000E+00	-1.51465000E+01	 5.08866000E+00	 9.86561760E+01	-9.93241803E+01	-8.15350892E+00	 5.41326925E+00
					-3.77208000E+01	-5.99578000E+01	-1.86708000E+02	 2.62286000E-11	-5.07698000E+01	-5.26151000E-12	 1.64655274E+02	-2.04536200E+02	-4.21296002E+01	-3.77208000E+01
					 1.28757000E+01	 1.06189000E+02	-1.21738000E+02	-2.11960000E-11	-1.66378000E+01	-1.78897000E-11	 2.00549041E+02	-1.22946093E+02	 1.28757000E+01	 1.07397093E+02
					 5.20518000E+00	 3.98859000E+01	-8.12169000E+01	-2.92730000E+01	 9.96879000E+00	-3.96976000E+00	 1.20767715E+02	-8.20627924E+01	-1.14469736E+01	 5.73839460E+01
				</DataArray>
				<DataArray type="Float32" Name="CONTACT" NumberOfComponents="6" ComponentName0="COPEN" ComponentName1="CSLIP1" ComponentName2="CSLIP2" ComponentName3="CPRESS" ComponentName4="CSHEAR1" ComponentName5="CSHEAR2" format="ascii">
					 0.00000000E+00	 0.00000000E+00	 0.00000000E+00	 0.00000000E+00	 0.00000000E+00	 0.00000000E+00
					 0.00000000E+00	 0.00000000E+00	 0.00000000E+00	 0.00000000E+00	 0.00000000E+00	 0.00000000E+00
					 0.00000000E+00	 0.00000000E+00	 0.00000000E+00	 0.00000000E+00	 0.00000000E+00	 0.00000000E+00
					 0.00000000E+00	 0.00000000E+00	 0.00000000E+00	 0.00000000E+00	 0.00000000E+00	 0.00000000E+00
					 0.00000000E+00	 0.00000000E+00	 0.00000000E+00	 0.00000000E+00	 0.00000000E+00	 0.00000000E+00
					 0.00000000E+00	 0.00000000E+00	 0.00000000E+00	 0.00000000E+00	 0.00000000E+00	 0.00000000E+00
					 0.00000000E+00	 0.00000000E+00	 0.00000000E+00	 0.00000000E+00	 0.00000000E+00	 0.00000000E+00
					 0.00000000E+00	 0.00000000E+00	 0.00000000E+00	 0.00000000E+00	 0.00000000E+00	 0.00000000E+00
					-1.00013000E-05	-2.21176000E-14	-9.40971000E-02	 1.00013000E+02	 3.31937000E-11	-1.42997000E+01
					-1.00013000E-05	 1.87086000E-05	-9.41112000E-02	 1.00013000E+02	-1.21938000E-03	-1.43001000E+01
					 0.00000000E+00	 0.00000000E+00	 0.00000000E+00	 0.00000000E+00	 0.00000000E+00	 0.00000000E+00
					 0.00000000E+00	 0.00000000E+00	 0.00000000E+00	 0.00000000E+00	 0.00000000E+00	 0.00000000E+00
					-1.00013000E-05	-1.87086000E-05	-9.41112000E-02	 1.00013000E+02	 1.21939000E-03	-1.43001000E+01
					-1.00013000E-05	 1.87333000E-14	-9.41141000E-02	 1.00013000E+02	 8.47088000E-12	-1.43050000E+01
					 0.00000000E+00	 0.00000000E+00	 0.00000000E+00	 0.00000000E+00	 0.00000000E+00	 0.00000000E+00
					 0.00000000E+00	 0.00000000E+00	 0.00000000E+00	 0.00000000E+00	 0.00000000E+00	 0.00000000E+00
				</DataArray>
			</PointData>
		</Piece>
	</UnstructuredGrid>
</VTKFile>