<?xml version="1.0"?>
<VTKFile type="UnstructuredGrid" version="0.1" byte_order="LittleEndian">
	<UnstructuredGrid>
		<Piece NumberOfPoints="16" NumberOfCells="2">
			<Points>
				<DataArray type="Float64" NumberOfComponents="3" format="ascii">
					 1.00000000E+00	 1.00000000E+00	-1.49012000E-08
					 1.00000000E+00	 0.00000000E+00	-1.49012000E-08
					 1.00000000E+00	 0.00000000E+00	 1.00000000E+00
					 1.00000000E+00	 1.00000000E+00	 1.00000000E+00
					-7.45058000E-09	 1.00000000E+00	-1.49012000E-08
					-7.45058000E-09	 0.00000000E+00	-1.49012000E-08
					-7.45058000E-09	 0.00000000E+00	 1.00000000E+00
					-7.45058000E-09	 1.00000000E+00	 1.00000000E+00
					 5.00000000E-01	 6.41421000E-01	 1.00000000E+00
					 6.41421000E-01	 5.00000000E-01	 1.00000000E+00
					 6.41421000E-01	 5.00000000E-01	 1.20000000E+00
					 5.00000000E-01	 6.41421000E-01	 1.20000000E+00
					 3.58579000E-01	 5.00000000E-01	 1.00000000E+00
					 5.00000000E-01	 3.58579000E-01	 1.00000000E+00
					 5.00000000E-01	 3.58579000E-01	 1.20000000E+00
					 3.58579000E-01	 5.00000000E-01	 1.20000000E+00
				</DataArray>
			</Points>
			<Cells>
				<DataArray type="Int32" Name="connectivity" format="ascii">
					0 1 2 3 4 5 6 7 8 9 10 11 12 13 14 15 
				</DataArray>
				<DataArray type="Int32" Name="offsets" format="ascii">
					8 16 
				</DataArray>
				<DataArray type="UInt8" Name="types" format="ascii">
					12 12 
				</DataArray>
			</Cells>
			<PointData>
				<DataArray type="Float32" Name="U" NumberOfComponents="3" ComponentName0="D1" ComponentName1="D2" ComponentName2="D3" format="ascii">
					 0.00000000E+00	 0.00000000E+00	 0.00000000E+00
					 0.00000000E+00	 0.00000000E+00	 0.00000000E+00
					 3.71446000E-07	-3.70454000E-07	-1.73339000E-06
					 3.71446000E-07	 3.72438000E-07	-1.73339000E-06
					 0.00000000E+00	 0.00000000E+00	 0.00000000E+00
					 0.00000000E+00	 0.00000000E+00	 0.00000000E+00
					-3.71446000E-07	-3.70454000E-07	-1.73339000E-06
					-3.71446000E-07	 3.72438000E-07	-1.73339000E-06
					 1.82225000E-17	 4.02539000E-06	-2.73341000E-06
					 2.01954000E-06	 2.00505000E-06	-2.73341000E-06
					 2.02170000E-06	 2.01029000E-06	-1.22587000E-05
					 0.00000000E+00	 4.03491000E-06	-1.22627000E-05
					-2.01954000E-06	 2.00505000E-06	-2.73341000E-06
					 1.82468000E-17	-1.72129000E-08	-2.73341000E-06
					 0.00000000E+00	 0.00000000E+00	-1.22504000E-05
					-2.02170000E-06	 2.01029000E-06	-1.22587000E-05
				</DataArray>
				<DataArray type="Float32" Name="S" NumberOfComponents="10" ComponentName0="xx" ComponentName1="yy" ComponentName2="zz" ComponentName3="xy" ComponentName4="yz" ComponentName5="zx" ComponentName6="Mises" ComponentName7="Min Principal" ComponentName8="Mid Principal" ComponentName9="Max Principal" format="ascii">
					-2.10003000E-01	-2.10003000E-01	-4.89997000E-01	 2.23470000E-08	 3.00812000E-02	 3.00010000E-02	 2.89502083E-01	-4.96301396E-01	-2.10003022E-01	-2.03698582E-01
					-2.10003000E-01	-2.10003000E-01	-4.89997000E-01	-2.22279000E-08	-2.99209000E-02	 3.00010000E-02	 2.89452243E-01	-4.96268521E-01	-2.10003022E-01	-2.03731457E-01
					 9.00095000E-02	 9.00095000E-02	-3.09989000E-01	-2.22510000E-08	-2.99209000E-02	 3.00011000E-02	 4.06675274E-01	-3.14428069E-01	 9.00094777E-02	 9.44485910E-02
					 9.00095000E-02	 9.00095000E-02	-3.09989000E-01	 2.23240000E-08	 3.00812000E-02	 3.00011000E-02	 4.06710750E-01	-3.14451591E-01	 9.00094777E-02	 9.44721135E-02
					-2.10003000E-01	-2.10003000E-01	-4.89997000E-01	-2.23470000E-08	 3.00812000E-02	-3.00010000E-02	 2.89502083E-01	-4.96301396E-01	-2.10003022E-01	-2.03698582E-01
					-2.10003000E-01	-2.10003000E-01	-4.89997000E-01	 2.22279000E-08	-2.99209000E-02	-3.00010000E-02	 2.89452243E-01	-4.96268521E-01	-2.10003022E-01	-2.03731457E-01
					 9.00095000E-02	 9.00095000E-02	-3.09989000E-01	 2.22518000E-08	-2.99209000E-02	-3.00011000E-02	 4.06675274E-01	-3.14428069E-01	 9.00094777E-02	 9.44485910E-02
					 9.00095000E-02	 9.00095000E-02	-3.09989000E-01	-2.23230000E-08	 3.00812000E-02	-3.00011000E-02	 4.06710750E-01	-3.14451591E-01	 9.00094777E-02	 9.44721135E-02
					-4.60393000E-03	-3.68546000E-03	-1.00068000E+01	 2.88519000E-12	 3.84248000E-03	-7.35948000E-12	 1.00026576E+01	-1.00068015E+01	-4.60393000E-03	-3.68398399E-03
					-1.40498000E-03	 6.08244000E-04	-1.00004000E+01	 5.47377000E-04	 2.11771000E-03	 8.71266000E-04	 1.00000026E+01	-1.00004005E+01	-1.54417142E-03	 7.47959741E-04
					-3.88646000E-04	-5.23628000E-03	-1.00019000E+01	-4.09031000E-03	-1.38955000E-03	-3.94231000E-04	 9.99909124E+00	-1.00019002E+01	-7.56679296E-03	 1.94207569E-03
					 3.36893000E-03	 6.70191000E-03	-1.00013000E+01	-4.02102000E-12	 1.60072000E-03	-3.58159000E-12	 1.00063362E+01	-1.00013003E+01	 3.36893000E-03	 6.70216603E-03
					-1.40498000E-03	 6.08244000E-04	-1.00004000E+01	-5.47377000E-04	 2.11771000E-03	-8.71266000E-04	 1.00000026E+01	-1.00004005E+01	-1.54417142E-03	 7.47959741E-04
					 4.47866000E-03	 7.58663000E-03	-9.98781000E+00	-2.88655000E-12	 6.95038000E-03	-7.36787000E-12	 9.99385026E+00	-9.98781483E+00	 4.47866000E-03	 7.59146300E-03
					-1.46154000E-03	-1.44898000E-02	-9.99621000E+00	 4.02595000E-12	 2.17762000E-03	-3.59163000E-12	 9.98824141E+00	-9.99621048E+00	-1.44893249E-02	-1.46154000E-03
					-3.88646000E-04	-5.23628000E-03	-1.00019000E+01	 4.09031000E-03	-1.38955000E-03	 3.94231000E-04	 9.99909124E+00	-1.00019002E+01	-7.56679296E-03	 1.94207569E-03
				</DataArray>
				<DataArray type="Float32" Name="CONTACT" NumberOfComponents="6" ComponentName0="COPEN" ComponentName1="CSLIP1" ComponentName2="CSLIP2" ComponentName3="CPRESS" ComponentName4="CSHEAR1" ComponentName5="CSHEAR2" format="ascii">
					 0.00000000E+00	 0.00000000E+00	 0.00000000E+00	 0.00000000E+00	 0.00000000E+00	 0.00000000E+00
					 0.00000000E+00	 0.00000000E+00	 0.00000000E+00	 0.00000000E+00	 0.00000000E+00	 0.00000000E+00
					 0.00000000E+00	 0.00000000E+00	 0.00000000E+00	 0.00000000E+00	 0.00000000E+00	 0.00000000E+00
					 0.00000000E+00	 0.00000000E+00	 0.00000000E+00	 0.00000000E+00	 0.00000000E+00	 0.00000000E+00
					 0.00000000E+00	 0.00000000E+00	 0.00000000E+00	 0.00000000E+00	 0.00000000E+00	 0.00000000E+00
					 0.00000000E+00	 0.00000000E+00	 0.00000000E+00	 0.00000000E+00	 0.00000000E+00	 0.00000000E+00
					 0.00000000E+00	 0.00000000E+00	 0.00000000E+00	 0.00000000E+00	 0.00000000E+00	 0.00000000E+00
					 0.00000000E+00	 0.00000000E+00	 0.00000000E+00	 0.00000000E+00	 0.00000000E+00	 0.00000000E+00
					-1.00003000E-06	-2.70071000E-15	 3.53134000E-06	 1.00003000E+01	-2.70071000E-12	 3.53134000E-03
					-1.00003000E-06	 1.52666000E-06	 2.00406000E-06	 1.00003000E+01	 1.52666000E-03	 2.00406000E-03
					 0.00000000E+00	 0.00000000E+00	 0.00000000E+00	 0.00000000E+00	 0.00000000E+00	 0.00000000E+00
					 0.00000000E+00	 0.00000000E+00	 0.00000000E+00	 0.00000000E+00	 0.00000000E+00	 0.00000000E+00
					-1.00003000E-06	-1.52666000E-06	 2.00406000E-06	 1.00003000E+01	-1.52666000E-03	 2.00406000E-03
					-1.00003000E-06	-2.70683000E-15	 4.75214000E-07	 1.00003000E+01	-2.70683000E-12	 4.75214000E-04
					 0.00000000E+00	 0.00000000E+00	 0.00000000E+00	 0.00000000E+00	 0.00000000E+00	 0.00000000E+00
					 0.00000000E+00	 0.00000000E+00	 0.00000000E+00	 0.00000000E+00	 0.00000000E+00	 0.00000000E+00
				</DataArray>
			</PointData>
		</Piece>
	</UnstructuredGrid>
</VTKFile>