<?xml version="1.0"?>
<VTKFile type="UnstructuredGrid" version="0.1" byte_order="LittleEndian">
	<UnstructuredGrid>
		<Piece NumberOfPoints="16" NumberOfCells="2">
			<Points>
				<DataArray type="Float64" NumberOfComponents="3" format="ascii">
					 1.00000000E+00	 1.00000000E+00	-1.49012000E-08
					 1.00000000E+00	 0.00000000E+00	-1.49012000E-08
					 1.00000000E+00	 0.00000000E+00	 1.00000000E+00
					 1.00000000E+00	 1.00000000E+00	 1.00000000E+00
					-7.45058000E-09	 1.00000000E+00	-1.49012000E-08
					-7.45058000E-09	 0.00000000E+00	-1.49012000E-08
					-7.45058000E-09	 0.00000000E+00	 1.00000000E+00
					-7.45058000E-09	 1.00000000E+00	 1.00000000E+00
					 5.00000000E-01	 6.41421000E-01	 1.00000000E+00
					 6.41421000E-01	 5.00000000E-01	 1.00000000E+00
					 6.41421000E-01	 5.00000000E-01	 1.20000000E+00
					 5.00000000E-01	 6.41421000E-01	 1.20000000E+00
					 3.58579000E-01	 5.00000000E-01	 1.00000000E+00
					 5.00000000E-01	 3.58579000E-01	 1.00000000E+00
					 5.00000000E-01	 3.58579000E-01	 1.20000000E+00
					 3.58579000E-01	 5.00000000E-01	 1.20000000E+00
				</DataArray>
			</Points>
			<Cells>
				<DataArray type="Int32" Name="connectivity" format="ascii">
					0 1 2 3 4 5 6 7 8 9 10 11 12 13 14 15 
				</DataArray>
				<DataArray type="Int32" Name="offsets" format="ascii">
					8 16 
				</DataArray>
				<DataArray type="UInt8" Name="types" format="ascii">
					12 12 
				</DataArray>
			</Cells>
			<PointData>
				<DataArray type="Float32" Name="U" NumberOfComponents="3" ComponentName0="D1" ComponentName1="D2" ComponentName2="D3" format="ascii">
					 0.00000000E+00	 0.00000000E+00	 0.00000000E+00
					 0.00000000E+00	 0.00000000E+00	 0.00000000E+00
					 3.70221000E-06	-2.81633000E-06	-1.73509000E-05
					 3.70223000E-06	 4.69884000E-06	-1.73509000E-05
					 0.00000000E+00	 0.00000000E+00	 0.00000000E+00
					 0.00000000E+00	 0.00000000E+00	 0.00000000E+00
					-3.70221000E-06	-2.81633000E-06	-1.73509000E-05
					-3.70223000E-06	 4.69884000E-06	-1.73509000E-05
					 3.28669000E-16	 8.17759000E-02	-2.73506000E-05
					 1.96482000E-05	 8.17555000E-02	-2.73506000E-05
					 2.13274000E-05	 8.17605000E-02	-1.23353000E-04
					 0.00000000E+00	 8.17846000E-02	-1.27086000E-04
					-1.96482000E-05	 8.17555000E-02	-2.73506000E-05
					-1.61571000E-16	 8.17333000E-02	-2.73506000E-05
					 0.00000000E+00	 8.17500000E-02	-1.15399000E-04
					-2.13274000E-05	 8.17605000E-02	-1.23353000E-04
				</DataArray>
				<DataArray type="Float32" Name="S" NumberOfComponents="10" ComponentName0="xx" ComponentName1="yy" ComponentName2="zz" ComponentName3="xy" ComponentName4="yz" ComponentName5="zx" ComponentName6="Mises" ComponentName7="Min Principal" ComponentName8="Mid Principal" ComponentName9="Max Principal" format="ascii">
					-2.10212000E+00	-2.10211000E+00	-4.90467000E+00	 2.81007000E-06	 3.79494000E-01	 2.99006000E-01	 2.92482057E+00	-4.98562008E+00	-2.10211890E+00	-2.02116102E+00
					-2.10212000E+00	-2.10212000E+00	-4.90467000E+00	-1.68426000E-06	-2.27460000E-01	 2.99004000E-01	 2.87710112E+00	-4.95415790E+00	-2.10212162E+00	-2.05263048E+00
					 9.01591000E-01	 9.19481000E-01	-3.09710000E+00	 5.11423000E-08	-2.27465000E-01	 2.99011000E-01	 4.06015148E+00	-3.13203616E+00	 9.10651636E-01	 9.45356523E-01
					 9.01604000E-01	 9.19490000E-01	-3.09709000E+00	 4.54572000E-06	 3.79503000E-01	 2.99013000E-01	 4.09410407E+00	-3.15448488E+00	 9.07263286E-01	 9.71225597E-01
					-2.10212000E+00	-2.10211000E+00	-4.90467000E+00	-2.81007000E-06	 3.79494000E-01	-2.99006000E-01	 2.92482057E+00	-4.98562008E+00	-2.10211890E+00	-2.02116102E+00
					-2.10212000E+00	-2.10212000E+00	-4.90467000E+00	 1.68426000E-06	-2.27460000E-01	-2.99004000E-01	 2.87710112E+00	-4.95415790E+00	-2.10212162E+00	-2.05263048E+00
					 9.01591000E-01	 9.19481000E-01	-3.09710000E+00	-5.05641000E-08	-2.27465000E-01	-2.99011000E-01	 4.06015148E+00	-3.13203616E+00	 9.10651635E-01	 9.45356524E-01
					 9.01604000E-01	 9.19490000E-01	-3.09709000E+00	-4.54476000E-06	 3.79503000E-01	-2.99013000E-01	 4.09410407E+00	-3.15448488E+00	 9.07263287E-01	 9.71225596E-01
					-3.63161000E+00	-2.75096000E+00	-1.06523000E+02	-9.10633000E-12	 3.49542000E+00	-1.32566000E-10	 1.03511733E+02	-1.06640605E+02	-3.63161000E+00	-2.63335481E+00
					-5.89004000E-01	 1.33333000E+00	-1.00474000E+02	 5.21030000E-01	 2.01071000E+00	 6.77302000E-01	 1.00930866E+02	-1.00518147E+02	-7.20882741E-01	 1.50935573E+00
					-6.91609000E-01	-5.30414000E+00	-1.02495000E+02	-3.89029000E+00	-1.32439000E+00	-5.27444000E-01	 9.98355360E+01	-1.02516357E+02	-7.49941579E+00	 1.52502373E+00
					 2.88264000E+00	 6.05101000E+00	-1.01930000E+02	-4.79739000E-11	 1.36484000E+00	-1.12833000E-10	 1.06458450E+02	-1.01947248E+02	 2.88264000E+00	 6.06825832E+00
					-5.89004000E-01	 1.33333000E+00	-1.00474000E+02	-5.21030000E-01	 2.01071000E+00	-6.77302000E-01	 1.00930866E+02	-1.00518147E+02	-7.20882741E-01	 1.50935573E+00
					 5.01119000E+00	 7.97614000E+00	-8.84669000E+01	-3.43239000E-11	 6.75381000E+00	 6.51569000E-11	 9.57128202E+01	-8.89375656E+01	 5.01119000E+00	 8.44680562E+00
					-1.70830000E+00	-1.40999000E+01	-9.71024000E+01	 1.23748000E-11	 2.21323000E+00	 8.49078000E-11	 8.99232767E+01	-9.71613730E+01	-1.40409270E+01	-1.70830000E+00
					-6.91609000E-01	-5.30414000E+00	-1.02495000E+02	 3.89029000E+00	-1.32439000E+00	 5.27444000E-01	 9.98355360E+01	-1.02516357E+02	-7.49941579E+00	 1.52502373E+00
				</DataArray>
				<DataArray type="Float32" Name="CONTACT" NumberOfComponents="6" ComponentName0="COPEN" ComponentName1="CSLIP1" ComponentName2="CSLIP2" ComponentName3="CPRESS" ComponentName4="CSHEAR1" ComponentName5="CSHEAR2" format="ascii">
					 0.00000000E+00	 0.00000000E+00	 0.00000000E+00	 0.00000000E+00	 0.00000000E+00	 0.00000000E+00
					 0.00000000E+00	 0.00000000E+00	 0.00000000E+00	 0.00000000E+00	 0.00000000E+00	 0.00000000E+00
					 0.00000000E+00	 0.00000000E+00	 0.00000000E+00	 0.00000000E+00	 0.00000000E+00	 0.00000000E+00
					 0.00000000E+00	 0.00000000E+00	 0.00000000E+00	 0.00000000E+00	 0.00000000E+00	 0.00000000E+00
					 0.00000000E+00	 0.00000000E+00	 0.00000000E+00	 0.00000000E+00	 0.00000000E+00	 0.00000000E+00
					 0.00000000E+00	 0.00000000E+00	 0.00000000E+00	 0.00000000E+00	 0.00000000E+00	 0.00000000E+00
					 0.00000000E+00	 0.00000000E+00	 0.00000000E+00	 0.00000000E+00	 0.00000000E+00	 0.00000000E+00
					 0.00000000E+00	 0.00000000E+00	 0.00000000E+00	 0.00000000E+00	 0.00000000E+00	 0.00000000E+00
					-9.99970000E-06	-1.11562000E-14	 8.17693000E-02	 9.99970000E+01	-1.64525000E-11	 1.89434000E+00
					-9.99970000E-06	 1.48329000E-05	 8.17539000E-02	 9.99970000E+01	 4.94246000E-03	 1.89564000E+00
					 0.00000000E+00	 0.00000000E+00	 0.00000000E+00	 0.00000000E+00	 0.00000000E+00	 0.00000000E+00
					 0.00000000E+00	 0.00000000E+00	 0.00000000E+00	 0.00000000E+00	 0.00000000E+00	 0.00000000E+00
					-9.99970000E-06	-1.48329000E-05	 8.17539000E-02	 9.99970000E+01	-4.94246000E-03	 1.89564000E+00
					-9.99970000E-06	-1.70579000E-14	 8.17370000E-02	 9.99970000E+01	 2.42813000E-11	 1.91102000E+00
					 0.00000000E+00	 0.00000000E+00	 0.00000000E+00	 0.00000000E+00	 0.00000000E+00	 0.00000000E+00
					 0.00000000E+00	 0.00000000E+00	 0.00000000E+00	 0.00000000E+00	 0.00000000E+00	 0.00000000E+00
				</DataArray>
			</PointData>
		</Piece>
	</UnstructuredGrid>
</VTKFile>