<?xml version="1.0"?>
<VTKFile type="UnstructuredGrid" version="0.1" byte_order="LittleEndian">
	<UnstructuredGrid>
		<Piece NumberOfPoints="16" NumberOfCells="6">
			<Points>
				<DataArray type="Float64" NumberOfComponents="3" format="ascii">
					 1.00000000E+00	 1.00000000E+00	-1.49012000E-08
					 1.00000000E+00	 0.00000000E+00	-1.49012000E-08
					 1.00000000E+00	 0.00000000E+00	 1.00000000E+00
					 1.00000000E+00	 1.00000000E+00	 1.00000000E+00
					-7.45058000E-09	 1.00000000E+00	-1.49012000E-08
					-7.45058000E-09	 0.00000000E+00	-1.49012000E-08
					-7.45058000E-09	 0.00000000E+00	 1.00000000E+00
					-7.45058000E-09	 1.00000000E+00	 1.00000000E+00
					 1.00000000E+00	 1.00000000E+00	 1.00000000E+00
					 1.00000000E+00	 0.00000000E+00	 1.00000000E+00
					 1.00000000E+00	 0.00000000E+00	 1.20000000E+00
					 1.00000000E+00	 1.00000000E+00	 1.20000000E+00
					-7.45058000E-09	 1.00000000E+00	 1.00000000E+00
					-7.45058000E-09	 0.00000000E+00	 1.00000000E+00
					-7.45058000E-09	 0.00000000E+00	 1.20000000E+00
					-7.45058000E-09	 1.00000000E+00	 1.20000000E+00
				</DataArray>
			</Points>
			<Cells>
				<DataArray type="Int32" Name="connectivity" format="ascii">
					0 1 2 3 4 5 6 7 8 9 10 11 12 13 14 15 3 8 2 9 6 13 7 12 
				</DataArray>
				<DataArray type="Int32" Name="offsets" format="ascii">
					8 16 18 20 22 24 
				</DataArray>
				<DataArray type="UInt8" Name="types" format="ascii">
					12 12 3 3 3 3 
				</DataArray>
			</Cells>
			<PointData>
				<DataArray type="Float32" Name="U" NumberOfComponents="3" ComponentName0="D1" ComponentName1="D2" ComponentName2="D3" format="ascii">
					 0.00000000E+00	 0.00000000E+00	 0.00000000E+00
					 0.00000000E+00	 0.00000000E+00	 0.00000000E+00
					 1.40918000E-21	-2.20958000E-22	-4.76194000E-06
					 1.26687000E-21	-2.20030000E-22	-4.76194000E-06
					 0.00000000E+00	 0.00000000E+00	 0.00000000E+00
					 0.00000000E+00	 0.00000000E+00	 0.00000000E+00
					 1.37758000E-21	-2.30885000E-22	-4.76194000E-06
					 1.35905000E-21	-2.32673000E-22	-4.76194000E-06
					-1.10941000E-21	-1.09460000E-22	-8.06107000E-06
					 4.15362000E-23	-1.09964000E-22	-8.06107000E-06
					 0.00000000E+00	 0.00000000E+00	-9.01346000E-06
					 0.00000000E+00	 0.00000000E+00	-9.01346000E-06
					-9.81063000E-22	 6.14220000E-22	-8.06107000E-06
					-5.69100000E-22	 6.20340000E-22	-8.06107000E-06
					 0.00000000E+00	 0.00000000E+00	-9.01346000E-06
					 0.00000000E+00	 0.00000000E+00	-9.01346000E-06
				</DataArray>
				<DataArray type="Float32" Name="RF" NumberOfComponents="3" ComponentName0="F1" ComponentName1="F2" ComponentName2="F3" format="ascii">
					 1.74019000E-18	-1.93934000E-19	 2.50000000E-01
					 4.86098000E-18	-2.02447000E-19	 2.50000000E-01
					-3.01194000E-18	-1.62534000E-18	 2.78275000E-06
					-6.76955000E-18	-1.60773000E-18	 2.78275000E-06
					 7.37136000E-19	 5.10642000E-18	 2.50000000E-01
					 3.44260000E-18	 5.13751000E-18	 2.50000000E-01
					-1.66219000E-18	-3.26456000E-18	 2.78275000E-06
					 6.62769000E-19	-3.34992000E-18	 2.78275000E-06
					-2.13896000E-17	-5.89029000E-18	-2.78275000E-06
					-1.11677000E-17	-5.79958000E-18	-2.78275000E-06
					 2.35589000E-17	-2.10765000E-18	-2.50000000E-01
					 1.40625000E-17	-2.04115000E-18	-2.50000000E-01
					-2.85217000E-17	-1.30603000E-18	-2.78275000E-06
					-3.30913000E-17	-1.07237000E-18	-2.78275000E-06
					 3.65387000E-17	 9.03857000E-18	-2.50000000E-01
					 2.00101000E-17	 9.17849000E-18	-2.50000000E-01
				</DataArray>
			</PointData>
		</Piece>
	</UnstructuredGrid>
</VTKFile>