    1C
    1UModel: linear net 3 elements Dtype                                
    1UUSER                                                              
    1UDATE              25.january.2020                                 
    1UTIME              14:50:26                                        
    1UHOST                                                              
    1UPGM               CalculiX                                        
    1UVERSION           Version 2.16                             
    1UCOMPILETIME       Tue  7 Jan 19:57:43 CET 2020                    
    1UDIR                                                               
    1UDBN                                                               
    1UMAT    1GAS                                                       
    2C                            21                                     1
 -1         3 0.00000E+00 0.00000E+00 0.00000E+00
 -1         4 0.00000E+00 0.00000E+00 0.00000E+00
 -1      3000 0.00000E+00 0.00000E+00 0.00000E+00
 -1      4000 0.00000E+00 0.00000E+00 0.00000E+00
 -1      7001 0.00000E+00 0.00000E+00 0.00000E+00
 -1      7002 0.00000E+00 0.00000E+00 0.00000E+00
 -1      7003 0.00000E+00 0.00000E+00 0.00000E+00
 -1      7004 0.00000E+00 0.00000E+00 0.00000E+00
 -1      7005 0.00000E+00 0.00000E+00 0.00000E+00
 -1      7006 0.00000E+00 0.00000E+00 0.00000E+00
 -1      7007 0.00000E+00 0.00000E+00 0.00000E+00
 -1      7008 0.00000E+00 0.00000E+00 0.00000E+00
 -1      7009 0.00000E+00 0.00000E+00 0.00000E+00
 -1      7010 0.00000E+00 0.00000E+00 0.00000E+00
 -1      7011 0.00000E+00 0.00000E+00 0.00000E+00
 -1      7012 0.00000E+00 0.00000E+00 0.00000E+00
 -1      7013 0.00000E+00 0.00000E+00 0.00000E+00
 -1      7014 0.00000E+00 0.00000E+00 0.00000E+00
 -1      7015 0.00000E+00 0.00000E+00 0.00000E+00
 -1      7016 0.00000E+00 0.00000E+00 0.00000E+00
 -1      7017 0.00000E+00 0.00000E+00 0.00000E+00
 -3
    3C                            11                                     1
 -1         1   12    0    1
 -2         3      7002      7001
 -1         2   12    0    1
 -2      7002      7004      7003
 -1         3   12    0    1
 -2      7004      7006      7005
 -1         4   12    0    1
 -2      7006      7008      7007
 -1         5   12    0    1
 -2      7008      7010      7009
 -1         6   12    0    1
 -2      7010      7012      7011
 -1         7   12    0    1
 -2      7012      7014      7013
 -1         8   12    0    1
 -2      7014      7016      7015
 -1         9   12    0    1
 -2      7016         4      7017
 -1        10   11    0    1
 -2      3000         3
 -1        11   11    0    1
 -2         4      4000
 -3
 9999
