<?xml version="1.0"?>
<VTKFile type="UnstructuredGrid" version="0.1" byte_order="LittleEndian">
	<UnstructuredGrid>
		<Piece NumberOfPoints="261" NumberOfCells="32">
			<Points>
				<DataArray type="Float64" NumberOfComponents="3" format="ascii">
					 0.00000000E+00	 0.00000000E+00	 0.00000000E+00
					 1.00000000E+00	 0.00000000E+00	 0.00000000E+00
					 1.00000000E+00	 1.00000000E+00	 0.00000000E+00
					 0.00000000E+00	 1.00000000E+00	 0.00000000E+00
					 0.00000000E+00	 0.00000000E+00	 8.00000000E+00
					 1.00000000E+00	 0.00000000E+00	 8.00000000E+00
					 1.00000000E+00	 1.00000000E+00	 8.00000000E+00
					 0.00000000E+00	 1.00000000E+00	 8.00000000E+00
					 2.50000000E-01	 0.00000000E+00	 0.00000000E+00
					 5.00000000E-01	 0.00000000E+00	 0.00000000E+00
					 7.50000000E-01	 0.00000000E+00	 0.00000000E+00
					 1.00000000E+00	 2.50000000E-01	 0.00000000E+00
					 1.00000000E+00	 5.00000000E-01	 0.00000000E+00
					 1.00000000E+00	 7.50000000E-01	 0.00000000E+00
					 7.50000000E-01	 1.00000000E+00	 0.00000000E+00
					 5.00000000E-01	 1.00000000E+00	 0.00000000E+00
					 2.50000000E-01	 1.00000000E+00	 0.00000000E+00
					 0.00000000E+00	 7.50000000E-01	 0.00000000E+00
					 0.00000000E+00	 5.00000000E-01	 0.00000000E+00
					 0.00000000E+00	 2.50000000E-01	 0.00000000E+00
					 2.50000000E-01	 0.00000000E+00	 8.00000000E+00
					 5.00000000E-01	 0.00000000E+00	 8.00000000E+00
					 7.50000000E-01	 0.00000000E+00	 8.00000000E+00
					 1.00000000E+00	 2.50000000E-01	 8.00000000E+00
					 1.00000000E+00	 5.00000000E-01	 8.00000000E+00
					 1.00000000E+00	 7.50000000E-01	 8.00000000E+00
					 7.50000000E-01	 1.00000000E+00	 8.00000000E+00
					 5.00000000E-01	 1.00000000E+00	 8.00000000E+00
					 2.50000000E-01	 1.00000000E+00	 8.00000000E+00
					 0.00000000E+00	 7.50000000E-01	 8.00000000E+00
					 0.00000000E+00	 5.00000000E-01	 8.00000000E+00
					 0.00000000E+00	 2.50000000E-01	 8.00000000E+00
					 1.00000000E+00	 0.00000000E+00	 5.00000000E-01
					 1.00000000E+00	 0.00000000E+00	 1.00000000E+00
					 1.00000000E+00	 0.00000000E+00	 1.50000000E+00
					 1.00000000E+00	 0.00000000E+00	 2.00000000E+00
					 1.00000000E+00	 0.00000000E+00	 2.50000000E+00
					 1.00000000E+00	 0.00000000E+00	 3.00000000E+00
					 1.00000000E+00	 0.00000000E+00	 3.50000000E+00
					 1.00000000E+00	 0.00000000E+00	 4.00000000E+00
					 1.00000000E+00	 0.00000000E+00	 4.50000000E+00
					 1.00000000E+00	 0.00000000E+00	 5.00000000E+00
					 1.00000000E+00	 0.00000000E+00	 5.50000000E+00
					 1.00000000E+00	 0.00000000E+00	 6.00000000E+00
					 1.00000000E+00	 0.00000000E+00	 6.50000000E+00
					 1.00000000E+00	 0.00000000E+00	 7.00000000E+00
					 1.00000000E+00	 0.00000000E+00	 7.50000000E+00
					 0.00000000E+00	 0.00000000E+00	 7.50000000E+00
					 0.00000000E+00	 0.00000000E+00	 7.00000000E+00
					 0.00000000E+00	 0.00000000E+00	 6.50000000E+00
					 0.00000000E+00	 0.00000000E+00	 6.00000000E+00
					 0.00000000E+00	 0.00000000E+00	 5.50000000E+00
					 0.00000000E+00	 0.00000000E+00	 5.00000000E+00
					 0.00000000E+00	 0.00000000E+00	 4.50000000E+00
					 0.00000000E+00	 0.00000000E+00	 4.00000000E+00
					 0.00000000E+00	 0.00000000E+00	 3.50000000E+00
					 0.00000000E+00	 0.00000000E+00	 3.00000000E+00
					 0.00000000E+00	 0.00000000E+00	 2.50000000E+00
					 0.00000000E+00	 0.00000000E+00	 2.00000000E+00
					 0.00000000E+00	 0.00000000E+00	 1.50000000E+00
					 0.00000000E+00	 0.00000000E+00	 1.00000000E+00
					 0.00000000E+00	 0.00000000E+00	 5.00000000E-01
					 1.00000000E+00	 1.00000000E+00	 5.00000000E-01
					 1.00000000E+00	 1.00000000E+00	 1.00000000E+00
					 1.00000000E+00	 1.00000000E+00	 1.50000000E+00
					 1.00000000E+00	 1.00000000E+00	 2.00000000E+00
					 1.00000000E+00	 1.00000000E+00	 2.50000000E+00
					 1.00000000E+00	 1.00000000E+00	 3.00000000E+00
					 1.00000000E+00	 1.00000000E+00	 3.50000000E+00
					 1.00000000E+00	 1.00000000E+00	 4.00000000E+00
					 1.00000000E+00	 1.00000000E+00	 4.50000000E+00
					 1.00000000E+00	 1.00000000E+00	 5.00000000E+00
					 1.00000000E+00	 1.00000000E+00	 5.50000000E+00
					 1.00000000E+00	 1.00000000E+00	 6.00000000E+00
					 1.00000000E+00	 1.00000000E+00	 6.50000000E+00
					 1.00000000E+00	 1.00000000E+00	 7.00000000E+00
					 1.00000000E+00	 1.00000000E+00	 7.50000000E+00
					 0.00000000E+00	 1.00000000E+00	 5.00000000E-01
					 0.00000000E+00	 1.00000000E+00	 1.00000000E+00
					 0.00000000E+00	 1.00000000E+00	 1.50000000E+00
					 0.00000000E+00	 1.00000000E+00	 2.00000000E+00
					 0.00000000E+00	 1.00000000E+00	 2.50000000E+00
					 0.00000000E+00	 1.00000000E+00	 3.00000000E+00
					 0.00000000E+00	 1.00000000E+00	 3.50000000E+00
					 0.00000000E+00	 1.00000000E+00	 4.00000000E+00
					 0.00000000E+00	 1.00000000E+00	 4.50000000E+00
					 0.00000000E+00	 1.00000000E+00	 5.00000000E+00
					 0.00000000E+00	 1.00000000E+00	 5.50000000E+00
					 0.00000000E+00	 1.00000000E+00	 6.00000000E+00
					 0.00000000E+00	 1.00000000E+00	 6.50000000E+00
					 0.00000000E+00	 1.00000000E+00	 7.00000000E+00
					 0.00000000E+00	 1.00000000E+00	 7.50000000E+00
					 5.00000000E-01	 2.50000000E-01	 0.00000000E+00
					 2.50000000E-01	 5.00000000E-01	 0.00000000E+00
					 5.00000000E-01	 5.00000000E-01	 0.00000000E+00
					 7.50000000E-01	 5.00000000E-01	 0.00000000E+00
					 5.00000000E-01	 7.50000000E-01	 0.00000000E+00
					 5.00000000E-01	 2.50000000E-01	 8.00000000E+00
					 2.50000000E-01	 5.00000000E-01	 8.00000000E+00
					 5.00000000E-01	 5.00000000E-01	 8.00000000E+00
					 7.50000000E-01	 5.00000000E-01	 8.00000000E+00
					 5.00000000E-01	 7.50000000E-01	 8.00000000E+00
					 5.00000000E-01	 0.00000000E+00	 5.00000000E-01
					 2.50000000E-01	 0.00000000E+00	 1.00000000E+00
					 5.00000000E-01	 0.00000000E+00	 1.00000000E+00
					 7.50000000E-01	 0.00000000E+00	 1.00000000E+00
					 5.00000000E-01	 0.00000000E+00	 1.50000000E+00
					 2.50000000E-01	 0.00000000E+00	 2.00000000E+00
					 5.00000000E-01	 0.00000000E+00	 2.00000000E+00
					 7.50000000E-01	 0.00000000E+00	 2.00000000E+00
					 5.00000000E-01	 0.00000000E+00	 2.50000000E+00
					 2.50000000E-01	 0.00000000E+00	 3.00000000E+00
					 5.00000000E-01	 0.00000000E+00	 3.00000000E+00
					 7.50000000E-01	 0.00000000E+00	 3.00000000E+00
					 5.00000000E-01	 0.00000000E+00	 3.50000000E+00
					 2.50000000E-01	 0.00000000E+00	 4.00000000E+00
					 5.00000000E-01	 0.00000000E+00	 4.00000000E+00
					 7.50000000E-01	 0.00000000E+00	 4.00000000E+00
					 5.00000000E-01	 0.00000000E+00	 4.50000000E+00
					 2.50000000E-01	 0.00000000E+00	 5.00000000E+00
					 5.00000000E-01	 0.00000000E+00	 5.00000000E+00
					 7.50000000E-01	 0.00000000E+00	 5.00000000E+00
					 5.00000000E-01	 0.00000000E+00	 5.50000000E+00
					 2.50000000E-01	 0.00000000E+00	 6.00000000E+00
					 5.00000000E-01	 0.00000000E+00	 6.00000000E+00
					 7.50000000E-01	 0.00000000E+00	 6.00000000E+00
					 5.00000000E-01	 0.00000000E+00	 6.50000000E+00
					 2.50000000E-01	 0.00000000E+00	 7.00000000E+00
					 5.00000000E-01	 0.00000000E+00	 7.00000000E+00
					 7.50000000E-01	 0.00000000E+00	 7.00000000E+00
					 5.00000000E-01	 0.00000000E+00	 7.50000000E+00
					 1.00000000E+00	 5.00000000E-01	 5.00000000E-01
					 1.00000000E+00	 2.50000000E-01	 1.00000000E+00
					 1.00000000E+00	 5.00000000E-01	 1.00000000E+00
					 1.00000000E+00	 7.50000000E-01	 1.00000000E+00
					 1.00000000E+00	 5.00000000E-01	 1.50000000E+00
					 1.00000000E+00	 2.50000000E-01	 2.00000000E+00
					 1.00000000E+00	 5.00000000E-01	 2.00000000E+00
					 1.00000000E+00	 7.50000000E-01	 2.00000000E+00
					 1.00000000E+00	 5.00000000E-01	 2.50000000E+00
					 1.00000000E+00	 2.50000000E-01	 3.00000000E+00
					 1.00000000E+00	 5.00000000E-01	 3.00000000E+00
					 1.00000000E+00	 7.50000000E-01	 3.00000000E+00
					 1.00000000E+00	 5.00000000E-01	 3.50000000E+00
					 1.00000000E+00	 2.50000000E-01	 4.00000000E+00
					 1.00000000E+00	 5.00000000E-01	 4.00000000E+00
					 1.00000000E+00	 7.50000000E-01	 4.00000000E+00
					 1.00000000E+00	 5.00000000E-01	 4.50000000E+00
					 1.00000000E+00	 2.50000000E-01	 5.00000000E+00
					 1.00000000E+00	 5.00000000E-01	 5.00000000E+00
					 1.00000000E+00	 7.50000000E-01	 5.00000000E+00
					 1.00000000E+00	 5.00000000E-01	 5.50000000E+00
					 1.00000000E+00	 2.50000000E-01	 6.00000000E+00
					 1.00000000E+00	 5.00000000E-01	 6.00000000E+00
					 1.00000000E+00	 7.50000000E-01	 6.00000000E+00
					 1.00000000E+00	 5.00000000E-01	 6.50000000E+00
					 1.00000000E+00	 2.50000000E-01	 7.00000000E+00
					 1.00000000E+00	 5.00000000E-01	 7.00000000E+00
					 1.00000000E+00	 7.50000000E-01	 7.00000000E+00
					 1.00000000E+00	 5.00000000E-01	 7.50000000E+00
					 5.00000000E-01	 1.00000000E+00	 5.00000000E-01
					 7.50000000E-01	 1.00000000E+00	 1.00000000E+00
					 5.00000000E-01	 1.00000000E+00	 1.00000000E+00
					 2.50000000E-01	 1.00000000E+00	 1.00000000E+00
					 5.00000000E-01	 1.00000000E+00	 1.50000000E+00
					 7.50000000E-01	 1.00000000E+00	 2.00000000E+00
					 5.00000000E-01	 1.00000000E+00	 2.00000000E+00
					 2.50000000E-01	 1.00000000E+00	 2.00000000E+00
					 5.00000000E-01	 1.00000000E+00	 2.50000000E+00
					 7.50000000E-01	 1.00000000E+00	 3.00000000E+00
					 5.00000000E-01	 1.00000000E+00	 3.00000000E+00
					 2.50000000E-01	 1.00000000E+00	 3.00000000E+00
					 5.00000000E-01	 1.00000000E+00	 3.50000000E+00
					 7.50000000E-01	 1.00000000E+00	 4.00000000E+00
					 5.00000000E-01	 1.00000000E+00	 4.00000000E+00
					 2.50000000E-01	 1.00000000E+00	 4.00000000E+00
					 5.00000000E-01	 1.00000000E+00	 4.50000000E+00
					 7.50000000E-01	 1.00000000E+00	 5.00000000E+00
					 5.00000000E-01	 1.00000000E+00	 5.00000000E+00
					 2.50000000E-01	 1.00000000E+00	 5.00000000E+00
					 5.00000000E-01	 1.00000000E+00	 5.50000000E+00
					 7.50000000E-01	 1.00000000E+00	 6.00000000E+00
					 5.00000000E-01	 1.00000000E+00	 6.00000000E+00
					 2.50000000E-01	 1.00000000E+00	 6.00000000E+00
					 5.00000000E-01	 1.00000000E+00	 6.50000000E+00
					 7.50000000E-01	 1.00000000E+00	 7.00000000E+00
					 5.00000000E-01	 1.00000000E+00	 7.00000000E+00
					 2.50000000E-01	 1.00000000E+00	 7.00000000E+00
					 5.00000000E-01	 1.00000000E+00	 7.50000000E+00
					 0.00000000E+00	 5.00000000E-01	 5.00000000E-01
					 0.00000000E+00	 7.50000000E-01	 1.00000000E+00
					 0.00000000E+00	 5.00000000E-01	 1.00000000E+00
					 0.00000000E+00	 2.50000000E-01	 1.00000000E+00
					 0.00000000E+00	 5.00000000E-01	 1.50000000E+00
					 0.00000000E+00	 7.50000000E-01	 2.00000000E+00
					 0.00000000E+00	 5.00000000E-01	 2.00000000E+00
					 0.00000000E+00	 2.50000000E-01	 2.00000000E+00
					 0.00000000E+00	 5.00000000E-01	 2.50000000E+00
					 0.00000000E+00	 7.50000000E-01	 3.00000000E+00
					 0.00000000E+00	 5.00000000E-01	 3.00000000E+00
					 0.00000000E+00	 2.50000000E-01	 3.00000000E+00
					 0.00000000E+00	 5.00000000E-01	 3.50000000E+00
					 0.00000000E+00	 7.50000000E-01	 4.00000000E+00
					 0.00000000E+00	 5.00000000E-01	 4.00000000E+00
					 0.00000000E+00	 2.50000000E-01	 4.00000000E+00
					 0.00000000E+00	 5.00000000E-01	 4.50000000E+00
					 0.00000000E+00	 7.50000000E-01	 5.00000000E+00
					 0.00000000E+00	 5.00000000E-01	 5.00000000E+00
					 0.00000000E+00	 2.50000000E-01	 5.00000000E+00
					 0.00000000E+00	 5.00000000E-01	 5.50000000E+00
					 0.00000000E+00	 7.50000000E-01	 6.00000000E+00
					 0.00000000E+00	 5.00000000E-01	 6.00000000E+00
					 0.00000000E+00	 2.50000000E-01	 6.00000000E+00
					 0.00000000E+00	 5.00000000E-01	 6.50000000E+00
					 0.00000000E+00	 7.50000000E-01	 7.00000000E+00
					 0.00000000E+00	 5.00000000E-01	 7.00000000E+00
					 0.00000000E+00	 2.50000000E-01	 7.00000000E+00
					 0.00000000E+00	 5.00000000E-01	 7.50000000E+00
					 5.00000000E-01	 5.00000000E-01	 5.00000000E-01
					 5.00000000E-01	 2.50000000E-01	 1.00000000E+00
					 2.50000000E-01	 5.00000000E-01	 1.00000000E+00
					 5.00000000E-01	 5.00000000E-01	 1.00000000E+00
					 7.50000000E-01	 5.00000000E-01	 1.00000000E+00
					 5.00000000E-01	 7.50000000E-01	 1.00000000E+00
					 5.00000000E-01	 5.00000000E-01	 1.50000000E+00
					 5.00000000E-01	 2.50000000E-01	 2.00000000E+00
					 2.50000000E-01	 5.00000000E-01	 2.00000000E+00
					 5.00000000E-01	 5.00000000E-01	 2.00000000E+00
					 7.50000000E-01	 5.00000000E-01	 2.00000000E+00
					 5.00000000E-01	 7.50000000E-01	 2.00000000E+00
					 5.00000000E-01	 5.00000000E-01	 2.50000000E+00
					 5.00000000E-01	 2.50000000E-01	 3.00000000E+00
					 2.50000000E-01	 5.00000000E-01	 3.00000000E+00
					 5.00000000E-01	 5.00000000E-01	 3.00000000E+00
					 7.50000000E-01	 5.00000000E-01	 3.00000000E+00
					 5.00000000E-01	 7.50000000E-01	 3.00000000E+00
					 5.00000000E-01	 5.00000000E-01	 3.50000000E+00
					 5.00000000E-01	 2.50000000E-01	 4.00000000E+00
					 2.50000000E-01	 5.00000000E-01	 4.00000000E+00
					 5.00000000E-01	 5.00000000E-01	 4.00000000E+00
					 7.50000000E-01	 5.00000000E-01	 4.00000000E+00
					 5.00000000E-01	 7.50000000E-01	 4.00000000E+00
					 5.00000000E-01	 5.00000000E-01	 4.50000000E+00
					 5.00000000E-01	 2.50000000E-01	 5.00000000E+00
					 2.50000000E-01	 5.00000000E-01	 5.00000000E+00
					 5.00000000E-01	 5.00000000E-01	 5.00000000E+00
					 7.50000000E-01	 5.00000000E-01	 5.00000000E+00
					 5.00000000E-01	 7.50000000E-01	 5.00000000E+00
					 5.00000000E-01	 5.00000000E-01	 5.50000000E+00
					 5.00000000E-01	 2.50000000E-01	 6.00000000E+00
					 2.50000000E-01	 5.00000000E-01	 6.00000000E+00
					 5.00000000E-01	 5.00000000E-01	 6.00000000E+00
					 7.50000000E-01	 5.00000000E-01	 6.00000000E+00
					 5.00000000E-01	 7.50000000E-01	 6.00000000E+00
					 5.00000000E-01	 5.00000000E-01	 6.50000000E+00
					 5.00000000E-01	 2.50000000E-01	 7.00000000E+00
					 2.50000000E-01	 5.00000000E-01	 7.00000000E+00
					 5.00000000E-01	 5.00000000E-01	 7.00000000E+00
					 7.50000000E-01	 5.00000000E-01	 7.00000000E+00
					 5.00000000E-01	 7.50000000E-01	 7.00000000E+00
					 5.00000000E-01	 5.00000000E-01	 7.50000000E+00
				</DataArray>
			</Points>
			<Cells>
				<DataArray type="Int32" Name="connectivity" format="ascii">
					0 9 94 18 60 104 221 191 8 92 93 19 103 219 220 192 61 102 218 189 9 1 12 94 104 33 133 221 10 11 95 92 105 132 222 219 102 32 131 218 18 94 15 3 191 221 162 78 93 96 16 17 220 223 163 190 189 218 160 77 94 12 2 15 221 133 63 162 95 13 14 96 222 134 161 223 218 131 62 160 60 104 221 191 58 108 227 195 103 219 220 192 107 225 226 196 59 106 224 193 104 33 133 221 108 35 137 227 105 132 222 219 109 136 228 225 106 34 135 224 191 221 162 78 195 227 166 80 220 223 163 190 226 229 167 194 193 224 164 79 221 133 63 162 227 137 65 166 222 134 161 223 228 138 165 229 224 135 64 164 58 108 227 195 56 112 233 199 107 225 226 196 111 231 232 200 57 110 230 197 108 35 137 227 112 37 141 233 109 136 228 225 113 140 234 231 110 36 139 230 195 227 166 80 199 233 170 82 226 229 167 194 232 235 171 198 197 230 168 81 227 137 65 166 233 141 67 170 228 138 165 229 234 142 169 235 230 139 66 168 56 112 233 199 54 116 239 203 111 231 232 200 115 237 238 204 55 114 236 201 112 37 141 233 116 39 145 239 113 140 234 231 117 144 240 237 114 38 143 236 199 233 170 82 203 239 174 84 232 235 171 198 238 241 175 202 201 236 172 83 233 141 67 170 239 145 69 174 234 142 169 235 240 146 173 241 236 143 68 172 54 116 239 203 52 120 245 207 115 237 238 204 119 243 244 208 53 118 242 205 116 39 145 239 120 41 149 245 117 144 240 237 121 148 246 243 118 40 147 242 203 239 174 84 207 245 178 86 238 241 175 202 244 247 179 206 205 242 176 85 239 145 69 174 245 149 71 178 240 146 173 241 246 150 177 247 242 147 70 176 52 120 245 207 50 124 251 211 119 243 244 208 123 249 250 212 51 122 248 209 120 41 149 245 124 43 153 251 121 148 246 243 125 152 252 249 122 42 151 248 207 245 178 86 211 251 182 88 244 247 179 206 250 253 183 210 209 248 180 87 245 149 71 178 251 153 73 182 246 150 177 247 252 154 181 253 248 151 72 180 50 124 251 211 48 128 257 215 123 249 250 212 127 255 256 216 49 126 254 213 124 43 153 251 128 45 157 257 125 152 252 249 129 156 258 255 126 44 155 254 211 251 182 88 215 257 186 90 250 253 183 210 256 259 187 214 213 254 184 89 251 153 73 182 257 157 75 186 252 154 181 253 258 158 185 259 254 155 74 184 48 128 257 215 4 21 99 30 127 255 256 216 20 97 98 31 47 130 260 217 128 45 157 257 21 5 24 99 129 156 258 255 22 23 100 97 130 46 159 260 215 257 186 90 30 99 27 7 256 259 187 214 98 101 28 29 217 260 188 91 257 157 75 186 99 24 6 27 258 158 185 259 100 25 26 101 260 159 76 188 
				</DataArray>
				<DataArray type="Int32" Name="offsets" format="ascii">
					20 40 60 80 100 120 140 160 180 200 220 240 260 280 300 320 340 360 380 400 420 440 460 480 500 520 540 560 580 600 620 640 
				</DataArray>
				<DataArray type="UInt8" Name="types" format="ascii">
					25 25 25 25 25 25 25 25 25 25 25 25 25 25 25 25 25 25 25 25 25 25 25 25 25 25 25 25 25 25 25 25 
				</DataArray>
			</Cells>
			<PointData>
				<DataArray type="Float32" Name="U" NumberOfComponents="3" ComponentName0="D1" ComponentName1="D2" ComponentName2="D3" format="ascii">
					 0.00000000E+00	 0.00000000E+00	 0.00000000E+00
					 0.00000000E+00	 0.00000000E+00	 0.00000000E+00
					 0.00000000E+00	 0.00000000E+00	 0.00000000E+00
					 0.00000000E+00	 0.00000000E+00	 0.00000000E+00
					-2.10167000E-04	 1.00428000E-02	 9.51313000E-04
					-1.70292000E-04	 9.56263000E-03	 9.04947000E-04
					 1.66075000E-04	 9.55999000E-03	-9.02266000E-04
					 1.70292000E-04	 9.90488000E-03	-9.05332000E-04
					 0.00000000E+00	 0.00000000E+00	 0.00000000E+00
					 0.00000000E+00	 0.00000000E+00	 0.00000000E+00
					 0.00000000E+00	 0.00000000E+00	 0.00000000E+00
					 0.00000000E+00	 0.00000000E+00	 0.00000000E+00
					 0.00000000E+00	 0.00000000E+00	 0.00000000E+00
					 0.00000000E+00	 0.00000000E+00	 0.00000000E+00
					 0.00000000E+00	 0.00000000E+00	 0.00000000E+00
					 0.00000000E+00	 0.00000000E+00	 0.00000000E+00
					 0.00000000E+00	 0.00000000E+00	 0.00000000E+00
					 0.00000000E+00	 0.00000000E+00	 0.00000000E+00
					 0.00000000E+00	 0.00000000E+00	 0.00000000E+00
					 0.00000000E+00	 0.00000000E+00	 0.00000000E+00
					-1.84850000E-04	 9.84837000E-03	 9.29197000E-04
					-1.66027000E-04	 9.71744000E-03	 8.97386000E-04
					-1.66910000E-04	 9.63794000E-03	 8.99194000E-04
					-8.36718000E-05	 9.55881000E-03	 4.50700000E-04
					 8.82606000E-07	 9.55623000E-03	-9.15333000E-07
					 8.38139000E-05	 9.55829000E-03	-4.51544000E-04
					 1.66358000E-04	 9.64184000E-03	-9.02996000E-04
					 1.67097000E-04	 9.72802000E-03	-9.04215000E-04
					 1.67603000E-04	 9.81226000E-03	-9.05222000E-04
					 8.17990000E-05	 9.89455000E-03	-4.50104000E-04
					-1.28076000E-06	 9.88905000E-03	-1.94837000E-06
					-8.12728000E-05	 9.95714000E-03	 4.49602000E-04
					-4.38521000E-05	 5.02221000E-05	 1.02878000E-04
					-4.55874000E-05	 1.92732000E-04	 2.06059000E-04
					-6.01536000E-05	 4.48092000E-04	 3.02938000E-04
					-6.77185000E-05	 7.88682000E-04	 3.92494000E-04
					-7.73332000E-05	 1.22068000E-03	 4.74122000E-04
					-8.57576000E-05	 1.72745000E-03	 5.49227000E-04
					-9.48424000E-05	 2.30756000E-03	 6.17026000E-04
					-1.03553000E-04	 2.95108000E-03	 6.77832000E-04
					-1.12336000E-04	 3.65182000E-03	 7.31334000E-04
					-1.21309000E-04	 4.40320000E-03	 7.77770000E-04
					-1.29761000E-04	 5.19614000E-03	 8.17080000E-04
					-1.39694000E-04	 6.02750000E-03	 8.49305000E-04
					-1.46496000E-04	 6.88252000E-03	 8.73873000E-04
					-1.57822000E-04	 7.76607000E-03	 8.92512000E-04
					-1.63687000E-04	 8.65481000E-03	 9.00190000E-04
					-1.74456000E-04	 8.97795000E-03	 9.10896000E-04
					-1.36230000E-04	 8.07964000E-03	 8.89829000E-04
					-1.33654000E-04	 7.15882000E-03	 8.73114000E-04
					-1.21832000E-04	 6.29543000E-03	 8.50747000E-04
					-1.09682000E-04	 5.43399000E-03	 8.17286000E-04
					-9.42368000E-05	 4.62087000E-03	 7.77740000E-04
					-8.23605000E-05	 3.84595000E-03	 7.31173000E-04
					-6.92237000E-05	 3.12472000E-03	 6.78029000E-04
					-5.62975000E-05	 2.45845000E-03	 6.17013000E-04
					-4.32175000E-05	 1.85676000E-03	 5.49266000E-04
					-2.99552000E-05	 1.32787000E-03	 4.74100000E-04
					-1.78414000E-05	 8.74378000E-04	 3.92523000E-04
					-3.67876000E-06	 5.11885000E-04	 3.02932000E-04
					 4.43226000E-06	 2.33935000E-04	 2.06070000E-04
					 2.47471000E-05	 6.93166000E-05	 1.02871000E-04
					 4.38516000E-05	 5.02228000E-05	-1.02877000E-04
					 4.55873000E-05	 1.92730000E-04	-2.06061000E-04
					 6.01519000E-05	 4.48094000E-04	-3.02936000E-04
					 6.77150000E-05	 7.88668000E-04	-3.92500000E-04
					 7.73339000E-05	 1.22069000E-03	-4.74117000E-04
					 8.57419000E-05	 1.72741000E-03	-5.49241000E-04
					 9.48511000E-05	 2.30758000E-03	-6.17015000E-04
					 1.03470000E-04	 2.95091000E-03	-6.77875000E-04
					 1.12408000E-04	 3.65196000E-03	-7.31299000E-04
					 1.21035000E-04	 4.40279000E-03	-7.77836000E-04
					 1.29966000E-04	 5.19639000E-03	-8.17010000E-04
					 1.38553000E-04	 6.02598000E-03	-8.49244000E-04
					 1.47604000E-04	 6.88364000E-03	-8.74092000E-04
					 1.56033000E-04	 7.76348000E-03	-8.91984000E-04
					 1.63537000E-04	 8.65747000E-03	-9.00572000E-04
					-2.47479000E-05	 6.93183000E-05	-1.02872000E-04
					-4.42353000E-06	 2.33932000E-04	-2.06072000E-04
					 3.66877000E-06	 5.11886000E-04	-3.02930000E-04
					 1.78578000E-05	 8.74351000E-04	-3.92521000E-04
					 2.99453000E-05	 1.32789000E-03	-4.74103000E-04
					 4.33259000E-05	 1.85674000E-03	-5.49296000E-04
					 5.61949000E-05	 2.45845000E-03	-6.16982000E-04
					 6.93493000E-05	 3.12435000E-03	-6.78008000E-04
					 8.23337000E-05	 3.84627000E-03	-7.31199000E-04
					 9.54871000E-05	 4.62057000E-03	-7.78194000E-04
					 1.08452000E-04	 5.43396000E-03	-8.16798000E-04
					 1.22313000E-04	 6.28956000E-03	-8.50494000E-04
					 1.33947000E-04	 7.16343000E-03	-8.73065000E-04
					 1.47715000E-04	 8.06874000E-03	-8.93389000E-04
					 1.61117000E-04	 8.98324000E-03	-9.03247000E-04
					 0.00000000E+00	 0.00000000E+00	 0.00000000E+00
					 0.00000000E+00	 0.00000000E+00	 0.00000000E+00
					 0.00000000E+00	 0.00000000E+00	 0.00000000E+00
					 0.00000000E+00	 0.00000000E+00	 0.00000000E+00
					 0.00000000E+00	 0.00000000E+00	 0.00000000E+00
					-8.33791000E-05	 9.72355000E-03	 4.51996000E-04
					 2.67494000E-06	 9.81667000E-03	-1.83864000E-06
					 2.54614000E-06	 9.72721000E-03	 2.14513000E-07
					 1.37757000E-06	 9.64240000E-03	 2.70987000E-07
					 8.42120000E-05	 9.72780000E-03	-4.51790000E-04
					-1.00433000E-05	 7.44847000E-05	 9.99156000E-05
					-8.22525000E-06	 2.35732000E-04	 2.09449000E-04
					-2.06692000E-05	 2.28104000E-04	 2.08884000E-04
					-3.29880000E-05	 2.15071000E-04	 2.05326000E-04
					-3.17714000E-05	 4.93441000E-04	 3.03018000E-04
					-3.03338000E-05	 8.62540000E-04	 3.94770000E-04
					-4.28140000E-05	 8.44857000E-04	 3.93340000E-04
					-5.52762000E-05	 8.19727000E-04	 3.91692000E-04
					-5.36461000E-05	 1.28592000E-03	 4.74511000E-04
					-5.39176000E-05	 1.83257000E-03	 5.51431000E-04
					-6.46036000E-05	 1.80280000E-03	 5.49759000E-04
					-7.51733000E-05	 1.76787000E-03	 5.48079000E-04
					-7.54782000E-05	 2.39278000E-03	 6.17485000E-04
					-7.78542000E-05	 3.08717000E-03	 6.80061000E-04
					-8.65217000E-05	 3.04565000E-03	 6.78313000E-04
					-9.50321000E-05	 3.00046000E-03	 6.76706000E-04
					-9.73113000E-05	 3.75705000E-03	 7.31758000E-04
					-1.01342000E-04	 4.57078000E-03	 7.79960000E-04
					-1.08310000E-04	 4.51642000E-03	 7.78307000E-04
					-1.14835000E-04	 4.46152000E-03	 7.76674000E-04
					-1.19192000E-04	 5.32173000E-03	 8.17448000E-04
					-1.25692000E-04	 6.22585000E-03	 8.52096000E-04
					-1.30104000E-04	 6.15822000E-03	 8.49742000E-04
					-1.34813000E-04	 6.09358000E-03	 8.48117000E-04
					-1.41452000E-04	 7.02947000E-03	 8.74518000E-04
					-1.44007000E-04	 8.00267000E-03	 8.93207000E-04
					-1.49463000E-04	 7.90874000E-03	 8.92486000E-04
					-1.53869000E-04	 7.83869000E-03	 8.91125000E-04
					-1.65751000E-04	 8.82699000E-03	 9.03211000E-04
					-3.76399000E-10	 2.86360000E-05	 5.51931000E-11
					-2.29377000E-05	 1.84209000E-04	 1.04175000E-04
					 9.15505000E-10	 1.85436000E-04	 1.16706000E-09
					 2.29386000E-05	 1.84208000E-04	-1.04175000E-04
					-1.59880000E-09	 4.31806000E-04	-7.20428000E-10
					-3.38142000E-05	 7.81085000E-04	 1.96517000E-04
					 4.79041000E-09	 7.79326000E-04	 2.40453000E-09
					 3.38168000E-05	 7.81079000E-04	-1.96516000E-04
					-5.03906000E-09	 1.20793000E-03	-1.26197000E-09
					-4.28836000E-05	 1.71994000E-03	 2.75178000E-04
					 1.76209000E-08	 1.71793000E-03	 1.08482000E-08
					 4.28942000E-05	 1.71992000E-03	-2.75179000E-04
					-1.54666000E-08	 2.29765000E-03	-8.12723000E-09
					-5.17468000E-05	 2.94474000E-03	 3.39403000E-04
					 6.11359000E-08	 2.94265000E-03	 2.09138000E-08
					 5.17611000E-05	 2.94466000E-03	-3.39394000E-04
					-4.72025000E-08	 3.64446000E-03	-1.60072000E-08
					-6.05677000E-05	 4.39809000E-03	 3.89408000E-04
					 1.75205000E-07	 4.39616000E-03	 6.83409000E-08
					 6.06091000E-05	 4.39786000E-03	-3.89399000E-04
					-1.43520000E-07	 5.19124000E-03	-3.14013000E-08
					-6.96766000E-05	 6.02320000E-03	 4.25174000E-04
					 3.95172000E-07	 6.02119000E-03	 4.42613000E-08
					 6.94683000E-05	 6.02253000E-03	-4.25076000E-04
					-2.61831000E-07	 6.88075000E-03	-5.00443000E-08
					-7.88966000E-05	 7.76300000E-03	 4.46868000E-04
					 3.80154000E-07	 7.76050000E-03	 1.21117000E-08
					 7.81963000E-05	 7.76143000E-03	-4.46415000E-04
					-2.52201000E-07	 8.65701000E-03	-3.15870000E-08
					 1.00437000E-05	 7.44843000E-05	-9.99166000E-05
					 3.29858000E-05	 2.15071000E-04	-2.05326000E-04
					 2.06653000E-05	 2.28107000E-04	-2.08882000E-04
					 8.22745000E-06	 2.35731000E-04	-2.09449000E-04
					 3.17728000E-05	 4.93439000E-04	-3.03018000E-04
					 5.52688000E-05	 8.19728000E-04	-3.91691000E-04
					 4.28015000E-05	 8.44868000E-04	-3.93331000E-04
					 3.03368000E-05	 8.62539000E-04	-3.94767000E-04
					 5.36519000E-05	 1.28591000E-03	-4.74520000E-04
					 7.51532000E-05	 1.76787000E-03	-5.48074000E-04
					 6.45826000E-05	 1.80285000E-03	-5.49742000E-04
					 5.39577000E-05	 1.83255000E-03	-5.51432000E-04
					 7.54897000E-05	 2.39274000E-03	-6.17489000E-04
					 9.49676000E-05	 3.00047000E-03	-6.76693000E-04
					 8.64681000E-05	 3.04579000E-03	-6.78227000E-04
					 7.79051000E-05	 3.08717000E-03	-6.80026000E-04
					 9.73374000E-05	 3.75694000E-03	-7.31849000E-04
					 1.14690000E-04	 4.46157000E-03	-7.76586000E-04
					 1.08320000E-04	 4.51707000E-03	-7.78109000E-04
					 1.01918000E-04	 4.57051000E-03	-7.80058000E-04
					 1.19172000E-04	 5.32129000E-03	-8.17566000E-04
					 1.34436000E-04	 6.09394000E-03	-8.47956000E-04
					 1.30396000E-04	 6.16000000E-03	-8.49307000E-04
					 1.26279000E-04	 6.22555000E-03	-8.51779000E-04
					 1.40885000E-04	 7.02799000E-03	-8.74951000E-04
					 1.54033000E-04	 7.84085000E-03	-8.90752000E-04
					 1.51746000E-04	 7.91628000E-03	-8.92677000E-04
					 1.50003000E-04	 7.99417000E-03	-8.95158000E-04
					 1.62530000E-04	 8.82196000E-03	-9.01907000E-04
					 1.38208000E-10	 4.87290000E-05	-5.28771000E-10
					-2.29827000E-06	 2.25424000E-04	-1.00062000E-04
					-1.40564000E-09	 2.26734000E-04	 9.37471000E-10
					 2.29961000E-06	 2.25425000E-04	 1.00063000E-04
					 3.23772000E-10	 4.95379000E-04	-8.31905000E-10
					 8.93881000E-06	 8.66691000E-04	-1.93461000E-04
					-7.75493000E-09	 8.64831000E-04	 4.17763000E-09
					-8.93159000E-06	 8.66702000E-04	 1.93461000E-04
					 3.86195000E-09	 1.31531000E-03	-4.60453000E-09
					 2.16533000E-05	 1.84904000E-03	-2.71870000E-04
					-1.39472000E-08	 1.84686000E-03	 1.27461000E-08
					-2.16391000E-05	 1.84906000E-03	 2.71888000E-04
					 9.40926000E-09	 2.44879000E-03	-3.70544000E-09
					 3.46279000E-05	 3.11754000E-03	-3.36173000E-04
					-8.31535000E-08	 3.11497000E-03	 6.71180000E-08
					-3.45463000E-05	 3.11770000E-03	 3.36164000E-04
					 5.47824000E-08	 3.83958000E-03	-7.31995000E-08
					 4.77002000E-05	 4.61437000E-03	-3.86237000E-04
					-1.35534000E-07	 4.61138000E-03	 1.51892000E-07
					-4.75933000E-05	 4.61463000E-03	 3.86484000E-04
					 1.11696000E-07	 5.43060000E-03	 1.73862000E-09
					 6.06333000E-05	 6.28244000E-03	-4.21855000E-04
					-7.90692000E-07	 6.27770000E-03	 1.10186000E-06
					-5.96830000E-05	 6.28505000E-03	 4.21700000E-04
					 5.00450000E-07	 7.16582000E-03	-1.35478000E-06
					 7.43875000E-05	 8.06258000E-03	-4.43593000E-04
					-1.71955000E-07	 8.05651000E-03	 1.36666000E-06
					-7.42501000E-05	 8.06941000E-03	 4.47901000E-04
					 3.15255000E-08	 8.98745000E-03	-1.48260000E-06
					-9.90707000E-11	 5.33000000E-05	 3.41314000E-10
					-1.03400000E-05	 2.18903000E-04	 1.03319000E-04
					-9.48677000E-10	 2.28060000E-04	-6.31515000E-10
					-3.13184000E-10	 2.19783000E-04	-1.39085000E-09
					 3.05244000E-10	 2.07401000E-04	-1.92672000E-10
					 1.03375000E-05	 2.18905000E-04	-1.03319000E-04
					-7.27261000E-10	 4.77477000E-04	 4.79804000E-10
					-2.14045000E-05	 8.36879000E-04	 1.95691000E-04
					-4.51615000E-09	 8.52659000E-04	 1.47105000E-09
					-1.98586000E-09	 8.34652000E-04	-4.21747000E-09
					 1.45384000E-09	 8.09910000E-04	-4.73900000E-10
					 2.13973000E-05	 8.36882000E-04	-1.95693000E-04
					 3.36152000E-10	 1.27344000E-03	 4.33691000E-09
					-3.23056000E-05	 1.79521000E-03	 2.73987000E-04
					-9.95435000E-09	 1.82277000E-03	-5.69923000E-09
					-2.91129000E-09	 1.79317000E-03	-1.51056000E-08
					 7.14022000E-09	 1.75831000E-03	-3.15719000E-09
					 3.22900000E-05	 1.79524000E-03	-2.73988000E-04
					-6.94008000E-10	 2.38274000E-03	 5.18989000E-09
					-4.32686000E-05	 3.03967000E-03	 3.38206000E-04
					-4.81589000E-08	 3.07860000E-03	 2.28891000E-08
					-2.56230000E-08	 3.03791000E-03	-4.96367000E-08
					 1.85322000E-08	 2.99241000E-03	-1.02486000E-08
					 4.32219000E-05	 3.03972000E-03	-3.38222000E-04