<?xml version="1.0"?>
<VTKFile type="UnstructuredGrid" version="0.1" byte_order="LittleEndian">
	<UnstructuredGrid>
		<Piece NumberOfPoints="261" NumberOfCells="32">
			<Points>
				<DataArray type="Float64" NumberOfComponents="3" format="ascii">
					 0.00000000E+00	 0.00000000E+00	 0.00000000E+00
					 1.00000000E+00	 0.00000000E+00	 0.00000000E+00
					 1.00000000E+00	 1.00000000E+00	 0.00000000E+00
					 0.00000000E+00	 1.00000000E+00	 0.00000000E+00
					 0.00000000E+00	 0.00000000E+00	 8.00000000E+00
					 1.00000000E+00	 0.00000000E+00	 8.00000000E+00
					 1.00000000E+00	 1.00000000E+00	 8.00000000E+00
					 0.00000000E+00	 1.00000000E+00	 8.00000000E+00
					 2.50000000E-01	 0.00000000E+00	 0.00000000E+00
					 5.00000000E-01	 0.00000000E+00	 0.00000000E+00
					 7.50000000E-01	 0.00000000E+00	 0.00000000E+00
					 1.00000000E+00	 2.50000000E-01	 0.00000000E+00
					 1.00000000E+00	 5.00000000E-01	 0.00000000E+00
					 1.00000000E+00	 7.50000000E-01	 0.00000000E+00
					 7.50000000E-01	 1.00000000E+00	 0.00000000E+00
					 5.00000000E-01	 1.00000000E+00	 0.00000000E+00
					 2.50000000E-01	 1.00000000E+00	 0.00000000E+00
					 0.00000000E+00	 7.50000000E-01	 0.00000000E+00
					 0.00000000E+00	 5.00000000E-01	 0.00000000E+00
					 0.00000000E+00	 2.50000000E-01	 0.00000000E+00
					 2.50000000E-01	 0.00000000E+00	 8.00000000E+00
					 5.00000000E-01	 0.00000000E+00	 8.00000000E+00
					 7.50000000E-01	 0.00000000E+00	 8.00000000E+00
					 1.00000000E+00	 2.50000000E-01	 8.00000000E+00
					 1.00000000E+00	 5.00000000E-01	 8.00000000E+00
					 1.00000000E+00	 7.50000000E-01	 8.00000000E+00
					 7.50000000E-01	 1.00000000E+00	 8.00000000E+00
					 5.00000000E-01	 1.00000000E+00	 8.00000000E+00
					 2.50000000E-01	 1.00000000E+00	 8.00000000E+00
					 0.00000000E+00	 7.50000000E-01	 8.00000000E+00
					 0.00000000E+00	 5.00000000E-01	 8.00000000E+00
					 0.00000000E+00	 2.50000000E-01	 8.00000000E+00
					 1.00000000E+00	 0.00000000E+00	 5.00000000E-01
					 1.00000000E+00	 0.00000000E+00	 1.00000000E+00
					 1.00000000E+00	 0.00000000E+00	 1.50000000E+00
					 1.00000000E+00	 0.00000000E+00	 2.00000000E+00
					 1.00000000E+00	 0.00000000E+00	 2.50000000E+00
					 1.00000000E+00	 0.00000000E+00	 3.00000000E+00
					 1.00000000E+00	 0.00000000E+00	 3.50000000E+00
					 1.00000000E+00	 0.00000000E+00	 4.00000000E+00
					 1.00000000E+00	 0.00000000E+00	 4.50000000E+00
					 1.00000000E+00	 0.00000000E+00	 5.00000000E+00
					 1.00000000E+00	 0.00000000E+00	 5.50000000E+00
					 1.00000000E+00	 0.00000000E+00	 6.00000000E+00
					 1.00000000E+00	 0.00000000E+00	 6.50000000E+00
					 1.00000000E+00	 0.00000000E+00	 7.00000000E+00
					 1.00000000E+00	 0.00000000E+00	 7.50000000E+00
					 0.00000000E+00	 0.00000000E+00	 7.50000000E+00
					 0.00000000E+00	 0.00000000E+00	 7.00000000E+00
					 0.00000000E+00	 0.00000000E+00	 6.50000000E+00
					 0.00000000E+00	 0.00000000E+00	 6.00000000E+00
					 0.00000000E+00	 0.00000000E+00	 5.50000000E+00
					 0.00000000E+00	 0.00000000E+00	 5.00000000E+00
					 0.00000000E+00	 0.00000000E+00	 4.50000000E+00
					 0.00000000E+00	 0.00000000E+00	 4.00000000E+00
					 0.00000000E+00	 0.00000000E+00	 3.50000000E+00
					 0.00000000E+00	 0.00000000E+00	 3.00000000E+00
					 0.00000000E+00	 0.00000000E+00	 2.50000000E+00
					 0.00000000E+00	 0.00000000E+00	 2.00000000E+00
					 0.00000000E+00	 0.00000000E+00	 1.50000000E+00
					 0.00000000E+00	 0.00000000E+00	 1.00000000E+00
					 0.00000000E+00	 0.00000000E+00	 5.00000000E-01
					 1.00000000E+00	 1.00000000E+00	 5.00000000E-01
					 1.00000000E+00	 1.00000000E+00	 1.00000000E+00
					 1.00000000E+00	 1.00000000E+00	 1.50000000E+00
					 1.00000000E+00	 1.00000000E+00	 2.00000000E+00
					 1.00000000E+00	 1.00000000E+00	 2.50000000E+00
					 1.00000000E+00	 1.00000000E+00	 3.00000000E+00
					 1.00000000E+00	 1.00000000E+00	 3.50000000E+00
					 1.00000000E+00	 1.00000000E+00	 4.00000000E+00
					 1.00000000E+00	 1.00000000E+00	 4.50000000E+00
					 1.00000000E+00	 1.00000000E+00	 5.00000000E+00
					 1.00000000E+00	 1.00000000E+00	 5.50000000E+00
					 1.00000000E+00	 1.00000000E+00	 6.00000000E+00
					 1.00000000E+00	 1.00000000E+00	 6.50000000E+00
					 1.00000000E+00	 1.00000000E+00	 7.00000000E+00
					 1.00000000E+00	 1.00000000E+00	 7.50000000E+00
					 0.00000000E+00	 1.00000000E+00	 5.00000000E-01
					 0.00000000E+00	 1.00000000E+00	 1.00000000E+00
					 0.00000000E+00	 1.00000000E+00	 1.50000000E+00
					 0.00000000E+00	 1.00000000E+00	 2.00000000E+00
					 0.00000000E+00	 1.00000000E+00	 2.50000000E+00
					 0.00000000E+00	 1.00000000E+00	 3.00000000E+00
					 0.00000000E+00	 1.00000000E+00	 3.50000000E+00
					 0.00000000E+00	 1.00000000E+00	 4.00000000E+00
					 0.00000000E+00	 1.00000000E+00	 4.50000000E+00
					 0.00000000E+00	 1.00000000E+00	 5.00000000E+00
					 0.00000000E+00	 1.00000000E+00	 5.50000000E+00
					 0.00000000E+00	 1.00000000E+00	 6.00000000E+00
					 0.00000000E+00	 1.00000000E+00	 6.50000000E+00
					 0.00000000E+00	 1.00000000E+00	 7.00000000E+00
					 0.00000000E+00	 1.00000000E+00	 7.50000000E+00
					 5.00000000E-01	 2.50000000E-01	 0.00000000E+00
					 2.50000000E-01	 5.00000000E-01	 0.00000000E+00
					 5.00000000E-01	 5.00000000E-01	 0.00000000E+00
					 7.50000000E-01	 5.00000000E-01	 0.00000000E+00
					 5.00000000E-01	 7.50000000E-01	 0.00000000E+00
					 5.00000000E-01	 2.50000000E-01	 8.00000000E+00
					 2.50000000E-01	 5.00000000E-01	 8.00000000E+00
					 5.00000000E-01	 5.00000000E-01	 8.00000000E+00
					 7.50000000E-01	 5.00000000E-01	 8.00000000E+00
					 5.00000000E-01	 7.50000000E-01	 8.00000000E+00
					 5.00000000E-01	 0.00000000E+00	 5.00000000E-01
					 2.50000000E-01	 0.00000000E+00	 1.00000000E+00
					 5.00000000E-01	 0.00000000E+00	 1.00000000E+00
					 7.50000000E-01	 0.00000000E+00	 1.00000000E+00
					 5.00000000E-01	 0.00000000E+00	 1.50000000E+00
					 2.50000000E-01	 0.00000000E+00	 2.00000000E+00
					 5.00000000E-01	 0.00000000E+00	 2.00000000E+00
					 7.50000000E-01	 0.00000000E+00	 2.00000000E+00
					 5.00000000E-01	 0.00000000E+00	 2.50000000E+00
					 2.50000000E-01	 0.00000000E+00	 3.00000000E+00
					 5.00000000E-01	 0.00000000E+00	 3.00000000E+00
					 7.50000000E-01	 0.00000000E+00	 3.00000000E+00
					 5.00000000E-01	 0.00000000E+00	 3.50000000E+00
					 2.50000000E-01	 0.00000000E+00	 4.00000000E+00
					 5.00000000E-01	 0.00000000E+00	 4.00000000E+00
					 7.50000000E-01	 0.00000000E+00	 4.00000000E+00
					 5.00000000E-01	 0.00000000E+00	 4.50000000E+00
					 2.50000000E-01	 0.00000000E+00	 5.00000000E+00
					 5.00000000E-01	 0.00000000E+00	 5.00000000E+00
					 7.50000000E-01	 0.00000000E+00	 5.00000000E+00
					 5.00000000E-01	 0.00000000E+00	 5.50000000E+00
					 2.50000000E-01	 0.00000000E+00	 6.00000000E+00
					 5.00000000E-01	 0.00000000E+00	 6.00000000E+00
					 7.50000000E-01	 0.00000000E+00	 6.00000000E+00
					 5.00000000E-01	 0.00000000E+00	 6.50000000E+00
					 2.50000000E-01	 0.00000000E+00	 7.00000000E+00
					 5.00000000E-01	 0.00000000E+00	 7.00000000E+00
					 7.50000000E-01	 0.00000000E+00	 7.00000000E+00
					 5.00000000E-01	 0.00000000E+00	 7.50000000E+00
					 1.00000000E+00	 5.00000000E-01	 5.00000000E-01
					 1.00000000E+00	 2.50000000E-01	 1.00000000E+00
					 1.00000000E+00	 5.00000000E-01	 1.00000000E+00
					 1.00000000E+00	 7.50000000E-01	 1.00000000E+00
					 1.00000000E+00	 5.00000000E-01	 1.50000000E+00
					 1.00000000E+00	 2.50000000E-01	 2.00000000E+00
					 1.00000000E+00	 5.00000000E-01	 2.00000000E+00
					 1.00000000E+00	 7.50000000E-01	 2.00000000E+00
					 1.00000000E+00	 5.00000000E-01	 2.50000000E+00
					 1.00000000E+00	 2.50000000E-01	 3.00000000E+00
					 1.00000000E+00	 5.00000000E-01	 3.00000000E+00
					 1.00000000E+00	 7.50000000E-01	 3.00000000E+00
					 1.00000000E+00	 5.00000000E-01	 3.50000000E+00
					 1.00000000E+00	 2.50000000E-01	 4.00000000E+00
					 1.00000000E+00	 5.00000000E-01	 4.00000000E+00
					 1.00000000E+00	 7.50000000E-01	 4.00000000E+00
					 1.00000000E+00	 5.00000000E-01	 4.50000000E+00
					 1.00000000E+00	 2.50000000E-01	 5.00000000E+00
					 1.00000000E+00	 5.00000000E-01	 5.00000000E+00
					 1.00000000E+00	 7.50000000E-01	 5.00000000E+00
					 1.00000000E+00	 5.00000000E-01	 5.50000000E+00
					 1.00000000E+00	 2.50000000E-01	 6.00000000E+00
					 1.00000000E+00	 5.00000000E-01	 6.00000000E+00
					 1.00000000E+00	 7.50000000E-01	 6.00000000E+00
					 1.00000000E+00	 5.00000000E-01	 6.50000000E+00
					 1.00000000E+00	 2.50000000E-01	 7.00000000E+00
					 1.00000000E+00	 5.00000000E-01	 7.00000000E+00
					 1.00000000E+00	 7.50000000E-01	 7.00000000E+00
					 1.00000000E+00	 5.00000000E-01	 7.50000000E+00
					 5.00000000E-01	 1.00000000E+00	 5.00000000E-01
					 7.50000000E-01	 1.00000000E+00	 1.00000000E+00
					 5.00000000E-01	 1.00000000E+00	 1.00000000E+00
					 2.50000000E-01	 1.00000000E+00	 1.00000000E+00
					 5.00000000E-01	 1.00000000E+00	 1.50000000E+00
					 7.50000000E-01	 1.00000000E+00	 2.00000000E+00
					 5.00000000E-01	 1.00000000E+00	 2.00000000E+00
					 2.50000000E-01	 1.00000000E+00	 2.00000000E+00
					 5.00000000E-01	 1.00000000E+00	 2.50000000E+00
					 7.50000000E-01	 1.00000000E+00	 3.00000000E+00
					 5.00000000E-01	 1.00000000E+00	 3.00000000E+00
					 2.50000000E-01	 1.00000000E+00	 3.00000000E+00
					 5.00000000E-01	 1.00000000E+00	 3.50000000E+00
					 7.50000000E-01	 1.00000000E+00	 4.00000000E+00
					 5.00000000E-01	 1.00000000E+00	 4.00000000E+00
					 2.50000000E-01	 1.00000000E+00	 4.00000000E+00
					 5.00000000E-01	 1.00000000E+00	 4.50000000E+00
					 7.50000000E-01	 1.00000000E+00	 5.00000000E+00
					 5.00000000E-01	 1.00000000E+00	 5.00000000E+00
					 2.50000000E-01	 1.00000000E+00	 5.00000000E+00
					 5.00000000E-01	 1.00000000E+00	 5.50000000E+00
					 7.50000000E-01	 1.00000000E+00	 6.00000000E+00
					 5.00000000E-01	 1.00000000E+00	 6.00000000E+00
					 2.50000000E-01	 1.00000000E+00	 6.00000000E+00
					 5.00000000E-01	 1.00000000E+00	 6.50000000E+00
					 7.50000000E-01	 1.00000000E+00	 7.00000000E+00
					 5.00000000E-01	 1.00000000E+00	 7.00000000E+00
					 2.50000000E-01	 1.00000000E+00	 7.00000000E+00
					 5.00000000E-01	 1.00000000E+00	 7.50000000E+00
					 0.00000000E+00	 5.00000000E-01	 5.00000000E-01
					 0.00000000E+00	 7.50000000E-01	 1.00000000E+00
					 0.00000000E+00	 5.00000000E-01	 1.00000000E+00
					 0.00000000E+00	 2.50000000E-01	 1.00000000E+00
					 0.00000000E+00	 5.00000000E-01	 1.50000000E+00
					 0.00000000E+00	 7.50000000E-01	 2.00000000E+00
					 0.00000000E+00	 5.00000000E-01	 2.00000000E+00
					 0.00000000E+00	 2.50000000E-01	 2.00000000E+00
					 0.00000000E+00	 5.00000000E-01	 2.50000000E+00
					 0.00000000E+00	 7.50000000E-01	 3.00000000E+00
					 0.00000000E+00	 5.00000000E-01	 3.00000000E+00
					 0.00000000E+00	 2.50000000E-01	 3.00000000E+00
					 0.00000000E+00	 5.00000000E-01	 3.50000000E+00
					 0.00000000E+00	 7.50000000E-01	 4.00000000E+00
					 0.00000000E+00	 5.00000000E-01	 4.00000000E+00
					 0.00000000E+00	 2.50000000E-01	 4.00000000E+00
					 0.00000000E+00	 5.00000000E-01	 4.50000000E+00
					 0.00000000E+00	 7.50000000E-01	 5.00000000E+00
					 0.00000000E+00	 5.00000000E-01	 5.00000000E+00
					 0.00000000E+00	 2.50000000E-01	 5.00000000E+00
					 0.00000000E+00	 5.00000000E-01	 5.50000000E+00
					 0.00000000E+00	 7.50000000E-01	 6.00000000E+00
					 0.00000000E+00	 5.00000000E-01	 6.00000000E+00
					 0.00000000E+00	 2.50000000E-01	 6.00000000E+00
					 0.00000000E+00	 5.00000000E-01	 6.50000000E+00
					 0.00000000E+00	 7.50000000E-01	 7.00000000E+00
					 0.00000000E+00	 5.00000000E-01	 7.00000000E+00
					 0.00000000E+00	 2.50000000E-01	 7.00000000E+00
					 0.00000000E+00	 5.00000000E-01	 7.50000000E+00
					 5.00000000E-01	 5.00000000E-01	 5.00000000E-01
					 5.00000000E-01	 2.50000000E-01	 1.00000000E+00
					 2.50000000E-01	 5.00000000E-01	 1.00000000E+00
					 5.00000000E-01	 5.00000000E-01	 1.00000000E+00
					 7.50000000E-01	 5.00000000E-01	 1.00000000E+00
					 5.00000000E-01	 7.50000000E-01	 1.00000000E+00
					 5.00000000E-01	 5.00000000E-01	 1.50000000E+00
					 5.00000000E-01	 2.50000000E-01	 2.00000000E+00
					 2.50000000E-01	 5.00000000E-01	 2.00000000E+00
					 5.00000000E-01	 5.00000000E-01	 2.00000000E+00
					 7.50000000E-01	 5.00000000E-01	 2.00000000E+00
					 5.00000000E-01	 7.50000000E-01	 2.00000000E+00
					 5.00000000E-01	 5.00000000E-01	 2.50000000E+00
					 5.00000000E-01	 2.50000000E-01	 3.00000000E+00
					 2.50000000E-01	 5.00000000E-01	 3.00000000E+00
					 5.00000000E-01	 5.00000000E-01	 3.00000000E+00
					 7.50000000E-01	 5.00000000E-01	 3.00000000E+00
					 5.00000000E-01	 7.50000000E-01	 3.00000000E+00
					 5.00000000E-01	 5.00000000E-01	 3.50000000E+00
					 5.00000000E-01	 2.50000000E-01	 4.00000000E+00
					 2.50000000E-01	 5.00000000E-01	 4.00000000E+00
					 5.00000000E-01	 5.00000000E-01	 4.00000000E+00
					 7.50000000E-01	 5.00000000E-01	 4.00000000E+00
					 5.00000000E-01	 7.50000000E-01	 4.00000000E+00
					 5.00000000E-01	 5.00000000E-01	 4.50000000E+00
					 5.00000000E-01	 2.50000000E-01	 5.00000000E+00
					 2.50000000E-01	 5.00000000E-01	 5.00000000E+00
					 5.00000000E-01	 5.00000000E-01	 5.00000000E+00
					 7.50000000E-01	 5.00000000E-01	 5.00000000E+00
					 5.00000000E-01	 7.50000000E-01	 5.00000000E+00
					 5.00000000E-01	 5.00000000E-01	 5.50000000E+00
					 5.00000000E-01	 2.50000000E-01	 6.00000000E+00
					 2.50000000E-01	 5.00000000E-01	 6.00000000E+00
					 5.00000000E-01	 5.00000000E-01	 6.00000000E+00
					 7.50000000E-01	 5.00000000E-01	 6.00000000E+00
					 5.00000000E-01	 7.50000000E-01	 6.00000000E+00
					 5.00000000E-01	 5.00000000E-01	 6.50000000E+00
					 5.00000000E-01	 2.50000000E-01	 7.00000000E+00
					 2.50000000E-01	 5.00000000E-01	 7.00000000E+00
					 5.00000000E-01	 5.00000000E-01	 7.00000000E+00
					 7.50000000E-01	 5.00000000E-01	 7.00000000E+00
					 5.00000000E-01	 7.50000000E-01	 7.00000000E+00
					 5.00000000E-01	 5.00000000E-01	 7.50000000E+00
				</DataArray>
			</Points>
			<Cells>
				<DataArray type="Int32" Name="connectivity" format="ascii">
					0 9 94 18 60 104 221 191 8 92 93 19 103 219 220 192 61 102 218 189 9 1 12 94 104 33 133 221 10 11 95 92 105 132 222 219 102 32 131 218 18 94 15 3 191 221 162 78 93 96 16 17 220 223 163 190 189 218 160 77 94 12 2 15 221 133 63 162 95 13 14 96 222 134 161 223 218 131 62 160 60 104 221 191 58 108 227 195 103 219 220 192 107 225 226 196 59 106 224 193 104 33 133 221 108 35 137 227 105 132 222 219 109 136 228 225 106 34 135 224 191 221 162 78 195 227 166 80 220 223 163 190 226 229 167 194 193 224 164 79 221 133 63 162 227 137 65 166 222 134 161 223 228 138 165 229 224 135 64 164 58 108 227 195 56 112 233 199 107 225 226 196 111 231 232 200 57 110 230 197 108 35 137 227 112 37 141 233 109 136 228 225 113 140 234 231 110 36 139 230 195 227 166 80 199 233 170 82 226 229 167 194 232 235 171 198 197 230 168 81 227 137 65 166 233 141 67 170 228 138 165 229 234 142 169 235 230 139 66 168 56 112 233 199 54 116 239 203 111 231 232 200 115 237 238 204 55 114 236 201 112 37 141 233 116 39 145 239 113 140 234 231 117 144 240 237 114 38 143 236 199 233 170 82 203 239 174 84 232 235 171 198 238 241 175 202 201 236 172 83 233 141 67 170 239 145 69 174 234 142 169 235 240 146 173 241 236 143 68 172 54 116 239 203 52 120 245 207 115 237 238 204 119 243 244 208 53 118 242 205 116 39 145 239 120 41 149 245 117 144 240 237 121 148 246 243 118 40 147 242 203 239 174 84 207 245 178 86 238 241 175 202 244 247 179 206 205 242 176 85 239 145 69 174 245 149 71 178 240 146 173 241 246 150 177 247 242 147 70 176 52 120 245 207 50 124 251 211 119 243 244 208 123 249 250 212 51 122 248 209 120 41 149 245 124 43 153 251 121 148 246 243 125 152 252 249 122 42 151 248 207 245 178 86 211 251 182 88 244 247 179 206 250 253 183 210 209 248 180 87 245 149 71 178 251 153 73 182 246 150 177 247 252 154 181 253 248 151 72 180 50 124 251 211 48 128 257 215 123 249 250 212 127 255 256 216 49 126 254 213 124 43 153 251 128 45 157 257 125 152 252 249 129 156 258 255 126 44 155 254 211 251 182 88 215 257 186 90 250 253 183 210 256 259 187 214 213 254 184 89 251 153 73 182 257 157 75 186 252 154 181 253 258 158 185 259 254 155 74 184 48 128 257 215 4 21 99 30 127 255 256 216 20 97 98 31 47 130 260 217 128 45 157 257 21 5 24 99 129 156 258 255 22 23 100 97 130 46 159 260 215 257 186 90 30 99 27 7 256 259 187 214 98 101 28 29 217 260 188 91 257 157 75 186 99 24 6 27 258 158 185 259 100 25 26 101 260 159 76 188 
				</DataArray>
				<DataArray type="Int32" Name="offsets" format="ascii">
					20 40 60 80 100 120 140 160 180 200 220 240 260 280 300 320 340 360 380 400 420 440 460 480 500 520 540 560 580 600 620 640 
				</DataArray>
				<DataArray type="UInt8" Name="types" format="ascii">
					25 25 25 25 25 25 25 25 25 25 25 25 25 25 25 25 25 25 25 25 25 25 25 25 25 25 25 25 25 25 25 25 
				</DataArray>
			</Cells>
			<PointData>
				<DataArray type="Float32" Name="DOR1" NumberOfComponents="3" ComponentName0="dD1dRx" ComponentName1="dD2dRx" ComponentName2="dD3dRx" format="ascii">
					 0.00000000E+00	 0.00000000E+00	 0.00000000E+00
					 0.00000000E+00	 0.00000000E+00	 0.00000000E+00
					 0.00000000E+00	 0.00000000E+00	 0.00000000E+00
					 0.00000000E+00	 0.00000000E+00	 0.00000000E+00
					-3.90908000E-04	-1.96151000E-05	-8.65667000E-05
					-3.88414000E-04	-1.16960000E-05	 1.12346000E-05
					-3.88125000E-04	-1.22548000E-05	 1.36848000E-05
					-3.87803000E-04	-1.21468000E-05	-7.94967000E-05
					 0.00000000E+00	 0.00000000E+00	 0.00000000E+00
					 0.00000000E+00	 0.00000000E+00	 0.00000000E+00
					 0.00000000E+00	 0.00000000E+00	 0.00000000E+00
					 0.00000000E+00	 0.00000000E+00	 0.00000000E+00
					 0.00000000E+00	 0.00000000E+00	 0.00000000E+00
					 0.00000000E+00	 0.00000000E+00	 0.00000000E+00
					 0.00000000E+00	 0.00000000E+00	 0.00000000E+00
					 0.00000000E+00	 0.00000000E+00	 0.00000000E+00
					 0.00000000E+00	 0.00000000E+00	 0.00000000E+00
					 0.00000000E+00	 0.00000000E+00	 0.00000000E+00
					 0.00000000E+00	 0.00000000E+00	 0.00000000E+00
					 0.00000000E+00	 0.00000000E+00	 0.00000000E+00
					-3.88267000E-04	-1.33299000E-05	-5.81177000E-05
					-3.86734000E-04	-7.99808000E-06	-3.20265000E-05
					-3.87735000E-04	-9.67200000E-06	-1.09641000E-05
					-3.88102000E-04	-1.11712000E-05	 1.14107000E-05
					-3.88126000E-04	-1.10978000E-05	 1.15591000E-05
					-3.88252000E-04	-1.18059000E-05	 1.26619000E-05
					-3.87959000E-04	-1.22492000E-05	-9.85681000E-06
					-3.87841000E-04	-1.24236000E-05	-3.30519000E-05
					-3.87851000E-04	-1.23130000E-05	-5.64351000E-05
					-3.89155000E-04	-1.18508000E-05	-8.28137000E-05
					-3.90547000E-04	-1.19094000E-05	-8.63991000E-05
					-3.91713000E-04	-1.53945000E-05	-9.09717000E-05
					-4.60684000E-06	-7.15837000E-06	 2.43018000E-05
					-2.94868000E-06	 1.04996000E-06	 2.94309000E-05
					-1.20507000E-05	 9.40229000E-07	 2.66499000E-05
					-2.23065000E-05	-5.05900000E-07	 2.48008000E-05
					-3.63356000E-05	-1.03911000E-06	 2.34123000E-05
					-5.28338000E-05	-1.88999000E-06	 2.30727000E-05
					-7.25937000E-05	-2.24792000E-06	 2.16621000E-05
					-9.52814000E-05	-3.28588000E-06	 2.04729000E-05
					-1.21369000E-04	-4.06714000E-06	 1.93936000E-05
					-1.49945000E-04	-5.18311000E-06	 1.81348000E-05
					-1.82445000E-04	-6.00548000E-06	 1.74946000E-05
					-2.17101000E-04	-7.56828000E-06	 1.58386000E-05
					-2.55590000E-04	-7.85184000E-06	 1.51540000E-05
					-2.96497000E-04	-1.01513000E-05	 1.32597000E-05
					-3.41310000E-04	-1.02590000E-05	 1.31483000E-05
					-3.40739000E-04	-1.08663000E-05	-7.21967000E-05
					-2.99442000E-04	-1.40564000E-05	-7.81012000E-05
					-2.56868000E-04	-9.40268000E-06	-6.22372000E-05
					-2.19260000E-04	-1.02257000E-05	-5.88277000E-05
					-1.83524000E-04	-8.09519000E-06	-4.96638000E-05
					-1.51788000E-04	-7.52618000E-06	-4.31656000E-05
					-1.22726000E-04	-6.16715000E-06	-3.53025000E-05
					-9.68599000E-05	-5.49703000E-06	-2.82924000E-05
					-7.41019000E-05	-4.40624000E-06	-2.08532000E-05
					-5.42703000E-05	-4.08692000E-06	-1.33020000E-05
					-3.76330000E-05	-3.22290000E-06	-6.84074000E-06
					-2.43377000E-05	-2.66084000E-06	 6.97226000E-07
					-1.37761000E-05	-1.26821000E-06	 8.87390000E-06
					-7.79933000E-06	-9.97531000E-07	 1.76696000E-05
					 2.01691000E-06	-9.35821000E-06	 1.82672000E-05
					-4.64193000E-06	 7.01025000E-06	 2.45191000E-05
					-2.96851000E-06	-1.53415000E-06	 2.99224000E-05
					-1.20609000E-05	-2.06706000E-06	 2.73974000E-05
					-2.23245000E-05	-1.46183000E-06	 2.57831000E-05
					-3.63196000E-05	-2.04907000E-06	 2.46089000E-05
					-5.28653000E-05	-2.45785000E-06	 2.44763000E-05
					-7.25368000E-05	-3.62146000E-06	 2.32125000E-05
					-9.53551000E-05	-4.21082000E-06	 2.22410000E-05
					-1.21244000E-04	-5.23356000E-06	 2.12462000E-05
					-1.50187000E-04	-6.10127000E-06	 2.03446000E-05
					-1.82172000E-04	-7.21871000E-06	 1.93246000E-05
					-2.17256000E-04	-8.15266000E-06	 1.83611000E-05
					-2.55552000E-04	-9.46990000E-06	 1.73219000E-05
					-2.96564000E-04	-1.03000000E-05	 1.58968000E-05
					-3.40731000E-04	-1.09620000E-05	 1.45254000E-05
					 2.06568000E-06	 9.21958000E-06	 1.84962000E-05
					-7.76469000E-06	 5.51281000E-07	 1.81629000E-05
					-1.37208000E-05	 1.68223000E-07	 9.63559000E-06
					-2.42901000E-05	 7.89068000E-07	 1.67219000E-06
					-3.75648000E-05	 1.71650000E-07	-5.62670000E-06
					-5.42195000E-05	-7.40949000E-08	-1.19246000E-05
					-7.40362000E-05	-1.46222000E-06	-1.92542000E-05
					-9.67572000E-05	-1.58759000E-06	-2.66111000E-05
					-1.22648000E-04	-3.20212000E-06	-3.34093000E-05
					-1.51590000E-04	-3.06737000E-06	-4.09956000E-05
					-1.83662000E-04	-5.52260000E-06	-4.75779000E-05
					-2.18555000E-04	-4.54365000E-06	-5.58341000E-05
					-2.56975000E-04	-7.82408000E-06	-6.12013000E-05
					-2.97975000E-04	-8.22281000E-06	-6.93796000E-05
					-3.42212000E-04	-7.96313000E-06	-7.69412000E-05
					 0.00000000E+00	 0.00000000E+00	 0.00000000E+00
					 0.00000000E+00	 0.00000000E+00	 0.00000000E+00
					 0.00000000E+00	 0.00000000E+00	 0.00000000E+00
					 0.00000000E+00	 0.00000000E+00	 0.00000000E+00
					 0.00000000E+00	 0.00000000E+00	 0.00000000E+00
					-3.88388000E-04	-9.92329000E-06	-3.40571000E-05
					-3.89955000E-04	-1.19249000E-05	-6.15181000E-05
					-3.89638000E-04	-1.14974000E-05	-3.68100000E-05
					-3.88827000E-04	-1.13690000E-05	-1.22538000E-05
					-3.88790000E-04	-1.19217000E-05	-3.53291000E-05
					-8.27482000E-07	-5.98342000E-06	 2.08832000E-05
					-6.40166000E-06	-1.31429000E-06	 2.14823000E-05
					-5.25687000E-06	-1.80000000E-06	 2.47312000E-05
					-4.03055000E-06	-2.39947000E-07	 2.74092000E-05
					-1.25135000E-05	-2.98194000E-07	 1.75371000E-05
					-2.36393000E-05	-2.66621000E-06	 6.69260000E-06
					-2.31272000E-05	-2.26123000E-06	 1.29266000E-05
					-2.26537000E-05	-1.60995000E-06	 1.87225000E-05
					-3.66119000E-05	-2.18582000E-06	 8.26396000E-06
					-5.36977000E-05	-3.81108000E-06	-4.14270000E-06
					-5.33387000E-05	-3.36247000E-06	 4.95413000E-06
					-5.30270000E-05	-2.70470000E-06	 1.40620000E-05
					-7.29634000E-05	-3.54469000E-06	 3.84565000E-07
					-9.62844000E-05	-5.17842000E-06	-1.60275000E-05
					-9.59140000E-05	-4.59892000E-06	-3.78104000E-06
					-9.55403000E-05	-4.07117000E-06	 8.31753000E-06
					-1.21609000E-04	-5.38861000E-06	-8.06869000E-06
					-1.51178000E-04	-7.04660000E-06	-2.76043000E-05
					-1.50791000E-04	-6.34888000E-06	-1.19139000E-05
					-1.50309000E-04	-5.87923000E-06	 3.15347000E-06
					-1.82537000E-04	-7.40485000E-06	-1.65077000E-05
					-2.18604000E-04	-9.28486000E-06	-3.90839000E-05
					-2.18184000E-04	-8.13123000E-06	-1.97344000E-05
					-2.17591000E-04	-7.95033000E-06	-2.06266000E-06
					-2.55652000E-04	-9.80523000E-06	-2.51040000E-05
					-2.98229000E-04	-1.19333000E-05	-5.30840000E-05
					-2.96983000E-04	-9.40416000E-06	-2.71190000E-05
					-2.96642000E-04	-9.96687000E-06	-6.69093000E-06
					-3.41928000E-04	-1.25232000E-05	-3.35588000E-05
					 6.86051000E-07	-2.82799000E-08	-1.59847000E-05
					-5.78973000E-06	-1.42669000E-07	-7.02183000E-06
					-8.47802000E-06	-2.19375000E-07	-1.44091000E-05
					-5.80021000E-06	-2.94750000E-07	-6.77555000E-06
					-1.29171000E-05	-5.20967000E-07	-1.26159000E-05
					-2.34460000E-05	-3.73990000E-07	-1.90995000E-06
					-2.40376000E-05	-9.73494000E-07	-1.23542000E-05
					-2.34548000E-05	-1.56854000E-06	-1.41934000E-06
					-3.72471000E-05	-1.50087000E-06	-9.42196000E-06
					-5.35940000E-05	-1.93936000E-06	-1.15344000E-07
					-5.39835000E-05	-2.18618000E-06	-7.31600000E-06
					-5.36100000E-05	-2.40790000E-06	 5.85980000E-07
					-7.36796000E-05	-2.88523000E-06	-5.23952000E-06
					-9.60866000E-05	-3.35290000E-06	 2.51462000E-06
					-9.64607000E-05	-3.78112000E-06	-3.30344000E-06
					-9.61246000E-05	-4.16326000E-06	 3.40092000E-06
					-1.22290000E-04	-4.59936000E-06	-1.20107000E-06
					-1.50848000E-04	-5.28396000E-06	 4.89869000E-06
					-1.51330000E-04	-5.67214000E-06	 9.12893000E-07
					-1.50966000E-04	-6.02911000E-06	 5.99587000E-06
					-1.83279000E-04	-6.59016000E-06	 2.88289000E-06
					-2.17953000E-04	-7.45298000E-06	 7.29035000E-06
					-2.18432000E-04	-7.69963000E-06	 4.98778000E-06
					-2.18055000E-04	-8.08619000E-06	 8.58359000E-06
					-2.56547000E-04	-8.80942000E-06	 7.00517000E-06
					-2.97321000E-04	-9.94066000E-06	 9.91810000E-06
					-2.97544000E-04	-9.93420000E-06	 9.25564000E-06
					-2.97245000E-04	-1.02627000E-05	 1.11236000E-05
					-3.42128000E-04	-1.08556000E-05	 1.07999000E-05
					-8.22768000E-07	 5.83022000E-06	 2.10993000E-05
					-4.03221000E-06	-2.62377000E-07	 2.79088000E-05
					-5.24074000E-06	 1.29000000E-06	 2.52391000E-05
					-6.37664000E-06	 8.31181000E-07	 2.19833000E-05
					-1.24973000E-05	-8.08590000E-07	 1.82848000E-05
					-2.26444000E-05	-3.81494000E-07	 1.97143000E-05
					-2.30906000E-05	 2.53544000E-07	 1.39257000E-05
					-2.35969000E-05	 7.22153000E-07	 7.67771000E-06
					-3.65861000E-05	-8.49153000E-07	 9.45525000E-06
					-5.30137000E-05	-1.68227000E-06	 1.54632000E-05
					-5.32806000E-05	-1.05833000E-06	 6.35815000E-06
					-5.36439000E-05	-4.80691000E-07	-2.74492000E-06
					-7.29314000E-05	-2.22184000E-06	 1.95574000E-06
					-9.55192000E-05	-3.46756000E-06	 1.00766000E-05
					-9.57989000E-05	-2.97661000E-06	-2.05058000E-06
					-9.61750000E-05	-2.15970000E-06	-1.43443000E-05
					-1.21588000E-04	-3.80172000E-06	-6.20605000E-06
					-1.50348000E-04	-5.40886000E-06	 5.13883000E-06
					-1.50629000E-04	-4.94482000E-06	-1.00933000E-05
					-1.50998000E-04	-3.88510000E-06	-2.55405000E-05
					-1.82559000E-04	-5.73402000E-06	-1.42243000E-05
					-2.17385000E-04	-7.41242000E-06	 6.45440000E-08
					-2.17628000E-04	-6.89896000E-06	-1.81928000E-05
					-2.18005000E-04	-5.63289000E-06	-3.70134000E-05
					-2.55966000E-04	-8.14606000E-06	-2.23996000E-05
					-2.96594000E-04	-9.71612000E-06	-5.27239000E-06
					-2.96735000E-04	-9.31734000E-06	-2.64677000E-05
					-2.97214000E-04	-8.58963000E-06	-4.78802000E-05
					-3.41328000E-04	-9.25507000E-06	-3.10632000E-05
					-4.21606000E-06	-2.06209000E-08	-2.08904000E-05
					-5.82721000E-06	 8.46776000E-07	-1.85508000E-05
					-3.41201000E-06	-2.13930000E-07	-2.60897000E-05
					-5.84521000E-06	-1.25983000E-06	-1.88016000E-05
					-1.39399000E-05	-4.96633000E-07	-3.06445000E-05
					-2.40338000E-05	-4.02662000E-07	-2.55097000E-05
					-2.37863000E-05	-9.67395000E-07	-3.65128000E-05
					-2.40569000E-05	-1.48543000E-06	-2.60040000E-05
					-3.77384000E-05	-1.45347000E-06	-3.95981000E-05
					-5.43586000E-05	-1.16374000E-06	-3.57990000E-05
					-5.43148000E-05	-2.20375000E-06	-4.36419000E-05
					-5.43856000E-05	-3.10900000E-06	-3.64819000E-05
					-7.40090000E-05	-2.80018000E-06	-4.77685000E-05
					-9.68904000E-05	-2.84390000E-06	-4.52920000E-05
					-9.69016000E-05	-3.88408000E-06	-5.18991000E-05
					-9.69400000E-05	-4.56459000E-06	-4.61685000E-05
					-1.22716000E-04	-4.42108000E-06	-5.61200000E-05
					-1.51691000E-04	-4.66135000E-06	-5.50606000E-05
					-1.51666000E-04	-6.04632000E-06	-5.97228000E-05
					-1.51796000E-04	-6.69479000E-06	-5.60457000E-05
					-1.83701000E-04	-6.22372000E-06	-6.43587000E-05
					-2.18752000E-04	-6.72331000E-06	-6.45689000E-05
					-2.18791000E-04	-8.79148000E-06	-6.73716000E-05
					-2.19130000E-04	-9.36200000E-06	-6.63027000E-05
					-2.57021000E-04	-7.75077000E-06	-7.36641000E-05
					-2.98172000E-04	-1.01967000E-05	-7.32275000E-05
					-2.98240000E-04	-1.18541000E-05	-7.38562000E-05
					-2.98711000E-04	-1.30694000E-05	-7.71131000E-05
					-3.42115000E-04	-9.61869000E-06	-8.10363000E-05
					-1.37884000E-06	-3.44070000E-08	-1.95691000E-05
					-5.66936000E-06	-1.52784000E-06	-1.23494000E-05
					-4.45208000E-06	-2.15066000E-07	-2.33696000E-05
					-5.71539000E-06	-2.10528000E-07	-2.03596000E-05
					-7.00878000E-06	-2.17841000E-07	-1.75249000E-05
					-5.66141000E-06	 1.08690000E-06	-1.20927000E-05
					-1.31148000E-05	-5.28624000E-07	-2.11984000E-05
					-2.35044000E-05	-1.34378000E-06	-1.41144000E-05
					-2.36545000E-05	-9.53023000E-07	-3.06254000E-05
					-2.36340000E-05	-9.35166000E-07	-2.48673000E-05
					-2.37617000E-05	-9.56189000E-07	-1.85535000E-05
					-2.34861000E-05	-5.81192000E-07	-1.36148000E-05
					-3.72056000E-05	-1.51444000E-06	-2.44476000E-05
					-5.37171000E-05	-2.67905000E-06	-1.83016000E-05
					-5.39893000E-05	-2.15269000E-06	-3.46238000E-05
					-5.38093000E-05	-2.09831000E-06	-2.55770000E-05
					-5.38193000E-05	-2.14328000E-06	-1.64618000E-05
					-5.36884000E-05	-1.61490000E-06	-1.75906000E-05
					-7.35825000E-05	-2.92074000E-06	-2.64813000E-05
					-9.62402000E-05	-3.99156000E-06	-2.17990000E-05
					-9.65280000E-05	-3.74368000E-06	-3.97915000E-05
					-9.62897000E-05	-3.59989000E-06	-2.76875000E-05
					-9.62959000E-05	-3.69387000E-06	-1.54824000E-05
					-9.61812000E-05	-3.38860000E-06	-2.09513000E-05