<?xml version="1.0"?>
<VTKFile type="UnstructuredGrid" version="0.1" byte_order="LittleEndian">
	<UnstructuredGrid>
		<Piece NumberOfPoints="261" NumberOfCells="32">
			<Points>
				<DataArray type="Float64" NumberOfComponents="3" format="ascii">
					 0.00000000E+00	 0.00000000E+00	 0.00000000E+00
					 1.00000000E+00	 0.00000000E+00	 0.00000000E+00
					 1.00000000E+00	 1.00000000E+00	 0.00000000E+00
					 0.00000000E+00	 1.00000000E+00	 0.00000000E+00
					 0.00000000E+00	 0.00000000E+00	 8.00000000E+00
					 1.00000000E+00	 0.00000000E+00	 8.00000000E+00
					 1.00000000E+00	 1.00000000E+00	 8.00000000E+00
					 0.00000000E+00	 1.00000000E+00	 8.00000000E+00
					 2.50000000E-01	 0.00000000E+00	 0.00000000E+00
					 5.00000000E-01	 0.00000000E+00	 0.00000000E+00
					 7.50000000E-01	 0.00000000E+00	 0.00000000E+00
					 1.00000000E+00	 2.50000000E-01	 0.00000000E+00
					 1.00000000E+00	 5.00000000E-01	 0.00000000E+00
					 1.00000000E+00	 7.50000000E-01	 0.00000000E+00
					 7.50000000E-01	 1.00000000E+00	 0.00000000E+00
					 5.00000000E-01	 1.00000000E+00	 0.00000000E+00
					 2.50000000E-01	 1.00000000E+00	 0.00000000E+00
					 0.00000000E+00	 7.50000000E-01	 0.00000000E+00
					 0.00000000E+00	 5.00000000E-01	 0.00000000E+00
					 0.00000000E+00	 2.50000000E-01	 0.00000000E+00
					 2.50000000E-01	 0.00000000E+00	 8.00000000E+00
					 5.00000000E-01	 0.00000000E+00	 8.00000000E+00
					 7.50000000E-01	 0.00000000E+00	 8.00000000E+00
					 1.00000000E+00	 2.50000000E-01	 8.00000000E+00
					 1.00000000E+00	 5.00000000E-01	 8.00000000E+00
					 1.00000000E+00	 7.50000000E-01	 8.00000000E+00
					 7.50000000E-01	 1.00000000E+00	 8.00000000E+00
					 5.00000000E-01	 1.00000000E+00	 8.00000000E+00
					 2.50000000E-01	 1.00000000E+00	 8.00000000E+00
					 0.00000000E+00	 7.50000000E-01	 8.00000000E+00
					 0.00000000E+00	 5.00000000E-01	 8.00000000E+00
					 0.00000000E+00	 2.50000000E-01	 8.00000000E+00
					 1.00000000E+00	 0.00000000E+00	 5.00000000E-01
					 1.00000000E+00	 0.00000000E+00	 1.00000000E+00
					 1.00000000E+00	 0.00000000E+00	 1.50000000E+00
					 1.00000000E+00	 0.00000000E+00	 2.00000000E+00
					 1.00000000E+00	 0.00000000E+00	 2.50000000E+00
					 1.00000000E+00	 0.00000000E+00	 3.00000000E+00
					 1.00000000E+00	 0.00000000E+00	 3.50000000E+00
					 1.00000000E+00	 0.00000000E+00	 4.00000000E+00
					 1.00000000E+00	 0.00000000E+00	 4.50000000E+00
					 1.00000000E+00	 0.00000000E+00	 5.00000000E+00
					 1.00000000E+00	 0.00000000E+00	 5.50000000E+00
					 1.00000000E+00	 0.00000000E+00	 6.00000000E+00
					 1.00000000E+00	 0.00000000E+00	 6.50000000E+00
					 1.00000000E+00	 0.00000000E+00	 7.00000000E+00
					 1.00000000E+00	 0.00000000E+00	 7.50000000E+00
					 0.00000000E+00	 0.00000000E+00	 7.50000000E+00
					 0.00000000E+00	 0.00000000E+00	 7.00000000E+00
					 0.00000000E+00	 0.00000000E+00	 6.50000000E+00
					 0.00000000E+00	 0.00000000E+00	 6.00000000E+00
					 0.00000000E+00	 0.00000000E+00	 5.50000000E+00
					 0.00000000E+00	 0.00000000E+00	 5.00000000E+00
					 0.00000000E+00	 0.00000000E+00	 4.50000000E+00
					 0.00000000E+00	 0.00000000E+00	 4.00000000E+00
					 0.00000000E+00	 0.00000000E+00	 3.50000000E+00
					 0.00000000E+00	 0.00000000E+00	 3.00000000E+00
					 0.00000000E+00	 0.00000000E+00	 2.50000000E+00
					 0.00000000E+00	 0.00000000E+00	 2.00000000E+00
					 0.00000000E+00	 0.00000000E+00	 1.50000000E+00
					 0.00000000E+00	 0.00000000E+00	 1.00000000E+00
					 0.00000000E+00	 0.00000000E+00	 5.00000000E-01
					 1.00000000E+00	 1.00000000E+00	 5.00000000E-01
					 1.00000000E+00	 1.00000000E+00	 1.00000000E+00
					 1.00000000E+00	 1.00000000E+00	 1.50000000E+00
					 1.00000000E+00	 1.00000000E+00	 2.00000000E+00
					 1.00000000E+00	 1.00000000E+00	 2.50000000E+00
					 1.00000000E+00	 1.00000000E+00	 3.00000000E+00
					 1.00000000E+00	 1.00000000E+00	 3.50000000E+00
					 1.00000000E+00	 1.00000000E+00	 4.00000000E+00
					 1.00000000E+00	 1.00000000E+00	 4.50000000E+00
					 1.00000000E+00	 1.00000000E+00	 5.00000000E+00
					 1.00000000E+00	 1.00000000E+00	 5.50000000E+00
					 1.00000000E+00	 1.00000000E+00	 6.00000000E+00
					 1.00000000E+00	 1.00000000E+00	 6.50000000E+00
					 1.00000000E+00	 1.00000000E+00	 7.00000000E+00
					 1.00000000E+00	 1.00000000E+00	 7.50000000E+00
					 0.00000000E+00	 1.00000000E+00	 5.00000000E-01
					 0.00000000E+00	 1.00000000E+00	 1.00000000E+00
					 0.00000000E+00	 1.00000000E+00	 1.50000000E+00
					 0.00000000E+00	 1.00000000E+00	 2.00000000E+00
					 0.00000000E+00	 1.00000000E+00	 2.50000000E+00
					 0.00000000E+00	 1.00000000E+00	 3.00000000E+00
					 0.00000000E+00	 1.00000000E+00	 3.50000000E+00
					 0.00000000E+00	 1.00000000E+00	 4.00000000E+00
					 0.00000000E+00	 1.00000000E+00	 4.50000000E+00
					 0.00000000E+00	 1.00000000E+00	 5.00000000E+00
					 0.00000000E+00	 1.00000000E+00	 5.50000000E+00
					 0.00000000E+00	 1.00000000E+00	 6.00000000E+00
					 0.00000000E+00	 1.00000000E+00	 6.50000000E+00
					 0.00000000E+00	 1.00000000E+00	 7.00000000E+00
					 0.00000000E+00	 1.00000000E+00	 7.50000000E+00
					 5.00000000E-01	 2.50000000E-01	 0.00000000E+00
					 2.50000000E-01	 5.00000000E-01	 0.00000000E+00
					 5.00000000E-01	 5.00000000E-01	 0.00000000E+00
					 7.50000000E-01	 5.00000000E-01	 0.00000000E+00
					 5.00000000E-01	 7.50000000E-01	 0.00000000E+00
					 5.00000000E-01	 2.50000000E-01	 8.00000000E+00
					 2.50000000E-01	 5.00000000E-01	 8.00000000E+00
					 5.00000000E-01	 5.00000000E-01	 8.00000000E+00
					 7.50000000E-01	 5.00000000E-01	 8.00000000E+00
					 5.00000000E-01	 7.50000000E-01	 8.00000000E+00
					 5.00000000E-01	 0.00000000E+00	 5.00000000E-01
					 2.50000000E-01	 0.00000000E+00	 1.00000000E+00
					 5.00000000E-01	 0.00000000E+00	 1.00000000E+00
					 7.50000000E-01	 0.00000000E+00	 1.00000000E+00
					 5.00000000E-01	 0.00000000E+00	 1.50000000E+00
					 2.50000000E-01	 0.00000000E+00	 2.00000000E+00
					 5.00000000E-01	 0.00000000E+00	 2.00000000E+00
					 7.50000000E-01	 0.00000000E+00	 2.00000000E+00
					 5.00000000E-01	 0.00000000E+00	 2.50000000E+00
					 2.50000000E-01	 0.00000000E+00	 3.00000000E+00
					 5.00000000E-01	 0.00000000E+00	 3.00000000E+00
					 7.50000000E-01	 0.00000000E+00	 3.00000000E+00
					 5.00000000E-01	 0.00000000E+00	 3.50000000E+00
					 2.50000000E-01	 0.00000000E+00	 4.00000000E+00
					 5.00000000E-01	 0.00000000E+00	 4.00000000E+00
					 7.50000000E-01	 0.00000000E+00	 4.00000000E+00
					 5.00000000E-01	 0.00000000E+00	 4.50000000E+00
					 2.50000000E-01	 0.00000000E+00	 5.00000000E+00
					 5.00000000E-01	 0.00000000E+00	 5.00000000E+00
					 7.50000000E-01	 0.00000000E+00	 5.00000000E+00
					 5.00000000E-01	 0.00000000E+00	 5.50000000E+00
					 2.50000000E-01	 0.00000000E+00	 6.00000000E+00
					 5.00000000E-01	 0.00000000E+00	 6.00000000E+00
					 7.50000000E-01	 0.00000000E+00	 6.00000000E+00
					 5.00000000E-01	 0.00000000E+00	 6.50000000E+00
					 2.50000000E-01	 0.00000000E+00	 7.00000000E+00
					 5.00000000E-01	 0.00000000E+00	 7.00000000E+00
					 7.50000000E-01	 0.00000000E+00	 7.00000000E+00
					 5.00000000E-01	 0.00000000E+00	 7.50000000E+00
					 1.00000000E+00	 5.00000000E-01	 5.00000000E-01
					 1.00000000E+00	 2.50000000E-01	 1.00000000E+00
					 1.00000000E+00	 5.00000000E-01	 1.00000000E+00
					 1.00000000E+00	 7.50000000E-01	 1.00000000E+00
					 1.00000000E+00	 5.00000000E-01	 1.50000000E+00
					 1.00000000E+00	 2.50000000E-01	 2.00000000E+00
					 1.00000000E+00	 5.00000000E-01	 2.00000000E+00
					 1.00000000E+00	 7.50000000E-01	 2.00000000E+00
					 1.00000000E+00	 5.00000000E-01	 2.50000000E+00
					 1.00000000E+00	 2.50000000E-01	 3.00000000E+00
					 1.00000000E+00	 5.00000000E-01	 3.00000000E+00
					 1.00000000E+00	 7.50000000E-01	 3.00000000E+00
					 1.00000000E+00	 5.00000000E-01	 3.50000000E+00
					 1.00000000E+00	 2.50000000E-01	 4.00000000E+00
					 1.00000000E+00	 5.00000000E-01	 4.00000000E+00
					 1.00000000E+00	 7.50000000E-01	 4.00000000E+00
					 1.00000000E+00	 5.00000000E-01	 4.50000000E+00
					 1.00000000E+00	 2.50000000E-01	 5.00000000E+00
					 1.00000000E+00	 5.00000000E-01	 5.00000000E+00
					 1.00000000E+00	 7.50000000E-01	 5.00000000E+00
					 1.00000000E+00	 5.00000000E-01	 5.50000000E+00
					 1.00000000E+00	 2.50000000E-01	 6.00000000E+00
					 1.00000000E+00	 5.00000000E-01	 6.00000000E+00
					 1.00000000E+00	 7.50000000E-01	 6.00000000E+00
					 1.00000000E+00	 5.00000000E-01	 6.50000000E+00
					 1.00000000E+00	 2.50000000E-01	 7.00000000E+00
					 1.00000000E+00	 5.00000000E-01	 7.00000000E+00
					 1.00000000E+00	 7.50000000E-01	 7.00000000E+00
					 1.00000000E+00	 5.00000000E-01	 7.50000000E+00
					 5.00000000E-01	 1.00000000E+00	 5.00000000E-01
					 7.50000000E-01	 1.00000000E+00	 1.00000000E+00
					 5.00000000E-01	 1.00000000E+00	 1.00000000E+00
					 2.50000000E-01	 1.00000000E+00	 1.00000000E+00
					 5.00000000E-01	 1.00000000E+00	 1.50000000E+00
					 7.50000000E-01	 1.00000000E+00	 2.00000000E+00
					 5.00000000E-01	 1.00000000E+00	 2.00000000E+00
					 2.50000000E-01	 1.00000000E+00	 2.00000000E+00
					 5.00000000E-01	 1.00000000E+00	 2.50000000E+00
					 7.50000000E-01	 1.00000000E+00	 3.00000000E+00
					 5.00000000E-01	 1.00000000E+00	 3.00000000E+00
					 2.50000000E-01	 1.00000000E+00	 3.00000000E+00
					 5.00000000E-01	 1.00000000E+00	 3.50000000E+00
					 7.50000000E-01	 1.00000000E+00	 4.00000000E+00
					 5.00000000E-01	 1.00000000E+00	 4.00000000E+00
					 2.50000000E-01	 1.00000000E+00	 4.00000000E+00
					 5.00000000E-01	 1.00000000E+00	 4.50000000E+00
					 7.50000000E-01	 1.00000000E+00	 5.00000000E+00
					 5.00000000E-01	 1.00000000E+00	 5.00000000E+00
					 2.50000000E-01	 1.00000000E+00	 5.00000000E+00
					 5.00000000E-01	 1.00000000E+00	 5.50000000E+00
					 7.50000000E-01	 1.00000000E+00	 6.00000000E+00
					 5.00000000E-01	 1.00000000E+00	 6.00000000E+00
					 2.50000000E-01	 1.00000000E+00	 6.00000000E+00
					 5.00000000E-01	 1.00000000E+00	 6.50000000E+00
					 7.50000000E-01	 1.00000000E+00	 7.00000000E+00
					 5.00000000E-01	 1.00000000E+00	 7.00000000E+00
					 2.50000000E-01	 1.00000000E+00	 7.00000000E+00
					 5.00000000E-01	 1.00000000E+00	 7.50000000E+00
					 0.00000000E+00	 5.00000000E-01	 5.00000000E-01
					 0.00000000E+00	 7.50000000E-01	 1.00000000E+00
					 0.00000000E+00	 5.00000000E-01	 1.00000000E+00
					 0.00000000E+00	 2.50000000E-01	 1.00000000E+00
					 0.00000000E+00	 5.00000000E-01	 1.50000000E+00
					 0.00000000E+00	 7.50000000E-01	 2.00000000E+00
					 0.00000000E+00	 5.00000000E-01	 2.00000000E+00
					 0.00000000E+00	 2.50000000E-01	 2.00000000E+00
					 0.00000000E+00	 5.00000000E-01	 2.50000000E+00
					 0.00000000E+00	 7.50000000E-01	 3.00000000E+00
					 0.00000000E+00	 5.00000000E-01	 3.00000000E+00
					 0.00000000E+00	 2.50000000E-01	 3.00000000E+00
					 0.00000000E+00	 5.00000000E-01	 3.50000000E+00
					 0.00000000E+00	 7.50000000E-01	 4.00000000E+00
					 0.00000000E+00	 5.00000000E-01	 4.00000000E+00
					 0.00000000E+00	 2.50000000E-01	 4.00000000E+00
					 0.00000000E+00	 5.00000000E-01	 4.50000000E+00
					 0.00000000E+00	 7.50000000E-01	 5.00000000E+00
					 0.00000000E+00	 5.00000000E-01	 5.00000000E+00
					 0.00000000E+00	 2.50000000E-01	 5.00000000E+00
					 0.00000000E+00	 5.00000000E-01	 5.50000000E+00
					 0.00000000E+00	 7.50000000E-01	 6.00000000E+00
					 0.00000000E+00	 5.00000000E-01	 6.00000000E+00
					 0.00000000E+00	 2.50000000E-01	 6.00000000E+00
					 0.00000000E+00	 5.00000000E-01	 6.50000000E+00
					 0.00000000E+00	 7.50000000E-01	 7.00000000E+00
					 0.00000000E+00	 5.00000000E-01	 7.00000000E+00
					 0.00000000E+00	 2.50000000E-01	 7.00000000E+00
					 0.00000000E+00	 5.00000000E-01	 7.50000000E+00
					 5.00000000E-01	 5.00000000E-01	 5.00000000E-01
					 5.00000000E-01	 2.50000000E-01	 1.00000000E+00
					 2.50000000E-01	 5.00000000E-01	 1.00000000E+00
					 5.00000000E-01	 5.00000000E-01	 1.00000000E+00
					 7.50000000E-01	 5.00000000E-01	 1.00000000E+00
					 5.00000000E-01	 7.50000000E-01	 1.00000000E+00
					 5.00000000E-01	 5.00000000E-01	 1.50000000E+00
					 5.00000000E-01	 2.50000000E-01	 2.00000000E+00
					 2.50000000E-01	 5.00000000E-01	 2.00000000E+00
					 5.00000000E-01	 5.00000000E-01	 2.00000000E+00
					 7.50000000E-01	 5.00000000E-01	 2.00000000E+00
					 5.00000000E-01	 7.50000000E-01	 2.00000000E+00
					 5.00000000E-01	 5.00000000E-01	 2.50000000E+00
					 5.00000000E-01	 2.50000000E-01	 3.00000000E+00
					 2.50000000E-01	 5.00000000E-01	 3.00000000E+00
					 5.00000000E-01	 5.00000000E-01	 3.00000000E+00
					 7.50000000E-01	 5.00000000E-01	 3.00000000E+00
					 5.00000000E-01	 7.50000000E-01	 3.00000000E+00
					 5.00000000E-01	 5.00000000E-01	 3.50000000E+00
					 5.00000000E-01	 2.50000000E-01	 4.00000000E+00
					 2.50000000E-01	 5.00000000E-01	 4.00000000E+00
					 5.00000000E-01	 5.00000000E-01	 4.00000000E+00
					 7.50000000E-01	 5.00000000E-01	 4.00000000E+00
					 5.00000000E-01	 7.50000000E-01	 4.00000000E+00
					 5.00000000E-01	 5.00000000E-01	 4.50000000E+00
					 5.00000000E-01	 2.50000000E-01	 5.00000000E+00
					 2.50000000E-01	 5.00000000E-01	 5.00000000E+00
					 5.00000000E-01	 5.00000000E-01	 5.00000000E+00
					 7.50000000E-01	 5.00000000E-01	 5.00000000E+00
					 5.00000000E-01	 7.50000000E-01	 5.00000000E+00
					 5.00000000E-01	 5.00000000E-01	 5.50000000E+00
					 5.00000000E-01	 2.50000000E-01	 6.00000000E+00
					 2.50000000E-01	 5.00000000E-01	 6.00000000E+00
					 5.00000000E-01	 5.00000000E-01	 6.00000000E+00
					 7.50000000E-01	 5.00000000E-01	 6.00000000E+00
					 5.00000000E-01	 7.50000000E-01	 6.00000000E+00
					 5.00000000E-01	 5.00000000E-01	 6.50000000E+00
					 5.00000000E-01	 2.50000000E-01	 7.00000000E+00
					 2.50000000E-01	 5.00000000E-01	 7.00000000E+00
					 5.00000000E-01	 5.00000000E-01	 7.00000000E+00
					 7.50000000E-01	 5.00000000E-01	 7.00000000E+00
					 5.00000000E-01	 7.50000000E-01	 7.00000000E+00
					 5.00000000E-01	 5.00000000E-01	 7.50000000E+00
				</DataArray>
			</Points>
			<Cells>
				<DataArray type="Int32" Name="connectivity" format="ascii">
					0 9 94 18 60 104 221 191 8 92 93 19 103 219 220 192 61 102 218 189 9 1 12 94 104 33 133 221 10 11 95 92 105 132 222 219 102 32 131 218 18 94 15 3 191 221 162 78 93 96 16 17 220 223 163 190 189 218 160 77 94 12 2 15 221 133 63 162 95 13 14 96 222 134 161 223 218 131 62 160 60 104 221 191 58 108 227 195 103 219 220 192 107 225 226 196 59 106 224 193 104 33 133 221 108 35 137 227 105 132 222 219 109 136 228 225 106 34 135 224 191 221 162 78 195 227 166 80 220 223 163 190 226 229 167 194 193 224 164 79 221 133 63 162 227 137 65 166 222 134 161 223 228 138 165 229 224 135 64 164 58 108 227 195 56 112 233 199 107 225 226 196 111 231 232 200 57 110 230 197 108 35 137 227 112 37 141 233 109 136 228 225 113 140 234 231 110 36 139 230 195 227 166 80 199 233 170 82 226 229 167 194 232 235 171 198 197 230 168 81 227 137 65 166 233 141 67 170 228 138 165 229 234 142 169 235 230 139 66 168 56 112 233 199 54 116 239 203 111 231 232 200 115 237 238 204 55 114 236 201 112 37 141 233 116 39 145 239 113 140 234 231 117 144 240 237 114 38 143 236 199 233 170 82 203 239 174 84 232 235 171 198 238 241 175 202 201 236 172 83 233 141 67 170 239 145 69 174 234 142 169 235 240 146 173 241 236 143 68 172 54 116 239 203 52 120 245 207 115 237 238 204 119 243 244 208 53 118 242 205 116 39 145 239 120 41 149 245 117 144 240 237 121 148 246 243 118 40 147 242 203 239 174 84 207 245 178 86 238 241 175 202 244 247 179 206 205 242 176 85 239 145 69 174 245 149 71 178 240 146 173 241 246 150 177 247 242 147 70 176 52 120 245 207 50 124 251 211 119 243 244 208 123 249 250 212 51 122 248 209 120 41 149 245 124 43 153 251 121 148 246 243 125 152 252 249 122 42 151 248 207 245 178 86 211 251 182 88 244 247 179 206 250 253 183 210 209 248 180 87 245 149 71 178 251 153 73 182 246 150 177 247 252 154 181 253 248 151 72 180 50 124 251 211 48 128 257 215 123 249 250 212 127 255 256 216 49 126 254 213 124 43 153 251 128 45 157 257 125 152 252 249 129 156 258 255 126 44 155 254 211 251 182 88 215 257 186 90 250 253 183 210 256 259 187 214 213 254 184 89 251 153 73 182 257 157 75 186 252 154 181 253 258 158 185 259 254 155 74 184 48 128 257 215 4 21 99 30 127 255 256 216 20 97 98 31 47 130 260 217 128 45 157 257 21 5 24 99 129 156 258 255 22 23 100 97 130 46 159 260 215 257 186 90 30 99 27 7 256 259 187 214 98 101 28 29 217 260 188 91 257 157 75 186 99 24 6 27 258 158 185 259 100 25 26 101 260 159 76 188 
				</DataArray>
				<DataArray type="Int32" Name="offsets" format="ascii">
					20 40 60 80 100 120 140 160 180 200 220 240 260 280 300 320 340 360 380 400 420 440 460 480 500 520 540 560 580 600 620 640 
				</DataArray>
				<DataArray type="UInt8" Name="types" format="ascii">
					25 25 25 25 25 25 25 25 25 25 25 25 25 25 25 25 25 25 25 25 25 25 25 25 25 25 25 25 25 25 25 25 
				</DataArray>
			</Cells>
			<PointData>
				<DataArray type="Float32" Name="U" NumberOfComponents="3" ComponentName0="D1" ComponentName1="D2" ComponentName2="D3" format="ascii">
					 0.00000000E+00	 0.00000000E+00	 0.00000000E+00
					 0.00000000E+00	 0.00000000E+00	 0.00000000E+00
					 0.00000000E+00	 0.00000000E+00	 0.00000000E+00
					 0.00000000E+00	 0.00000000E+00	 0.00000000E+00
					-1.83430000E-06	 2.66796000E-03	 4.16450000E-05
					-1.71022000E-06	 2.51184000E-03	 6.83812000E-05
					 2.87091000E-05	 2.46100000E-03	-3.54639000E-04
					 2.96595000E-05	 2.54345000E-03	-3.58585000E-04
					 0.00000000E+00	 0.00000000E+00	 0.00000000E+00
					 0.00000000E+00	 0.00000000E+00	 0.00000000E+00
					 0.00000000E+00	 0.00000000E+00	 0.00000000E+00
					 0.00000000E+00	 0.00000000E+00	 0.00000000E+00
					 0.00000000E+00	 0.00000000E+00	 0.00000000E+00
					 0.00000000E+00	 0.00000000E+00	 0.00000000E+00
					 0.00000000E+00	 0.00000000E+00	 0.00000000E+00
					 0.00000000E+00	 0.00000000E+00	 0.00000000E+00
					 0.00000000E+00	 0.00000000E+00	 0.00000000E+00
					 0.00000000E+00	 0.00000000E+00	 0.00000000E+00
					 0.00000000E+00	 0.00000000E+00	 0.00000000E+00
					 0.00000000E+00	 0.00000000E+00	 0.00000000E+00
					-1.36424000E-06	 2.58849000E-03	 5.76989000E-05
					-1.58266000E-06	 2.54385000E-03	 7.11280000E-05
					-1.65608000E-06	 2.52624000E-03	 7.01128000E-05
					 6.01387000E-06	 2.49557000E-03	-3.65449000E-05
					 1.37418000E-05	 2.48345000E-03	-1.42355000E-04
					 2.12132000E-05	 2.47210000E-03	-2.48536000E-04
					 2.88057000E-05	 2.47979000E-03	-3.55519000E-04
					 2.90302000E-05	 2.49946000E-03	-3.57069000E-04
					 2.91580000E-05	 2.51899000E-03	-3.57096000E-04
					 2.14293000E-05	 2.55033000E-03	-2.52145000E-04
					 1.38429000E-05	 2.56010000E-03	-1.46534000E-04
					 7.59818000E-06	 2.59800000E-03	-5.02759000E-05
					-1.24127000E-05	 2.33291000E-05	 3.51354000E-05
					-9.25601000E-06	 7.70141000E-05	 6.71099000E-05
					-1.06720000E-05	 1.64545000E-04	 9.34813000E-05
					-9.87305000E-06	 2.73787000E-04	 1.14978000E-04
					-9.88216000E-06	 4.05650000E-04	 1.31869000E-04
					-9.46703000E-06	 5.53624000E-04	 1.44955000E-04
					-9.29799000E-06	 7.16851000E-04	 1.54199000E-04
					-8.96375000E-06	 8.91708000E-04	 1.59844000E-04
					-8.68537000E-06	 1.07669000E-03	 1.62070000E-04
					-8.25915000E-06	 1.26959000E-03	 1.60621000E-04
					-7.77663000E-06	 1.46902000E-03	 1.55794000E-04
					-7.14684000E-06	 1.67349000E-03	 1.46555000E-04
					-6.25751000E-06	 1.88068000E-03	 1.34656000E-04
					-5.35128000E-06	 2.09136000E-03	 1.17145000E-04
					-3.68434000E-06	 2.29854000E-03	 9.50749000E-05
					-4.13891000E-06	 2.39387000E-03	 9.47985000E-05
					-2.13328000E-06	 2.15644000E-03	 1.10481000E-04
					-4.06152000E-06	 1.93997000E-03	 1.32045000E-04
					-4.40803000E-06	 1.72906000E-03	 1.44274000E-04
					-4.48926000E-06	 1.51576000E-03	 1.54659000E-04
					-3.89894000E-06	 1.30898000E-03	 1.59484000E-04
					-3.47872000E-06	 1.11049000E-03	 1.61338000E-04
					-2.74761000E-06	 9.20642000E-04	 1.59329000E-04
					-1.75257000E-06	 7.40910000E-04	 1.53840000E-04
					-5.96139000E-07	 5.73335000E-04	 1.44670000E-04
					 9.46442000E-07	 4.21364000E-04	 1.31654000E-04
					 2.31349000E-06	 2.85904000E-04	 1.14812000E-04
					 4.67027000E-06	 1.73241000E-04	 9.33330000E-05
					 5.18965000E-06	 8.24894000E-05	 6.70340000E-05
					 1.04326000E-05	 2.58219000E-05	 3.50948000E-05
					 1.25314000E-05	 2.30398000E-05	-3.54964000E-05
					 9.44357000E-06	 7.60079000E-05	-6.82745000E-05
					 1.11743000E-05	 1.62520000E-04	-9.63663000E-05
					 1.07758000E-05	 2.70287000E-04	-1.20725000E-04
					 1.13410000E-05	 4.00452000E-04	-1.42077000E-04
					 1.16345000E-05	 5.46291000E-04	-1.61471000E-04
					 1.23744000E-05	 7.07022000E-04	-1.79309000E-04
					 1.31595000E-05	 8.78923000E-04	-1.96207000E-04
					 1.42588000E-05	 1.06053000E-03	-2.12678000E-04
					 1.54951000E-05	 1.24947000E-03	-2.29179000E-04
					 1.70607000E-05	 1.44417000E-03	-2.46345000E-04
					 1.88196000E-05	 1.64318000E-03	-2.64413000E-04
					 2.09955000E-05	 1.84456000E-03	-2.84274000E-04
					 2.33939000E-05	 2.04761000E-03	-3.05800000E-04
					 2.62352000E-05	 2.25248000E-03	-3.30067000E-04
					-1.04394000E-05	 2.54704000E-05	-3.52677000E-05
					-4.95803000E-06	 8.14401000E-05	-6.78323000E-05
					-4.18259000E-06	 1.71172000E-04	-9.56899000E-05
					-1.40652000E-06	 2.82372000E-04	-1.19896000E-04
					 5.26250000E-07	 4.16158000E-04	-1.41077000E-04
					 2.81333000E-06	 5.66023000E-04	-1.60339000E-04
					 4.86269000E-06	 7.31083000E-04	-1.78014000E-04
					 7.02074000E-06	 9.07825000E-04	-1.94804000E-04
					 9.16806000E-06	 1.09459000E-03	-2.11093000E-04
					 1.14365000E-05	 1.28944000E-03	-2.27536000E-04
					 1.38372000E-05	 1.49064000E-03	-2.44675000E-04
					 1.64768000E-05	 1.69724000E-03	-2.62765000E-04
					 1.92395000E-05	 1.90622000E-03	-2.82776000E-04
					 2.23466000E-05	 2.11880000E-03	-3.03161000E-04
					 2.61393000E-05	 2.32884000E-03	-3.31083000E-04
					 0.00000000E+00	 0.00000000E+00	 0.00000000E+00
					 0.00000000E+00	 0.00000000E+00	 0.00000000E+00
					 0.00000000E+00	 0.00000000E+00	 0.00000000E+00
					 0.00000000E+00	 0.00000000E+00	 0.00000000E+00
					 0.00000000E+00	 0.00000000E+00	 0.00000000E+00
					 6.36385000E-06	 2.53815000E-03	-3.78065000E-05
					 1.42802000E-05	 2.54697000E-03	-1.47403000E-04
					 1.41147000E-05	 2.52406000E-03	-1.45096000E-04
					 1.39254000E-05	 2.50437000E-03	-1.43452000E-04
					 2.15297000E-05	 2.51229000E-03	-2.50915000E-04
					-1.07097000E-06	 2.94343000E-05	 3.42674000E-05
					 1.50348000E-06	 8.48414000E-05	 6.78894000E-05
					-2.07693000E-06	 8.41938000E-05	 6.81048000E-05
					-5.61262000E-06	 8.20523000E-05	 6.74616000E-05
					-3.01111000E-06	 1.72505000E-04	 9.34498000E-05
					-7.48852000E-07	 2.85272000E-04	 1.15249000E-04
					-3.81131000E-06	 2.83226000E-04	 1.15132000E-04
					-6.84389000E-06	 2.79177000E-04	 1.14984000E-04
					-4.48919000E-06	 4.16126000E-04	 1.31793000E-04
					-2.83570000E-06	 5.70230000E-04	 1.45001000E-04
					-5.07178000E-06	 5.65834000E-04	 1.44845000E-04
					-7.26669000E-06	 5.60293000E-04	 1.44760000E-04
					-5.52872000E-06	 7.30727000E-04	 1.53952000E-04
					-4.31332000E-06	 9.14495000E-04	 1.59633000E-04
					-5.89681000E-06	 9.07684000E-04	 1.59564000E-04
					-7.43341000E-06	 9.00007000E-04	 1.59545000E-04
					-6.09019000E-06	 1.09493000E-03	 1.61477000E-04
					-5.05036000E-06	 1.30040000E-03	 1.59958000E-04
					-6.19348000E-06	 1.29047000E-03	 1.60072000E-04
					-7.22969000E-06	 1.28029000E-03	 1.60100000E-04
					-6.04511000E-06	 1.49303000E-03	 1.54719000E-04
					-5.06498000E-06	 1.71372000E-03	 1.45310000E-04
					-5.84496000E-06	 1.70069000E-03	 1.46239000E-04
					-6.51073000E-06	 1.68695000E-03	 1.46285000E-04
					-5.24519000E-06	 1.91167000E-03	 1.32341000E-04
					-3.40612000E-06	 2.14597000E-03	 1.13536000E-04
					-4.40082000E-06	 2.12433000E-03	 1.16339000E-04
					-4.86784000E-06	 2.10815000E-03	 1.16144000E-04
					-3.52450000E-06	 2.34281000E-03	 9.22322000E-05
					 8.97997000E-08	 1.61641000E-05	-1.56989000E-07
					-4.55676000E-06	 7.44040000E-05	 3.26406000E-05
					 1.59795000E-07	 7.48346000E-05	-5.29995000E-07
					 4.82732000E-06	 7.38878000E-05	-3.37323000E-05
					 3.01655000E-07	 1.58811000E-04	-1.32309000E-06
					-4.67366000E-06	 2.71271000E-04	 5.57401000E-05
					 4.95983000E-07	 2.70092000E-04	-2.76614000E-06
					 5.63007000E-06	 2.69515000E-04	-6.13110000E-05
					 7.67740000E-07	 4.00027000E-04	-4.94398000E-06
					-4.16223000E-06	 5.50339000E-04	 6.82431000E-05
					 1.12589000E-06	 5.48186000E-04	-8.09160000E-06
					 6.38127000E-06	 5.46643000E-04	-8.45112000E-05
					 1.57315000E-06	 7.09934000E-04	-1.23449000E-05
					-3.40418000E-06	 8.87472000E-04	 7.08935000E-05
					 2.13861000E-06	 8.83937000E-04	-1.79268000E-05
					 7.64762000E-06	 8.81034000E-04	-1.06879000E-04
					 2.81304000E-06	 1.06730000E-03	-2.50342000E-05
					-2.28314000E-06	 1.26389000E-03	 6.33623000E-05
					 3.67063000E-06	 1.25855000E-03	-3.39258000E-05
					 9.57946000E-06	 1.25372000E-03	-1.31421000E-04
					 4.64634000E-06	 1.45581000E-03	-4.49220000E-05
					-6.01284000E-07	 1.66531000E-03	 4.42054000E-05
					 5.94544000E-06	 1.65746000E-03	-5.84383000E-05
					 1.23747000E-05	 1.65007000E-03	-1.61320000E-04
					 7.29420000E-06	 1.86231000E-03	-7.43091000E-05
					 1.90699000E-06	 2.08020000E-03	 1.17327000E-05
					 9.15744000E-06	 2.06836000E-03	-9.36986000E-05
					 1.62760000E-05	 2.05806000E-03	-1.99627000E-04
					 1.13192000E-05	 2.27627000E-03	-1.17670000E-04
					 1.10807000E-06	 2.91168000E-05	-3.45869000E-05
					 5.82061000E-06	 8.09988000E-05	-6.86495000E-05
					 2.27928000E-06	 8.31416000E-05	-6.92452000E-05
					-1.30826000E-06	 8.37604000E-05	-6.88990000E-05
					 3.49163000E-06	 1.70425000E-04	-9.62601000E-05
					 7.74725000E-06	 2.75663000E-04	-1.20751000E-04
					 4.70566000E-06	 2.79712000E-04	-1.20804000E-04
					 1.63923000E-06	 2.81734000E-04	-1.20690000E-04
					 5.94128000E-06	 4.10904000E-04	-1.41906000E-04
					 9.44241000E-06	 5.52949000E-04	-1.61321000E-04
					 7.24380000E-06	 5.58497000E-04	-1.61276000E-04
					 5.01772000E-06	 5.62863000E-04	-1.61141000E-04
					 8.62097000E-06	 7.20905000E-04	-1.79015000E-04
					 1.16429000E-05	 8.87273000E-04	-1.95990000E-04
					 1.01130000E-05	 8.94940000E-04	-1.95897000E-04
					 8.55169000E-06	 9.01781000E-04	-1.95664000E-04
					 1.17102000E-05	 1.07885000E-03	-2.12264000E-04
					 1.45070000E-05	 1.26019000E-03	-2.28965000E-04
					 1.34929000E-05	 1.27045000E-03	-2.28844000E-04
					 1.24507000E-05	 1.28028000E-03	-2.28547000E-04
					 1.54463000E-05	 1.46832000E-03	-2.45934000E-04
					 1.82664000E-05	 1.65691000E-03	-2.64326000E-04
					 1.77068000E-05	 1.67055000E-03	-2.64415000E-04
					 1.70618000E-05	 1.68400000E-03	-2.63838000E-04
					 2.00938000E-05	 1.87602000E-03	-2.83808000E-04
					 2.32285000E-05	 2.06551000E-03	-3.05972000E-04
					 2.29485000E-05	 2.08277000E-03	-3.05912000E-04
					 2.26652000E-05	 2.10136000E-03	-3.05189000E-04
					 2.61967000E-05	 2.29147000E-03	-3.30670000E-04
					-2.13603000E-08	 1.87087000E-05	-6.70734000E-08
					-2.49026000E-06	 7.92992000E-05	-3.29404000E-05
					 6.33363000E-08	 8.02338000E-05	-3.44387000E-07
					 2.66128000E-06	 7.98325000E-05	 3.22194000E-05
					 2.06245000E-07	 1.67406000E-04	-1.05869000E-06
					-4.93892000E-07	 2.81570000E-04	-6.03773000E-05
					 4.21599000E-07	 2.82113000E-04	-2.42886000E-06
					 1.36610000E-06	 2.83329000E-04	 5.54749000E-05
					 7.07840000E-07	 4.15716000E-04	-4.55487000E-06
					 1.94190000E-06	 5.66335000E-04	-8.33362000E-05
					 1.07151000E-06	 5.67828000E-04	-7.64966000E-06
					 2.30443000E-07	 5.70016000E-04	 6.79408000E-05
					 1.53648000E-06	 7.33952000E-04	-1.18833000E-05
					 4.56745000E-06	 9.09831000E-04	-1.05564000E-04
					 2.10476000E-06	 9.12661000E-04	-1.74324000E-05
					-3.16513000E-07	 9.16203000E-04	 7.05048000E-05
					 2.81559000E-06	 1.10128000E-03	-2.46287000E-05
					 7.55955000E-06	 1.29359000E-03	-1.30002000E-04
					 3.66033000E-06	 1.29824000E-03	-3.35531000E-05
					-1.78510000E-07	 1.30367000E-03	 6.26159000E-05
					 4.73813000E-06	 1.50219000E-03	-4.47645000E-05
					 1.12072000E-05	 1.70375000E-03	-1.60048000E-04
					 5.93110000E-06	 1.71098000E-03	-5.81774000E-05
					 9.02058000E-07	 1.71866000E-03	 4.27922000E-05
					 7.51825000E-06	 1.92364000E-03	-7.48593000E-05
					 1.59369000E-05	 2.12837000E-03	-1.98441000E-04
					 9.32950000E-06	 2.13774000E-03	-9.48393000E-05
					 2.98466000E-06	 2.15184000E-03	 7.53016000E-06
					 1.14995000E-05	 2.35722000E-03	-1.18273000E-04
					 2.47739000E-08	 2.22092000E-05	-1.44639000E-07
					-9.55978000E-07	 8.13203000E-05	 3.29511000E-05
					 8.09893000E-08	 8.24399000E-05	-4.43023000E-07
					 1.07793000E-07	 8.15947000E-05	-5.05836000E-07
					 1.33835000E-07	 7.96734000E-05	-5.34427000E-07
					 1.16944000E-06	 8.07781000E-05	-3.40068000E-05
					 2.46303000E-07	 1.66888000E-04	-1.28859000E-06
					-1.66456000E-06	 2.80550000E-04	 5.57885000E-05
					 4.34529000E-07	 2.81353000E-04	-2.60785000E-06
					 4.53361000E-07	 2.79179000E-04	-2.72130000E-06
					 4.74831000E-07	 2.75292000E-04	-2.77457000E-06
					 2.56818000E-06	 2.78783000E-04	-6.12756000E-05
					 7.31958000E-07	 4.10607000E-04	-4.89831000E-06
					-1.97679000E-06	 5.62444000E-04	 6.81031000E-05
					 1.07915000E-06	 5.64635000E-04	-7.89342000E-06
					 1.09343000E-06	 5.60215000E-04	-8.05190000E-06
					 1.10941000E-06	 5.54753000E-04	-8.11337000E-06
					 4.15929000E-06	 5.58757000E-04	-8.42853000E-05
					 1.54799000E-06	 7.23830000E-04	-1.23147000E-05
					-1.88236000E-06	 9.03422000E-04	 7.06085000E-05
					 2.10731000E-06	 9.06687000E-04	-1.77563000E-05
					 2.11253000E-06	 8.99839000E-04	-1.79364000E-05
					 2.12600000E-06	 8.92232000E-04	-1.79891000E-05
					 6.10592000E-06	 8.96998000E-04	-1.06595000E-04