# vtk DataFile Version 3.0

ASCII
DATASET UNSTRUCTURED_GRID

POINTS 5407 double
	 1.00000000E-01	-1.00000000E-01	 0.00000000E+00
	 1.00000000E-01	-3.25000000E-01	 0.00000000E+00
	 1.00000000E-01	-3.25000000E-01	 2.00000000E-01
	 1.00000000E-01	-1.00000000E-01	 2.00000000E-01
	 0.00000000E+00	-1.00000000E-01	 0.00000000E+00
	 0.00000000E+00	-3.25000000E-01	 0.00000000E+00
	 3.46945000E-18	-3.25000000E-01	 2.00000000E-01
	 0.00000000E+00	-1.00000000E-01	 2.00000000E-01
	 1.00000000E-01	-3.25000000E-01	 4.00000000E-01
	 1.00000000E-01	-1.00000000E-01	 4.00000000E-01
	 0.00000000E+00	-3.25000000E-01	 4.00000000E-01
	 0.00000000E+00	-1.00000000E-01	 4.00000000E-01
	 1.00000000E-01	-3.25000000E-01	 6.00000000E-01
	 1.00000000E-01	-1.00000000E-01	 6.00000000E-01
	 0.00000000E+00	-3.25000000E-01	 6.00000000E-01
	 0.00000000E+00	-1.00000000E-01	 6.00000000E-01
	 1.00000000E-01	-3.25000000E-01	 8.00000000E-01
	 1.00000000E-01	-1.00000000E-01	 8.00000000E-01
	 0.00000000E+00	-3.25000000E-01	 8.00000000E-01
	 0.00000000E+00	-1.00000000E-01	 8.00000000E-01
	-1.00000000E-01	-1.00000000E-01	 0.00000000E+00
	-1.00000000E-01	-3.25000000E-01	 0.00000000E+00
	-1.00000000E-01	-3.25000000E-01	 2.00000000E-01
	-1.00000000E-01	-1.00000000E-01	 2.00000000E-01
	-1.00000000E-01	-3.25000000E-01	 4.00000000E-01
	-1.00000000E-01	-1.00000000E-01	 4.00000000E-01
	-1.00000000E-01	-3.25000000E-01	 6.00000000E-01
	-1.00000000E-01	-1.00000000E-01	 6.00000000E-01
	-1.00000000E-01	-3.25000000E-01	 8.00000000E-01
	-1.00000000E-01	-1.00000000E-01	 8.00000000E-01
	 1.00000000E-01	-5.50000000E-01	 0.00000000E+00
	 1.00000000E-01	-5.50000000E-01	 2.00000000E-01
	 0.00000000E+00	-5.50000000E-01	 0.00000000E+00
	 0.00000000E+00	-5.50000000E-01	 2.00000000E-01
	 1.00000000E-01	-5.50000000E-01	 4.00000000E-01
	 0.00000000E+00	-5.50000000E-01	 4.00000000E-01
	 1.00000000E-01	-5.50000000E-01	 6.00000000E-01
	 0.00000000E+00	-5.50000000E-01	 6.00000000E-01
	 1.00000000E-01	-5.50000000E-01	 8.00000000E-01
	 0.00000000E+00	-5.50000000E-01	 8.00000000E-01
	-1.00000000E-01	-5.50000000E-01	 0.00000000E+00
	-1.00000000E-01	-5.50000000E-01	 2.00000000E-01
	-1.00000000E-01	-5.50000000E-01	 4.00000000E-01
	-1.00000000E-01	-5.50000000E-01	 6.00000000E-01
	-1.00000000E-01	-5.50000000E-01	 8.00000000E-01
	 1.00000000E-01	-7.75000000E-01	 0.00000000E+00
	 1.00000000E-01	-7.75000000E-01	 2.00000000E-01
	 0.00000000E+00	-7.75000000E-01	 0.00000000E+00
	 3.46945000E-18	-7.75000000E-01	 2.00000000E-01
	 1.00000000E-01	-7.75000000E-01	 4.00000000E-01
	 0.00000000E+00	-7.75000000E-01	 4.00000000E-01
	 1.00000000E-01	-7.75000000E-01	 6.00000000E-01
	 0.00000000E+00	-7.75000000E-01	 6.00000000E-01
	 1.00000000E-01	-7.75000000E-01	 8.00000000E-01
	 0.00000000E+00	-7.75000000E-01	 8.00000000E-01
	-1.00000000E-01	-7.75000000E-01	 0.00000000E+00
	-1.00000000E-01	-7.75000000E-01	 2.00000000E-01
	-1.00000000E-01	-7.75000000E-01	 4.00000000E-01
	-1.00000000E-01	-7.75000000E-01	 6.00000000E-01
	-1.00000000E-01	-7.75000000E-01	 8.00000000E-01
	 1.00000000E-01	-1.00000000E+00	 0.00000000E+00
	 1.00000000E-01	-1.00000000E+00	 2.00000000E-01
	 0.00000000E+00	-1.00000000E+00	 0.00000000E+00
	 0.00000000E+00	-1.00000000E+00	 2.00000000E-01
	 1.00000000E-01	-1.00000000E+00	 4.00000000E-01
	 0.00000000E+00	-1.00000000E+00	 4.00000000E-01
	 1.00000000E-01	-1.00000000E+00	 6.00000000E-01
	 0.00000000E+00	-1.00000000E+00	 6.00000000E-01
	 1.00000000E-01	-1.00000000E+00	 8.00000000E-01
	 0.00000000E+00	-1.00000000E+00	 8.00000000E-01
	-1.00000000E-01	-1.00000000E+00	 0.00000000E+00
	-1.00000000E-01	-1.00000000E+00	 2.00000000E-01
	-1.00000000E-01	-1.00000000E+00	 4.00000000E-01
	-1.00000000E-01	-1.00000000E+00	 6.00000000E-01
	-1.00000000E-01	-1.00000000E+00	 8.00000000E-01
	 1.00000000E+00	 1.00000000E+00	 0.00000000E+00
	 1.00000000E+00	 7.75000000E-01	 0.00000000E+00
	 1.00000000E+00	 7.75000000E-01	 2.00000000E-01
	 1.00000000E+00	 1.00000000E+00	 2.00000000E-01
	 7.75000000E-01	 1.00000000E+00	 0.00000000E+00
	 7.75000000E-01	 7.75000000E-01	 0.00000000E+00
	 7.75000000E-01	 7.75000000E-01	 2.00000000E-01
	 7.75000000E-01	 1.00000000E+00	 2.00000000E-01
	 1.00000000E+00	 7.75000000E-01	 4.00000000E-01
	 1.00000000E+00	 1.00000000E+00	 4.00000000E-01
	 7.75000000E-01	 7.75000000E-01	 4.00000000E-01
	 7.75000000E-01	 1.00000000E+00	 4.00000000E-01
	 1.00000000E+00	 7.75000000E-01	 6.00000000E-01
	 1.00000000E+00	 1.00000000E+00	 6.00000000E-01
	 7.75000000E-01	 7.75000000E-01	 6.00000000E-01
	 7.75000000E-01	 1.00000000E+00	 6.00000000E-01
	 1.00000000E+00	 7.75000000E-01	 8.00000000E-01
	 1.00000000E+00	 1.00000000E+00	 8.00000000E-01
	 7.75000000E-01	 7.75000000E-01	 8.00000000E-01
	 7.75000000E-01	 1.00000000E+00	 8.00000000E-01
	 5.50000000E-01	 1.00000000E+00	 0.00000000E+00
	 5.50000000E-01	 7.75000000E-01	 0.00000000E+00
	 5.50000000E-01	 7.75000000E-01	 2.00000000E-01
	 5.50000000E-01	 1.00000000E+00	 2.00000000E-01
	 5.50000000E-01	 7.75000000E-01	 4.00000000E-01
	 5.50000000E-01	 1.00000000E+00	 4.00000000E-01
	 5.50000000E-01	 7.75000000E-01	 6.00000000E-01
	 5.50000000E-01	 1.00000000E+00	 6.00000000E-01
	 5.50000000E-01	 7.75000000E-01	 8.00000000E-01
	 5.50000000E-01	 1.00000000E+00	 8.00000000E-01
	 3.25000000E-01	 1.00000000E+00	 0.00000000E+00
	 3.25000000E-01	 7.75000000E-01	 0.00000000E+00
	 3.25000000E-01	 7.75000000E-01	 2.00000000E-01
	 3.25000000E-01	 1.00000000E+00	 2.00000000E-01
	 3.25000000E-01	 7.75000000E-01	 4.00000000E-01
	 3.25000000E-01	 1.00000000E+00	 4.00000000E-01
	 3.25000000E-01	 7.75000000E-01	 6.00000000E-01
	 3.25000000E-01	 1.00000000E+00	 6.00000000E-01
	 3.25000000E-01	 7.75000000E-01	 8.00000000E-01
	 3.25000000E-01	 1.00000000E+00	 8.00000000E-01
	 1.00000000E-01	 1.00000000E+00	 0.00000000E+00
	 1.00000000E-01	 7.75000000E-01	 0.00000000E+00
	 1.00000000E-01	 7.75000000E-01	 2.00000000E-01
	 1.00000000E-01	 1.00000000E+00	 2.00000000E-01
	 1.00000000E-01	 7.75000000E-01	 4.00000000E-01
	 1.00000000E-01	 1.00000000E+00	 4.00000000E-01
	 1.00000000E-01	 7.75000000E-01	 6.00000000E-01
	 1.00000000E-01	 1.00000000E+00	 6.00000000E-01
	 1.00000000E-01	 7.75000000E-01	 8.00000000E-01
	 1.00000000E-01	 1.00000000E+00	 8.00000000E-01
	 1.00000000E+00	 5.50000000E-01	 0.00000000E+00
	 1.00000000E+00	 5.50000000E-01	 2.00000000E-01
	 7.75000000E-01	 5.50000000E-01	 0.00000000E+00
	 7.75000000E-01	 5.50000000E-01	 2.00000000E-01
	 1.00000000E+00	 5.50000000E-01	 4.00000000E-01
	 7.75000000E-01	 5.50000000E-01	 4.00000000E-01
	 1.00000000E+00	 5.50000000E-01	 6.00000000E-01
	 7.75000000E-01	 5.50000000E-01	 6.00000000E-01
	 1.00000000E+00	 5.50000000E-01	 8.00000000E-01
	 7.75000000E-01	 5.50000000E-01	 8.00000000E-01
	 5.50000000E-01	 5.50000000E-01	 0.00000000E+00
	 5.50000000E-01	 5.50000000E-01	 2.00000000E-01
	 5.50000000E-01	 5.50000000E-01	 4.00000000E-01
	 5.50000000E-01	 5.50000000E-01	 6.00000000E-01
	 5.50000000E-01	 5.50000000E-01	 8.00000000E-01
	 3.25000000E-01	 5.50000000E-01	 0.00000000E+00
	 3.25000000E-01	 5.50000000E-01	 2.00000000E-01
	 3.25000000E-01	 5.50000000E-01	 4.00000000E-01
	 3.25000000E-01	 5.50000000E-01	 6.00000000E-01
	 3.25000000E-01	 5.50000000E-01	 8.00000000E-01
	 1.00000000E-01	 5.50000000E-01	 0.00000000E+00
	 1.00000000E-01	 5.50000000E-01	 2.00000000E-01
	 1.00000000E-01	 5.50000000E-01	 4.00000000E-01
	 1.00000000E-01	 5.50000000E-01	 6.00000000E-01
	 1.00000000E-01	 5.50000000E-01	 8.00000000E-01
	 1.00000000E+00	 3.25000000E-01	 0.00000000E+00
	 1.00000000E+00	 3.25000000E-01	 2.00000000E-01
	 7.75000000E-01	 3.25000000E-01	 0.00000000E+00
	 7.75000000E-01	 3.25000000E-01	 2.00000000E-01
	 1.00000000E+00	 3.25000000E-01	 4.00000000E-01
	 7.75000000E-01	 3.25000000E-01	 4.00000000E-01
	 1.00000000E+00	 3.25000000E-01	 6.00000000E-01
	 7.75000000E-01	 3.25000000E-01	 6.00000000E-01
	 1.00000000E+00	 3.25000000E-01	 8.00000000E-01
	 7.75000000E-01	 3.25000000E-01	 8.00000000E-01
	 5.50000000E-01	 3.25000000E-01	 0.00000000E+00
	 5.50000000E-01	 3.25000000E-01	 2.00000000E-01
	 5.50000000E-01	 3.25000000E-01	 4.00000000E-01
	 5.50000000E-01	 3.25000000E-01	 6.00000000E-01
	 5.50000000E-01	 3.25000000E-01	 8.00000000E-01
	 3.25000000E-01	 3.25000000E-01	 0.00000000E+00
	 3.25000000E-01	 3.25000000E-01	 2.00000000E-01
	 3.25000000E-01	 3.25000000E-01	 4.00000000E-01
	 3.25000000E-01	 3.25000000E-01	 6.00000000E-01
	 3.25000000E-01	 3.25000000E-01	 8.00000000E-01
	 1.00000000E-01	 3.25000000E-01	 0.00000000E+00
	 1.00000000E-01	 3.25000000E-01	 2.00000000E-01
	 1.00000000E-01	 3.25000000E-01	 4.00000000E-01
	 1.00000000E-01	 3.25000000E-01	 6.00000000E-01
	 1.00000000E-01	 3.25000000E-01	 8.00000000E-01
	 1.00000000E+00	 1.00000000E-01	 0.00000000E+00
	 1.00000000E+00	 1.00000000E-01	 2.00000000E-01
	 7.75000000E-01	 1.00000000E-01	 0.00000000E+00
	 7.75000000E-01	 1.00000000E-01	 2.00000000E-01
	 1.00000000E+00	 1.00000000E-01	 4.00000000E-01
	 7.75000000E-01	 1.00000000E-01	 4.00000000E-01
	 1.00000000E+00	 1.00000000E-01	 6.00000000E-01
	 7.75000000E-01	 1.00000000E-01	 6.00000000E-01
	 1.00000000E+00	 1.00000000E-01	 8.00000000E-01
	 7.75000000E-01	 1.00000000E-01	 8.00000000E-01
	 5.50000000E-01	 1.00000000E-01	 0.00000000E+00
	 5.50000000E-01	 1.00000000E-01	 2.00000000E-01
	 5.50000000E-01	 1.00000000E-01	 4.00000000E-01
	 5.50000000E-01	 1.00000000E-01	 6.00000000E-01
	 5.50000000E-01	 1.00000000E-01	 8.00000000E-01
	 3.25000000E-01	 1.00000000E-01	 0.00000000E+00
	 3.25000000E-01	 1.00000000E-01	 2.00000000E-01
	 3.25000000E-01	 1.00000000E-01	 4.00000000E-01
	 3.25000000E-01	 1.00000000E-01	 6.00000000E-01
	 3.25000000E-01	 1.00000000E-01	 8.00000000E-01
	 1.00000000E-01	 1.00000000E-01	 0.00000000E+00
	 1.00000000E-01	 1.00000000E-01	 2.00000000E-01
	 1.00000000E-01	 1.00000000E-01	 4.00000000E-01
	 1.00000000E-01	 1.00000000E-01	 6.00000000E-01
	 1.00000000E-01	 1.00000000E-01	 8.00000000E-01
	 1.00000000E+00	 0.00000000E+00	 0.00000000E+00
	 1.00000000E+00	 0.00000000E+00	 2.00000000E-01
[...]
POINT_DATA 5407
FIELD U 1
	U 5 5407 double
		 7.02672000E-05	 7.02672000E-05	 4.55342000E-14	 0.00000000E+00	-8.16672000E-01
		 0.00000000E+00	 0.00000000E+00	 0.00000000E+00	 0.00000000E+00	-8.16672000E-01
		 0.00000000E+00	 0.00000000E+00	 0.00000000E+00	 0.00000000E+00	 4.46156000E+00
		 1.69834000E-05	 1.69834000E-05	 4.55861000E-12	 0.00000000E+00	-2.67976000E+00
		 5.32945000E-05	 0.00000000E+00	 3.25317000E-14	 0.00000000E+00	-8.16672000E-01
		 0.00000000E+00	 0.00000000E+00	 0.00000000E+00	 0.00000000E+00	-8.16672000E-01
		 0.00000000E+00	 0.00000000E+00	 0.00000000E+00	 0.00000000E+00	 5.21521000E+00
		 1.75505000E-05	 0.00000000E+00	 2.74370000E-12	 0.00000000E+00	-6.22719000E+00
		 0.00000000E+00	 0.00000000E+00	 0.00000000E+00	 0.00000000E+00	 8.96161000E-01
		 2.44084000E-06	 2.44084000E-06	 4.95134000E-12	 0.00000000E+00	-4.46415000E+00
		 0.00000000E+00	 0.00000000E+00	 0.00000000E+00	 0.00000000E+00	 8.20336000E-01
		 2.59904000E-06	 0.00000000E+00	 3.02653000E-12	 0.00000000E+00	-6.07204000E+00
		 0.00000000E+00	 0.00000000E+00	 0.00000000E+00	 0.00000000E+00	 5.29201000E-01
		 4.64809000E-07	 4.64809000E-07	 3.23175000E-12	 0.00000000E+00	-8.80995000E-01
		 0.00000000E+00	 0.00000000E+00	 0.00000000E+00	 0.00000000E+00	 4.47905000E-01
		 2.38056000E-07	 0.00000000E+00	 1.77377000E-12	 0.00000000E+00	-1.05665000E+00
		 0.00000000E+00	 0.00000000E+00	 0.00000000E+00	 0.00000000E+00	 1.25458000E+00
		 3.06369000E-07	 3.06370000E-07	 6.42699000E-13	 0.00000000E+00	 7.11778000E-01
		 0.00000000E+00	 0.00000000E+00	 0.00000000E+00	 0.00000000E+00	 1.24243000E+00
		 7.21891000E-07	 4.70164000E-13	 4.70164000E-13	 0.00000000E+00	 5.49541000E-01
		 7.02672000E-05	-7.02672000E-05	 2.19959000E-14	 0.00000000E+00	-8.16672000E-01
		 0.00000000E+00	 0.00000000E+00	 0.00000000E+00	 0.00000000E+00	-8.16672000E-01
		 0.00000000E+00	 0.00000000E+00	 0.00000000E+00	 0.00000000E+00	 4.46156000E+00
		 1.69834000E-05	-1.69834000E-05	 4.84667000E-12	 0.00000000E+00	-2.67976000E+00
		 0.00000000E+00	 0.00000000E+00	 0.00000000E+00	 0.00000000E+00	 8.96161000E-01
		 2.44084000E-06	-2.44084000E-06	 4.36378000E-12	 0.00000000E+00	-4.46415000E+00
		 0.00000000E+00	 0.00000000E+00	 0.00000000E+00	 0.00000000E+00	 5.29201000E-01
		 4.64809000E-07	-4.64809000E-07	 2.40843000E-12	 0.00000000E+00	-8.80998000E-01
		 0.00000000E+00	 0.00000000E+00	 0.00000000E+00	 0.00000000E+00	 1.25458000E+00
		 3.06369000E-07	-3.06369000E-07	 4.30867000E-13	 0.00000000E+00	 7.11777000E-01
		 0.00000000E+00	 0.00000000E+00	 0.00000000E+00	 0.00000000E+00	-8.16672000E-01
		 0.00000000E+00	 0.00000000E+00	 0.00000000E+00	 0.00000000E+00	-5.83468000E-01
		 0.00000000E+00	 0.00000000E+00	 0.00000000E+00	 0.00000000E+00	-8.16672000E-01
		 0.00000000E+00	 0.00000000E+00	 0.00000000E+00	 0.00000000E+00	-8.47616000E-01
		 0.00000000E+00	 0.00000000E+00	 0.00000000E+00	 0.00000000E+00	 1.11721000E+00
		 0.00000000E+00	 0.00000000E+00	 0.00000000E+00	 0.00000000E+00	 1.15919000E+00
		 0.00000000E+00	 0.00000000E+00	 0.00000000E+00	 0.00000000E+00	 1.27188000E+00
		 0.00000000E+00	 0.00000000E+00	 0.00000000E+00	 0.00000000E+00	 1.26848000E+00
		 0.00000000E+00	 0.00000000E+00	 0.00000000E+00	 0.00000000E+00	 1.60087000E+00
		 0.00000000E+00	 0.00000000E+00	 0.00000000E+00	 0.00000000E+00	 1.59447000E+00
		 0.00000000E+00	 0.00000000E+00	 0.00000000E+00	 0.00000000E+00	-8.16672000E-01
		 0.00000000E+00	 0.00000000E+00	 0.00000000E+00	 0.00000000E+00	-5.83468000E-01
		 0.00000000E+00	 0.00000000E+00	 0.00000000E+00	 0.00000000E+00	 1.11721000E+00
		 0.00000000E+00	 0.00000000E+00	 0.00000000E+00	 0.00000000E+00	 1.27188000E+00
		 0.00000000E+00	 0.00000000E+00	 0.00000000E+00	 0.00000000E+00	 1.60087000E+00
		 0.00000000E+00	 0.00000000E+00	 0.00000000E+00	 0.00000000E+00	-8.16672000E-01
		 0.00000000E+00	 0.00000000E+00	 0.00000000E+00	 0.00000000E+00	-6.47943000E-02
		 0.00000000E+00	 0.00000000E+00	 0.00000000E+00	 0.00000000E+00	-8.16672000E-01
		 0.00000000E+00	 0.00000000E+00	 0.00000000E+00	 0.00000000E+00	-3.90479000E-02
		 0.00000000E+00	 0.00000000E+00	 0.00000000E+00	 0.00000000E+00	 6.87955000E-01
		 0.00000000E+00	 0.00000000E+00	 0.00000000E+00	 0.00000000E+00	 6.75164000E-01
		 0.00000000E+00	 0.00000000E+00	 0.00000000E+00	 0.00000000E+00	 1.39670000E+00
		 0.00000000E+00	 0.00000000E+00	 0.00000000E+00	 0.00000000E+00	 1.40154000E+00
		 0.00000000E+00	 0.00000000E+00	 0.00000000E+00	 0.00000000E+00	 1.80921000E+00
		 0.00000000E+00	 0.00000000E+00	 0.00000000E+00	 0.00000000E+00	 1.81377000E+00
		 0.00000000E+00	 0.00000000E+00	 0.00000000E+00	 0.00000000E+00	-8.16672000E-01
		 0.00000000E+00	 0.00000000E+00	 0.00000000E+00	 0.00000000E+00	-6.47943000E-02
		 0.00000000E+00	 0.00000000E+00	 0.00000000E+00	 0.00000000E+00	 6.87955000E-01
		 0.00000000E+00	 0.00000000E+00	 0.00000000E+00	 0.00000000E+00	 1.39670000E+00
		 0.00000000E+00	 0.00000000E+00	 0.00000000E+00	 0.00000000E+00	 1.80921000E+00
		 0.00000000E+00	 0.00000000E+00	 0.00000000E+00	 0.00000000E+00	-8.16672000E-01
		 0.00000000E+00	 0.00000000E+00	 0.00000000E+00	 0.00000000E+00	 1.81601000E-01
		 0.00000000E+00	 0.00000000E+00	 0.00000000E+00	 0.00000000E+00	-8.16672000E-01
		 0.00000000E+00	 0.00000000E+00	 0.00000000E+00	 0.00000000E+00	 1.73974000E-01
		 0.00000000E+00	 0.00000000E+00	 0.00000000E+00	 0.00000000E+00	 1.06563000E+00
		 0.00000000E+00	 0.00000000E+00	 0.00000000E+00	 0.00000000E+00	 1.07631000E+00
		 0.00000000E+00	 0.00000000E+00	 0.00000000E+00	 0.00000000E+00	 1.71140000E+00
		 0.00000000E+00	 0.00000000E+00	 0.00000000E+00	 0.00000000E+00	 1.72020000E+00
		 0.00000000E+00	 0.00000000E+00	 0.00000000E+00	 0.00000000E+00	 2.12829000E+00
		 0.00000000E+00	 0.00000000E+00	 0.00000000E+00	 0.00000000E+00	 2.13893000E+00
		 0.00000000E+00	 0.00000000E+00	 0.00000000E+00	 0.00000000E+00	-8.16672000E-01
		 0.00000000E+00	 0.00000000E+00	 0.00000000E+00	 0.00000000E+00	 1.81601000E-01
		 0.00000000E+00	 0.00000000E+00	 0.00000000E+00	 0.00000000E+00	 1.06563000E+00
		 0.00000000E+00	 0.00000000E+00	 0.00000000E+00	 0.00000000E+00	 1.71140000E+00
		 0.00000000E+00	 0.00000000E+00	 0.00000000E+00	 0.00000000E+00	 2.12829000E+00
		 0.00000000E+00	 0.00000000E+00	 0.00000000E+00	 0.00000000E+00	-8.16672000E-01
		 0.00000000E+00	 0.00000000E+00	 0.00000000E+00	 0.00000000E+00	-8.16672000E-01
		 0.00000000E+00	 0.00000000E+00	 0.00000000E+00	 0.00000000E+00	 1.01507000E-01
		 0.00000000E+00	 0.00000000E+00	 0.00000000E+00	 0.00000000E+00	 1.42945000E-01
		 0.00000000E+00	 0.00000000E+00	 0.00000000E+00	 0.00000000E+00	-8.16672000E-01
		 0.00000000E+00	 0.00000000E+00	 0.00000000E+00	 0.00000000E+00	-8.16672000E-01
		 0.00000000E+00	 0.00000000E+00	 0.00000000E+00	 0.00000000E+00	 2.81104000E-02
		 0.00000000E+00	 0.00000000E+00	 0.00000000E+00	 0.00000000E+00	 1.01507000E-01
		 0.00000000E+00	 0.00000000E+00	 0.00000000E+00	 0.00000000E+00	 9.07860000E-01
		 0.00000000E+00	 0.00000000E+00	 0.00000000E+00	 0.00000000E+00	 9.78059000E-01
		 0.00000000E+00	 0.00000000E+00	 0.00000000E+00	 0.00000000E+00	 7.79474000E-01
		 0.00000000E+00	 0.00000000E+00	 0.00000000E+00	 0.00000000E+00	 9.07860000E-01
		 0.00000000E+00	 0.00000000E+00	 0.00000000E+00	 0.00000000E+00	 1.51941000E+00
		 0.00000000E+00	 0.00000000E+00	 0.00000000E+00	 0.00000000E+00	 1.60458000E+00
		 0.00000000E+00	 0.00000000E+00	 0.00000000E+00	 0.00000000E+00	 1.37085000E+00
		 0.00000000E+00	 0.00000000E+00	 0.00000000E+00	 0.00000000E+00	 1.51941000E+00
		 0.00000000E+00	 0.00000000E+00	 0.00000000E+00	 0.00000000E+00	 1.90382000E+00
		 0.00000000E+00	 0.00000000E+00	 0.00000000E+00	 0.00000000E+00	 1.98788000E+00
		 0.00000000E+00	 0.00000000E+00	 0.00000000E+00	 0.00000000E+00	 1.76273000E+00
		 0.00000000E+00	 0.00000000E+00	 0.00000000E+00	 0.00000000E+00	 1.90382000E+00
		 0.00000000E+00	 0.00000000E+00	 0.00000000E+00	 0.00000000E+00	-8.16672000E-01
		 0.00000000E+00	 0.00000000E+00	 0.00000000E+00	 0.00000000E+00	-8.16672000E-01
		 0.00000000E+00	 0.00000000E+00	 0.00000000E+00	 0.00000000E+00	-1.28868000E-03
		 0.00000000E+00	 0.00000000E+00	 0.00000000E+00	 0.00000000E+00	 1.21937000E-01
		 0.00000000E+00	 0.00000000E+00	 0.00000000E+00	 0.00000000E+00	 7.51518000E-01
		 0.00000000E+00	 0.00000000E+00	 0.00000000E+00	 0.00000000E+00	 9.42464000E-01
		 0.00000000E+00	 0.00000000E+00	 0.00000000E+00	 0.00000000E+00	 1.33915000E+00
		 0.00000000E+00	 0.00000000E+00	 0.00000000E+00	 0.00000000E+00	 1.56234000E+00
		 0.00000000E+00	 0.00000000E+00	 0.00000000E+00	 0.00000000E+00	 1.74091000E+00
		 0.00000000E+00	 0.00000000E+00	 0.00000000E+00	 0.00000000E+00	 1.95170000E+00
		 0.00000000E+00	 0.00000000E+00	 0.00000000E+00	 0.00000000E+00	-8.16672000E-01
		 0.00000000E+00	 0.00000000E+00	 0.00000000E+00	 0.00000000E+00	-8.16672000E-01
		 0.00000000E+00	 0.00000000E+00	 0.00000000E+00	 0.00000000E+00	-3.62467000E-02
		 0.00000000E+00	 0.00000000E+00	 0.00000000E+00	 0.00000000E+00	 1.58372000E-01
		 0.00000000E+00	 0.00000000E+00	 0.00000000E+00	 0.00000000E+00	 7.34875000E-01
		 0.00000000E+00	 0.00000000E+00	 0.00000000E+00	 0.00000000E+00	 1.01217000E+00
		 0.00000000E+00	 0.00000000E+00	 0.00000000E+00	 0.00000000E+00	 1.36547000E+00
		 0.00000000E+00	 0.00000000E+00	 0.00000000E+00	 0.00000000E+00	 1.65067000E+00
		 0.00000000E+00	 0.00000000E+00	 0.00000000E+00	 0.00000000E+00	 1.77607000E+00
		 0.00000000E+00	 0.00000000E+00	 0.00000000E+00	 0.00000000E+00	 2.05282000E+00
		 0.00000000E+00	 0.00000000E+00	 0.00000000E+00	 0.00000000E+00	-8.16672000E-01
		 0.00000000E+00	 0.00000000E+00	 0.00000000E+00	 0.00000000E+00	-8.16672000E-01
		 0.00000000E+00	 0.00000000E+00	 0.00000000E+00	 0.00000000E+00	-6.47943000E-02
		 0.00000000E+00	 0.00000000E+00	 0.00000000E+00	 0.00000000E+00	 1.81601000E-01
		 0.00000000E+00	 0.00000000E+00	 0.00000000E+00	 0.00000000E+00	 6.87955000E-01
		 0.00000000E+00	 0.00000000E+00	 0.00000000E+00	 0.00000000E+00	 1.06563000E+00
		 0.00000000E+00	 0.00000000E+00	 0.00000000E+00	 0.00000000E+00	 1.39670000E+00
		 0.00000000E+00	 0.00000000E+00	 0.00000000E+00	 0.00000000E+00	 1.71140000E+00
		 0.00000000E+00	 0.00000000E+00	 0.00000000E+00	 0.00000000E+00	 1.80921000E+00
		 0.00000000E+00	 0.00000000E+00	 0.00000000E+00	 0.00000000E+00	 2.12829000E+00
		 0.00000000E+00	 0.00000000E+00	 0.00000000E+00	 0.00000000E+00	-8.16672000E-01
		 0.00000000E+00	 0.00000000E+00	 0.00000000E+00	 0.00000000E+00	 1.21937000E-01
		 0.00000000E+00	 0.00000000E+00	 0.00000000E+00	 0.00000000E+00	-8.16672000E-01
		 0.00000000E+00	 0.00000000E+00	 0.00000000E+00	 0.00000000E+00	-1.28868000E-03
		 0.00000000E+00	 0.00000000E+00	 0.00000000E+00	 0.00000000E+00	 9.42464000E-01
		 0.00000000E+00	 0.00000000E+00	 0.00000000E+00	 0.00000000E+00	 7.51518000E-01
		 0.00000000E+00	 0.00000000E+00	 0.00000000E+00	 0.00000000E+00	 1.56234000E+00
		 0.00000000E+00	 0.00000000E+00	 0.00000000E+00	 0.00000000E+00	 1.33915000E+00
		 0.00000000E+00	 0.00000000E+00	 0.00000000E+00	 0.00000000E+00	 1.95170000E+00
		 0.00000000E+00	 0.00000000E+00	 0.00000000E+00	 0.00000000E+00	 1.74091000E+00
		 0.00000000E+00	 0.00000000E+00	 0.00000000E+00	 0.00000000E+00	-8.16672000E-01
		 0.00000000E+00	 0.00000000E+00	 0.00000000E+00	 0.00000000E+00	 4.58753000E-02
		 0.00000000E+00	 0.00000000E+00	 0.00000000E+00	 0.00000000E+00	 7.46712000E-01
		 0.00000000E+00	 0.00000000E+00	 0.00000000E+00	 0.00000000E+00	 1.28570000E+00
		 0.00000000E+00	 0.00000000E+00	 0.00000000E+00	 0.00000000E+00	 1.66731000E+00
		 0.00000000E+00	 0.00000000E+00	 0.00000000E+00	 0.00000000E+00	-8.16672000E-01
		 0.00000000E+00	 0.00000000E+00	 0.00000000E+00	 0.00000000E+00	-5.91699000E-02
		 0.00000000E+00	 0.00000000E+00	 0.00000000E+00	 0.00000000E+00	 9.07836000E-01
		 0.00000000E+00	 0.00000000E+00	 0.00000000E+00	 0.00000000E+00	 1.28431000E+00
		 0.00000000E+00	 0.00000000E+00	 0.00000000E+00	 0.00000000E+00	 1.63295000E+00
		 0.00000000E+00	 0.00000000E+00	 0.00000000E+00	 0.00000000E+00	-8.16672000E-01
		 0.00000000E+00	 0.00000000E+00	 0.00000000E+00	 0.00000000E+00	-5.83468000E-01
		 0.00000000E+00	 0.00000000E+00	 0.00000000E+00	 0.00000000E+00	 1.11721000E+00
		 0.00000000E+00	 0.00000000E+00	 0.00000000E+00	 0.00000000E+00	 1.27188000E+00
		 0.00000000E+00	 0.00000000E+00	 0.00000000E+00	 0.00000000E+00	 1.60087000E+00
		 0.00000000E+00	 0.00000000E+00	 0.00000000E+00	 0.00000000E+00	-8.16672000E-01
		 0.00000000E+00	 0.00000000E+00	 0.00000000E+00	 0.00000000E+00	 1.58372000E-01
		 0.00000000E+00	 0.00000000E+00	 0.00000000E+00	 0.00000000E+00	-8.16672000E-01
		 0.00000000E+00	 0.00000000E+00	 0.00000000E+00	 0.00000000E+00	-3.62467000E-02
		 0.00000000E+00	 0.00000000E+00	 0.00000000E+00	 0.00000000E+00	 1.01217000E+00
		 0.00000000E+00	 0.00000000E+00	 0.00000000E+00	 0.00000000E+00	 7.34875000E-01
		 0.00000000E+00	 0.00000000E+00	 0.00000000E+00	 0.00000000E+00	 1.65067000E+00
		 0.00000000E+00	 0.00000000E+00	 0.00000000E+00	 0.00000000E+00	 1.36547000E+00
		 0.00000000E+00	 0.00000000E+00	 0.00000000E+00	 0.00000000E+00	 2.05282000E+00
		 0.00000000E+00	 0.00000000E+00	 0.00000000E+00	 0.00000000E+00	 1.77607000E+00
		 0.00000000E+00	 0.00000000E+00	 0.00000000E+00	 0.00000000E+00	-8.16672000E-01
		 0.00000000E+00	 0.00000000E+00	 0.00000000E+00	 0.00000000E+00	-5.91699000E-02
		 0.00000000E+00	 0.00000000E+00	 0.00000000E+00	 0.00000000E+00	 9.07836000E-01
		 0.00000000E+00	 0.00000000E+00	 0.00000000E+00	 0.00000000E+00	 1.28431000E+00
		 0.00000000E+00	 0.00000000E+00	 0.00000000E+00	 0.00000000E+00	 1.63295000E+00
		 0.00000000E+00	 0.00000000E+00	 0.00000000E+00	 0.00000000E+00	-8.16672000E-01
		 0.00000000E+00	 0.00000000E+00	 0.00000000E+00	 0.00000000E+00	 1.49657000E+00
		 0.00000000E+00	 0.00000000E+00	 0.00000000E+00	 0.00000000E+00	 1.18338000E+00
		 0.00000000E+00	 0.00000000E+00	 0.00000000E+00	 0.00000000E+00	 1.01429000E+00
		 0.00000000E+00	 0.00000000E+00	 0.00000000E+00	 0.00000000E+00	 1.44026000E+00
		 0.00000000E+00	 0.00000000E+00	 0.00000000E+00	 0.00000000E+00	-8.16672000E-01
		 0.00000000E+00	 0.00000000E+00	 0.00000000E+00	 0.00000000E+00	 4.46156000E+00
		 0.00000000E+00	 0.00000000E+00	 0.00000000E+00	 0.00000000E+00	 8.96161000E-01
		 0.00000000E+00	 0.00000000E+00	 0.00000000E+00	 0.00000000E+00	 5.29201000E-01
		 0.00000000E+00	 0.00000000E+00	 0.00000000E+00	 0.00000000E+00	 1.25458000E+00
		 0.00000000E+00	 0.00000000E+00	 0.00000000E+00	 0.00000000E+00	-8.16672000E-01
		 0.00000000E+00	 0.00000000E+00	 0.00000000E+00	 0.00000000E+00	 1.81601000E-01
		 0.00000000E+00	 0.00000000E+00	 0.00000000E+00	 0.00000000E+00	-8.16672000E-01
		 0.00000000E+00	 0.00000000E+00	 0.00000000E+00	 0.00000000E+00	-6.47943000E-02
		 0.00000000E+00	 0.00000000E+00	 0.00000000E+00	 0.00000000E+00	 1.06563000E+00
		 0.00000000E+00	 0.00000000E+00	 0.00000000E+00	 0.00000000E+00	 6.87956000E-01
		 0.00000000E+00	 0.00000000E+00	 0.00000000E+00	 0.00000000E+00	 1.71140000E+00
		 0.00000000E+00	 0.00000000E+00	 0.00000000E+00	 0.00000000E+00	 1.39670000E+00
		 0.00000000E+00	 0.00000000E+00	 0.00000000E+00	 0.00000000E+00	 2.12829000E+00
		 0.00000000E+00	 0.00000000E+00	 0.00000000E+00	 0.00000000E+00	 1.80921000E+00
		 0.00000000E+00	 0.00000000E+00	 0.00000000E+00	 0.00000000E+00	-8.16672000E-01
		 0.00000000E+00	 0.00000000E+00	 0.00000000E+00	 0.00000000E+00	-5.83467000E-01
		 0.00000000E+00	 0.00000000E+00	 0.00000000E+00	 0.00000000E+00	 1.11721000E+00
		 0.00000000E+00	 0.00000000E+00	 0.00000000E+00	 0.00000000E+00	 1.27188000E+00
		 0.00000000E+00	 0.00000000E+00	 0.00000000E+00	 0.00000000E+00	 1.60087000E+00
		 0.00000000E+00	 0.00000000E+00	 0.00000000E+00	 0.00000000E+00	-8.16672000E-01
		 0.00000000E+00	 0.00000000E+00	 0.00000000E+00	 0.00000000E+00	 4.46156000E+00
		 0.00000000E+00	 0.00000000E+00	 0.00000000E+00	 0.00000000E+00	 8.96162000E-01
		 0.00000000E+00	 0.00000000E+00	 0.00000000E+00	 0.00000000E+00	 5.29202000E-01
		 0.00000000E+00	 0.00000000E+00	 0.00000000E+00	 0.00000000E+00	 1.25458000E+00
		-7.02672000E-05	 7.02672000E-05	 4.22056000E-14	 0.00000000E+00	-8.16672000E-01
		-1.69834000E-05	 1.69834000E-05	-2.44197000E-12	 0.00000000E+00	-2.67976000E+00
		-2.44084000E-06	 2.44084000E-06	-2.84257000E-12	 0.00000000E+00	-4.46415000E+00
		-4.64809000E-07	 4.64809000E-07	-1.94889000E-12	 0.00000000E+00	-8.80995000E-01
		-3.06370000E-07	 3.06370000E-07	-4.14735000E-13	 0.00000000E+00	 7.11778000E-01
		 0.00000000E+00	 0.00000000E+00	 0.00000000E+00	 0.00000000E+00	-8.16672000E-01
		 0.00000000E+00	 0.00000000E+00	 0.00000000E+00	 0.00000000E+00	 1.73974000E-01
		 0.00000000E+00	 0.00000000E+00	 0.00000000E+00	 0.00000000E+00	-8.16672000E-01
		 0.00000000E+00	 0.00000000E+00	 0.00000000E+00	 0.00000000E+00	-3.90479000E-02
		 0.00000000E+00	 0.00000000E+00	 0.00000000E+00	 0.00000000E+00	 1.07631000E+00
		 0.00000000E+00	 0.00000000E+00	 0.00000000E+00	 0.00000000E+00	 6.75164000E-01
		 0.00000000E+00	 0.00000000E+00	 0.00000000E+00	 0.00000000E+00	 1.72020000E+00
		 0.00000000E+00	 0.00000000E+00	 0.00000000E+00	 0.00000000E+00	 1.40154000E+00
		 0.00000000E+00	 0.00000000E+00	 0.00000000E+00	 0.00000000E+00	 2.13893000E+00
		 0.00000000E+00	 0.00000000E+00	 0.00000000E+00	 0.00000000E+00	 1.81377000E+00
		 0.00000000E+00	 0.00000000E+00	 0.00000000E+00	 0.00000000E+00	-8.16672000E-01
		 0.00000000E+00	 0.00000000E+00	 0.00000000E+00	 0.00000000E+00	-8.47616000E-01
		 0.00000000E+00	 0.00000000E+00	 0.00000000E+00	 0.00000000E+00	 1.15919000E+00
		 0.00000000E+00	 0.00000000E+00	 0.00000000E+00	 0.00000000E+00	 1.26848000E+00
		 0.00000000E+00	 0.00000000E+00	 0.00000000E+00	 0.00000000E+00	 1.59447000E+00
		 0.00000000E+00	 0.00000000E+00	 0.00000000E+00	 0.00000000E+00	-8.16672000E-01
		 0.00000000E+00	 0.00000000E+00	 0.00000000E+00	 0.00000000E+00	 5.21521000E+00
		 0.00000000E+00	 0.00000000E+00	 0.00000000E+00	 0.00000000E+00	 8.20336000E-01
		 0.00000000E+00	 0.00000000E+00	 0.00000000E+00	 0.00000000E+00	 4.47905000E-01
		 0.00000000E+00	 0.00000000E+00	 0.00000000E+00	 0.00000000E+00	 1.24243000E+00
		 0.00000000E+00	 5.32945000E-05	 4.47332000E-14	 0.00000000E+00	-8.16672000E-01
		 0.00000000E+00	 1.75505000E-05	 6.56769000E-13	 0.00000000E+00	-6.22719000E+00
		 0.00000000E+00	 2.59904000E-06	 6.79399000E-13	 0.00000000E+00	-6.07204000E+00
		 0.00000000E+00	 2.38057000E-07	 4.08475000E-13	 0.00000000E+00	-1.05665000E+00
		-9.77989000E-14	 7.21893000E-07	 9.77989000E-14	 0.00000000E+00	 5.49542000E-01
		 0.00000000E+00	 0.00000000E+00	 0.00000000E+00	 0.00000000E+00	-8.16672000E-01
		 0.00000000E+00	 0.00000000E+00	 0.00000000E+00	 0.00000000E+00	 1.81601000E-01
		 0.00000000E+00	 0.00000000E+00	 0.00000000E+00	 0.00000000E+00	-8.16672000E-01
		 0.00000000E+00	 0.00000000E+00	 0.00000000E+00	 0.00000000E+00	-6.47943000E-02
		 0.00000000E+00	 0.00000000E+00	 0.00000000E+00	 0.00000000E+00	 1.06563000E+00
		 0.00000000E+00	 0.00000000E+00	 0.00000000E+00	 0.00000000E+00	 6.87956000E-01
		 0.00000000E+00	 0.00000000E+00	 0.00000000E+00	 0.00000000E+00	 1.71140000E+00
		 0.00000000E+00	 0.00000000E+00	 0.00000000E+00	 0.00000000E+00	 1.39670000E+00
		 0.00000000E+00	 0.00000000E+00	 0.00000000E+00	 0.00000000E+00	 2.12829000E+00
		 0.00000000E+00	 0.00000000E+00	 0.00000000E+00	 0.00000000E+00	 1.80921000E+00
		 0.00000000E+00	 0.00000000E+00	 0.00000000E+00	 0.00000000E+00	-8.16672000E-01
		 0.00000000E+00	 0.00000000E+00	 0.00000000E+00	 0.00000000E+00	-5.83468000E-01
		 0.00000000E+00	 0.00000000E+00	 0.00000000E+00	 0.00000000E+00	 1.11721000E+00
		 0.00000000E+00	 0.00000000E+00	 0.00000000E+00	 0.00000000E+00	 1.27188000E+00
		 0.00000000E+00	 0.00000000E+00	 0.00000000E+00	 0.00000000E+00	 1.60087000E+00
		 0.00000000E+00	 0.00000000E+00	 0.00000000E+00	 0.00000000E+00	-8.16672000E-01
		 0.00000000E+00	 0.00000000E+00	 0.00000000E+00	 0.00000000E+00	 4.46156000E+00
		 0.00000000E+00	 0.00000000E+00	 0.00000000E+00	 0.00000000E+00	 8.96162000E-01