<?xml version="1.0"?>
<VTKFile type="UnstructuredGrid" version="0.1" byte_order="LittleEndian">
	<UnstructuredGrid>
		<Piece NumberOfPoints="5407" NumberOfCells="1712">
			<Points>
				<DataArray type="Float64" NumberOfComponents="3" format="ascii">
					 1.00000000E-01	-1.00000000E-01	 0.00000000E+00
					 1.00000000E-01	-3.25000000E-01	 0.00000000E+00
					 1.00000000E-01	-3.25000000E-01	 2.00000000E-01
					 1.00000000E-01	-1.00000000E-01	 2.00000000E-01
					 0.00000000E+00	-1.00000000E-01	 0.00000000E+00
					 0.00000000E+00	-3.25000000E-01	 0.00000000E+00
					 3.46945000E-18	-3.25000000E-01	 2.00000000E-01
					 0.00000000E+00	-1.00000000E-01	 2.00000000E-01
					 1.00000000E-01	-3.25000000E-01	 4.00000000E-01
					 1.00000000E-01	-1.00000000E-01	 4.00000000E-01
					 0.00000000E+00	-3.25000000E-01	 4.00000000E-01
					 0.00000000E+00	-1.00000000E-01	 4.00000000E-01
					 1.00000000E-01	-3.25000000E-01	 6.00000000E-01
					 1.00000000E-01	-1.00000000E-01	 6.00000000E-01
					 0.00000000E+00	-3.25000000E-01	 6.00000000E-01
					 0.00000000E+00	-1.00000000E-01	 6.00000000E-01
					 1.00000000E-01	-3.25000000E-01	 8.00000000E-01
					 1.00000000E-01	-1.00000000E-01	 8.00000000E-01
					 0.00000000E+00	-3.25000000E-01	 8.00000000E-01
					 0.00000000E+00	-1.00000000E-01	 8.00000000E-01
					-1.00000000E-01	-1.00000000E-01	 0.00000000E+00
					-1.00000000E-01	-3.25000000E-01	 0.00000000E+00
					-1.00000000E-01	-3.25000000E-01	 2.00000000E-01
					-1.00000000E-01	-1.00000000E-01	 2.00000000E-01
					-1.00000000E-01	-3.25000000E-01	 4.00000000E-01
					-1.00000000E-01	-1.00000000E-01	 4.00000000E-01
					-1.00000000E-01	-3.25000000E-01	 6.00000000E-01
					-1.00000000E-01	-1.00000000E-01	 6.00000000E-01
					-1.00000000E-01	-3.25000000E-01	 8.00000000E-01
					-1.00000000E-01	-1.00000000E-01	 8.00000000E-01
					 1.00000000E-01	-5.50000000E-01	 0.00000000E+00
					 1.00000000E-01	-5.50000000E-01	 2.00000000E-01
					 0.00000000E+00	-5.50000000E-01	 0.00000000E+00
					 0.00000000E+00	-5.50000000E-01	 2.00000000E-01
					 1.00000000E-01	-5.50000000E-01	 4.00000000E-01
					 0.00000000E+00	-5.50000000E-01	 4.00000000E-01
					 1.00000000E-01	-5.50000000E-01	 6.00000000E-01
					 0.00000000E+00	-5.50000000E-01	 6.00000000E-01
					 1.00000000E-01	-5.50000000E-01	 8.00000000E-01
					 0.00000000E+00	-5.50000000E-01	 8.00000000E-01
					-1.00000000E-01	-5.50000000E-01	 0.00000000E+00
					-1.00000000E-01	-5.50000000E-01	 2.00000000E-01
					-1.00000000E-01	-5.50000000E-01	 4.00000000E-01
					-1.00000000E-01	-5.50000000E-01	 6.00000000E-01
					-1.00000000E-01	-5.50000000E-01	 8.00000000E-01
					 1.00000000E-01	-7.75000000E-01	 0.00000000E+00
					 1.00000000E-01	-7.75000000E-01	 2.00000000E-01
					 0.00000000E+00	-7.75000000E-01	 0.00000000E+00
					 3.46945000E-18	-7.75000000E-01	 2.00000000E-01
					 1.00000000E-01	-7.75000000E-01	 4.00000000E-01
					 0.00000000E+00	-7.75000000E-01	 4.00000000E-01
					 1.00000000E-01	-7.75000000E-01	 6.00000000E-01
					 0.00000000E+00	-7.75000000E-01	 6.00000000E-01
					 1.00000000E-01	-7.75000000E-01	 8.00000000E-01
					 0.00000000E+00	-7.75000000E-01	 8.00000000E-01
					-1.00000000E-01	-7.75000000E-01	 0.00000000E+00
					-1.00000000E-01	-7.75000000E-01	 2.00000000E-01
					-1.00000000E-01	-7.75000000E-01	 4.00000000E-01
					-1.00000000E-01	-7.75000000E-01	 6.00000000E-01
					-1.00000000E-01	-7.75000000E-01	 8.00000000E-01
					 1.00000000E-01	-1.00000000E+00	 0.00000000E+00
					 1.00000000E-01	-1.00000000E+00	 2.00000000E-01
					 0.00000000E+00	-1.00000000E+00	 0.00000000E+00
					 0.00000000E+00	-1.00000000E+00	 2.00000000E-01
					 1.00000000E-01	-1.00000000E+00	 4.00000000E-01
					 0.00000000E+00	-1.00000000E+00	 4.00000000E-01
					 1.00000000E-01	-1.00000000E+00	 6.00000000E-01
					 0.00000000E+00	-1.00000000E+00	 6.00000000E-01
					 1.00000000E-01	-1.00000000E+00	 8.00000000E-01
					 0.00000000E+00	-1.00000000E+00	 8.00000000E-01
					-1.00000000E-01	-1.00000000E+00	 0.00000000E+00
					-1.00000000E-01	-1.00000000E+00	 2.00000000E-01
					-1.00000000E-01	-1.00000000E+00	 4.00000000E-01
					-1.00000000E-01	-1.00000000E+00	 6.00000000E-01
					-1.00000000E-01	-1.00000000E+00	 8.00000000E-01
					 1.00000000E+00	 1.00000000E+00	 0.00000000E+00
					 1.00000000E+00	 7.75000000E-01	 0.00000000E+00
					 1.00000000E+00	 7.75000000E-01	 2.00000000E-01
					 1.00000000E+00	 1.00000000E+00	 2.00000000E-01
					 7.75000000E-01	 1.00000000E+00	 0.00000000E+00
					 7.75000000E-01	 7.75000000E-01	 0.00000000E+00
					 7.75000000E-01	 7.75000000E-01	 2.00000000E-01
					 7.75000000E-01	 1.00000000E+00	 2.00000000E-01
					 1.00000000E+00	 7.75000000E-01	 4.00000000E-01
					 1.00000000E+00	 1.00000000E+00	 4.00000000E-01
					 7.75000000E-01	 7.75000000E-01	 4.00000000E-01
					 7.75000000E-01	 1.00000000E+00	 4.00000000E-01
					 1.00000000E+00	 7.75000000E-01	 6.00000000E-01
					 1.00000000E+00	 1.00000000E+00	 6.00000000E-01
					 7.75000000E-01	 7.75000000E-01	 6.00000000E-01
					 7.75000000E-01	 1.00000000E+00	 6.00000000E-01
					 1.00000000E+00	 7.75000000E-01	 8.00000000E-01
					 1.00000000E+00	 1.00000000E+00	 8.00000000E-01
					 7.75000000E-01	 7.75000000E-01	 8.00000000E-01
					 7.75000000E-01	 1.00000000E+00	 8.00000000E-01
					 5.50000000E-01	 1.00000000E+00	 0.00000000E+00
					 5.50000000E-01	 7.75000000E-01	 0.00000000E+00
					 5.50000000E-01	 7.75000000E-01	 2.00000000E-01
					 5.50000000E-01	 1.00000000E+00	 2.00000000E-01
					 5.50000000E-01	 7.75000000E-01	 4.00000000E-01
					 5.50000000E-01	 1.00000000E+00	 4.00000000E-01
					 5.50000000E-01	 7.75000000E-01	 6.00000000E-01
					 5.50000000E-01	 1.00000000E+00	 6.00000000E-01
					 5.50000000E-01	 7.75000000E-01	 8.00000000E-01
					 5.50000000E-01	 1.00000000E+00	 8.00000000E-01
					 3.25000000E-01	 1.00000000E+00	 0.00000000E+00
					 3.25000000E-01	 7.75000000E-01	 0.00000000E+00
					 3.25000000E-01	 7.75000000E-01	 2.00000000E-01
					 3.25000000E-01	 1.00000000E+00	 2.00000000E-01
					 3.25000000E-01	 7.75000000E-01	 4.00000000E-01
					 3.25000000E-01	 1.00000000E+00	 4.00000000E-01
					 3.25000000E-01	 7.75000000E-01	 6.00000000E-01
					 3.25000000E-01	 1.00000000E+00	 6.00000000E-01
					 3.25000000E-01	 7.75000000E-01	 8.00000000E-01
					 3.25000000E-01	 1.00000000E+00	 8.00000000E-01
					 1.00000000E-01	 1.00000000E+00	 0.00000000E+00
					 1.00000000E-01	 7.75000000E-01	 0.00000000E+00
					 1.00000000E-01	 7.75000000E-01	 2.00000000E-01
					 1.00000000E-01	 1.00000000E+00	 2.00000000E-01
					 1.00000000E-01	 7.75000000E-01	 4.00000000E-01
					 1.00000000E-01	 1.00000000E+00	 4.00000000E-01
					 1.00000000E-01	 7.75000000E-01	 6.00000000E-01
					 1.00000000E-01	 1.00000000E+00	 6.00000000E-01
					 1.00000000E-01	 7.75000000E-01	 8.00000000E-01
					 1.00000000E-01	 1.00000000E+00	 8.00000000E-01
					 1.00000000E+00	 5.50000000E-01	 0.00000000E+00
					 1.00000000E+00	 5.50000000E-01	 2.00000000E-01
					 7.75000000E-01	 5.50000000E-01	 0.00000000E+00
					 7.75000000E-01	 5.50000000E-01	 2.00000000E-01
					 1.00000000E+00	 5.50000000E-01	 4.00000000E-01
					 7.75000000E-01	 5.50000000E-01	 4.00000000E-01
					 1.00000000E+00	 5.50000000E-01	 6.00000000E-01
					 7.75000000E-01	 5.50000000E-01	 6.00000000E-01
					 1.00000000E+00	 5.50000000E-01	 8.00000000E-01
					 7.75000000E-01	 5.50000000E-01	 8.00000000E-01
					 5.50000000E-01	 5.50000000E-01	 0.00000000E+00
					 5.50000000E-01	 5.50000000E-01	 2.00000000E-01
					 5.50000000E-01	 5.50000000E-01	 4.00000000E-01
					 5.50000000E-01	 5.50000000E-01	 6.00000000E-01
					 5.50000000E-01	 5.50000000E-01	 8.00000000E-01
					 3.25000000E-01	 5.50000000E-01	 0.00000000E+00
					 3.25000000E-01	 5.50000000E-01	 2.00000000E-01
					 3.25000000E-01	 5.50000000E-01	 4.00000000E-01
					 3.25000000E-01	 5.50000000E-01	 6.00000000E-01
					 3.25000000E-01	 5.50000000E-01	 8.00000000E-01
					 1.00000000E-01	 5.50000000E-01	 0.00000000E+00
					 1.00000000E-01	 5.50000000E-01	 2.00000000E-01
					 1.00000000E-01	 5.50000000E-01	 4.00000000E-01
					 1.00000000E-01	 5.50000000E-01	 6.00000000E-01
					 1.00000000E-01	 5.50000000E-01	 8.00000000E-01
					 1.00000000E+00	 3.25000000E-01	 0.00000000E+00
					 1.00000000E+00	 3.25000000E-01	 2.00000000E-01
					 7.75000000E-01	 3.25000000E-01	 0.00000000E+00
					 7.75000000E-01	 3.25000000E-01	 2.00000000E-01
					 1.00000000E+00	 3.25000000E-01	 4.00000000E-01
					 7.75000000E-01	 3.25000000E-01	 4.00000000E-01
					 1.00000000E+00	 3.25000000E-01	 6.00000000E-01
					 7.75000000E-01	 3.25000000E-01	 6.00000000E-01
					 1.00000000E+00	 3.25000000E-01	 8.00000000E-01
					 7.75000000E-01	 3.25000000E-01	 8.00000000E-01
					 5.50000000E-01	 3.25000000E-01	 0.00000000E+00
					 5.50000000E-01	 3.25000000E-01	 2.00000000E-01
					 5.50000000E-01	 3.25000000E-01	 4.00000000E-01
					 5.50000000E-01	 3.25000000E-01	 6.00000000E-01
					 5.50000000E-01	 3.25000000E-01	 8.00000000E-01
					 3.25000000E-01	 3.25000000E-01	 0.00000000E+00
					 3.25000000E-01	 3.25000000E-01	 2.00000000E-01
					 3.25000000E-01	 3.25000000E-01	 4.00000000E-01
					 3.25000000E-01	 3.25000000E-01	 6.00000000E-01
					 3.25000000E-01	 3.25000000E-01	 8.00000000E-01
					 1.00000000E-01	 3.25000000E-01	 0.00000000E+00
					 1.00000000E-01	 3.25000000E-01	 2.00000000E-01
					 1.00000000E-01	 3.25000000E-01	 4.00000000E-01
					 1.00000000E-01	 3.25000000E-01	 6.00000000E-01
					 1.00000000E-01	 3.25000000E-01	 8.00000000E-01
					 1.00000000E+00	 1.00000000E-01	 0.00000000E+00
					 1.00000000E+00	 1.00000000E-01	 2.00000000E-01
					 7.75000000E-01	 1.00000000E-01	 0.00000000E+00
					 7.75000000E-01	 1.00000000E-01	 2.00000000E-01
					 1.00000000E+00	 1.00000000E-01	 4.00000000E-01
					 7.75000000E-01	 1.00000000E-01	 4.00000000E-01
					 1.00000000E+00	 1.00000000E-01	 6.00000000E-01
					 7.75000000E-01	 1.00000000E-01	 6.00000000E-01
[...]
			<PointData>
				<DataArray type="Float32" Name="EMFE" NumberOfComponents="3" ComponentName0="E1" ComponentName1="E2" ComponentName2="E3" format="ascii">
					 0.00000000E+00	 0.00000000E+00	 0.00000000E+00
					 0.00000000E+00	 0.00000000E+00	 0.00000000E+00
					 0.00000000E+00	 0.00000000E+00	 0.00000000E+00
					 0.00000000E+00	 0.00000000E+00	 0.00000000E+00
					 0.00000000E+00	 0.00000000E+00	 0.00000000E+00
					 0.00000000E+00	 0.00000000E+00	 0.00000000E+00
					 0.00000000E+00	 0.00000000E+00	 0.00000000E+00
					 0.00000000E+00	 0.00000000E+00	 0.00000000E+00
					 0.00000000E+00	 0.00000000E+00	 0.00000000E+00
					 0.00000000E+00	 0.00000000E+00	 0.00000000E+00
					 0.00000000E+00	 0.00000000E+00	 0.00000000E+00
					 0.00000000E+00	 0.00000000E+00	 0.00000000E+00
					 0.00000000E+00	 0.00000000E+00	 0.00000000E+00
					 0.00000000E+00	 0.00000000E+00	 0.00000000E+00
					 0.00000000E+00	 0.00000000E+00	 0.00000000E+00
					 0.00000000E+00	 0.00000000E+00	 0.00000000E+00
					 0.00000000E+00	 0.00000000E+00	 0.00000000E+00
					 0.00000000E+00	 0.00000000E+00	 0.00000000E+00
					 0.00000000E+00	 0.00000000E+00	 0.00000000E+00
					 0.00000000E+00	 0.00000000E+00	 0.00000000E+00
					 0.00000000E+00	 0.00000000E+00	 0.00000000E+00
					 0.00000000E+00	 0.00000000E+00	 0.00000000E+00
					 0.00000000E+00	 0.00000000E+00	 0.00000000E+00
					 0.00000000E+00	 0.00000000E+00	 0.00000000E+00
					 0.00000000E+00	 0.00000000E+00	 0.00000000E+00
					 0.00000000E+00	 0.00000000E+00	 0.00000000E+00
					 0.00000000E+00	 0.00000000E+00	 0.00000000E+00
					 0.00000000E+00	 0.00000000E+00	 0.00000000E+00
					 0.00000000E+00	 0.00000000E+00	 0.00000000E+00
					 0.00000000E+00	 0.00000000E+00	 0.00000000E+00
					 0.00000000E+00	 0.00000000E+00	 0.00000000E+00
					 0.00000000E+00	 0.00000000E+00	 0.00000000E+00
					 0.00000000E+00	 0.00000000E+00	 0.00000000E+00
					 0.00000000E+00	 0.00000000E+00	 0.00000000E+00
					 0.00000000E+00	 0.00000000E+00	 0.00000000E+00
					 0.00000000E+00	 0.00000000E+00	 0.00000000E+00
					 0.00000000E+00	 0.00000000E+00	 0.00000000E+00
					 0.00000000E+00	 0.00000000E+00	 0.00000000E+00
					 0.00000000E+00	 0.00000000E+00	 0.00000000E+00
					 0.00000000E+00	 0.00000000E+00	 0.00000000E+00
					 0.00000000E+00	 0.00000000E+00	 0.00000000E+00
					 0.00000000E+00	 0.00000000E+00	 0.00000000E+00
					 0.00000000E+00	 0.00000000E+00	 0.00000000E+00
					 0.00000000E+00	 0.00000000E+00	 0.00000000E+00
					 0.00000000E+00	 0.00000000E+00	 0.00000000E+00
					 0.00000000E+00	 0.00000000E+00	 0.00000000E+00
					 0.00000000E+00	 0.00000000E+00	 0.00000000E+00
					 0.00000000E+00	 0.00000000E+00	 0.00000000E+00
					 0.00000000E+00	 0.00000000E+00	 0.00000000E+00
					 0.00000000E+00	 0.00000000E+00	 0.00000000E+00
					 0.00000000E+00	 0.00000000E+00	 0.00000000E+00
					 0.00000000E+00	 0.00000000E+00	 0.00000000E+00
					 0.00000000E+00	 0.00000000E+00	 0.00000000E+00
					 0.00000000E+00	 0.00000000E+00	 0.00000000E+00
					 0.00000000E+00	 0.00000000E+00	 0.00000000E+00
					 0.00000000E+00	 0.00000000E+00	 0.00000000E+00
					 0.00000000E+00	 0.00000000E+00	 0.00000000E+00
					 0.00000000E+00	 0.00000000E+00	 0.00000000E+00
					 0.00000000E+00	 0.00000000E+00	 0.00000000E+00
					 0.00000000E+00	 0.00000000E+00	 0.00000000E+00
					 0.00000000E+00	 0.00000000E+00	 0.00000000E+00
					 0.00000000E+00	 0.00000000E+00	 0.00000000E+00
					 0.00000000E+00	 0.00000000E+00	 0.00000000E+00
					 0.00000000E+00	 0.00000000E+00	 0.00000000E+00
					 0.00000000E+00	 0.00000000E+00	 0.00000000E+00
					 0.00000000E+00	 0.00000000E+00	 0.00000000E+00
					 0.00000000E+00	 0.00000000E+00	 0.00000000E+00
					 0.00000000E+00	 0.00000000E+00	 0.00000000E+00
					 0.00000000E+00	 0.00000000E+00	 0.00000000E+00
					 0.00000000E+00	 0.00000000E+00	 0.00000000E+00
					 0.00000000E+00	 0.00000000E+00	 0.00000000E+00
					 0.00000000E+00	 0.00000000E+00	 0.00000000E+00
					 0.00000000E+00	 0.00000000E+00	 0.00000000E+00
					 0.00000000E+00	 0.00000000E+00	 0.00000000E+00
					 0.00000000E+00	 0.00000000E+00	 0.00000000E+00
					 0.00000000E+00	 0.00000000E+00	 0.00000000E+00
					 0.00000000E+00	 0.00000000E+00	 0.00000000E+00
					 0.00000000E+00	 0.00000000E+00	 0.00000000E+00
					 0.00000000E+00	 0.00000000E+00	 0.00000000E+00
					 0.00000000E+00	 0.00000000E+00	 0.00000000E+00
					 0.00000000E+00	 0.00000000E+00	 0.00000000E+00
					 0.00000000E+00	 0.00000000E+00	 0.00000000E+00
					 0.00000000E+00	 0.00000000E+00	 0.00000000E+00
					 0.00000000E+00	 0.00000000E+00	 0.00000000E+00
					 0.00000000E+00	 0.00000000E+00	 0.00000000E+00
					 0.00000000E+00	 0.00000000E+00	 0.00000000E+00
					 0.00000000E+00	 0.00000000E+00	 0.00000000E+00
					 0.00000000E+00	 0.00000000E+00	 0.00000000E+00
					 0.00000000E+00	 0.00000000E+00	 0.00000000E+00
					 0.00000000E+00	 0.00000000E+00	 0.00000000E+00
					 0.00000000E+00	 0.00000000E+00	 0.00000000E+00
					 0.00000000E+00	 0.00000000E+00	 0.00000000E+00
					 0.00000000E+00	 0.00000000E+00	 0.00000000E+00
					 0.00000000E+00	 0.00000000E+00	 0.00000000E+00
					 0.00000000E+00	 0.00000000E+00	 0.00000000E+00
					 0.00000000E+00	 0.00000000E+00	 0.00000000E+00
					 0.00000000E+00	 0.00000000E+00	 0.00000000E+00
					 0.00000000E+00	 0.00000000E+00	 0.00000000E+00
					 0.00000000E+00	 0.00000000E+00	 0.00000000E+00
					 0.00000000E+00	 0.00000000E+00	 0.00000000E+00
					 0.00000000E+00	 0.00000000E+00	 0.00000000E+00
					 0.00000000E+00	 0.00000000E+00	 0.00000000E+00
					 0.00000000E+00	 0.00000000E+00	 0.00000000E+00
					 0.00000000E+00	 0.00000000E+00	 0.00000000E+00
					 0.00000000E+00	 0.00000000E+00	 0.00000000E+00
					 0.00000000E+00	 0.00000000E+00	 0.00000000E+00
					 0.00000000E+00	 0.00000000E+00	 0.00000000E+00
					 0.00000000E+00	 0.00000000E+00	 0.00000000E+00
					 0.00000000E+00	 0.00000000E+00	 0.00000000E+00
					 0.00000000E+00	 0.00000000E+00	 0.00000000E+00
					 0.00000000E+00	 0.00000000E+00	 0.00000000E+00
					 0.00000000E+00	 0.00000000E+00	 0.00000000E+00
					 0.00000000E+00	 0.00000000E+00	 0.00000000E+00
					 0.00000000E+00	 0.00000000E+00	 0.00000000E+00
					 0.00000000E+00	 0.00000000E+00	 0.00000000E+00
					 0.00000000E+00	 0.00000000E+00	 0.00000000E+00
					 0.00000000E+00	 0.00000000E+00	 0.00000000E+00
					 0.00000000E+00	 0.00000000E+00	 0.00000000E+00
					 0.00000000E+00	 0.00000000E+00	 0.00000000E+00
					 0.00000000E+00	 0.00000000E+00	 0.00000000E+00
					 0.00000000E+00	 0.00000000E+00	 0.00000000E+00
					 0.00000000E+00	 0.00000000E+00	 0.00000000E+00
					 0.00000000E+00	 0.00000000E+00	 0.00000000E+00
					 0.00000000E+00	 0.00000000E+00	 0.00000000E+00
					 0.00000000E+00	 0.00000000E+00	 0.00000000E+00
					 0.00000000E+00	 0.00000000E+00	 0.00000000E+00
					 0.00000000E+00	 0.00000000E+00	 0.00000000E+00
					 0.00000000E+00	 0.00000000E+00	 0.00000000E+00
					 0.00000000E+00	 0.00000000E+00	 0.00000000E+00
					 0.00000000E+00	 0.00000000E+00	 0.00000000E+00
					 0.00000000E+00	 0.00000000E+00	 0.00000000E+00
					 0.00000000E+00	 0.00000000E+00	 0.00000000E+00
					 0.00000000E+00	 0.00000000E+00	 0.00000000E+00
					 0.00000000E+00	 0.00000000E+00	 0.00000000E+00
					 0.00000000E+00	 0.00000000E+00	 0.00000000E+00
					 0.00000000E+00	 0.00000000E+00	 0.00000000E+00
					 0.00000000E+00	 0.00000000E+00	 0.00000000E+00
					 0.00000000E+00	 0.00000000E+00	 0.00000000E+00
					 0.00000000E+00	 0.00000000E+00	 0.00000000E+00
					 0.00000000E+00	 0.00000000E+00	 0.00000000E+00
					 0.00000000E+00	 0.00000000E+00	 0.00000000E+00
					 0.00000000E+00	 0.00000000E+00	 0.00000000E+00
					 0.00000000E+00	 0.00000000E+00	 0.00000000E+00
					 0.00000000E+00	 0.00000000E+00	 0.00000000E+00
					 0.00000000E+00	 0.00000000E+00	 0.00000000E+00
					 0.00000000E+00	 0.00000000E+00	 0.00000000E+00
					 0.00000000E+00	 0.00000000E+00	 0.00000000E+00
					 0.00000000E+00	 0.00000000E+00	 0.00000000E+00
					 0.00000000E+00	 0.00000000E+00	 0.00000000E+00
					 0.00000000E+00	 0.00000000E+00	 0.00000000E+00
					 0.00000000E+00	 0.00000000E+00	 0.00000000E+00
					 0.00000000E+00	 0.00000000E+00	 0.00000000E+00
					 0.00000000E+00	 0.00000000E+00	 0.00000000E+00
					 0.00000000E+00	 0.00000000E+00	 0.00000000E+00
					 0.00000000E+00	 0.00000000E+00	 0.00000000E+00
					 0.00000000E+00	 0.00000000E+00	 0.00000000E+00
					 0.00000000E+00	 0.00000000E+00	 0.00000000E+00
					 0.00000000E+00	 0.00000000E+00	 0.00000000E+00
					 0.00000000E+00	 0.00000000E+00	 0.00000000E+00
					 0.00000000E+00	 0.00000000E+00	 0.00000000E+00
					 0.00000000E+00	 0.00000000E+00	 0.00000000E+00
					 0.00000000E+00	 0.00000000E+00	 0.00000000E+00
					 0.00000000E+00	 0.00000000E+00	 0.00000000E+00
					 0.00000000E+00	 0.00000000E+00	 0.00000000E+00
					 0.00000000E+00	 0.00000000E+00	 0.00000000E+00
					 0.00000000E+00	 0.00000000E+00	 0.00000000E+00
					 0.00000000E+00	 0.00000000E+00	 0.00000000E+00
					 0.00000000E+00	 0.00000000E+00	 0.00000000E+00
					 0.00000000E+00	 0.00000000E+00	 0.00000000E+00
					 0.00000000E+00	 0.00000000E+00	 0.00000000E+00
					 0.00000000E+00	 0.00000000E+00	 0.00000000E+00
					 0.00000000E+00	 0.00000000E+00	 0.00000000E+00
					 0.00000000E+00	 0.00000000E+00	 0.00000000E+00
					 0.00000000E+00	 0.00000000E+00	 0.00000000E+00
					 0.00000000E+00	 0.00000000E+00	 0.00000000E+00
					 0.00000000E+00	 0.00000000E+00	 0.00000000E+00
					 0.00000000E+00	 0.00000000E+00	 0.00000000E+00
					 0.00000000E+00	 0.00000000E+00	 0.00000000E+00
					 0.00000000E+00	 0.00000000E+00	 0.00000000E+00
					 0.00000000E+00	 0.00000000E+00	 0.00000000E+00
					 0.00000000E+00	 0.00000000E+00	 0.00000000E+00
					 0.00000000E+00	 0.00000000E+00	 0.00000000E+00
					 0.00000000E+00	 0.00000000E+00	 0.00000000E+00
					 0.00000000E+00	 0.00000000E+00	 0.00000000E+00
					 0.00000000E+00	 0.00000000E+00	 0.00000000E+00
					 0.00000000E+00	 0.00000000E+00	 0.00000000E+00
					 0.00000000E+00	 0.00000000E+00	 0.00000000E+00
					 0.00000000E+00	 0.00000000E+00	 0.00000000E+00
					 0.00000000E+00	 0.00000000E+00	 0.00000000E+00
					 0.00000000E+00	 0.00000000E+00	 0.00000000E+00
					 0.00000000E+00	 0.00000000E+00	 0.00000000E+00
					 0.00000000E+00	 0.00000000E+00	 0.00000000E+00
					 0.00000000E+00	 0.00000000E+00	 0.00000000E+00
					 0.00000000E+00	 0.00000000E+00	 0.00000000E+00
					 0.00000000E+00	 0.00000000E+00	 0.00000000E+00
					 0.00000000E+00	 0.00000000E+00	 0.00000000E+00
					 0.00000000E+00	 0.00000000E+00	 0.00000000E+00
					 0.00000000E+00	 0.00000000E+00	 0.00000000E+00
					 0.00000000E+00	 0.00000000E+00	 0.00000000E+00
					 0.00000000E+00	 0.00000000E+00	 0.00000000E+00
					 0.00000000E+00	 0.00000000E+00	 0.00000000E+00
					 0.00000000E+00	 0.00000000E+00	 0.00000000E+00
					 0.00000000E+00	 0.00000000E+00	 0.00000000E+00
					 0.00000000E+00	 0.00000000E+00	 0.00000000E+00
					 0.00000000E+00	 0.00000000E+00	 0.00000000E+00
					 0.00000000E+00	 0.00000000E+00	 0.00000000E+00
					 0.00000000E+00	 0.00000000E+00	 0.00000000E+00
					 0.00000000E+00	 0.00000000E+00	 0.00000000E+00
					 0.00000000E+00	 0.00000000E+00	 0.00000000E+00
					 0.00000000E+00	 0.00000000E+00	 0.00000000E+00
					 0.00000000E+00	 0.00000000E+00	 0.00000000E+00
					 0.00000000E+00	 0.00000000E+00	 0.00000000E+00
					 0.00000000E+00	 0.00000000E+00	 0.00000000E+00
					 0.00000000E+00	 0.00000000E+00	 0.00000000E+00
					 0.00000000E+00	 0.00000000E+00	 0.00000000E+00
					 0.00000000E+00	 0.00000000E+00	 0.00000000E+00
					 0.00000000E+00	 0.00000000E+00	 0.00000000E+00
					 0.00000000E+00	 0.00000000E+00	 0.00000000E+00
					 0.00000000E+00	 0.00000000E+00	 0.00000000E+00
					 0.00000000E+00	 0.00000000E+00	 0.00000000E+00
					 0.00000000E+00	 0.00000000E+00	 0.00000000E+00
					 0.00000000E+00	 0.00000000E+00	 0.00000000E+00
					 0.00000000E+00	 0.00000000E+00	 0.00000000E+00
					 0.00000000E+00	 0.00000000E+00	 0.00000000E+00
					 0.00000000E+00	 0.00000000E+00	 0.00000000E+00
					 0.00000000E+00	 0.00000000E+00	 0.00000000E+00
					 0.00000000E+00	 0.00000000E+00	 0.00000000E+00
					 0.00000000E+00	 0.00000000E+00	 0.00000000E+00
					 0.00000000E+00	 0.00000000E+00	 0.00000000E+00
					 0.00000000E+00	 0.00000000E+00	 0.00000000E+00
					 0.00000000E+00	 0.00000000E+00	 0.00000000E+00
					 0.00000000E+00	 0.00000000E+00	 0.00000000E+00
					 0.00000000E+00	 0.00000000E+00	 0.00000000E+00
					 0.00000000E+00	 0.00000000E+00	 0.00000000E+00
					 0.00000000E+00	 0.00000000E+00	 0.00000000E+00
					 0.00000000E+00	 0.00000000E+00	 0.00000000E+00
					 0.00000000E+00	 0.00000000E+00	 0.00000000E+00
					 0.00000000E+00	 0.00000000E+00	 0.00000000E+00
					 0.00000000E+00	 0.00000000E+00	 0.00000000E+00
					 0.00000000E+00	 0.00000000E+00	 0.00000000E+00
					 0.00000000E+00	 0.00000000E+00	 0.00000000E+00
					 0.00000000E+00	 0.00000000E+00	 0.00000000E+00
					 0.00000000E+00	 0.00000000E+00	 0.00000000E+00
					 0.00000000E+00	 0.00000000E+00	 0.00000000E+00
					 0.00000000E+00	 0.00000000E+00	 0.00000000E+00
					 0.00000000E+00	 0.00000000E+00	 0.00000000E+00
					 0.00000000E+00	 0.00000000E+00	 0.00000000E+00
					 0.00000000E+00	 0.00000000E+00	 0.00000000E+00
					 0.00000000E+00	 0.00000000E+00	 0.00000000E+00
					 0.00000000E+00	 0.00000000E+00	 0.00000000E+00
					 0.00000000E+00	 0.00000000E+00	 0.00000000E+00
					 0.00000000E+00	 0.00000000E+00	 0.00000000E+00
					 0.00000000E+00	 0.00000000E+00	 0.00000000E+00
					 0.00000000E+00	 0.00000000E+00	 0.00000000E+00
					 0.00000000E+00	 0.00000000E+00	 0.00000000E+00
					 0.00000000E+00	 0.00000000E+00	 0.00000000E+00
					 0.00000000E+00	 0.00000000E+00	 0.00000000E+00
					 0.00000000E+00	 0.00000000E+00	 0.00000000E+00
					 0.00000000E+00	 0.00000000E+00	 0.00000000E+00
					 0.00000000E+00	 0.00000000E+00	 0.00000000E+00
					 0.00000000E+00	 0.00000000E+00	 0.00000000E+00
					 0.00000000E+00	 0.00000000E+00	 0.00000000E+00
					 0.00000000E+00	 0.00000000E+00	 0.00000000E+00
					 0.00000000E+00	 0.00000000E+00	 0.00000000E+00
					 0.00000000E+00	 0.00000000E+00	 0.00000000E+00
					 0.00000000E+00	 0.00000000E+00	 0.00000000E+00
					 0.00000000E+00	 0.00000000E+00	 0.00000000E+00
					 0.00000000E+00	 0.00000000E+00	 0.00000000E+00
					 0.00000000E+00	 0.00000000E+00	 0.00000000E+00
					 0.00000000E+00	 0.00000000E+00	 0.00000000E+00
					 0.00000000E+00	 0.00000000E+00	 0.00000000E+00
					 0.00000000E+00	 0.00000000E+00	 0.00000000E+00
					 0.00000000E+00	 0.00000000E+00	 0.00000000E+00
					 0.00000000E+00	 0.00000000E+00	 0.00000000E+00
					 0.00000000E+00	 0.00000000E+00	 0.00000000E+00
					 0.00000000E+00	 0.00000000E+00	 0.00000000E+00
					 0.00000000E+00	 0.00000000E+00	 0.00000000E+00
					 0.00000000E+00	 0.00000000E+00	 0.00000000E+00
					 0.00000000E+00	 0.00000000E+00	 0.00000000E+00
					 0.00000000E+00	 0.00000000E+00	 0.00000000E+00
					 0.00000000E+00	 0.00000000E+00	 0.00000000E+00
					 0.00000000E+00	 0.00000000E+00	 0.00000000E+00
					 0.00000000E+00	 0.00000000E+00	 0.00000000E+00
					 0.00000000E+00	 0.00000000E+00	 0.00000000E+00
					 0.00000000E+00	 0.00000000E+00	 0.00000000E+00
					 0.00000000E+00	 0.00000000E+00	 0.00000000E+00
					 0.00000000E+00	 0.00000000E+00	 0.00000000E+00
					 0.00000000E+00	 0.00000000E+00	 0.00000000E+00
					 0.00000000E+00	 0.00000000E+00	 0.00000000E+00
					 0.00000000E+00	 0.00000000E+00	 0.00000000E+00
					 0.00000000E+00	 0.00000000E+00	 0.00000000E+00
					 0.00000000E+00	 0.00000000E+00	 0.00000000E+00
					 0.00000000E+00	 0.00000000E+00	 0.00000000E+00
					 0.00000000E+00	 0.00000000E+00	 0.00000000E+00
					 0.00000000E+00	 0.00000000E+00	 0.00000000E+00
					 0.00000000E+00	 0.00000000E+00	 0.00000000E+00
					 0.00000000E+00	 0.00000000E+00	 0.00000000E+00
					 0.00000000E+00	 0.00000000E+00	 0.00000000E+00
					 0.00000000E+00	 0.00000000E+00	 0.00000000E+00
					 0.00000000E+00	 0.00000000E+00	 0.00000000E+00
					 0.00000000E+00	 0.00000000E+00	 0.00000000E+00
					 0.00000000E+00	 0.00000000E+00	 0.00000000E+00
					 0.00000000E+00	 0.00000000E+00	 0.00000000E+00
					 0.00000000E+00	 0.00000000E+00	 0.00000000E+00
					 0.00000000E+00	 0.00000000E+00	 0.00000000E+00
					 0.00000000E+00	 0.00000000E+00	 0.00000000E+00
					 0.00000000E+00	 0.00000000E+00	 0.00000000E+00
					 0.00000000E+00	 0.00000000E+00	 0.00000000E+00
					 0.00000000E+00	 0.00000000E+00	 0.00000000E+00
					 0.00000000E+00	 0.00000000E+00	 0.00000000E+00
					 0.00000000E+00	 0.00000000E+00	 0.00000000E+00
					 0.00000000E+00	 0.00000000E+00	 0.00000000E+00
					 0.00000000E+00	 0.00000000E+00	 0.00000000E+00
					 0.00000000E+00	 0.00000000E+00	 0.00000000E+00
					 0.00000000E+00	 0.00000000E+00	 0.00000000E+00
					 0.00000000E+00	 0.00000000E+00	 0.00000000E+00
					 0.00000000E+00	 0.00000000E+00	 0.00000000E+00
					 0.00000000E+00	 0.00000000E+00	 0.00000000E+00
					 0.00000000E+00	 0.00000000E+00	 0.00000000E+00
					 0.00000000E+00	 0.00000000E+00	 0.00000000E+00
					 0.00000000E+00	 0.00000000E+00	 0.00000000E+00
					 0.00000000E+00	 0.00000000E+00	 0.00000000E+00
					 0.00000000E+00	 0.00000000E+00	 0.00000000E+00
					 0.00000000E+00	 0.00000000E+00	 0.00000000E+00
					 0.00000000E+00	 0.00000000E+00	 0.00000000E+00
					 0.00000000E+00	 0.00000000E+00	 0.00000000E+00
					 0.00000000E+00	 0.00000000E+00	 0.00000000E+00
					 0.00000000E+00	 0.00000000E+00	 0.00000000E+00
					 0.00000000E+00	 0.00000000E+00	 0.00000000E+00
					 0.00000000E+00	 0.00000000E+00	 0.00000000E+00
					 0.00000000E+00	 0.00000000E+00	 0.00000000E+00
					 0.00000000E+00	 0.00000000E+00	 0.00000000E+00
					 0.00000000E+00	 0.00000000E+00	 0.00000000E+00
					 0.00000000E+00	 0.00000000E+00	 0.00000000E+00
					 0.00000000E+00	 0.00000000E+00	 0.00000000E+00
					 0.00000000E+00	 0.00000000E+00	 0.00000000E+00
					 0.00000000E+00	 0.00000000E+00	 0.00000000E+00
					 0.00000000E+00	 0.00000000E+00	 0.00000000E+00
					 0.00000000E+00	 0.00000000E+00	 0.00000000E+00
					 0.00000000E+00	 0.00000000E+00	 0.00000000E+00
					 0.00000000E+00	 0.00000000E+00	 0.00000000E+00
					 0.00000000E+00	 0.00000000E+00	 0.00000000E+00
					 0.00000000E+00	 0.00000000E+00	 0.00000000E+00
					 0.00000000E+00	 0.00000000E+00	 0.00000000E+00
					 0.00000000E+00	 0.00000000E+00	 0.00000000E+00
					 0.00000000E+00	 0.00000000E+00	 0.00000000E+00
					 0.00000000E+00	 0.00000000E+00	 0.00000000E+00
					 0.00000000E+00	 0.00000000E+00	 0.00000000E+00
					 0.00000000E+00	 0.00000000E+00	 0.00000000E+00
					 0.00000000E+00	 0.00000000E+00	 0.00000000E+00
					 0.00000000E+00	 0.00000000E+00	 0.00000000E+00
					 0.00000000E+00	 0.00000000E+00	 0.00000000E+00
					 0.00000000E+00	 0.00000000E+00	 0.00000000E+00
					 0.00000000E+00	 0.00000000E+00	 0.00000000E+00
					 0.00000000E+00	 0.00000000E+00	 0.00000000E+00
					 0.00000000E+00	 0.00000000E+00	 0.00000000E+00
					 0.00000000E+00	 0.00000000E+00	 0.00000000E+00
					 0.00000000E+00	 0.00000000E+00	 0.00000000E+00
					 0.00000000E+00	 0.00000000E+00	 0.00000000E+00
					 0.00000000E+00	 0.00000000E+00	 0.00000000E+00
					 0.00000000E+00	 0.00000000E+00	 0.00000000E+00
					 0.00000000E+00	 0.00000000E+00	 0.00000000E+00
					 0.00000000E+00	 0.00000000E+00	 0.00000000E+00
					 0.00000000E+00	 0.00000000E+00	 0.00000000E+00
					 0.00000000E+00	 0.00000000E+00	 0.00000000E+00
					 0.00000000E+00	 0.00000000E+00	 0.00000000E+00
					 0.00000000E+00	 0.00000000E+00	 0.00000000E+00
					 0.00000000E+00	 0.00000000E+00	 0.00000000E+00
					 0.00000000E+00	 0.00000000E+00	 0.00000000E+00
					 0.00000000E+00	 0.00000000E+00	 0.00000000E+00
					 0.00000000E+00	 0.00000000E+00	 0.00000000E+00
					 0.00000000E+00	 0.00000000E+00	 0.00000000E+00
					 0.00000000E+00	 0.00000000E+00	 0.00000000E+00
					 0.00000000E+00	 0.00000000E+00	 0.00000000E+00