# vtk DataFile Version 3.0

ASCII
DATASET UNSTRUCTURED_GRID

POINTS 3473 double
	 1.00000000E+00	 1.00000000E+00	 0.00000000E+00
	 1.00000000E+00	 8.75000000E-01	 0.00000000E+00
	 1.00000000E+00	 8.75000000E-01	 1.25000000E-01
	 1.00000000E+00	 1.00000000E+00	 1.25000000E-01
	 8.75000000E-01	 1.00000000E+00	 0.00000000E+00
	 8.75000000E-01	 8.75000000E-01	 0.00000000E+00
	 8.75000000E-01	 8.75000000E-01	 1.25000000E-01
	 8.75000000E-01	 1.00000000E+00	 1.25000000E-01
	 1.00000000E+00	 9.37500000E-01	 0.00000000E+00
	 1.00000000E+00	 8.75000000E-01	 6.25000000E-02
	 1.00000000E+00	 9.37500000E-01	 1.25000000E-01
	 1.00000000E+00	 1.00000000E+00	 6.25000000E-02
	 9.37500000E-01	 1.00000000E+00	 0.00000000E+00
	 9.37500000E-01	 8.75000000E-01	 0.00000000E+00
	 9.37500000E-01	 8.75000000E-01	 1.25000000E-01
	 9.37500000E-01	 1.00000000E+00	 1.25000000E-01
	 8.75000000E-01	 9.37500000E-01	 0.00000000E+00
	 8.75000000E-01	 8.75000000E-01	 6.25000000E-02
	 8.75000000E-01	 9.37500000E-01	 1.25000000E-01
	 8.75000000E-01	 1.00000000E+00	 6.25000000E-02
	 1.00000000E+00	 8.75000000E-01	 2.50000000E-01
	 1.00000000E+00	 1.00000000E+00	 2.50000000E-01
	 8.75000000E-01	 8.75000000E-01	 2.50000000E-01
	 8.75000000E-01	 1.00000000E+00	 2.50000000E-01
	 1.00000000E+00	 8.75000000E-01	 1.87500000E-01
	 1.00000000E+00	 9.37500000E-01	 2.50000000E-01
	 1.00000000E+00	 1.00000000E+00	 1.87500000E-01
	 9.37500000E-01	 8.75000000E-01	 2.50000000E-01
	 9.37500000E-01	 1.00000000E+00	 2.50000000E-01
	 8.75000000E-01	 8.75000000E-01	 1.87500000E-01
	 8.75000000E-01	 9.37500000E-01	 2.50000000E-01
	 8.75000000E-01	 1.00000000E+00	 1.87500000E-01
	 1.00000000E+00	 8.75000000E-01	 3.75000000E-01
	 1.00000000E+00	 1.00000000E+00	 3.75000000E-01
	 8.75000000E-01	 8.75000000E-01	 3.75000000E-01
	 8.75000000E-01	 1.00000000E+00	 3.75000000E-01
	 1.00000000E+00	 8.75000000E-01	 3.12500000E-01
	 1.00000000E+00	 9.37500000E-01	 3.75000000E-01
	 1.00000000E+00	 1.00000000E+00	 3.12500000E-01
	 9.37500000E-01	 8.75000000E-01	 3.75000000E-01
	 9.37500000E-01	 1.00000000E+00	 3.75000000E-01
	 8.75000000E-01	 8.75000000E-01	 3.12500000E-01
	 8.75000000E-01	 9.37500000E-01	 3.75000000E-01
	 8.75000000E-01	 1.00000000E+00	 3.12500000E-01
	 1.00000000E+00	 8.75000000E-01	 5.00000000E-01
	 1.00000000E+00	 1.00000000E+00	 5.00000000E-01
	 8.75000000E-01	 8.75000000E-01	 5.00000000E-01
	 8.75000000E-01	 1.00000000E+00	 5.00000000E-01
	 1.00000000E+00	 8.75000000E-01	 4.37500000E-01
	 1.00000000E+00	 9.37500000E-01	 5.00000000E-01
	 1.00000000E+00	 1.00000000E+00	 4.37500000E-01
	 9.37500000E-01	 8.75000000E-01	 5.00000000E-01
	 9.37500000E-01	 1.00000000E+00	 5.00000000E-01
	 8.75000000E-01	 8.75000000E-01	 4.37500000E-01
	 8.75000000E-01	 9.37500000E-01	 5.00000000E-01
	 8.75000000E-01	 1.00000000E+00	 4.37500000E-01
	 1.00000000E+00	 8.75000000E-01	 6.25000000E-01
	 1.00000000E+00	 1.00000000E+00	 6.25000000E-01
	 8.75000000E-01	 8.75000000E-01	 6.25000000E-01
	 8.75000000E-01	 1.00000000E+00	 6.25000000E-01
	 1.00000000E+00	 8.75000000E-01	 5.62500000E-01
	 1.00000000E+00	 9.37500000E-01	 6.25000000E-01
	 1.00000000E+00	 1.00000000E+00	 5.62500000E-01
	 9.37500000E-01	 8.75000000E-01	 6.25000000E-01
	 9.37500000E-01	 1.00000000E+00	 6.25000000E-01
	 8.75000000E-01	 8.75000000E-01	 5.62500000E-01
	 8.75000000E-01	 9.37500000E-01	 6.25000000E-01
	 8.75000000E-01	 1.00000000E+00	 5.62500000E-01
	 1.00000000E+00	 8.75000000E-01	 7.50000000E-01
	 1.00000000E+00	 1.00000000E+00	 7.50000000E-01
	 8.75000000E-01	 8.75000000E-01	 7.50000000E-01
	 8.75000000E-01	 1.00000000E+00	 7.50000000E-01
	 1.00000000E+00	 8.75000000E-01	 6.87500000E-01
	 1.00000000E+00	 9.37500000E-01	 7.50000000E-01
	 1.00000000E+00	 1.00000000E+00	 6.87500000E-01
	 9.37500000E-01	 8.75000000E-01	 7.50000000E-01
	 9.37500000E-01	 1.00000000E+00	 7.50000000E-01
	 8.75000000E-01	 8.75000000E-01	 6.87500000E-01
	 8.75000000E-01	 9.37500000E-01	 7.50000000E-01
	 8.75000000E-01	 1.00000000E+00	 6.87500000E-01
	 1.00000000E+00	 8.75000000E-01	 8.75000000E-01
	 1.00000000E+00	 1.00000000E+00	 8.75000000E-01
	 8.75000000E-01	 8.75000000E-01	 8.75000000E-01
	 8.75000000E-01	 1.00000000E+00	 8.75000000E-01
	 1.00000000E+00	 8.75000000E-01	 8.12500000E-01
	 1.00000000E+00	 9.37500000E-01	 8.75000000E-01
	 1.00000000E+00	 1.00000000E+00	 8.12500000E-01
	 9.37500000E-01	 8.75000000E-01	 8.75000000E-01
	 9.37500000E-01	 1.00000000E+00	 8.75000000E-01
	 8.75000000E-01	 8.75000000E-01	 8.12500000E-01
	 8.75000000E-01	 9.37500000E-01	 8.75000000E-01
	 8.75000000E-01	 1.00000000E+00	 8.12500000E-01
	 1.00000000E+00	 8.75000000E-01	 1.00000000E+00
	 1.00000000E+00	 1.00000000E+00	 1.00000000E+00
	 8.75000000E-01	 8.75000000E-01	 1.00000000E+00
	 8.75000000E-01	 1.00000000E+00	 1.00000000E+00
	 1.00000000E+00	 8.75000000E-01	 9.37500000E-01
	 1.00000000E+00	 9.37500000E-01	 1.00000000E+00
	 1.00000000E+00	 1.00000000E+00	 9.37500000E-01
	 9.37500000E-01	 8.75000000E-01	 1.00000000E+00
	 9.37500000E-01	 1.00000000E+00	 1.00000000E+00
	 8.75000000E-01	 8.75000000E-01	 9.37500000E-01
	 8.75000000E-01	 9.37500000E-01	 1.00000000E+00
	 8.75000000E-01	 1.00000000E+00	 9.37500000E-01
	 7.50000000E-01	 1.00000000E+00	 0.00000000E+00
	 7.50000000E-01	 8.75000000E-01	 0.00000000E+00
	 7.50000000E-01	 8.75000000E-01	 1.25000000E-01
	 7.50000000E-01	 1.00000000E+00	 1.25000000E-01
	 8.12500000E-01	 1.00000000E+00	 0.00000000E+00
	 8.12500000E-01	 8.75000000E-01	 0.00000000E+00
	 8.12500000E-01	 8.75000000E-01	 1.25000000E-01
	 8.12500000E-01	 1.00000000E+00	 1.25000000E-01
	 7.50000000E-01	 9.37500000E-01	 0.00000000E+00
	 7.50000000E-01	 8.75000000E-01	 6.25000000E-02
	 7.50000000E-01	 9.37500000E-01	 1.25000000E-01
	 7.50000000E-01	 1.00000000E+00	 6.25000000E-02
	 7.50000000E-01	 8.75000000E-01	 2.50000000E-01
	 7.50000000E-01	 1.00000000E+00	 2.50000000E-01
	 8.12500000E-01	 8.75000000E-01	 2.50000000E-01
	 8.12500000E-01	 1.00000000E+00	 2.50000000E-01
	 7.50000000E-01	 8.75000000E-01	 1.87500000E-01
	 7.50000000E-01	 9.37500000E-01	 2.50000000E-01
	 7.50000000E-01	 1.00000000E+00	 1.87500000E-01
	 7.50000000E-01	 8.75000000E-01	 3.75000000E-01
	 7.50000000E-01	 1.00000000E+00	 3.75000000E-01
	 8.12500000E-01	 8.75000000E-01	 3.75000000E-01
	 8.12500000E-01	 1.00000000E+00	 3.75000000E-01
	 7.50000000E-01	 8.75000000E-01	 3.12500000E-01
	 7.50000000E-01	 9.37500000E-01	 3.75000000E-01
	 7.50000000E-01	 1.00000000E+00	 3.12500000E-01
	 7.50000000E-01	 8.75000000E-01	 5.00000000E-01
	 7.50000000E-01	 1.00000000E+00	 5.00000000E-01
	 8.12500000E-01	 8.75000000E-01	 5.00000000E-01
	 8.12500000E-01	 1.00000000E+00	 5.00000000E-01
	 7.50000000E-01	 8.75000000E-01	 4.37500000E-01
	 7.50000000E-01	 9.37500000E-01	 5.00000000E-01
	 7.50000000E-01	 1.00000000E+00	 4.37500000E-01
	 7.50000000E-01	 8.75000000E-01	 6.25000000E-01
	 7.50000000E-01	 1.00000000E+00	 6.25000000E-01
	 8.12500000E-01	 8.75000000E-01	 6.25000000E-01
	 8.12500000E-01	 1.00000000E+00	 6.25000000E-01
	 7.50000000E-01	 8.75000000E-01	 5.62500000E-01
	 7.50000000E-01	 9.37500000E-01	 6.25000000E-01
	 7.50000000E-01	 1.00000000E+00	 5.62500000E-01
	 7.50000000E-01	 8.75000000E-01	 7.50000000E-01
	 7.50000000E-01	 1.00000000E+00	 7.50000000E-01
	 8.12500000E-01	 8.75000000E-01	 7.50000000E-01
	 8.12500000E-01	 1.00000000E+00	 7.50000000E-01
	 7.50000000E-01	 8.75000000E-01	 6.87500000E-01
	 7.50000000E-01	 9.37500000E-01	 7.50000000E-01
	 7.50000000E-01	 1.00000000E+00	 6.87500000E-01
	 7.50000000E-01	 8.75000000E-01	 8.75000000E-01
	 7.50000000E-01	 1.00000000E+00	 8.75000000E-01
	 8.12500000E-01	 8.75000000E-01	 8.75000000E-01
	 8.12500000E-01	 1.00000000E+00	 8.75000000E-01
	 7.50000000E-01	 8.75000000E-01	 8.12500000E-01
	 7.50000000E-01	 9.37500000E-01	 8.75000000E-01
	 7.50000000E-01	 1.00000000E+00	 8.12500000E-01
	 7.50000000E-01	 8.75000000E-01	 1.00000000E+00
	 7.50000000E-01	 1.00000000E+00	 1.00000000E+00
	 8.12500000E-01	 8.75000000E-01	 1.00000000E+00
	 8.12500000E-01	 1.00000000E+00	 1.00000000E+00
	 7.50000000E-01	 8.75000000E-01	 9.37500000E-01
	 7.50000000E-01	 9.37500000E-01	 1.00000000E+00
	 7.50000000E-01	 1.00000000E+00	 9.37500000E-01
	 6.25000000E-01	 1.00000000E+00	 0.00000000E+00
	 6.25000000E-01	 8.75000000E-01	 0.00000000E+00
	 6.25000000E-01	 8.75000000E-01	 1.25000000E-01
	 6.25000000E-01	 1.00000000E+00	 1.25000000E-01
	 6.87500000E-01	 1.00000000E+00	 0.00000000E+00
	 6.87500000E-01	 8.75000000E-01	 0.00000000E+00
	 6.87500000E-01	 8.75000000E-01	 1.25000000E-01
	 6.87500000E-01	 1.00000000E+00	 1.25000000E-01
	 6.25000000E-01	 9.37500000E-01	 0.00000000E+00
	 6.25000000E-01	 8.75000000E-01	 6.25000000E-02
	 6.25000000E-01	 9.37500000E-01	 1.25000000E-01
	 6.25000000E-01	 1.00000000E+00	 6.25000000E-02
	 6.25000000E-01	 8.75000000E-01	 2.50000000E-01
	 6.25000000E-01	 1.00000000E+00	 2.50000000E-01
	 6.87500000E-01	 8.75000000E-01	 2.50000000E-01
	 6.87500000E-01	 1.00000000E+00	 2.50000000E-01
	 6.25000000E-01	 8.75000000E-01	 1.87500000E-01
	 6.25000000E-01	 9.37500000E-01	 2.50000000E-01
	 6.25000000E-01	 1.00000000E+00	 1.87500000E-01
	 6.25000000E-01	 8.75000000E-01	 3.75000000E-01
	 6.25000000E-01	 1.00000000E+00	 3.75000000E-01
	 6.87500000E-01	 8.75000000E-01	 3.75000000E-01
	 6.87500000E-01	 1.00000000E+00	 3.75000000E-01
	 6.25000000E-01	 8.75000000E-01	 3.12500000E-01
	 6.25000000E-01	 9.37500000E-01	 3.75000000E-01
	 6.25000000E-01	 1.00000000E+00	 3.12500000E-01
	 6.25000000E-01	 8.75000000E-01	 5.00000000E-01
	 6.25000000E-01	 1.00000000E+00	 5.00000000E-01
	 6.87500000E-01	 8.75000000E-01	 5.00000000E-01
	 6.87500000E-01	 1.00000000E+00	 5.00000000E-01
	 6.25000000E-01	 8.75000000E-01	 4.37500000E-01
	 6.25000000E-01	 9.37500000E-01	 5.00000000E-01
	 6.25000000E-01	 1.00000000E+00	 4.37500000E-01
	 6.25000000E-01	 8.75000000E-01	 6.25000000E-01
	 6.25000000E-01	 1.00000000E+00	 6.25000000E-01
	 6.87500000E-01	 8.75000000E-01	 6.25000000E-01
	 6.87500000E-01	 1.00000000E+00	 6.25000000E-01
[...]
POINT_DATA 3473
FIELD EMFB 1
	EMFB 3 3473 double
		-1.77233000E-14	 1.77233000E-14	-1.28658000E-22
		-1.39910000E-14	-4.03915000E-13	-1.39331000E-14
		-2.32897000E-15	-5.17580000E-13	-6.08412000E-14
		-9.26744000E-15	 9.26744000E-15	-5.51143000E-21
		 4.03915000E-13	 1.39910000E-14	 1.39331000E-14
		 4.45965000E-13	-4.45965000E-13	-1.65931000E-22
		 6.00693000E-13	-6.00693000E-13	-7.14423000E-21
		 5.17580000E-13	 2.32897000E-15	 6.08412000E-14
		-1.55221000E-14	-1.88528000E-13	-7.77647000E-15
		-7.16083000E-15	-4.61140000E-13	-4.02422000E-14
		-5.33889000E-15	-2.51385000E-13	-3.08170000E-14
		-1.24441000E-14	 1.24441000E-14	-2.76906000E-21
		 1.88528000E-13	 1.55221000E-14	 7.77647000E-15
		 2.13401000E-13	-4.23872000E-13	-5.72756000E-15
		 3.00201000E-13	-5.57670000E-13	-2.95815000E-14
		 2.51385000E-13	 5.33889000E-15	 3.08170000E-14
		 4.23872000E-13	-2.13401000E-13	 5.72756000E-15
		 5.23584000E-13	-5.23584000E-13	-3.58956000E-21
		 5.57670000E-13	-3.00201000E-13	 2.95815000E-14
		 4.61140000E-13	 7.16083000E-15	 4.02422000E-14
		-3.36719000E-15	-5.88456000E-13	-4.62988000E-14
		-1.29946000E-14	 1.29946000E-14	-8.40001000E-21
		 7.02659000E-13	-7.02659000E-13	-1.09263000E-20
		 5.88456000E-13	 3.36719000E-15	 4.62988000E-14
		-3.71058000E-15	-5.52652000E-13	-5.11793000E-14
		-7.50095000E-15	-2.83973000E-13	-2.30967000E-14
		-1.20415000E-14	 1.20415000E-14	-6.99440000E-21
		 3.50586000E-13	-6.43810000E-13	-2.28420000E-14
		 2.83973000E-13	 7.50095000E-15	 2.30967000E-14
		 6.51481000E-13	-6.51481000E-13	-9.09966000E-21
		 6.43810000E-13	-3.50586000E-13	 2.28420000E-14
		 5.52652000E-13	 3.71058000E-15	 5.11793000E-14
		-3.51151000E-15	-6.30933000E-13	-2.43717000E-14
		-1.50521000E-14	 1.50521000E-14	-7.25210000E-21
		 7.61590000E-13	-7.61590000E-13	-9.40097000E-21
		 6.30933000E-13	 3.51151000E-15	 2.43717000E-14
		-3.54704000E-15	-6.09668000E-13	-3.50001000E-14
		-8.47569000E-15	-3.03665000E-13	-1.21237000E-14
		-1.41482000E-14	 1.41482000E-14	-7.88172000E-21
		 3.79954000E-13	-6.94357000E-13	-1.20743000E-14
		 3.03665000E-13	 8.47569000E-15	 1.21237000E-14
		 7.32134000E-13	-7.32134000E-13	-1.01858000E-20
		 6.94357000E-13	-3.79954000E-13	 1.20743000E-14
		 6.09668000E-13	 3.54704000E-15	 3.50001000E-14
		-3.54123000E-15	-6.45125000E-13	 1.99267000E-21
		-1.57085000E-14	 1.57085000E-14	-2.73745000E-21
		 7.80613000E-13	-7.80613000E-13	-3.14806000E-21
		 6.45125000E-13	 3.54123000E-15	-7.78914000E-21
		-3.55535000E-15	-6.38030000E-13	-1.21256000E-14
		-8.77871000E-15	-3.10264000E-13	-3.90890000E-22
		-1.53964000E-14	 1.53964000E-14	-5.02158000E-21
		 3.89459000E-13	-7.10924000E-13	-5.63594000E-22
		 3.10264000E-13	 8.77871000E-15	-5.22392000E-21
		 7.71034000E-13	-7.71034000E-13	-6.39016000E-21
		 7.10924000E-13	-3.89459000E-13	-5.49590000E-21
		 6.38030000E-13	 3.55535000E-15	 1.21256000E-14
		-3.51151000E-15	-6.30933000E-13	 2.43717000E-14
		-1.50521000E-14	 1.50521000E-14	 2.51255000E-21
		 7.61590000E-13	-7.61590000E-13	 4.22652000E-21
		 6.30933000E-13	 3.51151000E-15	-2.43717000E-14
		-3.55535000E-15	-6.38030000E-13	 1.21256000E-14
		-8.47568000E-15	-3.03665000E-13	 1.21237000E-14
		-1.53964000E-14	 1.53964000E-14	-1.09935000E-22
		 3.79954000E-13	-6.94357000E-13	 1.20743000E-14
		 3.03665000E-13	 8.47569000E-15	-1.21237000E-14
		 7.71034000E-13	-7.71034000E-13	 6.34508000E-22
		 6.94357000E-13	-3.79954000E-13	-1.20743000E-14
		 6.38030000E-13	 3.55535000E-15	-1.21256000E-14
		-3.36719000E-15	-5.88456000E-13	 4.62988000E-14
		-1.29946000E-14	 1.29946000E-14	 5.32836000E-21
		 7.02659000E-13	-7.02659000E-13	 8.09239000E-21
		 5.88456000E-13	 3.36719000E-15	-4.62988000E-14
		-3.54703000E-15	-6.09668000E-13	 3.50001000E-14
		-7.50095000E-15	-2.83973000E-13	 2.30967000E-14
		-1.41481000E-14	 1.41481000E-14	 3.98498000E-21
		 3.50586000E-13	-6.43810000E-13	 2.28420000E-14
		 2.83973000E-13	 7.50095000E-15	-2.30967000E-14
		 7.32133000E-13	-7.32133000E-13	 6.16548000E-21
		 6.43810000E-13	-3.50586000E-13	-2.28420000E-14
		 6.09668000E-13	 3.54704000E-15	-3.50001000E-14
		-2.32897000E-15	-5.17580000E-13	 6.08412000E-14
		-9.26744000E-15	 9.26744000E-15	 4.11280000E-21
		 6.00693000E-13	-6.00693000E-13	 6.18405000E-21
		 5.17580000E-13	 2.32897000E-15	-6.08412000E-14
		-3.71058000E-15	-5.52652000E-13	 5.11793000E-14
		-5.33889000E-15	-2.51385000E-13	 3.08170000E-14
		-1.20415000E-14	 1.20415000E-14	 4.77876000E-21
		 3.00200000E-13	-5.57670000E-13	 2.95815000E-14
		 2.51385000E-13	 5.33889000E-15	-3.08170000E-14
		 6.51481000E-13	-6.51481000E-13	 7.24775000E-21
		 5.57670000E-13	-3.00200000E-13	-2.95815000E-14
		 5.52652000E-13	 3.71058000E-15	-5.11793000E-14
		-1.39910000E-14	-4.03915000E-13	 1.39331000E-14
		-1.77233000E-14	 1.77233000E-14	 1.36046000E-22
		 4.45965000E-13	-4.45965000E-13	 2.09929000E-22
		 4.03915000E-13	 1.39910000E-14	-1.39331000E-14
		-7.16083000E-15	-4.61140000E-13	 4.02422000E-14
		-1.55221000E-14	-1.88528000E-13	 7.77647000E-15
		-1.24441000E-14	 1.24441000E-14	 2.06937000E-21
		 2.13401000E-13	-4.23872000E-13	 5.72756000E-15
		 1.88528000E-13	 1.55221000E-14	-7.77647000E-15
		 5.23584000E-13	-5.23584000E-13	 3.12279000E-21
		 4.23872000E-13	-2.13401000E-13	-5.72756000E-15
		 4.61140000E-13	 7.16083000E-15	-4.02422000E-14
		 9.13618000E-13	 1.73098000E-14	 1.35043000E-14
		 1.00005000E-12	-4.41255000E-13	-3.74667000E-17
		 1.27998000E-12	-6.17414000E-13	 1.40526000E-14
		 1.10622000E-12	 8.66608000E-15	 7.24932000E-14
		 6.59441000E-13	 1.61271000E-14	 1.29850000E-14
		 7.22257000E-13	-4.42695000E-13	-1.04653000E-15
		 9.35898000E-13	-6.07454000E-13	 6.41244000E-15
		 8.10139000E-13	 6.19537000E-15	 6.63756000E-14
		 9.54057000E-13	-2.11778000E-13	 5.24869000E-15
		 1.13920000E-12	-5.29472000E-13	 6.66753000E-15
		 1.18911000E-12	-3.07917000E-13	 4.22491000E-14
		 1.00925000E-12	 1.20250000E-14	 4.55727000E-14
		 1.49254000E-12	-7.32618000E-13	 1.58598000E-14
		 1.26192000E-12	 1.11984000E-14	 5.91906000E-14
		 1.09267000E-12	-7.15676000E-13	 7.81206000E-15
		 9.23926000E-13	 8.25047000E-15	 5.29095000E-14
		 1.38709000E-12	-6.75040000E-13	 1.55076000E-14
		 1.37228000E-12	-3.64898000E-13	 3.71206000E-14
		 1.18454000E-12	 1.07584000E-14	 6.38542000E-14
		 1.61514000E-12	-7.96073000E-13	 9.09785000E-15
		 1.35845000E-12	 1.18315000E-14	 3.15112000E-14
		 1.18303000E-12	-7.76739000E-13	 4.52995000E-15
		 9.93495000E-13	 8.78700000E-15	 2.80637000E-14
		 1.55401000E-12	-7.64347000E-13	 1.23611000E-14
		 1.48123000E-12	-3.96406000E-13	 2.01393000E-14
		 1.31037000E-12	 1.16177000E-14	 4.49350000E-14
		 1.65419000E-12	-8.15931000E-13	-1.73194000E-21
		 1.39078000E-12	 1.19556000E-14	-6.75106000E-21
		 1.21198000E-12	-7.96156000E-13	-2.39201000E-21
		 1.01677000E-12	 8.90606000E-15	-7.33928000E-21
		 1.63448000E-12	-8.05839000E-13	 4.50695000E-15
		 1.51672000E-12	-4.06192000E-13	-4.26584000E-21
		 1.37463000E-12	 1.19277000E-14	 1.56762000E-14
		 1.61514000E-12	-7.96073000E-13	-9.09786000E-15
		 1.35845000E-12	 1.18315000E-14	-3.15112000E-14
		 1.18303000E-12	-7.76739000E-13	-4.52996000E-15
		 9.93495000E-13	 8.78700000E-15	-2.80637000E-14
		 1.63448000E-12	-8.05839000E-13	-4.50695000E-15
		 1.48123000E-12	-3.96406000E-13	-2.01393000E-14
		 1.37463000E-12	 1.19277000E-14	-1.56762000E-14
		 1.49254000E-12	-7.32618000E-13	-1.58598000E-14
		 1.26192000E-12	 1.11984000E-14	-5.91907000E-14
		 1.09267000E-12	-7.15676000E-13	-7.81206000E-15
		 9.23926000E-13	 8.25046000E-15	-5.29095000E-14
		 1.55401000E-12	-7.64347000E-13	-1.23611000E-14
		 1.37228000E-12	-3.64898000E-13	-3.71207000E-14
		 1.31037000E-12	 1.16177000E-14	-4.49350000E-14
		 1.27998000E-12	-6.17414000E-13	-1.40526000E-14
		 1.10622000E-12	 8.66608000E-15	-7.24932000E-14
		 9.35898000E-13	-6.07454000E-13	-6.41244000E-15
		 8.10139000E-13	 6.19537000E-15	-6.63756000E-14
		 1.38709000E-12	-6.75040000E-13	-1.55076000E-14
		 1.18911000E-12	-3.07916000E-13	-4.22491000E-14
		 1.18454000E-12	 1.07584000E-14	-6.38542000E-14
		 1.00005000E-12	-4.41255000E-13	 3.74667000E-17
		 9.13618000E-13	 1.73098000E-14	-1.35043000E-14
		 7.22257000E-13	-4.42695000E-13	 1.04653000E-15
		 6.59441000E-13	 1.61271000E-14	-1.29850000E-14
		 1.13920000E-12	-5.29472000E-13	-6.66753000E-15
		 9.54057000E-13	-2.11778000E-13	-5.24869000E-15
		 1.00925000E-12	 1.20249000E-14	-4.55727000E-14
		 1.34332000E-12	 1.71430000E-14	 8.30427000E-15
		 1.51514000E-12	-3.01917000E-13	 1.05484000E-16
		 1.94144000E-12	-4.26559000E-13	 1.12261000E-14
		 1.60839000E-12	 1.56684000E-14	 4.84243000E-14
		 1.12971000E-12	 1.67350000E-14	 1.09508000E-14
		 1.25375000E-12	-3.73016000E-13	 2.49123000E-16
		 1.60249000E-12	-5.23608000E-13	 1.27237000E-14
		 1.35959000E-12	 1.09468000E-14	 6.06009000E-14
		 1.43035000E-12	-1.50335000E-13	 3.70586000E-15
		 1.72677000E-12	-3.64101000E-13	 5.40861000E-15
		 1.77852000E-12	-2.23569000E-13	 2.93733000E-14
		 1.47437000E-12	 1.57797000E-14	 2.99366000E-14
		 2.26391000E-12	-5.11507000E-13	 1.31190000E-14
		 1.83722000E-12	 1.90235000E-14	 3.99839000E-14
		 1.86905000E-12	-6.24340000E-13	 1.44695000E-14
		 1.55176000E-12	 1.37575000E-14	 4.97914000E-14
		 2.10437000E-12	-4.69463000E-13	 1.26032000E-14
		 2.05368000E-12	-2.66254000E-13	 2.62564000E-14
		 1.72389000E-12	 1.78977000E-14	 4.30004000E-14
		 2.44490000E-12	-5.56157000E-13	 7.34093000E-15
		 1.98018000E-12	 1.98623000E-14	 2.13840000E-14
		 2.02072000E-12	-6.78893000E-13	 8.23975000E-15
		 1.67152000E-12	 1.44263000E-14	 2.65606000E-14
		 2.35466000E-12	-5.33680000E-13	 1.00990000E-14
		 2.21470000E-12	-2.88411000E-13	 1.42569000E-14
		 1.90908000E-12	 1.94703000E-14	 3.04460000E-14
		 2.50172000E-12	-5.69464000E-13	 7.97446000E-21
		 2.02780000E-12	 2.00751000E-14	 2.13733000E-21
		 2.06844000E-12	-6.95537000E-13	 2.87067000E-21
		 1.71161000E-12	 1.45451000E-14	-2.35883000E-21
		 2.47289000E-12	-5.62669000E-13	 3.76317000E-15
		 2.26661000E-12	-2.95176000E-13	 4.56951000E-21
		 2.00401000E-12	 2.00156000E-14	 1.05704000E-14
		 2.44490000E-12	-5.56157000E-13	-7.34092000E-15
		 1.98018000E-12	 1.98623000E-14	-2.13840000E-14
		 2.02072000E-12	-6.78893000E-13	-8.23975000E-15
		 1.67152000E-12	 1.44263000E-14	-2.65606000E-14
		 2.47289000E-12	-5.62669000E-13	-3.76316000E-15
		 2.21470000E-12	-2.88411000E-13	-1.42569000E-14
		 2.00401000E-12	 2.00156000E-14	-1.05704000E-14
		 2.26391000E-12	-5.11507000E-13	-1.31190000E-14
		 1.83722000E-12	 1.90235000E-14	-3.99839000E-14
		 1.86905000E-12	-6.24340000E-13	-1.44695000E-14
		 1.55176000E-12	 1.37575000E-14	-4.97914000E-14
		 2.35466000E-12	-5.33680000E-13	-1.00990000E-14
		 2.05368000E-12	-2.66254000E-13	-2.62564000E-14
		 1.90908000E-12	 1.94703000E-14	-3.04460000E-14
		 1.94144000E-12	-4.26558000E-13	-1.12261000E-14
		 1.60839000E-12	 1.56684000E-14	-4.84243000E-14
		 1.60249000E-12	-5.23608000E-13	-1.27237000E-14
		 1.35959000E-12	 1.09468000E-14	-6.06009000E-14
		 2.10437000E-12	-4.69463000E-13	-1.26032000E-14
		 1.77852000E-12	-2.23569000E-13	-2.93733000E-14
		 1.72389000E-12	 1.78977000E-14	-4.30004000E-14
		 1.51514000E-12	-3.01917000E-13	-1.05484000E-16
		 1.34332000E-12	 1.71430000E-14	-8.30427000E-15
		 1.25375000E-12	-3.73016000E-13	-2.49123000E-16
		 1.12971000E-12	 1.67350000E-14	-1.09508000E-14
		 1.72677000E-12	-3.64101000E-13	-5.40861000E-15
		 1.43035000E-12	-1.50334000E-13	-3.70586000E-15
		 1.47437000E-12	 1.57797000E-14	-2.99366000E-14
		 1.51876000E-12	 4.54415000E-22	-1.25379000E-21
		 1.73141000E-12	-3.85857000E-21	 8.40206000E-22
		 2.21223000E-12	 4.62987000E-21	-1.45839000E-20
		 1.81887000E-12	 3.70537000E-22	-9.16586000E-21
		 1.43369000E-12	 8.69332000E-15	 4.67687000E-15
		 1.63046000E-12	-1.59535000E-13	-8.50265000E-16
		 2.08848000E-12	-2.27846000E-13	 5.18491000E-15
		 1.71588000E-12	 8.93687000E-15	 2.45659000E-14
		 1.63373000E-12	-1.83458000E-21	-5.21762000E-23
		 1.96999000E-12	-1.50975000E-23	-8.72111000E-21
		 2.03329000E-12	 2.13182000E-21	-1.21622000E-20
		 1.66699000E-12	 4.32101000E-22	-4.34740000E-21
		 2.58542000E-12	 2.42551000E-20	-2.08418000E-20
		 2.07849000E-12	-8.59093000E-22	-7.91261000E-21
		 2.43784000E-12	-2.72550000E-13	 6.60994000E-15
		 1.96068000E-12	 1.04409000E-14	 2.01343000E-14
		 2.40098000E-12	 1.48834000E-20	-1.65235000E-20
		 2.35041000E-12	 1.18968000E-20	-1.59935000E-20
		 1.95004000E-12	-1.01069000E-21	-9.58590000E-21
		 2.79215000E-12	 3.02026000E-20	-9.99361000E-22
		 2.24060000E-12	-4.29982000E-21	 1.67327000E-21
		 2.63224000E-12	-2.95442000E-13	 3.66961000E-15
		 2.11365000E-12	 1.07529000E-14	 1.07714000E-14
		 2.68904000E-12	 2.72858000E-20	-5.50543000E-21
		 2.53379000E-12	 1.95397000E-20	 1.22303000E-22
		 2.15999000E-12	-1.96634000E-21	-4.53646000E-21
		 2.85550000E-12	 2.98315000E-20	 2.45915000E-20
		 2.29472000E-12	-1.46825000E-21	 1.30588000E-20
		 2.69263000E-12	-3.02424000E-13	 1.59737000E-20
		 2.16456000E-12	 1.09277000E-14	 7.64502000E-21
		 2.82324000E-12	 2.96533000E-20	 7.26941000E-21
		 2.59221000E-12	 1.51582000E-20	 2.02896000E-20
		 2.26767000E-12	-1.98102000E-21	 8.40419000E-21
		 2.79215000E-12	 1.20975000E-20	 2.65141000E-20
		 2.24060000E-12	-8.23797000E-23	 2.02296000E-20
		 2.63224000E-12	-2.95442000E-13	-3.66959000E-15
		 2.11365000E-12	 1.07529000E-14	-1.07714000E-14
		 2.82324000E-12	 2.16544000E-20	 2.36257000E-20
		 2.53379000E-12	 6.16579000E-21	 2.37963000E-20
		 2.26767000E-12	-1.53860000E-21	 1.78710000E-20
		 2.58542000E-12	-6.80260000E-22	 2.06016000E-20
		 2.07849000E-12	 1.26577000E-22	 1.71414000E-20
		 2.43784000E-12	-2.72550000E-13	-6.60994000E-15
		 1.96068000E-12	 1.04409000E-14	-2.01343000E-14
		 2.68904000E-12	 5.22378000E-21	 2.49879000E-20
		 2.35041000E-12	-2.43059000E-22	 1.89144000E-20
		 2.15999000E-12	-8.61656000E-23	 1.83365000E-20
		 2.21223000E-12	-5.30672000E-21	 1.06485000E-20
		 1.81887000E-12	 6.68944000E-23	 9.15997000E-21
		 2.08848000E-12	-2.27846000E-13	-5.18491000E-15
		 1.71588000E-12	 8.93686000E-15	-2.45659000E-14
		 2.40098000E-12	-2.98170000E-21	 1.56678000E-20
		 2.03329000E-12	-2.75478000E-21	 9.92607000E-21
		 1.95004000E-12	 1.76965000E-22	 1.29763000E-20
		 1.73141000E-12	-6.75196000E-21	-3.80858000E-22
		 1.51876000E-12	 8.02447000E-23	 2.54712000E-22
		 1.63046000E-12	-1.59535000E-13	 8.50265000E-16
		 1.43369000E-12	 8.69332000E-15	-4.67687000E-15
		 1.96999000E-12	-5.97966000E-21	 5.35954000E-21
		 1.63373000E-12	-3.31624000E-21	-1.07151000E-22
		 1.66699000E-12	 9.55468000E-23	 4.56688000E-21
		 1.34332000E-12	-1.71430000E-14	-8.30428000E-15
		 1.51514000E-12	 3.01917000E-13	-1.05484000E-16
		 1.94144000E-12	 4.26559000E-13	-1.12261000E-14
		 1.60839000E-12	-1.56684000E-14	-4.84243000E-14
		 1.43369000E-12	-8.69332000E-15	-4.67687000E-15
		 1.63046000E-12	 1.59535000E-13	 8.50266000E-16
		 2.08848000E-12	 2.27846000E-13	-5.18494000E-15
		 1.71588000E-12	-8.93687000E-15	-2.45659000E-14
		 1.43035000E-12	 1.50335000E-13	-3.70586000E-15
		 1.72677000E-12	 3.64101000E-13	-5.40862000E-15
		 1.77852000E-12	 2.23569000E-13	-2.93733000E-14
		 1.47437000E-12	-1.57797000E-14	-2.99366000E-14
		 2.26391000E-12	 5.11507000E-13	-1.31191000E-14
		 1.83722000E-12	-1.90235000E-14	-3.99840000E-14
		 2.43784000E-12	 2.72550000E-13	-6.60998000E-15
		 1.96068000E-12	-1.04409000E-14	-2.01343000E-14
		 2.10437000E-12	 4.69463000E-13	-1.26032000E-14
		 2.05368000E-12	 2.66254000E-13	-2.62564000E-14
		 1.72389000E-12	-1.78977000E-14	-4.30004000E-14
		 2.44490000E-12	 5.56157000E-13	-7.34093000E-15
		 1.98018000E-12	-1.98623000E-14	-2.13840000E-14
		 2.63224000E-12	 2.95442000E-13	-3.66961000E-15
		 2.11365000E-12	-1.07529000E-14	-1.07714000E-14
		 2.35466000E-12	 5.33680000E-13	-1.00990000E-14
		 2.21470000E-12	 2.88411000E-13	-1.42569000E-14
		 1.90908000E-12	-1.94703000E-14	-3.04460000E-14
		 2.50172000E-12	 5.69464000E-13	 2.91242000E-20
		 2.02780000E-12	-2.00751000E-14	 2.38221000E-20
		 2.69263000E-12	 3.02424000E-13	 2.77969000E-20
		 2.16456000E-12	-1.09277000E-14	 1.83215000E-20
		 2.47289000E-12	 5.62669000E-13	-3.76315000E-15
		 2.26661000E-12	 2.95176000E-13	 2.75899000E-20
		 2.00401000E-12	-2.00156000E-14	-1.05704000E-14
		 2.44490000E-12	 5.56157000E-13	 7.34097000E-15
		 1.98018000E-12	-1.98623000E-14	 2.13841000E-14
		 2.63224000E-12	 2.95442000E-13	 3.66964000E-15
		 2.11365000E-12	-1.07529000E-14	 1.07715000E-14
		 2.47289000E-12	 5.62669000E-13	 3.76320000E-15
		 2.21470000E-12	 2.88411000E-13	 1.42569000E-14
		 2.00401000E-12	-2.00156000E-14	 1.05704000E-14
		 2.26391000E-12	 5.11507000E-13	 1.31191000E-14
		 1.83722000E-12	-1.90235000E-14	 3.99840000E-14
		 2.43784000E-12	 2.72550000E-13	 6.60998000E-15
		 1.96068000E-12	-1.04409000E-14	 2.01343000E-14
		 2.35466000E-12	 5.33680000E-13	 1.00991000E-14
		 2.05368000E-12	 2.66254000E-13	 2.62564000E-14
		 1.90908000E-12	-1.94703000E-14	 3.04460000E-14
		 1.94144000E-12	 4.26558000E-13	 1.12261000E-14
		 1.60839000E-12	-1.56684000E-14	 4.84243000E-14
		 2.08848000E-12	 2.27846000E-13	 5.18493000E-15
		 1.71588000E-12	-8.93686000E-15	 2.45659000E-14
		 2.10437000E-12	 4.69463000E-13	 1.26032000E-14
		 1.77852000E-12	 2.23569000E-13	 2.93733000E-14
		 1.72389000E-12	-1.78977000E-14	 4.30004000E-14
		 1.51514000E-12	 3.01917000E-13	 1.05485000E-16
		 1.34332000E-12	-1.71430000E-14	 8.30427000E-15
		 1.63046000E-12	 1.59535000E-13	-8.50266000E-16
		 1.43369000E-12	-8.69332000E-15	 4.67687000E-15
		 1.72677000E-12	 3.64101000E-13	 5.40862000E-15
		 1.43035000E-12	 1.50334000E-13	 3.70586000E-15
		 1.47437000E-12	-1.57797000E-14	 2.99366000E-14
		 9.13618000E-13	-1.73098000E-14	-1.35043000E-14
		 1.00005000E-12	 4.41255000E-13	 3.74660000E-17
		 1.27998000E-12	 6.17414000E-13	-1.40526000E-14
		 1.10622000E-12	-8.66608000E-15	-7.24932000E-14
		 1.12971000E-12	-1.67350000E-14	-1.09508000E-14
		 1.25375000E-12	 3.73016000E-13	-2.49124000E-16
		 1.60249000E-12	 5.23608000E-13	-1.27238000E-14
		 1.35959000E-12	-1.09468000E-14	-6.06009000E-14
		 9.54057000E-13	 2.11778000E-13	-5.24869000E-15
		 1.13920000E-12	 5.29472000E-13	-6.66753000E-15
		 1.18911000E-12	 3.07917000E-13	-4.22491000E-14
		 1.00925000E-12	-1.20250000E-14	-4.55727000E-14
		 1.49254000E-12	 7.32618000E-13	-1.58599000E-14
		 1.26192000E-12	-1.11984000E-14	-5.91907000E-14
		 1.86905000E-12	 6.24340000E-13	-1.44695000E-14
		 1.55176000E-12	-1.37575000E-14	-4.97914000E-14
		 1.38709000E-12	 6.75040000E-13	-1.55076000E-14
		 1.37228000E-12	 3.64898000E-13	-3.71207000E-14
		 1.18454000E-12	-1.07584000E-14	-6.38542000E-14
		 1.61514000E-12	 7.96073000E-13	-9.09785000E-15
		 1.35845000E-12	-1.18315000E-14	-3.15112000E-14
		 2.02072000E-12	 6.78893000E-13	-8.23975000E-15
		 1.67152000E-12	-1.44263000E-14	-2.65606000E-14
		 1.55401000E-12	 7.64347000E-13	-1.23611000E-14
		 1.48123000E-12	 3.96406000E-13	-2.01393000E-14
		 1.31037000E-12	-1.16177000E-14	-4.49350000E-14
		 1.65419000E-12	 8.15931000E-13	 2.56656000E-20
		 1.39078000E-12	-1.19556000E-14	 2.62691000E-20
		 2.06844000E-12	 6.95537000E-13	 2.70207000E-20
		 1.71161000E-12	-1.45451000E-14	 2.52491000E-20
		 1.63448000E-12	 8.05839000E-13	-4.50693000E-15
		 1.51672000E-12	 4.06192000E-13	 2.58420000E-20
		 1.37463000E-12	-1.19277000E-14	-1.56762000E-14
		 1.61514000E-12	 7.96073000E-13	 9.09789000E-15
		 1.35845000E-12	-1.18315000E-14	 3.15112000E-14
		 2.02072000E-12	 6.78893000E-13	 8.23979000E-15
		 1.67152000E-12	-1.44263000E-14	 2.65606000E-14
		 1.63448000E-12	 8.05839000E-13	 4.50698000E-15
		 1.48123000E-12	 3.96406000E-13	 2.01393000E-14
		 1.37463000E-12	-1.19277000E-14	 1.56762000E-14
		 1.49254000E-12	 7.32618000E-13	 1.58599000E-14
		 1.26192000E-12	-1.11984000E-14	 5.91907000E-14
		 1.86905000E-12	 6.24340000E-13	 1.44695000E-14
		 1.55176000E-12	-1.37575000E-14	 4.97914000E-14
		 1.55401000E-12	 7.64347000E-13	 1.23611000E-14
		 1.37228000E-12	 3.64898000E-13	 3.71207000E-14
		 1.31037000E-12	-1.16177000E-14	 4.49351000E-14
		 1.27998000E-12	 6.17414000E-13	 1.40526000E-14
		 1.10622000E-12	-8.66608000E-15	 7.24932000E-14
		 1.60249000E-12	 5.23608000E-13	 1.27238000E-14
		 1.35959000E-12	-1.09468000E-14	 6.06009000E-14