<?xml version="1.0"?>
<VTKFile type="UnstructuredGrid" version="0.1" byte_order="LittleEndian">
	<UnstructuredGrid>
		<Piece NumberOfPoints="261" NumberOfCells="32">
			<Points>
				<DataArray type="Float64" NumberOfComponents="3" format="ascii">
					 0.00000000E+00	 0.00000000E+00	 0.00000000E+00
					 1.00000000E+00	 0.00000000E+00	 0.00000000E+00
					 1.00000000E+00	 1.00000000E+00	 0.00000000E+00
					 0.00000000E+00	 1.00000000E+00	 0.00000000E+00
					 0.00000000E+00	 0.00000000E+00	 8.00000000E+00
					 1.00000000E+00	 0.00000000E+00	 8.00000000E+00
					 1.00000000E+00	 1.00000000E+00	 8.00000000E+00
					 0.00000000E+00	 1.00000000E+00	 8.00000000E+00
					 2.50000000E-01	 0.00000000E+00	 0.00000000E+00
					 5.00000000E-01	 0.00000000E+00	 0.00000000E+00
					 7.50000000E-01	 0.00000000E+00	 0.00000000E+00
					 1.00000000E+00	 2.50000000E-01	 0.00000000E+00
					 1.00000000E+00	 5.00000000E-01	 0.00000000E+00
					 1.00000000E+00	 7.50000000E-01	 0.00000000E+00
					 7.50000000E-01	 1.00000000E+00	 0.00000000E+00
					 5.00000000E-01	 1.00000000E+00	 0.00000000E+00
					 2.50000000E-01	 1.00000000E+00	 0.00000000E+00
					 0.00000000E+00	 7.50000000E-01	 0.00000000E+00
					 0.00000000E+00	 5.00000000E-01	 0.00000000E+00
					 0.00000000E+00	 2.50000000E-01	 0.00000000E+00
					 2.50000000E-01	 0.00000000E+00	 8.00000000E+00
					 5.00000000E-01	 0.00000000E+00	 8.00000000E+00
					 7.50000000E-01	 0.00000000E+00	 8.00000000E+00
					 1.00000000E+00	 2.50000000E-01	 8.00000000E+00
					 1.00000000E+00	 5.00000000E-01	 8.00000000E+00
					 1.00000000E+00	 7.50000000E-01	 8.00000000E+00
					 7.50000000E-01	 1.00000000E+00	 8.00000000E+00
					 5.00000000E-01	 1.00000000E+00	 8.00000000E+00
					 2.50000000E-01	 1.00000000E+00	 8.00000000E+00
					 0.00000000E+00	 7.50000000E-01	 8.00000000E+00
					 0.00000000E+00	 5.00000000E-01	 8.00000000E+00
					 0.00000000E+00	 2.50000000E-01	 8.00000000E+00
					 1.00000000E+00	 0.00000000E+00	 5.00000000E-01
					 1.00000000E+00	 0.00000000E+00	 1.00000000E+00
					 1.00000000E+00	 0.00000000E+00	 1.50000000E+00
					 1.00000000E+00	 0.00000000E+00	 2.00000000E+00
					 1.00000000E+00	 0.00000000E+00	 2.50000000E+00
					 1.00000000E+00	 0.00000000E+00	 3.00000000E+00
					 1.00000000E+00	 0.00000000E+00	 3.50000000E+00
					 1.00000000E+00	 0.00000000E+00	 4.00000000E+00
					 1.00000000E+00	 0.00000000E+00	 4.50000000E+00
					 1.00000000E+00	 0.00000000E+00	 5.00000000E+00
					 1.00000000E+00	 0.00000000E+00	 5.50000000E+00
					 1.00000000E+00	 0.00000000E+00	 6.00000000E+00
					 1.00000000E+00	 0.00000000E+00	 6.50000000E+00
					 1.00000000E+00	 0.00000000E+00	 7.00000000E+00
					 1.00000000E+00	 0.00000000E+00	 7.50000000E+00
					 0.00000000E+00	 0.00000000E+00	 7.50000000E+00
					 0.00000000E+00	 0.00000000E+00	 7.00000000E+00
					 0.00000000E+00	 0.00000000E+00	 6.50000000E+00
					 0.00000000E+00	 0.00000000E+00	 6.00000000E+00
					 0.00000000E+00	 0.00000000E+00	 5.50000000E+00
					 0.00000000E+00	 0.00000000E+00	 5.00000000E+00
					 0.00000000E+00	 0.00000000E+00	 4.50000000E+00
					 0.00000000E+00	 0.00000000E+00	 4.00000000E+00
					 0.00000000E+00	 0.00000000E+00	 3.50000000E+00
					 0.00000000E+00	 0.00000000E+00	 3.00000000E+00
					 0.00000000E+00	 0.00000000E+00	 2.50000000E+00
					 0.00000000E+00	 0.00000000E+00	 2.00000000E+00
					 0.00000000E+00	 0.00000000E+00	 1.50000000E+00
					 0.00000000E+00	 0.00000000E+00	 1.00000000E+00
					 0.00000000E+00	 0.00000000E+00	 5.00000000E-01
					 1.00000000E+00	 1.00000000E+00	 5.00000000E-01
					 1.00000000E+00	 1.00000000E+00	 1.00000000E+00
					 1.00000000E+00	 1.00000000E+00	 1.50000000E+00
					 1.00000000E+00	 1.00000000E+00	 2.00000000E+00
					 1.00000000E+00	 1.00000000E+00	 2.50000000E+00
					 1.00000000E+00	 1.00000000E+00	 3.00000000E+00
					 1.00000000E+00	 1.00000000E+00	 3.50000000E+00
					 1.00000000E+00	 1.00000000E+00	 4.00000000E+00
					 1.00000000E+00	 1.00000000E+00	 4.50000000E+00
					 1.00000000E+00	 1.00000000E+00	 5.00000000E+00
					 1.00000000E+00	 1.00000000E+00	 5.50000000E+00
					 1.00000000E+00	 1.00000000E+00	 6.00000000E+00
					 1.00000000E+00	 1.00000000E+00	 6.50000000E+00
					 1.00000000E+00	 1.00000000E+00	 7.00000000E+00
					 1.00000000E+00	 1.00000000E+00	 7.50000000E+00
					 0.00000000E+00	 1.00000000E+00	 5.00000000E-01
					 0.00000000E+00	 1.00000000E+00	 1.00000000E+00
					 0.00000000E+00	 1.00000000E+00	 1.50000000E+00
					 0.00000000E+00	 1.00000000E+00	 2.00000000E+00
					 0.00000000E+00	 1.00000000E+00	 2.50000000E+00
					 0.00000000E+00	 1.00000000E+00	 3.00000000E+00
					 0.00000000E+00	 1.00000000E+00	 3.50000000E+00
					 0.00000000E+00	 1.00000000E+00	 4.00000000E+00
					 0.00000000E+00	 1.00000000E+00	 4.50000000E+00
					 0.00000000E+00	 1.00000000E+00	 5.00000000E+00
					 0.00000000E+00	 1.00000000E+00	 5.50000000E+00
					 0.00000000E+00	 1.00000000E+00	 6.00000000E+00
					 0.00000000E+00	 1.00000000E+00	 6.50000000E+00
					 0.00000000E+00	 1.00000000E+00	 7.00000000E+00
					 0.00000000E+00	 1.00000000E+00	 7.50000000E+00
					 5.00000000E-01	 2.50000000E-01	 0.00000000E+00
					 2.50000000E-01	 5.00000000E-01	 0.00000000E+00
					 5.00000000E-01	 5.00000000E-01	 0.00000000E+00
					 7.50000000E-01	 5.00000000E-01	 0.00000000E+00
					 5.00000000E-01	 7.50000000E-01	 0.00000000E+00
					 5.00000000E-01	 2.50000000E-01	 8.00000000E+00
					 2.50000000E-01	 5.00000000E-01	 8.00000000E+00
					 5.00000000E-01	 5.00000000E-01	 8.00000000E+00
					 7.50000000E-01	 5.00000000E-01	 8.00000000E+00
					 5.00000000E-01	 7.50000000E-01	 8.00000000E+00
					 5.00000000E-01	 0.00000000E+00	 5.00000000E-01
					 2.50000000E-01	 0.00000000E+00	 1.00000000E+00
					 5.00000000E-01	 0.00000000E+00	 1.00000000E+00
					 7.50000000E-01	 0.00000000E+00	 1.00000000E+00
					 5.00000000E-01	 0.00000000E+00	 1.50000000E+00
					 2.50000000E-01	 0.00000000E+00	 2.00000000E+00
					 5.00000000E-01	 0.00000000E+00	 2.00000000E+00
					 7.50000000E-01	 0.00000000E+00	 2.00000000E+00
					 5.00000000E-01	 0.00000000E+00	 2.50000000E+00
					 2.50000000E-01	 0.00000000E+00	 3.00000000E+00
					 5.00000000E-01	 0.00000000E+00	 3.00000000E+00
					 7.50000000E-01	 0.00000000E+00	 3.00000000E+00
					 5.00000000E-01	 0.00000000E+00	 3.50000000E+00
					 2.50000000E-01	 0.00000000E+00	 4.00000000E+00
					 5.00000000E-01	 0.00000000E+00	 4.00000000E+00
					 7.50000000E-01	 0.00000000E+00	 4.00000000E+00
					 5.00000000E-01	 0.00000000E+00	 4.50000000E+00
					 2.50000000E-01	 0.00000000E+00	 5.00000000E+00
					 5.00000000E-01	 0.00000000E+00	 5.00000000E+00
					 7.50000000E-01	 0.00000000E+00	 5.00000000E+00
					 5.00000000E-01	 0.00000000E+00	 5.50000000E+00
					 2.50000000E-01	 0.00000000E+00	 6.00000000E+00
					 5.00000000E-01	 0.00000000E+00	 6.00000000E+00
					 7.50000000E-01	 0.00000000E+00	 6.00000000E+00
					 5.00000000E-01	 0.00000000E+00	 6.50000000E+00
					 2.50000000E-01	 0.00000000E+00	 7.00000000E+00
					 5.00000000E-01	 0.00000000E+00	 7.00000000E+00
					 7.50000000E-01	 0.00000000E+00	 7.00000000E+00
					 5.00000000E-01	 0.00000000E+00	 7.50000000E+00
					 1.00000000E+00	 5.00000000E-01	 5.00000000E-01
					 1.00000000E+00	 2.50000000E-01	 1.00000000E+00
					 1.00000000E+00	 5.00000000E-01	 1.00000000E+00
					 1.00000000E+00	 7.50000000E-01	 1.00000000E+00
					 1.00000000E+00	 5.00000000E-01	 1.50000000E+00
					 1.00000000E+00	 2.50000000E-01	 2.00000000E+00
					 1.00000000E+00	 5.00000000E-01	 2.00000000E+00
					 1.00000000E+00	 7.50000000E-01	 2.00000000E+00
					 1.00000000E+00	 5.00000000E-01	 2.50000000E+00
					 1.00000000E+00	 2.50000000E-01	 3.00000000E+00
					 1.00000000E+00	 5.00000000E-01	 3.00000000E+00
					 1.00000000E+00	 7.50000000E-01	 3.00000000E+00
					 1.00000000E+00	 5.00000000E-01	 3.50000000E+00
					 1.00000000E+00	 2.50000000E-01	 4.00000000E+00
					 1.00000000E+00	 5.00000000E-01	 4.00000000E+00
					 1.00000000E+00	 7.50000000E-01	 4.00000000E+00
					 1.00000000E+00	 5.00000000E-01	 4.50000000E+00
					 1.00000000E+00	 2.50000000E-01	 5.00000000E+00
					 1.00000000E+00	 5.00000000E-01	 5.00000000E+00
					 1.00000000E+00	 7.50000000E-01	 5.00000000E+00
					 1.00000000E+00	 5.00000000E-01	 5.50000000E+00
					 1.00000000E+00	 2.50000000E-01	 6.00000000E+00
					 1.00000000E+00	 5.00000000E-01	 6.00000000E+00
					 1.00000000E+00	 7.50000000E-01	 6.00000000E+00
					 1.00000000E+00	 5.00000000E-01	 6.50000000E+00
					 1.00000000E+00	 2.50000000E-01	 7.00000000E+00
					 1.00000000E+00	 5.00000000E-01	 7.00000000E+00
					 1.00000000E+00	 7.50000000E-01	 7.00000000E+00
					 1.00000000E+00	 5.00000000E-01	 7.50000000E+00
					 5.00000000E-01	 1.00000000E+00	 5.00000000E-01
					 7.50000000E-01	 1.00000000E+00	 1.00000000E+00
					 5.00000000E-01	 1.00000000E+00	 1.00000000E+00
					 2.50000000E-01	 1.00000000E+00	 1.00000000E+00
					 5.00000000E-01	 1.00000000E+00	 1.50000000E+00
					 7.50000000E-01	 1.00000000E+00	 2.00000000E+00
					 5.00000000E-01	 1.00000000E+00	 2.00000000E+00
					 2.50000000E-01	 1.00000000E+00	 2.00000000E+00
					 5.00000000E-01	 1.00000000E+00	 2.50000000E+00
					 7.50000000E-01	 1.00000000E+00	 3.00000000E+00
					 5.00000000E-01	 1.00000000E+00	 3.00000000E+00
					 2.50000000E-01	 1.00000000E+00	 3.00000000E+00
					 5.00000000E-01	 1.00000000E+00	 3.50000000E+00
					 7.50000000E-01	 1.00000000E+00	 4.00000000E+00
					 5.00000000E-01	 1.00000000E+00	 4.00000000E+00
					 2.50000000E-01	 1.00000000E+00	 4.00000000E+00
					 5.00000000E-01	 1.00000000E+00	 4.50000000E+00
					 7.50000000E-01	 1.00000000E+00	 5.00000000E+00
					 5.00000000E-01	 1.00000000E+00	 5.00000000E+00
					 2.50000000E-01	 1.00000000E+00	 5.00000000E+00
					 5.00000000E-01	 1.00000000E+00	 5.50000000E+00
					 7.50000000E-01	 1.00000000E+00	 6.00000000E+00
					 5.00000000E-01	 1.00000000E+00	 6.00000000E+00
					 2.50000000E-01	 1.00000000E+00	 6.00000000E+00
					 5.00000000E-01	 1.00000000E+00	 6.50000000E+00
					 7.50000000E-01	 1.00000000E+00	 7.00000000E+00
					 5.00000000E-01	 1.00000000E+00	 7.00000000E+00
					 2.50000000E-01	 1.00000000E+00	 7.00000000E+00
					 5.00000000E-01	 1.00000000E+00	 7.50000000E+00
					 0.00000000E+00	 5.00000000E-01	 5.00000000E-01
					 0.00000000E+00	 7.50000000E-01	 1.00000000E+00
					 0.00000000E+00	 5.00000000E-01	 1.00000000E+00
					 0.00000000E+00	 2.50000000E-01	 1.00000000E+00
					 0.00000000E+00	 5.00000000E-01	 1.50000000E+00
					 0.00000000E+00	 7.50000000E-01	 2.00000000E+00
					 0.00000000E+00	 5.00000000E-01	 2.00000000E+00
					 0.00000000E+00	 2.50000000E-01	 2.00000000E+00
					 0.00000000E+00	 5.00000000E-01	 2.50000000E+00
					 0.00000000E+00	 7.50000000E-01	 3.00000000E+00
					 0.00000000E+00	 5.00000000E-01	 3.00000000E+00
					 0.00000000E+00	 2.50000000E-01	 3.00000000E+00
					 0.00000000E+00	 5.00000000E-01	 3.50000000E+00
					 0.00000000E+00	 7.50000000E-01	 4.00000000E+00
					 0.00000000E+00	 5.00000000E-01	 4.00000000E+00
					 0.00000000E+00	 2.50000000E-01	 4.00000000E+00
					 0.00000000E+00	 5.00000000E-01	 4.50000000E+00
					 0.00000000E+00	 7.50000000E-01	 5.00000000E+00
					 0.00000000E+00	 5.00000000E-01	 5.00000000E+00
					 0.00000000E+00	 2.50000000E-01	 5.00000000E+00
					 0.00000000E+00	 5.00000000E-01	 5.50000000E+00
					 0.00000000E+00	 7.50000000E-01	 6.00000000E+00
					 0.00000000E+00	 5.00000000E-01	 6.00000000E+00
					 0.00000000E+00	 2.50000000E-01	 6.00000000E+00
					 0.00000000E+00	 5.00000000E-01	 6.50000000E+00
					 0.00000000E+00	 7.50000000E-01	 7.00000000E+00
					 0.00000000E+00	 5.00000000E-01	 7.00000000E+00
					 0.00000000E+00	 2.50000000E-01	 7.00000000E+00
					 0.00000000E+00	 5.00000000E-01	 7.50000000E+00
					 5.00000000E-01	 5.00000000E-01	 5.00000000E-01
					 5.00000000E-01	 2.50000000E-01	 1.00000000E+00
					 2.50000000E-01	 5.00000000E-01	 1.00000000E+00
					 5.00000000E-01	 5.00000000E-01	 1.00000000E+00
					 7.50000000E-01	 5.00000000E-01	 1.00000000E+00
					 5.00000000E-01	 7.50000000E-01	 1.00000000E+00
					 5.00000000E-01	 5.00000000E-01	 1.50000000E+00
					 5.00000000E-01	 2.50000000E-01	 2.00000000E+00
					 2.50000000E-01	 5.00000000E-01	 2.00000000E+00
					 5.00000000E-01	 5.00000000E-01	 2.00000000E+00
					 7.50000000E-01	 5.00000000E-01	 2.00000000E+00
					 5.00000000E-01	 7.50000000E-01	 2.00000000E+00
					 5.00000000E-01	 5.00000000E-01	 2.50000000E+00
					 5.00000000E-01	 2.50000000E-01	 3.00000000E+00
					 2.50000000E-01	 5.00000000E-01	 3.00000000E+00
					 5.00000000E-01	 5.00000000E-01	 3.00000000E+00
					 7.50000000E-01	 5.00000000E-01	 3.00000000E+00
					 5.00000000E-01	 7.50000000E-01	 3.00000000E+00
					 5.00000000E-01	 5.00000000E-01	 3.50000000E+00
					 5.00000000E-01	 2.50000000E-01	 4.00000000E+00
					 2.50000000E-01	 5.00000000E-01	 4.00000000E+00
					 5.00000000E-01	 5.00000000E-01	 4.00000000E+00
					 7.50000000E-01	 5.00000000E-01	 4.00000000E+00
					 5.00000000E-01	 7.50000000E-01	 4.00000000E+00
					 5.00000000E-01	 5.00000000E-01	 4.50000000E+00
					 5.00000000E-01	 2.50000000E-01	 5.00000000E+00
					 2.50000000E-01	 5.00000000E-01	 5.00000000E+00
					 5.00000000E-01	 5.00000000E-01	 5.00000000E+00
					 7.50000000E-01	 5.00000000E-01	 5.00000000E+00
					 5.00000000E-01	 7.50000000E-01	 5.00000000E+00
					 5.00000000E-01	 5.00000000E-01	 5.50000000E+00
					 5.00000000E-01	 2.50000000E-01	 6.00000000E+00
					 2.50000000E-01	 5.00000000E-01	 6.00000000E+00
					 5.00000000E-01	 5.00000000E-01	 6.00000000E+00
					 7.50000000E-01	 5.00000000E-01	 6.00000000E+00
					 5.00000000E-01	 7.50000000E-01	 6.00000000E+00
					 5.00000000E-01	 5.00000000E-01	 6.50000000E+00
					 5.00000000E-01	 2.50000000E-01	 7.00000000E+00
					 2.50000000E-01	 5.00000000E-01	 7.00000000E+00
					 5.00000000E-01	 5.00000000E-01	 7.00000000E+00
					 7.50000000E-01	 5.00000000E-01	 7.00000000E+00
					 5.00000000E-01	 7.50000000E-01	 7.00000000E+00
					 5.00000000E-01	 5.00000000E-01	 7.50000000E+00
				</DataArray>
			</Points>
			<Cells>
				<DataArray type="Int32" Name="connectivity" format="ascii">
					0 9 94 18 60 104 221 191 8 92 93 19 103 219 220 192 61 102 218 189 9 1 12 94 104 33 133 221 10 11 95 92 105 132 222 219 102 32 131 218 18 94 15 3 191 221 162 78 93 96 16 17 220 223 163 190 189 218 160 77 94 12 2 15 221 133 63 162 95 13 14 96 222 134 161 223 218 131 62 160 60 104 221 191 58 108 227 195 103 219 220 192 107 225 226 196 59 106 224 193 104 33 133 221 108 35 137 227 105 132 222 219 109 136 228 225 106 34 135 224 191 221 162 78 195 227 166 80 220 223 163 190 226 229 167 194 193 224 164 79 221 133 63 162 227 137 65 166 222 134 161 223 228 138 165 229 224 135 64 164 58 108 227 195 56 112 233 199 107 225 226 196 111 231 232 200 57 110 230 197 108 35 137 227 112 37 141 233 109 136 228 225 113 140 234 231 110 36 139 230 195 227 166 80 199 233 170 82 226 229 167 194 232 235 171 198 197 230 168 81 227 137 65 166 233 141 67 170 228 138 165 229 234 142 169 235 230 139 66 168 56 112 233 199 54 116 239 203 111 231 232 200 115 237 238 204 55 114 236 201 112 37 141 233 116 39 145 239 113 140 234 231 117 144 240 237 114 38 143 236 199 233 170 82 203 239 174 84 232 235 171 198 238 241 175 202 201 236 172 83 233 141 67 170 239 145 69 174 234 142 169 235 240 146 173 241 236 143 68 172 54 116 239 203 52 120 245 207 115 237 238 204 119 243 244 208 53 118 242 205 116 39 145 239 120 41 149 245 117 144 240 237 121 148 246 243 118 40 147 242 203 239 174 84 207 245 178 86 238 241 175 202 244 247 179 206 205 242 176 85 239 145 69 174 245 149 71 178 240 146 173 241 246 150 177 247 242 147 70 176 52 120 245 207 50 124 251 211 119 243 244 208 123 249 250 212 51 122 248 209 120 41 149 245 124 43 153 251 121 148 246 243 125 152 252 249 122 42 151 248 207 245 178 86 211 251 182 88 244 247 179 206 250 253 183 210 209 248 180 87 245 149 71 178 251 153 73 182 246 150 177 247 252 154 181 253 248 151 72 180 50 124 251 211 48 128 257 215 123 249 250 212 127 255 256 216 49 126 254 213 124 43 153 251 128 45 157 257 125 152 252 249 129 156 258 255 126 44 155 254 211 251 182 88 215 257 186 90 250 253 183 210 256 259 187 214 213 254 184 89 251 153 73 182 257 157 75 186 252 154 181 253 258 158 185 259 254 155 74 184 48 128 257 215 4 21 99 30 127 255 256 216 20 97 98 31 47 130 260 217 128 45 157 257 21 5 24 99 129 156 258 255 22 23 100 97 130 46 159 260 215 257 186 90 30 99 27 7 256 259 187 214 98 101 28 29 217 260 188 91 257 157 75 186 99 24 6 27 258 158 185 259 100 25 26 101 260 159 76 188 
				</DataArray>
				<DataArray type="Int32" Name="offsets" format="ascii">
					20 40 60 80 100 120 140 160 180 200 220 240 260 280 300 320 340 360 380 400 420 440 460 480 500 520 540 560 580 600 620 640 
				</DataArray>
				<DataArray type="UInt8" Name="types" format="ascii">
					25 25 25 25 25 25 25 25 25 25 25 25 25 25 25 25 25 25 25 25 25 25 25 25 25 25 25 25 25 25 25 25 
				</DataArray>
			</Cells>
			<PointData>
				<DataArray type="Float32" Name="E" NumberOfComponents="10" ComponentName0="xx" ComponentName1="yy" ComponentName2="zz" ComponentName3="xy" ComponentName4="yz" ComponentName5="zx" ComponentName6="Mises" ComponentName7="Min Principal" ComponentName8="Mid Principal" ComponentName9="Max Principal" format="ascii">
					-7.57566000E-07	-6.04749000E-07	 1.31862000E-06	 2.66345000E-07	-1.96238000E-07	-1.16909000E-07	 1.39618130E-06	-9.58525506E-07	-4.33480695E-07	 1.34831120E-06
					-4.31025000E-07	-2.88707000E-07	 1.48237000E-06	-1.55325000E-07	-3.52265000E-07	-1.31330000E-09	 1.30871929E-06	-5.51153454E-07	-2.36467972E-07	 1.55025943E-06
					 3.30007000E-07	-1.73404000E-07	 2.16168000E-06	-2.77918000E-07	-2.58075000E-07	-7.91771000E-08	 1.48785653E-06	-3.25552998E-07	 4.52684109E-07	 2.19115189E-06
					 2.54041000E-07	 3.85179000E-08	 2.31347000E-06	-5.23014000E-08	-1.93134000E-07	-3.99869000E-07	 1.53931395E-06	-1.41369106E-08	 2.18022376E-07	 2.40214343E-06
					 6.50974000E-09	 4.32992000E-07	-1.73797000E-06	 5.54520000E-07	-2.97830000E-07	-4.33855000E-07	 1.59476397E-06	-1.85259679E-06	-3.51931247E-07	 9.06059774E-07
					-1.49545000E-06	 5.51040000E-07	-2.09467000E-06	-4.08564000E-08	-1.36030000E-08	 9.54789000E-07	 1.94524065E-06	-2.79580606E-06	-7.95613311E-07	 5.52339369E-07
					-1.84728000E-06	-2.17579000E-06	-3.04147000E-06	-1.66579000E-07	 1.70994000E-06	 1.24340000E-06	 2.55036085E-06	-4.78623571E-06	-1.80587234E-06	-4.72431950E-07
					 9.25331000E-08	-1.85101000E-06	-2.17097000E-06	-3.55684000E-07	 1.47009000E-06	-9.77267000E-08	 2.25026111E-06	-3.49739968E-06	-6.72765700E-07	 2.40718478E-07
					-5.69233000E-07	-2.26364000E-07	 1.41613000E-06	 1.42045000E-07	-3.52601000E-07	-1.15458000E-07	 1.30843594E-06	-6.20503400E-07	-2.57334435E-07	 1.49837083E-06
					-3.81592000E-07	 1.80290000E-07	 1.52634000E-06	 1.22179000E-08	-4.89968000E-07	-1.27386000E-07	 1.27422632E-06	-3.90982525E-07	 2.26988233E-08	 1.69332170E-06
					-4.06654000E-07	-4.00741000E-08	 1.51071000E-06	-7.43175000E-08	-4.11618000E-07	-7.10401000E-08	 1.27328026E-06	-4.35163255E-07	-1.15335303E-07	 1.61448046E-06
					-3.56738000E-07	-1.71697000E-06	-1.85628000E-06	-3.19169000E-08	 1.08209000E-06	 3.08820000E-07	 1.61397426E-06	-2.89516284E-06	-7.80317957E-07	-2.54507200E-07
					-1.84280000E-07	-1.94516000E-06	-5.30702000E-06	 5.25625000E-07	 1.32991000E-06	 6.15613000E-07	 3.50202468E-06	-5.79986840E-06	-1.78064229E-06	 1.44050694E-07
					 1.21948000E-07	-4.59244000E-07	-1.62872000E-06	 3.40920000E-07	-5.73547000E-08	 2.66548000E-07	 1.14636428E-06	-1.67825878E-06	-5.92029401E-07	 3.04272178E-07
					 1.63258000E-07	-2.74489000E-07	 2.19874000E-06	-2.18235000E-07	-1.56923000E-07	-1.55678000E-07	 1.56564456E-06	-3.80978192E-07	 2.49974819E-07	 2.21851237E-06
					 1.05249000E-08	-3.86712000E-07	 2.24453000E-06	-1.91611000E-07	-6.27088000E-08	-2.11828000E-07	 1.67233171E-06	-4.71168650E-07	 7.43217593E-08	 2.26518979E-06
					 1.39290000E-07	-1.79666000E-07	 2.28336000E-06	-1.38485000E-07	-1.31390000E-07	-2.95673000E-07	 1.59919771E-06	-2.52648974E-07	 1.67256704E-07	 2.32837627E-06
					 1.01253000E-07	 9.29346000E-08	-1.76883000E-06	 2.70545000E-07	-1.66279000E-07	 3.10002000E-07	 1.34537184E-06	-1.84142804E-06	-1.06495849E-07	 3.73281489E-07
					-1.50181000E-07	-1.34119000E-06	-5.80471000E-06	-1.10368000E-07	 1.35692000E-06	 9.81917000E-07	 3.95026456E-06	-6.33866198E-06	-9.85754748E-07	 2.83357320E-08
					-5.03197000E-07	-1.71724000E-06	-2.21983000E-06	-2.73891000E-07	 1.32852000E-06	 4.13526000E-07	 1.92868628E-06	-3.40447321E-06	-6.29396477E-07	-4.06397318E-07
					-1.35611000E-06	-4.08491000E-07	 2.17956000E-06	-3.50625000E-07	 9.73417000E-08	 3.81369000E-07	 2.19919610E-06	-1.51349314E-06	-2.93145585E-07	 2.22159772E-06
					-1.32265000E-06	-1.33955000E-06	 6.21049000E-06	-5.95581000E-07	 4.82332000E-07	-4.93858000E-07	 5.13677650E-06	-1.92674231E-06	-8.03399770E-07	 6.27843208E-06
					-7.11012000E-07	-4.39048000E-07	 2.11461000E-06	 1.18762000E-08	 2.29274000E-07	-6.14760000E-07	 1.95295207E-06	-8.47639136E-07	-4.48646138E-07	 2.26083527E-06
					-1.91216000E-07	-1.32602000E-06	 1.83464000E-06	-5.86051000E-07	 6.58161000E-07	-3.45027000E-07	 2.14764450E-06	-1.64203689E-06	-1.01056522E-07	 2.06049741E-06
					 9.56278000E-07	-1.39300000E-06	 5.72131000E-06	-3.37147000E-08	-5.01181000E-07	-1.77717000E-06	 4.69756338E-06	-1.44084464E-06	 3.86321356E-07	 6.33911128E-06
					-5.23870000E-07	-8.79357000E-07	 1.31860000E-06	 4.48618000E-07	-3.11174000E-07	-3.33048000E-07	 1.54963305E-06	-1.18630796E-06	-3.40858495E-07	 1.44253945E-06
					-8.56085000E-07	-4.73291000E-07	 1.20415000E-06	 5.46138000E-07	-2.55419000E-07	-4.67014000E-07	 1.54161198E-06	-1.26726804E-06	-2.38911124E-07	 1.38095316E-06
					-1.26979000E-06	 1.48198000E-06	 5.48540000E-06	 3.06848000E-07	-2.10763000E-06	-5.30851000E-07	 4.67001256E-06	-1.32063442E-06	 5.79730224E-07	 6.43849420E-06
					-1.29107000E-06	-5.81231000E-08	 1.67503000E-06	-5.00421000E-07	-2.62192000E-07	 5.09002000E-07	 1.93167861E-06	-1.51839774E-06	 2.03604669E-08	 1.82387417E-06
					-4.50843000E-07	-7.51866000E-07	 1.96862000E-06	 4.02338000E-08	-5.70574000E-07	 3.00725000E-07	 1.87682438E-06	-8.90374856E-07	-4.59264494E-07	 2.11555035E-06
					-1.01309000E-06	-1.60210000E-06	 5.97682000E-06	-3.84129000E-07	-6.98552000E-07	 7.11320000E-07	 5.02205889E-06	-1.80577247E-06	-9.50886923E-07	 6.11828940E-06
					-5.12723000E-07	-1.55924000E-06	 2.05373000E-06	-3.24945000E-07	 4.58153000E-07	 1.44804000E-07	 2.24866384E-06	-1.71317000E-06	-4.20105415E-07	 2.11504241E-06
					-3.16585000E-07	 1.02846000E-07	-6.47176000E-07	-2.20529000E-08	 2.21274000E-07	 5.73160000E-08	 5.08625074E-07	-7.16917070E-07	-3.07338746E-07	 1.63340816E-07
					-2.23983000E-07	-2.25662000E-07	-2.12996000E-06	 8.72775000E-08	 5.75635000E-07	 2.29195000E-07	 1.46121123E-06	-2.30920042E-06	-2.96233585E-07	 2.58290041E-08
					-2.27162000E-07	-5.03372000E-07	-1.67991000E-06	 6.28389000E-08	 3.95763000E-07	 2.78552000E-07	 1.05409468E-06	-1.83915706E-06	-4.55550877E-07	-1.15736059E-07
					-2.13562000E-07	-6.33840000E-08	-1.82441000E-06	 5.95384000E-08	 4.25742000E-07	 2.17949000E-07	 1.25719390E-06	-1.94491969E-06	-2.32741673E-07	 7.63053603E-08
					-2.29681000E-07	-1.22813000E-07	-1.71748000E-06	 5.54312000E-08	 4.07670000E-07	 2.21657000E-07	 1.16221294E-06	-1.84120298E-06	-2.52544788E-07	 2.37737717E-08
					-2.41689000E-07	-2.14398000E-07	-1.72743000E-06	 6.51672000E-08	 4.15016000E-07	 2.19139000E-07	 1.13963724E-06	-1.85770315E-06	-2.91883728E-07	-3.39301183E-08
					-2.28838000E-07	-2.14830000E-07	-1.74215000E-06	 5.76965000E-08	 4.01823000E-07	 2.46824000E-07	 1.15251339E-06	-1.87257117E-06	-2.77962213E-07	-3.52846196E-08
					-2.60247000E-07	-1.95642000E-07	-1.79520000E-06	 7.59892000E-08	 4.32637000E-07	 2.25519000E-07	 1.19086225E-06	-1.92881526E-06	-3.09637274E-07	-1.26364640E-08
					-2.21453000E-07	-1.91606000E-07	-1.76938000E-06	 4.93211000E-08	 4.17091000E-07	 2.38884000E-07	 1.18200563E-06	-1.90175806E-06	-2.57197947E-07	-2.34829937E-08
					-2.22670000E-07	-2.17791000E-07	-1.68178000E-06	 9.14218000E-08	 4.37824000E-07	 1.37639000E-07	 1.11417567E-06	-1.81015962E-06	-2.93896012E-07	-1.81853728E-08
					-1.92184000E-07	-1.71075000E-07	-1.82403000E-06	 4.06810000E-08	 3.77638000E-07	 3.23621000E-07	 1.23734509E-06	-1.95992405E-06	-2.23521032E-07	-3.84392193E-09
					-4.14488000E-07	-5.07450000E-08	-1.55144000E-06	 1.37022000E-07	 2.73613000E-07	 2.51563000E-07	 1.01309126E-06	-1.64129036E-06	-4.43520754E-07	 6.81381177E-08
					-3.01230000E-07	-4.28257000E-07	-2.19966000E-06	 3.00185000E-08	 7.10361000E-07	 1.43685000E-07	 1.48436267E-06	-2.45666276E-06	-3.31514266E-07	-1.40969973E-07
					 4.01724000E-07	-2.60572000E-07	-1.00961000E-06	-2.35156000E-08	 2.93030000E-07	 9.24471000E-08	 8.89613369E-07	-1.11657577E-06	-1.59667831E-07	 4.07785598E-07
					-4.21024000E-07	 4.32078000E-07	-4.46191000E-07	 1.20876000E-07	-2.61056000E-07	 3.39650000E-07	 7.72947178E-07	-8.32492949E-07	-1.07341110E-07	 5.04697059E-07
					 6.79784000E-07	 8.44913000E-07	-1.95997000E-08	 3.26359000E-07	-4.86795000E-07	-4.55913000E-07	 1.00794673E-06	-3.32605823E-07	 4.29036362E-07	 1.40866676E-06
					 2.41997000E-07	 9.71386000E-08	-1.16029000E-06	-9.45839000E-08	 2.91693000E-07	 1.23152000E-07	 9.68814107E-07	-1.23805278E-06	 1.27860079E-07	 2.89038297E-07
					-6.10326000E-07	-5.87821000E-07	-2.46985000E-06	-1.59471000E-07	 8.32487000E-07	 5.38834000E-07	 1.70314841E-06	-2.92116852E-06	-4.82280796E-07	-2.64547688E-07
					-2.04136000E-07	-9.93522000E-08	-1.38367000E-06	 1.87991000E-07	 2.58034000E-07	 1.16889000E-07	 9.12294240E-07	-1.43876592E-06	-3.43694093E-07	 9.53018119E-08
					-1.62207000E-07	-1.33315000E-07	-1.88430000E-06	 1.51393000E-07	 3.44662000E-07	 1.58418000E-07	 1.25017648E-06	-1.95882204E-06	-2.93369071E-07	 7.23691108E-08
					-2.50609000E-07	-2.03000000E-07	-1.80818000E-06	-1.48037000E-08	 4.91782000E-07	 3.22421000E-07	 1.25441804E-06	-2.00332851E-06	-2.26314585E-07	-3.21459084E-08
					-2.56279000E-07	-2.17690000E-07	-1.87598000E-06	 5.37555000E-08	 4.50875000E-07	 2.52492000E-07	 1.24672254E-06	-2.02111341E-06	-2.93381456E-07	-3.54541362E-08
					-2.62347000E-07	-2.06608000E-07	-1.91268000E-06	 6.87170000E-08	 4.50625000E-07	 2.57833000E-07	 1.27217785E-06	-2.05500608E-06	-3.08210857E-07	-1.84180644E-08
					-2.43985000E-07	-2.15018000E-07	-1.86718000E-06	 7.42684000E-08	 4.34380000E-07	 2.46473000E-07	 1.23782468E-06	-2.00246590E-06	-3.02851382E-07	-2.08657196E-08
					-2.42627000E-07	-2.21674000E-07	-1.89695000E-06	 5.23747000E-08	 4.51686000E-07	 2.63245000E-07	 1.26492345E-06	-2.04372554E-06	-2.83910265E-07	-3.36151982E-08
					-2.65969000E-07	-1.90043000E-07	-1.89529000E-06	 7.02294000E-08	 4.43504000E-07	 2.46322000E-07	 1.25981780E-06	-2.03192807E-06	-3.07763817E-07	-1.16101178E-08
					-2.82802000E-07	-8.51572000E-08	-2.02510000E-06	 9.94839000E-08	 4.98101000E-07	 2.23723000E-07	 1.38935362E-06	-2.16563201E-06	-3.24120863E-07	 9.66936718E-08
					-2.48588000E-07	-4.15042000E-07	-1.78306000E-06	 1.78594000E-08	 4.45456000E-07	 2.80690000E-07	 1.14688039E-06	-1.95626955E-06	-3.48132349E-07	-1.42288102E-07
					-1.81172000E-07	-2.19920000E-07	-2.48992000E-06	-1.23527000E-08	 6.08726000E-07	 3.32209000E-07	 1.72376173E-06	-2.68512092E-06	-1.80228460E-07	-2.56626220E-08
					-4.49653000E-07	-1.10436000E-07	-1.09121000E-06	 1.62865000E-07	 3.39043000E-07	 9.67733000E-08	 7.29325809E-07	-1.19966905E-06	-5.13576188E-07	 6.19462375E-08
					 1.45451000E-07	 2.29256000E-07	-1.76191000E-07	-4.29594000E-08	-1.65628000E-07	 9.72376000E-08	 3.35745901E-07	-2.50665433E-07	 1.28390336E-07	 3.20791097E-07
					-1.29450000E-07	 5.36657000E-08	-2.14841000E-06	 1.51061000E-07	 3.14919000E-07	 2.35481000E-07	 1.49246526E-06	-2.21431474E-06	-2.13450785E-07	 2.03571224E-07
					-2.53911000E-07	-3.77384000E-07	-1.79373000E-06	 6.43550000E-08	 5.58184000E-07	 2.23669000E-07	 1.20984450E-06	-2.00801551E-06	-3.44076843E-07	-7.29326498E-08
					-2.63735000E-07	-1.68764000E-07	-1.73620000E-06	 4.22676000E-08	 3.63485000E-07	 2.37463000E-07	 1.13292225E-06	-1.84781674E-06	-2.76870495E-07	-4.40117621E-08
					-2.23596000E-07	-1.42138000E-07	-1.69069000E-06	 6.59733000E-08	 3.59572000E-07	 2.28502000E-07	 1.12271095E-06	-1.79795841E-06	-2.60171134E-07	 1.70554779E-09
					-2.11655000E-07	-1.91650000E-07	-1.73825000E-06	 5.72663000E-08	 4.18239000E-07	 2.30419000E-07	 1.16529837E-06	-1.87063116E-06	-2.57265517E-07	-1.36583220E-08
					-2.35961000E-07	-2.10561000E-07	-1.75385000E-06	 5.80050000E-08	 4.24755000E-07	 2.35152000E-07	 1.16627043E-06	-1.89065076E-06	-2.80628569E-07	-2.90926755E-08
					-2.56063000E-07	-2.10923000E-07	-1.74529000E-06	 4.41744000E-08	 4.18138000E-07	 2.37765000E-07	 1.15220123E-06	-1.88158428E-06	-2.83036099E-07	-4.76556264E-08
					-2.07952000E-07	-1.65389000E-07	-1.77482000E-06	 8.06465000E-08	 3.99693000E-07	 2.28224000E-07	 1.18857733E-06	-1.89338727E-06	-2.68635755E-07	 1.38620252E-08
					-1.85420000E-07	-1.52074000E-07	-1.66768000E-06	 3.80676000E-08	 3.68408000E-07	 1.94004000E-07	 1.10996848E-06	-1.77306101E-06	-2.09871175E-07	-2.22418139E-08
					-2.73194000E-07	-2.34439000E-07	-1.87385000E-06	 6.52937000E-08	 4.69561000E-07	 2.77364000E-07	 1.25267354E-06	-2.03483970E-06	-3.21004133E-07	-2.56391716E-08
					-4.30072000E-07	-4.02080000E-07	-1.54271000E-06	-1.17786000E-07	 5.54559000E-07	 3.29483000E-07	 1.06662430E-06	-1.85373121E-06	-3.45456206E-07	-1.75674586E-07
					-8.61023000E-08	-3.80525000E-08	-1.96655000E-06	 2.33931000E-07	 2.64410000E-07	 1.24145000E-07	 1.34145733E-06	-2.00660729E-06	-2.93313746E-07	 2.09216232E-07
					 3.39633000E-07	 4.84490000E-07	-1.46741000E-06	 2.13626000E-07	 3.12278000E-08	-7.50749000E-08	 1.28320661E-06	-1.47135446E-06	 1.90274471E-07	 6.37792987E-07