    1C
    1UModel: beam     Date: 10-Mar-1998                                 
    1UUSER                                                              
    1UDATE              25.january.2020                                 
    1UTIME              14:51:28                                        
    1UHOST                                                              
    1UPGM               CalculiX                                        
    1UVERSION           Version 2.16                             
    1UCOMPILETIME       Tue  7 Jan 19:57:43 CET 2020                    
    1UDIR                                                               
    1UDBN                                                               
    1UMAT    1EL                                                        
    2C                           261                                     1
 -1         1 0.00000E+00 0.00000E+00 0.00000E+00
 -1         2 1.00000E+00 0.00000E+00 0.00000E+00
 -1         3 1.00000E+00 1.00000E+00 0.00000E+00
 -1         4 0.00000E+00 1.00000E+00 0.00000E+00
 -1         5 0.00000E+00 0.00000E+00 8.00000E+00
 -1         6 1.00000E+00 0.00000E+00 8.00000E+00
 -1         7 1.00000E+00 1.00000E+00 8.00000E+00
 -1         8 0.00000E+00 1.00000E+00 8.00000E+00
 -1         9 2.50000E-01 0.00000E+00 0.00000E+00
 -1        10 5.00000E-01 0.00000E+00 0.00000E+00
 -1        11 7.50000E-01 0.00000E+00 0.00000E+00
 -1        12 1.00000E+00 2.50000E-01 0.00000E+00
 -1        13 1.00000E+00 5.00000E-01 0.00000E+00
 -1        14 1.00000E+00 7.50000E-01 0.00000E+00
 -1        15 7.50000E-01 1.00000E+00 0.00000E+00
 -1        16 5.00000E-01 1.00000E+00 0.00000E+00
 -1        17 2.50000E-01 1.00000E+00 0.00000E+00
 -1        18 0.00000E+00 7.50000E-01 0.00000E+00
 -1        19 0.00000E+00 5.00000E-01 0.00000E+00
 -1        20 0.00000E+00 2.50000E-01 0.00000E+00
 -1        21 2.50000E-01 0.00000E+00 8.00000E+00
 -1        22 5.00000E-01 0.00000E+00 8.00000E+00
 -1        23 7.50000E-01 0.00000E+00 8.00000E+00
 -1        24 1.00000E+00 2.50000E-01 8.00000E+00
 -1        25 1.00000E+00 5.00000E-01 8.00000E+00
 -1        26 1.00000E+00 7.50000E-01 8.00000E+00
 -1        27 7.50000E-01 1.00000E+00 8.00000E+00
 -1        28 5.00000E-01 1.00000E+00 8.00000E+00
 -1        29 2.50000E-01 1.00000E+00 8.00000E+00
 -1        30 0.00000E+00 7.50000E-01 8.00000E+00
 -1        31 0.00000E+00 5.00000E-01 8.00000E+00
 -1        32 0.00000E+00 2.50000E-01 8.00000E+00
 -1        33 1.00000E+00 0.00000E+00 5.00000E-01
 -1        34 1.00000E+00 0.00000E+00 1.00000E+00
 -1        35 1.00000E+00 0.00000E+00 1.50000E+00
 -1        36 1.00000E+00 0.00000E+00 2.00000E+00
 -1        37 1.00000E+00 0.00000E+00 2.50000E+00
 -1        38 1.00000E+00 0.00000E+00 3.00000E+00
 -1        39 1.00000E+00 0.00000E+00 3.50000E+00
 -1        40 1.00000E+00 0.00000E+00 4.00000E+00
 -1        41 1.00000E+00 0.00000E+00 4.50000E+00
 -1        42 1.00000E+00 0.00000E+00 5.00000E+00
 -1        43 1.00000E+00 0.00000E+00 5.50000E+00
 -1        44 1.00000E+00 0.00000E+00 6.00000E+00
 -1        45 1.00000E+00 0.00000E+00 6.50000E+00
 -1        46 1.00000E+00 0.00000E+00 7.00000E+00
 -1        47 1.00000E+00 0.00000E+00 7.50000E+00
 -1        48 0.00000E+00 0.00000E+00 7.50000E+00
 -1        49 0.00000E+00 0.00000E+00 7.00000E+00
 -1        50 0.00000E+00 0.00000E+00 6.50000E+00
 -1        51 0.00000E+00 0.00000E+00 6.00000E+00
 -1        52 0.00000E+00 0.00000E+00 5.50000E+00
 -1        53 0.00000E+00 0.00000E+00 5.00000E+00
 -1        54 0.00000E+00 0.00000E+00 4.50000E+00
 -1        55 0.00000E+00 0.00000E+00 4.00000E+00
 -1        56 0.00000E+00 0.00000E+00 3.50000E+00
 -1        57 0.00000E+00 0.00000E+00 3.00000E+00
 -1        58 0.00000E+00 0.00000E+00 2.50000E+00
 -1        59 0.00000E+00 0.00000E+00 2.00000E+00
 -1        60 0.00000E+00 0.00000E+00 1.50000E+00
 -1        61 0.00000E+00 0.00000E+00 1.00000E+00
 -1        62 0.00000E+00 0.00000E+00 5.00000E-01
 -1        63 1.00000E+00 1.00000E+00 5.00000E-01
 -1        64 1.00000E+00 1.00000E+00 1.00000E+00
 -1        65 1.00000E+00 1.00000E+00 1.50000E+00
 -1        66 1.00000E+00 1.00000E+00 2.00000E+00
 -1        67 1.00000E+00 1.00000E+00 2.50000E+00
 -1        68 1.00000E+00 1.00000E+00 3.00000E+00
 -1        69 1.00000E+00 1.00000E+00 3.50000E+00
 -1        70 1.00000E+00 1.00000E+00 4.00000E+00
 -1        71 1.00000E+00 1.00000E+00 4.50000E+00
 -1        72 1.00000E+00 1.00000E+00 5.00000E+00
 -1        73 1.00000E+00 1.00000E+00 5.50000E+00
 -1        74 1.00000E+00 1.00000E+00 6.00000E+00
 -1        75 1.00000E+00 1.00000E+00 6.50000E+00
 -1        76 1.00000E+00 1.00000E+00 7.00000E+00
 -1        77 1.00000E+00 1.00000E+00 7.50000E+00
 -1        78 0.00000E+00 1.00000E+00 5.00000E-01
 -1        79 0.00000E+00 1.00000E+00 1.00000E+00
 -1        80 0.00000E+00 1.00000E+00 1.50000E+00
 -1        81 0.00000E+00 1.00000E+00 2.00000E+00
 -1        82 0.00000E+00 1.00000E+00 2.50000E+00
 -1        83 0.00000E+00 1.00000E+00 3.00000E+00
 -1        84 0.00000E+00 1.00000E+00 3.50000E+00
 -1        85 0.00000E+00 1.00000E+00 4.00000E+00
 -1        86 0.00000E+00 1.00000E+00 4.50000E+00
 -1        87 0.00000E+00 1.00000E+00 5.00000E+00
 -1        88 0.00000E+00 1.00000E+00 5.50000E+00
 -1        89 0.00000E+00 1.00000E+00 6.00000E+00
 -1        90 0.00000E+00 1.00000E+00 6.50000E+00
 -1        91 0.00000E+00 1.00000E+00 7.00000E+00
 -1        92 0.00000E+00 1.00000E+00 7.50000E+00
 -1        93 5.00000E-01 2.50000E-01 0.00000E+00
 -1        94 2.50000E-01 5.00000E-01 0.00000E+00
 -1        95 5.00000E-01 5.00000E-01 0.00000E+00
 -1        96 7.50000E-01 5.00000E-01 0.00000E+00
 -1        97 5.00000E-01 7.50000E-01 0.00000E+00
 -1        98 5.00000E-01 2.50000E-01 8.00000E+00
 -1        99 2.50000E-01 5.00000E-01 8.00000E+00
 -1       100 5.00000E-01 5.00000E-01 8.00000E+00
 -1       101 7.50000E-01 5.00000E-01 8.00000E+00
 -1       102 5.00000E-01 7.50000E-01 8.00000E+00
 -1       103 5.00000E-01 0.00000E+00 5.00000E-01
 -1       104 2.50000E-01 0.00000E+00 1.00000E+00
 -1       105 5.00000E-01 0.00000E+00 1.00000E+00
 -1       106 7.50000E-01 0.00000E+00 1.00000E+00
 -1       107 5.00000E-01 0.00000E+00 1.50000E+00
 -1       108 2.50000E-01 0.00000E+00 2.00000E+00
 -1       109 5.00000E-01 0.00000E+00 2.00000E+00
 -1       110 7.50000E-01 0.00000E+00 2.00000E+00
 -1       111 5.00000E-01 0.00000E+00 2.50000E+00
 -1       112 2.50000E-01 0.00000E+00 3.00000E+00
 -1       113 5.00000E-01 0.00000E+00 3.00000E+00
 -1       114 7.50000E-01 0.00000E+00 3.00000E+00
 -1       115 5.00000E-01 0.00000E+00 3.50000E+00
 -1       116 2.50000E-01 0.00000E+00 4.00000E+00
 -1       117 5.00000E-01 0.00000E+00 4.00000E+00
 -1       118 7.50000E-01 0.00000E+00 4.00000E+00
 -1       119 5.00000E-01 0.00000E+00 4.50000E+00
 -1       120 2.50000E-01 0.00000E+00 5.00000E+00
 -1       121 5.00000E-01 0.00000E+00 5.00000E+00
 -1       122 7.50000E-01 0.00000E+00 5.00000E+00
 -1       123 5.00000E-01 0.00000E+00 5.50000E+00
 -1       124 2.50000E-01 0.00000E+00 6.00000E+00
 -1       125 5.00000E-01 0.00000E+00 6.00000E+00
 -1       126 7.50000E-01 0.00000E+00 6.00000E+00
 -1       127 5.00000E-01 0.00000E+00 6.50000E+00
 -1       128 2.50000E-01 0.00000E+00 7.00000E+00
 -1       129 5.00000E-01 0.00000E+00 7.00000E+00
 -1       130 7.50000E-01 0.00000E+00 7.00000E+00
 -1       131 5.00000E-01 0.00000E+00 7.50000E+00
 -1       132 1.00000E+00 5.00000E-01 5.00000E-01
 -1       133 1.00000E+00 2.50000E-01 1.00000E+00
 -1       134 1.00000E+00 5.00000E-01 1.00000E+00
 -1       135 1.00000E+00 7.50000E-01 1.00000E+00
 -1       136 1.00000E+00 5.00000E-01 1.50000E+00
 -1       137 1.00000E+00 2.50000E-01 2.00000E+00
 -1       138 1.00000E+00 5.00000E-01 2.00000E+00
 -1       139 1.00000E+00 7.50000E-01 2.00000E+00
 -1       140 1.00000E+00 5.00000E-01 2.50000E+00
 -1       141 1.00000E+00 2.50000E-01 3.00000E+00
 -1       142 1.00000E+00 5.00000E-01 3.00000E+00
 -1       143 1.00000E+00 7.50000E-01 3.00000E+00
 -1       144 1.00000E+00 5.00000E-01 3.50000E+00
 -1       145 1.00000E+00 2.50000E-01 4.00000E+00
 -1       146 1.00000E+00 5.00000E-01 4.00000E+00
 -1       147 1.00000E+00 7.50000E-01 4.00000E+00
 -1       148 1.00000E+00 5.00000E-01 4.50000E+00
 -1       149 1.00000E+00 2.50000E-01 5.00000E+00
 -1       150 1.00000E+00 5.00000E-01 5.00000E+00
 -1       151 1.00000E+00 7.50000E-01 5.00000E+00
 -1       152 1.00000E+00 5.00000E-01 5.50000E+00
 -1       153 1.00000E+00 2.50000E-01 6.00000E+00
 -1       154 1.00000E+00 5.00000E-01 6.00000E+00
 -1       155 1.00000E+00 7.50000E-01 6.00000E+00
 -1       156 1.00000E+00 5.00000E-01 6.50000E+00
 -1       157 1.00000E+00 2.50000E-01 7.00000E+00
 -1       158 1.00000E+00 5.00000E-01 7.00000E+00
 -1       159 1.00000E+00 7.50000E-01 7.00000E+00
 -1       160 1.00000E+00 5.00000E-01 7.50000E+00
 -1       161 5.00000E-01 1.00000E+00 5.00000E-01
 -1       162 7.50000E-01 1.00000E+00 1.00000E+00
 -1       163 5.00000E-01 1.00000E+00 1.00000E+00
 -1       164 2.50000E-01 1.00000E+00 1.00000E+00
 -1       165 5.00000E-01 1.00000E+00 1.50000E+00
 -1       166 7.50000E-01 1.00000E+00 2.00000E+00
 -1       167 5.00000E-01 1.00000E+00 2.00000E+00
 -1       168 2.50000E-01 1.00000E+00 2.00000E+00
 -1       169 5.00000E-01 1.00000E+00 2.50000E+00
 -1       170 7.50000E-01 1.00000E+00 3.00000E+00
 -1       171 5.00000E-01 1.00000E+00 3.00000E+00
 -1       172 2.50000E-01 1.00000E+00 3.00000E+00
 -1       173 5.00000E-01 1.00000E+00 3.50000E+00
 -1       174 7.50000E-01 1.00000E+00 4.00000E+00
 -1       175 5.00000E-01 1.00000E+00 4.00000E+00
 -1       176 2.50000E-01 1.00000E+00 4.00000E+00
 -1       177 5.00000E-01 1.00000E+00 4.50000E+00
 -1       178 7.50000E-01 1.00000E+00 5.00000E+00
 -1       179 5.00000E-01 1.00000E+00 5.00000E+00
 -1       180 2.50000E-01 1.00000E+00 5.00000E+00
 -1       181 5.00000E-01 1.00000E+00 5.50000E+00
 -1       182 7.50000E-01 1.00000E+00 6.00000E+00
 -1       183 5.00000E-01 1.00000E+00 6.00000E+00
 -1       184 2.50000E-01 1.00000E+00 6.00000E+00
 -1       185 5.00000E-01 1.00000E+00 6.50000E+00
 -1       186 7.50000E-01 1.00000E+00 7.00000E+00
 -1       187 5.00000E-01 1.00000E+00 7.00000E+00
 -1       188 2.50000E-01 1.00000E+00 7.00000E+00
 -1       189 5.00000E-01 1.00000E+00 7.50000E+00
 -1       190 0.00000E+00 5.00000E-01 5.00000E-01
 -1       191 0.00000E+00 7.50000E-01 1.00000E+00
 -1       192 0.00000E+00 5.00000E-01 1.00000E+00
 -1       193 0.00000E+00 2.50000E-01 1.00000E+00
 -1       194 0.00000E+00 5.00000E-01 1.50000E+00
 -1       195 0.00000E+00 7.50000E-01 2.00000E+00
 -1       196 0.00000E+00 5.00000E-01 2.00000E+00
 -1       197 0.00000E+00 2.50000E-01 2.00000E+00
 -1       198 0.00000E+00 5.00000E-01 2.50000E+00
 -1       199 0.00000E+00 7.50000E-01 3.00000E+00
 -1       200 0.00000E+00 5.00000E-01 3.00000E+00
 -1       201 0.00000E+00 2.50000E-01 3.00000E+00
 -1       202 0.00000E+00 5.00000E-01 3.50000E+00
 -1       203 0.00000E+00 7.50000E-01 4.00000E+00
 -1       204 0.00000E+00 5.00000E-01 4.00000E+00
 -1       205 0.00000E+00 2.50000E-01 4.00000E+00
 -1       206 0.00000E+00 5.00000E-01 4.50000E+00
 -1       207 0.00000E+00 7.50000E-01 5.00000E+00
 -1       208 0.00000E+00 5.00000E-01 5.00000E+00
 -1       209 0.00000E+00 2.50000E-01 5.00000E+00
 -1       210 0.00000E+00 5.00000E-01 5.50000E+00
 -1       211 0.00000E+00 7.50000E-01 6.00000E+00
 -1       212 0.00000E+00 5.00000E-01 6.00000E+00
 -1       213 0.00000E+00 2.50000E-01 6.00000E+00
 -1       214 0.00000E+00 5.00000E-01 6.50000E+00
 -1       215 0.00000E+00 7.50000E-01 7.00000E+00
 -1       216 0.00000E+00 5.00000E-01 7.00000E+00
 -1       217 0.00000E+00 2.50000E-01 7.00000E+00
 -1       218 0.00000E+00 5.00000E-01 7.50000E+00
 -1       219 5.00000E-01 5.00000E-01 5.00000E-01
 -1       220 5.00000E-01 2.50000E-01 1.00000E+00
 -1       221 2.50000E-01 5.00000E-01 1.00000E+00
 -1       222 5.00000E-01 5.00000E-01 1.00000E+00
 -1       223 7.50000E-01 5.00000E-01 1.00000E+00
 -1       224 5.00000E-01 7.50000E-01 1.00000E+00
 -1       225 5.00000E-01 5.00000E-01 1.50000E+00
 -1       226 5.00000E-01 2.50000E-01 2.00000E+00
 -1       227 2.50000E-01 5.00000E-01 2.00000E+00
 -1       228 5.00000E-01 5.00000E-01 2.00000E+00
 -1       229 7.50000E-01 5.00000E-01 2.00000E+00
 -1       230 5.00000E-01 7.50000E-01 2.00000E+00
 -1       231 5.00000E-01 5.00000E-01 2.50000E+00
 -1       232 5.00000E-01 2.50000E-01 3.00000E+00
 -1       233 2.50000E-01 5.00000E-01 3.00000E+00
 -1       234 5.00000E-01 5.00000E-01 3.00000E+00
 -1       235 7.50000E-01 5.00000E-01 3.00000E+00
 -1       236 5.00000E-01 7.50000E-01 3.00000E+00
 -1       237 5.00000E-01 5.00000E-01 3.50000E+00
 -1       238 5.00000E-01 2.50000E-01 4.00000E+00
 -1       239 2.50000E-01 5.00000E-01 4.00000E+00
 -1       240 5.00000E-01 5.00000E-01 4.00000E+00
 -1       241 7.50000E-01 5.00000E-01 4.00000E+00
 -1       242 5.00000E-01 7.50000E-01 4.00000E+00
 -1       243 5.00000E-01 5.00000E-01 4.50000E+00
 -1       244 5.00000E-01 2.50000E-01 5.00000E+00
 -1       245 2.50000E-01 5.00000E-01 5.00000E+00
 -1       246 5.00000E-01 5.00000E-01 5.00000E+00
 -1       247 7.50000E-01 5.00000E-01 5.00000E+00
 -1       248 5.00000E-01 7.50000E-01 5.00000E+00
 -1       249 5.00000E-01 5.00000E-01 5.50000E+00
 -1       250 5.00000E-01 2.50000E-01 6.00000E+00
 -1       251 2.50000E-01 5.00000E-01 6.00000E+00
 -1       252 5.00000E-01 5.00000E-01 6.00000E+00
 -1       253 7.50000E-01 5.00000E-01 6.00000E+00
 -1       254 5.00000E-01 7.50000E-01 6.00000E+00
 -1       255 5.00000E-01 5.00000E-01 6.50000E+00
 -1       256 5.00000E-01 2.50000E-01 7.00000E+00
 -1       257 2.50000E-01 5.00000E-01 7.00000E+00
 -1       258 5.00000E-01 5.00000E-01 7.00000E+00
 -1       259 7.50000E-01 5.00000E-01 7.00000E+00
 -1       260 5.00000E-01 7.50000E-01 7.00000E+00
 -1       261 5.00000E-01 5.00000E-01 7.50000E+00
 -3
    3C                            32                                     1
 -1         1    4    0    1
 -2         1        10        95        19        61       105       222       192         9        93
 -2        94        20        62       103       219       190       104       220       221       193
 -1         2    4    0    1
 -2        10         2        13        95       105        34       134       222        11        12
 -2        96        93       103        33       132       219       106       133       223       220
 -1         3    4    0    1
 -2        19        95        16         4       192       222       163        79        94        97
 -2        17        18       190       219       161        78       221       224       164       191
 -1         4    4    0    1
 -2        95        13         3        16       222       134        64       163        96        14
 -2        15        97       219       132        63       161       223       135       162       224
 -1         5    4    0    1
 -2        61       105       222       192        59       109       228       196       104       220
 -2       221       193        60       107       225       194       108       226       227       197
 -1         6    4    0    1
 -2       105        34       134       222       109        36       138       228       106       133
 -2       223       220       107        35       136       225       110       137       229       226
 -1         7    4    0    1
 -2       192       222       163        79       196       228       167        81       221       224
 -2       164       191       194       225       165        80       227       230       168       195
 -1         8    4    0    1
 -2       222       134        64       163       228       138        66       167       223       135
 -2       162       224       225       136        65       165       229       139       166       230
 -1         9    4    0    1
 -2        59       109       228       196        57       113       234       200       108       226
 -2       227       197        58       111       231       198       112       232       233       201
 -1        10    4    0    1
 -2       109        36       138       228       113        38       142       234       110       137
 -2       229       226       111        37       140       231       114       141       235       232
 -1        11    4    0    1
 -2       196       228       167        81       200       234       171        83       227       230
 -2       168       195       198       231       169        82       233       236       172       199
 -1        12    4    0    1
 -2       228       138        66       167       234       142        68       171       229       139
 -2       166       230       231       140        67       169       235       143       170       236
 -1        13    4    0    1
 -2        57       113       234       200        55       117       240       204       112       232
 -2       233       201        56       115       237       202       116       238       239       205
 -1        14    4    0    1
 -2       113        38       142       234       117        40       146       240       114       141
 -2       235       232       115        39       144       237       118       145       241       238
 -1        15    4    0    1
 -2       200       234       171        83       204       240       175        85       233       236
 -2       172       199       202       237       173        84       239       242       176       203
 -1        16    4    0    1
 -2       234       142        68       171       240       146        70       175       235       143
 -2       170       236       237       144        69       173       241       147       174       242
 -1        17    4    0    1
 -2        55       117       240       204        53       121       246       208       116       238
 -2       239       205        54       119       243       206       120       244       245       209
 -1        18    4    0    1
 -2       117        40       146       240       121        42       150       246       118       145
 -2       241       238       119        41       148       243       122       149       247       244
 -1        19    4    0    1
 -2       204       240       175        85       208       246       179        87       239       242
 -2       176       203       206       243       177        86       245       248       180       207
 -1        20    4    0    1
 -2       240       146        70       175       246       150        72       179       241       147
 -2       174       242       243       148        71       177       247       151       178       248
 -1        21    4    0    1
 -2        53       121       246       208        51       125       252       212       120       244
 -2       245       209        52       123       249       210       124       250       251       213
 -1        22    4    0    1
 -2       121        42       150       246       125        44       154       252       122       149
 -2       247       244       123        43       152       249       126       153       253       250
 -1        23    4    0    1
 -2       208       246       179        87       212       252       183        89       245       248
 -2       180       207       210       249       181        88       251       254       184       211
 -1        24    4    0    1
 -2       246       150        72       179       252       154        74       183       247       151
 -2       178       248       249       152        73       181       253       155       182       254
 -1        25    4    0    1
 -2        51       125       252       212        49       129       258       216       124       250
 -2       251       213        50       127       255       214       128       256       257       217
 -1        26    4    0    1
 -2       125        44       154       252       129        46       158       258       126       153
 -2       253       250       127        45       156       255       130       157       259       256
 -1        27    4    0    1
 -2       212       252       183        89       216       258       187        91       251       254
 -2       184       211       214       255       185        90       257       260       188       215
 -1        28    4    0    1
 -2       252       154        74       183       258       158        76       187       253       155
 -2       182       254       255       156        75       185       259       159       186       260
 -1        29    4    0    1
 -2        49       129       258       216         5        22       100        31       128       256
 -2       257       217        48       131       261       218        21        98        99        32
 -1        30    4    0    1
 -2       129        46       158       258        22         6        25       100       130       157
 -2       259       256       131        47       160       261        23        24       101        98
 -1        31    4    0    1
 -2       216       258       187        91        31       100        28         8       257       260
 -2       188       215       218       261       189        92        99       102        29        30
 -1        32    4    0    1
 -2       258       158        76       187       100        25         7        28       259       159
 -2       186       260       261       160        77       189       101        26        27       102
 -3
    1PSTEP                         1           1           1          
  100CL  101 1.000000000         261                     0    1           1
 -4  TOSTRAIN    6    1
 -5  EXX         1    4    1    1
 -5  EYY         1    4    2    2
 -5  EZZ         1    4    3    3
 -5  EXY         1    4    1    2
 -5  EYZ         1    4    2    3
 -5  EZX         1    4    3    1
 -1         1 2.56354E-13 5.57285E-13-2.08111E-12 3.57568E-13 9.77435E-13-2.98900E-13
 -1         2 2.56354E-13 5.57285E-13-2.08111E-12-3.57569E-13 9.77441E-13 2.98902E-13
 -1         3 2.56355E-13 5.57278E-13-2.08111E-12 3.57567E-13-9.77438E-13 2.98893E-13
 -1         4 2.56354E-13 5.57274E-13-2.08110E-12-3.57567E-13-9.77440E-13-2.98896E-13
 -1         5-4.04681E-13-4.04704E-13 2.96915E-12 3.49256E-13 2.58582E-12 2.58574E-12
 -1         6-4.04704E-13-4.04802E-13 2.96913E-12-3.49360E-13 2.58573E-12-2.58574E-12
 -1         7-4.04707E-13-4.04842E-13 2.96914E-12 3.49271E-13-2.58579E-12-2.58575E-12
 -1         8-4.04674E-13-4.04628E-13 2.96916E-12-3.49272E-13-2.58581E-12 2.58573E-12
 -1         9 3.78090E-14 8.21968E-13-2.13481E-12 2.93235E-13 8.88907E-13-1.14392E-13
 -1        10-1.80737E-13 1.08665E-12-2.18852E-12 1.77737E-18 8.00379E-13 1.06626E-18
 -1        11 3.78083E-14 8.21967E-13-2.13481E-12-2.93234E-13 8.88910E-13 1.14394E-13
 -1        12-2.39587E-13-3.40399E-13 1.45493E-12 3.35183E-14-1.21164E-12-1.59469E-13
 -1        13-7.35527E-13-1.23808E-12 4.99097E-12 1.49353E-18-2.44556E-18-6.17838E-13
 -1        14-2.39586E-13-3.40397E-13 1.45493E-12-3.35181E-14 1.21164E-12-1.59471E-13
 -1        15 3.78075E-14 8.21966E-13-2.13481E-12 2.93235E-13-8.88907E-13 1.14390E-13
 -1        16-1.80738E-13 1.08665E-12-2.18851E-12 3.22225E-18-8.00376E-13-1.63071E-18
 -1        17 3.78094E-14 8.21960E-13-2.13481E-12-2.93232E-13-8.88908E-13-1.14393E-13
 -1        18-2.39587E-13-3.40399E-13 1.45493E-12 3.35185E-14 1.21164E-12 1.59470E-13
 -1        19-7.35528E-13-1.23808E-12 4.99097E-12-1.43704E-18 7.62091E-19 6.17837E-13
 -1        20-2.39587E-13-3.40397E-13 1.45493E-12-3.35192E-14-1.21164E-12 1.59469E-13
 -1        21-1.28623E-13 8.71013E-13-2.07193E-12 4.01740E-13-8.69630E-13-1.27432E-12
 -1        22 1.47407E-13 2.14684E-12-7.11303E-12 3.87368E-17-4.32507E-12-1.72087E-17
 -1        23-1.28662E-13 8.71070E-13-2.07195E-12-4.01753E-13-8.69672E-13 1.27430E-12
 -1        24 8.71038E-13-1.28737E-13-2.07191E-12-4.01769E-13-1.27434E-12 8.69719E-13
 -1        25 2.14677E-12 1.47363E-13-7.11294E-12 3.05309E-17 2.96571E-17 4.32518E-12
 -1        26 8.71025E-13-1.28722E-13-2.07190E-12 4.01755E-13 1.27434E-12 8.69713E-13
 -1        27-1.28640E-13 8.70987E-13-2.07194E-12 4.01744E-13 8.69660E-13 1.27430E-12
 -1        28 1.47416E-13 2.14683E-12-7.11303E-12-1.54021E-17 4.32509E-12-6.02260E-18
 -1        29-1.28635E-13 8.71105E-13-2.07194E-12-4.01760E-13 8.69637E-13-1.27432E-12
 -1        30 8.71010E-13-1.28618E-13-2.07191E-12-4.01734E-13 1.27432E-12-8.69715E-13
 -1        31 2.14668E-12 1.47458E-13-7.11298E-12-9.33200E-18-1.01914E-17-4.32516E-12
 -1        32 8.70996E-13-1.28590E-13-2.07191E-12 4.01716E-13-1.27432E-12-8.69707E-13
 -1        33-1.37805E-13-1.87059E-13 3.34813E-13-1.73226E-13 1.41082E-14-4.43387E-14
 -1        34-6.01051E-13-5.28915E-13 2.15962E-12 1.05553E-13-4.84594E-13-7.85516E-14
 -1        35-5.44766E-13-4.07657E-13 1.62912E-12 4.88877E-14-4.45344E-14 5.64259E-14
 -1        36-4.55863E-13-6.00429E-13 1.69034E-12-4.68528E-14 5.03124E-15-4.98662E-14
 -1        37-4.99192E-13-5.05341E-13 1.68015E-12-2.34131E-15 3.27903E-14-6.99548E-16
 -1        38-5.05005E-13-4.94794E-13 1.67645E-12-7.27349E-15-3.29841E-14 1.10658E-14
 -1        39-5.08328E-13-5.05147E-13 1.67683E-12 1.07183E-14 4.39918E-15-9.25842E-15
 -1        40-4.96295E-13-5.00777E-13 1.68841E-12-1.30327E-14 8.13843E-15-5.27516E-15
 -1        41-5.04168E-13-5.04653E-13 1.67508E-12 1.79361E-15-1.27340E-14 1.44656E-14
 -1        42-4.79249E-13-4.78325E-13 1.66029E-12-5.88587E-14-1.22742E-13 1.21732E-13
 -1        43-5.41800E-13-5.41694E-13 1.70247E-12 6.48592E-14 1.36633E-13-1.37071E-13
 -1        44-5.51698E-13-5.51986E-13 1.60276E-12-9.96179E-14 2.33427E-13-2.33212E-13
 -1        45-3.97129E-13-3.97151E-13 1.81578E-12-5.87776E-15-4.22027E-13 4.22158E-13
 -1        46-5.16405E-13-5.16361E-13 1.04360E-12 1.64031E-13-5.74719E-13 5.74654E-13
 -1        47-5.46552E-13-5.46643E-13 1.45123E-12-2.54329E-13 1.10451E-12-1.10456E-12
 -1        48-5.46543E-13-5.46555E-13 1.45122E-12 2.54314E-13 1.10454E-12 1.10454E-12
 -1        49-5.16406E-13-5.16412E-13 1.04359E-12-1.63996E-13-5.74748E-13-5.74667E-13
 -1        50-3.97132E-13-3.97126E-13 1.81579E-12 5.87816E-15-4.22031E-13-4.22159E-13
 -1        51-5.51702E-13-5.51941E-13 1.60275E-12 9.95811E-14 2.33454E-13 2.33214E-13
 -1        52-5.41794E-13-5.41728E-13 1.70247E-12-6.48455E-14 1.36634E-13 1.37074E-13
 -1        53-4.79249E-13-4.78306E-13 1.66029E-12 5.89642E-14-1.22769E-13-1.21733E-13
 -1        54-5.04174E-13-5.04668E-13 1.67506E-12-1.77706E-15-1.27359E-14-1.44641E-14
 -1        55-4.96284E-13-5.00764E-13 1.68841E-12 1.29734E-14 8.15133E-15 5.27440E-15
 -1        56-5.08319E-13-5.05166E-13 1.67683E-12-1.07395E-14 4.39922E-15 9.25380E-15
 -1        57-5.05008E-13-4.94780E-13 1.67645E-12 7.28192E-15-3.29872E-14-1.10660E-14
 -1        58-4.99196E-13-5.05339E-13 1.68015E-12 2.33334E-15 3.27999E-14 7.01942E-16
 -1        59-4.55865E-13-6.00448E-13 1.69034E-12 4.68284E-14 5.04900E-15 4.98687E-14
 -1        60-5.44766E-13-4.07643E-13 1.62912E-12-4.88886E-14-4.45376E-14-5.64273E-14
 -1        61-6.01053E-13-5.28937E-13 2.15961E-12-1.05549E-13-4.84597E-13 7.85499E-14
 -1        62-1.37807E-13-1.87071E-13 3.34812E-13 1.73222E-13 1.41072E-14 4.43390E-14
 -1        63-1.37805E-13-1.87072E-13 3.34810E-13 1.73224E-13-1.41116E-14-4.43425E-14
 -1        64-6.01052E-13-5.28936E-13 2.15962E-12-1.05550E-13 4.84585E-13-7.85494E-14
 -1        65-5.44764E-13-4.07655E-13 1.62911E-12-4.88861E-14 4.45338E-14 5.64258E-14
 -1        66-4.55862E-13-6.00425E-13 1.69034E-12 4.68470E-14-5.03562E-15-4.98715E-14
 -1        67-4.99194E-13-5.05337E-13 1.68014E-12 2.34433E-15-3.27974E-14-7.04792E-16
 -1        68-5.05005E-13-4.94776E-13 1.67643E-12 7.27119E-15 3.29806E-14 1.10656E-14
 -1        69-5.08324E-13-5.05161E-13 1.67684E-12-1.07217E-14-4.39809E-15-9.25899E-15
 -1        70-4.96293E-13-5.00735E-13 1.68841E-12 1.30250E-14-8.15490E-15-5.28148E-15
 -1        71-5.04173E-13-5.04629E-13 1.67506E-12-1.78614E-15 1.27175E-14 1.44670E-14
 -1        72-4.79248E-13-4.78395E-13 1.66029E-12 5.89096E-14 1.22740E-13 1.21741E-13
 -1        73-5.41795E-13-5.41717E-13 1.70248E-12-6.48472E-14-1.36641E-13-1.37074E-13
 -1        74-5.51702E-13-5.51820E-13 1.60275E-12 9.95940E-14-2.33424E-13-2.33223E-13
 -1        75-3.97131E-13-3.97117E-13 1.81578E-12 5.86763E-15 4.22028E-13 4.22163E-13
 -1        76-5.16397E-13-5.16437E-13 1.04358E-12-1.64034E-13 5.74713E-13 5.74666E-13
 -1        77-5.46549E-13-5.46616E-13 1.45121E-12 2.54287E-13-1.10454E-12-1.10456E-12
 -1        78-1.37808E-13-1.87054E-13 3.34814E-13-1.73222E-13-1.41073E-14 4.43421E-14
 -1        79-6.01055E-13-5.28914E-13 2.15962E-12 1.05554E-13 4.84600E-13 7.85503E-14
 -1        80-5.44765E-13-4.07663E-13 1.62912E-12 4.88889E-14 4.45356E-14-5.64296E-14
 -1        81-4.55863E-13-6.00419E-13 1.69033E-12-4.68473E-14-5.02748E-15 4.98640E-14
 -1        82-4.99198E-13-5.05294E-13 1.68015E-12-2.33953E-15-3.27790E-14 7.01867E-16
 -1        83-5.05011E-13-4.94788E-13 1.67644E-12-7.25274E-15 3.29757E-14-1.10671E-14
 -1        84-5.08320E-13-5.05164E-13 1.67684E-12 1.07603E-14-4.40214E-15 9.25835E-15
 -1        85-4.96289E-13-5.00666E-13 1.68842E-12-1.30190E-14-8.12755E-15 5.28191E-15
 -1        86-5.04177E-13-5.04597E-13 1.67508E-12 1.76784E-15 1.27370E-14-1.44625E-14
 -1        87-4.79247E-13-4.78406E-13 1.66029E-12-5.89210E-14 1.22775E-13-1.21728E-13
 -1        88-5.41793E-13-5.41734E-13 1.70247E-12 6.48550E-14-1.36606E-13 1.37073E-13
 -1        89-5.51704E-13-5.51907E-13 1.60276E-12-9.95749E-14-2.33479E-13 2.33206E-13
 -1        90-3.97134E-13-3.97130E-13 1.81578E-12-5.86948E-15 4.22034E-13-4.22160E-13
 -1        91-5.16412E-13-5.16408E-13 1.04360E-12 1.64036E-13 5.74806E-13-5.74651E-13
 -1        92-5.46545E-13-5.46548E-13 1.45124E-12-2.54286E-13-1.10451E-12 1.10455E-12
 -1        93-4.58133E-13 2.10940E-13 1.39378E-12 1.32792E-18-1.19931E-12 4.84281E-19