# vtk DataFile Version 3.0

ASCII
DATASET UNSTRUCTURED_GRID

POINTS 261 double
	 0.00000000E+00	 0.00000000E+00	 0.00000000E+00
	 1.00000000E+00	 0.00000000E+00	 0.00000000E+00
	 1.00000000E+00	 1.00000000E+00	 0.00000000E+00
	 0.00000000E+00	 1.00000000E+00	 0.00000000E+00
	 0.00000000E+00	 0.00000000E+00	 8.00000000E+00
	 1.00000000E+00	 0.00000000E+00	 8.00000000E+00
	 1.00000000E+00	 1.00000000E+00	 8.00000000E+00
	 0.00000000E+00	 1.00000000E+00	 8.00000000E+00
	 2.50000000E-01	 0.00000000E+00	 0.00000000E+00
	 5.00000000E-01	 0.00000000E+00	 0.00000000E+00
	 7.50000000E-01	 0.00000000E+00	 0.00000000E+00
	 1.00000000E+00	 2.50000000E-01	 0.00000000E+00
	 1.00000000E+00	 5.00000000E-01	 0.00000000E+00
	 1.00000000E+00	 7.50000000E-01	 0.00000000E+00
	 7.50000000E-01	 1.00000000E+00	 0.00000000E+00
	 5.00000000E-01	 1.00000000E+00	 0.00000000E+00
	 2.50000000E-01	 1.00000000E+00	 0.00000000E+00
	 0.00000000E+00	 7.50000000E-01	 0.00000000E+00
	 0.00000000E+00	 5.00000000E-01	 0.00000000E+00
	 0.00000000E+00	 2.50000000E-01	 0.00000000E+00
	 2.50000000E-01	 0.00000000E+00	 8.00000000E+00
	 5.00000000E-01	 0.00000000E+00	 8.00000000E+00
	 7.50000000E-01	 0.00000000E+00	 8.00000000E+00
	 1.00000000E+00	 2.50000000E-01	 8.00000000E+00
	 1.00000000E+00	 5.00000000E-01	 8.00000000E+00
	 1.00000000E+00	 7.50000000E-01	 8.00000000E+00
	 7.50000000E-01	 1.00000000E+00	 8.00000000E+00
	 5.00000000E-01	 1.00000000E+00	 8.00000000E+00
	 2.50000000E-01	 1.00000000E+00	 8.00000000E+00
	 0.00000000E+00	 7.50000000E-01	 8.00000000E+00
	 0.00000000E+00	 5.00000000E-01	 8.00000000E+00
	 0.00000000E+00	 2.50000000E-01	 8.00000000E+00
	 1.00000000E+00	 0.00000000E+00	 5.00000000E-01
	 1.00000000E+00	 0.00000000E+00	 1.00000000E+00
	 1.00000000E+00	 0.00000000E+00	 1.50000000E+00
	 1.00000000E+00	 0.00000000E+00	 2.00000000E+00
	 1.00000000E+00	 0.00000000E+00	 2.50000000E+00
	 1.00000000E+00	 0.00000000E+00	 3.00000000E+00
	 1.00000000E+00	 0.00000000E+00	 3.50000000E+00
	 1.00000000E+00	 0.00000000E+00	 4.00000000E+00
	 1.00000000E+00	 0.00000000E+00	 4.50000000E+00
	 1.00000000E+00	 0.00000000E+00	 5.00000000E+00
	 1.00000000E+00	 0.00000000E+00	 5.50000000E+00
	 1.00000000E+00	 0.00000000E+00	 6.00000000E+00
	 1.00000000E+00	 0.00000000E+00	 6.50000000E+00
	 1.00000000E+00	 0.00000000E+00	 7.00000000E+00
	 1.00000000E+00	 0.00000000E+00	 7.50000000E+00
	 0.00000000E+00	 0.00000000E+00	 7.50000000E+00
	 0.00000000E+00	 0.00000000E+00	 7.00000000E+00
	 0.00000000E+00	 0.00000000E+00	 6.50000000E+00
	 0.00000000E+00	 0.00000000E+00	 6.00000000E+00
	 0.00000000E+00	 0.00000000E+00	 5.50000000E+00
	 0.00000000E+00	 0.00000000E+00	 5.00000000E+00
	 0.00000000E+00	 0.00000000E+00	 4.50000000E+00
	 0.00000000E+00	 0.00000000E+00	 4.00000000E+00
	 0.00000000E+00	 0.00000000E+00	 3.50000000E+00
	 0.00000000E+00	 0.00000000E+00	 3.00000000E+00
	 0.00000000E+00	 0.00000000E+00	 2.50000000E+00
	 0.00000000E+00	 0.00000000E+00	 2.00000000E+00
	 0.00000000E+00	 0.00000000E+00	 1.50000000E+00
	 0.00000000E+00	 0.00000000E+00	 1.00000000E+00
	 0.00000000E+00	 0.00000000E+00	 5.00000000E-01
	 1.00000000E+00	 1.00000000E+00	 5.00000000E-01
	 1.00000000E+00	 1.00000000E+00	 1.00000000E+00
	 1.00000000E+00	 1.00000000E+00	 1.50000000E+00
	 1.00000000E+00	 1.00000000E+00	 2.00000000E+00
	 1.00000000E+00	 1.00000000E+00	 2.50000000E+00
	 1.00000000E+00	 1.00000000E+00	 3.00000000E+00
	 1.00000000E+00	 1.00000000E+00	 3.50000000E+00
	 1.00000000E+00	 1.00000000E+00	 4.00000000E+00
	 1.00000000E+00	 1.00000000E+00	 4.50000000E+00
	 1.00000000E+00	 1.00000000E+00	 5.00000000E+00
	 1.00000000E+00	 1.00000000E+00	 5.50000000E+00
	 1.00000000E+00	 1.00000000E+00	 6.00000000E+00
	 1.00000000E+00	 1.00000000E+00	 6.50000000E+00
	 1.00000000E+00	 1.00000000E+00	 7.00000000E+00
	 1.00000000E+00	 1.00000000E+00	 7.50000000E+00
	 0.00000000E+00	 1.00000000E+00	 5.00000000E-01
	 0.00000000E+00	 1.00000000E+00	 1.00000000E+00
	 0.00000000E+00	 1.00000000E+00	 1.50000000E+00
	 0.00000000E+00	 1.00000000E+00	 2.00000000E+00
	 0.00000000E+00	 1.00000000E+00	 2.50000000E+00
	 0.00000000E+00	 1.00000000E+00	 3.00000000E+00
	 0.00000000E+00	 1.00000000E+00	 3.50000000E+00
	 0.00000000E+00	 1.00000000E+00	 4.00000000E+00
	 0.00000000E+00	 1.00000000E+00	 4.50000000E+00
	 0.00000000E+00	 1.00000000E+00	 5.00000000E+00
	 0.00000000E+00	 1.00000000E+00	 5.50000000E+00
	 0.00000000E+00	 1.00000000E+00	 6.00000000E+00
	 0.00000000E+00	 1.00000000E+00	 6.50000000E+00
	 0.00000000E+00	 1.00000000E+00	 7.00000000E+00
	 0.00000000E+00	 1.00000000E+00	 7.50000000E+00
	 5.00000000E-01	 2.50000000E-01	 0.00000000E+00
	 2.50000000E-01	 5.00000000E-01	 0.00000000E+00
	 5.00000000E-01	 5.00000000E-01	 0.00000000E+00
	 7.50000000E-01	 5.00000000E-01	 0.00000000E+00
	 5.00000000E-01	 7.50000000E-01	 0.00000000E+00
	 5.00000000E-01	 2.50000000E-01	 8.00000000E+00
	 2.50000000E-01	 5.00000000E-01	 8.00000000E+00
	 5.00000000E-01	 5.00000000E-01	 8.00000000E+00
	 7.50000000E-01	 5.00000000E-01	 8.00000000E+00
	 5.00000000E-01	 7.50000000E-01	 8.00000000E+00
	 5.00000000E-01	 0.00000000E+00	 5.00000000E-01
	 2.50000000E-01	 0.00000000E+00	 1.00000000E+00
	 5.00000000E-01	 0.00000000E+00	 1.00000000E+00
	 7.50000000E-01	 0.00000000E+00	 1.00000000E+00
	 5.00000000E-01	 0.00000000E+00	 1.50000000E+00
	 2.50000000E-01	 0.00000000E+00	 2.00000000E+00
	 5.00000000E-01	 0.00000000E+00	 2.00000000E+00
	 7.50000000E-01	 0.00000000E+00	 2.00000000E+00
	 5.00000000E-01	 0.00000000E+00	 2.50000000E+00
	 2.50000000E-01	 0.00000000E+00	 3.00000000E+00
	 5.00000000E-01	 0.00000000E+00	 3.00000000E+00
	 7.50000000E-01	 0.00000000E+00	 3.00000000E+00
	 5.00000000E-01	 0.00000000E+00	 3.50000000E+00
	 2.50000000E-01	 0.00000000E+00	 4.00000000E+00
	 5.00000000E-01	 0.00000000E+00	 4.00000000E+00
	 7.50000000E-01	 0.00000000E+00	 4.00000000E+00
	 5.00000000E-01	 0.00000000E+00	 4.50000000E+00
	 2.50000000E-01	 0.00000000E+00	 5.00000000E+00
	 5.00000000E-01	 0.00000000E+00	 5.00000000E+00
	 7.50000000E-01	 0.00000000E+00	 5.00000000E+00
	 5.00000000E-01	 0.00000000E+00	 5.50000000E+00
	 2.50000000E-01	 0.00000000E+00	 6.00000000E+00
	 5.00000000E-01	 0.00000000E+00	 6.00000000E+00
	 7.50000000E-01	 0.00000000E+00	 6.00000000E+00
	 5.00000000E-01	 0.00000000E+00	 6.50000000E+00
	 2.50000000E-01	 0.00000000E+00	 7.00000000E+00
	 5.00000000E-01	 0.00000000E+00	 7.00000000E+00
	 7.50000000E-01	 0.00000000E+00	 7.00000000E+00
	 5.00000000E-01	 0.00000000E+00	 7.50000000E+00
	 1.00000000E+00	 5.00000000E-01	 5.00000000E-01
	 1.00000000E+00	 2.50000000E-01	 1.00000000E+00
	 1.00000000E+00	 5.00000000E-01	 1.00000000E+00
	 1.00000000E+00	 7.50000000E-01	 1.00000000E+00
	 1.00000000E+00	 5.00000000E-01	 1.50000000E+00
	 1.00000000E+00	 2.50000000E-01	 2.00000000E+00
	 1.00000000E+00	 5.00000000E-01	 2.00000000E+00
	 1.00000000E+00	 7.50000000E-01	 2.00000000E+00
	 1.00000000E+00	 5.00000000E-01	 2.50000000E+00
	 1.00000000E+00	 2.50000000E-01	 3.00000000E+00
	 1.00000000E+00	 5.00000000E-01	 3.00000000E+00
	 1.00000000E+00	 7.50000000E-01	 3.00000000E+00
	 1.00000000E+00	 5.00000000E-01	 3.50000000E+00
	 1.00000000E+00	 2.50000000E-01	 4.00000000E+00
	 1.00000000E+00	 5.00000000E-01	 4.00000000E+00
	 1.00000000E+00	 7.50000000E-01	 4.00000000E+00
	 1.00000000E+00	 5.00000000E-01	 4.50000000E+00
	 1.00000000E+00	 2.50000000E-01	 5.00000000E+00
	 1.00000000E+00	 5.00000000E-01	 5.00000000E+00
	 1.00000000E+00	 7.50000000E-01	 5.00000000E+00
	 1.00000000E+00	 5.00000000E-01	 5.50000000E+00
	 1.00000000E+00	 2.50000000E-01	 6.00000000E+00
	 1.00000000E+00	 5.00000000E-01	 6.00000000E+00
	 1.00000000E+00	 7.50000000E-01	 6.00000000E+00
	 1.00000000E+00	 5.00000000E-01	 6.50000000E+00
	 1.00000000E+00	 2.50000000E-01	 7.00000000E+00
	 1.00000000E+00	 5.00000000E-01	 7.00000000E+00
	 1.00000000E+00	 7.50000000E-01	 7.00000000E+00
	 1.00000000E+00	 5.00000000E-01	 7.50000000E+00
	 5.00000000E-01	 1.00000000E+00	 5.00000000E-01
	 7.50000000E-01	 1.00000000E+00	 1.00000000E+00
	 5.00000000E-01	 1.00000000E+00	 1.00000000E+00
	 2.50000000E-01	 1.00000000E+00	 1.00000000E+00
	 5.00000000E-01	 1.00000000E+00	 1.50000000E+00
	 7.50000000E-01	 1.00000000E+00	 2.00000000E+00
	 5.00000000E-01	 1.00000000E+00	 2.00000000E+00
	 2.50000000E-01	 1.00000000E+00	 2.00000000E+00
	 5.00000000E-01	 1.00000000E+00	 2.50000000E+00
	 7.50000000E-01	 1.00000000E+00	 3.00000000E+00
	 5.00000000E-01	 1.00000000E+00	 3.00000000E+00
	 2.50000000E-01	 1.00000000E+00	 3.00000000E+00
	 5.00000000E-01	 1.00000000E+00	 3.50000000E+00
	 7.50000000E-01	 1.00000000E+00	 4.00000000E+00
	 5.00000000E-01	 1.00000000E+00	 4.00000000E+00
	 2.50000000E-01	 1.00000000E+00	 4.00000000E+00
	 5.00000000E-01	 1.00000000E+00	 4.50000000E+00
	 7.50000000E-01	 1.00000000E+00	 5.00000000E+00
	 5.00000000E-01	 1.00000000E+00	 5.00000000E+00
	 2.50000000E-01	 1.00000000E+00	 5.00000000E+00
	 5.00000000E-01	 1.00000000E+00	 5.50000000E+00
	 7.50000000E-01	 1.00000000E+00	 6.00000000E+00
	 5.00000000E-01	 1.00000000E+00	 6.00000000E+00
	 2.50000000E-01	 1.00000000E+00	 6.00000000E+00
	 5.00000000E-01	 1.00000000E+00	 6.50000000E+00
	 7.50000000E-01	 1.00000000E+00	 7.00000000E+00
	 5.00000000E-01	 1.00000000E+00	 7.00000000E+00
	 2.50000000E-01	 1.00000000E+00	 7.00000000E+00
	 5.00000000E-01	 1.00000000E+00	 7.50000000E+00
	 0.00000000E+00	 5.00000000E-01	 5.00000000E-01
	 0.00000000E+00	 7.50000000E-01	 1.00000000E+00
	 0.00000000E+00	 5.00000000E-01	 1.00000000E+00
	 0.00000000E+00	 2.50000000E-01	 1.00000000E+00
	 0.00000000E+00	 5.00000000E-01	 1.50000000E+00
	 0.00000000E+00	 7.50000000E-01	 2.00000000E+00
	 0.00000000E+00	 5.00000000E-01	 2.00000000E+00
	 0.00000000E+00	 2.50000000E-01	 2.00000000E+00
	 0.00000000E+00	 5.00000000E-01	 2.50000000E+00
	 0.00000000E+00	 7.50000000E-01	 3.00000000E+00
	 0.00000000E+00	 5.00000000E-01	 3.00000000E+00
	 0.00000000E+00	 2.50000000E-01	 3.00000000E+00
	 0.00000000E+00	 5.00000000E-01	 3.50000000E+00
	 0.00000000E+00	 7.50000000E-01	 4.00000000E+00
	 0.00000000E+00	 5.00000000E-01	 4.00000000E+00
	 0.00000000E+00	 2.50000000E-01	 4.00000000E+00
	 0.00000000E+00	 5.00000000E-01	 4.50000000E+00
	 0.00000000E+00	 7.50000000E-01	 5.00000000E+00
	 0.00000000E+00	 5.00000000E-01	 5.00000000E+00
	 0.00000000E+00	 2.50000000E-01	 5.00000000E+00
	 0.00000000E+00	 5.00000000E-01	 5.50000000E+00
	 0.00000000E+00	 7.50000000E-01	 6.00000000E+00
	 0.00000000E+00	 5.00000000E-01	 6.00000000E+00
	 0.00000000E+00	 2.50000000E-01	 6.00000000E+00
	 0.00000000E+00	 5.00000000E-01	 6.50000000E+00
	 0.00000000E+00	 7.50000000E-01	 7.00000000E+00
	 0.00000000E+00	 5.00000000E-01	 7.00000000E+00
	 0.00000000E+00	 2.50000000E-01	 7.00000000E+00
	 0.00000000E+00	 5.00000000E-01	 7.50000000E+00
	 5.00000000E-01	 5.00000000E-01	 5.00000000E-01
	 5.00000000E-01	 2.50000000E-01	 1.00000000E+00
	 2.50000000E-01	 5.00000000E-01	 1.00000000E+00
	 5.00000000E-01	 5.00000000E-01	 1.00000000E+00
	 7.50000000E-01	 5.00000000E-01	 1.00000000E+00
	 5.00000000E-01	 7.50000000E-01	 1.00000000E+00
	 5.00000000E-01	 5.00000000E-01	 1.50000000E+00
	 5.00000000E-01	 2.50000000E-01	 2.00000000E+00
	 2.50000000E-01	 5.00000000E-01	 2.00000000E+00
	 5.00000000E-01	 5.00000000E-01	 2.00000000E+00
	 7.50000000E-01	 5.00000000E-01	 2.00000000E+00
	 5.00000000E-01	 7.50000000E-01	 2.00000000E+00
	 5.00000000E-01	 5.00000000E-01	 2.50000000E+00
	 5.00000000E-01	 2.50000000E-01	 3.00000000E+00
	 2.50000000E-01	 5.00000000E-01	 3.00000000E+00
	 5.00000000E-01	 5.00000000E-01	 3.00000000E+00
	 7.50000000E-01	 5.00000000E-01	 3.00000000E+00
	 5.00000000E-01	 7.50000000E-01	 3.00000000E+00
	 5.00000000E-01	 5.00000000E-01	 3.50000000E+00
	 5.00000000E-01	 2.50000000E-01	 4.00000000E+00
	 2.50000000E-01	 5.00000000E-01	 4.00000000E+00
	 5.00000000E-01	 5.00000000E-01	 4.00000000E+00
	 7.50000000E-01	 5.00000000E-01	 4.00000000E+00
	 5.00000000E-01	 7.50000000E-01	 4.00000000E+00
	 5.00000000E-01	 5.00000000E-01	 4.50000000E+00
	 5.00000000E-01	 2.50000000E-01	 5.00000000E+00
	 2.50000000E-01	 5.00000000E-01	 5.00000000E+00
	 5.00000000E-01	 5.00000000E-01	 5.00000000E+00
	 7.50000000E-01	 5.00000000E-01	 5.00000000E+00
	 5.00000000E-01	 7.50000000E-01	 5.00000000E+00
	 5.00000000E-01	 5.00000000E-01	 5.50000000E+00
	 5.00000000E-01	 2.50000000E-01	 6.00000000E+00
	 2.50000000E-01	 5.00000000E-01	 6.00000000E+00
	 5.00000000E-01	 5.00000000E-01	 6.00000000E+00
	 7.50000000E-01	 5.00000000E-01	 6.00000000E+00
	 5.00000000E-01	 7.50000000E-01	 6.00000000E+00
	 5.00000000E-01	 5.00000000E-01	 6.50000000E+00
	 5.00000000E-01	 2.50000000E-01	 7.00000000E+00
	 2.50000000E-01	 5.00000000E-01	 7.00000000E+00
	 5.00000000E-01	 5.00000000E-01	 7.00000000E+00
	 7.50000000E-01	 5.00000000E-01	 7.00000000E+00
	 5.00000000E-01	 7.50000000E-01	 7.00000000E+00
	 5.00000000E-01	 5.00000000E-01	 7.50000000E+00

CELLS 32 672
	20 0 9 94 18 60 104 221 191 8 92 93 19 103 219 220 192 61 102 218 189 
	20 9 1 12 94 104 33 133 221 10 11 95 92 105 132 222 219 102 32 131 218 
	20 18 94 15 3 191 221 162 78 93 96 16 17 220 223 163 190 189 218 160 77 
	20 94 12 2 15 221 133 63 162 95 13 14 96 222 134 161 223 218 131 62 160 
	20 60 104 221 191 58 108 227 195 103 219 220 192 107 225 226 196 59 106 224 193 
	20 104 33 133 221 108 35 137 227 105 132 222 219 109 136 228 225 106 34 135 224 
	20 191 221 162 78 195 227 166 80 220 223 163 190 226 229 167 194 193 224 164 79 
	20 221 133 63 162 227 137 65 166 222 134 161 223 228 138 165 229 224 135 64 164 
	20 58 108 227 195 56 112 233 199 107 225 226 196 111 231 232 200 57 110 230 197 
	20 108 35 137 227 112 37 141 233 109 136 228 225 113 140 234 231 110 36 139 230 
	20 195 227 166 80 199 233 170 82 226 229 167 194 232 235 171 198 197 230 168 81 
	20 227 137 65 166 233 141 67 170 228 138 165 229 234 142 169 235 230 139 66 168 
	20 56 112 233 199 54 116 239 203 111 231 232 200 115 237 238 204 55 114 236 201 
	20 112 37 141 233 116 39 145 239 113 140 234 231 117 144 240 237 114 38 143 236 
	20 199 233 170 82 203 239 174 84 232 235 171 198 238 241 175 202 201 236 172 83 
	20 233 141 67 170 239 145 69 174 234 142 169 235 240 146 173 241 236 143 68 172 
	20 54 116 239 203 52 120 245 207 115 237 238 204 119 243 244 208 53 118 242 205 
	20 116 39 145 239 120 41 149 245 117 144 240 237 121 148 246 243 118 40 147 242 
	20 203 239 174 84 207 245 178 86 238 241 175 202 244 247 179 206 205 242 176 85 
	20 239 145 69 174 245 149 71 178 240 146 173 241 246 150 177 247 242 147 70 176 
	20 52 120 245 207 50 124 251 211 119 243 244 208 123 249 250 212 51 122 248 209 
	20 120 41 149 245 124 43 153 251 121 148 246 243 125 152 252 249 122 42 151 248 
	20 207 245 178 86 211 251 182 88 244 247 179 206 250 253 183 210 209 248 180 87 
	20 245 149 71 178 251 153 73 182 246 150 177 247 252 154 181 253 248 151 72 180 
	20 50 124 251 211 48 128 257 215 123 249 250 212 127 255 256 216 49 126 254 213 
	20 124 43 153 251 128 45 157 257 125 152 252 249 129 156 258 255 126 44 155 254 
	20 211 251 182 88 215 257 186 90 250 253 183 210 256 259 187 214 213 254 184 89 
	20 251 153 73 182 257 157 75 186 252 154 181 253 258 158 185 259 254 155 74 184 
	20 48 128 257 215 4 21 99 30 127 255 256 216 20 97 98 31 47 130 260 217 
	20 128 45 157 257 21 5 24 99 129 156 258 255 22 23 100 97 130 46 159 260 
	20 215 257 186 90 30 99 27 7 256 259 187 214 98 101 28 29 217 260 188 91 
	20 257 157 75 186 99 24 6 27 258 158 185 259 100 25 26 101 260 159 76 188 

CELL_TYPES 32
	25
	25
	25
	25
	25
	25
	25
	25
	25
	25
	25
	25
	25
	25
	25
	25
	25
	25
	25
	25
	25
	25
	25
	25
	25
	25
	25
	25
	25
	25
	25
	25

POINT_DATA 261
FIELD E 1
	E 10 261 double
		-7.57567000E-07	-6.04750000E-07	 1.31862000E-06	 2.66345000E-07	-1.96238000E-07	-1.16909000E-07	 1.39618194E-06	-9.58526506E-07	-4.33481679E-07	 1.34831118E-06
		-4.31026000E-07	-2.88707000E-07	 1.48237000E-06	-1.55325000E-07	-3.52265000E-07	-1.31330000E-09	 1.30871964E-06	-5.51154074E-07	-2.36468352E-07	 1.55025943E-06
		 3.30007000E-07	-1.73404000E-07	 2.16168000E-06	-2.77918000E-07	-2.58075000E-07	-7.91771000E-08	 1.48785653E-06	-3.25552998E-07	 4.52684109E-07	 2.19115189E-06
		 2.54041000E-07	 3.85179000E-08	 2.31347000E-06	-5.23014000E-08	-1.93134000E-07	-3.99869000E-07	 1.53931395E-06	-1.41369106E-08	 2.18022376E-07	 2.40214343E-06
		 6.50975000E-09	 4.32992000E-07	-1.73797000E-06	 5.54520000E-07	-2.97831000E-07	-4.33856000E-07	 1.59476458E-06	-1.85259734E-06	-3.51931197E-07	 9.06060284E-07
		-1.49545000E-06	 5.51040000E-07	-2.09467000E-06	-4.08564000E-08	-1.36030000E-08	 9.54790000E-07	 1.94524130E-06	-2.79580701E-06	-7.95612357E-07	 5.52339370E-07
		-1.84728000E-06	-2.17579000E-06	-3.04147000E-06	-1.66579000E-07	 1.70994000E-06	 1.24340000E-06	 2.55036085E-06	-4.78623571E-06	-1.80587234E-06	-4.72431950E-07
		 9.25332000E-08	-1.85101000E-06	-2.17097000E-06	-3.55684000E-07	 1.47009000E-06	-9.77267000E-08	 2.25026115E-06	-3.49739968E-06	-6.72765684E-07	 2.40718562E-07
		-5.69234000E-07	-2.26364000E-07	 1.41613000E-06	 1.42045000E-07	-3.52601000E-07	-1.15458000E-07	 1.30843633E-06	-6.20504282E-07	-2.57334548E-07	 1.49837083E-06
		-3.81592000E-07	 1.80290000E-07	 1.52634000E-06	 1.22179000E-08	-4.89968000E-07	-1.27387000E-07	 1.27422645E-06	-3.90982680E-07	 2.26988641E-08	 1.69332182E-06
		-4.06655000E-07	-4.00741000E-08	 1.51071000E-06	-7.43175000E-08	-4.11618000E-07	-7.10402000E-08	 1.27328067E-06	-4.35164188E-07	-1.15335375E-07	 1.61448046E-06
		-3.56738000E-07	-1.71697000E-06	-1.85628000E-06	-3.19169000E-08	 1.08210000E-06	 3.08821000E-07	 1.61398345E-06	-2.89517286E-06	-7.80309994E-07	-2.54505147E-07
		-1.84280000E-07	-1.94516000E-06	-5.30703000E-06	 5.25625000E-07	 1.32991000E-06	 6.15614000E-07	 3.50203030E-06	-5.79987749E-06	-1.78064320E-06	 1.44050683E-07
		 1.21949000E-07	-4.59244000E-07	-1.62872000E-06	 3.40920000E-07	-5.73547000E-08	 2.66548000E-07	 1.14636473E-06	-1.67825875E-06	-5.92029256E-07	 3.04273007E-07
		 1.63258000E-07	-2.74489000E-07	 2.19874000E-06	-2.18235000E-07	-1.56923000E-07	-1.55678000E-07	 1.56564456E-06	-3.80978192E-07	 2.49974819E-07	 2.21851237E-06
		 1.05249000E-08	-3.86712000E-07	 2.24453000E-06	-1.91611000E-07	-6.27088000E-08	-2.11828000E-07	 1.67233171E-06	-4.71168650E-07	 7.43217593E-08	 2.26518979E-06
		 1.39290000E-07	-1.79666000E-07	 2.28337000E-06	-1.38486000E-07	-1.31390000E-07	-2.95674000E-07	 1.59920447E-06	-2.52649680E-07	 1.67257354E-07	 2.32838633E-06
		 1.01253000E-07	 9.29346000E-08	-1.76883000E-06	 2.70545000E-07	-1.66279000E-07	 3.10002000E-07	 1.34537184E-06	-1.84142804E-06	-1.06495849E-07	 3.73281489E-07
		-1.50181000E-07	-1.34119000E-06	-5.80471000E-06	-1.10368000E-07	 1.35693000E-06	 9.81918000E-07	 3.95026947E-06	-6.33866727E-06	-9.85750245E-07	 2.83365168E-08
		-5.03197000E-07	-1.71724000E-06	-2.21983000E-06	-2.73892000E-07	 1.32852000E-06	 4.13527000E-07	 1.92868676E-06	-3.40447367E-06	-6.29396387E-07	-4.06396942E-07
		-1.35611000E-06	-4.08491000E-07	 2.17956000E-06	-3.50625000E-07	 9.73418000E-08	 3.81369000E-07	 2.19919611E-06	-1.51349314E-06	-2.93145583E-07	 2.22159773E-06
		-1.32266000E-06	-1.33956000E-06	 6.21049000E-06	-5.95581000E-07	 4.82333000E-07	-4.93858000E-07	 5.13678315E-06	-1.92675231E-06	-8.03409811E-07	 6.27843212E-06
		-7.11013000E-07	-4.39048000E-07	 2.11461000E-06	 1.18763000E-08	 2.29274000E-07	-6.14760000E-07	 1.95295243E-06	-8.47640098E-07	-4.48646132E-07	 2.26083523E-06
		-1.91216000E-07	-1.32602000E-06	 1.83464000E-06	-5.86051000E-07	 6.58162000E-07	-3.45027000E-07	 2.14764491E-06	-1.64203715E-06	-1.01056679E-07	 2.06049783E-06
		 9.56279000E-07	-1.39300000E-06	 5.72131000E-06	-3.37147000E-08	-5.01182000E-07	-1.77717000E-06	 4.69756341E-06	-1.44084481E-06	 3.86322315E-07	 6.33911149E-06
		-5.23871000E-07	-8.79358000E-07	 1.31860000E-06	 4.48619000E-07	-3.11174000E-07	-3.33048000E-07	 1.54963402E-06	-1.18630987E-06	-3.40858577E-07	 1.44253945E-06
		-8.56086000E-07	-4.73291000E-07	 1.20415000E-06	 5.46138000E-07	-2.55419000E-07	-4.67015000E-07	 1.54161274E-06	-1.26726890E-06	-2.38911665E-07	 1.38095357E-06
		-1.26979000E-06	 1.48199000E-06	 5.48541000E-06	 3.06848000E-07	-2.10763000E-06	-5.30851000E-07	 4.67001708E-06	-1.32063434E-06	 5.79740210E-07	 6.43850413E-06
		-1.29107000E-06	-5.81231000E-08	 1.67503000E-06	-5.00422000E-07	-2.62193000E-07	 5.09002000E-07	 1.93167913E-06	-1.51839824E-06	 2.03605361E-08	 1.82387460E-06
		-4.50844000E-07	-7.51867000E-07	 1.96862000E-06	 4.02338000E-08	-5.70574000E-07	 3.00725000E-07	 1.87682499E-06	-8.90375810E-07	-4.59265491E-07	 2.11555030E-06
		-1.01309000E-06	-1.60210000E-06	 5.97682000E-06	-3.84129000E-07	-6.98552000E-07	 7.11320000E-07	 5.02205889E-06	-1.80577247E-06	-9.50886923E-07	 6.11828940E-06
		-5.12723000E-07	-1.55924000E-06	 2.05373000E-06	-3.24945000E-07	 4.58154000E-07	 1.44804000E-07	 2.24866411E-06	-1.71317024E-06	-4.20105412E-07	 2.11504265E-06
		-3.16585000E-07	 1.02846000E-07	-6.47177000E-07	-2.20529000E-08	 2.21274000E-07	 5.73161000E-08	 5.08625561E-07	-7.16918007E-07	-3.07338739E-07	 1.63340746E-07
		-2.23983000E-07	-2.25662000E-07	-2.12996000E-06	 8.72776000E-08	 5.75635000E-07	 2.29195000E-07	 1.46121124E-06	-2.30920041E-06	-2.96233675E-07	 2.58290892E-08
		-2.27162000E-07	-5.03372000E-07	-1.67991000E-06	 6.28389000E-08	 3.95763000E-07	 2.78552000E-07	 1.05409468E-06	-1.83915706E-06	-4.55550877E-07	-1.15736059E-07
		-2.13562000E-07	-6.33840000E-08	-1.82441000E-06	 5.95385000E-08	 4.25742000E-07	 2.17949000E-07	 1.25719391E-06	-1.94491968E-06	-2.32741744E-07	 7.63054262E-08
		-2.29681000E-07	-1.22814000E-07	-1.71748000E-06	 5.54312000E-08	 4.07670000E-07	 2.21657000E-07	 1.16221261E-06	-1.84120303E-06	-2.52544976E-07	 2.37730106E-08
		-2.41689000E-07	-2.14398000E-07	-1.72743000E-06	 6.51672000E-08	 4.15017000E-07	 2.19139000E-07	 1.13963772E-06	-1.85770361E-06	-2.91883696E-07	-3.39296910E-08
		-2.28838000E-07	-2.14830000E-07	-1.74215000E-06	 5.76965000E-08	 4.01823000E-07	 2.46824000E-07	 1.15251339E-06	-1.87257117E-06	-2.77962213E-07	-3.52846196E-08
		-2.60247000E-07	-1.95642000E-07	-1.79520000E-06	 7.59892000E-08	 4.32637000E-07	 2.25519000E-07	 1.19086225E-06	-1.92881526E-06	-3.09637274E-07	-1.26364640E-08
		-2.21453000E-07	-1.91606000E-07	-1.76938000E-06	 4.93212000E-08	 4.17091000E-07	 2.38884000E-07	 1.18200563E-06	-1.90175805E-06	-2.57198037E-07	-2.34829090E-08
		-2.22670000E-07	-2.17791000E-07	-1.68178000E-06	 9.14218000E-08	 4.37824000E-07	 1.37639000E-07	 1.11417567E-06	-1.81015962E-06	-2.93896012E-07	-1.81853728E-08
		-1.92184000E-07	-1.71075000E-07	-1.82404000E-06	 4.06810000E-08	 3.77638000E-07	 3.23622000E-07	 1.23735134E-06	-1.95993368E-06	-2.23521023E-07	-3.84429299E-09
		-4.14489000E-07	-5.07450000E-08	-1.55144000E-06	 1.37022000E-07	 2.73613000E-07	 2.51563000E-07	 1.01309109E-06	-1.64129040E-06	-4.43521586E-07	 6.81379832E-08
		-3.01230000E-07	-4.28257000E-07	-2.19966000E-06	 3.00185000E-08	 7.10361000E-07	 1.43685000E-07	 1.48436267E-06	-2.45666276E-06	-3.31514266E-07	-1.40969973E-07
		 4.01725000E-07	-2.60572000E-07	-1.00961000E-06	-2.35156000E-08	 2.93030000E-07	 9.24472000E-08	 8.89613901E-07	-1.11657577E-06	-1.59667832E-07	 4.07786607E-07
		-4.21024000E-07	 4.32078000E-07	-4.46192000E-07	 1.20876000E-07	-2.61057000E-07	 3.39650000E-07	 7.72947888E-07	-8.32493777E-07	-1.07341708E-07	 5.04697485E-07
		 6.79784000E-07	 8.44913000E-07	-1.95997000E-08	 3.26359000E-07	-4.86795000E-07	-4.55913000E-07	 1.00794673E-06	-3.32605823E-07	 4.29036362E-07	 1.40866676E-06
		 2.41997000E-07	 9.71386000E-08	-1.16029000E-06	-9.45840000E-08	 2.91694000E-07	 1.23152000E-07	 9.68814522E-07	-1.23805320E-06	 1.27860409E-07	 2.89038396E-07
		-6.10327000E-07	-5.87821000E-07	-2.46985000E-06	-1.59471000E-07	 8.32488000E-07	 5.38834000E-07	 1.70314882E-06	-2.92116919E-06	-4.82281784E-07	-2.64547024E-07
		-2.04136000E-07	-9.93523000E-08	-1.38367000E-06	 1.87991000E-07	 2.58034000E-07	 1.16889000E-07	 9.12294206E-07	-1.43876592E-06	-3.43694126E-07	 9.53017482E-08
		-1.62207000E-07	-1.33315000E-07	-1.88430000E-06	 1.51393000E-07	 3.44662000E-07	 1.58418000E-07	 1.25017648E-06	-1.95882204E-06	-2.93369071E-07	 7.23691108E-08
		-2.50610000E-07	-2.03001000E-07	-1.80818000E-06	-1.48038000E-08	 4.91782000E-07	 3.22421000E-07	 1.25441748E-06	-2.00332861E-06	-2.26315505E-07	-3.21468805E-08
		-2.56279000E-07	-2.17691000E-07	-1.87598000E-06	 5.37556000E-08	 4.50875000E-07	 2.52492000E-07	 1.24672225E-06	-2.02111346E-06	-2.93381820E-07	-3.54547222E-08
		-2.62347000E-07	-2.06608000E-07	-1.91268000E-06	 6.87170000E-08	 4.50625000E-07	 2.57833000E-07	 1.27217785E-06	-2.05500608E-06	-3.08210857E-07	-1.84180644E-08
		-2.43985000E-07	-2.15018000E-07	-1.86718000E-06	 7.42685000E-08	 4.34380000E-07	 2.46473000E-07	 1.23782468E-06	-2.00246589E-06	-3.02851475E-07	-2.08656322E-08
		-2.42628000E-07	-2.21674000E-07	-1.89695000E-06	 5.23748000E-08	 4.51687000E-07	 2.63245000E-07	 1.26492364E-06	-2.04372600E-06	-2.83911027E-07	-3.36149730E-08
		-2.65969000E-07	-1.90043000E-07	-1.89529000E-06	 7.02295000E-08	 4.43505000E-07	 2.46322000E-07	 1.25981827E-06	-2.03192850E-06	-3.07763899E-07	-1.16096021E-08
		-2.82802000E-07	-8.51573000E-08	-2.02510000E-06	 9.94840000E-08	 4.98101000E-07	 2.23723000E-07	 1.38935359E-06	-2.16563201E-06	-3.24120951E-07	 9.66936602E-08
		-2.48589000E-07	-4.15042000E-07	-1.78306000E-06	 1.78594000E-08	 4.45456000E-07	 2.80690000E-07	 1.14688006E-06	-1.95626957E-06	-3.48132659E-07	-1.42288769E-07
		-1.81172000E-07	-2.19920000E-07	-2.48992000E-06	-1.23527000E-08	 6.08726000E-07	 3.32209000E-07	 1.72376173E-06	-2.68512092E-06	-1.80228460E-07	-2.56626220E-08
		-4.49653000E-07	-1.10436000E-07	-1.09121000E-06	 1.62865000E-07	 3.39043000E-07	 9.67733000E-08	 7.29325809E-07	-1.19966905E-06	-5.13576188E-07	 6.19462375E-08
		 1.45451000E-07	 2.29256000E-07	-1.76192000E-07	-4.29594000E-08	-1.65628000E-07	 9.72376000E-08	 3.35746382E-07	-2.50666302E-07	 1.28390334E-07	 3.20790968E-07
		-1.29450000E-07	 5.36658000E-08	-2.14842000E-06	 1.51061000E-07	 3.14919000E-07	 2.35481000E-07	 1.49247158E-06	-2.21432446E-06	-2.13450763E-07	 2.03571027E-07
		-2.53911000E-07	-3.77384000E-07	-1.79373000E-06	 6.43551000E-08	 5.58184000E-07	 2.23669000E-07	 1.20984451E-06	-2.00801550E-06	-3.44076939E-07	-7.29325600E-08
		-2.63736000E-07	-1.68765000E-07	-1.73620000E-06	 4.22677000E-08	 3.63485000E-07	 2.37464000E-07	 1.13292194E-06	-1.84781707E-06	-2.76871519E-07	-4.40124117E-08
		-2.23596000E-07	-1.42138000E-07	-1.69069000E-06	 6.59734000E-08	 3.59572000E-07	 2.28502000E-07	 1.12271096E-06	-1.79795841E-06	-2.60171222E-07	 1.70563004E-09
		-2.11655000E-07	-1.91650000E-07	-1.73825000E-06	 5.72663000E-08	 4.18239000E-07	 2.30419000E-07	 1.16529837E-06	-1.87063116E-06	-2.57265517E-07	-1.36583220E-08
		-2.35961000E-07	-2.10561000E-07	-1.75385000E-06	 5.80051000E-08	 4.24755000E-07	 2.35152000E-07	 1.16627044E-06	-1.89065075E-06	-2.80628660E-07	-2.90925901E-08
		-2.56063000E-07	-2.10923000E-07	-1.74529000E-06	 4.41745000E-08	 4.18138000E-07	 2.37765000E-07	 1.15220123E-06	-1.88158427E-06	-2.83036186E-07	-4.76555456E-08
		-2.07952000E-07	-1.65389000E-07	-1.77482000E-06	 8.06466000E-08	 3.99693000E-07	 2.28224000E-07	 1.18857734E-06	-1.89338727E-06	-2.68635847E-07	 1.38621126E-08
		-1.85420000E-07	-1.52074000E-07	-1.66769000E-06	 3.80676000E-08	 3.68408000E-07	 1.94005000E-07	 1.10997471E-06	-1.77307063E-06	-2.09871195E-07	-2.22421759E-08
		-2.73194000E-07	-2.34440000E-07	-1.87385000E-06	 6.52938000E-08	 4.69562000E-07	 2.77365000E-07	 1.25267405E-06	-2.03484049E-06	-3.21004532E-07	-2.56389771E-08
		-4.30072000E-07	-4.02080000E-07	-1.54271000E-06	-1.17786000E-07	 5.54559000E-07	 3.29483000E-07	 1.06662430E-06	-1.85373121E-06	-3.45456206E-07	-1.75674586E-07
		-8.61024000E-08	-3.80526000E-08	-1.96655000E-06	 2.33931000E-07	 2.64410000E-07	 1.24145000E-07	 1.34145727E-06	-2.00660729E-06	-2.93313846E-07	 2.09216133E-07
		 3.39633000E-07	 4.84490000E-07	-1.46741000E-06	 2.13626000E-07	 3.12278000E-08	-7.50750000E-08	 1.28320662E-06	-1.47135447E-06	 1.90274479E-07	 6.37792988E-07
		-7.60131000E-07	-8.23223000E-07	-1.45617000E-06	-3.18817000E-07	 8.84360000E-07	 5.57360000E-07	 1.33794163E-06	-2.33821748E-06	-5.11158743E-07	-1.90147775E-07
		 1.41017000E-08	-1.18554000E-08	-4.74685000E-07	 3.14814000E-09	 7.26831000E-08	 8.70817000E-08	 3.43528503E-07	-5.00095131E-07	-7.84678888E-09	 3.55032194E-08
		-2.52795000E-07	-2.04774000E-07	-2.52672000E-06	 1.20355000E-07	 4.52431000E-07	 3.73132000E-07	 1.68093320E-06	-2.66131378E-06	-3.51510449E-07	 2.85352333E-08
		-2.55746000E-07	-2.52104000E-07	-1.87845000E-06	 9.44723000E-08	 4.67337000E-07	 2.37854000E-07	 1.24557914E-06	-2.02716990E-06	-3.39937526E-07	-1.91925763E-08
		-2.35130000E-07	-1.97629000E-07	-1.96263000E-06	 4.45969000E-08	 4.13915000E-07	 2.78066000E-07	 1.29997456E-06	-2.09187286E-06	-2.64756305E-07	-3.87598374E-08
		-2.39640000E-07	-2.18604000E-07	-1.88497000E-06	 6.49174000E-08	 4.46172000E-07	 2.53999000E-07	 1.25531087E-06	-2.02679448E-06	-2.92315788E-07	-2.41037332E-08
		-2.58308000E-07	-2.09447000E-07	-1.88322000E-06	 6.72863000E-08	 4.30273000E-07	 2.63474000E-07	 1.24710577E-06	-2.02026940E-06	-3.05171975E-07	-2.55336280E-08
		-2.53755000E-07	-2.02075000E-07	-1.89146000E-06	 6.10088000E-08	 4.57622000E-07	 2.40675000E-07	 1.26184668E-06	-2.03433025E-06	-2.93418177E-07	-1.95415685E-08
		-2.59400000E-07	-2.44638000E-07	-1.88619000E-06	 8.36901000E-08	 4.28368000E-07	 2.69302000E-07	 1.24002841E-06	-2.02453458E-06	-3.33339564E-07	-3.23538531E-08
		-2.44469000E-07	-1.87419000E-07	-1.88791000E-06	 5.13666000E-08	 4.48126000E-07	 2.47878000E-07	 1.26361178E-06	-2.02809495E-06	-2.74650887E-07	-1.70521593E-08
		-2.64294000E-07	-1.95060000E-07	-1.76749000E-06	 1.00511000E-07	 3.24096000E-07	 2.89385000E-07	 1.14796765E-06	-1.87541661E-06	-3.35010995E-07	-1.64163923E-08
		-2.35360000E-07	-1.75143000E-07	-1.91546000E-06	 3.57732000E-08	 5.37541000E-07	 2.02194000E-07	 1.32007913E-06	-2.08657769E-06	-2.51643849E-07	 1.22585348E-08