<?xml version="1.0"?>
<VTKFile type="UnstructuredGrid" version="0.1" byte_order="LittleEndian">
	<UnstructuredGrid>
		<Piece NumberOfPoints="261" NumberOfCells="32">
			<Points>
				<DataArray type="Float64" NumberOfComponents="3" format="ascii">
					 0.00000000E+00	 0.00000000E+00	 0.00000000E+00
					 1.00000000E+00	 0.00000000E+00	 0.00000000E+00
					 1.00000000E+00	 1.00000000E+00	 0.00000000E+00
					 0.00000000E+00	 1.00000000E+00	 0.00000000E+00
					 0.00000000E+00	 0.00000000E+00	 8.00000000E+00
					 1.00000000E+00	 0.00000000E+00	 8.00000000E+00
					 1.00000000E+00	 1.00000000E+00	 8.00000000E+00
					 0.00000000E+00	 1.00000000E+00	 8.00000000E+00
					 2.50000000E-01	 0.00000000E+00	 0.00000000E+00
					 5.00000000E-01	 0.00000000E+00	 0.00000000E+00
					 7.50000000E-01	 0.00000000E+00	 0.00000000E+00
					 1.00000000E+00	 2.50000000E-01	 0.00000000E+00
					 1.00000000E+00	 5.00000000E-01	 0.00000000E+00
					 1.00000000E+00	 7.50000000E-01	 0.00000000E+00
					 7.50000000E-01	 1.00000000E+00	 0.00000000E+00
					 5.00000000E-01	 1.00000000E+00	 0.00000000E+00
					 2.50000000E-01	 1.00000000E+00	 0.00000000E+00
					 0.00000000E+00	 7.50000000E-01	 0.00000000E+00
					 0.00000000E+00	 5.00000000E-01	 0.00000000E+00
					 0.00000000E+00	 2.50000000E-01	 0.00000000E+00
					 2.50000000E-01	 0.00000000E+00	 8.00000000E+00
					 5.00000000E-01	 0.00000000E+00	 8.00000000E+00
					 7.50000000E-01	 0.00000000E+00	 8.00000000E+00
					 1.00000000E+00	 2.50000000E-01	 8.00000000E+00
					 1.00000000E+00	 5.00000000E-01	 8.00000000E+00
					 1.00000000E+00	 7.50000000E-01	 8.00000000E+00
					 7.50000000E-01	 1.00000000E+00	 8.00000000E+00
					 5.00000000E-01	 1.00000000E+00	 8.00000000E+00
					 2.50000000E-01	 1.00000000E+00	 8.00000000E+00
					 0.00000000E+00	 7.50000000E-01	 8.00000000E+00
					 0.00000000E+00	 5.00000000E-01	 8.00000000E+00
					 0.00000000E+00	 2.50000000E-01	 8.00000000E+00
					 1.00000000E+00	 0.00000000E+00	 5.00000000E-01
					 1.00000000E+00	 0.00000000E+00	 1.00000000E+00
					 1.00000000E+00	 0.00000000E+00	 1.50000000E+00
					 1.00000000E+00	 0.00000000E+00	 2.00000000E+00
					 1.00000000E+00	 0.00000000E+00	 2.50000000E+00
					 1.00000000E+00	 0.00000000E+00	 3.00000000E+00
					 1.00000000E+00	 0.00000000E+00	 3.50000000E+00
					 1.00000000E+00	 0.00000000E+00	 4.00000000E+00
					 1.00000000E+00	 0.00000000E+00	 4.50000000E+00
					 1.00000000E+00	 0.00000000E+00	 5.00000000E+00
					 1.00000000E+00	 0.00000000E+00	 5.50000000E+00
					 1.00000000E+00	 0.00000000E+00	 6.00000000E+00
					 1.00000000E+00	 0.00000000E+00	 6.50000000E+00
					 1.00000000E+00	 0.00000000E+00	 7.00000000E+00
					 1.00000000E+00	 0.00000000E+00	 7.50000000E+00
					 0.00000000E+00	 0.00000000E+00	 7.50000000E+00
					 0.00000000E+00	 0.00000000E+00	 7.00000000E+00
					 0.00000000E+00	 0.00000000E+00	 6.50000000E+00
					 0.00000000E+00	 0.00000000E+00	 6.00000000E+00
					 0.00000000E+00	 0.00000000E+00	 5.50000000E+00
					 0.00000000E+00	 0.00000000E+00	 5.00000000E+00
					 0.00000000E+00	 0.00000000E+00	 4.50000000E+00
					 0.00000000E+00	 0.00000000E+00	 4.00000000E+00
					 0.00000000E+00	 0.00000000E+00	 3.50000000E+00
					 0.00000000E+00	 0.00000000E+00	 3.00000000E+00
					 0.00000000E+00	 0.00000000E+00	 2.50000000E+00
					 0.00000000E+00	 0.00000000E+00	 2.00000000E+00
					 0.00000000E+00	 0.00000000E+00	 1.50000000E+00
					 0.00000000E+00	 0.00000000E+00	 1.00000000E+00
					 0.00000000E+00	 0.00000000E+00	 5.00000000E-01
					 1.00000000E+00	 1.00000000E+00	 5.00000000E-01
					 1.00000000E+00	 1.00000000E+00	 1.00000000E+00
					 1.00000000E+00	 1.00000000E+00	 1.50000000E+00
					 1.00000000E+00	 1.00000000E+00	 2.00000000E+00
					 1.00000000E+00	 1.00000000E+00	 2.50000000E+00
					 1.00000000E+00	 1.00000000E+00	 3.00000000E+00
					 1.00000000E+00	 1.00000000E+00	 3.50000000E+00
					 1.00000000E+00	 1.00000000E+00	 4.00000000E+00
					 1.00000000E+00	 1.00000000E+00	 4.50000000E+00
					 1.00000000E+00	 1.00000000E+00	 5.00000000E+00
					 1.00000000E+00	 1.00000000E+00	 5.50000000E+00
					 1.00000000E+00	 1.00000000E+00	 6.00000000E+00
					 1.00000000E+00	 1.00000000E+00	 6.50000000E+00
					 1.00000000E+00	 1.00000000E+00	 7.00000000E+00
					 1.00000000E+00	 1.00000000E+00	 7.50000000E+00
					 0.00000000E+00	 1.00000000E+00	 5.00000000E-01
					 0.00000000E+00	 1.00000000E+00	 1.00000000E+00
					 0.00000000E+00	 1.00000000E+00	 1.50000000E+00
					 0.00000000E+00	 1.00000000E+00	 2.00000000E+00
					 0.00000000E+00	 1.00000000E+00	 2.50000000E+00
					 0.00000000E+00	 1.00000000E+00	 3.00000000E+00
					 0.00000000E+00	 1.00000000E+00	 3.50000000E+00
					 0.00000000E+00	 1.00000000E+00	 4.00000000E+00
					 0.00000000E+00	 1.00000000E+00	 4.50000000E+00
					 0.00000000E+00	 1.00000000E+00	 5.00000000E+00
					 0.00000000E+00	 1.00000000E+00	 5.50000000E+00
					 0.00000000E+00	 1.00000000E+00	 6.00000000E+00
					 0.00000000E+00	 1.00000000E+00	 6.50000000E+00
					 0.00000000E+00	 1.00000000E+00	 7.00000000E+00
					 0.00000000E+00	 1.00000000E+00	 7.50000000E+00
					 5.00000000E-01	 2.50000000E-01	 0.00000000E+00
					 2.50000000E-01	 5.00000000E-01	 0.00000000E+00
					 5.00000000E-01	 5.00000000E-01	 0.00000000E+00
					 7.50000000E-01	 5.00000000E-01	 0.00000000E+00
					 5.00000000E-01	 7.50000000E-01	 0.00000000E+00
					 5.00000000E-01	 2.50000000E-01	 8.00000000E+00
					 2.50000000E-01	 5.00000000E-01	 8.00000000E+00
					 5.00000000E-01	 5.00000000E-01	 8.00000000E+00
					 7.50000000E-01	 5.00000000E-01	 8.00000000E+00
					 5.00000000E-01	 7.50000000E-01	 8.00000000E+00
					 5.00000000E-01	 0.00000000E+00	 5.00000000E-01
					 2.50000000E-01	 0.00000000E+00	 1.00000000E+00
					 5.00000000E-01	 0.00000000E+00	 1.00000000E+00
					 7.50000000E-01	 0.00000000E+00	 1.00000000E+00
					 5.00000000E-01	 0.00000000E+00	 1.50000000E+00
					 2.50000000E-01	 0.00000000E+00	 2.00000000E+00
					 5.00000000E-01	 0.00000000E+00	 2.00000000E+00
					 7.50000000E-01	 0.00000000E+00	 2.00000000E+00
					 5.00000000E-01	 0.00000000E+00	 2.50000000E+00
					 2.50000000E-01	 0.00000000E+00	 3.00000000E+00
					 5.00000000E-01	 0.00000000E+00	 3.00000000E+00
					 7.50000000E-01	 0.00000000E+00	 3.00000000E+00
					 5.00000000E-01	 0.00000000E+00	 3.50000000E+00
					 2.50000000E-01	 0.00000000E+00	 4.00000000E+00
					 5.00000000E-01	 0.00000000E+00	 4.00000000E+00
					 7.50000000E-01	 0.00000000E+00	 4.00000000E+00
					 5.00000000E-01	 0.00000000E+00	 4.50000000E+00
					 2.50000000E-01	 0.00000000E+00	 5.00000000E+00
					 5.00000000E-01	 0.00000000E+00	 5.00000000E+00
					 7.50000000E-01	 0.00000000E+00	 5.00000000E+00
					 5.00000000E-01	 0.00000000E+00	 5.50000000E+00
					 2.50000000E-01	 0.00000000E+00	 6.00000000E+00
					 5.00000000E-01	 0.00000000E+00	 6.00000000E+00
					 7.50000000E-01	 0.00000000E+00	 6.00000000E+00
					 5.00000000E-01	 0.00000000E+00	 6.50000000E+00
					 2.50000000E-01	 0.00000000E+00	 7.00000000E+00
					 5.00000000E-01	 0.00000000E+00	 7.00000000E+00
					 7.50000000E-01	 0.00000000E+00	 7.00000000E+00
					 5.00000000E-01	 0.00000000E+00	 7.50000000E+00
					 1.00000000E+00	 5.00000000E-01	 5.00000000E-01
					 1.00000000E+00	 2.50000000E-01	 1.00000000E+00
					 1.00000000E+00	 5.00000000E-01	 1.00000000E+00
					 1.00000000E+00	 7.50000000E-01	 1.00000000E+00
					 1.00000000E+00	 5.00000000E-01	 1.50000000E+00
					 1.00000000E+00	 2.50000000E-01	 2.00000000E+00
					 1.00000000E+00	 5.00000000E-01	 2.00000000E+00
					 1.00000000E+00	 7.50000000E-01	 2.00000000E+00
					 1.00000000E+00	 5.00000000E-01	 2.50000000E+00
					 1.00000000E+00	 2.50000000E-01	 3.00000000E+00
					 1.00000000E+00	 5.00000000E-01	 3.00000000E+00
					 1.00000000E+00	 7.50000000E-01	 3.00000000E+00
					 1.00000000E+00	 5.00000000E-01	 3.50000000E+00
					 1.00000000E+00	 2.50000000E-01	 4.00000000E+00
					 1.00000000E+00	 5.00000000E-01	 4.00000000E+00
					 1.00000000E+00	 7.50000000E-01	 4.00000000E+00
					 1.00000000E+00	 5.00000000E-01	 4.50000000E+00
					 1.00000000E+00	 2.50000000E-01	 5.00000000E+00
					 1.00000000E+00	 5.00000000E-01	 5.00000000E+00
					 1.00000000E+00	 7.50000000E-01	 5.00000000E+00
					 1.00000000E+00	 5.00000000E-01	 5.50000000E+00
					 1.00000000E+00	 2.50000000E-01	 6.00000000E+00
					 1.00000000E+00	 5.00000000E-01	 6.00000000E+00
					 1.00000000E+00	 7.50000000E-01	 6.00000000E+00
					 1.00000000E+00	 5.00000000E-01	 6.50000000E+00
					 1.00000000E+00	 2.50000000E-01	 7.00000000E+00
					 1.00000000E+00	 5.00000000E-01	 7.00000000E+00
					 1.00000000E+00	 7.50000000E-01	 7.00000000E+00
					 1.00000000E+00	 5.00000000E-01	 7.50000000E+00
					 5.00000000E-01	 1.00000000E+00	 5.00000000E-01
					 7.50000000E-01	 1.00000000E+00	 1.00000000E+00
					 5.00000000E-01	 1.00000000E+00	 1.00000000E+00
					 2.50000000E-01	 1.00000000E+00	 1.00000000E+00
					 5.00000000E-01	 1.00000000E+00	 1.50000000E+00
					 7.50000000E-01	 1.00000000E+00	 2.00000000E+00
					 5.00000000E-01	 1.00000000E+00	 2.00000000E+00
					 2.50000000E-01	 1.00000000E+00	 2.00000000E+00
					 5.00000000E-01	 1.00000000E+00	 2.50000000E+00
					 7.50000000E-01	 1.00000000E+00	 3.00000000E+00
					 5.00000000E-01	 1.00000000E+00	 3.00000000E+00
					 2.50000000E-01	 1.00000000E+00	 3.00000000E+00
					 5.00000000E-01	 1.00000000E+00	 3.50000000E+00
					 7.50000000E-01	 1.00000000E+00	 4.00000000E+00
					 5.00000000E-01	 1.00000000E+00	 4.00000000E+00
					 2.50000000E-01	 1.00000000E+00	 4.00000000E+00
					 5.00000000E-01	 1.00000000E+00	 4.50000000E+00
					 7.50000000E-01	 1.00000000E+00	 5.00000000E+00
					 5.00000000E-01	 1.00000000E+00	 5.00000000E+00
					 2.50000000E-01	 1.00000000E+00	 5.00000000E+00
					 5.00000000E-01	 1.00000000E+00	 5.50000000E+00
					 7.50000000E-01	 1.00000000E+00	 6.00000000E+00
					 5.00000000E-01	 1.00000000E+00	 6.00000000E+00
					 2.50000000E-01	 1.00000000E+00	 6.00000000E+00
					 5.00000000E-01	 1.00000000E+00	 6.50000000E+00
					 7.50000000E-01	 1.00000000E+00	 7.00000000E+00
					 5.00000000E-01	 1.00000000E+00	 7.00000000E+00
					 2.50000000E-01	 1.00000000E+00	 7.00000000E+00
					 5.00000000E-01	 1.00000000E+00	 7.50000000E+00
					 0.00000000E+00	 5.00000000E-01	 5.00000000E-01
					 0.00000000E+00	 7.50000000E-01	 1.00000000E+00
					 0.00000000E+00	 5.00000000E-01	 1.00000000E+00
					 0.00000000E+00	 2.50000000E-01	 1.00000000E+00
					 0.00000000E+00	 5.00000000E-01	 1.50000000E+00
					 0.00000000E+00	 7.50000000E-01	 2.00000000E+00
					 0.00000000E+00	 5.00000000E-01	 2.00000000E+00
					 0.00000000E+00	 2.50000000E-01	 2.00000000E+00
					 0.00000000E+00	 5.00000000E-01	 2.50000000E+00
					 0.00000000E+00	 7.50000000E-01	 3.00000000E+00
					 0.00000000E+00	 5.00000000E-01	 3.00000000E+00
					 0.00000000E+00	 2.50000000E-01	 3.00000000E+00
					 0.00000000E+00	 5.00000000E-01	 3.50000000E+00
					 0.00000000E+00	 7.50000000E-01	 4.00000000E+00
					 0.00000000E+00	 5.00000000E-01	 4.00000000E+00
					 0.00000000E+00	 2.50000000E-01	 4.00000000E+00
					 0.00000000E+00	 5.00000000E-01	 4.50000000E+00
					 0.00000000E+00	 7.50000000E-01	 5.00000000E+00
					 0.00000000E+00	 5.00000000E-01	 5.00000000E+00
					 0.00000000E+00	 2.50000000E-01	 5.00000000E+00
					 0.00000000E+00	 5.00000000E-01	 5.50000000E+00
					 0.00000000E+00	 7.50000000E-01	 6.00000000E+00
					 0.00000000E+00	 5.00000000E-01	 6.00000000E+00
					 0.00000000E+00	 2.50000000E-01	 6.00000000E+00
					 0.00000000E+00	 5.00000000E-01	 6.50000000E+00
					 0.00000000E+00	 7.50000000E-01	 7.00000000E+00
					 0.00000000E+00	 5.00000000E-01	 7.00000000E+00
					 0.00000000E+00	 2.50000000E-01	 7.00000000E+00
					 0.00000000E+00	 5.00000000E-01	 7.50000000E+00
					 5.00000000E-01	 5.00000000E-01	 5.00000000E-01
					 5.00000000E-01	 2.50000000E-01	 1.00000000E+00
					 2.50000000E-01	 5.00000000E-01	 1.00000000E+00
					 5.00000000E-01	 5.00000000E-01	 1.00000000E+00
					 7.50000000E-01	 5.00000000E-01	 1.00000000E+00
					 5.00000000E-01	 7.50000000E-01	 1.00000000E+00
					 5.00000000E-01	 5.00000000E-01	 1.50000000E+00
					 5.00000000E-01	 2.50000000E-01	 2.00000000E+00
					 2.50000000E-01	 5.00000000E-01	 2.00000000E+00
					 5.00000000E-01	 5.00000000E-01	 2.00000000E+00
					 7.50000000E-01	 5.00000000E-01	 2.00000000E+00
					 5.00000000E-01	 7.50000000E-01	 2.00000000E+00
					 5.00000000E-01	 5.00000000E-01	 2.50000000E+00
					 5.00000000E-01	 2.50000000E-01	 3.00000000E+00
					 2.50000000E-01	 5.00000000E-01	 3.00000000E+00
					 5.00000000E-01	 5.00000000E-01	 3.00000000E+00
					 7.50000000E-01	 5.00000000E-01	 3.00000000E+00
					 5.00000000E-01	 7.50000000E-01	 3.00000000E+00
					 5.00000000E-01	 5.00000000E-01	 3.50000000E+00
					 5.00000000E-01	 2.50000000E-01	 4.00000000E+00
					 2.50000000E-01	 5.00000000E-01	 4.00000000E+00
					 5.00000000E-01	 5.00000000E-01	 4.00000000E+00
					 7.50000000E-01	 5.00000000E-01	 4.00000000E+00
					 5.00000000E-01	 7.50000000E-01	 4.00000000E+00
					 5.00000000E-01	 5.00000000E-01	 4.50000000E+00
					 5.00000000E-01	 2.50000000E-01	 5.00000000E+00
					 2.50000000E-01	 5.00000000E-01	 5.00000000E+00
					 5.00000000E-01	 5.00000000E-01	 5.00000000E+00
					 7.50000000E-01	 5.00000000E-01	 5.00000000E+00
					 5.00000000E-01	 7.50000000E-01	 5.00000000E+00
					 5.00000000E-01	 5.00000000E-01	 5.50000000E+00
					 5.00000000E-01	 2.50000000E-01	 6.00000000E+00
					 2.50000000E-01	 5.00000000E-01	 6.00000000E+00
					 5.00000000E-01	 5.00000000E-01	 6.00000000E+00
					 7.50000000E-01	 5.00000000E-01	 6.00000000E+00
					 5.00000000E-01	 7.50000000E-01	 6.00000000E+00
					 5.00000000E-01	 5.00000000E-01	 6.50000000E+00
					 5.00000000E-01	 2.50000000E-01	 7.00000000E+00
					 2.50000000E-01	 5.00000000E-01	 7.00000000E+00
					 5.00000000E-01	 5.00000000E-01	 7.00000000E+00
					 7.50000000E-01	 5.00000000E-01	 7.00000000E+00
					 5.00000000E-01	 7.50000000E-01	 7.00000000E+00
					 5.00000000E-01	 5.00000000E-01	 7.50000000E+00
				</DataArray>
			</Points>
			<Cells>
				<DataArray type="Int32" Name="connectivity" format="ascii">
					0 9 94 18 60 104 221 191 8 92 93 19 103 219 220 192 61 102 218 189 9 1 12 94 104 33 133 221 10 11 95 92 105 132 222 219 102 32 131 218 18 94 15 3 191 221 162 78 93 96 16 17 220 223 163 190 189 218 160 77 94 12 2 15 221 133 63 162 95 13 14 96 222 134 161 223 218 131 62 160 60 104 221 191 58 108 227 195 103 219 220 192 107 225 226 196 59 106 224 193 104 33 133 221 108 35 137 227 105 132 222 219 109 136 228 225 106 34 135 224 191 221 162 78 195 227 166 80 220 223 163 190 226 229 167 194 193 224 164 79 221 133 63 162 227 137 65 166 222 134 161 223 228 138 165 229 224 135 64 164 58 108 227 195 56 112 233 199 107 225 226 196 111 231 232 200 57 110 230 197 108 35 137 227 112 37 141 233 109 136 228 225 113 140 234 231 110 36 139 230 195 227 166 80 199 233 170 82 226 229 167 194 232 235 171 198 197 230 168 81 227 137 65 166 233 141 67 170 228 138 165 229 234 142 169 235 230 139 66 168 56 112 233 199 54 116 239 203 111 231 232 200 115 237 238 204 55 114 236 201 112 37 141 233 116 39 145 239 113 140 234 231 117 144 240 237 114 38 143 236 199 233 170 82 203 239 174 84 232 235 171 198 238 241 175 202 201 236 172 83 233 141 67 170 239 145 69 174 234 142 169 235 240 146 173 241 236 143 68 172 54 116 239 203 52 120 245 207 115 237 238 204 119 243 244 208 53 118 242 205 116 39 145 239 120 41 149 245 117 144 240 237 121 148 246 243 118 40 147 242 203 239 174 84 207 245 178 86 238 241 175 202 244 247 179 206 205 242 176 85 239 145 69 174 245 149 71 178 240 146 173 241 246 150 177 247 242 147 70 176 52 120 245 207 50 124 251 211 119 243 244 208 123 249 250 212 51 122 248 209 120 41 149 245 124 43 153 251 121 148 246 243 125 152 252 249 122 42 151 248 207 245 178 86 211 251 182 88 244 247 179 206 250 253 183 210 209 248 180 87 245 149 71 178 251 153 73 182 246 150 177 247 252 154 181 253 248 151 72 180 50 124 251 211 48 128 257 215 123 249 250 212 127 255 256 216 49 126 254 213 124 43 153 251 128 45 157 257 125 152 252 249 129 156 258 255 126 44 155 254 211 251 182 88 215 257 186 90 250 253 183 210 256 259 187 214 213 254 184 89 251 153 73 182 257 157 75 186 252 154 181 253 258 158 185 259 254 155 74 184 48 128 257 215 4 21 99 30 127 255 256 216 20 97 98 31 47 130 260 217 128 45 157 257 21 5 24 99 129 156 258 255 22 23 100 97 130 46 159 260 215 257 186 90 30 99 27 7 256 259 187 214 98 101 28 29 217 260 188 91 257 157 75 186 99 24 6 27 258 158 185 259 100 25 26 101 260 159 76 188 
				</DataArray>
				<DataArray type="Int32" Name="offsets" format="ascii">
					20 40 60 80 100 120 140 160 180 200 220 240 260 280 300 320 340 360 380 400 420 440 460 480 500 520 540 560 580 600 620 640 
				</DataArray>
				<DataArray type="UInt8" Name="types" format="ascii">
					25 25 25 25 25 25 25 25 25 25 25 25 25 25 25 25 25 25 25 25 25 25 25 25 25 25 25 25 25 25 25 25 
				</DataArray>
			</Cells>
			<PointData>
				<DataArray type="Float32" Name="E" NumberOfComponents="10" ComponentName0="xx" ComponentName1="yy" ComponentName2="zz" ComponentName3="xy" ComponentName4="yz" ComponentName5="zx" ComponentName6="Mises" ComponentName7="Min Principal" ComponentName8="Mid Principal" ComponentName9="Max Principal" format="ascii">
					 2.56354000E-13	 5.57285000E-13	-2.08111000E-12	 3.57568000E-13	 9.77435000E-13	-2.98900000E-13	 2.08437985E-12	-2.46181405E-12	 2.23877248E-13	 9.70465801E-13
					 2.56354000E-13	 5.57285000E-13	-2.08111000E-12	-3.57569000E-13	 9.77441000E-13	 2.98902000E-13	 2.08438422E-12	-2.46181828E-12	 2.23878443E-13	 9.70468840E-13
					 2.56355000E-13	 5.57278000E-13	-2.08111000E-12	 3.57567000E-13	-9.77438000E-13	 2.98893000E-13	 2.08437819E-12	-2.46181455E-12	 2.23875344E-13	 9.70462206E-13
					 2.56354000E-13	 5.57274000E-13	-2.08110000E-12	-3.57567000E-13	-9.77440000E-13	-2.98896000E-13	 2.08437323E-12	-2.46180823E-12	 2.23876361E-13	 9.70459871E-13
					-4.04681000E-13	-4.04704000E-13	 2.96915000E-12	 3.49256000E-13	 2.58582000E-12	 2.58574000E-12	 4.80121752E-12	-2.50035784E-12	-7.53948499E-13	 5.41407134E-12
					-4.04704000E-13	-4.04802000E-13	 2.96913000E-12	-3.49360000E-13	 2.58573000E-12	-2.58574000E-12	 4.80117563E-12	-2.50027515E-12	-7.54112999E-13	 5.41401214E-12
					-4.04707000E-13	-4.04842000E-13	 2.96914000E-12	 3.49271000E-13	-2.58579000E-12	-2.58575000E-12	 4.80122710E-12	-2.50039416E-12	-7.54045497E-13	 5.41403066E-12
					-4.04674000E-13	-4.04628000E-13	 2.96916000E-12	-3.49272000E-13	-2.58581000E-12	 2.58573000E-12	 4.80119487E-12	-2.50030194E-12	-7.53923000E-13	 5.41408294E-12
					 3.78090000E-14	 8.21968000E-13	-2.13481000E-12	 2.93235000E-13	 8.88907000E-13	-1.14392000E-13	 2.07702150E-12	-2.39619847E-12	-6.27590759E-15	 1.12744138E-12
					-1.80737000E-13	 1.08665000E-12	-2.18852000E-12	 1.77737000E-18	 8.00379000E-13	 1.06626000E-18	 2.11911093E-12	-2.37365033E-12	-1.80737000E-13	 1.27178033E-12
					 3.78083000E-14	 8.21967000E-13	-2.13481000E-12	-2.93234000E-13	 8.88910000E-13	 1.14394000E-13	 2.07702267E-12	-2.39620037E-12	-6.27553525E-15	 1.12744120E-12
					-2.39587000E-13	-3.40399000E-13	 1.45493000E-12	 3.35183000E-14	-1.21164000E-12	-1.59469000E-13	 1.83014930E-12	-9.53148278E-13	-2.47825851E-13	 2.07591813E-12
					-7.35527000E-13	-1.23808000E-12	 4.99097000E-12	 1.49353000E-18	-2.44556000E-18	-6.17838000E-13	 4.05891978E-12	-1.23808000E-12	-8.01427825E-13	 5.05687082E-12
					-2.39586000E-13	-3.40397000E-13	 1.45493000E-12	-3.35181000E-14	 1.21164000E-12	-1.59471000E-13	 1.83014888E-12	-9.53146817E-13	-2.47824948E-13	 2.07591876E-12
					 3.78075000E-14	 8.21966000E-13	-2.13481000E-12	 2.93235000E-13	-8.88907000E-13	 1.14390000E-13	 2.07702033E-12	-2.39619833E-12	-6.27792461E-15	 1.12743975E-12
					-1.80738000E-13	 1.08665000E-12	-2.18851000E-12	 3.22225000E-18	-8.00376000E-13	-1.63071000E-18	 2.11910381E-12	-2.37363952E-12	-1.80738000E-13	 1.27177952E-12
					 3.78094000E-14	 8.21960000E-13	-2.13481000E-12	-2.93232000E-13	-8.88908000E-13	-1.14393000E-13	 2.07701844E-12	-2.39619960E-12	-6.27437336E-15	 1.12743338E-12
					-2.39587000E-13	-3.40399000E-13	 1.45493000E-12	 3.35185000E-14	 1.21164000E-12	 1.59470000E-13	 1.83014942E-12	-9.53148310E-13	-2.47825952E-13	 2.07591826E-12
					-7.35528000E-13	-1.23808000E-12	 4.99097000E-12	-1.43704000E-18	 7.62091000E-19	 6.17837000E-13	 4.05891986E-12	-1.23808000E-12	-8.01428603E-13	 5.05687060E-12
					-2.39587000E-13	-3.40397000E-13	 1.45493000E-12	-3.35192000E-14	-1.21164000E-12	 1.59469000E-13	 1.83014886E-12	-9.53146598E-13	-2.47825987E-13	 2.07591859E-12
					-1.28623000E-13	 8.71013000E-13	-2.07193000E-12	 4.01740000E-13	-8.69630000E-13	-1.27432000E-12	 2.52480515E-12	-2.80576491E-12	-3.30069768E-14	 1.50923189E-12
					 1.47407000E-13	 2.14684000E-12	-7.11303000E-12	 3.87368000E-17	-4.32507000E-12	-1.72087000E-17	 7.52321228E-12	-8.81890818E-12	 1.47407000E-13	 3.85271818E-12
					-1.28662000E-13	 8.71070000E-13	-2.07195000E-12	-4.01753000E-13	-8.69672000E-13	 1.27430000E-12	 2.52483888E-12	-2.80578229E-12	-3.30437137E-14	 1.50928400E-12
					 8.71038000E-13	-1.28737000E-13	-2.07191000E-12	-4.01769000E-13	-1.27434000E-12	 8.69719000E-13	 2.52485624E-12	-2.80580409E-12	-3.31101674E-14	 1.50930526E-12
					 2.14677000E-12	 1.47363000E-13	-7.11294000E-12	 3.05309000E-17	 2.96571000E-17	 4.32518000E-12	 7.52322256E-12	-8.81891481E-12	 1.47363000E-13	 3.85274481E-12
					 8.71025000E-13	-1.28722000E-13	-2.07190000E-12	 4.01755000E-13	 1.27434000E-12	 8.69713000E-13	 2.52484295E-12	-2.80579402E-12	-3.30905237E-14	 1.50928754E-12
					-1.28640000E-13	 8.70987000E-13	-2.07194000E-12	 4.01744000E-13	 8.69660000E-13	 1.27430000E-12	 2.52480018E-12	-2.80577057E-12	-3.30460415E-14	 1.50922361E-12
					 1.47416000E-13	 2.14683000E-12	-7.11303000E-12	-1.54021000E-17	 4.32509000E-12	-6.02260000E-18	 7.52322568E-12	-8.81892318E-12	 1.47416000E-13	 3.85272318E-12
					-1.28635000E-13	 8.71105000E-13	-2.07194000E-12	-4.01760000E-13	 8.69637000E-13	-1.27432000E-12	 2.52484784E-12	-2.80577174E-12	-3.30040859E-14	 1.50930582E-12
					 8.71010000E-13	-1.28618000E-13	-2.07191000E-12	-4.01734000E-13	 1.27432000E-12	-8.69715000E-13	 2.52483369E-12	-2.80577463E-12	-3.30220292E-14	 1.50927865E-12
					 2.14668000E-12	 1.47458000E-13	-7.11298000E-12	-9.33200000E-18	-1.01914000E-17	-4.32516000E-12	 7.52321158E-12	-8.81894789E-12	 1.47458000E-13	 3.85264789E-12
					 8.70996000E-13	-1.28590000E-13	-2.07191000E-12	 4.01716000E-13	-1.27432000E-12	-8.69707000E-13	 2.52482366E-12	-2.80577050E-12	-3.29912346E-14	 1.50925773E-12
					-1.37805000E-13	-1.87059000E-13	 3.34813000E-13	-1.73226000E-13	 1.41082000E-14	-4.43387000E-14	 3.91911942E-13	-3.37907408E-13	 6.98211519E-15	 3.40874293E-13
					-6.01051000E-13	-5.28915000E-13	 2.15962000E-12	 1.05553000E-13	-4.84594000E-13	-7.85516000E-14	 1.90715537E-12	-6.99452144E-13	-5.18400446E-13	 2.24750659E-12
					-5.44766000E-13	-4.07657000E-13	 1.62912000E-12	 4.88877000E-14	-4.45344000E-14	 5.64259000E-14	 1.40936416E-12	-5.62483136E-13	-3.92321396E-13	 1.63150153E-12
					-4.55863000E-13	-6.00429000E-13	 1.69034000E-12	-4.68528000E-14	 5.03124000E-15	-4.98662000E-14	 1.48346082E-12	-6.14323422E-13	-4.43142912E-13	 1.69151433E-12
					-4.99192000E-13	-5.05341000E-13	 1.68015000E-12	-2.34131000E-15	 3.27903000E-14	-6.99548000E-16	 1.45544398E-12	-5.06569146E-13	-4.98455965E-13	 1.68064211E-12
					-5.05005000E-13	-4.94794000E-13	 1.67645000E-12	-7.27349000E-15	-3.29841000E-14	 1.10658000E-14	 1.45149199E-12	-5.08799731E-13	-4.91557458E-13	 1.67700819E-12
					-5.08328000E-13	-5.05147000E-13	 1.67683000E-12	 1.07183000E-14	 4.39918000E-15	-9.25842000E-15	 1.45581355E-12	-5.17617691E-13	-4.95905223E-13	 1.67687791E-12
					-4.96295000E-13	-5.00777000E-13	 1.68841000E-12	-1.30327000E-14	 8.13843000E-15	-5.27516000E-15	 1.45808697E-12	-5.11763599E-13	-4.85351628E-13	 1.68845323E-12
					-5.04168000E-13	-5.04653000E-13	 1.67508000E-12	 1.79361000E-15	-1.27340000E-14	 1.44656000E-14	 1.45316557E-12	-5.06387918E-13	-5.02603343E-13	 1.67525026E-12
					-4.79249000E-13	-4.78325000E-13	 1.66029000E-12	-5.88587000E-14	-1.22742000E-13	 1.21732000E-13	 1.44155733E-12	-5.37647514E-13	-4.34194569E-13	 1.67455808E-12
					-5.41800000E-13	-5.41694000E-13	 1.70247000E-12	 6.48592000E-14	 1.36633000E-13	-1.37071000E-13	 1.51459583E-12	-6.22715469E-13	-4.76887800E-13	 1.71857927E-12
					-5.51698000E-13	-5.51986000E-13	 1.60276000E-12	-9.96179000E-14	 2.33427000E-13	-2.33212000E-13	 1.49051953E-12	-6.51460093E-13	-5.03905571E-13	 1.65444166E-12
					-3.97129000E-13	-3.97151000E-13	 1.81578000E-12	-5.87776000E-15	-4.22027000E-13	 4.22158000E-13	 1.62837220E-12	-5.42365774E-13	-4.03017763E-13	 1.96688354E-12
					-5.16405000E-13	-5.16361000E-13	 1.04360000E-12	 1.64031000E-13	-5.74719000E-13	 5.74654000E-13	 1.41356176E-12	-1.00313702E-12	-3.52352001E-13	 1.36632302E-12
					-5.46552000E-13	-5.46643000E-13	 1.45123000E-12	-2.54329000E-13	 1.10451000E-12	-1.10456000E-12	 2.26130246E-12	-1.20935739E-12	-8.00926500E-13	 2.36831889E-12
					-5.46543000E-13	-5.46555000E-13	 1.45122000E-12	 2.54314000E-13	 1.10454000E-12	 1.10454000E-12	 2.26128375E-12	-1.20934121E-12	-8.00863000E-13	 2.36832621E-12
					-5.16406000E-13	-5.16412000E-13	 1.04359000E-12	-1.63996000E-13	-5.74748000E-13	-5.74667000E-13	 1.41358696E-12	-1.00315098E-12	-3.52413001E-13	 1.36633598E-12
					-3.97132000E-13	-3.97126000E-13	 1.81579000E-12	 5.87816000E-15	-4.22031000E-13	-4.22159000E-13	 1.62837333E-12	-5.42356144E-13	-4.03007159E-13	 1.96689530E-12
					-5.51702000E-13	-5.51941000E-13	 1.60275000E-12	 9.95811000E-14	 2.33454000E-13	 2.33214000E-13	 1.49050270E-12	-6.51402751E-13	-5.03928035E-13	 1.65443779E-12
					-5.41794000E-13	-5.41728000E-13	 1.70247000E-12	-6.48455000E-14	 1.36634000E-13	 1.37074000E-13	 1.51460475E-12	-6.22716216E-13	-4.76915519E-13	 1.71857974E-12
					-4.79249000E-13	-4.78306000E-13	 1.66029000E-12	 5.89642000E-14	-1.22769000E-13	-1.21733000E-13	 1.44155999E-12	-5.37743586E-13	-4.34083534E-13	 1.67456212E-12
					-5.04174000E-13	-5.04668000E-13	 1.67506000E-12	-1.77706000E-15	-1.27359000E-14	-1.44641000E-14	 1.45315921E-12	-5.06382565E-13	-5.02629701E-13	 1.67523027E-12
					-4.96284000E-13	-5.00764000E-13	 1.68841000E-12	 1.29734000E-14	 8.15133000E-15	 5.27440000E-15	 1.45807835E-12	-5.11693025E-13	-4.85398294E-13	 1.68845332E-12
					-5.08319000E-13	-5.05166000E-13	 1.67683000E-12	-1.07395000E-14	 4.39922000E-15	 9.25380000E-15	 1.45581703E-12	-5.17641569E-13	-4.95891306E-13	 1.67687787E-12
					-5.05008000E-13	-4.94780000E-13	 1.67645000E-12	 7.28192000E-15	-3.29872000E-14	-1.10660000E-14	 1.45148852E-12	-5.08806000E-13	-4.91540290E-13	 1.67700829E-12
					-4.99196000E-13	-5.05339000E-13	 1.68015000E-12	 2.33334000E-15	 3.27999000E-14	 7.01942000E-16	 1.45544491E-12	-5.06563355E-13	-4.98464046E-13	 1.68064240E-12
					-4.55865000E-13	-6.00448000E-13	 1.69034000E-12	 4.68284000E-14	 5.04900000E-15	 4.98687000E-14	 1.48346752E-12	-6.14327596E-13	-4.43159945E-13	 1.69151454E-12
					-5.44766000E-13	-4.07643000E-13	 1.62912000E-12	-4.88886000E-14	-4.45376000E-14	-5.64273000E-14	 1.40936022E-12	-5.62482471E-13	-3.92308273E-13	 1.63150174E-12
					-6.01053000E-13	-5.28937000E-13	 2.15961000E-12	-1.05549000E-13	-4.84597000E-13	 7.85499000E-14	 1.90715702E-12	-6.99461273E-13	-5.18415830E-13	 2.24749710E-12
					-1.37807000E-13	-1.87071000E-13	 3.34812000E-13	 1.73222000E-13	 1.41072000E-14	 4.43390000E-14	 3.91913385E-13	-3.37911165E-13	 6.97204888E-15	 3.40873116E-13
					-1.37805000E-13	-1.87072000E-13	 3.34810000E-13	 1.73224000E-13	-1.41116000E-14	-4.43425000E-14	 3.91914018E-13	-3.37912793E-13	 6.97323094E-15	 3.40872562E-13
					-6.01052000E-13	-5.28936000E-13	 2.15962000E-12	-1.05550000E-13	 4.84585000E-13	-7.85494000E-14	 1.90715871E-12	-6.99459465E-13	-5.18411248E-13	 2.24750271E-12
					-5.44764000E-13	-4.07655000E-13	 1.62911000E-12	-4.88861000E-14	 4.45338000E-14	 5.64258000E-14	 1.40935609E-12	-5.62480190E-13	-3.92320326E-13	 1.63149152E-12
					-4.55862000E-13	-6.00425000E-13	 1.69034000E-12	 4.68470000E-14	-5.03562000E-15	-4.98715000E-14	 1.48345908E-12	-6.14316477E-13	-4.43145126E-13	 1.69151460E-12
					-4.99194000E-13	-5.05337000E-13	 1.68014000E-12	 2.34433000E-15	-3.27974000E-14	-7.04792000E-16	 1.45543687E-12	-5.06567577E-13	-4.98455753E-13	 1.68063233E-12
					-5.05005000E-13	-4.94776000E-13	 1.67643000E-12	 7.27119000E-15	 3.29806000E-14	 1.10656000E-14	 1.45147259E-12	-5.08793931E-13	-4.91545159E-13	 1.67698809E-12
					-5.08324000E-13	-5.05161000E-13	 1.67684000E-12	-1.07217000E-14	-4.39809000E-15	-9.25899000E-15	 1.45582357E-12	-5.17624724E-13	-4.95908190E-13	 1.67688791E-12
					-4.96293000E-13	-5.00735000E-13	 1.68841000E-12	 1.30250000E-14	-8.15490000E-15	-5.28148000E-15	 1.45807232E-12	-5.11730639E-13	-4.85340743E-13	 1.68845338E-12
					-5.04173000E-13	-5.04629000E-13	 1.67506000E-12	-1.78614000E-15	 1.27175000E-14	 1.44670000E-14	 1.45314572E-12	-5.06369080E-13	-5.02603009E-13	 1.67523009E-12
					-4.79248000E-13	-4.78395000E-13	 1.66029000E-12	 5.89096000E-14	 1.22740000E-13	 1.21741000E-13	 1.44158362E-12	-5.37732647E-13	-4.34179350E-13	 1.67455900E-12
					-5.41795000E-13	-5.41717000E-13	 1.70248000E-12	-6.48472000E-14	-1.36641000E-13	-1.37074000E-13	 1.51460898E-12	-6.22713693E-13	-4.76908813E-13	 1.71859051E-12
					-5.51702000E-13	-5.51820000E-13	 1.60275000E-12	 9.95940000E-14	-2.33424000E-13	-2.33223000E-13	 1.49046059E-12	-6.51355051E-13	-5.03851950E-13	 1.65443500E-12
					-3.97131000E-13	-3.97117000E-13	 1.81578000E-12	 5.86763000E-15	 4.22028000E-13	 4.22163000E-13	 1.62836456E-12	-5.42362281E-13	-4.02991627E-13	 1.96688591E-12
					-5.16397000E-13	-5.16437000E-13	 1.04358000E-12	-1.64034000E-13	 5.74713000E-13	 5.74666000E-13	 1.41357234E-12	-1.00317461E-12	-3.52382999E-13	 1.36630361E-12