<?xml version="1.0"?>
<VTKFile type="UnstructuredGrid" version="0.1" byte_order="LittleEndian">
	<UnstructuredGrid>
		<Piece NumberOfPoints="261" NumberOfCells="32">
			<Points>
				<DataArray type="Float64" NumberOfComponents="3" format="ascii">
					 0.00000000E+00	 0.00000000E+00	 0.00000000E+00
					 1.00000000E+00	 0.00000000E+00	 0.00000000E+00
					 1.00000000E+00	 1.00000000E+00	 0.00000000E+00
					 0.00000000E+00	 1.00000000E+00	 0.00000000E+00
					 0.00000000E+00	 0.00000000E+00	 8.00000000E+00
					 1.00000000E+00	 0.00000000E+00	 8.00000000E+00
					 1.00000000E+00	 1.00000000E+00	 8.00000000E+00
					 0.00000000E+00	 1.00000000E+00	 8.00000000E+00
					 2.50000000E-01	 0.00000000E+00	 0.00000000E+00
					 5.00000000E-01	 0.00000000E+00	 0.00000000E+00
					 7.50000000E-01	 0.00000000E+00	 0.00000000E+00
					 1.00000000E+00	 2.50000000E-01	 0.00000000E+00
					 1.00000000E+00	 5.00000000E-01	 0.00000000E+00
					 1.00000000E+00	 7.50000000E-01	 0.00000000E+00
					 7.50000000E-01	 1.00000000E+00	 0.00000000E+00
					 5.00000000E-01	 1.00000000E+00	 0.00000000E+00
					 2.50000000E-01	 1.00000000E+00	 0.00000000E+00
					 0.00000000E+00	 7.50000000E-01	 0.00000000E+00
					 0.00000000E+00	 5.00000000E-01	 0.00000000E+00
					 0.00000000E+00	 2.50000000E-01	 0.00000000E+00
					 2.50000000E-01	 0.00000000E+00	 8.00000000E+00
					 5.00000000E-01	 0.00000000E+00	 8.00000000E+00
					 7.50000000E-01	 0.00000000E+00	 8.00000000E+00
					 1.00000000E+00	 2.50000000E-01	 8.00000000E+00
					 1.00000000E+00	 5.00000000E-01	 8.00000000E+00
					 1.00000000E+00	 7.50000000E-01	 8.00000000E+00
					 7.50000000E-01	 1.00000000E+00	 8.00000000E+00
					 5.00000000E-01	 1.00000000E+00	 8.00000000E+00
					 2.50000000E-01	 1.00000000E+00	 8.00000000E+00
					 0.00000000E+00	 7.50000000E-01	 8.00000000E+00
					 0.00000000E+00	 5.00000000E-01	 8.00000000E+00
					 0.00000000E+00	 2.50000000E-01	 8.00000000E+00
					 1.00000000E+00	 0.00000000E+00	 5.00000000E-01
					 1.00000000E+00	 0.00000000E+00	 1.00000000E+00
					 1.00000000E+00	 0.00000000E+00	 1.50000000E+00
					 1.00000000E+00	 0.00000000E+00	 2.00000000E+00
					 1.00000000E+00	 0.00000000E+00	 2.50000000E+00
					 1.00000000E+00	 0.00000000E+00	 3.00000000E+00
					 1.00000000E+00	 0.00000000E+00	 3.50000000E+00
					 1.00000000E+00	 0.00000000E+00	 4.00000000E+00
					 1.00000000E+00	 0.00000000E+00	 4.50000000E+00
					 1.00000000E+00	 0.00000000E+00	 5.00000000E+00
					 1.00000000E+00	 0.00000000E+00	 5.50000000E+00
					 1.00000000E+00	 0.00000000E+00	 6.00000000E+00
					 1.00000000E+00	 0.00000000E+00	 6.50000000E+00
					 1.00000000E+00	 0.00000000E+00	 7.00000000E+00
					 1.00000000E+00	 0.00000000E+00	 7.50000000E+00
					 0.00000000E+00	 0.00000000E+00	 7.50000000E+00
					 0.00000000E+00	 0.00000000E+00	 7.00000000E+00
					 0.00000000E+00	 0.00000000E+00	 6.50000000E+00
					 0.00000000E+00	 0.00000000E+00	 6.00000000E+00
					 0.00000000E+00	 0.00000000E+00	 5.50000000E+00
					 0.00000000E+00	 0.00000000E+00	 5.00000000E+00
					 0.00000000E+00	 0.00000000E+00	 4.50000000E+00
					 0.00000000E+00	 0.00000000E+00	 4.00000000E+00
					 0.00000000E+00	 0.00000000E+00	 3.50000000E+00
					 0.00000000E+00	 0.00000000E+00	 3.00000000E+00
					 0.00000000E+00	 0.00000000E+00	 2.50000000E+00
					 0.00000000E+00	 0.00000000E+00	 2.00000000E+00
					 0.00000000E+00	 0.00000000E+00	 1.50000000E+00
					 0.00000000E+00	 0.00000000E+00	 1.00000000E+00
					 0.00000000E+00	 0.00000000E+00	 5.00000000E-01
					 1.00000000E+00	 1.00000000E+00	 5.00000000E-01
					 1.00000000E+00	 1.00000000E+00	 1.00000000E+00
					 1.00000000E+00	 1.00000000E+00	 1.50000000E+00
					 1.00000000E+00	 1.00000000E+00	 2.00000000E+00
					 1.00000000E+00	 1.00000000E+00	 2.50000000E+00
					 1.00000000E+00	 1.00000000E+00	 3.00000000E+00
					 1.00000000E+00	 1.00000000E+00	 3.50000000E+00
					 1.00000000E+00	 1.00000000E+00	 4.00000000E+00
					 1.00000000E+00	 1.00000000E+00	 4.50000000E+00
					 1.00000000E+00	 1.00000000E+00	 5.00000000E+00
					 1.00000000E+00	 1.00000000E+00	 5.50000000E+00
					 1.00000000E+00	 1.00000000E+00	 6.00000000E+00
					 1.00000000E+00	 1.00000000E+00	 6.50000000E+00
					 1.00000000E+00	 1.00000000E+00	 7.00000000E+00
					 1.00000000E+00	 1.00000000E+00	 7.50000000E+00
					 0.00000000E+00	 1.00000000E+00	 5.00000000E-01
					 0.00000000E+00	 1.00000000E+00	 1.00000000E+00
					 0.00000000E+00	 1.00000000E+00	 1.50000000E+00
					 0.00000000E+00	 1.00000000E+00	 2.00000000E+00
					 0.00000000E+00	 1.00000000E+00	 2.50000000E+00
					 0.00000000E+00	 1.00000000E+00	 3.00000000E+00
					 0.00000000E+00	 1.00000000E+00	 3.50000000E+00
					 0.00000000E+00	 1.00000000E+00	 4.00000000E+00
					 0.00000000E+00	 1.00000000E+00	 4.50000000E+00
					 0.00000000E+00	 1.00000000E+00	 5.00000000E+00
					 0.00000000E+00	 1.00000000E+00	 5.50000000E+00
					 0.00000000E+00	 1.00000000E+00	 6.00000000E+00
					 0.00000000E+00	 1.00000000E+00	 6.50000000E+00
					 0.00000000E+00	 1.00000000E+00	 7.00000000E+00
					 0.00000000E+00	 1.00000000E+00	 7.50000000E+00
					 5.00000000E-01	 2.50000000E-01	 0.00000000E+00
					 2.50000000E-01	 5.00000000E-01	 0.00000000E+00
					 5.00000000E-01	 5.00000000E-01	 0.00000000E+00
					 7.50000000E-01	 5.00000000E-01	 0.00000000E+00
					 5.00000000E-01	 7.50000000E-01	 0.00000000E+00
					 5.00000000E-01	 2.50000000E-01	 8.00000000E+00
					 2.50000000E-01	 5.00000000E-01	 8.00000000E+00
					 5.00000000E-01	 5.00000000E-01	 8.00000000E+00
					 7.50000000E-01	 5.00000000E-01	 8.00000000E+00
					 5.00000000E-01	 7.50000000E-01	 8.00000000E+00
					 5.00000000E-01	 0.00000000E+00	 5.00000000E-01
					 2.50000000E-01	 0.00000000E+00	 1.00000000E+00
					 5.00000000E-01	 0.00000000E+00	 1.00000000E+00
					 7.50000000E-01	 0.00000000E+00	 1.00000000E+00
					 5.00000000E-01	 0.00000000E+00	 1.50000000E+00
					 2.50000000E-01	 0.00000000E+00	 2.00000000E+00
					 5.00000000E-01	 0.00000000E+00	 2.00000000E+00
					 7.50000000E-01	 0.00000000E+00	 2.00000000E+00
					 5.00000000E-01	 0.00000000E+00	 2.50000000E+00
					 2.50000000E-01	 0.00000000E+00	 3.00000000E+00
					 5.00000000E-01	 0.00000000E+00	 3.00000000E+00
					 7.50000000E-01	 0.00000000E+00	 3.00000000E+00
					 5.00000000E-01	 0.00000000E+00	 3.50000000E+00
					 2.50000000E-01	 0.00000000E+00	 4.00000000E+00
					 5.00000000E-01	 0.00000000E+00	 4.00000000E+00
					 7.50000000E-01	 0.00000000E+00	 4.00000000E+00
					 5.00000000E-01	 0.00000000E+00	 4.50000000E+00
					 2.50000000E-01	 0.00000000E+00	 5.00000000E+00
					 5.00000000E-01	 0.00000000E+00	 5.00000000E+00
					 7.50000000E-01	 0.00000000E+00	 5.00000000E+00
					 5.00000000E-01	 0.00000000E+00	 5.50000000E+00
					 2.50000000E-01	 0.00000000E+00	 6.00000000E+00
					 5.00000000E-01	 0.00000000E+00	 6.00000000E+00
					 7.50000000E-01	 0.00000000E+00	 6.00000000E+00
					 5.00000000E-01	 0.00000000E+00	 6.50000000E+00
					 2.50000000E-01	 0.00000000E+00	 7.00000000E+00
					 5.00000000E-01	 0.00000000E+00	 7.00000000E+00
					 7.50000000E-01	 0.00000000E+00	 7.00000000E+00
					 5.00000000E-01	 0.00000000E+00	 7.50000000E+00
					 1.00000000E+00	 5.00000000E-01	 5.00000000E-01
					 1.00000000E+00	 2.50000000E-01	 1.00000000E+00
					 1.00000000E+00	 5.00000000E-01	 1.00000000E+00
					 1.00000000E+00	 7.50000000E-01	 1.00000000E+00
					 1.00000000E+00	 5.00000000E-01	 1.50000000E+00
					 1.00000000E+00	 2.50000000E-01	 2.00000000E+00
					 1.00000000E+00	 5.00000000E-01	 2.00000000E+00
					 1.00000000E+00	 7.50000000E-01	 2.00000000E+00
					 1.00000000E+00	 5.00000000E-01	 2.50000000E+00
					 1.00000000E+00	 2.50000000E-01	 3.00000000E+00
					 1.00000000E+00	 5.00000000E-01	 3.00000000E+00
					 1.00000000E+00	 7.50000000E-01	 3.00000000E+00
					 1.00000000E+00	 5.00000000E-01	 3.50000000E+00
					 1.00000000E+00	 2.50000000E-01	 4.00000000E+00
					 1.00000000E+00	 5.00000000E-01	 4.00000000E+00
					 1.00000000E+00	 7.50000000E-01	 4.00000000E+00
					 1.00000000E+00	 5.00000000E-01	 4.50000000E+00
					 1.00000000E+00	 2.50000000E-01	 5.00000000E+00
					 1.00000000E+00	 5.00000000E-01	 5.00000000E+00
					 1.00000000E+00	 7.50000000E-01	 5.00000000E+00
					 1.00000000E+00	 5.00000000E-01	 5.50000000E+00
					 1.00000000E+00	 2.50000000E-01	 6.00000000E+00
					 1.00000000E+00	 5.00000000E-01	 6.00000000E+00
					 1.00000000E+00	 7.50000000E-01	 6.00000000E+00
					 1.00000000E+00	 5.00000000E-01	 6.50000000E+00
					 1.00000000E+00	 2.50000000E-01	 7.00000000E+00
					 1.00000000E+00	 5.00000000E-01	 7.00000000E+00
					 1.00000000E+00	 7.50000000E-01	 7.00000000E+00
					 1.00000000E+00	 5.00000000E-01	 7.50000000E+00
					 5.00000000E-01	 1.00000000E+00	 5.00000000E-01
					 7.50000000E-01	 1.00000000E+00	 1.00000000E+00
					 5.00000000E-01	 1.00000000E+00	 1.00000000E+00
					 2.50000000E-01	 1.00000000E+00	 1.00000000E+00
					 5.00000000E-01	 1.00000000E+00	 1.50000000E+00
					 7.50000000E-01	 1.00000000E+00	 2.00000000E+00
					 5.00000000E-01	 1.00000000E+00	 2.00000000E+00
					 2.50000000E-01	 1.00000000E+00	 2.00000000E+00
					 5.00000000E-01	 1.00000000E+00	 2.50000000E+00
					 7.50000000E-01	 1.00000000E+00	 3.00000000E+00
					 5.00000000E-01	 1.00000000E+00	 3.00000000E+00
					 2.50000000E-01	 1.00000000E+00	 3.00000000E+00
					 5.00000000E-01	 1.00000000E+00	 3.50000000E+00
					 7.50000000E-01	 1.00000000E+00	 4.00000000E+00
					 5.00000000E-01	 1.00000000E+00	 4.00000000E+00
					 2.50000000E-01	 1.00000000E+00	 4.00000000E+00
					 5.00000000E-01	 1.00000000E+00	 4.50000000E+00
					 7.50000000E-01	 1.00000000E+00	 5.00000000E+00
					 5.00000000E-01	 1.00000000E+00	 5.00000000E+00
					 2.50000000E-01	 1.00000000E+00	 5.00000000E+00
					 5.00000000E-01	 1.00000000E+00	 5.50000000E+00
					 7.50000000E-01	 1.00000000E+00	 6.00000000E+00
					 5.00000000E-01	 1.00000000E+00	 6.00000000E+00
					 2.50000000E-01	 1.00000000E+00	 6.00000000E+00
					 5.00000000E-01	 1.00000000E+00	 6.50000000E+00
					 7.50000000E-01	 1.00000000E+00	 7.00000000E+00
					 5.00000000E-01	 1.00000000E+00	 7.00000000E+00
					 2.50000000E-01	 1.00000000E+00	 7.00000000E+00
					 5.00000000E-01	 1.00000000E+00	 7.50000000E+00
					 0.00000000E+00	 5.00000000E-01	 5.00000000E-01
					 0.00000000E+00	 7.50000000E-01	 1.00000000E+00
					 0.00000000E+00	 5.00000000E-01	 1.00000000E+00
					 0.00000000E+00	 2.50000000E-01	 1.00000000E+00
					 0.00000000E+00	 5.00000000E-01	 1.50000000E+00
					 0.00000000E+00	 7.50000000E-01	 2.00000000E+00
					 0.00000000E+00	 5.00000000E-01	 2.00000000E+00
					 0.00000000E+00	 2.50000000E-01	 2.00000000E+00
					 0.00000000E+00	 5.00000000E-01	 2.50000000E+00
					 0.00000000E+00	 7.50000000E-01	 3.00000000E+00
					 0.00000000E+00	 5.00000000E-01	 3.00000000E+00
					 0.00000000E+00	 2.50000000E-01	 3.00000000E+00
					 0.00000000E+00	 5.00000000E-01	 3.50000000E+00
					 0.00000000E+00	 7.50000000E-01	 4.00000000E+00
					 0.00000000E+00	 5.00000000E-01	 4.00000000E+00
					 0.00000000E+00	 2.50000000E-01	 4.00000000E+00
					 0.00000000E+00	 5.00000000E-01	 4.50000000E+00
					 0.00000000E+00	 7.50000000E-01	 5.00000000E+00
					 0.00000000E+00	 5.00000000E-01	 5.00000000E+00
					 0.00000000E+00	 2.50000000E-01	 5.00000000E+00
					 0.00000000E+00	 5.00000000E-01	 5.50000000E+00
					 0.00000000E+00	 7.50000000E-01	 6.00000000E+00
					 0.00000000E+00	 5.00000000E-01	 6.00000000E+00
					 0.00000000E+00	 2.50000000E-01	 6.00000000E+00
					 0.00000000E+00	 5.00000000E-01	 6.50000000E+00
					 0.00000000E+00	 7.50000000E-01	 7.00000000E+00
					 0.00000000E+00	 5.00000000E-01	 7.00000000E+00
					 0.00000000E+00	 2.50000000E-01	 7.00000000E+00
					 0.00000000E+00	 5.00000000E-01	 7.50000000E+00
					 5.00000000E-01	 5.00000000E-01	 5.00000000E-01
					 5.00000000E-01	 2.50000000E-01	 1.00000000E+00
					 2.50000000E-01	 5.00000000E-01	 1.00000000E+00
					 5.00000000E-01	 5.00000000E-01	 1.00000000E+00
					 7.50000000E-01	 5.00000000E-01	 1.00000000E+00
					 5.00000000E-01	 7.50000000E-01	 1.00000000E+00
					 5.00000000E-01	 5.00000000E-01	 1.50000000E+00
					 5.00000000E-01	 2.50000000E-01	 2.00000000E+00
					 2.50000000E-01	 5.00000000E-01	 2.00000000E+00
					 5.00000000E-01	 5.00000000E-01	 2.00000000E+00
					 7.50000000E-01	 5.00000000E-01	 2.00000000E+00
					 5.00000000E-01	 7.50000000E-01	 2.00000000E+00
					 5.00000000E-01	 5.00000000E-01	 2.50000000E+00
					 5.00000000E-01	 2.50000000E-01	 3.00000000E+00
					 2.50000000E-01	 5.00000000E-01	 3.00000000E+00
					 5.00000000E-01	 5.00000000E-01	 3.00000000E+00
					 7.50000000E-01	 5.00000000E-01	 3.00000000E+00
					 5.00000000E-01	 7.50000000E-01	 3.00000000E+00
					 5.00000000E-01	 5.00000000E-01	 3.50000000E+00
					 5.00000000E-01	 2.50000000E-01	 4.00000000E+00
					 2.50000000E-01	 5.00000000E-01	 4.00000000E+00
					 5.00000000E-01	 5.00000000E-01	 4.00000000E+00
					 7.50000000E-01	 5.00000000E-01	 4.00000000E+00
					 5.00000000E-01	 7.50000000E-01	 4.00000000E+00
					 5.00000000E-01	 5.00000000E-01	 4.50000000E+00
					 5.00000000E-01	 2.50000000E-01	 5.00000000E+00
					 2.50000000E-01	 5.00000000E-01	 5.00000000E+00
					 5.00000000E-01	 5.00000000E-01	 5.00000000E+00
					 7.50000000E-01	 5.00000000E-01	 5.00000000E+00
					 5.00000000E-01	 7.50000000E-01	 5.00000000E+00
					 5.00000000E-01	 5.00000000E-01	 5.50000000E+00
					 5.00000000E-01	 2.50000000E-01	 6.00000000E+00
					 2.50000000E-01	 5.00000000E-01	 6.00000000E+00
					 5.00000000E-01	 5.00000000E-01	 6.00000000E+00
					 7.50000000E-01	 5.00000000E-01	 6.00000000E+00
					 5.00000000E-01	 7.50000000E-01	 6.00000000E+00
					 5.00000000E-01	 5.00000000E-01	 6.50000000E+00
					 5.00000000E-01	 2.50000000E-01	 7.00000000E+00
					 2.50000000E-01	 5.00000000E-01	 7.00000000E+00
					 5.00000000E-01	 5.00000000E-01	 7.00000000E+00
					 7.50000000E-01	 5.00000000E-01	 7.00000000E+00
					 5.00000000E-01	 7.50000000E-01	 7.00000000E+00
					 5.00000000E-01	 5.00000000E-01	 7.50000000E+00
				</DataArray>
			</Points>
			<Cells>
				<DataArray type="Int32" Name="connectivity" format="ascii">
					0 9 94 18 60 104 221 191 8 92 93 19 103 219 220 192 61 102 218 189 9 1 12 94 104 33 133 221 10 11 95 92 105 132 222 219 102 32 131 218 18 94 15 3 191 221 162 78 93 96 16 17 220 223 163 190 189 218 160 77 94 12 2 15 221 133 63 162 95 13 14 96 222 134 161 223 218 131 62 160 60 104 221 191 58 108 227 195 103 219 220 192 107 225 226 196 59 106 224 193 104 33 133 221 108 35 137 227 105 132 222 219 109 136 228 225 106 34 135 224 191 221 162 78 195 227 166 80 220 223 163 190 226 229 167 194 193 224 164 79 221 133 63 162 227 137 65 166 222 134 161 223 228 138 165 229 224 135 64 164 58 108 227 195 56 112 233 199 107 225 226 196 111 231 232 200 57 110 230 197 108 35 137 227 112 37 141 233 109 136 228 225 113 140 234 231 110 36 139 230 195 227 166 80 199 233 170 82 226 229 167 194 232 235 171 198 197 230 168 81 227 137 65 166 233 141 67 170 228 138 165 229 234 142 169 235 230 139 66 168 56 112 233 199 54 116 239 203 111 231 232 200 115 237 238 204 55 114 236 201 112 37 141 233 116 39 145 239 113 140 234 231 117 144 240 237 114 38 143 236 199 233 170 82 203 239 174 84 232 235 171 198 238 241 175 202 201 236 172 83 233 141 67 170 239 145 69 174 234 142 169 235 240 146 173 241 236 143 68 172 54 116 239 203 52 120 245 207 115 237 238 204 119 243 244 208 53 118 242 205 116 39 145 239 120 41 149 245 117 144 240 237 121 148 246 243 118 40 147 242 203 239 174 84 207 245 178 86 238 241 175 202 244 247 179 206 205 242 176 85 239 145 69 174 245 149 71 178 240 146 173 241 246 150 177 247 242 147 70 176 52 120 245 207 50 124 251 211 119 243 244 208 123 249 250 212 51 122 248 209 120 41 149 245 124 43 153 251 121 148 246 243 125 152 252 249 122 42 151 248 207 245 178 86 211 251 182 88 244 247 179 206 250 253 183 210 209 248 180 87 245 149 71 178 251 153 73 182 246 150 177 247 252 154 181 253 248 151 72 180 50 124 251 211 48 128 257 215 123 249 250 212 127 255 256 216 49 126 254 213 124 43 153 251 128 45 157 257 125 152 252 249 129 156 258 255 126 44 155 254 211 251 182 88 215 257 186 90 250 253 183 210 256 259 187 214 213 254 184 89 251 153 73 182 257 157 75 186 252 154 181 253 258 158 185 259 254 155 74 184 48 128 257 215 4 21 99 30 127 255 256 216 20 97 98 31 47 130 260 217 128 45 157 257 21 5 24 99 129 156 258 255 22 23 100 97 130 46 159 260 215 257 186 90 30 99 27 7 256 259 187 214 98 101 28 29 217 260 188 91 257 157 75 186 99 24 6 27 258 158 185 259 100 25 26 101 260 159 76 188 
				</DataArray>
				<DataArray type="Int32" Name="offsets" format="ascii">
					20 40 60 80 100 120 140 160 180 200 220 240 260 280 300 320 340 360 380 400 420 440 460 480 500 520 540 560 580 600 620 640 
				</DataArray>
				<DataArray type="UInt8" Name="types" format="ascii">
					25 25 25 25 25 25 25 25 25 25 25 25 25 25 25 25 25 25 25 25 25 25 25 25 25 25 25 25 25 25 25 25 
				</DataArray>
			</Cells>
			<PointData>
				<DataArray type="Float32" Name="E" NumberOfComponents="10" ComponentName0="xx" ComponentName1="yy" ComponentName2="zz" ComponentName3="xy" ComponentName4="yz" ComponentName5="zx" ComponentName6="Mises" ComponentName7="Min Principal" ComponentName8="Mid Principal" ComponentName9="Max Principal" format="ascii">
					 8.25823000E-13	 6.59592000E-13	-1.43706000E-12	-2.90288000E-13	 2.13949000E-13	 1.27488000E-13	 1.52184017E-12	-1.46944014E-12	 4.72829146E-13	 1.04496599E-12
					 4.69627000E-13	 3.14632000E-13	-1.61584000E-12	 1.69281000E-13	 3.84020000E-13	 1.49669000E-15	 1.42647165E-12	-1.68985664E-12	 2.57663303E-13	 6.00612340E-13
					-3.59007000E-13	 1.89336000E-13	-2.35592000E-12	 3.02888000E-13	 2.81442000E-13	 8.62620000E-14	 1.62186593E-12	-2.38807139E-12	-4.92750468E-13	 3.55230856E-13
					-2.77094000E-13	-4.25802000E-14	-2.52218000E-12	 5.70431000E-14	 2.10571000E-13	 4.35785000E-13	 1.67788483E-12	-2.61880622E-12	-2.37956127E-13	 1.49081423E-14
					-7.54346000E-15	-4.72311000E-13	 1.89440000E-12	-6.04473000E-13	 3.24692000E-13	 4.72774000E-13	 1.73849777E-12	-9.88007364E-13	 3.83275022E-13	 2.01927788E-12
					 1.62964000E-12	-6.00590000E-13	 2.28320000E-12	 4.45304000E-14	 1.49822000E-14	-1.04060000E-12	 2.12014916E-12	-6.02010980E-13	 8.67081878E-13	 3.04717910E-12
					 2.01337000E-12	 2.37122000E-12	 3.31527000E-12	 1.81672000E-13	-1.86395000E-12	-1.35526000E-12	 2.78002776E-12	 5.14804179E-13	 1.96804195E-12	 5.21701387E-12
					-1.01019000E-13	 2.01710000E-12	 2.36603000E-12	 3.87653000E-13	-1.60227000E-12	 1.06522000E-13	 2.45256585E-12	-2.62541139E-13	 7.33021404E-13	 3.81163073E-12
					 6.20374000E-13	 2.46874000E-13	-1.54342000E-12	-1.54808000E-13	 3.84368000E-13	 1.25905000E-13	 1.42610561E-12	-1.63308480E-12	 2.80641269E-13	 6.76271528E-13
					 4.15675000E-13	-1.96666000E-13	-1.66362000E-12	-1.33321000E-14	 5.34085000E-13	 1.38862000E-13	 1.38873454E-12	-1.84566759E-12	-2.48570001E-14	 4.25913588E-13
					 4.43027000E-13	 4.35718000E-14	-1.64664000E-12	 8.09718000E-14	 4.48701000E-13	 7.74501000E-14	 1.38775709E-12	-1.75977687E-12	 1.25635617E-13	 4.74100051E-13
					 3.88727000E-13	 1.87151000E-12	 2.02328000E-12	 3.47900000E-14	-1.17937000E-12	-3.36621000E-13	 1.75917082E-12	 2.77319013E-13	 8.50606346E-13	 3.15559164E-12
					 2.00727000E-13	 2.12003000E-12	 5.78457000E-12	-5.72961000E-13	-1.44960000E-12	-6.71083000E-13	 3.81726316E-12	-1.57199775E-13	 1.94075703E-12	 6.32176975E-12
					-1.32691000E-13	 5.00503000E-13	 1.77541000E-12	-3.71667000E-13	 6.25038000E-14	-2.90582000E-13	 1.24953839E-12	-3.31531289E-13	 6.45330248E-13	 1.82942304E-12
					-1.77577000E-13	 2.99304000E-13	-2.39647000E-12	 2.37869000E-13	 1.70991000E-13	 1.69726000E-13	 1.70657930E-12	-2.41801994E-12	-2.72129865E-13	 4.15406810E-13
					-1.16736000E-14	 4.21293000E-13	-2.44654000E-12	 2.08810000E-13	 6.81639000E-14	 2.30893000E-13	 1.82268774E-12	-2.46905482E-12	-8.11696255E-14	 5.13303847E-13
					-1.52147000E-13	 1.95366000E-13	-2.48912000E-12	 1.50906000E-13	 1.43180000E-13	 3.22190000E-13	 1.74299553E-12	-2.53816237E-12	-1.82637443E-13	 2.74898814E-13
					-1.10376000E-13	-1.01462000E-13	 1.92761000E-12	-2.94896000E-13	 1.81193000E-13	-3.37864000E-13	 1.46623322E-12	-4.06960968E-13	 1.15999854E-13	 2.00673311E-12
					 1.63787000E-13	 1.46179000E-12	 6.32678000E-12	 1.20231000E-13	-1.47904000E-12	-1.07020000E-12	 4.30553853E-12	-3.07962564E-14	 1.07437157E-12	 6.90878169E-12
					 5.48528000E-13	 1.87176000E-12	 2.41956000E-12	 2.98504000E-13	-1.44797000E-12	-4.50702000E-13	 2.10211073E-12	 4.43029771E-13	 6.86115077E-13	 3.71070315E-12
					 1.47828000E-12	 4.45203000E-13	-2.37542000E-12	 3.82241000E-13	-1.06050000E-13	-4.15612000E-13	 2.39697470E-12	-2.42122402E-12	 3.19458393E-13	 1.64982862E-12
					 1.44187000E-12	 1.46029000E-12	-6.76886000E-12	 6.49189000E-13	-5.25712000E-13	 5.38326000E-13	 5.59882968E-12	-6.84291952E-12	 8.75883666E-13	 2.10033585E-12
					 7.74643000E-13	 4.78642000E-13	-2.30464000E-12	-1.30237000E-14	-2.49825000E-13	 6.70025000E-13	 2.12839809E-12	-2.46401220E-12	 4.89060963E-13	 9.23596239E-13
					 2.08189000E-13	 1.44514000E-12	-1.99997000E-12	 6.38722000E-13	-7.17273000E-13	 3.76078000E-13	 2.34084899E-12	-2.24609732E-12	 1.09938303E-13	 1.78951801E-12
					-1.04243000E-12	 1.51838000E-12	-6.23664000E-12	 3.67368000E-14	 5.46272000E-13	 1.93701000E-12	 5.12051480E-12	-6.90994641E-12	-4.21264076E-13	 1.57052049E-12
					 5.70884000E-13	 9.58555000E-13	-1.43743000E-12	-4.88884000E-13	 3.39060000E-13	 3.63002000E-13	 1.68910208E-12	-1.57246291E-12	 3.71504102E-13	 1.29296781E-12
					 9.32899000E-13	 5.15722000E-13	-1.31240000E-12	-5.95316000E-13	 2.78292000E-13	 5.09072000E-13	 1.68017496E-12	-1.50512016E-12	 2.60188590E-13	 1.38115257E-12
					 1.38368000E-12	-1.61518000E-12	-5.97890000E-12	-3.34568000E-13	 2.29715000E-12	 5.78655000E-13	 5.08996509E-12	-7.01766751E-12	-6.31855308E-13	 1.43912282E-12
					 1.40695000E-12	 6.32606000E-14	-1.82586000E-12	 5.45411000E-13	 2.85749000E-13	-5.54783000E-13	 2.10537921E-12	-1.98808092E-12	-2.22985646E-14	 1.65473008E-12
					 4.91391000E-13	 8.19410000E-13	-2.14592000E-12	-4.38102000E-14	 6.21877000E-13	-3.27781000E-13	 2.04573986E-12	-2.30605453E-12	 5.00586073E-13	 9.70349452E-13
					 1.10429000E-12	 1.74632000E-12	-6.51467000E-12	 4.18749000E-13	 7.61260000E-13	-7.75303000E-13	 5.47398866E-12	-6.66883565E-12	 1.03643053E-12	 1.96834512E-12
					 5.58619000E-13	 1.69930000E-12	-2.23854000E-12	 3.54149000E-13	-4.99407000E-13	-1.57874000E-13	 2.45086624E-12	-2.30538345E-12	 4.57686227E-13	 1.86707622E-12
					 3.44935000E-13	-1.12181000E-13	 7.05328000E-13	 2.40675000E-14	-2.41166000E-13	-6.24359000E-14	 5.54374577E-13	-1.78110928E-13	 3.34867276E-13	 7.81325652E-13
					 2.44035000E-13	 2.45917000E-13	 2.32160000E-12	-9.50695000E-14	-6.27351000E-13	-2.49750000E-13	 1.59266618E-12	-2.81087456E-14	 3.22744862E-13	 2.51691588E-12
					 2.47541000E-13	 5.48697000E-13	 1.83088000E-12	-6.84954000E-14	-4.31368000E-13	-3.03560000E-13	 1.14883153E-12	 1.26120775E-13	 4.96541121E-13	 2.00445610E-12
					 2.32779000E-13	 6.91685000E-14	 1.98842000E-12	-6.49082000E-14	-4.64102000E-13	-2.37578000E-13	 1.37022726E-12	-8.31487405E-14	 2.53705295E-13	 2.11981095E-12
					 2.50286000E-13	 1.33765000E-13	 1.87189000E-12	-6.04224000E-14	-4.44342000E-13	-2.41635000E-13	 1.26676527E-12	-2.60123525E-14	 2.75201752E-13	 2.00675160E-12
					 2.63380000E-13	 2.33386000E-13	 1.88296000E-12	-7.10397000E-14	-4.52318000E-13	-2.38814000E-13	 1.24231463E-12	 3.68002193E-14	 3.18025070E-13	 2.02490071E-12
					 2.49514000E-13	 2.34199000E-13	 1.89902000E-12	-6.28772000E-14	-4.38003000E-13	-2.69028000E-13	 1.25625466E-12	 3.85196840E-14	 3.03031277E-13	 2.04118204E-12
					 2.83817000E-13	 2.13605000E-13	 1.95680000E-12	-8.28433000E-14	-4.71491000E-13	-2.45797000E-13	 1.29786391E-12	 1.40847154E-14	 3.37720088E-13	 2.10241720E-12
					 2.41489000E-13	 2.08838000E-13	 1.92873000E-12	-5.37451000E-14	-4.54591000E-13	-2.60419000E-13	 1.28841282E-12	 2.56435267E-14	 2.80404969E-13	 2.07300850E-12
					 2.42743000E-13	 2.37015000E-13	 1.83301000E-12	-9.95908000E-14	-4.77362000E-13	-1.50069000E-13	 1.21454729E-12	 1.95611328E-14	 3.20204181E-13	 1.97300269E-12
					 2.09503000E-13	 1.86523000E-13	 1.98818000E-12	-4.43181000E-14	-4.11541000E-13	-3.52670000E-13	 1.34861453E-12	 4.30591523E-15	 2.43648363E-13	 2.13625172E-12
					 4.51741000E-13	 5.59277000E-14	 1.69102000E-12	-1.49339000E-13	-2.98073000E-13	-2.74265000E-13	 1.10395582E-12	-7.37106428E-14	 4.83453276E-13	 1.78894607E-12
					 3.28511000E-13	 4.66999000E-13	 2.39755000E-12	-3.27464000E-14	-7.74274000E-13	-1.56627000E-13	 1.61780069E-12	 1.53810061E-13	 3.61547887E-13	 2.67770205E-12
					-4.37350000E-13	 2.83745000E-13	 1.10049000E-12	 2.55991000E-14	-3.19642000E-13	-1.00751000E-13	 9.69520474E-13	-4.43956497E-13	 1.73644335E-13	 1.21719716E-12
					 4.58997000E-13	-4.71054000E-13	 4.86415000E-13	-1.31749000E-13	 2.84446000E-13	-3.70202000E-13	 8.42535139E-13	-5.50146996E-13	 1.17071273E-13	 9.07433723E-13
					-7.41120000E-13	-9.21150000E-13	 2.13398000E-14	-3.55751000E-13	 5.30608000E-13	 4.96845000E-13	 1.09866527E-12	-1.53556588E-12	-4.67793798E-13	 3.62429474E-13
					-2.63598000E-13	-1.06016000E-13	 1.26482000E-12	 1.03101000E-13	-3.17991000E-13	-1.34233000E-13	 1.05606024E-12	-3.14945289E-13	-1.39438460E-13	 1.34958975E-12
					 6.65300000E-13	 6.40576000E-13	 2.69210000E-12	 1.73850000E-13	-9.07416000E-13	-5.87293000E-13	 1.85643172E-12	 2.88241966E-13	 5.25713386E-13	 3.18402065E-12
					 2.22300000E-13	 1.08084000E-13	 1.50811000E-12	-2.04871000E-13	-2.81206000E-13	-1.27383000E-13	 9.94437604E-13	-1.04027834E-13	 3.74382108E-13	 1.56813973E-12
					 1.76761000E-13	 1.45286000E-13	 2.05391000E-12	-1.65011000E-13	-3.75596000E-13	-1.72636000E-13	 1.36268931E-12	-7.88744112E-14	 3.19729827E-13	 2.13510158E-12
					 2.73433000E-13	 2.21491000E-13	 1.97103000E-12	 1.61383000E-14	-5.35948000E-13	-3.51438000E-13	 1.36719311E-12	 3.53098219E-14	 2.46936957E-13	 2.18370722E-12
					 2.79640000E-13	 2.37256000E-13	 2.04495000E-12	-5.85857000E-14	-4.91493000E-13	-2.75172000E-13	 1.35893562E-12	 3.87146834E-14	 3.19984711E-13	 2.20314661E-12
					 2.86132000E-13	 2.25049000E-13	 2.08469000E-12	-7.49515000E-14	-4.91298000E-13	-2.80905000E-13	 1.38661868E-12	 1.99521857E-14	 3.36073869E-13	 2.23984494E-12
					 2.65733000E-13	 2.34232000E-13	 2.03517000E-12	-8.10062000E-14	-4.73589000E-13	-2.68650000E-13	 1.34935421E-12	 2.24966973E-14	 3.29967004E-13	 2.18267130E-12
					 2.64013000E-13	 2.41439000E-13	 2.06764000E-12	-5.70823000E-14	-4.92372000E-13	-2.87064000E-13	 1.37898158E-12	 3.63423188E-14	 3.09091457E-13	 2.22765822E-12
					 2.89792000E-13	 2.07002000E-13	 2.06572000E-12	-7.65329000E-14	-4.83405000E-13	-2.68528000E-13	 1.37319391E-12	 1.25280141E-14	 3.35326279E-13	 2.21465971E-12
					 3.08370000E-13	 9.27874000E-14	 2.20721000E-12	-1.08413000E-13	-5.43048000E-13	-2.43781000E-13	 1.51432818E-12	-1.05436709E-13	 3.53367889E-13	 2.36043622E-12
					 2.70875000E-13	 4.52257000E-13	 1.94336000E-12	-1.94695000E-14	-4.85587000E-13	-3.05914000E-13	 1.25006993E-12	 1.54991458E-13	 3.79327926E-13	 2.13217262E-12
					 1.97300000E-13	 2.39455000E-13	 2.71385000E-12	 1.34348000E-14	-6.63393000E-13	-3.62144000E-13	 1.87888536E-12	 2.77598606E-14	 1.96278914E-13	 2.92656623E-12
					 4.90107000E-13	 1.20471000E-13	 1.18947000E-12	-1.77519000E-13	-3.69457000E-13	-1.05469000E-13	 7.94887738E-13	-6.73850568E-14	 5.59795736E-13	 1.30763732E-12
					-1.58203000E-13	-2.49850000E-13	 1.92044000E-13	 4.68729000E-14	 1.80584000E-13	-1.05989000E-13	 3.65935741E-13	-3.49641713E-13	-1.39628027E-13	 2.73260740E-13
					 1.41035000E-13	-5.88221000E-14	 2.34155000E-12	-1.64546000E-13	-3.43287000E-13	-2.56557000E-13	 1.62675221E-12	-2.22044309E-13	 2.32435487E-13	 2.41337172E-12
					 2.76465000E-13	 4.10939000E-13	 1.95504000E-12	-7.01421000E-14	-6.08427000E-13	-2.43778000E-13	 1.31884895E-12	 7.91696675E-14	 3.74694016E-13	 2.18858032E-12
					 2.87006000E-13	 1.83549000E-13	 1.89231000E-12	-4.61490000E-14	-3.96158000E-13	-2.58976000E-13	 1.23508031E-12	 4.75020961E-14	 3.01390147E-13	 2.01397276E-12
					 2.43572000E-13	 1.54746000E-13	 1.84275000E-12	-7.19354000E-14	-3.91909000E-13	-2.49161000E-13	 1.22381092E-12	-2.06236215E-15	 2.83449085E-13	 1.95968128E-12
					 2.30849000E-13	 2.08956000E-13	 1.89461000E-12	-6.23920000E-14	-4.55919000E-13	-2.51184000E-13	 1.27009179E-12	 1.49609304E-14	 2.80511447E-13	 2.03894262E-12
					 2.57094000E-13	 2.29384000E-13	 1.91149000E-12	-6.31917000E-14	-4.62926000E-13	-2.56273000E-13	 1.27114049E-12	 3.16503345E-14	 3.05743304E-13	 2.06057436E-12
					 2.78700000E-13	 2.29570000E-13	 1.90199000E-12	-4.81536000E-14	-4.55643000E-13	-2.59160000E-13	 1.25583369E-12	 5.16442014E-14	 3.08122757E-13	 2.05049304E-12
					 2.26372000E-13	 1.80044000E-13	 1.93413000E-12	-8.79517000E-14	-4.35615000E-13	-2.48798000E-13	 1.29544326E-12	-1.54014620E-14	 2.92583901E-13	 2.06336356E-12
					 2.02046000E-13	 1.65753000E-13	 1.81775000E-12	-4.14934000E-14	-4.01619000E-13	-2.11454000E-13	 1.20989482E-12	 2.42026607E-14	 2.28710268E-13	 1.93263607E-12
					 2.97823000E-13	 2.55584000E-13	 2.04235000E-12	-7.11751000E-14	-5.11851000E-13	-3.02327000E-13	 1.36532007E-12	 2.79581070E-14	 3.49941224E-13	 2.21785767E-12
					 4.68842000E-13	 4.38209000E-13	 1.68117000E-12	 1.28281000E-13	-6.04374000E-13	-3.59113000E-13	 1.16234879E-12	 1.91431760E-13	 3.76628456E-13	 2.02016078E-12
					 9.39771000E-14	 4.15408000E-14	 2.14325000E-12	-2.54989000E-13	-2.88065000E-13	-1.35307000E-13	 1.46190921E-12	-2.27936809E-13	 3.19822468E-13	 2.18688224E-12
					-3.69978000E-13	-5.27863000E-13	 1.59927000E-12	-2.32806000E-13	-3.38665000E-14	 8.18354000E-14	 1.39839716E-12	-6.94924970E-13	-2.07209643E-13	 1.60356361E-12