# vtk DataFile Version 3.0

ASCII
DATASET UNSTRUCTURED_GRID

POINTS 261 double
	 0.00000000E+00	 0.00000000E+00	 0.00000000E+00
	 1.00000000E+00	 0.00000000E+00	 0.00000000E+00
	 1.00000000E+00	 1.00000000E+00	 0.00000000E+00
	 0.00000000E+00	 1.00000000E+00	 0.00000000E+00
	 0.00000000E+00	 0.00000000E+00	 8.00000000E+00
	 1.00000000E+00	 0.00000000E+00	 8.00000000E+00
	 1.00000000E+00	 1.00000000E+00	 8.00000000E+00
	 0.00000000E+00	 1.00000000E+00	 8.00000000E+00
	 2.50000000E-01	 0.00000000E+00	 0.00000000E+00
	 5.00000000E-01	 0.00000000E+00	 0.00000000E+00
	 7.50000000E-01	 0.00000000E+00	 0.00000000E+00
	 1.00000000E+00	 2.50000000E-01	 0.00000000E+00
	 1.00000000E+00	 5.00000000E-01	 0.00000000E+00
	 1.00000000E+00	 7.50000000E-01	 0.00000000E+00
	 7.50000000E-01	 1.00000000E+00	 0.00000000E+00
	 5.00000000E-01	 1.00000000E+00	 0.00000000E+00
	 2.50000000E-01	 1.00000000E+00	 0.00000000E+00
	 0.00000000E+00	 7.50000000E-01	 0.00000000E+00
	 0.00000000E+00	 5.00000000E-01	 0.00000000E+00
	 0.00000000E+00	 2.50000000E-01	 0.00000000E+00
	 2.50000000E-01	 0.00000000E+00	 8.00000000E+00
	 5.00000000E-01	 0.00000000E+00	 8.00000000E+00
	 7.50000000E-01	 0.00000000E+00	 8.00000000E+00
	 1.00000000E+00	 2.50000000E-01	 8.00000000E+00
	 1.00000000E+00	 5.00000000E-01	 8.00000000E+00
	 1.00000000E+00	 7.50000000E-01	 8.00000000E+00
	 7.50000000E-01	 1.00000000E+00	 8.00000000E+00
	 5.00000000E-01	 1.00000000E+00	 8.00000000E+00
	 2.50000000E-01	 1.00000000E+00	 8.00000000E+00
	 0.00000000E+00	 7.50000000E-01	 8.00000000E+00
	 0.00000000E+00	 5.00000000E-01	 8.00000000E+00
	 0.00000000E+00	 2.50000000E-01	 8.00000000E+00
	 1.00000000E+00	 0.00000000E+00	 5.00000000E-01
	 1.00000000E+00	 0.00000000E+00	 1.00000000E+00
	 1.00000000E+00	 0.00000000E+00	 1.50000000E+00
	 1.00000000E+00	 0.00000000E+00	 2.00000000E+00
	 1.00000000E+00	 0.00000000E+00	 2.50000000E+00
	 1.00000000E+00	 0.00000000E+00	 3.00000000E+00
	 1.00000000E+00	 0.00000000E+00	 3.50000000E+00
	 1.00000000E+00	 0.00000000E+00	 4.00000000E+00
	 1.00000000E+00	 0.00000000E+00	 4.50000000E+00
	 1.00000000E+00	 0.00000000E+00	 5.00000000E+00
	 1.00000000E+00	 0.00000000E+00	 5.50000000E+00
	 1.00000000E+00	 0.00000000E+00	 6.00000000E+00
	 1.00000000E+00	 0.00000000E+00	 6.50000000E+00
	 1.00000000E+00	 0.00000000E+00	 7.00000000E+00
	 1.00000000E+00	 0.00000000E+00	 7.50000000E+00
	 0.00000000E+00	 0.00000000E+00	 7.50000000E+00
	 0.00000000E+00	 0.00000000E+00	 7.00000000E+00
	 0.00000000E+00	 0.00000000E+00	 6.50000000E+00
	 0.00000000E+00	 0.00000000E+00	 6.00000000E+00
	 0.00000000E+00	 0.00000000E+00	 5.50000000E+00
	 0.00000000E+00	 0.00000000E+00	 5.00000000E+00
	 0.00000000E+00	 0.00000000E+00	 4.50000000E+00
	 0.00000000E+00	 0.00000000E+00	 4.00000000E+00
	 0.00000000E+00	 0.00000000E+00	 3.50000000E+00
	 0.00000000E+00	 0.00000000E+00	 3.00000000E+00
	 0.00000000E+00	 0.00000000E+00	 2.50000000E+00
	 0.00000000E+00	 0.00000000E+00	 2.00000000E+00
	 0.00000000E+00	 0.00000000E+00	 1.50000000E+00
	 0.00000000E+00	 0.00000000E+00	 1.00000000E+00
	 0.00000000E+00	 0.00000000E+00	 5.00000000E-01
	 1.00000000E+00	 1.00000000E+00	 5.00000000E-01
	 1.00000000E+00	 1.00000000E+00	 1.00000000E+00
	 1.00000000E+00	 1.00000000E+00	 1.50000000E+00
	 1.00000000E+00	 1.00000000E+00	 2.00000000E+00
	 1.00000000E+00	 1.00000000E+00	 2.50000000E+00
	 1.00000000E+00	 1.00000000E+00	 3.00000000E+00
	 1.00000000E+00	 1.00000000E+00	 3.50000000E+00
	 1.00000000E+00	 1.00000000E+00	 4.00000000E+00
	 1.00000000E+00	 1.00000000E+00	 4.50000000E+00
	 1.00000000E+00	 1.00000000E+00	 5.00000000E+00
	 1.00000000E+00	 1.00000000E+00	 5.50000000E+00
	 1.00000000E+00	 1.00000000E+00	 6.00000000E+00
	 1.00000000E+00	 1.00000000E+00	 6.50000000E+00
	 1.00000000E+00	 1.00000000E+00	 7.00000000E+00
	 1.00000000E+00	 1.00000000E+00	 7.50000000E+00
	 0.00000000E+00	 1.00000000E+00	 5.00000000E-01
	 0.00000000E+00	 1.00000000E+00	 1.00000000E+00
	 0.00000000E+00	 1.00000000E+00	 1.50000000E+00
	 0.00000000E+00	 1.00000000E+00	 2.00000000E+00
	 0.00000000E+00	 1.00000000E+00	 2.50000000E+00
	 0.00000000E+00	 1.00000000E+00	 3.00000000E+00
	 0.00000000E+00	 1.00000000E+00	 3.50000000E+00
	 0.00000000E+00	 1.00000000E+00	 4.00000000E+00
	 0.00000000E+00	 1.00000000E+00	 4.50000000E+00
	 0.00000000E+00	 1.00000000E+00	 5.00000000E+00
	 0.00000000E+00	 1.00000000E+00	 5.50000000E+00
	 0.00000000E+00	 1.00000000E+00	 6.00000000E+00
	 0.00000000E+00	 1.00000000E+00	 6.50000000E+00
	 0.00000000E+00	 1.00000000E+00	 7.00000000E+00
	 0.00000000E+00	 1.00000000E+00	 7.50000000E+00
	 5.00000000E-01	 2.50000000E-01	 0.00000000E+00
	 2.50000000E-01	 5.00000000E-01	 0.00000000E+00
	 5.00000000E-01	 5.00000000E-01	 0.00000000E+00
	 7.50000000E-01	 5.00000000E-01	 0.00000000E+00
	 5.00000000E-01	 7.50000000E-01	 0.00000000E+00
	 5.00000000E-01	 2.50000000E-01	 8.00000000E+00
	 2.50000000E-01	 5.00000000E-01	 8.00000000E+00
	 5.00000000E-01	 5.00000000E-01	 8.00000000E+00
	 7.50000000E-01	 5.00000000E-01	 8.00000000E+00
	 5.00000000E-01	 7.50000000E-01	 8.00000000E+00
	 5.00000000E-01	 0.00000000E+00	 5.00000000E-01
	 2.50000000E-01	 0.00000000E+00	 1.00000000E+00
	 5.00000000E-01	 0.00000000E+00	 1.00000000E+00
	 7.50000000E-01	 0.00000000E+00	 1.00000000E+00
	 5.00000000E-01	 0.00000000E+00	 1.50000000E+00
	 2.50000000E-01	 0.00000000E+00	 2.00000000E+00
	 5.00000000E-01	 0.00000000E+00	 2.00000000E+00
	 7.50000000E-01	 0.00000000E+00	 2.00000000E+00
	 5.00000000E-01	 0.00000000E+00	 2.50000000E+00
	 2.50000000E-01	 0.00000000E+00	 3.00000000E+00
	 5.00000000E-01	 0.00000000E+00	 3.00000000E+00
	 7.50000000E-01	 0.00000000E+00	 3.00000000E+00
	 5.00000000E-01	 0.00000000E+00	 3.50000000E+00
	 2.50000000E-01	 0.00000000E+00	 4.00000000E+00
	 5.00000000E-01	 0.00000000E+00	 4.00000000E+00
	 7.50000000E-01	 0.00000000E+00	 4.00000000E+00
	 5.00000000E-01	 0.00000000E+00	 4.50000000E+00
	 2.50000000E-01	 0.00000000E+00	 5.00000000E+00
	 5.00000000E-01	 0.00000000E+00	 5.00000000E+00
	 7.50000000E-01	 0.00000000E+00	 5.00000000E+00
	 5.00000000E-01	 0.00000000E+00	 5.50000000E+00
	 2.50000000E-01	 0.00000000E+00	 6.00000000E+00
	 5.00000000E-01	 0.00000000E+00	 6.00000000E+00
	 7.50000000E-01	 0.00000000E+00	 6.00000000E+00
	 5.00000000E-01	 0.00000000E+00	 6.50000000E+00
	 2.50000000E-01	 0.00000000E+00	 7.00000000E+00
	 5.00000000E-01	 0.00000000E+00	 7.00000000E+00
	 7.50000000E-01	 0.00000000E+00	 7.00000000E+00
	 5.00000000E-01	 0.00000000E+00	 7.50000000E+00
	 1.00000000E+00	 5.00000000E-01	 5.00000000E-01
	 1.00000000E+00	 2.50000000E-01	 1.00000000E+00
	 1.00000000E+00	 5.00000000E-01	 1.00000000E+00
	 1.00000000E+00	 7.50000000E-01	 1.00000000E+00
	 1.00000000E+00	 5.00000000E-01	 1.50000000E+00
	 1.00000000E+00	 2.50000000E-01	 2.00000000E+00
	 1.00000000E+00	 5.00000000E-01	 2.00000000E+00
	 1.00000000E+00	 7.50000000E-01	 2.00000000E+00
	 1.00000000E+00	 5.00000000E-01	 2.50000000E+00
	 1.00000000E+00	 2.50000000E-01	 3.00000000E+00
	 1.00000000E+00	 5.00000000E-01	 3.00000000E+00
	 1.00000000E+00	 7.50000000E-01	 3.00000000E+00
	 1.00000000E+00	 5.00000000E-01	 3.50000000E+00
	 1.00000000E+00	 2.50000000E-01	 4.00000000E+00
	 1.00000000E+00	 5.00000000E-01	 4.00000000E+00
	 1.00000000E+00	 7.50000000E-01	 4.00000000E+00
	 1.00000000E+00	 5.00000000E-01	 4.50000000E+00
	 1.00000000E+00	 2.50000000E-01	 5.00000000E+00
	 1.00000000E+00	 5.00000000E-01	 5.00000000E+00
	 1.00000000E+00	 7.50000000E-01	 5.00000000E+00
	 1.00000000E+00	 5.00000000E-01	 5.50000000E+00
	 1.00000000E+00	 2.50000000E-01	 6.00000000E+00
	 1.00000000E+00	 5.00000000E-01	 6.00000000E+00
	 1.00000000E+00	 7.50000000E-01	 6.00000000E+00
	 1.00000000E+00	 5.00000000E-01	 6.50000000E+00
	 1.00000000E+00	 2.50000000E-01	 7.00000000E+00
	 1.00000000E+00	 5.00000000E-01	 7.00000000E+00
	 1.00000000E+00	 7.50000000E-01	 7.00000000E+00
	 1.00000000E+00	 5.00000000E-01	 7.50000000E+00
	 5.00000000E-01	 1.00000000E+00	 5.00000000E-01
	 7.50000000E-01	 1.00000000E+00	 1.00000000E+00
	 5.00000000E-01	 1.00000000E+00	 1.00000000E+00
	 2.50000000E-01	 1.00000000E+00	 1.00000000E+00
	 5.00000000E-01	 1.00000000E+00	 1.50000000E+00
	 7.50000000E-01	 1.00000000E+00	 2.00000000E+00
	 5.00000000E-01	 1.00000000E+00	 2.00000000E+00
	 2.50000000E-01	 1.00000000E+00	 2.00000000E+00
	 5.00000000E-01	 1.00000000E+00	 2.50000000E+00
	 7.50000000E-01	 1.00000000E+00	 3.00000000E+00
	 5.00000000E-01	 1.00000000E+00	 3.00000000E+00
	 2.50000000E-01	 1.00000000E+00	 3.00000000E+00
	 5.00000000E-01	 1.00000000E+00	 3.50000000E+00
	 7.50000000E-01	 1.00000000E+00	 4.00000000E+00
	 5.00000000E-01	 1.00000000E+00	 4.00000000E+00
	 2.50000000E-01	 1.00000000E+00	 4.00000000E+00
	 5.00000000E-01	 1.00000000E+00	 4.50000000E+00
	 7.50000000E-01	 1.00000000E+00	 5.00000000E+00
	 5.00000000E-01	 1.00000000E+00	 5.00000000E+00
	 2.50000000E-01	 1.00000000E+00	 5.00000000E+00
	 5.00000000E-01	 1.00000000E+00	 5.50000000E+00
	 7.50000000E-01	 1.00000000E+00	 6.00000000E+00
	 5.00000000E-01	 1.00000000E+00	 6.00000000E+00
	 2.50000000E-01	 1.00000000E+00	 6.00000000E+00
	 5.00000000E-01	 1.00000000E+00	 6.50000000E+00
	 7.50000000E-01	 1.00000000E+00	 7.00000000E+00
	 5.00000000E-01	 1.00000000E+00	 7.00000000E+00
	 2.50000000E-01	 1.00000000E+00	 7.00000000E+00
	 5.00000000E-01	 1.00000000E+00	 7.50000000E+00
	 0.00000000E+00	 5.00000000E-01	 5.00000000E-01
	 0.00000000E+00	 7.50000000E-01	 1.00000000E+00
	 0.00000000E+00	 5.00000000E-01	 1.00000000E+00
	 0.00000000E+00	 2.50000000E-01	 1.00000000E+00
	 0.00000000E+00	 5.00000000E-01	 1.50000000E+00
	 0.00000000E+00	 7.50000000E-01	 2.00000000E+00
	 0.00000000E+00	 5.00000000E-01	 2.00000000E+00
	 0.00000000E+00	 2.50000000E-01	 2.00000000E+00
	 0.00000000E+00	 5.00000000E-01	 2.50000000E+00
	 0.00000000E+00	 7.50000000E-01	 3.00000000E+00
	 0.00000000E+00	 5.00000000E-01	 3.00000000E+00
	 0.00000000E+00	 2.50000000E-01	 3.00000000E+00
	 0.00000000E+00	 5.00000000E-01	 3.50000000E+00
	 0.00000000E+00	 7.50000000E-01	 4.00000000E+00
	 0.00000000E+00	 5.00000000E-01	 4.00000000E+00
	 0.00000000E+00	 2.50000000E-01	 4.00000000E+00
	 0.00000000E+00	 5.00000000E-01	 4.50000000E+00
	 0.00000000E+00	 7.50000000E-01	 5.00000000E+00
	 0.00000000E+00	 5.00000000E-01	 5.00000000E+00
	 0.00000000E+00	 2.50000000E-01	 5.00000000E+00
	 0.00000000E+00	 5.00000000E-01	 5.50000000E+00
	 0.00000000E+00	 7.50000000E-01	 6.00000000E+00
	 0.00000000E+00	 5.00000000E-01	 6.00000000E+00
	 0.00000000E+00	 2.50000000E-01	 6.00000000E+00
	 0.00000000E+00	 5.00000000E-01	 6.50000000E+00
	 0.00000000E+00	 7.50000000E-01	 7.00000000E+00
	 0.00000000E+00	 5.00000000E-01	 7.00000000E+00
	 0.00000000E+00	 2.50000000E-01	 7.00000000E+00
	 0.00000000E+00	 5.00000000E-01	 7.50000000E+00
	 5.00000000E-01	 5.00000000E-01	 5.00000000E-01
	 5.00000000E-01	 2.50000000E-01	 1.00000000E+00
	 2.50000000E-01	 5.00000000E-01	 1.00000000E+00
	 5.00000000E-01	 5.00000000E-01	 1.00000000E+00
	 7.50000000E-01	 5.00000000E-01	 1.00000000E+00
	 5.00000000E-01	 7.50000000E-01	 1.00000000E+00
	 5.00000000E-01	 5.00000000E-01	 1.50000000E+00
	 5.00000000E-01	 2.50000000E-01	 2.00000000E+00
	 2.50000000E-01	 5.00000000E-01	 2.00000000E+00
	 5.00000000E-01	 5.00000000E-01	 2.00000000E+00
	 7.50000000E-01	 5.00000000E-01	 2.00000000E+00
	 5.00000000E-01	 7.50000000E-01	 2.00000000E+00
	 5.00000000E-01	 5.00000000E-01	 2.50000000E+00
	 5.00000000E-01	 2.50000000E-01	 3.00000000E+00
	 2.50000000E-01	 5.00000000E-01	 3.00000000E+00
	 5.00000000E-01	 5.00000000E-01	 3.00000000E+00
	 7.50000000E-01	 5.00000000E-01	 3.00000000E+00
	 5.00000000E-01	 7.50000000E-01	 3.00000000E+00
	 5.00000000E-01	 5.00000000E-01	 3.50000000E+00
	 5.00000000E-01	 2.50000000E-01	 4.00000000E+00
	 2.50000000E-01	 5.00000000E-01	 4.00000000E+00
	 5.00000000E-01	 5.00000000E-01	 4.00000000E+00
	 7.50000000E-01	 5.00000000E-01	 4.00000000E+00
	 5.00000000E-01	 7.50000000E-01	 4.00000000E+00
	 5.00000000E-01	 5.00000000E-01	 4.50000000E+00
	 5.00000000E-01	 2.50000000E-01	 5.00000000E+00
	 2.50000000E-01	 5.00000000E-01	 5.00000000E+00
	 5.00000000E-01	 5.00000000E-01	 5.00000000E+00
	 7.50000000E-01	 5.00000000E-01	 5.00000000E+00
	 5.00000000E-01	 7.50000000E-01	 5.00000000E+00
	 5.00000000E-01	 5.00000000E-01	 5.50000000E+00
	 5.00000000E-01	 2.50000000E-01	 6.00000000E+00
	 2.50000000E-01	 5.00000000E-01	 6.00000000E+00
	 5.00000000E-01	 5.00000000E-01	 6.00000000E+00
	 7.50000000E-01	 5.00000000E-01	 6.00000000E+00
	 5.00000000E-01	 7.50000000E-01	 6.00000000E+00
	 5.00000000E-01	 5.00000000E-01	 6.50000000E+00
	 5.00000000E-01	 2.50000000E-01	 7.00000000E+00
	 2.50000000E-01	 5.00000000E-01	 7.00000000E+00
	 5.00000000E-01	 5.00000000E-01	 7.00000000E+00
	 7.50000000E-01	 5.00000000E-01	 7.00000000E+00
	 5.00000000E-01	 7.50000000E-01	 7.00000000E+00
	 5.00000000E-01	 5.00000000E-01	 7.50000000E+00

CELLS 32 672
	20 0 9 94 18 60 104 221 191 8 92 93 19 103 219 220 192 61 102 218 189 
	20 9 1 12 94 104 33 133 221 10 11 95 92 105 132 222 219 102 32 131 218 
	20 18 94 15 3 191 221 162 78 93 96 16 17 220 223 163 190 189 218 160 77 
	20 94 12 2 15 221 133 63 162 95 13 14 96 222 134 161 223 218 131 62 160 
	20 60 104 221 191 58 108 227 195 103 219 220 192 107 225 226 196 59 106 224 193 
	20 104 33 133 221 108 35 137 227 105 132 222 219 109 136 228 225 106 34 135 224 
	20 191 221 162 78 195 227 166 80 220 223 163 190 226 229 167 194 193 224 164 79 
	20 221 133 63 162 227 137 65 166 222 134 161 223 228 138 165 229 224 135 64 164 
	20 58 108 227 195 56 112 233 199 107 225 226 196 111 231 232 200 57 110 230 197 
	20 108 35 137 227 112 37 141 233 109 136 228 225 113 140 234 231 110 36 139 230 
	20 195 227 166 80 199 233 170 82 226 229 167 194 232 235 171 198 197 230 168 81 
	20 227 137 65 166 233 141 67 170 228 138 165 229 234 142 169 235 230 139 66 168 
	20 56 112 233 199 54 116 239 203 111 231 232 200 115 237 238 204 55 114 236 201 
	20 112 37 141 233 116 39 145 239 113 140 234 231 117 144 240 237 114 38 143 236 
	20 199 233 170 82 203 239 174 84 232 235 171 198 238 241 175 202 201 236 172 83 
	20 233 141 67 170 239 145 69 174 234 142 169 235 240 146 173 241 236 143 68 172 
	20 54 116 239 203 52 120 245 207 115 237 238 204 119 243 244 208 53 118 242 205 
	20 116 39 145 239 120 41 149 245 117 144 240 237 121 148 246 243 118 40 147 242 
	20 203 239 174 84 207 245 178 86 238 241 175 202 244 247 179 206 205 242 176 85 
	20 239 145 69 174 245 149 71 178 240 146 173 241 246 150 177 247 242 147 70 176 
	20 52 120 245 207 50 124 251 211 119 243 244 208 123 249 250 212 51 122 248 209 
	20 120 41 149 245 124 43 153 251 121 148 246 243 125 152 252 249 122 42 151 248 
	20 207 245 178 86 211 251 182 88 244 247 179 206 250 253 183 210 209 248 180 87 
	20 245 149 71 178 251 153 73 182 246 150 177 247 252 154 181 253 248 151 72 180 
	20 50 124 251 211 48 128 257 215 123 249 250 212 127 255 256 216 49 126 254 213 
	20 124 43 153 251 128 45 157 257 125 152 252 249 129 156 258 255 126 44 155 254 
	20 211 251 182 88 215 257 186 90 250 253 183 210 256 259 187 214 213 254 184 89 
	20 251 153 73 182 257 157 75 186 252 154 181 253 258 158 185 259 254 155 74 184 
	20 48 128 257 215 4 21 99 30 127 255 256 216 20 97 98 31 47 130 260 217 
	20 128 45 157 257 21 5 24 99 129 156 258 255 22 23 100 97 130 46 159 260 
	20 215 257 186 90 30 99 27 7 256 259 187 214 98 101 28 29 217 260 188 91 
	20 257 157 75 186 99 24 6 27 258 158 185 259 100 25 26 101 260 159 76 188 

CELL_TYPES 32
	25
	25
	25
	25
	25
	25
	25
	25
	25
	25
	25
	25
	25
	25
	25
	25
	25
	25
	25
	25
	25
	25
	25
	25
	25
	25
	25
	25
	25
	25
	25
	25

POINT_DATA 261
FIELD E 1
	E 10 261 double
		 1.68269000E-13	 6.65864000E-13	-1.92799000E-12	 2.84230000E-13	 6.45998000E-13	-2.09116000E-13	 1.80252655E-12	-2.11187342E-12	 1.25403009E-13	 8.92613415E-13
		 1.67985000E-13	 6.65440000E-13	-1.92878000E-12	-2.84128000E-13	 6.46004000E-13	 2.09009000E-13	 1.80273066E-12	-2.11260867E-12	 1.25108231E-13	 8.92145438E-13
		 1.66161000E-13	 6.68486000E-13	-1.91414000E-12	 2.88709000E-13	-6.63389000E-13	 2.09604000E-13	 1.80457258E-12	-2.10728412E-12	 1.23809241E-13	 9.03981879E-13
		 1.65701000E-13	 6.67505000E-13	-1.91492000E-12	-2.88392000E-13	-6.63450000E-13	-2.09645000E-13	 1.80452709E-12	-2.10809091E-12	 1.23483426E-13	 9.02893487E-13
		-1.71556000E-13	 3.85458000E-13	 2.98751000E-12	 2.22096000E-13	 1.82218000E-12	 1.86649000E-12	 3.59571802E-12	-1.32264613E-12	-6.46836945E-14	 4.58874183E-12
		-1.72555000E-13	 3.85110000E-13	 2.98659000E-12	-2.22273000E-13	 1.82236000E-12	-1.86647000E-12	 3.59578626E-12	-1.32344562E-12	-6.54627890E-14	 4.58805341E-12
		-2.63107000E-13	-1.03279000E-14	 3.13183000E-12	 2.61197000E-13	-1.72543000E-12	-1.71035000E-12	 3.56795705E-12	-1.24212798E-12	-3.85813559E-13	 4.48633664E-12
		-2.62004000E-13	-9.72100000E-15	 3.13157000E-12	-2.61390000E-13	-1.72536000E-12	 1.70997000E-12	 3.56722226E-12	-1.24104408E-12	-3.85229259E-13	 4.48611834E-12
		 4.22896000E-14	 8.65488000E-13	-1.98389000E-12	 2.26985000E-13	 5.83531000E-13	-7.18766000E-14	 1.84301658E-12	-2.10489349E-12	 3.85195565E-15	 1.02492913E-12
		-8.37920000E-14	 1.06511000E-12	-2.03981000E-12	-3.38415000E-17	 5.21041000E-13	 3.03267000E-17	 1.90993966E-12	-2.12491398E-12	-8.37920000E-14	 1.15021398E-12
		 4.20454000E-14	 8.65269000E-13	-1.98431000E-12	-2.26967000E-13	 5.83511000E-13	 7.18537000E-14	 1.84311850E-12	-2.10529476E-12	 3.60919651E-15	 1.02468996E-12
		-1.98475000E-13	-2.48190000E-13	 1.63079000E-12	 2.18260000E-14	-9.08540000E-13	-1.24262000E-13	 1.62804736E-12	-6.17319662E-13	-2.03702027E-13	 2.00514669E-12
		-5.65633000E-13	-1.13639000E-12	 5.19163000E-12	-1.79241000E-15	 6.86737000E-14	-4.57059000E-13	 4.07696541E-12	-1.13715381E-12	-6.01667870E-13	 5.22842868E-12
		-2.00085000E-13	-2.21242000E-13	 1.63938000E-12	-2.13276000E-14	 9.68521000E-13	-1.23490000E-13	 1.67122169E-12	-6.35805475E-13	-2.04746453E-13	 2.05860493E-12
		 3.74843000E-14	 8.70709000E-13	-1.96904000E-12	 2.30196000E-13	-6.01474000E-13	 7.00282000E-14	 1.84406364E-12	-2.09735833E-12	-1.31026584E-15	 1.03782190E-12
		-9.16162000E-14	 1.07286000E-12	-2.02399000E-12	-1.41954000E-16	-5.39497000E-13	 4.62852000E-17	 1.91060755E-12	-2.11528357E-12	-9.16162171E-14	 1.16415359E-12
		 3.68309000E-14	 8.70142000E-13	-1.96948000E-12	-2.30180000E-13	-6.01442000E-13	-7.00022000E-14	 1.84395937E-12	-2.09778840E-12	-1.95845309E-15	 1.03723976E-12
		-2.00111000E-13	-2.21530000E-13	 1.63913000E-12	 2.13761000E-14	 9.68448000E-13	 1.23446000E-13	 1.67111713E-12	-6.36025461E-13	-2.04780563E-13	 2.05829502E-12
		-5.65409000E-13	-1.13609000E-12	 5.19194000E-12	 1.67546000E-15	 6.86279000E-14	 4.57014000E-13	 4.07698566E-12	-1.13685417E-12	-6.01434738E-13	 5.22872991E-12
		-1.98314000E-13	-2.47876000E-13	 1.63136000E-12	-2.17819000E-14	-9.08546000E-13	 1.24188000E-13	 1.62821026E-12	-6.16975727E-13	-2.03528565E-13	 2.00567429E-12
		-6.67022000E-15	 1.98496000E-12	-1.93778000E-12	 2.68642000E-13	-5.16388000E-13	-9.16769000E-13	 2.58883964E-12	-2.33765188E-12	 2.50667199E-13	 2.12749446E-12
		 1.58446000E-13	 3.58471000E-12	-6.86311000E-12	 1.44978000E-16	-2.85499000E-12	 4.72517000E-17	 6.97781061E-12	-7.59236753E-12	 1.58445997E-13	 4.31396753E-12
		-6.93926000E-15	 1.98504000E-12	-1.93828000E-12	-2.68586000E-13	-5.16325000E-13	 9.16826000E-13	 2.58913531E-12	-2.33814890E-12	 2.50461782E-13	 2.12750785E-12
		 5.99766000E-13	 4.73402000E-13	-1.47640000E-12	-2.46240000E-13	-1.09525000E-12	 4.74931000E-13	 1.94609340E-12	-2.01111752E-12	 3.57917877E-13	 1.24996764E-12
		 1.40426000E-12	 5.37651000E-13	-5.98982000E-12	 8.77403000E-14	-3.75191000E-13	 2.85682000E-12	 5.73276413E-12	-6.98453167E-12	 5.56397487E-13	 2.38022518E-12
		 5.86664000E-13	 2.51640000E-13	-1.45421000E-12	 3.53442000E-13	 7.68520000E-13	 5.93476000E-13	 1.73806278E-12	-1.82904346E-12	 6.96847405E-14	 1.14345272E-12
		-1.01851000E-13	 1.13936000E-12	-1.66425000E-12	 3.48884000E-13	 5.87309000E-13	 9.84658000E-13	 2.13224681E-12	-2.18443198E-12	 8.39693253E-14	 1.47372166E-12
		 5.90408000E-14	 2.28922000E-12	-6.46033000E-12	 9.01565000E-17	 2.90007000E-12	 9.54517000E-17	 6.22705488E-12	-7.33427506E-12	 5.90407964E-14	 3.16316507E-12
		-1.01664000E-13	 1.13984000E-12	-1.66438000E-12	-3.48890000E-13	 5.87366000E-13	-9.84750000E-13	 2.13259346E-12	-2.18458029E-12	 8.42120810E-14	 1.47416421E-12
		 5.86806000E-13	 2.51074000E-13	-1.45448000E-12	-3.53403000E-13	 7.68588000E-13	-5.93595000E-13	 1.73821980E-12	-1.82941344E-12	 6.94559794E-14	 1.14335746E-12
		 1.40380000E-12	 5.37607000E-13	-5.99000000E-12	-8.75567000E-14	-3.75120000E-13	-2.85685000E-12	 5.73271432E-12	-6.98474585E-12	 5.56333451E-13	 2.37981940E-12
		 6.00215000E-13	 4.74401000E-13	-1.47598000E-12	 2.46199000E-13	-1.09530000E-12	-4.75025000E-13	 1.94628247E-12	-2.01067110E-12	 3.58566141E-13	 1.25074096E-12
		-1.14723000E-13	-9.28358000E-14	 5.35429000E-13	-1.29483000E-13	-2.34686000E-14	-3.67111000E-14	 4.54576554E-13	-2.36111234E-13	 2.60545164E-14	 5.37926918E-13
		-4.28085000E-13	-4.64639000E-13	 2.26757000E-12	 8.78898000E-14	-2.81887000E-13	-4.20720000E-14	 1.84189442E-12	-5.50388099E-13	-3.72062602E-13	 2.29729670E-12
		-3.35132000E-13	-2.73788000E-13	 1.44989000E-12	 3.37776000E-14	 1.95179000E-14	 4.54539000E-14	 1.17214524E-12	-3.50719966E-13	-2.59597364E-13	 1.45128733E-12
		-2.47177000E-13	-3.85810000E-13	 1.37955000E-12	-3.47465000E-14	-1.89081000E-14	-3.71592000E-14	 1.13525617E-12	-3.94442314E-13	-2.39578823E-13	 1.38058414E-12
		-2.64813000E-13	-3.08785000E-13	 1.28387000E-12	 1.03135000E-15	 3.48135000E-14	 6.24651000E-15	 1.04821699E-12	-3.09563514E-13	-2.64820456E-13	 1.28465597E-12
		-2.46099000E-13	-3.12275000E-13	 1.18685000E-12	-8.47455000E-15	-3.22730000E-15	 1.10124000E-14	 9.78243199E-13	-3.13345244E-13	-2.45120614E-13	 1.18694186E-12
		-2.38045000E-13	-3.12971000E-13	 1.10300000E-12	 9.02378000E-15	 2.34975000E-14	-5.39957000E-15	 9.20502975E-13	-3.14447847E-13	-2.36978519E-13	 1.10341037E-12
		-2.12116000E-13	-2.98438000E-13	 1.03719000E-12	-1.56425000E-14	 1.46320000E-14	 7.34465000E-15	 8.63480745E-13	-3.01368920E-13	-2.09386539E-13	 1.03739146E-12
		-2.10306000E-13	-2.88418000E-13	 9.62295000E-13	 6.59446000E-15	-2.53010000E-15	 6.47488000E-15	 8.09104920E-13	-2.88978309E-13	-2.09786414E-13	 9.62335724E-13
		-1.73514000E-13	-2.46034000E-13	 8.75694000E-13	-5.91249000E-14	-1.09923000E-13	 9.65515000E-14	 7.47406829E-13	-2.81457327E-13	-1.58471644E-13	 8.96074971E-13
		-2.03223000E-13	-2.74091000E-13	 9.00129000E-13	 5.67993000E-14	 1.09744000E-13	-1.00190000E-13	 7.82169088E-13	-3.22803152E-13	-1.72671664E-13	 9.18289816E-13
		-1.93095000E-13	-2.48450000E-13	 6.69283000E-13	-1.00355000E-13	 1.71352000E-13	-1.66485000E-13	 6.65314159E-13	-3.26596439E-13	-1.81605069E-13	 7.35939508E-13
		-9.84019000E-14	 3.95813000E-14	 1.07195000E-12	 1.17446000E-14	-4.04109000E-13	 2.90069000E-13	 9.35716046E-13	-2.32911319E-13	-1.92156114E-14	 1.26525633E-12
		-1.74203000E-13	-9.29877000E-14	 4.73205000E-13	 1.41649000E-13	-4.05042000E-13	 3.76956000E-13	 7.75116183E-13	-5.69928195E-13	 7.51532553E-15	 7.68427170E-13
		-2.11930000E-13	-1.20520000E-14	 1.11168000E-12	-2.31493000E-13	 8.43715000E-13	-7.88528000E-13	 1.59010767E-12	-6.53211259E-13	-3.34408985E-13	 1.87531824E-12
		-2.11612000E-13	-1.20474000E-14	 1.11161000E-12	 2.31535000E-13	 8.43745000E-13	 7.88646000E-13	 1.59012285E-12	-6.53142963E-13	-3.34322972E-13	 1.87541653E-12
		-1.74326000E-13	-9.31304000E-14	 4.73295000E-13	-1.41320000E-13	-4.05093000E-13	-3.76976000E-13	 7.75161479E-13	-5.69796286E-13	 7.05268035E-15	 7.68582205E-13
		-9.87761000E-14	 3.92247000E-14	 1.07206000E-12	-1.15298000E-14	-4.04182000E-13	-2.90129000E-13	 9.36028884E-13	-2.33105186E-13	-1.97795924E-14	 1.26539338E-12
		-1.93849000E-13	-2.49090000E-13	 6.69206000E-13	 1.00483000E-13	 1.71659000E-13	 1.66673000E-13	 6.65873570E-13	-3.27404049E-13	-1.82336434E-13	 7.36007483E-13
		-2.03392000E-13	-2.74200000E-13	 9.00142000E-13	-5.66425000E-14	 1.09761000E-13	 1.00135000E-13	 7.82244265E-13	-3.22787234E-13	-1.72959419E-13	 9.18296653E-13
		-1.73239000E-13	-2.45620000E-13	 8.75275000E-13	 5.92792000E-14	-1.10021000E-13	-9.68312000E-14	 7.46993347E-13	-2.81192718E-13	-1.58137031E-13	 8.95745749E-13
		-2.10190000E-13	-2.88290000E-13	 9.62507000E-13	-6.53092000E-15	-2.53070000E-15	-6.45398000E-15	 8.09163528E-13	-2.88839833E-13	-2.09680662E-13	 9.62547494E-13
		-2.12220000E-13	-2.98853000E-13	 1.03689000E-12	 1.54018000E-14	 1.46938000E-14	-7.16840000E-15	 8.63457840E-13	-3.01693832E-13	-2.09579998E-13	 1.03709083E-12
		-2.38579000E-13	-3.13505000E-13	 1.10269000E-12	-9.18663000E-15	 2.35605000E-14	 5.39564000E-15	 9.20656329E-13	-3.15022511E-13	-2.37473827E-13	 1.10310234E-12
		-2.46909000E-13	-3.12883000E-13	 1.18680000E-12	 8.54293000E-15	-3.48176000E-15	-1.10554000E-14	 9.78680191E-13	-3.13974089E-13	-2.45911546E-13	 1.18689364E-12
		-2.64728000E-13	-3.08720000E-13	 1.28373000E-12	-9.61185000E-16	 3.47889000E-14	-6.26986000E-15	 1.04807310E-12	-3.09494819E-13	-2.64738354E-13	 1.28451517E-12
		-2.46266000E-13	-3.84884000E-13	 1.38004000E-12	 3.48400000E-14	-1.88090000E-14	 3.70884000E-14	 1.13496958E-12	-3.93556252E-13	-2.38622878E-13	 1.38106913E-12
		-3.34835000E-13	-2.73432000E-13	 1.44985000E-12	-3.36371000E-14	 1.94878000E-14	-4.54211000E-14	 1.17189472E-12	-3.50310647E-13	-2.59351483E-13	 1.45124513E-12
		-4.28424000E-13	-4.64970000E-13	 2.26711000E-12	-8.77441000E-14	-2.81868000E-13	 4.21925000E-14	 1.84180305E-12	-5.50574707E-13	-3.72547441E-13	 2.29683815E-12
		-1.14766000E-13	-9.28008000E-14	 5.35780000E-13	 1.29598000E-13	-2.34593000E-14	 3.67078000E-14	 4.54842353E-13	-2.36230782E-13	 2.61684502E-14	 5.38275531E-13
		-1.68146000E-13	-1.73618000E-13	 7.86125000E-13	 1.31396000E-13	 2.65779000E-14	-4.10954000E-14	 6.58235092E-13	-3.04397488E-13	-3.95963508E-14	 7.88354839E-13
		-5.35890000E-13	-6.16831000E-13	 2.75910000E-12	-8.84413000E-14	 2.89630000E-13	-4.91543000E-14	 2.25216745E-12	-6.88086927E-13	-4.90263283E-13	 2.78472921E-12
		-4.90732000E-13	-4.87916000E-13	 2.15959000E-12	-3.39497000E-14	-1.63509000E-14	 4.08650000E-14	 1.76710950E-12	-5.23427011E-13	-4.55958444E-13	 2.16032746E-12
		-4.47824000E-13	-6.71963000E-13	 2.30111000E-12	 3.46550000E-14	 2.87465000E-14	-4.17765000E-14	 1.91303570E-12	-6.77603041E-13	-4.43086461E-13	 2.30201250E-12
		-5.01132000E-13	-6.42835000E-13	 2.36776000E-12	-7.89740000E-16	-2.59745000E-14	 2.48347000E-15	 1.96176746E-12	-6.43063242E-13	-5.01130002E-13	 2.36798624E-12
		-5.17483000E-13	-6.95277000E-13	 2.43211000E-12	 8.30897000E-15	 1.34744000E-14	 8.29195000E-15	 2.02836415E-12	-6.95719116E-13	-5.17122449E-13	 2.43219156E-12
		-5.37492000E-13	-7.34673000E-13	 2.47321000E-12	-9.29397000E-15	-1.21014000E-14	-8.74597000E-15	 2.07608478E-12	-7.35158792E-13	-5.37077061E-13	 2.47328085E-12
		-5.39205000E-13	-7.59441000E-13	 2.53285000E-12	 1.40180000E-14	-1.38591000E-15	 4.36406000E-15	 2.12532406E-12	-7.60330495E-13	-5.38322272E-13	 2.53285677E-12
		-5.63057000E-13	-7.89006000E-13	 2.58049000E-12	-4.95157000E-15	 1.10788000E-14	 4.14922000E-15	 2.17498050E-12	-7.89151468E-13	-5.62953392E-13	 2.58053186E-12
		-5.54187000E-13	-7.81779000E-13	 2.61938000E-12	 5.87945000E-14	 1.17214000E-13	 9.48360000E-14	 2.20344916E-12	-7.98560010E-13	-5.44387841E-13	 2.62636185E-12
		-6.13291000E-13	-8.49961000E-13	 2.77110000E-12	-5.87327000E-14	-9.09421000E-14	-1.05392000E-13	 2.34564195E-12	-8.67243759E-13	-6.01475417E-13	 2.77656718E-12
		-6.36985000E-13	-8.59324000E-13	 2.66111000E-12	 8.62823000E-14	-1.36097000E-13	-1.76690000E-13	 2.29315111E-12	-8.90384892E-13	-6.20949903E-13	 2.67613579E-12
		-5.27630000E-13	-5.95284000E-13	 3.09118000E-12	 8.62848000E-15	 3.97084000E-13	 3.01121000E-13	 2.50248427E-12	-6.43477231E-13	-5.46199383E-13	 3.15794261E-12
		-6.46656000E-13	-6.85851000E-13	 2.64042000E-12	-1.55820000E-13	 4.32429000E-13	 3.58013000E-13	 2.30493055E-12	-9.11953679E-13	-5.09280335E-13	 2.72914701E-12
		-5.25224000E-13	-4.68095000E-13	 2.32548000E-12	 2.00443000E-13	-7.39772000E-13	-7.45872000E-13	 2.25074944E-12	-7.13717337E-13	-6.48610859E-13	 2.69448920E-12
		-1.68350000E-13	-1.73569000E-13	 7.86293000E-13	-1.31169000E-13	 2.64913000E-14	 4.10635000E-14	 6.58325383E-13	-3.04238517E-13	-3.99037067E-14	 7.88516223E-13
		-5.35924000E-13	-6.15824000E-13	 2.75938000E-12	 8.86077000E-14	 2.89616000E-13	 4.90812000E-14	 2.25202333E-12	-6.87473518E-13	-4.89904514E-13	 2.78501003E-12
		-4.90734000E-13	-4.87557000E-13	 2.15938000E-12	 3.40663000E-14	-1.62427000E-14	-4.07896000E-14	 1.76685021E-12	-5.23374631E-13	-4.55650211E-13	 2.16011384E-12
		-4.47623000E-13	-6.72181000E-13	 2.30131000E-12	-3.46468000E-14	 2.87839000E-14	 4.17380000E-14	 1.91319009E-12	-6.77809703E-13	-4.42896315E-13	 2.30221202E-12
		-5.01210000E-13	-6.43183000E-13	 2.36765000E-12	 8.07786000E-16	-2.59710000E-14	-2.50963000E-15	 1.96184256E-12	-6.43411351E-13	-5.01207861E-13	 2.36787621E-12
		-5.18119000E-13	-6.95694000E-13	 2.43206000E-12	-8.21876000E-15	 1.35012000E-14	-8.16049000E-15	 2.02867404E-12	-6.96128534E-13	-5.17765513E-13	 2.43214105E-12
		-5.37746000E-13	-7.34804000E-13	 2.47311000E-12	 9.25047000E-15	-1.21605000E-14	 8.66893000E-15	 2.07614223E-12	-7.35286409E-13	-5.37334446E-13	 2.47318085E-12
		-5.38940000E-13	-7.59271000E-13	 2.53253000E-12	-1.42785000E-14	-1.36941000E-15	-4.34126000E-15	 2.12497190E-12	-7.60193284E-13	-5.38024405E-13	 2.53253669E-12
		-5.63209000E-13	-7.88889000E-13	 2.58071000E-12	 4.78920000E-15	 1.10660000E-14	-4.15271000E-15	 2.17512868E-12	-7.89027492E-13	-5.63112293E-13	 2.58075178E-12
		-5.54553000E-13	-7.81945000E-13	 2.61839000E-12	-5.87743000E-14	 1.17049000E-13	-9.49558000E-14	 2.20295667E-12	-7.98717638E-13	-5.44759547E-13	 2.62536918E-12
		-6.13214000E-13	-8.50051000E-13	 2.77122000E-12	 5.87762000E-14	-9.09008000E-14	 1.05407000E-13	 2.34573174E-12	-8.67341921E-13	-6.01388915E-13	 2.77668584E-12