<?xml version="1.0"?>
<VTKFile type="UnstructuredGrid" version="0.1" byte_order="LittleEndian">
	<UnstructuredGrid>
		<Piece NumberOfPoints="261" NumberOfCells="32">
			<Points>
				<DataArray type="Float64" NumberOfComponents="3" format="ascii">
					 0.00000000E+00	 0.00000000E+00	 0.00000000E+00
					 1.00000000E+00	 0.00000000E+00	 0.00000000E+00
					 1.00000000E+00	 1.00000000E+00	 0.00000000E+00
					 0.00000000E+00	 1.00000000E+00	 0.00000000E+00
					 0.00000000E+00	 0.00000000E+00	 8.00000000E+00
					 1.00000000E+00	 0.00000000E+00	 8.00000000E+00
					 1.00000000E+00	 1.00000000E+00	 8.00000000E+00
					 0.00000000E+00	 1.00000000E+00	 8.00000000E+00
					 2.50000000E-01	 0.00000000E+00	 0.00000000E+00
					 5.00000000E-01	 0.00000000E+00	 0.00000000E+00
					 7.50000000E-01	 0.00000000E+00	 0.00000000E+00
					 1.00000000E+00	 2.50000000E-01	 0.00000000E+00
					 1.00000000E+00	 5.00000000E-01	 0.00000000E+00
					 1.00000000E+00	 7.50000000E-01	 0.00000000E+00
					 7.50000000E-01	 1.00000000E+00	 0.00000000E+00
					 5.00000000E-01	 1.00000000E+00	 0.00000000E+00
					 2.50000000E-01	 1.00000000E+00	 0.00000000E+00
					 0.00000000E+00	 7.50000000E-01	 0.00000000E+00
					 0.00000000E+00	 5.00000000E-01	 0.00000000E+00
					 0.00000000E+00	 2.50000000E-01	 0.00000000E+00
					 2.50000000E-01	 0.00000000E+00	 8.00000000E+00
					 5.00000000E-01	 0.00000000E+00	 8.00000000E+00
					 7.50000000E-01	 0.00000000E+00	 8.00000000E+00
					 1.00000000E+00	 2.50000000E-01	 8.00000000E+00
					 1.00000000E+00	 5.00000000E-01	 8.00000000E+00
					 1.00000000E+00	 7.50000000E-01	 8.00000000E+00
					 7.50000000E-01	 1.00000000E+00	 8.00000000E+00
					 5.00000000E-01	 1.00000000E+00	 8.00000000E+00
					 2.50000000E-01	 1.00000000E+00	 8.00000000E+00
					 0.00000000E+00	 7.50000000E-01	 8.00000000E+00
					 0.00000000E+00	 5.00000000E-01	 8.00000000E+00
					 0.00000000E+00	 2.50000000E-01	 8.00000000E+00
					 1.00000000E+00	 0.00000000E+00	 5.00000000E-01
					 1.00000000E+00	 0.00000000E+00	 1.00000000E+00
					 1.00000000E+00	 0.00000000E+00	 1.50000000E+00
					 1.00000000E+00	 0.00000000E+00	 2.00000000E+00
					 1.00000000E+00	 0.00000000E+00	 2.50000000E+00
					 1.00000000E+00	 0.00000000E+00	 3.00000000E+00
					 1.00000000E+00	 0.00000000E+00	 3.50000000E+00
					 1.00000000E+00	 0.00000000E+00	 4.00000000E+00
					 1.00000000E+00	 0.00000000E+00	 4.50000000E+00
					 1.00000000E+00	 0.00000000E+00	 5.00000000E+00
					 1.00000000E+00	 0.00000000E+00	 5.50000000E+00
					 1.00000000E+00	 0.00000000E+00	 6.00000000E+00
					 1.00000000E+00	 0.00000000E+00	 6.50000000E+00
					 1.00000000E+00	 0.00000000E+00	 7.00000000E+00
					 1.00000000E+00	 0.00000000E+00	 7.50000000E+00
					 0.00000000E+00	 0.00000000E+00	 7.50000000E+00
					 0.00000000E+00	 0.00000000E+00	 7.00000000E+00
					 0.00000000E+00	 0.00000000E+00	 6.50000000E+00
					 0.00000000E+00	 0.00000000E+00	 6.00000000E+00
					 0.00000000E+00	 0.00000000E+00	 5.50000000E+00
					 0.00000000E+00	 0.00000000E+00	 5.00000000E+00
					 0.00000000E+00	 0.00000000E+00	 4.50000000E+00
					 0.00000000E+00	 0.00000000E+00	 4.00000000E+00
					 0.00000000E+00	 0.00000000E+00	 3.50000000E+00
					 0.00000000E+00	 0.00000000E+00	 3.00000000E+00
					 0.00000000E+00	 0.00000000E+00	 2.50000000E+00
					 0.00000000E+00	 0.00000000E+00	 2.00000000E+00
					 0.00000000E+00	 0.00000000E+00	 1.50000000E+00
					 0.00000000E+00	 0.00000000E+00	 1.00000000E+00
					 0.00000000E+00	 0.00000000E+00	 5.00000000E-01
					 1.00000000E+00	 1.00000000E+00	 5.00000000E-01
					 1.00000000E+00	 1.00000000E+00	 1.00000000E+00
					 1.00000000E+00	 1.00000000E+00	 1.50000000E+00
					 1.00000000E+00	 1.00000000E+00	 2.00000000E+00
					 1.00000000E+00	 1.00000000E+00	 2.50000000E+00
					 1.00000000E+00	 1.00000000E+00	 3.00000000E+00
					 1.00000000E+00	 1.00000000E+00	 3.50000000E+00
					 1.00000000E+00	 1.00000000E+00	 4.00000000E+00
					 1.00000000E+00	 1.00000000E+00	 4.50000000E+00
					 1.00000000E+00	 1.00000000E+00	 5.00000000E+00
					 1.00000000E+00	 1.00000000E+00	 5.50000000E+00
					 1.00000000E+00	 1.00000000E+00	 6.00000000E+00
					 1.00000000E+00	 1.00000000E+00	 6.50000000E+00
					 1.00000000E+00	 1.00000000E+00	 7.00000000E+00
					 1.00000000E+00	 1.00000000E+00	 7.50000000E+00
					 0.00000000E+00	 1.00000000E+00	 5.00000000E-01
					 0.00000000E+00	 1.00000000E+00	 1.00000000E+00
					 0.00000000E+00	 1.00000000E+00	 1.50000000E+00
					 0.00000000E+00	 1.00000000E+00	 2.00000000E+00
					 0.00000000E+00	 1.00000000E+00	 2.50000000E+00
					 0.00000000E+00	 1.00000000E+00	 3.00000000E+00
					 0.00000000E+00	 1.00000000E+00	 3.50000000E+00
					 0.00000000E+00	 1.00000000E+00	 4.00000000E+00
					 0.00000000E+00	 1.00000000E+00	 4.50000000E+00
					 0.00000000E+00	 1.00000000E+00	 5.00000000E+00
					 0.00000000E+00	 1.00000000E+00	 5.50000000E+00
					 0.00000000E+00	 1.00000000E+00	 6.00000000E+00
					 0.00000000E+00	 1.00000000E+00	 6.50000000E+00
					 0.00000000E+00	 1.00000000E+00	 7.00000000E+00
					 0.00000000E+00	 1.00000000E+00	 7.50000000E+00
					 5.00000000E-01	 2.50000000E-01	 0.00000000E+00
					 2.50000000E-01	 5.00000000E-01	 0.00000000E+00
					 5.00000000E-01	 5.00000000E-01	 0.00000000E+00
					 7.50000000E-01	 5.00000000E-01	 0.00000000E+00
					 5.00000000E-01	 7.50000000E-01	 0.00000000E+00
					 5.00000000E-01	 2.50000000E-01	 8.00000000E+00
					 2.50000000E-01	 5.00000000E-01	 8.00000000E+00
					 5.00000000E-01	 5.00000000E-01	 8.00000000E+00
					 7.50000000E-01	 5.00000000E-01	 8.00000000E+00
					 5.00000000E-01	 7.50000000E-01	 8.00000000E+00
					 5.00000000E-01	 0.00000000E+00	 5.00000000E-01
					 2.50000000E-01	 0.00000000E+00	 1.00000000E+00
					 5.00000000E-01	 0.00000000E+00	 1.00000000E+00
					 7.50000000E-01	 0.00000000E+00	 1.00000000E+00
					 5.00000000E-01	 0.00000000E+00	 1.50000000E+00
					 2.50000000E-01	 0.00000000E+00	 2.00000000E+00
					 5.00000000E-01	 0.00000000E+00	 2.00000000E+00
					 7.50000000E-01	 0.00000000E+00	 2.00000000E+00
					 5.00000000E-01	 0.00000000E+00	 2.50000000E+00
					 2.50000000E-01	 0.00000000E+00	 3.00000000E+00
					 5.00000000E-01	 0.00000000E+00	 3.00000000E+00
					 7.50000000E-01	 0.00000000E+00	 3.00000000E+00
					 5.00000000E-01	 0.00000000E+00	 3.50000000E+00
					 2.50000000E-01	 0.00000000E+00	 4.00000000E+00
					 5.00000000E-01	 0.00000000E+00	 4.00000000E+00
					 7.50000000E-01	 0.00000000E+00	 4.00000000E+00
					 5.00000000E-01	 0.00000000E+00	 4.50000000E+00
					 2.50000000E-01	 0.00000000E+00	 5.00000000E+00
					 5.00000000E-01	 0.00000000E+00	 5.00000000E+00
					 7.50000000E-01	 0.00000000E+00	 5.00000000E+00
					 5.00000000E-01	 0.00000000E+00	 5.50000000E+00
					 2.50000000E-01	 0.00000000E+00	 6.00000000E+00
					 5.00000000E-01	 0.00000000E+00	 6.00000000E+00
					 7.50000000E-01	 0.00000000E+00	 6.00000000E+00
					 5.00000000E-01	 0.00000000E+00	 6.50000000E+00
					 2.50000000E-01	 0.00000000E+00	 7.00000000E+00
					 5.00000000E-01	 0.00000000E+00	 7.00000000E+00
					 7.50000000E-01	 0.00000000E+00	 7.00000000E+00
					 5.00000000E-01	 0.00000000E+00	 7.50000000E+00
					 1.00000000E+00	 5.00000000E-01	 5.00000000E-01
					 1.00000000E+00	 2.50000000E-01	 1.00000000E+00
					 1.00000000E+00	 5.00000000E-01	 1.00000000E+00
					 1.00000000E+00	 7.50000000E-01	 1.00000000E+00
					 1.00000000E+00	 5.00000000E-01	 1.50000000E+00
					 1.00000000E+00	 2.50000000E-01	 2.00000000E+00
					 1.00000000E+00	 5.00000000E-01	 2.00000000E+00
					 1.00000000E+00	 7.50000000E-01	 2.00000000E+00
					 1.00000000E+00	 5.00000000E-01	 2.50000000E+00
					 1.00000000E+00	 2.50000000E-01	 3.00000000E+00
					 1.00000000E+00	 5.00000000E-01	 3.00000000E+00
					 1.00000000E+00	 7.50000000E-01	 3.00000000E+00
					 1.00000000E+00	 5.00000000E-01	 3.50000000E+00
					 1.00000000E+00	 2.50000000E-01	 4.00000000E+00
					 1.00000000E+00	 5.00000000E-01	 4.00000000E+00
					 1.00000000E+00	 7.50000000E-01	 4.00000000E+00
					 1.00000000E+00	 5.00000000E-01	 4.50000000E+00
					 1.00000000E+00	 2.50000000E-01	 5.00000000E+00
					 1.00000000E+00	 5.00000000E-01	 5.00000000E+00
					 1.00000000E+00	 7.50000000E-01	 5.00000000E+00
					 1.00000000E+00	 5.00000000E-01	 5.50000000E+00
					 1.00000000E+00	 2.50000000E-01	 6.00000000E+00
					 1.00000000E+00	 5.00000000E-01	 6.00000000E+00
					 1.00000000E+00	 7.50000000E-01	 6.00000000E+00
					 1.00000000E+00	 5.00000000E-01	 6.50000000E+00
					 1.00000000E+00	 2.50000000E-01	 7.00000000E+00
					 1.00000000E+00	 5.00000000E-01	 7.00000000E+00
					 1.00000000E+00	 7.50000000E-01	 7.00000000E+00
					 1.00000000E+00	 5.00000000E-01	 7.50000000E+00
					 5.00000000E-01	 1.00000000E+00	 5.00000000E-01
					 7.50000000E-01	 1.00000000E+00	 1.00000000E+00
					 5.00000000E-01	 1.00000000E+00	 1.00000000E+00
					 2.50000000E-01	 1.00000000E+00	 1.00000000E+00
					 5.00000000E-01	 1.00000000E+00	 1.50000000E+00
					 7.50000000E-01	 1.00000000E+00	 2.00000000E+00
					 5.00000000E-01	 1.00000000E+00	 2.00000000E+00
					 2.50000000E-01	 1.00000000E+00	 2.00000000E+00
					 5.00000000E-01	 1.00000000E+00	 2.50000000E+00
					 7.50000000E-01	 1.00000000E+00	 3.00000000E+00
					 5.00000000E-01	 1.00000000E+00	 3.00000000E+00
					 2.50000000E-01	 1.00000000E+00	 3.00000000E+00
					 5.00000000E-01	 1.00000000E+00	 3.50000000E+00
					 7.50000000E-01	 1.00000000E+00	 4.00000000E+00
					 5.00000000E-01	 1.00000000E+00	 4.00000000E+00
					 2.50000000E-01	 1.00000000E+00	 4.00000000E+00
					 5.00000000E-01	 1.00000000E+00	 4.50000000E+00
					 7.50000000E-01	 1.00000000E+00	 5.00000000E+00
					 5.00000000E-01	 1.00000000E+00	 5.00000000E+00
					 2.50000000E-01	 1.00000000E+00	 5.00000000E+00
					 5.00000000E-01	 1.00000000E+00	 5.50000000E+00
					 7.50000000E-01	 1.00000000E+00	 6.00000000E+00
					 5.00000000E-01	 1.00000000E+00	 6.00000000E+00
					 2.50000000E-01	 1.00000000E+00	 6.00000000E+00
					 5.00000000E-01	 1.00000000E+00	 6.50000000E+00
					 7.50000000E-01	 1.00000000E+00	 7.00000000E+00
					 5.00000000E-01	 1.00000000E+00	 7.00000000E+00
					 2.50000000E-01	 1.00000000E+00	 7.00000000E+00
					 5.00000000E-01	 1.00000000E+00	 7.50000000E+00
					 0.00000000E+00	 5.00000000E-01	 5.00000000E-01
					 0.00000000E+00	 7.50000000E-01	 1.00000000E+00
					 0.00000000E+00	 5.00000000E-01	 1.00000000E+00
					 0.00000000E+00	 2.50000000E-01	 1.00000000E+00
					 0.00000000E+00	 5.00000000E-01	 1.50000000E+00
					 0.00000000E+00	 7.50000000E-01	 2.00000000E+00
					 0.00000000E+00	 5.00000000E-01	 2.00000000E+00
					 0.00000000E+00	 2.50000000E-01	 2.00000000E+00
					 0.00000000E+00	 5.00000000E-01	 2.50000000E+00
					 0.00000000E+00	 7.50000000E-01	 3.00000000E+00
					 0.00000000E+00	 5.00000000E-01	 3.00000000E+00
					 0.00000000E+00	 2.50000000E-01	 3.00000000E+00
					 0.00000000E+00	 5.00000000E-01	 3.50000000E+00
					 0.00000000E+00	 7.50000000E-01	 4.00000000E+00
					 0.00000000E+00	 5.00000000E-01	 4.00000000E+00
					 0.00000000E+00	 2.50000000E-01	 4.00000000E+00
					 0.00000000E+00	 5.00000000E-01	 4.50000000E+00
					 0.00000000E+00	 7.50000000E-01	 5.00000000E+00
					 0.00000000E+00	 5.00000000E-01	 5.00000000E+00
					 0.00000000E+00	 2.50000000E-01	 5.00000000E+00
					 0.00000000E+00	 5.00000000E-01	 5.50000000E+00
					 0.00000000E+00	 7.50000000E-01	 6.00000000E+00
					 0.00000000E+00	 5.00000000E-01	 6.00000000E+00
					 0.00000000E+00	 2.50000000E-01	 6.00000000E+00
					 0.00000000E+00	 5.00000000E-01	 6.50000000E+00
					 0.00000000E+00	 7.50000000E-01	 7.00000000E+00
					 0.00000000E+00	 5.00000000E-01	 7.00000000E+00
					 0.00000000E+00	 2.50000000E-01	 7.00000000E+00
					 0.00000000E+00	 5.00000000E-01	 7.50000000E+00
					 5.00000000E-01	 5.00000000E-01	 5.00000000E-01
					 5.00000000E-01	 2.50000000E-01	 1.00000000E+00
					 2.50000000E-01	 5.00000000E-01	 1.00000000E+00
					 5.00000000E-01	 5.00000000E-01	 1.00000000E+00
					 7.50000000E-01	 5.00000000E-01	 1.00000000E+00
					 5.00000000E-01	 7.50000000E-01	 1.00000000E+00
					 5.00000000E-01	 5.00000000E-01	 1.50000000E+00
					 5.00000000E-01	 2.50000000E-01	 2.00000000E+00
					 2.50000000E-01	 5.00000000E-01	 2.00000000E+00
					 5.00000000E-01	 5.00000000E-01	 2.00000000E+00
					 7.50000000E-01	 5.00000000E-01	 2.00000000E+00
					 5.00000000E-01	 7.50000000E-01	 2.00000000E+00
					 5.00000000E-01	 5.00000000E-01	 2.50000000E+00
					 5.00000000E-01	 2.50000000E-01	 3.00000000E+00
					 2.50000000E-01	 5.00000000E-01	 3.00000000E+00
					 5.00000000E-01	 5.00000000E-01	 3.00000000E+00
					 7.50000000E-01	 5.00000000E-01	 3.00000000E+00
					 5.00000000E-01	 7.50000000E-01	 3.00000000E+00
					 5.00000000E-01	 5.00000000E-01	 3.50000000E+00
					 5.00000000E-01	 2.50000000E-01	 4.00000000E+00
					 2.50000000E-01	 5.00000000E-01	 4.00000000E+00
					 5.00000000E-01	 5.00000000E-01	 4.00000000E+00
					 7.50000000E-01	 5.00000000E-01	 4.00000000E+00
					 5.00000000E-01	 7.50000000E-01	 4.00000000E+00
					 5.00000000E-01	 5.00000000E-01	 4.50000000E+00
					 5.00000000E-01	 2.50000000E-01	 5.00000000E+00
					 2.50000000E-01	 5.00000000E-01	 5.00000000E+00
					 5.00000000E-01	 5.00000000E-01	 5.00000000E+00
					 7.50000000E-01	 5.00000000E-01	 5.00000000E+00
					 5.00000000E-01	 7.50000000E-01	 5.00000000E+00
					 5.00000000E-01	 5.00000000E-01	 5.50000000E+00
					 5.00000000E-01	 2.50000000E-01	 6.00000000E+00
					 2.50000000E-01	 5.00000000E-01	 6.00000000E+00
					 5.00000000E-01	 5.00000000E-01	 6.00000000E+00
					 7.50000000E-01	 5.00000000E-01	 6.00000000E+00
					 5.00000000E-01	 7.50000000E-01	 6.00000000E+00
					 5.00000000E-01	 5.00000000E-01	 6.50000000E+00
					 5.00000000E-01	 2.50000000E-01	 7.00000000E+00
					 2.50000000E-01	 5.00000000E-01	 7.00000000E+00
					 5.00000000E-01	 5.00000000E-01	 7.00000000E+00
					 7.50000000E-01	 5.00000000E-01	 7.00000000E+00
					 5.00000000E-01	 7.50000000E-01	 7.00000000E+00
					 5.00000000E-01	 5.00000000E-01	 7.50000000E+00
				</DataArray>
			</Points>
			<Cells>
				<DataArray type="Int32" Name="connectivity" format="ascii">
					0 9 94 18 60 104 221 191 8 92 93 19 103 219 220 192 61 102 218 189 9 1 12 94 104 33 133 221 10 11 95 92 105 132 222 219 102 32 131 218 18 94 15 3 191 221 162 78 93 96 16 17 220 223 163 190 189 218 160 77 94 12 2 15 221 133 63 162 95 13 14 96 222 134 161 223 218 131 62 160 60 104 221 191 58 108 227 195 103 219 220 192 107 225 226 196 59 106 224 193 104 33 133 221 108 35 137 227 105 132 222 219 109 136 228 225 106 34 135 224 191 221 162 78 195 227 166 80 220 223 163 190 226 229 167 194 193 224 164 79 221 133 63 162 227 137 65 166 222 134 161 223 228 138 165 229 224 135 64 164 58 108 227 195 56 112 233 199 107 225 226 196 111 231 232 200 57 110 230 197 108 35 137 227 112 37 141 233 109 136 228 225 113 140 234 231 110 36 139 230 195 227 166 80 199 233 170 82 226 229 167 194 232 235 171 198 197 230 168 81 227 137 65 166 233 141 67 170 228 138 165 229 234 142 169 235 230 139 66 168 56 112 233 199 54 116 239 203 111 231 232 200 115 237 238 204 55 114 236 201 112 37 141 233 116 39 145 239 113 140 234 231 117 144 240 237 114 38 143 236 199 233 170 82 203 239 174 84 232 235 171 198 238 241 175 202 201 236 172 83 233 141 67 170 239 145 69 174 234 142 169 235 240 146 173 241 236 143 68 172 54 116 239 203 52 120 245 207 115 237 238 204 119 243 244 208 53 118 242 205 116 39 145 239 120 41 149 245 117 144 240 237 121 148 246 243 118 40 147 242 203 239 174 84 207 245 178 86 238 241 175 202 244 247 179 206 205 242 176 85 239 145 69 174 245 149 71 178 240 146 173 241 246 150 177 247 242 147 70 176 52 120 245 207 50 124 251 211 119 243 244 208 123 249 250 212 51 122 248 209 120 41 149 245 124 43 153 251 121 148 246 243 125 152 252 249 122 42 151 248 207 245 178 86 211 251 182 88 244 247 179 206 250 253 183 210 209 248 180 87 245 149 71 178 251 153 73 182 246 150 177 247 252 154 181 253 248 151 72 180 50 124 251 211 48 128 257 215 123 249 250 212 127 255 256 216 49 126 254 213 124 43 153 251 128 45 157 257 125 152 252 249 129 156 258 255 126 44 155 254 211 251 182 88 215 257 186 90 250 253 183 210 256 259 187 214 213 254 184 89 251 153 73 182 257 157 75 186 252 154 181 253 258 158 185 259 254 155 74 184 48 128 257 215 4 21 99 30 127 255 256 216 20 97 98 31 47 130 260 217 128 45 157 257 21 5 24 99 129 156 258 255 22 23 100 97 130 46 159 260 215 257 186 90 30 99 27 7 256 259 187 214 98 101 28 29 217 260 188 91 257 157 75 186 99 24 6 27 258 158 185 259 100 25 26 101 260 159 76 188 
				</DataArray>
				<DataArray type="Int32" Name="offsets" format="ascii">
					20 40 60 80 100 120 140 160 180 200 220 240 260 280 300 320 340 360 380 400 420 440 460 480 500 520 540 560 580 600 620 640 
				</DataArray>
				<DataArray type="UInt8" Name="types" format="ascii">
					25 25 25 25 25 25 25 25 25 25 25 25 25 25 25 25 25 25 25 25 25 25 25 25 25 25 25 25 25 25 25 25 
				</DataArray>
			</Cells>
			<PointData>
				<DataArray type="Float32" Name="E" NumberOfComponents="10" ComponentName0="xx" ComponentName1="yy" ComponentName2="zz" ComponentName3="xy" ComponentName4="yz" ComponentName5="zx" ComponentName6="Mises" ComponentName7="Min Principal" ComponentName8="Mid Principal" ComponentName9="Max Principal" format="ascii">
					 2.56254000E-13	 5.57149000E-13	-2.08127000E-12	 3.57534000E-13	 9.77472000E-13	-2.98889000E-13	 2.08441366E-12	-2.46198636E-12	 2.23789029E-13	 9.70330335E-13
					 2.55755000E-13	 5.56407000E-13	-2.08140000E-12	-3.57708000E-13	 9.77557000E-13	 2.99020000E-13	 2.08425979E-12	-2.46228966E-12	 2.23269783E-13	 9.69781877E-13
					 2.57119000E-13	 5.57994000E-13	-2.08027000E-12	 3.57594000E-13	-9.77380000E-13	 2.98952000E-13	 2.08430402E-12	-2.46097263E-12	 2.24643934E-13	 9.71171692E-13
					 2.57059000E-13	 5.57049000E-13	-2.08065000E-12	-3.57611000E-13	-9.77317000E-13	-2.98961000E-13	 2.08416273E-12	-2.46137009E-12	 2.24478953E-13	 9.70349141E-13
					-4.05297000E-13	-4.05443000E-13	 2.96890000E-12	 3.49478000E-13	 2.58589000E-12	 2.58566000E-12	 4.80136540E-12	-2.50074333E-12	-7.54847988E-13	 5.41375132E-12
					-4.06216000E-13	-4.06174000E-13	 2.96755000E-12	-3.49346000E-13	 2.58579000E-12	-2.58576000E-12	 4.80118862E-12	-2.50182173E-12	-7.55541000E-13	 5.41252273E-12
					-4.03200000E-13	-4.03068000E-13	 2.97016000E-12	 3.49424000E-13	-2.58584000E-12	-2.58574000E-12	 4.80107689E-12	-2.49886576E-12	-7.52558001E-13	 5.41531576E-12
					-4.05848000E-13	-4.05703000E-13	 2.96858000E-12	-3.49221000E-13	-2.58577000E-12	 2.58589000E-12	 4.80144616E-12	-2.50137191E-12	-7.54996494E-13	 5.41339740E-12
					 3.76402000E-14	 8.21882000E-13	-2.13529000E-12	 2.93215000E-13	 8.88924000E-13	-1.14483000E-13	 2.07723806E-12	-2.39666905E-12	-6.41462491E-15	 1.12731587E-12
					-1.80935000E-13	 1.08669000E-12	-2.18932000E-12	 8.75580000E-17	 8.00343000E-13	-6.62164000E-17	 2.11953971E-12	-2.37439188E-12	-1.80935000E-13	 1.27176188E-12
					 3.74291000E-14	 8.21582000E-13	-2.13537000E-12	-2.93215000E-13	 8.88934000E-13	 1.14482000E-13	 2.07713616E-12	-2.39677119E-12	-6.62656312E-15	 1.12703885E-12
					-2.39520000E-13	-3.40249000E-13	 1.45488000E-12	 3.35188000E-14	-1.21169000E-12	-1.59445000E-13	 1.83012198E-12	-9.53078279E-13	-2.47756587E-13	 2.07594587E-12
					-7.35451000E-13	-1.23775000E-12	 4.99112000E-12	 7.08376000E-17	-1.81309000E-16	-6.17889000E-13	 4.05888497E-12	-1.23775001E-12	-8.01361744E-13	 5.05703076E-12
					-2.39494000E-13	-3.40299000E-13	 1.45541000E-12	-3.35051000E-14	 1.21160000E-12	-1.59459000E-13	 1.83027490E-12	-9.52939426E-13	-2.47729715E-13	 2.07628614E-12
					 3.81210000E-14	 8.22460000E-13	-2.13469000E-12	 2.93245000E-13	-8.88838000E-13	 1.14396000E-13	 2.07716173E-12	-2.39601480E-12	-5.96682130E-15	 1.12787262E-12
					-1.80850000E-13	 1.08691000E-12	-2.18860000E-12	-4.72873000E-17	-8.00298000E-13	-7.68841000E-17	 2.11922956E-12	-2.37367750E-12	-1.80849997E-13	 1.27198750E-12
					 3.81175000E-14	 8.21967000E-13	-2.13437000E-12	-2.93301000E-13	-8.88808000E-13	-1.14478000E-13	 2.07678772E-12	-2.39575588E-12	-5.98543256E-15	 1.12745582E-12
					-2.39315000E-13	-3.40216000E-13	 1.45534000E-12	 3.34804000E-14	 1.21157000E-12	 1.59455000E-13	 1.83016393E-12	-9.52865575E-13	-2.47547465E-13	 2.07622204E-12
					-7.35815000E-13	-1.23767000E-12	 4.99093000E-12	-5.14320000E-17	-1.17446000E-16	 6.17855000E-13	 4.05882834E-12	-1.23767001E-12	-8.01716617E-13	 5.05683162E-12
					-2.39844000E-13	-3.40352000E-13	 1.45463000E-12	-3.35706000E-14	-1.21161000E-12	 1.59475000E-13	 1.83003659E-12	-9.53143861E-13	-2.48090050E-13	 2.07566791E-12
					-1.28883000E-13	 8.71007000E-13	-2.07204000E-12	 4.01786000E-13	-8.69654000E-13	-1.27434000E-12	 2.52486302E-12	-2.80591183E-12	-3.32140468E-14	 1.50920987E-12
					 1.48135000E-13	 2.14804000E-12	-7.11215000E-12	-9.25341000E-17	-4.32520000E-12	 2.32355000E-17	 7.52339473E-12	-8.81807384E-12	 1.48134998E-13	 3.85396384E-12
					-1.28739000E-13	 8.71228000E-13	-2.07189000E-12	-4.01813000E-13	-8.69705000E-13	 1.27431000E-12	 2.52489613E-12	-2.80575085E-12	-3.30937694E-14	 1.50944361E-12
					 8.70987000E-13	-1.28857000E-13	-2.07229000E-12	-4.01848000E-13	-1.27427000E-12	 8.69751000E-13	 2.52497636E-12	-2.80608077E-12	-3.33285752E-14	 1.50924934E-12
					 2.14759000E-12	 1.47364000E-13	-7.11260000E-12	-8.69015000E-17	 8.43234000E-17	 4.32525000E-12	 7.52338319E-12	-8.81855797E-12	 1.47364001E-13	 3.85354797E-12
					 8.71899000E-13	-1.28400000E-13	-2.07146000E-12	 4.01800000E-13	 1.27433000E-12	 8.69752000E-13	 2.52500450E-12	-2.80535929E-12	-3.26324448E-14	 1.51003073E-12
					-1.28545000E-13	 8.71492000E-13	-2.07212000E-12	 4.01771000E-13	 8.69677000E-13	 1.27428000E-12	 2.52506082E-12	-2.80587343E-12	-3.28665811E-14	 1.50956701E-12
					 1.47131000E-13	 2.14658000E-12	-7.11368000E-12	-1.07696000E-16	 4.32516000E-12	-4.54976000E-17	 7.52346909E-12	-8.81956711E-12	 1.47130996E-13	 3.85246712E-12
					-1.28848000E-13	 8.70706000E-13	-2.07219000E-12	-4.01777000E-13	 8.69679000E-13	-1.27424000E-12	 2.52476827E-12	-2.80597243E-12	-3.33384248E-14	 1.50897886E-12
					 8.70808000E-13	-1.29116000E-13	-2.07179000E-12	-4.01717000E-13	 1.27424000E-12	-8.69717000E-13	 2.52461412E-12	-2.80570904E-12	-3.34005752E-14	 1.50901162E-12
					 2.14777000E-12	 1.48098000E-13	-7.11204000E-12	-1.76302000E-17	-4.11800000E-17	-4.32527000E-12	 7.52329917E-12	-8.81806278E-12	 1.48098000E-13	 3.85379278E-12
					 8.71394000E-13	-1.28360000E-13	-2.07151000E-12	 4.01828000E-13	-1.27422000E-12	-8.69775000E-13	 2.52479655E-12	-2.80533108E-12	-3.28526662E-14	 1.50970775E-12
					-1.38241000E-13	-1.87599000E-13	 3.34759000E-13	-1.73232000E-13	 1.41026000E-14	-4.43087000E-14	 3.92159807E-13	-3.38407141E-13	 6.52036179E-15	 3.40805779E-13
					-6.01267000E-13	-5.28980000E-13	 2.15983000E-12	 1.05620000E-13	-4.84565000E-13	-7.86037000E-14	 1.90737781E-12	-6.99640390E-13	-5.18478824E-13	 2.24770221E-12
					-5.44732000E-13	-4.07178000E-13	 1.62917000E-12	 4.89037000E-14	-4.44471000E-14	 5.64350000E-14	 1.40923906E-12	-5.62414990E-13	-3.91873470E-13	 1.63154846E-12
					-4.55625000E-13	-5.99887000E-13	 1.69068000E-12	-4.68575000E-14	 4.96373000E-15	-4.98417000E-14	 1.48341652E-12	-6.13809150E-13	-4.42875632E-13	 1.69185278E-12
					-4.99115000E-13	-5.04959000E-13	 1.68007000E-12	-2.34406000E-15	 3.27194000E-14	-6.97410000E-16	 1.45523518E-12	-5.06215639E-13	-4.98348449E-13	 1.68056009E-12
					-5.04921000E-13	-4.94342000E-13	 1.67639000E-12	-7.28753000E-15	-3.29379000E-14	 1.09426000E-14	 1.45127174E-12	-5.08649140E-13	-4.91169515E-13	 1.67694565E-12
					-5.07774000E-13	-5.04719000E-13	 1.67780000E-12	 1.06602000E-14	 4.42300000E-15	-9.33983000E-15	 1.45613299E-12	-5.17060735E-13	-4.95480957E-13	 1.67784869E-12
					-4.96161000E-13	-5.01018000E-13	 1.68870000E-12	-1.29186000E-14	 8.07866000E-15	-5.08527000E-15	 1.45831365E-12	-5.11738396E-13	-4.85482467E-13	 1.68874186E-12
					-5.04326000E-13	-5.04881000E-13	 1.67512000E-12	 1.90675000E-15	-1.26883000E-14	 1.44993000E-14	 1.45332100E-12	-5.06697361E-13	-5.02679789E-13	 1.67529015E-12
					-4.78483000E-13	-4.77642000E-13	 1.66135000E-12	-5.90009000E-14	-1.22742000E-13	 1.21669000E-13	 1.44177923E-12	-5.37064909E-13	-4.33319592E-13	 1.67560950E-12
					-5.41661000E-13	-5.41827000E-13	 1.70267000E-12	 6.48179000E-14	 1.36541000E-13	-1.37058000E-13	 1.51471058E-12	-6.22657803E-13	-4.76926144E-13	 1.71876595E-12
					-5.52142000E-13	-5.52518000E-13	 1.60200000E-12	-9.94050000E-14	 2.33407000E-13	-2.33282000E-13	 1.49033626E-12	-6.51735272E-13	-5.04618613E-13	 1.65369389E-12
					-3.97238000E-13	-3.97296000E-13	 1.81553000E-12	-5.80203000E-15	-4.22037000E-13	 4.22224000E-13	 1.62832382E-12	-5.42596919E-13	-4.03069038E-13	 1.96666196E-12
					-5.16445000E-13	-5.16634000E-13	 1.04398000E-12	 1.64008000E-13	-5.74674000E-13	 5.74734000E-13	 1.41384034E-12	-1.00321757E-12	-3.52531495E-13	 1.36665007E-12
					-5.47187000E-13	-5.47446000E-13	 1.45088000E-12	-2.54279000E-13	 1.10459000E-12	-1.10459000E-12	 2.26151150E-12	-1.21008694E-12	-8.01595471E-13	 2.36792941E-12
					-5.46876000E-13	-5.46817000E-13	 1.45140000E-12	 2.54326000E-13	 1.10464000E-12	 1.10452000E-12	 2.26152516E-12	-1.20955679E-12	-8.01172502E-13	 2.36843630E-12
					-5.16432000E-13	-5.16300000E-13	 1.04391000E-12	-1.64020000E-13	-5.74751000E-13	-5.74646000E-13	 1.41371679E-12	-1.00308226E-12	-3.52346003E-13	 1.36660626E-12
					-3.96841000E-13	-3.96911000E-13	 1.81591000E-12	 5.89195000E-15	-4.22097000E-13	-4.22122000E-13	 1.62830309E-12	-5.42107953E-13	-4.02767944E-13	 1.96703390E-12
					-5.51845000E-13	-5.52073000E-13	 1.60249000E-12	 9.94062000E-14	 2.33596000E-13	 2.33156000E-13	 1.49042600E-12	-6.51365412E-13	-5.04257309E-13	 1.65419472E-12
					-5.42142000E-13	-5.42116000E-13	 1.70229000E-12	-6.49197000E-14	 1.36608000E-13	 1.37036000E-13	 1.51472508E-12	-6.23149118E-13	-4.77209331E-13	 1.71839045E-12
					-4.79418000E-13	-4.78724000E-13	 1.66035000E-12	 5.90168000E-14	-1.22906000E-13	-1.21672000E-13	 1.44180464E-12	-5.38088888E-13	-4.34332105E-13	 1.67462899E-12
					-5.04704000E-13	-5.04911000E-13	 1.67495000E-12	-1.74959000E-15	-1.26541000E-14	-1.44744000E-14	 1.45334264E-12	-5.06728073E-13	-5.03056356E-13	 1.67511943E-12
					-4.96498000E-13	-5.00663000E-13	 1.68848000E-12	 1.30562000E-14	 8.09390000E-15	 5.32313000E-15	 1.45816316E-12	-5.11805064E-13	-4.85399066E-13	 1.68852313E-12
					-5.08173000E-13	-5.04871000E-13	 1.67692000E-12	-1.06701000E-14	 4.37022000E-15	 9.28492000E-15	 1.45572962E-12	-5.17363691E-13	-4.95728334E-13	 1.67696803E-12
					-5.05123000E-13	-4.94514000E-13	 1.67623000E-12	 7.21447000E-15	-3.29192000E-14	-1.11362000E-14	 1.45129072E-12	-5.08784627E-13	-4.91409424E-13	 1.67678705E-12
					-4.99530000E-13	-5.05318000E-13	 1.67996000E-12	 2.23295000E-15	 3.27938000E-14	 6.87392000E-16	 1.45542170E-12	-5.06516931E-13	-4.98823323E-13	 1.68045225E-12
					-4.55898000E-13	-6.00216000E-13	 1.69037000E-12	 4.67929000E-14	 5.04665000E-15	 4.99563000E-14	 1.48341515E-12	-6.14097922E-13	-4.43194649E-13	 1.69154857E-12
					-5.44761000E-13	-4.07758000E-13	 1.62940000E-12	-4.88386000E-14	-4.45359000E-14	-5.63727000E-14	 1.40957344E-12	-5.62456073E-13	-3.92441522E-13	 1.63177860E-12
					-6.01452000E-13	-5.29364000E-13	 2.16010000E-12	-1.05515000E-13	-4.84595000E-13	 7.84630000E-14	 1.90772207E-12	-6.99843710E-13	-5.18824119E-13	 2.24795183E-12
					-1.38161000E-13	-1.87299000E-13	 3.34915000E-13	 1.73184000E-13	 1.41166000E-14	 4.42724000E-14	 3.92098354E-13	-3.38153003E-13	 6.65382477E-15	 3.40954178E-13
					-1.37094000E-13	-1.86563000E-13	 3.35699000E-13	 1.73264000E-13	-1.41798000E-14	-4.43788000E-14	 3.92112158E-13	-3.37354240E-13	 7.62103631E-15	 3.41775203E-13
					-6.01056000E-13	-5.29076000E-13	 2.15978000E-12	-1.05535000E-13	 4.84600000E-13	-7.84615000E-14	 1.90730346E-12	-6.99531729E-13	-5.18472946E-13	 2.24765268E-12
					-5.44898000E-13	-4.07566000E-13	 1.62927000E-12	-4.88854000E-14	 4.46564000E-14	 5.64710000E-14	 1.40949204E-12	-5.62597208E-13	-3.92255592E-13	 1.63165880E-12
					-4.55867000E-13	-6.00287000E-13	 1.69062000E-12	 4.68067000E-14	-5.17446000E-15	-4.99938000E-14	 1.48360077E-12	-6.14167274E-13	-4.43167618E-13	 1.69180089E-12
					-4.99459000E-13	-5.05773000E-13	 1.68015000E-12	 2.22097000E-15	-3.28266000E-14	-6.37276000E-16	 1.45567794E-12	-5.06921079E-13	-4.98803982E-13	 1.68064306E-12
					-5.05346000E-13	-4.94923000E-13	 1.67678000E-12	 7.17245000E-15	 3.30380000E-14	 1.10054000E-14	 1.45186936E-12	-5.09013100E-13	-4.91814972E-13	 1.67733907E-12
					-5.08299000E-13	-5.05118000E-13	 1.67704000E-12	-1.06843000E-14	-4.43090000E-15	-9.37912000E-15	 1.45593504E-12	-5.17556080E-13	-4.95909985E-13	 1.67708906E-12
					-4.95453000E-13	-5.00265000E-13	 1.68878000E-12	 1.31286000E-14	-7.99225000E-15	-5.22373000E-15	 1.45788249E-12	-5.11209803E-13	-4.84550100E-13	 1.68882190E-12
					-5.03897000E-13	-5.04175000E-13	 1.67567000E-12	-1.77231000E-15	 1.27463000E-14	 1.45058000E-14	 1.45330984E-12	-5.05982926E-13	-5.02259996E-13	 1.67584092E-12
					-4.79282000E-13	-4.78416000E-13	 1.66074000E-12	 5.88351000E-14	 1.22596000E-13	 1.21891000E-13	 1.44189504E-12	-5.37685703E-13	-4.34278137E-13	 1.67500584E-12
					-5.42253000E-13	-5.42045000E-13	 1.70234000E-12	-6.49462000E-14	-1.36658000E-13	-1.36999000E-13	 1.51477425E-12	-6.23196569E-13	-4.77202720E-13	 1.71844129E-12
					-5.52852000E-13	-5.52357000E-13	 1.60241000E-12	 9.94798000E-14	-2.33443000E-13	-2.33438000E-13	 1.49082277E-12	-6.52084705E-13	-5.04845093E-13	 1.65413080E-12
					-3.97148000E-13	-3.97307000E-13	 1.81586000E-12	 5.78533000E-15	 4.22026000E-13	 4.22120000E-13	 1.62845945E-12	-5.42516959E-13	-4.03012807E-13	 1.96693477E-12
					-5.16296000E-13	-5.16614000E-13	 1.04356000E-12	-1.64040000E-13	 5.74791000E-13	 5.74740000E-13	 1.41366451E-12	-1.00328912E-12	-3.52414961E-13	 1.36635408E-12