    1C
    1UModel: beam     Date: 10-Mar-1998                                 
    1UUSER                                                              
    1UDATE              25.january.2020                                 
    1UTIME              14:51:30                                        
    1UHOST                                                              
    1UPGM               CalculiX                                        
    1UVERSION           Version 2.16                             
    1UCOMPILETIME       Tue  7 Jan 19:57:43 CET 2020                    
    1UDIR                                                               
    1UDBN                                                               
    1UMAT    1UNDO_NLGEOM_LIN_EL_1                                      
    2C                           261                                     1
 -1         1 0.00000E+00 0.00000E+00 0.00000E+00
 -1         2 1.00000E+00 0.00000E+00 0.00000E+00
 -1         3 1.00000E+00 1.00000E+00 0.00000E+00
 -1         4 0.00000E+00 1.00000E+00 0.00000E+00
 -1         5 0.00000E+00 0.00000E+00 8.00000E+00
 -1         6 1.00000E+00 0.00000E+00 8.00000E+00
 -1         7 1.00000E+00 1.00000E+00 8.00000E+00
 -1         8 0.00000E+00 1.00000E+00 8.00000E+00
 -1         9 2.50000E-01 0.00000E+00 0.00000E+00
 -1        10 5.00000E-01 0.00000E+00 0.00000E+00
 -1        11 7.50000E-01 0.00000E+00 0.00000E+00
 -1        12 1.00000E+00 2.50000E-01 0.00000E+00
 -1        13 1.00000E+00 5.00000E-01 0.00000E+00
 -1        14 1.00000E+00 7.50000E-01 0.00000E+00
 -1        15 7.50000E-01 1.00000E+00 0.00000E+00
 -1        16 5.00000E-01 1.00000E+00 0.00000E+00
 -1        17 2.50000E-01 1.00000E+00 0.00000E+00
 -1        18 0.00000E+00 7.50000E-01 0.00000E+00
 -1        19 0.00000E+00 5.00000E-01 0.00000E+00
 -1        20 0.00000E+00 2.50000E-01 0.00000E+00
 -1        21 2.50000E-01 0.00000E+00 8.00000E+00
 -1        22 5.00000E-01 0.00000E+00 8.00000E+00
 -1        23 7.50000E-01 0.00000E+00 8.00000E+00
 -1        24 1.00000E+00 2.50000E-01 8.00000E+00
 -1        25 1.00000E+00 5.00000E-01 8.00000E+00
 -1        26 1.00000E+00 7.50000E-01 8.00000E+00
 -1        27 7.50000E-01 1.00000E+00 8.00000E+00
 -1        28 5.00000E-01 1.00000E+00 8.00000E+00
 -1        29 2.50000E-01 1.00000E+00 8.00000E+00
 -1        30 0.00000E+00 7.50000E-01 8.00000E+00
 -1        31 0.00000E+00 5.00000E-01 8.00000E+00
 -1        32 0.00000E+00 2.50000E-01 8.00000E+00
 -1        33 1.00000E+00 0.00000E+00 5.00000E-01
 -1        34 1.00000E+00 0.00000E+00 1.00000E+00
 -1        35 1.00000E+00 0.00000E+00 1.50000E+00
 -1        36 1.00000E+00 0.00000E+00 2.00000E+00
 -1        37 1.00000E+00 0.00000E+00 2.50000E+00
 -1        38 1.00000E+00 0.00000E+00 3.00000E+00
 -1        39 1.00000E+00 0.00000E+00 3.50000E+00
 -1        40 1.00000E+00 0.00000E+00 4.00000E+00
 -1        41 1.00000E+00 0.00000E+00 4.50000E+00
 -1        42 1.00000E+00 0.00000E+00 5.00000E+00
 -1        43 1.00000E+00 0.00000E+00 5.50000E+00
 -1        44 1.00000E+00 0.00000E+00 6.00000E+00
 -1        45 1.00000E+00 0.00000E+00 6.50000E+00
 -1        46 1.00000E+00 0.00000E+00 7.00000E+00
 -1        47 1.00000E+00 0.00000E+00 7.50000E+00
 -1        48 0.00000E+00 0.00000E+00 7.50000E+00
 -1        49 0.00000E+00 0.00000E+00 7.00000E+00
 -1        50 0.00000E+00 0.00000E+00 6.50000E+00
 -1        51 0.00000E+00 0.00000E+00 6.00000E+00
 -1        52 0.00000E+00 0.00000E+00 5.50000E+00
 -1        53 0.00000E+00 0.00000E+00 5.00000E+00
 -1        54 0.00000E+00 0.00000E+00 4.50000E+00
 -1        55 0.00000E+00 0.00000E+00 4.00000E+00
 -1        56 0.00000E+00 0.00000E+00 3.50000E+00
 -1        57 0.00000E+00 0.00000E+00 3.00000E+00
 -1        58 0.00000E+00 0.00000E+00 2.50000E+00
 -1        59 0.00000E+00 0.00000E+00 2.00000E+00
 -1        60 0.00000E+00 0.00000E+00 1.50000E+00
 -1        61 0.00000E+00 0.00000E+00 1.00000E+00
 -1        62 0.00000E+00 0.00000E+00 5.00000E-01
 -1        63 1.00000E+00 1.00000E+00 5.00000E-01
 -1        64 1.00000E+00 1.00000E+00 1.00000E+00
 -1        65 1.00000E+00 1.00000E+00 1.50000E+00
 -1        66 1.00000E+00 1.00000E+00 2.00000E+00
 -1        67 1.00000E+00 1.00000E+00 2.50000E+00
 -1        68 1.00000E+00 1.00000E+00 3.00000E+00
 -1        69 1.00000E+00 1.00000E+00 3.50000E+00
 -1        70 1.00000E+00 1.00000E+00 4.00000E+00
 -1        71 1.00000E+00 1.00000E+00 4.50000E+00
 -1        72 1.00000E+00 1.00000E+00 5.00000E+00
 -1        73 1.00000E+00 1.00000E+00 5.50000E+00
 -1        74 1.00000E+00 1.00000E+00 6.00000E+00
 -1        75 1.00000E+00 1.00000E+00 6.50000E+00
 -1        76 1.00000E+00 1.00000E+00 7.00000E+00
 -1        77 1.00000E+00 1.00000E+00 7.50000E+00
 -1        78 0.00000E+00 1.00000E+00 5.00000E-01
 -1        79 0.00000E+00 1.00000E+00 1.00000E+00
 -1        80 0.00000E+00 1.00000E+00 1.50000E+00
 -1        81 0.00000E+00 1.00000E+00 2.00000E+00
 -1        82 0.00000E+00 1.00000E+00 2.50000E+00
 -1        83 0.00000E+00 1.00000E+00 3.00000E+00
 -1        84 0.00000E+00 1.00000E+00 3.50000E+00
 -1        85 0.00000E+00 1.00000E+00 4.00000E+00
 -1        86 0.00000E+00 1.00000E+00 4.50000E+00
 -1        87 0.00000E+00 1.00000E+00 5.00000E+00
 -1        88 0.00000E+00 1.00000E+00 5.50000E+00
 -1        89 0.00000E+00 1.00000E+00 6.00000E+00
 -1        90 0.00000E+00 1.00000E+00 6.50000E+00
 -1        91 0.00000E+00 1.00000E+00 7.00000E+00
 -1        92 0.00000E+00 1.00000E+00 7.50000E+00
 -1        93 5.00000E-01 2.50000E-01 0.00000E+00
 -1        94 2.50000E-01 5.00000E-01 0.00000E+00
 -1        95 5.00000E-01 5.00000E-01 0.00000E+00
 -1        96 7.50000E-01 5.00000E-01 0.00000E+00
 -1        97 5.00000E-01 7.50000E-01 0.00000E+00
 -1        98 5.00000E-01 2.50000E-01 8.00000E+00
 -1        99 2.50000E-01 5.00000E-01 8.00000E+00
 -1       100 5.00000E-01 5.00000E-01 8.00000E+00
 -1       101 7.50000E-01 5.00000E-01 8.00000E+00
 -1       102 5.00000E-01 7.50000E-01 8.00000E+00
 -1       103 5.00000E-01 0.00000E+00 5.00000E-01
 -1       104 2.50000E-01 0.00000E+00 1.00000E+00
 -1       105 5.00000E-01 0.00000E+00 1.00000E+00
 -1       106 7.50000E-01 0.00000E+00 1.00000E+00
 -1       107 5.00000E-01 0.00000E+00 1.50000E+00
 -1       108 2.50000E-01 0.00000E+00 2.00000E+00
 -1       109 5.00000E-01 0.00000E+00 2.00000E+00
 -1       110 7.50000E-01 0.00000E+00 2.00000E+00
 -1       111 5.00000E-01 0.00000E+00 2.50000E+00
 -1       112 2.50000E-01 0.00000E+00 3.00000E+00
 -1       113 5.00000E-01 0.00000E+00 3.00000E+00
 -1       114 7.50000E-01 0.00000E+00 3.00000E+00
 -1       115 5.00000E-01 0.00000E+00 3.50000E+00
 -1       116 2.50000E-01 0.00000E+00 4.00000E+00
 -1       117 5.00000E-01 0.00000E+00 4.00000E+00
 -1       118 7.50000E-01 0.00000E+00 4.00000E+00
 -1       119 5.00000E-01 0.00000E+00 4.50000E+00
 -1       120 2.50000E-01 0.00000E+00 5.00000E+00
 -1       121 5.00000E-01 0.00000E+00 5.00000E+00
 -1       122 7.50000E-01 0.00000E+00 5.00000E+00
 -1       123 5.00000E-01 0.00000E+00 5.50000E+00
 -1       124 2.50000E-01 0.00000E+00 6.00000E+00
 -1       125 5.00000E-01 0.00000E+00 6.00000E+00
 -1       126 7.50000E-01 0.00000E+00 6.00000E+00
 -1       127 5.00000E-01 0.00000E+00 6.50000E+00
 -1       128 2.50000E-01 0.00000E+00 7.00000E+00
 -1       129 5.00000E-01 0.00000E+00 7.00000E+00
 -1       130 7.50000E-01 0.00000E+00 7.00000E+00
 -1       131 5.00000E-01 0.00000E+00 7.50000E+00
 -1       132 1.00000E+00 5.00000E-01 5.00000E-01
 -1       133 1.00000E+00 2.50000E-01 1.00000E+00
 -1       134 1.00000E+00 5.00000E-01 1.00000E+00
 -1       135 1.00000E+00 7.50000E-01 1.00000E+00
 -1       136 1.00000E+00 5.00000E-01 1.50000E+00
 -1       137 1.00000E+00 2.50000E-01 2.00000E+00
 -1       138 1.00000E+00 5.00000E-01 2.00000E+00
 -1       139 1.00000E+00 7.50000E-01 2.00000E+00
 -1       140 1.00000E+00 5.00000E-01 2.50000E+00
 -1       141 1.00000E+00 2.50000E-01 3.00000E+00
 -1       142 1.00000E+00 5.00000E-01 3.00000E+00
 -1       143 1.00000E+00 7.50000E-01 3.00000E+00
 -1       144 1.00000E+00 5.00000E-01 3.50000E+00
 -1       145 1.00000E+00 2.50000E-01 4.00000E+00
 -1       146 1.00000E+00 5.00000E-01 4.00000E+00
 -1       147 1.00000E+00 7.50000E-01 4.00000E+00
 -1       148 1.00000E+00 5.00000E-01 4.50000E+00
 -1       149 1.00000E+00 2.50000E-01 5.00000E+00
 -1       150 1.00000E+00 5.00000E-01 5.00000E+00
 -1       151 1.00000E+00 7.50000E-01 5.00000E+00
 -1       152 1.00000E+00 5.00000E-01 5.50000E+00
 -1       153 1.00000E+00 2.50000E-01 6.00000E+00
 -1       154 1.00000E+00 5.00000E-01 6.00000E+00
 -1       155 1.00000E+00 7.50000E-01 6.00000E+00
 -1       156 1.00000E+00 5.00000E-01 6.50000E+00
 -1       157 1.00000E+00 2.50000E-01 7.00000E+00
 -1       158 1.00000E+00 5.00000E-01 7.00000E+00
 -1       159 1.00000E+00 7.50000E-01 7.00000E+00
 -1       160 1.00000E+00 5.00000E-01 7.50000E+00
 -1       161 5.00000E-01 1.00000E+00 5.00000E-01
 -1       162 7.50000E-01 1.00000E+00 1.00000E+00
 -1       163 5.00000E-01 1.00000E+00 1.00000E+00
 -1       164 2.50000E-01 1.00000E+00 1.00000E+00
 -1       165 5.00000E-01 1.00000E+00 1.50000E+00
 -1       166 7.50000E-01 1.00000E+00 2.00000E+00
 -1       167 5.00000E-01 1.00000E+00 2.00000E+00
 -1       168 2.50000E-01 1.00000E+00 2.00000E+00
 -1       169 5.00000E-01 1.00000E+00 2.50000E+00
 -1       170 7.50000E-01 1.00000E+00 3.00000E+00
 -1       171 5.00000E-01 1.00000E+00 3.00000E+00
 -1       172 2.50000E-01 1.00000E+00 3.00000E+00
 -1       173 5.00000E-01 1.00000E+00 3.50000E+00
 -1       174 7.50000E-01 1.00000E+00 4.00000E+00
 -1       175 5.00000E-01 1.00000E+00 4.00000E+00
 -1       176 2.50000E-01 1.00000E+00 4.00000E+00
 -1       177 5.00000E-01 1.00000E+00 4.50000E+00
 -1       178 7.50000E-01 1.00000E+00 5.00000E+00
 -1       179 5.00000E-01 1.00000E+00 5.00000E+00
 -1       180 2.50000E-01 1.00000E+00 5.00000E+00
 -1       181 5.00000E-01 1.00000E+00 5.50000E+00
 -1       182 7.50000E-01 1.00000E+00 6.00000E+00
 -1       183 5.00000E-01 1.00000E+00 6.00000E+00
 -1       184 2.50000E-01 1.00000E+00 6.00000E+00
 -1       185 5.00000E-01 1.00000E+00 6.50000E+00
 -1       186 7.50000E-01 1.00000E+00 7.00000E+00
 -1       187 5.00000E-01 1.00000E+00 7.00000E+00
 -1       188 2.50000E-01 1.00000E+00 7.00000E+00
 -1       189 5.00000E-01 1.00000E+00 7.50000E+00
 -1       190 0.00000E+00 5.00000E-01 5.00000E-01
 -1       191 0.00000E+00 7.50000E-01 1.00000E+00
 -1       192 0.00000E+00 5.00000E-01 1.00000E+00
 -1       193 0.00000E+00 2.50000E-01 1.00000E+00
 -1       194 0.00000E+00 5.00000E-01 1.50000E+00
 -1       195 0.00000E+00 7.50000E-01 2.00000E+00
 -1       196 0.00000E+00 5.00000E-01 2.00000E+00
 -1       197 0.00000E+00 2.50000E-01 2.00000E+00
 -1       198 0.00000E+00 5.00000E-01 2.50000E+00
 -1       199 0.00000E+00 7.50000E-01 3.00000E+00
 -1       200 0.00000E+00 5.00000E-01 3.00000E+00
 -1       201 0.00000E+00 2.50000E-01 3.00000E+00
 -1       202 0.00000E+00 5.00000E-01 3.50000E+00
 -1       203 0.00000E+00 7.50000E-01 4.00000E+00
 -1       204 0.00000E+00 5.00000E-01 4.00000E+00
 -1       205 0.00000E+00 2.50000E-01 4.00000E+00
 -1       206 0.00000E+00 5.00000E-01 4.50000E+00
 -1       207 0.00000E+00 7.50000E-01 5.00000E+00
 -1       208 0.00000E+00 5.00000E-01 5.00000E+00
 -1       209 0.00000E+00 2.50000E-01 5.00000E+00
 -1       210 0.00000E+00 5.00000E-01 5.50000E+00
 -1       211 0.00000E+00 7.50000E-01 6.00000E+00
 -1       212 0.00000E+00 5.00000E-01 6.00000E+00
 -1       213 0.00000E+00 2.50000E-01 6.00000E+00
 -1       214 0.00000E+00 5.00000E-01 6.50000E+00
 -1       215 0.00000E+00 7.50000E-01 7.00000E+00
 -1       216 0.00000E+00 5.00000E-01 7.00000E+00
 -1       217 0.00000E+00 2.50000E-01 7.00000E+00
 -1       218 0.00000E+00 5.00000E-01 7.50000E+00
 -1       219 5.00000E-01 5.00000E-01 5.00000E-01
 -1       220 5.00000E-01 2.50000E-01 1.00000E+00
 -1       221 2.50000E-01 5.00000E-01 1.00000E+00
 -1       222 5.00000E-01 5.00000E-01 1.00000E+00
 -1       223 7.50000E-01 5.00000E-01 1.00000E+00
 -1       224 5.00000E-01 7.50000E-01 1.00000E+00
 -1       225 5.00000E-01 5.00000E-01 1.50000E+00
 -1       226 5.00000E-01 2.50000E-01 2.00000E+00
 -1       227 2.50000E-01 5.00000E-01 2.00000E+00
 -1       228 5.00000E-01 5.00000E-01 2.00000E+00
 -1       229 7.50000E-01 5.00000E-01 2.00000E+00
 -1       230 5.00000E-01 7.50000E-01 2.00000E+00
 -1       231 5.00000E-01 5.00000E-01 2.50000E+00
 -1       232 5.00000E-01 2.50000E-01 3.00000E+00
 -1       233 2.50000E-01 5.00000E-01 3.00000E+00
 -1       234 5.00000E-01 5.00000E-01 3.00000E+00
 -1       235 7.50000E-01 5.00000E-01 3.00000E+00
 -1       236 5.00000E-01 7.50000E-01 3.00000E+00
 -1       237 5.00000E-01 5.00000E-01 3.50000E+00
 -1       238 5.00000E-01 2.50000E-01 4.00000E+00
 -1       239 2.50000E-01 5.00000E-01 4.00000E+00
 -1       240 5.00000E-01 5.00000E-01 4.00000E+00
 -1       241 7.50000E-01 5.00000E-01 4.00000E+00
 -1       242 5.00000E-01 7.50000E-01 4.00000E+00
 -1       243 5.00000E-01 5.00000E-01 4.50000E+00
 -1       244 5.00000E-01 2.50000E-01 5.00000E+00
 -1       245 2.50000E-01 5.00000E-01 5.00000E+00
 -1       246 5.00000E-01 5.00000E-01 5.00000E+00
 -1       247 7.50000E-01 5.00000E-01 5.00000E+00
 -1       248 5.00000E-01 7.50000E-01 5.00000E+00
 -1       249 5.00000E-01 5.00000E-01 5.50000E+00
 -1       250 5.00000E-01 2.50000E-01 6.00000E+00
 -1       251 2.50000E-01 5.00000E-01 6.00000E+00
 -1       252 5.00000E-01 5.00000E-01 6.00000E+00
 -1       253 7.50000E-01 5.00000E-01 6.00000E+00
 -1       254 5.00000E-01 7.50000E-01 6.00000E+00
 -1       255 5.00000E-01 5.00000E-01 6.50000E+00
 -1       256 5.00000E-01 2.50000E-01 7.00000E+00
 -1       257 2.50000E-01 5.00000E-01 7.00000E+00
 -1       258 5.00000E-01 5.00000E-01 7.00000E+00
 -1       259 7.50000E-01 5.00000E-01 7.00000E+00
 -1       260 5.00000E-01 7.50000E-01 7.00000E+00
 -1       261 5.00000E-01 5.00000E-01 7.50000E+00
 -3
    3C                            32                                     1
 -1         1    4    0    1
 -2         1        10        95        19        61       105       222       192         9        93
 -2        94        20        62       103       219       190       104       220       221       193
 -1         2    4    0    1
 -2        10         2        13        95       105        34       134       222        11        12
 -2        96        93       103        33       132       219       106       133       223       220
 -1         3    4    0    1
 -2        19        95        16         4       192       222       163        79        94        97
 -2        17        18       190       219       161        78       221       224       164       191
 -1         4    4    0    1
 -2        95        13         3        16       222       134        64       163        96        14
 -2        15        97       219       132        63       161       223       135       162       224
 -1         5    4    0    1
 -2        61       105       222       192        59       109       228       196       104       220
 -2       221       193        60       107       225       194       108       226       227       197
 -1         6    4    0    1
 -2       105        34       134       222       109        36       138       228       106       133
 -2       223       220       107        35       136       225       110       137       229       226
 -1         7    4    0    1
 -2       192       222       163        79       196       228       167        81       221       224
 -2       164       191       194       225       165        80       227       230       168       195
 -1         8    4    0    1
 -2       222       134        64       163       228       138        66       167       223       135
 -2       162       224       225       136        65       165       229       139       166       230
 -1         9    4    0    1
 -2        59       109       228       196        57       113       234       200       108       226
 -2       227       197        58       111       231       198       112       232       233       201
 -1        10    4    0    1
 -2       109        36       138       228       113        38       142       234       110       137
 -2       229       226       111        37       140       231       114       141       235       232
 -1        11    4    0    1
 -2       196       228       167        81       200       234       171        83       227       230
 -2       168       195       198       231       169        82       233       236       172       199
 -1        12    4    0    1
 -2       228       138        66       167       234       142        68       171       229       139
 -2       166       230       231       140        67       169       235       143       170       236
 -1        13    4    0    1
 -2        57       113       234       200        55       117       240       204       112       232
 -2       233       201        56       115       237       202       116       238       239       205
 -1        14    4    0    1
 -2       113        38       142       234       117        40       146       240       114       141
 -2       235       232       115        39       144       237       118       145       241       238
 -1        15    4    0    1
 -2       200       234       171        83       204       240       175        85       233       236
 -2       172       199       202       237       173        84       239       242       176       203
 -1        16    4    0    1
 -2       234       142        68       171       240       146        70       175       235       143
 -2       170       236       237       144        69       173       241       147       174       242
 -1        17    4    0    1
 -2        55       117       240       204        53       121       246       208       116       238
 -2       239       205        54       119       243       206       120       244       245       209
 -1        18    4    0    1
 -2       117        40       146       240       121        42       150       246       118       145
 -2       241       238       119        41       148       243       122       149       247       244
 -1        19    4    0    1
 -2       204       240       175        85       208       246       179        87       239       242
 -2       176       203       206       243       177        86       245       248       180       207
 -1        20    4    0    1
 -2       240       146        70       175       246       150        72       179       241       147
 -2       174       242       243       148        71       177       247       151       178       248
 -1        21    4    0    1
 -2        53       121       246       208        51       125       252       212       120       244
 -2       245       209        52       123       249       210       124       250       251       213
 -1        22    4    0    1
 -2       121        42       150       246       125        44       154       252       122       149
 -2       247       244       123        43       152       249       126       153       253       250
 -1        23    4    0    1
 -2       208       246       179        87       212       252       183        89       245       248
 -2       180       207       210       249       181        88       251       254       184       211
 -1        24    4    0    1
 -2       246       150        72       179       252       154        74       183       247       151
 -2       178       248       249       152        73       181       253       155       182       254
 -1        25    4    0    1
 -2        51       125       252       212        49       129       258       216       124       250
 -2       251       213        50       127       255       214       128       256       257       217
 -1        26    4    0    1
 -2       125        44       154       252       129        46       158       258       126       153
 -2       253       250       127        45       156       255       130       157       259       256
 -1        27    4    0    1
 -2       212       252       183        89       216       258       187        91       251       254
 -2       184       211       214       255       185        90       257       260       188       215
 -1        28    4    0    1
 -2       252       154        74       183       258       158        76       187       253       155
 -2       182       254       255       156        75       185       259       159       186       260
 -1        29    4    0    1
 -2        49       129       258       216         5        22       100        31       128       256
 -2       257       217        48       131       261       218        21        98        99        32
 -1        30    4    0    1
 -2       129        46       158       258        22         6        25       100       130       157
 -2       259       256       131        47       160       261        23        24       101        98
 -1        31    4    0    1
 -2       216       258       187        91        31       100        28         8       257       260
 -2       188       215       218       261       189        92        99       102        29        30
 -1        32    4    0    1
 -2       258       158        76       187       100        25         7        28       259       159
 -2       186       260       261       160        77       189       101        26        27       102
 -3
    1PSTEP                         1           1           1          
  100CL  101 2.50000E-01         261                     0    1           1
 -4  TOSTRAIN    6    1
 -5  EXX         1    4    1    1
 -5  EYY         1    4    2    2
 -5  EZZ         1    4    3    3
 -5  EXY         1    4    1    2
 -5  EYZ         1    4    2    3
 -5  EZX         1    4    3    1
 -1         1-7.57567E-07-6.04750E-07 1.31862E-06 2.66345E-07-1.96238E-07-1.16909E-07
 -1         2-4.31026E-07-2.88707E-07 1.48237E-06-1.55325E-07-3.52265E-07-1.31330E-09
 -1         3 3.30007E-07-1.73404E-07 2.16168E-06-2.77918E-07-2.58075E-07-7.91771E-08
 -1         4 2.54041E-07 3.85179E-08 2.31347E-06-5.23014E-08-1.93134E-07-3.99869E-07
 -1         5 6.50975E-09 4.32992E-07-1.73797E-06 5.54520E-07-2.97831E-07-4.33856E-07
 -1         6-1.49545E-06 5.51040E-07-2.09467E-06-4.08564E-08-1.36030E-08 9.54790E-07
 -1         7-1.84728E-06-2.17579E-06-3.04147E-06-1.66579E-07 1.70994E-06 1.24340E-06
 -1         8 9.25332E-08-1.85101E-06-2.17097E-06-3.55684E-07 1.47009E-06-9.77267E-08
 -1         9-5.69234E-07-2.26364E-07 1.41613E-06 1.42045E-07-3.52601E-07-1.15458E-07
 -1        10-3.81592E-07 1.80290E-07 1.52634E-06 1.22179E-08-4.89968E-07-1.27387E-07
 -1        11-4.06655E-07-4.00741E-08 1.51071E-06-7.43175E-08-4.11618E-07-7.10402E-08
 -1        12-3.56738E-07-1.71697E-06-1.85628E-06-3.19169E-08 1.08210E-06 3.08821E-07
 -1        13-1.84280E-07-1.94516E-06-5.30703E-06 5.25625E-07 1.32991E-06 6.15614E-07
 -1        14 1.21949E-07-4.59244E-07-1.62872E-06 3.40920E-07-5.73547E-08 2.66548E-07
 -1        15 1.63258E-07-2.74489E-07 2.19874E-06-2.18235E-07-1.56923E-07-1.55678E-07
 -1        16 1.05249E-08-3.86712E-07 2.24453E-06-1.91611E-07-6.27088E-08-2.11828E-07
 -1        17 1.39290E-07-1.79666E-07 2.28337E-06-1.38486E-07-1.31390E-07-2.95674E-07
 -1        18 1.01253E-07 9.29346E-08-1.76883E-06 2.70545E-07-1.66279E-07 3.10002E-07
 -1        19-1.50181E-07-1.34119E-06-5.80471E-06-1.10368E-07 1.35693E-06 9.81918E-07
 -1        20-5.03197E-07-1.71724E-06-2.21983E-06-2.73892E-07 1.32852E-06 4.13527E-07
 -1        21-1.35611E-06-4.08491E-07 2.17956E-06-3.50625E-07 9.73418E-08 3.81369E-07
 -1        22-1.32266E-06-1.33956E-06 6.21049E-06-5.95581E-07 4.82333E-07-4.93858E-07
 -1        23-7.11013E-07-4.39048E-07 2.11461E-06 1.18763E-08 2.29274E-07-6.14760E-07
 -1        24-1.91216E-07-1.32602E-06 1.83464E-06-5.86051E-07 6.58162E-07-3.45027E-07
 -1        25 9.56279E-07-1.39300E-06 5.72131E-06-3.37147E-08-5.01182E-07-1.77717E-06
 -1        26-5.23871E-07-8.79358E-07 1.31860E-06 4.48619E-07-3.11174E-07-3.33048E-07
 -1        27-8.56086E-07-4.73291E-07 1.20415E-06 5.46138E-07-2.55419E-07-4.67015E-07
 -1        28-1.26979E-06 1.48199E-06 5.48541E-06 3.06848E-07-2.10763E-06-5.30851E-07
 -1        29-1.29107E-06-5.81231E-08 1.67503E-06-5.00422E-07-2.62193E-07 5.09002E-07
 -1        30-4.50844E-07-7.51867E-07 1.96862E-06 4.02338E-08-5.70574E-07 3.00725E-07
 -1        31-1.01309E-06-1.60210E-06 5.97682E-06-3.84129E-07-6.98552E-07 7.11320E-07
 -1        32-5.12723E-07-1.55924E-06 2.05373E-06-3.24945E-07 4.58154E-07 1.44804E-07
 -1        33-3.16585E-07 1.02846E-07-6.47177E-07-2.20529E-08 2.21274E-07 5.73161E-08
 -1        34-2.23983E-07-2.25662E-07-2.12996E-06 8.72776E-08 5.75635E-07 2.29195E-07
 -1        35-2.27162E-07-5.03372E-07-1.67991E-06 6.28389E-08 3.95763E-07 2.78552E-07
 -1        36-2.13562E-07-6.33840E-08-1.82441E-06 5.95385E-08 4.25742E-07 2.17949E-07
 -1        37-2.29681E-07-1.22814E-07-1.71748E-06 5.54312E-08 4.07670E-07 2.21657E-07
 -1        38-2.41689E-07-2.14398E-07-1.72743E-06 6.51672E-08 4.15017E-07 2.19139E-07
 -1        39-2.28838E-07-2.14830E-07-1.74215E-06 5.76965E-08 4.01823E-07 2.46824E-07
 -1        40-2.60247E-07-1.95642E-07-1.79520E-06 7.59892E-08 4.32637E-07 2.25519E-07
 -1        41-2.21453E-07-1.91606E-07-1.76938E-06 4.93212E-08 4.17091E-07 2.38884E-07
 -1        42-2.22670E-07-2.17791E-07-1.68178E-06 9.14218E-08 4.37824E-07 1.37639E-07
 -1        43-1.92184E-07-1.71075E-07-1.82404E-06 4.06810E-08 3.77638E-07 3.23622E-07
 -1        44-4.14489E-07-5.07450E-08-1.55144E-06 1.37022E-07 2.73613E-07 2.51563E-07
 -1        45-3.01230E-07-4.28257E-07-2.19966E-06 3.00185E-08 7.10361E-07 1.43685E-07
 -1        46 4.01725E-07-2.60572E-07-1.00961E-06-2.35156E-08 2.93030E-07 9.24472E-08
 -1        47-4.21024E-07 4.32078E-07-4.46192E-07 1.20876E-07-2.61057E-07 3.39650E-07
 -1        48 6.79784E-07 8.44913E-07-1.95997E-08 3.26359E-07-4.86795E-07-4.55913E-07
 -1        49 2.41997E-07 9.71386E-08-1.16029E-06-9.45840E-08 2.91694E-07 1.23152E-07
 -1        50-6.10327E-07-5.87821E-07-2.46985E-06-1.59471E-07 8.32488E-07 5.38834E-07
 -1        51-2.04136E-07-9.93523E-08-1.38367E-06 1.87991E-07 2.58034E-07 1.16889E-07
 -1        52-1.62207E-07-1.33315E-07-1.88430E-06 1.51393E-07 3.44662E-07 1.58418E-07
 -1        53-2.50610E-07-2.03001E-07-1.80818E-06-1.48038E-08 4.91782E-07 3.22421E-07
 -1        54-2.56279E-07-2.17691E-07-1.87598E-06 5.37556E-08 4.50875E-07 2.52492E-07
 -1        55-2.62347E-07-2.06608E-07-1.91268E-06 6.87170E-08 4.50625E-07 2.57833E-07
 -1        56-2.43985E-07-2.15018E-07-1.86718E-06 7.42685E-08 4.34380E-07 2.46473E-07
 -1        57-2.42628E-07-2.21674E-07-1.89695E-06 5.23748E-08 4.51687E-07 2.63245E-07
 -1        58-2.65969E-07-1.90043E-07-1.89529E-06 7.02295E-08 4.43505E-07 2.46322E-07
 -1        59-2.82802E-07-8.51573E-08-2.02510E-06 9.94840E-08 4.98101E-07 2.23723E-07
 -1        60-2.48589E-07-4.15042E-07-1.78306E-06 1.78594E-08 4.45456E-07 2.80690E-07
 -1        61-1.81172E-07-2.19920E-07-2.48992E-06-1.23527E-08 6.08726E-07 3.32209E-07
 -1        62-4.49653E-07-1.10436E-07-1.09121E-06 1.62865E-07 3.39043E-07 9.67733E-08
 -1        63 1.45451E-07 2.29256E-07-1.76192E-07-4.29594E-08-1.65628E-07 9.72376E-08
 -1        64-1.29450E-07 5.36658E-08-2.14842E-06 1.51061E-07 3.14919E-07 2.35481E-07
 -1        65-2.53911E-07-3.77384E-07-1.79373E-06 6.43551E-08 5.58184E-07 2.23669E-07
 -1        66-2.63736E-07-1.68765E-07-1.73620E-06 4.22677E-08 3.63485E-07 2.37464E-07
 -1        67-2.23596E-07-1.42138E-07-1.69069E-06 6.59734E-08 3.59572E-07 2.28502E-07
 -1        68-2.11655E-07-1.91650E-07-1.73825E-06 5.72663E-08 4.18239E-07 2.30419E-07
 -1        69-2.35961E-07-2.10561E-07-1.75385E-06 5.80051E-08 4.24755E-07 2.35152E-07
 -1        70-2.56063E-07-2.10923E-07-1.74529E-06 4.41745E-08 4.18138E-07 2.37765E-07
 -1        71-2.07952E-07-1.65389E-07-1.77482E-06 8.06466E-08 3.99693E-07 2.28224E-07
 -1        72-1.85420E-07-1.52074E-07-1.66769E-06 3.80676E-08 3.68408E-07 1.94005E-07
 -1        73-2.73194E-07-2.34440E-07-1.87385E-06 6.52938E-08 4.69562E-07 2.77365E-07
 -1        74-4.30072E-07-4.02080E-07-1.54271E-06-1.17786E-07 5.54559E-07 3.29483E-07
 -1        75-8.61024E-08-3.80526E-08-1.96655E-06 2.33931E-07 2.64410E-07 1.24145E-07
 -1        76 3.39633E-07 4.84490E-07-1.46741E-06 2.13626E-07 3.12278E-08-7.50750E-08
 -1        77-7.60131E-07-8.23223E-07-1.45617E-06-3.18817E-07 8.84360E-07 5.57360E-07
 -1        78 1.41017E-08-1.18554E-08-4.74685E-07 3.14814E-09 7.26831E-08 8.70817E-08
 -1        79-2.52795E-07-2.04774E-07-2.52672E-06 1.20355E-07 4.52431E-07 3.73132E-07
 -1        80-2.55746E-07-2.52104E-07-1.87845E-06 9.44723E-08 4.67337E-07 2.37854E-07
 -1        81-2.35130E-07-1.97629E-07-1.96263E-06 4.45969E-08 4.13915E-07 2.78066E-07
 -1        82-2.39640E-07-2.18604E-07-1.88497E-06 6.49174E-08 4.46172E-07 2.53999E-07
 -1        83-2.58308E-07-2.09447E-07-1.88322E-06 6.72863E-08 4.30273E-07 2.63474E-07
 -1        84-2.53755E-07-2.02075E-07-1.89146E-06 6.10088E-08 4.57622E-07 2.40675E-07
 -1        85-2.59400E-07-2.44638E-07-1.88619E-06 8.36901E-08 4.28368E-07 2.69302E-07
 -1        86-2.44469E-07-1.87419E-07-1.88791E-06 5.13666E-08 4.48126E-07 2.47878E-07
 -1        87-2.64294E-07-1.95060E-07-1.76749E-06 1.00511E-07 3.24096E-07 2.89385E-07
 -1        88-2.35360E-07-1.75143E-07-1.91546E-06 3.57732E-08 5.37541E-07 2.02194E-07
 -1        89-1.50428E-07-4.08645E-07-1.63686E-06 1.46116E-07 4.34285E-07 1.25248E-07
 -1        90-3.96954E-07-1.99954E-07-2.13287E-06 3.82186E-08 3.49928E-07 4.66767E-07
 -1        91-1.94815E-07 4.64679E-07-1.31224E-06 3.92097E-08 1.82822E-07 2.16447E-07
 -1        92 1.69941E-07-6.54605E-07-8.38268E-07 4.88675E-08 5.25260E-07-1.70192E-07
 -1        93-3.23615E-07-1.42520E-06-2.00481E-06-1.88662E-07 1.15476E-06 3.17059E-07