    1C
    1UUSER                                                              
    1UDATE              25.january.2020                                 
    1UTIME              14:51:38                                        
    1UHOST                                                              
    1UPGM               CalculiX                                        
    1UVERSION           Version 2.16                             
    1UCOMPILETIME       Tue  7 Jan 19:57:43 CET 2020                    
    1UDIR                                                               
    1UDBN                                                               
    1UMAT    1GAS                                                       
    2C                            12                                     1
 -1         1 0.00000E+00 0.00000E+00 0.00000E+00
 -1         2 2.00000E+00 0.00000E+00 0.00000E+00
 -1         3 4.00000E+00-2.00000E+00 0.00000E+00
 -1         4 4.00000E+00 2.00000E+00 0.00000E+00
 -1         5 6.00000E+00 0.00000E+00 0.00000E+00
 -1      1000-1.00000E+00 0.00000E+00 0.00000E+00
 -1      1001 1.00000E+00 0.00000E+00 0.00000E+00
 -1      2001 3.00000E+00 1.00000E+00 0.00000E+00
 -1      3001 5.00000E+00 1.00000E+00 0.00000E+00
 -1      4001 3.00000E+00-1.00000E+00 0.00000E+00
 -1      5000 7.00000E+00 0.00000E+00 0.00000E+00
 -1      5001 5.00000E+00-1.00000E+00 0.00000E+00
 -3
    3C                             7                                     1
 -1         1   12    0    1
 -2         1         2      1001
 -1         2   11    0    1
 -2      1000         1
 -1         3   12    0    1
 -2         2         4      2001
 -1         4   12    0    1
 -2         4         5      3001
 -1         5   11    0    1
 -2         5      5000
 -1         6   12    0    1
 -2         2         3      4001
 -1         7   12    0    1
 -2         3         5      5001
 -3
 9999
