    1C
    1UUSER                                                              
    1UDATE              25.january.2020                                 
    1UTIME              14:51:39                                        
    1UHOST                                                              
    1UPGM               CalculiX                                        
    1UVERSION           Version 2.16                             
    1UCOMPILETIME       Tue  7 Jan 19:57:43 CET 2020                    
    1UDIR                                                               
    1UDBN                                                               
    1UMAT    1STEEL                                                     
    1UMAT    2SHEET                                                     
    1UMAT    3KONTAKT                                                   
    2C                          2032                                     1
 -1         1-9.18485E-17 9.75000E+00 0.00000E+00
 -1         2 0.00000E+00 1.02500E+01 0.00000E+00
 -1         3-1.83697E-16 9.25000E+00 0.00000E+00
 -1         4-2.75546E-16 8.75000E+00 0.00000E+00
 -1         5-3.67394E-16 8.25000E+00 0.00000E+00
 -1         6-4.59243E-16 7.75000E+00 0.00000E+00
 -1         7-5.51091E-16 7.25000E+00 0.00000E+00
 -1         8-6.42940E-16 6.75000E+00 0.00000E+00
 -1         9-7.34788E-16 6.25000E+00 0.00000E+00
 -1        10-8.26637E-16 5.75000E+00 0.00000E+00
 -1        11-9.18485E-16 5.25000E+00 0.00000E+00
 -1        12-1.01033E-15 4.75000E+00 0.00000E+00
 -1        13-1.10218E-15 4.25000E+00 0.00000E+00
 -1        14-1.19403E-15 3.75000E+00 0.00000E+00
 -1        15-1.28588E-15 3.25000E+00 0.00000E+00
 -1        16-1.37773E-15 2.75000E+00 0.00000E+00
 -1        17-1.46958E-15 2.25000E+00 0.00000E+00
 -1        18-1.56142E-15 1.75000E+00 0.00000E+00
 -1        19-1.65327E-15 1.25000E+00 0.00000E+00
 -1        20-1.74512E-15 7.50000E-01 0.00000E+00
 -1        21-9.18485E-16 2.50000E-01 0.00000E+00
 -1        22 5.00000E-01 2.50000E-01 0.00000E+00
 -1        23 1.00000E+00 2.50000E-01 0.00000E+00
 -1        24 1.50000E+00 2.50000E-01 0.00000E+00
 -1        25 2.00000E+00 2.50000E-01 0.00000E+00
 -1        26 2.50000E+00 2.50000E-01 0.00000E+00
 -1        27 3.00000E+00 2.50000E-01 0.00000E+00
 -1        28 3.50000E+00 2.50000E-01 0.00000E+00
 -1        29 4.00000E+00 2.50000E-01 0.00000E+00
 -1        30 4.50000E+00 2.50000E-01 0.00000E+00
 -1        31 5.00000E+00 2.50000E-01 0.00000E+00
 -1        32 5.50000E+00 2.50000E-01 0.00000E+00
 -1        33 6.00000E+00 2.50000E-01 0.00000E+00
 -1        34 6.50000E+00 2.50000E-01 0.00000E+00
 -1        35 7.00000E+00 2.50000E-01 0.00000E+00
 -1        36 7.52094E+00 2.95577E-01 0.00000E+00
 -1        37 8.02606E+00 4.30922E-01 0.00000E+00
 -1        38 8.50000E+00 6.51924E-01 0.00000E+00
 -1        39 8.92836E+00 9.51867E-01 0.00000E+00
 -1        40 9.29813E+00 1.32164E+00 0.00000E+00
 -1        41 9.59808E+00 1.75000E+00 0.00000E+00
 -1        42 9.81908E+00 2.22394E+00 0.00000E+00
 -1        43 9.95442E+00 2.72906E+00 0.00000E+00
 -1        44 1.00000E+01 3.25000E+00 0.00000E+00
 -1        45 1.00000E+01 3.75000E+00 0.00000E+00
 -1        46 1.00000E+01 4.25000E+00 0.00000E+00
 -1        47 1.00000E+01 4.75000E+00 0.00000E+00
 -1        48 1.00000E+01 5.25000E+00 0.00000E+00
 -1        49 1.00000E+01 5.75000E+00 0.00000E+00
 -1        50 1.00000E+01 6.25000E+00 0.00000E+00
 -1        51 1.00000E+01 6.75000E+00 0.00000E+00
 -1        52 1.00000E+01 7.25000E+00 0.00000E+00
 -1        53 1.00000E+01 7.75000E+00 0.00000E+00
 -1        54 1.00000E+01 8.25000E+00 0.00000E+00
 -1        55 1.00000E+01 8.75000E+00 0.00000E+00
 -1        56 1.00000E+01 9.25000E+00 0.00000E+00
 -1        57 1.00000E+01 9.75000E+00 0.00000E+00
 -1        58 1.00000E+01 1.02500E+01 0.00000E+00
 -1        59 9.50000E+00 1.02500E+01 0.00000E+00
 -1        60 9.00000E+00 1.02500E+01 0.00000E+00
 -1        61 8.50000E+00 1.02500E+01 0.00000E+00
 -1        62 8.00000E+00 1.02500E+01 0.00000E+00
 -1        63 7.50000E+00 1.02500E+01 0.00000E+00
 -1        64 7.00000E+00 1.02500E+01 0.00000E+00
 -1        65 6.50000E+00 1.02500E+01 0.00000E+00
 -1        66 6.00000E+00 1.02500E+01 0.00000E+00
 -1        67 5.50000E+00 1.02500E+01 0.00000E+00
 -1        68 5.00000E+00 1.02500E+01 0.00000E+00
 -1        69 4.50000E+00 1.02500E+01 0.00000E+00
 -1        70 4.00000E+00 1.02500E+01 0.00000E+00
 -1        71 3.50000E+00 1.02500E+01 0.00000E+00
 -1        72 3.00000E+00 1.02500E+01 0.00000E+00
 -1        73 2.50000E+00 1.02500E+01 0.00000E+00
 -1        74 2.00000E+00 1.02500E+01 0.00000E+00
 -1        75 1.50000E+00 1.02500E+01 0.00000E+00
 -1        76 1.00000E+00 1.02500E+01 0.00000E+00
 -1        77 5.00000E-01 1.02500E+01 0.00000E+00
 -1        78 9.46778E+00 8.25513E+00 0.00000E+00
 -1        79 9.48071E+00 8.76218E+00 0.00000E+00
 -1        80 5.00000E-01 9.75000E+00 0.00000E+00
 -1        81 5.00000E-01 9.25000E+00 0.00000E+00
 -1        82 5.00000E-01 8.75000E+00 0.00000E+00
 -1        83 5.00000E-01 8.25000E+00 0.00000E+00
 -1        84 5.00000E-01 7.75000E+00 0.00000E+00
 -1        85 5.00000E-01 7.25000E+00 0.00000E+00
 -1        86 5.00000E-01 6.75000E+00 0.00000E+00
 -1        87 5.00000E-01 6.25000E+00 0.00000E+00
 -1        88 5.00000E-01 5.75000E+00 0.00000E+00
 -1        89 5.00000E-01 5.25000E+00 0.00000E+00
 -1        90 5.00000E-01 4.75000E+00 0.00000E+00
 -1        91 5.00000E-01 4.25000E+00 0.00000E+00
 -1        92 5.00000E-01 3.75000E+00 0.00000E+00
 -1        93 5.00000E-01 3.25000E+00 0.00000E+00
 -1        94 5.00000E-01 2.75000E+00 0.00000E+00
 -1        95 5.00000E-01 2.25000E+00 0.00000E+00
 -1        96 5.00000E-01 1.75000E+00 0.00000E+00
 -1        97 5.00000E-01 1.25000E+00 0.00000E+00
 -1        98 5.00000E-01 7.50000E-01 0.00000E+00
 -1        99 1.00000E+00 7.50000E-01 0.00000E+00
 -1       100 1.50000E+00 7.50000E-01 0.00000E+00
 -1       101 2.00000E+00 7.50000E-01 0.00000E+00
 -1       102 2.50000E+00 7.50000E-01 0.00000E+00
 -1       103 3.00000E+00 7.50000E-01 0.00000E+00
 -1       104 3.50000E+00 7.50000E-01 0.00000E+00
 -1       105 4.00000E+00 7.50000E-01 0.00000E+00
 -1       106 4.50000E+00 7.50011E-01 0.00000E+00
 -1       107 4.99986E+00 7.50175E-01 0.00000E+00
 -1       108 5.49872E+00 7.51273E-01 0.00000E+00
 -1       109 5.99382E+00 7.55668E-01 0.00000E+00
 -1       110 6.47907E+00 7.70266E-01 0.00000E+00
 -1       111 6.95044E+00 8.02391E-01 0.00000E+00
 -1       112 7.40797E+00 8.71234E-01 0.00000E+00
 -1       113 7.84070E+00 9.97177E-01 0.00000E+00
 -1       114 8.23652E+00 1.18752E+00 0.00000E+00
 -1       115 8.58838E+00 1.43716E+00 0.00000E+00
 -1       116 8.89135E+00 1.73919E+00 0.00000E+00
 -1       117 9.13910E+00 2.08751E+00 0.00000E+00
 -1       118 9.32403E+00 2.47654E+00 0.00000E+00
 -1       119 9.44533E+00 2.89881E+00 0.00000E+00
 -1       120 9.50943E+00 3.34554E+00 0.00000E+00
 -1       121 9.53635E+00 3.80568E+00 0.00000E+00
 -1       122 9.54783E+00 4.27967E+00 0.00000E+00
 -1       123 9.55241E+00 4.76460E+00 0.00000E+00
 -1       124 9.55406E+00 5.25673E+00 0.00000E+00
 -1       125 9.55433E+00 5.75303E+00 0.00000E+00
 -1       126 9.55268E+00 6.25176E+00 0.00000E+00
 -1       127 9.54614E+00 6.75038E+00 0.00000E+00
 -1       128 9.53080E+00 7.24692E+00 0.00000E+00
 -1       129 9.50453E+00 7.74481E+00 0.00000E+00
 -1       130 9.49075E+00 9.25925E+00 0.00000E+00
 -1       131 9.49615E+00 9.75403E+00 0.00000E+00
 -1       132 8.99545E+00 9.75983E+00 0.00000E+00
 -1       133 8.50155E+00 9.76705E+00 0.00000E+00
 -1       134 8.00375E+00 9.75919E+00 0.00000E+00
 -1       135 7.50569E+00 9.73918E+00 0.00000E+00
 -1       136 7.00528E+00 9.73312E+00 0.00000E+00
 -1       137 6.50404E+00 9.73632E+00 0.00000E+00
 -1       138 6.00264E+00 9.74137E+00 0.00000E+00
 -1       139 5.50153E+00 9.74528E+00 0.00000E+00
 -1       140 5.00080E+00 9.74766E+00 0.00000E+00
 -1       141 4.50039E+00 9.74892E+00 0.00000E+00
 -1       142 4.00018E+00 9.74953E+00 0.00000E+00
 -1       143 3.50008E+00 9.74980E+00 0.00000E+00
 -1       144 3.00003E+00 9.74992E+00 0.00000E+00
 -1       145 2.50001E+00 9.74997E+00 0.00000E+00
 -1       146 2.00000E+00 9.74999E+00 0.00000E+00
 -1       147 1.50000E+00 9.75000E+00 0.00000E+00
 -1       148 1.00000E+00 9.75000E+00 0.00000E+00
 -1       149 8.87007E+00 8.26325E+00 0.00000E+00
 -1       150 8.96860E+00 8.78855E+00 0.00000E+00
 -1       151 1.00000E+00 9.25000E+00 0.00000E+00
 -1       152 1.00000E+00 8.75000E+00 0.00000E+00
 -1       153 1.00000E+00 8.25000E+00 0.00000E+00
 -1       154 1.00000E+00 7.75000E+00 0.00000E+00
 -1       155 1.00000E+00 7.25000E+00 0.00000E+00
 -1       156 1.00000E+00 6.75000E+00 0.00000E+00
 -1       157 1.00000E+00 6.25000E+00 0.00000E+00
 -1       158 1.00000E+00 5.75000E+00 0.00000E+00
 -1       159 1.00000E+00 5.25000E+00 0.00000E+00
 -1       160 1.00000E+00 4.75000E+00 0.00000E+00
 -1       161 1.00000E+00 4.25000E+00 0.00000E+00
 -1       162 1.00000E+00 3.75000E+00 0.00000E+00
 -1       163 1.00000E+00 3.25000E+00 0.00000E+00
 -1       164 1.00000E+00 2.75000E+00 0.00000E+00
 -1       165 1.00000E+00 2.25000E+00 0.00000E+00
 -1       166 1.00000E+00 1.75000E+00 0.00000E+00
 -1       167 1.00000E+00 1.25000E+00 0.00000E+00
 -1       168 8.99010E+00 9.27552E+00 0.00000E+00
 -1       169 1.50000E+00 1.25000E+00 0.00000E+00
 -1       170 2.00000E+00 1.25000E+00 0.00000E+00
 -1       171 2.50000E+00 1.25000E+00 0.00000E+00
 -1       172 3.00000E+00 1.25000E+00 0.00000E+00
 -1       173 3.50000E+00 1.25000E+00 0.00000E+00
 -1       174 4.00000E+00 1.25000E+00 0.00000E+00
 -1       175 4.49998E+00 1.25003E+00 0.00000E+00
 -1       176 4.99954E+00 1.25038E+00 0.00000E+00
 -1       177 5.49667E+00 1.25220E+00 0.00000E+00
 -1       178 5.98441E+00 1.26224E+00 0.00000E+00
 -1       179 6.45318E+00 1.28319E+00 0.00000E+00
 -1       180 6.89557E+00 1.31632E+00 0.00000E+00
 -1       181 7.30629E+00 1.37226E+00 0.00000E+00
 -1       182 7.67786E+00 1.47236E+00 0.00000E+00
 -1       183 8.00452E+00 1.63147E+00 0.00000E+00
 -1       184 8.29269E+00 1.83603E+00 0.00000E+00
 -1       185 8.54437E+00 2.07827E+00 0.00000E+00
 -1       186 8.75232E+00 2.35752E+00 0.00000E+00
 -1       187 8.90081E+00 2.67966E+00 0.00000E+00
 -1       188 8.99760E+00 3.04021E+00 0.00000E+00
 -1       189 9.05398E+00 3.43545E+00 0.00000E+00
 -1       190 9.08312E+00 3.86022E+00 0.00000E+00
 -1       191 9.09671E+00 4.31059E+00 0.00000E+00
 -1       192 9.10185E+00 4.78095E+00 0.00000E+00
 -1       193 9.10315E+00 5.26484E+00 0.00000E+00
 -1       194 9.10244E+00 5.75703E+00 0.00000E+00
 -1       195 9.09851E+00 6.25299E+00 0.00000E+00
 -1       196 9.08693E+00 6.74716E+00 0.00000E+00
 -1       197 9.06143E+00 7.23516E+00 0.00000E+00
 -1       198 9.01242E+00 7.72230E+00 0.00000E+00
 -1       199 8.50599E+00 9.29070E+00 0.00000E+00
 -1       200 8.01711E+00 9.26192E+00 0.00000E+00
 -1       201 7.51824E+00 9.19107E+00 0.00000E+00
 -1       202 7.01029E+00 9.18771E+00 0.00000E+00
 -1       203 6.50607E+00 9.20582E+00 0.00000E+00
 -1       204 6.00383E+00 9.22349E+00 0.00000E+00
 -1       205 5.50238E+00 9.23567E+00 0.00000E+00
 -1       206 5.00139E+00 9.24283E+00 0.00000E+00
 -1       207 4.50075E+00 9.24663E+00 0.00000E+00
 -1       208 4.00038E+00 9.24849E+00 0.00000E+00
 -1       209 3.50018E+00 9.24935E+00 0.00000E+00
 -1       210 3.00008E+00 9.24973E+00 0.00000E+00
 -1       211 2.50003E+00 9.24990E+00 0.00000E+00
 -1       212 2.00001E+00 9.24996E+00 0.00000E+00
 -1       213 1.50000E+00 9.24999E+00 0.00000E+00
 -1       214 8.53292E+00 8.46200E+00 0.00000E+00
 -1       215 8.52625E+00 8.83634E+00 0.00000E+00
 -1       216 1.50000E+00 8.74999E+00 0.00000E+00
 -1       217 1.50000E+00 8.24999E+00 0.00000E+00
 -1       218 1.50000E+00 7.74999E+00 0.00000E+00
 -1       219 1.50000E+00 7.24999E+00 0.00000E+00
 -1       220 1.50000E+00 6.74999E+00 0.00000E+00
 -1       221 1.50000E+00 6.25000E+00 0.00000E+00
 -1       222 1.50000E+00 5.75000E+00 0.00000E+00
 -1       223 1.50000E+00 5.25000E+00 0.00000E+00
 -1       224 1.50000E+00 4.75000E+00 0.00000E+00
 -1       225 1.50000E+00 4.25000E+00 0.00000E+00
 -1       226 1.50000E+00 3.75000E+00 0.00000E+00
 -1       227 1.50000E+00 3.25000E+00 0.00000E+00
 -1       228 1.50000E+00 2.75000E+00 0.00000E+00
 -1       229 1.50000E+00 2.25000E+00 0.00000E+00
 -1       230 1.50000E+00 1.75000E+00 0.00000E+00
 -1       231 2.00000E+00 1.75000E+00 0.00000E+00
 -1       232 2.50000E+00 1.75000E+00 0.00000E+00
 -1       233 3.00000E+00 1.75000E+00 0.00000E+00
 -1       234 3.50000E+00 1.75000E+00 0.00000E+00
 -1       235 4.00000E+00 1.75000E+00 0.00000E+00
 -1       236 4.49994E+00 1.75004E+00 0.00000E+00
 -1       237 4.99913E+00 1.75035E+00 0.00000E+00
 -1       238 5.49409E+00 1.75579E+00 0.00000E+00
 -1       239 5.97652E+00 1.76855E+00 0.00000E+00
 -1       240 6.43522E+00 1.78213E+00 0.00000E+00
 -1       241 6.85979E+00 1.79043E+00 0.00000E+00
 -1       242 7.23326E+00 1.80008E+00 0.00000E+00
 -1       243 7.54741E+00 1.84593E+00 0.00000E+00
 -1       244 7.80476E+00 1.98392E+00 0.00000E+00
 -1       245 8.04122E+00 2.15580E+00 0.00000E+00
 -1       246 8.26011E+00 2.34636E+00 0.00000E+00
 -1       247 8.44406E+00 2.55791E+00 0.00000E+00
 -1       248 8.53880E+00 2.82963E+00 0.00000E+00
 -1       249 8.59308E+00 3.14822E+00 0.00000E+00
 -1       250 8.62539E+00 3.50897E+00 0.00000E+00
 -1       251 8.64284E+00 3.90731E+00 0.00000E+00
 -1       252 8.64894E+00 4.33883E+00 0.00000E+00
 -1       253 8.64819E+00 4.79665E+00 0.00000E+00
 -1       254 8.64503E+00 5.27340E+00 0.00000E+00
 -1       255 8.64123E+00 5.76276E+00 0.00000E+00
 -1       256 8.63680E+00 6.25689E+00 0.00000E+00
 -1       257 8.62772E+00 6.74565E+00 0.00000E+00
 -1       258 8.61138E+00 7.21719E+00 0.00000E+00
 -1       259 8.59009E+00 7.66066E+00 0.00000E+00
 -1       260 8.07078E+00 8.76444E+00 0.00000E+00
 -1       261 7.55248E+00 8.49519E+00 0.00000E+00
 -1       262 7.00634E+00 8.59201E+00 0.00000E+00
 -1       263 6.49982E+00 8.65552E+00 0.00000E+00
 -1       264 6.00057E+00 8.69607E+00 0.00000E+00
 -1       265 5.50134E+00 8.72098E+00 0.00000E+00
 -1       266 5.00131E+00 8.73526E+00 0.00000E+00
 -1       267 4.50094E+00 8.74290E+00 0.00000E+00
 -1       268 4.00056E+00 8.74674E+00 0.00000E+00
 -1       269 3.50030E+00 8.74857E+00 0.00000E+00
 -1       270 3.00014E+00 8.74940E+00 0.00000E+00
 -1       271 2.50006E+00 8.74976E+00 0.00000E+00
 -1       272 2.00002E+00 8.74992E+00 0.00000E+00
 -1       273 8.55308E+00 8.03870E+00 0.00000E+00
 -1       274 8.20926E+00 8.39389E+00 0.00000E+00
 -1       275 2.00002E+00 8.24992E+00 0.00000E+00
 -1       276 2.00002E+00 7.74992E+00 0.00000E+00
 -1       277 2.00002E+00 7.24993E+00 0.00000E+00
 -1       278 2.00002E+00 6.74995E+00 0.00000E+00
 -1       279 2.00002E+00 6.24996E+00 0.00000E+00
 -1       280 2.00001E+00 5.74998E+00 0.00000E+00
 -1       281 2.00001E+00 5.24999E+00 0.00000E+00
 -1       282 2.00000E+00 4.74999E+00 0.00000E+00
 -1       283 2.00000E+00 4.25000E+00 0.00000E+00
 -1       284 2.00000E+00 3.75000E+00 0.00000E+00
 -1       285 2.00000E+00 3.25000E+00 0.00000E+00
 -1       286 2.00000E+00 2.75000E+00 0.00000E+00
 -1       287 2.00000E+00 2.25000E+00 0.00000E+00
 -1       288 7.88793E+00 8.12772E+00 0.00000E+00
 -1       289 2.50000E+00 2.25000E+00 0.00000E+00
 -1       290 3.00000E+00 2.25000E+00 0.00000E+00
 -1       291 3.50000E+00 2.25000E+00 0.00000E+00
 -1       292 4.00000E+00 2.25000E+00 0.00000E+00
 -1       293 4.49990E+00 2.25000E+00 0.00000E+00
 -1       294 4.99908E+00 2.25228E+00 0.00000E+00
 -1       295 5.49498E+00 2.25982E+00 0.00000E+00
 -1       296 5.97922E+00 2.26709E+00 0.00000E+00
 -1       297 6.44182E+00 2.26098E+00 0.00000E+00
 -1       298 6.87460E+00 2.23219E+00 0.00000E+00
 -1       299 7.22718E+00 2.15449E+00 0.00000E+00
 -1       300 7.46571E+00 2.08964E+00 0.00000E+00
 -1       301 7.62064E+00 2.24786E+00 0.00000E+00
 -1       302 7.82145E+00 2.41688E+00 0.00000E+00
 -1       303 8.03792E+00 2.57432E+00 0.00000E+00
 -1       304 8.23097E+00 2.68161E+00 0.00000E+00
 -1       305 8.21940E+00 2.90932E+00 0.00000E+00
 -1       306 8.21624E+00 3.21148E+00 0.00000E+00
 -1       307 8.21921E+00 3.55722E+00 0.00000E+00
 -1       308 8.21649E+00 3.94064E+00 0.00000E+00
 -1       309 8.20540E+00 4.35922E+00 0.00000E+00
 -1       310 8.19026E+00 4.80827E+00 0.00000E+00
 -1       311 8.17766E+00 5.28340E+00 0.00000E+00
 -1       312 8.17040E+00 5.77732E+00 0.00000E+00
 -1       313 8.17095E+00 6.27537E+00 0.00000E+00
 -1       314 8.17305E+00 6.76262E+00 0.00000E+00
 -1       315 8.17447E+00 7.23271E+00 0.00000E+00
 -1       316 8.18219E+00 7.67585E+00 0.00000E+00
 -1       317 7.79232E+00 7.74183E+00 0.00000E+00
 -1       318 7.39387E+00 7.89649E+00 0.00000E+00
 -1       319 6.94257E+00 8.02153E+00 0.00000E+00
 -1       320 6.47388E+00 8.11188E+00 0.00000E+00
 -1       321 5.99119E+00 8.16807E+00 0.00000E+00
 -1       322 5.49863E+00 8.20414E+00 0.00000E+00
 -1       323 5.00094E+00 8.22583E+00 0.00000E+00
 -1       324 4.50117E+00 8.23796E+00 0.00000E+00
 -1       325 4.00083E+00 8.24431E+00 0.00000E+00
 -1       326 3.50047E+00 8.24745E+00 0.00000E+00
 -1       327 3.00023E+00 8.24893E+00 0.00000E+00
 -1       328 2.50009E+00 8.24961E+00 0.00000E+00
 -1       329 8.20321E+00 8.06909E+00 0.00000E+00
 -1       330 2.50000E+00 2.75000E+00 0.00000E+00
 -1       331 2.50010E+00 7.74961E+00 0.00000E+00
 -1       332 2.50012E+00 7.24964E+00 0.00000E+00
 -1       333 2.50012E+00 6.74970E+00 0.00000E+00
 -1       334 2.50010E+00 6.24977E+00 0.00000E+00
 -1       335 2.50008E+00 5.74985E+00 0.00000E+00
 -1       336 2.50005E+00 5.24992E+00 0.00000E+00
 -1       337 2.50003E+00 4.74996E+00 0.00000E+00
 -1       338 2.50001E+00 4.24998E+00 0.00000E+00
 -1       339 2.50001E+00 3.74999E+00 0.00000E+00
 -1       340 2.50000E+00 3.25000E+00 0.00000E+00
 -1       341 3.00000E+00 2.75000E+00 0.00000E+00
 -1       342 3.50000E+00 2.75000E+00 0.00000E+00
 -1       343 4.00000E+00 2.75000E+00 0.00000E+00
 -1       344 4.50009E+00 2.75055E+00 0.00000E+00
 -1       345 5.00127E+00 2.75391E+00 0.00000E+00
 -1       346 5.50106E+00 2.75856E+00 0.00000E+00
 -1       347 5.99330E+00 2.75238E+00 0.00000E+00
 -1       348 6.47475E+00 2.72167E+00 0.00000E+00
 -1       349 6.98327E+00 2.68934E+00 0.00000E+00
 -1       350 7.36414E+00 2.43588E+00 0.00000E+00
 -1       351 7.87622E+00 2.87097E+00 0.00000E+00
 -1       352 7.59182E+00 2.65829E+00 0.00000E+00
 -1       353 7.84162E+00 3.22746E+00 0.00000E+00
 -1       354 7.82988E+00 3.58043E+00 0.00000E+00
 -1       355 7.80305E+00 3.95568E+00 0.00000E+00
 -1       356 7.76523E+00 4.36496E+00 0.00000E+00
 -1       357 7.72639E+00 4.81235E+00 0.00000E+00
 -1       358 7.70258E+00 5.29865E+00 0.00000E+00
 -1       359 7.69191E+00 5.81266E+00 0.00000E+00
 -1       360 7.70641E+00 6.32251E+00 0.00000E+00
 -1       361 7.72684E+00 6.81602E+00 0.00000E+00
 -1       362 7.75024E+00 7.29165E+00 0.00000E+00
 -1       363 6.89669E+00 7.50326E+00 0.00000E+00
 -1       364 6.45102E+00 7.59489E+00 0.00000E+00
 -1       365 5.98563E+00 7.64559E+00 0.00000E+00
 -1       366 5.49835E+00 7.68700E+00 0.00000E+00
 -1       367 5.00182E+00 7.71517E+00 0.00000E+00
 -1       368 4.50198E+00 7.73210E+00 0.00000E+00
 -1       369 4.00134E+00 7.74138E+00 0.00000E+00
 -1       370 3.50074E+00 7.74614E+00 0.00000E+00
 -1       371 3.00034E+00 7.74846E+00 0.00000E+00
 -1       372 3.00041E+00 7.24851E+00 0.00000E+00
 -1       373 3.00045E+00 6.74865E+00 0.00000E+00
 -1       374 3.00040E+00 6.24892E+00 0.00000E+00
 -1       375 3.00027E+00 5.74927E+00 0.00000E+00
 -1       376 3.00013E+00 5.24957E+00 0.00000E+00
 -1       377 3.00005E+00 4.74978E+00 0.00000E+00
 -1       378 3.00002E+00 4.24990E+00 0.00000E+00
 -1       379 3.00001E+00 3.74996E+00 0.00000E+00
 -1       380 3.00000E+00 3.24999E+00 0.00000E+00
 -1       381 7.29720E+00 2.88233E+00 0.00000E+00
 -1       382 7.45796E+00 3.22246E+00 0.00000E+00
 -1       383 7.46742E+00 3.59183E+00 0.00000E+00
 -1       384 6.43726E+00 7.11864E+00 0.00000E+00
 -1       385 5.99709E+00 7.12000E+00 0.00000E+00
 -1       386 3.50001E+00 3.24998E+00 0.00000E+00
 -1       387 4.00004E+00 3.25002E+00 0.00000E+00
 -1       388 4.50122E+00 3.25118E+00 0.00000E+00
 -1       389 5.00414E+00 3.25456E+00 0.00000E+00
 -1       390 5.50712E+00 3.25442E+00 0.00000E+00
 -1       391 6.00758E+00 3.23253E+00 0.00000E+00
 -1       392 6.49131E+00 3.16025E+00 0.00000E+00
 -1       393 6.88231E+00 3.04969E+00 0.00000E+00
 -1       394 7.33078E+00 7.39591E+00 0.00000E+00
 -1       395 7.40558E+00 3.94586E+00 0.00000E+00
 -1       396 7.33013E+00 4.34541E+00 0.00000E+00
 -1       397 7.25285E+00 4.79908E+00 0.00000E+00
 -1       398 7.22017E+00 5.31790E+00 0.00000E+00
 -1       399 7.19574E+00 5.88071E+00 0.00000E+00
 -1       400 7.24582E+00 6.40955E+00 0.00000E+00
 -1       401 7.29021E+00 6.90959E+00 0.00000E+00
 -1       402 5.50408E+00 7.16635E+00 0.00000E+00
 -1       403 5.00425E+00 7.20289E+00 0.00000E+00
 -1       404 4.50302E+00 7.22570E+00 0.00000E+00
 -1       405 4.00186E+00 7.23840E+00 0.00000E+00
 -1       406 3.50101E+00 7.24500E+00 0.00000E+00
 -1       407 3.50113E+00 6.74526E+00 0.00000E+00
 -1       408 3.50084E+00 6.24604E+00 0.00000E+00
 -1       409 3.50023E+00 5.74723E+00 0.00000E+00
 -1       410 3.49975E+00 5.24839E+00 0.00000E+00
 -1       411 3.49969E+00 4.74930E+00 0.00000E+00
 -1       412 3.49991E+00 4.24979E+00 0.00000E+00
 -1       413 3.49998E+00 3.74991E+00 0.00000E+00
 -1       414 7.02241E+00 3.36745E+00 0.00000E+00
 -1       415 4.00030E+00 3.75026E+00 0.00000E+00
 -1       416 4.50143E+00 3.75257E+00 0.00000E+00
 -1       417 5.00317E+00 3.75777E+00 0.00000E+00
 -1       418 5.50847E+00 3.76062E+00 0.00000E+00
 -1       419 6.03227E+00 3.74190E+00 0.00000E+00
 -1       420 6.62305E+00 3.65216E+00 0.00000E+00
 -1       421 6.08488E+00 6.49883E+00 0.00000E+00
 -1       422 6.62302E+00 6.00888E+00 0.00000E+00
 -1       423 6.21999E+00 5.77677E+00 0.00000E+00
 -1       424 5.90392E+00 6.00330E+00 0.00000E+00
 -1       425 7.02218E+00 3.88300E+00 0.00000E+00
 -1       426 6.90489E+00 4.27948E+00 0.00000E+00
 -1       427 6.74015E+00 4.73595E+00 0.00000E+00
 -1       428 6.72668E+00 5.32976E+00 0.00000E+00
 -1       429 6.79881E+00 6.53708E+00 0.00000E+00
 -1       430 6.85879E+00 7.01987E+00 0.00000E+00
 -1       431 6.44115E+00 6.71877E+00 0.00000E+00
 -1       432 5.51632E+00 6.62908E+00 0.00000E+00
 -1       433 7.17047E+00 3.61233E+00 0.00000E+00
 -1       434 5.00394E+00 6.68945E+00 0.00000E+00
 -1       435 4.50195E+00 6.72034E+00 0.00000E+00
 -1       436 4.00158E+00 6.73640E+00 0.00000E+00
 -1       437 4.00014E+00 6.23824E+00 0.00000E+00
 -1       438 3.99787E+00 5.74188E+00 0.00000E+00
 -1       439 3.99671E+00 5.24582E+00 0.00000E+00
 -1       440 3.99742E+00 4.74892E+00 0.00000E+00
 -1       441 3.99929E+00 4.25040E+00 0.00000E+00
 -1       442 6.27025E+00 5.30858E+00 0.00000E+00
 -1       443 4.49752E+00 4.25389E+00 0.00000E+00
 -1       444 4.99221E+00 4.26311E+00 0.00000E+00
 -1       445 5.48730E+00 4.28226E+00 0.00000E+00
 -1       446 6.01016E+00 4.32745E+00 0.00000E+00
 -1       447 6.52152E+00 4.16700E+00 0.00000E+00
 -1       448 6.26256E+00 4.87611E+00 0.00000E+00
 -1       449 6.50036E+00 4.48415E+00 0.00000E+00
 -1       450 5.46209E+00 6.13270E+00 0.00000E+00
 -1       451 4.98361E+00 6.19134E+00 0.00000E+00
 -1       452 4.49468E+00 6.22112E+00 0.00000E+00
 -1       453 4.48770E+00 5.73119E+00 0.00000E+00
 -1       454 4.48563E+00 5.24215E+00 0.00000E+00
 -1       455 4.48961E+00 4.75064E+00 0.00000E+00
 -1       456 6.26426E+00 4.56659E+00 0.00000E+00
 -1       457 4.97223E+00 4.75746E+00 0.00000E+00
 -1       458 5.43754E+00 4.77401E+00 0.00000E+00
 -1       459 5.87850E+00 4.81354E+00 0.00000E+00
 -1       460 5.77228E+00 5.66411E+00 0.00000E+00
 -1       461 5.40456E+00 5.69185E+00 0.00000E+00
 -1       462 4.95984E+00 5.71376E+00 0.00000E+00
 -1       463 5.83241E+00 5.25661E+00 0.00000E+00
 -1       464 5.40700E+00 5.24043E+00 0.00000E+00
 -1       465 4.95792E+00 5.23895E+00 0.00000E+00
 -1       466 9.45481E+00 8.25513E+00-4.95506E-01
 -1       467 9.98630E+00 8.25000E+00-5.23360E-01
 -1       468 9.98630E+00 8.75000E+00-5.23360E-01
 -1       469 9.46772E+00 8.76218E+00-4.96182E-01
 -1       470 4.99315E-01 1.02500E+01-2.61680E-02
 -1       471 4.99315E-01 9.75000E+00-2.61680E-02
 -1       472 4.99315E-01 9.25000E+00-2.61680E-02
 -1       473 4.99315E-01 8.75000E+00-2.61680E-02
 -1       474 4.99315E-01 8.25000E+00-2.61680E-02
 -1       475 4.99315E-01 7.75000E+00-2.61680E-02
 -1       476 4.99315E-01 7.25000E+00-2.61680E-02
 -1       477 4.99315E-01 6.75000E+00-2.61680E-02
 -1       478 4.99315E-01 6.25000E+00-2.61680E-02
 -1       479 4.99315E-01 5.75000E+00-2.61680E-02
 -1       480 4.99315E-01 5.25000E+00-2.61680E-02
 -1       481 4.99315E-01 4.75000E+00-2.61680E-02
 -1       482 4.99315E-01 4.25000E+00-2.61680E-02
 -1       483 4.99315E-01 3.75000E+00-2.61680E-02
 -1       484 4.99315E-01 3.25000E+00-2.61680E-02
 -1       485 4.99315E-01 2.75000E+00-2.61680E-02
 -1       486 4.99315E-01 2.25000E+00-2.61680E-02
 -1       487 4.99315E-01 1.75000E+00-2.61680E-02
 -1       488 4.99315E-01 1.25000E+00-2.61680E-02
 -1       489 4.99315E-01 7.50000E-01-2.61680E-02
 -1       490 4.99315E-01 2.50000E-01-2.61680E-02
 -1       491 9.98630E-01 2.50000E-01-5.23360E-02
 -1       492 9.98630E-01 7.50000E-01-5.23360E-02
 -1       493 1.49794E+00 2.50000E-01-7.85039E-02
 -1       494 1.49794E+00 7.50000E-01-7.85039E-02
 -1       495 1.99726E+00 2.50000E-01-1.04672E-01
 -1       496 1.99726E+00 7.50000E-01-1.04672E-01
 -1       497 2.49657E+00 2.50000E-01-1.30840E-01
 -1       498 2.49657E+00 7.50000E-01-1.30840E-01
 -1       499 2.99589E+00 2.50000E-01-1.57008E-01
 -1       500 2.99589E+00 7.50000E-01-1.57008E-01
 -1       501 3.49520E+00 2.50000E-01-1.83176E-01
 -1       502 3.49520E+00 7.50000E-01-1.83176E-01
 -1       503 3.99452E+00 2.50000E-01-2.09344E-01
 -1       504 3.99452E+00 7.50000E-01-2.09344E-01
 -1       505 4.49383E+00 2.50000E-01-2.35512E-01
 -1       506 4.49383E+00 7.50011E-01-2.35512E-01
 -1       507 4.99315E+00 2.50000E-01-2.61680E-01
 -1       508 4.99301E+00 7.50175E-01-2.61673E-01
 -1       509 5.49246E+00 2.50000E-01-2.87848E-01
 -1       510 5.49118E+00 7.51273E-01-2.87781E-01
 -1       511 5.99178E+00 2.50000E-01-3.14016E-01
 -1       512 5.98560E+00 7.55668E-01-3.13692E-01
 -1       513 6.49109E+00 2.50000E-01-3.40184E-01
 -1       514 6.47019E+00 7.70266E-01-3.39088E-01
 -1       515 6.99041E+00 2.50000E-01-3.66352E-01
 -1       516 6.94091E+00 8.02391E-01-3.63758E-01
 -1       517 7.51064E+00 2.95577E-01-3.93616E-01
 -1       518 7.39782E+00 8.71234E-01-3.87703E-01
 -1       519 8.01506E+00 4.30922E-01-4.20052E-01
 -1       520 7.82995E+00 9.97177E-01-4.10350E-01
 -1       521 8.48835E+00 6.51924E-01-4.44856E-01
 -1       522 8.22523E+00 1.18752E+00-4.31066E-01
 -1       523 8.91613E+00 9.51867E-01-4.67274E-01
 -1       524 8.57661E+00 1.43716E+00-4.49481E-01
 -1       525 9.28539E+00 1.32164E+00-4.86627E-01
 -1       526 8.87917E+00 1.73919E+00-4.65337E-01
 -1       527 9.58492E+00 1.75000E+00-5.02324E-01
 -1       528 9.12657E+00 2.08751E+00-4.78303E-01
 -1       529 9.80562E+00 2.22394E+00-5.13891E-01
 -1       530 9.31125E+00 2.47654E+00-4.87982E-01
 -1       531 9.94078E+00 2.72906E+00-5.20974E-01
 -1       532 9.43238E+00 2.89881E+00-4.94330E-01
 -1       533 9.98630E+00 3.25000E+00-5.23360E-01
 -1       534 9.49640E+00 3.34554E+00-4.97685E-01
 -1       535 9.98630E+00 3.75000E+00-5.23360E-01
 -1       536 9.52328E+00 3.80568E+00-4.99094E-01
 -1       537 9.98630E+00 4.25000E+00-5.23360E-01
 -1       538 9.53474E+00 4.27967E+00-4.99695E-01
 -1       539 9.98630E+00 4.75000E+00-5.23360E-01
 -1       540 9.53932E+00 4.76460E+00-4.99934E-01
 -1       541 9.98630E+00 5.25000E+00-5.23360E-01
 -1       542 9.54097E+00 5.25673E+00-5.00021E-01
 -1       543 9.98630E+00 5.75000E+00-5.23360E-01
 -1       544 9.54124E+00 5.75303E+00-5.00035E-01
 -1       545 9.98630E+00 6.25000E+00-5.23360E-01
 -1       546 9.53958E+00 6.25176E+00-4.99948E-01
 -1       547 9.98630E+00 6.75000E+00-5.23360E-01
 -1       548 9.53306E+00 6.75038E+00-4.99607E-01
 -1       549 9.98630E+00 7.25000E+00-5.23360E-01
 -1       550 9.51774E+00 7.24692E+00-4.98804E-01
 -1       551 9.98630E+00 7.75000E+00-5.23360E-01
 -1       552 9.49150E+00 7.74481E+00-4.97429E-01
 -1       553 9.98630E+00 9.25000E+00-5.23360E-01
 -1       554 9.47774E+00 9.25925E+00-4.96707E-01
 -1       555 9.98630E+00 9.75000E+00-5.23360E-01
 -1       556 9.48313E+00 9.75403E+00-4.96990E-01
 -1       557 9.98630E+00 1.02500E+01-5.23360E-01
 -1       558 9.48698E+00 1.02500E+01-4.97192E-01
 -1       559 8.98767E+00 1.02500E+01-4.71024E-01
 -1       560 8.98312E+00 9.75983E+00-4.70786E-01
 -1       561 8.48835E+00 1.02500E+01-4.44856E-01
 -1       562 8.48990E+00 9.76705E+00-4.44937E-01
 -1       563 7.98904E+00 1.02500E+01-4.18688E-01
 -1       564 7.99278E+00 9.75919E+00-4.18884E-01
 -1       565 7.48972E+00 1.02500E+01-3.92520E-01
 -1       566 7.49540E+00 9.73918E+00-3.92817E-01
 -1       567 6.99041E+00 1.02500E+01-3.66352E-01
 -1       568 6.99568E+00 9.73312E+00-3.66628E-01
 -1       569 6.49109E+00 1.02500E+01-3.40184E-01
 -1       570 6.49513E+00 9.73632E+00-3.40395E-01
 -1       571 5.99178E+00 1.02500E+01-3.14016E-01
 -1       572 5.99442E+00 9.74137E+00-3.14154E-01
 -1       573 5.49246E+00 1.02500E+01-2.87848E-01
 -1       574 5.49399E+00 9.74528E+00-2.87928E-01
 -1       575 4.99315E+00 1.02500E+01-2.61680E-01
 -1       576 4.99395E+00 9.74766E+00-2.61722E-01
 -1       577 4.49383E+00 1.02500E+01-2.35512E-01
 -1       578 4.49422E+00 9.74892E+00-2.35532E-01
 -1       579 3.99452E+00 1.02500E+01-2.09344E-01
 -1       580 3.99470E+00 9.74953E+00-2.09353E-01