    1C
    1UUSER                                                              
    1UDATE              25.january.2020                                 
    1UTIME              14:51:58                                        
    1UHOST                                                              
    1UPGM               CalculiX                                        
    1UVERSION           Version 2.16                             
    1UCOMPILETIME       Tue  7 Jan 19:57:43 CET 2020                    
    1UDIR                                                               
    1UDBN                                                               
    1UMAT    1EL                                                        
    2C                         20808                                     1
 -1         1 5.00000E+01 5.20000E+01 0.00000E+00
 -1         2 5.00000E+01 5.00000E+01 0.00000E+00
 -1         3 5.00000E+01 4.99154E+01 2.90724E+00
 -1         4 5.00000E+01 5.19120E+01 3.02353E+00
 -1         5 4.76215E+01 5.20000E+01 0.00000E+00
 -1         6 4.76215E+01 5.00000E+01 0.00000E+00
 -1         7 4.76215E+01 4.99154E+01 2.90724E+00
 -1         8 4.76215E+01 5.19120E+01 3.02353E+00
 -1         9 5.00000E+01 5.10000E+01 0.00000E+00
 -1        10 5.00000E+01 4.99788E+01 1.45424E+00
 -1        11 5.00000E+01 5.09137E+01 2.96539E+00
 -1        12 5.00000E+01 5.19780E+01 1.51241E+00
 -1        13 4.88108E+01 5.20000E+01 0.00000E+00
 -1        14 4.88108E+01 5.00000E+01 0.00000E+00
 -1        15 4.88108E+01 4.99154E+01 2.90724E+00
 -1        16 4.88108E+01 5.19120E+01 3.02353E+00
 -1        17 4.76215E+01 5.10000E+01 0.00000E+00
 -1        18 4.76215E+01 4.99788E+01 1.45424E+00
 -1        19 4.76215E+01 5.09137E+01 2.96539E+00
 -1        20 4.76215E+01 5.19780E+01 1.51241E+00
 -1        21 5.00000E+01 4.96619E+01 5.80465E+00
 -1        22 5.00000E+01 5.16484E+01 6.03683E+00
 -1        23 4.76215E+01 4.96619E+01 5.80465E+00
 -1        24 4.76215E+01 5.16484E+01 6.03683E+00
 -1        25 5.00000E+01 4.98097E+01 4.35779E+00
 -1        26 5.00000E+01 5.06552E+01 5.92074E+00
 -1        27 5.00000E+01 5.18021E+01 4.53210E+00
 -1        28 4.88108E+01 4.96619E+01 5.80465E+00
 -1        29 4.88108E+01 5.16484E+01 6.03683E+00
 -1        30 4.76215E+01 4.98097E+01 4.35779E+00
 -1        31 4.76215E+01 5.06552E+01 5.92074E+00
 -1        32 4.76215E+01 5.18021E+01 4.53210E+00
 -1        33 5.00000E+01 4.92404E+01 8.68241E+00
 -1        34 5.00000E+01 5.12100E+01 9.02971E+00
 -1        35 4.76215E+01 4.92404E+01 8.68241E+00
 -1        36 4.76215E+01 5.12100E+01 9.02971E+00
 -1        37 5.00000E+01 4.94721E+01 7.24659E+00
 -1        38 5.00000E+01 5.02252E+01 8.85606E+00
 -1        39 5.00000E+01 5.14510E+01 7.53646E+00
 -1        40 4.88108E+01 4.92404E+01 8.68241E+00
 -1        41 4.88108E+01 5.12100E+01 9.02971E+00
 -1        42 4.76215E+01 4.94721E+01 7.24659E+00
 -1        43 4.76215E+01 5.02252E+01 8.85606E+00
 -1        44 4.76215E+01 5.14510E+01 7.53646E+00
 -1        45 5.00000E+01 4.86522E+01 1.15308E+01
 -1        46 5.00000E+01 5.05983E+01 1.19920E+01
 -1        47 4.76215E+01 4.86522E+01 1.15308E+01
 -1        48 4.76215E+01 5.05983E+01 1.19920E+01
 -1        49 5.00000E+01 4.89670E+01 1.01109E+01
 -1        50 5.00000E+01 4.96253E+01 1.17614E+01
 -1        51 5.00000E+01 5.09257E+01 1.05153E+01
 -1        52 4.88108E+01 4.86522E+01 1.15308E+01
 -1        53 4.88108E+01 5.05983E+01 1.19920E+01
 -1        54 4.76215E+01 4.89670E+01 1.01109E+01
 -1        55 4.76215E+01 4.96253E+01 1.17614E+01
 -1        56 4.76215E+01 5.09257E+01 1.05153E+01
 -1        57 5.00000E+01 4.78995E+01 1.43402E+01
 -1        58 5.00000E+01 4.98155E+01 1.49138E+01
 -1        59 4.76215E+01 4.78995E+01 1.43402E+01
 -1        60 4.76215E+01 4.98155E+01 1.49138E+01
 -1        61 5.00000E+01 4.82963E+01 1.29410E+01
 -1        62 5.00000E+01 4.88575E+01 1.46270E+01
 -1        63 5.00000E+01 5.02281E+01 1.34586E+01
 -1        64 4.88108E+01 4.78995E+01 1.43402E+01
 -1        65 4.88108E+01 4.98155E+01 1.49138E+01
 -1        66 4.76215E+01 4.82963E+01 1.29410E+01
 -1        67 4.76215E+01 4.88575E+01 1.46270E+01
 -1        68 4.76215E+01 5.02281E+01 1.34586E+01
 -1        69 5.00000E+01 4.69846E+01 1.71010E+01
 -1        70 5.00000E+01 4.88640E+01 1.77850E+01
 -1        71 4.76215E+01 4.69846E+01 1.71010E+01
 -1        72 4.76215E+01 4.88640E+01 1.77850E+01
 -1        73 5.00000E+01 4.74621E+01 1.57272E+01
 -1        74 5.00000E+01 4.79243E+01 1.74430E+01
 -1        75 5.00000E+01 4.93606E+01 1.63563E+01
 -1        76 4.88108E+01 4.69846E+01 1.71010E+01
 -1        77 4.88108E+01 4.88640E+01 1.77850E+01
 -1        78 4.76215E+01 4.74621E+01 1.57272E+01
 -1        79 4.76215E+01 4.79243E+01 1.74430E+01
 -1        80 4.76215E+01 4.93606E+01 1.63563E+01
 -1        81 4.48694E+01 5.20000E+01 0.00000E+00
 -1        82 4.48694E+01 5.00000E+01 0.00000E+00
 -1        83 4.48694E+01 4.99154E+01 2.90724E+00
 -1        84 4.48694E+01 5.19120E+01 3.02353E+00
 -1        85 4.62455E+01 5.20000E+01 0.00000E+00
 -1        86 4.62455E+01 5.00000E+01 0.00000E+00
 -1        87 4.62455E+01 4.99154E+01 2.90724E+00
 -1        88 4.62455E+01 5.19120E+01 3.02353E+00
 -1        89 4.48694E+01 5.10000E+01-1.77636E-15
 -1        90 4.48694E+01 4.99788E+01 1.45424E+00
 -1        91 4.48694E+01 5.09137E+01 2.96539E+00
 -1        92 4.48694E+01 5.19780E+01 1.51241E+00
 -1        93 4.48694E+01 4.96619E+01 5.80465E+00
 -1        94 4.48694E+01 5.16484E+01 6.03683E+00
 -1        95 4.62455E+01 4.96619E+01 5.80465E+00
 -1        96 4.62455E+01 5.16484E+01 6.03683E+00
 -1        97 4.48694E+01 4.98097E+01 4.35779E+00
 -1        98 4.48694E+01 5.06552E+01 5.92074E+00
 -1        99 4.48694E+01 5.18021E+01 4.53210E+00
 -1       100 4.48694E+01 4.92404E+01 8.68241E+00
 -1       101 4.48694E+01 5.12100E+01 9.02971E+00
 -1       102 4.62455E+01 4.92404E+01 8.68241E+00
 -1       103 4.62455E+01 5.12100E+01 9.02971E+00
 -1       104 4.48694E+01 4.94721E+01 7.24659E+00
 -1       105 4.48694E+01 5.02252E+01 8.85606E+00
 -1       106 4.48694E+01 5.14510E+01 7.53646E+00
 -1       107 4.48694E+01 4.86522E+01 1.15308E+01
 -1       108 4.48694E+01 5.05983E+01 1.19920E+01
 -1       109 4.62455E+01 4.86522E+01 1.15308E+01
 -1       110 4.62455E+01 5.05983E+01 1.19920E+01
 -1       111 4.48694E+01 4.89670E+01 1.01109E+01
 -1       112 4.48694E+01 4.96253E+01 1.17614E+01
 -1       113 4.48694E+01 5.09257E+01 1.05153E+01
 -1       114 4.48694E+01 4.78995E+01 1.43402E+01
 -1       115 4.48694E+01 4.98155E+01 1.49138E+01
 -1       116 4.62455E+01 4.78995E+01 1.43402E+01
 -1       117 4.62455E+01 4.98155E+01 1.49138E+01
 -1       118 4.48694E+01 4.82963E+01 1.29410E+01
 -1       119 4.48694E+01 4.88575E+01 1.46270E+01
 -1       120 4.48694E+01 5.02281E+01 1.34586E+01
 -1       121 4.48694E+01 4.69846E+01 1.71010E+01
 -1       122 4.48694E+01 4.88640E+01 1.77850E+01
 -1       123 4.62455E+01 4.69846E+01 1.71010E+01
 -1       124 4.62455E+01 4.88640E+01 1.77850E+01
 -1       125 4.48694E+01 4.74621E+01 1.57272E+01
 -1       126 4.48694E+01 4.79243E+01 1.74430E+01
 -1       127 4.48694E+01 4.93606E+01 1.63563E+01
 -1       128 4.16848E+01 5.20000E+01 0.00000E+00
 -1       129 4.16848E+01 5.00000E+01 0.00000E+00
 -1       130 4.16848E+01 4.99154E+01 2.90724E+00
 -1       131 4.16848E+01 5.19120E+01 3.02353E+00
 -1       132 4.32771E+01 5.20000E+01 0.00000E+00
 -1       133 4.32771E+01 5.00000E+01 0.00000E+00
 -1       134 4.32771E+01 4.99154E+01 2.90724E+00
 -1       135 4.32771E+01 5.19120E+01 3.02353E+00
 -1       136 4.16848E+01 5.10000E+01 0.00000E+00
 -1       137 4.16848E+01 4.99788E+01 1.45424E+00
 -1       138 4.16848E+01 5.09137E+01 2.96539E+00
 -1       139 4.16848E+01 5.19780E+01 1.51241E+00
 -1       140 4.16848E+01 4.96619E+01 5.80465E+00
 -1       141 4.16848E+01 5.16484E+01 6.03683E+00
 -1       142 4.32771E+01 4.96619E+01 5.80465E+00
 -1       143 4.32771E+01 5.16484E+01 6.03683E+00
 -1       144 4.16848E+01 4.98097E+01 4.35779E+00
 -1       145 4.16848E+01 5.06552E+01 5.92074E+00
 -1       146 4.16848E+01 5.18021E+01 4.53210E+00
 -1       147 4.16848E+01 4.92404E+01 8.68241E+00
 -1       148 4.16848E+01 5.12100E+01 9.02971E+00
 -1       149 4.32771E+01 4.92404E+01 8.68241E+00
 -1       150 4.32771E+01 5.12100E+01 9.02971E+00
 -1       151 4.16848E+01 4.94721E+01 7.24659E+00
 -1       152 4.16848E+01 5.02252E+01 8.85606E+00
 -1       153 4.16848E+01 5.14510E+01 7.53646E+00
 -1       154 4.16848E+01 4.86522E+01 1.15308E+01
 -1       155 4.16848E+01 5.05983E+01 1.19920E+01
 -1       156 4.32771E+01 4.86522E+01 1.15308E+01
 -1       157 4.32771E+01 5.05983E+01 1.19920E+01
 -1       158 4.16848E+01 4.89670E+01 1.01109E+01
 -1       159 4.16848E+01 4.96253E+01 1.17614E+01
 -1       160 4.16848E+01 5.09257E+01 1.05153E+01
 -1       161 4.16848E+01 4.78995E+01 1.43402E+01
 -1       162 4.16848E+01 4.98155E+01 1.49138E+01
 -1       163 4.32771E+01 4.78995E+01 1.43402E+01
 -1       164 4.32771E+01 4.98155E+01 1.49138E+01
 -1       165 4.16848E+01 4.82963E+01 1.29410E+01
 -1       166 4.16848E+01 4.88575E+01 1.46270E+01
 -1       167 4.16848E+01 5.02281E+01 1.34586E+01
 -1       168 4.16848E+01 4.69846E+01 1.71010E+01
 -1       169 4.16848E+01 4.88640E+01 1.77850E+01
 -1       170 4.32771E+01 4.69846E+01 1.71010E+01
 -1       171 4.32771E+01 4.88640E+01 1.77850E+01
 -1       172 4.16848E+01 4.74621E+01 1.57272E+01
 -1       173 4.16848E+01 4.79243E+01 1.74430E+01
 -1       174 4.16848E+01 4.93606E+01 1.63563E+01
 -1       175 3.80000E+01 5.20000E+01 0.00000E+00
 -1       176 3.80000E+01 5.00000E+01 0.00000E+00
 -1       177 3.80000E+01 4.99154E+01 2.90724E+00
 -1       178 3.80000E+01 5.19120E+01 3.02353E+00
 -1       179 3.98424E+01 5.20000E+01 0.00000E+00
 -1       180 3.98424E+01 5.00000E+01 0.00000E+00
 -1       181 3.98424E+01 4.99154E+01 2.90724E+00
 -1       182 3.98424E+01 5.19120E+01 3.02353E+00
 -1       183 3.80000E+01 5.10000E+01 0.00000E+00
 -1       184 3.80000E+01 4.99788E+01 1.45424E+00
 -1       185 3.80000E+01 5.09137E+01 2.96539E+00
 -1       186 3.80000E+01 5.19780E+01 1.51241E+00
 -1       187 3.80000E+01 4.96619E+01 5.80465E+00
 -1       188 3.80000E+01 5.16484E+01 6.03683E+00
 -1       189 3.98424E+01 4.96619E+01 5.80465E+00
 -1       190 3.98424E+01 5.16484E+01 6.03683E+00
 -1       191 3.80000E+01 4.98097E+01 4.35779E+00
 -1       192 3.80000E+01 5.06552E+01 5.92074E+00
 -1       193 3.80000E+01 5.18021E+01 4.53210E+00
 -1       194 3.80000E+01 4.92404E+01 8.68241E+00
 -1       195 3.80000E+01 5.12100E+01 9.02971E+00
 -1       196 3.98424E+01 4.92404E+01 8.68241E+00
 -1       197 3.98424E+01 5.12100E+01 9.02971E+00
 -1       198 3.80000E+01 4.94721E+01 7.24659E+00
 -1       199 3.80000E+01 5.02252E+01 8.85606E+00
 -1       200 3.80000E+01 5.14510E+01 7.53646E+00
 -1       201 3.80000E+01 4.86522E+01 1.15308E+01
 -1       202 3.80000E+01 5.05983E+01 1.19920E+01
 -1       203 3.98424E+01 4.86522E+01 1.15308E+01
 -1       204 3.98424E+01 5.05983E+01 1.19920E+01
 -1       205 3.80000E+01 4.89670E+01 1.01109E+01
 -1       206 3.80000E+01 4.96253E+01 1.17614E+01
 -1       207 3.80000E+01 5.09257E+01 1.05153E+01
 -1       208 3.80000E+01 4.78995E+01 1.43402E+01
 -1       209 3.80000E+01 4.98155E+01 1.49138E+01
 -1       210 3.98424E+01 4.78995E+01 1.43402E+01
 -1       211 3.98424E+01 4.98155E+01 1.49138E+01
 -1       212 3.80000E+01 4.82963E+01 1.29410E+01
 -1       213 3.80000E+01 4.88575E+01 1.46270E+01
 -1       214 3.80000E+01 5.02281E+01 1.34586E+01
 -1       215 3.80000E+01 4.69846E+01 1.71010E+01
 -1       216 3.80000E+01 4.88640E+01 1.77850E+01
 -1       217 3.98424E+01 4.69846E+01 1.71010E+01
 -1       218 3.98424E+01 4.88640E+01 1.77850E+01
 -1       219 3.80000E+01 4.74621E+01 1.57272E+01
 -1       220 3.80000E+01 4.79243E+01 1.74430E+01
 -1       221 3.80000E+01 4.93606E+01 1.63563E+01
 -1       222 3.37362E+01 5.20000E+01 0.00000E+00
 -1       223 3.37362E+01 5.00000E+01 0.00000E+00
 -1       224 3.37362E+01 4.99154E+01 2.90724E+00
 -1       225 3.37362E+01 5.19120E+01 3.02353E+00
 -1       226 3.58681E+01 5.20000E+01 0.00000E+00
 -1       227 3.58681E+01 5.00000E+01 0.00000E+00
 -1       228 3.58681E+01 4.99154E+01 2.90724E+00
 -1       229 3.58681E+01 5.19120E+01 3.02353E+00
 -1       230 3.37362E+01 5.10000E+01-1.77636E-15
 -1       231 3.37362E+01 4.99788E+01 1.45424E+00
 -1       232 3.37362E+01 5.09137E+01 2.96539E+00
 -1       233 3.37362E+01 5.19780E+01 1.51241E+00
 -1       234 3.37362E+01 4.96619E+01 5.80465E+00
 -1       235 3.37362E+01 5.16484E+01 6.03683E+00
 -1       236 3.58681E+01 4.96619E+01 5.80465E+00
 -1       237 3.58681E+01 5.16484E+01 6.03683E+00
 -1       238 3.37362E+01 4.98097E+01 4.35779E+00
 -1       239 3.37362E+01 5.06552E+01 5.92074E+00
 -1       240 3.37362E+01 5.18021E+01 4.53210E+00
 -1       241 3.37362E+01 4.92404E+01 8.68241E+00
 -1       242 3.37362E+01 5.12100E+01 9.02971E+00
 -1       243 3.58681E+01 4.92404E+01 8.68241E+00
 -1       244 3.58681E+01 5.12100E+01 9.02971E+00
 -1       245 3.37362E+01 4.94721E+01 7.24659E+00
 -1       246 3.37362E+01 5.02252E+01 8.85606E+00
 -1       247 3.37362E+01 5.14510E+01 7.53646E+00
 -1       248 3.37362E+01 4.86522E+01 1.15308E+01
 -1       249 3.37362E+01 5.05983E+01 1.19920E+01
 -1       250 3.58681E+01 4.86522E+01 1.15308E+01
 -1       251 3.58681E+01 5.05983E+01 1.19920E+01
 -1       252 3.37362E+01 4.89670E+01 1.01109E+01
 -1       253 3.37362E+01 4.96253E+01 1.17614E+01
 -1       254 3.37362E+01 5.09257E+01 1.05153E+01
 -1       255 3.37362E+01 4.78995E+01 1.43402E+01
 -1       256 3.37362E+01 4.98155E+01 1.49138E+01
 -1       257 3.58681E+01 4.78995E+01 1.43402E+01
 -1       258 3.58681E+01 4.98155E+01 1.49138E+01
 -1       259 3.37362E+01 4.82963E+01 1.29410E+01
 -1       260 3.37362E+01 4.88575E+01 1.46270E+01
 -1       261 3.37362E+01 5.02281E+01 1.34586E+01
 -1       262 3.37362E+01 4.69846E+01 1.71010E+01
 -1       263 3.37362E+01 4.88640E+01 1.77850E+01
 -1       264 3.58681E+01 4.69846E+01 1.71010E+01
 -1       265 3.58681E+01 4.88640E+01 1.77850E+01
 -1       266 3.37362E+01 4.74621E+01 1.57272E+01
 -1       267 3.37362E+01 4.79243E+01 1.74430E+01
 -1       268 3.37362E+01 4.93606E+01 1.63563E+01
 -1       269 2.88025E+01 5.20000E+01 0.00000E+00
 -1       270 2.88025E+01 5.00000E+01 0.00000E+00
 -1       271 2.88025E+01 4.99154E+01 2.90724E+00
 -1       272 2.88025E+01 5.19120E+01 3.02353E+00
 -1       273 3.12693E+01 5.20000E+01 0.00000E+00
 -1       274 3.12693E+01 5.00000E+01 0.00000E+00
 -1       275 3.12693E+01 4.99154E+01 2.90724E+00
 -1       276 3.12693E+01 5.19120E+01 3.02353E+00
 -1       277 2.88025E+01 5.10000E+01-1.77636E-15
 -1       278 2.88025E+01 4.99788E+01 1.45424E+00
 -1       279 2.88025E+01 5.09137E+01 2.96539E+00
 -1       280 2.88025E+01 5.19780E+01 1.51241E+00
 -1       281 2.88025E+01 4.96619E+01 5.80465E+00
 -1       282 2.88025E+01 5.16484E+01 6.03683E+00
 -1       283 3.12693E+01 4.96619E+01 5.80465E+00
 -1       284 3.12693E+01 5.16484E+01 6.03683E+00
 -1       285 2.88025E+01 4.98097E+01 4.35779E+00
 -1       286 2.88025E+01 5.06552E+01 5.92074E+00
 -1       287 2.88025E+01 5.18021E+01 4.53210E+00
 -1       288 2.88025E+01 4.92404E+01 8.68241E+00
 -1       289 2.88025E+01 5.12100E+01 9.02971E+00
 -1       290 3.12693E+01 4.92404E+01 8.68241E+00
 -1       291 3.12693E+01 5.12100E+01 9.02971E+00
 -1       292 2.88025E+01 4.94721E+01 7.24659E+00
 -1       293 2.88025E+01 5.02252E+01 8.85606E+00
 -1       294 2.88025E+01 5.14510E+01 7.53646E+00
 -1       295 2.88025E+01 4.86522E+01 1.15308E+01
 -1       296 2.88025E+01 5.05983E+01 1.19920E+01
 -1       297 3.12693E+01 4.86522E+01 1.15308E+01
 -1       298 3.12693E+01 5.05983E+01 1.19920E+01
 -1       299 2.88025E+01 4.89670E+01 1.01109E+01
 -1       300 2.88025E+01 4.96253E+01 1.17614E+01
 -1       301 2.88025E+01 5.09257E+01 1.05153E+01
 -1       302 2.88025E+01 4.78995E+01 1.43402E+01
 -1       303 2.88025E+01 4.98155E+01 1.49138E+01
 -1       304 3.12693E+01 4.78995E+01 1.43402E+01
 -1       305 3.12693E+01 4.98155E+01 1.49138E+01
 -1       306 2.88025E+01 4.82963E+01 1.29410E+01
 -1       307 2.88025E+01 4.88575E+01 1.46270E+01
 -1       308 2.88025E+01 5.02281E+01 1.34586E+01
 -1       309 2.88025E+01 4.69846E+01 1.71010E+01
 -1       310 2.88025E+01 4.88640E+01 1.77850E+01
 -1       311 3.12693E+01 4.69846E+01 1.71010E+01
 -1       312 3.12693E+01 4.88640E+01 1.77850E+01
 -1       313 2.88025E+01 4.74621E+01 1.57272E+01
 -1       314 2.88025E+01 4.79243E+01 1.74430E+01
 -1       315 2.88025E+01 4.93606E+01 1.63563E+01
 -1       316 2.30937E+01 5.20000E+01 0.00000E+00
 -1       317 2.30937E+01 5.00000E+01 0.00000E+00
 -1       318 2.30937E+01 4.99154E+01 2.90724E+00
 -1       319 2.30937E+01 5.19120E+01 3.02353E+00
 -1       320 2.59481E+01 5.20000E+01 0.00000E+00
 -1       321 2.59481E+01 5.00000E+01 0.00000E+00
 -1       322 2.59481E+01 4.99154E+01 2.90724E+00
 -1       323 2.59481E+01 5.19120E+01 3.02353E+00
 -1       324 2.30937E+01 5.10000E+01 1.77636E-15
 -1       325 2.30937E+01 4.99788E+01 1.45424E+00
 -1       326 2.30937E+01 5.09137E+01 2.96539E+00
 -1       327 2.30937E+01 5.19780E+01 1.51241E+00
 -1       328 2.30937E+01 4.96619E+01 5.80465E+00
 -1       329 2.30937E+01 5.16484E+01 6.03683E+00
 -1       330 2.59481E+01 4.96619E+01 5.80465E+00
 -1       331 2.59481E+01 5.16484E+01 6.03683E+00
 -1       332 2.30937E+01 4.98097E+01 4.35779E+00
 -1       333 2.30937E+01 5.06552E+01 5.92074E+00
 -1       334 2.30937E+01 5.18021E+01 4.53210E+00
 -1       335 2.30937E+01 4.92404E+01 8.68241E+00
 -1       336 2.30937E+01 5.12100E+01 9.02971E+00
 -1       337 2.59481E+01 4.92404E+01 8.68241E+00
 -1       338 2.59481E+01 5.12100E+01 9.02971E+00
 -1       339 2.30937E+01 4.94721E+01 7.24659E+00
 -1       340 2.30937E+01 5.02252E+01 8.85606E+00
 -1       341 2.30937E+01 5.14510E+01 7.53646E+00
 -1       342 2.30937E+01 4.86522E+01 1.15308E+01
 -1       343 2.30937E+01 5.05983E+01 1.19920E+01
 -1       344 2.59481E+01 4.86522E+01 1.15308E+01
 -1       345 2.59481E+01 5.05983E+01 1.19920E+01
 -1       346 2.30937E+01 4.89670E+01 1.01109E+01
 -1       347 2.30937E+01 4.96253E+01 1.17614E+01
 -1       348 2.30937E+01 5.09257E+01 1.05153E+01
 -1       349 2.30937E+01 4.78995E+01 1.43402E+01
 -1       350 2.30937E+01 4.98155E+01 1.49138E+01
 -1       351 2.59481E+01 4.78995E+01 1.43402E+01
 -1       352 2.59481E+01 4.98155E+01 1.49138E+01
 -1       353 2.30937E+01 4.82963E+01 1.29410E+01
 -1       354 2.30937E+01 4.88575E+01 1.46270E+01
 -1       355 2.30937E+01 5.02281E+01 1.34586E+01
 -1       356 2.30937E+01 4.69846E+01 1.71010E+01
 -1       357 2.30937E+01 4.88640E+01 1.77850E+01
 -1       358 2.59481E+01 4.69846E+01 1.71010E+01
 -1       359 2.59481E+01 4.88640E+01 1.77850E+01
 -1       360 2.30937E+01 4.74621E+01 1.57272E+01
 -1       361 2.30937E+01 4.79243E+01 1.74430E+01
 -1       362 2.30937E+01 4.93606E+01 1.63563E+01
 -1       363 1.64880E+01 5.20000E+01 0.00000E+00
 -1       364 1.64880E+01 5.00000E+01 0.00000E+00
 -1       365 1.64880E+01 4.99154E+01 2.90724E+00
 -1       366 1.64880E+01 5.19120E+01 3.02353E+00
 -1       367 1.97908E+01 5.20000E+01 0.00000E+00
 -1       368 1.97908E+01 5.00000E+01 0.00000E+00
 -1       369 1.97908E+01 4.99154E+01 2.90724E+00
 -1       370 1.97908E+01 5.19120E+01 3.02353E+00
 -1       371 1.64880E+01 5.10000E+01 0.00000E+00
 -1       372 1.64880E+01 4.99788E+01 1.45424E+00
 -1       373 1.64880E+01 5.09137E+01 2.96539E+00
 -1       374 1.64880E+01 5.19780E+01 1.51241E+00
 -1       375 1.64880E+01 4.96619E+01 5.80465E+00
 -1       376 1.64880E+01 5.16484E+01 6.03683E+00
 -1       377 1.97908E+01 4.96619E+01 5.80465E+00
 -1       378 1.97908E+01 5.16484E+01 6.03683E+00
 -1       379 1.64880E+01 4.98097E+01 4.35779E+00
 -1       380 1.64880E+01 5.06552E+01 5.92074E+00
 -1       381 1.64880E+01 5.18021E+01 4.53210E+00
 -1       382 1.64880E+01 4.92404E+01 8.68241E+00
 -1       383 1.64880E+01 5.12100E+01 9.02971E+00
 -1       384 1.97908E+01 4.92404E+01 8.68241E+00
 -1       385 1.97908E+01 5.12100E+01 9.02971E+00
 -1       386 1.64880E+01 4.94721E+01 7.24659E+00
 -1       387 1.64880E+01 5.02252E+01 8.85606E+00
 -1       388 1.64880E+01 5.14510E+01 7.53646E+00
 -1       389 1.64880E+01 4.86522E+01 1.15308E+01
 -1       390 1.64880E+01 5.05983E+01 1.19920E+01
 -1       391 1.97908E+01 4.86522E+01 1.15308E+01
 -1       392 1.97908E+01 5.05983E+01 1.19920E+01
 -1       393 1.64880E+01 4.89670E+01 1.01109E+01
 -1       394 1.64880E+01 4.96253E+01 1.17614E+01
 -1       395 1.64880E+01 5.09257E+01 1.05153E+01
 -1       396 1.64880E+01 4.78995E+01 1.43402E+01
 -1       397 1.64880E+01 4.98155E+01 1.49138E+01
 -1       398 1.97908E+01 4.78995E+01 1.43402E+01
 -1       399 1.97908E+01 4.98155E+01 1.49138E+01
 -1       400 1.64880E+01 4.82963E+01 1.29410E+01
 -1       401 1.64880E+01 4.88575E+01 1.46270E+01
 -1       402 1.64880E+01 5.02281E+01 1.34586E+01
 -1       403 1.64880E+01 4.69846E+01 1.71010E+01
 -1       404 1.64880E+01 4.88640E+01 1.77850E+01
 -1       405 1.97908E+01 4.69846E+01 1.71010E+01
 -1       406 1.97908E+01 4.88640E+01 1.77850E+01
 -1       407 1.64880E+01 4.74621E+01 1.57272E+01
 -1       408 1.64880E+01 4.79243E+01 1.74430E+01
 -1       409 1.64880E+01 4.93606E+01 1.63563E+01
 -1       410 8.84443E+00 5.20000E+01 0.00000E+00
 -1       411 8.84443E+00 5.00000E+01 0.00000E+00
 -1       412 8.84443E+00 4.99154E+01 2.90724E+00
 -1       413 8.84443E+00 5.19120E+01 3.02353E+00
 -1       414 1.26662E+01 5.20000E+01 0.00000E+00
 -1       415 1.26662E+01 5.00000E+01 0.00000E+00
 -1       416 1.26662E+01 4.99154E+01 2.90724E+00
 -1       417 1.26662E+01 5.19120E+01 3.02353E+00
 -1       418 8.84443E+00 5.10000E+01 0.00000E+00
 -1       419 8.84443E+00 4.99788E+01 1.45424E+00
 -1       420 8.84443E+00 5.09137E+01 2.96539E+00
 -1       421 8.84443E+00 5.19780E+01 1.51241E+00
 -1       422 8.84443E+00 4.96619E+01 5.80465E+00
 -1       423 8.84443E+00 5.16484E+01 6.03683E+00
 -1       424 1.26662E+01 4.96619E+01 5.80465E+00
 -1       425 1.26662E+01 5.16484E+01 6.03683E+00
 -1       426 8.84443E+00 4.98097E+01 4.35779E+00
 -1       427 8.84443E+00 5.06552E+01 5.92074E+00
 -1       428 8.84443E+00 5.18021E+01 4.53210E+00
 -1       429 8.84443E+00 4.92404E+01 8.68241E+00
 -1       430 8.84443E+00 5.12100E+01 9.02971E+00
 -1       431 1.26662E+01 4.92404E+01 8.68241E+00
 -1       432 1.26662E+01 5.12100E+01 9.02971E+00
 -1       433 8.84443E+00 4.94721E+01 7.24659E+00
 -1       434 8.84443E+00 5.02252E+01 8.85606E+00
 -1       435 8.84443E+00 5.14510E+01 7.53646E+00
 -1       436 8.84443E+00 4.86522E+01 1.15308E+01
 -1       437 8.84443E+00 5.05983E+01 1.19920E+01
 -1       438 1.26662E+01 4.86522E+01 1.15308E+01
 -1       439 1.26662E+01 5.05983E+01 1.19920E+01
 -1       440 8.84443E+00 4.89670E+01 1.01109E+01
 -1       441 8.84443E+00 4.96253E+01 1.17614E+01
 -1       442 8.84443E+00 5.09257E+01 1.05153E+01
 -1       443 8.84443E+00 4.78995E+01 1.43402E+01
 -1       444 8.84443E+00 4.98155E+01 1.49138E+01
 -1       445 1.26662E+01 4.78995E+01 1.43402E+01
 -1       446 1.26662E+01 4.98155E+01 1.49138E+01
 -1       447 8.84443E+00 4.82963E+01 1.29410E+01
 -1       448 8.84443E+00 4.88575E+01 1.46270E+01
 -1       449 8.84443E+00 5.02281E+01 1.34586E+01
 -1       450 8.84443E+00 4.69846E+01 1.71010E+01
 -1       451 8.84443E+00 4.88640E+01 1.77850E+01
 -1       452 1.26662E+01 4.69846E+01 1.71010E+01
 -1       453 1.26662E+01 4.88640E+01 1.77850E+01
 -1       454 8.84443E+00 4.74621E+01 1.57272E+01
 -1       455 8.84443E+00 4.79243E+01 1.74430E+01
 -1       456 8.84443E+00 4.93606E+01 1.63563E+01
 -1       457 0.00000E+00 5.20000E+01 0.00000E+00
 -1       458 0.00000E+00 5.00000E+01 0.00000E+00
 -1       459 0.00000E+00 4.99154E+01 2.90724E+00
 -1       460 0.00000E+00 5.19120E+01 3.02353E+00
 -1       461 4.42221E+00 5.20000E+01 0.00000E+00
 -1       462 4.42221E+00 5.00000E+01 0.00000E+00
 -1       463 4.42221E+00 4.99154E+01 2.90724E+00
 -1       464 4.42221E+00 5.19120E+01 3.02353E+00
 -1       465 0.00000E+00 5.10000E+01 0.00000E+00
 -1       466 0.00000E+00 4.99788E+01 1.45424E+00
 -1       467 0.00000E+00 5.09137E+01 2.96539E+00
 -1       468 0.00000E+00 5.19780E+01 1.51241E+00
 -1       469 0.00000E+00 4.96619E+01 5.80465E+00
 -1       470 0.00000E+00 5.16484E+01 6.03683E+00
 -1       471 4.42221E+00 4.96619E+01 5.80465E+00
 -1       472 4.42221E+00 5.16484E+01 6.03683E+00
 -1       473 0.00000E+00 4.98097E+01 4.35779E+00
 -1       474-7.10543E-15 5.06552E+01 5.92074E+00
 -1       475 0.00000E+00 5.18021E+01 4.53210E+00
 -1       476 0.00000E+00 4.92404E+01 8.68241E+00
 -1       477 0.00000E+00 5.12100E+01 9.02971E+00
 -1       478 4.42221E+00 4.92404E+01 8.68241E+00
 -1       479 4.42221E+00 5.12100E+01 9.02971E+00
 -1       480 0.00000E+00 4.94721E+01 7.24659E+00
 -1       481 0.00000E+00 5.02252E+01 8.85606E+00
 -1       482 0.00000E+00 5.14510E+01 7.53646E+00
 -1       483 0.00000E+00 4.86522E+01 1.15308E+01
 -1       484 0.00000E+00 5.05983E+01 1.19920E+01
 -1       485 4.42221E+00 4.86522E+01 1.15308E+01
 -1       486 4.42221E+00 5.05983E+01 1.19920E+01
 -1       487 0.00000E+00 4.89670E+01 1.01109E+01
 -1       488-7.10543E-15 4.96253E+01 1.17614E+01
 -1       489 0.00000E+00 5.09257E+01 1.05153E+01
 -1       490 0.00000E+00 4.78995E+01 1.43402E+01
 -1       491 0.00000E+00 4.98155E+01 1.49138E+01
 -1       492 4.42221E+00 4.78995E+01 1.43402E+01
 -1       493 4.42221E+00 4.98155E+01 1.49138E+01
 -1       494 0.00000E+00 4.82963E+01 1.29410E+01
 -1       495 0.00000E+00 4.88575E+01 1.46270E+01
 -1       496 0.00000E+00 5.02281E+01 1.34586E+01
 -1       497 0.00000E+00 4.69846E+01 1.71010E+01
 -1       498 0.00000E+00 4.88640E+01 1.77850E+01
 -1       499 4.42221E+00 4.69846E+01 1.71010E+01
 -1       500 4.42221E+00 4.88640E+01 1.77850E+01
 -1       501 0.00000E+00 4.74621E+01 1.57272E+01
 -1       502 0.00000E+00 4.79243E+01 1.74430E+01
 -1       503 0.00000E+00 4.93606E+01 1.63563E+01
 -1       504 1.00000E+02 4.98097E+01-4.35779E+00
 -1       505 9.11556E+01 4.98097E+01-4.35779E+00
 -1       506 9.11556E+01 4.99881E+01-1.09075E+00
 -1       507 1.00000E+02 4.99881E+01-1.09075E+00
 -1       508 1.00000E+02 5.18021E+01-4.53210E+00
 -1       509 9.11556E+01 5.18021E+01-4.53210E+00
 -1       510 9.11556E+01 5.19876E+01-1.13438E+00
 -1       511 1.00000E+02 5.19876E+01-1.13438E+00
 -1       512 9.55778E+01 4.98097E+01-4.35779E+00
 -1       513 9.11556E+01 4.99257E+01-2.72573E+00
 -1       514 9.55778E+01 4.99881E+01-1.09075E+00
 -1       515 1.00000E+02 4.99257E+01-2.72573E+00
 -1       516 1.00000E+02 5.08059E+01-4.44494E+00
 -1       517 9.11556E+01 5.08059E+01-4.44494E+00
 -1       518 9.11556E+01 5.09879E+01-1.11256E+00
 -1       519 1.00000E+02 5.09879E+01-1.11256E+00
 -1       520 9.55778E+01 5.18021E+01-4.53210E+00
 -1       521 9.11556E+01 5.19227E+01-2.83476E+00
 -1       522 9.55778E+01 5.19876E+01-1.13438E+00
 -1       523 1.00000E+02 5.19227E+01-2.83476E+00
 -1       524 9.11556E+01 4.99524E+01 2.18097E+00
 -1       525 1.00000E+02 4.99524E+01 2.18097E+00
 -1       526 9.11556E+01 5.19505E+01 2.26821E+00
 -1       527 1.00000E+02 5.19505E+01 2.26821E+00
 -1       528 9.11556E+01 4.99970E+01 5.45402E-01
 -1       529 9.55778E+01 4.99524E+01 2.18097E+00
 -1       530 1.00000E+02 4.99970E+01 5.45402E-01
 -1       531 9.11556E+01 5.09515E+01 2.22459E+00
 -1       532 1.00000E+02 5.09515E+01 2.22459E+00
 -1       533 9.11556E+01 5.19969E+01 5.67220E-01
 -1       534 9.55778E+01 5.19505E+01 2.26821E+00
 -1       535 1.00000E+02 5.19969E+01 5.67220E-01
 -1       536 9.11556E+01 4.97028E+01 5.44334E+00
 -1       537 1.00000E+02 4.97028E+01 5.44334E+00
 -1       538 9.11556E+01 5.16909E+01 5.66108E+00
 -1       539 1.00000E+02 5.16909E+01 5.66108E+00
 -1       540 9.11556E+01 4.98543E+01 3.81420E+00
 -1       541 9.55778E+01 4.97028E+01 5.44334E+00
 -1       542 1.00000E+02 4.98543E+01 3.81420E+00
 -1       543 9.11556E+01 5.06969E+01 5.55221E+00
 -1       544 1.00000E+02 5.06969E+01 5.55221E+00
 -1       545 9.11556E+01 5.18485E+01 3.96677E+00
 -1       546 9.55778E+01 5.16909E+01 5.66108E+00
 -1       547 1.00000E+02 5.18485E+01 3.96677E+00
 -1       548 9.11556E+01 4.92404E+01 8.68241E+00
 -1       549 1.00000E+02 4.92404E+01 8.68241E+00
 -1       550 9.11556E+01 5.12100E+01 9.02970E+00
 -1       551 1.00000E+02 5.12100E+01 9.02970E+00
 -1       552 9.11556E+01 4.94981E+01 7.06666E+00
 -1       553 9.55778E+01 4.92404E+01 8.68241E+00
 -1       554 1.00000E+02 4.94981E+01 7.06666E+00
 -1       555 9.11556E+01 5.02252E+01 8.85606E+00
 -1       556 1.00000E+02 5.02252E+01 8.85606E+00
 -1       557 9.11556E+01 5.14780E+01 7.34933E+00
 -1       558 9.55778E+01 5.12100E+01 9.02970E+00
 -1       559 1.00000E+02 5.14780E+01 7.34933E+00
 -1       560 9.11556E+01 4.85671E+01 1.18843E+01
 -1       561 1.00000E+02 4.85671E+01 1.18843E+01
 -1       562 9.11556E+01 5.05098E+01 1.23597E+01
 -1       563 1.00000E+02 5.05098E+01 1.23597E+01
 -1       564 9.11556E+01 4.89299E+01 1.02889E+01
 -1       565 9.55778E+01 4.85671E+01 1.18843E+01
 -1       566 1.00000E+02 4.89299E+01 1.02889E+01
 -1       567 9.11556E+01 4.95384E+01 1.21220E+01
 -1       568 1.00000E+02 4.95384E+01 1.21220E+01
 -1       569 9.11556E+01 5.08871E+01 1.07004E+01
 -1       570 9.55778E+01 5.05098E+01 1.23597E+01
 -1       571 1.00000E+02 5.08871E+01 1.07004E+01
 -1       572 9.11556E+01 4.76858E+01 1.50353E+01
 -1       573 1.00000E+02 4.76858E+01 1.50353E+01
 -1       574 9.11556E+01 4.95933E+01 1.56367E+01
 -1       575 1.00000E+02 4.95933E+01 1.56367E+01
 -1       576 9.11556E+01 4.81523E+01 1.34670E+01
 -1       577 9.55778E+01 4.76858E+01 1.50353E+01
 -1       578 1.00000E+02 4.81523E+01 1.34670E+01
 -1       579 9.11556E+01 4.86396E+01 1.53360E+01
 -1       580 1.00000E+02 4.86396E+01 1.53360E+01
 -1       581 9.11556E+01 5.00784E+01 1.40057E+01
 -1       582 9.55778E+01 4.95933E+01 1.56367E+01
 -1       583 1.00000E+02 5.00784E+01 1.40057E+01