<?xml version="1.0"?>
<VTKFile type="UnstructuredGrid" version="0.1" byte_order="LittleEndian">
	<UnstructuredGrid>
		<Piece NumberOfPoints="10" NumberOfCells="6">
			<Points>
				<DataArray type="Float64" NumberOfComponents="3" format="ascii">
					 1.00000000E+00	 0.00000000E+00	 0.00000000E+00
					 2.00000000E+00	 0.00000000E+00	 0.00000000E+00
					 3.00000000E+00	 0.00000000E+00	 0.00000000E+00
					 4.00000000E+00	 0.00000000E+00	 0.00000000E+00
					 5.00000000E+00	 0.00000000E+00	 0.00000000E+00
					 1.00000000E+00	 1.00000000E+00	 0.00000000E+00
					 2.00000000E+00	 1.00000000E+00	 0.00000000E+00
					 3.00000000E+00	 1.00000000E+00	 0.00000000E+00
					 4.00000000E+00	 1.00000000E+00	 0.00000000E+00
					 5.00000000E+00	 1.00000000E+00	 0.00000000E+00
				</DataArray>
			</Points>
			<Cells>
				<DataArray type="Int32" Name="connectivity" format="ascii">
					0 1 1 3 2 3 4 6 8 7 5 6 8 9 
				</DataArray>
				<DataArray type="Int32" Name="offsets" format="ascii">
					2 5 7 10 12 14 
				</DataArray>
				<DataArray type="UInt8" Name="types" format="ascii">
					3 21 3 21 3 3 
				</DataArray>
			</Cells>
			<PointData>
				<DataArray type="Float32" Name="TOTEMP" NumberOfComponents="1" ComponentName0="TT" format="ascii">
					 8.19000000E+02
					 8.19000000E+02
					 8.19000000E+02
					 8.19000000E+02
					 8.19000000E+02
					 8.19000000E+02
					 8.19000000E+02
					 8.19000000E+02
					 8.19000000E+02
					 8.19000000E+02
				</DataArray>
				<DataArray type="Float32" Name="MAFLOW" NumberOfComponents="1" ComponentName0="MF" format="ascii">
					 5.02030000E-01
					 5.02030000E-01
					 5.02030000E-01
					 5.02030000E-01
					 5.02030000E-01
					 5.02030000E-01
					 5.02030000E-01
					 5.02030000E-01
					 5.02030000E-01
					 5.02030000E-01
				</DataArray>
				<DataArray type="Float32" Name="TOPRES" NumberOfComponents="1" ComponentName0="PT" format="ascii">
					 5.44300000E+05
					 5.44300000E+05
					 5.42150000E+05
					 5.40000000E+05
					 5.40000000E+05
					 5.40000000E+05
					 5.40000000E+05
					 5.37780000E+05
					 5.35560000E+05
					 5.35560000E+05
				</DataArray>
				<DataArray type="Float32" Name="STTEMP" NumberOfComponents="1" ComponentName0="TS" format="ascii">
					 7.46337000E+02
					 7.46337000E+02
					 7.45013000E+02
					 7.43689000E+02
					 7.43689000E+02
					 7.43689000E+02
					 7.43689000E+02
					 7.42181000E+02
					 7.40673000E+02
					 7.40673000E+02
				</DataArray>
			</PointData>
		</Piece>
	</UnstructuredGrid>
</VTKFile>