<?xml version="1.0"?>
<VTKFile type="UnstructuredGrid" version="0.1" byte_order="LittleEndian">
	<UnstructuredGrid>
		<Piece NumberOfPoints="36" NumberOfCells="3">
			<Points>
				<DataArray type="Float64" NumberOfComponents="3" format="ascii">
					 0.00000000E+00	 0.00000000E+00	-5.00000000E-01
					 0.00000000E+00	 0.00000000E+00	 0.00000000E+00
					 0.00000000E+00	 0.00000000E+00	 5.00000000E-01
					 1.00000000E+00	 0.00000000E+00	-5.00000000E-01
					 1.00000000E+00	 0.00000000E+00	 0.00000000E+00
					 1.00000000E+00	 0.00000000E+00	 5.00000000E-01
					 1.00000000E+00	 1.00000000E+00	-5.00000000E-01
					 1.00000000E+00	 1.00000000E+00	 0.00000000E+00
					 1.00000000E+00	 1.00000000E+00	 5.00000000E-01
					 9.64645000E-01	 9.64645000E-01	 5.00000000E-02
					 1.03536000E+00	 1.03536000E+00	 5.00000000E-02
					 1.03536000E+00	 1.03536000E+00	-5.00000000E-02
					 9.64645000E-01	 9.64645000E-01	-5.00000000E-02
					 0.00000000E+00	 1.00000000E+00	-5.00000000E-01
					 0.00000000E+00	 1.00000000E+00	 0.00000000E+00
					 0.00000000E+00	 1.00000000E+00	 5.00000000E-01
					 3.53553000E-02	 9.64645000E-01	-5.00000000E-02
					-3.53553000E-02	 1.03536000E+00	-5.00000000E-02
					-3.53553000E-02	 1.03536000E+00	 5.00000000E-02
					 3.53553000E-02	 9.64645000E-01	 5.00000000E-02
					 5.00000000E-01	 0.00000000E+00	-5.00000000E-01
					 5.00000000E-01	 0.00000000E+00	 5.00000000E-01
					 1.00000000E+00	 5.00000000E-01	-5.00000000E-01
					 1.00000000E+00	 5.00000000E-01	 5.00000000E-01
					 5.00000000E-01	 1.00000000E+00	-5.00000000E-01
					 5.00000000E-01	 1.00000000E+00	 5.00000000E-01
					 0.00000000E+00	 5.00000000E-01	-5.00000000E-01
					 0.00000000E+00	 5.00000000E-01	 5.00000000E-01
					 4.64645000E-01	 1.46464000E+00	 5.00000000E-02
					 5.35355000E-01	 1.53536000E+00	 5.00000000E-02
					 5.35355000E-01	 1.53536000E+00	-5.00000000E-02
					 4.64645000E-01	 1.46464000E+00	-5.00000000E-02
					 5.35355000E-01	 1.46464000E+00	-5.00000000E-02
					 4.64645000E-01	 1.53536000E+00	-5.00000000E-02
					 4.64645000E-01	 1.53536000E+00	 5.00000000E-02
					 5.35355000E-01	 1.46464000E+00	 5.00000000E-02
				</DataArray>
			</Points>
			<Cells>
				<DataArray type="Int32" Name="connectivity" format="ascii">
					0 3 6 13 2 5 8 15 20 22 24 26 21 23 25 27 1 4 7 14 9 28 29 10 12 31 30 11 16 32 33 17 19 35 34 18 
				</DataArray>
				<DataArray type="Int32" Name="offsets" format="ascii">
					20 28 36 
				</DataArray>
				<DataArray type="UInt8" Name="types" format="ascii">
					25 12 12 
				</DataArray>
			</Cells>
			<PointData>
				<DataArray type="Float32" Name="U" NumberOfComponents="3" ComponentName0="D1" ComponentName1="D2" ComponentName2="D3" format="ascii">
					 0.00000000E+00	 0.00000000E+00	 0.00000000E+00
					 0.00000000E+00	 0.00000000E+00	 0.00000000E+00
					 0.00000000E+00	 0.00000000E+00	 0.00000000E+00
					-1.66582000E-06	 0.00000000E+00	 0.00000000E+00
					-1.66582000E-06	 0.00000000E+00	 0.00000000E+00
					-1.66582000E-06	 0.00000000E+00	 0.00000000E+00
					-1.13417000E-05	 1.15118000E-05	 0.00000000E+00
					-1.13417000E-05	 1.15118000E-05	 0.00000000E+00
					-1.13417000E-05	 1.15118000E-05	 0.00000000E+00
					-2.04181000E-05	 2.77311000E-05	-5.05076000E-06
					-2.26529000E-06	-4.70743000E-06	-5.05076000E-06
					-2.26529000E-06	-4.70743000E-06	 5.05076000E-06
					-2.04181000E-05	 2.77311000E-05	 5.05076000E-06
					 9.67588000E-06	 1.15118000E-05	 0.00000000E+00
					 9.67588000E-06	 1.15118000E-05	 0.00000000E+00
					 9.67588000E-06	 1.15118000E-05	 0.00000000E+00
					 1.87523000E-05	 2.77311000E-05	 5.05076000E-06
					 5.99463000E-07	-4.70743000E-06	 5.05076000E-06
					 5.99463000E-07	-4.70743000E-06	-5.05076000E-06
					 1.87523000E-05	 2.77311000E-05	-5.05076000E-06
					-8.32911000E-07	 0.00000000E+00	 0.00000000E+00
					-8.32911000E-07	 0.00000000E+00	 0.00000000E+00
					-1.01534000E-06	 4.71922000E-06	 0.00000000E+00
					-1.01534000E-06	 4.71922000E-06	 0.00000000E+00
					-8.32911000E-07	 2.13693000E-06	 0.00000000E+00
					-8.32911000E-07	 2.13693000E-06	 0.00000000E+00
					-6.50479000E-07	 4.71922000E-06	 0.00000000E+00
					-6.50479000E-07	 4.71922000E-06	 0.00000000E+00
					-9.90933000E-06	 3.74957000E-04	-5.05076000E-06
					 8.24351000E-06	 3.42519000E-04	-5.05076000E-06
					 8.24351000E-06	 3.42519000E-04	 5.05076000E-06
					-9.90933000E-06	 3.74957000E-04	 5.05076000E-06
					 8.24351000E-06	 3.74957000E-04	 5.05076000E-06
					-9.90933000E-06	 3.42519000E-04	 5.05076000E-06
					-9.90933000E-06	 3.42519000E-04	-5.05076000E-06
					 8.24351000E-06	 3.74957000E-04	-5.05076000E-06
				</DataArray>
				<DataArray type="Float32" Name="S" NumberOfComponents="10" ComponentName0="xx" ComponentName1="yy" ComponentName2="zz" ComponentName3="xy" ComponentName4="yz" ComponentName5="zx" ComponentName6="Mises" ComponentName7="Min Principal" ComponentName8="Mid Principal" ComponentName9="Max Principal" format="ascii">
					 4.21423000E-01	 1.88018000E+00	 6.90480000E-01	-9.91674000E-01	-4.16373000E-16	-3.40356000E-16	 2.18131310E+00	-8.02185317E-02	 6.90480000E-01	 2.38182153E+00
					 4.21366000E-01	 1.88027000E+00	 6.90492000E-01	-9.91674000E-01	-3.91901000E-16	-1.47243000E-17	 2.18138778E+00	-8.02455819E-02	 6.90492000E-01	 2.38188158E+00
					 4.21423000E-01	 1.88018000E+00	 6.90480000E-01	-9.91674000E-01	 3.38500000E-16	 3.58144000E-16	 2.18131310E+00	-8.02185317E-02	 6.90480000E-01	 2.38182153E+00
					 4.21423000E-01	 1.88018000E+00	 6.90480000E-01	 9.91674000E-01	-3.01473000E-16	-3.84599000E-17	 2.18131310E+00	-8.02185317E-02	 6.90480000E-01	 2.38182153E+00
					 4.21366000E-01	 1.88027000E+00	 6.90492000E-01	 9.91674000E-01	-5.35162000E-17	 9.77850000E-17	 2.18138778E+00	-8.02455819E-02	 6.90492000E-01	 2.38188158E+00
					 4.21423000E-01	 1.88018000E+00	 6.90480000E-01	 9.91674000E-01	 2.24760000E-16	-1.15760000E-16	 2.18131310E+00	-8.02185317E-02	 6.90480000E-01	 2.38182153E+00
					-4.04439000E+00	 1.88018000E+00	-6.49263000E-01	 4.74124000E-01	-3.04444000E-15	 3.39860000E-15	 5.21412794E+00	-4.08209266E+00	-6.49263000E-01	 1.91788266E+00
					-4.04444000E+00	 1.88027000E+00	-6.49251000E-01	 4.74124000E-01	 3.82757000E-16	-1.49545000E-17	 5.21424658E+00	-4.08214179E+00	-6.49251000E-01	 1.91797179E+00
					-4.04439000E+00	 1.88018000E+00	-6.49263000E-01	 4.74124000E-01	 3.03158000E-15	-3.39047000E-15	 5.21412794E+00	-4.08209266E+00	-6.49263000E-01	 1.91788266E+00
					 3.53539000E+01	 3.53539000E+01	 2.66777000E-13	-3.53539000E+01	-2.29928000E-13	-9.60892000E-15	 7.07078000E+01	-8.48243894E-14	 3.48372150E-13	 7.07078000E+01
					 3.53539000E+01	 3.53539000E+01	 8.58135000E-13	-3.53539000E+01	 4.92747000E-13	 1.27618000E-13	 7.07078000E+01	-1.85927177E-13	 1.04244047E-12	 7.07078000E+01
					 3.53539000E+01	 3.53539000E+01	 2.55193000E-13	-3.53539000E+01	 4.35348000E-13	-4.39282000E-14	 7.07078000E+01	-1.75085073E-13	 4.33228402E-13	 7.07078000E+01
					 3.53539000E+01	 3.53539000E+01	-6.51238000E-13	-3.53539000E+01	-3.77058000E-13	-1.52572000E-13	 7.07078000E+01	-8.20857934E-13	 1.75633965E-13	 7.07078000E+01
					-4.04439000E+00	 1.88018000E+00	-6.49263000E-01	-4.74124000E-01	 7.79838000E-16	-8.40779000E-16	 5.21412794E+00	-4.08209266E+00	-6.49263000E-01	 1.91788266E+00
					-4.04444000E+00	 1.88027000E+00	-6.49251000E-01	-4.74124000E-01	 8.35672000E-17	-7.71340000E-17	 5.21424658E+00	-4.08214179E+00	-6.49251000E-01	 1.91797179E+00
					-4.04439000E+00	 1.88018000E+00	-6.49263000E-01	-4.74124000E-01	-8.46125000E-16	 7.63766000E-16	 5.21412794E+00	-4.08209266E+00	-6.49263000E-01	 1.91788266E+00
					 3.53539000E+01	 3.53539000E+01	-6.95026000E-13	 3.53539000E+01	-4.50203000E-13	-3.64602000E-13	 7.07078000E+01	-7.00248355E-13	 6.52823651E-15	 7.07078000E+01
					 3.53539000E+01	 3.53539000E+01	 6.26366000E-14	 3.53539000E+01	 1.76993000E-13	-7.12785000E-14	 7.07078000E+01	-1.47780342E-13	 2.09104696E-13	 7.07078000E+01
					 3.53539000E+01	 3.53539000E+01	 4.00854000E-13	 3.53539000E+01	 1.50875000E-13	-1.33310000E-13	 7.07078000E+01	-7.78509646E-14	 4.85207746E-13	 7.07078000E+01
					 3.53539000E+01	 3.53539000E+01	-9.27288000E-14	 3.53539000E+01	-3.15514000E-13	-4.03686000E-13	 7.07078000E+01	-1.24133668E-13	 3.10466233E-14	 7.07078000E+01
					-7.14450000E-01	-7.69963000E-01	-4.45324000E-01	 3.22312000E-14	 3.11341000E-16	 1.17273000E-16	 3.00749877E-01	-7.69963000E-01	-7.14450000E-01	-4.45324000E-01
					-7.14450000E-01	-7.69963000E-01	-4.45324000E-01	 3.25434000E-14	 4.76317000E-18	-2.29757000E-16	 3.00749877E-01	-7.69963000E-01	-7.14450000E-01	-4.45324000E-01
					 1.29155000E+00	 3.21017000E+00	 1.35052000E+00	 7.32899000E-01	-1.10995000E-15	-5.55639000E-18	 2.27658999E+00	 1.04362489E+00	 1.35052000E+00	 3.45809511E+00
					 1.29155000E+00	 3.21017000E+00	 1.35052000E+00	 7.32899000E-01	 9.28221000E-16	-3.18380000E-16	 2.27658999E+00	 1.04362489E+00	 1.35052000E+00	 3.45809511E+00
					-5.18026000E+00	-7.69963000E-01	-1.78507000E+00	 3.20438000E-14	-1.82701000E-15	 6.44381000E-16	 4.00052978E+00	-5.18026000E+00	-1.78507000E+00	-7.69963000E-01
					-5.18026000E+00	-7.69963000E-01	-1.78507000E+00	 3.24463000E-14	 6.02990000E-16	-4.43825000E-16	 4.00052978E+00	-5.18026000E+00	-1.78507000E+00	-7.69963000E-01
					 1.29155000E+00	 3.21017000E+00	 1.35052000E+00	-7.32899000E-01	 5.94250000E-16	 1.75328000E-16	 2.27658999E+00	 1.04362489E+00	 1.35052000E+00	 3.45809511E+00
					 1.29155000E+00	 3.21017000E+00	 1.35052000E+00	-7.32899000E-01	 2.37894000E-16	-1.37463000E-16	 2.27658999E+00	 1.04362489E+00	 1.35052000E+00	 3.45809511E+00
					 3.53539000E+01	 3.53539000E+01	-2.46312000E-13	-3.53539000E+01	 5.43045000E-13	-1.37352000E-13	 7.07078000E+01	-4.34625107E-13	 1.90691065E-13	 7.07078000E+01
					 3.53539000E+01	 3.53539000E+01	-9.06607000E-13	-3.53539000E+01	-7.06901000E-13	 1.93721000E-13	 7.07078000E+01	-1.03364312E-12	 1.29923824E-13	 7.07078000E+01
					 3.53539000E+01	 3.53539000E+01	 2.98699000E-14	-3.53539000E+01	-5.37501000E-13	 2.92222000E-13	 7.07078000E+01	-1.58360615E-13	 1.89678706E-13	 7.07078000E+01
					 3.53539000E+01	 3.53539000E+01	 5.04312000E-13	-3.53539000E+01	 7.21005000E-13	-2.26923000E-15	 7.07078000E+01	-3.17876211E-13	 8.18462155E-13	 7.07078000E+01
					 3.53539000E+01	 3.53539000E+01	-1.00651000E-13	 3.53539000E+01	 4.26201000E-14	 2.50210000E-13	 7.07078000E+01	-2.05898979E-13	 1.04072962E-13	 7.07078000E+01
					 3.53539000E+01	 3.53539000E+01	 5.18759000E-14	 3.53539000E+01	-7.75946000E-13	-4.22119000E-13	 7.07078000E+01	-2.24419506E-13	 2.78433315E-13	 7.07078000E+01
					 3.53539000E+01	 3.53539000E+01	-2.30440000E-13	 3.53539000E+01	-7.53420000E-13	-3.26925000E-13	 7.07078000E+01	-4.40201632E-13	 2.03142594E-13	 7.07078000E+01
					 3.53539000E+01	 3.53539000E+01	 1.94934000E-13	 3.53539000E+01	-1.48459000E-13	 3.60529000E-13	 7.07078000E+01	-2.73461638E-13	 4.71483100E-13	 7.07078000E+01
				</DataArray>
				<DataArray type="Float32" Name="RF" NumberOfComponents="3" ComponentName0="F1" ComponentName1="F2" ComponentName2="F3" format="ascii">
					-5.12213000E-15	 1.60965000E-01	-1.79458000E-03
					-1.99975000E-14	-3.33333000E-01	 1.95156000E-17
					-5.10750000E-15	 1.60965000E-01	 1.79458000E-03
					 4.33245000E-17	 1.60965000E-01	-1.79458000E-03
					 1.77809000E-17	-3.33333000E-01	 1.47451000E-17
					 7.46367000E-17	 1.60965000E-01	 1.79458000E-03
					-8.33333000E-02	 8.33333000E-02	 3.54203000E-02
					-3.33333000E-01	 3.33333000E-01	 3.46945000E-17
					-8.33333000E-02	 8.33333000E-02	-3.54203000E-02
					 1.25000000E-01	-1.25000000E-01	-8.62345000E-16
					 1.25000000E-01	-1.25000000E-01	 3.33503000E-15
					 1.25000000E-01	-1.25000000E-01	-1.32207000E-15
					 1.25000000E-01	-1.25000000E-01	-1.21507000E-15
					 8.33333000E-02	 8.33333000E-02	 3.54203000E-02
					 3.33333000E-01	 3.33333000E-01	-2.77556000E-17
					 8.33333000E-02	 8.33333000E-02	-3.54203000E-02
					-1.25000000E-01	-1.25000000E-01	 3.25848000E-15
					-1.25000000E-01	-1.25000000E-01	 3.14508000E-16
					-1.25000000E-01	-1.25000000E-01	 3.69304000E-16
					-1.25000000E-01	-1.25000000E-01	-1.12768000E-15
					-1.16222000E-17	-4.88597000E-01	-7.39496000E-02
					-2.22049000E-17	-4.88597000E-01	 7.39496000E-02
					-9.18532000E-17	 4.59615000E-16	-1.09106000E-01
					-1.39299000E-16	 5.25708000E-16	 1.09106000E-01
					-1.83685000E-16	-5.45142000E-17	 7.49101000E-02
					-1.28457000E-16	-8.31795000E-17	-7.49101000E-02
					 2.19855000E-16	-1.97144000E-16	-1.09106000E-01
					 1.72952000E-16	-1.99674000E-16	 1.09106000E-01
					-1.25000000E-01	 1.25000000E-01	-1.02319000E-15
					-1.25000000E-01	 1.25000000E-01	-4.76038000E-16
					-1.25000000E-01	 1.25000000E-01	 2.26691000E-15
					-1.25000000E-01	 1.25000000E-01	-7.03226000E-16
					 1.25000000E-01	 1.25000000E-01	 2.82320000E-15
					 1.25000000E-01	 1.25000000E-01	-2.78497000E-15
					 1.25000000E-01	 1.25000000E-01	-3.91079000E-15
					 1.25000000E-01	 1.25000000E-01	 1.05796000E-15
				</DataArray>
			</PointData>
		</Piece>
	</UnstructuredGrid>
</VTKFile>