# vtk DataFile Version 3.0

ASCII
DATASET UNSTRUCTURED_GRID

POINTS 261 double
	 0.00000000E+00	 0.00000000E+00	 0.00000000E+00
	 1.00000000E+00	 0.00000000E+00	 0.00000000E+00
	 1.00000000E+00	 1.00000000E+00	 0.00000000E+00
	 0.00000000E+00	 1.00000000E+00	 0.00000000E+00
	 0.00000000E+00	 0.00000000E+00	 8.00000000E+00
	 1.00000000E+00	 0.00000000E+00	 8.00000000E+00
	 1.00000000E+00	 1.00000000E+00	 8.00000000E+00
	 0.00000000E+00	 1.00000000E+00	 8.00000000E+00
	 2.50000000E-01	 0.00000000E+00	 0.00000000E+00
	 5.00000000E-01	 0.00000000E+00	 0.00000000E+00
	 7.50000000E-01	 0.00000000E+00	 0.00000000E+00
	 1.00000000E+00	 2.50000000E-01	 0.00000000E+00
	 1.00000000E+00	 5.00000000E-01	 0.00000000E+00
	 1.00000000E+00	 7.50000000E-01	 0.00000000E+00
	 7.50000000E-01	 1.00000000E+00	 0.00000000E+00
	 5.00000000E-01	 1.00000000E+00	 0.00000000E+00
	 2.50000000E-01	 1.00000000E+00	 0.00000000E+00
	 0.00000000E+00	 7.50000000E-01	 0.00000000E+00
	 0.00000000E+00	 5.00000000E-01	 0.00000000E+00
	 0.00000000E+00	 2.50000000E-01	 0.00000000E+00
	 2.50000000E-01	 0.00000000E+00	 8.00000000E+00
	 5.00000000E-01	 0.00000000E+00	 8.00000000E+00
	 7.50000000E-01	 0.00000000E+00	 8.00000000E+00
	 1.00000000E+00	 2.50000000E-01	 8.00000000E+00
	 1.00000000E+00	 5.00000000E-01	 8.00000000E+00
	 1.00000000E+00	 7.50000000E-01	 8.00000000E+00
	 7.50000000E-01	 1.00000000E+00	 8.00000000E+00
	 5.00000000E-01	 1.00000000E+00	 8.00000000E+00
	 2.50000000E-01	 1.00000000E+00	 8.00000000E+00
	 0.00000000E+00	 7.50000000E-01	 8.00000000E+00
	 0.00000000E+00	 5.00000000E-01	 8.00000000E+00
	 0.00000000E+00	 2.50000000E-01	 8.00000000E+00
	 1.00000000E+00	 0.00000000E+00	 5.00000000E-01
	 1.00000000E+00	 0.00000000E+00	 1.00000000E+00
	 1.00000000E+00	 0.00000000E+00	 1.50000000E+00
	 1.00000000E+00	 0.00000000E+00	 2.00000000E+00
	 1.00000000E+00	 0.00000000E+00	 2.50000000E+00
	 1.00000000E+00	 0.00000000E+00	 3.00000000E+00
	 1.00000000E+00	 0.00000000E+00	 3.50000000E+00
	 1.00000000E+00	 0.00000000E+00	 4.00000000E+00
	 1.00000000E+00	 0.00000000E+00	 4.50000000E+00
	 1.00000000E+00	 0.00000000E+00	 5.00000000E+00
	 1.00000000E+00	 0.00000000E+00	 5.50000000E+00
	 1.00000000E+00	 0.00000000E+00	 6.00000000E+00
	 1.00000000E+00	 0.00000000E+00	 6.50000000E+00
	 1.00000000E+00	 0.00000000E+00	 7.00000000E+00
	 1.00000000E+00	 0.00000000E+00	 7.50000000E+00
	 0.00000000E+00	 0.00000000E+00	 7.50000000E+00
	 0.00000000E+00	 0.00000000E+00	 7.00000000E+00
	 0.00000000E+00	 0.00000000E+00	 6.50000000E+00
	 0.00000000E+00	 0.00000000E+00	 6.00000000E+00
	 0.00000000E+00	 0.00000000E+00	 5.50000000E+00
	 0.00000000E+00	 0.00000000E+00	 5.00000000E+00
	 0.00000000E+00	 0.00000000E+00	 4.50000000E+00
	 0.00000000E+00	 0.00000000E+00	 4.00000000E+00
	 0.00000000E+00	 0.00000000E+00	 3.50000000E+00
	 0.00000000E+00	 0.00000000E+00	 3.00000000E+00
	 0.00000000E+00	 0.00000000E+00	 2.50000000E+00
	 0.00000000E+00	 0.00000000E+00	 2.00000000E+00
	 0.00000000E+00	 0.00000000E+00	 1.50000000E+00
	 0.00000000E+00	 0.00000000E+00	 1.00000000E+00
	 0.00000000E+00	 0.00000000E+00	 5.00000000E-01
	 1.00000000E+00	 1.00000000E+00	 5.00000000E-01
	 1.00000000E+00	 1.00000000E+00	 1.00000000E+00
	 1.00000000E+00	 1.00000000E+00	 1.50000000E+00
	 1.00000000E+00	 1.00000000E+00	 2.00000000E+00
	 1.00000000E+00	 1.00000000E+00	 2.50000000E+00
	 1.00000000E+00	 1.00000000E+00	 3.00000000E+00
	 1.00000000E+00	 1.00000000E+00	 3.50000000E+00
	 1.00000000E+00	 1.00000000E+00	 4.00000000E+00
	 1.00000000E+00	 1.00000000E+00	 4.50000000E+00
	 1.00000000E+00	 1.00000000E+00	 5.00000000E+00
	 1.00000000E+00	 1.00000000E+00	 5.50000000E+00
	 1.00000000E+00	 1.00000000E+00	 6.00000000E+00
	 1.00000000E+00	 1.00000000E+00	 6.50000000E+00
	 1.00000000E+00	 1.00000000E+00	 7.00000000E+00
	 1.00000000E+00	 1.00000000E+00	 7.50000000E+00
	 0.00000000E+00	 1.00000000E+00	 5.00000000E-01
	 0.00000000E+00	 1.00000000E+00	 1.00000000E+00
	 0.00000000E+00	 1.00000000E+00	 1.50000000E+00
	 0.00000000E+00	 1.00000000E+00	 2.00000000E+00
	 0.00000000E+00	 1.00000000E+00	 2.50000000E+00
	 0.00000000E+00	 1.00000000E+00	 3.00000000E+00
	 0.00000000E+00	 1.00000000E+00	 3.50000000E+00
	 0.00000000E+00	 1.00000000E+00	 4.00000000E+00
	 0.00000000E+00	 1.00000000E+00	 4.50000000E+00
	 0.00000000E+00	 1.00000000E+00	 5.00000000E+00
	 0.00000000E+00	 1.00000000E+00	 5.50000000E+00
	 0.00000000E+00	 1.00000000E+00	 6.00000000E+00
	 0.00000000E+00	 1.00000000E+00	 6.50000000E+00
	 0.00000000E+00	 1.00000000E+00	 7.00000000E+00
	 0.00000000E+00	 1.00000000E+00	 7.50000000E+00
	 5.00000000E-01	 2.50000000E-01	 0.00000000E+00
	 2.50000000E-01	 5.00000000E-01	 0.00000000E+00
	 5.00000000E-01	 5.00000000E-01	 0.00000000E+00
	 7.50000000E-01	 5.00000000E-01	 0.00000000E+00
	 5.00000000E-01	 7.50000000E-01	 0.00000000E+00
	 5.00000000E-01	 2.50000000E-01	 8.00000000E+00
	 2.50000000E-01	 5.00000000E-01	 8.00000000E+00
	 5.00000000E-01	 5.00000000E-01	 8.00000000E+00
	 7.50000000E-01	 5.00000000E-01	 8.00000000E+00
	 5.00000000E-01	 7.50000000E-01	 8.00000000E+00
	 5.00000000E-01	 0.00000000E+00	 5.00000000E-01
	 2.50000000E-01	 0.00000000E+00	 1.00000000E+00
	 5.00000000E-01	 0.00000000E+00	 1.00000000E+00
	 7.50000000E-01	 0.00000000E+00	 1.00000000E+00
	 5.00000000E-01	 0.00000000E+00	 1.50000000E+00
	 2.50000000E-01	 0.00000000E+00	 2.00000000E+00
	 5.00000000E-01	 0.00000000E+00	 2.00000000E+00
	 7.50000000E-01	 0.00000000E+00	 2.00000000E+00
	 5.00000000E-01	 0.00000000E+00	 2.50000000E+00
	 2.50000000E-01	 0.00000000E+00	 3.00000000E+00
	 5.00000000E-01	 0.00000000E+00	 3.00000000E+00
	 7.50000000E-01	 0.00000000E+00	 3.00000000E+00
	 5.00000000E-01	 0.00000000E+00	 3.50000000E+00
	 2.50000000E-01	 0.00000000E+00	 4.00000000E+00
	 5.00000000E-01	 0.00000000E+00	 4.00000000E+00
	 7.50000000E-01	 0.00000000E+00	 4.00000000E+00
	 5.00000000E-01	 0.00000000E+00	 4.50000000E+00
	 2.50000000E-01	 0.00000000E+00	 5.00000000E+00
	 5.00000000E-01	 0.00000000E+00	 5.00000000E+00
	 7.50000000E-01	 0.00000000E+00	 5.00000000E+00
	 5.00000000E-01	 0.00000000E+00	 5.50000000E+00
	 2.50000000E-01	 0.00000000E+00	 6.00000000E+00
	 5.00000000E-01	 0.00000000E+00	 6.00000000E+00
	 7.50000000E-01	 0.00000000E+00	 6.00000000E+00
	 5.00000000E-01	 0.00000000E+00	 6.50000000E+00
	 2.50000000E-01	 0.00000000E+00	 7.00000000E+00
	 5.00000000E-01	 0.00000000E+00	 7.00000000E+00
	 7.50000000E-01	 0.00000000E+00	 7.00000000E+00
	 5.00000000E-01	 0.00000000E+00	 7.50000000E+00
	 1.00000000E+00	 5.00000000E-01	 5.00000000E-01
	 1.00000000E+00	 2.50000000E-01	 1.00000000E+00
	 1.00000000E+00	 5.00000000E-01	 1.00000000E+00
	 1.00000000E+00	 7.50000000E-01	 1.00000000E+00
	 1.00000000E+00	 5.00000000E-01	 1.50000000E+00
	 1.00000000E+00	 2.50000000E-01	 2.00000000E+00
	 1.00000000E+00	 5.00000000E-01	 2.00000000E+00
	 1.00000000E+00	 7.50000000E-01	 2.00000000E+00
	 1.00000000E+00	 5.00000000E-01	 2.50000000E+00
	 1.00000000E+00	 2.50000000E-01	 3.00000000E+00
	 1.00000000E+00	 5.00000000E-01	 3.00000000E+00
	 1.00000000E+00	 7.50000000E-01	 3.00000000E+00
	 1.00000000E+00	 5.00000000E-01	 3.50000000E+00
	 1.00000000E+00	 2.50000000E-01	 4.00000000E+00
	 1.00000000E+00	 5.00000000E-01	 4.00000000E+00
	 1.00000000E+00	 7.50000000E-01	 4.00000000E+00
	 1.00000000E+00	 5.00000000E-01	 4.50000000E+00
	 1.00000000E+00	 2.50000000E-01	 5.00000000E+00
	 1.00000000E+00	 5.00000000E-01	 5.00000000E+00
	 1.00000000E+00	 7.50000000E-01	 5.00000000E+00
	 1.00000000E+00	 5.00000000E-01	 5.50000000E+00
	 1.00000000E+00	 2.50000000E-01	 6.00000000E+00
	 1.00000000E+00	 5.00000000E-01	 6.00000000E+00
	 1.00000000E+00	 7.50000000E-01	 6.00000000E+00
	 1.00000000E+00	 5.00000000E-01	 6.50000000E+00
	 1.00000000E+00	 2.50000000E-01	 7.00000000E+00
	 1.00000000E+00	 5.00000000E-01	 7.00000000E+00
	 1.00000000E+00	 7.50000000E-01	 7.00000000E+00
	 1.00000000E+00	 5.00000000E-01	 7.50000000E+00
	 5.00000000E-01	 1.00000000E+00	 5.00000000E-01
	 7.50000000E-01	 1.00000000E+00	 1.00000000E+00
	 5.00000000E-01	 1.00000000E+00	 1.00000000E+00
	 2.50000000E-01	 1.00000000E+00	 1.00000000E+00
	 5.00000000E-01	 1.00000000E+00	 1.50000000E+00
	 7.50000000E-01	 1.00000000E+00	 2.00000000E+00
	 5.00000000E-01	 1.00000000E+00	 2.00000000E+00
	 2.50000000E-01	 1.00000000E+00	 2.00000000E+00
	 5.00000000E-01	 1.00000000E+00	 2.50000000E+00
	 7.50000000E-01	 1.00000000E+00	 3.00000000E+00
	 5.00000000E-01	 1.00000000E+00	 3.00000000E+00
	 2.50000000E-01	 1.00000000E+00	 3.00000000E+00
	 5.00000000E-01	 1.00000000E+00	 3.50000000E+00
	 7.50000000E-01	 1.00000000E+00	 4.00000000E+00
	 5.00000000E-01	 1.00000000E+00	 4.00000000E+00
	 2.50000000E-01	 1.00000000E+00	 4.00000000E+00
	 5.00000000E-01	 1.00000000E+00	 4.50000000E+00
	 7.50000000E-01	 1.00000000E+00	 5.00000000E+00
	 5.00000000E-01	 1.00000000E+00	 5.00000000E+00
	 2.50000000E-01	 1.00000000E+00	 5.00000000E+00
	 5.00000000E-01	 1.00000000E+00	 5.50000000E+00
	 7.50000000E-01	 1.00000000E+00	 6.00000000E+00
	 5.00000000E-01	 1.00000000E+00	 6.00000000E+00
	 2.50000000E-01	 1.00000000E+00	 6.00000000E+00
	 5.00000000E-01	 1.00000000E+00	 6.50000000E+00
	 7.50000000E-01	 1.00000000E+00	 7.00000000E+00
	 5.00000000E-01	 1.00000000E+00	 7.00000000E+00
	 2.50000000E-01	 1.00000000E+00	 7.00000000E+00
	 5.00000000E-01	 1.00000000E+00	 7.50000000E+00
	 0.00000000E+00	 5.00000000E-01	 5.00000000E-01
	 0.00000000E+00	 7.50000000E-01	 1.00000000E+00
	 0.00000000E+00	 5.00000000E-01	 1.00000000E+00
	 0.00000000E+00	 2.50000000E-01	 1.00000000E+00
	 0.00000000E+00	 5.00000000E-01	 1.50000000E+00
	 0.00000000E+00	 7.50000000E-01	 2.00000000E+00
	 0.00000000E+00	 5.00000000E-01	 2.00000000E+00
	 0.00000000E+00	 2.50000000E-01	 2.00000000E+00
	 0.00000000E+00	 5.00000000E-01	 2.50000000E+00
	 0.00000000E+00	 7.50000000E-01	 3.00000000E+00
	 0.00000000E+00	 5.00000000E-01	 3.00000000E+00
	 0.00000000E+00	 2.50000000E-01	 3.00000000E+00
	 0.00000000E+00	 5.00000000E-01	 3.50000000E+00
	 0.00000000E+00	 7.50000000E-01	 4.00000000E+00
	 0.00000000E+00	 5.00000000E-01	 4.00000000E+00
	 0.00000000E+00	 2.50000000E-01	 4.00000000E+00
	 0.00000000E+00	 5.00000000E-01	 4.50000000E+00
	 0.00000000E+00	 7.50000000E-01	 5.00000000E+00
	 0.00000000E+00	 5.00000000E-01	 5.00000000E+00
	 0.00000000E+00	 2.50000000E-01	 5.00000000E+00
	 0.00000000E+00	 5.00000000E-01	 5.50000000E+00
	 0.00000000E+00	 7.50000000E-01	 6.00000000E+00
	 0.00000000E+00	 5.00000000E-01	 6.00000000E+00
	 0.00000000E+00	 2.50000000E-01	 6.00000000E+00
	 0.00000000E+00	 5.00000000E-01	 6.50000000E+00
	 0.00000000E+00	 7.50000000E-01	 7.00000000E+00
	 0.00000000E+00	 5.00000000E-01	 7.00000000E+00
	 0.00000000E+00	 2.50000000E-01	 7.00000000E+00
	 0.00000000E+00	 5.00000000E-01	 7.50000000E+00
	 5.00000000E-01	 5.00000000E-01	 5.00000000E-01
	 5.00000000E-01	 2.50000000E-01	 1.00000000E+00
	 2.50000000E-01	 5.00000000E-01	 1.00000000E+00
	 5.00000000E-01	 5.00000000E-01	 1.00000000E+00
	 7.50000000E-01	 5.00000000E-01	 1.00000000E+00
	 5.00000000E-01	 7.50000000E-01	 1.00000000E+00
	 5.00000000E-01	 5.00000000E-01	 1.50000000E+00
	 5.00000000E-01	 2.50000000E-01	 2.00000000E+00
	 2.50000000E-01	 5.00000000E-01	 2.00000000E+00
	 5.00000000E-01	 5.00000000E-01	 2.00000000E+00
	 7.50000000E-01	 5.00000000E-01	 2.00000000E+00
	 5.00000000E-01	 7.50000000E-01	 2.00000000E+00
	 5.00000000E-01	 5.00000000E-01	 2.50000000E+00
	 5.00000000E-01	 2.50000000E-01	 3.00000000E+00
	 2.50000000E-01	 5.00000000E-01	 3.00000000E+00
	 5.00000000E-01	 5.00000000E-01	 3.00000000E+00
	 7.50000000E-01	 5.00000000E-01	 3.00000000E+00
	 5.00000000E-01	 7.50000000E-01	 3.00000000E+00
	 5.00000000E-01	 5.00000000E-01	 3.50000000E+00
	 5.00000000E-01	 2.50000000E-01	 4.00000000E+00
	 2.50000000E-01	 5.00000000E-01	 4.00000000E+00
	 5.00000000E-01	 5.00000000E-01	 4.00000000E+00
	 7.50000000E-01	 5.00000000E-01	 4.00000000E+00
	 5.00000000E-01	 7.50000000E-01	 4.00000000E+00
	 5.00000000E-01	 5.00000000E-01	 4.50000000E+00
	 5.00000000E-01	 2.50000000E-01	 5.00000000E+00
	 2.50000000E-01	 5.00000000E-01	 5.00000000E+00
	 5.00000000E-01	 5.00000000E-01	 5.00000000E+00
	 7.50000000E-01	 5.00000000E-01	 5.00000000E+00
	 5.00000000E-01	 7.50000000E-01	 5.00000000E+00
	 5.00000000E-01	 5.00000000E-01	 5.50000000E+00
	 5.00000000E-01	 2.50000000E-01	 6.00000000E+00
	 2.50000000E-01	 5.00000000E-01	 6.00000000E+00
	 5.00000000E-01	 5.00000000E-01	 6.00000000E+00
	 7.50000000E-01	 5.00000000E-01	 6.00000000E+00
	 5.00000000E-01	 7.50000000E-01	 6.00000000E+00
	 5.00000000E-01	 5.00000000E-01	 6.50000000E+00
	 5.00000000E-01	 2.50000000E-01	 7.00000000E+00
	 2.50000000E-01	 5.00000000E-01	 7.00000000E+00
	 5.00000000E-01	 5.00000000E-01	 7.00000000E+00
	 7.50000000E-01	 5.00000000E-01	 7.00000000E+00
	 5.00000000E-01	 7.50000000E-01	 7.00000000E+00
	 5.00000000E-01	 5.00000000E-01	 7.50000000E+00

CELLS 32 672
	20 0 9 94 18 60 104 221 191 8 92 93 19 103 219 220 192 61 102 218 189 
	20 9 1 12 94 104 33 133 221 10 11 95 92 105 132 222 219 102 32 131 218 
	20 18 94 15 3 191 221 162 78 93 96 16 17 220 223 163 190 189 218 160 77 
	20 94 12 2 15 221 133 63 162 95 13 14 96 222 134 161 223 218 131 62 160 
	20 60 104 221 191 58 108 227 195 103 219 220 192 107 225 226 196 59 106 224 193 
	20 104 33 133 221 108 35 137 227 105 132 222 219 109 136 228 225 106 34 135 224 
	20 191 221 162 78 195 227 166 80 220 223 163 190 226 229 167 194 193 224 164 79 
	20 221 133 63 162 227 137 65 166 222 134 161 223 228 138 165 229 224 135 64 164 
	20 58 108 227 195 56 112 233 199 107 225 226 196 111 231 232 200 57 110 230 197 
	20 108 35 137 227 112 37 141 233 109 136 228 225 113 140 234 231 110 36 139 230 
	20 195 227 166 80 199 233 170 82 226 229 167 194 232 235 171 198 197 230 168 81 
	20 227 137 65 166 233 141 67 170 228 138 165 229 234 142 169 235 230 139 66 168 
	20 56 112 233 199 54 116 239 203 111 231 232 200 115 237 238 204 55 114 236 201 
	20 112 37 141 233 116 39 145 239 113 140 234 231 117 144 240 237 114 38 143 236 
	20 199 233 170 82 203 239 174 84 232 235 171 198 238 241 175 202 201 236 172 83 
	20 233 141 67 170 239 145 69 174 234 142 169 235 240 146 173 241 236 143 68 172 
	20 54 116 239 203 52 120 245 207 115 237 238 204 119 243 244 208 53 118 242 205 
	20 116 39 145 239 120 41 149 245 117 144 240 237 121 148 246 243 118 40 147 242 
	20 203 239 174 84 207 245 178 86 238 241 175 202 244 247 179 206 205 242 176 85 
	20 239 145 69 174 245 149 71 178 240 146 173 241 246 150 177 247 242 147 70 176 
	20 52 120 245 207 50 124 251 211 119 243 244 208 123 249 250 212 51 122 248 209 
	20 120 41 149 245 124 43 153 251 121 148 246 243 125 152 252 249 122 42 151 248 
	20 207 245 178 86 211 251 182 88 244 247 179 206 250 253 183 210 209 248 180 87 
	20 245 149 71 178 251 153 73 182 246 150 177 247 252 154 181 253 248 151 72 180 
	20 50 124 251 211 48 128 257 215 123 249 250 212 127 255 256 216 49 126 254 213 
	20 124 43 153 251 128 45 157 257 125 152 252 249 129 156 258 255 126 44 155 254 
	20 211 251 182 88 215 257 186 90 250 253 183 210 256 259 187 214 213 254 184 89 
	20 251 153 73 182 257 157 75 186 252 154 181 253 258 158 185 259 254 155 74 184 
	20 48 128 257 215 4 21 99 30 127 255 256 216 20 97 98 31 47 130 260 217 
	20 128 45 157 257 21 5 24 99 129 156 258 255 22 23 100 97 130 46 159 260 
	20 215 257 186 90 30 99 27 7 256 259 187 214 98 101 28 29 217 260 188 91 
	20 257 157 75 186 99 24 6 27 258 158 185 259 100 25 26 101 260 159 76 188 

CELL_TYPES 32
	25
	25
	25
	25
	25
	25
	25
	25
	25
	25
	25
	25
	25
	25
	25
	25
	25
	25
	25
	25
	25
	25
	25
	25
	25
	25
	25
	25
	25
	25
	25
	25

POINT_DATA 261
FIELD U 1
	U 3 261 double
		-9.05705000E-05	 3.49892000E-04	 2.37704000E-03
		-1.09983000E-04	 3.49892000E-04	 2.37704000E-03
		 0.00000000E+00	 0.00000000E+00	 0.00000000E+00
		-2.00554000E-04	 0.00000000E+00	 0.00000000E+00
		-9.05705000E-05	 3.49892000E-04	 1.27038000E-04
		-1.09983000E-04	 3.49892000E-04	 1.27038000E-04
		 0.00000000E+00	 0.00000000E+00	 2.50408000E-03
		-2.00554000E-04	 0.00000000E+00	 2.50408000E-03
		-9.75290000E-05	 3.80970000E-04	 2.37661000E-03
		-1.00277000E-04	 3.81093000E-04	 2.37576000E-03
		-1.03025000E-04	 3.80970000E-04	 2.37661000E-03
		-9.50123000E-05	 3.82897000E-04	 1.80633000E-03
		-9.55114000E-05	 4.04399000E-04	 1.25508000E-03
		-1.06282000E-04	 2.25625000E-04	 6.93963000E-04
		-5.51894000E-05	 3.00523000E-04	 6.97188000E-05
		-1.00277000E-04	 4.31995000E-04	 1.54065000E-04
		-1.45364000E-04	 3.00523000E-04	 6.97188000E-05
		-9.42722000E-05	 2.25625000E-04	 6.93963000E-04
		-1.05042000E-04	 4.04399000E-04	 1.25508000E-03
		-1.05541000E-04	 3.82897000E-04	 1.80633000E-03
		-9.75290000E-05	 3.80970000E-04	 1.27465000E-04
		-1.00277000E-04	 3.81093000E-04	 1.28317000E-04
		-1.03025000E-04	 3.80970000E-04	 1.27465000E-04
		-9.50123000E-05	 3.82897000E-04	 6.97745000E-04
		-9.55114000E-05	 4.04399000E-04	 1.24900000E-03
		-1.06282000E-04	 2.25625000E-04	 1.81011000E-03
		-5.51894000E-05	 3.00523000E-04	 2.43436000E-03
		-1.00277000E-04	 4.31995000E-04	 2.35001000E-03
		-1.45364000E-04	 3.00523000E-04	 2.43436000E-03
		-9.42722000E-05	 2.25625000E-04	 1.81011000E-03
		-1.05042000E-04	 4.04399000E-04	 1.24900000E-03
		-1.05541000E-04	 3.82897000E-04	 6.97745000E-04
		-9.47242000E-05	 1.52315000E-03	 2.36631000E-03
		-7.85950000E-05	 2.64590000E-03	 2.31960000E-03
		-6.64540000E-05	 3.72538000E-03	 2.22442000E-03
		-5.76541000E-05	 4.64994000E-03	 2.10551000E-03
		-4.97390000E-05	 5.48337000E-03	 1.94140000E-03
		-3.74142000E-05	 6.06897000E-03	 1.74697000E-03
		-2.39424000E-05	 6.55655000E-03	 1.51321000E-03
		-2.84111000E-05	 6.62771000E-03	 1.25204000E-03
		-2.39424000E-05	 6.55655000E-03	 9.90869000E-04
		-3.74142000E-05	 6.06897000E-03	 7.57108000E-04
		-4.97390000E-05	 5.48337000E-03	 5.62673000E-04
		-5.76541000E-05	 4.64994000E-03	 3.98567000E-04
		-6.64540000E-05	 3.72538000E-03	 2.79655000E-04
		-7.85950000E-05	 2.64590000E-03	 1.84480000E-04
		-9.47242000E-05	 1.52315000E-03	 1.37768000E-04
		-1.05830000E-04	 1.52315000E-03	 1.37768000E-04
		-1.21959000E-04	 2.64590000E-03	 1.84480000E-04
		-1.34100000E-04	 3.72538000E-03	 2.79655000E-04
		-1.42900000E-04	 4.64994000E-03	 3.98567000E-04
		-1.50815000E-04	 5.48337000E-03	 5.62673000E-04
		-1.63140000E-04	 6.06897000E-03	 7.57108000E-04
		-1.76611000E-04	 6.55655000E-03	 9.90869000E-04
		-1.72143000E-04	 6.62771000E-03	 1.25204000E-03
		-1.76611000E-04	 6.55655000E-03	 1.51321000E-03
		-1.63140000E-04	 6.06897000E-03	 1.74697000E-03
		-1.50815000E-04	 5.48337000E-03	 1.94140000E-03
		-1.42900000E-04	 4.64994000E-03	 2.10551000E-03
		-1.34100000E-04	 3.72538000E-03	 2.22442000E-03
		-1.21959000E-04	 2.64590000E-03	 2.31960000E-03
		-1.05830000E-04	 1.52315000E-03	 2.36631000E-03
		-7.35327000E-05	 1.54248000E-03	 1.12409000E-04
		-1.53956000E-04	 2.61487000E-03	 1.85091000E-04
		-1.32707000E-04	 3.73771000E-03	 2.72867000E-04
		-1.44330000E-04	 4.63708000E-03	 3.91720000E-04
		-1.50624000E-04	 5.48133000E-03	 5.53060000E-04
		-1.68708000E-04	 6.09865000E-03	 7.51993000E-04
		-1.74578000E-04	 6.53190000E-03	 9.86515000E-04
		-1.83731000E-04	 6.66912000E-03	 1.25204000E-03
		-1.74578000E-04	 6.53190000E-03	 1.51756000E-03
		-1.68708000E-04	 6.09865000E-03	 1.75208000E-03
		-1.50624000E-04	 5.48133000E-03	 1.95102000E-03
		-1.44330000E-04	 4.63708000E-03	 2.11236000E-03
		-1.32707000E-04	 3.73771000E-03	 2.23121000E-03
		-1.53956000E-04	 2.61487000E-03	 2.31899000E-03
		-7.35327000E-05	 1.54248000E-03	 2.39167000E-03
		-1.27021000E-04	 1.54248000E-03	 1.12409000E-04
		-4.65982000E-05	 2.61487000E-03	 1.85091000E-04
		-6.78466000E-05	 3.73771000E-03	 2.72867000E-04
		-5.62238000E-05	 4.63708000E-03	 3.91720000E-04
		-4.99298000E-05	 5.48133000E-03	 5.53060000E-04
		-3.18458000E-05	 6.09865000E-03	 7.51993000E-04
		-2.59763000E-05	 6.53190000E-03	 9.86515000E-04
		-1.68227000E-05	 6.66912000E-03	 1.25204000E-03
		-2.59763000E-05	 6.53190000E-03	 1.51756000E-03
		-3.18458000E-05	 6.09865000E-03	 1.75208000E-03
		-4.99298000E-05	 5.48133000E-03	 1.95102000E-03
		-5.62238000E-05	 4.63708000E-03	 2.11236000E-03
		-6.78466000E-05	 3.73771000E-03	 2.23121000E-03
		-4.65982000E-05	 2.61487000E-03	 2.31899000E-03
		-1.27021000E-04	 1.54248000E-03	 2.39167000E-03
		-1.00277000E-04	 3.77359000E-04	 1.81212000E-03
		-9.68204000E-05	 3.67226000E-04	 1.25242000E-03
		-1.00277000E-04	 3.75902000E-04	 1.24771000E-03
		-1.03733000E-04	 3.67226000E-04	 1.25242000E-03
		-1.00277000E-04	 3.97730000E-04	 6.83896000E-04
		-1.00277000E-04	 3.77359000E-04	 6.91953000E-04
		-9.68204000E-05	 3.67226000E-04	 1.25166000E-03
		-1.00277000E-04	 3.75902000E-04	 1.25637000E-03
		-1.03733000E-04	 3.67226000E-04	 1.25166000E-03
		-1.00277000E-04	 3.97730000E-04	 1.82018000E-03
		-1.00277000E-04	 1.51103000E-03	 2.36565000E-03
		-1.10802000E-04	 2.64515000E-03	 2.32160000E-03
		-1.00277000E-04	 2.65575000E-03	 2.32041000E-03
		-8.97519000E-05	 2.64515000E-03	 2.32160000E-03
		-1.00277000E-04	 3.69665000E-03	 2.23115000E-03
		-1.21748000E-04	 4.65035000E-03	 2.10556000E-03
		-1.00277000E-04	 4.66566000E-03	 2.10372000E-03
		-7.88063000E-05	 4.65035000E-03	 2.10556000E-03
		-1.00277000E-04	 5.43468000E-03	 1.94457000E-03
		-1.31141000E-04	 6.09748000E-03	 1.75093000E-03
		-1.00277000E-04	 6.11734000E-03	 1.75090000E-03
		-6.94132000E-05	 6.09748000E-03	 1.75093000E-03
		-1.00277000E-04	 6.46918000E-03	 1.51503000E-03
		-1.38517000E-04	 6.69476000E-03	 1.25204000E-03
		-1.00277000E-04	 6.87055000E-03	 1.25204000E-03
		-6.20364000E-05	 6.69476000E-03	 1.25204000E-03
		-1.00277000E-04	 6.46918000E-03	 9.89049000E-04
		-1.31141000E-04	 6.09748000E-03	 7.53149000E-04
		-1.00277000E-04	 6.11734000E-03	 7.53179000E-04
		-6.94132000E-05	 6.09748000E-03	 7.53149000E-04
		-1.00277000E-04	 5.43468000E-03	 5.59506000E-04
		-1.21748000E-04	 4.65035000E-03	 3.98517000E-04
		-1.00277000E-04	 4.66566000E-03	 4.00353000E-04
		-7.88063000E-05	 4.65035000E-03	 3.98517000E-04
		-1.00277000E-04	 3.69665000E-03	 2.72932000E-04
		-1.10802000E-04	 2.64515000E-03	 1.82478000E-04
		-1.00277000E-04	 2.65575000E-03	 1.83668000E-04
		-8.97519000E-05	 2.64515000E-03	 1.82478000E-04
		-1.00277000E-04	 1.51103000E-03	 1.38431000E-04
		-1.00733000E-04	 1.51122000E-03	 1.25241000E-03
		-9.05799000E-05	 2.67030000E-03	 1.77722000E-03
		-9.92218000E-05	 2.69205000E-03	 1.24459000E-03
		-1.11966000E-04	 2.65089000E-03	 7.07596000E-04
		-1.02090000E-04	 3.72105000E-03	 1.25206000E-03
		-7.74885000E-05	 4.68332000E-03	 1.66955000E-03
		-9.88616000E-05	 4.70436000E-03	 1.24447000E-03
		-1.25468000E-04	 4.67731000E-03	 8.26949000E-04
		-9.92279000E-05	 5.49872000E-03	 1.24999000E-03
		-6.85491000E-05	 6.11851000E-03	 1.48879000E-03
		-9.83130000E-05	 6.15644000E-03	 1.24441000E-03
		-1.33514000E-04	 6.13544000E-03	 1.00459000E-03
		-1.00514000E-04	 6.55138000E-03	 1.24761000E-03
		-5.47059000E-05	 6.69308000E-03	 1.25204000E-03
		-9.40015000E-05	 6.72099000E-03	 1.25204000E-03
		-1.34664000E-04	 6.70610000E-03	 1.25204000E-03
		-1.00514000E-04	 6.55138000E-03	 1.25647000E-03
		-6.85491000E-05	 6.11851000E-03	 1.01529000E-03
		-9.83130000E-05	 6.15644000E-03	 1.25966000E-03
		-1.33514000E-04	 6.13544000E-03	 1.49949000E-03
		-9.92279000E-05	 5.49872000E-03	 1.25409000E-03
		-7.74885000E-05	 4.68332000E-03	 8.34529000E-04
		-9.88616000E-05	 4.70436000E-03	 1.25961000E-03
		-1.25468000E-04	 4.67731000E-03	 1.67713000E-03
		-1.02090000E-04	 3.72105000E-03	 1.25202000E-03
		-9.05799000E-05	 2.67030000E-03	 7.26861000E-04
		-9.92218000E-05	 2.69205000E-03	 1.25949000E-03
		-1.11966000E-04	 2.65089000E-03	 1.79648000E-03
		-1.00733000E-04	 1.51122000E-03	 1.25167000E-03
		-1.00277000E-04	 1.48668000E-03	 1.24850000E-04
		-1.24765000E-04	 2.62901000E-03	 1.79400000E-04
		-1.00277000E-04	 2.69178000E-03	 1.77017000E-04
		-7.57883000E-05	 2.62901000E-03	 1.79400000E-04
		-1.00277000E-04	 3.68980000E-03	 2.68473000E-04
		-1.22887000E-04	 4.65052000E-03	 3.89480000E-04
		-1.00277000E-04	 4.66365000E-03	 3.89490000E-04
		-7.76669000E-05	 4.65052000E-03	 3.89480000E-04
		-1.00277000E-04	 5.44162000E-03	 5.54498000E-04
		-1.34138000E-04	 6.08589000E-03	 7.46698000E-04
		-1.00277000E-04	 6.08882000E-03	 7.44524000E-04
		-6.64157000E-05	 6.08589000E-03	 7.46698000E-04
		-1.00277000E-04	 6.48386000E-03	 9.88639000E-04
		-1.42918000E-04	 6.63752000E-03	 1.25204000E-03
		-1.00277000E-04	 6.64163000E-03	 1.25204000E-03
		-5.76361000E-05	 6.63752000E-03	 1.25204000E-03
		-1.00277000E-04	 6.48386000E-03	 1.51544000E-03
		-1.34138000E-04	 6.08589000E-03	 1.75738000E-03
		-1.00277000E-04	 6.08882000E-03	 1.75955000E-03
		-6.64157000E-05	 6.08589000E-03	 1.75738000E-03
		-1.00277000E-04	 5.44162000E-03	 1.94958000E-03
		-1.22887000E-04	 4.65052000E-03	 2.11460000E-03
		-1.00277000E-04	 4.66365000E-03	 2.11459000E-03
		-7.76669000E-05	 4.65052000E-03	 2.11460000E-03
		-1.00277000E-04	 3.68980000E-03	 2.23560000E-03
		-1.24765000E-04	 2.62901000E-03	 2.32468000E-03
		-1.00277000E-04	 2.69178000E-03	 2.32706000E-03
		-7.57883000E-05	 2.62901000E-03	 2.32468000E-03
		-1.00277000E-04	 1.48668000E-03	 2.37923000E-03
		-9.98205000E-05	 1.51122000E-03	 1.25241000E-03
		-8.85875000E-05	 2.65089000E-03	 7.07596000E-04
		-1.01332000E-04	 2.69205000E-03	 1.24459000E-03
		-1.09974000E-04	 2.67030000E-03	 1.77722000E-03
		-9.84633000E-05	 3.72105000E-03	 1.25206000E-03
		-7.50854000E-05	 4.67731000E-03	 8.26949000E-04
		-1.01692000E-04	 4.70436000E-03	 1.24447000E-03
		-1.23065000E-04	 4.68332000E-03	 1.66955000E-03
		-1.01326000E-04	 5.49872000E-03	 1.24999000E-03
		-6.70397000E-05	 6.13544000E-03	 1.00459000E-03
		-1.02241000E-04	 6.15644000E-03	 1.24441000E-03
		-1.32005000E-04	 6.11851000E-03	 1.48879000E-03
		-1.00040000E-04	 6.55138000E-03	 1.24761000E-03
		-6.58893000E-05	 6.70610000E-03	 1.25204000E-03
		-1.06552000E-04	 6.72099000E-03	 1.25204000E-03
		-1.45848000E-04	 6.69308000E-03	 1.25204000E-03
		-1.00040000E-04	 6.55138000E-03	 1.25647000E-03
		-6.70397000E-05	 6.13544000E-03	 1.49949000E-03
		-1.02241000E-04	 6.15644000E-03	 1.25966000E-03
		-1.32005000E-04	 6.11851000E-03	 1.01529000E-03
		-1.01326000E-04	 5.49872000E-03	 1.25409000E-03
		-7.50854000E-05	 4.67731000E-03	 1.67713000E-03
		-1.01692000E-04	 4.70436000E-03	 1.25961000E-03
		-1.23065000E-04	 4.68332000E-03	 8.34529000E-04
		-9.84633000E-05	 3.72105000E-03	 1.25202000E-03
		-8.85875000E-05	 2.65089000E-03	 1.79648000E-03
		-1.01332000E-04	 2.69205000E-03	 1.25949000E-03
		-1.09974000E-04	 2.67030000E-03	 7.26861000E-04
		-9.98205000E-05	 1.51122000E-03	 1.25167000E-03
		-1.00277000E-04	 1.53864000E-03	 1.25393000E-03
		-1.00277000E-04	 2.65070000E-03	 1.77891000E-03
		-1.01347000E-04	 2.67002000E-03	 1.24748000E-03
		-1.00277000E-04	 2.64180000E-03	 1.24957000E-03
		-9.92065000E-05	 2.67002000E-03	 1.24748000E-03
		-1.00277000E-04	 2.67226000E-03	 7.21881000E-04
		-1.00277000E-04	 3.71942000E-03	 1.24564000E-03
		-1.00277000E-04	 4.66496000E-03	 1.67403000E-03
		-1.01035000E-04	 4.67334000E-03	 1.24807000E-03
		-1.00277000E-04	 4.65424000E-03	 1.25203000E-03
		-9.95192000E-05	 4.67334000E-03	 1.24807000E-03
		-1.00277000E-04	 4.66308000E-03	 8.24571000E-04
		-1.00277000E-04	 5.48661000E-03	 1.24672000E-03
		-1.00277000E-04	 6.11455000E-03	 1.49629000E-03
		-1.00607000E-04	 6.11146000E-03	 1.25037000E-03
		-1.00277000E-04	 6.08922000E-03	 1.25581000E-03
		-9.99467000E-05	 6.11146000E-03	 1.25037000E-03
		-1.00277000E-04	 6.09851000E-03	 1.00508000E-03
		-1.00277000E-04	 6.53717000E-03	 1.24213000E-03
		-1.00277000E-04	 6.76358000E-03	 1.25204000E-03
		-1.07835000E-04	 6.69178000E-03	 1.25204000E-03
		-1.00277000E-04	 6.65750000E-03	 1.25204000E-03
		-9.27192000E-05	 6.69178000E-03	 1.25204000E-03
		-1.00277000E-04	 6.65531000E-03	 1.25204000E-03
		-1.00277000E-04	 6.53717000E-03	 1.26195000E-03
		-1.00277000E-04	 6.11455000E-03	 1.00779000E-03
		-1.00607000E-04	 6.11146000E-03	 1.25371000E-03
		-1.00277000E-04	 6.08922000E-03	 1.24827000E-03
		-9.99467000E-05	 6.11146000E-03	 1.25371000E-03
		-1.00277000E-04	 6.09851000E-03	 1.49900000E-03
		-1.00277000E-04	 5.48661000E-03	 1.25735000E-03
		-1.00277000E-04	 4.66496000E-03	 8.30045000E-04
		-1.01035000E-04	 4.67334000E-03	 1.25601000E-03
		-1.00277000E-04	 4.65424000E-03	 1.25205000E-03
		-9.95192000E-05	 4.67334000E-03	 1.25601000E-03
		-1.00277000E-04	 4.66308000E-03	 1.67951000E-03
		-1.00277000E-04	 3.71942000E-03	 1.25844000E-03
		-1.00277000E-04	 2.65070000E-03	 7.25165000E-04
		-1.01347000E-04	 2.67002000E-03	 1.25660000E-03
		-1.00277000E-04	 2.64180000E-03	 1.25450000E-03
		-9.92065000E-05	 2.67002000E-03	 1.25660000E-03
		-1.00277000E-04	 2.67226000E-03	 1.78220000E-03
		-1.00277000E-04	 1.53864000E-03	 1.25015000E-03
FIELD S 1
	S 10 261 double
		-2.71238000E+00	 4.93439000E+00	 4.58962000E+00	 4.61885000E+00	 3.12908000E+00	-7.84342000E-01	 1.22953613E+01	-5.32768641E+00	 3.40654947E+00	 8.73276695E+00
		-2.71238000E+00	 4.93439000E+00	 4.58962000E+00	-4.61885000E+00	 3.12908000E+00	 7.84342000E-01	 1.22953613E+01	-5.32768641E+00	 3.40654947E+00	 8.73276695E+00
		 1.45243000E+01	-9.17220000E+01	 2.28734000E+01	-3.37318000E+01	 3.51777000E+01	-1.16414000E+01	 1.40632592E+02	-1.08788827E+02	 6.61035966E+00	 4.78541678E+01
		 1.45243000E+01	-9.17220000E+01	 2.28734000E+01	 3.37318000E+01	 3.51777000E+01	 1.16414000E+01	 1.40632592E+02	-1.08788827E+02	 6.61035966E+00	 4.78541678E+01
		-2.71238000E+00	 4.93439000E+00	 4.58962000E+00	 4.61885000E+00	-3.12908000E+00	 7.84342000E-01	 1.22953613E+01	-5.32768641E+00	 3.40654947E+00	 8.73276695E+00
		-2.71238000E+00	 4.93439000E+00	 4.58962000E+00	-4.61885000E+00	-3.12908000E+00	-7.84342000E-01	 1.22953613E+01	-5.32768641E+00	 3.40654947E+00	 8.73276695E+00
		 1.45243000E+01	-9.17220000E+01	 2.28734000E+01	-3.37318000E+01	-3.51777000E+01	 1.16414000E+01	 1.40632592E+02	-1.08788827E+02	 6.61035966E+00	 4.78541678E+01