# vtk DataFile Version 3.0

ASCII
DATASET UNSTRUCTURED_GRID

POINTS 40 double
	 5.00000000E+00	-5.00000000E+00	 0.00000000E+00
	-5.00000000E+00	-5.00000000E+00	 0.00000000E+00
	-5.00000000E+00	 5.00000000E+00	 0.00000000E+00
	 5.00000000E+00	 5.00000000E+00	 0.00000000E+00
	 0.00000000E+00	-5.00000000E+00	 0.00000000E+00
	-5.00000000E+00	 0.00000000E+00	 0.00000000E+00
	 0.00000000E+00	 5.00000000E+00	 0.00000000E+00
	 5.00000000E+00	 0.00000000E+00	 0.00000000E+00
	 5.00000000E+00	-5.00000000E+00	-1.50000000E+01
	-5.00000000E+00	-5.00000000E+00	-1.50000000E+01
	-5.00000000E+00	 5.00000000E+00	-1.50000000E+01
	 5.00000000E+00	 5.00000000E+00	-1.50000000E+01
	 5.00000000E+00	-5.00000000E+00	-3.00000000E+01
	-5.00000000E+00	-5.00000000E+00	-3.00000000E+01
	-5.00000000E+00	 5.00000000E+00	-3.00000000E+01
	 5.00000000E+00	 5.00000000E+00	-3.00000000E+01
	 0.00000000E+00	-5.00000000E+00	-3.00000000E+01
	-5.00000000E+00	 0.00000000E+00	-3.00000000E+01
	 0.00000000E+00	 5.00000000E+00	-3.00000000E+01
	 5.00000000E+00	 0.00000000E+00	-3.00000000E+01
	 5.00000000E+00	-5.00000000E+00	-3.00000000E+01
	-5.00000000E+00	-5.00000000E+00	-3.00000000E+01
	-5.00000000E+00	 5.00000000E+00	-3.00000000E+01
	 5.00000000E+00	 5.00000000E+00	-3.00000000E+01
	 0.00000000E+00	-5.00000000E+00	-3.00000000E+01
	-5.00000000E+00	 0.00000000E+00	-3.00000000E+01
	 0.00000000E+00	 5.00000000E+00	-3.00000000E+01
	 5.00000000E+00	 0.00000000E+00	-3.00000000E+01
	 5.00000000E+00	-5.00000000E+00	-1.80000000E+02
	-5.00000000E+00	-5.00000000E+00	-1.80000000E+02
	-5.00000000E+00	 5.00000000E+00	-1.80000000E+02
	 5.00000000E+00	 5.00000000E+00	-1.80000000E+02
	 5.00000000E+00	-5.00000000E+00	-3.30000000E+02
	-5.00000000E+00	-5.00000000E+00	-3.30000000E+02
	-5.00000000E+00	 5.00000000E+00	-3.30000000E+02
	 5.00000000E+00	 5.00000000E+00	-3.30000000E+02
	 0.00000000E+00	-5.00000000E+00	-3.30000000E+02
	-5.00000000E+00	 0.00000000E+00	-3.30000000E+02
	 0.00000000E+00	 5.00000000E+00	-3.30000000E+02
	 5.00000000E+00	 0.00000000E+00	-3.30000000E+02

CELLS 2 42
	20 0 12 13 1 3 15 14 2 8 16 9 4 11 18 10 6 7 19 17 5 
	20 20 32 33 21 23 35 34 22 28 36 29 24 31 38 30 26 27 39 37 25 

CELL_TYPES 2
	25
	25

POINT_DATA 40
FIELD U 1
	U 3 40 double
		-3.61637000E-08	 2.63041000E-08	-3.14000000E-04
		 3.61637000E-08	 2.63041000E-08	 3.14000000E-04
		 3.61637000E-08	-2.63041000E-08	 3.14000000E-04
		-3.61637000E-08	-2.63041000E-08	-3.14000000E-04
		 0.00000000E+00	 2.63041000E-08	 0.00000000E+00
		 3.61637000E-08	 0.00000000E+00	 3.14000000E-04
		 0.00000000E+00	-2.63041000E-08	 0.00000000E+00
		-3.61637000E-08	 0.00000000E+00	-3.14000000E-04
		-2.29971000E-04	 1.75138000E-08	-7.39540000E-06
		-2.29936000E-04	 1.75138000E-08	 6.96495000E-06
		-2.29936000E-04	-1.75138000E-08	 6.96495000E-06
		-2.29971000E-04	-1.75138000E-08	-7.39540000E-06
		-4.38634000E-06	 1.18855000E-08	 8.41685000E-05
		-4.36114000E-06	 1.18855000E-08	-8.48765000E-05
		-4.36114000E-06	-1.18855000E-08	-8.48765000E-05
		-4.38634000E-06	-1.18855000E-08	 8.41685000E-05
		-4.37375000E-06	 1.18855000E-08	-3.54021000E-07
		-4.36114000E-06	 0.00000000E+00	-8.48765000E-05
		-4.37375000E-06	-1.18855000E-08	-3.54021000E-07
		-4.38634000E-06	 0.00000000E+00	 8.41685000E-05
		-4.37619000E-06	 2.44298000E-09	-7.18541000E-08
		-4.37130000E-06	 2.44298000E-09	-6.36187000E-07
		-4.37130000E-06	-2.44298000E-09	-6.36187000E-07
		-4.37619000E-06	-2.44298000E-09	-7.18541000E-08
		-4.37375000E-06	 2.44298000E-09	-3.54021000E-07
		-4.37130000E-06	 0.00000000E+00	-6.36187000E-07
		-4.37375000E-06	-2.44298000E-09	-3.54021000E-07
		-4.37619000E-06	 0.00000000E+00	-7.18541000E-08
		 7.23756000E-07	 5.24914000E-10	-4.55903000E-07
		 7.24806000E-07	 5.24914000E-10	-5.50650000E-07
		 7.24806000E-07	-5.24914000E-10	-5.50650000E-07
		 7.23756000E-07	-5.24914000E-10	-4.55903000E-07
		-1.44875000E-06	-1.39315000E-09	-6.47019000E-07
		-1.45153000E-06	-1.39315000E-09	-2.72178000E-07
		-1.45153000E-06	 1.39315000E-09	-2.72178000E-07
		-1.44875000E-06	 1.39315000E-09	-6.47019000E-07
		-1.45014000E-06	-1.39315000E-09	-4.59599000E-07
		-1.45153000E-06	 0.00000000E+00	-2.72178000E-07
		-1.45014000E-06	 1.39315000E-09	-4.59599000E-07
		-1.44875000E-06	 0.00000000E+00	-6.47019000E-07
