<?xml version="1.0"?>
<VTKFile type="UnstructuredGrid" version="0.1" byte_order="LittleEndian">
	<UnstructuredGrid>
		<Piece NumberOfPoints="40" NumberOfCells="2">
			<Points>
				<DataArray type="Float64" NumberOfComponents="3" format="ascii">
					 5.00000000E+00	-5.00000000E+00	 0.00000000E+00
					-5.00000000E+00	-5.00000000E+00	 0.00000000E+00
					-5.00000000E+00	 5.00000000E+00	 0.00000000E+00
					 5.00000000E+00	 5.00000000E+00	 0.00000000E+00
					 0.00000000E+00	-5.00000000E+00	 0.00000000E+00
					-5.00000000E+00	 0.00000000E+00	 0.00000000E+00
					 0.00000000E+00	 5.00000000E+00	 0.00000000E+00
					 5.00000000E+00	 0.00000000E+00	 0.00000000E+00
					 5.00000000E+00	-5.00000000E+00	-1.50000000E+01
					-5.00000000E+00	-5.00000000E+00	-1.50000000E+01
					-5.00000000E+00	 5.00000000E+00	-1.50000000E+01
					 5.00000000E+00	 5.00000000E+00	-1.50000000E+01
					 5.00000000E+00	-5.00000000E+00	-3.00000000E+01
					-5.00000000E+00	-5.00000000E+00	-3.00000000E+01
					-5.00000000E+00	 5.00000000E+00	-3.00000000E+01
					 5.00000000E+00	 5.00000000E+00	-3.00000000E+01
					 0.00000000E+00	-5.00000000E+00	-3.00000000E+01
					-5.00000000E+00	 0.00000000E+00	-3.00000000E+01
					 0.00000000E+00	 5.00000000E+00	-3.00000000E+01
					 5.00000000E+00	 0.00000000E+00	-3.00000000E+01
					 5.00000000E+00	-5.00000000E+00	-3.00000000E+01
					-5.00000000E+00	-5.00000000E+00	-3.00000000E+01
					-5.00000000E+00	 5.00000000E+00	-3.00000000E+01
					 5.00000000E+00	 5.00000000E+00	-3.00000000E+01
					 0.00000000E+00	-5.00000000E+00	-3.00000000E+01
					-5.00000000E+00	 0.00000000E+00	-3.00000000E+01
					 0.00000000E+00	 5.00000000E+00	-3.00000000E+01
					 5.00000000E+00	 0.00000000E+00	-3.00000000E+01
					 5.00000000E+00	-5.00000000E+00	-1.80000000E+02
					-5.00000000E+00	-5.00000000E+00	-1.80000000E+02
					-5.00000000E+00	 5.00000000E+00	-1.80000000E+02
					 5.00000000E+00	 5.00000000E+00	-1.80000000E+02
					 5.00000000E+00	-5.00000000E+00	-3.30000000E+02
					-5.00000000E+00	-5.00000000E+00	-3.30000000E+02
					-5.00000000E+00	 5.00000000E+00	-3.30000000E+02
					 5.00000000E+00	 5.00000000E+00	-3.30000000E+02
					 0.00000000E+00	-5.00000000E+00	-3.30000000E+02
					-5.00000000E+00	 0.00000000E+00	-3.30000000E+02
					 0.00000000E+00	 5.00000000E+00	-3.30000000E+02
					 5.00000000E+00	 0.00000000E+00	-3.30000000E+02
				</DataArray>
			</Points>
			<Cells>
				<DataArray type="Int32" Name="connectivity" format="ascii">
					0 12 13 1 3 15 14 2 8 16 9 4 11 18 10 6 7 19 17 5 20 32 33 21 23 35 34 22 28 36 29 24 31 38 30 26 27 39 37 25 
				</DataArray>
				<DataArray type="Int32" Name="offsets" format="ascii">
					20 40 
				</DataArray>
				<DataArray type="UInt8" Name="types" format="ascii">
					25 25 
				</DataArray>
			</Cells>
			<PointData>
				<DataArray type="Float32" Name="U" NumberOfComponents="3" ComponentName0="D1" ComponentName1="D2" ComponentName2="D3" format="ascii">
					-8.36818000E+00	-1.09196000E-07	-3.69531000E+00
					 8.36818000E+00	-1.09196000E-07	 3.69531000E+00
					 8.36818000E+00	 1.09196000E-07	 3.69531000E+00
					-8.36818000E+00	 1.09196000E-07	-3.69531000E+00
					 0.00000000E+00	-1.09196000E-07	 0.00000000E+00
					 8.36818000E+00	 0.00000000E+00	 3.69531000E+00
					 0.00000000E+00	 1.09196000E-07	 0.00000000E+00
					-8.36818000E+00	 0.00000000E+00	-3.69531000E+00
					-1.94541000E+01	-1.04074000E-07	 2.14092000E+01
					-2.71778000E+00	-1.04074000E-07	 2.87999000E+01
					-2.71778000E+00	 1.04074000E-07	 2.87999000E+01
					-1.94541000E+01	 1.04074000E-07	 2.14092000E+01
					-3.05401000E+01	-9.89458000E-08	 4.65137000E+01
					-1.38038000E+01	-9.89458000E-08	 5.39044000E+01
					-1.38038000E+01	 9.89458000E-08	 5.39044000E+01
					-3.05401000E+01	 9.89458000E-08	 4.65137000E+01
					-2.21719000E+01	-9.89458000E-08	 5.02090000E+01
					-1.38038000E+01	 0.00000000E+00	 5.39044000E+01
					-2.21719000E+01	 9.89458000E-08	 5.02090000E+01
					-3.05401000E+01	 0.00000000E+00	 4.65137000E+01
					-2.21935000E+01	 1.65458000E-07	 4.97455000E+01
					-2.21504000E+01	 1.65458000E-07	 5.06726000E+01
					-2.21504000E+01	-1.65458000E-07	 5.06726000E+01
					-2.21935000E+01	-1.65458000E-07	 4.97455000E+01
					-2.21719000E+01	 1.65458000E-07	 5.02090000E+01
					-2.21504000E+01	 0.00000000E+00	 5.06726000E+01
					-2.21719000E+01	-1.65458000E-07	 5.02090000E+01
					-2.21935000E+01	 0.00000000E+00	 4.97455000E+01
					-3.61006000E+01	 8.32161000E-08	 5.03916000E+01
					-3.60576000E+01	 8.32161000E-08	 5.13187000E+01
					-3.60576000E+01	-8.32161000E-08	 5.13187000E+01
					-3.61006000E+01	-8.32161000E-08	 5.03916000E+01
					-5.00078000E+01	 9.73866000E-10	 5.10376000E+01
					-4.99647000E+01	 9.73866000E-10	 5.19648000E+01
					-4.99647000E+01	-9.73866000E-10	 5.19648000E+01
					-5.00078000E+01	-9.73866000E-10	 5.10376000E+01
					-4.99863000E+01	 9.73866000E-10	 5.15012000E+01
					-4.99647000E+01	 0.00000000E+00	 5.19648000E+01
					-4.99863000E+01	-9.73866000E-10	 5.15012000E+01
					-5.00078000E+01	 0.00000000E+00	 5.10376000E+01
				</DataArray>
			</PointData>
		</Piece>
	</UnstructuredGrid>
</VTKFile>