# vtk DataFile Version 3.0

ASCII
DATASET UNSTRUCTURED_GRID

POINTS 40 double
	 5.00000000E+00	-5.00000000E+00	 0.00000000E+00
	-5.00000000E+00	-5.00000000E+00	 0.00000000E+00
	-5.00000000E+00	 5.00000000E+00	 0.00000000E+00
	 5.00000000E+00	 5.00000000E+00	 0.00000000E+00
	 0.00000000E+00	-5.00000000E+00	 0.00000000E+00
	-5.00000000E+00	 0.00000000E+00	 0.00000000E+00
	 0.00000000E+00	 5.00000000E+00	 0.00000000E+00
	 5.00000000E+00	 0.00000000E+00	 0.00000000E+00
	 5.00000000E+00	-5.00000000E+00	-1.50000000E+01
	-5.00000000E+00	-5.00000000E+00	-1.50000000E+01
	-5.00000000E+00	 5.00000000E+00	-1.50000000E+01
	 5.00000000E+00	 5.00000000E+00	-1.50000000E+01
	 5.00000000E+00	-5.00000000E+00	-3.00000000E+01
	-5.00000000E+00	-5.00000000E+00	-3.00000000E+01
	-5.00000000E+00	 5.00000000E+00	-3.00000000E+01
	 5.00000000E+00	 5.00000000E+00	-3.00000000E+01
	 0.00000000E+00	-5.00000000E+00	-3.00000000E+01
	-5.00000000E+00	 0.00000000E+00	-3.00000000E+01
	 0.00000000E+00	 5.00000000E+00	-3.00000000E+01
	 5.00000000E+00	 0.00000000E+00	-3.00000000E+01
	 5.00000000E+00	-5.00000000E+00	-3.00000000E+01
	-5.00000000E+00	-5.00000000E+00	-3.00000000E+01
	-5.00000000E+00	 5.00000000E+00	-3.00000000E+01
	 5.00000000E+00	 5.00000000E+00	-3.00000000E+01
	 0.00000000E+00	-5.00000000E+00	-3.00000000E+01
	-5.00000000E+00	 0.00000000E+00	-3.00000000E+01
	 0.00000000E+00	 5.00000000E+00	-3.00000000E+01
	 5.00000000E+00	 0.00000000E+00	-3.00000000E+01
	 5.00000000E+00	-5.00000000E+00	-1.80000000E+02
	-5.00000000E+00	-5.00000000E+00	-1.80000000E+02
	-5.00000000E+00	 5.00000000E+00	-1.80000000E+02
	 5.00000000E+00	 5.00000000E+00	-1.80000000E+02
	 5.00000000E+00	-5.00000000E+00	-3.30000000E+02
	-5.00000000E+00	-5.00000000E+00	-3.30000000E+02
	-5.00000000E+00	 5.00000000E+00	-3.30000000E+02
	 5.00000000E+00	 5.00000000E+00	-3.30000000E+02
	 0.00000000E+00	-5.00000000E+00	-3.30000000E+02
	-5.00000000E+00	 0.00000000E+00	-3.30000000E+02
	 0.00000000E+00	 5.00000000E+00	-3.30000000E+02
	 5.00000000E+00	 0.00000000E+00	-3.30000000E+02

CELLS 2 42
	20 0 12 13 1 3 15 14 2 8 16 9 4 11 18 10 6 7 19 17 5 
	20 20 32 33 21 23 35 34 22 28 36 29 24 31 38 30 26 27 39 37 25 

CELL_TYPES 2
	25
	25

POINT_DATA 40
FIELD U 1
	U 3 40 double
		-9.99997000E+00	-1.61306000E-07	 1.81344000E-02
		 9.99997000E+00	-1.61306000E-07	-1.81344000E-02
		 9.99997000E+00	 1.61306000E-07	-1.81344000E-02
		-9.99997000E+00	 1.61306000E-07	 1.81344000E-02
		 0.00000000E+00	-1.61306000E-07	 0.00000000E+00
		 9.99997000E+00	 0.00000000E+00	-1.81344000E-02
		 0.00000000E+00	 1.61306000E-07	 0.00000000E+00
		-9.99997000E+00	 0.00000000E+00	 1.81344000E-02
		-9.94557000E+00	-1.53454000E-07	 3.00180000E+01
		 1.00544000E+01	-1.53454000E-07	 2.99818000E+01
		 1.00544000E+01	 1.53454000E-07	 2.99818000E+01
		-9.94557000E+00	 1.53454000E-07	 3.00180000E+01
		-9.89118000E+00	-1.45602000E-07	 6.00179000E+01
		 1.01088000E+01	-1.45602000E-07	 5.99817000E+01
		 1.01088000E+01	 1.45602000E-07	 5.99817000E+01
		-9.89118000E+00	 1.45602000E-07	 6.00179000E+01
		 1.08792000E-01	-1.45602000E-07	 5.99998000E+01
		 1.01088000E+01	 0.00000000E+00	 5.99817000E+01
		 1.08792000E-01	 1.45602000E-07	 5.99998000E+01
		-9.89118000E+00	 0.00000000E+00	 6.00179000E+01
		-5.01492000E-02	 1.47964000E-07	 5.87491000E+01
		 2.67733000E-01	 1.47964000E-07	 6.12505000E+01
		 2.67733000E-01	-1.47964000E-07	 6.12505000E+01
		-5.01492000E-02	-1.47964000E-07	 5.87491000E+01
		 1.08792000E-01	 1.47964000E-07	 5.99998000E+01
		 2.67733000E-01	 0.00000000E+00	 6.12505000E+01
		 1.08792000E-01	-1.47964000E-07	 5.99998000E+01
		-5.01492000E-02	 0.00000000E+00	 5.87491000E+01
		-3.75700000E+01	 7.41006000E-08	 6.35174000E+01
		-3.72522000E+01	 7.41006000E-08	 6.60187000E+01
		-3.72522000E+01	-7.41006000E-08	 6.60187000E+01
		-3.75700000E+01	-7.41006000E-08	 6.35174000E+01
		-7.50902000E+01	 2.43363000E-10	 6.82857000E+01
		-7.47724000E+01	 2.43363000E-10	 7.07871000E+01
		-7.47724000E+01	-2.43363000E-10	 7.07871000E+01
		-7.50902000E+01	-2.43363000E-10	 6.82857000E+01
		-7.49313000E+01	 2.43363000E-10	 6.95364000E+01
		-7.47724000E+01	 0.00000000E+00	 7.07871000E+01
		-7.49313000E+01	-2.43363000E-10	 6.95364000E+01
		-7.50902000E+01	 0.00000000E+00	 6.82857000E+01
