# vtk DataFile Version 3.0

ASCII
DATASET UNSTRUCTURED_GRID

POINTS 40 double
	 5.00000000E+00	-5.00000000E+00	 0.00000000E+00
	-5.00000000E+00	-5.00000000E+00	 0.00000000E+00
	-5.00000000E+00	 5.00000000E+00	 0.00000000E+00
	 5.00000000E+00	 5.00000000E+00	 0.00000000E+00
	 0.00000000E+00	-5.00000000E+00	 0.00000000E+00
	-5.00000000E+00	 0.00000000E+00	 0.00000000E+00
	 0.00000000E+00	 5.00000000E+00	 0.00000000E+00
	 5.00000000E+00	 0.00000000E+00	 0.00000000E+00
	 5.00000000E+00	-5.00000000E+00	-1.50000000E+01
	-5.00000000E+00	-5.00000000E+00	-1.50000000E+01
	-5.00000000E+00	 5.00000000E+00	-1.50000000E+01
	 5.00000000E+00	 5.00000000E+00	-1.50000000E+01
	 5.00000000E+00	-5.00000000E+00	-3.00000000E+01
	-5.00000000E+00	-5.00000000E+00	-3.00000000E+01
	-5.00000000E+00	 5.00000000E+00	-3.00000000E+01
	 5.00000000E+00	 5.00000000E+00	-3.00000000E+01
	 0.00000000E+00	-5.00000000E+00	-3.00000000E+01
	-5.00000000E+00	 0.00000000E+00	-3.00000000E+01
	 0.00000000E+00	 5.00000000E+00	-3.00000000E+01
	 5.00000000E+00	 0.00000000E+00	-3.00000000E+01
	 5.00000000E+00	-5.00000000E+00	-3.00000000E+01
	-5.00000000E+00	-5.00000000E+00	-3.00000000E+01
	-5.00000000E+00	 5.00000000E+00	-3.00000000E+01
	 5.00000000E+00	 5.00000000E+00	-3.00000000E+01
	 0.00000000E+00	-5.00000000E+00	-3.00000000E+01
	-5.00000000E+00	 0.00000000E+00	-3.00000000E+01
	 0.00000000E+00	 5.00000000E+00	-3.00000000E+01
	 5.00000000E+00	 0.00000000E+00	-3.00000000E+01
	 5.00000000E+00	-5.00000000E+00	-1.80000000E+02
	-5.00000000E+00	-5.00000000E+00	-1.80000000E+02
	-5.00000000E+00	 5.00000000E+00	-1.80000000E+02
	 5.00000000E+00	 5.00000000E+00	-1.80000000E+02
	 5.00000000E+00	-5.00000000E+00	-3.30000000E+02
	-5.00000000E+00	-5.00000000E+00	-3.30000000E+02
	-5.00000000E+00	 5.00000000E+00	-3.30000000E+02
	 5.00000000E+00	 5.00000000E+00	-3.30000000E+02
	 0.00000000E+00	-5.00000000E+00	-3.30000000E+02
	-5.00000000E+00	 0.00000000E+00	-3.30000000E+02
	 0.00000000E+00	 5.00000000E+00	-3.30000000E+02
	 5.00000000E+00	 0.00000000E+00	-3.30000000E+02

CELLS 2 42
	20 0 12 13 1 3 15 14 2 8 16 9 4 11 18 10 6 7 19 17 5 
	20 20 32 33 21 23 35 34 22 28 36 29 24 31 38 30 26 27 39 37 25 

CELL_TYPES 2
	25
	25

POINT_DATA 40
FIELD U 1
	U 3 40 double
		-9.56283000E+00	-1.55848000E-07	 2.04464000E+00
		 9.56283000E+00	-1.55848000E-07	-2.04464000E+00
		 9.56283000E+00	 1.55848000E-07	-2.04464000E+00
		-9.56283000E+00	 1.55848000E-07	 2.04464000E+00
		 0.00000000E+00	-1.55848000E-07	 0.00000000E+00
		 9.56283000E+00	 0.00000000E+00	-2.04464000E+00
		 0.00000000E+00	 1.55848000E-07	 0.00000000E+00
		-9.56283000E+00	 0.00000000E+00	 2.04464000E+00
		-3.42891000E+00	-1.48727000E-07	 3.07331000E+01
		 1.56968000E+01	-1.48727000E-07	 2.66439000E+01
		 1.56968000E+01	 1.48727000E-07	 2.66439000E+01
		-3.42891000E+00	 1.48727000E-07	 3.07331000E+01
		 2.70503000E+00	-1.41606000E-07	 5.94216000E+01
		 2.18307000E+01	-1.41606000E-07	 5.53323000E+01
		 2.18307000E+01	 1.41606000E-07	 5.53323000E+01
		 2.70503000E+00	 1.41606000E-07	 5.94216000E+01
		 1.22679000E+01	-1.41606000E-07	 5.73770000E+01
		 2.18307000E+01	 0.00000000E+00	 5.53323000E+01
		 1.22679000E+01	 1.41606000E-07	 5.73770000E+01
		 2.70503000E+00	 0.00000000E+00	 5.94216000E+01
		 1.20819000E+01	 1.44930000E-07	 5.60261000E+01
		 1.24538000E+01	 1.44930000E-07	 5.87279000E+01
		 1.24538000E+01	-1.44930000E-07	 5.87279000E+01
		 1.20819000E+01	-1.44930000E-07	 5.60261000E+01
		 1.22679000E+01	 1.44930000E-07	 5.73770000E+01
		 1.24538000E+01	 0.00000000E+00	 5.87279000E+01
		 1.22679000E+01	-1.44930000E-07	 5.73770000E+01
		 1.20819000E+01	 0.00000000E+00	 5.60261000E+01
		-2.84445000E+01	 7.24601000E-08	 6.16045000E+01
		-2.80726000E+01	 7.24601000E-08	 6.43062000E+01
		-2.80726000E+01	-7.24601000E-08	 6.43062000E+01
		-2.84445000E+01	-7.24601000E-08	 6.16045000E+01
		-6.89714000E+01	 1.89597000E-12	 6.71829000E+01
		-6.85995000E+01	 1.89597000E-12	 6.98847000E+01
		-6.85995000E+01	-1.89597000E-12	 6.98847000E+01
		-6.89714000E+01	-1.89597000E-12	 6.71829000E+01
		-6.87854000E+01	 1.89597000E-12	 6.85338000E+01
		-6.85995000E+01	 0.00000000E+00	 6.98847000E+01
		-6.87854000E+01	-1.89597000E-12	 6.85338000E+01
		-6.89714000E+01	 0.00000000E+00	 6.71829000E+01
