# vtk DataFile Version 3.0

ASCII
DATASET UNSTRUCTURED_GRID

POINTS 40 double
	 5.00000000E+00	-5.00000000E+00	 0.00000000E+00
	-5.00000000E+00	-5.00000000E+00	 0.00000000E+00
	-5.00000000E+00	 5.00000000E+00	 0.00000000E+00
	 5.00000000E+00	 5.00000000E+00	 0.00000000E+00
	 0.00000000E+00	-5.00000000E+00	 0.00000000E+00
	-5.00000000E+00	 0.00000000E+00	 0.00000000E+00
	 0.00000000E+00	 5.00000000E+00	 0.00000000E+00
	 5.00000000E+00	 0.00000000E+00	 0.00000000E+00
	 5.00000000E+00	-5.00000000E+00	-1.50000000E+01
	-5.00000000E+00	-5.00000000E+00	-1.50000000E+01
	-5.00000000E+00	 5.00000000E+00	-1.50000000E+01
	 5.00000000E+00	 5.00000000E+00	-1.50000000E+01
	 5.00000000E+00	-5.00000000E+00	-3.00000000E+01
	-5.00000000E+00	-5.00000000E+00	-3.00000000E+01
	-5.00000000E+00	 5.00000000E+00	-3.00000000E+01
	 5.00000000E+00	 5.00000000E+00	-3.00000000E+01
	 0.00000000E+00	-5.00000000E+00	-3.00000000E+01
	-5.00000000E+00	 0.00000000E+00	-3.00000000E+01
	 0.00000000E+00	 5.00000000E+00	-3.00000000E+01
	 5.00000000E+00	 0.00000000E+00	-3.00000000E+01
	 5.00000000E+00	-5.00000000E+00	-3.00000000E+01
	-5.00000000E+00	-5.00000000E+00	-3.00000000E+01
	-5.00000000E+00	 5.00000000E+00	-3.00000000E+01
	 5.00000000E+00	 5.00000000E+00	-3.00000000E+01
	 0.00000000E+00	-5.00000000E+00	-3.00000000E+01
	-5.00000000E+00	 0.00000000E+00	-3.00000000E+01
	 0.00000000E+00	 5.00000000E+00	-3.00000000E+01
	 5.00000000E+00	 0.00000000E+00	-3.00000000E+01
	 5.00000000E+00	-5.00000000E+00	-1.80000000E+02
	-5.00000000E+00	-5.00000000E+00	-1.80000000E+02
	-5.00000000E+00	 5.00000000E+00	-1.80000000E+02
	 5.00000000E+00	 5.00000000E+00	-1.80000000E+02
	 5.00000000E+00	-5.00000000E+00	-3.30000000E+02
	-5.00000000E+00	-5.00000000E+00	-3.30000000E+02
	-5.00000000E+00	 5.00000000E+00	-3.30000000E+02
	 5.00000000E+00	 5.00000000E+00	-3.30000000E+02
	 0.00000000E+00	-5.00000000E+00	-3.30000000E+02
	-5.00000000E+00	 0.00000000E+00	-3.30000000E+02
	 0.00000000E+00	 5.00000000E+00	-3.30000000E+02
	 5.00000000E+00	 0.00000000E+00	-3.30000000E+02

CELLS 2 42
	20 0 12 13 1 3 15 14 2 8 16 9 4 11 18 10 6 7 19 17 5 
	20 20 32 33 21 23 35 34 22 28 36 29 24 31 38 30 26 27 39 37 25 

CELL_TYPES 2
	25
	25

POINT_DATA 40
FIELD U 1
	U 3 40 double
		-1.78567000E-01	 1.89870000E-07	-1.32430000E+00
		 1.78567000E-01	 1.89870000E-07	 1.32430000E+00
		 1.78567000E-01	-1.89870000E-07	 1.32430000E+00
		-1.78567000E-01	-1.89870000E-07	-1.32430000E+00
		 0.00000000E+00	 1.89870000E-07	 0.00000000E+00
		 1.78567000E-01	 0.00000000E+00	 1.32430000E+00
		 0.00000000E+00	-1.89870000E-07	 0.00000000E+00
		-1.78567000E-01	 0.00000000E+00	-1.32430000E+00
		-4.15146000E+00	 1.81325000E-07	-7.88601000E-01
		-3.79433000E+00	 1.81325000E-07	 1.85999000E+00
		-3.79433000E+00	-1.81325000E-07	 1.85999000E+00
		-4.15146000E+00	-1.81325000E-07	-7.88601000E-01
		-8.12433000E+00	 1.72783000E-07	-2.52909000E-01
		-7.76721000E+00	 1.72783000E-07	 2.39567000E+00
		-7.76721000E+00	-1.72783000E-07	 2.39567000E+00
		-8.12433000E+00	-1.72783000E-07	-2.52909000E-01
		-7.94577000E+00	 1.72783000E-07	 1.07138000E+00
		-7.76721000E+00	 0.00000000E+00	 2.39567000E+00
		-7.94577000E+00	-1.72783000E-07	 1.07138000E+00
		-8.12433000E+00	 0.00000000E+00	-2.52909000E-01
		-7.94958000E+00	 1.96509000E-07	 1.26661000E+00
		-7.94196000E+00	 1.96509000E-07	 8.76152000E-01
		-7.94196000E+00	-1.96509000E-07	 8.76152000E-01
		-7.94958000E+00	-1.96509000E-07	 1.26661000E+00
		-7.94577000E+00	 1.96509000E-07	 1.07138000E+00
		-7.94196000E+00	 0.00000000E+00	 8.76152000E-01
		-7.94577000E+00	-1.96509000E-07	 1.07138000E+00
		-7.94958000E+00	 0.00000000E+00	 1.26661000E+00
		-2.09416000E+00	 9.75153000E-08	 1.38083000E+00
		-2.08655000E+00	 9.75153000E-08	 9.90566000E-01
		-2.08655000E+00	-9.75153000E-08	 9.90566000E-01
		-2.09416000E+00	-9.75153000E-08	 1.38083000E+00
		 3.75828000E+00	-8.89073000E-10	 1.49494000E+00
		 3.76589000E+00	-8.89073000E-10	 1.10487000E+00
		 3.76589000E+00	 8.89073000E-10	 1.10487000E+00
		 3.75828000E+00	 8.89073000E-10	 1.49494000E+00
		 3.76208000E+00	-8.89073000E-10	 1.29991000E+00
		 3.76589000E+00	 0.00000000E+00	 1.10487000E+00
		 3.76208000E+00	 8.89073000E-10	 1.29991000E+00
		 3.75828000E+00	 0.00000000E+00	 1.49494000E+00
