<?xml version="1.0"?>
<VTKFile type="UnstructuredGrid" version="0.1" byte_order="LittleEndian">
	<UnstructuredGrid>
		<Piece NumberOfPoints="40" NumberOfCells="2">
			<Points>
				<DataArray type="Float64" NumberOfComponents="3" format="ascii">
					 5.00000000E+00	-5.00000000E+00	 0.00000000E+00
					-5.00000000E+00	-5.00000000E+00	 0.00000000E+00
					-5.00000000E+00	 5.00000000E+00	 0.00000000E+00
					 5.00000000E+00	 5.00000000E+00	 0.00000000E+00
					 0.00000000E+00	-5.00000000E+00	 0.00000000E+00
					-5.00000000E+00	 0.00000000E+00	 0.00000000E+00
					 0.00000000E+00	 5.00000000E+00	 0.00000000E+00
					 5.00000000E+00	 0.00000000E+00	 0.00000000E+00
					 5.00000000E+00	-5.00000000E+00	-1.50000000E+01
					-5.00000000E+00	-5.00000000E+00	-1.50000000E+01
					-5.00000000E+00	 5.00000000E+00	-1.50000000E+01
					 5.00000000E+00	 5.00000000E+00	-1.50000000E+01
					 5.00000000E+00	-5.00000000E+00	-3.00000000E+01
					-5.00000000E+00	-5.00000000E+00	-3.00000000E+01
					-5.00000000E+00	 5.00000000E+00	-3.00000000E+01
					 5.00000000E+00	 5.00000000E+00	-3.00000000E+01
					 0.00000000E+00	-5.00000000E+00	-3.00000000E+01
					-5.00000000E+00	 0.00000000E+00	-3.00000000E+01
					 0.00000000E+00	 5.00000000E+00	-3.00000000E+01
					 5.00000000E+00	 0.00000000E+00	-3.00000000E+01
					 5.00000000E+00	-5.00000000E+00	-3.00000000E+01
					-5.00000000E+00	-5.00000000E+00	-3.00000000E+01
					-5.00000000E+00	 5.00000000E+00	-3.00000000E+01
					 5.00000000E+00	 5.00000000E+00	-3.00000000E+01
					 0.00000000E+00	-5.00000000E+00	-3.00000000E+01
					-5.00000000E+00	 0.00000000E+00	-3.00000000E+01
					 0.00000000E+00	 5.00000000E+00	-3.00000000E+01
					 5.00000000E+00	 0.00000000E+00	-3.00000000E+01
					 5.00000000E+00	-5.00000000E+00	-1.80000000E+02
					-5.00000000E+00	-5.00000000E+00	-1.80000000E+02
					-5.00000000E+00	 5.00000000E+00	-1.80000000E+02
					 5.00000000E+00	 5.00000000E+00	-1.80000000E+02
					 5.00000000E+00	-5.00000000E+00	-3.30000000E+02
					-5.00000000E+00	-5.00000000E+00	-3.30000000E+02
					-5.00000000E+00	 5.00000000E+00	-3.30000000E+02
					 5.00000000E+00	 5.00000000E+00	-3.30000000E+02
					 0.00000000E+00	-5.00000000E+00	-3.30000000E+02
					-5.00000000E+00	 0.00000000E+00	-3.30000000E+02
					 0.00000000E+00	 5.00000000E+00	-3.30000000E+02
					 5.00000000E+00	 0.00000000E+00	-3.30000000E+02
				</DataArray>
			</Points>
			<Cells>
				<DataArray type="Int32" Name="connectivity" format="ascii">
					0 12 13 1 3 15 14 2 8 16 9 4 11 18 10 6 7 19 17 5 20 32 33 21 23 35 34 22 28 36 29 24 31 38 30 26 27 39 37 25 
				</DataArray>
				<DataArray type="Int32" Name="offsets" format="ascii">
					20 40 
				</DataArray>
				<DataArray type="UInt8" Name="types" format="ascii">
					25 25 
				</DataArray>
			</Cells>
			<PointData>
				<DataArray type="Float32" Name="U" NumberOfComponents="3" ComponentName0="D1" ComponentName1="D2" ComponentName2="D3" format="ascii">
					-3.13670000E+00	 1.05523000E-07	 4.63984000E+00
					 3.13670000E+00	 1.05523000E-07	-4.63984000E+00
					 3.13670000E+00	-1.05523000E-07	-4.63984000E+00
					-3.13670000E+00	-1.05523000E-07	 4.63984000E+00
					 0.00000000E+00	 1.05523000E-07	 0.00000000E+00
					 3.13670000E+00	 0.00000000E+00	-4.63984000E+00
					 0.00000000E+00	-1.05523000E-07	 0.00000000E+00
					-3.13670000E+00	 0.00000000E+00	 4.63984000E+00
					 1.07828000E+01	 1.01900000E-07	 1.40499000E+01
					 1.70562000E+01	 1.01900000E-07	 4.77023000E+00
					 1.70562000E+01	-1.01900000E-07	 4.77023000E+00
					 1.07828000E+01	-1.01900000E-07	 1.40499000E+01
					 2.47023000E+01	 9.82851000E-08	 2.34599000E+01
					 3.09757000E+01	 9.82851000E-08	 1.41803000E+01
					 3.09757000E+01	-9.82851000E-08	 1.41803000E+01
					 2.47023000E+01	-9.82851000E-08	 2.34599000E+01
					 2.78390000E+01	 9.82851000E-08	 1.88201000E+01
					 3.09757000E+01	 0.00000000E+00	 1.41803000E+01
					 2.78390000E+01	-9.82851000E-08	 1.88201000E+01
					 2.47023000E+01	 0.00000000E+00	 2.34599000E+01
					 2.77907000E+01	 2.02472000E-07	 1.95133000E+01
					 2.78873000E+01	 2.02472000E-07	 1.81269000E+01
					 2.78873000E+01	-2.02472000E-07	 1.81269000E+01
					 2.77907000E+01	-2.02472000E-07	 1.95133000E+01
					 2.78390000E+01	 2.02472000E-07	 1.88201000E+01
					 2.78873000E+01	 0.00000000E+00	 1.81269000E+01
					 2.78390000E+01	-2.02472000E-07	 1.88201000E+01
					 2.77907000E+01	 0.00000000E+00	 1.95133000E+01
					 4.85870000E+01	 1.02798000E-07	 2.09619000E+01
					 4.86835000E+01	 1.02798000E-07	 1.95755000E+01
					 4.86835000E+01	-1.02798000E-07	 1.95755000E+01
					 4.85870000E+01	-1.02798000E-07	 2.09619000E+01
					 6.93833000E+01	 3.12494000E-09	 2.24105000E+01
					 6.94798000E+01	 3.12494000E-09	 2.10241000E+01
					 6.94798000E+01	-3.12494000E-09	 2.10241000E+01
					 6.93833000E+01	-3.12494000E-09	 2.24105000E+01
					 6.94315000E+01	 3.12494000E-09	 2.17173000E+01
					 6.94798000E+01	 0.00000000E+00	 2.10241000E+01
					 6.94315000E+01	-3.12494000E-09	 2.17173000E+01
					 6.93833000E+01	 0.00000000E+00	 2.24105000E+01
				</DataArray>
			</PointData>
		</Piece>
	</UnstructuredGrid>
</VTKFile>