# vtk DataFile Version 3.0

ASCII
DATASET UNSTRUCTURED_GRID

POINTS 40 double
	 5.00000000E+00	-5.00000000E+00	 0.00000000E+00
	-5.00000000E+00	-5.00000000E+00	 0.00000000E+00
	-5.00000000E+00	 5.00000000E+00	 0.00000000E+00
	 5.00000000E+00	 5.00000000E+00	 0.00000000E+00
	 0.00000000E+00	-5.00000000E+00	 0.00000000E+00
	-5.00000000E+00	 0.00000000E+00	 0.00000000E+00
	 0.00000000E+00	 5.00000000E+00	 0.00000000E+00
	 5.00000000E+00	 0.00000000E+00	 0.00000000E+00
	 5.00000000E+00	-5.00000000E+00	-1.50000000E+01
	-5.00000000E+00	-5.00000000E+00	-1.50000000E+01
	-5.00000000E+00	 5.00000000E+00	-1.50000000E+01
	 5.00000000E+00	 5.00000000E+00	-1.50000000E+01
	 5.00000000E+00	-5.00000000E+00	-3.00000000E+01
	-5.00000000E+00	-5.00000000E+00	-3.00000000E+01
	-5.00000000E+00	 5.00000000E+00	-3.00000000E+01
	 5.00000000E+00	 5.00000000E+00	-3.00000000E+01
	 0.00000000E+00	-5.00000000E+00	-3.00000000E+01
	-5.00000000E+00	 0.00000000E+00	-3.00000000E+01
	 0.00000000E+00	 5.00000000E+00	-3.00000000E+01
	 5.00000000E+00	 0.00000000E+00	-3.00000000E+01
	 5.00000000E+00	-5.00000000E+00	-3.00000000E+01
	-5.00000000E+00	-5.00000000E+00	-3.00000000E+01
	-5.00000000E+00	 5.00000000E+00	-3.00000000E+01
	 5.00000000E+00	 5.00000000E+00	-3.00000000E+01
	 0.00000000E+00	-5.00000000E+00	-3.00000000E+01
	-5.00000000E+00	 0.00000000E+00	-3.00000000E+01
	 0.00000000E+00	 5.00000000E+00	-3.00000000E+01
	 5.00000000E+00	 0.00000000E+00	-3.00000000E+01
	 5.00000000E+00	-5.00000000E+00	-1.80000000E+02
	-5.00000000E+00	-5.00000000E+00	-1.80000000E+02
	-5.00000000E+00	 5.00000000E+00	-1.80000000E+02
	 5.00000000E+00	 5.00000000E+00	-1.80000000E+02
	 5.00000000E+00	-5.00000000E+00	-3.30000000E+02
	-5.00000000E+00	-5.00000000E+00	-3.30000000E+02
	-5.00000000E+00	 5.00000000E+00	-3.30000000E+02
	 5.00000000E+00	 5.00000000E+00	-3.30000000E+02
	 0.00000000E+00	-5.00000000E+00	-3.30000000E+02
	-5.00000000E+00	 0.00000000E+00	-3.30000000E+02
	 0.00000000E+00	 5.00000000E+00	-3.30000000E+02
	 5.00000000E+00	 0.00000000E+00	-3.30000000E+02

CELLS 2 42
	20 0 12 13 1 3 15 14 2 8 16 9 4 11 18 10 6 7 19 17 5 
	20 20 32 33 21 23 35 34 22 28 36 29 24 31 38 30 26 27 39 37 25 

CELL_TYPES 2
	25
	25

POINT_DATA 40
FIELD U 1
	U 3 40 double
		-8.36818000E+00	-1.09196000E-07	-3.69531000E+00
		 8.36818000E+00	-1.09196000E-07	 3.69531000E+00
		 8.36818000E+00	 1.09196000E-07	 3.69531000E+00
		-8.36818000E+00	 1.09196000E-07	-3.69531000E+00
		 0.00000000E+00	-1.09196000E-07	 0.00000000E+00
		 8.36818000E+00	 0.00000000E+00	 3.69531000E+00
		 0.00000000E+00	 1.09196000E-07	 0.00000000E+00
		-8.36818000E+00	 0.00000000E+00	-3.69531000E+00
		-1.94541000E+01	-1.04074000E-07	 2.14092000E+01
		-2.71778000E+00	-1.04074000E-07	 2.87999000E+01
		-2.71778000E+00	 1.04074000E-07	 2.87999000E+01
		-1.94541000E+01	 1.04074000E-07	 2.14092000E+01
		-3.05401000E+01	-9.89458000E-08	 4.65137000E+01
		-1.38038000E+01	-9.89458000E-08	 5.39044000E+01
		-1.38038000E+01	 9.89458000E-08	 5.39044000E+01
		-3.05401000E+01	 9.89458000E-08	 4.65137000E+01
		-2.21719000E+01	-9.89458000E-08	 5.02090000E+01
		-1.38038000E+01	 0.00000000E+00	 5.39044000E+01
		-2.21719000E+01	 9.89458000E-08	 5.02090000E+01
		-3.05401000E+01	 0.00000000E+00	 4.65137000E+01
		-2.21935000E+01	 1.65458000E-07	 4.97455000E+01
		-2.21504000E+01	 1.65458000E-07	 5.06726000E+01
		-2.21504000E+01	-1.65458000E-07	 5.06726000E+01
		-2.21935000E+01	-1.65458000E-07	 4.97455000E+01
		-2.21719000E+01	 1.65458000E-07	 5.02090000E+01
		-2.21504000E+01	 0.00000000E+00	 5.06726000E+01
		-2.21719000E+01	-1.65458000E-07	 5.02090000E+01
		-2.21935000E+01	 0.00000000E+00	 4.97455000E+01
		-3.61006000E+01	 8.32161000E-08	 5.03916000E+01
		-3.60576000E+01	 8.32161000E-08	 5.13187000E+01
		-3.60576000E+01	-8.32161000E-08	 5.13187000E+01
		-3.61006000E+01	-8.32161000E-08	 5.03916000E+01
		-5.00078000E+01	 9.73866000E-10	 5.10376000E+01
		-4.99647000E+01	 9.73866000E-10	 5.19648000E+01
		-4.99647000E+01	-9.73866000E-10	 5.19648000E+01
		-5.00078000E+01	-9.73866000E-10	 5.10376000E+01
		-4.99863000E+01	 9.73866000E-10	 5.15012000E+01
		-4.99647000E+01	 0.00000000E+00	 5.19648000E+01
		-4.99863000E+01	-9.73866000E-10	 5.15012000E+01
		-5.00078000E+01	 0.00000000E+00	 5.10376000E+01
