# vtk DataFile Version 3.0

ASCII
DATASET UNSTRUCTURED_GRID

POINTS 40 double
	 5.00000000E+00	-5.00000000E+00	 0.00000000E+00
	-5.00000000E+00	-5.00000000E+00	 0.00000000E+00
	-5.00000000E+00	 5.00000000E+00	 0.00000000E+00
	 5.00000000E+00	 5.00000000E+00	 0.00000000E+00
	 0.00000000E+00	-5.00000000E+00	 0.00000000E+00
	-5.00000000E+00	 0.00000000E+00	 0.00000000E+00
	 0.00000000E+00	 5.00000000E+00	 0.00000000E+00
	 5.00000000E+00	 0.00000000E+00	 0.00000000E+00
	 5.00000000E+00	-5.00000000E+00	-1.50000000E+01
	-5.00000000E+00	-5.00000000E+00	-1.50000000E+01
	-5.00000000E+00	 5.00000000E+00	-1.50000000E+01
	 5.00000000E+00	 5.00000000E+00	-1.50000000E+01
	 5.00000000E+00	-5.00000000E+00	-3.00000000E+01
	-5.00000000E+00	-5.00000000E+00	-3.00000000E+01
	-5.00000000E+00	 5.00000000E+00	-3.00000000E+01
	 5.00000000E+00	 5.00000000E+00	-3.00000000E+01
	 0.00000000E+00	-5.00000000E+00	-3.00000000E+01
	-5.00000000E+00	 0.00000000E+00	-3.00000000E+01
	 0.00000000E+00	 5.00000000E+00	-3.00000000E+01
	 5.00000000E+00	 0.00000000E+00	-3.00000000E+01
	 5.00000000E+00	-5.00000000E+00	-3.00000000E+01
	-5.00000000E+00	-5.00000000E+00	-3.00000000E+01
	-5.00000000E+00	 5.00000000E+00	-3.00000000E+01
	 5.00000000E+00	 5.00000000E+00	-3.00000000E+01
	 0.00000000E+00	-5.00000000E+00	-3.00000000E+01
	-5.00000000E+00	 0.00000000E+00	-3.00000000E+01
	 0.00000000E+00	 5.00000000E+00	-3.00000000E+01
	 5.00000000E+00	 0.00000000E+00	-3.00000000E+01
	 5.00000000E+00	-5.00000000E+00	-1.80000000E+02
	-5.00000000E+00	-5.00000000E+00	-1.80000000E+02
	-5.00000000E+00	 5.00000000E+00	-1.80000000E+02
	 5.00000000E+00	 5.00000000E+00	-1.80000000E+02
	 5.00000000E+00	-5.00000000E+00	-3.30000000E+02
	-5.00000000E+00	-5.00000000E+00	-3.30000000E+02
	-5.00000000E+00	 5.00000000E+00	-3.30000000E+02
	 5.00000000E+00	 5.00000000E+00	-3.30000000E+02
	 0.00000000E+00	-5.00000000E+00	-3.30000000E+02
	-5.00000000E+00	 0.00000000E+00	-3.30000000E+02
	 0.00000000E+00	 5.00000000E+00	-3.30000000E+02
	 5.00000000E+00	 0.00000000E+00	-3.30000000E+02

CELLS 2 42
	20 0 12 13 1 3 15 14 2 8 16 9 4 11 18 10 6 7 19 17 5 
	20 20 32 33 21 23 35 34 22 28 36 29 24 31 38 30 26 27 39 37 25 

CELL_TYPES 2
	25
	25

POINT_DATA 40
FIELD U 1
	U 3 40 double
		-8.84839000E+00	-1.23891000E-07	-3.19216000E+00
		 8.84839000E+00	-1.23891000E-07	 3.19216000E+00
		 8.84839000E+00	 1.23891000E-07	 3.19216000E+00
		-8.84839000E+00	 1.23891000E-07	-3.19216000E+00
		 0.00000000E+00	-1.23891000E-07	 0.00000000E+00
		 8.84839000E+00	 0.00000000E+00	 3.19216000E+00
		 0.00000000E+00	 1.23891000E-07	 0.00000000E+00
		-8.84839000E+00	 0.00000000E+00	-3.19216000E+00
		-1.84249000E+01	-1.17966000E-07	 2.33530000E+01
		-7.28124000E-01	-1.17966000E-07	 2.97373000E+01
		-7.28124000E-01	 1.17966000E-07	 2.97373000E+01
		-1.84249000E+01	 1.17966000E-07	 2.33530000E+01
		-2.80014000E+01	-1.12036000E-07	 4.98981000E+01
		-1.03047000E+01	-1.12036000E-07	 5.62825000E+01
		-1.03047000E+01	 1.12036000E-07	 5.62825000E+01
		-2.80014000E+01	 1.12036000E-07	 4.98981000E+01
		-1.91530000E+01	-1.12036000E-07	 5.30903000E+01
		-1.03047000E+01	 0.00000000E+00	 5.62825000E+01
		-1.91530000E+01	 1.12036000E-07	 5.30903000E+01
		-2.80014000E+01	 0.00000000E+00	 4.98981000E+01
		-1.91919000E+01	 1.63005000E-07	 5.24678000E+01
		-1.91141000E+01	 1.63005000E-07	 5.37128000E+01
		-1.91141000E+01	-1.63005000E-07	 5.37128000E+01
		-1.91919000E+01	-1.63005000E-07	 5.24678000E+01
		-1.91530000E+01	 1.63005000E-07	 5.30903000E+01
		-1.91141000E+01	 0.00000000E+00	 5.37128000E+01
		-1.91530000E+01	-1.63005000E-07	 5.30903000E+01
		-1.91919000E+01	 0.00000000E+00	 5.24678000E+01
		-3.78664000E+01	 8.19759000E-08	 5.36348000E+01
		-3.77886000E+01	 8.19759000E-08	 5.48797000E+01
		-3.77886000E+01	-8.19759000E-08	 5.48797000E+01
		-3.78664000E+01	-8.19759000E-08	 5.36348000E+01
		-5.65409000E+01	 9.47285000E-10	 5.48018000E+01
		-5.64631000E+01	 9.47285000E-10	 5.60467000E+01
		-5.64631000E+01	-9.47285000E-10	 5.60467000E+01
		-5.65409000E+01	-9.47285000E-10	 5.48018000E+01
		-5.65020000E+01	 9.47285000E-10	 5.54243000E+01
		-5.64631000E+01	 0.00000000E+00	 5.60467000E+01
		-5.65020000E+01	-9.47285000E-10	 5.54243000E+01
		-5.65409000E+01	 0.00000000E+00	 5.48018000E+01
