<?xml version="1.0"?>
<VTKFile type="UnstructuredGrid" version="0.1" byte_order="LittleEndian">
	<UnstructuredGrid>
		<Piece NumberOfPoints="40" NumberOfCells="2">
			<Points>
				<DataArray type="Float64" NumberOfComponents="3" format="ascii">
					 5.00000000E+00	-5.00000000E+00	 0.00000000E+00
					-5.00000000E+00	-5.00000000E+00	 0.00000000E+00
					-5.00000000E+00	 5.00000000E+00	 0.00000000E+00
					 5.00000000E+00	 5.00000000E+00	 0.00000000E+00
					 0.00000000E+00	-5.00000000E+00	 0.00000000E+00
					-5.00000000E+00	 0.00000000E+00	 0.00000000E+00
					 0.00000000E+00	 5.00000000E+00	 0.00000000E+00
					 5.00000000E+00	 0.00000000E+00	 0.00000000E+00
					 5.00000000E+00	-5.00000000E+00	-1.50000000E+01
					-5.00000000E+00	-5.00000000E+00	-1.50000000E+01
					-5.00000000E+00	 5.00000000E+00	-1.50000000E+01
					 5.00000000E+00	 5.00000000E+00	-1.50000000E+01
					 5.00000000E+00	-5.00000000E+00	-3.00000000E+01
					-5.00000000E+00	-5.00000000E+00	-3.00000000E+01
					-5.00000000E+00	 5.00000000E+00	-3.00000000E+01
					 5.00000000E+00	 5.00000000E+00	-3.00000000E+01
					 0.00000000E+00	-5.00000000E+00	-3.00000000E+01
					-5.00000000E+00	 0.00000000E+00	-3.00000000E+01
					 0.00000000E+00	 5.00000000E+00	-3.00000000E+01
					 5.00000000E+00	 0.00000000E+00	-3.00000000E+01
					 5.00000000E+00	-5.00000000E+00	-3.00000000E+01
					-5.00000000E+00	-5.00000000E+00	-3.00000000E+01
					-5.00000000E+00	 5.00000000E+00	-3.00000000E+01
					 5.00000000E+00	 5.00000000E+00	-3.00000000E+01
					 0.00000000E+00	-5.00000000E+00	-3.00000000E+01
					-5.00000000E+00	 0.00000000E+00	-3.00000000E+01
					 0.00000000E+00	 5.00000000E+00	-3.00000000E+01
					 5.00000000E+00	 0.00000000E+00	-3.00000000E+01
					 5.00000000E+00	-5.00000000E+00	-1.80000000E+02
					-5.00000000E+00	-5.00000000E+00	-1.80000000E+02
					-5.00000000E+00	 5.00000000E+00	-1.80000000E+02
					 5.00000000E+00	 5.00000000E+00	-1.80000000E+02
					 5.00000000E+00	-5.00000000E+00	-3.30000000E+02
					-5.00000000E+00	-5.00000000E+00	-3.30000000E+02
					-5.00000000E+00	 5.00000000E+00	-3.30000000E+02
					 5.00000000E+00	 5.00000000E+00	-3.30000000E+02
					 0.00000000E+00	-5.00000000E+00	-3.30000000E+02
					-5.00000000E+00	 0.00000000E+00	-3.30000000E+02
					 0.00000000E+00	 5.00000000E+00	-3.30000000E+02
					 5.00000000E+00	 0.00000000E+00	-3.30000000E+02
				</DataArray>
			</Points>
			<Cells>
				<DataArray type="Int32" Name="connectivity" format="ascii">
					0 12 13 1 3 15 14 2 8 16 9 4 11 18 10 6 7 19 17 5 20 32 33 21 23 35 34 22 28 36 29 24 31 38 30 26 27 39 37 25 
				</DataArray>
				<DataArray type="Int32" Name="offsets" format="ascii">
					20 40 
				</DataArray>
				<DataArray type="UInt8" Name="types" format="ascii">
					25 25 
				</DataArray>
			</Cells>
			<PointData>
				<DataArray type="Float32" Name="U" NumberOfComponents="3" ComponentName0="D1" ComponentName1="D2" ComponentName2="D3" format="ascii">
					-3.09369000E-01	 1.99269000E-07	 1.73147000E+00
					 3.09369000E-01	 1.99269000E-07	-1.73147000E+00
					 3.09369000E-01	-1.99269000E-07	-1.73147000E+00
					-3.09369000E-01	-1.99269000E-07	 1.73147000E+00
					 0.00000000E+00	 1.99269000E-07	 0.00000000E+00
					 3.09369000E-01	 0.00000000E+00	-1.73147000E+00
					 0.00000000E+00	-1.99269000E-07	 0.00000000E+00
					-3.09369000E-01	 0.00000000E+00	 1.73147000E+00
					 4.88504000E+00	 1.90922000E-07	 2.65957000E+00
					 5.50377000E+00	 1.90922000E-07	-8.03362000E-01
					 5.50377000E+00	-1.90922000E-07	-8.03362000E-01
					 4.88504000E+00	-1.90922000E-07	 2.65957000E+00
					 1.00794000E+01	 1.82574000E-07	 3.58768000E+00
					 1.06982000E+01	 1.82574000E-07	 1.24743000E-01
					 1.06982000E+01	-1.82574000E-07	 1.24743000E-01
					 1.00794000E+01	-1.82574000E-07	 3.58768000E+00
					 1.03888000E+01	 1.82574000E-07	 1.85621000E+00
					 1.06982000E+01	 0.00000000E+00	 1.24743000E-01
					 1.03888000E+01	-1.82574000E-07	 1.85621000E+00
					 1.00794000E+01	 0.00000000E+00	 3.58768000E+00
					 9.96849000E+00	 1.81891000E-07	 3.86282000E+00
					 1.08091000E+01	 1.81891000E-07	-1.50401000E-01
					 1.08091000E+01	-1.81891000E-07	-1.50401000E-01
					 9.96849000E+00	-1.81891000E-07	 3.86282000E+00
					 1.03888000E+01	 1.81891000E-07	 1.85621000E+00
					 1.08091000E+01	 0.00000000E+00	-1.50401000E-01
					 1.03888000E+01	-1.81891000E-07	 1.85621000E+00
					 9.96849000E+00	 0.00000000E+00	 3.86282000E+00
					 7.01671000E+01	 9.11937000E-08	 1.64724000E+01
					 7.10078000E+01	 9.11937000E-08	 1.24592000E+01
					 7.10078000E+01	-9.11937000E-08	 1.24592000E+01
					 7.01671000E+01	-9.11937000E-08	 1.64724000E+01
					 1.30366000E+02	 5.19196000E-10	 2.90823000E+01
					 1.31207000E+02	 5.19196000E-10	 2.50690000E+01
					 1.31207000E+02	-5.19196000E-10	 2.50690000E+01
					 1.30366000E+02	-5.19196000E-10	 2.90823000E+01
					 1.30787000E+02	 5.19196000E-10	 2.70756000E+01
					 1.31207000E+02	 0.00000000E+00	 2.50690000E+01
					 1.30787000E+02	-5.19196000E-10	 2.70756000E+01
					 1.30366000E+02	 0.00000000E+00	 2.90823000E+01
				</DataArray>
			</PointData>
		</Piece>
	</UnstructuredGrid>
</VTKFile>