# vtk DataFile Version 3.0

ASCII
DATASET UNSTRUCTURED_GRID

POINTS 40 double
	 5.00000000E+00	-5.00000000E+00	 0.00000000E+00
	-5.00000000E+00	-5.00000000E+00	 0.00000000E+00
	-5.00000000E+00	 5.00000000E+00	 0.00000000E+00
	 5.00000000E+00	 5.00000000E+00	 0.00000000E+00
	 0.00000000E+00	-5.00000000E+00	 0.00000000E+00
	-5.00000000E+00	 0.00000000E+00	 0.00000000E+00
	 0.00000000E+00	 5.00000000E+00	 0.00000000E+00
	 5.00000000E+00	 0.00000000E+00	 0.00000000E+00
	 5.00000000E+00	-5.00000000E+00	-1.50000000E+01
	-5.00000000E+00	-5.00000000E+00	-1.50000000E+01
	-5.00000000E+00	 5.00000000E+00	-1.50000000E+01
	 5.00000000E+00	 5.00000000E+00	-1.50000000E+01
	 5.00000000E+00	-5.00000000E+00	-3.00000000E+01
	-5.00000000E+00	-5.00000000E+00	-3.00000000E+01
	-5.00000000E+00	 5.00000000E+00	-3.00000000E+01
	 5.00000000E+00	 5.00000000E+00	-3.00000000E+01
	 0.00000000E+00	-5.00000000E+00	-3.00000000E+01
	-5.00000000E+00	 0.00000000E+00	-3.00000000E+01
	 0.00000000E+00	 5.00000000E+00	-3.00000000E+01
	 5.00000000E+00	 0.00000000E+00	-3.00000000E+01
	 5.00000000E+00	-5.00000000E+00	-3.00000000E+01
	-5.00000000E+00	-5.00000000E+00	-3.00000000E+01
	-5.00000000E+00	 5.00000000E+00	-3.00000000E+01
	 5.00000000E+00	 5.00000000E+00	-3.00000000E+01
	 0.00000000E+00	-5.00000000E+00	-3.00000000E+01
	-5.00000000E+00	 0.00000000E+00	-3.00000000E+01
	 0.00000000E+00	 5.00000000E+00	-3.00000000E+01
	 5.00000000E+00	 0.00000000E+00	-3.00000000E+01
	 5.00000000E+00	-5.00000000E+00	-1.80000000E+02
	-5.00000000E+00	-5.00000000E+00	-1.80000000E+02
	-5.00000000E+00	 5.00000000E+00	-1.80000000E+02
	 5.00000000E+00	 5.00000000E+00	-1.80000000E+02
	 5.00000000E+00	-5.00000000E+00	-3.30000000E+02
	-5.00000000E+00	-5.00000000E+00	-3.30000000E+02
	-5.00000000E+00	 5.00000000E+00	-3.30000000E+02
	 5.00000000E+00	 5.00000000E+00	-3.30000000E+02
	 0.00000000E+00	-5.00000000E+00	-3.30000000E+02
	-5.00000000E+00	 0.00000000E+00	-3.30000000E+02
	 0.00000000E+00	 5.00000000E+00	-3.30000000E+02
	 5.00000000E+00	 0.00000000E+00	-3.30000000E+02

CELLS 2 42
	20 0 12 13 1 3 15 14 2 8 16 9 4 11 18 10 6 7 19 17 5 
	20 20 32 33 21 23 35 34 22 28 36 29 24 31 38 30 26 27 39 37 25 

CELL_TYPES 2
	25
	25

POINT_DATA 40
FIELD U 1
	U 3 40 double
		-9.80242000E+00	-1.59839000E-07	 1.39168000E+00
		 9.80242000E+00	-1.59839000E-07	-1.39168000E+00
		 9.80242000E+00	 1.59839000E-07	-1.39168000E+00
		-9.80242000E+00	 1.59839000E-07	 1.39168000E+00
		 0.00000000E+00	-1.59839000E-07	 0.00000000E+00
		 9.80242000E+00	 0.00000000E+00	-1.39168000E+00
		 0.00000000E+00	 1.59839000E-07	 0.00000000E+00
		-9.80242000E+00	 0.00000000E+00	 1.39168000E+00
		-5.62737000E+00	-1.52317000E-07	 3.07989000E+01
		 1.39775000E+01	-1.52317000E-07	 2.80156000E+01
		 1.39775000E+01	 1.52317000E-07	 2.80156000E+01
		-5.62737000E+00	 1.52317000E-07	 3.07989000E+01
		-1.45232000E+00	-1.44796000E-07	 6.02062000E+01
		 1.81525000E+01	-1.44796000E-07	 5.74228000E+01
		 1.81525000E+01	 1.44796000E-07	 5.74228000E+01
		-1.45232000E+00	 1.44796000E-07	 6.02062000E+01
		 8.35010000E+00	-1.44796000E-07	 5.88145000E+01
		 1.81525000E+01	 0.00000000E+00	 5.74228000E+01
		 8.35010000E+00	 1.44796000E-07	 5.88145000E+01
		-1.45232000E+00	 0.00000000E+00	 6.02062000E+01
		 8.16500000E+00	 1.44828000E-07	 5.74666000E+01
		 8.53521000E+00	 1.44828000E-07	 6.01624000E+01
		 8.53521000E+00	-1.44828000E-07	 6.01624000E+01
		 8.16500000E+00	-1.44828000E-07	 5.74666000E+01
		 8.35010000E+00	 1.44828000E-07	 5.88145000E+01
		 8.53521000E+00	 0.00000000E+00	 6.01624000E+01
		 8.35010000E+00	-1.44828000E-07	 5.88145000E+01
		 8.16500000E+00	 0.00000000E+00	 5.74666000E+01
		-3.22716000E+01	 7.24158000E-08	 6.30198000E+01
		-3.19013000E+01	 7.24158000E-08	 6.57156000E+01
		-3.19013000E+01	-7.24158000E-08	 6.57156000E+01
		-3.22716000E+01	-7.24158000E-08	 6.30198000E+01
		-7.27085000E+01	 1.40503000E-11	 6.85730000E+01
		-7.23383000E+01	 1.40503000E-11	 7.12688000E+01
		-7.23383000E+01	-1.40503000E-11	 7.12688000E+01
		-7.27085000E+01	-1.40503000E-11	 6.85730000E+01
		-7.25234000E+01	 1.40503000E-11	 6.99209000E+01
		-7.23383000E+01	 0.00000000E+00	 7.12688000E+01
		-7.25234000E+01	-1.40503000E-11	 6.99209000E+01
		-7.27085000E+01	 0.00000000E+00	 6.85730000E+01
