# vtk DataFile Version 3.0

ASCII
DATASET UNSTRUCTURED_GRID

POINTS 40 double
	 5.00000000E+00	-5.00000000E+00	 0.00000000E+00
	-5.00000000E+00	-5.00000000E+00	 0.00000000E+00
	-5.00000000E+00	 5.00000000E+00	 0.00000000E+00
	 5.00000000E+00	 5.00000000E+00	 0.00000000E+00
	 0.00000000E+00	-5.00000000E+00	 0.00000000E+00
	-5.00000000E+00	 0.00000000E+00	 0.00000000E+00
	 0.00000000E+00	 5.00000000E+00	 0.00000000E+00
	 5.00000000E+00	 0.00000000E+00	 0.00000000E+00
	 5.00000000E+00	-5.00000000E+00	-1.50000000E+01
	-5.00000000E+00	-5.00000000E+00	-1.50000000E+01
	-5.00000000E+00	 5.00000000E+00	-1.50000000E+01
	 5.00000000E+00	 5.00000000E+00	-1.50000000E+01
	 5.00000000E+00	-5.00000000E+00	-3.00000000E+01
	-5.00000000E+00	-5.00000000E+00	-3.00000000E+01
	-5.00000000E+00	 5.00000000E+00	-3.00000000E+01
	 5.00000000E+00	 5.00000000E+00	-3.00000000E+01
	 0.00000000E+00	-5.00000000E+00	-3.00000000E+01
	-5.00000000E+00	 0.00000000E+00	-3.00000000E+01
	 0.00000000E+00	 5.00000000E+00	-3.00000000E+01
	 5.00000000E+00	 0.00000000E+00	-3.00000000E+01
	 5.00000000E+00	-5.00000000E+00	-3.00000000E+01
	-5.00000000E+00	-5.00000000E+00	-3.00000000E+01
	-5.00000000E+00	 5.00000000E+00	-3.00000000E+01
	 5.00000000E+00	 5.00000000E+00	-3.00000000E+01
	 0.00000000E+00	-5.00000000E+00	-3.00000000E+01
	-5.00000000E+00	 0.00000000E+00	-3.00000000E+01
	 0.00000000E+00	 5.00000000E+00	-3.00000000E+01
	 5.00000000E+00	 0.00000000E+00	-3.00000000E+01
	 5.00000000E+00	-5.00000000E+00	-1.80000000E+02
	-5.00000000E+00	-5.00000000E+00	-1.80000000E+02
	-5.00000000E+00	 5.00000000E+00	-1.80000000E+02
	 5.00000000E+00	 5.00000000E+00	-1.80000000E+02
	 5.00000000E+00	-5.00000000E+00	-3.30000000E+02
	-5.00000000E+00	-5.00000000E+00	-3.30000000E+02
	-5.00000000E+00	 5.00000000E+00	-3.30000000E+02
	 5.00000000E+00	 5.00000000E+00	-3.30000000E+02
	 0.00000000E+00	-5.00000000E+00	-3.30000000E+02
	-5.00000000E+00	 0.00000000E+00	-3.30000000E+02
	 0.00000000E+00	 5.00000000E+00	-3.30000000E+02
	 5.00000000E+00	 0.00000000E+00	-3.30000000E+02

CELLS 2 42
	20 0 12 13 1 3 15 14 2 8 16 9 4 11 18 10 6 7 19 17 5 
	20 20 32 33 21 23 35 34 22 28 36 29 24 31 38 30 26 27 39 37 25 

CELL_TYPES 2
	25
	25

POINT_DATA 40
FIELD U 1
	U 3 40 double
		-8.82513000E+00	-1.40719000E-07	 3.21999000E+00
		 8.82513000E+00	-1.40719000E-07	-3.21999000E+00
		 8.82513000E+00	 1.40719000E-07	-3.21999000E+00
		-8.82513000E+00	 1.40719000E-07	 3.21999000E+00
		 0.00000000E+00	-1.40719000E-07	 0.00000000E+00
		 8.82513000E+00	 0.00000000E+00	-3.21999000E+00
		 0.00000000E+00	 1.40719000E-07	 0.00000000E+00
		-8.82513000E+00	 0.00000000E+00	 3.21999000E+00
		 8.34865000E-01	-1.34832000E-07	 2.96954000E+01
		 1.84851000E+01	-1.34832000E-07	 2.32554000E+01
		 1.84851000E+01	 1.34832000E-07	 2.32554000E+01
		 8.34865000E-01	 1.34832000E-07	 2.96954000E+01
		 1.04949000E+01	-1.28943000E-07	 5.61708000E+01
		 2.81451000E+01	-1.28943000E-07	 4.97308000E+01
		 2.81451000E+01	 1.28943000E-07	 4.97308000E+01
		 1.04949000E+01	 1.28943000E-07	 5.61708000E+01
		 1.93200000E+01	-1.28943000E-07	 5.29508000E+01
		 2.81451000E+01	 0.00000000E+00	 4.97308000E+01
		 1.93200000E+01	 1.28943000E-07	 5.29508000E+01
		 1.04949000E+01	 0.00000000E+00	 5.61708000E+01
		 1.91597000E+01	 1.49366000E-07	 5.16949000E+01
		 1.94803000E+01	 1.49366000E-07	 5.42066000E+01
		 1.94803000E+01	-1.49366000E-07	 5.42066000E+01
		 1.91597000E+01	-1.49366000E-07	 5.16949000E+01
		 1.93200000E+01	 1.49366000E-07	 5.29508000E+01
		 1.94803000E+01	 0.00000000E+00	 5.42066000E+01
		 1.93200000E+01	-1.49366000E-07	 5.29508000E+01
		 1.91597000E+01	 0.00000000E+00	 5.16949000E+01
		-1.85152000E+01	 7.48032000E-08	 5.65033000E+01
		-1.81947000E+01	 7.48032000E-08	 5.90150000E+01
		-1.81947000E+01	-7.48032000E-08	 5.90150000E+01
		-1.85152000E+01	-7.48032000E-08	 5.65033000E+01
		-5.61906000E+01	 2.53332000E-10	 6.13118000E+01
		-5.58700000E+01	 2.53332000E-10	 6.38235000E+01
		-5.58700000E+01	-2.53332000E-10	 6.38235000E+01
		-5.61906000E+01	-2.53332000E-10	 6.13118000E+01
		-5.60303000E+01	 2.53332000E-10	 6.25677000E+01
		-5.58700000E+01	 0.00000000E+00	 6.38235000E+01
		-5.60303000E+01	-2.53332000E-10	 6.25677000E+01
		-5.61906000E+01	 0.00000000E+00	 6.13118000E+01
