<?xml version="1.0"?>
<VTKFile type="UnstructuredGrid" version="0.1" byte_order="LittleEndian">
	<UnstructuredGrid>
		<Piece NumberOfPoints="40" NumberOfCells="2">
			<Points>
				<DataArray type="Float64" NumberOfComponents="3" format="ascii">
					 5.00000000E+00	-5.00000000E+00	 0.00000000E+00
					-5.00000000E+00	-5.00000000E+00	 0.00000000E+00
					-5.00000000E+00	 5.00000000E+00	 0.00000000E+00
					 5.00000000E+00	 5.00000000E+00	 0.00000000E+00
					 0.00000000E+00	-5.00000000E+00	 0.00000000E+00
					-5.00000000E+00	 0.00000000E+00	 0.00000000E+00
					 0.00000000E+00	 5.00000000E+00	 0.00000000E+00
					 5.00000000E+00	 0.00000000E+00	 0.00000000E+00
					 5.00000000E+00	-5.00000000E+00	-1.50000000E+01
					-5.00000000E+00	-5.00000000E+00	-1.50000000E+01
					-5.00000000E+00	 5.00000000E+00	-1.50000000E+01
					 5.00000000E+00	 5.00000000E+00	-1.50000000E+01
					 5.00000000E+00	-5.00000000E+00	-3.00000000E+01
					-5.00000000E+00	-5.00000000E+00	-3.00000000E+01
					-5.00000000E+00	 5.00000000E+00	-3.00000000E+01
					 5.00000000E+00	 5.00000000E+00	-3.00000000E+01
					 0.00000000E+00	-5.00000000E+00	-3.00000000E+01
					-5.00000000E+00	 0.00000000E+00	-3.00000000E+01
					 0.00000000E+00	 5.00000000E+00	-3.00000000E+01
					 5.00000000E+00	 0.00000000E+00	-3.00000000E+01
					 5.00000000E+00	-5.00000000E+00	-3.00000000E+01
					-5.00000000E+00	-5.00000000E+00	-3.00000000E+01
					-5.00000000E+00	 5.00000000E+00	-3.00000000E+01
					 5.00000000E+00	 5.00000000E+00	-3.00000000E+01
					 0.00000000E+00	-5.00000000E+00	-3.00000000E+01
					-5.00000000E+00	 0.00000000E+00	-3.00000000E+01
					 0.00000000E+00	 5.00000000E+00	-3.00000000E+01
					 5.00000000E+00	 0.00000000E+00	-3.00000000E+01
					 5.00000000E+00	-5.00000000E+00	-1.80000000E+02
					-5.00000000E+00	-5.00000000E+00	-1.80000000E+02
					-5.00000000E+00	 5.00000000E+00	-1.80000000E+02
					 5.00000000E+00	 5.00000000E+00	-1.80000000E+02
					 5.00000000E+00	-5.00000000E+00	-3.30000000E+02
					-5.00000000E+00	-5.00000000E+00	-3.30000000E+02
					-5.00000000E+00	 5.00000000E+00	-3.30000000E+02
					 5.00000000E+00	 5.00000000E+00	-3.30000000E+02
					 0.00000000E+00	-5.00000000E+00	-3.30000000E+02
					-5.00000000E+00	 0.00000000E+00	-3.30000000E+02
					 0.00000000E+00	 5.00000000E+00	-3.30000000E+02
					 5.00000000E+00	 0.00000000E+00	-3.30000000E+02
				</DataArray>
			</Points>
			<Cells>
				<DataArray type="Int32" Name="connectivity" format="ascii">
					0 12 13 1 3 15 14 2 8 16 9 4 11 18 10 6 7 19 17 5 20 32 33 21 23 35 34 22 28 36 29 24 31 38 30 26 27 39 37 25 
				</DataArray>
				<DataArray type="Int32" Name="offsets" format="ascii">
					20 40 
				</DataArray>
				<DataArray type="UInt8" Name="types" format="ascii">
					25 25 
				</DataArray>
			</Cells>
			<PointData>
				<DataArray type="Float32" Name="U" NumberOfComponents="3" ComponentName0="D1" ComponentName1="D2" ComponentName2="D3" format="ascii">
					-2.27886000E-07	 1.07106000E-07	-1.09900000E-03
					 2.27886000E-07	 1.07106000E-07	 1.09900000E-03
					 2.27886000E-07	-1.07106000E-07	 1.09900000E-03
					-2.27886000E-07	-1.07106000E-07	-1.09900000E-03
					 0.00000000E+00	 1.07106000E-07	 0.00000000E+00
					 2.27886000E-07	 0.00000000E+00	 1.09900000E-03
					 0.00000000E+00	-1.07106000E-07	 0.00000000E+00
					-2.27886000E-07	 0.00000000E+00	-1.09900000E-03
					-1.52839000E-03	 9.06038000E-08	-1.60889000E-04
					-1.52821000E-03	 9.06038000E-08	 1.59151000E-04
					-1.52821000E-03	-9.06038000E-08	 1.59151000E-04
					-1.52839000E-03	-9.06038000E-08	-1.60889000E-04
					-8.87901000E-04	 1.06003000E-07	 3.26256000E-04
					-8.87668000E-04	 1.06003000E-07	-3.29774000E-04
					-8.87668000E-04	-1.06003000E-07	-3.29774000E-04
					-8.87901000E-04	-1.06003000E-07	 3.26256000E-04
					-8.87784000E-04	 1.06003000E-07	-1.75915000E-06
					-8.87668000E-04	 0.00000000E+00	-3.29774000E-04
					-8.87784000E-04	-1.06003000E-07	-1.75915000E-06
					-8.87901000E-04	 0.00000000E+00	 3.26256000E-04
					-8.87847000E-04	 6.24600000E-08	 5.68323000E-05
					-8.87722000E-04	 6.24600000E-08	-6.03506000E-05
					-8.87722000E-04	-6.24600000E-08	-6.03506000E-05
					-8.87847000E-04	-6.24600000E-08	 5.68323000E-05
					-8.87784000E-04	 6.24600000E-08	-1.75915000E-06
					-8.87722000E-04	 0.00000000E+00	-6.03506000E-05
					-8.87784000E-04	-6.24600000E-08	-1.75915000E-06
					-8.87847000E-04	 0.00000000E+00	 5.68323000E-05
					 1.46734000E-04	 1.94169000E-08	 4.00090000E-06
					 1.46773000E-04	 1.94169000E-08	-1.57000000E-05
					 1.46773000E-04	-1.94169000E-08	-1.57000000E-05
					 1.46734000E-04	-1.94169000E-08	 4.00090000E-06
					-2.93813000E-04	-2.34821000E-08	-4.45352000E-05
					-2.93859000E-04	-2.34821000E-08	 3.32459000E-05
					-2.93859000E-04	 2.34821000E-08	 3.32459000E-05
					-2.93813000E-04	 2.34821000E-08	-4.45352000E-05
					-2.93836000E-04	-2.34821000E-08	-5.64467000E-06
					-2.93859000E-04	 0.00000000E+00	 3.32459000E-05
					-2.93836000E-04	 2.34821000E-08	-5.64467000E-06
					-2.93813000E-04	 0.00000000E+00	-4.45352000E-05
				</DataArray>
			</PointData>
		</Piece>
	</UnstructuredGrid>
</VTKFile>