# vtk DataFile Version 3.0

ASCII
DATASET UNSTRUCTURED_GRID

POINTS 40 double
	 5.00000000E+00	-5.00000000E+00	 0.00000000E+00
	-5.00000000E+00	-5.00000000E+00	 0.00000000E+00
	-5.00000000E+00	 5.00000000E+00	 0.00000000E+00
	 5.00000000E+00	 5.00000000E+00	 0.00000000E+00
	 0.00000000E+00	-5.00000000E+00	 0.00000000E+00
	-5.00000000E+00	 0.00000000E+00	 0.00000000E+00
	 0.00000000E+00	 5.00000000E+00	 0.00000000E+00
	 5.00000000E+00	 0.00000000E+00	 0.00000000E+00
	 5.00000000E+00	-5.00000000E+00	-1.50000000E+01
	-5.00000000E+00	-5.00000000E+00	-1.50000000E+01
	-5.00000000E+00	 5.00000000E+00	-1.50000000E+01
	 5.00000000E+00	 5.00000000E+00	-1.50000000E+01
	 5.00000000E+00	-5.00000000E+00	-3.00000000E+01
	-5.00000000E+00	-5.00000000E+00	-3.00000000E+01
	-5.00000000E+00	 5.00000000E+00	-3.00000000E+01
	 5.00000000E+00	 5.00000000E+00	-3.00000000E+01
	 0.00000000E+00	-5.00000000E+00	-3.00000000E+01
	-5.00000000E+00	 0.00000000E+00	-3.00000000E+01
	 0.00000000E+00	 5.00000000E+00	-3.00000000E+01
	 5.00000000E+00	 0.00000000E+00	-3.00000000E+01
	 5.00000000E+00	-5.00000000E+00	-3.00000000E+01
	-5.00000000E+00	-5.00000000E+00	-3.00000000E+01
	-5.00000000E+00	 5.00000000E+00	-3.00000000E+01
	 5.00000000E+00	 5.00000000E+00	-3.00000000E+01
	 0.00000000E+00	-5.00000000E+00	-3.00000000E+01
	-5.00000000E+00	 0.00000000E+00	-3.00000000E+01
	 0.00000000E+00	 5.00000000E+00	-3.00000000E+01
	 5.00000000E+00	 0.00000000E+00	-3.00000000E+01
	 5.00000000E+00	-5.00000000E+00	-1.80000000E+02
	-5.00000000E+00	-5.00000000E+00	-1.80000000E+02
	-5.00000000E+00	 5.00000000E+00	-1.80000000E+02
	 5.00000000E+00	 5.00000000E+00	-1.80000000E+02
	 5.00000000E+00	-5.00000000E+00	-3.30000000E+02
	-5.00000000E+00	-5.00000000E+00	-3.30000000E+02
	-5.00000000E+00	 5.00000000E+00	-3.30000000E+02
	 5.00000000E+00	 5.00000000E+00	-3.30000000E+02
	 0.00000000E+00	-5.00000000E+00	-3.30000000E+02
	-5.00000000E+00	 0.00000000E+00	-3.30000000E+02
	 0.00000000E+00	 5.00000000E+00	-3.30000000E+02
	 5.00000000E+00	 0.00000000E+00	-3.30000000E+02

CELLS 2 42
	20 0 12 13 1 3 15 14 2 8 16 9 4 11 18 10 6 7 19 17 5 
	20 20 32 33 21 23 35 34 22 28 36 29 24 31 38 30 26 27 39 37 25 

CELL_TYPES 2
	25
	25

POINT_DATA 40
FIELD U 1
	U 3 40 double
		-9.95411000E+00	-1.58682000E-07	-6.75877000E-01
		 9.95411000E+00	-1.58682000E-07	 6.75877000E-01
		 9.95411000E+00	 1.58682000E-07	 6.75877000E-01
		-9.95411000E+00	 1.58682000E-07	-6.75877000E-01
		 0.00000000E+00	-1.58682000E-07	 0.00000000E+00
		 9.95411000E+00	 0.00000000E+00	 6.75877000E-01
		 0.00000000E+00	 1.58682000E-07	 0.00000000E+00
		-9.95411000E+00	 0.00000000E+00	-6.75877000E-01
		-1.19817000E+01	-1.50907000E-07	 2.91864000E+01
		 7.92647000E+00	-1.50907000E-07	 3.05382000E+01
		 7.92647000E+00	 1.50907000E-07	 3.05382000E+01
		-1.19817000E+01	 1.50907000E-07	 2.91864000E+01
		-1.40094000E+01	-1.43132000E-07	 5.90488000E+01
		 5.89882000E+00	-1.43132000E-07	 6.04005000E+01
		 5.89882000E+00	 1.43132000E-07	 6.04005000E+01
		-1.40094000E+01	 1.43132000E-07	 5.90488000E+01
		-4.05529000E+00	-1.43132000E-07	 5.97246000E+01
		 5.89882000E+00	 0.00000000E+00	 6.04005000E+01
		-4.05529000E+00	 1.43132000E-07	 5.97246000E+01
		-1.40094000E+01	 0.00000000E+00	 5.90488000E+01
		-4.19214000E+00	 1.50671000E-07	 5.85628000E+01
		-3.91843000E+00	 1.50671000E-07	 6.08865000E+01
		-3.91843000E+00	-1.50671000E-07	 6.08865000E+01
		-4.19214000E+00	-1.50671000E-07	 5.85628000E+01
		-4.05529000E+00	 1.50671000E-07	 5.97246000E+01
		-3.91843000E+00	 0.00000000E+00	 6.08865000E+01
		-4.05529000E+00	-1.50671000E-07	 5.97246000E+01
		-4.19214000E+00	 0.00000000E+00	 5.85628000E+01
		-3.90470000E+01	 7.55339000E-08	 6.26685000E+01
		-3.87733000E+01	 7.55339000E-08	 6.49922000E+01
		-3.87733000E+01	-7.55339000E-08	 6.49922000E+01
		-3.90470000E+01	-7.55339000E-08	 6.26685000E+01
		-7.39021000E+01	 4.01508000E-10	 6.67743000E+01
		-7.36284000E+01	 4.01508000E-10	 6.90980000E+01
		-7.36284000E+01	-4.01508000E-10	 6.90980000E+01
		-7.39021000E+01	-4.01508000E-10	 6.67743000E+01
		-7.37652000E+01	 4.01508000E-10	 6.79361000E+01
		-7.36284000E+01	 0.00000000E+00	 6.90980000E+01
		-7.37652000E+01	-4.01508000E-10	 6.79361000E+01
		-7.39021000E+01	 0.00000000E+00	 6.67743000E+01
