# vtk DataFile Version 3.0

ASCII
DATASET UNSTRUCTURED_GRID

POINTS 40 double
	 5.00000000E+00	-5.00000000E+00	 0.00000000E+00
	-5.00000000E+00	-5.00000000E+00	 0.00000000E+00
	-5.00000000E+00	 5.00000000E+00	 0.00000000E+00
	 5.00000000E+00	 5.00000000E+00	 0.00000000E+00
	 0.00000000E+00	-5.00000000E+00	 0.00000000E+00
	-5.00000000E+00	 0.00000000E+00	 0.00000000E+00
	 0.00000000E+00	 5.00000000E+00	 0.00000000E+00
	 5.00000000E+00	 0.00000000E+00	 0.00000000E+00
	 5.00000000E+00	-5.00000000E+00	-1.50000000E+01
	-5.00000000E+00	-5.00000000E+00	-1.50000000E+01
	-5.00000000E+00	 5.00000000E+00	-1.50000000E+01
	 5.00000000E+00	 5.00000000E+00	-1.50000000E+01
	 5.00000000E+00	-5.00000000E+00	-3.00000000E+01
	-5.00000000E+00	-5.00000000E+00	-3.00000000E+01
	-5.00000000E+00	 5.00000000E+00	-3.00000000E+01
	 5.00000000E+00	 5.00000000E+00	-3.00000000E+01
	 0.00000000E+00	-5.00000000E+00	-3.00000000E+01
	-5.00000000E+00	 0.00000000E+00	-3.00000000E+01
	 0.00000000E+00	 5.00000000E+00	-3.00000000E+01
	 5.00000000E+00	 0.00000000E+00	-3.00000000E+01
	 5.00000000E+00	-5.00000000E+00	-3.00000000E+01
	-5.00000000E+00	-5.00000000E+00	-3.00000000E+01
	-5.00000000E+00	 5.00000000E+00	-3.00000000E+01
	 5.00000000E+00	 5.00000000E+00	-3.00000000E+01
	 0.00000000E+00	-5.00000000E+00	-3.00000000E+01
	-5.00000000E+00	 0.00000000E+00	-3.00000000E+01
	 0.00000000E+00	 5.00000000E+00	-3.00000000E+01
	 5.00000000E+00	 0.00000000E+00	-3.00000000E+01
	 5.00000000E+00	-5.00000000E+00	-1.80000000E+02
	-5.00000000E+00	-5.00000000E+00	-1.80000000E+02
	-5.00000000E+00	 5.00000000E+00	-1.80000000E+02
	 5.00000000E+00	 5.00000000E+00	-1.80000000E+02
	 5.00000000E+00	-5.00000000E+00	-3.30000000E+02
	-5.00000000E+00	-5.00000000E+00	-3.30000000E+02
	-5.00000000E+00	 5.00000000E+00	-3.30000000E+02
	 5.00000000E+00	 5.00000000E+00	-3.30000000E+02
	 0.00000000E+00	-5.00000000E+00	-3.30000000E+02
	-5.00000000E+00	 0.00000000E+00	-3.30000000E+02
	 0.00000000E+00	 5.00000000E+00	-3.30000000E+02
	 5.00000000E+00	 0.00000000E+00	-3.30000000E+02

CELLS 2 42
	20 0 12 13 1 3 15 14 2 8 16 9 4 11 18 10 6 7 19 17 5 
	20 20 32 33 21 23 35 34 22 28 36 29 24 31 38 30 26 27 39 37 25 

CELL_TYPES 2
	25
	25

POINT_DATA 40
FIELD U 1
	U 3 40 double
		-1.41246000E-02	 1.88570000E-07	 3.75559000E-01
		 1.41246000E-02	 1.88570000E-07	-3.75559000E-01
		 1.41246000E-02	-1.88570000E-07	-3.75559000E-01
		-1.41246000E-02	-1.88570000E-07	 3.75559000E-01
		 0.00000000E+00	 1.88570000E-07	 0.00000000E+00
		 1.41246000E-02	 0.00000000E+00	-3.75559000E-01
		 0.00000000E+00	-1.88570000E-07	 0.00000000E+00
		-1.41246000E-02	 0.00000000E+00	 3.75559000E-01
		 1.11256000E+00	 1.79729000E-07	 4.17935000E-01
		 1.14081000E+00	 1.79729000E-07	-3.33191000E-01
		 1.14081000E+00	-1.79729000E-07	-3.33191000E-01
		 1.11256000E+00	-1.79729000E-07	 4.17935000E-01
		 2.23925000E+00	 1.70888000E-07	 4.60310000E-01
		 2.26750000E+00	 1.70888000E-07	-2.90820000E-01
		 2.26750000E+00	-1.70888000E-07	-2.90820000E-01
		 2.23925000E+00	-1.70888000E-07	 4.60310000E-01
		 2.25338000E+00	 1.70888000E-07	 8.47447000E-02
		 2.26750000E+00	 0.00000000E+00	-2.90820000E-01
		 2.25338000E+00	-1.70888000E-07	 8.47447000E-02
		 2.23925000E+00	 0.00000000E+00	 4.60310000E-01
		 1.77578000E+00	 1.74677000E-07	 2.21732000E+00
		 2.73098000E+00	 1.74677000E-07	-2.04783000E+00
		 2.73098000E+00	-1.74677000E-07	-2.04783000E+00
		 1.77578000E+00	-1.74677000E-07	 2.21732000E+00
		 2.25338000E+00	 1.74677000E-07	 8.47447000E-02
		 2.73098000E+00	 0.00000000E+00	-2.04783000E+00
		 2.25338000E+00	-1.74677000E-07	 8.47447000E-02
		 1.77578000E+00	 0.00000000E+00	 2.21732000E+00
		 6.57534000E+01	 8.73092000E-08	 1.65454000E+01
		 6.67086000E+01	 8.73092000E-08	 1.22802000E+01
		 6.67086000E+01	-8.73092000E-08	 1.22802000E+01
		 6.57534000E+01	-8.73092000E-08	 1.65454000E+01
		 1.29732000E+02	-2.79361000E-11	 3.08738000E+01
		 1.30687000E+02	-2.79361000E-11	 2.66086000E+01
		 1.30687000E+02	 2.79361000E-11	 2.66086000E+01
		 1.29732000E+02	 2.79361000E-11	 3.08738000E+01
		 1.30209000E+02	-2.79361000E-11	 2.87412000E+01
		 1.30687000E+02	 0.00000000E+00	 2.66086000E+01
		 1.30209000E+02	 2.79361000E-11	 2.87412000E+01
		 1.29732000E+02	 0.00000000E+00	 3.08738000E+01
