# vtk DataFile Version 3.0

ASCII
DATASET UNSTRUCTURED_GRID

POINTS 40 double
	 5.00000000E+00	-5.00000000E+00	 0.00000000E+00
	-5.00000000E+00	-5.00000000E+00	 0.00000000E+00
	-5.00000000E+00	 5.00000000E+00	 0.00000000E+00
	 5.00000000E+00	 5.00000000E+00	 0.00000000E+00
	 0.00000000E+00	-5.00000000E+00	 0.00000000E+00
	-5.00000000E+00	 0.00000000E+00	 0.00000000E+00
	 0.00000000E+00	 5.00000000E+00	 0.00000000E+00
	 5.00000000E+00	 0.00000000E+00	 0.00000000E+00
	 5.00000000E+00	-5.00000000E+00	-1.50000000E+01
	-5.00000000E+00	-5.00000000E+00	-1.50000000E+01
	-5.00000000E+00	 5.00000000E+00	-1.50000000E+01
	 5.00000000E+00	 5.00000000E+00	-1.50000000E+01
	 5.00000000E+00	-5.00000000E+00	-3.00000000E+01
	-5.00000000E+00	-5.00000000E+00	-3.00000000E+01
	-5.00000000E+00	 5.00000000E+00	-3.00000000E+01
	 5.00000000E+00	 5.00000000E+00	-3.00000000E+01
	 0.00000000E+00	-5.00000000E+00	-3.00000000E+01
	-5.00000000E+00	 0.00000000E+00	-3.00000000E+01
	 0.00000000E+00	 5.00000000E+00	-3.00000000E+01
	 5.00000000E+00	 0.00000000E+00	-3.00000000E+01
	 5.00000000E+00	-5.00000000E+00	-3.00000000E+01
	-5.00000000E+00	-5.00000000E+00	-3.00000000E+01
	-5.00000000E+00	 5.00000000E+00	-3.00000000E+01
	 5.00000000E+00	 5.00000000E+00	-3.00000000E+01
	 0.00000000E+00	-5.00000000E+00	-3.00000000E+01
	-5.00000000E+00	 0.00000000E+00	-3.00000000E+01
	 0.00000000E+00	 5.00000000E+00	-3.00000000E+01
	 5.00000000E+00	 0.00000000E+00	-3.00000000E+01
	 5.00000000E+00	-5.00000000E+00	-1.80000000E+02
	-5.00000000E+00	-5.00000000E+00	-1.80000000E+02
	-5.00000000E+00	 5.00000000E+00	-1.80000000E+02
	 5.00000000E+00	 5.00000000E+00	-1.80000000E+02
	 5.00000000E+00	-5.00000000E+00	-3.30000000E+02
	-5.00000000E+00	-5.00000000E+00	-3.30000000E+02
	-5.00000000E+00	 5.00000000E+00	-3.30000000E+02
	 5.00000000E+00	 5.00000000E+00	-3.30000000E+02
	 0.00000000E+00	-5.00000000E+00	-3.30000000E+02
	-5.00000000E+00	 0.00000000E+00	-3.30000000E+02
	 0.00000000E+00	 5.00000000E+00	-3.30000000E+02
	 5.00000000E+00	 0.00000000E+00	-3.30000000E+02

CELLS 2 42
	20 0 12 13 1 3 15 14 2 8 16 9 4 11 18 10 6 7 19 17 5 
	20 20 32 33 21 23 35 34 22 28 36 29 24 31 38 30 26 27 39 37 25 

CELL_TYPES 2
	25
	25

POINT_DATA 40
FIELD U 1
	U 3 40 double
		-1.28956000E-04	 7.79249000E-08	-3.58993000E-02
		 1.28956000E-04	 7.79249000E-08	 3.58993000E-02
		 1.28956000E-04	-7.79249000E-08	 3.58993000E-02
		-1.28956000E-04	-7.79249000E-08	-3.58993000E-02
		 0.00000000E+00	 7.79249000E-08	 0.00000000E+00
		 1.28956000E-04	 0.00000000E+00	 3.58993000E-02
		 0.00000000E+00	-7.79249000E-08	 0.00000000E+00
		-1.28956000E-04	 0.00000000E+00	-3.58993000E-02
		-1.07219000E-01	 7.23375000E-08	-3.52083000E-02
		-1.06966000E-01	 7.23375000E-08	 3.59714000E-02
		-1.06966000E-01	-7.23375000E-08	 3.59714000E-02
		-1.07219000E-01	-7.23375000E-08	-3.52083000E-02
		-2.13638000E-01	 7.01188000E-08	-3.46821000E-02
		-2.13386000E-01	 7.01188000E-08	 3.61988000E-02
		-2.13386000E-01	-7.01188000E-08	 3.61988000E-02
		-2.13638000E-01	-7.01188000E-08	-3.46821000E-02
		-2.13512000E-01	 7.01188000E-08	 7.58356000E-04
		-2.13386000E-01	 0.00000000E+00	 3.61988000E-02
		-2.13512000E-01	-7.01188000E-08	 7.58356000E-04
		-2.13638000E-01	 0.00000000E+00	-3.46821000E-02
		-2.13514000E-01	 1.03680000E-07	 5.12854000E-03
		-2.13510000E-01	 1.03680000E-07	-3.61182000E-03
		-2.13510000E-01	-1.03680000E-07	-3.61182000E-03
		-2.13514000E-01	-1.03680000E-07	 5.12854000E-03
		-2.13512000E-01	 1.03680000E-07	 7.58356000E-04
		-2.13510000E-01	 0.00000000E+00	-3.61182000E-03
		-2.13512000E-01	-1.03680000E-07	 7.58356000E-04
		-2.13514000E-01	 0.00000000E+00	 5.12854000E-03
		-6.31395000E-02	 1.27027000E-08	 6.48894000E-03
		-6.31330000E-02	 1.27027000E-08	-4.83060000E-03
		-6.31330000E-02	-1.27027000E-08	-4.83060000E-03
		-6.31395000E-02	-1.27027000E-08	 6.48894000E-03
		 1.26070000E-01	 2.17700000E-08	 7.89741000E-03
		 1.26080000E-01	 2.17700000E-08	-6.00132000E-03
		 1.26080000E-01	-2.17700000E-08	-6.00132000E-03
		 1.26070000E-01	-2.17700000E-08	 7.89741000E-03
		 1.26075000E-01	 2.17700000E-08	 9.48042000E-04
		 1.26080000E-01	 0.00000000E+00	-6.00132000E-03
		 1.26075000E-01	-2.17700000E-08	 9.48042000E-04
		 1.26070000E-01	 0.00000000E+00	 7.89741000E-03
