<?xml version="1.0"?>
<VTKFile type="UnstructuredGrid" version="0.1" byte_order="LittleEndian">
	<UnstructuredGrid>
		<Piece NumberOfPoints="40" NumberOfCells="2">
			<Points>
				<DataArray type="Float64" NumberOfComponents="3" format="ascii">
					 5.00000000E+00	-5.00000000E+00	 0.00000000E+00
					-5.00000000E+00	-5.00000000E+00	 0.00000000E+00
					-5.00000000E+00	 5.00000000E+00	 0.00000000E+00
					 5.00000000E+00	 5.00000000E+00	 0.00000000E+00
					 0.00000000E+00	-5.00000000E+00	 0.00000000E+00
					-5.00000000E+00	 0.00000000E+00	 0.00000000E+00
					 0.00000000E+00	 5.00000000E+00	 0.00000000E+00
					 5.00000000E+00	 0.00000000E+00	 0.00000000E+00
					 5.00000000E+00	-5.00000000E+00	-1.50000000E+01
					-5.00000000E+00	-5.00000000E+00	-1.50000000E+01
					-5.00000000E+00	 5.00000000E+00	-1.50000000E+01
					 5.00000000E+00	 5.00000000E+00	-1.50000000E+01
					 5.00000000E+00	-5.00000000E+00	-3.00000000E+01
					-5.00000000E+00	-5.00000000E+00	-3.00000000E+01
					-5.00000000E+00	 5.00000000E+00	-3.00000000E+01
					 5.00000000E+00	 5.00000000E+00	-3.00000000E+01
					 0.00000000E+00	-5.00000000E+00	-3.00000000E+01
					-5.00000000E+00	 0.00000000E+00	-3.00000000E+01
					 0.00000000E+00	 5.00000000E+00	-3.00000000E+01
					 5.00000000E+00	 0.00000000E+00	-3.00000000E+01
					 5.00000000E+00	-5.00000000E+00	-3.00000000E+01
					-5.00000000E+00	-5.00000000E+00	-3.00000000E+01
					-5.00000000E+00	 5.00000000E+00	-3.00000000E+01
					 5.00000000E+00	 5.00000000E+00	-3.00000000E+01
					 0.00000000E+00	-5.00000000E+00	-3.00000000E+01
					-5.00000000E+00	 0.00000000E+00	-3.00000000E+01
					 0.00000000E+00	 5.00000000E+00	-3.00000000E+01
					 5.00000000E+00	 0.00000000E+00	-3.00000000E+01
					 5.00000000E+00	-5.00000000E+00	-1.80000000E+02
					-5.00000000E+00	-5.00000000E+00	-1.80000000E+02
					-5.00000000E+00	 5.00000000E+00	-1.80000000E+02
					 5.00000000E+00	 5.00000000E+00	-1.80000000E+02
					 5.00000000E+00	-5.00000000E+00	-3.30000000E+02
					-5.00000000E+00	-5.00000000E+00	-3.30000000E+02
					-5.00000000E+00	 5.00000000E+00	-3.30000000E+02
					 5.00000000E+00	 5.00000000E+00	-3.30000000E+02
					 0.00000000E+00	-5.00000000E+00	-3.30000000E+02
					-5.00000000E+00	 0.00000000E+00	-3.30000000E+02
					 0.00000000E+00	 5.00000000E+00	-3.30000000E+02
					 5.00000000E+00	 0.00000000E+00	-3.30000000E+02
				</DataArray>
			</Points>
			<Cells>
				<DataArray type="Int32" Name="connectivity" format="ascii">
					0 12 13 1 3 15 14 2 8 16 9 4 11 18 10 6 7 19 17 5 20 32 33 21 23 35 34 22 28 36 29 24 31 38 30 26 27 39 37 25 
				</DataArray>
				<DataArray type="Int32" Name="offsets" format="ascii">
					20 40 
				</DataArray>
				<DataArray type="UInt8" Name="types" format="ascii">
					25 25 
				</DataArray>
			</Cells>
			<PointData>
				<DataArray type="Float32" Name="U" NumberOfComponents="3" ComponentName0="D1" ComponentName1="D2" ComponentName2="D3" format="ascii">
					-1.28956000E-04	 7.79249000E-08	-3.58993000E-02
					 1.28956000E-04	 7.79249000E-08	 3.58993000E-02
					 1.28956000E-04	-7.79249000E-08	 3.58993000E-02
					-1.28956000E-04	-7.79249000E-08	-3.58993000E-02
					 0.00000000E+00	 7.79249000E-08	 0.00000000E+00
					 1.28956000E-04	 0.00000000E+00	 3.58993000E-02
					 0.00000000E+00	-7.79249000E-08	 0.00000000E+00
					-1.28956000E-04	 0.00000000E+00	-3.58993000E-02
					-1.07219000E-01	 7.23375000E-08	-3.52083000E-02
					-1.06966000E-01	 7.23375000E-08	 3.59714000E-02
					-1.06966000E-01	-7.23375000E-08	 3.59714000E-02
					-1.07219000E-01	-7.23375000E-08	-3.52083000E-02
					-2.13638000E-01	 7.01188000E-08	-3.46821000E-02
					-2.13386000E-01	 7.01188000E-08	 3.61988000E-02
					-2.13386000E-01	-7.01188000E-08	 3.61988000E-02
					-2.13638000E-01	-7.01188000E-08	-3.46821000E-02
					-2.13512000E-01	 7.01188000E-08	 7.58356000E-04
					-2.13386000E-01	 0.00000000E+00	 3.61988000E-02
					-2.13512000E-01	-7.01188000E-08	 7.58356000E-04
					-2.13638000E-01	 0.00000000E+00	-3.46821000E-02
					-2.13514000E-01	 1.03680000E-07	 5.12854000E-03
					-2.13510000E-01	 1.03680000E-07	-3.61182000E-03
					-2.13510000E-01	-1.03680000E-07	-3.61182000E-03
					-2.13514000E-01	-1.03680000E-07	 5.12854000E-03
					-2.13512000E-01	 1.03680000E-07	 7.58356000E-04
					-2.13510000E-01	 0.00000000E+00	-3.61182000E-03
					-2.13512000E-01	-1.03680000E-07	 7.58356000E-04
					-2.13514000E-01	 0.00000000E+00	 5.12854000E-03
					-6.31395000E-02	 1.27027000E-08	 6.48894000E-03
					-6.31330000E-02	 1.27027000E-08	-4.83060000E-03
					-6.31330000E-02	-1.27027000E-08	-4.83060000E-03
					-6.31395000E-02	-1.27027000E-08	 6.48894000E-03
					 1.26070000E-01	 2.17700000E-08	 7.89741000E-03
					 1.26080000E-01	 2.17700000E-08	-6.00132000E-03
					 1.26080000E-01	-2.17700000E-08	-6.00132000E-03
					 1.26070000E-01	-2.17700000E-08	 7.89741000E-03
					 1.26075000E-01	 2.17700000E-08	 9.48042000E-04
					 1.26080000E-01	 0.00000000E+00	-6.00132000E-03
					 1.26075000E-01	-2.17700000E-08	 9.48042000E-04
					 1.26070000E-01	 0.00000000E+00	 7.89741000E-03
				</DataArray>
			</PointData>
		</Piece>
	</UnstructuredGrid>
</VTKFile>