# vtk DataFile Version 3.0

ASCII
DATASET UNSTRUCTURED_GRID

POINTS 40 double
	 5.00000000E+00	-5.00000000E+00	 0.00000000E+00
	-5.00000000E+00	-5.00000000E+00	 0.00000000E+00
	-5.00000000E+00	 5.00000000E+00	 0.00000000E+00
	 5.00000000E+00	 5.00000000E+00	 0.00000000E+00
	 0.00000000E+00	-5.00000000E+00	 0.00000000E+00
	-5.00000000E+00	 0.00000000E+00	 0.00000000E+00
	 0.00000000E+00	 5.00000000E+00	 0.00000000E+00
	 5.00000000E+00	 0.00000000E+00	 0.00000000E+00
	 5.00000000E+00	-5.00000000E+00	-1.50000000E+01
	-5.00000000E+00	-5.00000000E+00	-1.50000000E+01
	-5.00000000E+00	 5.00000000E+00	-1.50000000E+01
	 5.00000000E+00	 5.00000000E+00	-1.50000000E+01
	 5.00000000E+00	-5.00000000E+00	-3.00000000E+01
	-5.00000000E+00	-5.00000000E+00	-3.00000000E+01
	-5.00000000E+00	 5.00000000E+00	-3.00000000E+01
	 5.00000000E+00	 5.00000000E+00	-3.00000000E+01
	 0.00000000E+00	-5.00000000E+00	-3.00000000E+01
	-5.00000000E+00	 0.00000000E+00	-3.00000000E+01
	 0.00000000E+00	 5.00000000E+00	-3.00000000E+01
	 5.00000000E+00	 0.00000000E+00	-3.00000000E+01
	 5.00000000E+00	-5.00000000E+00	-3.00000000E+01
	-5.00000000E+00	-5.00000000E+00	-3.00000000E+01
	-5.00000000E+00	 5.00000000E+00	-3.00000000E+01
	 5.00000000E+00	 5.00000000E+00	-3.00000000E+01
	 0.00000000E+00	-5.00000000E+00	-3.00000000E+01
	-5.00000000E+00	 0.00000000E+00	-3.00000000E+01
	 0.00000000E+00	 5.00000000E+00	-3.00000000E+01
	 5.00000000E+00	 0.00000000E+00	-3.00000000E+01
	 5.00000000E+00	-5.00000000E+00	-1.80000000E+02
	-5.00000000E+00	-5.00000000E+00	-1.80000000E+02
	-5.00000000E+00	 5.00000000E+00	-1.80000000E+02
	 5.00000000E+00	 5.00000000E+00	-1.80000000E+02
	 5.00000000E+00	-5.00000000E+00	-3.30000000E+02
	-5.00000000E+00	-5.00000000E+00	-3.30000000E+02
	-5.00000000E+00	 5.00000000E+00	-3.30000000E+02
	 5.00000000E+00	 5.00000000E+00	-3.30000000E+02
	 0.00000000E+00	-5.00000000E+00	-3.30000000E+02
	-5.00000000E+00	 0.00000000E+00	-3.30000000E+02
	 0.00000000E+00	 5.00000000E+00	-3.30000000E+02
	 5.00000000E+00	 0.00000000E+00	-3.30000000E+02

CELLS 2 42
	20 0 12 13 1 3 15 14 2 8 16 9 4 11 18 10 6 7 19 17 5 
	20 20 32 33 21 23 35 34 22 28 36 29 24 31 38 30 26 27 39 37 25 

CELL_TYPES 2
	25
	25

POINT_DATA 40
FIELD U 1
	U 3 40 double
		-3.17040000E+00	 6.49717000E-08	-4.65323000E+00
		 3.17040000E+00	 6.49717000E-08	 4.65323000E+00
		 3.17040000E+00	-6.49717000E-08	 4.65323000E+00
		-3.17040000E+00	-6.49717000E-08	-4.65323000E+00
		 0.00000000E+00	 6.49717000E-08	 0.00000000E+00
		 3.17040000E+00	 0.00000000E+00	 4.65323000E+00
		 0.00000000E+00	-6.49717000E-08	 0.00000000E+00
		-3.17040000E+00	 0.00000000E+00	-4.65323000E+00
		-1.71301000E+01	 6.14007000E-08	 4.85795000E+00
		-1.07893000E+01	 6.14007000E-08	 1.41644000E+01
		-1.07893000E+01	-6.14007000E-08	 1.41644000E+01
		-1.71301000E+01	-6.14007000E-08	 4.85795000E+00
		-3.10897000E+01	 5.78382000E-08	 1.43691000E+01
		-2.47490000E+01	 5.78382000E-08	 2.36756000E+01
		-2.47490000E+01	-5.78382000E-08	 2.36756000E+01
		-3.10897000E+01	-5.78382000E-08	 1.43691000E+01
		-2.79194000E+01	 5.78382000E-08	 1.90223000E+01
		-2.47490000E+01	 0.00000000E+00	 2.36756000E+01
		-2.79194000E+01	-5.78382000E-08	 1.90223000E+01
		-3.10897000E+01	 0.00000000E+00	 1.43691000E+01
		-2.79399000E+01	 1.77365000E-07	 1.94752000E+01
		-2.78988000E+01	 1.77365000E-07	 1.85695000E+01
		-2.78988000E+01	-1.77365000E-07	 1.85695000E+01
		-2.79399000E+01	-1.77365000E-07	 1.94752000E+01
		-2.79194000E+01	 1.77365000E-07	 1.90223000E+01
		-2.78988000E+01	 0.00000000E+00	 1.85695000E+01
		-2.79194000E+01	-1.77365000E-07	 1.90223000E+01
		-2.79399000E+01	 0.00000000E+00	 1.94752000E+01
		-1.43541000E+01	 8.86812000E-08	 2.00917000E+01
		-1.43130000E+01	 8.86812000E-08	 1.91860000E+01
		-1.43130000E+01	-8.86812000E-08	 1.91860000E+01
		-1.43541000E+01	-8.86812000E-08	 2.00917000E+01
		-7.67989000E-01	 1.73507000E-12	 2.07082000E+01
		-7.26885000E-01	 1.73507000E-12	 1.98025000E+01
		-7.26885000E-01	-1.73507000E-12	 1.98025000E+01
		-7.67989000E-01	-1.73507000E-12	 2.07082000E+01
		-7.47437000E-01	 1.73507000E-12	 2.02554000E+01
		-7.26885000E-01	 0.00000000E+00	 1.98025000E+01
		-7.47437000E-01	-1.73507000E-12	 2.02554000E+01
		-7.67989000E-01	 0.00000000E+00	 2.07082000E+01
