# vtk DataFile Version 3.0

ASCII
DATASET UNSTRUCTURED_GRID

POINTS 40 double
	 5.00000000E+00	-5.00000000E+00	 0.00000000E+00
	-5.00000000E+00	-5.00000000E+00	 0.00000000E+00
	-5.00000000E+00	 5.00000000E+00	 0.00000000E+00
	 5.00000000E+00	 5.00000000E+00	 0.00000000E+00
	 0.00000000E+00	-5.00000000E+00	 0.00000000E+00
	-5.00000000E+00	 0.00000000E+00	 0.00000000E+00
	 0.00000000E+00	 5.00000000E+00	 0.00000000E+00
	 5.00000000E+00	 0.00000000E+00	 0.00000000E+00
	 5.00000000E+00	-5.00000000E+00	-1.50000000E+01
	-5.00000000E+00	-5.00000000E+00	-1.50000000E+01
	-5.00000000E+00	 5.00000000E+00	-1.50000000E+01
	 5.00000000E+00	 5.00000000E+00	-1.50000000E+01
	 5.00000000E+00	-5.00000000E+00	-3.00000000E+01
	-5.00000000E+00	-5.00000000E+00	-3.00000000E+01
	-5.00000000E+00	 5.00000000E+00	-3.00000000E+01
	 5.00000000E+00	 5.00000000E+00	-3.00000000E+01
	 0.00000000E+00	-5.00000000E+00	-3.00000000E+01
	-5.00000000E+00	 0.00000000E+00	-3.00000000E+01
	 0.00000000E+00	 5.00000000E+00	-3.00000000E+01
	 5.00000000E+00	 0.00000000E+00	-3.00000000E+01
	 5.00000000E+00	-5.00000000E+00	-3.00000000E+01
	-5.00000000E+00	-5.00000000E+00	-3.00000000E+01
	-5.00000000E+00	 5.00000000E+00	-3.00000000E+01
	 5.00000000E+00	 5.00000000E+00	-3.00000000E+01
	 0.00000000E+00	-5.00000000E+00	-3.00000000E+01
	-5.00000000E+00	 0.00000000E+00	-3.00000000E+01
	 0.00000000E+00	 5.00000000E+00	-3.00000000E+01
	 5.00000000E+00	 0.00000000E+00	-3.00000000E+01
	 5.00000000E+00	-5.00000000E+00	-1.80000000E+02
	-5.00000000E+00	-5.00000000E+00	-1.80000000E+02
	-5.00000000E+00	 5.00000000E+00	-1.80000000E+02
	 5.00000000E+00	 5.00000000E+00	-1.80000000E+02
	 5.00000000E+00	-5.00000000E+00	-3.30000000E+02
	-5.00000000E+00	-5.00000000E+00	-3.30000000E+02
	-5.00000000E+00	 5.00000000E+00	-3.30000000E+02
	 5.00000000E+00	 5.00000000E+00	-3.30000000E+02
	 0.00000000E+00	-5.00000000E+00	-3.30000000E+02
	-5.00000000E+00	 0.00000000E+00	-3.30000000E+02
	 0.00000000E+00	 5.00000000E+00	-3.30000000E+02
	 5.00000000E+00	 0.00000000E+00	-3.30000000E+02

CELLS 2 42
	20 0 12 13 1 3 15 14 2 8 16 9 4 11 18 10 6 7 19 17 5 
	20 20 32 33 21 23 35 34 22 28 36 29 24 31 38 30 26 27 39 37 25 

CELL_TYPES 2
	25
	25

POINT_DATA 40
FIELD U 1
	U 3 40 double
		-1.96192000E+00	 1.15273000E-07	-3.97115000E+00
		 1.96192000E+00	 1.15273000E-07	 3.97115000E+00
		 1.96192000E+00	-1.15273000E-07	 3.97115000E+00
		-1.96192000E+00	-1.15273000E-07	-3.97115000E+00
		 0.00000000E+00	 1.15273000E-07	 0.00000000E+00
		 1.96192000E+00	 0.00000000E+00	 3.97115000E+00
		 0.00000000E+00	-1.15273000E-07	 0.00000000E+00
		-1.96192000E+00	 0.00000000E+00	-3.97115000E+00
		-1.38754000E+01	 1.09670000E-07	 1.91459000E+00
		-9.95154000E+00	 1.09670000E-07	 9.85688000E+00
		-9.95154000E+00	-1.09670000E-07	 9.85688000E+00
		-1.38754000E+01	-1.09670000E-07	 1.91459000E+00
		-2.57888000E+01	 1.04073000E-07	 7.80031000E+00
		-2.18650000E+01	 1.04073000E-07	 1.57426000E+01
		-2.18650000E+01	-1.04073000E-07	 1.57426000E+01
		-2.57888000E+01	-1.04073000E-07	 7.80031000E+00
		-2.38269000E+01	 1.04073000E-07	 1.17715000E+01
		-2.18650000E+01	 0.00000000E+00	 1.57426000E+01
		-2.38269000E+01	-1.04073000E-07	 1.17715000E+01
		-2.57888000E+01	 0.00000000E+00	 7.80031000E+00
		-2.38495000E+01	 1.82007000E-07	 1.22460000E+01
		-2.38043000E+01	 1.82007000E-07	 1.12969000E+01
		-2.38043000E+01	-1.82007000E-07	 1.12969000E+01
		-2.38495000E+01	-1.82007000E-07	 1.22460000E+01
		-2.38269000E+01	 1.82007000E-07	 1.17715000E+01
		-2.38043000E+01	 0.00000000E+00	 1.12969000E+01
		-2.38269000E+01	-1.82007000E-07	 1.17715000E+01
		-2.38495000E+01	 0.00000000E+00	 1.22460000E+01
		-9.61155000E+00	 9.10109000E-08	 1.29233000E+01
		-9.56640000E+00	 9.10109000E-08	 1.19741000E+01
		-9.56640000E+00	-9.10109000E-08	 1.19741000E+01
		-9.61155000E+00	-9.10109000E-08	 1.29233000E+01
		 4.62664000E+00	 2.05795000E-11	 1.36006000E+01
		 4.67179000E+00	 2.05795000E-11	 1.26514000E+01
		 4.67179000E+00	-2.05795000E-11	 1.26514000E+01
		 4.62664000E+00	-2.05795000E-11	 1.36006000E+01
		 4.64921000E+00	 2.05795000E-11	 1.31260000E+01
		 4.67179000E+00	 0.00000000E+00	 1.26514000E+01
		 4.64921000E+00	-2.05795000E-11	 1.31260000E+01
		 4.62664000E+00	 0.00000000E+00	 1.36006000E+01
