<?xml version="1.0"?>
<VTKFile type="UnstructuredGrid" version="0.1" byte_order="LittleEndian">
	<UnstructuredGrid>
		<Piece NumberOfPoints="40" NumberOfCells="2">
			<Points>
				<DataArray type="Float64" NumberOfComponents="3" format="ascii">
					 5.00000000E+00	-5.00000000E+00	 0.00000000E+00
					-5.00000000E+00	-5.00000000E+00	 0.00000000E+00
					-5.00000000E+00	 5.00000000E+00	 0.00000000E+00
					 5.00000000E+00	 5.00000000E+00	 0.00000000E+00
					 0.00000000E+00	-5.00000000E+00	 0.00000000E+00
					-5.00000000E+00	 0.00000000E+00	 0.00000000E+00
					 0.00000000E+00	 5.00000000E+00	 0.00000000E+00
					 5.00000000E+00	 0.00000000E+00	 0.00000000E+00
					 5.00000000E+00	-5.00000000E+00	-1.50000000E+01
					-5.00000000E+00	-5.00000000E+00	-1.50000000E+01
					-5.00000000E+00	 5.00000000E+00	-1.50000000E+01
					 5.00000000E+00	 5.00000000E+00	-1.50000000E+01
					 5.00000000E+00	-5.00000000E+00	-3.00000000E+01
					-5.00000000E+00	-5.00000000E+00	-3.00000000E+01
					-5.00000000E+00	 5.00000000E+00	-3.00000000E+01
					 5.00000000E+00	 5.00000000E+00	-3.00000000E+01
					 0.00000000E+00	-5.00000000E+00	-3.00000000E+01
					-5.00000000E+00	 0.00000000E+00	-3.00000000E+01
					 0.00000000E+00	 5.00000000E+00	-3.00000000E+01
					 5.00000000E+00	 0.00000000E+00	-3.00000000E+01
					 5.00000000E+00	-5.00000000E+00	-3.00000000E+01
					-5.00000000E+00	-5.00000000E+00	-3.00000000E+01
					-5.00000000E+00	 5.00000000E+00	-3.00000000E+01
					 5.00000000E+00	 5.00000000E+00	-3.00000000E+01
					 0.00000000E+00	-5.00000000E+00	-3.00000000E+01
					-5.00000000E+00	 0.00000000E+00	-3.00000000E+01
					 0.00000000E+00	 5.00000000E+00	-3.00000000E+01
					 5.00000000E+00	 0.00000000E+00	-3.00000000E+01
					 5.00000000E+00	-5.00000000E+00	-1.80000000E+02
					-5.00000000E+00	-5.00000000E+00	-1.80000000E+02
					-5.00000000E+00	 5.00000000E+00	-1.80000000E+02
					 5.00000000E+00	 5.00000000E+00	-1.80000000E+02
					 5.00000000E+00	-5.00000000E+00	-3.30000000E+02
					-5.00000000E+00	-5.00000000E+00	-3.30000000E+02
					-5.00000000E+00	 5.00000000E+00	-3.30000000E+02
					 5.00000000E+00	 5.00000000E+00	-3.30000000E+02
					 0.00000000E+00	-5.00000000E+00	-3.30000000E+02
					-5.00000000E+00	 0.00000000E+00	-3.30000000E+02
					 0.00000000E+00	 5.00000000E+00	-3.30000000E+02
					 5.00000000E+00	 0.00000000E+00	-3.30000000E+02
				</DataArray>
			</Points>
			<Cells>
				<DataArray type="Int32" Name="connectivity" format="ascii">
					0 12 13 1 3 15 14 2 8 16 9 4 11 18 10 6 7 19 17 5 20 32 33 21 23 35 34 22 28 36 29 24 31 38 30 26 27 39 37 25 
				</DataArray>
				<DataArray type="Int32" Name="offsets" format="ascii">
					20 40 
				</DataArray>
				<DataArray type="UInt8" Name="types" format="ascii">
					25 25 
				</DataArray>
			</Cells>
			<PointData>
				<DataArray type="Float32" Name="U" NumberOfComponents="3" ComponentName0="D1" ComponentName1="D2" ComponentName2="D3" format="ascii">
					-3.22052000E-01	 2.06445000E-07	-1.76545000E+00
					 3.22052000E-01	 2.06445000E-07	 1.76545000E+00
					 3.22052000E-01	-2.06445000E-07	 1.76545000E+00
					-3.22052000E-01	-2.06445000E-07	-1.76545000E+00
					 0.00000000E+00	 2.06445000E-07	 0.00000000E+00
					 3.22052000E-01	 0.00000000E+00	 1.76545000E+00
					 0.00000000E+00	-2.06445000E-07	 0.00000000E+00
					-3.22052000E-01	 0.00000000E+00	-1.76545000E+00
					-5.61839000E+00	 1.98064000E-07	-7.99292000E-01
					-4.97428000E+00	 1.98064000E-07	 2.73160000E+00
					-4.97428000E+00	-1.98064000E-07	 2.73160000E+00
					-5.61839000E+00	-1.98064000E-07	-7.99292000E-01
					-1.09147000E+01	 1.89684000E-07	 1.66859000E-01
					-1.02706000E+01	 1.89684000E-07	 3.69774000E+00
					-1.02706000E+01	-1.89684000E-07	 3.69774000E+00
					-1.09147000E+01	-1.89684000E-07	 1.66859000E-01
					-1.05927000E+01	 1.89684000E-07	 1.93230000E+00
					-1.02706000E+01	 0.00000000E+00	 3.69774000E+00
					-1.05927000E+01	-1.89684000E-07	 1.93230000E+00
					-1.09147000E+01	 0.00000000E+00	 1.66859000E-01
					-1.05992000E+01	 1.91581000E-07	 2.18869000E+00
					-1.05861000E+01	 1.91581000E-07	 1.67591000E+00
					-1.05861000E+01	-1.91581000E-07	 1.67591000E+00
					-1.05992000E+01	-1.91581000E-07	 2.18869000E+00
					-1.05927000E+01	 1.91581000E-07	 1.93230000E+00
					-1.05861000E+01	 0.00000000E+00	 1.67591000E+00
					-1.05927000E+01	-1.91581000E-07	 1.93230000E+00
					-1.05992000E+01	 0.00000000E+00	 2.18869000E+00
					-2.90649000E+00	 9.64836000E-08	 2.38614000E+00
					-2.89332000E+00	 9.64836000E-08	 1.87322000E+00
					-2.89332000E+00	-9.64836000E-08	 1.87322000E+00
					-2.90649000E+00	-9.64836000E-08	 2.38614000E+00
					 4.78823000E+00	 1.64259000E-09	 2.58369000E+00
					 4.80140000E+00	 1.64259000E-09	 2.07064000E+00
					 4.80140000E+00	-1.64259000E-09	 2.07064000E+00
					 4.78823000E+00	-1.64259000E-09	 2.58369000E+00
					 4.79482000E+00	 1.64259000E-09	 2.32717000E+00
					 4.80140000E+00	 0.00000000E+00	 2.07064000E+00
					 4.79482000E+00	-1.64259000E-09	 2.32717000E+00
					 4.78823000E+00	 0.00000000E+00	 2.58369000E+00
				</DataArray>
			</PointData>
		</Piece>
	</UnstructuredGrid>
</VTKFile>