<?xml version="1.0"?>
<VTKFile type="UnstructuredGrid" version="0.1" byte_order="LittleEndian">
	<UnstructuredGrid>
		<Piece NumberOfPoints="40" NumberOfCells="2">
			<Points>
				<DataArray type="Float64" NumberOfComponents="3" format="ascii">
					 5.00000000E+00	-5.00000000E+00	 0.00000000E+00
					-5.00000000E+00	-5.00000000E+00	 0.00000000E+00
					-5.00000000E+00	 5.00000000E+00	 0.00000000E+00
					 5.00000000E+00	 5.00000000E+00	 0.00000000E+00
					 0.00000000E+00	-5.00000000E+00	 0.00000000E+00
					-5.00000000E+00	 0.00000000E+00	 0.00000000E+00
					 0.00000000E+00	 5.00000000E+00	 0.00000000E+00
					 5.00000000E+00	 0.00000000E+00	 0.00000000E+00
					 5.00000000E+00	-5.00000000E+00	-1.50000000E+01
					-5.00000000E+00	-5.00000000E+00	-1.50000000E+01
					-5.00000000E+00	 5.00000000E+00	-1.50000000E+01
					 5.00000000E+00	 5.00000000E+00	-1.50000000E+01
					 5.00000000E+00	-5.00000000E+00	-3.00000000E+01
					-5.00000000E+00	-5.00000000E+00	-3.00000000E+01
					-5.00000000E+00	 5.00000000E+00	-3.00000000E+01
					 5.00000000E+00	 5.00000000E+00	-3.00000000E+01
					 0.00000000E+00	-5.00000000E+00	-3.00000000E+01
					-5.00000000E+00	 0.00000000E+00	-3.00000000E+01
					 0.00000000E+00	 5.00000000E+00	-3.00000000E+01
					 5.00000000E+00	 0.00000000E+00	-3.00000000E+01
					 5.00000000E+00	-5.00000000E+00	-3.00000000E+01
					-5.00000000E+00	-5.00000000E+00	-3.00000000E+01
					-5.00000000E+00	 5.00000000E+00	-3.00000000E+01
					 5.00000000E+00	 5.00000000E+00	-3.00000000E+01
					 0.00000000E+00	-5.00000000E+00	-3.00000000E+01
					-5.00000000E+00	 0.00000000E+00	-3.00000000E+01
					 0.00000000E+00	 5.00000000E+00	-3.00000000E+01
					 5.00000000E+00	 0.00000000E+00	-3.00000000E+01
					 5.00000000E+00	-5.00000000E+00	-1.80000000E+02
					-5.00000000E+00	-5.00000000E+00	-1.80000000E+02
					-5.00000000E+00	 5.00000000E+00	-1.80000000E+02
					 5.00000000E+00	 5.00000000E+00	-1.80000000E+02
					 5.00000000E+00	-5.00000000E+00	-3.30000000E+02
					-5.00000000E+00	-5.00000000E+00	-3.30000000E+02
					-5.00000000E+00	 5.00000000E+00	-3.30000000E+02
					 5.00000000E+00	 5.00000000E+00	-3.30000000E+02
					 0.00000000E+00	-5.00000000E+00	-3.30000000E+02
					-5.00000000E+00	 0.00000000E+00	-3.30000000E+02
					 0.00000000E+00	 5.00000000E+00	-3.30000000E+02
					 5.00000000E+00	 0.00000000E+00	-3.30000000E+02
				</DataArray>
			</Points>
			<Cells>
				<DataArray type="Int32" Name="connectivity" format="ascii">
					0 12 13 1 3 15 14 2 8 16 9 4 11 18 10 6 7 19 17 5 20 32 33 21 23 35 34 22 28 36 29 24 31 38 30 26 27 39 37 25 
				</DataArray>
				<DataArray type="Int32" Name="offsets" format="ascii">
					20 40 
				</DataArray>
				<DataArray type="UInt8" Name="types" format="ascii">
					25 25 
				</DataArray>
			</Cells>
			<PointData>
				<DataArray type="Float32" Name="U" NumberOfComponents="3" ComponentName0="D1" ComponentName1="D2" ComponentName2="D3" format="ascii">
					-6.54534000E+00	-6.86954000E-08	 4.75520000E+00
					 6.54534000E+00	-6.86954000E-08	-4.75520000E+00
					 6.54534000E+00	 6.86954000E-08	-4.75520000E+00
					-6.54534000E+00	 6.86954000E-08	 4.75520000E+00
					 0.00000000E+00	-6.86954000E-08	 0.00000000E+00
					 6.54534000E+00	 0.00000000E+00	-4.75520000E+00
					 0.00000000E+00	 6.86954000E-08	 0.00000000E+00
					-6.54534000E+00	 0.00000000E+00	 4.75520000E+00
					 7.72028000E+00	-6.66206000E-08	 2.43912000E+01
					 2.08109000E+01	-6.66206000E-08	 1.48808000E+01
					 2.08109000E+01	 6.66206000E-08	 1.48808000E+01
					 7.72028000E+00	 6.66206000E-08	 2.43912000E+01
					 2.19859000E+01	-6.45380000E-08	 4.40272000E+01
					 3.50765000E+01	-6.45380000E-08	 3.45167000E+01
					 3.50765000E+01	 6.45380000E-08	 3.45167000E+01
					 2.19859000E+01	 6.45380000E-08	 4.40272000E+01
					 2.85312000E+01	-6.45380000E-08	 3.92719000E+01
					 3.50765000E+01	 0.00000000E+00	 3.45167000E+01
					 2.85312000E+01	 6.45380000E-08	 3.92719000E+01
					 2.19859000E+01	 0.00000000E+00	 4.40272000E+01
					 2.84893000E+01	 1.73919000E-07	 3.86258000E+01
					 2.85732000E+01	 1.73919000E-07	 3.99181000E+01
					 2.85732000E+01	-1.73919000E-07	 3.99181000E+01
					 2.84893000E+01	-1.73919000E-07	 3.86258000E+01
					 2.85312000E+01	 1.73919000E-07	 3.92719000E+01
					 2.85732000E+01	 0.00000000E+00	 3.99181000E+01
					 2.85312000E+01	-1.73919000E-07	 3.92719000E+01
					 2.84893000E+01	 0.00000000E+00	 3.86258000E+01
					 9.10447000E+00	 8.78400000E-08	 3.98836000E+01
					 9.18833000E+00	 8.78400000E-08	 4.11759000E+01
					 9.18833000E+00	-8.78400000E-08	 4.11759000E+01
					 9.10447000E+00	-8.78400000E-08	 3.98836000E+01
					-1.02807000E+01	 1.76870000E-09	 4.11415000E+01
					-1.01968000E+01	 1.76870000E-09	 4.24338000E+01
					-1.01968000E+01	-1.76870000E-09	 4.24338000E+01
					-1.02807000E+01	-1.76870000E-09	 4.11415000E+01
					-1.02388000E+01	 1.76870000E-09	 4.17877000E+01
					-1.01968000E+01	 0.00000000E+00	 4.24338000E+01
					-1.02388000E+01	-1.76870000E-09	 4.17877000E+01
					-1.02807000E+01	 0.00000000E+00	 4.11415000E+01
				</DataArray>
			</PointData>
		</Piece>
	</UnstructuredGrid>
</VTKFile>