<?xml version="1.0"?>
<VTKFile type="UnstructuredGrid" version="0.1" byte_order="LittleEndian">
	<UnstructuredGrid>
		<Piece NumberOfPoints="40" NumberOfCells="2">
			<Points>
				<DataArray type="Float64" NumberOfComponents="3" format="ascii">
					 5.00000000E+00	-5.00000000E+00	 0.00000000E+00
					-5.00000000E+00	-5.00000000E+00	 0.00000000E+00
					-5.00000000E+00	 5.00000000E+00	 0.00000000E+00
					 5.00000000E+00	 5.00000000E+00	 0.00000000E+00
					 0.00000000E+00	-5.00000000E+00	 0.00000000E+00
					-5.00000000E+00	 0.00000000E+00	 0.00000000E+00
					 0.00000000E+00	 5.00000000E+00	 0.00000000E+00
					 5.00000000E+00	 0.00000000E+00	 0.00000000E+00
					 5.00000000E+00	-5.00000000E+00	-1.50000000E+01
					-5.00000000E+00	-5.00000000E+00	-1.50000000E+01
					-5.00000000E+00	 5.00000000E+00	-1.50000000E+01
					 5.00000000E+00	 5.00000000E+00	-1.50000000E+01
					 5.00000000E+00	-5.00000000E+00	-3.00000000E+01
					-5.00000000E+00	-5.00000000E+00	-3.00000000E+01
					-5.00000000E+00	 5.00000000E+00	-3.00000000E+01
					 5.00000000E+00	 5.00000000E+00	-3.00000000E+01
					 0.00000000E+00	-5.00000000E+00	-3.00000000E+01
					-5.00000000E+00	 0.00000000E+00	-3.00000000E+01
					 0.00000000E+00	 5.00000000E+00	-3.00000000E+01
					 5.00000000E+00	 0.00000000E+00	-3.00000000E+01
					 5.00000000E+00	-5.00000000E+00	-3.00000000E+01
					-5.00000000E+00	-5.00000000E+00	-3.00000000E+01
					-5.00000000E+00	 5.00000000E+00	-3.00000000E+01
					 5.00000000E+00	 5.00000000E+00	-3.00000000E+01
					 0.00000000E+00	-5.00000000E+00	-3.00000000E+01
					-5.00000000E+00	 0.00000000E+00	-3.00000000E+01
					 0.00000000E+00	 5.00000000E+00	-3.00000000E+01
					 5.00000000E+00	 0.00000000E+00	-3.00000000E+01
					 5.00000000E+00	-5.00000000E+00	-1.80000000E+02
					-5.00000000E+00	-5.00000000E+00	-1.80000000E+02
					-5.00000000E+00	 5.00000000E+00	-1.80000000E+02
					 5.00000000E+00	 5.00000000E+00	-1.80000000E+02
					 5.00000000E+00	-5.00000000E+00	-3.30000000E+02
					-5.00000000E+00	-5.00000000E+00	-3.30000000E+02
					-5.00000000E+00	 5.00000000E+00	-3.30000000E+02
					 5.00000000E+00	 5.00000000E+00	-3.30000000E+02
					 0.00000000E+00	-5.00000000E+00	-3.30000000E+02
					-5.00000000E+00	 0.00000000E+00	-3.30000000E+02
					 0.00000000E+00	 5.00000000E+00	-3.30000000E+02
					 5.00000000E+00	 0.00000000E+00	-3.30000000E+02
				</DataArray>
			</Points>
			<Cells>
				<DataArray type="Int32" Name="connectivity" format="ascii">
					0 12 13 1 3 15 14 2 8 16 9 4 11 18 10 6 7 19 17 5 20 32 33 21 23 35 34 22 28 36 29 24 31 38 30 26 27 39 37 25 
				</DataArray>
				<DataArray type="Int32" Name="offsets" format="ascii">
					20 40 
				</DataArray>
				<DataArray type="UInt8" Name="types" format="ascii">
					25 25 
				</DataArray>
			</Cells>
			<PointData>
				<DataArray type="Float32" Name="U" NumberOfComponents="3" ComponentName0="D1" ComponentName1="D2" ComponentName2="D3" format="ascii">
					-9.25413000E+00	-1.36293000E-07	-2.62725000E+00
					 9.25413000E+00	-1.36293000E-07	 2.62725000E+00
					 9.25413000E+00	 1.36293000E-07	 2.62725000E+00
					-9.25413000E+00	 1.36293000E-07	-2.62725000E+00
					 0.00000000E+00	-1.36293000E-07	 0.00000000E+00
					 9.25413000E+00	 0.00000000E+00	 2.62725000E+00
					 0.00000000E+00	 1.36293000E-07	 0.00000000E+00
					-9.25413000E+00	 0.00000000E+00	-2.62725000E+00
					-1.71359000E+01	-1.29689000E-07	 2.51351000E+01
					 1.37237000E+00	-1.29689000E-07	 3.03896000E+01
					 1.37237000E+00	 1.29689000E-07	 3.03896000E+01
					-1.71359000E+01	 1.29689000E-07	 2.51351000E+01
					-2.50176000E+01	-1.23081000E-07	 5.28975000E+01
					-6.50940000E+00	-1.23081000E-07	 5.81520000E+01
					-6.50940000E+00	 1.23081000E-07	 5.81520000E+01
					-2.50176000E+01	 1.23081000E-07	 5.28975000E+01
					-1.57635000E+01	-1.23081000E-07	 5.55247000E+01
					-6.50940000E+00	 0.00000000E+00	 5.81520000E+01
					-1.57635000E+01	 1.23081000E-07	 5.55247000E+01
					-2.50176000E+01	 0.00000000E+00	 5.28975000E+01
					-1.58242000E+01	 1.60147000E-07	 5.47483000E+01
					-1.57029000E+01	 1.60147000E-07	 5.63012000E+01
					-1.57029000E+01	-1.60147000E-07	 5.63012000E+01
					-1.58242000E+01	-1.60147000E-07	 5.47483000E+01
					-1.57635000E+01	 1.60147000E-07	 5.55247000E+01
					-1.57029000E+01	 0.00000000E+00	 5.63012000E+01
					-1.57635000E+01	-1.60147000E-07	 5.55247000E+01
					-1.58242000E+01	 0.00000000E+00	 5.47483000E+01
					-3.91178000E+01	 8.05094000E-08	 5.65679000E+01
					-3.89965000E+01	 8.05094000E-08	 5.81208000E+01
					-3.89965000E+01	-8.05094000E-08	 5.81208000E+01
					-3.91178000E+01	-8.05094000E-08	 5.65679000E+01
					-6.24115000E+01	 8.72441000E-10	 5.83876000E+01
					-6.22902000E+01	 8.72441000E-10	 5.99405000E+01
					-6.22902000E+01	-8.72441000E-10	 5.99405000E+01
					-6.24115000E+01	-8.72441000E-10	 5.83876000E+01
					-6.23509000E+01	 8.72441000E-10	 5.91641000E+01
					-6.22902000E+01	 0.00000000E+00	 5.99405000E+01
					-6.23509000E+01	-8.72441000E-10	 5.91641000E+01
					-6.24115000E+01	 0.00000000E+00	 5.83876000E+01
				</DataArray>
			</PointData>
		</Piece>
	</UnstructuredGrid>
</VTKFile>