<?xml version="1.0"?>
<VTKFile type="UnstructuredGrid" version="0.1" byte_order="LittleEndian">
	<UnstructuredGrid>
		<Piece NumberOfPoints="40" NumberOfCells="2">
			<Points>
				<DataArray type="Float64" NumberOfComponents="3" format="ascii">
					 5.00000000E+00	-5.00000000E+00	 0.00000000E+00
					-5.00000000E+00	-5.00000000E+00	 0.00000000E+00
					-5.00000000E+00	 5.00000000E+00	 0.00000000E+00
					 5.00000000E+00	 5.00000000E+00	 0.00000000E+00
					 0.00000000E+00	-5.00000000E+00	 0.00000000E+00
					-5.00000000E+00	 0.00000000E+00	 0.00000000E+00
					 0.00000000E+00	 5.00000000E+00	 0.00000000E+00
					 5.00000000E+00	 0.00000000E+00	 0.00000000E+00
					 5.00000000E+00	-5.00000000E+00	-1.50000000E+01
					-5.00000000E+00	-5.00000000E+00	-1.50000000E+01
					-5.00000000E+00	 5.00000000E+00	-1.50000000E+01
					 5.00000000E+00	 5.00000000E+00	-1.50000000E+01
					 5.00000000E+00	-5.00000000E+00	-3.00000000E+01
					-5.00000000E+00	-5.00000000E+00	-3.00000000E+01
					-5.00000000E+00	 5.00000000E+00	-3.00000000E+01
					 5.00000000E+00	 5.00000000E+00	-3.00000000E+01
					 0.00000000E+00	-5.00000000E+00	-3.00000000E+01
					-5.00000000E+00	 0.00000000E+00	-3.00000000E+01
					 0.00000000E+00	 5.00000000E+00	-3.00000000E+01
					 5.00000000E+00	 0.00000000E+00	-3.00000000E+01
					 5.00000000E+00	-5.00000000E+00	-3.00000000E+01
					-5.00000000E+00	-5.00000000E+00	-3.00000000E+01
					-5.00000000E+00	 5.00000000E+00	-3.00000000E+01
					 5.00000000E+00	 5.00000000E+00	-3.00000000E+01
					 0.00000000E+00	-5.00000000E+00	-3.00000000E+01
					-5.00000000E+00	 0.00000000E+00	-3.00000000E+01
					 0.00000000E+00	 5.00000000E+00	-3.00000000E+01
					 5.00000000E+00	 0.00000000E+00	-3.00000000E+01
					 5.00000000E+00	-5.00000000E+00	-1.80000000E+02
					-5.00000000E+00	-5.00000000E+00	-1.80000000E+02
					-5.00000000E+00	 5.00000000E+00	-1.80000000E+02
					 5.00000000E+00	 5.00000000E+00	-1.80000000E+02
					 5.00000000E+00	-5.00000000E+00	-3.30000000E+02
					-5.00000000E+00	-5.00000000E+00	-3.30000000E+02
					-5.00000000E+00	 5.00000000E+00	-3.30000000E+02
					 5.00000000E+00	 5.00000000E+00	-3.30000000E+02
					 0.00000000E+00	-5.00000000E+00	-3.30000000E+02
					-5.00000000E+00	 0.00000000E+00	-3.30000000E+02
					 0.00000000E+00	 5.00000000E+00	-3.30000000E+02
					 5.00000000E+00	 0.00000000E+00	-3.30000000E+02
				</DataArray>
			</Points>
			<Cells>
				<DataArray type="Int32" Name="connectivity" format="ascii">
					0 12 13 1 3 15 14 2 8 16 9 4 11 18 10 6 7 19 17 5 20 32 33 21 23 35 34 22 28 36 29 24 31 38 30 26 27 39 37 25 
				</DataArray>
				<DataArray type="Int32" Name="offsets" format="ascii">
					20 40 
				</DataArray>
				<DataArray type="UInt8" Name="types" format="ascii">
					25 25 
				</DataArray>
			</Cells>
			<PointData>
				<DataArray type="Float32" Name="U" NumberOfComponents="3" ComponentName0="D1" ComponentName1="D2" ComponentName2="D3" format="ascii">
					-9.65917000E-01	 1.94718000E-07	 2.95401000E+00
					 9.65917000E-01	 1.94718000E-07	-2.95401000E+00
					 9.65917000E-01	-1.94718000E-07	-2.95401000E+00
					-9.65917000E-01	-1.94718000E-07	 2.95401000E+00
					 0.00000000E+00	 1.94718000E-07	 0.00000000E+00
					 9.65917000E-01	 0.00000000E+00	-2.95401000E+00
					 0.00000000E+00	-1.94718000E-07	 0.00000000E+00
					-9.65917000E-01	 0.00000000E+00	 2.95401000E+00
					 7.89611000E+00	 1.87467000E-07	 5.85174000E+00
					 9.82793000E+00	 1.87467000E-07	-5.62633000E-02
					 9.82793000E+00	-1.87467000E-07	-5.62633000E-02
					 7.89611000E+00	-1.87467000E-07	 5.85174000E+00
					 1.67581000E+01	 1.80218000E-07	 8.74947000E+00
					 1.86899000E+01	 1.80218000E-07	 2.84147000E+00
					 1.86899000E+01	-1.80218000E-07	 2.84147000E+00
					 1.67581000E+01	-1.80218000E-07	 8.74947000E+00
					 1.77240000E+01	 1.80218000E-07	 5.79547000E+00
					 1.86899000E+01	 0.00000000E+00	 2.84147000E+00
					 1.77240000E+01	-1.80218000E-07	 5.79547000E+00
					 1.67581000E+01	 0.00000000E+00	 8.74947000E+00
					 1.74268000E+01	 1.92807000E-07	 7.49365000E+00
					 1.80212000E+01	 1.92807000E-07	 4.09730000E+00
					 1.80212000E+01	-1.92807000E-07	 4.09730000E+00
					 1.74268000E+01	-1.92807000E-07	 7.49365000E+00
					 1.77240000E+01	 1.92807000E-07	 5.79547000E+00
					 1.80212000E+01	 0.00000000E+00	 4.09730000E+00
					 1.77240000E+01	-1.92807000E-07	 5.79547000E+00
					 1.74268000E+01	 0.00000000E+00	 7.49365000E+00
					 6.83723000E+01	 9.71909000E-08	 1.64101000E+01
					 6.89667000E+01	 9.71909000E-08	 1.30138000E+01
					 6.89667000E+01	-9.71909000E-08	 1.30138000E+01
					 6.83723000E+01	-9.71909000E-08	 1.64101000E+01
					 1.19318000E+02	 1.58736000E-09	 2.53268000E+01
					 1.19913000E+02	 1.58736000E-09	 2.19304000E+01
					 1.19913000E+02	-1.58736000E-09	 2.19304000E+01
					 1.19318000E+02	-1.58736000E-09	 2.53268000E+01
					 1.19615000E+02	 1.58736000E-09	 2.36286000E+01
					 1.19913000E+02	 0.00000000E+00	 2.19304000E+01
					 1.19615000E+02	-1.58736000E-09	 2.36286000E+01
					 1.19318000E+02	 0.00000000E+00	 2.53268000E+01
				</DataArray>
			</PointData>
		</Piece>
	</UnstructuredGrid>
</VTKFile>