<?xml version="1.0"?>
<VTKFile type="UnstructuredGrid" version="0.1" byte_order="LittleEndian">
	<UnstructuredGrid>
		<Piece NumberOfPoints="40" NumberOfCells="2">
			<Points>
				<DataArray type="Float64" NumberOfComponents="3" format="ascii">
					 5.00000000E+00	-5.00000000E+00	 0.00000000E+00
					-5.00000000E+00	-5.00000000E+00	 0.00000000E+00
					-5.00000000E+00	 5.00000000E+00	 0.00000000E+00
					 5.00000000E+00	 5.00000000E+00	 0.00000000E+00
					 0.00000000E+00	-5.00000000E+00	 0.00000000E+00
					-5.00000000E+00	 0.00000000E+00	 0.00000000E+00
					 0.00000000E+00	 5.00000000E+00	 0.00000000E+00
					 5.00000000E+00	 0.00000000E+00	 0.00000000E+00
					 5.00000000E+00	-5.00000000E+00	-1.50000000E+01
					-5.00000000E+00	-5.00000000E+00	-1.50000000E+01
					-5.00000000E+00	 5.00000000E+00	-1.50000000E+01
					 5.00000000E+00	 5.00000000E+00	-1.50000000E+01
					 5.00000000E+00	-5.00000000E+00	-3.00000000E+01
					-5.00000000E+00	-5.00000000E+00	-3.00000000E+01
					-5.00000000E+00	 5.00000000E+00	-3.00000000E+01
					 5.00000000E+00	 5.00000000E+00	-3.00000000E+01
					 0.00000000E+00	-5.00000000E+00	-3.00000000E+01
					-5.00000000E+00	 0.00000000E+00	-3.00000000E+01
					 0.00000000E+00	 5.00000000E+00	-3.00000000E+01
					 5.00000000E+00	 0.00000000E+00	-3.00000000E+01
					 5.00000000E+00	-5.00000000E+00	-3.00000000E+01
					-5.00000000E+00	-5.00000000E+00	-3.00000000E+01
					-5.00000000E+00	 5.00000000E+00	-3.00000000E+01
					 5.00000000E+00	 5.00000000E+00	-3.00000000E+01
					 0.00000000E+00	-5.00000000E+00	-3.00000000E+01
					-5.00000000E+00	 0.00000000E+00	-3.00000000E+01
					 0.00000000E+00	 5.00000000E+00	-3.00000000E+01
					 5.00000000E+00	 0.00000000E+00	-3.00000000E+01
					 5.00000000E+00	-5.00000000E+00	-1.80000000E+02
					-5.00000000E+00	-5.00000000E+00	-1.80000000E+02
					-5.00000000E+00	 5.00000000E+00	-1.80000000E+02
					 5.00000000E+00	 5.00000000E+00	-1.80000000E+02
					 5.00000000E+00	-5.00000000E+00	-3.30000000E+02
					-5.00000000E+00	-5.00000000E+00	-3.30000000E+02
					-5.00000000E+00	 5.00000000E+00	-3.30000000E+02
					 5.00000000E+00	 5.00000000E+00	-3.30000000E+02
					 0.00000000E+00	-5.00000000E+00	-3.30000000E+02
					-5.00000000E+00	 0.00000000E+00	-3.30000000E+02
					 0.00000000E+00	 5.00000000E+00	-3.30000000E+02
					 5.00000000E+00	 0.00000000E+00	-3.30000000E+02
				</DataArray>
			</Points>
			<Cells>
				<DataArray type="Int32" Name="connectivity" format="ascii">
					0 12 13 1 3 15 14 2 8 16 9 4 11 18 10 6 7 19 17 5 20 32 33 21 23 35 34 22 28 36 29 24 31 38 30 26 27 39 37 25 
				</DataArray>
				<DataArray type="Int32" Name="offsets" format="ascii">
					20 40 
				</DataArray>
				<DataArray type="UInt8" Name="types" format="ascii">
					25 25 
				</DataArray>
			</Cells>
			<PointData>
				<DataArray type="Float32" Name="U" NumberOfComponents="3" ComponentName0="D1" ComponentName1="D2" ComponentName2="D3" format="ascii">
					-7.54339000E-03	 1.91504000E-07	-2.74545000E-01
					 7.54339000E-03	 1.91504000E-07	 2.74545000E-01
					 7.54339000E-03	-1.91504000E-07	 2.74545000E-01
					-7.54339000E-03	-1.91504000E-07	-2.74545000E-01
					 0.00000000E+00	 1.91504000E-07	 0.00000000E+00
					 7.54339000E-03	 0.00000000E+00	 2.74545000E-01
					 0.00000000E+00	-1.91504000E-07	 0.00000000E+00
					-7.54339000E-03	 0.00000000E+00	-2.74545000E-01
					-8.31073000E-01	 1.83238000E-07	-2.51869000E-01
					-8.15992000E-01	 1.83238000E-07	 2.97113000E-01
					-8.15992000E-01	-1.83238000E-07	 2.97113000E-01
					-8.31073000E-01	-1.83238000E-07	-2.51869000E-01
					-1.65448000E+00	 1.75092000E-07	-2.29227000E-01
					-1.63940000E+00	 1.75092000E-07	 3.19702000E-01
					-1.63940000E+00	-1.75092000E-07	 3.19702000E-01
					-1.65448000E+00	-1.75092000E-07	-2.29227000E-01
					-1.64694000E+00	 1.75092000E-07	 4.52375000E-02
					-1.63940000E+00	 0.00000000E+00	 3.19702000E-01
					-1.64694000E+00	-1.75092000E-07	 4.52375000E-02
					-1.65448000E+00	 0.00000000E+00	-2.29227000E-01
					-1.64712000E+00	 2.30809000E-07	 8.71017000E-02
					-1.64677000E+00	 2.30809000E-07	 3.37330000E-03
					-1.64677000E+00	-2.30809000E-07	 3.37330000E-03
					-1.64712000E+00	-2.30809000E-07	 8.71017000E-02
					-1.64694000E+00	 2.30809000E-07	 4.52375000E-02
					-1.64677000E+00	 0.00000000E+00	 3.37330000E-03
					-1.64694000E+00	-2.30809000E-07	 4.52375000E-02
					-1.64712000E+00	 0.00000000E+00	 8.71017000E-02
					-4.05800000E-01	 9.49648000E-08	 9.12443000E-02
					-4.05465000E-01	 9.49648000E-08	 9.47213000E-03
					-4.05465000E-01	-9.49648000E-08	 9.47213000E-03
					-4.05800000E-01	-9.49648000E-08	 9.12443000E-02
					 8.06061000E-01	 1.66774000E-08	 9.51567000E-02
					 8.06380000E-01	 1.66774000E-08	 1.53408000E-02
					 8.06380000E-01	-1.66774000E-08	 1.53408000E-02
					 8.06061000E-01	-1.66774000E-08	 9.51567000E-02
					 8.06221000E-01	 1.66774000E-08	 5.52487000E-02
					 8.06380000E-01	 0.00000000E+00	 1.53408000E-02
					 8.06221000E-01	-1.66774000E-08	 5.52487000E-02
					 8.06061000E-01	 0.00000000E+00	 9.51567000E-02
				</DataArray>
			</PointData>
		</Piece>
	</UnstructuredGrid>
</VTKFile>