# vtk DataFile Version 3.0

ASCII
DATASET UNSTRUCTURED_GRID

POINTS 40 double
	 5.00000000E+00	-5.00000000E+00	 0.00000000E+00
	-5.00000000E+00	-5.00000000E+00	 0.00000000E+00
	-5.00000000E+00	 5.00000000E+00	 0.00000000E+00
	 5.00000000E+00	 5.00000000E+00	 0.00000000E+00
	 0.00000000E+00	-5.00000000E+00	 0.00000000E+00
	-5.00000000E+00	 0.00000000E+00	 0.00000000E+00
	 0.00000000E+00	 5.00000000E+00	 0.00000000E+00
	 5.00000000E+00	 0.00000000E+00	 0.00000000E+00
	 5.00000000E+00	-5.00000000E+00	-1.50000000E+01
	-5.00000000E+00	-5.00000000E+00	-1.50000000E+01
	-5.00000000E+00	 5.00000000E+00	-1.50000000E+01
	 5.00000000E+00	 5.00000000E+00	-1.50000000E+01
	 5.00000000E+00	-5.00000000E+00	-3.00000000E+01
	-5.00000000E+00	-5.00000000E+00	-3.00000000E+01
	-5.00000000E+00	 5.00000000E+00	-3.00000000E+01
	 5.00000000E+00	 5.00000000E+00	-3.00000000E+01
	 0.00000000E+00	-5.00000000E+00	-3.00000000E+01
	-5.00000000E+00	 0.00000000E+00	-3.00000000E+01
	 0.00000000E+00	 5.00000000E+00	-3.00000000E+01
	 5.00000000E+00	 0.00000000E+00	-3.00000000E+01
	 5.00000000E+00	-5.00000000E+00	-3.00000000E+01
	-5.00000000E+00	-5.00000000E+00	-3.00000000E+01
	-5.00000000E+00	 5.00000000E+00	-3.00000000E+01
	 5.00000000E+00	 5.00000000E+00	-3.00000000E+01
	 0.00000000E+00	-5.00000000E+00	-3.00000000E+01
	-5.00000000E+00	 0.00000000E+00	-3.00000000E+01
	 0.00000000E+00	 5.00000000E+00	-3.00000000E+01
	 5.00000000E+00	 0.00000000E+00	-3.00000000E+01
	 5.00000000E+00	-5.00000000E+00	-1.80000000E+02
	-5.00000000E+00	-5.00000000E+00	-1.80000000E+02
	-5.00000000E+00	 5.00000000E+00	-1.80000000E+02
	 5.00000000E+00	 5.00000000E+00	-1.80000000E+02
	 5.00000000E+00	-5.00000000E+00	-3.30000000E+02
	-5.00000000E+00	-5.00000000E+00	-3.30000000E+02
	-5.00000000E+00	 5.00000000E+00	-3.30000000E+02
	 5.00000000E+00	 5.00000000E+00	-3.30000000E+02
	 0.00000000E+00	-5.00000000E+00	-3.30000000E+02
	-5.00000000E+00	 0.00000000E+00	-3.30000000E+02
	 0.00000000E+00	 5.00000000E+00	-3.30000000E+02
	 5.00000000E+00	 0.00000000E+00	-3.30000000E+02

CELLS 2 42
	20 0 12 13 1 3 15 14 2 8 16 9 4 11 18 10 6 7 19 17 5 
	20 20 32 33 21 23 35 34 22 28 36 29 24 31 38 30 26 27 39 37 25 

CELL_TYPES 2
	25
	25

POINT_DATA 40
FIELD U 1
	U 3 40 double
		-6.57979000E+00	-5.28450000E-08	-4.74387000E+00
		 6.57979000E+00	-5.28450000E-08	 4.74387000E+00
		 6.57979000E+00	 5.28450000E-08	 4.74387000E+00
		-6.57979000E+00	 5.28450000E-08	-4.74387000E+00
		 0.00000000E+00	-5.28450000E-08	 0.00000000E+00
		 6.57979000E+00	 0.00000000E+00	 4.74387000E+00
		 0.00000000E+00	 5.28450000E-08	 0.00000000E+00
		-6.57979000E+00	 0.00000000E+00	-4.74387000E+00
		-2.08114000E+01	-5.07127000E-08	 1.49955000E+01
		-7.65183000E+00	-5.07127000E-08	 2.44832000E+01
		-7.65183000E+00	 5.07127000E-08	 2.44832000E+01
		-2.08114000E+01	 5.07127000E-08	 1.49955000E+01
		-3.50430000E+01	-4.85724000E-08	 3.47348000E+01
		-2.18835000E+01	-4.85724000E-08	 4.42225000E+01
		-2.18835000E+01	 4.85724000E-08	 4.42225000E+01
		-3.50430000E+01	 4.85724000E-08	 3.47348000E+01
		-2.84632000E+01	-4.85724000E-08	 3.94787000E+01
		-2.18835000E+01	 0.00000000E+00	 4.42225000E+01
		-2.84632000E+01	 4.85724000E-08	 3.94787000E+01
		-3.50430000E+01	 0.00000000E+00	 3.47348000E+01
		-2.84632000E+01	 1.70491000E-07	 3.94730000E+01
		-2.84632000E+01	 1.70491000E-07	 3.94843000E+01
		-2.84632000E+01	-1.70491000E-07	 3.94843000E+01
		-2.84632000E+01	-1.70491000E-07	 3.94730000E+01
		-2.84632000E+01	 1.70491000E-07	 3.94787000E+01
		-2.84632000E+01	 0.00000000E+00	 3.94843000E+01
		-2.84632000E+01	-1.70491000E-07	 3.94787000E+01
		-2.84632000E+01	 0.00000000E+00	 3.94730000E+01
		-2.86328000E+01	 8.56072000E-08	 3.94731000E+01
		-2.86328000E+01	 8.56072000E-08	 3.94844000E+01
		-2.86328000E+01	-8.56072000E-08	 3.94844000E+01
		-2.86328000E+01	-8.56072000E-08	 3.94731000E+01
		-2.88022000E+01	 7.25732000E-10	 3.94732000E+01
		-2.88022000E+01	 7.25732000E-10	 3.94845000E+01
		-2.88022000E+01	-7.25732000E-10	 3.94845000E+01
		-2.88022000E+01	-7.25732000E-10	 3.94732000E+01
		-2.88022000E+01	 7.25732000E-10	 3.94788000E+01
		-2.88022000E+01	 0.00000000E+00	 3.94845000E+01
		-2.88022000E+01	-7.25732000E-10	 3.94788000E+01
		-2.88022000E+01	 0.00000000E+00	 3.94732000E+01
