# vtk DataFile Version 3.0

ASCII
DATASET UNSTRUCTURED_GRID

POINTS 40 double
	 5.00000000E+00	-5.00000000E+00	 0.00000000E+00
	-5.00000000E+00	-5.00000000E+00	 0.00000000E+00
	-5.00000000E+00	 5.00000000E+00	 0.00000000E+00
	 5.00000000E+00	 5.00000000E+00	 0.00000000E+00
	 0.00000000E+00	-5.00000000E+00	 0.00000000E+00
	-5.00000000E+00	 0.00000000E+00	 0.00000000E+00
	 0.00000000E+00	 5.00000000E+00	 0.00000000E+00
	 5.00000000E+00	 0.00000000E+00	 0.00000000E+00
	 5.00000000E+00	-5.00000000E+00	-1.50000000E+01
	-5.00000000E+00	-5.00000000E+00	-1.50000000E+01
	-5.00000000E+00	 5.00000000E+00	-1.50000000E+01
	 5.00000000E+00	 5.00000000E+00	-1.50000000E+01
	 5.00000000E+00	-5.00000000E+00	-3.00000000E+01
	-5.00000000E+00	-5.00000000E+00	-3.00000000E+01
	-5.00000000E+00	 5.00000000E+00	-3.00000000E+01
	 5.00000000E+00	 5.00000000E+00	-3.00000000E+01
	 0.00000000E+00	-5.00000000E+00	-3.00000000E+01
	-5.00000000E+00	 0.00000000E+00	-3.00000000E+01
	 0.00000000E+00	 5.00000000E+00	-3.00000000E+01
	 5.00000000E+00	 0.00000000E+00	-3.00000000E+01
	 5.00000000E+00	-5.00000000E+00	-3.00000000E+01
	-5.00000000E+00	-5.00000000E+00	-3.00000000E+01
	-5.00000000E+00	 5.00000000E+00	-3.00000000E+01
	 5.00000000E+00	 5.00000000E+00	-3.00000000E+01
	 0.00000000E+00	-5.00000000E+00	-3.00000000E+01
	-5.00000000E+00	 0.00000000E+00	-3.00000000E+01
	 0.00000000E+00	 5.00000000E+00	-3.00000000E+01
	 5.00000000E+00	 0.00000000E+00	-3.00000000E+01
	 5.00000000E+00	-5.00000000E+00	-1.80000000E+02
	-5.00000000E+00	-5.00000000E+00	-1.80000000E+02
	-5.00000000E+00	 5.00000000E+00	-1.80000000E+02
	 5.00000000E+00	 5.00000000E+00	-1.80000000E+02
	 5.00000000E+00	-5.00000000E+00	-3.30000000E+02
	-5.00000000E+00	-5.00000000E+00	-3.30000000E+02
	-5.00000000E+00	 5.00000000E+00	-3.30000000E+02
	 5.00000000E+00	 5.00000000E+00	-3.30000000E+02
	 0.00000000E+00	-5.00000000E+00	-3.30000000E+02
	-5.00000000E+00	 0.00000000E+00	-3.30000000E+02
	 0.00000000E+00	 5.00000000E+00	-3.30000000E+02
	 5.00000000E+00	 0.00000000E+00	-3.30000000E+02

CELLS 2 42
	20 0 12 13 1 3 15 14 2 8 16 9 4 11 18 10 6 7 19 17 5 
	20 20 32 33 21 23 35 34 22 28 36 29 24 31 38 30 26 27 39 37 25 

CELL_TYPES 2
	25
	25

POINT_DATA 40
FIELD U 1
	U 3 40 double
		-2.55498000E-05	 1.84349000E-07	 1.59265000E-02
		 2.55498000E-05	 1.84349000E-07	-1.59265000E-02
		 2.55498000E-05	-1.84349000E-07	-1.59265000E-02
		-2.55498000E-05	-1.84349000E-07	 1.59265000E-02
		 0.00000000E+00	 1.84349000E-07	 0.00000000E+00
		 2.55498000E-05	 0.00000000E+00	-1.59265000E-02
		 0.00000000E+00	-1.84349000E-07	 0.00000000E+00
		-2.55498000E-05	 0.00000000E+00	 1.59265000E-02
		 4.77633000E-02	 1.75483000E-07	 1.60057000E-02
		 4.78144000E-02	 1.75483000E-07	-1.58570000E-02
		 4.78144000E-02	-1.75483000E-07	-1.58570000E-02
		 4.77633000E-02	-1.75483000E-07	 1.60057000E-02
		 9.55630000E-02	 1.66619000E-07	 1.60826000E-02
		 9.56142000E-02	 1.66619000E-07	-1.57850000E-02
		 9.56142000E-02	-1.66619000E-07	-1.57850000E-02
		 9.55630000E-02	-1.66619000E-07	 1.60826000E-02
		 9.55886000E-02	 1.66619000E-07	 1.48777000E-04
		 9.56142000E-02	 0.00000000E+00	-1.57850000E-02
		 9.55886000E-02	-1.66619000E-07	 1.48777000E-04
		 9.55630000E-02	 0.00000000E+00	 1.60826000E-02
		-3.82074000E-01	 1.73591000E-07	 2.13286000E+00
		 5.73251000E-01	 1.73591000E-07	-2.13256000E+00
		 5.73251000E-01	-1.73591000E-07	-2.13256000E+00
		-3.82074000E-01	-1.73591000E-07	 2.13286000E+00
		 9.55886000E-02	 1.73591000E-07	 1.48777000E-04
		 5.73251000E-01	 0.00000000E+00	-2.13256000E+00
		 9.55886000E-02	-1.73591000E-07	 1.48777000E-04
		-3.82074000E-01	 0.00000000E+00	 2.13286000E+00
		 6.35996000E+01	 8.67701000E-08	 1.64629000E+01
		 6.45550000E+01	 8.67701000E-08	 1.21974000E+01
		 6.45550000E+01	-8.67701000E-08	 1.21974000E+01
		 6.35996000E+01	-8.67701000E-08	 1.64629000E+01
		 1.27582000E+02	-1.81621000E-11	 3.07932000E+01
		 1.28537000E+02	-1.81621000E-11	 2.65277000E+01
		 1.28537000E+02	 1.81621000E-11	 2.65277000E+01
		 1.27582000E+02	 1.81621000E-11	 3.07932000E+01
		 1.28060000E+02	-1.81621000E-11	 2.86605000E+01
		 1.28537000E+02	 0.00000000E+00	 2.65277000E+01
		 1.28060000E+02	 1.81621000E-11	 2.86605000E+01
		 1.27582000E+02	 0.00000000E+00	 3.07932000E+01
