<?xml version="1.0"?>
<VTKFile type="UnstructuredGrid" version="0.1" byte_order="LittleEndian">
	<UnstructuredGrid>
		<Piece NumberOfPoints="40" NumberOfCells="2">
			<Points>
				<DataArray type="Float64" NumberOfComponents="3" format="ascii">
					 5.00000000E+00	-5.00000000E+00	 0.00000000E+00
					-5.00000000E+00	-5.00000000E+00	 0.00000000E+00
					-5.00000000E+00	 5.00000000E+00	 0.00000000E+00
					 5.00000000E+00	 5.00000000E+00	 0.00000000E+00
					 0.00000000E+00	-5.00000000E+00	 0.00000000E+00
					-5.00000000E+00	 0.00000000E+00	 0.00000000E+00
					 0.00000000E+00	 5.00000000E+00	 0.00000000E+00
					 5.00000000E+00	 0.00000000E+00	 0.00000000E+00
					 5.00000000E+00	-5.00000000E+00	-1.50000000E+01
					-5.00000000E+00	-5.00000000E+00	-1.50000000E+01
					-5.00000000E+00	 5.00000000E+00	-1.50000000E+01
					 5.00000000E+00	 5.00000000E+00	-1.50000000E+01
					 5.00000000E+00	-5.00000000E+00	-3.00000000E+01
					-5.00000000E+00	-5.00000000E+00	-3.00000000E+01
					-5.00000000E+00	 5.00000000E+00	-3.00000000E+01
					 5.00000000E+00	 5.00000000E+00	-3.00000000E+01
					 0.00000000E+00	-5.00000000E+00	-3.00000000E+01
					-5.00000000E+00	 0.00000000E+00	-3.00000000E+01
					 0.00000000E+00	 5.00000000E+00	-3.00000000E+01
					 5.00000000E+00	 0.00000000E+00	-3.00000000E+01
					 5.00000000E+00	-5.00000000E+00	-3.00000000E+01
					-5.00000000E+00	-5.00000000E+00	-3.00000000E+01
					-5.00000000E+00	 5.00000000E+00	-3.00000000E+01
					 5.00000000E+00	 5.00000000E+00	-3.00000000E+01
					 0.00000000E+00	-5.00000000E+00	-3.00000000E+01
					-5.00000000E+00	 0.00000000E+00	-3.00000000E+01
					 0.00000000E+00	 5.00000000E+00	-3.00000000E+01
					 5.00000000E+00	 0.00000000E+00	-3.00000000E+01
					 5.00000000E+00	-5.00000000E+00	-1.80000000E+02
					-5.00000000E+00	-5.00000000E+00	-1.80000000E+02
					-5.00000000E+00	 5.00000000E+00	-1.80000000E+02
					 5.00000000E+00	 5.00000000E+00	-1.80000000E+02
					 5.00000000E+00	-5.00000000E+00	-3.30000000E+02
					-5.00000000E+00	-5.00000000E+00	-3.30000000E+02
					-5.00000000E+00	 5.00000000E+00	-3.30000000E+02
					 5.00000000E+00	 5.00000000E+00	-3.30000000E+02
					 0.00000000E+00	-5.00000000E+00	-3.30000000E+02
					-5.00000000E+00	 0.00000000E+00	-3.30000000E+02
					 0.00000000E+00	 5.00000000E+00	-3.30000000E+02
					 5.00000000E+00	 0.00000000E+00	-3.30000000E+02
				</DataArray>
			</Points>
			<Cells>
				<DataArray type="Int32" Name="connectivity" format="ascii">
					0 12 13 1 3 15 14 2 8 16 9 4 11 18 10 6 7 19 17 5 20 32 33 21 23 35 34 22 28 36 29 24 31 38 30 26 27 39 37 25 
				</DataArray>
				<DataArray type="Int32" Name="offsets" format="ascii">
					20 40 
				</DataArray>
				<DataArray type="UInt8" Name="types" format="ascii">
					25 25 
				</DataArray>
			</Cells>
			<PointData>
				<DataArray type="Float32" Name="U" NumberOfComponents="3" ComponentName0="D1" ComponentName1="D2" ComponentName2="D3" format="ascii">
					-9.81239000E+00	-1.53686000E-07	-1.35681000E+00
					 9.81239000E+00	-1.53686000E-07	 1.35681000E+00
					 9.81239000E+00	 1.53686000E-07	 1.35681000E+00
					-9.81239000E+00	 1.53686000E-07	-1.35681000E+00
					 0.00000000E+00	-1.53686000E-07	 0.00000000E+00
					 9.81239000E+00	 0.00000000E+00	 1.35681000E+00
					 0.00000000E+00	 1.53686000E-07	 0.00000000E+00
					-9.81239000E+00	 0.00000000E+00	-1.35681000E+00
					-1.38828000E+01	-1.46148000E-07	 2.80803000E+01
					 5.74194000E+00	-1.46148000E-07	 3.07940000E+01
					 5.74194000E+00	 1.46148000E-07	 3.07940000E+01
					-1.38828000E+01	 1.46148000E-07	 2.80803000E+01
					-1.79533000E+01	-1.38609000E-07	 5.75175000E+01
					 1.67149000E+00	-1.38609000E-07	 6.02311000E+01
					 1.67149000E+00	 1.38609000E-07	 6.02311000E+01
					-1.79533000E+01	 1.38609000E-07	 5.75175000E+01
					-8.14090000E+00	-1.38609000E-07	 5.88743000E+01
					 1.67149000E+00	 0.00000000E+00	 6.02311000E+01
					-8.14090000E+00	 1.38609000E-07	 5.88743000E+01
					-1.79533000E+01	 0.00000000E+00	 5.75175000E+01
					-8.25251000E+00	 1.53805000E-07	 5.78238000E+01
					-8.02929000E+00	 1.53805000E-07	 5.99249000E+01
					-8.02929000E+00	-1.53805000E-07	 5.99249000E+01
					-8.25251000E+00	-1.53805000E-07	 5.78238000E+01
					-8.14090000E+00	 1.53805000E-07	 5.88743000E+01
					-8.02929000E+00	 0.00000000E+00	 5.99249000E+01
					-8.14090000E+00	-1.53805000E-07	 5.88743000E+01
					-8.25251000E+00	 0.00000000E+00	 5.78238000E+01
					-3.97690000E+01	 7.72038000E-08	 6.11721000E+01
					-3.95458000E+01	 7.72038000E-08	 6.32732000E+01
					-3.95458000E+01	-7.72038000E-08	 6.32732000E+01
					-3.97690000E+01	-7.72038000E-08	 6.11721000E+01
					-7.12857000E+01	 6.05858000E-10	 6.45204000E+01
					-7.10625000E+01	 6.05858000E-10	 6.66216000E+01
					-7.10625000E+01	-6.05858000E-10	 6.66216000E+01
					-7.12857000E+01	-6.05858000E-10	 6.45204000E+01
					-7.11741000E+01	 6.05858000E-10	 6.55710000E+01
					-7.10625000E+01	 0.00000000E+00	 6.66216000E+01
					-7.11741000E+01	-6.05858000E-10	 6.55710000E+01
					-7.12857000E+01	 0.00000000E+00	 6.45204000E+01
				</DataArray>
			</PointData>
		</Piece>
	</UnstructuredGrid>
</VTKFile>