<?xml version="1.0"?>
<VTKFile type="UnstructuredGrid" version="0.1" byte_order="LittleEndian">
	<UnstructuredGrid>
		<Piece NumberOfPoints="40" NumberOfCells="2">
			<Points>
				<DataArray type="Float64" NumberOfComponents="3" format="ascii">
					 5.00000000E+00	-5.00000000E+00	 0.00000000E+00
					-5.00000000E+00	-5.00000000E+00	 0.00000000E+00
					-5.00000000E+00	 5.00000000E+00	 0.00000000E+00
					 5.00000000E+00	 5.00000000E+00	 0.00000000E+00
					 0.00000000E+00	-5.00000000E+00	 0.00000000E+00
					-5.00000000E+00	 0.00000000E+00	 0.00000000E+00
					 0.00000000E+00	 5.00000000E+00	 0.00000000E+00
					 5.00000000E+00	 0.00000000E+00	 0.00000000E+00
					 5.00000000E+00	-5.00000000E+00	-1.50000000E+01
					-5.00000000E+00	-5.00000000E+00	-1.50000000E+01
					-5.00000000E+00	 5.00000000E+00	-1.50000000E+01
					 5.00000000E+00	 5.00000000E+00	-1.50000000E+01
					 5.00000000E+00	-5.00000000E+00	-3.00000000E+01
					-5.00000000E+00	-5.00000000E+00	-3.00000000E+01
					-5.00000000E+00	 5.00000000E+00	-3.00000000E+01
					 5.00000000E+00	 5.00000000E+00	-3.00000000E+01
					 0.00000000E+00	-5.00000000E+00	-3.00000000E+01
					-5.00000000E+00	 0.00000000E+00	-3.00000000E+01
					 0.00000000E+00	 5.00000000E+00	-3.00000000E+01
					 5.00000000E+00	 0.00000000E+00	-3.00000000E+01
					 5.00000000E+00	-5.00000000E+00	-3.00000000E+01
					-5.00000000E+00	-5.00000000E+00	-3.00000000E+01
					-5.00000000E+00	 5.00000000E+00	-3.00000000E+01
					 5.00000000E+00	 5.00000000E+00	-3.00000000E+01
					 0.00000000E+00	-5.00000000E+00	-3.00000000E+01
					-5.00000000E+00	 0.00000000E+00	-3.00000000E+01
					 0.00000000E+00	 5.00000000E+00	-3.00000000E+01
					 5.00000000E+00	 0.00000000E+00	-3.00000000E+01
					 5.00000000E+00	-5.00000000E+00	-1.80000000E+02
					-5.00000000E+00	-5.00000000E+00	-1.80000000E+02
					-5.00000000E+00	 5.00000000E+00	-1.80000000E+02
					 5.00000000E+00	 5.00000000E+00	-1.80000000E+02
					 5.00000000E+00	-5.00000000E+00	-3.30000000E+02
					-5.00000000E+00	-5.00000000E+00	-3.30000000E+02
					-5.00000000E+00	 5.00000000E+00	-3.30000000E+02
					 5.00000000E+00	 5.00000000E+00	-3.30000000E+02
					 0.00000000E+00	-5.00000000E+00	-3.30000000E+02
					-5.00000000E+00	 0.00000000E+00	-3.30000000E+02
					 0.00000000E+00	 5.00000000E+00	-3.30000000E+02
					 5.00000000E+00	 0.00000000E+00	-3.30000000E+02
				</DataArray>
			</Points>
			<Cells>
				<DataArray type="Int32" Name="connectivity" format="ascii">
					0 12 13 1 3 15 14 2 8 16 9 4 11 18 10 6 7 19 17 5 20 32 33 21 23 35 34 22 28 36 29 24 31 38 30 26 27 39 37 25 
				</DataArray>
				<DataArray type="Int32" Name="offsets" format="ascii">
					20 40 
				</DataArray>
				<DataArray type="UInt8" Name="types" format="ascii">
					25 25 
				</DataArray>
			</Cells>
			<PointData>
				<DataArray type="Float32" Name="U" NumberOfComponents="3" ComponentName0="D1" ComponentName1="D2" ComponentName2="D3" format="ascii">
					-3.81970000E-02	 2.06617000E-07	-6.16854000E-01
					 3.81970000E-02	 2.06617000E-07	 6.16854000E-01
					 3.81970000E-02	-2.06617000E-07	 6.16854000E-01
					-3.81970000E-02	-2.06617000E-07	-6.16854000E-01
					 0.00000000E+00	 2.06617000E-07	 0.00000000E+00
					 3.81970000E-02	 0.00000000E+00	 6.16854000E-01
					 0.00000000E+00	-2.06617000E-07	 0.00000000E+00
					-3.81970000E-02	 0.00000000E+00	-6.16854000E-01
					-1.88875000E+00	 1.98347000E-07	-5.02261000E-01
					-1.81236000E+00	 1.98347000E-07	 7.31435000E-01
					-1.81236000E+00	-1.98347000E-07	 7.31435000E-01
					-1.88875000E+00	-1.98347000E-07	-5.02261000E-01
					-3.73928000E+00	 1.90081000E-07	-3.87673000E-01
					-3.66289000E+00	 1.90081000E-07	 8.46017000E-01
					-3.66289000E+00	-1.90081000E-07	 8.46017000E-01
					-3.73928000E+00	-1.90081000E-07	-3.87673000E-01
					-3.70109000E+00	 1.90081000E-07	 2.29172000E-01
					-3.66289000E+00	 0.00000000E+00	 8.46017000E-01
					-3.70109000E+00	-1.90081000E-07	 2.29172000E-01
					-3.73928000E+00	 0.00000000E+00	-3.87673000E-01
					-3.70194000E+00	 1.96895000E-07	 3.21341000E-01
					-3.70024000E+00	 1.96895000E-07	 1.37004000E-01
					-3.70024000E+00	-1.96895000E-07	 1.37004000E-01
					-3.70194000E+00	-1.96895000E-07	 3.21341000E-01
					-3.70109000E+00	 1.96895000E-07	 2.29172000E-01
					-3.70024000E+00	 0.00000000E+00	 1.37004000E-01
					-3.70109000E+00	-1.96895000E-07	 2.29172000E-01
					-3.70194000E+00	 0.00000000E+00	 3.21341000E-01
					-9.37183000E-01	 9.81528000E-08	 3.46788000E-01
					-9.35484000E-01	 9.81528000E-08	 1.62491000E-01
					-9.35484000E-01	-9.81528000E-08	 1.62491000E-01
					-9.37183000E-01	-9.81528000E-08	 3.46788000E-01
					 1.82699000E+00	-5.67273000E-10	 3.72235000E-01
					 1.82868000E+00	-5.67273000E-10	 1.87976000E-01
					 1.82868000E+00	 5.67273000E-10	 1.87976000E-01
					 1.82699000E+00	 5.67273000E-10	 3.72235000E-01
					 1.82783000E+00	-5.67273000E-10	 2.80105000E-01
					 1.82868000E+00	 0.00000000E+00	 1.87976000E-01
					 1.82783000E+00	 5.67273000E-10	 2.80105000E-01
					 1.82699000E+00	 0.00000000E+00	 3.72235000E-01
				</DataArray>
			</PointData>
		</Piece>
	</UnstructuredGrid>
</VTKFile>