<?xml version="1.0"?>
<VTKFile type="UnstructuredGrid" version="0.1" byte_order="LittleEndian">
	<UnstructuredGrid>
		<Piece NumberOfPoints="40" NumberOfCells="2">
			<Points>
				<DataArray type="Float64" NumberOfComponents="3" format="ascii">
					 5.00000000E+00	-5.00000000E+00	 0.00000000E+00
					-5.00000000E+00	-5.00000000E+00	 0.00000000E+00
					-5.00000000E+00	 5.00000000E+00	 0.00000000E+00
					 5.00000000E+00	 5.00000000E+00	 0.00000000E+00
					 0.00000000E+00	-5.00000000E+00	 0.00000000E+00
					-5.00000000E+00	 0.00000000E+00	 0.00000000E+00
					 0.00000000E+00	 5.00000000E+00	 0.00000000E+00
					 5.00000000E+00	 0.00000000E+00	 0.00000000E+00
					 5.00000000E+00	-5.00000000E+00	-1.50000000E+01
					-5.00000000E+00	-5.00000000E+00	-1.50000000E+01
					-5.00000000E+00	 5.00000000E+00	-1.50000000E+01
					 5.00000000E+00	 5.00000000E+00	-1.50000000E+01
					 5.00000000E+00	-5.00000000E+00	-3.00000000E+01
					-5.00000000E+00	-5.00000000E+00	-3.00000000E+01
					-5.00000000E+00	 5.00000000E+00	-3.00000000E+01
					 5.00000000E+00	 5.00000000E+00	-3.00000000E+01
					 0.00000000E+00	-5.00000000E+00	-3.00000000E+01
					-5.00000000E+00	 0.00000000E+00	-3.00000000E+01
					 0.00000000E+00	 5.00000000E+00	-3.00000000E+01
					 5.00000000E+00	 0.00000000E+00	-3.00000000E+01
					 5.00000000E+00	-5.00000000E+00	-3.00000000E+01
					-5.00000000E+00	-5.00000000E+00	-3.00000000E+01
					-5.00000000E+00	 5.00000000E+00	-3.00000000E+01
					 5.00000000E+00	 5.00000000E+00	-3.00000000E+01
					 0.00000000E+00	-5.00000000E+00	-3.00000000E+01
					-5.00000000E+00	 0.00000000E+00	-3.00000000E+01
					 0.00000000E+00	 5.00000000E+00	-3.00000000E+01
					 5.00000000E+00	 0.00000000E+00	-3.00000000E+01
					 5.00000000E+00	-5.00000000E+00	-1.80000000E+02
					-5.00000000E+00	-5.00000000E+00	-1.80000000E+02
					-5.00000000E+00	 5.00000000E+00	-1.80000000E+02
					 5.00000000E+00	 5.00000000E+00	-1.80000000E+02
					 5.00000000E+00	-5.00000000E+00	-3.30000000E+02
					-5.00000000E+00	-5.00000000E+00	-3.30000000E+02
					-5.00000000E+00	 5.00000000E+00	-3.30000000E+02
					 5.00000000E+00	 5.00000000E+00	-3.30000000E+02
					 0.00000000E+00	-5.00000000E+00	-3.30000000E+02
					-5.00000000E+00	 0.00000000E+00	-3.30000000E+02
					 0.00000000E+00	 5.00000000E+00	-3.30000000E+02
					 5.00000000E+00	 0.00000000E+00	-3.30000000E+02
				</DataArray>
			</Points>
			<Cells>
				<DataArray type="Int32" Name="connectivity" format="ascii">
					0 12 13 1 3 15 14 2 8 16 9 4 11 18 10 6 7 19 17 5 20 32 33 21 23 35 34 22 28 36 29 24 31 38 30 26 27 39 37 25 
				</DataArray>
				<DataArray type="Int32" Name="offsets" format="ascii">
					20 40 
				</DataArray>
				<DataArray type="UInt8" Name="types" format="ascii">
					25 25 
				</DataArray>
			</Cells>
			<PointData>
				<DataArray type="Float32" Name="U" NumberOfComponents="3" ComponentName0="D1" ComponentName1="D2" ComponentName2="D3" format="ascii">
					-3.79859000E+00	 6.92368000E-08	 4.85351000E+00
					 3.79859000E+00	 6.92368000E-08	-4.85351000E+00
					 3.79859000E+00	-6.92368000E-08	-4.85351000E+00
					-3.79859000E+00	-6.92368000E-08	 4.85351000E+00
					 0.00000000E+00	 6.92368000E-08	 0.00000000E+00
					 3.79859000E+00	 0.00000000E+00	-4.85351000E+00
					 0.00000000E+00	-6.92368000E-08	 0.00000000E+00
					-3.79859000E+00	 0.00000000E+00	 4.85351000E+00
					 1.07620000E+01	 6.67194000E-08	 1.62492000E+01
					 1.83591000E+01	 6.67194000E-08	 6.54222000E+00
					 1.83591000E+01	-6.67194000E-08	 6.54222000E+00
					 1.07620000E+01	-6.67194000E-08	 1.62492000E+01
					 2.53225000E+01	 6.42124000E-08	 2.76449000E+01
					 3.29196000E+01	 6.42124000E-08	 1.79379000E+01
					 3.29196000E+01	-6.42124000E-08	 1.79379000E+01
					 2.53225000E+01	-6.42124000E-08	 2.76449000E+01
					 2.91211000E+01	 6.42124000E-08	 2.27914000E+01
					 3.29196000E+01	 0.00000000E+00	 1.79379000E+01
					 2.91211000E+01	-6.42124000E-08	 2.27914000E+01
					 2.53225000E+01	 0.00000000E+00	 2.76449000E+01
					 2.91047000E+01	 1.99781000E-07	 2.31960000E+01
					 2.91375000E+01	 1.99781000E-07	 2.23869000E+01
					 2.91375000E+01	-1.99781000E-07	 2.23869000E+01
					 2.91047000E+01	-1.99781000E-07	 2.31960000E+01
					 2.91211000E+01	 1.99781000E-07	 2.27914000E+01
					 2.91375000E+01	 0.00000000E+00	 2.23869000E+01
					 2.91211000E+01	-1.99781000E-07	 2.27914000E+01
					 2.91047000E+01	 0.00000000E+00	 2.31960000E+01
					 4.12414000E+01	 1.01448000E-07	 2.36878000E+01
					 4.12742000E+01	 1.01448000E-07	 2.28787000E+01
					 4.12742000E+01	-1.01448000E-07	 2.28787000E+01
					 4.12414000E+01	-1.01448000E-07	 2.36878000E+01
					 5.33780000E+01	 3.11424000E-09	 2.41796000E+01
					 5.34108000E+01	 3.11424000E-09	 2.33705000E+01
					 5.34108000E+01	-3.11424000E-09	 2.33705000E+01
					 5.33780000E+01	-3.11424000E-09	 2.41796000E+01
					 5.33944000E+01	 3.11424000E-09	 2.37750000E+01
					 5.34108000E+01	 0.00000000E+00	 2.33705000E+01
					 5.33944000E+01	-3.11424000E-09	 2.37750000E+01
					 5.33780000E+01	 0.00000000E+00	 2.41796000E+01
				</DataArray>
			</PointData>
		</Piece>
	</UnstructuredGrid>
</VTKFile>