<?xml version="1.0"?>
<VTKFile type="UnstructuredGrid" version="0.1" byte_order="LittleEndian">
	<UnstructuredGrid>
		<Piece NumberOfPoints="9" NumberOfCells="5">
			<Points>
				<DataArray type="Float64" NumberOfComponents="3" format="ascii">
					-5.00000000E-01	 0.00000000E+00	 0.00000000E+00
					 0.00000000E+00	 0.00000000E+00	 0.00000000E+00
					 5.00000000E+01	 0.00000000E+00	 0.00000000E+00
					 1.00000000E+02	 0.00000000E+00	 0.00000000E+00
					 1.00500000E+02	 0.00000000E+00	 0.00000000E+00
					 1.01000000E+02	 0.00000000E+00	 0.00000000E+00
					 1.51000000E+02	 0.00000000E+00	 0.00000000E+00
					 2.01000000E+02	 0.00000000E+00	 0.00000000E+00
					 2.01500000E+02	 0.00000000E+00	 0.00000000E+00
				</DataArray>
			</Points>
			<Cells>
				<DataArray type="Int32" Name="connectivity" format="ascii">
					0 1 1 3 2 3 5 4 5 7 6 7 8 
				</DataArray>
				<DataArray type="Int32" Name="offsets" format="ascii">
					2 5 8 11 13 
				</DataArray>
				<DataArray type="UInt8" Name="types" format="ascii">
					3 21 21 21 3 
				</DataArray>
			</Cells>
			<PointData>
				<DataArray type="Float32" Name="MAFLOW" NumberOfComponents="1" ComponentName0="MF" format="ascii">
					 3.35000000E+01
					 3.35000000E+01
					 3.35000000E+01
					 3.35000000E+01
					 3.35000000E+01
					 3.35000000E+01
					 3.35000000E+01
					 3.35000000E+01
					 3.35000000E+01
				</DataArray>
				<DataArray type="Float32" Name="TOPRES" NumberOfComponents="1" ComponentName0="PT" format="ascii">
					 1.10000000E+05
					 1.10000000E+05
					 1.07524000E+05
					 1.05048000E+05
					 1.05000000E+05
					 1.04952000E+05
					 1.02476000E+05
					 1.00000000E+05
					 1.00000000E+05
				</DataArray>
			</PointData>
		</Piece>
	</UnstructuredGrid>
</VTKFile>