# vtk DataFile Version 3.0

ASCII
DATASET UNSTRUCTURED_GRID

POINTS 9 double
	-5.00000000E-01	 0.00000000E+00	 0.00000000E+00
	 0.00000000E+00	 0.00000000E+00	 0.00000000E+00
	 5.00000000E+01	 0.00000000E+00	 0.00000000E+00
	 1.00000000E+02	 0.00000000E+00	 0.00000000E+00
	 1.00500000E+02	 0.00000000E+00	 0.00000000E+00
	 1.01000000E+02	 0.00000000E+00	 0.00000000E+00
	 1.51000000E+02	 0.00000000E+00	 0.00000000E+00
	 2.01000000E+02	 0.00000000E+00	 0.00000000E+00
	 2.01500000E+02	 0.00000000E+00	 0.00000000E+00

CELLS 5 18
	2 0 1 
	3 1 3 2 
	3 3 5 4 
	3 5 7 6 
	2 7 8 

CELL_TYPES 5
	3
	21
	21
	21
	3

POINT_DATA 9
FIELD MAFLOW 1
	MAFLOW 1 9 double
		 3.35000000E+01
		 3.35000000E+01
		 3.35000000E+01
		 3.35000000E+01
		 3.35000000E+01
		 3.35000000E+01
		 3.35000000E+01
		 3.35000000E+01
		 3.35000000E+01
FIELD TOPRES 1
	TOPRES 1 9 double
		 1.10000000E+05
		 1.10000000E+05
		 1.07524000E+05
		 1.05048000E+05
		 1.05000000E+05
		 1.04952000E+05
		 1.02476000E+05
		 1.00000000E+05
		 1.00000000E+05
