    1C
    1UUSER                                                              
    1UDATE              25.january.2020                                 
    1UTIME              14:52:01                                        
    1UHOST                                                              
    1UPGM               CalculiX                                        
    1UVERSION           Version 2.16                             
    1UCOMPILETIME       Tue  7 Jan 19:57:43 CET 2020                    
    1UDIR                                                               
    1UDBN                                                               
    1UMAT    1WATER                                                     
    2C                            25                                     1
 -1         2 0.00000E+00 0.00000E+00 1.45000E+01
 -1         3 0.00000E+00 0.00000E+00 1.45000E+01
 -1         4 0.00000E+00 0.00000E+00 1.23250E+01
 -1         5 0.00000E+00 0.00000E+00 1.01500E+01
 -1         6 2.50000E+00 0.00000E+00 1.01500E+01
 -1         7 5.00000E+00 0.00000E+00 1.01500E+01
 -1         8 5.00000E+00 0.00000E+00 1.01500E+01
 -1         9 5.00000E+00 0.00000E+00 1.01500E+01
 -1        10 6.76770E+00 0.00000E+00 8.38220E+00
 -1        11 8.53550E+00 0.00000E+00 6.61450E+00
 -1        12 8.53550E+00 0.00000E+00 6.61450E+00
 -1        13 8.53550E+00 0.00000E+00 6.61450E+00
 -1        14 1.03033E+01 0.00000E+00 4.84670E+00
 -1        15 1.20711E+01 0.00000E+00 3.07890E+00
 -1        16 1.20711E+01 0.00000E+00 3.07890E+00
 -1        17 1.20711E+01 0.00000E+00 3.07890E+00
 -1        18 1.29550E+01 0.00000E+00 2.19500E+00
 -1        19 1.38388E+01 0.00000E+00 1.31120E+00
 -1        20 1.38388E+01 0.00000E+00 1.31120E+00
 -1        21 1.38388E+01 0.00000E+00 1.31120E+00
 -1        22 1.43904E+01 0.00000E+00 7.59600E-01
 -1        23 1.49419E+01 0.00000E+00 2.08100E-01
 -1        24 1.49419E+01 0.00000E+00 3.35410E+00
 -1        25 1.49419E+01 0.00000E+00 6.50000E+00
 -1        26 1.49419E+01 0.00000E+00 6.50000E+00
 -3
    3C                            13                                     1
 -1         1   11    0    1
 -2         2         3
 -1         2   12    0    1
 -2         3         5         4
 -1         3   12    0    1
 -2         5         7         6
 -1         4   12    0    1
 -2         7         9         8
 -1         5   12    0    1
 -2         9        11        10
 -1         6   12    0    1
 -2        11        13        12
 -1         7   12    0    1
 -2        13        15        14
 -1         8   12    0    1
 -2        15        17        16
 -1         9   12    0    1
 -2        17        19        18
 -1        10   12    0    1
 -2        19        21        20
 -1        11   12    0    1
 -2        21        23        22
 -1        12   12    0    1
 -2        23        25        24
 -1        13   11    0    1
 -2        25        26
 -3
 9999
