<?xml version="1.0"?>
<VTKFile type="UnstructuredGrid" version="0.1" byte_order="LittleEndian">
	<UnstructuredGrid>
		<Piece NumberOfPoints="18" NumberOfCells="4">
			<Points>
				<DataArray type="Float64" NumberOfComponents="3" format="ascii">
					-7.45058000E-09	-7.45058000E-09	-5.00000000E-03
					-7.45058000E-09	-7.45058000E-09	 5.00000000E-03
					 5.00000000E-01	-7.45058000E-09	-5.00000000E-03
					 5.00000000E-01	-7.45058000E-09	 5.00000000E-03
					 5.00000000E-01	 5.00000000E-01	-5.00000000E-03
					 5.00000000E-01	 5.00000000E-01	 5.00000000E-03
					-7.45058000E-09	 5.00000000E-01	-5.00000000E-03
					-7.45058000E-09	 5.00000000E-01	 5.00000000E-03
					 5.00000000E-01	 1.00000000E+00	-5.00000000E-03
					 5.00000000E-01	 1.00000000E+00	 5.00000000E-03
					-7.45058000E-09	 1.00000000E+00	-5.00000000E-03
					-7.45058000E-09	 1.00000000E+00	 5.00000000E-03
					 1.00000000E+00	-7.45058000E-09	-5.00000000E-03
					 1.00000000E+00	-7.45058000E-09	 5.00000000E-03
					 1.00000000E+00	 5.00000000E-01	-5.00000000E-03
					 1.00000000E+00	 5.00000000E-01	 5.00000000E-03
					 1.00000000E+00	 1.00000000E+00	-5.00000000E-03
					 1.00000000E+00	 1.00000000E+00	 5.00000000E-03
				</DataArray>
			</Points>
			<Cells>
				<DataArray type="Int32" Name="connectivity" format="ascii">
					0 2 4 6 1 3 5 7 6 4 8 10 7 5 9 11 2 12 14 4 3 13 15 5 4 14 16 8 5 15 17 9 
				</DataArray>
				<DataArray type="Int32" Name="offsets" format="ascii">
					8 16 24 32 
				</DataArray>
				<DataArray type="UInt8" Name="types" format="ascii">
					12 12 12 12 
				</DataArray>
			</Cells>
			<PointData>
				<DataArray type="Float32" Name="U" NumberOfComponents="3" ComponentName0="D1" ComponentName1="D2" ComponentName2="D3" format="ascii">
					 0.00000000E+00	 7.14286000E-05	 0.00000000E+00
					 0.00000000E+00	 7.14286000E-05	-1.42857000E-06
					 2.38095000E-04	 7.14286000E-05	 0.00000000E+00
					 2.38095000E-04	 7.14286000E-05	-1.42857000E-06
					 2.38095000E-04	-5.65838000E-17	-3.46481000E-18
					 2.38095000E-04	-5.65852000E-17	-1.42857000E-06
					 0.00000000E+00	 0.00000000E+00	 0.00000000E+00
					 0.00000000E+00	 0.00000000E+00	-1.42857000E-06
					 2.38095000E-04	-7.14286000E-05	 0.00000000E+00
					 2.38095000E-04	-7.14286000E-05	-1.42857000E-06
					 0.00000000E+00	-7.14286000E-05	 0.00000000E+00
					 0.00000000E+00	-7.14286000E-05	-1.42857000E-06
					 4.76190000E-04	 7.14286000E-05	 0.00000000E+00
					 4.76190000E-04	 7.14286000E-05	-1.42857000E-06
					 4.76190000E-04	-1.74214000E-16	 0.00000000E+00
					 4.76190000E-04	-1.74213000E-16	-1.42857000E-06
					 4.76190000E-04	-7.14286000E-05	 0.00000000E+00
					 4.76190000E-04	-7.14286000E-05	-1.42857000E-06
				</DataArray>
				<DataArray type="Float32" Name="S" NumberOfComponents="10" ComponentName0="xx" ComponentName1="yy" ComponentName2="zz" ComponentName3="xy" ComponentName4="yz" ComponentName5="zx" ComponentName6="Mises" ComponentName7="Min Principal" ComponentName8="Mid Principal" ComponentName9="Max Principal" format="ascii">
					 9.99960000E+01	-9.64779000E-12	-1.75241000E-12	-7.48981000E-12	 4.34263000E-14	-2.08584000E-13	 9.99960000E+01	-9.64802885E-12	-1.75217115E-12	 9.99960000E+01
					 9.99960000E+01	-9.61417000E-12	-1.74010000E-12	-7.46968000E-12	-1.24659000E-13	-6.57779000E-14	 9.99960000E+01	-9.61614306E-12	-1.73812694E-12	 9.99960000E+01
					 9.99960000E+01	-1.39595000E-11	-1.07078000E-12	 1.04033000E-12	 3.70515000E-13	 6.33859000E-13	 9.99960000E+01	-1.39701425E-11	-1.06013751E-12	 9.99960000E+01
					 9.99960000E+01	-1.40065000E-11	-1.09704000E-12	 1.04471000E-12	 2.18098000E-13	 6.10827000E-13	 9.99960000E+01	-1.40101836E-11	-1.09335641E-12	 9.99960000E+01
					 9.99960000E+01	-3.27833000E-12	-5.92521000E-14	 3.26637000E-13	 2.24016000E-14	 2.73353000E-13	 9.99960000E+01	-3.27848589E-12	-5.90962146E-14	 9.99960000E+01
					 9.99960000E+01	-3.31023000E-12	-7.88386000E-14	 3.41654000E-13	-6.84650000E-14	 9.16780000E-13	 9.99960000E+01	-3.31167995E-12	-7.73886506E-14	 9.99960000E+01
					 9.99960000E+01	-1.33429000E-12	-3.14965000E-14	-9.13970000E-12	 1.50922000E-13	-3.93226000E-13	 9.99960000E+01	-1.35154501E-12	-1.42414901E-14	 9.99960000E+01
					 9.99960000E+01	-1.30478000E-12	 1.81133000E-14	-9.14052000E-12	 3.86502000E-14	-5.17132000E-13	 9.99960000E+01	-1.30590826E-12	 1.92415580E-14	 9.99960000E+01
					 9.99960000E+01	-3.38731000E-12	 1.15236000E-12	 1.18790000E-12	-1.87315000E-13	 9.60607000E-13	 9.99960000E+01	-3.39502584E-12	 1.16007584E-12	 9.99960000E+01
					 9.99960000E+01	-3.48367000E-12	 1.08902000E-12	 1.20104000E-12	-2.05203000E-13	 7.48653000E-13	 9.99960000E+01	-3.49286017E-12	 1.09821017E-12	 9.99960000E+01
					 9.99960000E+01	 1.17141000E-13	-3.87597000E-12	-8.82754000E-12	-5.01096000E-14	-7.25311000E-14	 9.99960000E+01	-3.87659873E-12	 1.17769727E-13	 9.99960000E+01
					 9.99960000E+01	 1.01979000E-13	-3.90344000E-12	-8.84459000E-12	-1.39273000E-13	 1.92301000E-14	 9.99960000E+01	-3.90827684E-12	 1.06815841E-13	 9.99960000E+01
					 9.99960000E+01	 1.83643000E-12	-7.96885000E-13	 9.33154000E-12	-8.19749000E-14	 7.40587000E-14	 9.99960000E+01	-7.99434404E-13	 1.83897940E-12	 9.99960000E+01
					 9.99960000E+01	 1.84664000E-12	-7.08324000E-13	 9.29905000E-12	-1.21251000E-13	-1.65774000E-12	 9.99960000E+01	-7.14065311E-13	 1.85238131E-12	 9.99960000E+01
					 9.99960000E+01	 1.40391000E-11	 1.03468000E-13	 2.03995000E-12	 6.73633000E-14	-6.56879000E-13	 9.99960000E+01	 1.03142381E-13	 1.40394256E-11	 9.99960000E+01
					 9.99960000E+01	 1.39622000E-11	 3.88572000E-14	 2.02701000E-12	 2.09800000E-14	-1.91509000E-12	 9.99960000E+01	 3.88255869E-14	 1.39622316E-11	 9.99960000E+01
					 9.99960000E+01	 1.12153000E-11	 6.44220000E-12	-4.09966000E-12	-3.92904000E-13	-7.22101000E-13	 9.99960000E+01	 6.41007382E-12	 1.12474262E-11	 9.99960000E+01
					 9.99960000E+01	 1.10804000E-11	 6.31177000E-12	-4.07731000E-12	-4.36435000E-13	 3.36428000E-13	 9.99960000E+01	 6.27215564E-12	 1.11200144E-11	 9.99960000E+01
				</DataArray>
				<DataArray type="Float32" Name="ERROR" NumberOfComponents="1" ComponentName0="STR" format="ascii">
					 9.59455000E-12
					 9.59455000E-12
					 9.85704000E-12
					 9.85704000E-12
					 9.85704000E-12
					 9.85704000E-12
					 9.59455000E-12
					 9.59455000E-12
					 7.54892000E-12
					 7.54892000E-12
					 7.54892000E-12
					 7.54892000E-12
					 9.85704000E-12
					 9.85704000E-12
					 9.85704000E-12
					 9.85704000E-12
					 3.63416000E-12
					 3.63416000E-12
				</DataArray>
			</PointData>
		</Piece>
	</UnstructuredGrid>
</VTKFile>