<?xml version="1.0"?>
<VTKFile type="UnstructuredGrid" version="0.1" byte_order="LittleEndian">
	<UnstructuredGrid>
		<Piece NumberOfPoints="18" NumberOfCells="4">
			<Points>
				<DataArray type="Float64" NumberOfComponents="3" format="ascii">
					-7.45058000E-09	-7.45058000E-09	-5.00000000E-03
					-7.45058000E-09	-7.45058000E-09	 5.00000000E-03
					 5.00000000E-01	-7.45058000E-09	-5.00000000E-03
					 5.00000000E-01	-7.45058000E-09	 5.00000000E-03
					 5.00000000E-01	 5.00000000E-01	-5.00000000E-03
					 5.00000000E-01	 5.00000000E-01	 5.00000000E-03
					-7.45058000E-09	 5.00000000E-01	-5.00000000E-03
					-7.45058000E-09	 5.00000000E-01	 5.00000000E-03
					 5.00000000E-01	 1.00000000E+00	-5.00000000E-03
					 5.00000000E-01	 1.00000000E+00	 5.00000000E-03
					-7.45058000E-09	 1.00000000E+00	-5.00000000E-03
					-7.45058000E-09	 1.00000000E+00	 5.00000000E-03
					 1.00000000E+00	-7.45058000E-09	-5.00000000E-03
					 1.00000000E+00	-7.45058000E-09	 5.00000000E-03
					 1.00000000E+00	 5.00000000E-01	-5.00000000E-03
					 1.00000000E+00	 5.00000000E-01	 5.00000000E-03
					 1.00000000E+00	 1.00000000E+00	-5.00000000E-03
					 1.00000000E+00	 1.00000000E+00	 5.00000000E-03
				</DataArray>
			</Points>
			<Cells>
				<DataArray type="Int32" Name="connectivity" format="ascii">
					0 2 4 6 1 3 5 7 6 4 8 10 7 5 9 11 2 12 14 4 3 13 15 5 4 14 16 8 5 15 17 9 
				</DataArray>
				<DataArray type="Int32" Name="offsets" format="ascii">
					8 16 24 32 
				</DataArray>
				<DataArray type="UInt8" Name="types" format="ascii">
					12 12 12 12 
				</DataArray>
			</Cells>
			<PointData>
				<DataArray type="Float32" Name="NORM" NumberOfComponents="3" ComponentName0="x" ComponentName1="y" ComponentName2="z" format="ascii">
					 0.00000000E+00	-1.00000000E+00	 0.00000000E+00
					 0.00000000E+00	-7.07107000E-01	 7.07107000E-01
					 0.00000000E+00	-1.00000000E+00	 0.00000000E+00
					 0.00000000E+00	-7.07107000E-01	 7.07107000E-01
					 0.00000000E+00	 0.00000000E+00	-1.00000000E+00
					 0.00000000E+00	 0.00000000E+00	 1.00000000E+00
					 0.00000000E+00	 0.00000000E+00	 0.00000000E+00
					 0.00000000E+00	 0.00000000E+00	 1.00000000E+00
					 0.00000000E+00	 1.00000000E+00	 0.00000000E+00
					 0.00000000E+00	 7.07107000E-01	 7.07107000E-01
					 0.00000000E+00	 1.00000000E+00	 0.00000000E+00
					 0.00000000E+00	 7.07107000E-01	 7.07107000E-01
					 7.07107000E-01	-7.07107000E-01	 0.00000000E+00
					 5.77350000E-01	-5.77350000E-01	 5.77350000E-01
					 1.00000000E+00	 0.00000000E+00	 0.00000000E+00
					 7.07107000E-01	 0.00000000E+00	 7.07107000E-01
					 7.07107000E-01	 7.07107000E-01	 0.00000000E+00
					 5.77350000E-01	 5.77350000E-01	 5.77350000E-01
				</DataArray>
				<DataArray type="Float32" Name="SENENER" NumberOfComponents="2" ComponentName0="DFDN" ComponentName1="DFDNFIL" format="ascii">
					 0.00000000E+00	 0.00000000E+00
					 0.00000000E+00	 0.00000000E+00
					-9.33710000E-04	-1.00000000E+00
					 0.00000000E+00	 0.00000000E+00
					 0.00000000E+00	 0.00000000E+00
					 0.00000000E+00	 0.00000000E+00
					 0.00000000E+00	 0.00000000E+00
					 0.00000000E+00	 0.00000000E+00
					 0.00000000E+00	 0.00000000E+00
					 0.00000000E+00	 0.00000000E+00
					 0.00000000E+00	 0.00000000E+00
					 0.00000000E+00	 0.00000000E+00
					 0.00000000E+00	 0.00000000E+00
					 0.00000000E+00	 0.00000000E+00
					 0.00000000E+00	 0.00000000E+00
					 0.00000000E+00	 0.00000000E+00
					 0.00000000E+00	 0.00000000E+00
					 0.00000000E+00	 0.00000000E+00
				</DataArray>
			</PointData>
		</Piece>
	</UnstructuredGrid>
</VTKFile>