<?xml version="1.0"?>
<VTKFile type="UnstructuredGrid" version="0.1" byte_order="LittleEndian">
	<UnstructuredGrid>
		<Piece NumberOfPoints="18" NumberOfCells="4">
			<Points>
				<DataArray type="Float64" NumberOfComponents="3" format="ascii">
					-7.45058000E-09	-7.45058000E-09	-5.00000000E-03
					-7.45058000E-09	-7.45058000E-09	 5.00000000E-03
					 5.00000000E-01	-7.45058000E-09	-5.00000000E-03
					 5.00000000E-01	-7.45058000E-09	 5.00000000E-03
					 5.00000000E-01	 5.00000000E-01	-5.00000000E-03
					 5.00000000E-01	 5.00000000E-01	 5.00000000E-03
					-7.45058000E-09	 5.00000000E-01	-5.00000000E-03
					-7.45058000E-09	 5.00000000E-01	 5.00000000E-03
					 5.00000000E-01	 1.00000000E+00	-5.00000000E-03
					 5.00000000E-01	 1.00000000E+00	 5.00000000E-03
					-7.45058000E-09	 1.00000000E+00	-5.00000000E-03
					-7.45058000E-09	 1.00000000E+00	 5.00000000E-03
					 1.00000000E+00	-7.45058000E-09	-5.00000000E-03
					 1.00000000E+00	-7.45058000E-09	 5.00000000E-03
					 1.00000000E+00	 5.00000000E-01	-5.00000000E-03
					 1.00000000E+00	 5.00000000E-01	 5.00000000E-03
					 1.00000000E+00	 1.00000000E+00	-5.00000000E-03
					 1.00000000E+00	 1.00000000E+00	 5.00000000E-03
				</DataArray>
			</Points>
			<Cells>
				<DataArray type="Int32" Name="connectivity" format="ascii">
					0 2 4 6 1 3 5 7 6 4 8 10 7 5 9 11 2 12 14 4 3 13 15 5 4 14 16 8 5 15 17 9 
				</DataArray>
				<DataArray type="Int32" Name="offsets" format="ascii">
					8 16 24 32 
				</DataArray>
				<DataArray type="UInt8" Name="types" format="ascii">
					12 12 12 12 
				</DataArray>
			</Cells>
			<PointData>
				<DataArray type="Float32" Name="U" NumberOfComponents="3" ComponentName0="D1" ComponentName1="D2" ComponentName2="D3" format="ascii">
					 0.00000000E+00	 7.14286000E-05	 7.14286000E-07
					 0.00000000E+00	 7.14286000E-05	-7.14286000E-07
					 2.38095000E-04	 7.14286000E-05	 7.14286000E-07
					 2.38095000E-04	 7.14286000E-05	-7.14286000E-07
					 2.38095000E-04	 1.49068000E-18	 7.14286000E-07
					 2.38095000E-04	 1.49068000E-18	-7.14286000E-07
					 0.00000000E+00	 0.00000000E+00	 7.14286000E-07
					 0.00000000E+00	 0.00000000E+00	-7.14286000E-07
					 2.38095000E-04	-7.14286000E-05	 7.14286000E-07
					 2.38095000E-04	-7.14286000E-05	-7.14286000E-07
					 0.00000000E+00	-7.14286000E-05	 7.14286000E-07
					 0.00000000E+00	-7.14286000E-05	-7.14286000E-07
					 4.76190000E-04	 7.14286000E-05	 7.14286000E-07
					 4.76190000E-04	 7.14286000E-05	-7.14286000E-07
					 4.76190000E-04	 3.85061000E-17	 7.14286000E-07
					 4.76190000E-04	 3.85061000E-17	-7.14286000E-07
					 4.76190000E-04	-7.14286000E-05	 7.14286000E-07
					 4.76190000E-04	-7.14286000E-05	-7.14286000E-07
				</DataArray>
				<DataArray type="Float32" Name="S" NumberOfComponents="10" ComponentName0="xx" ComponentName1="yy" ComponentName2="zz" ComponentName3="xy" ComponentName4="yz" ComponentName5="zx" ComponentName6="Mises" ComponentName7="Min Principal" ComponentName8="Mid Principal" ComponentName9="Max Principal" format="ascii">
					 9.99960000E+01	 5.05673000E-12	 2.98880000E-13	 5.53960000E-13	-9.52714000E-14	-1.46434000E-13	 9.99960000E+01	 2.96973046E-13	 5.05863695E-12	 9.99960000E+01
					 9.99960000E+01	 5.10387000E-12	 3.16899000E-13	 5.54116000E-13	-1.20554000E-13	-1.15352000E-13	 9.99960000E+01	 3.13864918E-13	 5.10690408E-12	 9.99960000E+01
					 9.99960000E+01	 5.05773000E-12	 7.61586000E-13	-1.07008000E-12	-5.72467000E-14	 3.51415000E-13	 9.99960000E+01	 7.60823315E-13	 5.05849268E-12	 9.99960000E+01
					 9.99960000E+01	 5.06202000E-12	 7.72848000E-13	-1.07290000E-12	 1.91476000E-13	 8.07936000E-14	 9.99960000E+01	 7.64317150E-13	 5.07055085E-12	 9.99960000E+01
					 9.99960000E+01	 1.36758000E-12	-6.43176000E-15	-9.40980000E-13	 2.14708000E-14	-2.08121000E-13	 9.99960000E+01	-6.76718853E-15	 1.36791543E-12	 9.99960000E+01
					 9.99960000E+01	 1.35426000E-12	-1.63758000E-14	-9.35757000E-13	-7.26471000E-15	-5.00730000E-14	 9.99960000E+01	-1.64143037E-14	 1.35429850E-12	 9.99960000E+01
					 9.99960000E+01	-6.33553000E-13	-1.18794000E-12	 2.39378000E-13	 5.31222000E-14	 6.68681000E-14	 9.99960000E+01	-1.19298435E-12	-6.28508649E-13	 9.99960000E+01
					 9.99960000E+01	-6.05260000E-13	-1.17564000E-12	 2.40996000E-13	 1.36733000E-13	-8.50914000E-14	 9.99960000E+01	-1.20672401E-12	-5.74175990E-13	 9.99960000E+01
					 9.99960000E+01	 2.14460000E-12	-7.02920000E-13	 1.30776000E-13	-1.42328000E-13	-2.39887000E-13	 9.99960000E+01	-7.10016316E-13	 2.15169632E-12	 9.99960000E+01
					 9.99960000E+01	 2.13109000E-12	-7.19511000E-13	 1.27967000E-13	 4.75095000E-14	-4.73014000E-14	 9.99960000E+01	-7.20302597E-13	 2.13188160E-12	 9.99960000E+01
					 9.99960000E+01	-3.88509000E-12	 6.74478000E-14	 2.54402000E-12	 1.00223000E-14	 2.42621000E-13	 9.99960000E+01	-3.88511541E-12	 6.74732130E-14	 9.99960000E+01
					 9.99960000E+01	-3.86212000E-12	 7.97547000E-14	 2.54611000E-12	-5.67842000E-14	 1.63335000E-13	 9.99960000E+01	-3.86293783E-12	 8.05725283E-14	 9.99960000E+01
					 9.99960000E+01	 2.76784000E-12	-1.71870000E-13	-7.47987000E-12	-7.37881000E-14	 8.90176000E-14	 9.99960000E+01	-1.73720950E-13	 2.76969095E-12	 9.99960000E+01
					 9.99960000E+01	 2.75839000E-12	-1.67365000E-13	-7.45086000E-12	-4.95224000E-14	 8.44661000E-13	 9.99960000E+01	-1.68202994E-13	 2.75922799E-12	 9.99960000E+01
					 9.99960000E+01	-3.12954000E-12	 1.20743000E-12	-3.17262000E-12	-4.75239000E-14	 2.95978000E-13	 9.99960000E+01	-3.13006070E-12	 1.20795070E-12	 9.99960000E+01
					 9.99960000E+01	-3.16707000E-12	 1.20046000E-12	-3.16862000E-12	 4.04483000E-14	-2.38894000E-13	 9.99960000E+01	-3.16744457E-12	 1.20083457E-12	 9.99960000E+01
					 9.99960000E+01	-2.68833000E-12	-3.03036000E-13	 3.40177000E-13	-4.09148000E-15	 2.73211000E-13	 9.99960000E+01	-2.68833702E-12	-3.03028982E-13	 9.99960000E+01
					 9.99960000E+01	-2.69569000E-12	-3.35010000E-13	 3.64765000E-13	-1.25366000E-13	 6.79975000E-13	 9.99960000E+01	-2.70232900E-12	-3.28370999E-13	 9.99960000E+01
				</DataArray>
				<DataArray type="Float32" Name="ERROR" NumberOfComponents="1" ComponentName0="STR" format="ascii">
					 5.95803000E-12
					 5.95803000E-12
					 1.25266000E-11
					 1.25266000E-11
					 1.25266000E-11
					 1.25266000E-11
					 5.95803000E-12
					 5.95803000E-12
					 5.55802000E-12
					 5.55802000E-12
					 5.55802000E-12
					 5.55802000E-12
					 1.25266000E-11
					 1.25266000E-11
					 1.25266000E-11
					 1.25266000E-11
					 1.34740000E-12
					 1.34740000E-12
				</DataArray>
			</PointData>
		</Piece>
	</UnstructuredGrid>
</VTKFile>