<?xml version="1.0"?>
<VTKFile type="UnstructuredGrid" version="0.1" byte_order="LittleEndian">
	<UnstructuredGrid>
		<Piece NumberOfPoints="51" NumberOfCells="4">
			<Points>
				<DataArray type="Float64" NumberOfComponents="3" format="ascii">
					-7.45058000E-09	-7.45058000E-09	-5.00000000E-01
					-7.45058000E-09	-7.45058000E-09	 0.00000000E+00
					-7.45058000E-09	-7.45058000E-09	 5.00000000E-01
					 5.00000000E-01	-7.45058000E-09	-5.00000000E-01
					 5.00000000E-01	-7.45058000E-09	 0.00000000E+00
					 5.00000000E-01	-7.45058000E-09	 5.00000000E-01
					 5.00000000E-01	 5.00000000E-01	-5.00000000E-01
					 5.00000000E-01	 5.00000000E-01	 0.00000000E+00
					 5.00000000E-01	 5.00000000E-01	 5.00000000E-01
					-7.45058000E-09	 5.00000000E-01	-5.00000000E-01
					-7.45058000E-09	 5.00000000E-01	 0.00000000E+00
					-7.45058000E-09	 5.00000000E-01	 5.00000000E-01
					 2.50000000E-01	-7.45058000E-09	-5.00000000E-01
					 2.50000000E-01	-7.45058000E-09	 5.00000000E-01
					 5.00000000E-01	 2.50000000E-01	-5.00000000E-01
					 5.00000000E-01	 2.50000000E-01	 5.00000000E-01
					 2.50000000E-01	 5.00000000E-01	-5.00000000E-01
					 2.50000000E-01	 5.00000000E-01	 5.00000000E-01
					-7.45058000E-09	 2.50000000E-01	-5.00000000E-01
					-7.45058000E-09	 2.50000000E-01	 5.00000000E-01
					 5.00000000E-01	 1.00000000E+00	-5.00000000E-01
					 5.00000000E-01	 1.00000000E+00	 0.00000000E+00
					 5.00000000E-01	 1.00000000E+00	 5.00000000E-01
					-7.45058000E-09	 1.00000000E+00	-5.00000000E-01
					-7.45058000E-09	 1.00000000E+00	 0.00000000E+00
					-7.45058000E-09	 1.00000000E+00	 5.00000000E-01
					 5.00000000E-01	 7.50000000E-01	-5.00000000E-01
					 5.00000000E-01	 7.50000000E-01	 5.00000000E-01
					 2.50000000E-01	 1.00000000E+00	-5.00000000E-01
					 2.50000000E-01	 1.00000000E+00	 5.00000000E-01
					-7.45058000E-09	 7.50000000E-01	-5.00000000E-01
					-7.45058000E-09	 7.50000000E-01	 5.00000000E-01
					 1.00000000E+00	-7.45058000E-09	-5.00000000E-01
					 1.00000000E+00	-7.45058000E-09	 0.00000000E+00
					 1.00000000E+00	-7.45058000E-09	 5.00000000E-01
					 1.00000000E+00	 5.00000000E-01	-5.00000000E-01
					 1.00000000E+00	 5.00000000E-01	 0.00000000E+00
					 1.00000000E+00	 5.00000000E-01	 5.00000000E-01
					 7.50000000E-01	-7.45058000E-09	-5.00000000E-01
					 7.50000000E-01	-7.45058000E-09	 5.00000000E-01
					 1.00000000E+00	 2.50000000E-01	-5.00000000E-01
					 1.00000000E+00	 2.50000000E-01	 5.00000000E-01
					 7.50000000E-01	 5.00000000E-01	-5.00000000E-01
					 7.50000000E-01	 5.00000000E-01	 5.00000000E-01
					 1.00000000E+00	 1.00000000E+00	-5.00000000E-01
					 1.00000000E+00	 1.00000000E+00	 0.00000000E+00
					 1.00000000E+00	 1.00000000E+00	 5.00000000E-01
					 1.00000000E+00	 7.50000000E-01	-5.00000000E-01
					 1.00000000E+00	 7.50000000E-01	 5.00000000E-01
					 7.50000000E-01	 1.00000000E+00	-5.00000000E-01
					 7.50000000E-01	 1.00000000E+00	 5.00000000E-01
				</DataArray>
			</Points>
			<Cells>
				<DataArray type="Int32" Name="connectivity" format="ascii">
					0 3 6 9 2 5 8 11 12 14 16 18 13 15 17 19 1 4 7 10 9 6 20 23 11 8 22 25 16 26 28 30 17 27 29 31 10 7 21 24 3 32 35 6 5 34 37 8 38 40 42 14 39 41 43 15 4 33 36 7 6 35 44 20 8 37 46 22 42 47 49 26 43 48 50 27 7 36 45 21 
				</DataArray>
				<DataArray type="Int32" Name="offsets" format="ascii">
					20 40 60 80 
				</DataArray>
				<DataArray type="UInt8" Name="types" format="ascii">
					25 25 25 25 
				</DataArray>
			</Cells>
			<PointData>
				<DataArray type="Float32" Name="U" NumberOfComponents="3" ComponentName0="D1" ComponentName1="D2" ComponentName2="D3" format="ascii">
					 0.00000000E+00	 7.14286000E-05	 7.14286000E-05
					 0.00000000E+00	 7.14286000E-05	 0.00000000E+00
					 0.00000000E+00	 7.14286000E-05	-7.14286000E-05
					 2.38095000E-04	 7.14286000E-05	 7.14286000E-05
					 2.38095000E-04	 7.14286000E-05	 0.00000000E+00
					 2.38095000E-04	 7.14286000E-05	-7.14286000E-05
					 2.38095000E-04	 8.17387000E-20	 7.14286000E-05
					 2.38095000E-04	 8.17387000E-20	 0.00000000E+00
					 2.38095000E-04	 8.17387000E-20	-7.14286000E-05
					 0.00000000E+00	 0.00000000E+00	 7.14286000E-05
					 0.00000000E+00	 0.00000000E+00	 0.00000000E+00
					 0.00000000E+00	 0.00000000E+00	-7.14286000E-05
					 1.19048000E-04	 7.14286000E-05	 7.14286000E-05
					 1.19048000E-04	 7.14286000E-05	-7.14286000E-05
					 2.38095000E-04	 3.57143000E-05	 7.14286000E-05
					 2.38095000E-04	 3.57143000E-05	-7.14286000E-05
					 1.19048000E-04	 3.70654000E-20	 7.14286000E-05
					 1.19048000E-04	 3.70654000E-20	-7.14286000E-05
					 0.00000000E+00	 3.57143000E-05	 7.14286000E-05
					 0.00000000E+00	 3.57143000E-05	-7.14286000E-05
					 2.38095000E-04	-7.14286000E-05	 7.14286000E-05
					 2.38095000E-04	-7.14286000E-05	 0.00000000E+00
					 2.38095000E-04	-7.14286000E-05	-7.14286000E-05
					 0.00000000E+00	-7.14286000E-05	 7.14286000E-05
					 0.00000000E+00	-7.14286000E-05	 0.00000000E+00
					 0.00000000E+00	-7.14286000E-05	-7.14286000E-05
					 2.38095000E-04	-3.57143000E-05	 7.14286000E-05
					 2.38095000E-04	-3.57143000E-05	-7.14286000E-05
					 1.19048000E-04	-7.14286000E-05	 7.14286000E-05
					 1.19048000E-04	-7.14286000E-05	-7.14286000E-05
					 0.00000000E+00	-3.57143000E-05	 7.14286000E-05
					 0.00000000E+00	-3.57143000E-05	-7.14286000E-05
					 4.76190000E-04	 7.14286000E-05	 7.14286000E-05
					 4.76190000E-04	 7.14286000E-05	 0.00000000E+00
					 4.76190000E-04	 7.14286000E-05	-7.14286000E-05
					 4.76190000E-04	 5.45489000E-19	 7.14286000E-05
					 4.76190000E-04	 5.45489000E-19	 0.00000000E+00
					 4.76190000E-04	 5.45489000E-19	-7.14286000E-05
					 3.57143000E-04	 7.14286000E-05	 7.14286000E-05
					 3.57143000E-04	 7.14286000E-05	-7.14286000E-05
					 4.76190000E-04	 3.57143000E-05	 7.14286000E-05
					 4.76190000E-04	 3.57143000E-05	-7.14286000E-05
					 3.57143000E-04	 2.38458000E-19	 7.14286000E-05
					 3.57143000E-04	 2.38458000E-19	-7.14286000E-05
					 4.76190000E-04	-7.14286000E-05	 7.14286000E-05
					 4.76190000E-04	-7.14286000E-05	 0.00000000E+00
					 4.76190000E-04	-7.14286000E-05	-7.14286000E-05
					 4.76190000E-04	-3.57143000E-05	 7.14286000E-05
					 4.76190000E-04	-3.57143000E-05	-7.14286000E-05
					 3.57143000E-04	-7.14286000E-05	 7.14286000E-05
					 3.57143000E-04	-7.14286000E-05	-7.14286000E-05
				</DataArray>
				<DataArray type="Float32" Name="S" NumberOfComponents="10" ComponentName0="xx" ComponentName1="yy" ComponentName2="zz" ComponentName3="xy" ComponentName4="yz" ComponentName5="zx" ComponentName6="Mises" ComponentName7="Min Principal" ComponentName8="Mid Principal" ComponentName9="Max Principal" format="ascii">
					 9.99960000E+01	 1.38466000E-13	 2.51607000E-13	-2.33960000E-14	 3.99196000E-14	 5.88453000E-14	 9.99960000E+01	 1.25799256E-13	 2.64273744E-13	 9.99960000E+01
					 1.00005000E+02	 6.38377000E-14	 1.03615000E-13	-3.03521000E-14	-1.28121000E-14	-2.04397000E-15	 1.00005000E+02	 6.00681948E-14	 1.07384505E-13	 1.00005000E+02
					 9.99960000E+01	 5.35503000E-14	 3.16463000E-14	-1.62991000E-14	-4.77289000E-14	-2.93911000E-14	 9.99960000E+01	-6.37101896E-15	 9.15676190E-14	 9.99960000E+01
					 9.99960000E+01	-4.26050000E-14	-1.28993000E-13	-8.15127000E-14	 9.79283000E-17	 2.40450000E-14	 9.99960000E+01	-1.28993111E-13	-4.26048890E-14	 9.99960000E+01
					 1.00005000E+02	-2.82729000E-14	-1.83991000E-14	-9.55721000E-14	 4.07323000E-15	 5.32398000E-16	 1.00005000E+02	-2.97363269E-14	-1.69356731E-14	 1.00005000E+02
					 9.99960000E+01	-4.53503000E-14	 7.64128000E-15	-2.87698000E-14	-2.02911000E-14	 2.69283000E-14	 9.99960000E+01	-5.22274875E-14	 1.45184675E-14	 9.99960000E+01
					 9.99960000E+01	 1.02964000E-13	 9.74005000E-15	 1.99809000E-14	-4.48605000E-14	-1.73143000E-14	 9.99960000E+01	-8.34063821E-15	 1.21044688E-13	 9.99960000E+01
					 1.00005000E+02	 1.05694000E-13	-4.33212000E-14	 5.08745000E-14	-1.99522000E-15	-7.82964000E-15	 1.00005000E+02	-4.33479100E-14	 1.05720710E-13	 1.00005000E+02
					 9.99960000E+01	 3.94885000E-14	-1.47227000E-13	 2.80213000E-14	 1.22086000E-14	-2.72283000E-14	 9.99960000E+01	-1.48021889E-13	 4.02833888E-14	 9.99960000E+01
					 9.99960000E+01	-7.31128000E-14	 2.31068000E-14	 1.82902000E-14	-2.14656000E-14	 4.44793000E-14	 9.99960000E+01	-7.76843519E-14	 2.76783519E-14	 9.99960000E+01
					 1.00005000E+02	-7.28193000E-14	 8.24656000E-15	 8.22238000E-16	 6.75864000E-15	 2.92264000E-15	 1.00005000E+02	-7.33789196E-14	 8.80617956E-15	 1.00005000E+02
					 9.99960000E+01	-4.36263000E-14	 3.89272000E-14	 2.04803000E-14	 3.74378000E-14	-6.73061000E-14	 9.99960000E+01	-5.80752977E-14	 5.33761977E-14	 9.99960000E+01
					 1.00005000E+02	 5.33790000E-14	 7.58696000E-14	-8.73129000E-15	-5.89220000E-15	 6.68133000E-14	 1.00005000E+02	 5.19288365E-14	 7.73197635E-14	 1.00005000E+02
					 1.00005000E+02	 2.96695000E-14	 2.48353000E-14	-2.43855000E-14	-1.47024000E-14	-1.43723000E-14	 1.00005000E+02	 1.23526370E-14	 4.21521630E-14	 1.00005000E+02
					 1.00005000E+02	-6.82796000E-15	-5.40108000E-14	-2.73855000E-14	-2.45806000E-14	-1.27164000E-15	 1.00005000E+02	-6.44893227E-14	 3.65056268E-15	 1.00005000E+02
					 1.00005000E+02	 4.23492000E-14	 3.95115000E-15	-2.60110000E-14	-2.12963000E-14	-1.38797000E-14	 1.00005000E+02	-5.52272082E-15	 5.18230708E-14	 1.00005000E+02
					 1.00005000E+02	 6.11974000E-14	 5.45570000E-14	 1.36394000E-14	-1.79516000E-14	-1.47740000E-16	 1.00005000E+02	 3.96211415E-14	 7.61332585E-14	 1.00005000E+02
					 1.00005000E+02	 2.61310000E-14	-4.49806000E-15	 8.97358000E-15	 4.22388000E-15	-3.63898000E-14	 1.00005000E+02	-5.06987607E-15	 2.67028161E-14	 1.00005000E+02
					 1.00005000E+02	-1.99655000E-14	 6.50705000E-14	-1.65417000E-14	 2.25560000E-14	 5.33727000E-14	 1.00005000E+02	-2.55780876E-14	 7.06830876E-14	 1.00005000E+02
					 1.00005000E+02	-5.52986000E-14	-3.31151000E-14	-8.17942000E-15	 1.48435000E-14	-3.23543000E-14	 1.00005000E+02	-6.27367289E-14	-2.56769711E-14	 1.00005000E+02
					 9.99960000E+01	-9.74560000E-14	-4.79343000E-14	 1.66121000E-13	 3.44229000E-14	 3.08285000E-15	 9.99960000E+01	-1.15098401E-13	-3.02918985E-14	 9.99960000E+01
					 1.00005000E+02	-6.86807000E-14	 1.40356000E-14	 1.93407000E-13	 6.92205000E-15	-1.08044000E-14	 1.00005000E+02	-6.92559656E-14	 1.46108656E-14	 1.00005000E+02
					 9.99960000E+01	-5.39892000E-14	 3.78785000E-14	 1.76775000E-13	 1.32997000E-14	 4.48635000E-15	 9.99960000E+01	-5.58758539E-14	 3.97651539E-14	 9.99960000E+01
					 9.99960000E+01	 7.22930000E-14	 1.12134000E-13	 4.24351000E-14	 1.16089000E-14	 7.87746000E-14	 9.99960000E+01	 6.91572020E-14	 1.15269798E-13	 9.99960000E+01
					 1.00005000E+02	 1.86844000E-14	 2.32698000E-14	 3.00830000E-14	-1.18980000E-15	 5.99567000E-15	 1.00005000E+02	 1.83940597E-14	 2.35601403E-14	 1.00005000E+02
					 9.99960000E+01	-2.77130000E-14	-8.32951000E-14	 3.37436000E-14	-3.12775000E-14	-4.23915000E-14	 9.99960000E+01	-9.73445145E-14	-1.36635855E-14	 9.99960000E+01
					 1.00005000E+02	-9.77980000E-15	-2.98039000E-14	 2.13445000E-14	-1.05439000E-14	 2.92121000E-15	 1.00005000E+02	-3.43319660E-14	-5.25173403E-15	 1.00005000E+02
					 1.00005000E+02	 1.95472000E-14	-6.74424000E-14	 4.30689000E-14	 2.67011000E-14	-5.70970000E-15	 1.00005000E+02	-7.49843159E-14	 2.70891159E-14	 1.00005000E+02
					 1.00005000E+02	 2.02867000E-14	 4.04999000E-14	-2.08536000E-15	 2.19925000E-14	 2.86911000E-14	 1.00005000E+02	 6.18971721E-15	 5.45968828E-14	 1.00005000E+02
					 1.00005000E+02	-1.42945000E-14	-5.02602000E-14	 8.79811000E-15	-1.51748000E-15	-1.28913000E-14	 1.00005000E+02	-5.03241126E-14	-1.42305874E-14	 1.00005000E+02
					 1.00005000E+02	-1.55161000E-14	 5.89999000E-14	 3.67240000E-14	-2.94678000E-14	 3.70713000E-14	 1.00005000E+02	-2.57608347E-14	 6.92446347E-14	 1.00005000E+02
					 1.00005000E+02	-7.22775000E-14	-1.66906000E-14	 4.31051000E-14	-2.31501000E-15	-4.89392000E-14	 1.00005000E+02	-7.23737458E-14	-1.65943542E-14	 1.00005000E+02
					 9.99960000E+01	 9.31912000E-14	 5.42613000E-15	-5.32639000E-14	-8.19788000E-14	-1.75471000E-13	 9.99960000E+01	-4.36762829E-14	 1.42293613E-13	 9.99960000E+01
					 1.00005000E+02	 3.26231000E-14	-7.02548000E-14	-7.66896000E-14	-1.39263000E-14	-3.56468000E-14	 1.00005000E+02	-7.21066316E-14	 3.44749316E-14	 1.00005000E+02
					 9.99960000E+01	 1.48435000E-14	-3.19947000E-14	 2.73085000E-14	 4.38960000E-14	 8.28292000E-14	 9.99960000E+01	-5.83281181E-14	 4.11769181E-14	 9.99960000E+01
					 9.99960000E+01	-9.80828000E-14	-9.04670000E-14	-9.04229000E-14	-8.20160000E-15	-1.16601000E-14	 9.99960000E+01	-1.03317374E-13	-8.52324255E-14	 9.99960000E+01
					 1.00005000E+02	-2.73090000E-15	 4.20687000E-15	-4.52445000E-14	 3.97304000E-15	-1.41513000E-14	 1.00005000E+02	-4.53631211E-15	 6.01228211E-15	 1.00005000E+02
					 9.99960000E+01	-2.76372000E-14	-8.18655000E-15	-1.81153000E-13	 1.39948000E-14	 3.02961000E-14	 9.99960000E+01	-3.49540689E-14	-8.69681086E-16	 9.99960000E+01
					 1.00005000E+02	-3.22684000E-14	-1.33076000E-13	-2.75325000E-14	-6.21124000E-14	-6.94716000E-14	 1.00005000E+02	-1.62662782E-13	-2.68161750E-15	 1.00005000E+02
					 1.00005000E+02	 2.39101000E-14	 8.69392000E-15	-4.20750000E-14	 1.98625000E-14	 7.61483000E-14	 1.00005000E+02	-4.96773235E-15	 3.75717524E-14	 1.00005000E+02
					 1.00005000E+02	 9.87534000E-15	-2.04758000E-14	 2.47850000E-14	 1.91260000E-14	-1.47431000E-14	 1.00005000E+02	-2.97154261E-14	 1.91149661E-14	 1.00005000E+02
					 1.00005000E+02	-1.05127000E-13	-1.02426000E-13	 2.75152000E-15	-6.76105000E-15	 1.79465000E-14	 1.00005000E+02	-1.10671110E-13	-9.68818900E-14	 1.00005000E+02
					 1.00005000E+02	 2.90473000E-14	-8.23265000E-14	 2.67917000E-14	-5.91823000E-15	 1.81106000E-14	 1.00005000E+02	-8.26401025E-14	 2.93609025E-14	 1.00005000E+02
					 1.00005000E+02	 1.55790000E-14	-1.02857000E-13	-7.57596000E-15	-8.54703000E-15	 2.40472000E-14	 1.00005000E+02	-1.03470624E-13	 1.61926241E-14	 1.00005000E+02
					 9.99960000E+01	-1.26632000E-13	 1.52376000E-13	 1.90039000E-13	 6.21083000E-15	-6.69925000E-14	 9.99960000E+01	-1.26770187E-13	 1.52514187E-13	 9.99960000E+01
					 1.00005000E+02	-7.76402000E-14	 1.92047000E-13	 2.26579000E-13	-4.55967000E-15	 1.54502000E-14	 1.00005000E+02	-7.77172695E-14	 1.92124069E-13	 1.00005000E+02
					 9.99960000E+01	-6.20008000E-14	 1.31268000E-13	 1.46378000E-13	-3.41793000E-14	 6.86313000E-15	 9.99960000E+01	-6.78672869E-14	 1.37134487E-13	 9.99960000E+01
					 1.00005000E+02	-2.69506000E-13	-1.14385000E-13	 1.06995000E-14	-4.43885000E-14	-7.48109000E-14	 1.00005000E+02	-2.81309755E-13	-1.02581245E-13	 1.00005000E+02
					 1.00005000E+02	-2.13302000E-13	-4.29174000E-14	 5.36961000E-14	 2.53116000E-14	 4.09151000E-14	 1.00005000E+02	-2.16982672E-13	-3.92367284E-14	 1.00005000E+02
					 1.00005000E+02	 1.45984000E-13	 1.29171000E-13	 1.40919000E-13	 2.98474000E-14	-5.33385000E-14	 1.00005000E+02	 1.06568848E-13	 1.68586152E-13	 1.00005000E+02
					 1.00005000E+02	 9.83962000E-14	 5.29231000E-14	 1.24127000E-13	-3.62683000E-14	 2.88765000E-14	 1.00005000E+02	 3.28538059E-14	 1.18465494E-13	 1.00005000E+02
				</DataArray>
				<DataArray type="Float32" Name="ERROR" NumberOfComponents="1" ComponentName0="STR" format="ascii">
					 2.57532000E-14
					 2.57532000E-14
					 2.57532000E-14
					 3.52412000E-14
					 3.52412000E-14
					 3.52412000E-14
					 7.99704000E-14
					 7.99704000E-14
					 7.99704000E-14
					 3.65966000E-14
					 3.65966000E-14
					 3.65966000E-14
					 3.04972000E-14
					 3.04972000E-14
					 5.76058000E-14
					 5.76058000E-14
					 5.82835000E-14
					 5.82835000E-14
					 3.11749000E-14
					 3.11749000E-14
					 7.99704000E-14
					 7.99704000E-14
					 7.99704000E-14
					 3.65966000E-14
					 3.65966000E-14
					 3.65966000E-14
					 7.99704000E-14
					 7.99704000E-14
					 5.82835000E-14
					 5.82835000E-14
					 3.65966000E-14
					 3.65966000E-14
					 3.52412000E-14
					 3.52412000E-14
					 3.52412000E-14
					 7.99704000E-14
					 7.99704000E-14
					 7.99704000E-14
					 3.52412000E-14
					 3.52412000E-14
					 5.76058000E-14
					 5.76058000E-14
					 7.99704000E-14
					 7.99704000E-14
					 7.99704000E-14
					 7.99704000E-14
					 7.99704000E-14
					 7.99704000E-14
					 7.99704000E-14
					 7.99704000E-14
					 7.99704000E-14
				</DataArray>
			</PointData>
		</Piece>
	</UnstructuredGrid>
</VTKFile>