<?xml version="1.0"?>
<VTKFile type="UnstructuredGrid" version="0.1" byte_order="LittleEndian">
	<UnstructuredGrid>
		<Piece NumberOfPoints="20" NumberOfCells="1">
			<Points>
				<DataArray type="Float64" NumberOfComponents="3" format="ascii">
					 1.00000000E+00	 0.00000000E+00	-5.00000000E-03
					 1.00000000E+00	 0.00000000E+00	 0.00000000E+00
					 1.00000000E+00	 0.00000000E+00	 5.00000000E-03
					 0.00000000E+00	 0.00000000E+00	-5.00000000E-03
					 0.00000000E+00	 0.00000000E+00	 0.00000000E+00
					 0.00000000E+00	 0.00000000E+00	 5.00000000E-03
					 0.00000000E+00	 1.00000000E+00	-5.00000000E-03
					 0.00000000E+00	 1.00000000E+00	 0.00000000E+00
					 0.00000000E+00	 1.00000000E+00	 5.00000000E-03
					 1.00000000E+00	 1.00000000E+00	-5.00000000E-03
					 1.00000000E+00	 1.00000000E+00	 0.00000000E+00
					 1.00000000E+00	 1.00000000E+00	 5.00000000E-03
					 1.00000000E+00	 5.00000000E-01	-5.00000000E-03
					 1.00000000E+00	 5.00000000E-01	 5.00000000E-03
					 5.00000000E-01	 1.00000000E+00	-5.00000000E-03
					 5.00000000E-01	 1.00000000E+00	 5.00000000E-03
					 0.00000000E+00	 5.00000000E-01	-5.00000000E-03
					 0.00000000E+00	 5.00000000E-01	 5.00000000E-03
					 5.00000000E-01	 0.00000000E+00	-5.00000000E-03
					 5.00000000E-01	 0.00000000E+00	 5.00000000E-03
				</DataArray>
			</Points>
			<Cells>
				<DataArray type="Int32" Name="connectivity" format="ascii">
					0 9 6 3 2 11 8 5 12 14 16 18 13 15 17 19 1 10 7 4 
				</DataArray>
				<DataArray type="Int32" Name="offsets" format="ascii">
					20 
				</DataArray>
				<DataArray type="UInt8" Name="types" format="ascii">
					25 
				</DataArray>
			</Cells>
			<PointData>
				<DataArray type="Float32" Name="U" NumberOfComponents="3" ComponentName0="D1" ComponentName1="D2" ComponentName2="D3" format="ascii">
					 0.00000000E+00	 0.00000000E+00	 0.00000000E+00
					 0.00000000E+00	 0.00000000E+00	 0.00000000E+00
					 0.00000000E+00	 0.00000000E+00	 0.00000000E+00
					 1.85714000E-04	 0.00000000E+00	 0.00000000E+00
					 1.85714000E-04	 0.00000000E+00	 0.00000000E+00
					 1.85714000E-04	 0.00000000E+00	 0.00000000E+00
					 1.85714000E-04	 4.33333000E-04	 0.00000000E+00
					 1.85714000E-04	 4.33333000E-04	 0.00000000E+00
					 1.85714000E-04	 4.33333000E-04	 0.00000000E+00
					 2.89002000E-12	 4.33333000E-04	 0.00000000E+00
					 2.89002000E-12	 4.33333000E-04	 0.00000000E+00
					 2.89002000E-12	 4.33333000E-04	 0.00000000E+00
					-1.93019000E-13	 2.16667000E-04	 0.00000000E+00
					-1.93019000E-13	 2.16667000E-04	 0.00000000E+00
					 9.28571000E-05	 4.33333000E-04	 0.00000000E+00
					 9.28571000E-05	 4.33333000E-04	 0.00000000E+00
					 1.85714000E-04	 2.16667000E-04	 0.00000000E+00
					 1.85714000E-04	 2.16667000E-04	 0.00000000E+00
					 9.28571000E-05	 0.00000000E+00	 0.00000000E+00
					 9.28571000E-05	 0.00000000E+00	 0.00000000E+00
				</DataArray>
				<DataArray type="Float32" Name="S" NumberOfComponents="10" ComponentName0="xx" ComponentName1="yy" ComponentName2="zz" ComponentName3="xy" ComponentName4="yz" ComponentName5="zx" ComponentName6="Mises" ComponentName7="Min Principal" ComponentName8="Mid Principal" ComponentName9="Max Principal" format="ascii">
					-4.99245000E-07	 9.99960000E+01	 2.99988000E+01	-2.95785000E-07	 2.02192000E-12	 1.54314000E-12	 8.88783893E+01	-4.99245001E-07	 2.99988000E+01	 9.99960000E+01
					-4.99243000E-07	 1.00005000E+02	 3.00015000E+01	-2.95785000E-07	-6.77371000E-13	 1.87509000E-13	 8.88863886E+01	-4.99243001E-07	 3.00015000E+01	 1.00005000E+02
					-4.99245000E-07	 9.99960000E+01	 2.99988000E+01	-2.95785000E-07	-1.45256000E-12	-1.82189000E-12	 8.88783893E+01	-4.99245001E-07	 2.99988000E+01	 9.99960000E+01
					-4.99064000E-07	 9.99960000E+01	 2.99988000E+01	 2.95918000E-07	-1.56564000E-12	 1.11462000E-12	 8.88783893E+01	-4.99064001E-07	 2.99988000E+01	 9.99960000E+01
					-4.99063000E-07	 1.00005000E+02	 3.00015000E+01	 2.95918000E-07	 1.78940000E-13	-3.31574000E-13	 8.88863886E+01	-4.99063001E-07	 3.00015000E+01	 1.00005000E+02
					-4.99064000E-07	 9.99960000E+01	 2.99988000E+01	 2.95918000E-07	 1.05786000E-12	-1.32613000E-12	 8.88783893E+01	-4.99064001E-07	 2.99988000E+01	 9.99960000E+01
					 8.33944000E-07	 9.99960000E+01	 2.99988000E+01	 1.03703000E-06	-4.76752000E-12	 2.29402000E-13	 8.88783883E+01	 8.33943989E-07	 2.99988000E+01	 9.99960000E+01
					 8.33945000E-07	 1.00005000E+02	 3.00015000E+01	 1.03703000E-06	-8.65792000E-13	-3.04269000E-13	 8.88863877E+01	 8.33944989E-07	 3.00015000E+01	 1.00005000E+02
					 8.33944000E-07	 9.99960000E+01	 2.99988000E+01	 1.03703000E-06	 5.01030000E-12	-2.20187000E-14	 8.88783883E+01	 8.33943989E-07	 2.99988000E+01	 9.99960000E+01
					 8.34112000E-07	 9.99960000E+01	 2.99988000E+01	-1.03696000E-06	 1.64447000E-12	 1.63586000E-12	 8.88783883E+01	 8.34111989E-07	 2.99988000E+01	 9.99960000E+01
					 8.34113000E-07	 1.00005000E+02	 3.00015000E+01	-1.03696000E-06	-1.54699000E-12	 1.56434000E-13	 8.88863877E+01	 8.34112989E-07	 3.00015000E+01	 1.00005000E+02
					 8.34112000E-07	 9.99960000E+01	 2.99988000E+01	-1.03696000E-06	-7.56369000E-12	-1.61248000E-12	 8.88783883E+01	 8.34111989E-07	 2.99988000E+01	 9.99960000E+01
					-7.58611000E-07	 1.00005000E+02	 3.00015000E+01	-6.66387000E-07	-2.23553000E-12	 9.42279000E-14	 8.88863888E+01	-7.58611004E-07	 3.00015000E+01	 1.00005000E+02
					-7.58611000E-07	 1.00005000E+02	 3.00015000E+01	-6.66387000E-07	 1.65260000E-12	-4.05194000E-13	 8.88863888E+01	-7.58611004E-07	 3.00015000E+01	 1.00005000E+02
					 1.50883000E-06	 1.00005000E+02	 3.00015000E+01	 3.34886000E-11	-7.14581000E-13	 9.91057000E-13	 8.88863872E+01	 1.50883000E-06	 3.00015000E+01	 1.00005000E+02
					 1.50883000E-06	 1.00005000E+02	 3.00015000E+01	 3.34781000E-11	 1.26282000E-12	-1.38299000E-12	 8.88863872E+01	 1.50883000E-06	 3.00015000E+01	 1.00005000E+02
					-7.58605000E-07	 1.00005000E+02	 3.00015000E+01	 6.66458000E-07	-8.11963000E-13	 1.02305000E-12	 8.88863888E+01	-7.58605004E-07	 3.00015000E+01	 1.00005000E+02
					-7.58605000E-07	 1.00005000E+02	 3.00015000E+01	 6.66458000E-07	-1.93033000E-13	 1.73360000E-13	 8.88863888E+01	-7.58605004E-07	 3.00015000E+01	 1.00005000E+02
					 1.75652000E-07	 1.00005000E+02	 3.00015000E+01	 6.12519000E-11	 1.13468000E-12	 9.98660000E-13	 8.88863881E+01	 1.75652000E-07	 3.00015000E+01	 1.00005000E+02
					 1.75652000E-07	 1.00005000E+02	 3.00015000E+01	 6.12528000E-11	-8.57775000E-13	-1.14188000E-12	 8.88863881E+01	 1.75652000E-07	 3.00015000E+01	 1.00005000E+02
				</DataArray>
				<DataArray type="Float32" Name="E" NumberOfComponents="10" ComponentName0="xx" ComponentName1="yy" ComponentName2="zz" ComponentName3="xy" ComponentName4="yz" ComponentName5="zx" ComponentName6="Mises" ComponentName7="Min Principal" ComponentName8="Mid Principal" ComponentName9="Max Principal" format="ascii">
					-1.85707000E-04	 4.33316000E-04	 0.00000000E+00	-1.83105000E-12	 1.25167000E-17	 9.55277000E-18	 3.66799770E-04	-1.85707000E-04	 1.57772181E-30	 4.33316000E-04
					-1.85724000E-04	 4.33355000E-04	 0.00000000E+00	-1.83105000E-12	-4.19325000E-18	 1.16077000E-18	 3.66832922E-04	-1.85724000E-04	-7.39557099E-32	 4.33355000E-04
					-1.85707000E-04	 4.33316000E-04	 0.00000000E+00	-1.83105000E-12	-8.99202000E-18	-1.12783000E-17	 3.66799770E-04	-1.85707000E-04	-6.31088724E-30	 4.33316000E-04
					-1.85707000E-04	 4.33316000E-04	 0.00000000E+00	 1.83187000E-12	-9.69204000E-18	 6.90002000E-18	 3.66799770E-04	-1.85707000E-04	 1.57772181E-30	 4.33316000E-04
					-1.85724000E-04	 4.33355000E-04	 0.00000000E+00	 1.83187000E-12	 1.10772000E-18	-2.05260000E-18	 3.66832922E-04	-1.85724000E-04	-2.81706217E-71	 4.33355000E-04
					-1.85707000E-04	 4.33316000E-04	 0.00000000E+00	 1.83187000E-12	 6.54864000E-18	-8.20935000E-18	 3.66799770E-04	-1.85707000E-04	 3.15544362E-30	 4.33316000E-04
					-1.85707000E-04	 4.33316000E-04	 0.00000000E+00	 6.41973000E-12	-2.95132000E-17	 1.42011000E-18	 3.66799770E-04	-1.85707000E-04	-1.99988565E-30	 4.33316000E-04
					-1.85724000E-04	 4.33355000E-04	 0.00000000E+00	 6.41973000E-12	-5.35967000E-18	-1.88357000E-18	 3.66832922E-04	-1.85724000E-04	-3.08148791E-32	 4.33355000E-04
					-1.85707000E-04	 4.33316000E-04	 0.00000000E+00	 6.41973000E-12	 3.10161000E-17	-1.36306000E-19	 3.66799770E-04	-1.85707000E-04	-2.21994722E-30	 4.33316000E-04
					-1.85707000E-04	 4.33316000E-04	 0.00000000E+00	-6.41925000E-12	 1.01801000E-17	 1.01268000E-17	 3.66799770E-04	-1.85707000E-04	 1.97215226E-31	 4.33316000E-04
					-1.85724000E-04	 4.33355000E-04	 0.00000000E+00	-6.41925000E-12	-9.57660000E-18	 9.68402000E-19	 3.66832922E-04	-1.85724000E-04	-2.06459690E-31	 4.33355000E-04
					-1.85707000E-04	 4.33316000E-04	 0.00000000E+00	-6.41925000E-12	-4.68229000E-17	-9.98199000E-18	 3.66799770E-04	-1.85707000E-04	-4.73316543E-30	 4.33316000E-04
					-1.85724000E-04	 4.33355000E-04	 0.00000000E+00	-4.12525000E-12	-1.38390000E-17	 5.83316000E-19	 3.66832922E-04	-1.85724000E-04	-4.40652771E-31	 4.33355000E-04
					-1.85724000E-04	 4.33355000E-04	 0.00000000E+00	-4.12525000E-12	 1.02304000E-17	-2.50834000E-18	 3.66832922E-04	-1.85724000E-04	-1.23259516E-31	 4.33355000E-04
					-1.85724000E-04	 4.33355000E-04	 0.00000000E+00	 2.07310000E-16	-4.42359000E-18	 6.13512000E-18	 3.66832922E-04	-1.85724000E-04	 0.00000000E+00	 4.33355000E-04
					-1.85724000E-04	 4.33355000E-04	 0.00000000E+00	 2.07246000E-16	 7.81747000E-18	-8.56138000E-18	 3.66832922E-04	-1.85724000E-04	-1.05879118E-22	 4.33355000E-04
					-1.85724000E-04	 4.33355000E-04	 0.00000000E+00	 4.12570000E-12	-5.02643000E-18	 6.33316000E-18	 3.66832922E-04	-1.85724000E-04	 1.97215226E-31	 4.33355000E-04
					-1.85724000E-04	 4.33355000E-04	 0.00000000E+00	 4.12570000E-12	-1.19497000E-18	 1.07318000E-18	 3.66832922E-04	-1.85724000E-04	 1.23259516E-32	 4.33355000E-04
					-1.85724000E-04	 4.33355000E-04	 0.00000000E+00	 3.79178000E-16	 7.02421000E-18	 6.18218000E-18	 3.66832922E-04	-1.85724000E-04	 1.32348898E-23	 4.33355000E-04
					-1.85724000E-04	 4.33355000E-04	 0.00000000E+00	 3.79184000E-16	-5.31004000E-18	-7.06876000E-18	 3.66832922E-04	-1.85724000E-04	-2.64697796E-23	 4.33355000E-04
				</DataArray>
				<DataArray type="Float32" Name="RF" NumberOfComponents="3" ComponentName0="F1" ComponentName1="F2" ComponentName2="F3" format="ascii">
					-2.25419000E-13	 8.33333000E-02	 2.50000000E+00
					-2.99547000E-13	-3.33333000E-01	 8.88178000E-16
					-2.37039000E-13	 8.33333000E-02	-2.50000000E+00
					-5.13930000E-14	 8.33333000E-02	 2.50000000E+00
					 4.40077000E-13	-3.33333000E-01	-1.77636000E-15
					-6.44949000E-14	 8.33333000E-02	-2.50000000E+00
					-9.23329000E-14	-8.33333000E-02	 2.50000000E+00
					 2.86255000E-13	 3.33333000E-01	 1.77636000E-15
					-1.07148000E-13	-8.33333000E-02	-2.50000000E+00
					-9.65249000E-14	-8.33333000E-02	 2.50000000E+00
					 3.34669000E-13	 3.33333000E-01	 1.77636000E-15
					-1.13112000E-13	-8.33333000E-02	-2.50000000E+00
					 1.96220000E-14	 8.65581000E-14	-1.00000000E+01
					 4.33775000E-14	 1.94554000E-13	 1.00000000E+01
					 3.65293000E-14	 3.33333000E-01	-1.00000000E+01
					 3.85563000E-14	 3.33333000E-01	 1.00000000E+01
					 2.51686000E-14	 1.66659000E-13	-1.00000000E+01
					 9.67417000E-14	 2.30744000E-13	 1.00000000E+01
					-3.88528000E-14	-3.33333000E-01	-1.00000000E+01
					 4.86690000E-15	-3.33333000E-01	 1.00000000E+01
				</DataArray>
			</PointData>
		</Piece>
	</UnstructuredGrid>
</VTKFile>