<?xml version="1.0"?>
<VTKFile type="UnstructuredGrid" version="0.1" byte_order="LittleEndian">
	<UnstructuredGrid>
		<Piece NumberOfPoints="9" NumberOfCells="4">
			<Points>
				<DataArray type="Float64" NumberOfComponents="3" format="ascii">
					 0.00000000E+00	 0.00000000E+00	 0.00000000E+00
					 1.00000000E+01	 0.00000000E+00	 0.00000000E+00
					 2.00000000E+01	 0.00000000E+00	 0.00000000E+00
					 0.00000000E+00	 5.00000000E+00	 0.00000000E+00
					 1.00000000E+01	 5.00000000E+00	 0.00000000E+00
					 2.00000000E+01	 5.00000000E+00	 0.00000000E+00
					 0.00000000E+00	 1.00000000E+01	 0.00000000E+00
					 1.00000000E+01	 1.00000000E+01	 0.00000000E+00
					 2.00000000E+01	 1.00000000E+01	 0.00000000E+00
				</DataArray>
			</Points>
			<Cells>
				<DataArray type="Int32" Name="connectivity" format="ascii">
					0 1 4 3 1 2 5 4 4 5 8 7 3 4 7 6 
				</DataArray>
				<DataArray type="Int32" Name="offsets" format="ascii">
					4 8 12 16 
				</DataArray>
				<DataArray type="UInt8" Name="types" format="ascii">
					9 9 9 9 
				</DataArray>
			</Cells>
			<PointData>
				<DataArray type="Float32" Name="U" NumberOfComponents="3" ComponentName0="D1" ComponentName1="D2" ComponentName2="D3" format="ascii">
					 0.00000000E+00	 0.00000000E+00	 0.00000000E+00
					 0.00000000E+00	 0.00000000E+00	 0.00000000E+00
					 0.00000000E+00	 0.00000000E+00	 0.00000000E+00
					 0.00000000E+00	 0.00000000E+00	 0.00000000E+00
					 5.28869000E-02	 1.63934000E-02	 0.00000000E+00
					 0.00000000E+00	 0.00000000E+00	 0.00000000E+00
					 0.00000000E+00	 0.00000000E+00	 0.00000000E+00
					 0.00000000E+00	 0.00000000E+00	 0.00000000E+00
					 0.00000000E+00	 0.00000000E+00	 0.00000000E+00
				</DataArray>
			</PointData>
		</Piece>
	</UnstructuredGrid>
</VTKFile>