    1C
    1UUSER                                                              
    1UDATE              25.january.2020                                 
    1UTIME              14:52:02                                        
    1UHOST                                                              
    1UPGM               CalculiX                                        
    1UVERSION           Version 2.16                             
    1UCOMPILETIME       Tue  7 Jan 19:57:43 CET 2020                    
    1UDIR                                                               
    1UDBN                                                               
    1UMAT    1STEEL                                                     
    1UMAT    2IN1                                                       
    2C                            16                                     1
 -1         1 1.81225E+02 4.00000E+00 0.00000E+00
 -1         2 1.81225E+02 0.00000E+00 0.00000E+00
 -1         3 1.85050E+02 0.00000E+00 0.00000E+00
 -1         4 1.85050E+02 4.00000E+00 0.00000E+00
 -1         5 1.81225E+02 2.00000E+00 0.00000E+00
 -1         6 1.83137E+02 0.00000E+00 0.00000E+00
 -1         7 1.85050E+02 2.00000E+00 0.00000E+00
 -1         8 1.83137E+02 4.00000E+00 0.00000E+00
 -1         9 1.81225E+02 0.00000E+00 0.00000E+00
 -1        10 1.81225E+02-4.00000E+00 0.00000E+00
 -1        11 1.85050E+02-4.00000E+00 0.00000E+00
 -1        12 1.85050E+02 0.00000E+00 0.00000E+00
 -1        13 1.81225E+02-2.00000E+00 0.00000E+00
 -1        14 1.83137E+02-4.00000E+00 0.00000E+00
 -1        15 1.85050E+02-2.00000E+00 0.00000E+00
 -1        16 1.83137E+02 0.00000E+00 0.00000E+00
 -3
    3C                             2                                     1
 -1         1   10    0    1
 -2         1         2         3         4         5         6         7         8
 -1         2   10    0    1
 -2         9        10        11        12        13        14        15        16
 -3
 9999
