<?xml version="1.0"?>
<VTKFile type="UnstructuredGrid" version="0.1" byte_order="LittleEndian">
	<UnstructuredGrid>
		<Piece NumberOfPoints="168" NumberOfCells="14">
			<Points>
				<DataArray type="Float64" NumberOfComponents="3" format="ascii">
					 2.50000000E-01	 3.00000000E-01	 0.00000000E+00
					 2.50000000E-01	 0.00000000E+00	 0.00000000E+00
					 2.50000000E-01	 0.00000000E+00	 3.00000000E-01
					 2.50000000E-01	 3.00000000E-01	 3.00000000E-01
					 0.00000000E+00	 3.00000000E-01	 0.00000000E+00
					 0.00000000E+00	 0.00000000E+00	 0.00000000E+00
					 0.00000000E+00	 0.00000000E+00	 3.00000000E-01
					 0.00000000E+00	 3.00000000E-01	 3.00000000E-01
					 2.50000000E-01	 1.50000000E-01	 0.00000000E+00
					 2.50000000E-01	 0.00000000E+00	 1.50000000E-01
					 2.50000000E-01	 1.50000000E-01	 3.00000000E-01
					 2.50000000E-01	 3.00000000E-01	 1.50000000E-01
					 1.25000000E-01	 3.00000000E-01	 0.00000000E+00
					 1.25000000E-01	 0.00000000E+00	 0.00000000E+00
					 1.25000000E-01	 0.00000000E+00	 3.00000000E-01
					 1.25000000E-01	 3.00000000E-01	 3.00000000E-01
					 0.00000000E+00	 1.50000000E-01	 0.00000000E+00
					 0.00000000E+00	 0.00000000E+00	 1.50000000E-01
					 0.00000000E+00	 1.50000000E-01	 3.00000000E-01
					 0.00000000E+00	 3.00000000E-01	 1.50000000E-01
					 7.50000000E-01	 3.00000000E-01	 0.00000000E+00
					 7.50000000E-01	 0.00000000E+00	 0.00000000E+00
					 7.50000000E-01	 0.00000000E+00	 3.00000000E-01
					 7.50000000E-01	 3.00000000E-01	 3.00000000E-01
					 7.50000000E-01	 1.50000000E-01	 0.00000000E+00
					 7.50000000E-01	 0.00000000E+00	 1.50000000E-01
					 7.50000000E-01	 1.50000000E-01	 3.00000000E-01
					 7.50000000E-01	 3.00000000E-01	 1.50000000E-01
					 5.00000000E-01	 3.00000000E-01	 0.00000000E+00
					 5.00000000E-01	 0.00000000E+00	 0.00000000E+00
					 5.00000000E-01	 0.00000000E+00	 3.00000000E-01
					 5.00000000E-01	 3.00000000E-01	 3.00000000E-01
					 1.00000000E+00	 3.00000000E-01	 0.00000000E+00
					 1.00000000E+00	 0.00000000E+00	 0.00000000E+00
					 1.00000000E+00	 0.00000000E+00	 3.00000000E-01
					 1.00000000E+00	 3.00000000E-01	 3.00000000E-01
					 1.00000000E+00	 1.50000000E-01	 0.00000000E+00
					 1.00000000E+00	 0.00000000E+00	 1.50000000E-01
					 1.00000000E+00	 1.50000000E-01	 3.00000000E-01
					 1.00000000E+00	 3.00000000E-01	 1.50000000E-01
					 8.75000000E-01	 3.00000000E-01	 0.00000000E+00
					 8.75000000E-01	 0.00000000E+00	 0.00000000E+00
					 8.75000000E-01	 0.00000000E+00	 3.00000000E-01
					 8.75000000E-01	 3.00000000E-01	 3.00000000E-01
					 2.50000000E-01	 3.50000000E-01	 0.00000000E+00
					 2.50000000E-01	 3.50000000E-01	 3.00000000E-01
					 0.00000000E+00	 3.50000000E-01	 0.00000000E+00
					 0.00000000E+00	 3.50000000E-01	 3.00000000E-01
					 2.50000000E-01	 3.25000000E-01	 0.00000000E+00
					 2.50000000E-01	 3.25000000E-01	 3.00000000E-01
					 2.50000000E-01	 3.50000000E-01	 1.50000000E-01
					 1.25000000E-01	 3.50000000E-01	 0.00000000E+00
					 1.25000000E-01	 3.50000000E-01	 3.00000000E-01
					 0.00000000E+00	 3.25000000E-01	 0.00000000E+00
					 0.00000000E+00	 3.25000000E-01	 3.00000000E-01
					 0.00000000E+00	 3.50000000E-01	 1.50000000E-01
					 1.00000000E+00	 3.50000000E-01	 0.00000000E+00
					 1.00000000E+00	 3.50000000E-01	 3.00000000E-01
					 7.50000000E-01	 3.50000000E-01	 0.00000000E+00
					 7.50000000E-01	 3.50000000E-01	 3.00000000E-01
					 1.00000000E+00	 3.25000000E-01	 0.00000000E+00
					 1.00000000E+00	 3.25000000E-01	 3.00000000E-01
					 1.00000000E+00	 3.50000000E-01	 1.50000000E-01
					 8.75000000E-01	 3.50000000E-01	 0.00000000E+00
					 8.75000000E-01	 3.50000000E-01	 3.00000000E-01
					 7.50000000E-01	 3.25000000E-01	 0.00000000E+00
					 7.50000000E-01	 3.25000000E-01	 3.00000000E-01
					 7.50000000E-01	 3.50000000E-01	 1.50000000E-01
					 2.50000000E-01	 6.50000000E-01	 0.00000000E+00
					 2.50000000E-01	 6.50000000E-01	 3.00000000E-01
					 0.00000000E+00	 6.50000000E-01	 0.00000000E+00
					 0.00000000E+00	 6.50000000E-01	 3.00000000E-01
					 2.50000000E-01	 5.00000000E-01	 0.00000000E+00
					 2.50000000E-01	 5.00000000E-01	 3.00000000E-01
					 2.50000000E-01	 6.50000000E-01	 1.50000000E-01
					 1.25000000E-01	 6.50000000E-01	 0.00000000E+00
					 1.25000000E-01	 6.50000000E-01	 3.00000000E-01
					 0.00000000E+00	 5.00000000E-01	 0.00000000E+00
					 0.00000000E+00	 5.00000000E-01	 3.00000000E-01
					 0.00000000E+00	 6.50000000E-01	 1.50000000E-01
					 7.50000000E-01	 6.50000000E-01	 0.00000000E+00
					 7.50000000E-01	 6.50000000E-01	 3.00000000E-01
					 5.00000000E-01	 6.50000000E-01	 0.00000000E+00
					 5.00000000E-01	 3.50000000E-01	 0.00000000E+00
					 5.00000000E-01	 3.50000000E-01	 3.00000000E-01
					 5.00000000E-01	 6.50000000E-01	 3.00000000E-01
					 7.50000000E-01	 5.00000000E-01	 0.00000000E+00
					 7.50000000E-01	 5.00000000E-01	 3.00000000E-01
					 7.50000000E-01	 6.50000000E-01	 1.50000000E-01
					 6.25000000E-01	 6.50000000E-01	 0.00000000E+00
					 6.25000000E-01	 3.50000000E-01	 0.00000000E+00
					 6.25000000E-01	 3.50000000E-01	 3.00000000E-01
					 6.25000000E-01	 6.50000000E-01	 3.00000000E-01
					 5.00000000E-01	 5.00000000E-01	 0.00000000E+00
					 5.00000000E-01	 3.50000000E-01	 1.50000000E-01
					 5.00000000E-01	 5.00000000E-01	 3.00000000E-01
					 5.00000000E-01	 6.50000000E-01	 1.50000000E-01
					 3.75000000E-01	 6.50000000E-01	 0.00000000E+00
					 3.75000000E-01	 3.50000000E-01	 0.00000000E+00
					 3.75000000E-01	 3.50000000E-01	 3.00000000E-01
					 3.75000000E-01	 6.50000000E-01	 3.00000000E-01
					 1.00000000E+00	 6.50000000E-01	 0.00000000E+00
					 1.00000000E+00	 6.50000000E-01	 3.00000000E-01
					 1.00000000E+00	 5.00000000E-01	 0.00000000E+00
					 1.00000000E+00	 5.00000000E-01	 3.00000000E-01
					 1.00000000E+00	 6.50000000E-01	 1.50000000E-01
					 8.75000000E-01	 6.50000000E-01	 0.00000000E+00
					 8.75000000E-01	 6.50000000E-01	 3.00000000E-01
					 2.50000000E-01	 7.00000000E-01	 0.00000000E+00
					 2.50000000E-01	 7.00000000E-01	 3.00000000E-01
					 0.00000000E+00	 7.00000000E-01	 0.00000000E+00
					 0.00000000E+00	 7.00000000E-01	 3.00000000E-01
					 2.50000000E-01	 6.75000000E-01	 0.00000000E+00
					 2.50000000E-01	 6.75000000E-01	 3.00000000E-01
					 2.50000000E-01	 7.00000000E-01	 1.50000000E-01
					 1.25000000E-01	 7.00000000E-01	 0.00000000E+00
					 1.25000000E-01	 7.00000000E-01	 3.00000000E-01
					 0.00000000E+00	 6.75000000E-01	 0.00000000E+00
					 0.00000000E+00	 6.75000000E-01	 3.00000000E-01
					 0.00000000E+00	 7.00000000E-01	 1.50000000E-01
					 1.00000000E+00	 7.00000000E-01	 0.00000000E+00
					 1.00000000E+00	 7.00000000E-01	 3.00000000E-01
					 7.50000000E-01	 7.00000000E-01	 0.00000000E+00
					 7.50000000E-01	 7.00000000E-01	 3.00000000E-01
					 1.00000000E+00	 6.75000000E-01	 0.00000000E+00
					 1.00000000E+00	 6.75000000E-01	 3.00000000E-01
					 1.00000000E+00	 7.00000000E-01	 1.50000000E-01
					 8.75000000E-01	 7.00000000E-01	 0.00000000E+00
					 8.75000000E-01	 7.00000000E-01	 3.00000000E-01
					 7.50000000E-01	 6.75000000E-01	 0.00000000E+00
					 7.50000000E-01	 6.75000000E-01	 3.00000000E-01
					 7.50000000E-01	 7.00000000E-01	 1.50000000E-01
					 2.50000000E-01	 1.00000000E+00	 0.00000000E+00
					 2.50000000E-01	 1.00000000E+00	 3.00000000E-01
					 0.00000000E+00	 1.00000000E+00	 0.00000000E+00
					 0.00000000E+00	 1.00000000E+00	 3.00000000E-01
					 2.50000000E-01	 8.50000000E-01	 0.00000000E+00
					 2.50000000E-01	 8.50000000E-01	 3.00000000E-01
					 2.50000000E-01	 1.00000000E+00	 1.50000000E-01
					 1.25000000E-01	 1.00000000E+00	 0.00000000E+00
					 1.25000000E-01	 1.00000000E+00	 3.00000000E-01
					 0.00000000E+00	 8.50000000E-01	 0.00000000E+00
					 0.00000000E+00	 8.50000000E-01	 3.00000000E-01
					 0.00000000E+00	 1.00000000E+00	 1.50000000E-01
					 7.50000000E-01	 1.00000000E+00	 0.00000000E+00
					 7.50000000E-01	 1.00000000E+00	 3.00000000E-01
					 7.50000000E-01	 8.50000000E-01	 0.00000000E+00
					 7.50000000E-01	 8.50000000E-01	 3.00000000E-01
					 7.50000000E-01	 1.00000000E+00	 1.50000000E-01
					 5.00000000E-01	 1.00000000E+00	 0.00000000E+00
					 5.00000000E-01	 7.00000000E-01	 0.00000000E+00
					 5.00000000E-01	 7.00000000E-01	 3.00000000E-01
					 5.00000000E-01	 1.00000000E+00	 3.00000000E-01
					 1.00000000E+00	 1.00000000E+00	 0.00000000E+00
					 1.00000000E+00	 1.00000000E+00	 3.00000000E-01
					 1.00000000E+00	 8.50000000E-01	 0.00000000E+00
					 1.00000000E+00	 8.50000000E-01	 3.00000000E-01
					 1.00000000E+00	 1.00000000E+00	 1.50000000E-01
					 8.75000000E-01	 1.00000000E+00	 0.00000000E+00
					 8.75000000E-01	 1.00000000E+00	 3.00000000E-01
					 5.00000000E-01	 6.50000000E-01	 0.00000000E+00
					 5.00000000E-01	 3.50000000E-01	 0.00000000E+00
					 5.00000000E-01	 3.50000000E-01	 3.00000000E-01
					 5.00000000E-01	 6.50000000E-01	 3.00000000E-01
					 5.00000000E-01	 5.00000000E-01	 0.00000000E+00
					 5.00000000E-01	 3.50000000E-01	 1.50000000E-01
					 5.00000000E-01	 5.00000000E-01	 3.00000000E-01
					 5.00000000E-01	 6.50000000E-01	 1.50000000E-01
				</DataArray>
			</Points>
			<Cells>
				<DataArray type="Int32" Name="connectivity" format="ascii">
					0 1 2 3 4 5 6 7 8 9 10 11 16 17 18 19 12 13 14 15 20 21 22 23 0 1 2 3 24 25 26 27 8 9 10 11 28 29 30 31 32 33 34 35 20 21 22 23 36 37 38 39 24 25 26 27 40 41 42 43 44 0 3 45 46 4 7 47 48 11 49 50 53 19 54 55 51 12 15 52 56 32 35 57 58 20 23 59 60 39 61 62 65 27 66 67 63 40 43 64 68 44 45 69 70 46 47 71 72 50 73 74 77 55 78 79 75 51 52 76 80 58 59 81 160 161 162 163 86 67 87 88 164 165 166 167 89 90 91 92 82 83 84 85 68 44 45 69 93 94 95 96 72 50 73 74 97 98 99 100 101 56 57 102 80 58 59 81 103 62 104 105 86 67 87 88 106 63 64 107 108 68 69 109 110 70 71 111 112 74 113 114 117 79 118 119 115 75 76 116 120 101 102 121 122 80 81 123 124 105 125 126 129 88 130 131 127 106 107 128 132 108 109 133 134 110 111 135 136 114 137 138 141 119 142 143 139 115 116 140 144 122 123 145 132 108 109 133 146 131 147 148 136 114 137 138 149 150 151 152 153 120 121 154 144 122 123 145 155 126 156 157 146 131 147 148 158 127 128 159 
				</DataArray>
				<DataArray type="Int32" Name="offsets" format="ascii">
					20 40 60 80 100 120 140 160 180 200 220 240 260 280 
				</DataArray>
				<DataArray type="UInt8" Name="types" format="ascii">
					25 25 25 25 25 25 25 25 25 25 25 25 25 25 
				</DataArray>
			</Cells>
			<PointData>
				<DataArray type="Float32" Name="U" NumberOfComponents="3" ComponentName0="D1" ComponentName1="D2" ComponentName2="D3" format="ascii">
					 5.44129000E-05	-3.61345000E-05	-3.29702000E-05
					-1.25842000E-04	 4.25734000E-05	-6.28144000E-06
					-1.25842000E-04	 4.25734000E-05	-4.40921000E-05
					 5.44129000E-05	-3.61345000E-05	-1.74034000E-05
					-1.15615000E-03	 1.73231000E-04	 4.83101000E-04
					 1.63936000E-04	 1.32342000E-04	-2.04087000E-04
					 1.63936000E-04	 1.32342000E-04	 1.53713000E-04
					-1.15615000E-03	 1.73231000E-04	-5.33474000E-04
					-7.50721000E-05	 1.31936000E-05	-2.91255000E-05
					-6.31031000E-05	 4.33330000E-05	-2.51868000E-05
					-7.50721000E-05	 1.31936000E-05	-2.12480000E-05
					-9.07368000E-05	-4.39489000E-05	-2.51868000E-05
					-4.49519000E-04	 6.63255000E-05	-5.64931000E-05
					-4.69378000E-05	 1.39869000E-04	-1.99277000E-05
					-4.69378000E-05	 1.39869000E-04	-3.04459000E-05
					-4.49519000E-04	 6.63255000E-05	 6.11950000E-06
					-3.92962000E-04	 1.51582000E-04	 1.64678000E-04
					-2.35056000E-04	 3.62426000E-05	-2.51868000E-05
					-3.92962000E-04	 1.51582000E-04	-2.15052000E-04
					-1.09692000E-04	 1.77415000E-04	-2.51868000E-05
					-5.44129000E-05	-3.61345000E-05	-3.29702000E-05
					 1.25842000E-04	 4.25734000E-05	-6.28144000E-06
					 1.25842000E-04	 4.25734000E-05	-4.40921000E-05
					-5.44129000E-05	-3.61345000E-05	-1.74034000E-05
					 7.50721000E-05	 1.31936000E-05	-2.91255000E-05
					 6.31031000E-05	 4.33330000E-05	-2.51868000E-05
					 7.50721000E-05	 1.31936000E-05	-2.12480000E-05
					 9.07368000E-05	-4.39489000E-05	-2.51868000E-05
					 0.00000000E+00	-2.82797000E-05	 4.56733000E-06
					 0.00000000E+00	 0.00000000E+00	 0.00000000E+00
					 0.00000000E+00	 0.00000000E+00	-5.03736000E-05
					 0.00000000E+00	-2.82797000E-05	-5.49409000E-05
					 1.15615000E-03	 1.73231000E-04	 4.83101000E-04
					-1.63936000E-04	 1.32342000E-04	-2.04087000E-04
					-1.63936000E-04	 1.32342000E-04	 1.53713000E-04
					 1.15615000E-03	 1.73231000E-04	-5.33474000E-04
					 3.92962000E-04	 1.51582000E-04	 1.64678000E-04
					 2.35056000E-04	 3.62426000E-05	-2.51868000E-05
					 3.92962000E-04	 1.51582000E-04	-2.15052000E-04
					 1.09692000E-04	 1.77415000E-04	-2.51868000E-05
					 4.49519000E-04	 6.63255000E-05	-5.64931000E-05
					 4.69378000E-05	 1.39869000E-04	-1.99277000E-05
					 4.69378000E-05	 1.39869000E-04	-3.04459000E-05
					 4.49519000E-04	 6.63255000E-05	 6.11950000E-06
					 1.19161000E-04	-8.80653000E-05	-7.06446000E-06
					 1.19161000E-04	-8.80653000E-05	-4.33091000E-05
					-3.00568000E-04	 2.10747000E-04	 2.35958000E-04
					-3.00568000E-04	 2.10747000E-04	-2.86332000E-04
					 6.65091000E-05	-6.57886000E-05	-2.50067000E-05
					 6.65091000E-05	-6.57886000E-05	-2.53668000E-05
					 1.22444000E-04	-7.50875000E-05	-2.51868000E-05
					-1.14948000E-04	 3.55326000E-06	-1.25321000E-05
					-1.14948000E-04	 3.55326000E-06	-3.78415000E-05
					-7.13849000E-04	 1.92132000E-04	 3.69427000E-04
					-7.13849000E-04	 1.92132000E-04	-4.19800000E-04
					-2.47668000E-05	 2.74628000E-04	-2.51868000E-05
					 3.00568000E-04	 2.10747000E-04	 2.35958000E-04
					 3.00568000E-04	 2.10747000E-04	-2.86332000E-04
					-1.19161000E-04	-8.80653000E-05	-7.06446000E-06
					-1.19161000E-04	-8.80653000E-05	-4.33091000E-05
					 7.13849000E-04	 1.92132000E-04	 3.69427000E-04
					 7.13849000E-04	 1.92132000E-04	-4.19800000E-04
					 2.47668000E-05	 2.74628000E-04	-2.51868000E-05
					 1.14948000E-04	 3.55326000E-06	-1.25321000E-05
					 1.14948000E-04	 3.55326000E-06	-3.78415000E-05
					-6.65091000E-05	-6.57886000E-05	-2.50067000E-05
					-6.65091000E-05	-6.57886000E-05	-2.53668000E-05
					-1.22444000E-04	-7.50875000E-05	-2.51868000E-05
					 5.94769000E-04	-2.90497000E-05	 3.45627000E-06
					 5.94769000E-04	-2.90497000E-05	-5.38298000E-05
					 9.04644000E-04	 1.98860000E-05	-3.31266000E-04
					 9.04644000E-04	 1.98860000E-05	 2.80892000E-04
					 4.12328000E-04	-1.35642000E-04	 3.06007000E-06
					 4.12328000E-04	-1.35642000E-04	-5.34336000E-05
					 5.75887000E-04	-9.87714000E-06	-2.51868000E-05
					 7.66886000E-04	-4.35245000E-05	-3.54150000E-05
					 7.66886000E-04	-4.35245000E-05	-1.49585000E-05
					 3.80936000E-04	 1.92867000E-04	-5.53798000E-05
					 3.80936000E-04	 1.92867000E-04	 5.00623000E-06
					 5.96813000E-04	 7.80836000E-05	-2.51868000E-05
					-5.94769000E-04	-2.90497000E-05	 3.45627000E-06
					-5.94769000E-04	-2.90497000E-05	-5.38298000E-05
					 5.10056000E-04	-2.99523000E-04	-2.83414000E-05
					 5.10056000E-04	-2.90392000E-04	 5.37937000E-05
					 5.10056000E-04	-2.90392000E-04	-1.04167000E-04
					 5.10056000E-04	-2.99523000E-04	-2.20322000E-05
					-4.12328000E-04	-1.35642000E-04	 3.06007000E-06
					-4.12328000E-04	-1.35642000E-04	-5.34336000E-05
					-5.75887000E-04	-9.87714000E-06	-2.51868000E-05
					-5.38291000E-04	-2.33549000E-04	-2.11402000E-05
					-3.20909000E-04	-2.15973000E-04	 3.57983000E-05
					-3.20909000E-04	-2.15973000E-04	-8.61719000E-05
					-5.38291000E-04	-2.33549000E-04	-2.92334000E-05
					 5.10056000E-04	-2.89426000E-04	-2.47638000E-06
					 5.10056000E-04	-2.63579000E-04	-2.51868000E-05
					 5.10056000E-04	-2.89426000E-04	-4.78972000E-05
					 5.10056000E-04	-2.92220000E-04	-2.51868000E-05
					 5.38291000E-04	-2.33549000E-04	-2.11402000E-05
					 3.20909000E-04	-2.15973000E-04	 3.57983000E-05
					 3.20909000E-04	-2.15973000E-04	-8.61719000E-05
					 5.38291000E-04	-2.33549000E-04	-2.92334000E-05
					-9.04644000E-04	 1.98860000E-05	-3.31266000E-04
					-9.04644000E-04	 1.98860000E-05	 2.80892000E-04
					-3.80936000E-04	 1.92867000E-04	-5.53798000E-05
					-3.80936000E-04	 1.92867000E-04	 5.00623000E-06
					-5.96813000E-04	 7.80836000E-05	-2.51868000E-05
					-7.66886000E-04	-4.35245000E-05	-3.54150000E-05
					-7.66886000E-04	-4.35245000E-05	-1.49585000E-05
					 3.69712000E-04	 9.52538000E-05	-4.17683000E-05
					 3.69712000E-04	 9.52538000E-05	-8.60527000E-06
					 1.66365000E-03	-5.87999000E-05	-5.57170000E-04
					 1.66365000E-03	-5.87999000E-05	 5.06796000E-04
					 5.04993000E-04	 2.97586000E-05	-1.10739000E-05
					 5.04993000E-04	 2.97586000E-05	-3.92997000E-05
					 5.25017000E-04	 8.20249000E-05	-2.51868000E-05
					 9.61294000E-04	 9.56510000E-06	 6.99377000E-07
					 9.61294000E-04	 9.56510000E-06	-5.10730000E-05
					 1.27224000E-03	-2.31389000E-05	-4.55461000E-04
					 1.27224000E-03	-2.31389000E-05	 4.05087000E-04
					 5.98477000E-04	-5.40194000E-05	-2.51868000E-05
					-1.66365000E-03	-5.87999000E-05	-5.57170000E-04
					-1.66365000E-03	-5.87999000E-05	 5.06796000E-04
					-3.69712000E-04	 9.52538000E-05	-4.17683000E-05
					-3.69712000E-04	 9.52538000E-05	-8.60527000E-06
					-1.27224000E-03	-2.31389000E-05	-4.55461000E-04
					-1.27224000E-03	-2.31389000E-05	 4.05087000E-04
					-5.98477000E-04	-5.40194000E-05	-2.51868000E-05
					-9.61294000E-04	 9.56510000E-06	 6.99377000E-07
					-9.61294000E-04	 9.56510000E-06	-5.10730000E-05
					-5.04993000E-04	 2.97586000E-05	-1.10739000E-05
					-5.04993000E-04	 2.97586000E-05	-3.92997000E-05
					-5.25017000E-04	 8.20249000E-05	-2.51868000E-05
					 1.66925000E-05	 2.53667000E-04	-3.01839000E-05
					 1.66925000E-05	 2.53667000E-04	-2.01897000E-05
					-3.14049000E-04	-1.58636000E-04	 1.64267000E-04
					-3.14049000E-04	-1.58636000E-04	-2.14640000E-04
					 1.85196000E-04	 2.13336000E-04	-3.44622000E-05
					 1.85196000E-04	 2.13336000E-04	-1.59113000E-05
					-4.57203000E-05	 2.32852000E-04	-2.51868000E-05
					-9.53770000E-05	 1.21206000E-04	-2.11487000E-05
					-9.53770000E-05	 1.21206000E-04	-2.92249000E-05
					 5.67338000E-04	-1.34259000E-04	-2.27884000E-04
					 5.67338000E-04	-1.34259000E-04	 1.77510000E-04
					 8.86241000E-05	-2.60054000E-04	-2.51868000E-05
					-1.66925000E-05	 2.53667000E-04	-3.01839000E-05
					-1.66925000E-05	 2.53667000E-04	-2.01897000E-05
					-1.85196000E-04	 2.13336000E-04	-3.44622000E-05
					-1.85196000E-04	 2.13336000E-04	-1.59113000E-05
					 4.57203000E-05	 2.32852000E-04	-2.51868000E-05
					 0.00000000E+00	 4.16245000E-04	-2.83203000E-05
					 0.00000000E+00	 3.47814000E-04	-1.22755000E-04
					 0.00000000E+00	 3.47814000E-04	 7.23810000E-05
					 0.00000000E+00	 4.16245000E-04	-2.20533000E-05
					 3.14049000E-04	-1.58636000E-04	 1.64267000E-04
					 3.14049000E-04	-1.58636000E-04	-2.14640000E-04
					-5.67338000E-04	-1.34259000E-04	-2.27884000E-04
					-5.67338000E-04	-1.34259000E-04	 1.77510000E-04
					-8.86241000E-05	-2.60054000E-04	-2.51868000E-05
					 9.53770000E-05	 1.21206000E-04	-2.11487000E-05
					 9.53770000E-05	 1.21206000E-04	-2.92249000E-05
					-5.10056000E-04	-2.99523000E-04	-2.83414000E-05
					-5.10056000E-04	-2.90392000E-04	 5.37937000E-05
					-5.10056000E-04	-2.90392000E-04	-1.04167000E-04
					-5.10056000E-04	-2.99523000E-04	-2.20322000E-05
					-5.10056000E-04	-2.89426000E-04	-2.47638000E-06
					-5.10056000E-04	-2.63579000E-04	-2.51868000E-05
					-5.10056000E-04	-2.89426000E-04	-4.78972000E-05
					-5.10056000E-04	-2.92220000E-04	-2.51868000E-05
				</DataArray>
			</PointData>
		</Piece>
	</UnstructuredGrid>
</VTKFile>