<?xml version="1.0"?>
<VTKFile type="UnstructuredGrid" version="0.1" byte_order="LittleEndian">
	<UnstructuredGrid>
		<Piece NumberOfPoints="40" NumberOfCells="2">
			<Points>
				<DataArray type="Float64" NumberOfComponents="3" format="ascii">
					 0.00000000E+00	 0.00000000E+00	-5.00000000E-02
					 0.00000000E+00	 0.00000000E+00	 0.00000000E+00
					 0.00000000E+00	 0.00000000E+00	 5.00000000E-02
					 1.00000000E+00	 0.00000000E+00	-5.00000000E-02
					 1.00000000E+00	 0.00000000E+00	 0.00000000E+00
					 1.00000000E+00	 0.00000000E+00	 5.00000000E-02
					 2.00000000E+00	 0.00000000E+00	-5.00000000E-02
					 2.00000000E+00	 0.00000000E+00	 0.00000000E+00
					 2.00000000E+00	 0.00000000E+00	 5.00000000E-02
					 0.00000000E+00	 1.00000000E+00	-5.00000000E-02
					 0.00000000E+00	 1.00000000E+00	 0.00000000E+00
					 0.00000000E+00	 1.00000000E+00	 5.00000000E-02
					 1.00000000E+00	 1.00000000E+00	-5.00000000E-02
					 1.00000000E+00	 1.00000000E+00	 0.00000000E+00
					 1.00000000E+00	 1.00000000E+00	 5.00000000E-02
					 2.00000000E+00	 1.00000000E+00	-5.00000000E-02
					 2.00000000E+00	 1.00000000E+00	 0.00000000E+00
					 2.00000000E+00	 1.00000000E+00	 5.00000000E-02
					 5.00000000E-01	 0.00000000E+00	-5.00000000E-02
					 5.00000000E-01	 0.00000000E+00	 5.00000000E-02
					 1.50000000E+00	 0.00000000E+00	-5.00000000E-02
					 1.50000000E+00	 0.00000000E+00	 5.00000000E-02
					 0.00000000E+00	 5.00000000E-01	-5.00000000E-02
					 0.00000000E+00	 5.00000000E-01	 5.00000000E-02
					 1.00000000E+00	 5.00000000E-01	-5.00000000E-02
					 1.00000000E+00	 5.00000000E-01	 5.00000000E-02
					 2.00000000E+00	 5.00000000E-01	-5.00000000E-02
					 2.00000000E+00	 5.00000000E-01	 5.00000000E-02
					 5.00000000E-01	 1.00000000E+00	-5.00000000E-02
					 5.00000000E-01	 1.00000000E+00	 5.00000000E-02
					 1.50000000E+00	 1.00000000E+00	-5.00000000E-02
					 1.50000000E+00	 1.00000000E+00	 5.00000000E-02
					 1.00000000E+00	 0.00000000E+00	-5.00000000E-02
					 1.00000000E+00	 0.00000000E+00	 0.00000000E+00
					 1.00000000E+00	 0.00000000E+00	 5.00000000E-02
					 1.00000000E+00	 1.00000000E+00	-5.00000000E-02
					 1.00000000E+00	 1.00000000E+00	 0.00000000E+00
					 1.00000000E+00	 1.00000000E+00	 5.00000000E-02
					 1.00000000E+00	 5.00000000E-01	-5.00000000E-02
					 1.00000000E+00	 5.00000000E-01	 5.00000000E-02
				</DataArray>
			</Points>
			<Cells>
				<DataArray type="Int32" Name="connectivity" format="ascii">
					0 32 35 9 2 34 37 11 18 38 28 22 19 39 29 23 1 33 36 10 3 6 15 12 5 8 17 14 20 26 30 24 21 27 31 25 4 7 16 13 
				</DataArray>
				<DataArray type="Int32" Name="offsets" format="ascii">
					20 40 
				</DataArray>
				<DataArray type="UInt8" Name="types" format="ascii">
					25 25 
				</DataArray>
			</Cells>
			<PointData>
				<DataArray type="Float32" Name="U" NumberOfComponents="3" ComponentName0="D1" ComponentName1="D2" ComponentName2="D3" format="ascii">
					 0.00000000E+00	 0.00000000E+00	 0.00000000E+00
					 0.00000000E+00	 0.00000000E+00	 0.00000000E+00
					 0.00000000E+00	 0.00000000E+00	 0.00000000E+00
					 4.17100000E-04	-8.41744000E-05	 0.00000000E+00
					 4.17100000E-04	-8.41744000E-05	 0.00000000E+00
					 4.17100000E-04	-8.41744000E-05	 0.00000000E+00
					 0.00000000E+00	 0.00000000E+00	 0.00000000E+00
					 0.00000000E+00	 0.00000000E+00	 0.00000000E+00
					 0.00000000E+00	 0.00000000E+00	 0.00000000E+00
					 0.00000000E+00	 0.00000000E+00	 0.00000000E+00
					 0.00000000E+00	 0.00000000E+00	 0.00000000E+00
					 0.00000000E+00	 0.00000000E+00	 0.00000000E+00
					 4.17100000E-04	 8.41744000E-05	 0.00000000E+00
					 4.17100000E-04	 8.41744000E-05	 0.00000000E+00
					 4.17100000E-04	 8.41744000E-05	 0.00000000E+00
					 0.00000000E+00	 0.00000000E+00	 0.00000000E+00
					 0.00000000E+00	 0.00000000E+00	 0.00000000E+00
					 0.00000000E+00	 0.00000000E+00	 0.00000000E+00
					-1.99531000E-04	-8.98332000E-05	 0.00000000E+00
					-1.99531000E-04	-8.98332000E-05	 0.00000000E+00
					 1.99531000E-04	-8.98332000E-05	 0.00000000E+00
					 1.99531000E-04	-8.98332000E-05	 0.00000000E+00
					 0.00000000E+00	 0.00000000E+00	 0.00000000E+00
					 0.00000000E+00	 0.00000000E+00	 0.00000000E+00
					 4.17100000E-04	 3.17224000E-18	 0.00000000E+00
					 4.17100000E-04	 3.17224000E-18	 0.00000000E+00
					 0.00000000E+00	 0.00000000E+00	 0.00000000E+00
					 0.00000000E+00	 0.00000000E+00	 0.00000000E+00
					-1.99531000E-04	 8.98332000E-05	 0.00000000E+00
					-1.99531000E-04	 8.98332000E-05	 0.00000000E+00
					 1.99531000E-04	 8.98332000E-05	 0.00000000E+00
					 1.99531000E-04	 8.98332000E-05	 0.00000000E+00
					-4.17100000E-04	-8.41744000E-05	 0.00000000E+00
					-4.17100000E-04	-8.41744000E-05	 0.00000000E+00
					-4.17100000E-04	-8.41744000E-05	 0.00000000E+00
					-4.17100000E-04	 8.41744000E-05	 0.00000000E+00
					-4.17100000E-04	 8.41744000E-05	 0.00000000E+00
					-4.17100000E-04	 8.41744000E-05	 0.00000000E+00
					-4.17100000E-04	 3.17224000E-18	 0.00000000E+00
					-4.17100000E-04	 3.17224000E-18	 0.00000000E+00
				</DataArray>
				<DataArray type="Float32" Name="S" NumberOfComponents="10" ComponentName0="xx" ComponentName1="yy" ComponentName2="zz" ComponentName3="xy" ComponentName4="yz" ComponentName5="zx" ComponentName6="Mises" ComponentName7="Min Principal" ComponentName8="Mid Principal" ComponentName9="Max Principal" format="ascii">
					-1.07709000E+02	-4.61623000E+01	-4.61613000E+01	-2.22245000E+01	-4.62832000E-14	 7.35428000E-14	 7.25936845E+01	-1.14895200E+02	-4.61613000E+01	-3.89760995E+01
					-1.07718000E+02	-4.61632000E+01	-4.61643000E+01	-2.22245000E+01	 6.88647000E-15	-7.26446000E-14	 7.25996618E+01	-1.14903434E+02	-4.61643000E+01	-3.89777662E+01
					-1.07709000E+02	-4.61623000E+01	-4.61613000E+01	-2.22245000E+01	 3.02846000E-14	-2.04579000E-13	 7.25936845E+01	-1.14895200E+02	-4.61613000E+01	-3.89760995E+01
					-1.07709000E+02	-7.31239000E+00	-3.45064000E+01	-8.62702000E+00	 3.76271000E-14	 1.00741000E-12	 9.11706284E+01	-1.08444920E+02	-3.45064000E+01	-6.57646978E+00
					-1.07718000E+02	-7.31334000E+00	-3.45094000E+01	-8.62702000E+00	-1.93432000E-17	 5.34701000E-14	 9.11777752E+01	-1.08453862E+02	-3.45094000E+01	-6.57747793E+00
					-1.07709000E+02	-7.31239000E+00	-3.45064000E+01	-8.62702000E+00	 4.84066000E-14	-7.44573000E-13	 9.11706284E+01	-1.08444920E+02	-3.45064000E+01	-6.57646978E+00
					-1.07709000E+02	-4.61623000E+01	-4.61613000E+01	 2.22245000E+01	-2.71201000E-13	 6.48868000E-13	 7.25936845E+01	-1.14895200E+02	-4.61613000E+01	-3.89760995E+01
					-1.07718000E+02	-4.61632000E+01	-4.61643000E+01	 2.22245000E+01	 4.82283000E-15	 8.52478000E-15	 7.25996618E+01	-1.14903434E+02	-4.61643000E+01	-3.89777662E+01
					-1.07709000E+02	-4.61623000E+01	-4.61613000E+01	 2.22245000E+01	 2.84063000E-13	-7.19320000E-13	 7.25936845E+01	-1.14895200E+02	-4.61613000E+01	-3.89760995E+01
					-1.07709000E+02	-4.61623000E+01	-4.61613000E+01	 2.22245000E+01	-1.22897000E-14	 9.73334000E-14	 7.25936845E+01	-1.14895200E+02	-4.61613000E+01	-3.89760995E+01
					-1.07718000E+02	-4.61632000E+01	-4.61643000E+01	 2.22245000E+01	-9.17201000E-15	-1.50487000E-13	 7.25996618E+01	-1.14903434E+02	-4.61643000E+01	-3.89777662E+01
					-1.07709000E+02	-4.61623000E+01	-4.61613000E+01	 2.22245000E+01	-9.12158000E-15	-2.11039000E-13	 7.25936845E+01	-1.14895200E+02	-4.61613000E+01	-3.89760995E+01
					-1.07709000E+02	-7.31239000E+00	-3.45064000E+01	 8.62702000E+00	-2.06380000E-13	-4.02142000E-13	 9.11706284E+01	-1.08444920E+02	-3.45064000E+01	-6.57646978E+00
					-1.07718000E+02	-7.31334000E+00	-3.45094000E+01	 8.62702000E+00	-7.55642000E-15	 4.99773000E-14	 9.11777752E+01	-1.08453862E+02	-3.45094000E+01	-6.57747793E+00
					-1.07709000E+02	-7.31239000E+00	-3.45064000E+01	 8.62702000E+00	 1.24486000E-13	 2.82700000E-13	 9.11706284E+01	-1.08444920E+02	-3.45064000E+01	-6.57646978E+00
					-1.07709000E+02	-4.61623000E+01	-4.61613000E+01	-2.22245000E+01	 2.52763000E-13	 5.59620000E-13	 7.25936845E+01	-1.14895200E+02	-4.61613000E+01	-3.89760995E+01
					-1.07718000E+02	-4.61632000E+01	-4.61643000E+01	-2.22245000E+01	-2.71368000E-15	-6.42925000E-14	 7.25996618E+01	-1.14903434E+02	-4.61643000E+01	-3.89777662E+01
					-1.07709000E+02	-4.61623000E+01	-4.61613000E+01	-2.22245000E+01	-2.49717000E-13	-4.82065000E-13	 7.25936845E+01	-1.14895200E+02	-4.61613000E+01	-3.89760995E+01
					-9.61485000E+01	 2.56783000E-01	-2.87675000E+01	-6.79873000E+00	 2.81555000E-14	 8.27244000E-14	 8.64694256E+01	-9.66256015E+01	-2.87675000E+01	 7.33884486E-01
					-9.61485000E+01	 2.56783000E-01	-2.87675000E+01	-6.79873000E+00	-7.44739000E-15	 3.37792000E-14	 8.64694256E+01	-9.66256015E+01	-2.87675000E+01	 7.33884486E-01
					-9.61485000E+01	 2.56783000E-01	-2.87675000E+01	 6.79873000E+00	-9.32895000E-15	 2.31911000E-13	 8.64694256E+01	-9.66256015E+01	-2.87675000E+01	 7.33884486E-01
					-9.61485000E+01	 2.56783000E-01	-2.87675000E+01	 6.79873000E+00	 4.90793000E-14	-2.23180000E-13	 8.64694256E+01	-9.66256015E+01	-2.87675000E+01	 7.33884486E-01
					-1.07718000E+02	-4.61632000E+01	-4.61643000E+01	 9.78106000E-14	 1.16661000E-14	-4.32231000E-14	 6.15542500E+01	-1.07718000E+02	-4.61643000E+01	-4.61632000E+01
					-1.07718000E+02	-4.61632000E+01	-4.61643000E+01	 1.01807000E-13	-1.59835000E-14	 5.74874000E-14	 6.15542500E+01	-1.07718000E+02	-4.61643000E+01	-4.61632000E+01
					-1.07718000E+02	-7.31334000E+00	-3.45094000E+01	-4.19220000E-13	-5.12770000E-14	 5.64244000E-13	 8.99450403E+01	-1.07718000E+02	-3.45094000E+01	-7.31334000E+00
					-1.07718000E+02	-7.31334000E+00	-3.45094000E+01	-4.14779000E-13	 5.51627000E-14	-6.00974000E-13	 8.99450403E+01	-1.07718000E+02	-3.45094000E+01	-7.31334000E+00
					-1.07718000E+02	-4.61632000E+01	-4.61643000E+01	-6.27498000E-13	-1.64470000E-14	 3.02509000E-13	 6.15542500E+01	-1.07718000E+02	-4.61643000E+01	-4.61632000E+01
					-1.07718000E+02	-4.61632000E+01	-4.61643000E+01	-6.28830000E-13	 1.70165000E-14	-2.20532000E-13	 6.15542500E+01	-1.07718000E+02	-4.61643000E+01	-4.61632000E+01
					-9.61485000E+01	 2.56783000E-01	-2.87675000E+01	 6.79873000E+00	-1.33454000E-13	 2.43597000E-14	 8.64694256E+01	-9.66256015E+01	-2.87675000E+01	 7.33884486E-01
					-9.61485000E+01	 2.56783000E-01	-2.87675000E+01	 6.79873000E+00	 1.30139000E-13	 1.50555000E-13	 8.64694256E+01	-9.66256015E+01	-2.87675000E+01	 7.33884486E-01
					-9.61485000E+01	 2.56783000E-01	-2.87675000E+01	-6.79873000E+00	-3.31196000E-14	 3.26071000E-13	 8.64694256E+01	-9.66256015E+01	-2.87675000E+01	 7.33884486E-01
					-9.61485000E+01	 2.56783000E-01	-2.87675000E+01	-6.79873000E+00	 1.06910000E-14	-3.04150000E-13	 8.64694256E+01	-9.66256015E+01	-2.87675000E+01	 7.33884486E-01
					-1.07709000E+02	-7.31239000E+00	-3.45064000E+01	 8.62702000E+00	-1.41409000E-13	-1.50429000E-13	 9.11706284E+01	-1.08444920E+02	-3.45064000E+01	-6.57646978E+00
					-1.07718000E+02	-7.31334000E+00	-3.45094000E+01	 8.62702000E+00	 1.65003000E-14	 8.45673000E-14	 9.11777752E+01	-1.08453862E+02	-3.45094000E+01	-6.57747793E+00
					-1.07709000E+02	-7.31239000E+00	-3.45064000E+01	 8.62702000E+00	 2.65553000E-13	 1.83377000E-13	 9.11706284E+01	-1.08444920E+02	-3.45064000E+01	-6.57646978E+00
					-1.07709000E+02	-7.31239000E+00	-3.45064000E+01	-8.62702000E+00	 6.12167000E-14	-3.21085000E-13	 9.11706284E+01	-1.08444920E+02	-3.45064000E+01	-6.57646978E+00
					-1.07718000E+02	-7.31334000E+00	-3.45094000E+01	-8.62702000E+00	 5.00225000E-15	-5.74165000E-16	 9.11777752E+01	-1.08453862E+02	-3.45094000E+01	-6.57747793E+00
					-1.07709000E+02	-7.31239000E+00	-3.45064000E+01	-8.62702000E+00	-7.62733000E-14	-8.10844000E-15	 9.11706284E+01	-1.08444920E+02	-3.45064000E+01	-6.57646978E+00
					-1.07718000E+02	-7.31334000E+00	-3.45094000E+01	-1.28786000E-13	-2.09300000E-14	-1.52602000E-13	 8.99450403E+01	-1.07718000E+02	-3.45094000E+01	-7.31334000E+00
					-1.07718000E+02	-7.31334000E+00	-3.45094000E+01	-1.29008000E-13	 4.62888000E-14	-4.02168000E-13	 8.99450403E+01	-1.07718000E+02	-3.45094000E+01	-7.31334000E+00
				</DataArray>
			</PointData>
		</Piece>
	</UnstructuredGrid>
</VTKFile>