<?xml version="1.0"?>
<VTKFile type="UnstructuredGrid" version="0.1" byte_order="LittleEndian">
	<UnstructuredGrid>
		<Piece NumberOfPoints="16" NumberOfCells="2">
			<Points>
				<DataArray type="Float64" NumberOfComponents="3" format="ascii">
					 0.00000000E+00	 0.00000000E+00	-5.00000000E-02
					 0.00000000E+00	 0.00000000E+00	 5.00000000E-02
					 1.00000000E+00	 0.00000000E+00	-5.00000000E-02
					 1.00000000E+00	 0.00000000E+00	 5.00000000E-02
					 2.00000000E+00	 0.00000000E+00	-5.00000000E-02
					 2.00000000E+00	 0.00000000E+00	 5.00000000E-02
					 0.00000000E+00	 1.00000000E+00	-5.00000000E-02
					 0.00000000E+00	 1.00000000E+00	 5.00000000E-02
					 1.00000000E+00	 1.00000000E+00	-5.00000000E-02
					 1.00000000E+00	 1.00000000E+00	 5.00000000E-02
					 2.00000000E+00	 1.00000000E+00	-5.00000000E-02
					 2.00000000E+00	 1.00000000E+00	 5.00000000E-02
					 1.00000000E+00	 0.00000000E+00	-5.00000000E-02
					 1.00000000E+00	 0.00000000E+00	 5.00000000E-02
					 1.00000000E+00	 1.00000000E+00	-5.00000000E-02
					 1.00000000E+00	 1.00000000E+00	 5.00000000E-02
				</DataArray>
			</Points>
			<Cells>
				<DataArray type="Int32" Name="connectivity" format="ascii">
					0 12 14 6 1 13 15 7 2 4 10 8 3 5 11 9 
				</DataArray>
				<DataArray type="Int32" Name="offsets" format="ascii">
					8 16 
				</DataArray>
				<DataArray type="UInt8" Name="types" format="ascii">
					12 12 
				</DataArray>
			</Cells>
			<PointData>
				<DataArray type="Float32" Name="U" NumberOfComponents="3" ComponentName0="D1" ComponentName1="D2" ComponentName2="D3" format="ascii">
					 0.00000000E+00	 0.00000000E+00	 0.00000000E+00
					 0.00000000E+00	 0.00000000E+00	 0.00000000E+00
					 4.05933000E-04	-1.21780000E-04	 0.00000000E+00
					 4.05933000E-04	-1.21780000E-04	 0.00000000E+00
					 0.00000000E+00	 0.00000000E+00	 0.00000000E+00
					 0.00000000E+00	 0.00000000E+00	 0.00000000E+00
					 0.00000000E+00	 0.00000000E+00	 0.00000000E+00
					 0.00000000E+00	 0.00000000E+00	 0.00000000E+00
					 4.05933000E-04	 1.21780000E-04	 0.00000000E+00
					 4.05933000E-04	 1.21780000E-04	 0.00000000E+00
					 0.00000000E+00	 0.00000000E+00	 0.00000000E+00
					 0.00000000E+00	 0.00000000E+00	 0.00000000E+00
					-4.05933000E-04	-1.21780000E-04	 0.00000000E+00
					-4.05933000E-04	-1.21780000E-04	 0.00000000E+00
					-4.05933000E-04	 1.21780000E-04	 0.00000000E+00
					-4.05933000E-04	 1.21780000E-04	 0.00000000E+00
				</DataArray>
				<DataArray type="Float32" Name="S" NumberOfComponents="10" ComponentName0="xx" ComponentName1="yy" ComponentName2="zz" ComponentName3="xy" ComponentName4="yz" ComponentName5="zx" ComponentName6="Mises" ComponentName7="Min Principal" ComponentName8="Mid Principal" ComponentName9="Max Principal" format="ascii">
					-1.14750000E+02	-4.91795000E+01	-4.91789000E+01	-9.83600000E+00	 1.02129000E-15	 4.67187000E-15	 6.77478450E+01	-1.16193678E+02	-4.91789000E+01	-4.77358220E+01
					-1.14750000E+02	-4.91795000E+01	-4.91789000E+01	-9.83600000E+00	 1.02129000E-15	 4.67187000E-15	 6.77478450E+01	-1.16193678E+02	-4.91789000E+01	-4.77358220E+01
					-8.52420000E+01	 1.96725000E+01	-1.96708000E+01	 9.83600000E+00	-1.69292000E-14	 7.44621000E-14	 9.33675833E+01	-8.61561841E+01	-1.96708000E+01	 2.05866841E+01
					-8.52420000E+01	 1.96725000E+01	-1.96708000E+01	 9.83600000E+00	-1.12755000E-14	 7.43260000E-14	 9.33675833E+01	-8.61561841E+01	-1.96708000E+01	 2.05866841E+01
					-1.14750000E+02	-4.91795000E+01	-4.91789000E+01	 9.83600000E+00	 1.39510000E-15	-5.14759000E-14	 6.77478450E+01	-1.16193678E+02	-4.91789000E+01	-4.77358220E+01
					-1.14750000E+02	-4.91795000E+01	-4.91789000E+01	 9.83600000E+00	 4.80596000E-15	-5.09680000E-14	 6.77478450E+01	-1.16193678E+02	-4.91789000E+01	-4.77358220E+01
					-1.14750000E+02	-4.91795000E+01	-4.91789000E+01	 9.83600000E+00	-2.73657000E-16	-1.25155000E-15	 6.77478450E+01	-1.16193678E+02	-4.91789000E+01	-4.77358220E+01
					-1.14750000E+02	-4.91795000E+01	-4.91789000E+01	 9.83600000E+00	-2.73657000E-16	-1.25155000E-15	 6.77478450E+01	-1.16193678E+02	-4.91789000E+01	-4.77358220E+01
					-8.52420000E+01	 1.96725000E+01	-1.96708000E+01	-9.83600000E+00	 1.48806000E-15	-3.76963000E-14	 9.33675833E+01	-8.61561841E+01	-1.96708000E+01	 2.05866841E+01
					-8.52420000E+01	 1.96725000E+01	-1.96708000E+01	-9.83600000E+00	-2.68403000E-17	-3.06207000E-14	 9.33675833E+01	-8.61561841E+01	-1.96708000E+01	 2.05866841E+01
					-1.14750000E+02	-4.91795000E+01	-4.91789000E+01	-9.83600000E+00	 1.10018000E-14	 8.00137000E-14	 6.77478450E+01	-1.16193678E+02	-4.91789000E+01	-4.77358220E+01
					-1.14750000E+02	-4.91795000E+01	-4.91789000E+01	-9.83600000E+00	 1.00879000E-14	 5.36069000E-14	 6.77478450E+01	-1.16193678E+02	-4.91789000E+01	-4.77358220E+01
					-8.52420000E+01	 1.96725000E+01	-1.96708000E+01	-9.83600000E+00	-2.73657000E-16	-3.15866000E-14	 9.33675833E+01	-8.61561841E+01	-1.96708000E+01	 2.05866841E+01
					-8.52420000E+01	 1.96725000E+01	-1.96708000E+01	-9.83600000E+00	-2.73657000E-16	-3.15866000E-14	 9.33675833E+01	-8.61561841E+01	-1.96708000E+01	 2.05866841E+01
					-8.52420000E+01	 1.96725000E+01	-1.96708000E+01	 9.83600000E+00	 7.33181000E-17	 8.46374000E-15	 9.33675833E+01	-8.61561841E+01	-1.96708000E+01	 2.05866841E+01
					-8.52420000E+01	 1.96725000E+01	-1.96708000E+01	 9.83600000E+00	 7.33181000E-17	 8.46374000E-15	 9.33675833E+01	-8.61561841E+01	-1.96708000E+01	 2.05866841E+01
				</DataArray>
			</PointData>
		</Piece>
	</UnstructuredGrid>
</VTKFile>