    1C
    1UUSER                                                              
    1UDATE              25.january.2020                                 
    1UTIME              14:52:09                                        
    1UHOST                                                              
    1UPGM               CalculiX                                        
    1UVERSION           Version 2.16                             
    1UCOMPILETIME       Tue  7 Jan 19:57:43 CET 2020                    
    1UDIR                                                               
    1UDBN                                                               
    1UMAT    1EL                                                        
    2C                            16                                     1
 -1         1 1.00000E-01 2.00000E+00 6.12323E-18
 -1         2 1.00000E-01 1.00000E+00 6.12323E-18
 -1         3 1.10000E+00 1.00000E+00 6.73556E-17
 -1         4 1.10000E+00 2.00000E+00 6.73556E-17
 -1         5 1.00000E-01 1.50000E+00 6.12323E-18
 -1         6 6.00000E-01 1.00000E+00 3.67394E-17
 -1         7 1.10000E+00 1.50000E+00 6.73556E-17
 -1         8 6.00000E-01 2.00000E+00 3.67394E-17
 -1         9 1.00000E-01 0.00000E+00 6.12323E-18
 -1        10 1.10000E+00 0.00000E+00 6.73556E-17
 -1        11 1.00000E-01 5.00000E-01 6.12323E-18
 -1        12 6.00000E-01 0.00000E+00 3.67394E-17
 -1        13 1.10000E+00 5.00000E-01 6.73556E-17
 -1        15 1.00000E-01 1.00000E+00 6.12323E-18
 -1        16 1.10000E+00 1.00000E+00 6.73556E-17
 -1        17 6.00000E-01 1.00000E+00 3.67394E-17
 -3
    3C                             2                                     1
 -1         1   10    0    1
 -2         1        15        16         4         5        17         7         8
 -1         2   10    0    1
 -2         2         9        10         3        11        12        13         6
 -3
 9999
