    1C
    1UUSER                                                              
    1UDATE              25.january.2020                                 
    1UTIME              14:52:11                                        
    1UHOST                                                              
    1UPGM               CalculiX                                        
    1UVERSION           Version 2.16                             
    1UCOMPILETIME       Tue  7 Jan 19:57:43 CET 2020                    
    1UDIR                                                               
    1UDBN                                                               
    1UMAT    1EL                                                        
    1UMAT    2SI1                                                       
    2C                           416                                     1
 -1         1 0.00000E+00 0.00000E+00 1.00000E+00
 -1         2 0.00000E+00 0.00000E+00 6.66667E-01
 -1         3 0.00000E+00 3.33333E-01 6.66667E-01
 -1         4 0.00000E+00 3.33333E-01 1.00000E+00
 -1         5 3.33333E-01 0.00000E+00 1.00000E+00
 -1         6 3.33333E-01 0.00000E+00 6.66667E-01
 -1         7 3.33333E-01 3.33333E-01 6.66667E-01
 -1         8 3.33333E-01 3.33333E-01 1.00000E+00
 -1         9 0.00000E+00 0.00000E+00 8.33333E-01
 -1        10 0.00000E+00 1.66667E-01 6.66667E-01
 -1        11 0.00000E+00 3.33333E-01 8.33333E-01
 -1        12 0.00000E+00 1.66667E-01 1.00000E+00
 -1        13 1.66667E-01 0.00000E+00 1.00000E+00
 -1        14 1.66667E-01 0.00000E+00 6.66667E-01
 -1        15 1.66667E-01 3.33333E-01 6.66667E-01
 -1        16 1.66667E-01 3.33333E-01 1.00000E+00
 -1        17 3.33333E-01 0.00000E+00 8.33333E-01
 -1        18 3.33333E-01 1.66667E-01 6.66667E-01
 -1        19 3.33333E-01 3.33333E-01 8.33333E-01
 -1        20 3.33333E-01 1.66667E-01 1.00000E+00
 -1        21 0.00000E+00 6.66667E-01 6.66667E-01
 -1        22 0.00000E+00 6.66667E-01 1.00000E+00
 -1        23 3.33333E-01 6.66667E-01 6.66667E-01
 -1        24 3.33333E-01 6.66667E-01 1.00000E+00
 -1        25 0.00000E+00 5.00000E-01 6.66667E-01
 -1        26 0.00000E+00 6.66667E-01 8.33333E-01
 -1        27 0.00000E+00 5.00000E-01 1.00000E+00
 -1        28 1.66667E-01 6.66667E-01 6.66667E-01
 -1        29 1.66667E-01 6.66667E-01 1.00000E+00
 -1        30 3.33333E-01 5.00000E-01 6.66667E-01
 -1        31 3.33333E-01 6.66667E-01 8.33333E-01
 -1        32 3.33333E-01 5.00000E-01 1.00000E+00
 -1        33 0.00000E+00 1.00000E+00 6.66667E-01
 -1        34 0.00000E+00 1.00000E+00 1.00000E+00
 -1        35 3.33333E-01 1.00000E+00 6.66667E-01
 -1        36 3.33333E-01 1.00000E+00 1.00000E+00
 -1        37 0.00000E+00 8.33333E-01 6.66667E-01
 -1        38 0.00000E+00 1.00000E+00 8.33333E-01
 -1        39 0.00000E+00 8.33333E-01 1.00000E+00
 -1        40 1.66667E-01 1.00000E+00 6.66667E-01
 -1        41 1.66667E-01 1.00000E+00 1.00000E+00
 -1        42 3.33333E-01 8.33333E-01 6.66667E-01
 -1        43 3.33333E-01 1.00000E+00 8.33333E-01
 -1        44 3.33333E-01 8.33333E-01 1.00000E+00
 -1        45 6.66667E-01 0.00000E+00 1.00000E+00
 -1        46 6.66667E-01 0.00000E+00 6.66667E-01
 -1        47 6.66667E-01 3.33333E-01 6.66667E-01
 -1        48 6.66667E-01 3.33333E-01 1.00000E+00
 -1        49 5.00000E-01 0.00000E+00 1.00000E+00
 -1        50 5.00000E-01 0.00000E+00 6.66667E-01
 -1        51 5.00000E-01 3.33333E-01 6.66667E-01
 -1        52 5.00000E-01 3.33333E-01 1.00000E+00
 -1        53 6.66667E-01 0.00000E+00 8.33333E-01
 -1        54 6.66667E-01 1.66667E-01 6.66667E-01
 -1        55 6.66667E-01 3.33333E-01 8.33333E-01
 -1        56 6.66667E-01 1.66667E-01 1.00000E+00
 -1        57 6.66667E-01 6.66667E-01 6.66667E-01
 -1        58 6.66667E-01 6.66667E-01 1.00000E+00
 -1        59 5.00000E-01 6.66667E-01 6.66667E-01
 -1        60 5.00000E-01 6.66667E-01 1.00000E+00
 -1        61 6.66667E-01 5.00000E-01 6.66667E-01
 -1        62 6.66667E-01 6.66667E-01 8.33333E-01
 -1        63 6.66667E-01 5.00000E-01 1.00000E+00
 -1        64 6.66667E-01 1.00000E+00 6.66667E-01
 -1        65 6.66667E-01 1.00000E+00 1.00000E+00
 -1        66 5.00000E-01 1.00000E+00 6.66667E-01
 -1        67 5.00000E-01 1.00000E+00 1.00000E+00
 -1        68 6.66667E-01 8.33333E-01 6.66667E-01
 -1        69 6.66667E-01 1.00000E+00 8.33333E-01
 -1        70 6.66667E-01 8.33333E-01 1.00000E+00
 -1        71 1.00000E+00 0.00000E+00 1.00000E+00
 -1        72 1.00000E+00 0.00000E+00 6.66667E-01
 -1        73 1.00000E+00 3.33333E-01 6.66667E-01
 -1        74 1.00000E+00 3.33333E-01 1.00000E+00
 -1        75 8.33333E-01 0.00000E+00 1.00000E+00
 -1        76 8.33333E-01 0.00000E+00 6.66667E-01
 -1        77 8.33333E-01 3.33333E-01 6.66667E-01
 -1        78 8.33333E-01 3.33333E-01 1.00000E+00
 -1        79 1.00000E+00 0.00000E+00 8.33333E-01
 -1        80 1.00000E+00 1.66667E-01 6.66667E-01
 -1        81 1.00000E+00 3.33333E-01 8.33333E-01
 -1        82 1.00000E+00 1.66667E-01 1.00000E+00
 -1        83 1.00000E+00 6.66667E-01 6.66667E-01
 -1        84 1.00000E+00 6.66667E-01 1.00000E+00
 -1        85 8.33333E-01 6.66667E-01 6.66667E-01
 -1        86 8.33333E-01 6.66667E-01 1.00000E+00
 -1        87 1.00000E+00 5.00000E-01 6.66667E-01
 -1        88 1.00000E+00 6.66667E-01 8.33333E-01
 -1        89 1.00000E+00 5.00000E-01 1.00000E+00
 -1        90 1.00000E+00 1.00000E+00 6.66667E-01
 -1        91 1.00000E+00 1.00000E+00 1.00000E+00
 -1        92 8.33333E-01 1.00000E+00 6.66667E-01
 -1        93 8.33333E-01 1.00000E+00 1.00000E+00
 -1        94 1.00000E+00 8.33333E-01 6.66667E-01
 -1        95 1.00000E+00 1.00000E+00 8.33333E-01
 -1        96 1.00000E+00 8.33333E-01 1.00000E+00
 -1        97 0.00000E+00 0.00000E+00 3.33333E-01
 -1        98 0.00000E+00 3.33333E-01 3.33333E-01
 -1        99 3.33333E-01 0.00000E+00 3.33333E-01
 -1       100 3.33333E-01 3.33333E-01 3.33333E-01
 -1       101 0.00000E+00 0.00000E+00 5.00000E-01
 -1       102 0.00000E+00 1.66667E-01 3.33333E-01
 -1       103 0.00000E+00 3.33333E-01 5.00000E-01
 -1       104 1.66667E-01 0.00000E+00 3.33333E-01
 -1       105 1.66667E-01 3.33333E-01 3.33333E-01
 -1       106 3.33333E-01 0.00000E+00 5.00000E-01
 -1       107 3.33333E-01 1.66667E-01 3.33333E-01
 -1       108 3.33333E-01 3.33333E-01 5.00000E-01
 -1       109 0.00000E+00 6.66667E-01 3.33333E-01
 -1       110 3.33333E-01 6.66667E-01 3.33333E-01
 -1       111 0.00000E+00 5.00000E-01 3.33333E-01
 -1       112 0.00000E+00 6.66667E-01 5.00000E-01
 -1       113 1.66667E-01 6.66667E-01 3.33333E-01
 -1       114 3.33333E-01 5.00000E-01 3.33333E-01
 -1       115 3.33333E-01 6.66667E-01 5.00000E-01
 -1       116 0.00000E+00 1.00000E+00 3.33333E-01
 -1       117 3.33333E-01 1.00000E+00 3.33333E-01
 -1       118 0.00000E+00 8.33333E-01 3.33333E-01
 -1       119 0.00000E+00 1.00000E+00 5.00000E-01
 -1       120 1.66667E-01 1.00000E+00 3.33333E-01
 -1       121 3.33333E-01 8.33333E-01 3.33333E-01
 -1       122 3.33333E-01 1.00000E+00 5.00000E-01
 -1       123 6.66667E-01 0.00000E+00 3.33333E-01
 -1       124 6.66667E-01 3.33333E-01 3.33333E-01
 -1       125 5.00000E-01 0.00000E+00 3.33333E-01
 -1       126 5.00000E-01 3.33333E-01 3.33333E-01
 -1       127 6.66667E-01 0.00000E+00 5.00000E-01
 -1       128 6.66667E-01 1.66667E-01 3.33333E-01
 -1       129 6.66667E-01 3.33333E-01 5.00000E-01
 -1       130 6.66667E-01 6.66667E-01 3.33333E-01
 -1       131 5.00000E-01 6.66667E-01 3.33333E-01
 -1       132 6.66667E-01 5.00000E-01 3.33333E-01
 -1       133 6.66667E-01 6.66667E-01 5.00000E-01
 -1       134 6.66667E-01 1.00000E+00 3.33333E-01
 -1       135 5.00000E-01 1.00000E+00 3.33333E-01
 -1       136 6.66667E-01 8.33333E-01 3.33333E-01
 -1       137 6.66667E-01 1.00000E+00 5.00000E-01
 -1       138 1.00000E+00 0.00000E+00 3.33333E-01
 -1       139 1.00000E+00 3.33333E-01 3.33333E-01
 -1       140 8.33333E-01 0.00000E+00 3.33333E-01
 -1       141 8.33333E-01 3.33333E-01 3.33333E-01
 -1       142 1.00000E+00 0.00000E+00 5.00000E-01
 -1       143 1.00000E+00 1.66667E-01 3.33333E-01
 -1       144 1.00000E+00 3.33333E-01 5.00000E-01
 -1       145 1.00000E+00 6.66667E-01 3.33333E-01
 -1       146 8.33333E-01 6.66667E-01 3.33333E-01
 -1       147 1.00000E+00 5.00000E-01 3.33333E-01
 -1       148 1.00000E+00 6.66667E-01 5.00000E-01
 -1       149 1.00000E+00 1.00000E+00 3.33333E-01
 -1       150 8.33333E-01 1.00000E+00 3.33333E-01
 -1       151 1.00000E+00 8.33333E-01 3.33333E-01
 -1       152 1.00000E+00 1.00000E+00 5.00000E-01
 -1       153 0.00000E+00 0.00000E+00 0.00000E+00
 -1       154 0.00000E+00 3.33333E-01 0.00000E+00
 -1       155 3.33333E-01 0.00000E+00 0.00000E+00
 -1       156 3.33333E-01 3.33333E-01 0.00000E+00
 -1       157 0.00000E+00 0.00000E+00 1.66667E-01
 -1       158 0.00000E+00 1.66667E-01 0.00000E+00
 -1       159 0.00000E+00 3.33333E-01 1.66667E-01
 -1       160 1.66667E-01 0.00000E+00 0.00000E+00
 -1       161 1.66667E-01 3.33333E-01 0.00000E+00
 -1       162 3.33333E-01 0.00000E+00 1.66667E-01
 -1       163 3.33333E-01 1.66667E-01 0.00000E+00
 -1       164 3.33333E-01 3.33333E-01 1.66667E-01
 -1       165 0.00000E+00 6.66667E-01 0.00000E+00
 -1       166 3.33333E-01 6.66667E-01 0.00000E+00
 -1       167 0.00000E+00 5.00000E-01 0.00000E+00
 -1       168 0.00000E+00 6.66667E-01 1.66667E-01
 -1       169 1.66667E-01 6.66667E-01 0.00000E+00
 -1       170 3.33333E-01 5.00000E-01 0.00000E+00
 -1       171 3.33333E-01 6.66667E-01 1.66667E-01
 -1       172 0.00000E+00 1.00000E+00 0.00000E+00
 -1       173 3.33333E-01 1.00000E+00 0.00000E+00
 -1       174 0.00000E+00 8.33333E-01 0.00000E+00
 -1       175 0.00000E+00 1.00000E+00 1.66667E-01
 -1       176 1.66667E-01 1.00000E+00 0.00000E+00
 -1       177 3.33333E-01 8.33333E-01 0.00000E+00
 -1       178 3.33333E-01 1.00000E+00 1.66667E-01
 -1       179 6.66667E-01 0.00000E+00 0.00000E+00
 -1       180 6.66667E-01 3.33333E-01 0.00000E+00
 -1       181 5.00000E-01 0.00000E+00 0.00000E+00
 -1       182 5.00000E-01 3.33333E-01 0.00000E+00
 -1       183 6.66667E-01 0.00000E+00 1.66667E-01
 -1       184 6.66667E-01 1.66667E-01 0.00000E+00
 -1       185 6.66667E-01 3.33333E-01 1.66667E-01
 -1       186 6.66667E-01 6.66667E-01 0.00000E+00
 -1       187 5.00000E-01 6.66667E-01 0.00000E+00
 -1       188 6.66667E-01 5.00000E-01 0.00000E+00
 -1       189 6.66667E-01 6.66667E-01 1.66667E-01
 -1       190 6.66667E-01 1.00000E+00 0.00000E+00
 -1       191 5.00000E-01 1.00000E+00 0.00000E+00
 -1       192 6.66667E-01 8.33333E-01 0.00000E+00
 -1       193 6.66667E-01 1.00000E+00 1.66667E-01
 -1       194 1.00000E+00 0.00000E+00 0.00000E+00
 -1       195 1.00000E+00 3.33333E-01 0.00000E+00
 -1       196 8.33333E-01 0.00000E+00 0.00000E+00
 -1       197 8.33333E-01 3.33333E-01 0.00000E+00
 -1       198 1.00000E+00 0.00000E+00 1.66667E-01
 -1       199 1.00000E+00 1.66667E-01 0.00000E+00
 -1       200 1.00000E+00 3.33333E-01 1.66667E-01
 -1       201 1.00000E+00 6.66667E-01 0.00000E+00
 -1       202 8.33333E-01 6.66667E-01 0.00000E+00
 -1       203 1.00000E+00 5.00000E-01 0.00000E+00
 -1       204 1.00000E+00 6.66667E-01 1.66667E-01
 -1       205 1.00000E+00 1.00000E+00 0.00000E+00
 -1       206 8.33333E-01 1.00000E+00 0.00000E+00
 -1       207 1.00000E+00 8.33333E-01 0.00000E+00
 -1       208 1.00000E+00 1.00000E+00 1.66667E-01
 -1       209 6.91340E-01 0.00000E+00 1.38268E+00
 -1       210 5.63780E-01 0.00000E+00 1.38268E+00
 -1       211 5.63780E-01 1.27560E-01 1.38268E+00
 -1       212 6.91340E-01 1.27560E-01 1.38268E+00
 -1       213 6.91340E-01 0.00000E+00 1.26781E+00
 -1       214 5.64274E-01 0.00000E+00 1.25655E+00
 -1       215 5.64274E-01 1.27560E-01 1.25655E+00
 -1       216 6.91340E-01 1.27560E-01 1.26781E+00
 -1       217 6.27560E-01 0.00000E+00 1.38268E+00
 -1       218 5.63780E-01 6.37800E-02 1.38268E+00
 -1       219 6.27560E-01 1.27560E-01 1.38268E+00
 -1       220 6.91340E-01 6.37800E-02 1.38268E+00
 -1       221 6.91340E-01 0.00000E+00 1.32524E+00
 -1       222 5.64027E-01 0.00000E+00 1.31961E+00
 -1       223 5.64027E-01 1.27560E-01 1.31961E+00
 -1       224 6.91340E-01 1.27560E-01 1.32524E+00
 -1       225 6.28176E-01 0.00000E+00 1.26080E+00
 -1       226 5.64274E-01 6.37800E-02 1.25655E+00
 -1       227 6.28176E-01 1.27560E-01 1.26080E+00
 -1       228 6.91340E-01 6.37800E-02 1.26781E+00
 -1       229 5.63780E-01 2.55120E-01 1.38268E+00
 -1       230 6.91340E-01 2.55120E-01 1.38268E+00
 -1       231 5.64274E-01 2.55120E-01 1.25655E+00
 -1       232 6.91340E-01 2.55120E-01 1.26781E+00
 -1       233 5.63780E-01 1.91340E-01 1.38268E+00
 -1       234 6.27560E-01 2.55120E-01 1.38268E+00
 -1       235 6.91340E-01 1.91340E-01 1.38268E+00
 -1       236 5.64027E-01 2.55120E-01 1.31961E+00
 -1       237 6.91340E-01 2.55120E-01 1.32524E+00
 -1       238 5.64274E-01 1.91340E-01 1.25655E+00
 -1       239 6.28176E-01 2.55120E-01 1.26080E+00
 -1       240 6.91340E-01 1.91340E-01 1.26781E+00
 -1       241 5.63780E-01 3.82680E-01 1.38268E+00
 -1       242 6.91340E-01 3.82680E-01 1.38268E+00
 -1       243 5.64274E-01 3.82680E-01 1.25655E+00
 -1       244 6.91340E-01 3.82680E-01 1.26781E+00
 -1       245 5.63780E-01 3.18900E-01 1.38268E+00
 -1       246 6.27560E-01 3.82680E-01 1.38268E+00
 -1       247 6.91340E-01 3.18900E-01 1.38268E+00
 -1       248 5.64027E-01 3.82680E-01 1.31961E+00
 -1       249 6.91340E-01 3.82680E-01 1.32524E+00
 -1       250 5.64274E-01 3.18900E-01 1.25655E+00
 -1       251 6.28176E-01 3.82680E-01 1.26080E+00
 -1       252 6.91340E-01 3.18900E-01 1.26781E+00
 -1       253 6.91340E-01 0.00000E+00 1.15293E+00
 -1       254 5.64768E-01 0.00000E+00 1.13041E+00
 -1       255 5.64768E-01 1.27560E-01 1.13041E+00
 -1       256 6.91340E-01 1.27560E-01 1.15293E+00
 -1       257 6.91340E-01 0.00000E+00 1.21037E+00
 -1       258 5.64521E-01 0.00000E+00 1.19348E+00
 -1       259 5.64521E-01 1.27560E-01 1.19348E+00
 -1       260 6.91340E-01 1.27560E-01 1.21037E+00
 -1       261 6.28792E-01 0.00000E+00 1.13892E+00
 -1       262 5.64768E-01 6.37800E-02 1.13041E+00
 -1       263 6.28792E-01 1.27560E-01 1.13892E+00
 -1       264 6.91340E-01 6.37800E-02 1.15293E+00
 -1       265 5.64768E-01 2.55120E-01 1.13041E+00
 -1       266 6.91340E-01 2.55120E-01 1.15293E+00
 -1       267 5.64521E-01 2.55120E-01 1.19348E+00
 -1       268 6.91340E-01 2.55120E-01 1.21037E+00
 -1       269 5.64768E-01 1.91340E-01 1.13041E+00
 -1       270 6.28792E-01 2.55120E-01 1.13892E+00
 -1       271 6.91340E-01 1.91340E-01 1.15293E+00
 -1       272 5.64768E-01 3.82680E-01 1.13041E+00
 -1       273 6.91340E-01 3.82680E-01 1.15293E+00
 -1       274 5.64521E-01 3.82680E-01 1.19348E+00
 -1       275 6.91340E-01 3.82680E-01 1.21037E+00
 -1       276 5.64768E-01 3.18900E-01 1.13041E+00
 -1       277 6.28792E-01 3.82680E-01 1.13892E+00
 -1       278 6.91340E-01 3.18900E-01 1.15293E+00
 -1       279 6.91340E-01 0.00000E+00 1.03806E+00
 -1       280 5.65262E-01 0.00000E+00 1.00000E+00
 -1       281 5.65262E-01 1.27560E-01 1.00000E+00
 -1       282 6.91340E-01 1.27560E-01 1.03806E+00
 -1       283 6.91340E-01 0.00000E+00 1.09550E+00
 -1       284 5.65015E-01 0.00000E+00 1.06734E+00
 -1       285 5.65015E-01 1.27560E-01 1.06734E+00
 -1       286 6.91340E-01 1.27560E-01 1.09550E+00
 -1       287 6.29408E-01 0.00000E+00 1.01704E+00
 -1       288 5.65262E-01 6.37800E-02 1.00000E+00
 -1       289 6.29408E-01 1.27560E-01 1.01704E+00
 -1       290 6.91340E-01 6.37800E-02 1.03806E+00
 -1       291 5.65262E-01 2.55120E-01 1.00000E+00
 -1       292 6.91340E-01 2.55120E-01 1.03806E+00
 -1       293 5.65015E-01 2.55120E-01 1.06734E+00
 -1       294 6.91340E-01 2.55120E-01 1.09550E+00
 -1       295 5.65262E-01 1.91340E-01 1.00000E+00
 -1       296 6.29408E-01 2.55120E-01 1.01704E+00
 -1       297 6.91340E-01 1.91340E-01 1.03806E+00
 -1       298 5.65262E-01 3.82680E-01 1.00000E+00
 -1       299 6.91340E-01 3.82680E-01 1.03806E+00
 -1       300 5.65015E-01 3.82680E-01 1.06734E+00
 -1       301 6.91340E-01 3.82680E-01 1.09550E+00
 -1       302 5.65262E-01 3.18900E-01 1.00000E+00
 -1       303 6.29408E-01 3.82680E-01 1.01704E+00
 -1       304 6.91340E-01 3.18900E-01 1.03806E+00
 -1       305 4.36220E-01 0.00000E+00 1.38268E+00
 -1       306 4.36220E-01 1.27560E-01 1.38268E+00
 -1       307 4.35726E-01 0.00000E+00 1.25655E+00
 -1       308 4.35726E-01 1.27560E-01 1.25655E+00
 -1       309 5.00000E-01 0.00000E+00 1.38268E+00
 -1       310 4.36220E-01 6.37800E-02 1.38268E+00
 -1       311 5.00000E-01 1.27560E-01 1.38268E+00
 -1       312 4.35973E-01 0.00000E+00 1.31961E+00
 -1       313 4.35973E-01 1.27560E-01 1.31961E+00
 -1       314 5.00000E-01 0.00000E+00 1.25512E+00
 -1       315 4.35726E-01 6.37800E-02 1.25655E+00
 -1       316 5.00000E-01 1.27560E-01 1.25512E+00
 -1       317 4.36220E-01 2.55120E-01 1.38268E+00
 -1       318 4.35726E-01 2.55120E-01 1.25655E+00
 -1       319 4.36220E-01 1.91340E-01 1.38268E+00
 -1       320 5.00000E-01 2.55120E-01 1.38268E+00
 -1       321 4.35973E-01 2.55120E-01 1.31961E+00
 -1       322 4.35726E-01 1.91340E-01 1.25655E+00
 -1       323 5.00000E-01 2.55120E-01 1.25512E+00
 -1       324 4.36220E-01 3.82680E-01 1.38268E+00
 -1       325 4.35726E-01 3.82680E-01 1.25655E+00
 -1       326 4.36220E-01 3.18900E-01 1.38268E+00
 -1       327 5.00000E-01 3.82680E-01 1.38268E+00
 -1       328 4.35973E-01 3.82680E-01 1.31961E+00
 -1       329 4.35726E-01 3.18900E-01 1.25655E+00
 -1       330 5.00000E-01 3.82680E-01 1.25512E+00
 -1       331 4.35232E-01 0.00000E+00 1.13041E+00
 -1       332 4.35232E-01 1.27560E-01 1.13041E+00
 -1       333 4.35479E-01 0.00000E+00 1.19348E+00
 -1       334 4.35479E-01 1.27560E-01 1.19348E+00
 -1       335 5.00000E-01 0.00000E+00 1.12756E+00
 -1       336 4.35232E-01 6.37800E-02 1.13041E+00
 -1       337 5.00000E-01 1.27560E-01 1.12756E+00
 -1       338 4.35232E-01 2.55120E-01 1.13041E+00
 -1       339 4.35479E-01 2.55120E-01 1.19348E+00
 -1       340 4.35232E-01 1.91340E-01 1.13041E+00
 -1       341 5.00000E-01 2.55120E-01 1.12756E+00
 -1       342 4.35232E-01 3.82680E-01 1.13041E+00
 -1       343 4.35479E-01 3.82680E-01 1.19348E+00
 -1       344 4.35232E-01 3.18900E-01 1.13041E+00
 -1       345 5.00000E-01 3.82680E-01 1.12756E+00
 -1       346 4.34738E-01 0.00000E+00 1.00000E+00
 -1       347 4.34738E-01 1.27560E-01 1.00000E+00
 -1       348 4.34985E-01 0.00000E+00 1.06734E+00
 -1       349 4.34985E-01 1.27560E-01 1.06734E+00
 -1       350 5.00000E-01 0.00000E+00 1.00000E+00
 -1       351 4.34738E-01 6.37800E-02 1.00000E+00
 -1       352 5.00000E-01 1.27560E-01 1.00000E+00
 -1       353 4.34738E-01 2.55120E-01 1.00000E+00
 -1       354 4.34985E-01 2.55120E-01 1.06734E+00
 -1       355 4.34738E-01 1.91340E-01 1.00000E+00
 -1       356 5.00000E-01 2.55120E-01 1.00000E+00
 -1       357 4.34738E-01 3.82680E-01 1.00000E+00
 -1       358 4.34985E-01 3.82680E-01 1.06734E+00
 -1       359 4.34738E-01 3.18900E-01 1.00000E+00
 -1       360 5.00000E-01 3.82680E-01 1.00000E+00
 -1       361 3.08660E-01 0.00000E+00 1.38268E+00
 -1       362 3.08660E-01 1.27560E-01 1.38268E+00
 -1       363 3.08660E-01 0.00000E+00 1.26781E+00
 -1       364 3.08660E-01 1.27560E-01 1.26781E+00
 -1       365 3.72440E-01 0.00000E+00 1.38268E+00
 -1       366 3.08660E-01 6.37800E-02 1.38268E+00
 -1       367 3.72440E-01 1.27560E-01 1.38268E+00
 -1       368 3.08660E-01 0.00000E+00 1.32524E+00
 -1       369 3.08660E-01 1.27560E-01 1.32524E+00
 -1       370 3.71824E-01 0.00000E+00 1.26080E+00
 -1       371 3.08660E-01 6.37800E-02 1.26781E+00
 -1       372 3.71824E-01 1.27560E-01 1.26080E+00
 -1       373 3.08660E-01 2.55120E-01 1.38268E+00
 -1       374 3.08660E-01 2.55120E-01 1.26781E+00
 -1       375 3.08660E-01 1.91340E-01 1.38268E+00
 -1       376 3.72440E-01 2.55120E-01 1.38268E+00
 -1       377 3.08660E-01 2.55120E-01 1.32524E+00
 -1       378 3.08660E-01 1.91340E-01 1.26781E+00
 -1       379 3.71824E-01 2.55120E-01 1.26080E+00
 -1       380 3.08660E-01 3.82680E-01 1.38268E+00
 -1       381 3.08660E-01 3.82680E-01 1.26781E+00
 -1       382 3.08660E-01 3.18900E-01 1.38268E+00
 -1       383 3.72440E-01 3.82680E-01 1.38268E+00
 -1       384 3.08660E-01 3.82680E-01 1.32524E+00
 -1       385 3.08660E-01 3.18900E-01 1.26781E+00
 -1       386 3.71824E-01 3.82680E-01 1.26080E+00
 -1       387 3.08660E-01 0.00000E+00 1.15293E+00
 -1       388 3.08660E-01 1.27560E-01 1.15293E+00
 -1       389 3.08660E-01 0.00000E+00 1.21037E+00
 -1       390 3.08660E-01 1.27560E-01 1.21037E+00
 -1       391 3.71208E-01 0.00000E+00 1.13892E+00
 -1       392 3.08660E-01 6.37800E-02 1.15293E+00
 -1       393 3.71208E-01 1.27560E-01 1.13892E+00
 -1       394 3.08660E-01 2.55120E-01 1.15293E+00
 -1       395 3.08660E-01 2.55120E-01 1.21037E+00
 -1       396 3.08660E-01 1.91340E-01 1.15293E+00
 -1       397 3.71208E-01 2.55120E-01 1.13892E+00
 -1       398 3.08660E-01 3.82680E-01 1.15293E+00
 -1       399 3.08660E-01 3.82680E-01 1.21037E+00
 -1       400 3.08660E-01 3.18900E-01 1.15293E+00
 -1       401 3.71208E-01 3.82680E-01 1.13892E+00
 -1       402 3.08660E-01 0.00000E+00 1.03806E+00
 -1       403 3.08660E-01 1.27560E-01 1.03806E+00
 -1       404 3.08660E-01 0.00000E+00 1.09550E+00
 -1       405 3.08660E-01 1.27560E-01 1.09550E+00
 -1       406 3.70592E-01 0.00000E+00 1.01704E+00
 -1       407 3.08660E-01 6.37800E-02 1.03806E+00
 -1       408 3.70592E-01 1.27560E-01 1.01704E+00
 -1       409 3.08660E-01 2.55120E-01 1.03806E+00
 -1       410 3.08660E-01 2.55120E-01 1.09550E+00
 -1       411 3.08660E-01 1.91340E-01 1.03806E+00
 -1       412 3.70592E-01 2.55120E-01 1.01704E+00
 -1       413 3.08660E-01 3.82680E-01 1.03806E+00
 -1       414 3.08660E-01 3.82680E-01 1.09550E+00
 -1       415 3.08660E-01 3.18900E-01 1.03806E+00
 -1       416 3.70592E-01 3.82680E-01 1.01704E+00
 -3
    3C                            54                                     1
 -1         1    4    0    1
 -2         1         2         3         4         5         6         7         8         9        10
 -2        11        12        13        14        15        16        17        18        19        20
 -1         2    4    0    1
 -2         4         3        21        22         8         7        23        24        11        25
 -2        26        27        16        15        28        29        19        30        31        32
 -1         3    4    0    1
 -2        22        21        33        34        24        23        35        36        26        37
 -2        38        39        29        28        40        41        31        42        43        44
 -1         4    4    0    1
 -2         5         6         7         8        45        46        47        48        17        18
 -2        19        20        49        50        51        52        53        54        55        56
 -1         5    4    0    1
 -2         8         7        23        24        48        47        57        58        19        30
 -2        31        32        52        51        59        60        55        61        62        63
 -1         6    4    0    1
 -2        24        23        35        36        58        57        64        65        31        42
 -2        43        44        60        59        66        67        62        68        69        70
 -1         7    4    0    1
 -2        45        46        47        48        71        72        73        74        53        54
 -2        55        56        75        76        77        78        79        80        81        82
 -1         8    4    0    1
 -2        48        47        57        58        74        73        83        84        55        61
 -2        62        63        78        77        85        86        81        87        88        89
 -1         9    4    0    1
 -2        58        57        64        65        84        83        90        91        62        68
 -2        69        70        86        85        92        93        88        94        95        96
 -1        10    4    0    1
 -2         2        97        98         3         6        99       100         7       101       102
 -2       103        10        14       104       105        15       106       107       108        18
 -1        11    4    0    1
 -2         3        98       109        21         7       100       110        23       103       111
 -2       112        25        15       105       113        28       108       114       115        30
 -1        12    4    0    1
 -2        21       109       116        33        23       110       117        35       112       118
 -2       119        37        28       113       120        40       115       121       122        42
 -1        13    4    0    1
 -2         6        99       100         7        46       123       124        47       106       107
 -2       108        18        50       125       126        51       127       128       129        54
 -1        14    4    0    1
 -2         7       100       110        23        47       124       130        57       108       114
 -2       115        30        51       126       131        59       129       132       133        61
 -1        15    4    0    1
 -2        23       110       117        35        57       130       134        64       115       121
 -2       122        42        59       131       135        66       133       136       137        68
 -1        16    4    0    1
 -2        46       123       124        47        72       138       139        73       127       128
 -2       129        54        76       140       141        77       142       143       144        80
 -1        17    4    0    1
 -2        47       124       130        57        73       139       145        83       129       132
 -2       133        61        77       141       146        85       144       147       148        87
 -1        18    4    0    1
 -2        57       130       134        64        83       145       149        90       133       136
 -2       137        68        85       146       150        92       148       151       152        94
 -1        19    4    0    1
 -2        97       153       154        98        99       155       156       100       157       158
 -2       159       102       104       160       161       105       162       163       164       107
 -1        20    4    0    1
 -2        98       154       165       109       100       156       166       110       159       167
 -2       168       111       105       161       169       113       164       170       171       114
 -1        21    4    0    1
 -2       109       165       172       116       110       166       173       117       168       174
 -2       175       118       113       169       176       120       171       177       178       121
 -1        22    4    0    1
 -2        99       155       156       100       123       179       180       124       162       163
 -2       164       107       125       181       182       126       183       184       185       128
 -1        23    4    0    1
 -2       100       156       166       110       124       180       186       130       164       170
 -2       171       114       126       182       187       131       185       188       189       132
 -1        24    4    0    1
 -2       110       166       173       117       130       186       190       134       171       177
 -2       178       121       131       187       191       135       189       192       193       136
 -1        25    4    0    1
 -2       123       179       180       124       138       194       195       139       183       184
 -2       185       128       140       196       197       141       198       199       200       143
 -1        26    4    0    1
 -2       124       180       186       130       139       195       201       145       185       188
 -2       189       132       141       197       202       146       200       203       204       147
 -1        27    4    0    1
 -2       130       186       190       134       145       201       205       149       189       192
 -2       193       136       146       202       206       150       204       207       208       151
 -1        28    4    0    1
 -2       209       210       211       212       213       214       215       216       217       218
 -2       219       220       221       222       223       224       225       226       227       228
 -1        29    4    0    1
 -2       212       211       229       230       216       215       231       232       219       233
 -2       234       235       224       223       236       237       227       238       239       240
 -1        30    4    0    1
 -2       230       229       241       242       232       231       243       244       234       245
 -2       246       247       237       236       248       249       239       250       251       252
 -1        31    4    0    1
 -2       213       214       215       216       253       254       255       256       225       226
 -2       227       228       257       258       259       260       261       262       263       264
 -1        32    4    0    1
 -2       216       215       231       232       256       255       265       266       227       238
 -2       239       240       260       259       267       268       263       269       270       271
 -1        33    4    0    1
 -2       232       231       243       244       266       265       272       273       239       250
 -2       251       252       268       267       274       275       270       276       277       278
 -1        34    4    0    1
 -2       253       254       255       256       279       280       281       282       261       262
 -2       263       264       283       284       285       286       287       288       289       290
 -1        35    4    0    1
 -2       256       255       265       266       282       281       291       292       263       269