    1C
    1UUSER                                                              
    1UDATE              25.january.2020                                 
    1UTIME              14:53:24                                        
    1UHOST                                                              
    1UPGM               CalculiX                                        
    1UVERSION           Version 2.16                             
    1UCOMPILETIME       Tue  7 Jan 19:57:43 CET 2020                    
    1UDIR                                                               
    1UDBN                                                               
    1UMAT    1M_EL                                                      
    2C                            32                                     1
 -1        31 6.00000E-01-7.50000E-03-1.50000E-02
 -1        32 6.00000E-01 7.50000E-03-1.50000E-02
 -1        33 6.00000E-01 7.50000E-03 1.50000E-02
 -1        34 6.00000E-01-7.50000E-03 1.50000E-02
 -1        39 8.00000E-01-7.50000E-03-1.50000E-02
 -1        40 8.00000E-01 7.50000E-03-1.50000E-02
 -1        41 8.00000E-01 7.50000E-03 1.50000E-02
 -1        42 8.00000E-01-7.50000E-03 1.50000E-02
 -1        43 8.00000E-01 0.00000E+00-1.50000E-02
 -1        44 8.00000E-01 7.50000E-03 0.00000E+00
 -1        45 8.00000E-01 0.00000E+00 1.50000E-02
 -1        46 8.00000E-01-7.50000E-03 0.00000E+00
 -1        47 0.00000E+00-7.50000E-03-1.50000E-02
 -1        48 0.00000E+00 7.50000E-03-1.50000E-02
 -1        49 0.00000E+00 7.50000E-03 1.50000E-02
 -1        50 0.00000E+00-7.50000E-03 1.50000E-02
 -1        51 0.00000E+00 0.00000E+00-1.50000E-02
 -1        52 0.00000E+00 7.50000E-03 0.00000E+00
 -1        53 0.00000E+00 0.00000E+00 1.50000E-02
 -1        54 0.00000E+00-7.50000E-03 0.00000E+00
 -1        55 2.00000E-01-7.50000E-03-1.50000E-02
 -1        56 2.00000E-01 7.50000E-03-1.50000E-02
 -1        57 2.00000E-01 7.50000E-03 1.50000E-02
 -1        58 2.00000E-01-7.50000E-03 1.50000E-02
 -1        63 4.00000E-01-7.50000E-03-1.50000E-02
 -1        64 4.00000E-01 7.50000E-03-1.50000E-02
 -1        65 4.00000E-01 7.50000E-03 1.50000E-02
 -1        66 4.00000E-01-7.50000E-03 1.50000E-02
 -1        67 4.00000E-01 0.00000E+00-1.50000E-02
 -1        68 4.00000E-01 7.50000E-03 0.00000E+00
 -1        69 4.00000E-01 0.00000E+00 1.50000E-02
 -1        70 4.00000E-01-7.50000E-03 0.00000E+00
 -3
    3C                             2                                     1
 -1         3    4    0    1
 -2        47        63        64        48        50        66        65        49        55        67
 -2        56        51        54        70        68        52        58        69        57        53
 -1         5    4    0    1
 -2        63        39        40        64        66        42        41        65        31        43
 -2        32        67        70        46        44        68        34        45        33        69
 -3
 9999
