<?xml version="1.0"?>
<VTKFile type="UnstructuredGrid" version="0.1" byte_order="LittleEndian">
	<UnstructuredGrid>
		<Piece NumberOfPoints="20" NumberOfCells="1">
			<Points>
				<DataArray type="Float64" NumberOfComponents="3" format="ascii">
					 1.00000000E+00	 0.00000000E+00	 0.00000000E+00
					 5.00000000E-01	 0.00000000E+00	 0.00000000E+00
					 7.50000000E-01	 0.00000000E+00	 0.00000000E+00
					 1.00000000E+00	 2.50000000E-01	 0.00000000E+00
					 1.00000000E+00	 5.00000000E-01	 0.00000000E+00
					 1.00000000E+00	 0.00000000E+00	 5.00000000E-01
					 1.00000000E+00	 0.00000000E+00	 1.00000000E+00
					 5.00000000E-01	 2.50000000E-01	 0.00000000E+00
					 5.00000000E-01	 5.00000000E-01	 0.00000000E+00
					 7.50000000E-01	 5.00000000E-01	 0.00000000E+00
					 5.00000000E-01	 0.00000000E+00	 5.00000000E-01
					 5.00000000E-01	 0.00000000E+00	 1.00000000E+00
					 7.50000000E-01	 0.00000000E+00	 1.00000000E+00
					 1.00000000E+00	 5.00000000E-01	 5.00000000E-01
					 1.00000000E+00	 2.50000000E-01	 1.00000000E+00
					 1.00000000E+00	 5.00000000E-01	 1.00000000E+00
					 5.00000000E-01	 5.00000000E-01	 5.00000000E-01
					 5.00000000E-01	 2.50000000E-01	 1.00000000E+00
					 5.00000000E-01	 5.00000000E-01	 1.00000000E+00
					 7.50000000E-01	 5.00000000E-01	 1.00000000E+00
				</DataArray>
			</Points>
			<Cells>
				<DataArray type="Int32" Name="connectivity" format="ascii">
					1 0 4 8 11 6 15 18 2 3 9 7 12 14 19 17 10 5 13 16 
				</DataArray>
				<DataArray type="Int32" Name="offsets" format="ascii">
					20 
				</DataArray>
				<DataArray type="UInt8" Name="types" format="ascii">
					25 
				</DataArray>
			</Cells>
			<PointData>
				<DataArray type="Float32" Name="U" NumberOfComponents="3" ComponentName0="D1" ComponentName1="D2" ComponentName2="D3" format="ascii">
					 0.00000000E+00	 0.00000000E+00	 0.00000000E+00
					 1.12652000E-03	 0.00000000E+00	 0.00000000E+00
					 5.63915000E-04	-5.31185000E-07	 0.00000000E+00
					-1.55891000E-04	-4.97784000E-04	 0.00000000E+00
					-3.12890000E-04	-9.99789000E-04	 0.00000000E+00
					-2.27294000E-05	 1.13861000E-04	 3.01098000E-03
					-4.95105000E-05	 2.27754000E-04	 6.03094000E-03
					 9.75608000E-04	-4.94766000E-04	 0.00000000E+00
					 8.23679000E-04	-9.94344000E-04	 0.00000000E+00
					 2.56242000E-04	-9.97775000E-04	 0.00000000E+00
					 1.10959000E-03	 1.17097000E-04	 3.00560000E-03
					 1.08706000E-03	 2.33213000E-04	 6.03094000E-03
					 5.17929000E-04	 2.31191000E-04	 6.03094000E-03
					-3.35420000E-04	-8.83684000E-04	 3.02533000E-03
					-2.01445000E-04	-2.71831000E-04	 6.03094000E-03
					-3.52359000E-04	-7.66604000E-04	 6.03094000E-03
					 7.96904000E-04	-8.80447000E-04	 3.01995000E-03
					 9.30060000E-04	-2.68795000E-04	 6.03094000E-03
					 7.74167000E-04	-7.66584000E-04	 6.03094000E-03
					 2.10250000E-04	-7.66064000E-04	 6.03094000E-03
				</DataArray>
				<DataArray type="Float32" Name="S" NumberOfComponents="10" ComponentName0="xx" ComponentName1="yy" ComponentName2="zz" ComponentName3="xy" ComponentName4="yz" ComponentName5="zx" ComponentName6="Mises" ComponentName7="Min Principal" ComponentName8="Mid Principal" ComponentName9="Max Principal" format="ascii">
					 2.03199000E-01	 1.94032000E-01	 4.94202000E+02	-1.66360000E-02	-6.86467000E-01	 1.76885000E-01	 4.94004911E+02	 1.80962578E-01	 2.15251165E-01	 4.94203017E+02
					 2.09517000E-01	 2.31343000E-01	 4.94689000E+02	-4.89565000E-02	-7.30890000E-01	-1.47008000E-01	 4.94470264E+02	 1.69607601E-01	 2.70128363E-01	 4.94690124E+02
					 1.98974000E-01	 1.52287000E-01	 4.94462000E+02	-2.13321000E-02	-6.85146000E-01	 7.99580000E-03	 4.94287797E+02	 1.43188521E-01	 2.07122692E-01	 4.94462950E+02
					 2.12364000E-01	 3.43779000E-01	 4.94479000E+02	 9.57614000E-03	-4.00193000E-01	 2.20483000E-01	 4.94201576E+02	 2.11544300E-01	 3.44176243E-01	 4.94479422E+02
					 3.44524000E-01	 2.51669000E-01	 4.94737000E+02	 1.45331000E-02	 5.13456000E-02	 5.44012000E-01	 4.94439817E+02	 2.49445503E-01	 3.46143551E-01	 4.94737604E+02
					-7.91319000E-02	-1.79622000E-01	 4.94640000E+02	-2.87663000E-02	 2.21741000E-01	-2.33806000E-02	 4.94769538E+02	-1.87361648E-01	-7.14927259E-02	 4.94640100E+02
					 3.40577000E-01	 2.63320000E-01	 4.94811000E+02	 9.25783000E-02	-1.52811000E-01	-2.52992000E-01	 4.94509347E+02	 2.01634132E-01	 4.02086180E-01	 4.94811177E+02
					 2.14377000E-01	 3.68084000E-01	 4.94759000E+02	 3.29655000E-02	-5.25493000E-01	-3.40642000E-01	 4.94468980E+02	 2.07499749E-01	 3.74168019E-01	 4.94759793E+02
					 3.40504000E-01	 2.64004000E-01	 4.94810000E+02	 9.37153000E-02	-1.52975000E-01	-2.53033000E-01	 4.94508042E+02	 2.01032945E-01	 4.03298223E-01	 4.94810177E+02
					 3.36611000E-01	 1.95769000E-01	 4.94790000E+02	 6.50395000E-02	-2.79013000E-02	 1.42189000E-01	 4.94523902E+02	 1.70317172E-01	 3.62020368E-01	 4.94790042E+02
					-7.08910000E-02	-1.73127000E-01	 4.94849000E+02	-8.49949000E-02	 3.00101000E-01	 2.19693000E-01	 4.94971458E+02	-2.21467161E-01	-2.28302465E-02	 4.94849279E+02
					 3.44437000E-01	 2.51607000E-01	 4.94738000E+02	 1.28521000E-02	 5.21714000E-02	 5.44240000E-01	 4.94440892E+02	 2.49859566E-01	 3.45579815E-01	 4.94738605E+02
					 3.36651000E-01	 1.95117000E-01	 4.94791000E+02	 6.35304000E-02	-2.74220000E-02	 1.42540000E-01	 4.94525207E+02	 1.70771770E-01	 3.60953621E-01	 4.94791043E+02
					-7.06998000E-02	-1.73392000E-01	 4.94849000E+02	-8.43377000E-02	 2.99543000E-01	 2.19711000E-01	 4.94971494E+02	-2.21058988E-01	-2.33115600E-02	 4.94849279E+02
					 2.14265000E-01	 3.67684000E-01	 4.94759000E+02	 3.23483000E-02	-5.25773000E-01	-3.41216000E-01	 4.94469238E+02	 2.07615691E-01	 3.73538691E-01	 4.94759795E+02
					 2.09662000E-01	 2.31281000E-01	 4.94689000E+02	-4.89580000E-02	-7.31581000E-01	-1.48038000E-01	 4.94470226E+02	 1.69666061E-01	 2.70150245E-01	 4.94690127E+02
					-7.90664000E-02	-1.79896000E-01	 4.94640000E+02	-2.87868000E-02	 2.21500000E-01	-2.27473000E-02	 4.94769642E+02	-1.87623415E-01	-7.14391835E-02	 4.94640100E+02
					 2.12133000E-01	 3.44045000E-01	 4.94480000E+02	 8.18309000E-03	-3.99405000E-01	 2.20155000E-01	 4.94202556E+02	 2.11506213E-01	 3.44250898E-01	 4.94480421E+02
					 2.03156000E-01	 1.94826000E-01	 4.94203000E+02	-1.75828000E-02	-6.85797000E-01	 1.75928000E-01	 4.94005532E+02	 1.80542778E-01	 2.16424509E-01	 4.94204015E+02
					 1.98990000E-01	 1.52469000E-01	 4.94462000E+02	-2.18628000E-02	-6.85182000E-01	 7.04910000E-03	 4.94287698E+02	 1.42991284E-01	 2.07517859E-01	 4.94462950E+02
				</DataArray>
				<DataArray type="Float32" Name="SDV" NumberOfComponents="60" ComponentName0="1" ComponentName1="2" ComponentName2="3" ComponentName3="4" ComponentName4="5" ComponentName5="6" ComponentName6="7" ComponentName7="8" ComponentName8="9" ComponentName9="10" ComponentName10="11" ComponentName11="12" ComponentName12="13" ComponentName13="14" ComponentName14="15" ComponentName15="16" ComponentName16="17" ComponentName17="18" ComponentName18="19" ComponentName19="20" ComponentName20="21" ComponentName21="22" ComponentName22="23" ComponentName23="24" ComponentName24="25" ComponentName25="26" ComponentName26="27" ComponentName27="28" ComponentName28="29" ComponentName29="30" ComponentName30="31" ComponentName31="32" ComponentName32="33" ComponentName33="34" ComponentName34="35" ComponentName35="36" ComponentName36="37" ComponentName37="38" ComponentName38="39" ComponentName39="40" ComponentName40="41" ComponentName41="42" ComponentName42="43" ComponentName43="44" ComponentName44="45" ComponentName45="46" ComponentName46="47" ComponentName47="48" ComponentName48="49" ComponentName49="50" ComponentName50="51" ComponentName51="52" ComponentName52="53" ComponentName53="54" ComponentName54="55" ComponentName55="56" ComponentName56="57" ComponentName57="58" ComponentName58="59" ComponentName59="60" format="ascii">
					-1.28725000E-03	-2.38551000E-03	 3.67276000E-03	-6.41746000E-04	-8.12912000E-04	-8.86242000E-04	 4.37360000E+00	 1.82719000E+01	 0.00000000E+00	 0.00000000E+00	 0.00000000E+00	 0.00000000E+00	 0.00000000E+00	 3.37023000E+00	 0.00000000E+00	 3.70419000E+00	 0.00000000E+00	 0.00000000E+00	 2.83276000E+00	 0.00000000E+00	 0.00000000E+00	 2.50488000E+01	 0.00000000E+00	 3.95920000E+01	 1.83159000E+01	 6.26256000E+01	 0.00000000E+00	 0.00000000E+00	 0.00000000E+00	 0.00000000E+00	 0.00000000E+00	 1.43299000E+01	 0.00000000E+00	 1.56769000E+01	 0.00000000E+00	 0.00000000E+00	 1.14803000E+01	 0.00000000E+00	 0.00000000E+00	 5.98249000E+01	 0.00000000E+00	 8.07319000E+01	 1.13766000E-04	 5.42750000E-04	 0.00000000E+00	 0.00000000E+00	 0.00000000E+00	 0.00000000E+00	 0.00000000E+00	 8.69101000E-05	 0.00000000E+00	 9.57720000E-05	 0.00000000E+00	 0.00000000E+00	 1.48202000E-04	 0.00000000E+00	 0.00000000E+00	 1.98077000E-03	 0.00000000E+00	 5.33915000E-03
					-1.27780000E-03	-2.37218000E-03	 3.64998000E-03	-6.36058000E-04	-8.05125000E-04	-8.82351000E-04	 4.35799000E+00	 1.81877000E+01	 0.00000000E+00	 0.00000000E+00	 0.00000000E+00	 0.00000000E+00	 0.00000000E+00	 3.34383000E+00	 0.00000000E+00	 3.65983000E+00	 0.00000000E+00	 0.00000000E+00	 2.69279000E+00	 0.00000000E+00	 0.00000000E+00	 2.49806000E+01	 0.00000000E+00	 3.94358000E+01	 1.82496000E+01	 6.23803000E+01	 0.00000000E+00	 0.00000000E+00	 0.00000000E+00	 0.00000000E+00	 0.00000000E+00	 1.42225000E+01	 0.00000000E+00	 1.54925000E+01	 0.00000000E+00	 0.00000000E+00	 1.09558000E+01	 0.00000000E+00	 0.00000000E+00	 5.97120000E+01	 0.00000000E+00	 8.05407000E+01	 1.13365000E-04	 5.40040000E-04	 0.00000000E+00	 0.00000000E+00	 0.00000000E+00	 0.00000000E+00	 0.00000000E+00	 8.62131000E-05	 0.00000000E+00	 9.46154000E-05	 0.00000000E+00	 0.00000000E+00	 1.40629000E-04	 0.00000000E+00	 0.00000000E+00	 1.97610000E-03	 0.00000000E+00	 5.30332000E-03
					-1.28288000E-03	-2.37890000E-03	 3.66178000E-03	-6.38900000E-04	-8.09725000E-04	-8.84131000E-04	 4.35937000E+00	 1.82290000E+01	 0.00000000E+00	 0.00000000E+00	 0.00000000E+00	 0.00000000E+00	 0.00000000E+00	 3.35135000E+00	 0.00000000E+00	 3.69482000E+00	 0.00000000E+00	 0.00000000E+00	 2.78789000E+00	 0.00000000E+00	 0.00000000E+00	 2.50105000E+01	 0.00000000E+00	 3.95180000E+01	 1.82576000E+01	 6.25019000E+01	 0.00000000E+00	 0.00000000E+00	 0.00000000E+00	 0.00000000E+00	 0.00000000E+00	 1.42529000E+01	 0.00000000E+00	 1.56366000E+01	 0.00000000E+00	 0.00000000E+00	 1.13116000E+01	 0.00000000E+00	 0.00000000E+00	 5.97645000E+01	 0.00000000E+00	 8.06441000E+01	 1.13392000E-04	 5.41361000E-04	 0.00000000E+00	 0.00000000E+00	 0.00000000E+00	 0.00000000E+00	 0.00000000E+00	 8.64124000E-05	 0.00000000E+00	 9.55325000E-05	 0.00000000E+00	 0.00000000E+00	 1.45778000E-04	 0.00000000E+00	 0.00000000E+00	 1.97789000E-03	 0.00000000E+00	 5.32175000E-03
					-1.29711000E-03	-2.40241000E-03	 3.69952000E-03	-6.47688000E-04	-8.17040000E-04	-8.91256000E-04	 4.40434000E+00	 1.84510000E+01	 0.00000000E+00	 0.00000000E+00	 0.00000000E+00	 0.00000000E+00	 0.00000000E+00	 3.45434000E+00	 0.00000000E+00	 3.75189000E+00	 0.00000000E+00	 0.00000000E+00	 2.80839000E+00	 0.00000000E+00	 0.00000000E+00	 2.51511000E+01	 0.00000000E+00	 3.97229000E+01	 1.84407000E+01	 6.31128000E+01	 0.00000000E+00	 0.00000000E+00	 0.00000000E+00	 0.00000000E+00	 0.00000000E+00	 1.46732000E+01	 0.00000000E+00	 1.58686000E+01	 0.00000000E+00	 0.00000000E+00	 1.13939000E+01	 0.00000000E+00	 0.00000000E+00	 5.99796000E+01	 0.00000000E+00	 8.09256000E+01	 1.14578000E-04	 5.48830000E-04	 0.00000000E+00	 0.00000000E+00	 0.00000000E+00	 0.00000000E+00	 0.00000000E+00	 8.91270000E-05	 0.00000000E+00	 9.70406000E-05	 0.00000000E+00	 0.00000000E+00	 1.46851000E-04	 0.00000000E+00	 0.00000000E+00	 1.99108000E-03	 0.00000000E+00	 5.37958000E-03
					-1.30699000E-03	-2.41720000E-03	 3.72419000E-03	-6.53710000E-04	-8.21209000E-04	-8.94520000E-04	 4.41502000E+00	 1.86453000E+01	 0.00000000E+00	 0.00000000E+00	 0.00000000E+00	 0.00000000E+00	 0.00000000E+00	 3.55491000E+00	 0.00000000E+00	 3.82639000E+00	 0.00000000E+00	 0.00000000E+00	 2.82061000E+00	 0.00000000E+00	 0.00000000E+00	 2.52119000E+01	 0.00000000E+00	 3.98418000E+01	 1.84865000E+01	 6.36311000E+01	 0.00000000E+00	 0.00000000E+00	 0.00000000E+00	 0.00000000E+00	 0.00000000E+00	 1.50799000E+01	 0.00000000E+00	 1.61678000E+01	 0.00000000E+00	 0.00000000E+00	 1.14433000E+01	 0.00000000E+00	 0.00000000E+00	 6.00719000E+01	 0.00000000E+00	 8.10972000E+01	 1.14850000E-04	 5.55513000E-04	 0.00000000E+00	 0.00000000E+00	 0.00000000E+00	 0.00000000E+00	 0.00000000E+00	 9.17917000E-05	 0.00000000E+00	 9.90218000E-05	 0.00000000E+00	 0.00000000E+00	 1.47489000E-04	 0.00000000E+00	 0.00000000E+00	 1.99650000E-03	 0.00000000E+00	 5.41747000E-03
					-1.29256000E-03	-2.39347000E-03	 3.68603000E-03	-6.52588000E-04	-8.12597000E-04	-8.83664000E-04	 4.35067000E+00	 1.84474000E+01	 0.00000000E+00	 0.00000000E+00	 0.00000000E+00	 0.00000000E+00	 0.00000000E+00	 3.50044000E+00	 0.00000000E+00	 3.81664000E+00	 0.00000000E+00	 0.00000000E+00	 2.69772000E+00	 0.00000000E+00	 0.00000000E+00	 2.49321000E+01	 0.00000000E+00	 3.96686000E+01	 1.82279000E+01	 6.30882000E+01	 0.00000000E+00	 0.00000000E+00	 0.00000000E+00	 0.00000000E+00	 0.00000000E+00	 1.48594000E+01	 0.00000000E+00	 1.61224000E+01	 0.00000000E+00	 0.00000000E+00	 1.09805000E+01	 0.00000000E+00	 0.00000000E+00	 5.96646000E+01	 0.00000000E+00	 8.08810000E+01	 1.13140000E-04	 5.48846000E-04	 0.00000000E+00	 0.00000000E+00	 0.00000000E+00	 0.00000000E+00	 0.00000000E+00	 9.03493000E-05	 0.00000000E+00	 9.87862000E-05	 0.00000000E+00	 0.00000000E+00	 1.40855000E-04	 0.00000000E+00	 0.00000000E+00	 1.96635000E-03	 0.00000000E+00	 5.37462000E-03
					-1.29812000E-03	-2.40728000E-03	 3.70540000E-03	-6.48535000E-04	-8.19824000E-04	-8.93183000E-04	 4.38078000E+00	 1.84043000E+01	 0.00000000E+00	 0.00000000E+00	 0.00000000E+00	 0.00000000E+00	 0.00000000E+00	 3.41264000E+00	 0.00000000E+00	 3.78059000E+00	 0.00000000E+00	 0.00000000E+00	 2.81848000E+00	 0.00000000E+00	 0.00000000E+00	 2.51847000E+01	 0.00000000E+00	 3.97262000E+01	 1.83484000E+01	 6.29838000E+01	 0.00000000E+00	 0.00000000E+00	 0.00000000E+00	 0.00000000E+00	 0.00000000E+00	 1.45046000E+01	 0.00000000E+00	 1.59790000E+01	 0.00000000E+00	 0.00000000E+00	 1.14276000E+01	 0.00000000E+00	 0.00000000E+00	 6.00194000E+01	 0.00000000E+00	 8.09527000E+01	 1.13942000E-04	 5.47262000E-04	 0.00000000E+00	 0.00000000E+00	 0.00000000E+00	 0.00000000E+00	 0.00000000E+00	 8.80221000E-05	 0.00000000E+00	 9.78219000E-05	 0.00000000E+00	 0.00000000E+00	 1.47424000E-04	 0.00000000E+00	 0.00000000E+00	 1.99635000E-03	 0.00000000E+00	 5.38948000E-03
					-1.28795000E-03	-2.39077000E-03	 3.67872000E-03	-6.42241000E-04	-8.12438000E-04	-8.88627000E-04	 4.37933000E+00	 1.82888000E+01	 0.00000000E+00	 0.00000000E+00	 0.00000000E+00	 0.00000000E+00	 0.00000000E+00	 3.37074000E+00	 0.00000000E+00	 3.70712000E+00	 0.00000000E+00	 0.00000000E+00	 2.73749000E+00	 0.00000000E+00	 0.00000000E+00	 2.51035000E+01	 0.00000000E+00	 3.95873000E+01	 1.83382000E+01	 6.26664000E+01	 0.00000000E+00	 0.00000000E+00	 0.00000000E+00	 0.00000000E+00	 0.00000000E+00	 1.43343000E+01	 0.00000000E+00	 1.56831000E+01	 0.00000000E+00	 0.00000000E+00	 1.11244000E+01	 0.00000000E+00	 0.00000000E+00	 5.98972000E+01	 0.00000000E+00	 8.07579000E+01	 1.13921000E-04	 5.43372000E-04	 0.00000000E+00	 0.00000000E+00	 0.00000000E+00	 0.00000000E+00	 0.00000000E+00	 8.69150000E-05	 0.00000000E+00	 9.58710000E-05	 0.00000000E+00	 0.00000000E+00	 1.43040000E-04	 0.00000000E+00	 0.00000000E+00	 1.98865000E-03	 0.00000000E+00	 5.34761000E-03
					-1.29810000E-03	-2.40725000E-03	 3.70535000E-03	-6.48510000E-04	-8.19811000E-04	-8.93177000E-04	 4.38072000E+00	 1.84043000E+01	 0.00000000E+00	 0.00000000E+00	 0.00000000E+00	 0.00000000E+00	 0.00000000E+00	 3.41258000E+00	 0.00000000E+00	 3.78058000E+00	 0.00000000E+00	 0.00000000E+00	 2.81848000E+00	 0.00000000E+00	 0.00000000E+00	 2.51848000E+01	 0.00000000E+00	 3.97260000E+01	 1.83482000E+01	 6.29838000E+01	 0.00000000E+00	 0.00000000E+00	 0.00000000E+00	 0.00000000E+00	 0.00000000E+00	 1.45044000E+01	 0.00000000E+00	 1.59790000E+01	 0.00000000E+00	 0.00000000E+00	 1.14276000E+01	 0.00000000E+00	 0.00000000E+00	 6.00194000E+01	 0.00000000E+00	 8.09524000E+01	 1.13941000E-04	 5.47263000E-04	 0.00000000E+00	 0.00000000E+00	 0.00000000E+00	 0.00000000E+00	 0.00000000E+00	 8.80204000E-05	 0.00000000E+00	 9.78218000E-05	 0.00000000E+00	 0.00000000E+00	 1.47424000E-04	 0.00000000E+00	 0.00000000E+00	 1.99635000E-03	 0.00000000E+00	 5.38938000E-03
					-1.30290000E-03	-2.41228000E-03	 3.71518000E-03	-6.51108000E-04	-8.21231000E-04	-8.93683000E-04	 4.39137000E+00	 1.85238000E+01	 0.00000000E+00	 0.00000000E+00	 0.00000000E+00	 0.00000000E+00	 0.00000000E+00	 3.47754000E+00	 0.00000000E+00	 3.81644000E+00	 0.00000000E+00	 0.00000000E+00	 2.84482000E+00	 0.00000000E+00	 0.00000000E+00	 2.51941000E+01	 0.00000000E+00	 3.97877000E+01	 1.83919000E+01	 6.33064000E+01	 0.00000000E+00	 0.00000000E+00	 0.00000000E+00	 0.00000000E+00	 0.00000000E+00	 1.47671000E+01	 0.00000000E+00	 1.61257000E+01	 0.00000000E+00	 0.00000000E+00	 1.15287000E+01	 0.00000000E+00	 0.00000000E+00	 6.00418000E+01	 0.00000000E+00	 8.10323000E+01	 1.14220000E-04	 5.51341000E-04	 0.00000000E+00	 0.00000000E+00	 0.00000000E+00	 0.00000000E+00	 0.00000000E+00	 8.97414000E-05	 0.00000000E+00	 9.87652000E-05	 0.00000000E+00	 0.00000000E+00	 1.48833000E-04	 0.00000000E+00	 0.00000000E+00	 1.99588000E-03	 0.00000000E+00	 5.40395000E-03
					-1.29228000E-03	-2.39176000E-03	 3.68404000E-03	-6.52348000E-04	-8.09420000E-04	-8.82397000E-04	 4.35998000E+00	 1.85250000E+01	 0.00000000E+00	 0.00000000E+00	 0.00000000E+00	 0.00000000E+00	 0.00000000E+00	 3.55931000E+00	 0.00000000E+00	 3.81601000E+00	 0.00000000E+00	 0.00000000E+00	 2.63009000E+00	 0.00000000E+00	 0.00000000E+00	 2.49119000E+01	 0.00000000E+00	 3.96511000E+01	 1.82640000E+01	 6.32893000E+01	 0.00000000E+00	 0.00000000E+00	 0.00000000E+00	 0.00000000E+00	 0.00000000E+00	 1.50969000E+01	 0.00000000E+00	 1.61195000E+01	 0.00000000E+00	 0.00000000E+00	 1.07292000E+01	 0.00000000E+00	 0.00000000E+00	 5.96355000E+01	 0.00000000E+00	 8.08601000E+01	 1.13393000E-04	 5.51573000E-04	 0.00000000E+00	 0.00000000E+00	 0.00000000E+00	 0.00000000E+00	 0.00000000E+00	 9.19112000E-05	 0.00000000E+00	 9.87702000E-05	 0.00000000E+00	 0.00000000E+00	 1.37182000E-04	 0.00000000E+00	 0.00000000E+00	 1.96408000E-03	 0.00000000E+00	 5.37071000E-03
					-1.30700000E-03	-2.41721000E-03	 3.72421000E-03	-6.53739000E-04	-8.21217000E-04	-8.94516000E-04	 4.41507000E+00	 1.86452000E+01	 0.00000000E+00	 0.00000000E+00	 0.00000000E+00	 0.00000000E+00	 0.00000000E+00	 3.55501000E+00	 0.00000000E+00	 3.82639000E+00	 0.00000000E+00	 0.00000000E+00	 2.82060000E+00	 0.00000000E+00	 0.00000000E+00	 2.52116000E+01	 0.00000000E+00	 3.98420000E+01	 1.84867000E+01	 6.36310000E+01	 0.00000000E+00	 0.00000000E+00	 0.00000000E+00	 0.00000000E+00	 0.00000000E+00	 1.50803000E+01	 0.00000000E+00	 1.61678000E+01	 0.00000000E+00	 0.00000000E+00	 1.14432000E+01	 0.00000000E+00	 0.00000000E+00	 6.00715000E+01	 0.00000000E+00	 8.10975000E+01	 1.14852000E-04	 5.55511000E-04	 0.00000000E+00	 0.00000000E+00	 0.00000000E+00	 0.00000000E+00	 0.00000000E+00	 9.17944000E-05	 0.00000000E+00	 9.90219000E-05	 0.00000000E+00	 0.00000000E+00	 1.47488000E-04	 0.00000000E+00	 0.00000000E+00	 1.99646000E-03	 0.00000000E+00	 5.41755000E-03
					-1.30291000E-03	-2.41230000E-03	 3.71521000E-03	-6.51136000E-04	-8.21242000E-04	-8.93685000E-04	 4.39142000E+00	 1.85237000E+01	 0.00000000E+00	 0.00000000E+00	 0.00000000E+00	 0.00000000E+00	 0.00000000E+00	 3.47763000E+00	 0.00000000E+00	 3.81643000E+00	 0.00000000E+00	 0.00000000E+00	 2.84481000E+00	 0.00000000E+00	 0.00000000E+00	 2.51939000E+01	 0.00000000E+00	 3.97879000E+01	 1.83921000E+01	 6.33063000E+01	 0.00000000E+00	 0.00000000E+00	 0.00000000E+00	 0.00000000E+00	 0.00000000E+00	 1.47675000E+01	 0.00000000E+00	 1.61256000E+01	 0.00000000E+00	 0.00000000E+00	 1.15287000E+01	 0.00000000E+00	 0.00000000E+00	 6.00415000E+01	 0.00000000E+00	 8.10327000E+01	 1.14222000E-04	 5.51340000E-04	 0.00000000E+00	 0.00000000E+00	 0.00000000E+00	 0.00000000E+00	 0.00000000E+00	 8.97439000E-05	 0.00000000E+00	 9.87650000E-05	 0.00000000E+00	 0.00000000E+00	 1.48832000E-04	 0.00000000E+00	 0.00000000E+00	 1.99586000E-03	 0.00000000E+00	 5.40404000E-03
					-1.29228000E-03	-2.39176000E-03	 3.68404000E-03	-6.52337000E-04	-8.09419000E-04	-8.82402000E-04	 4.35997000E+00	 1.85250000E+01	 0.00000000E+00	 0.00000000E+00	 0.00000000E+00	 0.00000000E+00	 0.00000000E+00	 3.55928000E+00	 0.00000000E+00	 3.81599000E+00	 0.00000000E+00	 0.00000000E+00	 2.63009000E+00	 0.00000000E+00	 0.00000000E+00	 2.49121000E+01	 0.00000000E+00	 3.96511000E+01	 1.82639000E+01	 6.32894000E+01	 0.00000000E+00	 0.00000000E+00	 0.00000000E+00	 0.00000000E+00	 0.00000000E+00	 1.50968000E+01	 0.00000000E+00	 1.61195000E+01	 0.00000000E+00	 0.00000000E+00	 1.07292000E+01	 0.00000000E+00	 0.00000000E+00	 5.96358000E+01	 0.00000000E+00	 8.08600000E+01	 1.13392000E-04	 5.51574000E-04	 0.00000000E+00	 0.00000000E+00	 0.00000000E+00	 0.00000000E+00	 0.00000000E+00	 9.19103000E-05	 0.00000000E+00	 9.87699000E-05	 0.00000000E+00	 0.00000000E+00	 1.37182000E-04	 0.00000000E+00	 0.00000000E+00	 1.96410000E-03	 0.00000000E+00	 5.37069000E-03
					-1.28796000E-03	-2.39079000E-03	 3.67876000E-03	-6.42258000E-04	-8.12450000E-04	-8.88635000E-04	 4.37937000E+00	 1.82887000E+01	 0.00000000E+00	 0.00000000E+00	 0.00000000E+00	 0.00000000E+00	 0.00000000E+00	 3.37073000E+00	 0.00000000E+00	 3.70712000E+00	 0.00000000E+00	 0.00000000E+00	 2.73749000E+00	 0.00000000E+00	 0.00000000E+00	 2.51036000E+01	 0.00000000E+00	 3.95874000E+01	 1.83384000E+01	 6.26663000E+01	 0.00000000E+00	 0.00000000E+00	 0.00000000E+00	 0.00000000E+00	 0.00000000E+00	 1.43342000E+01	 0.00000000E+00	 1.56830000E+01	 0.00000000E+00	 0.00000000E+00	 1.11244000E+01	 0.00000000E+00	 0.00000000E+00	 5.98972000E+01	 0.00000000E+00	 8.07582000E+01	 1.13922000E-04	 5.43370000E-04	 0.00000000E+00	 0.00000000E+00	 0.00000000E+00	 0.00000000E+00	 0.00000000E+00	 8.69148000E-05	 0.00000000E+00	 9.58710000E-05	 0.00000000E+00	 0.00000000E+00	 1.43040000E-04	 0.00000000E+00	 0.00000000E+00	 1.98866000E-03	 0.00000000E+00	 5.34768000E-03
					-1.27781000E-03	-2.37220000E-03	 3.65001000E-03	-6.36065000E-04	-8.05135000E-04	-8.82361000E-04	 4.35801000E+00	 1.81876000E+01	 0.00000000E+00	 0.00000000E+00	 0.00000000E+00	 0.00000000E+00	 0.00000000E+00	 3.34376000E+00	 0.00000000E+00	 3.65983000E+00	 0.00000000E+00	 0.00000000E+00	 2.69280000E+00	 0.00000000E+00	 0.00000000E+00	 2.49807000E+01	 0.00000000E+00	 3.94359000E+01	 1.82497000E+01	 6.23801000E+01	 0.00000000E+00	 0.00000000E+00	 0.00000000E+00	 0.00000000E+00	 0.00000000E+00	 1.42222000E+01	 0.00000000E+00	 1.54925000E+01	 0.00000000E+00	 0.00000000E+00	 1.09558000E+01	 0.00000000E+00	 0.00000000E+00	 5.97122000E+01	 0.00000000E+00	 8.05409000E+01	 1.13365000E-04	 5.40037000E-04	 0.00000000E+00	 0.00000000E+00	 0.00000000E+00	 0.00000000E+00	 0.00000000E+00	 8.62110000E-05	 0.00000000E+00	 9.46152000E-05	 0.00000000E+00	 0.00000000E+00	 1.40630000E-04	 0.00000000E+00	 0.00000000E+00	 1.97612000E-03	 0.00000000E+00	 5.30337000E-03
					-1.29256000E-03	-2.39347000E-03	 3.68603000E-03	-6.52585000E-04	-8.12595000E-04	-8.83665000E-04	 4.35068000E+00	 1.84474000E+01	 0.00000000E+00	 0.00000000E+00	 0.00000000E+00	 0.00000000E+00	 0.00000000E+00	 3.50047000E+00	 0.00000000E+00	 3.81661000E+00	 0.00000000E+00	 0.00000000E+00	 2.69771000E+00	 0.00000000E+00	 0.00000000E+00	 2.49322000E+01	 0.00000000E+00	 3.96686000E+01	 1.82280000E+01	 6.30883000E+01	 0.00000000E+00	 0.00000000E+00	 0.00000000E+00	 0.00000000E+00	 0.00000000E+00	 1.48595000E+01	 0.00000000E+00	 1.61222000E+01	 0.00000000E+00	 0.00000000E+00	 1.09805000E+01	 0.00000000E+00	 0.00000000E+00	 5.96646000E+01	 0.00000000E+00	 8.08810000E+01	 1.13140000E-04	 5.48848000E-04	 0.00000000E+00	 0.00000000E+00	 0.00000000E+00	 0.00000000E+00	 0.00000000E+00	 9.03501000E-05	 0.00000000E+00	 9.87853000E-05	 0.00000000E+00	 0.00000000E+00	 1.40855000E-04	 0.00000000E+00	 0.00000000E+00	 1.96636000E-03	 0.00000000E+00	 5.37461000E-03
					-1.29712000E-03	-2.40243000E-03	 3.69955000E-03	-6.47716000E-04	-8.17051000E-04	-8.91256000E-04	 4.40439000E+00	 1.84510000E+01	 0.00000000E+00	 0.00000000E+00	 0.00000000E+00	 0.00000000E+00	 0.00000000E+00	 3.45440000E+00	 0.00000000E+00	 3.75193000E+00	 0.00000000E+00	 0.00000000E+00	 2.80839000E+00	 0.00000000E+00	 0.00000000E+00	 2.51509000E+01	 0.00000000E+00	 3.97231000E+01	 1.84409000E+01	 6.31127000E+01	 0.00000000E+00	 0.00000000E+00	 0.00000000E+00	 0.00000000E+00	 0.00000000E+00	 1.46734000E+01	 0.00000000E+00	 1.58687000E+01	 0.00000000E+00	 0.00000000E+00	 1.13939000E+01	 0.00000000E+00	 0.00000000E+00	 5.99793000E+01	 0.00000000E+00	 8.09259000E+01	 1.14579000E-04	 5.48829000E-04	 0.00000000E+00	 0.00000000E+00	 0.00000000E+00	 0.00000000E+00	 0.00000000E+00	 8.91287000E-05	 0.00000000E+00	 9.70416000E-05	 0.00000000E+00	 0.00000000E+00	 1.46852000E-04	 0.00000000E+00	 0.00000000E+00	 1.99105000E-03	 0.00000000E+00	 5.37967000E-03
					-1.28726000E-03	-2.38553000E-03	 3.67280000E-03	-6.41770000E-04	-8.12925000E-04	-8.86246000E-04	 4.37365000E+00	 1.82719000E+01	 0.00000000E+00	 0.00000000E+00	 0.00000000E+00	 0.00000000E+00	 0.00000000E+00	 3.37025000E+00	 0.00000000E+00	 3.70427000E+00	 0.00000000E+00	 0.00000000E+00	 2.83278000E+00	 0.00000000E+00	 0.00000000E+00	 2.50487000E+01	 0.00000000E+00	 3.95922000E+01	 1.83161000E+01	 6.26256000E+01	 0.00000000E+00	 0.00000000E+00	 0.00000000E+00	 0.00000000E+00	 0.00000000E+00	 1.43300000E+01	 0.00000000E+00	 1.56772000E+01	 0.00000000E+00	 0.00000000E+00	 1.14804000E+01	 0.00000000E+00	 0.00000000E+00	 5.98248000E+01	 0.00000000E+00	 8.07323000E+01	 1.13767000E-04	 5.42750000E-04	 0.00000000E+00	 0.00000000E+00	 0.00000000E+00	 0.00000000E+00	 0.00000000E+00	 8.69107000E-05	 0.00000000E+00	 9.57740000E-05	 0.00000000E+00	 0.00000000E+00	 1.48203000E-04	 0.00000000E+00	 0.00000000E+00	 1.98076000E-03	 0.00000000E+00	 5.33924000E-03
					-1.28289000E-03	-2.37893000E-03	 3.66182000E-03	-6.38916000E-04	-8.09737000E-04	-8.84138000E-04	 4.35941000E+00	 1.82289000E+01	 0.00000000E+00	 0.00000000E+00	 0.00000000E+00	 0.00000000E+00	 0.00000000E+00	 3.35133000E+00	 0.00000000E+00	 3.69485000E+00	 0.00000000E+00	 0.00000000E+00	 2.78791000E+00	 0.00000000E+00	 0.00000000E+00	 2.50105000E+01	 0.00000000E+00	 3.95181000E+01	 1.82577000E+01	 6.25018000E+01	 0.00000000E+00	 0.00000000E+00	 0.00000000E+00	 0.00000000E+00	 0.00000000E+00	 1.42528000E+01	 0.00000000E+00	 1.56367000E+01	 0.00000000E+00	 0.00000000E+00	 1.13116000E+01	 0.00000000E+00	 0.00000000E+00	 5.97646000E+01	 0.00000000E+00	 8.06444000E+01	 1.13393000E-04	 5.41359000E-04	 0.00000000E+00	 0.00000000E+00	 0.00000000E+00	 0.00000000E+00	 0.00000000E+00	 8.64117000E-05	 0.00000000E+00	 9.55333000E-05	 0.00000000E+00	 0.00000000E+00	 1.45779000E-04	 0.00000000E+00	 0.00000000E+00	 1.97790000E-03	 0.00000000E+00	 5.32183000E-03
				</DataArray>
			</PointData>
		</Piece>
	</UnstructuredGrid>
</VTKFile>