# vtk DataFile Version 3.0

ASCII
DATASET UNSTRUCTURED_GRID

POINTS 20 double
	 1.00000000E+00	 0.00000000E+00	 0.00000000E+00
	 5.00000000E-01	 0.00000000E+00	 0.00000000E+00
	 7.50000000E-01	 0.00000000E+00	 0.00000000E+00
	 1.00000000E+00	 2.50000000E-01	 0.00000000E+00
	 1.00000000E+00	 5.00000000E-01	 0.00000000E+00
	 1.00000000E+00	 0.00000000E+00	 5.00000000E-01
	 1.00000000E+00	 0.00000000E+00	 1.00000000E+00
	 5.00000000E-01	 2.50000000E-01	 0.00000000E+00
	 5.00000000E-01	 5.00000000E-01	 0.00000000E+00
	 7.50000000E-01	 5.00000000E-01	 0.00000000E+00
	 5.00000000E-01	 0.00000000E+00	 5.00000000E-01
	 5.00000000E-01	 0.00000000E+00	 1.00000000E+00
	 7.50000000E-01	 0.00000000E+00	 1.00000000E+00
	 1.00000000E+00	 5.00000000E-01	 5.00000000E-01
	 1.00000000E+00	 2.50000000E-01	 1.00000000E+00
	 1.00000000E+00	 5.00000000E-01	 1.00000000E+00
	 5.00000000E-01	 5.00000000E-01	 5.00000000E-01
	 5.00000000E-01	 2.50000000E-01	 1.00000000E+00
	 5.00000000E-01	 5.00000000E-01	 1.00000000E+00
	 7.50000000E-01	 5.00000000E-01	 1.00000000E+00

CELLS 1 21
	20 1 0 4 8 11 6 15 18 2 3 9 7 12 14 19 17 10 5 13 16 

CELL_TYPES 1
	25

POINT_DATA 20
FIELD U 1
	U 3 20 double
		 0.00000000E+00	 0.00000000E+00	 0.00000000E+00
		 2.23825000E-04	 0.00000000E+00	 0.00000000E+00
		 1.11932000E-04	-1.67352000E-07	 0.00000000E+00
		 7.63817000E-05	 4.58562000E-05	 0.00000000E+00
		 1.52693000E-04	 9.20233000E-05	 0.00000000E+00
		 3.63808000E-04	 4.62794000E-04	 5.47108000E-04
		 7.28357000E-04	 9.25557000E-04	 1.09500000E-03
		 3.00824000E-04	 4.57007000E-05	 0.00000000E+00
		 3.77828000E-04	 9.16250000E-05	 0.00000000E+00
		 2.65357000E-04	 9.16220000E-05	 0.00000000E+00
		 5.88278000E-04	 4.62454000E-04	 5.45719000E-04
		 9.53492000E-04	 9.25158000E-04	 1.09500000E-03
		 8.40828000E-04	 9.25560000E-04	 1.09500000E-03
		 5.17907000E-04	 5.54728000E-04	 5.49281000E-04
		 8.05361000E-04	 9.71481000E-04	 1.09500000E-03
		 8.82360000E-04	 1.01718000E-03	 1.09500000E-03
		 7.42377000E-04	 5.54388000E-04	 5.47892000E-04
		 1.02980000E-03	 9.71326000E-04	 1.09500000E-03
		 1.10619000E-03	 1.01718000E-03	 1.09500000E-03
		 9.94253000E-04	 1.01735000E-03	 1.09500000E-03
FIELD S 1
	S 10 20 double
		-1.71040000E-01	-1.53342000E-01	 2.26995000E+02	-8.04851000E-02	-8.63738000E-02	-3.24778000E-01	 2.27157980E+02	-2.43556131E-01	-8.13229578E-02	 2.26995497E+02
		-1.69178000E-01	-1.56263000E-01	 2.25442000E+02	-6.31256000E-02	 7.90944000E-02	 1.41709000E-01	 2.25604922E+02	-2.26286415E-01	-9.92712965E-02	 2.25442117E+02
		-1.86889000E-01	-1.44218000E-01	 2.26227000E+02	-5.95155000E-02	 1.63690000E-02	-1.14807000E-01	 2.26392669E+02	-2.28809201E-01	-1.02357202E-01	 2.26227059E+02
		-1.16336000E-01	-1.49109000E-01	 2.28065000E+02	-1.02353000E-01	-2.45276000E-01	-3.54684000E-01	 2.28199015E+02	-2.37139926E-01	-2.91196623E-02	 2.28065815E+02
		-8.24593000E-02	-1.82751000E-01	 2.29111000E+02	-7.03017000E-02	-4.51865000E-01	-3.78080000E-01	 2.29245925E+02	-2.20400133E-01	-4.63238674E-02	 2.29112514E+02
		 6.72293000E-02	 6.17408000E-02	 2.27011000E+02	 4.62665000E-02	 5.72567000E-02	 5.09549000E-02	 2.26946568E+02	 1.81370363E-02	 1.10807173E-01	 2.27011026E+02
		-1.02327000E-01	-1.46632000E-01	 2.27685000E+02	-7.11518000E-02	-2.28157000E-01	-1.93744000E-01	 2.27810106E+02	-1.99391303E-01	-4.99608469E-02	 2.27685393E+02
		-1.25399000E-01	-1.32618000E-01	 2.26576000E+02	-9.42616000E-02	-5.06894000E-02	-2.93380000E-02	 2.26705090E+02	-2.23353441E-01	-3.46786835E-02	 2.26576015E+02
		-1.02327000E-01	-1.46632000E-01	 2.27685000E+02	-7.11518000E-02	-2.28157000E-01	-1.93744000E-01	 2.27810106E+02	-1.99391303E-01	-4.99608469E-02	 2.27685393E+02
		-1.09144000E-01	-1.54052000E-01	 2.28406000E+02	-5.83711000E-02	-3.19994000E-01	-3.09155000E-01	 2.28538923E+02	-1.94981350E-01	-6.90806830E-02	 2.28406866E+02
		 7.67753000E-02	 3.89870000E-02	 2.26952000E+02	 5.44292000E-02	 2.68462000E-02	 1.90848000E-01	 2.26894386E+02	 2.31066622E-04	 1.15367505E-01	 2.26952164E+02
		-8.24593000E-02	-1.82751000E-01	 2.29111000E+02	-7.03017000E-02	-4.51865000E-01	-3.78080000E-01	 2.29245925E+02	-2.20400133E-01	-4.63238674E-02	 2.29112514E+02
		-1.09144000E-01	-1.54052000E-01	 2.28406000E+02	-5.83711000E-02	-3.19994000E-01	-3.09155000E-01	 2.28538923E+02	-1.94981350E-01	-6.90806830E-02	 2.28406866E+02
		 7.67753000E-02	 3.89870000E-02	 2.26952000E+02	 5.44292000E-02	 2.68462000E-02	 1.90848000E-01	 2.26894386E+02	 2.31066622E-04	 1.15367505E-01	 2.26952164E+02
		-1.25399000E-01	-1.32618000E-01	 2.26576000E+02	-9.42616000E-02	-5.06894000E-02	-2.93380000E-02	 2.26705090E+02	-2.23353441E-01	-3.46786835E-02	 2.26576015E+02
		-1.69178000E-01	-1.56263000E-01	 2.25442000E+02	-6.31256000E-02	 7.90944000E-02	 1.41709000E-01	 2.25604922E+02	-2.26286415E-01	-9.92712965E-02	 2.25442117E+02
		 6.72293000E-02	 6.17408000E-02	 2.27011000E+02	 4.62665000E-02	 5.72567000E-02	 5.09549000E-02	 2.26946568E+02	 1.81370363E-02	 1.10807173E-01	 2.27011026E+02
		-1.16336000E-01	-1.49109000E-01	 2.28065000E+02	-1.02353000E-01	-2.45276000E-01	-3.54684000E-01	 2.28199015E+02	-2.37139926E-01	-2.91196623E-02	 2.28065815E+02
		-1.71040000E-01	-1.53342000E-01	 2.26995000E+02	-8.04851000E-02	-8.63738000E-02	-3.24778000E-01	 2.27157980E+02	-2.43556131E-01	-8.13229578E-02	 2.26995497E+02
		-1.86889000E-01	-1.44218000E-01	 2.26227000E+02	-5.95155000E-02	 1.63690000E-02	-1.14807000E-01	 2.26392669E+02	-2.28809201E-01	-1.02357202E-01	 2.26227059E+02
FIELD SDV 1
	SDV 60 20 double
		-1.03640000E-06	-2.22655000E-06	 3.26295000E-06	-1.17839000E-06	-8.93253000E-07	-6.96974000E-07	 0.00000000E+00	 6.90836000E-03	 0.00000000E+00	 0.00000000E+00	 0.00000000E+00	 0.00000000E+00	 0.00000000E+00	 0.00000000E+00	 0.00000000E+00	 0.00000000E+00	 0.00000000E+00	 0.00000000E+00	 0.00000000E+00	 0.00000000E+00	 0.00000000E+00	 1.56988000E-02	 0.00000000E+00	 1.22666000E-01	 0.00000000E+00	 3.10825000E-02	 0.00000000E+00	 0.00000000E+00	 0.00000000E+00	 0.00000000E+00	 0.00000000E+00	 0.00000000E+00	 0.00000000E+00	 0.00000000E+00	 0.00000000E+00	 0.00000000E+00	 0.00000000E+00	 0.00000000E+00	 0.00000000E+00	 7.05895000E-02	 0.00000000E+00	 5.48643000E-01	 0.00000000E+00	 1.72724000E-07	 0.00000000E+00	 0.00000000E+00	 0.00000000E+00	 0.00000000E+00	 0.00000000E+00	 0.00000000E+00	 0.00000000E+00	 0.00000000E+00	 0.00000000E+00	 0.00000000E+00	 0.00000000E+00	 0.00000000E+00	 0.00000000E+00	 7.85186000E-07	 0.00000000E+00	 6.14837000E-06
		-9.42077000E-07	-2.01913000E-06	 2.96121000E-06	-1.08071000E-06	-8.12127000E-07	-6.27836000E-07	 0.00000000E+00	 6.31646000E-03	 0.00000000E+00	 0.00000000E+00	 0.00000000E+00	 0.00000000E+00	 0.00000000E+00	 0.00000000E+00	 0.00000000E+00	 0.00000000E+00	 0.00000000E+00	 0.00000000E+00	 0.00000000E+00	 0.00000000E+00	 0.00000000E+00	 1.37005000E-02	 0.00000000E+00	 1.11792000E-01	 0.00000000E+00	 2.84198000E-02	 0.00000000E+00	 0.00000000E+00	 0.00000000E+00	 0.00000000E+00	 0.00000000E+00	 0.00000000E+00	 0.00000000E+00	 0.00000000E+00	 0.00000000E+00	 0.00000000E+00	 0.00000000E+00	 0.00000000E+00	 0.00000000E+00	 6.16101000E-02	 0.00000000E+00	 5.00266000E-01	 0.00000000E+00	 1.57924000E-07	 0.00000000E+00	 0.00000000E+00	 0.00000000E+00	 0.00000000E+00	 0.00000000E+00	 0.00000000E+00	 0.00000000E+00	 0.00000000E+00	 0.00000000E+00	 0.00000000E+00	 0.00000000E+00	 0.00000000E+00	 0.00000000E+00	 6.85215000E-07	 0.00000000E+00	 5.60215000E-06
		-9.88025000E-07	-2.12005000E-06	 3.10807000E-06	-1.12830000E-06	-8.51593000E-07	-6.61437000E-07	 0.00000000E+00	 6.60910000E-03	 0.00000000E+00	 0.00000000E+00	 0.00000000E+00	 0.00000000E+00	 0.00000000E+00	 0.00000000E+00	 0.00000000E+00	 0.00000000E+00	 0.00000000E+00	 0.00000000E+00	 0.00000000E+00	 0.00000000E+00	 0.00000000E+00	 1.46687000E-02	 0.00000000E+00	 1.17087000E-01	 0.00000000E+00	 2.97363000E-02	 0.00000000E+00	 0.00000000E+00	 0.00000000E+00	 0.00000000E+00	 0.00000000E+00	 0.00000000E+00	 0.00000000E+00	 0.00000000E+00	 0.00000000E+00	 0.00000000E+00	 0.00000000E+00	 0.00000000E+00	 0.00000000E+00	 6.59605000E-02	 0.00000000E+00	 5.23825000E-01	 0.00000000E+00	 1.65241000E-07	 0.00000000E+00	 0.00000000E+00	 0.00000000E+00	 0.00000000E+00	 0.00000000E+00	 0.00000000E+00	 0.00000000E+00	 0.00000000E+00	 0.00000000E+00	 0.00000000E+00	 0.00000000E+00	 0.00000000E+00	 0.00000000E+00	 7.33648000E-07	 0.00000000E+00	 5.86809000E-06
		-1.09790000E-06	-2.36018000E-06	 3.45808000E-06	-1.23686000E-06	-9.44105000E-07	-7.42525000E-07	 0.00000000E+00	 7.42962000E-03	 0.00000000E+00	 0.00000000E+00	 0.00000000E+00	 0.00000000E+00	 0.00000000E+00	 0.00000000E+00	 0.00000000E+00	 0.00000000E+00	 0.00000000E+00	 0.00000000E+00	 0.00000000E+00	 0.00000000E+00	 0.00000000E+00	 1.71418000E-02	 0.00000000E+00	 1.29499000E-01	 0.00000000E+00	 3.34274000E-02	 0.00000000E+00	 0.00000000E+00	 0.00000000E+00	 0.00000000E+00	 0.00000000E+00	 0.00000000E+00	 0.00000000E+00	 0.00000000E+00	 0.00000000E+00	 0.00000000E+00	 0.00000000E+00	 0.00000000E+00	 0.00000000E+00	 7.70723000E-02	 0.00000000E+00	 5.79008000E-01	 0.00000000E+00	 1.85758000E-07	 0.00000000E+00	 0.00000000E+00	 0.00000000E+00	 0.00000000E+00	 0.00000000E+00	 0.00000000E+00	 0.00000000E+00	 0.00000000E+00	 0.00000000E+00	 0.00000000E+00	 0.00000000E+00	 0.00000000E+00	 0.00000000E+00	 8.57383000E-07	 0.00000000E+00	 6.49174000E-06
		-1.16187000E-06	-2.49980000E-06	 3.66167000E-06	-1.29363000E-06	-9.96267000E-07	-7.91436000E-07	 0.00000000E+00	 8.01001000E-03	 0.00000000E+00	 0.00000000E+00	 0.00000000E+00	 0.00000000E+00	 0.00000000E+00	 0.00000000E+00	 0.00000000E+00	 0.00000000E+00	 0.00000000E+00	 0.00000000E+00	 0.00000000E+00	 0.00000000E+00	 0.00000000E+00	 1.88269000E-02	 0.00000000E+00	 1.36457000E-01	 0.00000000E+00	 3.60382000E-02	 0.00000000E+00	 0.00000000E+00	 0.00000000E+00	 0.00000000E+00	 0.00000000E+00	 0.00000000E+00	 0.00000000E+00	 0.00000000E+00	 0.00000000E+00	 0.00000000E+00	 0.00000000E+00	 0.00000000E+00	 0.00000000E+00	 8.46422000E-02	 0.00000000E+00	 6.09919000E-01	 0.00000000E+00	 2.00270000E-07	 0.00000000E+00	 0.00000000E+00	 0.00000000E+00	 0.00000000E+00	 0.00000000E+00	 0.00000000E+00	 0.00000000E+00	 0.00000000E+00	 0.00000000E+00	 0.00000000E+00	 0.00000000E+00	 0.00000000E+00	 0.00000000E+00	 9.41695000E-07	 0.00000000E+00	 6.84141000E-06
		-1.00968000E-06	-2.16395000E-06	 3.17363000E-06	-1.14131000E-06	-8.66140000E-07	-6.77649000E-07	 0.00000000E+00	 7.02125000E-03	 0.00000000E+00	 0.00000000E+00	 0.00000000E+00	 0.00000000E+00	 0.00000000E+00	 0.00000000E+00	 0.00000000E+00	 0.00000000E+00	 0.00000000E+00	 0.00000000E+00	 0.00000000E+00	 0.00000000E+00	 0.00000000E+00	 1.53477000E-02	 0.00000000E+00	 1.19102000E-01	 0.00000000E+00	 3.15903000E-02	 0.00000000E+00	 0.00000000E+00	 0.00000000E+00	 0.00000000E+00	 0.00000000E+00	 0.00000000E+00	 0.00000000E+00	 0.00000000E+00	 0.00000000E+00	 0.00000000E+00	 0.00000000E+00	 0.00000000E+00	 0.00000000E+00	 6.90114000E-02	 0.00000000E+00	 5.32785000E-01	 0.00000000E+00	 1.75547000E-07	 0.00000000E+00	 0.00000000E+00	 0.00000000E+00	 0.00000000E+00	 0.00000000E+00	 0.00000000E+00	 0.00000000E+00	 0.00000000E+00	 0.00000000E+00	 0.00000000E+00	 0.00000000E+00	 0.00000000E+00	 0.00000000E+00	 7.67621000E-07	 0.00000000E+00	 5.96935000E-06
		-1.07142000E-06	-2.30167000E-06	 3.37309000E-06	-1.20776000E-06	-9.20781000E-07	-7.23415000E-07	 0.00000000E+00	 7.29874000E-03	 0.00000000E+00	 0.00000000E+00	 0.00000000E+00	 0.00000000E+00	 0.00000000E+00	 0.00000000E+00	 0.00000000E+00	 0.00000000E+00	 0.00000000E+00	 0.00000000E+00	 0.00000000E+00	 0.00000000E+00	 0.00000000E+00	 1.66356000E-02	 0.00000000E+00	 1.26373000E-01	 0.00000000E+00	 3.28387000E-02	 0.00000000E+00	 0.00000000E+00	 0.00000000E+00	 0.00000000E+00	 0.00000000E+00	 0.00000000E+00	 0.00000000E+00	 0.00000000E+00	 0.00000000E+00	 0.00000000E+00	 0.00000000E+00	 0.00000000E+00	 0.00000000E+00	 7.47983000E-02	 0.00000000E+00	 5.65120000E-01	 0.00000000E+00	 1.82485000E-07	 0.00000000E+00	 0.00000000E+00	 0.00000000E+00	 0.00000000E+00	 0.00000000E+00	 0.00000000E+00	 0.00000000E+00	 0.00000000E+00	 0.00000000E+00	 0.00000000E+00	 0.00000000E+00	 0.00000000E+00	 0.00000000E+00	 8.32053000E-07	 0.00000000E+00	 6.33460000E-06
		-1.00538000E-06	-2.15713000E-06	 3.16251000E-06	-1.14469000E-06	-8.65621000E-07	-6.73932000E-07	 0.00000000E+00	 6.78135000E-03	 0.00000000E+00	 0.00000000E+00	 0.00000000E+00	 0.00000000E+00	 0.00000000E+00	 0.00000000E+00	 0.00000000E+00	 0.00000000E+00	 0.00000000E+00	 0.00000000E+00	 0.00000000E+00	 0.00000000E+00	 0.00000000E+00	 1.50553000E-02	 0.00000000E+00	 1.18994000E-01	 0.00000000E+00	 3.05111000E-02	 0.00000000E+00	 0.00000000E+00	 0.00000000E+00	 0.00000000E+00	 0.00000000E+00	 0.00000000E+00	 0.00000000E+00	 0.00000000E+00	 0.00000000E+00	 0.00000000E+00	 0.00000000E+00	 0.00000000E+00	 0.00000000E+00	 6.76976000E-02	 0.00000000E+00	 5.32307000E-01	 0.00000000E+00	 1.69548000E-07	 0.00000000E+00	 0.00000000E+00	 0.00000000E+00	 0.00000000E+00	 0.00000000E+00	 0.00000000E+00	 0.00000000E+00	 0.00000000E+00	 0.00000000E+00	 0.00000000E+00	 0.00000000E+00	 0.00000000E+00	 0.00000000E+00	 7.52990000E-07	 0.00000000E+00	 5.96393000E-06
		-1.07142000E-06	-2.30167000E-06	 3.37309000E-06	-1.20776000E-06	-9.20781000E-07	-7.23415000E-07	 0.00000000E+00	 7.29874000E-03	 0.00000000E+00	 0.00000000E+00	 0.00000000E+00	 0.00000000E+00	 0.00000000E+00	 0.00000000E+00	 0.00000000E+00	 0.00000000E+00	 0.00000000E+00	 0.00000000E+00	 0.00000000E+00	 0.00000000E+00	 0.00000000E+00	 1.66356000E-02	 0.00000000E+00	 1.26373000E-01	 0.00000000E+00	 3.28387000E-02	 0.00000000E+00	 0.00000000E+00	 0.00000000E+00	 0.00000000E+00	 0.00000000E+00	 0.00000000E+00	 0.00000000E+00	 0.00000000E+00	 0.00000000E+00	 0.00000000E+00	 0.00000000E+00	 0.00000000E+00	 0.00000000E+00	 7.47983000E-02	 0.00000000E+00	 5.65120000E-01	 0.00000000E+00	 1.82485000E-07	 0.00000000E+00	 0.00000000E+00	 0.00000000E+00	 0.00000000E+00	 0.00000000E+00	 0.00000000E+00	 0.00000000E+00	 0.00000000E+00	 0.00000000E+00	 0.00000000E+00	 0.00000000E+00	 0.00000000E+00	 0.00000000E+00	 8.32053000E-07	 0.00000000E+00	 6.33460000E-06
		-1.11549000E-06	-2.39809000E-06	 3.51358000E-06	-1.24962000E-06	-9.57508000E-07	-7.56477000E-07	 0.00000000E+00	 7.64971000E-03	 0.00000000E+00	 0.00000000E+00	 0.00000000E+00	 0.00000000E+00	 0.00000000E+00	 0.00000000E+00	 0.00000000E+00	 0.00000000E+00	 0.00000000E+00	 0.00000000E+00	 0.00000000E+00	 0.00000000E+00	 0.00000000E+00	 1.76977000E-02	 0.00000000E+00	 1.31284000E-01	 0.00000000E+00	 3.44175000E-02	 0.00000000E+00	 0.00000000E+00	 0.00000000E+00	 0.00000000E+00	 0.00000000E+00	 0.00000000E+00	 0.00000000E+00	 0.00000000E+00	 0.00000000E+00	 0.00000000E+00	 0.00000000E+00	 0.00000000E+00	 0.00000000E+00	 7.95700000E-02	 0.00000000E+00	 5.86940000E-01	 0.00000000E+00	 1.91261000E-07	 0.00000000E+00	 0.00000000E+00	 0.00000000E+00	 0.00000000E+00	 0.00000000E+00	 0.00000000E+00	 0.00000000E+00	 0.00000000E+00	 0.00000000E+00	 0.00000000E+00	 0.00000000E+00	 0.00000000E+00	 0.00000000E+00	 8.85199000E-07	 0.00000000E+00	 6.58142000E-06
		-1.00423000E-06	-2.15134000E-06	 3.15558000E-06	-1.13311000E-06	-8.60528000E-07	-6.73990000E-07	 0.00000000E+00	 7.04764000E-03	 0.00000000E+00	 0.00000000E+00	 0.00000000E+00	 0.00000000E+00	 0.00000000E+00	 0.00000000E+00	 0.00000000E+00	 0.00000000E+00	 0.00000000E+00	 0.00000000E+00	 0.00000000E+00	 0.00000000E+00	 0.00000000E+00	 1.53077000E-02	 0.00000000E+00	 1.18354000E-01	 0.00000000E+00	 3.17090000E-02	 0.00000000E+00	 0.00000000E+00	 0.00000000E+00	 0.00000000E+00	 0.00000000E+00	 0.00000000E+00	 0.00000000E+00	 0.00000000E+00	 0.00000000E+00	 0.00000000E+00	 0.00000000E+00	 0.00000000E+00	 0.00000000E+00	 6.88319000E-02	 0.00000000E+00	 5.29457000E-01	 0.00000000E+00	 1.76206000E-07	 0.00000000E+00	 0.00000000E+00	 0.00000000E+00	 0.00000000E+00	 0.00000000E+00	 0.00000000E+00	 0.00000000E+00	 0.00000000E+00	 0.00000000E+00	 0.00000000E+00	 0.00000000E+00	 0.00000000E+00	 0.00000000E+00	 7.65622000E-07	 0.00000000E+00	 5.93175000E-06
		-1.16187000E-06	-2.49980000E-06	 3.66167000E-06	-1.29363000E-06	-9.96267000E-07	-7.91436000E-07	 0.00000000E+00	 8.01001000E-03	 0.00000000E+00	 0.00000000E+00	 0.00000000E+00	 0.00000000E+00	 0.00000000E+00	 0.00000000E+00	 0.00000000E+00	 0.00000000E+00	 0.00000000E+00	 0.00000000E+00	 0.00000000E+00	 0.00000000E+00	 0.00000000E+00	 1.88269000E-02	 0.00000000E+00	 1.36457000E-01	 0.00000000E+00	 3.60382000E-02	 0.00000000E+00	 0.00000000E+00	 0.00000000E+00	 0.00000000E+00	 0.00000000E+00	 0.00000000E+00	 0.00000000E+00	 0.00000000E+00	 0.00000000E+00	 0.00000000E+00	 0.00000000E+00	 0.00000000E+00	 0.00000000E+00	 8.46422000E-02	 0.00000000E+00	 6.09919000E-01	 0.00000000E+00	 2.00270000E-07	 0.00000000E+00	 0.00000000E+00	 0.00000000E+00	 0.00000000E+00	 0.00000000E+00	 0.00000000E+00	 0.00000000E+00	 0.00000000E+00	 0.00000000E+00	 0.00000000E+00	 0.00000000E+00	 0.00000000E+00	 0.00000000E+00	 9.41695000E-07	 0.00000000E+00	 6.84141000E-06
		-1.11549000E-06	-2.39809000E-06	 3.51358000E-06	-1.24962000E-06	-9.57508000E-07	-7.56477000E-07	 0.00000000E+00	 7.64971000E-03	 0.00000000E+00	 0.00000000E+00	 0.00000000E+00	 0.00000000E+00	 0.00000000E+00	 0.00000000E+00	 0.00000000E+00	 0.00000000E+00	 0.00000000E+00	 0.00000000E+00	 0.00000000E+00	 0.00000000E+00	 0.00000000E+00	 1.76977000E-02	 0.00000000E+00	 1.31284000E-01	 0.00000000E+00	 3.44175000E-02	 0.00000000E+00	 0.00000000E+00	 0.00000000E+00	 0.00000000E+00	 0.00000000E+00	 0.00000000E+00	 0.00000000E+00	 0.00000000E+00	 0.00000000E+00	 0.00000000E+00	 0.00000000E+00	 0.00000000E+00	 0.00000000E+00	 7.95700000E-02	 0.00000000E+00	 5.86940000E-01	 0.00000000E+00	 1.91261000E-07	 0.00000000E+00	 0.00000000E+00	 0.00000000E+00	 0.00000000E+00	 0.00000000E+00	 0.00000000E+00	 0.00000000E+00	 0.00000000E+00	 0.00000000E+00	 0.00000000E+00	 0.00000000E+00	 0.00000000E+00	 0.00000000E+00	 8.85199000E-07	 0.00000000E+00	 6.58142000E-06
		-1.00423000E-06	-2.15134000E-06	 3.15558000E-06	-1.13311000E-06	-8.60528000E-07	-6.73990000E-07	 0.00000000E+00	 7.04764000E-03	 0.00000000E+00	 0.00000000E+00	 0.00000000E+00	 0.00000000E+00	 0.00000000E+00	 0.00000000E+00	 0.00000000E+00	 0.00000000E+00	 0.00000000E+00	 0.00000000E+00	 0.00000000E+00	 0.00000000E+00	 0.00000000E+00	 1.53077000E-02	 0.00000000E+00	 1.18354000E-01	 0.00000000E+00	 3.17090000E-02	 0.00000000E+00	 0.00000000E+00	 0.00000000E+00	 0.00000000E+00	 0.00000000E+00	 0.00000000E+00	 0.00000000E+00	 0.00000000E+00	 0.00000000E+00	 0.00000000E+00	 0.00000000E+00	 0.00000000E+00	 0.00000000E+00	 6.88319000E-02	 0.00000000E+00	 5.29457000E-01	 0.00000000E+00	 1.76206000E-07	 0.00000000E+00	 0.00000000E+00	 0.00000000E+00	 0.00000000E+00	 0.00000000E+00	 0.00000000E+00	 0.00000000E+00	 0.00000000E+00	 0.00000000E+00	 0.00000000E+00	 0.00000000E+00	 0.00000000E+00	 0.00000000E+00	 7.65622000E-07	 0.00000000E+00	 5.93175000E-06
		-1.00538000E-06	-2.15713000E-06	 3.16251000E-06	-1.14469000E-06	-8.65621000E-07	-6.73932000E-07	 0.00000000E+00	 6.78135000E-03	 0.00000000E+00	 0.00000000E+00	 0.00000000E+00	 0.00000000E+00	 0.00000000E+00	 0.00000000E+00	 0.00000000E+00	 0.00000000E+00	 0.00000000E+00	 0.00000000E+00	 0.00000000E+00	 0.00000000E+00	 0.00000000E+00	 1.50553000E-02	 0.00000000E+00	 1.18994000E-01	 0.00000000E+00	 3.05111000E-02	 0.00000000E+00	 0.00000000E+00	 0.00000000E+00	 0.00000000E+00	 0.00000000E+00	 0.00000000E+00	 0.00000000E+00	 0.00000000E+00	 0.00000000E+00	 0.00000000E+00	 0.00000000E+00	 0.00000000E+00	 0.00000000E+00	 6.76976000E-02	 0.00000000E+00	 5.32307000E-01	 0.00000000E+00	 1.69548000E-07	 0.00000000E+00	 0.00000000E+00	 0.00000000E+00	 0.00000000E+00	 0.00000000E+00	 0.00000000E+00	 0.00000000E+00	 0.00000000E+00	 0.00000000E+00	 0.00000000E+00	 0.00000000E+00	 0.00000000E+00	 0.00000000E+00	 7.52990000E-07	 0.00000000E+00	 5.96393000E-06
		-9.42077000E-07	-2.01913000E-06	 2.96121000E-06	-1.08071000E-06	-8.12127000E-07	-6.27836000E-07	 0.00000000E+00	 6.31646000E-03	 0.00000000E+00	 0.00000000E+00	 0.00000000E+00	 0.00000000E+00	 0.00000000E+00	 0.00000000E+00	 0.00000000E+00	 0.00000000E+00	 0.00000000E+00	 0.00000000E+00	 0.00000000E+00	 0.00000000E+00	 0.00000000E+00	 1.37005000E-02	 0.00000000E+00	 1.11792000E-01	 0.00000000E+00	 2.84198000E-02	 0.00000000E+00	 0.00000000E+00	 0.00000000E+00	 0.00000000E+00	 0.00000000E+00	 0.00000000E+00	 0.00000000E+00	 0.00000000E+00	 0.00000000E+00	 0.00000000E+00	 0.00000000E+00	 0.00000000E+00	 0.00000000E+00	 6.16101000E-02	 0.00000000E+00	 5.00266000E-01	 0.00000000E+00	 1.57924000E-07	 0.00000000E+00	 0.00000000E+00	 0.00000000E+00	 0.00000000E+00	 0.00000000E+00	 0.00000000E+00	 0.00000000E+00	 0.00000000E+00	 0.00000000E+00	 0.00000000E+00	 0.00000000E+00	 0.00000000E+00	 0.00000000E+00	 6.85215000E-07	 0.00000000E+00	 5.60215000E-06
		-1.00968000E-06	-2.16395000E-06	 3.17363000E-06	-1.14131000E-06	-8.66140000E-07	-6.77649000E-07	 0.00000000E+00	 7.02125000E-03	 0.00000000E+00	 0.00000000E+00	 0.00000000E+00	 0.00000000E+00	 0.00000000E+00	 0.00000000E+00	 0.00000000E+00	 0.00000000E+00	 0.00000000E+00	 0.00000000E+00	 0.00000000E+00	 0.00000000E+00	 0.00000000E+00	 1.53477000E-02	 0.00000000E+00	 1.19102000E-01	 0.00000000E+00	 3.15903000E-02	 0.00000000E+00	 0.00000000E+00	 0.00000000E+00	 0.00000000E+00	 0.00000000E+00	 0.00000000E+00	 0.00000000E+00	 0.00000000E+00	 0.00000000E+00	 0.00000000E+00	 0.00000000E+00	 0.00000000E+00	 0.00000000E+00	 6.90114000E-02	 0.00000000E+00	 5.32785000E-01	 0.00000000E+00	 1.75547000E-07	 0.00000000E+00	 0.00000000E+00	 0.00000000E+00	 0.00000000E+00	 0.00000000E+00	 0.00000000E+00	 0.00000000E+00	 0.00000000E+00	 0.00000000E+00	 0.00000000E+00	 0.00000000E+00	 0.00000000E+00	 0.00000000E+00	 7.67621000E-07	 0.00000000E+00	 5.96935000E-06
		-1.09790000E-06	-2.36018000E-06	 3.45808000E-06	-1.23686000E-06	-9.44105000E-07	-7.42525000E-07	 0.00000000E+00	 7.42962000E-03	 0.00000000E+00	 0.00000000E+00	 0.00000000E+00	 0.00000000E+00	 0.00000000E+00	 0.00000000E+00	 0.00000000E+00	 0.00000000E+00	 0.00000000E+00	 0.00000000E+00	 0.00000000E+00	 0.00000000E+00	 0.00000000E+00	 1.71418000E-02	 0.00000000E+00	 1.29499000E-01	 0.00000000E+00	 3.34274000E-02	 0.00000000E+00	 0.00000000E+00	 0.00000000E+00	 0.00000000E+00	 0.00000000E+00	 0.00000000E+00	 0.00000000E+00	 0.00000000E+00	 0.00000000E+00	 0.00000000E+00	 0.00000000E+00	 0.00000000E+00	 0.00000000E+00	 7.70723000E-02	 0.00000000E+00	 5.79008000E-01	 0.00000000E+00	 1.85758000E-07	 0.00000000E+00	 0.00000000E+00	 0.00000000E+00	 0.00000000E+00	 0.00000000E+00	 0.00000000E+00	 0.00000000E+00	 0.00000000E+00	 0.00000000E+00	 0.00000000E+00	 0.00000000E+00	 0.00000000E+00	 0.00000000E+00	 8.57383000E-07	 0.00000000E+00	 6.49174000E-06
		-1.03640000E-06	-2.22655000E-06	 3.26295000E-06	-1.17839000E-06	-8.93253000E-07	-6.96974000E-07	 0.00000000E+00	 6.90836000E-03	 0.00000000E+00	 0.00000000E+00	 0.00000000E+00	 0.00000000E+00	 0.00000000E+00	 0.00000000E+00	 0.00000000E+00	 0.00000000E+00	 0.00000000E+00	 0.00000000E+00	 0.00000000E+00	 0.00000000E+00	 0.00000000E+00	 1.56988000E-02	 0.00000000E+00	 1.22666000E-01	 0.00000000E+00	 3.10825000E-02	 0.00000000E+00	 0.00000000E+00	 0.00000000E+00	 0.00000000E+00	 0.00000000E+00	 0.00000000E+00	 0.00000000E+00	 0.00000000E+00	 0.00000000E+00	 0.00000000E+00	 0.00000000E+00	 0.00000000E+00	 0.00000000E+00	 7.05895000E-02	 0.00000000E+00	 5.48643000E-01	 0.00000000E+00	 1.72724000E-07	 0.00000000E+00	 0.00000000E+00	 0.00000000E+00	 0.00000000E+00	 0.00000000E+00	 0.00000000E+00	 0.00000000E+00	 0.00000000E+00	 0.00000000E+00	 0.00000000E+00	 0.00000000E+00	 0.00000000E+00	 0.00000000E+00	 7.85186000E-07	 0.00000000E+00	 6.14837000E-06
		-9.88025000E-07	-2.12005000E-06	 3.10807000E-06	-1.12830000E-06	-8.51593000E-07	-6.61437000E-07	 0.00000000E+00	 6.60910000E-03	 0.00000000E+00	 0.00000000E+00	 0.00000000E+00	 0.00000000E+00	 0.00000000E+00	 0.00000000E+00	 0.00000000E+00	 0.00000000E+00	 0.00000000E+00	 0.00000000E+00	 0.00000000E+00	 0.00000000E+00	 0.00000000E+00	 1.46687000E-02	 0.00000000E+00	 1.17087000E-01	 0.00000000E+00	 2.97363000E-02	 0.00000000E+00	 0.00000000E+00	 0.00000000E+00	 0.00000000E+00	 0.00000000E+00	 0.00000000E+00	 0.00000000E+00	 0.00000000E+00	 0.00000000E+00	 0.00000000E+00	 0.00000000E+00	 0.00000000E+00	 0.00000000E+00	 6.59605000E-02	 0.00000000E+00	 5.23825000E-01	 0.00000000E+00	 1.65241000E-07	 0.00000000E+00	 0.00000000E+00	 0.00000000E+00	 0.00000000E+00	 0.00000000E+00	 0.00000000E+00	 0.00000000E+00	 0.00000000E+00	 0.00000000E+00	 0.00000000E+00	 0.00000000E+00	 0.00000000E+00	 0.00000000E+00	 7.33648000E-07	 0.00000000E+00	 5.86809000E-06
