# vtk DataFile Version 3.0

ASCII
DATASET UNSTRUCTURED_GRID

POINTS 20 double
	 1.00000000E+00	 0.00000000E+00	 0.00000000E+00
	 5.00000000E-01	 0.00000000E+00	 0.00000000E+00
	 7.50000000E-01	 0.00000000E+00	 0.00000000E+00
	 1.00000000E+00	 2.50000000E-01	 0.00000000E+00
	 1.00000000E+00	 5.00000000E-01	 0.00000000E+00
	 1.00000000E+00	 0.00000000E+00	 5.00000000E-01
	 1.00000000E+00	 0.00000000E+00	 1.00000000E+00
	 5.00000000E-01	 2.50000000E-01	 0.00000000E+00
	 5.00000000E-01	 5.00000000E-01	 0.00000000E+00
	 7.50000000E-01	 5.00000000E-01	 0.00000000E+00
	 5.00000000E-01	 0.00000000E+00	 5.00000000E-01
	 5.00000000E-01	 0.00000000E+00	 1.00000000E+00
	 7.50000000E-01	 0.00000000E+00	 1.00000000E+00
	 1.00000000E+00	 5.00000000E-01	 5.00000000E-01
	 1.00000000E+00	 2.50000000E-01	 1.00000000E+00
	 1.00000000E+00	 5.00000000E-01	 1.00000000E+00
	 5.00000000E-01	 5.00000000E-01	 5.00000000E-01
	 5.00000000E-01	 2.50000000E-01	 1.00000000E+00
	 5.00000000E-01	 5.00000000E-01	 1.00000000E+00
	 7.50000000E-01	 5.00000000E-01	 1.00000000E+00

CELLS 1 21
	20 1 0 4 8 11 6 15 18 2 3 9 7 12 14 19 17 10 5 13 16 

CELL_TYPES 1
	25

POINT_DATA 20
FIELD U 1
	U 3 20 double
		 0.00000000E+00	 0.00000000E+00	 0.00000000E+00
		 7.67106000E-04	 0.00000000E+00	 0.00000000E+00
		 3.84726000E-04	-1.24098000E-06	 0.00000000E+00
		 2.39358000E-05	-1.85693000E-04	 0.00000000E+00
		 4.94034000E-05	-3.76527000E-04	 0.00000000E+00
		 3.38587000E-04	 5.11401000E-04	 1.98564000E-03
		 6.76981000E-04	 1.02212000E-03	 3.98062000E-03
		 8.00062000E-04	-1.78394000E-04	 0.00000000E+00
		 8.33935000E-04	-3.62986000E-04	 0.00000000E+00
		 4.43230000E-04	-3.71365000E-04	 0.00000000E+00
		 1.11651000E-03	 5.16106000E-04	 1.97136000E-03
		 1.46151000E-03	 1.03566000E-03	 3.98062000E-03
		 1.06769000E-03	 1.03050000E-03	 3.98062000E-03
		 3.94410000E-04	 1.43029000E-04	 2.00927000E-03
		 7.10853000E-04	 8.37527000E-04	 3.98062000E-03
		 7.43809000E-04	 6.59132000E-04	 3.98062000E-03
		 1.17233000E-03	 1.47734000E-04	 1.99499000E-03
		 1.48698000E-03	 8.44829000E-04	 3.98062000E-03
		 1.51092000E-03	 6.59135000E-04	 3.98062000E-03
		 1.12619000E-03	 6.60375000E-04	 3.98062000E-03
FIELD S 1
	S 10 20 double
		 1.74864000E-02	 4.92819000E-01	 4.64958000E+02	 2.93343000E-01	-1.03942000E+00	-1.28627000E+00	 4.64712135E+02	-1.23488004E-01	 6.27905242E-01	 4.64963888E+02
		-1.86361000E-02	 2.77338000E-01	 4.63159000E+02	 3.40771000E-01	-1.48197000E+00	-8.35112000E-01	 4.63039470E+02	-2.42194819E-01	 4.94642453E-01	 4.63165254E+02
		-1.33808000E-01	 3.77888000E-01	 4.64041000E+02	 3.68180000E-01	-1.13906000E+00	-1.25854000E+00	 4.63928926E+02	-3.27054569E-01	 5.64919125E-01	 4.64047215E+02
		 2.27861000E-01	 4.31986000E-01	 4.66909000E+02	 2.35593000E-01	-6.60091000E-01	-4.31704000E-01	 4.66581288E+02	 7.31730028E-02	 5.85339970E-01	 4.66910334E+02
		 4.56456000E-01	 5.60259000E-01	 4.68906000E+02	 2.38839000E-01	 1.24373000E-01	 1.53701000E-01	 4.68397959E+02	 2.63940560E-01	 7.52690940E-01	 4.68906084E+02
		 2.06791000E-02	-9.65271000E-02	 4.66091000E+02	-1.65738000E-01	 3.49388000E-01	 5.40426000E-02	 4.66129426E+02	-2.13932476E-01	 1.37816387E-01	 4.66091268E+02
		 3.36399000E-01	 3.75483000E-01	 4.66524000E+02	 2.88587000E-01	-9.13995000E-01	-8.00045000E-01	 4.66173076E+02	 6.66897283E-02	 6.42025253E-01	 4.66527167E+02
		 1.50273000E-01	 2.30416000E-01	 4.64819000E+02	 2.83625000E-01	-1.40205000E+00	-6.84889000E-01	 4.64636781E+02	-9.64484949E-02	 4.71894400E-01	 4.64824243E+02
		 3.36407000E-01	 3.75713000E-01	 4.66523000E+02	 2.88896000E-01	-9.14030000E-01	-8.00094000E-01	 4.66171958E+02	 6.64929552E-02	 6.42459711E-01	 4.66526167E+02
		 2.65387000E-01	 4.58788000E-01	 4.67697000E+02	 3.15060000E-01	-2.74302000E-01	-5.15644000E-01	 4.67336356E+02	 3.23859218E-02	 6.91058807E-01	 4.67697730E+02
		 6.20592000E-02	-1.24959000E-01	 4.66395000E+02	-1.74411000E-01	 6.45103000E-01	 7.59367000E-01	 4.66429769E+02	-2.31255541E-01	 1.66227951E-01	 4.66397128E+02
		 4.56441000E-01	 5.60101000E-01	 4.68907000E+02	 2.38473000E-01	 1.24517000E-01	 1.53752000E-01	 4.68399045E+02	 2.64226904E-01	 7.52231486E-01	 4.68907084E+02
		 2.65396000E-01	 4.58624000E-01	 4.67697000E+02	 3.14706000E-01	-2.74216000E-01	-5.15584000E-01	 4.67336432E+02	 3.26721987E-02	 6.90617764E-01	 4.67697730E+02
		 6.21069000E-02	-1.24954000E-01	 4.66395000E+02	-1.74320000E-01	 6.44993000E-01	 7.59361000E-01	 4.66429742E+02	-2.31158494E-01	 1.66183927E-01	 4.66397127E+02
		 1.50253000E-01	 2.30173000E-01	 4.64819000E+02	 2.83352000E-01	-1.40211000E+00	-6.84907000E-01	 4.64636912E+02	-9.62944708E-02	 4.71476965E-01	 4.64824244E+02
		-1.87503000E-02	 2.77074000E-01	 4.63159000E+02	 3.40554000E-01	-1.48212000E+00	-8.35235000E-01	 4.63039661E+02	-2.42155013E-01	 4.94223048E-01	 4.63165256E+02
		 2.07290000E-02	-9.65463000E-02	 4.66091000E+02	-1.65620000E-01	 3.49299000E-01	 5.41358000E-02	 4.66129410E+02	-2.13817426E-01	 1.37732149E-01	 4.66091268E+02
		 2.27847000E-01	 4.31950000E-01	 4.66909000E+02	 2.35364000E-01	-6.59988000E-01	-4.31747000E-01	 4.66581313E+02	 7.33624933E-02	 5.85100692E-01	 4.66910334E+02
		 1.74088000E-02	 4.92878000E-01	 4.64959000E+02	 2.93266000E-01	-1.03936000E+00	-1.28640000E+00	 4.64713145E+02	-1.23481545E-01	 6.27879745E-01	 4.64964889E+02
		-1.33897000E-01	 3.77832000E-01	 4.64041000E+02	 3.68019000E-01	-1.13910000E+00	-1.25869000E+00	 4.63929000E+02	-3.27005054E-01	 5.64723603E-01	 4.64047216E+02
FIELD SDV 1
	SDV 60 20 double
		-6.35976000E-04	-1.11482000E-03	 1.75080000E-03	-2.61891000E-04	-3.99528000E-04	-4.22006000E-04	 2.07129000E+00	 1.06709000E+01	 0.00000000E+00	 0.00000000E+00	 0.00000000E+00	 0.00000000E+00	 0.00000000E+00	 1.44440000E+00	 0.00000000E+00	 1.71396000E+00	 0.00000000E+00	 0.00000000E+00	 2.83276000E+00	 0.00000000E+00	 0.00000000E+00	 1.49360000E+01	 0.00000000E+00	 2.75478000E+01	 8.96719000E+00	 4.02608000E+01	 0.00000000E+00	 0.00000000E+00	 0.00000000E+00	 0.00000000E+00	 0.00000000E+00	 6.32391000E+00	 0.00000000E+00	 7.46795000E+00	 0.00000000E+00	 0.00000000E+00	 1.14803000E+01	 0.00000000E+00	 0.00000000E+00	 4.31747000E+01	 0.00000000E+00	 6.29918000E+01	 5.28791000E-05	 2.96469000E-04	 0.00000000E+00	 0.00000000E+00	 0.00000000E+00	 0.00000000E+00	 0.00000000E+00	 3.66462000E-05	 0.00000000E+00	 4.36013000E-05	 0.00000000E+00	 0.00000000E+00	 1.48202000E-04	 0.00000000E+00	 0.00000000E+00	 9.67472000E-04	 0.00000000E+00	 2.44565000E-03
		-6.18078000E-04	-1.08422000E-03	 1.70230000E-03	-2.51163000E-04	-3.85689000E-04	-4.11832000E-04	 2.02570000E+00	 1.04959000E+01	 0.00000000E+00	 0.00000000E+00	 0.00000000E+00	 0.00000000E+00	 0.00000000E+00	 1.41550000E+00	 0.00000000E+00	 1.62209000E+00	 0.00000000E+00	 0.00000000E+00	 2.69279000E+00	 0.00000000E+00	 0.00000000E+00	 1.47001000E+01	 0.00000000E+00	 2.70451000E+01	 8.77513000E+00	 3.96937000E+01	 0.00000000E+00	 0.00000000E+00	 0.00000000E+00	 0.00000000E+00	 0.00000000E+00	 6.20097000E+00	 0.00000000E+00	 7.07830000E+00	 0.00000000E+00	 0.00000000E+00	 1.09558000E+01	 0.00000000E+00	 0.00000000E+00	 4.26926000E+01	 0.00000000E+00	 6.22742000E+01	 5.16978000E-05	 2.91158000E-04	 0.00000000E+00	 0.00000000E+00	 0.00000000E+00	 0.00000000E+00	 0.00000000E+00	 3.59015000E-05	 0.00000000E+00	 4.12298000E-05	 0.00000000E+00	 0.00000000E+00	 1.40629000E-04	 0.00000000E+00	 0.00000000E+00	 9.48833000E-04	 0.00000000E+00	 2.37067000E-03
		-6.27336000E-04	-1.09947000E-03	 1.72680000E-03	-2.56576000E-04	-3.93320000E-04	-4.16685000E-04	 2.04282000E+00	 1.05808000E+01	 0.00000000E+00	 0.00000000E+00	 0.00000000E+00	 0.00000000E+00	 0.00000000E+00	 1.42224000E+00	 0.00000000E+00	 1.68255000E+00	 0.00000000E+00	 0.00000000E+00	 2.78789000E+00	 0.00000000E+00	 0.00000000E+00	 1.48085000E+01	 0.00000000E+00	 2.73012000E+01	 8.84754000E+00	 3.99696000E+01	 0.00000000E+00	 0.00000000E+00	 0.00000000E+00	 0.00000000E+00	 0.00000000E+00	 6.22953000E+00	 0.00000000E+00	 7.33466000E+00	 0.00000000E+00	 0.00000000E+00	 1.13116000E+01	 0.00000000E+00	 0.00000000E+00	 4.29167000E+01	 0.00000000E+00	 6.26421000E+01	 5.21407000E-05	 2.93733000E-04	 0.00000000E+00	 0.00000000E+00	 0.00000000E+00	 0.00000000E+00	 0.00000000E+00	 3.60755000E-05	 0.00000000E+00	 4.27909000E-05	 0.00000000E+00	 0.00000000E+00	 1.45778000E-04	 0.00000000E+00	 0.00000000E+00	 9.57335000E-04	 0.00000000E+00	 2.40861000E-03
		-6.48805000E-04	-1.13690000E-03	 1.78570000E-03	-2.68084000E-04	-4.04798000E-04	-4.29498000E-04	 2.12596000E+00	 1.09303000E+01	 0.00000000E+00	 0.00000000E+00	 0.00000000E+00	 0.00000000E+00	 0.00000000E+00	 1.54456000E+00	 0.00000000E+00	 1.75679000E+00	 0.00000000E+00	 0.00000000E+00	 2.80839000E+00	 0.00000000E+00	 0.00000000E+00	 1.51479000E+01	 0.00000000E+00	 2.78633000E+01	 9.19617000E+00	 4.10839000E+01	 0.00000000E+00	 0.00000000E+00	 0.00000000E+00	 0.00000000E+00	 0.00000000E+00	 6.74972000E+00	 0.00000000E+00	 7.64881000E+00	 0.00000000E+00	 0.00000000E+00	 1.13939000E+01	 0.00000000E+00	 0.00000000E+00	 4.35931000E+01	 0.00000000E+00	 6.34415000E+01	 5.43002000E-05	 3.04453000E-04	 0.00000000E+00	 0.00000000E+00	 0.00000000E+00	 0.00000000E+00	 0.00000000E+00	 3.92282000E-05	 0.00000000E+00	 4.47094000E-05	 0.00000000E+00	 0.00000000E+00	 1.46851000E-04	 0.00000000E+00	 0.00000000E+00	 9.84707000E-04	 0.00000000E+00	 2.49515000E-03
		-6.61461000E-04	-1.15723000E-03	 1.81869000E-03	-2.74432000E-04	-4.10611000E-04	-4.35559000E-04	 2.16422000E+00	 1.11849000E+01	 0.00000000E+00	 0.00000000E+00	 0.00000000E+00	 0.00000000E+00	 0.00000000E+00	 1.63807000E+00	 0.00000000E+00	 1.83189000E+00	 0.00000000E+00	 0.00000000E+00	 2.82061000E+00	 0.00000000E+00	 0.00000000E+00	 1.53095000E+01	 0.00000000E+00	 2.81642000E+01	 9.35669000E+00	 4.18868000E+01	 0.00000000E+00	 0.00000000E+00	 0.00000000E+00	 0.00000000E+00	 0.00000000E+00	 7.14614000E+00	 0.00000000E+00	 7.96528000E+00	 0.00000000E+00	 0.00000000E+00	 1.14433000E+01	 0.00000000E+00	 0.00000000E+00	 4.39153000E+01	 0.00000000E+00	 6.38660000E+01	 5.52935000E-05	 3.12323000E-04	 0.00000000E+00	 0.00000000E+00	 0.00000000E+00	 0.00000000E+00	 0.00000000E+00	 4.16422000E-05	 0.00000000E+00	 4.66547000E-05	 0.00000000E+00	 0.00000000E+00	 1.47489000E-04	 0.00000000E+00	 0.00000000E+00	 9.97716000E-04	 0.00000000E+00	 2.54287000E-03
		-6.38679000E-04	-1.11697000E-03	 1.75565000E-03	-2.67874000E-04	-3.96056000E-04	-4.19144000E-04	 2.07340000E+00	 1.08693000E+01	 0.00000000E+00	 0.00000000E+00	 0.00000000E+00	 0.00000000E+00	 0.00000000E+00	 1.58655000E+00	 0.00000000E+00	 1.76440000E+00	 0.00000000E+00	 0.00000000E+00	 2.69772000E+00	 0.00000000E+00	 0.00000000E+00	 1.48018000E+01	 0.00000000E+00	 2.76250000E+01	 8.97597000E+00	 4.08837000E+01	 0.00000000E+00	 0.00000000E+00	 0.00000000E+00	 0.00000000E+00	 0.00000000E+00	 6.92748000E+00	 0.00000000E+00	 7.67982000E+00	 0.00000000E+00	 0.00000000E+00	 1.09805000E+01	 0.00000000E+00	 0.00000000E+00	 4.29219000E+01	 0.00000000E+00	 6.31003000E+01	 5.29342000E-05	 3.02621000E-04	 0.00000000E+00	 0.00000000E+00	 0.00000000E+00	 0.00000000E+00	 0.00000000E+00	 4.03129000E-05	 0.00000000E+00	 4.49099000E-05	 0.00000000E+00	 0.00000000E+00	 1.40855000E-04	 0.00000000E+00	 0.00000000E+00	 9.56123000E-04	 0.00000000E+00	 2.46094000E-03
		-6.46152000E-04	-1.13349000E-03	 1.77964000E-03	-2.66280000E-04	-4.04335000E-04	-4.28959000E-04	 2.11276000E+00	 1.08519000E+01	 0.00000000E+00	 0.00000000E+00	 0.00000000E+00	 0.00000000E+00	 0.00000000E+00	 1.50892000E+00	 0.00000000E+00	 1.73825000E+00	 0.00000000E+00	 0.00000000E+00	 2.81848000E+00	 0.00000000E+00	 0.00000000E+00	 1.51409000E+01	 0.00000000E+00	 2.77949000E+01	 9.14097000E+00	 4.08366000E+01	 0.00000000E+00	 0.00000000E+00	 0.00000000E+00	 0.00000000E+00	 0.00000000E+00	 6.59855000E+00	 0.00000000E+00	 7.57020000E+00	 0.00000000E+00	 0.00000000E+00	 1.14276000E+01	 0.00000000E+00	 0.00000000E+00	 4.35707000E+01	 0.00000000E+00	 6.33422000E+01	 5.39568000E-05	 3.02033000E-04	 0.00000000E+00	 0.00000000E+00	 0.00000000E+00	 0.00000000E+00	 0.00000000E+00	 3.83083000E-05	 0.00000000E+00	 4.42305000E-05	 0.00000000E+00	 0.00000000E+00	 1.47424000E-04	 0.00000000E+00	 0.00000000E+00	 9.84447000E-04	 0.00000000E+00	 2.48559000E-03
		-6.32219000E-04	-1.10971000E-03	 1.74193000E-03	-2.58637000E-04	-3.94723000E-04	-4.21093000E-04	 2.07745000E+00	 1.06770000E+01	 0.00000000E+00	 0.00000000E+00	 0.00000000E+00	 0.00000000E+00	 0.00000000E+00	 1.46666000E+00	 0.00000000E+00	 1.66449000E+00	 0.00000000E+00	 0.00000000E+00	 2.73749000E+00	 0.00000000E+00	 0.00000000E+00	 1.49458000E+01	 0.00000000E+00	 2.74285000E+01	 8.99234000E+00	 4.02758000E+01	 0.00000000E+00	 0.00000000E+00	 0.00000000E+00	 0.00000000E+00	 0.00000000E+00	 6.41872000E+00	 0.00000000E+00	 7.25815000E+00	 0.00000000E+00	 0.00000000E+00	 1.11244000E+01	 0.00000000E+00	 0.00000000E+00	 4.31812000E+01	 0.00000000E+00	 6.28229000E+01	 5.30413000E-05	 2.96684000E-04	 0.00000000E+00	 0.00000000E+00	 0.00000000E+00	 0.00000000E+00	 0.00000000E+00	 3.72196000E-05	 0.00000000E+00	 4.23241000E-05	 0.00000000E+00	 0.00000000E+00	 1.43040000E-04	 0.00000000E+00	 0.00000000E+00	 9.68733000E-04	 0.00000000E+00	 2.42898000E-03
		-6.46150000E-04	-1.13348000E-03	 1.77963000E-03	-2.66277000E-04	-4.04333000E-04	-4.28958000E-04	 2.11275000E+00	 1.08519000E+01	 0.00000000E+00	 0.00000000E+00	 0.00000000E+00	 0.00000000E+00	 0.00000000E+00	 1.50891000E+00	 0.00000000E+00	 1.73825000E+00	 0.00000000E+00	 0.00000000E+00	 2.81848000E+00	 0.00000000E+00	 0.00000000E+00	 1.51409000E+01	 0.00000000E+00	 2.77949000E+01	 9.14092000E+00	 4.08366000E+01	 0.00000000E+00	 0.00000000E+00	 0.00000000E+00	 0.00000000E+00	 0.00000000E+00	 6.59849000E+00	 0.00000000E+00	 7.57020000E+00	 0.00000000E+00	 0.00000000E+00	 1.14276000E+01	 0.00000000E+00	 0.00000000E+00	 4.35708000E+01	 0.00000000E+00	 6.33421000E+01	 5.39566000E-05	 3.02033000E-04	 0.00000000E+00	 0.00000000E+00	 0.00000000E+00	 0.00000000E+00	 0.00000000E+00	 3.83080000E-05	 0.00000000E+00	 4.42305000E-05	 0.00000000E+00	 0.00000000E+00	 1.47424000E-04	 0.00000000E+00	 0.00000000E+00	 9.84447000E-04	 0.00000000E+00	 2.48557000E-03
		-6.54107000E-04	-1.14531000E-03	 1.79941000E-03	-2.70404000E-04	-4.08206000E-04	-4.32024000E-04	 2.13262000E+00	 1.10155000E+01	 0.00000000E+00	 0.00000000E+00	 0.00000000E+00	 0.00000000E+00	 0.00000000E+00	 1.56484000E+00	 0.00000000E+00	 1.79999000E+00	 0.00000000E+00	 0.00000000E+00	 2.84482000E+00	 0.00000000E+00	 0.00000000E+00	 1.52156000E+01	 0.00000000E+00	 2.79835000E+01	 9.22445000E+00	 4.13541000E+01	 0.00000000E+00	 0.00000000E+00	 0.00000000E+00	 0.00000000E+00	 0.00000000E+00	 6.83591000E+00	 0.00000000E+00	 7.83069000E+00	 0.00000000E+00	 0.00000000E+00	 1.15287000E+01	 0.00000000E+00	 0.00000000E+00	 4.37260000E+01	 0.00000000E+00	 6.36118000E+01	 5.44720000E-05	 3.07080000E-04	 0.00000000E+00	 0.00000000E+00	 0.00000000E+00	 0.00000000E+00	 0.00000000E+00	 3.97510000E-05	 0.00000000E+00	 4.58288000E-05	 0.00000000E+00	 0.00000000E+00	 1.48833000E-04	 0.00000000E+00	 0.00000000E+00	 9.90256000E-04	 0.00000000E+00	 2.51469000E-03
		-6.37377000E-04	-1.11350000E-03	 1.75088000E-03	-2.66576000E-04	-3.92289000E-04	-4.17369000E-04	 2.07646000E+00	 1.09478000E+01	 0.00000000E+00	 0.00000000E+00	 0.00000000E+00	 0.00000000E+00	 0.00000000E+00	 1.63735000E+00	 0.00000000E+00	 1.76367000E+00	 0.00000000E+00	 0.00000000E+00	 2.63009000E+00	 0.00000000E+00	 0.00000000E+00	 1.47694000E+01	 0.00000000E+00	 2.75664000E+01	 8.98862000E+00	 4.11278000E+01	 0.00000000E+00	 0.00000000E+00	 0.00000000E+00	 0.00000000E+00	 0.00000000E+00	 7.14265000E+00	 0.00000000E+00	 7.67645000E+00	 0.00000000E+00	 0.00000000E+00	 1.07292000E+01	 0.00000000E+00	 0.00000000E+00	 4.28592000E+01	 0.00000000E+00	 6.30170000E+01	 5.30143000E-05	 3.05064000E-04	 0.00000000E+00	 0.00000000E+00	 0.00000000E+00	 0.00000000E+00	 0.00000000E+00	 4.16251000E-05	 0.00000000E+00	 4.48919000E-05	 0.00000000E+00	 0.00000000E+00	 1.37182000E-04	 0.00000000E+00	 0.00000000E+00	 9.53447000E-04	 0.00000000E+00	 2.45200000E-03
		-6.61462000E-04	-1.15723000E-03	 1.81870000E-03	-2.74436000E-04	-4.10613000E-04	-4.35559000E-04	 2.16423000E+00	 1.11849000E+01	 0.00000000E+00	 0.00000000E+00	 0.00000000E+00	 0.00000000E+00	 0.00000000E+00	 1.63808000E+00	 0.00000000E+00	 1.83189000E+00	 0.00000000E+00	 0.00000000E+00	 2.82060000E+00	 0.00000000E+00	 0.00000000E+00	 1.53094000E+01	 0.00000000E+00	 2.81643000E+01	 9.35672000E+00	 4.18868000E+01	 0.00000000E+00	 0.00000000E+00	 0.00000000E+00	 0.00000000E+00	 0.00000000E+00	 7.14619000E+00	 0.00000000E+00	 7.96528000E+00	 0.00000000E+00	 0.00000000E+00	 1.14432000E+01	 0.00000000E+00	 0.00000000E+00	 4.39152000E+01	 0.00000000E+00	 6.38660000E+01	 5.52937000E-05	 3.12323000E-04	 0.00000000E+00	 0.00000000E+00	 0.00000000E+00	 0.00000000E+00	 0.00000000E+00	 4.16425000E-05	 0.00000000E+00	 4.66547000E-05	 0.00000000E+00	 0.00000000E+00	 1.47488000E-04	 0.00000000E+00	 0.00000000E+00	 9.97712000E-04	 0.00000000E+00	 2.54289000E-03
		-6.54108000E-04	-1.14531000E-03	 1.79942000E-03	-2.70408000E-04	-4.08207000E-04	-4.32025000E-04	 2.13263000E+00	 1.10155000E+01	 0.00000000E+00	 0.00000000E+00	 0.00000000E+00	 0.00000000E+00	 0.00000000E+00	 1.56486000E+00	 0.00000000E+00	 1.79999000E+00	 0.00000000E+00	 0.00000000E+00	 2.84481000E+00	 0.00000000E+00	 0.00000000E+00	 1.52156000E+01	 0.00000000E+00	 2.79836000E+01	 9.22449000E+00	 4.13541000E+01	 0.00000000E+00	 0.00000000E+00	 0.00000000E+00	 0.00000000E+00	 0.00000000E+00	 6.83597000E+00	 0.00000000E+00	 7.83069000E+00	 0.00000000E+00	 0.00000000E+00	 1.15287000E+01	 0.00000000E+00	 0.00000000E+00	 4.37260000E+01	 0.00000000E+00	 6.36119000E+01	 5.44723000E-05	 3.07080000E-04	 0.00000000E+00	 0.00000000E+00	 0.00000000E+00	 0.00000000E+00	 0.00000000E+00	 3.97514000E-05	 0.00000000E+00	 4.58288000E-05	 0.00000000E+00	 0.00000000E+00	 1.48832000E-04	 0.00000000E+00	 0.00000000E+00	 9.90254000E-04	 0.00000000E+00	 2.51471000E-03
		-6.37377000E-04	-1.11350000E-03	 1.75088000E-03	-2.66575000E-04	-3.92289000E-04	-4.17370000E-04	 2.07646000E+00	 1.09478000E+01	 0.00000000E+00	 0.00000000E+00	 0.00000000E+00	 0.00000000E+00	 0.00000000E+00	 1.63735000E+00	 0.00000000E+00	 1.76367000E+00	 0.00000000E+00	 0.00000000E+00	 2.63009000E+00	 0.00000000E+00	 0.00000000E+00	 1.47695000E+01	 0.00000000E+00	 2.75664000E+01	 8.98862000E+00	 4.11278000E+01	 0.00000000E+00	 0.00000000E+00	 0.00000000E+00	 0.00000000E+00	 0.00000000E+00	 7.14263000E+00	 0.00000000E+00	 7.67644000E+00	 0.00000000E+00	 0.00000000E+00	 1.07292000E+01	 0.00000000E+00	 0.00000000E+00	 4.28593000E+01	 0.00000000E+00	 6.30170000E+01	 5.30143000E-05	 3.05064000E-04	 0.00000000E+00	 0.00000000E+00	 0.00000000E+00	 0.00000000E+00	 0.00000000E+00	 4.16250000E-05	 0.00000000E+00	 4.48919000E-05	 0.00000000E+00	 0.00000000E+00	 1.37182000E-04	 0.00000000E+00	 0.00000000E+00	 9.53449000E-04	 0.00000000E+00	 2.45200000E-03
		-6.32221000E-04	-1.10972000E-03	 1.74194000E-03	-2.58640000E-04	-3.94725000E-04	-4.21094000E-04	 2.07746000E+00	 1.06769000E+01	 0.00000000E+00	 0.00000000E+00	 0.00000000E+00	 0.00000000E+00	 0.00000000E+00	 1.46667000E+00	 0.00000000E+00	 1.66448000E+00	 0.00000000E+00	 0.00000000E+00	 2.73749000E+00	 0.00000000E+00	 0.00000000E+00	 1.49458000E+01	 0.00000000E+00	 2.74286000E+01	 8.99238000E+00	 4.02758000E+01	 0.00000000E+00	 0.00000000E+00	 0.00000000E+00	 0.00000000E+00	 0.00000000E+00	 6.41875000E+00	 0.00000000E+00	 7.25813000E+00	 0.00000000E+00	 0.00000000E+00	 1.11244000E+01	 0.00000000E+00	 0.00000000E+00	 4.31812000E+01	 0.00000000E+00	 6.28230000E+01	 5.30415000E-05	 2.96683000E-04	 0.00000000E+00	 0.00000000E+00	 0.00000000E+00	 0.00000000E+00	 0.00000000E+00	 3.72197000E-05	 0.00000000E+00	 4.23240000E-05	 0.00000000E+00	 0.00000000E+00	 1.43040000E-04	 0.00000000E+00	 0.00000000E+00	 9.68733000E-04	 0.00000000E+00	 2.42900000E-03
		-6.18080000E-04	-1.08422000E-03	 1.70230000E-03	-2.51166000E-04	-3.85691000E-04	-4.11833000E-04	 2.02571000E+00	 1.04959000E+01	 0.00000000E+00	 0.00000000E+00	 0.00000000E+00	 0.00000000E+00	 0.00000000E+00	 1.41549000E+00	 0.00000000E+00	 1.62208000E+00	 0.00000000E+00	 0.00000000E+00	 2.69280000E+00	 0.00000000E+00	 0.00000000E+00	 1.47001000E+01	 0.00000000E+00	 2.70452000E+01	 8.77517000E+00	 3.96937000E+01	 0.00000000E+00	 0.00000000E+00	 0.00000000E+00	 0.00000000E+00	 0.00000000E+00	 6.20096000E+00	 0.00000000E+00	 7.07827000E+00	 0.00000000E+00	 0.00000000E+00	 1.09558000E+01	 0.00000000E+00	 0.00000000E+00	 4.26926000E+01	 0.00000000E+00	 6.22743000E+01	 5.16981000E-05	 2.91158000E-04	 0.00000000E+00	 0.00000000E+00	 0.00000000E+00	 0.00000000E+00	 0.00000000E+00	 3.59014000E-05	 0.00000000E+00	 4.12297000E-05	 0.00000000E+00	 0.00000000E+00	 1.40630000E-04	 0.00000000E+00	 0.00000000E+00	 9.48834000E-04	 0.00000000E+00	 2.37068000E-03
		-6.38679000E-04	-1.11697000E-03	 1.75565000E-03	-2.67873000E-04	-3.96056000E-04	-4.19145000E-04	 2.07340000E+00	 1.08693000E+01	 0.00000000E+00	 0.00000000E+00	 0.00000000E+00	 0.00000000E+00	 0.00000000E+00	 1.58655000E+00	 0.00000000E+00	 1.76440000E+00	 0.00000000E+00	 0.00000000E+00	 2.69771000E+00	 0.00000000E+00	 0.00000000E+00	 1.48018000E+01	 0.00000000E+00	 2.76250000E+01	 8.97597000E+00	 4.08837000E+01	 0.00000000E+00	 0.00000000E+00	 0.00000000E+00	 0.00000000E+00	 0.00000000E+00	 6.92748000E+00	 0.00000000E+00	 7.67981000E+00	 0.00000000E+00	 0.00000000E+00	 1.09805000E+01	 0.00000000E+00	 0.00000000E+00	 4.29219000E+01	 0.00000000E+00	 6.31003000E+01	 5.29342000E-05	 3.02621000E-04	 0.00000000E+00	 0.00000000E+00	 0.00000000E+00	 0.00000000E+00	 0.00000000E+00	 4.03130000E-05	 0.00000000E+00	 4.49098000E-05	 0.00000000E+00	 0.00000000E+00	 1.40855000E-04	 0.00000000E+00	 0.00000000E+00	 9.56126000E-04	 0.00000000E+00	 2.46093000E-03
		-6.48807000E-04	-1.13690000E-03	 1.78571000E-03	-2.68087000E-04	-4.04799000E-04	-4.29498000E-04	 2.12597000E+00	 1.09303000E+01	 0.00000000E+00	 0.00000000E+00	 0.00000000E+00	 0.00000000E+00	 0.00000000E+00	 1.54457000E+00	 0.00000000E+00	 1.75680000E+00	 0.00000000E+00	 0.00000000E+00	 2.80839000E+00	 0.00000000E+00	 0.00000000E+00	 1.51479000E+01	 0.00000000E+00	 2.78634000E+01	 9.19620000E+00	 4.10839000E+01	 0.00000000E+00	 0.00000000E+00	 0.00000000E+00	 0.00000000E+00	 0.00000000E+00	 6.74975000E+00	 0.00000000E+00	 7.64883000E+00	 0.00000000E+00	 0.00000000E+00	 1.13939000E+01	 0.00000000E+00	 0.00000000E+00	 4.35931000E+01	 0.00000000E+00	 6.34416000E+01	 5.43004000E-05	 3.04453000E-04	 0.00000000E+00	 0.00000000E+00	 0.00000000E+00	 0.00000000E+00	 0.00000000E+00	 3.92284000E-05	 0.00000000E+00	 4.47095000E-05	 0.00000000E+00	 0.00000000E+00	 1.46852000E-04	 0.00000000E+00	 0.00000000E+00	 9.84706000E-04	 0.00000000E+00	 2.49516000E-03
		-6.35978000E-04	-1.11483000E-03	 1.75080000E-03	-2.61893000E-04	-3.99530000E-04	-4.22007000E-04	 2.07130000E+00	 1.06709000E+01	 0.00000000E+00	 0.00000000E+00	 0.00000000E+00	 0.00000000E+00	 0.00000000E+00	 1.44440000E+00	 0.00000000E+00	 1.71397000E+00	 0.00000000E+00	 0.00000000E+00	 2.83278000E+00	 0.00000000E+00	 0.00000000E+00	 1.49361000E+01	 0.00000000E+00	 2.75478000E+01	 8.96723000E+00	 4.02608000E+01	 0.00000000E+00	 0.00000000E+00	 0.00000000E+00	 0.00000000E+00	 0.00000000E+00	 6.32393000E+00	 0.00000000E+00	 7.46799000E+00	 0.00000000E+00	 0.00000000E+00	 1.14804000E+01	 0.00000000E+00	 0.00000000E+00	 4.31748000E+01	 0.00000000E+00	 6.29919000E+01	 5.28794000E-05	 2.96470000E-04	 0.00000000E+00	 0.00000000E+00	 0.00000000E+00	 0.00000000E+00	 0.00000000E+00	 3.66463000E-05	 0.00000000E+00	 4.36015000E-05	 0.00000000E+00	 0.00000000E+00	 1.48203000E-04	 0.00000000E+00	 0.00000000E+00	 9.67474000E-04	 0.00000000E+00	 2.44566000E-03
		-6.27339000E-04	-1.09947000E-03	 1.72681000E-03	-2.56578000E-04	-3.93322000E-04	-4.16686000E-04	 2.04283000E+00	 1.05808000E+01	 0.00000000E+00	 0.00000000E+00	 0.00000000E+00	 0.00000000E+00	 0.00000000E+00	 1.42224000E+00	 0.00000000E+00	 1.68256000E+00	 0.00000000E+00	 0.00000000E+00	 2.78791000E+00	 0.00000000E+00	 0.00000000E+00	 1.48085000E+01	 0.00000000E+00	 2.73012000E+01	 8.84758000E+00	 3.99696000E+01	 0.00000000E+00	 0.00000000E+00	 0.00000000E+00	 0.00000000E+00	 0.00000000E+00	 6.22954000E+00	 0.00000000E+00	 7.33467000E+00	 0.00000000E+00	 0.00000000E+00	 1.13116000E+01	 0.00000000E+00	 0.00000000E+00	 4.29167000E+01	 0.00000000E+00	 6.26422000E+01	 5.21410000E-05	 2.93733000E-04	 0.00000000E+00	 0.00000000E+00	 0.00000000E+00	 0.00000000E+00	 0.00000000E+00	 3.60755000E-05	 0.00000000E+00	 4.27910000E-05	 0.00000000E+00	 0.00000000E+00	 1.45779000E-04	 0.00000000E+00	 0.00000000E+00	 9.57336000E-04	 0.00000000E+00	 2.40863000E-03
