# vtk DataFile Version 3.0

ASCII
DATASET UNSTRUCTURED_GRID

POINTS 41 double
	 0.00000000E+00	 0.00000000E+00	 0.00000000E+00
	 1.00000000E-01	 0.00000000E+00	 0.00000000E+00
	 5.00000000E-02	 0.00000000E+00	 0.00000000E+00
	 2.00000000E-01	 0.00000000E+00	 0.00000000E+00
	 1.50000000E-01	 0.00000000E+00	 0.00000000E+00
	 3.00000000E-01	 0.00000000E+00	 0.00000000E+00
	 2.50000000E-01	 0.00000000E+00	 0.00000000E+00
	 4.00000000E-01	 0.00000000E+00	 0.00000000E+00
	 3.50000000E-01	 0.00000000E+00	 0.00000000E+00
	 5.00000000E-01	 0.00000000E+00	 0.00000000E+00
	 4.50000000E-01	 0.00000000E+00	 0.00000000E+00
	 6.00000000E-01	 0.00000000E+00	 0.00000000E+00
	 5.50000000E-01	 0.00000000E+00	 0.00000000E+00
	 7.00000000E-01	 0.00000000E+00	 0.00000000E+00
	 6.50000000E-01	 0.00000000E+00	 0.00000000E+00
	 8.00000000E-01	 0.00000000E+00	 0.00000000E+00
	 7.50000000E-01	 0.00000000E+00	 0.00000000E+00
	 9.00000000E-01	 0.00000000E+00	 0.00000000E+00
	 8.50000000E-01	 0.00000000E+00	 0.00000000E+00
	 1.00000000E+00	 0.00000000E+00	 0.00000000E+00
	 9.50000000E-01	 0.00000000E+00	 0.00000000E+00
	 1.10000000E+00	 0.00000000E+00	 0.00000000E+00
	 1.05000000E+00	 0.00000000E+00	 0.00000000E+00
	 1.20000000E+00	 0.00000000E+00	 0.00000000E+00
	 1.15000000E+00	 0.00000000E+00	 0.00000000E+00
	 1.30000000E+00	 0.00000000E+00	 0.00000000E+00
	 1.25000000E+00	 0.00000000E+00	 0.00000000E+00
	 1.40000000E+00	 0.00000000E+00	 0.00000000E+00
	 1.35000000E+00	 0.00000000E+00	 0.00000000E+00
	 1.50000000E+00	 0.00000000E+00	 0.00000000E+00
	 1.45000000E+00	 0.00000000E+00	 0.00000000E+00
	 1.60000000E+00	 0.00000000E+00	 0.00000000E+00
	 1.55000000E+00	 0.00000000E+00	 0.00000000E+00
	 1.70000000E+00	 0.00000000E+00	 0.00000000E+00
	 1.65000000E+00	 0.00000000E+00	 0.00000000E+00
	 1.80000000E+00	 0.00000000E+00	 0.00000000E+00
	 1.75000000E+00	 0.00000000E+00	 0.00000000E+00
	 1.90000000E+00	 0.00000000E+00	 0.00000000E+00
	 1.85000000E+00	 0.00000000E+00	 0.00000000E+00
	 2.00000000E+00	 0.00000000E+00	 0.00000000E+00
	 1.95000000E+00	 0.00000000E+00	 0.00000000E+00

CELLS 20 80
	3 0 1 2 
	3 1 3 4 
	3 3 5 6 
	3 5 7 8 
	3 7 9 10 
	3 9 11 12 
	3 11 13 14 
	3 13 15 16 
	3 15 17 18 
	3 17 19 20 
	3 19 21 22 
	3 21 23 24 
	3 23 25 26 
	3 25 27 28 
	3 27 29 30 
	3 29 31 32 
	3 31 33 34 
	3 33 35 36 
	3 35 37 38 
	3 37 39 40 

CELL_TYPES 20
	21
	21
	21
	21
	21
	21
	21
	21
	21
	21
	21
	21
	21
	21
	21
	21
	21
	21
	21
	21

POINT_DATA 41
FIELD U 1
	U 3 41 double
		-6.77626000E-21	 0.00000000E+00	-2.64698000E-23
		-1.55009000E-06	 6.21853000E-17	 5.57387000E-04
		-7.78932000E-07	 3.12988000E-17	 2.79393000E-04
		-3.03896000E-06	 1.21210000E-16	 1.10361000E-03
		-2.30593000E-06	 9.22315000E-17	 8.32594000E-04
		-4.40910000E-06	 1.74693000E-16	 1.62752000E-03
		-3.74226000E-06	 1.48870000E-16	 1.36906000E-03
		-5.61051000E-06	 2.19975000E-16	 2.11795000E-03
		-5.03369000E-06	 1.98358000E-16	 1.87762000E-03
		-6.60437000E-06	 2.56402000E-16	 2.56373000E-03
		-6.13534000E-06	 2.39344000E-16	 2.34711000E-03
		-7.36682000E-06	 2.84179000E-16	 2.95371000E-03
		-7.01542000E-06	 2.71390000E-16	 2.76639000E-03
		-7.89267000E-06	 3.03298000E-16	 3.27672000E-03
		-7.65892000E-06	 2.94717000E-16	 3.12429000E-03
		-8.19917000E-06	 3.14390000E-16	 3.52164000E-03
		-8.07140000E-06	 3.09798000E-16	 3.40964000E-03
		-8.32971000E-06	 3.18636000E-16	 3.67717000E-03
		-8.28273000E-06	 3.17364000E-16	 3.61126000E-03
		-8.35766000E-06	 3.16119000E-16	 3.73266000E-03
		-8.35079000E-06	 3.18201000E-16	 3.71814000E-03
		-8.38561000E-06	 3.07249000E-16	 3.67717000E-03
		-8.36453000E-06	 3.12442000E-16	 3.71814000E-03
		-8.51615000E-06	 2.92828000E-16	 3.52164000E-03
		-8.43258000E-06	 3.00755000E-16	 3.61126000E-03
		-8.82265000E-06	 2.71911000E-16	 3.27672000E-03
		-8.64391000E-06	 2.83084000E-16	 3.40964000E-03
		-9.34850000E-06	 2.46495000E-16	 2.95371000E-03
		-9.05640000E-06	 2.59728000E-16	 3.12429000E-03
		-1.01109000E-05	 2.15900000E-16	 2.56373000E-03
		-9.69990000E-06	 2.31832000E-16	 2.76639000E-03
		-1.11048000E-05	 1.80913000E-16	 2.11795000E-03
		-1.05800000E-05	 1.98946000E-16	 2.34711000E-03
		-1.23062000E-05	 1.41027000E-16	 1.62752000E-03
		-1.16816000E-05	 1.61729000E-16	 1.87762000E-03
		-1.36764000E-05	 9.58956000E-17	 1.10361000E-03
		-1.29731000E-05	 1.18849000E-16	 1.36906000E-03
		-1.51652000E-05	 4.89396000E-17	 5.57387000E-04
		-1.44094000E-05	 7.27232000E-17	 8.32594000E-04
		-1.67153000E-05	 0.00000000E+00	 2.64698000E-23
		-1.59364000E-05	 2.45423000E-17	 2.79393000E-04
FIELD S 1
	S 10 41 double
		 1.33325000E-15	 7.72391000E-03	 2.87858000E-05	-1.10368000E-16	 2.29249000E-05	 1.27741000E-17	 7.70965966E-03	 1.33325000E-15	 2.87175040E-05	 7.72397830E-03
		 6.62708000E-16	 7.73975000E-03	 2.94363000E-05	-9.94501000E-17	 4.97874000E-04	-5.93601000E-17	 7.77305619E-03	-2.57971186E-06	 6.62708000E-16	 7.77176601E-03
		 9.97979000E-16	 7.73183000E-03	 2.91110000E-05	-1.04909000E-16	 2.60399000E-04	-2.32930000E-17	 7.73048409E-03	 9.97979000E-16	 2.03179593E-05	 7.74062304E-03
		 5.89552000E-16	 7.75707000E-03	 3.14105000E-05	-1.04338000E-16	 9.99844000E-04	-1.09179000E-16	 7.93275061E-03	-9.58902869E-05	 5.89552000E-16	 7.88437079E-03
		 6.26130000E-16	 7.74841000E-03	 3.04234000E-05	-1.01894000E-16	 7.48859000E-04	-8.42696000E-17	 7.84126390E-03	-4.15652500E-05	 6.26130000E-16	 7.82039865E-03
		 3.33462000E-16	 7.75864000E-03	 3.47083000E-05	-7.72375000E-17	 1.49995000E-03	-1.10033000E-16	 8.16565736E-03	-2.46347722E-04	 3.33462000E-16	 8.03969602E-03
		 4.61507000E-16	 7.75786000E-03	 3.30594000E-05	-9.07875000E-17	 1.24990000E-03	-1.09606000E-16	 8.03839316E-03	-1.64144479E-04	 4.61507000E-16	 7.95506388E-03
		 7.73400000E-17	 7.75887000E-03	 3.93517000E-05	-7.48811000E-17	 1.99998000E-03	-1.50867000E-16	 8.47915370E-03	-4.48033120E-04	 7.73400000E-17	 8.24625482E-03
		 2.05401000E-16	 7.75876000E-03	 3.70300000E-05	-7.60593000E-17	 1.74997000E-03	-1.30450000E-16	 8.31261728E-03	-3.41052222E-04	 2.05401000E-16	 8.13684222E-03
		-7.24393000E-16	 7.75866000E-03	 4.53529000E-05	-7.46897000E-17	 2.49998000E-03	-2.14049000E-16	 8.86547710E-03	-6.94043659E-04	-7.24393000E-16	 8.49805656E-03
		-3.23526000E-16	 7.75876000E-03	 4.23523000E-05	-7.47854000E-17	 2.24998000E-03	-1.82458000E-16	 8.66364699E-03	-5.65778695E-04	-3.23526000E-16	 8.36689100E-03
		-6.33889000E-16	 7.75971000E-03	 5.27475000E-05	-2.76709000E-17	 2.99998000E-03	-1.12350000E-16	 9.31698536E-03	-9.77335291E-04	-6.33889000E-16	 8.78979279E-03
		-6.79141000E-16	 7.75918000E-03	 4.90502000E-05	-5.11803000E-17	 2.74998000E-03	-1.63200000E-16	 9.08371405E-03	-8.31274576E-04	-6.79141000E-16	 8.63950478E-03
		-1.31390000E-16	 7.75534000E-03	 6.14799000E-05	-3.15977000E-17	 3.49999000E-03	-1.62576000E-16	 9.81947406E-03	-1.29243621E-03	-1.31390000E-16	 9.10925611E-03
		-3.82640000E-16	 7.75752000E-03	 5.71137000E-05	-2.96343000E-17	 3.24998000E-03	-1.37463000E-16	 9.56171678E-03	-1.13117839E-03	-3.82640000E-16	 8.94581209E-03
		 1.06658000E-16	 7.77087000E-03	 7.18072000E-05	-1.42030000E-17	 4.00022000E-03	-1.51788000E-16	 1.03845487E-02	-1.63029648E-03	 1.06658000E-16	 9.47297368E-03
		-1.23658000E-17	 7.76310000E-03	 6.66435000E-05	-2.29004000E-17	 3.75011000E-03	-1.57182000E-16	 1.00966716E-02	-1.45841269E-03	-1.23658000E-17	 9.28815619E-03
		-3.78154000E-16	 7.68924000E-03	 8.36896000E-05	-2.43386000E-17	 4.50119000E-03	-1.04734000E-16	 1.09210824E-02	-2.00605679E-03	-3.78154000E-16	 9.77898639E-03
		-1.35748000E-16	 7.73006000E-03	 7.77484000E-05	-1.92708000E-17	 4.25071000E-03	-1.28261000E-16	 1.06472757E-02	-1.81518696E-03	-1.35748000E-16	 9.62299536E-03
		-1.95682000E-16	-5.42384000E-15	 8.50633000E-05	-3.30821000E-17	 4.97871000E-03	-1.04029000E-16	 8.62379821E-03	-4.93636001E-03	-1.95682000E-16	 5.02142331E-03
		-2.86918000E-16	 3.84462000E-03	 8.43764000E-05	-2.87104000E-17	 4.73995000E-03	-1.04382000E-16	 9.04793928E-03	-3.13471586E-03	-2.86918000E-16	 7.06371226E-03
		-1.05326000E-16	-7.68924000E-03	 8.36896000E-05	-7.02868000E-18	 4.50119000E-03	-1.34766000E-16	 1.09798479E-02	-9.74965001E-03	-1.05326000E-16	 2.14409961E-03
		-1.50504000E-16	-3.84462000E-03	 8.43764000E-05	-2.00554000E-17	 4.73995000E-03	-1.19398000E-16	 9.08372146E-03	-7.01104561E-03	-1.50504000E-16	 3.25080201E-03
		-6.87452000E-17	-7.77087000E-03	 7.18072000E-05	-1.22295000E-17	 4.00022000E-03	-1.13841000E-16	 1.04381445E-02	-9.45119691E-03	-6.87452000E-17	 1.75213411E-03
		-8.70358000E-17	-7.73006000E-03	 7.77484000E-05	-9.62907000E-18	 4.25071000E-03	-1.24304000E-16	 1.07035732E-02	-9.59755108E-03	-8.70358000E-17	 1.94523948E-03
		-3.76072000E-16	-7.75534000E-03	 6.14799000E-05	-4.55196000E-18	 3.49999000E-03	-1.11835000E-16	 9.86791091E-03	-9.09341443E-03	-3.76072000E-16	 1.39955433E-03
		-2.22408000E-16	-7.76310000E-03	 6.66435000E-05	-8.39071000E-18	 3.75011000E-03	-1.12838000E-16	 1.01477829E-02	-9.26944083E-03	-2.22408000E-16	 1.57298433E-03
		-1.05433000E-15	-7.75971000E-03	 5.27475000E-05	 4.52011000E-17	 2.99998000E-03	-1.32191000E-16	 9.36081337E-03	-8.77877343E-03	-1.05433000E-15	 1.07181093E-03
		-7.15199000E-16	-7.75752000E-03	 5.71137000E-05	 2.03246000E-17	 3.24998000E-03	-1.22013000E-16	 9.60794199E-03	-8.93247577E-03	-7.15199000E-16	 1.23206947E-03
		-1.13908000E-15	-7.75866000E-03	 4.53529000E-05	 4.55890000E-17	 2.49998000E-03	-1.39781000E-16	 8.90507943E-03	-8.49082600E-03	-1.13908000E-15	 7.77518904E-04
		-1.09670000E-15	-7.75918000E-03	 4.90502000E-05	 4.53950000E-17	 2.74998000E-03	-1.35986000E-16	 9.12551585E-03	-8.63047114E-03	-1.09670000E-15	 9.20341336E-04
		-5.64864000E-16	-7.75887000E-03	 3.93517000E-05	 7.54012000E-17	 1.99998000E-03	-6.07153000E-17	 8.51508643E-03	-8.24188026E-03	-5.64864000E-16	 5.22361960E-04
		-8.51971000E-16	-7.75876000E-03	 4.23523000E-05	 6.04951000E-17	 2.24998000E-03	-1.00248000E-16	 8.70149308E-03	-8.36117490E-03	-8.51971000E-16	 6.44767200E-04
		-4.67265000E-16	-7.75864000E-03	 3.47083000E-05	 1.27421000E-16	 1.49995000E-03	-1.30755000E-16	 8.19856930E-03	-8.03736037E-03	-4.67265000E-16	 3.13428674E-04
		-5.16065000E-16	-7.75876000E-03	 3.70300000E-05	 1.01411000E-16	 1.74997000E-03	-9.57351000E-17	 8.34710847E-03	-8.13356677E-03	-5.16065000E-16	 4.11836772E-04
		-8.19154000E-16	-7.75707000E-03	 3.14105000E-05	 1.50609000E-16	 9.99844000E-04	-1.23206000E-16	 7.96340625E-03	-7.88337637E-03	-8.19154000E-16	 1.57716873E-04
		-6.43209000E-16	-7.75786000E-03	 3.30594000E-05	 1.39015000E-16	 1.24990000E-03	-1.26980000E-16	 8.07023574E-03	-7.95347061E-03	-6.43209000E-16	 2.28670010E-04
		-6.31585000E-16	-7.73975000E-03	 2.94363000E-05	 1.65822000E-16	 4.97874000E-04	-7.23163000E-17	 7.80231131E-03	-7.77152538E-03	-6.31585000E-16	 6.12116798E-05
		-7.25369000E-16	-7.74841000E-03	 3.04234000E-05	 1.58216000E-16	 7.48859000E-04	-9.77612000E-17	 7.87126962E-03	-7.81984574E-03	-7.25369000E-16	 1.01859142E-04
		-8.86335000E-18	-7.72391000E-03	 2.87858000E-05	 1.61926000E-16	 2.29249000E-05	 1.70038000E-17	 7.73844493E-03	-7.72397779E-03	-8.86335000E-18	 2.88535889E-05
		-3.20224000E-16	-7.73183000E-03	 2.91110000E-05	 1.63874000E-16	 2.60399000E-04	-2.76563000E-17	 7.75954553E-03	-7.74055722E-03	-3.20224000E-16	 3.78382245E-05
