# vtk DataFile Version 3.0

ASCII
DATASET UNSTRUCTURED_GRID

POINTS 12 double
	 1.00000000E+02	 0.00000000E+00	 0.00000000E+00
	 0.00000000E+00	 0.00000000E+00	 0.00000000E+00
	 0.00000000E+00	 1.00000000E+02	 0.00000000E+00
	 1.00000000E+02	 1.00000000E+02	 0.00000000E+00
	 2.00000000E+02	 1.00000000E+02	 0.00000000E+00
	 2.00000000E+02	 0.00000000E+00	 0.00000000E+00
	 1.00000000E+02	 0.00000000E+00	-1.00000000E+02
	 1.00000000E+02	 1.00000000E+02	-1.00000000E+02
	 0.00000000E+00	 1.00000000E+02	-1.00000000E+02
	 0.00000000E+00	 0.00000000E+00	-1.00000000E+02
	 2.00000000E+02	 0.00000000E+00	-1.00000000E+02
	 2.00000000E+02	 1.00000000E+02	-1.00000000E+02

CELLS 2 18
	8 5 0 3 4 10 6 7 11 
	8 0 1 2 3 6 9 8 7 

CELL_TYPES 2
	12
	12

POINT_DATA 12
FIELD U 1
	U 3 12 double
		-8.09586000E+00	-1.01358000E+00	 1.69186000E+00
		 0.00000000E+00	 0.00000000E+00	 0.00000000E+00
		 0.00000000E+00	 0.00000000E+00	 0.00000000E+00
		-8.09586000E+00	 1.01358000E+00	 1.69186000E+00
		-1.22839000E+01	 2.52461000E-01	 6.29061000E-01
		-1.22839000E+01	-2.52461000E-01	 6.29061000E-01
		-8.09586000E+00	-1.01358000E+00	-1.69186000E+00
		-8.09586000E+00	 1.01358000E+00	-1.69186000E+00
		 0.00000000E+00	 0.00000000E+00	 0.00000000E+00
		 0.00000000E+00	 0.00000000E+00	 0.00000000E+00
		-1.22839000E+01	-2.52461000E-01	-6.29061000E-01
		-1.22839000E+01	 2.52461000E-01	-6.29061000E-01
FIELD DOR1 1
	DOR1 3 12 double
		 8.67265000E-13	 3.30434000E-12	 1.64902000E-12
		 0.00000000E+00	 0.00000000E+00	 0.00000000E+00
		 0.00000000E+00	 0.00000000E+00	 0.00000000E+00
		 9.73512000E-14	 3.17392000E-12	-3.34975000E-12
		 1.21977000E-13	 5.31984000E-12	-5.74812000E-12
		 1.11388000E-12	 5.32330000E-12	 1.49353000E-12
		-9.73512000E-14	-1.95177000E-12	 1.77595000E-12
		-8.67265000E-13	-1.82135000E-12	-3.47668000E-12
		 0.00000000E+00	 0.00000000E+00	 0.00000000E+00
		 0.00000000E+00	 0.00000000E+00	 0.00000000E+00
		-1.21977000E-13	-1.92899000E-12	 1.50070000E-12
		-1.11388000E-12	-1.92553000E-12	-5.75529000E-12
FIELD DOR1 1
	DOR1 3 12 double
		-8.58278000E-03	-1.16039000E-03	 1.51324000E-02
		 0.00000000E+00	 0.00000000E+00	 0.00000000E+00
		 0.00000000E+00	 0.00000000E+00	 0.00000000E+00
		-8.58278000E-03	 1.16039000E-03	 1.51324000E-02
		-1.09961000E-02	 3.08052000E-05	 3.78557000E-02
		-1.09961000E-02	-3.08052000E-05	 3.78557000E-02
		 8.58278000E-03	 1.16039000E-03	 1.51324000E-02
		 8.58278000E-03	-1.16039000E-03	 1.51324000E-02
		 0.00000000E+00	 0.00000000E+00	 0.00000000E+00
		 0.00000000E+00	 0.00000000E+00	 0.00000000E+00
		 1.09961000E-02	 3.08052000E-05	 3.78557000E-02
		 1.09961000E-02	-3.08052000E-05	 3.78557000E-02
FIELD DOR1 1
	DOR1 3 12 double
		-4.23064000E-02	-7.43230000E-02	 6.97459000E-03
		 0.00000000E+00	 0.00000000E+00	 0.00000000E+00
		 0.00000000E+00	 0.00000000E+00	 0.00000000E+00
		 4.23064000E-02	-7.43230000E-02	-6.97459000E-03
		 5.45044000E-02	-1.86515000E-01	-3.93949000E-04
		-5.45044000E-02	-1.86515000E-01	 3.93949000E-04
		-4.23064000E-02	-7.43230000E-02	-6.97459000E-03
		 4.23064000E-02	-7.43230000E-02	 6.97459000E-03
		 0.00000000E+00	 0.00000000E+00	 0.00000000E+00
		 0.00000000E+00	 0.00000000E+00	 0.00000000E+00
		-5.45044000E-02	-1.86515000E-01	-3.93949000E-04
		 5.45044000E-02	-1.86515000E-01	 3.93949000E-04
