    1C
    1UUSER                                                              
    1UDATE              25.january.2020                                 
    1UTIME              14:54:16                                        
    1UHOST                                                              
    1UPGM               CalculiX                                        
    1UVERSION           Version 2.16                             
    1UCOMPILETIME       Tue  7 Jan 19:57:43 CET 2020                    
    1UDIR                                                               
    1UDBN                                                               
    1UMAT    1EL                                                        
    2C                             4                                     1
 -1         1 1.00000E+02 0.00000E+00 0.00000E+00
 -1         2 0.00000E+00 0.00000E+00 0.00000E+00
 -1         3 0.00000E+00 1.00000E+02 0.00000E+00
 -1         4 1.00000E+02 1.00000E+02 0.00000E+00
 -3
    3C                             1                                     1
 -1         1    9    0    1
 -2         2         1         4         3
 -3
    1PSTEP                         1           1           1          
  100CL  101 1.000000000           4                     0    1           1
 -4  DISP        4    1
 -5  D1          1    2    1    0
 -5  D2          1    2    2    0
 -5  D3          1    2    3    0
 -5  ALL         1    2    0    0    1ALL
 -1         1 0.00000E+00-3.71429E+00 0.00000E+00
 -1         2 0.00000E+00 0.00000E+00 0.00000E+00
 -1         3 0.00000E+00 0.00000E+00 0.00000E+00
 -1         4 0.00000E+00-3.71429E+00 0.00000E+00
 -3
    1PSTEP                         2           1           1          
  100CL  101 1.000000000           4                     0    1           1
 -4  STRESS      6    1
 -5  SXX         1    4    1    1
 -5  SYY         1    4    2    2
 -5  SZZ         1    4    3    3
 -5  SXY         1    4    1    2
 -5  SYZ         1    4    2    3
 -5  SZX         1    4    3    1
 -1         1 0.00000E+00 1.16072E-13 0.00000E+00-3.89984E+03-3.86131E-14 0.00000E+00
 -1         2 0.00000E+00-2.23493E-15 0.00000E+00-3.89984E+03-8.68162E-14 0.00000E+00
 -1         3 0.00000E+00-2.23493E-15 0.00000E+00-3.89984E+03 1.98000E-13 0.00000E+00
 -1         4 0.00000E+00 1.16072E-13 0.00000E+00-3.89984E+03-9.14962E-13 0.00000E+00
 -3
    1PSTEP                         3           1           1          
  100CL  101 1.000000000           4                     0    1           1
 -4  ERROR       1    1
 -5  STR(%)      1    1    0    0
 -1         1 0.00000E+00
 -1         2 0.00000E+00
 -1         3 0.00000E+00
 -1         4 0.00000E+00
 -3
    1PSTEP                         1           1           2          
  100CL  102 0.00000E+00           4                     3    2           1
 -4  NORM        4    1
 -5  NORMX       1    2	 1    0
 -5  NORMY       1    2	 2    0
 -5  NORMZ       1    2	 3    0
 -5  ALL         1    2	 0    0    1ALL
 -1         1 0.00000E+00-1.00000E+00 0.00000E+00
 -1         2 0.00000E+00 0.00000E+00 0.00000E+00
 -1         3 0.00000E+00 0.00000E+00 0.00000E+00
 -1         4 0.00000E+00 1.00000E+00 0.00000E+00
 -3
    1PSTEP                         2           1           2          
  100CL  103 0.00000E+00           4                     3    3           1
 -4  SENENER     2    1
 -5  DFDN        1    1    1    0
 -5  DFDNFIL     1    1    2    0
 -1         1 3.21905E+01 1.00000E+00
 -1         2 0.00000E+00 0.00000E+00
 -1         3 0.00000E+00 0.00000E+00
 -1         4 3.21905E+01 1.00000E+00
 -3
 9999
