<?xml version="1.0"?>
<VTKFile type="UnstructuredGrid" version="0.1" byte_order="LittleEndian">
	<UnstructuredGrid>
		<Piece NumberOfPoints="12" NumberOfCells="2">
			<Points>
				<DataArray type="Float64" NumberOfComponents="3" format="ascii">
					 1.00000000E+02	 0.00000000E+00	 0.00000000E+00
					 0.00000000E+00	 0.00000000E+00	 0.00000000E+00
					 0.00000000E+00	 1.00000000E+02	 0.00000000E+00
					 1.00000000E+02	 1.00000000E+02	 0.00000000E+00
					 2.00000000E+02	 1.00000000E+02	 0.00000000E+00
					 2.00000000E+02	 0.00000000E+00	 0.00000000E+00
					 1.00000000E+02	 0.00000000E+00	-1.00000000E+02
					 1.00000000E+02	 1.00000000E+02	-1.00000000E+02
					 0.00000000E+00	 1.00000000E+02	-1.00000000E+02
					 0.00000000E+00	 0.00000000E+00	-1.00000000E+02
					 2.00000000E+02	 0.00000000E+00	-1.00000000E+02
					 2.00000000E+02	 1.00000000E+02	-1.00000000E+02
				</DataArray>
			</Points>
			<Cells>
				<DataArray type="Int32" Name="connectivity" format="ascii">
					5 0 3 4 10 6 7 11 0 1 2 3 6 9 8 7 
				</DataArray>
				<DataArray type="Int32" Name="offsets" format="ascii">
					8 16 
				</DataArray>
				<DataArray type="UInt8" Name="types" format="ascii">
					12 12 
				</DataArray>
			</Cells>
			<PointData>
				<DataArray type="Float32" Name="DOR1" NumberOfComponents="3" ComponentName0="dD1dRx" ComponentName1="dD2dRx" ComponentName2="dD3dRx" format="ascii">
					 2.64311000E-03	 3.99768000E-03	-3.98297000E-03
					 0.00000000E+00	 0.00000000E+00	 0.00000000E+00
					 0.00000000E+00	 0.00000000E+00	 0.00000000E+00
					-2.64491000E-03	 3.98584000E-03	 4.00056000E-03
					-3.29157000E-03	 1.05501000E-02	 1.05827000E-02
					 3.28411000E-03	 1.05766000E-02	-1.05440000E-02
					-2.64491000E-03	-3.98584000E-03	-4.00056000E-03
					 2.64311000E-03	-3.99768000E-03	 3.98297000E-03
					 0.00000000E+00	 0.00000000E+00	 0.00000000E+00
					 0.00000000E+00	 0.00000000E+00	 0.00000000E+00
					-3.29157000E-03	-1.05501000E-02	-1.05827000E-02
					 3.28411000E-03	-1.05766000E-02	 1.05440000E-02
				</DataArray>
				<DataArray type="Float32" Name="DOR1" NumberOfComponents="3" ComponentName0="dD1dRy" ComponentName1="dD2dRy" ComponentName2="dD3dRy" format="ascii">
					 2.05714000E-05	 9.11417000E-05	-1.26656000E-05
					 0.00000000E+00	 0.00000000E+00	 0.00000000E+00
					 0.00000000E+00	 0.00000000E+00	 0.00000000E+00
					 2.05714000E-05	-9.11417000E-05	-1.26656000E-05
					 1.27087000E-03	-2.36941000E-04	 3.46046000E-02
					 1.27087000E-03	 2.36941000E-04	 3.46046000E-02
					-2.20031000E-05	-7.84521000E-05	-2.99089000E-05
					-2.20031000E-05	 7.84521000E-05	-2.99089000E-05
					 0.00000000E+00	 0.00000000E+00	 0.00000000E+00
					 0.00000000E+00	 0.00000000E+00	 0.00000000E+00
					-1.20608000E-03	-2.07243000E-04	 3.45678000E-02
					-1.20608000E-03	 2.07243000E-04	 3.45678000E-02
				</DataArray>
				<DataArray type="Float32" Name="DOR1" NumberOfComponents="3" ComponentName0="dD1dRz" ComponentName1="dD2dRz" ComponentName2="dD3dRz" format="ascii">
					 1.55314000E-05	 2.06894000E-05	-5.05276000E-05
					 0.00000000E+00	 0.00000000E+00	 0.00000000E+00
					 0.00000000E+00	 0.00000000E+00	 0.00000000E+00
					-8.67183000E-06	 3.51382000E-06	 4.58852000E-05
					-5.07488000E-04	-6.99588000E-02	 1.17594000E-04
					 6.19765000E-04	-6.99143000E-02	-1.28273000E-04
					 1.55314000E-05	 2.06894000E-05	 5.05276000E-05
					-8.67183000E-06	 3.51382000E-06	-4.58852000E-05
					 0.00000000E+00	 0.00000000E+00	 0.00000000E+00
					 0.00000000E+00	 0.00000000E+00	 0.00000000E+00
					 6.19765000E-04	-6.99143000E-02	 1.28273000E-04
					-5.07488000E-04	-6.99588000E-02	-1.17594000E-04
				</DataArray>
				<DataArray type="Float32" Name="SOR1" NumberOfComponents="6" ComponentName0="dSXXdRx" ComponentName1="dSYYdRx" ComponentName2="dSZZdRx" ComponentName3="dSXYdRx" ComponentName4="dSYZdRx" ComponentName5="dSZXdRx" format="ascii">
					 8.21920000E+00	 2.58530000E+00	 2.59095000E+00	 3.66873000E-04	-3.52171000E+00	 2.02102000E-02
					 1.32154000E+01	 4.15491000E+00	 4.15491000E+00	 5.04502000E+00	-3.40142000E-04	-5.02645000E+00
					-1.32244000E+01	-4.15775000E+00	-4.15775000E+00	 5.03008000E+00	-3.40142000E-04	 5.04865000E+00
					-8.21978000E+00	-2.58311000E+00	-2.57747000E+00	-1.63503000E-02	-3.52171000E+00	 4.22677000E-03
					-3.21400000E+00	-1.02395000E+00	-9.54075000E-01	-1.43911000E-02	 1.31934000E+01	 8.19545000E-03
					 3.22420000E+00	 1.00022000E+00	 1.07010000E+00	 4.10144000E-03	 1.31934000E+01	 1.84851000E-02
					-8.21978000E+00	-2.58311000E+00	-2.57747000E+00	 1.63503000E-02	-3.52171000E+00	-4.22677000E-03
					 8.21920000E+00	 2.58530000E+00	 2.59095000E+00	-3.66873000E-04	-3.52171000E+00	-2.02102000E-02
					 1.32154000E+01	 4.15491000E+00	 4.15491000E+00	-5.04502000E+00	-3.40142000E-04	 5.02645000E+00
					-1.32244000E+01	-4.15775000E+00	-4.15775000E+00	-5.03008000E+00	-3.40142000E-04	-5.04865000E+00
					-3.21400000E+00	-1.02395000E+00	-9.54075000E-01	 1.43911000E-02	 1.31934000E+01	-8.19545000E-03
					 3.22420000E+00	 1.00022000E+00	 1.07010000E+00	-4.10144000E-03	 1.31934000E+01	-1.84851000E-02
				</DataArray>
				<DataArray type="Float32" Name="SOR1" NumberOfComponents="6" ComponentName0="dSXXdRy" ComponentName1="dSYYdRy" ComponentName2="dSZZdRy" ComponentName3="dSXYdRy" ComponentName4="dSYZdRy" ComponentName5="dSZXdRy" format="ascii">
					 1.20148000E+00	 2.96872000E-01	-1.27092000E+00	 1.49508000E-01	 2.14026000E-01	 1.21233000E+00
					 1.02855000E-01	 3.23361000E-02	 3.23366000E-02	 1.15019000E-01	 7.59108000E-07	-1.59839000E-02
					 1.02855000E-01	 3.23361000E-02	 3.23366000E-02	-1.15019000E-01	-7.59110000E-07	-1.59839000E-02
					 1.20148000E+00	 2.96872000E-01	-1.27092000E+00	-1.49508000E-01	-2.14026000E-01	 1.21233000E+00
					 2.12839000E+00	 1.27857000E-01	-2.72597000E+00	-1.83996000E-01	-5.60556000E-01	-2.36589000E+00
					 2.12839000E+00	 1.27857000E-01	-2.72597000E+00	 1.83996000E-01	 5.60556000E-01	-2.36589000E+00
					-1.23057000E+00	-2.93257000E-01	 1.22790000E+00	-1.30769000E-01	 2.14026000E-01	 1.19087000E+00
					-1.23057000E+00	-2.93257000E-01	 1.22790000E+00	 1.30769000E-01	-2.14026000E-01	 1.19087000E+00
					-1.10014000E-01	-3.45858000E-02	-3.45882000E-02	 9.90051000E-02	-7.59110000E-07	-3.77447000E-02
					-1.10014000E-01	-3.45858000E-02	-3.45882000E-02	-9.90051000E-02	 7.59108000E-07	-3.77447000E-02
					-2.19273000E+00	-1.45518000E-01	 2.66870000E+00	-1.62532000E-01	 5.60556000E-01	-2.38705000E+00
					-2.19273000E+00	-1.45518000E-01	 2.66870000E+00	 1.62532000E-01	-5.60556000E-01	-2.38705000E+00
				</DataArray>
				<DataArray type="Float32" Name="SOR1" NumberOfComponents="6" ComponentName0="dSXXdRz" ComponentName1="dSYYdRz" ComponentName2="dSZZdRz" ComponentName3="dSXYdRz" ComponentName4="dSYZdRz" ComponentName5="dSZXdRz" format="ascii">
					-2.10328000E-01	 1.41492000E-01	 1.56968000E-01	 2.00495000E-01	 1.21672000E-01	-8.09392000E-02
					 7.76562000E-02	 2.44158000E-02	 2.44147000E-02	 2.61099000E-02	 4.31546000E-07	-6.37650000E-02
					-4.33583000E-02	-1.36304000E-02	-1.36305000E-02	 4.43441000E-03	 4.31548000E-07	 5.79063000E-02
					 1.53539000E-01	-1.35682000E-01	-1.50573000E-01	 1.74519000E-01	 1.21672000E-01	 7.42010000E-02
					 4.19892000E-01	-2.15841000E-01	-1.48457000E-01	-4.05449000E-01	 3.10282000E-01	 9.04958000E-02
					-5.95617000E-01	 1.33698000E-01	 1.10334000E-01	-3.75172000E-01	 3.10282000E-01	-9.81134000E-02
					-2.10328000E-01	 1.41492000E-01	 1.56968000E-01	 2.00495000E-01	-1.21672000E-01	 8.09392000E-02
					 1.53539000E-01	-1.35682000E-01	-1.50573000E-01	 1.74519000E-01	-1.21672000E-01	-7.42010000E-02
					-4.33583000E-02	-1.36304000E-02	-1.36305000E-02	 4.43441000E-03	-4.31547000E-07	-5.79063000E-02
					 7.76562000E-02	 2.44158000E-02	 2.44147000E-02	 2.61099000E-02	-4.31551000E-07	 6.37650000E-02
					-5.95617000E-01	 1.33698000E-01	 1.10334000E-01	-3.75172000E-01	-3.10282000E-01	 9.81134000E-02
					 4.19892000E-01	-2.15841000E-01	-1.48457000E-01	-4.05449000E-01	-3.10282000E-01	-9.04958000E-02
				</DataArray>
			</PointData>
		</Piece>
	</UnstructuredGrid>
</VTKFile>