# vtk DataFile Version 3.0

ASCII
DATASET UNSTRUCTURED_GRID

POINTS 8 double
	 1.00000000E+02	 0.00000000E+00	 1.00000000E+02
	 0.00000000E+00	 0.00000000E+00	 1.00000000E+02
	 0.00000000E+00	 1.00000000E+02	 1.00000000E+02
	 1.00000000E+02	 1.00000000E+02	 1.00000000E+02
	 1.00000000E+02	 0.00000000E+00	 0.00000000E+00
	 1.00000000E+02	 1.00000000E+02	 0.00000000E+00
	 0.00000000E+00	 1.00000000E+02	 0.00000000E+00
	 0.00000000E+00	 0.00000000E+00	 0.00000000E+00

CELLS 1 9
	8 0 1 2 3 4 7 6 5 

CELL_TYPES 1
	12

POINT_DATA 8
FIELD NORM 1
	NORM 3 8 double
		 0.00000000E+00	-1.00000000E+00	 0.00000000E+00
		 0.00000000E+00	 0.00000000E+00	 0.00000000E+00
		 0.00000000E+00	 0.00000000E+00	 0.00000000E+00
		 0.00000000E+00	 1.00000000E+00	 0.00000000E+00
		 0.00000000E+00	-1.00000000E+00	 0.00000000E+00
		 0.00000000E+00	 1.00000000E+00	 0.00000000E+00
		 0.00000000E+00	 0.00000000E+00	 0.00000000E+00
		 0.00000000E+00	 0.00000000E+00	 0.00000000E+00
FIELD SENENER 1
	SENENER 2 8 double
		 1.60952000E+01	 1.00000000E+00
		 0.00000000E+00	 0.00000000E+00
		 0.00000000E+00	 0.00000000E+00
		 1.60952000E+01	 1.00000000E+00
		 1.60952000E+01	 1.00000000E+00
		 1.60952000E+01	 1.00000000E+00
		 0.00000000E+00	 0.00000000E+00
		 0.00000000E+00	 0.00000000E+00
