# vtk DataFile Version 3.0

ASCII
DATASET UNSTRUCTURED_GRID

POINTS 12 double
	 1.00000000E+02	 0.00000000E+00	 0.00000000E+00
	 0.00000000E+00	 0.00000000E+00	 0.00000000E+00
	 0.00000000E+00	 1.00000000E+02	 0.00000000E+00
	 1.00000000E+02	 1.00000000E+02	 0.00000000E+00
	 2.00000000E+02	 1.00000000E+02	 0.00000000E+00
	 2.00000000E+02	 0.00000000E+00	 0.00000000E+00
	 1.00000000E+02	 0.00000000E+00	-1.00000000E+02
	 1.00000000E+02	 1.00000000E+02	-1.00000000E+02
	 0.00000000E+00	 1.00000000E+02	-1.00000000E+02
	 0.00000000E+00	 0.00000000E+00	-1.00000000E+02
	 2.00000000E+02	 0.00000000E+00	-1.00000000E+02
	 2.00000000E+02	 1.00000000E+02	-1.00000000E+02

CELLS 2 18
	8 5 0 3 4 10 6 7 11 
	8 0 1 2 3 6 9 8 7 

CELL_TYPES 2
	12
	12

POINT_DATA 12
FIELD U 1
	U 3 12 double
		-1.77636000E-15	 1.03227000E+01	 1.03227000E+01
		 0.00000000E+00	 0.00000000E+00	 0.00000000E+00
		 0.00000000E+00	 0.00000000E+00	 0.00000000E+00
		-8.88178000E-16	 1.03227000E+01	-1.03227000E+01
		-3.55271000E-15	 1.45984000E+01	-1.45984000E+01
		-4.44089000E-15	 1.45984000E+01	 1.45984000E+01
		 2.53597000E-31	-1.03227000E+01	 1.03227000E+01
		-6.66134000E-16	-1.03227000E+01	-1.03227000E+01
		 0.00000000E+00	 0.00000000E+00	 0.00000000E+00
		 0.00000000E+00	 0.00000000E+00	 0.00000000E+00
		 3.55271000E-15	-1.45984000E+01	 1.45984000E+01
		-2.66454000E-15	-1.45984000E+01	-1.45984000E+01
FIELD DOR1 1
	DOR1 3 12 double
		-2.99598000E-12	-6.22086000E-12	 2.69363000E-12
		 0.00000000E+00	 0.00000000E+00	 0.00000000E+00
		 0.00000000E+00	 0.00000000E+00	 0.00000000E+00
		 4.15223000E-12	-6.33697000E-12	 1.51518000E-12
		 5.81988000E-12	-1.58146000E-11	 6.12573000E-12
		-3.38934000E-12	-1.56996000E-11	 6.19229000E-12
		-1.32374000E-13	-5.83370000E-12	 2.35524000E-12
		 7.01584000E-12	-6.72413000E-12	 3.53369000E-12
		 0.00000000E+00	 0.00000000E+00	 0.00000000E+00
		 0.00000000E+00	 0.00000000E+00	 0.00000000E+00
		 2.79475000E-13	-1.56893000E-11	 6.43808000E-12
		 9.48870000E-12	-1.58249000E-11	 6.50464000E-12
FIELD DOR1 1
	DOR1 3 12 double
		-1.52431000E-02	-2.67788000E-02	 2.51297000E-03
		 0.00000000E+00	 0.00000000E+00	 0.00000000E+00
		 0.00000000E+00	 0.00000000E+00	 0.00000000E+00
		 1.52431000E-02	-2.67788000E-02	-2.51297000E-03
		 1.96381000E-02	-6.72021000E-02	-1.41941000E-04
		-1.96381000E-02	-6.72021000E-02	 1.41941000E-04
		-1.52431000E-02	-2.67788000E-02	-2.51297000E-03
		 1.52431000E-02	-2.67788000E-02	 2.51297000E-03
		 0.00000000E+00	 0.00000000E+00	 0.00000000E+00
		 0.00000000E+00	 0.00000000E+00	 0.00000000E+00
		-1.96381000E-02	-6.72021000E-02	-1.41941000E-04
		 1.96381000E-02	-6.72021000E-02	 1.41941000E-04
FIELD DOR1 1
	DOR1 3 12 double
		 5.26744000E-02	 7.12156000E-03	-9.28710000E-02
		 0.00000000E+00	 0.00000000E+00	 0.00000000E+00
		 0.00000000E+00	 0.00000000E+00	 0.00000000E+00
		 5.26744000E-02	-7.12156000E-03	-9.28710000E-02
		 6.74857000E-02	-1.89058000E-04	-2.32328000E-01
		 6.74857000E-02	 1.89058000E-04	-2.32328000E-01
		-5.26744000E-02	-7.12156000E-03	-9.28710000E-02
		-5.26744000E-02	 7.12156000E-03	-9.28710000E-02
		 0.00000000E+00	 0.00000000E+00	 0.00000000E+00
		 0.00000000E+00	 0.00000000E+00	 0.00000000E+00
		-6.74857000E-02	-1.89058000E-04	-2.32328000E-01
		-6.74857000E-02	 1.89058000E-04	-2.32328000E-01
