# vtk DataFile Version 3.0

ASCII
DATASET UNSTRUCTURED_GRID

POINTS 12 double
	 1.00000000E+02	 0.00000000E+00	 0.00000000E+00
	 0.00000000E+00	 0.00000000E+00	 0.00000000E+00
	 0.00000000E+00	 1.00000000E+02	 0.00000000E+00
	 1.00000000E+02	 1.00000000E+02	 0.00000000E+00
	 2.00000000E+02	 1.00000000E+02	 0.00000000E+00
	 2.00000000E+02	 0.00000000E+00	 0.00000000E+00
	 1.00000000E+02	 0.00000000E+00	-1.00000000E+02
	 1.00000000E+02	 1.00000000E+02	-1.00000000E+02
	 0.00000000E+00	 1.00000000E+02	-1.00000000E+02
	 0.00000000E+00	 0.00000000E+00	-1.00000000E+02
	 2.00000000E+02	 0.00000000E+00	-1.00000000E+02
	 2.00000000E+02	 1.00000000E+02	-1.00000000E+02

CELLS 2 18
	8 5 0 3 4 10 6 7 11 
	8 0 1 2 3 6 9 8 7 

CELL_TYPES 2
	12
	12

POINT_DATA 12
FIELD U 1
	U 3 12 double
		 3.31451000E+00	 5.82286000E+00	-5.46427000E-01
		 0.00000000E+00	 0.00000000E+00	 0.00000000E+00
		 0.00000000E+00	 0.00000000E+00	 0.00000000E+00
		-3.31451000E+00	 5.82286000E+00	 5.46427000E-01
		-4.27017000E+00	 1.46126000E+01	 3.08641000E-02
		 4.27017000E+00	 1.46126000E+01	-3.08641000E-02
		 3.31451000E+00	 5.82286000E+00	 5.46427000E-01
		-3.31451000E+00	 5.82286000E+00	-5.46427000E-01
		 0.00000000E+00	 0.00000000E+00	 0.00000000E+00
		 0.00000000E+00	 0.00000000E+00	 0.00000000E+00
		 4.27017000E+00	 1.46126000E+01	 3.08641000E-02
		-4.27017000E+00	 1.46126000E+01	-3.08641000E-02
FIELD DOR1 1
	DOR1 3 12 double
		 1.69014000E+00	 2.28507000E-01	-2.97992000E+00
		 0.00000000E+00	 0.00000000E+00	 0.00000000E+00
		 0.00000000E+00	 0.00000000E+00	 0.00000000E+00
		 1.69014000E+00	-2.28507000E-01	-2.97992000E+00
		 2.16539000E+00	-6.06624000E-03	-7.45463000E+00
		 2.16539000E+00	 6.06624000E-03	-7.45463000E+00
		-1.69014000E+00	-2.28507000E-01	-2.97992000E+00
		-1.69014000E+00	 2.28507000E-01	-2.97992000E+00
		 0.00000000E+00	 0.00000000E+00	 0.00000000E+00
		 0.00000000E+00	 0.00000000E+00	 0.00000000E+00
		-2.16539000E+00	-6.06624000E-03	-7.45463000E+00
		-2.16539000E+00	 6.06624000E-03	-7.45463000E+00
FIELD DOR1 1
	DOR1 3 12 double
		 8.81372000E-10	 4.74730000E-02	 4.74730000E-02
		 0.00000000E+00	 0.00000000E+00	 0.00000000E+00
		 0.00000000E+00	 0.00000000E+00	 0.00000000E+00
		 8.81372000E-10	 4.74730000E-02	-4.74730000E-02
		 1.12915000E-09	 6.71369000E-02	-6.71369000E-02
		 1.12915000E-09	 6.71369000E-02	 6.71369000E-02
		-8.81838000E-10	-4.74730000E-02	 4.74730000E-02
		-8.81838000E-10	-4.74730000E-02	-4.74730000E-02
		 0.00000000E+00	 0.00000000E+00	 0.00000000E+00
		 0.00000000E+00	 0.00000000E+00	 0.00000000E+00
		-1.12985000E-09	-6.71369000E-02	 6.71369000E-02
		-1.12985000E-09	-6.71369000E-02	-6.71369000E-02
FIELD DOR1 1
	DOR1 3 12 double
		-1.03336000E-01	-1.29373000E-02	 2.15949000E-02
		 0.00000000E+00	 0.00000000E+00	 0.00000000E+00
		 0.00000000E+00	 0.00000000E+00	 0.00000000E+00
		-1.03336000E-01	 1.29373000E-02	 2.15949000E-02
		-1.56792000E-01	 3.22241000E-03	 8.02933000E-03
		-1.56792000E-01	-3.22241000E-03	 8.02933000E-03
		-1.03336000E-01	-1.29373000E-02	-2.15949000E-02
		-1.03336000E-01	 1.29373000E-02	-2.15949000E-02
		 0.00000000E+00	 0.00000000E+00	 0.00000000E+00
		 0.00000000E+00	 0.00000000E+00	 0.00000000E+00
		-1.56792000E-01	-3.22241000E-03	-8.02934000E-03
		-1.56792000E-01	 3.22241000E-03	-8.02934000E-03
