# vtk DataFile Version 3.0

ASCII
DATASET UNSTRUCTURED_GRID

POINTS 4 double
	 1.00000000E+02	 0.00000000E+00	 0.00000000E+00
	 0.00000000E+00	 0.00000000E+00	 0.00000000E+00
	 0.00000000E+00	 1.00000000E+02	 0.00000000E+00
	 1.00000000E+02	 1.00000000E+02	 0.00000000E+00

CELLS 1 5
	4 1 0 3 2 

CELL_TYPES 1
	9

POINT_DATA 4
FIELD NORM 1
	NORM 3 4 double
		 0.00000000E+00	-1.00000000E+00	 0.00000000E+00
		 0.00000000E+00	 0.00000000E+00	 0.00000000E+00
		 0.00000000E+00	 0.00000000E+00	 0.00000000E+00
		 0.00000000E+00	 1.00000000E+00	 0.00000000E+00
FIELD SENENER 1
	SENENER 2 4 double
		 3.21905000E+01	 1.00000000E+00
		 0.00000000E+00	 0.00000000E+00
		 0.00000000E+00	 0.00000000E+00
		 3.21905000E+01	 1.00000000E+00
