# vtk DataFile Version 3.0

ASCII
DATASET UNSTRUCTURED_GRID

POINTS 12 double
	 1.00000000E+02	 0.00000000E+00	 0.00000000E+00
	 0.00000000E+00	 0.00000000E+00	 0.00000000E+00
	 0.00000000E+00	 1.00000000E+02	 0.00000000E+00
	 1.00000000E+02	 1.00000000E+02	 0.00000000E+00
	 2.00000000E+02	 1.00000000E+02	 0.00000000E+00
	 2.00000000E+02	 0.00000000E+00	 0.00000000E+00
	 1.00000000E+02	 0.00000000E+00	-1.00000000E+02
	 1.00000000E+02	 1.00000000E+02	-1.00000000E+02
	 0.00000000E+00	 1.00000000E+02	-1.00000000E+02
	 0.00000000E+00	 0.00000000E+00	-1.00000000E+02
	 2.00000000E+02	 0.00000000E+00	-1.00000000E+02
	 2.00000000E+02	 1.00000000E+02	-1.00000000E+02

CELLS 2 18
	8 5 0 3 4 10 6 7 11 
	8 0 1 2 3 6 9 8 7 

CELL_TYPES 2
	12
	12

POINT_DATA 12
FIELD DOR1 1
	DOR1 3 12 double
		 2.63671000E-03	 3.99662000E-03	-3.97999000E-03
		 0.00000000E+00	 0.00000000E+00	 0.00000000E+00
		 0.00000000E+00	 0.00000000E+00	 0.00000000E+00
		-2.63851000E-03	 3.98478000E-03	 3.99757000E-03
		-3.28336000E-03	 1.05404000E-02	 1.05721000E-02
		 3.27593000E-03	 1.05669000E-02	-1.05335000E-02
		-2.63851000E-03	-3.98478000E-03	-3.99757000E-03
		 2.63671000E-03	-3.99662000E-03	 3.97999000E-03
		 0.00000000E+00	 0.00000000E+00	 0.00000000E+00
		 0.00000000E+00	 0.00000000E+00	 0.00000000E+00
		-3.28336000E-03	-1.05404000E-02	-1.05721000E-02
		 3.27593000E-03	-1.05669000E-02	 1.05335000E-02
FIELD DOR1 1
	DOR1 3 12 double
		 1.56015000E-04	 1.11501000E-04	-1.47749000E-04
		 0.00000000E+00	 0.00000000E+00	 0.00000000E+00
		 0.00000000E+00	 0.00000000E+00	 0.00000000E+00
		 1.56015000E-04	-1.11501000E-04	-1.47749000E-04
		 1.47234000E-03	-2.43016000E-04	 3.40015000E-02
		 1.47234000E-03	 2.43016000E-04	 3.40015000E-02
		-1.57446000E-04	-9.88225000E-05	-1.64990000E-04
		-1.57446000E-04	 9.88225000E-05	-1.64990000E-04
		 0.00000000E+00	 0.00000000E+00	 0.00000000E+00
		 0.00000000E+00	 0.00000000E+00	 0.00000000E+00
		-1.40776000E-03	-2.13360000E-04	 3.39646000E-02
		-1.40776000E-03	 2.13360000E-04	 3.39646000E-02
FIELD DOR1 1
	DOR1 3 12 double
		 2.91823000E-04	 2.96323000E-04	-1.01732000E-04
		 0.00000000E+00	 0.00000000E+00	 0.00000000E+00
		 0.00000000E+00	 0.00000000E+00	 0.00000000E+00
		-2.84987000E-04	 2.79163000E-04	 9.71045000E-05
		-9.29488000E-04	-6.87108000E-02	 1.35591000E-04
		 1.04143000E-03	-6.86665000E-02	-1.46241000E-04
		 2.91823000E-04	 2.96323000E-04	 1.01732000E-04
		-2.84987000E-04	 2.79163000E-04	-9.71045000E-05
		 0.00000000E+00	 0.00000000E+00	 0.00000000E+00
		 0.00000000E+00	 0.00000000E+00	 0.00000000E+00
		 1.04143000E-03	-6.86665000E-02	 1.46241000E-04
		-9.29488000E-04	-6.87108000E-02	-1.35591000E-04
FIELD SOR1 1
	SOR1 6 12 double
		 8.22640000E+00	 2.58090000E+00	 2.58584000E+00	 2.12936000E-02	-3.51106000E+00	 2.49845000E-04
		 1.32269000E+01	 4.14622000E+00	 4.14799000E+00	 5.06147000E+00	 4.51759000E-03	-5.04063000E+00
		-1.32360000E+01	-4.14906000E+00	-4.15080000E+00	 5.04649000E+00	 4.51883000E-03	 5.06290000E+00
		-8.22702000E+00	-2.57872000E+00	-2.57239000E+00	 4.54688000E-03	-3.51106000E+00	 2.42251000E-02
		-3.21503000E+00	-1.01995000E+00	-9.49886000E-01	 1.33419000E-02	 1.31521000E+01	 3.58626000E-02
		 3.22515000E+00	 9.96326000E-01	 1.06562000E+00	 3.18757000E-02	 1.31521000E+01	-9.12318000E-03
		-8.22702000E+00	-2.57872000E+00	-2.57239000E+00	-4.54688000E-03	-3.51106000E+00	-2.42251000E-02
		 8.22640000E+00	 2.58090000E+00	 2.58584000E+00	-2.12936000E-02	-3.51106000E+00	-2.49845000E-04
		 1.32269000E+01	 4.14622000E+00	 4.14799000E+00	-5.06147000E+00	 4.51759000E-03	 5.04063000E+00
		-1.32360000E+01	-4.14906000E+00	-4.15080000E+00	-5.04649000E+00	 4.51883000E-03	-5.06290000E+00
		-3.21503000E+00	-1.01995000E+00	-9.49886000E-01	-1.33419000E-02	 1.31521000E+01	-3.58626000E-02
		 3.22515000E+00	 9.96326000E-01	 1.06562000E+00	-3.18757000E-02	 1.31521000E+01	 9.12318000E-03
FIELD SOR1 1
	SOR1 6 12 double
		 1.65837000E+00	 2.94726000E-01	-1.16655000E+00	 1.53760000E-01	 2.64335000E-01	 1.24852000E+00
		 7.82480000E-01	 2.45029000E-01	 2.45321000E-01	 1.41333000E-01	 3.54144000E-07	-1.87118000E-01
		 7.82480000E-01	 2.45029000E-01	 2.45321000E-01	-1.41333000E-01	-3.54142000E-07	-1.87118000E-01
		 1.65837000E+00	 2.94726000E-01	-1.16655000E+00	-1.53760000E-01	-2.64335000E-01	 1.24852000E+00
		 2.47122000E+00	 1.87100000E-01	-2.62237000E+00	-1.66501000E-01	-5.73967000E-01	-2.26742000E+00
		 2.47122000E+00	 1.87100000E-01	-2.62237000E+00	 1.66501000E-01	 5.73967000E-01	-2.26742000E+00
		-1.68734000E+00	-2.91103000E-01	 1.12384000E+00	-1.34991000E-01	 2.64335000E-01	 1.22708000E+00
		-1.68734000E+00	-2.91103000E-01	 1.12384000E+00	 1.34991000E-01	-2.64335000E-01	 1.22708000E+00
		-7.89655000E-01	-2.47290000E-01	-2.47549000E-01	 1.25276000E-01	-1.51748000E-06	-2.08955000E-01
		-7.89655000E-01	-2.47290000E-01	-2.47549000E-01	-1.25276000E-01	 1.51748000E-06	-2.08955000E-01
		-2.53551000E+00	-2.04671000E-01	 2.56530000E+00	-1.44994000E-01	 5.73967000E-01	-2.28852000E+00
		-2.53551000E+00	-2.04671000E-01	 2.56530000E+00	 1.44994000E-01	-5.73967000E-01	-2.28852000E+00
FIELD SOR1 1
	SOR1 6 12 double
		 6.97403000E-01	 3.17541000E-01	 1.83992000E-01	 1.23902000E-01	 2.48999000E-01	-9.26072000E-02
		 1.46341000E+00	 4.58648000E-01	 4.58315000E-01	 3.75262000E-01	-1.02379000E-04	-1.29183000E-01
		-1.42912000E+00	-4.47915000E-01	-4.47574000E-01	 3.53523000E-01	-9.08378000E-05	 1.23314000E-01
		-7.53634000E-01	-3.11677000E-01	-1.77576000E-01	 9.77413000E-02	 2.49004000E-01	 8.58684000E-02
		-2.73752000E-01	-3.98268000E-01	-2.73730000E-01	-6.00583000E-01	 3.52079000E-01	 4.87354000E-02
		 9.87874000E-02	 3.16442000E-01	 2.35805000E-01	-5.69960000E-01	 3.52082000E-01	-5.63615000E-02
		 6.97403000E-01	 3.17541000E-01	 1.83992000E-01	 1.23902000E-01	-2.48999000E-01	 9.26072000E-02
		-7.53634000E-01	-3.11677000E-01	-1.77576000E-01	 9.77413000E-02	-2.49004000E-01	-8.58684000E-02
		-1.42912000E+00	-4.47915000E-01	-4.47574000E-01	 3.53523000E-01	 9.08378000E-05	-1.23314000E-01
		 1.46341000E+00	 4.58648000E-01	 4.58315000E-01	 3.75262000E-01	 1.02379000E-04	 1.29183000E-01
		 9.87874000E-02	 3.16442000E-01	 2.35805000E-01	-5.69960000E-01	-3.52082000E-01	 5.63615000E-02
		-2.73752000E-01	-3.98268000E-01	-2.73730000E-01	-6.00583000E-01	-3.52079000E-01	-4.87354000E-02
