<?xml version="1.0"?>
<VTKFile type="UnstructuredGrid" version="0.1" byte_order="LittleEndian">
	<UnstructuredGrid>
		<Piece NumberOfPoints="12" NumberOfCells="2">
			<Points>
				<DataArray type="Float64" NumberOfComponents="3" format="ascii">
					 1.00000000E+02	 0.00000000E+00	 0.00000000E+00
					 0.00000000E+00	 0.00000000E+00	 0.00000000E+00
					 0.00000000E+00	 1.00000000E+02	 0.00000000E+00
					 1.00000000E+02	 1.00000000E+02	 0.00000000E+00
					 2.00000000E+02	 1.00000000E+02	 0.00000000E+00
					 2.00000000E+02	 0.00000000E+00	 0.00000000E+00
					 1.00000000E+02	 0.00000000E+00	-1.00000000E+02
					 1.00000000E+02	 1.00000000E+02	-1.00000000E+02
					 0.00000000E+00	 1.00000000E+02	-1.00000000E+02
					 0.00000000E+00	 0.00000000E+00	-1.00000000E+02
					 2.00000000E+02	 0.00000000E+00	-1.00000000E+02
					 2.00000000E+02	 1.00000000E+02	-1.00000000E+02
				</DataArray>
			</Points>
			<Cells>
				<DataArray type="Int32" Name="connectivity" format="ascii">
					5 0 3 4 10 6 7 11 0 1 2 3 6 9 8 7 
				</DataArray>
				<DataArray type="Int32" Name="offsets" format="ascii">
					8 16 
				</DataArray>
				<DataArray type="UInt8" Name="types" format="ascii">
					12 12 
				</DataArray>
			</Cells>
			<PointData>
				<DataArray type="Float32" Name="U" NumberOfComponents="3" ComponentName0="D1" ComponentName1="D2" ComponentName2="D3" format="ascii">
					-1.77636000E-15	 1.03227000E+01	 1.03227000E+01
					 0.00000000E+00	 0.00000000E+00	 0.00000000E+00
					 0.00000000E+00	 0.00000000E+00	 0.00000000E+00
					-8.88178000E-16	 1.03227000E+01	-1.03227000E+01
					-3.55271000E-15	 1.45984000E+01	-1.45984000E+01
					-4.44089000E-15	 1.45984000E+01	 1.45984000E+01
					 2.53597000E-31	-1.03227000E+01	 1.03227000E+01
					-6.66134000E-16	-1.03227000E+01	-1.03227000E+01
					 0.00000000E+00	 0.00000000E+00	 0.00000000E+00
					 0.00000000E+00	 0.00000000E+00	 0.00000000E+00
					 3.55271000E-15	-1.45984000E+01	 1.45984000E+01
					-2.66454000E-15	-1.45984000E+01	-1.45984000E+01
				</DataArray>
				<DataArray type="Float32" Name="DOR1" NumberOfComponents="3" ComponentName0="dD1dRx" ComponentName1="dD2dRx" ComponentName2="dD3dRx" format="ascii">
					-2.99598000E-12	-6.22086000E-12	 2.69363000E-12
					 0.00000000E+00	 0.00000000E+00	 0.00000000E+00
					 0.00000000E+00	 0.00000000E+00	 0.00000000E+00
					 4.15223000E-12	-6.33697000E-12	 1.51518000E-12
					 5.81988000E-12	-1.58146000E-11	 6.12573000E-12
					-3.38934000E-12	-1.56996000E-11	 6.19229000E-12
					-1.32374000E-13	-5.83370000E-12	 2.35524000E-12
					 7.01584000E-12	-6.72413000E-12	 3.53369000E-12
					 0.00000000E+00	 0.00000000E+00	 0.00000000E+00
					 0.00000000E+00	 0.00000000E+00	 0.00000000E+00
					 2.79475000E-13	-1.56893000E-11	 6.43808000E-12
					 9.48870000E-12	-1.58249000E-11	 6.50464000E-12
				</DataArray>
				<DataArray type="Float32" Name="DOR1" NumberOfComponents="3" ComponentName0="dD1dRy" ComponentName1="dD2dRy" ComponentName2="dD3dRy" format="ascii">
					-1.52431000E-02	-2.67788000E-02	 2.51297000E-03
					 0.00000000E+00	 0.00000000E+00	 0.00000000E+00
					 0.00000000E+00	 0.00000000E+00	 0.00000000E+00
					 1.52431000E-02	-2.67788000E-02	-2.51297000E-03
					 1.96381000E-02	-6.72021000E-02	-1.41941000E-04
					-1.96381000E-02	-6.72021000E-02	 1.41941000E-04
					-1.52431000E-02	-2.67788000E-02	-2.51297000E-03
					 1.52431000E-02	-2.67788000E-02	 2.51297000E-03
					 0.00000000E+00	 0.00000000E+00	 0.00000000E+00
					 0.00000000E+00	 0.00000000E+00	 0.00000000E+00
					-1.96381000E-02	-6.72021000E-02	-1.41941000E-04
					 1.96381000E-02	-6.72021000E-02	 1.41941000E-04
				</DataArray>
				<DataArray type="Float32" Name="DOR1" NumberOfComponents="3" ComponentName0="dD1dRz" ComponentName1="dD2dRz" ComponentName2="dD3dRz" format="ascii">
					 5.26744000E-02	 7.12156000E-03	-9.28710000E-02
					 0.00000000E+00	 0.00000000E+00	 0.00000000E+00
					 0.00000000E+00	 0.00000000E+00	 0.00000000E+00
					 5.26744000E-02	-7.12156000E-03	-9.28710000E-02
					 6.74857000E-02	-1.89058000E-04	-2.32328000E-01
					 6.74857000E-02	 1.89058000E-04	-2.32328000E-01
					-5.26744000E-02	-7.12156000E-03	-9.28710000E-02
					-5.26744000E-02	 7.12156000E-03	-9.28710000E-02
					 0.00000000E+00	 0.00000000E+00	 0.00000000E+00
					 0.00000000E+00	 0.00000000E+00	 0.00000000E+00
					-6.74857000E-02	-1.89058000E-04	-2.32328000E-01
					-6.74857000E-02	 1.89058000E-04	-2.32328000E-01
				</DataArray>
			</PointData>
		</Piece>
	</UnstructuredGrid>
</VTKFile>