# vtk DataFile Version 3.0

ASCII
DATASET UNSTRUCTURED_GRID

POINTS 8 double
	 1.00000000E+02	 0.00000000E+00	 1.00000000E+02
	 0.00000000E+00	 0.00000000E+00	 1.00000000E+02
	 0.00000000E+00	 1.00000000E+02	 1.00000000E+02
	 1.00000000E+02	 1.00000000E+02	 1.00000000E+02
	 1.00000000E+02	 0.00000000E+00	 0.00000000E+00
	 1.00000000E+02	 1.00000000E+02	 0.00000000E+00
	 0.00000000E+00	 1.00000000E+02	 0.00000000E+00
	 0.00000000E+00	 0.00000000E+00	 0.00000000E+00

CELLS 1 9
	8 0 1 2 3 4 7 6 5 

CELL_TYPES 1
	12

POINT_DATA 8
FIELD U 1
	U 3 8 double
		 0.00000000E+00	-3.71429000E+00	 0.00000000E+00
		 0.00000000E+00	 0.00000000E+00	 0.00000000E+00
		 0.00000000E+00	 0.00000000E+00	 0.00000000E+00
		 0.00000000E+00	-3.71429000E+00	 0.00000000E+00
		 0.00000000E+00	-3.71429000E+00	 0.00000000E+00
		 0.00000000E+00	-3.71429000E+00	 0.00000000E+00
		 0.00000000E+00	 0.00000000E+00	 0.00000000E+00
		 0.00000000E+00	 0.00000000E+00	 0.00000000E+00
FIELD S 1
	S 10 8 double
		 0.00000000E+00	 1.42457000E-12	 0.00000000E+00	-3.89984000E+03	-1.05381000E-12	 0.00000000E+00	 6.75472102E+03	-3.89984000E+03	-5.69518501E-28	 3.89984000E+03
		 0.00000000E+00	 5.70390000E-13	 0.00000000E+00	-3.89984000E+03	-2.30293000E-13	 0.00000000E+00	 6.75472102E+03	-3.89984000E+03	-4.54747351E-13	 3.89984000E+03
		 0.00000000E+00	 5.70390000E-13	 0.00000000E+00	-3.89984000E+03	-1.07353000E-13	 0.00000000E+00	 6.75472102E+03	-3.89984000E+03	-4.54747351E-13	 3.89984000E+03
		 0.00000000E+00	 1.42457000E-12	 0.00000000E+00	-3.89984000E+03	 9.13337000E-13	 0.00000000E+00	 6.75472102E+03	-3.89984000E+03	-4.27804462E-28	 3.89984000E+03
		 0.00000000E+00	-2.97191000E-13	 0.00000000E+00	-3.89984000E+03	-1.05381000E-12	 0.00000000E+00	 6.75472102E+03	-3.89984000E+03	 4.54747351E-13	 3.89984000E+03
		 0.00000000E+00	-2.97191000E-13	 0.00000000E+00	-3.89984000E+03	 9.13337000E-13	 0.00000000E+00	 6.75472102E+03	-3.89984000E+03	 4.54747351E-13	 3.89984000E+03
		 0.00000000E+00	-4.68334000E-13	 0.00000000E+00	-3.89984000E+03	-1.07353000E-13	 0.00000000E+00	 6.75472102E+03	-3.89984000E+03	 4.54747351E-13	 3.89984000E+03
		 0.00000000E+00	-4.68334000E-13	 0.00000000E+00	-3.89984000E+03	-2.30293000E-13	 0.00000000E+00	 6.75472102E+03	-3.89984000E+03	 4.54747351E-13	 3.89984000E+03
FIELD ERROR 1
	ERROR 1 8 double
		 3.71342000E-15
		 3.71342000E-15
		 3.71342000E-15
		 3.71342000E-15
		 3.71342000E-15
		 3.71342000E-15
		 3.71342000E-15
		 3.71342000E-15
