<?xml version="1.0"?>
<VTKFile type="UnstructuredGrid" version="0.1" byte_order="LittleEndian">
	<UnstructuredGrid>
		<Piece NumberOfPoints="12" NumberOfCells="2">
			<Points>
				<DataArray type="Float64" NumberOfComponents="3" format="ascii">
					 1.00000000E+02	 0.00000000E+00	 0.00000000E+00
					 0.00000000E+00	 0.00000000E+00	 0.00000000E+00
					 0.00000000E+00	 1.00000000E+02	 0.00000000E+00
					 1.00000000E+02	 1.00000000E+02	 0.00000000E+00
					 2.00000000E+02	 1.00000000E+02	 0.00000000E+00
					 2.00000000E+02	 0.00000000E+00	 0.00000000E+00
					 1.00000000E+02	 0.00000000E+00	-1.00000000E+02
					 1.00000000E+02	 1.00000000E+02	-1.00000000E+02
					 0.00000000E+00	 1.00000000E+02	-1.00000000E+02
					 0.00000000E+00	 0.00000000E+00	-1.00000000E+02
					 2.00000000E+02	 0.00000000E+00	-1.00000000E+02
					 2.00000000E+02	 1.00000000E+02	-1.00000000E+02
				</DataArray>
			</Points>
			<Cells>
				<DataArray type="Int32" Name="connectivity" format="ascii">
					5 0 3 4 10 6 7 11 0 1 2 3 6 9 8 7 
				</DataArray>
				<DataArray type="Int32" Name="offsets" format="ascii">
					8 16 
				</DataArray>
				<DataArray type="UInt8" Name="types" format="ascii">
					12 12 
				</DataArray>
			</Cells>
			<PointData>
				<DataArray type="Float32" Name="U" NumberOfComponents="3" ComponentName0="D1" ComponentName1="D2" ComponentName2="D3" format="ascii">
					 3.31451000E+00	 5.82286000E+00	-5.46427000E-01
					 0.00000000E+00	 0.00000000E+00	 0.00000000E+00
					 0.00000000E+00	 0.00000000E+00	 0.00000000E+00
					-3.31451000E+00	 5.82286000E+00	 5.46427000E-01
					-4.27017000E+00	 1.46126000E+01	 3.08641000E-02
					 4.27017000E+00	 1.46126000E+01	-3.08641000E-02
					 3.31451000E+00	 5.82286000E+00	 5.46427000E-01
					-3.31451000E+00	 5.82286000E+00	-5.46427000E-01
					 0.00000000E+00	 0.00000000E+00	 0.00000000E+00
					 0.00000000E+00	 0.00000000E+00	 0.00000000E+00
					 4.27017000E+00	 1.46126000E+01	 3.08641000E-02
					-4.27017000E+00	 1.46126000E+01	-3.08641000E-02
				</DataArray>
				<DataArray type="Float32" Name="DOR1" NumberOfComponents="3" ComponentName0="dD1dRx" ComponentName1="dD2dRx" ComponentName2="dD3dRx" format="ascii">
					 1.69014000E+00	 2.28507000E-01	-2.97992000E+00
					 0.00000000E+00	 0.00000000E+00	 0.00000000E+00
					 0.00000000E+00	 0.00000000E+00	 0.00000000E+00
					 1.69014000E+00	-2.28507000E-01	-2.97992000E+00
					 2.16539000E+00	-6.06624000E-03	-7.45463000E+00
					 2.16539000E+00	 6.06624000E-03	-7.45463000E+00
					-1.69014000E+00	-2.28507000E-01	-2.97992000E+00
					-1.69014000E+00	 2.28507000E-01	-2.97992000E+00
					 0.00000000E+00	 0.00000000E+00	 0.00000000E+00
					 0.00000000E+00	 0.00000000E+00	 0.00000000E+00
					-2.16539000E+00	-6.06624000E-03	-7.45463000E+00
					-2.16539000E+00	 6.06624000E-03	-7.45463000E+00
				</DataArray>
				<DataArray type="Float32" Name="DOR1" NumberOfComponents="3" ComponentName0="dD1dRy" ComponentName1="dD2dRy" ComponentName2="dD3dRy" format="ascii">
					 8.81372000E-10	 4.74730000E-02	 4.74730000E-02
					 0.00000000E+00	 0.00000000E+00	 0.00000000E+00
					 0.00000000E+00	 0.00000000E+00	 0.00000000E+00
					 8.81372000E-10	 4.74730000E-02	-4.74730000E-02
					 1.12915000E-09	 6.71369000E-02	-6.71369000E-02
					 1.12915000E-09	 6.71369000E-02	 6.71369000E-02
					-8.81838000E-10	-4.74730000E-02	 4.74730000E-02
					-8.81838000E-10	-4.74730000E-02	-4.74730000E-02
					 0.00000000E+00	 0.00000000E+00	 0.00000000E+00
					 0.00000000E+00	 0.00000000E+00	 0.00000000E+00
					-1.12985000E-09	-6.71369000E-02	 6.71369000E-02
					-1.12985000E-09	-6.71369000E-02	-6.71369000E-02
				</DataArray>
				<DataArray type="Float32" Name="DOR1" NumberOfComponents="3" ComponentName0="dD1dRz" ComponentName1="dD2dRz" ComponentName2="dD3dRz" format="ascii">
					-1.03336000E-01	-1.29373000E-02	 2.15949000E-02
					 0.00000000E+00	 0.00000000E+00	 0.00000000E+00
					 0.00000000E+00	 0.00000000E+00	 0.00000000E+00
					-1.03336000E-01	 1.29373000E-02	 2.15949000E-02
					-1.56792000E-01	 3.22241000E-03	 8.02933000E-03
					-1.56792000E-01	-3.22241000E-03	 8.02933000E-03
					-1.03336000E-01	-1.29373000E-02	-2.15949000E-02
					-1.03336000E-01	 1.29373000E-02	-2.15949000E-02
					 0.00000000E+00	 0.00000000E+00	 0.00000000E+00
					 0.00000000E+00	 0.00000000E+00	 0.00000000E+00
					-1.56792000E-01	-3.22241000E-03	-8.02934000E-03
					-1.56792000E-01	 3.22241000E-03	-8.02934000E-03
				</DataArray>
			</PointData>
		</Piece>
	</UnstructuredGrid>
</VTKFile>