# vtk DataFile Version 3.0

ASCII
DATASET UNSTRUCTURED_GRID

POINTS 4 double
	 1.00000000E+02	 0.00000000E+00	 0.00000000E+00
	 0.00000000E+00	 0.00000000E+00	 0.00000000E+00
	 0.00000000E+00	 1.00000000E+02	 0.00000000E+00
	 1.00000000E+02	 1.00000000E+02	 0.00000000E+00

CELLS 1 5
	4 1 0 3 2 

CELL_TYPES 1
	9

POINT_DATA 4
FIELD U 1
	U 3 4 double
		 0.00000000E+00	-3.71429000E+00	 0.00000000E+00
		 0.00000000E+00	 0.00000000E+00	 0.00000000E+00
		 0.00000000E+00	 0.00000000E+00	 0.00000000E+00
		 0.00000000E+00	-3.71429000E+00	 0.00000000E+00
FIELD S 1
	S 10 4 double
		 0.00000000E+00	 1.16072000E-13	 0.00000000E+00	-3.89984000E+03	-3.86131000E-14	 0.00000000E+00	 6.75472102E+03	-3.89984000E+03	-7.64632134E-31	 3.89984000E+03
		 0.00000000E+00	-2.23493000E-15	 0.00000000E+00	-3.89984000E+03	-8.68162000E-14	 0.00000000E+00	 6.75472102E+03	-3.89984000E+03	 3.86531375E-30	 3.89984000E+03
		 0.00000000E+00	-2.23493000E-15	 0.00000000E+00	-3.89984000E+03	 1.98000000E-13	 0.00000000E+00	 6.75472102E+03	-3.89984000E+03	 2.01054402E-29	 3.89984000E+03
		 0.00000000E+00	 1.16072000E-13	 0.00000000E+00	-3.89984000E+03	-9.14962000E-13	 0.00000000E+00	 6.75472102E+03	-3.89984000E+03	-4.29328107E-28	 3.89984000E+03
FIELD ERROR 1
	ERROR 1 4 double
		 0.00000000E+00
		 0.00000000E+00
		 0.00000000E+00
		 0.00000000E+00
