<?xml version="1.0"?>
<VTKFile type="UnstructuredGrid" version="0.1" byte_order="LittleEndian">
	<UnstructuredGrid>
		<Piece NumberOfPoints="1001" NumberOfCells="624">
			<Points>
				<DataArray type="Float64" NumberOfComponents="3" format="ascii">
					 1.00000000E+01	-1.49699000E+01	 2.01445000E+02
					 7.50000000E+00	-1.74693000E+01	 2.01196000E+02
					 7.50000000E+00	-1.24616000E+01	 2.01583000E+02
					 1.00000000E+01	-1.03958000E+01	 2.01732000E+02
					 1.00000000E+01	-1.48958000E+01	 2.00447000E+02
					 7.50000000E+00	-1.73828000E+01	 2.00200000E+02
					 7.50000000E+00	-1.23999000E+01	 2.00585000E+02
					 1.00000000E+01	-1.03444000E+01	 2.00734000E+02
					 7.50000000E+00	-7.44523000E+00	 2.01843000E+02
					 1.00000000E+01	-5.81638000E+00	 2.01916000E+02
					 7.50000000E+00	-7.40838000E+00	 2.00844000E+02
					 1.00000000E+01	-5.78758000E+00	 2.00917000E+02
					 1.00000000E+01	-1.48217000E+01	 1.99450000E+02
					 7.50000000E+00	-1.72963000E+01	 1.99204000E+02
					 7.50000000E+00	-1.23382000E+01	 1.99587000E+02
					 1.00000000E+01	-1.02929000E+01	 1.99735000E+02
					 7.50000000E+00	-7.37152000E+00	 1.99845000E+02
					 1.00000000E+01	-5.75879000E+00	 1.99917000E+02
					 5.00000000E+00	-1.99687000E+01	 2.00948000E+02
					 5.00000000E+00	-1.45273000E+01	 2.01434000E+02
					 5.00000000E+00	-1.98698000E+01	 1.99953000E+02
					 5.00000000E+00	-1.44554000E+01	 2.00437000E+02
					 5.00000000E+00	-9.07409000E+00	 2.01770000E+02
					 5.00000000E+00	-9.02917000E+00	 2.00771000E+02
					 5.00000000E+00	-1.97710000E+01	 1.98958000E+02
					 5.00000000E+00	-1.43835000E+01	 1.99440000E+02
					 5.00000000E+00	-8.98425000E+00	 1.99772000E+02
					 2.50000000E+00	-2.24681000E+01	 2.00699000E+02
					 2.50000000E+00	-1.65931000E+01	 2.01285000E+02
					 2.50000000E+00	-2.23569000E+01	 1.99706000E+02
					 2.50000000E+00	-1.65110000E+01	 2.00289000E+02
					 2.50000000E+00	-1.07029000E+01	 2.01696000E+02
					 2.50000000E+00	-1.06500000E+01	 2.00698000E+02
					 2.50000000E+00	-2.22456000E+01	 1.98712000E+02
					 2.50000000E+00	-1.64288000E+01	 1.99292000E+02
					 2.50000000E+00	-1.05970000E+01	 1.99699000E+02
					 0.00000000E+00	-2.49675000E+01	 2.00451000E+02
					 0.00000000E+00	-1.86589000E+01	 2.01136000E+02
					 0.00000000E+00	-2.48439000E+01	 1.99459000E+02
					 8.88178000E-16	-1.85665000E+01	 2.00141000E+02
					 0.00000000E+00	-1.23318000E+01	 2.01623000E+02
					 0.00000000E+00	-1.22708000E+01	 2.00625000E+02
					 0.00000000E+00	-2.47203000E+01	 1.98466000E+02
					 0.00000000E+00	-1.84741000E+01	 1.99145000E+02
					 0.00000000E+00	-1.22097000E+01	 1.99627000E+02
					 1.00000000E+01	-5.22936000E+00	 5.97717000E+01
					 1.00000000E+01	-6.10091000E+00	 6.97336000E+01
					 1.00000000E+01	-4.88296000E+00	 6.98295000E+01
					 1.00000000E+01	-4.18540000E+00	 5.98538000E+01
					 7.50000000E+00	-5.22936000E+00	 5.97717000E+01
					 7.50000000E+00	-6.20949000E+00	 6.97232000E+01
					 7.50000000E+00	-4.99171000E+00	 6.98209000E+01
					 7.50000000E+00	-4.18540000E+00	 5.98538000E+01
					 1.00000000E+01	-3.66352000E+00	 6.99041000E+01
					 1.00000000E+01	-3.14016000E+00	 5.99178000E+01
					 7.50000000E+00	-3.77240000E+00	 6.98974000E+01
					 7.50000000E+00	-3.14016000E+00	 5.99178000E+01
					 5.00000000E+00	-5.22936000E+00	 5.97717000E+01
					 5.00000000E+00	-6.31807000E+00	 6.97127000E+01
					 5.00000000E+00	-5.10045000E+00	 6.98124000E+01
					 5.00000000E+00	-4.18540000E+00	 5.98538000E+01
					 5.00000000E+00	-3.88128000E+00	 6.98908000E+01
					 5.00000000E+00	-3.14016000E+00	 5.99178000E+01
					 2.50000000E+00	-5.22936000E+00	 5.97717000E+01
					 2.50000000E+00	-6.42665000E+00	 6.97023000E+01
					 2.50000000E+00	-5.20920000E+00	 6.98038000E+01
					 2.50000000E+00	-4.18540000E+00	 5.98538000E+01
					 2.50000000E+00	-3.99015000E+00	 6.98841000E+01
					 2.50000000E+00	-3.14016000E+00	 5.99178000E+01
					 0.00000000E+00	-5.22936000E+00	 5.97717000E+01
					 0.00000000E+00	-6.53523000E+00	 6.96918000E+01
					 0.00000000E+00	-5.31794000E+00	 6.97952000E+01
					 0.00000000E+00	-4.18540000E+00	 5.98538000E+01
					 0.00000000E+00	-4.09903000E+00	 6.98774000E+01
					 0.00000000E+00	-3.14016000E+00	 5.99178000E+01
					 1.00000000E+01	-6.97247000E+00	 7.96956000E+01
					 1.00000000E+01	-5.58052000E+00	 7.98051000E+01
					 7.50000000E+00	-7.18962000E+00	 7.96747000E+01
					 7.50000000E+00	-5.79801000E+00	 7.97880000E+01
					 1.00000000E+01	-4.18688000E+00	 7.98904000E+01
					 7.50000000E+00	-4.40464000E+00	 7.98770000E+01
					 5.00000000E+00	-7.40678000E+00	 7.96538000E+01
					 5.00000000E+00	-6.01550000E+00	 7.97709000E+01
					 5.00000000E+00	-4.62239000E+00	 7.98637000E+01
					 2.50000000E+00	-7.62394000E+00	 7.96328000E+01
					 2.50000000E+00	-6.23299000E+00	 7.97538000E+01
					 2.50000000E+00	-4.84015000E+00	 7.98504000E+01
					 0.00000000E+00	-7.84110000E+00	 7.96119000E+01
					 8.88178000E-16	-6.45048000E+00	 7.97367000E+01
					 0.00000000E+00	-5.05791000E+00	 7.98371000E+01
					 1.00000000E+01	-7.84402000E+00	 8.96575000E+01
					 1.00000000E+01	-6.27808000E+00	 8.97808000E+01
					 7.50000000E+00	-8.16976000E+00	 8.96262000E+01
					 7.50000000E+00	-6.60432000E+00	 8.97551000E+01
					 1.00000000E+01	-4.71024000E+00	 8.98767000E+01
					 7.50000000E+00	-5.03687000E+00	 8.98567000E+01
					 5.00000000E+00	-8.49549000E+00	 8.95948000E+01
					 5.00000000E+00	-6.93056000E+00	 8.97294000E+01
					 5.00000000E+00	-5.36351000E+00	 8.98367000E+01
					 2.50000000E+00	-8.82123000E+00	 8.95634000E+01
					 2.50000000E+00	-7.25679000E+00	 8.97037000E+01
					 2.50000000E+00	-5.69014000E+00	 8.98167000E+01
					 0.00000000E+00	-9.14697000E+00	 8.95321000E+01
					-8.88178000E-16	-7.58303000E+00	 8.96781000E+01
					 0.00000000E+00	-6.01678000E+00	 8.97967000E+01
					 1.00000000E+01	-8.71557000E+00	 9.96195000E+01
					 1.00000000E+01	-6.97565000E+00	 9.97564000E+01
					 7.50000000E+00	-9.14989000E+00	 9.95777000E+01
					 7.50000000E+00	-7.41063000E+00	 9.97222000E+01
					 1.00000000E+01	-5.23360000E+00	 9.98630000E+01
					 7.50000000E+00	-5.66911000E+00	 9.98363000E+01
					 5.00000000E+00	-9.58420000E+00	 9.95358000E+01
					 5.00000000E+00	-7.84561000E+00	 9.96879000E+01
					 5.00000000E+00	-6.10463000E+00	 9.98097000E+01
					 2.50000000E+00	-1.00185000E+01	 9.94940000E+01
					 2.50000000E+00	-8.28059000E+00	 9.96537000E+01
					 2.50000000E+00	-6.54014000E+00	 9.97830000E+01
					 0.00000000E+00	-1.04528000E+01	 9.94522000E+01
					 0.00000000E+00	-8.71557000E+00	 9.96195000E+01
					 0.00000000E+00	-6.97565000E+00	 9.97564000E+01
					 7.50000000E+00	-6.74063000E+00	 2.01868000E+02
					 1.00000000E+01	-5.11153000E+00	 2.01935000E+02
					 7.50000000E+00	-6.70726000E+00	 2.00868000E+02
					 1.00000000E+01	-5.08622000E+00	 2.00936000E+02
					 7.50000000E+00	-6.03594000E+00	 2.01890000E+02
					 1.00000000E+01	-4.40661000E+00	 2.01952000E+02
					 7.50000000E+00	-6.00606000E+00	 2.00891000E+02
					 1.00000000E+01	-4.38480000E+00	 2.00952000E+02
					 7.50000000E+00	-6.67389000E+00	 1.99869000E+02
					 1.00000000E+01	-5.06092000E+00	 1.99936000E+02
					 7.50000000E+00	-5.97617000E+00	 1.99891000E+02
					 1.00000000E+01	-4.36298000E+00	 1.99952000E+02
					 5.00000000E+00	-8.36973000E+00	 2.01800000E+02
					 5.00000000E+00	-8.32829000E+00	 2.00801000E+02
					 5.00000000E+00	-7.66527000E+00	 2.01828000E+02
					 5.00000000E+00	-7.62732000E+00	 2.00829000E+02
					 5.00000000E+00	-8.28686000E+00	 1.99802000E+02
					 5.00000000E+00	-7.58937000E+00	 1.99830000E+02
					 2.50000000E+00	-9.99883000E+00	 2.01733000E+02
					 2.50000000E+00	-9.94933000E+00	 2.00734000E+02
					 2.50000000E+00	-9.29459000E+00	 2.01766000E+02
					 2.50000000E+00	-9.24858000E+00	 2.00767000E+02
					 2.50000000E+00	-9.89983000E+00	 1.99735000E+02
					 2.50000000E+00	-9.20257000E+00	 1.99769000E+02
					 0.00000000E+00	-1.16279000E+01	 2.01665000E+02
					 0.00000000E+00	-1.15704000E+01	 2.00667000E+02
					 0.00000000E+00	-1.09239000E+01	 2.01704000E+02
					 0.00000000E+00	-1.08698000E+01	 2.00706000E+02
					 0.00000000E+00	-1.15128000E+01	 1.99668000E+02
					 0.00000000E+00	-1.08158000E+01	 1.99707000E+02
					 1.00000000E+01	-5.29925000E+00	 1.12370000E+02
					 1.00000000E+01	-4.44931000E+00	 1.12409000E+02
					 1.00000000E+01	-4.36194000E+00	 9.99048000E+01
					 7.50000000E+00	-5.88191000E+00	 1.12337000E+02
					 7.50000000E+00	-5.03220000E+00	 1.12380000E+02
					 7.50000000E+00	-4.79767000E+00	 9.98820000E+01
					 1.00000000E+01	-3.59908000E+00	 1.12441000E+02
					 1.00000000E+01	-3.48995000E+00	 9.99391000E+01
					 7.50000000E+00	-4.18215000E+00	 1.12416000E+02
					 7.50000000E+00	-3.92586000E+00	 9.99200000E+01
					 5.00000000E+00	-6.46458000E+00	 1.12305000E+02
					 5.00000000E+00	-5.61508000E+00	 1.12352000E+02
					 5.00000000E+00	-5.23340000E+00	 9.98591000E+01
					 5.00000000E+00	-4.76522000E+00	 1.12392000E+02
					 5.00000000E+00	-4.36177000E+00	 9.99010000E+01
					 2.50000000E+00	-7.04724000E+00	 1.12273000E+02
					 2.50000000E+00	-6.19797000E+00	 1.12324000E+02
					 2.50000000E+00	-5.66913000E+00	 9.98363000E+01
					 2.50000000E+00	-5.34830000E+00	 1.12368000E+02
					 2.50000000E+00	-4.79769000E+00	 9.98820000E+01
					 0.00000000E+00	-7.62991000E+00	 1.12240000E+02
					 0.00000000E+00	-6.78085000E+00	 1.12295000E+02
					 0.00000000E+00	-6.10486000E+00	 9.98135000E+01
					 0.00000000E+00	-5.93137000E+00	 1.12343000E+02
					 0.00000000E+00	-5.23360000E+00	 9.98630000E+01
					 1.00000000E+01	-5.36490000E+00	 1.24876000E+02
					 1.00000000E+01	-4.53668000E+00	 1.24913000E+02
					 7.50000000E+00	-6.09471000E+00	 1.24838000E+02
					 7.50000000E+00	-5.26672000E+00	 1.24879000E+02
					 1.00000000E+01	-3.70821000E+00	 1.24942000E+02
					 7.50000000E+00	-4.43844000E+00	 1.24913000E+02
					 5.00000000E+00	-6.82453000E+00	 1.24800000E+02
					 5.00000000E+00	-5.99676000E+00	 1.24845000E+02
[...]
			<PointData>
				<DataArray type="Float32" Name="NORM" NumberOfComponents="3" ComponentName0="x" ComponentName1="y" ComponentName2="z" format="ascii">
					 8.08612000E-01	-3.70567000E-01	 4.56976000E-01
					 4.91096000E-01	-5.57712000E-01	 6.69165000E-01
					-6.26047000E-03	-6.43925000E-02	 9.97905000E-01
					 7.01115000E-01	-3.66974000E-02	 7.12103000E-01
					 9.23822000E-01	-3.81769000E-01	-2.83729000E-02
					 7.06976000E-01	-7.04586000E-01	-6.11805000E-02
					 0.00000000E+00	 0.00000000E+00	 0.00000000E+00
					 1.00000000E+00	 0.00000000E+00	 0.00000000E+00
					-9.91880000E-04	-4.34085000E-02	 9.99057000E-01
					 7.04497000E-01	-2.38411000E-02	 7.09306000E-01
					 0.00000000E+00	 0.00000000E+00	 0.00000000E+00
					 1.00000000E+00	 0.00000000E+00	 0.00000000E+00
					 8.16332000E-01	-3.02120000E-01	-4.92266000E-01
					 5.08474000E-01	-4.40138000E-01	-7.40090000E-01
					 6.19751000E-03	 6.43935000E-02	-9.97905000E-01
					 7.13065000E-01	 3.60832000E-02	-7.00169000E-01
					 3.86527000E-01	-5.66449000E-01	-7.27827000E-01
					 9.40276000E-01	-2.12209000E-01	-2.66175000E-01
					 4.97649000E-01	-5.63313000E-01	 6.59563000E-01
					 2.73900000E-03	-7.52302000E-02	 9.97162000E-01
					 7.07004000E-01	-7.03744000E-01	-6.99347000E-02
					 0.00000000E+00	 0.00000000E+00	 0.00000000E+00
					 4.80667000E-03	-5.22886000E-02	 9.98620000E-01
					 0.00000000E+00	 0.00000000E+00	 0.00000000E+00
					 5.02136000E-01	-4.32885000E-01	-7.48646000E-01
					-2.71275000E-03	 7.52310000E-02	-9.97162000E-01
					 3.82423000E-01	-5.59757000E-01	-7.35136000E-01
					 5.03487000E-01	-5.68282000E-01	 6.50812000E-01
					 1.03939000E-02	-8.44375000E-02	 9.96375000E-01
					 7.06976000E-01	-7.02847000E-01	-7.86835000E-02
					 0.00000000E+00	 0.00000000E+00	 0.00000000E+00
					 1.01319000E-02	-6.04394000E-02	 9.98120000E-01
					 0.00000000E+00	 0.00000000E+00	 0.00000000E+00
					 4.96348000E-01	-4.26281000E-01	-7.56256000E-01
					-1.02918000E-02	 8.44383000E-02	-9.96376000E-01
					 3.78609000E-01	-5.53547000E-01	-7.41782000E-01
					 6.81872000E-02	-6.95408000E-01	 7.15373000E-01
					 8.17979000E-03	-9.23652000E-02	 9.95692000E-01
					 1.04561000E-01	-9.86893000E-01	-1.22923000E-01
					 0.00000000E+00	 0.00000000E+00	 0.00000000E+00
					 7.32240000E-03	-6.80171000E-02	 9.97657000E-01
					 0.00000000E+00	 0.00000000E+00	 0.00000000E+00
					 6.02577000E-02	-5.17434000E-01	-8.53599000E-01
					-8.09902000E-03	 9.23657000E-02	-9.95692000E-01
					 3.00188000E-01	-5.87811000E-01	-7.51243000E-01
					 0.00000000E+00	 0.00000000E+00	 0.00000000E+00
					 0.00000000E+00	 0.00000000E+00	 0.00000000E+00
					 1.00000000E+00	 0.00000000E+00	 0.00000000E+00
					 7.07107000E-01	 4.31708000E-02	-7.05788000E-01
					 0.00000000E+00	 0.00000000E+00	 0.00000000E+00
					 0.00000000E+00	 0.00000000E+00	 0.00000000E+00
					 0.00000000E+00	 0.00000000E+00	 0.00000000E+00
					 0.00000000E+00	 6.10527000E-02	-9.98135000E-01
					 1.00000000E+00	 0.00000000E+00	 0.00000000E+00
					 7.07114000E-01	 3.85457000E-02	-7.06048000E-01
					 0.00000000E+00	 0.00000000E+00	 0.00000000E+00
					 0.00000000E+00	 5.45124000E-02	-9.98513000E-01
					 0.00000000E+00	 0.00000000E+00	 0.00000000E+00
					 0.00000000E+00	 0.00000000E+00	 0.00000000E+00
					 0.00000000E+00	 0.00000000E+00	 0.00000000E+00
					 0.00000000E+00	 6.10527000E-02	-9.98135000E-01
					 0.00000000E+00	 0.00000000E+00	 0.00000000E+00
					 0.00000000E+00	 5.45124000E-02	-9.98513000E-01
					 0.00000000E+00	 0.00000000E+00	 0.00000000E+00
					 0.00000000E+00	 0.00000000E+00	 0.00000000E+00
					 0.00000000E+00	 0.00000000E+00	 0.00000000E+00
					 0.00000000E+00	 6.10527000E-02	-9.98135000E-01
					 0.00000000E+00	 0.00000000E+00	 0.00000000E+00
					 0.00000000E+00	 5.45124000E-02	-9.98513000E-01
					 0.00000000E+00	 0.00000000E+00	 0.00000000E+00
					 0.00000000E+00	 0.00000000E+00	 0.00000000E+00
					 0.00000000E+00	 0.00000000E+00	 0.00000000E+00
					 0.00000000E+00	 6.10527000E-02	-9.98135000E-01
					 0.00000000E+00	 0.00000000E+00	 0.00000000E+00
					 0.00000000E+00	 5.45124000E-02	-9.98513000E-01
					 0.00000000E+00	 0.00000000E+00	 0.00000000E+00
					 1.00000000E+00	 0.00000000E+00	 0.00000000E+00
					 0.00000000E+00	 0.00000000E+00	 0.00000000E+00
					 0.00000000E+00	 0.00000000E+00	 0.00000000E+00
					 1.00000000E+00	 0.00000000E+00	 0.00000000E+00
					 0.00000000E+00	 0.00000000E+00	 0.00000000E+00
					 0.00000000E+00	 0.00000000E+00	 0.00000000E+00
					 0.00000000E+00	 0.00000000E+00	 0.00000000E+00
					 0.00000000E+00	 0.00000000E+00	 0.00000000E+00
					 0.00000000E+00	 0.00000000E+00	 0.00000000E+00
					 0.00000000E+00	 0.00000000E+00	 0.00000000E+00
					 0.00000000E+00	 0.00000000E+00	 0.00000000E+00
					 0.00000000E+00	 0.00000000E+00	 0.00000000E+00
					 0.00000000E+00	 0.00000000E+00	 0.00000000E+00
					 0.00000000E+00	 0.00000000E+00	 0.00000000E+00
					 0.00000000E+00	 0.00000000E+00	 0.00000000E+00
					 1.00000000E+00	 0.00000000E+00	 0.00000000E+00
					 0.00000000E+00	 0.00000000E+00	 0.00000000E+00
					 0.00000000E+00	 0.00000000E+00	 0.00000000E+00
					 1.00000000E+00	 0.00000000E+00	 0.00000000E+00
					 0.00000000E+00	 0.00000000E+00	 0.00000000E+00
					 0.00000000E+00	 0.00000000E+00	 0.00000000E+00
					 0.00000000E+00	 0.00000000E+00	 0.00000000E+00
					 0.00000000E+00	 0.00000000E+00	 0.00000000E+00
					 0.00000000E+00	 0.00000000E+00	 0.00000000E+00
					 0.00000000E+00	 0.00000000E+00	 0.00000000E+00
					 0.00000000E+00	 0.00000000E+00	 0.00000000E+00
					 0.00000000E+00	 0.00000000E+00	 0.00000000E+00
					 0.00000000E+00	 0.00000000E+00	 0.00000000E+00
					 0.00000000E+00	 0.00000000E+00	 0.00000000E+00
					 0.00000000E+00	 0.00000000E+00	 0.00000000E+00
					 7.06029000E-01	-4.32329000E-02	 7.06862000E-01
					 0.00000000E+00	 0.00000000E+00	 0.00000000E+00
					-2.28479000E-03	-6.54019000E-02	 9.97856000E-01
					 9.10289000E-01	-3.00262000E-01	 2.84987000E-01
					 1.19181000E-01	-7.25596000E-01	 6.77721000E-01
					 0.00000000E+00	 0.00000000E+00	 0.00000000E+00
					-1.52331000E-03	-6.97553000E-02	 9.97563000E-01
					 1.20171000E-01	-7.30915000E-01	 6.71806000E-01
					 0.00000000E+00	 0.00000000E+00	 0.00000000E+00
					-7.61805000E-04	-7.41073000E-02	 9.97250000E-01
					 1.21153000E-01	-7.36187000E-01	 6.65846000E-01
					 0.00000000E+00	 0.00000000E+00	 0.00000000E+00
					-5.71203000E-04	-7.84578000E-02	 9.96917000E-01
					 9.15771000E-02	-7.45673000E-01	 6.59989000E-01
					-5.26192000E-03	-3.33770000E-02	 9.99429000E-01
					 7.03376000E-01	-1.79894000E-02	 7.10590000E-01
					 0.00000000E+00	 0.00000000E+00	 0.00000000E+00
					 1.00000000E+00	 0.00000000E+00	 0.00000000E+00
					-8.46385000E-03	-2.49789000E-02	 9.99652000E-01
					 7.02573000E-01	-1.30419000E-02	 7.11492000E-01
					 0.00000000E+00	 0.00000000E+00	 0.00000000E+00
					 1.00000000E+00	 0.00000000E+00	 0.00000000E+00
					 0.00000000E+00	 0.00000000E+00	 0.00000000E+00
					 1.00000000E+00	 0.00000000E+00	 0.00000000E+00
					-3.76222000E-01	 6.09540000E-01	-6.97796000E-01
					 8.83910000E-01	 3.04875000E-01	-3.54619000E-01
					 3.77518000E-06	-4.14457000E-02	 9.99141000E-01
					 0.00000000E+00	 0.00000000E+00	 0.00000000E+00
					-3.55487000E-03	-3.25040000E-02	 9.99465000E-01
					 0.00000000E+00	 0.00000000E+00	 0.00000000E+00
					 0.00000000E+00	 0.00000000E+00	 0.00000000E+00
					-3.79764000E-01	 6.14780000E-01	-6.91249000E-01
					 5.26947000E-03	-4.95106000E-02	 9.98760000E-01
					 0.00000000E+00	 0.00000000E+00	 0.00000000E+00
					 2.26544000E-03	-4.14222000E-02	 9.99139000E-01
					 0.00000000E+00	 0.00000000E+00	 0.00000000E+00
					 0.00000000E+00	 0.00000000E+00	 0.00000000E+00
					-3.83912000E-01	 6.20913000E-01	-6.83432000E-01
					 3.88026000E-03	-5.75722000E-02	 9.98334000E-01
					 0.00000000E+00	 0.00000000E+00	 0.00000000E+00
					 3.23242000E-03	-5.27760000E-02	 9.98601000E-01
					 0.00000000E+00	 0.00000000E+00	 0.00000000E+00
					 0.00000000E+00	 0.00000000E+00	 0.00000000E+00
					-3.06211000E-01	 6.71060000E-01	-6.75213000E-01
					 7.83276000E-01	-6.21666000E-01	-3.26316000E-03
					 1.00000000E+00	 0.00000000E+00	 0.00000000E+00
					 1.00000000E+00	 0.00000000E+00	 0.00000000E+00
					 2.27155000E-01	-9.73718000E-01	-1.65753000E-02
					 0.00000000E+00	 0.00000000E+00	 0.00000000E+00
					 0.00000000E+00	 0.00000000E+00	 0.00000000E+00
					 6.21609000E-01	 7.83298000E-01	 6.83751000E-03
					 8.97095000E-01	 3.04495000E-01	 3.20162000E-01
					-2.27272000E-01	 9.73626000E-01	 1.99682000E-02
					-1.23747000E-01	 6.78069000E-01	 7.24506000E-01
					 2.27238000E-01	-9.73436000E-01	-2.80419000E-02
					 0.00000000E+00	 0.00000000E+00	 0.00000000E+00
					 0.00000000E+00	 0.00000000E+00	 0.00000000E+00
					-2.27311000E-01	 9.73315000E-01	 3.14370000E-02
					-1.22786000E-01	 6.72317000E-01	 7.30009000E-01
					 2.27291000E-01	-9.73025000E-01	-3.95071000E-02
					 0.00000000E+00	 0.00000000E+00	 0.00000000E+00
					 0.00000000E+00	 0.00000000E+00	 0.00000000E+00
					-2.27320000E-01	 9.72875000E-01	 4.29026000E-02
					-1.21817000E-01	 6.66522000E-01	 7.35465000E-01
					 1.72415000E-01	-9.83674000E-01	-5.15528000E-02
					 0.00000000E+00	 0.00000000E+00	 0.00000000E+00
					 0.00000000E+00	 0.00000000E+00	 0.00000000E+00
					-1.72419000E-01	 9.83488000E-01	 5.49854000E-02
					-9.14095000E-02	 6.64836000E-01	 7.41375000E-01
					 8.00093000E-01	-5.99868000E-01	-3.14874000E-03
					 1.00000000E+00	 0.00000000E+00	 0.00000000E+00
					 2.80422000E-01	-9.59738000E-01	-1.63373000E-02
					 0.00000000E+00	 0.00000000E+00	 0.00000000E+00
					 5.99809000E-01	 8.00113000E-01	 6.98429000E-03
					-2.80538000E-01	 9.59641000E-01	 1.96813000E-02
					 2.80511000E-01	-9.59453000E-01	-2.76390000E-02
					 0.00000000E+00	 0.00000000E+00	 0.00000000E+00
					-2.80581000E-01	 9.59330000E-01	 3.09853000E-02
					 2.80564000E-01	-9.59045000E-01	-3.89395000E-02
					 0.00000000E+00	 0.00000000E+00	 0.00000000E+00
					-2.80588000E-01	 9.58896000E-01	 4.22862000E-02
					 2.14154000E-01	-9.75461000E-01	-5.11224000E-02
					 0.00000000E+00	 0.00000000E+00	 0.00000000E+00
					-2.14154000E-01	 9.75277000E-01	 5.45264000E-02
					 8.15808000E-01	-5.78315000E-01	-3.03561000E-03
					 1.00000000E+00	 0.00000000E+00	 0.00000000E+00
					 3.31221000E-01	-9.43417000E-01	-1.60595000E-02
					 0.00000000E+00	 0.00000000E+00	 0.00000000E+00
					 5.78253000E-01	 8.15826000E-01	 7.12146000E-03
					-3.31333000E-01	 9.43315000E-01	 1.93465000E-02
					 3.31315000E-01	-9.43129000E-01	-2.71688000E-02
					 0.00000000E+00	 0.00000000E+00	 0.00000000E+00
					-3.31380000E-01	 9.43006000E-01	 3.04581000E-02
					 3.31368000E-01	-9.42725000E-01	-3.82768000E-02
					 0.00000000E+00	 0.00000000E+00	 0.00000000E+00
					-3.31385000E-01	 9.42580000E-01	 4.15666000E-02
					 2.54546000E-01	-9.65735000E-01	-5.06127000E-02
					 0.00000000E+00	 0.00000000E+00	 0.00000000E+00
					-2.54544000E-01	 9.65553000E-01	 5.39827000E-02
					 8.30407000E-01	-5.57149000E-01	-2.92451000E-03
					 1.00000000E+00	 0.00000000E+00	 0.00000000E+00
					 3.79295000E-01	-9.25142000E-01	-1.57484000E-02
					 0.00000000E+00	 0.00000000E+00	 0.00000000E+00
					 5.57086000E-01	 8.30423000E-01	 7.24888000E-03
					-3.79404000E-01	 9.25036000E-01	 1.89716000E-02
					 3.79393000E-01	-9.24852000E-01	-2.66423000E-02
					 0.00000000E+00	 0.00000000E+00	 0.00000000E+00
					-3.79453000E-01	 9.24729000E-01	 2.98677000E-02
					 3.79445000E-01	-9.24453000E-01	-3.75349000E-02
					 0.00000000E+00	 0.00000000E+00	 0.00000000E+00
					-3.79457000E-01	 9.24311000E-01	 4.07610000E-02
					 2.93430000E-01	-9.54671000E-01	-5.00328000E-02
					 0.00000000E+00	 0.00000000E+00	 0.00000000E+00
					-2.93425000E-01	 9.54492000E-01	 5.33643000E-02
					 8.43901000E-01	-5.36492000E-01	-2.81608000E-03
					 1.00000000E+00	 0.00000000E+00	 0.00000000E+00
					 4.24484000E-01	-9.05304000E-01	-1.54107000E-02
					 0.00000000E+00	 0.00000000E+00	 0.00000000E+00
					 5.36428000E-01	 8.43914000E-01	 7.36664000E-03
					-4.24590000E-01	 9.05196000E-01	 1.85647000E-02
					 4.24584000E-01	-9.05013000E-01	-2.60708000E-02
					 0.00000000E+00	 0.00000000E+00	 0.00000000E+00
					-4.24640000E-01	 9.04890000E-01	 2.92270000E-02
					 4.24635000E-01	-9.04619000E-01	-3.67297000E-02
					 0.00000000E+00	 0.00000000E+00	 0.00000000E+00
					-4.24643000E-01	 9.04482000E-01	 3.98865000E-02
					 3.30682000E-01	-9.42449000E-01	-4.93923000E-02
					 0.00000000E+00	 0.00000000E+00	 0.00000000E+00
					-3.30675000E-01	 9.42273000E-01	 5.26812000E-02
					 8.56318000E-01	-5.16442000E-01	-2.71084000E-03
					 1.00000000E+00	 0.00000000E+00	 0.00000000E+00
					 4.66711000E-01	-8.84282000E-01	-1.50528000E-02
					 0.00000000E+00	 0.00000000E+00	 0.00000000E+00
					 5.16377000E-01	 8.56329000E-01	 7.47501000E-03
					-4.66812000E-01	 8.84171000E-01	 1.81335000E-02
					 4.66812000E-01	-8.83990000E-01	-2.54652000E-02
					 0.00000000E+00	 0.00000000E+00	 0.00000000E+00
					-4.66864000E-01	 8.83868000E-01	 2.85480000E-02
					 4.66862000E-01	-8.83602000E-01	-3.58763000E-02
					 0.00000000E+00	 0.00000000E+00	 0.00000000E+00
					-4.66865000E-01	 8.83470000E-01	 3.89599000E-02
					 3.66225000E-01	-9.29251000E-01	-4.87006000E-02
					 0.00000000E+00	 0.00000000E+00	 0.00000000E+00
					-3.66217000E-01	 9.29079000E-01	 5.19435000E-02
					 8.67704000E-01	-4.97075000E-01	-2.60917000E-03
					 1.00000000E+00	 0.00000000E+00	 0.00000000E+00
					 5.05972000E-01	-8.62425000E-01	-1.46808000E-02
					 0.00000000E+00	 0.00000000E+00	 0.00000000E+00
					 4.97009000E-01	 8.67712000E-01	 7.57438000E-03
					-5.06068000E-01	 8.62312000E-01	 1.76852000E-02
					 5.06073000E-01	-8.62133000E-01	-2.48356000E-02
					 0.00000000E+00	 0.00000000E+00	 0.00000000E+00
					-5.06120000E-01	 8.62013000E-01	 2.78421000E-02
					 5.06121000E-01	-8.61753000E-01	-3.49892000E-02
					 0.00000000E+00	 0.00000000E+00	 0.00000000E+00
					-5.06120000E-01	 8.61626000E-01	 3.79966000E-02
					 4.00017000E-01	-9.15252000E-01	-4.79669000E-02
					 0.00000000E+00	 0.00000000E+00	 0.00000000E+00
					-4.00007000E-01	 9.15083000E-01	 5.11610000E-02
					 1.00000000E+00	 0.00000000E+00	 0.00000000E+00
					 7.07110000E-01	 3.08374000E-02	-7.06431000E-01
					 0.00000000E+00	 0.00000000E+00	 0.00000000E+00
					 0.00000000E+00	 4.36109000E-02	-9.99049000E-01
					 1.00000000E+00	 0.00000000E+00	 0.00000000E+00
					 7.07114000E-01	 2.31326000E-02	-7.06721000E-01
					 0.00000000E+00	 0.00000000E+00	 0.00000000E+00
					 0.00000000E+00	 3.27147000E-02	-9.99465000E-01
					 0.00000000E+00	 0.00000000E+00	 0.00000000E+00
					 0.00000000E+00	 4.36109000E-02	-9.99049000E-01
					 0.00000000E+00	 0.00000000E+00	 0.00000000E+00
					 0.00000000E+00	 3.27147000E-02	-9.99465000E-01
					 0.00000000E+00	 0.00000000E+00	 0.00000000E+00
					 0.00000000E+00	 4.36109000E-02	-9.99049000E-01
					 0.00000000E+00	 0.00000000E+00	 0.00000000E+00
					 0.00000000E+00	 3.27147000E-02	-9.99465000E-01
					 0.00000000E+00	 0.00000000E+00	 0.00000000E+00
					 0.00000000E+00	 4.36109000E-02	-9.99049000E-01
					 0.00000000E+00	 0.00000000E+00	 0.00000000E+00
					 0.00000000E+00	 3.27147000E-02	-9.99465000E-01
					 1.00000000E+00	 0.00000000E+00	 0.00000000E+00
					 0.00000000E+00	 0.00000000E+00	 0.00000000E+00
					 1.00000000E+00	 0.00000000E+00	 0.00000000E+00
					 0.00000000E+00	 0.00000000E+00	 0.00000000E+00
					 0.00000000E+00	 0.00000000E+00	 0.00000000E+00
					 0.00000000E+00	 0.00000000E+00	 0.00000000E+00
					 0.00000000E+00	 0.00000000E+00	 0.00000000E+00
					 0.00000000E+00	 0.00000000E+00	 0.00000000E+00
					 0.00000000E+00	 0.00000000E+00	 0.00000000E+00
					 0.00000000E+00	 0.00000000E+00	 0.00000000E+00
					 1.00000000E+00	 0.00000000E+00	 0.00000000E+00
					 0.00000000E+00	 0.00000000E+00	 0.00000000E+00
					 1.00000000E+00	 0.00000000E+00	 0.00000000E+00
					 0.00000000E+00	 0.00000000E+00	 0.00000000E+00
					 0.00000000E+00	 0.00000000E+00	 0.00000000E+00
					 0.00000000E+00	 0.00000000E+00	 0.00000000E+00
					 0.00000000E+00	 0.00000000E+00	 0.00000000E+00
					 0.00000000E+00	 0.00000000E+00	 0.00000000E+00
					 0.00000000E+00	 0.00000000E+00	 0.00000000E+00
					 0.00000000E+00	 0.00000000E+00	 0.00000000E+00
					-1.21337000E-02	-1.02221000E-02	 9.99874000E-01
					 7.01099000E-01	-3.11261000E-03	 7.13057000E-01
					 0.00000000E+00	 0.00000000E+00	 0.00000000E+00
					 1.00000000E+00	 0.00000000E+00	 0.00000000E+00
					-5.06766000E-01	 4.96132000E-01	 7.05012000E-01
					 2.20219000E-01	 5.68175000E-01	 7.92894000E-01
					-7.06976000E-01	 7.07237000E-01	-4.64232000E-04
					 3.82822000E-01	 9.23743000E-01	-1.20928000E-02
					 1.20145000E-02	 1.02212000E-02	-9.99876000E-01
					 7.13050000E-01	 3.05990000E-03	-7.01107000E-01
					-4.93050000E-01	 5.04049000E-01	-7.09110000E-01
					 2.44925000E-01	 5.55073000E-01	-7.94925000E-01
					-5.66291000E-03	-1.80339000E-02	 9.99821000E-01
					 0.00000000E+00	 0.00000000E+00	 0.00000000E+00
					-5.01528000E-01	 4.90832000E-01	 7.12428000E-01
					-7.07004000E-01	 7.07161000E-01	 8.33173000E-03
					 5.60791000E-03	 1.80328000E-02	-9.99822000E-01
					-4.98320000E-01	 5.09259000E-01	-7.01664000E-01
					 3.39888000E-03	-2.89694000E-02	 9.99575000E-01
					 0.00000000E+00	 0.00000000E+00	 0.00000000E+00
					-4.94993000E-01	 4.84220000E-01	 7.21465000E-01
					-7.06976000E-01	 7.07030000E-01	 1.71270000E-02
					-3.36392000E-03	 2.89680000E-02	-9.99575000E-01
					-5.04737000E-01	 5.15602000E-01	-6.92384000E-01
					 8.18183000E-03	-4.53619000E-02	 9.98937000E-01
					 0.00000000E+00	 0.00000000E+00	 0.00000000E+00
					-5.80009000E-02	 5.78364000E-01	 8.13714000E-01
					-1.04561000E-01	 9.93851000E-01	 3.64441000E-02
					-8.10008000E-03	 4.53600000E-02	-9.98938000E-01
					-7.02584000E-02	 6.41523000E-01	-7.63879000E-01
					 1.00000000E+00	 0.00000000E+00	 0.00000000E+00
					 7.07107000E-01	 1.85099000E-02	-7.06864000E-01
					 0.00000000E+00	 0.00000000E+00	 0.00000000E+00
					 0.00000000E+00	 2.61769000E-02	-9.99657000E-01
					 6.91524000E-01	 7.22354000E-01	 0.00000000E+00
					 5.75678000E-01	 5.80702000E-01	-5.75656000E-01
					-4.35911000E-02	 9.98990000E-01	 1.08978000E-02
					 0.00000000E+00	 7.14015000E-01	-7.00131000E-01
					 0.00000000E+00	 0.00000000E+00	 0.00000000E+00
					 0.00000000E+00	 2.61769000E-02	-9.99657000E-01
					-4.35875000E-02	 9.98812000E-01	 2.17937000E-02
					 0.00000000E+00	 7.17822000E-01	-6.96226000E-01
					 0.00000000E+00	 0.00000000E+00	 0.00000000E+00
					 0.00000000E+00	 2.61769000E-02	-9.99657000E-01
					-4.35787000E-02	 9.98515000E-01	 3.26840000E-02
					 0.00000000E+00	 7.21608000E-01	-6.92302000E-01
					 0.00000000E+00	 0.00000000E+00	 0.00000000E+00
					 0.00000000E+00	 2.61769000E-02	-9.99657000E-01
					-6.00003000E-01	 0.00000000E+00	 7.99998000E-01
					 0.00000000E+00	 7.25370000E-01	-6.88359000E-01
					 1.00000000E+00	 0.00000000E+00	 0.00000000E+00
					 0.00000000E+00	 0.00000000E+00	 0.00000000E+00
					 6.75673000E-01	 7.37201000E-01	 0.00000000E+00
					-8.69347000E-02	 9.96155000E-01	 1.08668000E-02
					 0.00000000E+00	 0.00000000E+00	 0.00000000E+00
					-8.69275000E-02	 9.95978000E-01	 2.17319000E-02
					 0.00000000E+00	 0.00000000E+00	 0.00000000E+00
					-8.69101000E-02	 9.95683000E-01	 3.25913000E-02
					 0.00000000E+00	 0.00000000E+00	 0.00000000E+00
					-8.31961000E-01	 0.00000000E+00	 5.54834000E-01
					 1.00000000E+00	 0.00000000E+00	 0.00000000E+00
					 0.00000000E+00	 0.00000000E+00	 0.00000000E+00
					 6.59626000E-01	 7.51594000E-01	 0.00000000E+00
					-1.29790000E-01	 9.91482000E-01	 1.08159000E-02
					 0.00000000E+00	 0.00000000E+00	 0.00000000E+00
					-1.29780000E-01	 9.91307000E-01	 2.16300000E-02
					 0.00000000E+00	 0.00000000E+00	 0.00000000E+00
					-1.29754000E-01	 9.91015000E-01	 3.24385000E-02
					 0.00000000E+00	 0.00000000E+00	 0.00000000E+00