# vtk DataFile Version 3.0

ASCII
DATASET UNSTRUCTURED_GRID

POINTS 12 double
	 1.00000000E+02	 0.00000000E+00	 0.00000000E+00
	 0.00000000E+00	 0.00000000E+00	 0.00000000E+00
	 0.00000000E+00	 1.00000000E+02	 0.00000000E+00
	 1.00000000E+02	 1.00000000E+02	 0.00000000E+00
	 2.00000000E+02	 1.00000000E+02	 0.00000000E+00
	 2.00000000E+02	 0.00000000E+00	 0.00000000E+00
	 1.00000000E+02	 0.00000000E+00	-1.00000000E+02
	 1.00000000E+02	 1.00000000E+02	-1.00000000E+02
	 0.00000000E+00	 1.00000000E+02	-1.00000000E+02
	 0.00000000E+00	 0.00000000E+00	-1.00000000E+02
	 2.00000000E+02	 0.00000000E+00	-1.00000000E+02
	 2.00000000E+02	 1.00000000E+02	-1.00000000E+02

CELLS 2 18
	8 5 0 3 4 10 6 7 11 
	8 0 1 2 3 6 9 8 7 

CELL_TYPES 2
	12
	12

POINT_DATA 12
FIELD U 1
	U 3 12 double
		-3.31059000E+00	-4.47591000E-01	 5.83696000E+00
		 0.00000000E+00	 0.00000000E+00	 0.00000000E+00
		 0.00000000E+00	 0.00000000E+00	 0.00000000E+00
		-3.31059000E+00	 4.47591000E-01	 5.83696000E+00
		-4.24149000E+00	 1.18824000E-02	 1.46019000E+01
		-4.24149000E+00	-1.18824000E-02	 1.46019000E+01
		 3.31059000E+00	 4.47591000E-01	 5.83696000E+00
		 3.31059000E+00	-4.47591000E-01	 5.83696000E+00
		 0.00000000E+00	 0.00000000E+00	 0.00000000E+00
		 0.00000000E+00	 0.00000000E+00	 0.00000000E+00
		 4.24149000E+00	 1.18824000E-02	 1.46019000E+01
		 4.24149000E+00	-1.18824000E-02	 1.46019000E+01
FIELD DOR1 1
	DOR1 3 12 double
		 1.69214000E+00	 2.97272000E+00	-2.78964000E-01
		 0.00000000E+00	 0.00000000E+00	 0.00000000E+00
		 0.00000000E+00	 0.00000000E+00	 0.00000000E+00
		-1.69214000E+00	 2.97272000E+00	 2.78964000E-01
		-2.18003000E+00	 7.46010000E+00	 1.57569000E-02
		 2.18003000E+00	 7.46010000E+00	-1.57569000E-02
		 1.69214000E+00	 2.97272000E+00	 2.78964000E-01
		-1.69214000E+00	 2.97272000E+00	-2.78964000E-01
		 0.00000000E+00	 0.00000000E+00	 0.00000000E+00
		 0.00000000E+00	 0.00000000E+00	 0.00000000E+00
		 2.18003000E+00	 7.46010000E+00	 1.57569000E-02
		-2.18003000E+00	 7.46010000E+00	-1.57569000E-02
FIELD DOR1 1
	DOR1 3 12 double
		 2.09887000E-02	 2.62772000E-03	-4.38617000E-03
		 0.00000000E+00	 0.00000000E+00	 0.00000000E+00
		 0.00000000E+00	 0.00000000E+00	 0.00000000E+00
		 2.09887000E-02	-2.62772000E-03	-4.38617000E-03
		 3.18463000E-02	-6.54505000E-04	-1.63085000E-03
		 3.18463000E-02	 6.54513000E-04	-1.63085000E-03
		 2.09887000E-02	 2.62772000E-03	 4.38617000E-03
		 2.09887000E-02	-2.62772000E-03	 4.38617000E-03
		 0.00000000E+00	 0.00000000E+00	 0.00000000E+00
		 0.00000000E+00	 0.00000000E+00	 0.00000000E+00
		 3.18463000E-02	 6.54513000E-04	 1.63085000E-03
		 3.18463000E-02	-6.54505000E-04	 1.63085000E-03
FIELD DOR1 1
	DOR1 3 12 double
		 8.91019000E-10	 1.64242000E-01	 1.64242000E-01
		 0.00000000E+00	 0.00000000E+00	 0.00000000E+00
		 0.00000000E+00	 0.00000000E+00	 0.00000000E+00
		-8.90111000E-10	 1.64242000E-01	-1.64242000E-01
		-1.14665000E-09	 2.32273000E-01	-2.32273000E-01
		 1.14803000E-09	 2.32273000E-01	 2.32273000E-01
		 8.91019000E-10	-1.64242000E-01	 1.64242000E-01
		-8.90111000E-10	-1.64242000E-01	-1.64242000E-01
		 0.00000000E+00	 0.00000000E+00	 0.00000000E+00
		 0.00000000E+00	 0.00000000E+00	 0.00000000E+00
		 1.14803000E-09	-2.32273000E-01	 2.32273000E-01
		-1.14665000E-09	-2.32273000E-01	-2.32273000E-01
