<?xml version="1.0"?>
<VTKFile type="UnstructuredGrid" version="0.1" byte_order="LittleEndian">
	<UnstructuredGrid>
		<Piece NumberOfPoints="12" NumberOfCells="2">
			<Points>
				<DataArray type="Float64" NumberOfComponents="3" format="ascii">
					 1.00000000E+02	 0.00000000E+00	 0.00000000E+00
					 0.00000000E+00	 0.00000000E+00	 0.00000000E+00
					 0.00000000E+00	 1.00000000E+02	 0.00000000E+00
					 1.00000000E+02	 1.00000000E+02	 0.00000000E+00
					 2.00000000E+02	 1.00000000E+02	 0.00000000E+00
					 2.00000000E+02	 0.00000000E+00	 0.00000000E+00
					 1.00000000E+02	 0.00000000E+00	-1.00000000E+02
					 1.00000000E+02	 1.00000000E+02	-1.00000000E+02
					 0.00000000E+00	 1.00000000E+02	-1.00000000E+02
					 0.00000000E+00	 0.00000000E+00	-1.00000000E+02
					 2.00000000E+02	 0.00000000E+00	-1.00000000E+02
					 2.00000000E+02	 1.00000000E+02	-1.00000000E+02
				</DataArray>
			</Points>
			<Cells>
				<DataArray type="Int32" Name="connectivity" format="ascii">
					5 0 3 4 10 6 7 11 0 1 2 3 6 9 8 7 
				</DataArray>
				<DataArray type="Int32" Name="offsets" format="ascii">
					8 16 
				</DataArray>
				<DataArray type="UInt8" Name="types" format="ascii">
					12 12 
				</DataArray>
			</Cells>
			<PointData>
				<DataArray type="Float32" Name="U" NumberOfComponents="3" ComponentName0="D1" ComponentName1="D2" ComponentName2="D3" format="ascii">
					-3.31059000E+00	-4.47591000E-01	 5.83696000E+00
					 0.00000000E+00	 0.00000000E+00	 0.00000000E+00
					 0.00000000E+00	 0.00000000E+00	 0.00000000E+00
					-3.31059000E+00	 4.47591000E-01	 5.83696000E+00
					-4.24149000E+00	 1.18824000E-02	 1.46019000E+01
					-4.24149000E+00	-1.18824000E-02	 1.46019000E+01
					 3.31059000E+00	 4.47591000E-01	 5.83696000E+00
					 3.31059000E+00	-4.47591000E-01	 5.83696000E+00
					 0.00000000E+00	 0.00000000E+00	 0.00000000E+00
					 0.00000000E+00	 0.00000000E+00	 0.00000000E+00
					 4.24149000E+00	 1.18824000E-02	 1.46019000E+01
					 4.24149000E+00	-1.18824000E-02	 1.46019000E+01
				</DataArray>
				<DataArray type="Float32" Name="DOR1" NumberOfComponents="3" ComponentName0="dD1dRx" ComponentName1="dD2dRx" ComponentName2="dD3dRx" format="ascii">
					 1.69214000E+00	 2.97272000E+00	-2.78964000E-01
					 0.00000000E+00	 0.00000000E+00	 0.00000000E+00
					 0.00000000E+00	 0.00000000E+00	 0.00000000E+00
					-1.69214000E+00	 2.97272000E+00	 2.78964000E-01
					-2.18003000E+00	 7.46010000E+00	 1.57569000E-02
					 2.18003000E+00	 7.46010000E+00	-1.57569000E-02
					 1.69214000E+00	 2.97272000E+00	 2.78964000E-01
					-1.69214000E+00	 2.97272000E+00	-2.78964000E-01
					 0.00000000E+00	 0.00000000E+00	 0.00000000E+00
					 0.00000000E+00	 0.00000000E+00	 0.00000000E+00
					 2.18003000E+00	 7.46010000E+00	 1.57569000E-02
					-2.18003000E+00	 7.46010000E+00	-1.57569000E-02
				</DataArray>
				<DataArray type="Float32" Name="DOR1" NumberOfComponents="3" ComponentName0="dD1dRy" ComponentName1="dD2dRy" ComponentName2="dD3dRy" format="ascii">
					 2.09887000E-02	 2.62772000E-03	-4.38617000E-03
					 0.00000000E+00	 0.00000000E+00	 0.00000000E+00
					 0.00000000E+00	 0.00000000E+00	 0.00000000E+00
					 2.09887000E-02	-2.62772000E-03	-4.38617000E-03
					 3.18463000E-02	-6.54505000E-04	-1.63085000E-03
					 3.18463000E-02	 6.54513000E-04	-1.63085000E-03
					 2.09887000E-02	 2.62772000E-03	 4.38617000E-03
					 2.09887000E-02	-2.62772000E-03	 4.38617000E-03
					 0.00000000E+00	 0.00000000E+00	 0.00000000E+00
					 0.00000000E+00	 0.00000000E+00	 0.00000000E+00
					 3.18463000E-02	 6.54513000E-04	 1.63085000E-03
					 3.18463000E-02	-6.54505000E-04	 1.63085000E-03
				</DataArray>
				<DataArray type="Float32" Name="DOR1" NumberOfComponents="3" ComponentName0="dD1dRz" ComponentName1="dD2dRz" ComponentName2="dD3dRz" format="ascii">
					 8.91019000E-10	 1.64242000E-01	 1.64242000E-01
					 0.00000000E+00	 0.00000000E+00	 0.00000000E+00
					 0.00000000E+00	 0.00000000E+00	 0.00000000E+00
					-8.90111000E-10	 1.64242000E-01	-1.64242000E-01
					-1.14665000E-09	 2.32273000E-01	-2.32273000E-01
					 1.14803000E-09	 2.32273000E-01	 2.32273000E-01
					 8.91019000E-10	-1.64242000E-01	 1.64242000E-01
					-8.90111000E-10	-1.64242000E-01	-1.64242000E-01
					 0.00000000E+00	 0.00000000E+00	 0.00000000E+00
					 0.00000000E+00	 0.00000000E+00	 0.00000000E+00
					 1.14803000E-09	-2.32273000E-01	 2.32273000E-01
					-1.14665000E-09	-2.32273000E-01	-2.32273000E-01
				</DataArray>
			</PointData>
		</Piece>
	</UnstructuredGrid>
</VTKFile>