<?xml version="1.0"?>
<VTKFile type="UnstructuredGrid" version="0.1" byte_order="LittleEndian">
	<UnstructuredGrid>
		<Piece NumberOfPoints="12" NumberOfCells="2">
			<Points>
				<DataArray type="Float64" NumberOfComponents="3" format="ascii">
					 1.00000000E+02	 0.00000000E+00	 0.00000000E+00
					 0.00000000E+00	 0.00000000E+00	 0.00000000E+00
					 0.00000000E+00	 1.00000000E+02	 0.00000000E+00
					 1.00000000E+02	 1.00000000E+02	 0.00000000E+00
					 2.00000000E+02	 1.00000000E+02	 0.00000000E+00
					 2.00000000E+02	 0.00000000E+00	 0.00000000E+00
					 1.00000000E+02	 0.00000000E+00	-1.00000000E+02
					 1.00000000E+02	 1.00000000E+02	-1.00000000E+02
					 0.00000000E+00	 1.00000000E+02	-1.00000000E+02
					 0.00000000E+00	 0.00000000E+00	-1.00000000E+02
					 2.00000000E+02	 0.00000000E+00	-1.00000000E+02
					 2.00000000E+02	 1.00000000E+02	-1.00000000E+02
				</DataArray>
			</Points>
			<Cells>
				<DataArray type="Int32" Name="connectivity" format="ascii">
					5 0 3 4 10 6 7 11 0 1 2 3 6 9 8 7 
				</DataArray>
				<DataArray type="Int32" Name="offsets" format="ascii">
					8 16 
				</DataArray>
				<DataArray type="UInt8" Name="types" format="ascii">
					12 12 
				</DataArray>
			</Cells>
			<PointData>
				<DataArray type="Float32" Name="U" NumberOfComponents="3" ComponentName0="D1" ComponentName1="D2" ComponentName2="D3" format="ascii">
					-8.09586000E+00	-1.01358000E+00	 1.69186000E+00
					 0.00000000E+00	 0.00000000E+00	 0.00000000E+00
					 0.00000000E+00	 0.00000000E+00	 0.00000000E+00
					-8.09586000E+00	 1.01358000E+00	 1.69186000E+00
					-1.22839000E+01	 2.52461000E-01	 6.29061000E-01
					-1.22839000E+01	-2.52461000E-01	 6.29061000E-01
					-8.09586000E+00	-1.01358000E+00	-1.69186000E+00
					-8.09586000E+00	 1.01358000E+00	-1.69186000E+00
					 0.00000000E+00	 0.00000000E+00	 0.00000000E+00
					 0.00000000E+00	 0.00000000E+00	 0.00000000E+00
					-1.22839000E+01	-2.52461000E-01	-6.29061000E-01
					-1.22839000E+01	 2.52461000E-01	-6.29061000E-01
				</DataArray>
				<DataArray type="Float32" Name="DOR1" NumberOfComponents="3" ComponentName0="dD1dRx" ComponentName1="dD2dRx" ComponentName2="dD3dRx" format="ascii">
					 8.67265000E-13	 3.30434000E-12	 1.64902000E-12
					 0.00000000E+00	 0.00000000E+00	 0.00000000E+00
					 0.00000000E+00	 0.00000000E+00	 0.00000000E+00
					 9.73512000E-14	 3.17392000E-12	-3.34975000E-12
					 1.21977000E-13	 5.31984000E-12	-5.74812000E-12
					 1.11388000E-12	 5.32330000E-12	 1.49353000E-12
					-9.73512000E-14	-1.95177000E-12	 1.77595000E-12
					-8.67265000E-13	-1.82135000E-12	-3.47668000E-12
					 0.00000000E+00	 0.00000000E+00	 0.00000000E+00
					 0.00000000E+00	 0.00000000E+00	 0.00000000E+00
					-1.21977000E-13	-1.92899000E-12	 1.50070000E-12
					-1.11388000E-12	-1.92553000E-12	-5.75529000E-12
				</DataArray>
				<DataArray type="Float32" Name="DOR1" NumberOfComponents="3" ComponentName0="dD1dRy" ComponentName1="dD2dRy" ComponentName2="dD3dRy" format="ascii">
					-8.58278000E-03	-1.16039000E-03	 1.51324000E-02
					 0.00000000E+00	 0.00000000E+00	 0.00000000E+00
					 0.00000000E+00	 0.00000000E+00	 0.00000000E+00
					-8.58278000E-03	 1.16039000E-03	 1.51324000E-02
					-1.09961000E-02	 3.08052000E-05	 3.78557000E-02
					-1.09961000E-02	-3.08052000E-05	 3.78557000E-02
					 8.58278000E-03	 1.16039000E-03	 1.51324000E-02
					 8.58278000E-03	-1.16039000E-03	 1.51324000E-02
					 0.00000000E+00	 0.00000000E+00	 0.00000000E+00
					 0.00000000E+00	 0.00000000E+00	 0.00000000E+00
					 1.09961000E-02	 3.08052000E-05	 3.78557000E-02
					 1.09961000E-02	-3.08052000E-05	 3.78557000E-02
				</DataArray>
				<DataArray type="Float32" Name="DOR1" NumberOfComponents="3" ComponentName0="dD1dRz" ComponentName1="dD2dRz" ComponentName2="dD3dRz" format="ascii">
					-4.23064000E-02	-7.43230000E-02	 6.97459000E-03
					 0.00000000E+00	 0.00000000E+00	 0.00000000E+00
					 0.00000000E+00	 0.00000000E+00	 0.00000000E+00
					 4.23064000E-02	-7.43230000E-02	-6.97459000E-03
					 5.45044000E-02	-1.86515000E-01	-3.93949000E-04
					-5.45044000E-02	-1.86515000E-01	 3.93949000E-04
					-4.23064000E-02	-7.43230000E-02	-6.97459000E-03
					 4.23064000E-02	-7.43230000E-02	 6.97459000E-03
					 0.00000000E+00	 0.00000000E+00	 0.00000000E+00
					 0.00000000E+00	 0.00000000E+00	 0.00000000E+00
					-5.45044000E-02	-1.86515000E-01	-3.93949000E-04
					 5.45044000E-02	-1.86515000E-01	 3.93949000E-04
				</DataArray>
			</PointData>
		</Piece>
	</UnstructuredGrid>
</VTKFile>