# vtk DataFile Version 3.0

ASCII
DATASET UNSTRUCTURED_GRID

POINTS 18 double
	-7.45058000E-09	-7.45058000E-09	-5.00000000E-03
	-7.45058000E-09	-7.45058000E-09	 5.00000000E-03
	 5.00000000E-01	-7.45058000E-09	-5.00000000E-03
	 5.00000000E-01	-7.45058000E-09	 5.00000000E-03
	 5.00000000E-01	 5.00000000E-01	-5.00000000E-03
	 5.00000000E-01	 5.00000000E-01	 5.00000000E-03
	-7.45058000E-09	 5.00000000E-01	-5.00000000E-03
	-7.45058000E-09	 5.00000000E-01	 5.00000000E-03
	 5.00000000E-01	 1.00000000E+00	-5.00000000E-03
	 5.00000000E-01	 1.00000000E+00	 5.00000000E-03
	-7.45058000E-09	 1.00000000E+00	-5.00000000E-03
	-7.45058000E-09	 1.00000000E+00	 5.00000000E-03
	 1.00000000E+00	-7.45058000E-09	-5.00000000E-03
	 1.00000000E+00	-7.45058000E-09	 5.00000000E-03
	 1.00000000E+00	 5.00000000E-01	-5.00000000E-03
	 1.00000000E+00	 5.00000000E-01	 5.00000000E-03
	 1.00000000E+00	 1.00000000E+00	-5.00000000E-03
	 1.00000000E+00	 1.00000000E+00	 5.00000000E-03

CELLS 4 36
	8 0 2 4 6 1 3 5 7 
	8 6 4 8 10 7 5 9 11 
	8 2 12 14 4 3 13 15 5 
	8 4 14 16 8 5 15 17 9 

CELL_TYPES 4
	12
	12
	12
	12

POINT_DATA 18
FIELD U 1
	U 3 18 double
		-1.62026000E-17	-1.12030000E-17	 2.41885000E-07
		 1.62026000E-17	 1.12030000E-17	-2.41885000E-07
		 8.48249000E-17	 2.43761000E-04	-4.89396000E-07
		 5.73259000E-17	 2.43761000E-04	 4.89396000E-07
		 4.61963000E-12	-1.81618000E-12	 1.37068000E-06
		 4.61960000E-12	-1.81618000E-12	-1.37068000E-06
		-6.20027000E-04	-9.33099000E-18	 2.10197000E-06
		-6.20027000E-04	-1.04562000E-17	-2.10197000E-06
		 9.10855000E-17	-2.43761000E-04	-4.89396000E-07
		 6.38751000E-17	-2.43761000E-04	 4.89396000E-07
		-1.54659000E-17	 1.01057000E-17	 2.41885000E-07
		 1.54659000E-17	-1.01057000E-17	-2.41885000E-07
		-1.12753000E-17	-1.39582000E-17	 2.41885000E-07
		 1.12753000E-17	 1.39582000E-17	-2.41885000E-07
		 6.20027000E-04	-1.27589000E-17	 2.10197000E-06
		 6.20027000E-04	-1.38909000E-17	-2.10197000E-06
		-1.17298000E-17	 1.28383000E-17	 2.41885000E-07
		 1.17298000E-17	-1.28383000E-17	-2.41885000E-07
FIELD S 1
	S 10 18 double
		-4.00249000E+00	 3.78624000E+01	-4.84842000E-12	-3.03895000E+01	-5.49942000E-12	 4.69011000E-13	 6.61187588E+01	-1.99711150E+01	-4.84842000E-12	 5.38310250E+01
		-4.00249000E+00	 3.78624000E+01	-4.58252000E-12	-3.03895000E+01	-5.47142000E-12	 3.65958000E-13	 6.61187588E+01	-1.99711150E+01	-4.58252000E-12	 5.38310250E+01
		-4.00249000E+00	-6.45164000E+01	-7.34663000E-13	 2.26429000E-07	 7.55744000E-13	 3.95809000E-13	 6.26111775E+01	-6.45164000E+01	-4.00249000E+00	-7.34663000E-13
		-4.00249000E+00	-6.45164000E+01	-8.20130000E-13	 2.26429000E-07	 6.59070000E-13	 4.17181000E-13	 6.26111775E+01	-6.45164000E+01	-4.00249000E+00	-8.20130000E-13
		 2.56407000E+02	-6.45164000E+01	 6.84847000E-14	 8.34888000E-14	 1.04506000E-14	-5.71627000E-13	 2.94022741E+02	-6.45164000E+01	 7.10542736E-14	 2.56407000E+02
		 2.56407000E+02	-6.45164000E+01	 4.73880000E-14	 1.11910000E-13	 9.78346000E-16	-6.69019000E-13	 2.94022741E+02	-6.45164000E+01	 4.26325641E-14	 2.56407000E+02
		 2.56407000E+02	 3.78624000E+01	 6.63105000E-12	 2.26416000E-07	 1.56063000E-13	 9.49644000E-13	 2.39728861E+02	 6.63105000E-12	 3.78624000E+01	 2.56407000E+02
		 2.56407000E+02	 3.78624000E+01	 6.86027000E-12	 2.26416000E-07	 1.93469000E-13	-5.06923000E-14	 2.39728861E+02	 6.86027000E-12	 3.78624000E+01	 2.56407000E+02
		-4.00249000E+00	-6.45164000E+01	 6.81577000E-13	-2.26429000E-07	-4.20707000E-15	 9.62432000E-13	 6.26111775E+01	-6.45164000E+01	-4.00249000E+00	 6.81577000E-13
		-4.00249000E+00	-6.45164000E+01	 7.28485000E-13	-2.26429000E-07	 7.35229000E-14	 8.51823000E-13	 6.26111775E+01	-6.45164000E+01	-4.00249000E+00	 7.28485000E-13
		-4.00249000E+00	 3.78624000E+01	-7.24719000E-12	 3.03895000E+01	 4.58077000E-12	-1.82800000E-12	 6.61187588E+01	-1.99711150E+01	-7.24719000E-12	 5.38310250E+01
		-4.00249000E+00	 3.78624000E+01	-6.73764000E-12	 3.03895000E+01	 4.62740000E-12	-1.15097000E-12	 6.61187588E+01	-1.99711150E+01	-6.73764000E-12	 5.38310250E+01
		-4.00249000E+00	 3.78624000E+01	 6.85638000E-12	 3.03895000E+01	 4.20815000E-12	-1.69708000E-12	 6.61187588E+01	-1.99711150E+01	 6.85638000E-12	 5.38310250E+01
		-4.00249000E+00	 3.78624000E+01	 6.49466000E-12	 3.03895000E+01	 3.92680000E-12	-1.08974000E-12	 6.61187588E+01	-1.99711150E+01	 6.49466000E-12	 5.38310250E+01
		 2.56407000E+02	 3.78624000E+01	-6.71404000E-12	-2.26416000E-07	 5.20069000E-14	 1.45559000E-12	 2.39728861E+02	-6.71404000E-12	 3.78624000E+01	 2.56407000E+02
		 2.56407000E+02	 3.78624000E+01	-6.97316000E-12	-2.26416000E-07	-6.21702000E-14	 2.51510000E-13	 2.39728861E+02	-6.97316000E-12	 3.78624000E+01	 2.56407000E+02
		-4.00249000E+00	 3.78624000E+01	 5.33455000E-12	-3.03895000E+01	-4.63004000E-12	-3.05028000E-13	 6.61187588E+01	-1.99711150E+01	 5.33455000E-12	 5.38310250E+01
		-4.00249000E+00	 3.78624000E+01	 4.95367000E-12	-3.03895000E+01	-4.57687000E-12	-5.87875000E-13	 6.61187588E+01	-1.99711150E+01	 4.95367000E-12	 5.38310250E+01
FIELD ERROR 1
	ERROR 1 18 double
		 8.09120000E+01
		 8.09120000E+01
		 8.09120000E+01
		 8.09120000E+01
		 8.09120000E+01
		 8.09120000E+01
		 8.09120000E+01
		 8.09120000E+01
		 8.09120000E+01
		 8.09120000E+01
		 8.09120000E+01
		 8.09120000E+01
		 8.09120000E+01
		 8.09120000E+01
		 8.09120000E+01
		 8.09120000E+01
		 8.09120000E+01
		 8.09120000E+01
