# vtk DataFile Version 3.0

ASCII
DATASET UNSTRUCTURED_GRID

POINTS 21 double
	-7.45058000E-09	-7.45058000E-09	 0.00000000E+00
	 5.00000000E-01	-7.45058000E-09	 0.00000000E+00
	 5.00000000E-01	 5.00000000E-01	 0.00000000E+00
	-7.45058000E-09	 5.00000000E-01	 0.00000000E+00
	 2.50000000E-01	-7.45058000E-09	 0.00000000E+00
	 5.00000000E-01	 2.50000000E-01	 0.00000000E+00
	 2.50000000E-01	 5.00000000E-01	 0.00000000E+00
	-7.45058000E-09	 2.50000000E-01	 0.00000000E+00
	 5.00000000E-01	 1.00000000E+00	 0.00000000E+00
	-7.45058000E-09	 1.00000000E+00	 0.00000000E+00
	 5.00000000E-01	 7.50000000E-01	 0.00000000E+00
	 2.50000000E-01	 1.00000000E+00	 0.00000000E+00
	-7.45058000E-09	 7.50000000E-01	 0.00000000E+00
	 1.00000000E+00	-7.45058000E-09	 0.00000000E+00
	 1.00000000E+00	 5.00000000E-01	 0.00000000E+00
	 7.50000000E-01	-7.45058000E-09	 0.00000000E+00
	 1.00000000E+00	 2.50000000E-01	 0.00000000E+00
	 7.50000000E-01	 5.00000000E-01	 0.00000000E+00
	 1.00000000E+00	 1.00000000E+00	 0.00000000E+00
	 1.00000000E+00	 7.50000000E-01	 0.00000000E+00
	 7.50000000E-01	 1.00000000E+00	 0.00000000E+00

CELLS 4 36
	8 0 1 2 3 4 5 6 7 
	8 3 2 8 9 6 10 11 12 
	8 1 13 14 2 15 16 17 5 
	8 2 14 18 8 17 19 20 10 

CELL_TYPES 4
	23
	23
	23
	23

POINT_DATA 21
FIELD U 1
	U 3 21 double
		 0.00000000E+00	 0.00000000E+00	 0.00000000E+00
		-2.94357000E-17	-3.60237000E-17	-1.25744000E-03
		-1.34430000E-17	-5.27058000E-17	-2.41789000E-11
		 0.00000000E+00	 0.00000000E+00	 0.00000000E+00
		-2.15816000E-17	-2.51548000E-17	-3.67906000E-04
		-1.76395000E-17	-4.59761000E-17	-6.78630000E-04
		-7.88451000E-18	-2.05996000E-17	-5.49966000E-12
		 0.00000000E+00	 0.00000000E+00	 0.00000000E+00
		-4.97293000E-18	-3.98260000E-17	 1.25744000E-03
		 0.00000000E+00	 0.00000000E+00	 0.00000000E+00
		-1.88202000E-17	-4.47640000E-17	 6.78630000E-04
		 3.86501000E-18	-1.88224000E-17	 3.67906000E-04
		 0.00000000E+00	 0.00000000E+00	 0.00000000E+00
		-5.02435000E-17	-6.48599000E-17	-3.50176000E-03
		-1.82020000E-17	-4.55246000E-17	-8.92656000E-11
		-4.61074000E-17	-5.09541000E-17	-2.33717000E-03
		-1.83357000E-17	-6.43813000E-17	-1.92073000E-03
		-9.74418000E-18	-3.72508000E-17	-5.43662000E-11
		-8.36174000E-17	 4.22093000E-17	 3.50176000E-03
		-1.03990000E-17	-5.28549000E-19	 1.92073000E-03
		-4.79183000E-17	-3.74795000E-17	 2.33717000E-03
