    1C
    1UUSER                                                              
    1UDATE              25.january.2020                                 
    1UTIME              14:54:18                                        
    1UHOST                                                              
    1UPGM               CalculiX                                        
    1UVERSION           Version 2.16                             
    1UCOMPILETIME       Tue  7 Jan 19:57:43 CET 2020                    
    1UDIR                                                               
    1UDBN                                                               
    1UMAT    1EL                                                        
    2C                            21                                     1
 -1         1-7.45058E-09-7.45058E-09 0.00000E+00
 -1         2 5.00000E-01-7.45058E-09 0.00000E+00
 -1         3 5.00000E-01 5.00000E-01 0.00000E+00
 -1         4-7.45058E-09 5.00000E-01 0.00000E+00
 -1         5 2.50000E-01-7.45058E-09 0.00000E+00
 -1         6 5.00000E-01 2.50000E-01 0.00000E+00
 -1         7 2.50000E-01 5.00000E-01 0.00000E+00
 -1         8-7.45058E-09 2.50000E-01 0.00000E+00
 -1         9 5.00000E-01 1.00000E+00 0.00000E+00
 -1        10-7.45058E-09 1.00000E+00 0.00000E+00
 -1        11 5.00000E-01 7.50000E-01 0.00000E+00
 -1        12 2.50000E-01 1.00000E+00 0.00000E+00
 -1        13-7.45058E-09 7.50000E-01 0.00000E+00
 -1        14 1.00000E+00-7.45058E-09 0.00000E+00
 -1        15 1.00000E+00 5.00000E-01 0.00000E+00
 -1        16 7.50000E-01-7.45058E-09 0.00000E+00
 -1        17 1.00000E+00 2.50000E-01 0.00000E+00
 -1        18 7.50000E-01 5.00000E-01 0.00000E+00
 -1        19 1.00000E+00 1.00000E+00 0.00000E+00
 -1        20 1.00000E+00 7.50000E-01 0.00000E+00
 -1        21 7.50000E-01 1.00000E+00 0.00000E+00
 -3
    3C                             4                                     1
 -1         1   10    0    1
 -2         1         2         3         4         5         6         7         8
 -1         2   10    0    1
 -2         4         3         9        10         7        11        12        13
 -1         3   10    0    1
 -2         2        14        15         3        16        17        18         6
 -1         4   10    0    1
 -2         3        15        19         9        18        20        21        11
 -3
    1PSTEP                         1           1           1          
  100CL  101 1.000000000          21                     0    1           1
 -4  DISP        4    1
 -5  D1          1    2    1    0
 -5  D2          1    2    2    0
 -5  D3          1    2    3    0
 -5  ALL         1    2    0    0    1ALL
 -1         1 0.00000E+00 0.00000E+00 0.00000E+00
 -1         2-2.26954E-17-2.68404E-18-1.86672E-03
 -1         3-2.46419E-17-1.76716E-17-7.51753E-04
 -1         4 0.00000E+00 0.00000E+00 0.00000E+00
 -1         5-1.68831E-17-1.91706E-17-5.06628E-04
 -1         6-2.68831E-17-1.66518E-17-1.38132E-03
 -1         7-1.05566E-17-1.63668E-18-1.75676E-04
 -1         8 0.00000E+00 0.00000E+00 0.00000E+00
 -1         9-1.05244E-19-8.74138E-18 6.48152E-04
 -1        10 0.00000E+00 0.00000E+00 0.00000E+00
 -1        11-2.24383E-17-1.69000E-17-2.40565E-05
 -1        12 1.19516E-18 1.49925E-18 2.29184E-04
 -1        13 0.00000E+00 0.00000E+00 0.00000E+00
 -1        14-6.28465E-17-1.44885E-17-6.19296E-03
 -1        15-4.92770E-17-3.62157E-17-3.18160E-03
 -1        16-6.31988E-17-1.46791E-17-3.81255E-03
 -1        17-3.86416E-17-2.72033E-17-4.96823E-03
 -1        18-1.60801E-17-1.34763E-17-1.71199E-03
 -1        19-7.97973E-17 5.97921E-17 8.10562E-04
 -1        20-1.93683E-17 1.57989E-17-1.12677E-03
 -1        21-4.44739E-17-8.27890E-18 8.61788E-04
 -3
 9999
