    1C
    1UUSER                                                              
    1UDATE              25.january.2020                                 
    1UTIME              14:54:18                                        
    1UHOST                                                              
    1UPGM               CalculiX                                        
    1UVERSION           Version 2.16                             
    1UCOMPILETIME       Tue  7 Jan 19:57:43 CET 2020                    
    1UDIR                                                               
    1UDBN                                                               
    1UMAT    1MATERIAL1                                                 
    2C                          4808                                     1
 -1       533 1.00000E+03 0.00000E+00 5.00000E+00
 -1       534 1.00000E+03 0.00000E+00 3.75000E+00
 -1       535 1.00000E+03 0.00000E+00 2.50000E+00
 -1       536 1.00000E+03 0.00000E+00 2.50000E+00
 -1       537 1.00000E+03 0.00000E+00 1.25000E+00
 -1       538 1.00000E+03 0.00000E+00 0.00000E+00
 -1       539 1.00000E+03 0.00000E+00 0.00000E+00
 -1       540 1.00000E+03 0.00000E+00-1.25000E+00
 -1       541 1.00000E+03 0.00000E+00-2.50000E+00
 -1       542 1.00000E+03 0.00000E+00-2.50000E+00
 -1       543 1.00000E+03 0.00000E+00-3.75000E+00
 -1       544 1.00000E+03 0.00000E+00-5.00000E+00
 -1       548 9.09091E+02 0.00000E+00 5.00000E+00
 -1       549 9.09091E+02 0.00000E+00 3.75000E+00
 -1       550 9.09091E+02 0.00000E+00 2.50000E+00
 -1       551 9.09091E+02 0.00000E+00 2.50000E+00
 -1       552 9.09091E+02 0.00000E+00 1.25000E+00
 -1       553 9.09091E+02 0.00000E+00 0.00000E+00
 -1       554 9.09091E+02 0.00000E+00 0.00000E+00
 -1       555 9.09091E+02 0.00000E+00-1.25000E+00
 -1       556 9.09091E+02 0.00000E+00-2.50000E+00
 -1       557 9.09091E+02 0.00000E+00-2.50000E+00
 -1       558 9.09091E+02 0.00000E+00-3.75000E+00
 -1       559 9.09091E+02 0.00000E+00-5.00000E+00
 -1       563 1.00000E+03 9.09091E+01 5.00000E+00
 -1       564 1.00000E+03 9.09091E+01 3.75000E+00
 -1       565 1.00000E+03 9.09091E+01 2.50000E+00
 -1       566 1.00000E+03 9.09091E+01 2.50000E+00
 -1       567 1.00000E+03 9.09091E+01 1.25000E+00
 -1       568 1.00000E+03 9.09091E+01 0.00000E+00
 -1       569 1.00000E+03 9.09091E+01 0.00000E+00
 -1       570 1.00000E+03 9.09091E+01-1.25000E+00
 -1       571 1.00000E+03 9.09091E+01-2.50000E+00
 -1       572 1.00000E+03 9.09091E+01-2.50000E+00
 -1       573 1.00000E+03 9.09091E+01-3.75000E+00
 -1       574 1.00000E+03 9.09091E+01-5.00000E+00
 -1       578 9.54545E+02 0.00000E+00 5.00000E+00
 -1       580 9.54545E+02 0.00000E+00 2.50000E+00
 -1       581 9.54545E+02 0.00000E+00 2.50000E+00
 -1       583 9.54545E+02 0.00000E+00 0.00000E+00
 -1       584 9.54545E+02 0.00000E+00 0.00000E+00
 -1       586 9.54545E+02 0.00000E+00-2.50000E+00
 -1       587 9.54545E+02 0.00000E+00-2.50000E+00
 -1       589 9.54545E+02 0.00000E+00-5.00000E+00
 -1       593 9.54545E+02 4.54545E+01 5.00000E+00
 -1       595 9.54545E+02 4.54545E+01 2.50000E+00
 -1       596 9.54545E+02 4.54545E+01 2.50000E+00
 -1       598 9.54545E+02 4.54545E+01 0.00000E+00
 -1       599 9.54545E+02 4.54545E+01 0.00000E+00
 -1       601 9.54545E+02 4.54545E+01-2.50000E+00
 -1       602 9.54545E+02 4.54545E+01-2.50000E+00
 -1       604 9.54545E+02 4.54545E+01-5.00000E+00
 -1       608 1.00000E+03 4.54545E+01 5.00000E+00
 -1       610 1.00000E+03 4.54545E+01 2.50000E+00
 -1       611 1.00000E+03 4.54545E+01 2.50000E+00
 -1       613 1.00000E+03 4.54545E+01 0.00000E+00
 -1       614 1.00000E+03 4.54545E+01 0.00000E+00
 -1       616 1.00000E+03 4.54545E+01-2.50000E+00
 -1       617 1.00000E+03 4.54545E+01-2.50000E+00
 -1       619 1.00000E+03 4.54545E+01-5.00000E+00
 -1       623 9.09091E+02 9.09091E+01 5.00000E+00
 -1       624 9.09091E+02 9.09091E+01 3.75000E+00
 -1       625 9.09091E+02 9.09091E+01 2.50000E+00
 -1       626 9.09091E+02 9.09091E+01 2.50000E+00
 -1       627 9.09091E+02 9.09091E+01 1.25000E+00
 -1       628 9.09091E+02 9.09091E+01 0.00000E+00
 -1       629 9.09091E+02 9.09091E+01 0.00000E+00
 -1       630 9.09091E+02 9.09091E+01-1.25000E+00
 -1       631 9.09091E+02 9.09091E+01-2.50000E+00
 -1       632 9.09091E+02 9.09091E+01-2.50000E+00
 -1       633 9.09091E+02 9.09091E+01-3.75000E+00
 -1       634 9.09091E+02 9.09091E+01-5.00000E+00
 -1       638 9.09091E+02 4.54545E+01 5.00000E+00
 -1       640 9.09091E+02 4.54545E+01 2.50000E+00
 -1       641 9.09091E+02 4.54545E+01 2.50000E+00
 -1       643 9.09091E+02 4.54545E+01 0.00000E+00
 -1       644 9.09091E+02 4.54545E+01 0.00000E+00
 -1       646 9.09091E+02 4.54545E+01-2.50000E+00
 -1       647 9.09091E+02 4.54545E+01-2.50000E+00
 -1       649 9.09091E+02 4.54545E+01-5.00000E+00
 -1       653 9.54545E+02 9.09091E+01 5.00000E+00
 -1       655 9.54545E+02 9.09091E+01 2.50000E+00
 -1       656 9.54545E+02 9.09091E+01 2.50000E+00
 -1       658 9.54545E+02 9.09091E+01 0.00000E+00
 -1       659 9.54545E+02 9.09091E+01 0.00000E+00
 -1       661 9.54545E+02 9.09091E+01-2.50000E+00
 -1       662 9.54545E+02 9.09091E+01-2.50000E+00
 -1       664 9.54545E+02 9.09091E+01-5.00000E+00
 -1       668 1.00000E+03 1.81818E+02 5.00000E+00
 -1       669 1.00000E+03 1.81818E+02 3.75000E+00
 -1       670 1.00000E+03 1.81818E+02 2.50000E+00
 -1       671 1.00000E+03 1.81818E+02 2.50000E+00
 -1       672 1.00000E+03 1.81818E+02 1.25000E+00
 -1       673 1.00000E+03 1.81818E+02 0.00000E+00
 -1       674 1.00000E+03 1.81818E+02 0.00000E+00
 -1       675 1.00000E+03 1.81818E+02-1.25000E+00
 -1       676 1.00000E+03 1.81818E+02-2.50000E+00
 -1       677 1.00000E+03 1.81818E+02-2.50000E+00
 -1       678 1.00000E+03 1.81818E+02-3.75000E+00
 -1       679 1.00000E+03 1.81818E+02-5.00000E+00
 -1       683 9.54545E+02 1.36364E+02 5.00000E+00
 -1       685 9.54545E+02 1.36364E+02 2.50000E+00
 -1       686 9.54545E+02 1.36364E+02 2.50000E+00
 -1       688 9.54545E+02 1.36364E+02 0.00000E+00
 -1       689 9.54545E+02 1.36364E+02 0.00000E+00
 -1       691 9.54545E+02 1.36364E+02-2.50000E+00
 -1       692 9.54545E+02 1.36364E+02-2.50000E+00
 -1       694 9.54545E+02 1.36364E+02-5.00000E+00
 -1       698 1.00000E+03 1.36364E+02 5.00000E+00
 -1       700 1.00000E+03 1.36364E+02 2.50000E+00
 -1       701 1.00000E+03 1.36364E+02 2.50000E+00
 -1       703 1.00000E+03 1.36364E+02 0.00000E+00
 -1       704 1.00000E+03 1.36364E+02 0.00000E+00
 -1       706 1.00000E+03 1.36364E+02-2.50000E+00
 -1       707 1.00000E+03 1.36364E+02-2.50000E+00
 -1       709 1.00000E+03 1.36364E+02-5.00000E+00
 -1       713 9.09091E+02 1.81818E+02 5.00000E+00
 -1       714 9.09091E+02 1.81818E+02 3.75000E+00
 -1       715 9.09091E+02 1.81818E+02 2.50000E+00
 -1       716 9.09091E+02 1.81818E+02 2.50000E+00
 -1       717 9.09091E+02 1.81818E+02 1.25000E+00
 -1       718 9.09091E+02 1.81818E+02 0.00000E+00
 -1       719 9.09091E+02 1.81818E+02 0.00000E+00
 -1       720 9.09091E+02 1.81818E+02-1.25000E+00
 -1       721 9.09091E+02 1.81818E+02-2.50000E+00
 -1       722 9.09091E+02 1.81818E+02-2.50000E+00
 -1       723 9.09091E+02 1.81818E+02-3.75000E+00
 -1       724 9.09091E+02 1.81818E+02-5.00000E+00
 -1       728 9.09091E+02 1.36364E+02 5.00000E+00
 -1       730 9.09091E+02 1.36364E+02 2.50000E+00
 -1       731 9.09091E+02 1.36364E+02 2.50000E+00
 -1       733 9.09091E+02 1.36364E+02 0.00000E+00
 -1       734 9.09091E+02 1.36364E+02 0.00000E+00
 -1       736 9.09091E+02 1.36364E+02-2.50000E+00
 -1       737 9.09091E+02 1.36364E+02-2.50000E+00
 -1       739 9.09091E+02 1.36364E+02-5.00000E+00
 -1       743 9.54545E+02 1.81818E+02 5.00000E+00
 -1       745 9.54545E+02 1.81818E+02 2.50000E+00
 -1       746 9.54545E+02 1.81818E+02 2.50000E+00
 -1       748 9.54545E+02 1.81818E+02 0.00000E+00
 -1       749 9.54545E+02 1.81818E+02 0.00000E+00
 -1       751 9.54545E+02 1.81818E+02-2.50000E+00
 -1       752 9.54545E+02 1.81818E+02-2.50000E+00
 -1       754 9.54545E+02 1.81818E+02-5.00000E+00
 -1       758 1.00000E+03 2.72727E+02 5.00000E+00
 -1       759 1.00000E+03 2.72727E+02 3.75000E+00
 -1       760 1.00000E+03 2.72727E+02 2.50000E+00
 -1       761 1.00000E+03 2.72727E+02 2.50000E+00
 -1       762 1.00000E+03 2.72727E+02 1.25000E+00
 -1       763 1.00000E+03 2.72727E+02 0.00000E+00
 -1       764 1.00000E+03 2.72727E+02 0.00000E+00
 -1       765 1.00000E+03 2.72727E+02-1.25000E+00
 -1       766 1.00000E+03 2.72727E+02-2.50000E+00
 -1       767 1.00000E+03 2.72727E+02-2.50000E+00
 -1       768 1.00000E+03 2.72727E+02-3.75000E+00
 -1       769 1.00000E+03 2.72727E+02-5.00000E+00
 -1       773 9.54545E+02 2.27273E+02 5.00000E+00
 -1       775 9.54545E+02 2.27273E+02 2.50000E+00
 -1       776 9.54545E+02 2.27273E+02 2.50000E+00
 -1       778 9.54545E+02 2.27273E+02 0.00000E+00
 -1       779 9.54545E+02 2.27273E+02 0.00000E+00
 -1       781 9.54545E+02 2.27273E+02-2.50000E+00
 -1       782 9.54545E+02 2.27273E+02-2.50000E+00
 -1       784 9.54545E+02 2.27273E+02-5.00000E+00
 -1       788 1.00000E+03 2.27273E+02 5.00000E+00
 -1       790 1.00000E+03 2.27273E+02 2.50000E+00
 -1       791 1.00000E+03 2.27273E+02 2.50000E+00
 -1       793 1.00000E+03 2.27273E+02 0.00000E+00
 -1       794 1.00000E+03 2.27273E+02 0.00000E+00
 -1       796 1.00000E+03 2.27273E+02-2.50000E+00
 -1       797 1.00000E+03 2.27273E+02-2.50000E+00
 -1       799 1.00000E+03 2.27273E+02-5.00000E+00
 -1       803 9.09091E+02 2.72727E+02 5.00000E+00
 -1       804 9.09091E+02 2.72727E+02 3.75000E+00
 -1       805 9.09091E+02 2.72727E+02 2.50000E+00
 -1       806 9.09091E+02 2.72727E+02 2.50000E+00
 -1       807 9.09091E+02 2.72727E+02 1.25000E+00
 -1       808 9.09091E+02 2.72727E+02 0.00000E+00
 -1       809 9.09091E+02 2.72727E+02 0.00000E+00
 -1       810 9.09091E+02 2.72727E+02-1.25000E+00
 -1       811 9.09091E+02 2.72727E+02-2.50000E+00
 -1       812 9.09091E+02 2.72727E+02-2.50000E+00
 -1       813 9.09091E+02 2.72727E+02-3.75000E+00
 -1       814 9.09091E+02 2.72727E+02-5.00000E+00
 -1       818 9.09091E+02 2.27273E+02 5.00000E+00
 -1       820 9.09091E+02 2.27273E+02 2.50000E+00
 -1       821 9.09091E+02 2.27273E+02 2.50000E+00
 -1       823 9.09091E+02 2.27273E+02 0.00000E+00
 -1       824 9.09091E+02 2.27273E+02 0.00000E+00
 -1       826 9.09091E+02 2.27273E+02-2.50000E+00
 -1       827 9.09091E+02 2.27273E+02-2.50000E+00
 -1       829 9.09091E+02 2.27273E+02-5.00000E+00
 -1       833 9.54545E+02 2.72727E+02 5.00000E+00
 -1       835 9.54545E+02 2.72727E+02 2.50000E+00
 -1       836 9.54545E+02 2.72727E+02 2.50000E+00
 -1       838 9.54545E+02 2.72727E+02 0.00000E+00
 -1       839 9.54545E+02 2.72727E+02 0.00000E+00
 -1       841 9.54545E+02 2.72727E+02-2.50000E+00
 -1       842 9.54545E+02 2.72727E+02-2.50000E+00
 -1       844 9.54545E+02 2.72727E+02-5.00000E+00
 -1       848 1.00000E+03 3.63636E+02 5.00000E+00
 -1       849 1.00000E+03 3.63636E+02 3.75000E+00
 -1       850 1.00000E+03 3.63636E+02 2.50000E+00
 -1       851 1.00000E+03 3.63636E+02 2.50000E+00
 -1       852 1.00000E+03 3.63636E+02 1.25000E+00
 -1       853 1.00000E+03 3.63636E+02 0.00000E+00
 -1       854 1.00000E+03 3.63636E+02 0.00000E+00
 -1       855 1.00000E+03 3.63636E+02-1.25000E+00
 -1       856 1.00000E+03 3.63636E+02-2.50000E+00
 -1       857 1.00000E+03 3.63636E+02-2.50000E+00
 -1       858 1.00000E+03 3.63636E+02-3.75000E+00
 -1       859 1.00000E+03 3.63636E+02-5.00000E+00
 -1       863 9.54545E+02 3.18182E+02 5.00000E+00
 -1       865 9.54545E+02 3.18182E+02 2.50000E+00
 -1       866 9.54545E+02 3.18182E+02 2.50000E+00
 -1       868 9.54545E+02 3.18182E+02 0.00000E+00
 -1       869 9.54545E+02 3.18182E+02 0.00000E+00
 -1       871 9.54545E+02 3.18182E+02-2.50000E+00
 -1       872 9.54545E+02 3.18182E+02-2.50000E+00
 -1       874 9.54545E+02 3.18182E+02-5.00000E+00
 -1       878 1.00000E+03 3.18182E+02 5.00000E+00
 -1       880 1.00000E+03 3.18182E+02 2.50000E+00
 -1       881 1.00000E+03 3.18182E+02 2.50000E+00
 -1       883 1.00000E+03 3.18182E+02 0.00000E+00
 -1       884 1.00000E+03 3.18182E+02 0.00000E+00
 -1       886 1.00000E+03 3.18182E+02-2.50000E+00
 -1       887 1.00000E+03 3.18182E+02-2.50000E+00
 -1       889 1.00000E+03 3.18182E+02-5.00000E+00
 -1       893 9.09091E+02 3.63636E+02 5.00000E+00
 -1       894 9.09091E+02 3.63636E+02 3.75000E+00
 -1       895 9.09091E+02 3.63636E+02 2.50000E+00
 -1       896 9.09091E+02 3.63636E+02 2.50000E+00
 -1       897 9.09091E+02 3.63636E+02 1.25000E+00
 -1       898 9.09091E+02 3.63636E+02 0.00000E+00
 -1       899 9.09091E+02 3.63636E+02 0.00000E+00
 -1       900 9.09091E+02 3.63636E+02-1.25000E+00
 -1       901 9.09091E+02 3.63636E+02-2.50000E+00
 -1       902 9.09091E+02 3.63636E+02-2.50000E+00
 -1       903 9.09091E+02 3.63636E+02-3.75000E+00
 -1       904 9.09091E+02 3.63636E+02-5.00000E+00
 -1       908 9.09091E+02 3.18182E+02 5.00000E+00
 -1       910 9.09091E+02 3.18182E+02 2.50000E+00
 -1       911 9.09091E+02 3.18182E+02 2.50000E+00
 -1       913 9.09091E+02 3.18182E+02 0.00000E+00
 -1       914 9.09091E+02 3.18182E+02 0.00000E+00
 -1       916 9.09091E+02 3.18182E+02-2.50000E+00
 -1       917 9.09091E+02 3.18182E+02-2.50000E+00
 -1       919 9.09091E+02 3.18182E+02-5.00000E+00
 -1       923 9.54545E+02 3.63636E+02 5.00000E+00
 -1       925 9.54545E+02 3.63636E+02 2.50000E+00
 -1       926 9.54545E+02 3.63636E+02 2.50000E+00
 -1       928 9.54545E+02 3.63636E+02 0.00000E+00
 -1       929 9.54545E+02 3.63636E+02 0.00000E+00
 -1       931 9.54545E+02 3.63636E+02-2.50000E+00
 -1       932 9.54545E+02 3.63636E+02-2.50000E+00
 -1       934 9.54545E+02 3.63636E+02-5.00000E+00
 -1       938 1.00000E+03 4.54545E+02 5.00000E+00
 -1       939 1.00000E+03 4.54545E+02 3.75000E+00
 -1       940 1.00000E+03 4.54545E+02 2.50000E+00
 -1       941 1.00000E+03 4.54545E+02 2.50000E+00
 -1       942 1.00000E+03 4.54545E+02 1.25000E+00
 -1       943 1.00000E+03 4.54545E+02 0.00000E+00
 -1       944 1.00000E+03 4.54545E+02 0.00000E+00
 -1       945 1.00000E+03 4.54545E+02-1.25000E+00
 -1       946 1.00000E+03 4.54545E+02-2.50000E+00
 -1       947 1.00000E+03 4.54545E+02-2.50000E+00
 -1       948 1.00000E+03 4.54545E+02-3.75000E+00
 -1       949 1.00000E+03 4.54545E+02-5.00000E+00
 -1       953 9.54545E+02 4.09091E+02 5.00000E+00
 -1       955 9.54545E+02 4.09091E+02 2.50000E+00
 -1       956 9.54545E+02 4.09091E+02 2.50000E+00
 -1       958 9.54545E+02 4.09091E+02 0.00000E+00
 -1       959 9.54545E+02 4.09091E+02 0.00000E+00
 -1       961 9.54545E+02 4.09091E+02-2.50000E+00
 -1       962 9.54545E+02 4.09091E+02-2.50000E+00
 -1       964 9.54545E+02 4.09091E+02-5.00000E+00
 -1       968 1.00000E+03 4.09091E+02 5.00000E+00
 -1       970 1.00000E+03 4.09091E+02 2.50000E+00
 -1       971 1.00000E+03 4.09091E+02 2.50000E+00
 -1       973 1.00000E+03 4.09091E+02 0.00000E+00
 -1       974 1.00000E+03 4.09091E+02 0.00000E+00
 -1       976 1.00000E+03 4.09091E+02-2.50000E+00
 -1       977 1.00000E+03 4.09091E+02-2.50000E+00
 -1       979 1.00000E+03 4.09091E+02-5.00000E+00
 -1       983 9.09091E+02 4.54545E+02 5.00000E+00
 -1       984 9.09091E+02 4.54545E+02 3.75000E+00
 -1       985 9.09091E+02 4.54545E+02 2.50000E+00
 -1       986 9.09091E+02 4.54545E+02 2.50000E+00
 -1       987 9.09091E+02 4.54545E+02 1.25000E+00
 -1       988 9.09091E+02 4.54545E+02 0.00000E+00
 -1       989 9.09091E+02 4.54545E+02 0.00000E+00
 -1       990 9.09091E+02 4.54545E+02-1.25000E+00
 -1       991 9.09091E+02 4.54545E+02-2.50000E+00
 -1       992 9.09091E+02 4.54545E+02-2.50000E+00
 -1       993 9.09091E+02 4.54545E+02-3.75000E+00
 -1       994 9.09091E+02 4.54545E+02-5.00000E+00
 -1       998 9.09091E+02 4.09091E+02 5.00000E+00
 -1      1000 9.09091E+02 4.09091E+02 2.50000E+00
 -1      1001 9.09091E+02 4.09091E+02 2.50000E+00
 -1      1003 9.09091E+02 4.09091E+02 0.00000E+00
 -1      1004 9.09091E+02 4.09091E+02 0.00000E+00
 -1      1006 9.09091E+02 4.09091E+02-2.50000E+00
 -1      1007 9.09091E+02 4.09091E+02-2.50000E+00
 -1      1009 9.09091E+02 4.09091E+02-5.00000E+00
 -1      1013 9.54545E+02 4.54545E+02 5.00000E+00
 -1      1015 9.54545E+02 4.54545E+02 2.50000E+00
 -1      1016 9.54545E+02 4.54545E+02 2.50000E+00
 -1      1018 9.54545E+02 4.54545E+02 0.00000E+00
 -1      1019 9.54545E+02 4.54545E+02 0.00000E+00
 -1      1021 9.54545E+02 4.54545E+02-2.50000E+00
 -1      1022 9.54545E+02 4.54545E+02-2.50000E+00
 -1      1024 9.54545E+02 4.54545E+02-5.00000E+00
 -1      1028 1.00000E+03 5.45455E+02 5.00000E+00
 -1      1029 1.00000E+03 5.45455E+02 3.75000E+00
 -1      1030 1.00000E+03 5.45455E+02 2.50000E+00
 -1      1031 1.00000E+03 5.45455E+02 2.50000E+00
 -1      1032 1.00000E+03 5.45455E+02 1.25000E+00
 -1      1033 1.00000E+03 5.45455E+02 0.00000E+00
 -1      1034 1.00000E+03 5.45455E+02 0.00000E+00
 -1      1035 1.00000E+03 5.45455E+02-1.25000E+00
 -1      1036 1.00000E+03 5.45455E+02-2.50000E+00
 -1      1037 1.00000E+03 5.45455E+02-2.50000E+00
 -1      1038 1.00000E+03 5.45455E+02-3.75000E+00
 -1      1039 1.00000E+03 5.45455E+02-5.00000E+00
 -1      1043 9.54545E+02 5.00000E+02 5.00000E+00
 -1      1045 9.54545E+02 5.00000E+02 2.50000E+00
 -1      1046 9.54545E+02 5.00000E+02 2.50000E+00
 -1      1048 9.54545E+02 5.00000E+02 0.00000E+00
 -1      1049 9.54545E+02 5.00000E+02 0.00000E+00
 -1      1051 9.54545E+02 5.00000E+02-2.50000E+00
 -1      1052 9.54545E+02 5.00000E+02-2.50000E+00
 -1      1054 9.54545E+02 5.00000E+02-5.00000E+00
 -1      1058 1.00000E+03 5.00000E+02 5.00000E+00
 -1      1060 1.00000E+03 5.00000E+02 2.50000E+00
 -1      1061 1.00000E+03 5.00000E+02 2.50000E+00
 -1      1063 1.00000E+03 5.00000E+02 0.00000E+00
 -1      1064 1.00000E+03 5.00000E+02 0.00000E+00
 -1      1066 1.00000E+03 5.00000E+02-2.50000E+00
 -1      1067 1.00000E+03 5.00000E+02-2.50000E+00
 -1      1069 1.00000E+03 5.00000E+02-5.00000E+00
 -1      1073 9.09091E+02 5.45455E+02 5.00000E+00
 -1      1074 9.09091E+02 5.45455E+02 3.75000E+00
 -1      1075 9.09091E+02 5.45455E+02 2.50000E+00
 -1      1076 9.09091E+02 5.45455E+02 2.50000E+00
 -1      1077 9.09091E+02 5.45455E+02 1.25000E+00
 -1      1078 9.09091E+02 5.45455E+02 0.00000E+00
 -1      1079 9.09091E+02 5.45455E+02 0.00000E+00
 -1      1080 9.09091E+02 5.45455E+02-1.25000E+00
 -1      1081 9.09091E+02 5.45455E+02-2.50000E+00
 -1      1082 9.09091E+02 5.45455E+02-2.50000E+00
 -1      1083 9.09091E+02 5.45455E+02-3.75000E+00
 -1      1084 9.09091E+02 5.45455E+02-5.00000E+00
 -1      1088 9.09091E+02 5.00000E+02 5.00000E+00
 -1      1090 9.09091E+02 5.00000E+02 2.50000E+00
 -1      1091 9.09091E+02 5.00000E+02 2.50000E+00
 -1      1093 9.09091E+02 5.00000E+02 0.00000E+00
 -1      1094 9.09091E+02 5.00000E+02 0.00000E+00
 -1      1096 9.09091E+02 5.00000E+02-2.50000E+00
 -1      1097 9.09091E+02 5.00000E+02-2.50000E+00
 -1      1099 9.09091E+02 5.00000E+02-5.00000E+00
 -1      1103 9.54545E+02 5.45455E+02 5.00000E+00
 -1      1105 9.54545E+02 5.45455E+02 2.50000E+00
 -1      1106 9.54545E+02 5.45455E+02 2.50000E+00
 -1      1108 9.54545E+02 5.45455E+02 0.00000E+00
 -1      1109 9.54545E+02 5.45455E+02 0.00000E+00
 -1      1111 9.54545E+02 5.45455E+02-2.50000E+00
 -1      1112 9.54545E+02 5.45455E+02-2.50000E+00
 -1      1114 9.54545E+02 5.45455E+02-5.00000E+00
 -1      1118 1.00000E+03 6.36364E+02 5.00000E+00
 -1      1119 1.00000E+03 6.36364E+02 3.75000E+00
 -1      1120 1.00000E+03 6.36364E+02 2.50000E+00
 -1      1121 1.00000E+03 6.36364E+02 2.50000E+00
 -1      1122 1.00000E+03 6.36364E+02 1.25000E+00
 -1      1123 1.00000E+03 6.36364E+02 0.00000E+00
 -1      1124 1.00000E+03 6.36364E+02 0.00000E+00
 -1      1125 1.00000E+03 6.36364E+02-1.25000E+00
 -1      1126 1.00000E+03 6.36364E+02-2.50000E+00
 -1      1127 1.00000E+03 6.36364E+02-2.50000E+00
 -1      1128 1.00000E+03 6.36364E+02-3.75000E+00
 -1      1129 1.00000E+03 6.36364E+02-5.00000E+00
 -1      1133 9.54545E+02 5.90909E+02 5.00000E+00
 -1      1135 9.54545E+02 5.90909E+02 2.50000E+00
 -1      1136 9.54545E+02 5.90909E+02 2.50000E+00
 -1      1138 9.54545E+02 5.90909E+02 0.00000E+00
 -1      1139 9.54545E+02 5.90909E+02 0.00000E+00
 -1      1141 9.54545E+02 5.90909E+02-2.50000E+00
 -1      1142 9.54545E+02 5.90909E+02-2.50000E+00
 -1      1144 9.54545E+02 5.90909E+02-5.00000E+00
 -1      1148 1.00000E+03 5.90909E+02 5.00000E+00
 -1      1150 1.00000E+03 5.90909E+02 2.50000E+00
 -1      1151 1.00000E+03 5.90909E+02 2.50000E+00
 -1      1153 1.00000E+03 5.90909E+02 0.00000E+00
 -1      1154 1.00000E+03 5.90909E+02 0.00000E+00
 -1      1156 1.00000E+03 5.90909E+02-2.50000E+00
 -1      1157 1.00000E+03 5.90909E+02-2.50000E+00
 -1      1159 1.00000E+03 5.90909E+02-5.00000E+00
 -1      1163 9.09091E+02 6.36364E+02 5.00000E+00
 -1      1164 9.09091E+02 6.36364E+02 3.75000E+00
 -1      1165 9.09091E+02 6.36364E+02 2.50000E+00
 -1      1166 9.09091E+02 6.36364E+02 2.50000E+00
 -1      1167 9.09091E+02 6.36364E+02 1.25000E+00
 -1      1168 9.09091E+02 6.36364E+02 0.00000E+00
 -1      1169 9.09091E+02 6.36364E+02 0.00000E+00
 -1      1170 9.09091E+02 6.36364E+02-1.25000E+00
 -1      1171 9.09091E+02 6.36364E+02-2.50000E+00
 -1      1172 9.09091E+02 6.36364E+02-2.50000E+00
 -1      1173 9.09091E+02 6.36364E+02-3.75000E+00
 -1      1174 9.09091E+02 6.36364E+02-5.00000E+00
 -1      1178 9.09091E+02 5.90909E+02 5.00000E+00
 -1      1180 9.09091E+02 5.90909E+02 2.50000E+00
 -1      1181 9.09091E+02 5.90909E+02 2.50000E+00
 -1      1183 9.09091E+02 5.90909E+02 0.00000E+00
 -1      1184 9.09091E+02 5.90909E+02 0.00000E+00
 -1      1186 9.09091E+02 5.90909E+02-2.50000E+00
 -1      1187 9.09091E+02 5.90909E+02-2.50000E+00
 -1      1189 9.09091E+02 5.90909E+02-5.00000E+00
 -1      1193 9.54545E+02 6.36364E+02 5.00000E+00
 -1      1195 9.54545E+02 6.36364E+02 2.50000E+00
 -1      1196 9.54545E+02 6.36364E+02 2.50000E+00
 -1      1198 9.54545E+02 6.36364E+02 0.00000E+00
 -1      1199 9.54545E+02 6.36364E+02 0.00000E+00
 -1      1201 9.54545E+02 6.36364E+02-2.50000E+00
 -1      1202 9.54545E+02 6.36364E+02-2.50000E+00
 -1      1204 9.54545E+02 6.36364E+02-5.00000E+00
 -1      1208 1.00000E+03 7.27273E+02 5.00000E+00
 -1      1209 1.00000E+03 7.27273E+02 3.75000E+00
 -1      1210 1.00000E+03 7.27273E+02 2.50000E+00
 -1      1211 1.00000E+03 7.27273E+02 2.50000E+00
 -1      1212 1.00000E+03 7.27273E+02 1.25000E+00
 -1      1213 1.00000E+03 7.27273E+02 0.00000E+00
 -1      1214 1.00000E+03 7.27273E+02 0.00000E+00
 -1      1215 1.00000E+03 7.27273E+02-1.25000E+00
 -1      1216 1.00000E+03 7.27273E+02-2.50000E+00
 -1      1217 1.00000E+03 7.27273E+02-2.50000E+00
 -1      1218 1.00000E+03 7.27273E+02-3.75000E+00
 -1      1219 1.00000E+03 7.27273E+02-5.00000E+00
 -1      1223 9.54545E+02 6.81818E+02 5.00000E+00
 -1      1225 9.54545E+02 6.81818E+02 2.50000E+00
 -1      1226 9.54545E+02 6.81818E+02 2.50000E+00
 -1      1228 9.54545E+02 6.81818E+02 0.00000E+00
 -1      1229 9.54545E+02 6.81818E+02 0.00000E+00
 -1      1231 9.54545E+02 6.81818E+02-2.50000E+00
 -1      1232 9.54545E+02 6.81818E+02-2.50000E+00
 -1      1234 9.54545E+02 6.81818E+02-5.00000E+00
 -1      1238 1.00000E+03 6.81818E+02 5.00000E+00
 -1      1240 1.00000E+03 6.81818E+02 2.50000E+00
 -1      1241 1.00000E+03 6.81818E+02 2.50000E+00
 -1      1243 1.00000E+03 6.81818E+02 0.00000E+00
 -1      1244 1.00000E+03 6.81818E+02 0.00000E+00
 -1      1246 1.00000E+03 6.81818E+02-2.50000E+00
 -1      1247 1.00000E+03 6.81818E+02-2.50000E+00
 -1      1249 1.00000E+03 6.81818E+02-5.00000E+00
 -1      1253 9.09091E+02 7.27273E+02 5.00000E+00
 -1      1254 9.09091E+02 7.27273E+02 3.75000E+00
 -1      1255 9.09091E+02 7.27273E+02 2.50000E+00
 -1      1256 9.09091E+02 7.27273E+02 2.50000E+00
 -1      1257 9.09091E+02 7.27273E+02 1.25000E+00
 -1      1258 9.09091E+02 7.27273E+02 0.00000E+00
 -1      1259 9.09091E+02 7.27273E+02 0.00000E+00
 -1      1260 9.09091E+02 7.27273E+02-1.25000E+00
 -1      1261 9.09091E+02 7.27273E+02-2.50000E+00
 -1      1262 9.09091E+02 7.27273E+02-2.50000E+00
 -1      1263 9.09091E+02 7.27273E+02-3.75000E+00
 -1      1264 9.09091E+02 7.27273E+02-5.00000E+00
 -1      1268 9.09091E+02 6.81818E+02 5.00000E+00
 -1      1270 9.09091E+02 6.81818E+02 2.50000E+00
 -1      1271 9.09091E+02 6.81818E+02 2.50000E+00
 -1      1273 9.09091E+02 6.81818E+02 0.00000E+00
 -1      1274 9.09091E+02 6.81818E+02 0.00000E+00
 -1      1276 9.09091E+02 6.81818E+02-2.50000E+00
 -1      1277 9.09091E+02 6.81818E+02-2.50000E+00
 -1      1279 9.09091E+02 6.81818E+02-5.00000E+00
 -1      1283 9.54545E+02 7.27273E+02 5.00000E+00
 -1      1285 9.54545E+02 7.27273E+02 2.50000E+00
 -1      1286 9.54545E+02 7.27273E+02 2.50000E+00
 -1      1288 9.54545E+02 7.27273E+02 0.00000E+00
 -1      1289 9.54545E+02 7.27273E+02 0.00000E+00
 -1      1291 9.54545E+02 7.27273E+02-2.50000E+00
 -1      1292 9.54545E+02 7.27273E+02-2.50000E+00
 -1      1294 9.54545E+02 7.27273E+02-5.00000E+00
 -1      1298 1.00000E+03 8.18182E+02 5.00000E+00
 -1      1299 1.00000E+03 8.18182E+02 3.75000E+00
 -1      1300 1.00000E+03 8.18182E+02 2.50000E+00
 -1      1301 1.00000E+03 8.18182E+02 2.50000E+00
 -1      1302 1.00000E+03 8.18182E+02 1.25000E+00
 -1      1303 1.00000E+03 8.18182E+02 0.00000E+00
 -1      1304 1.00000E+03 8.18182E+02 0.00000E+00
 -1      1305 1.00000E+03 8.18182E+02-1.25000E+00
 -1      1306 1.00000E+03 8.18182E+02-2.50000E+00
 -1      1307 1.00000E+03 8.18182E+02-2.50000E+00
 -1      1308 1.00000E+03 8.18182E+02-3.75000E+00
 -1      1309 1.00000E+03 8.18182E+02-5.00000E+00
 -1      1313 9.54545E+02 7.72727E+02 5.00000E+00
 -1      1315 9.54545E+02 7.72727E+02 2.50000E+00
 -1      1316 9.54545E+02 7.72727E+02 2.50000E+00
 -1      1318 9.54545E+02 7.72727E+02 0.00000E+00
 -1      1319 9.54545E+02 7.72727E+02 0.00000E+00
 -1      1321 9.54545E+02 7.72727E+02-2.50000E+00
 -1      1322 9.54545E+02 7.72727E+02-2.50000E+00
 -1      1324 9.54545E+02 7.72727E+02-5.00000E+00
 -1      1328 1.00000E+03 7.72727E+02 5.00000E+00
 -1      1330 1.00000E+03 7.72727E+02 2.50000E+00
 -1      1331 1.00000E+03 7.72727E+02 2.50000E+00
 -1      1333 1.00000E+03 7.72727E+02 0.00000E+00
 -1      1334 1.00000E+03 7.72727E+02 0.00000E+00
 -1      1336 1.00000E+03 7.72727E+02-2.50000E+00
 -1      1337 1.00000E+03 7.72727E+02-2.50000E+00
 -1      1339 1.00000E+03 7.72727E+02-5.00000E+00
 -1      1343 9.09091E+02 8.18182E+02 5.00000E+00
 -1      1344 9.09091E+02 8.18182E+02 3.75000E+00
 -1      1345 9.09091E+02 8.18182E+02 2.50000E+00
 -1      1346 9.09091E+02 8.18182E+02 2.50000E+00
 -1      1347 9.09091E+02 8.18182E+02 1.25000E+00
 -1      1348 9.09091E+02 8.18182E+02 0.00000E+00
 -1      1349 9.09091E+02 8.18182E+02 0.00000E+00
 -1      1350 9.09091E+02 8.18182E+02-1.25000E+00
 -1      1351 9.09091E+02 8.18182E+02-2.50000E+00
 -1      1352 9.09091E+02 8.18182E+02-2.50000E+00
 -1      1353 9.09091E+02 8.18182E+02-3.75000E+00
 -1      1354 9.09091E+02 8.18182E+02-5.00000E+00
 -1      1358 9.09091E+02 7.72727E+02 5.00000E+00
 -1      1360 9.09091E+02 7.72727E+02 2.50000E+00
 -1      1361 9.09091E+02 7.72727E+02 2.50000E+00
 -1      1363 9.09091E+02 7.72727E+02 0.00000E+00
 -1      1364 9.09091E+02 7.72727E+02 0.00000E+00
 -1      1366 9.09091E+02 7.72727E+02-2.50000E+00
 -1      1367 9.09091E+02 7.72727E+02-2.50000E+00
 -1      1369 9.09091E+02 7.72727E+02-5.00000E+00
 -1      1373 9.54545E+02 8.18182E+02 5.00000E+00
 -1      1375 9.54545E+02 8.18182E+02 2.50000E+00
 -1      1376 9.54545E+02 8.18182E+02 2.50000E+00
 -1      1378 9.54545E+02 8.18182E+02 0.00000E+00
 -1      1379 9.54545E+02 8.18182E+02 0.00000E+00
 -1      1381 9.54545E+02 8.18182E+02-2.50000E+00
 -1      1382 9.54545E+02 8.18182E+02-2.50000E+00
 -1      1384 9.54545E+02 8.18182E+02-5.00000E+00
 -1      1388 1.00000E+03 9.09091E+02 5.00000E+00
 -1      1389 1.00000E+03 9.09091E+02 3.75000E+00
 -1      1390 1.00000E+03 9.09091E+02 2.50000E+00
 -1      1391 1.00000E+03 9.09091E+02 2.50000E+00
 -1      1392 1.00000E+03 9.09091E+02 1.25000E+00
 -1      1393 1.00000E+03 9.09091E+02 0.00000E+00
 -1      1394 1.00000E+03 9.09091E+02 0.00000E+00
 -1      1395 1.00000E+03 9.09091E+02-1.25000E+00
 -1      1396 1.00000E+03 9.09091E+02-2.50000E+00
 -1      1397 1.00000E+03 9.09091E+02-2.50000E+00
 -1      1398 1.00000E+03 9.09091E+02-3.75000E+00
 -1      1399 1.00000E+03 9.09091E+02-5.00000E+00
 -1      1403 9.54545E+02 8.63636E+02 5.00000E+00
 -1      1405 9.54545E+02 8.63636E+02 2.50000E+00
 -1      1406 9.54545E+02 8.63636E+02 2.50000E+00
 -1      1408 9.54545E+02 8.63636E+02 0.00000E+00
 -1      1409 9.54545E+02 8.63636E+02 0.00000E+00
 -1      1411 9.54545E+02 8.63636E+02-2.50000E+00
 -1      1412 9.54545E+02 8.63636E+02-2.50000E+00
 -1      1414 9.54545E+02 8.63636E+02-5.00000E+00
 -1      1418 1.00000E+03 8.63636E+02 5.00000E+00
 -1      1420 1.00000E+03 8.63636E+02 2.50000E+00
 -1      1421 1.00000E+03 8.63636E+02 2.50000E+00
 -1      1423 1.00000E+03 8.63636E+02 0.00000E+00
 -1      1424 1.00000E+03 8.63636E+02 0.00000E+00
 -1      1426 1.00000E+03 8.63636E+02-2.50000E+00
 -1      1427 1.00000E+03 8.63636E+02-2.50000E+00
 -1      1429 1.00000E+03 8.63636E+02-5.00000E+00
 -1      1433 9.09091E+02 9.09091E+02 5.00000E+00
 -1      1434 9.09091E+02 9.09091E+02 3.75000E+00
 -1      1435 9.09091E+02 9.09091E+02 2.50000E+00
 -1      1436 9.09091E+02 9.09091E+02 2.50000E+00
 -1      1437 9.09091E+02 9.09091E+02 1.25000E+00
 -1      1438 9.09091E+02 9.09091E+02 0.00000E+00
 -1      1439 9.09091E+02 9.09091E+02 0.00000E+00
 -1      1440 9.09091E+02 9.09091E+02-1.25000E+00
 -1      1441 9.09091E+02 9.09091E+02-2.50000E+00
 -1      1442 9.09091E+02 9.09091E+02-2.50000E+00
 -1      1443 9.09091E+02 9.09091E+02-3.75000E+00
 -1      1444 9.09091E+02 9.09091E+02-5.00000E+00
 -1      1448 9.09091E+02 8.63636E+02 5.00000E+00
 -1      1450 9.09091E+02 8.63636E+02 2.50000E+00
 -1      1451 9.09091E+02 8.63636E+02 2.50000E+00
 -1      1453 9.09091E+02 8.63636E+02 0.00000E+00
 -1      1454 9.09091E+02 8.63636E+02 0.00000E+00
 -1      1456 9.09091E+02 8.63636E+02-2.50000E+00
 -1      1457 9.09091E+02 8.63636E+02-2.50000E+00