# vtk DataFile Version 3.0

ASCII
DATASET UNSTRUCTURED_GRID

POINTS 51 double
	-7.45058000E-09	-7.45058000E-09	-5.00000000E-03
	-7.45058000E-09	-7.45058000E-09	 0.00000000E+00
	-7.45058000E-09	-7.45058000E-09	 5.00000000E-03
	 5.00000000E-01	-7.45058000E-09	-1.50000000E-02
	 5.00000000E-01	-7.45058000E-09	 0.00000000E+00
	 5.00000000E-01	-7.45058000E-09	 1.50000000E-02
	 5.00000000E-01	 5.00000000E-01	-1.50000000E-02
	 5.00000000E-01	 5.00000000E-01	 0.00000000E+00
	 5.00000000E-01	 5.00000000E-01	 1.50000000E-02
	-7.45058000E-09	 5.00000000E-01	-5.00000000E-03
	-7.45058000E-09	 5.00000000E-01	 0.00000000E+00
	-7.45058000E-09	 5.00000000E-01	 5.00000000E-03
	 2.50000000E-01	-7.45058000E-09	-1.00000000E-02
	 2.50000000E-01	-7.45058000E-09	 1.00000000E-02
	 5.00000000E-01	 2.50000000E-01	-1.50000000E-02
	 5.00000000E-01	 2.50000000E-01	 1.50000000E-02
	 2.50000000E-01	 5.00000000E-01	-1.00000000E-02
	 2.50000000E-01	 5.00000000E-01	 1.00000000E-02
	-7.45058000E-09	 2.50000000E-01	-5.00000000E-03
	-7.45058000E-09	 2.50000000E-01	 5.00000000E-03
	 5.00000000E-01	 1.00000000E+00	-1.50000000E-02
	 5.00000000E-01	 1.00000000E+00	 0.00000000E+00
	 5.00000000E-01	 1.00000000E+00	 1.50000000E-02
	-7.45058000E-09	 1.00000000E+00	-5.00000000E-03
	-7.45058000E-09	 1.00000000E+00	 0.00000000E+00
	-7.45058000E-09	 1.00000000E+00	 5.00000000E-03
	 5.00000000E-01	 7.50000000E-01	-1.50000000E-02
	 5.00000000E-01	 7.50000000E-01	 1.50000000E-02
	 2.50000000E-01	 1.00000000E+00	-1.00000000E-02
	 2.50000000E-01	 1.00000000E+00	 1.00000000E-02
	-7.45058000E-09	 7.50000000E-01	-5.00000000E-03
	-7.45058000E-09	 7.50000000E-01	 5.00000000E-03
	 1.00000000E+00	-7.45058000E-09	-1.00000000E-02
	 1.00000000E+00	-7.45058000E-09	 0.00000000E+00
	 1.00000000E+00	-7.45058000E-09	 1.00000000E-02
	 1.00000000E+00	 5.00000000E-01	-1.00000000E-02
	 1.00000000E+00	 5.00000000E-01	 0.00000000E+00
	 1.00000000E+00	 5.00000000E-01	 1.00000000E-02
	 7.50000000E-01	-7.45058000E-09	-1.25000000E-02
	 7.50000000E-01	-7.45058000E-09	 1.25000000E-02
	 1.00000000E+00	 2.50000000E-01	-1.00000000E-02
	 1.00000000E+00	 2.50000000E-01	 1.00000000E-02
	 7.50000000E-01	 5.00000000E-01	-1.25000000E-02
	 7.50000000E-01	 5.00000000E-01	 1.25000000E-02
	 1.00000000E+00	 1.00000000E+00	-1.00000000E-02
	 1.00000000E+00	 1.00000000E+00	 0.00000000E+00
	 1.00000000E+00	 1.00000000E+00	 1.00000000E-02
	 1.00000000E+00	 7.50000000E-01	-1.00000000E-02
	 1.00000000E+00	 7.50000000E-01	 1.00000000E-02
	 7.50000000E-01	 1.00000000E+00	-1.25000000E-02
	 7.50000000E-01	 1.00000000E+00	 1.25000000E-02

CELLS 4 84
	20 0 3 6 9 2 5 8 11 12 14 16 18 13 15 17 19 1 4 7 10 
	20 9 6 20 23 11 8 22 25 16 26 28 30 17 27 29 31 10 7 21 24 
	20 3 32 35 6 5 34 37 8 38 40 42 14 39 41 43 15 4 33 36 7 
	20 6 35 44 20 8 37 46 22 42 47 49 26 43 48 50 27 7 36 45 21 

CELL_TYPES 4
	25
	25
	25
	25

POINT_DATA 51
FIELD U 1
	U 3 51 double
		 0.00000000E+00	 0.00000000E+00	-5.88578000E-06
		 0.00000000E+00	 0.00000000E+00	 0.00000000E+00
		 0.00000000E+00	 0.00000000E+00	 5.88578000E-06
		-1.14390000E-03	-4.11579000E-05	-1.78777000E-02
		-3.46226000E-04	 7.85345000E-07	-1.78986000E-02
		 4.51449000E-04	 4.26953000E-05	-1.79216000E-02
		-1.21654000E-03	-4.58503000E-13	-1.84199000E-02
		-3.73320000E-04	-7.70513000E-14	-1.84475000E-02
		 4.69784000E-04	 3.04379000E-13	-1.84777000E-02
		 0.00000000E+00	 0.00000000E+00	-1.11038000E-06
		 0.00000000E+00	 0.00000000E+00	 0.00000000E+00
		 0.00000000E+00	 0.00000000E+00	 1.11038000E-06
		-5.30478000E-04	-1.25398000E-05	-6.64273000E-03
		 3.49955000E-04	 1.26683000E-05	-6.66194000E-03
		-1.08217000E-03	-9.69386000E-06	-1.83340000E-02
		 3.45154000E-04	 1.01294000E-05	-1.83707000E-02
		-5.43800000E-04	-1.26751000E-13	-6.72152000E-03
		 3.55582000E-04	 1.16780000E-13	-6.73677000E-03
		 0.00000000E+00	 0.00000000E+00	 8.01711000E-07
		 0.00000000E+00	 0.00000000E+00	-8.01711000E-07
		-1.14390000E-03	 4.11579000E-05	-1.78777000E-02
		-3.46226000E-04	-7.85346000E-07	-1.78986000E-02
		 4.51449000E-04	-4.26953000E-05	-1.79216000E-02
		 0.00000000E+00	 0.00000000E+00	-5.88578000E-06
		 0.00000000E+00	 0.00000000E+00	 0.00000000E+00
		 0.00000000E+00	 0.00000000E+00	 5.88578000E-06
		-1.08217000E-03	 9.69386000E-06	-1.83340000E-02
		 3.45154000E-04	-1.01293000E-05	-1.83707000E-02
		-5.30478000E-04	 1.25398000E-05	-6.64273000E-03
		 3.49955000E-04	-1.26683000E-05	-6.66194000E-03
		 0.00000000E+00	 0.00000000E+00	 8.01711000E-07
		 0.00000000E+00	 0.00000000E+00	-8.01711000E-07
		-1.43233000E-03	-2.66662000E-05	-4.31419000E-02
		-9.83459000E-04	 1.03067000E-06	-4.31517000E-02
		-5.34578000E-04	 2.87491000E-05	-4.31599000E-02
		-1.54751000E-03	-6.97358000E-13	-4.43421000E-02
		-1.04539000E-03	-2.83513000E-13	-4.43590000E-02
		-5.42933000E-04	 1.30334000E-13	-4.43747000E-02
		-1.31938000E-03	-3.99993000E-05	-3.04345000E-02
		-2.77988000E-06	 4.16686000E-05	-3.04701000E-02
		-1.56087000E-03	-2.66466000E-05	-4.39425000E-02
		-4.88970000E-04	 2.65488000E-05	-4.39758000E-02
		-1.35914000E-03	-6.40056000E-13	-3.12354000E-02
		-4.35921000E-05	 2.95002000E-13	-3.12661000E-02
		-1.43233000E-03	 2.66662000E-05	-4.31419000E-02
		-9.83459000E-04	-1.03067000E-06	-4.31517000E-02
		-5.34578000E-04	-2.87491000E-05	-4.31599000E-02
		-1.56087000E-03	 2.66466000E-05	-4.39425000E-02
		-4.88970000E-04	-2.65488000E-05	-4.39758000E-02
		-1.31938000E-03	 3.99993000E-05	-3.04345000E-02
		-2.77988000E-06	-4.16686000E-05	-3.04701000E-02
FIELD S 1
	S 10 51 double
		-3.99831000E+02	-1.71682000E+02	-1.64375000E+02	 7.22590000E-02	 1.16932000E+00	 1.24253000E+01	 2.32894236E+02	-4.00484883E+02	-1.71850815E+02	-1.63552303E+02
		 9.62348000E-01	 4.07929000E-02	-5.58067000E-01	-7.18341000E-01	-1.55659000E+00	 5.47279000E+00	 1.00215283E+01	-5.41733273E+00	-2.69472409E-01	 6.13187903E+00
		 4.01755000E+02	 1.71764000E+02	 1.63259000E+02	-1.50894000E+00	-4.28250000E+00	-1.47972000E+00	 2.34505197E+02	 1.61460543E+02	 1.73543720E+02	 4.01773737E+02
		-8.33998000E+00	 4.66777000E+01	 4.49867000E+01	 5.84433000E+01	-2.95665000E+00	-1.87371000E+00	 1.14979935E+02	-4.54249137E+01	 4.46732501E+01	 8.40760836E+01
		-1.22730000E-01	-7.49281000E-02	 4.22192000E-01	 1.79644000E-01	 8.64924000E-01	-4.31068000E+00	 7.63938213E+00	-4.29429550E+00	-6.93640829E-03	 4.52576581E+00
		 8.09452000E+00	-4.68276000E+01	-4.41423000E+01	-5.80840000E+01	 4.68650000E+00	-6.74766000E+00	 1.14890833E+02	-8.36180945E+01	-4.48896469E+01	 4.56323614E+01
		 8.47309000E+00	 1.54666000E+01	 4.77048000E+01	 3.61574000E-08	-1.71328000E-08	 6.85751000E+00	 3.81411225E+01	 7.30897361E+00	 1.54666000E+01	 4.88689164E+01
		 1.38903000E-01	-1.56806000E-01	-3.24348000E-01	-3.58950000E-09	-1.31021000E-08	 4.31231000E+00	 7.48018118E+00	-4.41124863E+00	-1.56806000E-01	 4.22580363E+00
		-8.19528000E+00	-1.57802000E+01	-4.83535000E+01	-4.33364000E-08	-9.07151000E-09	 1.76712000E+00	 3.70807888E+01	-4.84311103E+01	-1.57802000E+01	-8.11766974E+00
		-3.99574000E+02	-1.70303000E+02	-1.60351000E+02	 1.27941000E-08	 2.86325000E-08	-3.11768000E+00	 2.34467692E+02	-3.99614624E+02	-1.70303000E+02	-1.60310376E+02
		-9.47754000E-01	-3.02399000E-01	-1.15170000E-01	 1.31578000E-08	 2.24923000E-08	-5.49135000E+00	 9.54133855E+00	-6.03856867E+00	-3.02399000E-01	 4.97564467E+00
		 3.97678000E+02	 1.69698000E+02	 1.60121000E+02	 1.35216000E-08	 1.63522000E-08	-7.86501000E+00	 2.33314249E+02	 1.59860891E+02	 1.69698000E+02	 3.97938109E+02
		-1.85795000E+02	-5.58037000E+01	-5.22442000E+01	 2.78184000E+01	-3.37880000E+00	 4.01651000E+00	 1.40631960E+02	-1.91650702E+02	-5.37888029E+01	-4.84033955E+01
		 1.86470000E+02	 5.57371000E+01	 5.22786000E+01	-2.86357000E+01	-2.39993000E+00	-4.40903000E+00	 1.41742018E+02	 4.74851641E+01	 5.44290398E+01	 1.92571496E+02
		 6.65519000E-02	 3.10722000E+01	 4.63457000E+01	-7.82175000E+00	-5.91876000E-01	 2.49190000E+00	 4.32598399E+01	-1.90338366E+00	 3.28363608E+01	 4.65514748E+01
		-5.03789000E-02	-3.13039000E+01	-4.62479000E+01	 7.72528000E+00	-1.54325000E+00	-2.49027000E+00	 4.32660073E+01	-4.64732680E+01	-3.30438976E+01	 1.91498669E+00
		-2.13690000E+02	-8.63567000E+01	-6.47619000E+01	 2.23601000E-08	 2.94728000E-09	 5.47937000E+00	 1.39713680E+02	-2.13891325E+02	-8.63567000E+01	-6.45605749E+01
		 2.13054000E+02	 8.60691000E+01	 6.44451000E+01	-1.36997000E-08	 8.45547000E-10	-5.09178000E+00	 1.39342967E+02	 6.42708449E+01	 8.60691000E+01	 2.13228255E+02
		-3.99702000E+02	-1.70993000E+02	-1.62363000E+02	 1.76141000E+00	 4.38134000E+00	 4.65381000E+00	 2.33426460E+02	-3.99805487E+02	-1.72827290E+02	-1.60425223E+02
		 3.99717000E+02	 1.70731000E+02	 1.61690000E+02	-1.42852000E+00	 4.53321000E+00	-4.67236000E+00	 2.33922755E+02	 1.59749207E+02	 1.72570060E+02	 3.99818733E+02
		-8.33998000E+00	 4.66777000E+01	 4.49867000E+01	-5.84433000E+01	 2.95665000E+00	-1.87371000E+00	 1.14979935E+02	-4.54249137E+01	 4.46732501E+01	 8.40760836E+01
		-1.22730000E-01	-7.49281000E-02	 4.22192000E-01	-1.79644000E-01	-8.64924000E-01	-4.31068000E+00	 7.63938213E+00	-4.29429550E+00	-6.93640829E-03	 4.52576581E+00
		 8.09452000E+00	-4.68276000E+01	-4.41423000E+01	 5.80840000E+01	-4.68650000E+00	-6.74766000E+00	 1.14890833E+02	-8.36180945E+01	-4.48896469E+01	 4.56323614E+01
		-3.99831000E+02	-1.71682000E+02	-1.64375000E+02	-7.22592000E-02	-1.16932000E+00	 1.24253000E+01	 2.32894236E+02	-4.00484883E+02	-1.71850815E+02	-1.63552303E+02
		 9.62348000E-01	 4.07929000E-02	-5.58067000E-01	 7.18341000E-01	 1.55659000E+00	 5.47279000E+00	 1.00215283E+01	-5.41733273E+00	-2.69472409E-01	 6.13187903E+00
		 4.01755000E+02	 1.71764000E+02	 1.63259000E+02	 1.50894000E+00	 4.28250000E+00	-1.47972000E+00	 2.34505197E+02	 1.61460543E+02	 1.73543720E+02	 4.01773737E+02
		 6.65520000E-02	 3.10722000E+01	 4.63457000E+01	 7.82174000E+00	 5.91876000E-01	 2.49190000E+00	 4.32598344E+01	-1.90337910E+00	 3.28363564E+01	 4.65514747E+01
		-5.03790000E-02	-3.13039000E+01	-4.62479000E+01	-7.72528000E+00	 1.54325000E+00	-2.49027000E+00	 4.32660072E+01	-4.64732680E+01	-3.30438976E+01	 1.91498660E+00
		-1.85795000E+02	-5.58037000E+01	-5.22442000E+01	-2.78184000E+01	 3.37880000E+00	 4.01651000E+00	 1.40631960E+02	-1.91650702E+02	-5.37888029E+01	-4.84033955E+01
		 1.86470000E+02	 5.57371000E+01	 5.22786000E+01	 2.86357000E+01	 2.39993000E+00	-4.40903000E+00	 1.41742018E+02	 4.74851641E+01	 5.44290398E+01	 1.92571496E+02
		-3.99702000E+02	-1.70993000E+02	-1.62363000E+02	-1.76141000E+00	-4.38134000E+00	 4.65381000E+00	 2.33426460E+02	-3.99805487E+02	-1.72827290E+02	-1.60425223E+02
		 3.99717000E+02	 1.70731000E+02	 1.61690000E+02	 1.42852000E+00	-4.53321000E+00	-4.67236000E+00	 2.33922755E+02	 1.59749207E+02	 1.72570060E+02	 3.99818733E+02
		 4.73408000E+01	 1.62722000E+00	-1.50150000E+01	-4.19548000E+01	-1.12263000E+00	-1.17077000E+00	 9.17386454E+01	-2.35783343E+01	-1.47317693E+01	 7.22631236E+01
		 2.47434000E-01	 4.35621000E-02	-1.62480000E-01	-1.60239000E-01	-3.66929000E+00	 1.75538000E+00	 7.05961734E+00	-4.05356670E+00	 8.42206765E-02	 4.09786213E+00
		-4.68460000E+01	-1.54010000E+00	 1.46900000E+01	 4.16343000E+01	-6.21594000E+00	 4.68153000E+00	 9.18328303E+01	-7.21884156E+01	 1.43136970E+01	 2.41786186E+01
		-4.72192000E+01	 1.12551000E+01	-3.23562000E+01	-1.51637000E-07	 5.87328000E-09	 1.07482000E+00	 5.26736625E+01	-4.72965235E+01	-3.22788765E+01	 1.12551000E+01
		-2.48181000E-01	 3.90474000E-01	 2.29144000E-01	-1.66714000E-09	-2.00913000E-09	-1.75181000E+00	 3.08826621E+00	-1.77751117E+00	 3.90474000E-01	 1.75847417E+00
		 4.67229000E+01	-1.04741000E+01	 3.28145000E+01	 1.48302000E-07	-9.89154000E-09	-4.57844000E+00	 5.22714835E+01	-1.04741000E+01	 3.14426559E+01	 4.80947441E+01
		 1.21042000E+00	 1.74540000E+01	 7.53592000E+00	 9.68362000E+00	 4.45494000E-01	-2.62950000E-01	 2.19826611E+01	-3.32322536E+00	 7.54675503E+00	 2.19768103E+01
		-9.20994000E-01	-1.74529000E+01	-7.44648000E+00	-9.38563000E+00	 1.83721000E+00	-7.37720000E-01	 2.20008188E+01	-2.18249567E+01	-7.50274463E+00	 3.50732732E+00
		 6.07910000E-02	 6.44114000E+00	-2.36856000E+01	-4.44402000E+00	 1.02101000E+00	-4.79757000E-02	 2.86093067E+01	-2.37206163E+01	-2.21122999E+00	 8.74817728E+00
		-6.15383000E-02	-6.00710000E+00	 2.37523000E+01	 4.74969000E+00	 7.61789000E-01	 5.15449000E-02	 2.85212701E+01	-8.65032388E+00	 2.56090114E+00	 2.37730844E+01
		-1.23281000E+00	 2.22993000E+01	 1.61131000E+01	-5.56239000E-08	-2.82716000E-09	 3.56705000E-01	 2.11385110E+01	-1.24014226E+00	 1.61204323E+01	 2.22993000E+01
		 9.51017000E-01	-2.22373000E+01	-1.63310000E+01	 5.12752000E-08	-6.68671000E-09	 6.37176000E-01	 2.09007954E+01	-2.22373000E+01	-1.63544604E+01	 9.74477390E-01
		 4.73408000E+01	 1.62722000E+00	-1.50150000E+01	 4.19548000E+01	 1.12263000E+00	-1.17077000E+00	 9.17386454E+01	-2.35783343E+01	-1.47317693E+01	 7.22631236E+01
		 2.47434000E-01	 4.35621000E-02	-1.62480000E-01	 1.60239000E-01	 3.66929000E+00	 1.75538000E+00	 7.05961734E+00	-4.05356670E+00	 8.42206765E-02	 4.09786213E+00
		-4.68460000E+01	-1.54010000E+00	 1.46900000E+01	-4.16343000E+01	 6.21594000E+00	 4.68153000E+00	 9.18328303E+01	-7.21884156E+01	 1.43136970E+01	 2.41786186E+01
		 6.07911000E-02	 6.44114000E+00	-2.36856000E+01	 4.44402000E+00	-1.02101000E+00	-4.79757000E-02	 2.86093068E+01	-2.37206163E+01	-2.21122991E+00	 8.74817730E+00
		-6.15384000E-02	-6.00710000E+00	 2.37523000E+01	-4.74969000E+00	-7.61789000E-01	 5.15449000E-02	 2.85212701E+01	-8.65032390E+00	 2.56090106E+00	 2.37730844E+01
		 1.21042000E+00	 1.74540000E+01	 7.53592000E+00	-9.68362000E+00	-4.45494000E-01	-2.62950000E-01	 2.19826611E+01	-3.32322536E+00	 7.54675503E+00	 2.19768103E+01
		-9.20994000E-01	-1.74529000E+01	-7.44648000E+00	 9.38563000E+00	-1.83721000E+00	-7.37720000E-01	 2.20008188E+01	-2.18249567E+01	-7.50274463E+00	 3.50732732E+00
FIELD RF 1
	RF 3 51 double
		 1.24822000E-01	 7.86479000E-02	 3.82290000E+00
		-1.84767000E-01	 3.72246000E-02	-7.64039000E+00
		 6.06184000E-02	-1.15448000E-01	 3.82290000E+00
		-2.02160000E-07	 3.89068000E-08	 3.39549000E-06
		-5.07457000E-07	-3.81517000E-07	 3.46540000E-08
		 7.98552000E-07	 1.23716000E-07	-3.42564000E-06
		-3.32918000E-01	 9.50073000E-14	 1.87455000E-02
		-1.27444000E-06	 4.83925000E-13	 3.70613000E-07
		 3.32919000E-01	-1.68934000E-13	-1.87459000E-02
		 4.51402000E-01	-3.08252000E-11	 7.84911000E+00
		-4.54207000E-01	-1.03027000E-10	-1.56496000E+01
		 7.90033000E-03	 8.43480000E-11	 7.84911000E+00
		 2.01864000E-07	-1.42037000E-07	-3.00222000E-06
		-6.34590000E-07	-1.77642000E-08	 2.92597000E-06
		 1.79316000E-06	-9.25750000E-08	-1.44302000E-05
		-2.58603000E-06	 2.31908000E-08	 1.43253000E-05
		 4.42946000E-07	-1.14853000E-13	-5.96418000E-06
		-1.39028000E-06	 4.53304000E-13	 5.80863000E-06
		 3.55361000E-01	-2.33329000E-01	-1.48523000E-02
		-3.58583000E-01	 2.33699000E-01	-1.48492000E-02
		-2.02160000E-07	-3.89068000E-08	 3.39549000E-06
		-5.07458000E-07	 3.81517000E-07	 3.46620000E-08
		 7.98553000E-07	-1.23716000E-07	-3.42565000E-06
		 1.24822000E-01	-7.86479000E-02	 3.82290000E+00
		-1.84767000E-01	-3.72246000E-02	-7.64039000E+00
		 6.06184000E-02	 1.15448000E-01	 3.82290000E+00
		 1.79316000E-06	 9.25736000E-08	-1.44302000E-05
		-2.58603000E-06	-2.31896000E-08	 1.43253000E-05
		 2.01863000E-07	 1.42036000E-07	-3.00222000E-06
		-6.34590000E-07	 1.77645000E-08	 2.92597000E-06
		 3.55361000E-01	 2.33329000E-01	-1.48523000E-02
		-3.58583000E-01	-2.33699000E-01	-1.48492000E-02
		-4.76452000E-07	 1.41314000E-07	 2.73310000E-06
		 3.69317000E-07	-3.36683000E-07	 6.32673000E-08
		 3.40210000E-07	 9.48059000E-08	-2.76220000E-06
		-7.11937000E-07	 2.27179000E-13	 4.56082000E-06
		 7.51630000E-07	-1.75585000E-13	 3.06241000E-08
		 6.77287000E-07	-1.60323000E-13	-4.50340000E-06
		 1.50502000E-06	-2.27634000E-07	-1.05066000E-05
		-1.54113000E-06	-4.28186000E-07	 1.05128000E-05
		 2.25088000E-06	 7.34671000E-08	-1.18811000E-05
		-1.15299000E-06	-1.71953000E-07	 1.20382000E-05
		 3.27706000E-06	-1.55306000E-12	-2.29571000E-05
		-3.48412000E-06	 9.26287000E-13	 2.29538000E-05
		-4.76452000E-07	-1.41313000E-07	 2.73309000E-06
		 3.69318000E-07	 3.36683000E-07	 6.32865000E-08
		 3.40210000E-07	-9.48063000E-08	-2.76221000E-06
		 2.25088000E-06	-7.34686000E-08	-1.18812000E-05
		-1.15299000E-06	 1.71954000E-07	 1.20382000E-05
		 1.50502000E-06	 2.27634000E-07	-1.05067000E-05
		-1.54114000E-06	 4.28187000E-07	 1.05128000E-05
