# vtk DataFile Version 3.0

ASCII
DATASET UNSTRUCTURED_GRID

POINTS 102 double
	-7.45058000E-09	-7.45058000E-09	-1.00000000E-02
	-7.45058000E-09	-7.45058000E-09	-5.00000000E-03
	-7.45058000E-09	-7.45058000E-09	 0.00000000E+00
	-7.45058000E-09	-7.45058000E-09	 0.00000000E+00
	-7.45058000E-09	-7.45058000E-09	 5.00000000E-03
	-7.45058000E-09	-7.45058000E-09	 1.00000000E-02
	 5.00000000E-01	-7.45058000E-09	-1.00000000E-02
	 5.00000000E-01	-7.45058000E-09	-5.00000000E-03
	 5.00000000E-01	-7.45058000E-09	 0.00000000E+00
	 5.00000000E-01	-7.45058000E-09	 0.00000000E+00
	 5.00000000E-01	-7.45058000E-09	 5.00000000E-03
	 5.00000000E-01	-7.45058000E-09	 1.00000000E-02
	 5.00000000E-01	 5.00000000E-02	-1.00000000E-02
	 5.00000000E-01	 5.00000000E-02	-5.00000000E-03
	 5.00000000E-01	 5.00000000E-02	 0.00000000E+00
	 5.00000000E-01	 5.00000000E-02	 0.00000000E+00
	 5.00000000E-01	 5.00000000E-02	 5.00000000E-03
	 5.00000000E-01	 5.00000000E-02	 1.00000000E-02
	-7.45058000E-09	 5.00000000E-02	-1.00000000E-02
	-7.45058000E-09	 5.00000000E-02	-5.00000000E-03
	-7.45058000E-09	 5.00000000E-02	 0.00000000E+00
	-7.45058000E-09	 5.00000000E-02	 0.00000000E+00
	-7.45058000E-09	 5.00000000E-02	 5.00000000E-03
	-7.45058000E-09	 5.00000000E-02	 1.00000000E-02
	 2.50000000E-01	-7.45058000E-09	-1.00000000E-02
	 2.50000000E-01	-7.45058000E-09	 0.00000000E+00
	 2.50000000E-01	-7.45058000E-09	 0.00000000E+00
	 2.50000000E-01	-7.45058000E-09	 1.00000000E-02
	 5.00000000E-01	 2.50000000E-02	-1.00000000E-02
	 5.00000000E-01	 2.50000000E-02	 0.00000000E+00
	 5.00000000E-01	 2.50000000E-02	 0.00000000E+00
	 5.00000000E-01	 2.50000000E-02	 1.00000000E-02
	 2.50000000E-01	 5.00000000E-02	-1.00000000E-02
	 2.50000000E-01	 5.00000000E-02	 0.00000000E+00
	 2.50000000E-01	 5.00000000E-02	 0.00000000E+00
	 2.50000000E-01	 5.00000000E-02	 1.00000000E-02
	-7.45058000E-09	 2.50000000E-02	-1.00000000E-02
	-7.45058000E-09	 2.50000000E-02	 0.00000000E+00
	-7.45058000E-09	 2.50000000E-02	 0.00000000E+00
	-7.45058000E-09	 2.50000000E-02	 1.00000000E-02
	 5.00000000E-01	 1.00000000E-01	-1.00000000E-02
	 5.00000000E-01	 1.00000000E-01	-5.00000000E-03
	 5.00000000E-01	 1.00000000E-01	 0.00000000E+00
	 5.00000000E-01	 1.00000000E-01	 0.00000000E+00
	 5.00000000E-01	 1.00000000E-01	 5.00000000E-03
	 5.00000000E-01	 1.00000000E-01	 1.00000000E-02
	-7.45058000E-09	 1.00000000E-01	-1.00000000E-02
	-7.45058000E-09	 1.00000000E-01	-5.00000000E-03
	-7.45058000E-09	 1.00000000E-01	 0.00000000E+00
	-7.45058000E-09	 1.00000000E-01	 0.00000000E+00
	-7.45058000E-09	 1.00000000E-01	 5.00000000E-03
	-7.45058000E-09	 1.00000000E-01	 1.00000000E-02
	 5.00000000E-01	 7.50000000E-02	-1.00000000E-02
	 5.00000000E-01	 7.50000000E-02	 0.00000000E+00
	 5.00000000E-01	 7.50000000E-02	 0.00000000E+00
	 5.00000000E-01	 7.50000000E-02	 1.00000000E-02
	 2.50000000E-01	 1.00000000E-01	-1.00000000E-02
	 2.50000000E-01	 1.00000000E-01	 0.00000000E+00
	 2.50000000E-01	 1.00000000E-01	 0.00000000E+00
	 2.50000000E-01	 1.00000000E-01	 1.00000000E-02
	-7.45058000E-09	 7.50000000E-02	-1.00000000E-02
	-7.45058000E-09	 7.50000000E-02	 0.00000000E+00
	-7.45058000E-09	 7.50000000E-02	 0.00000000E+00
	-7.45058000E-09	 7.50000000E-02	 1.00000000E-02
	 1.00000000E+00	-7.45058000E-09	-1.00000000E-02
	 1.00000000E+00	-7.45058000E-09	-5.00000000E-03
	 1.00000000E+00	-7.45058000E-09	 0.00000000E+00
	 1.00000000E+00	-7.45058000E-09	 0.00000000E+00
	 1.00000000E+00	-7.45058000E-09	 5.00000000E-03
	 1.00000000E+00	-7.45058000E-09	 1.00000000E-02
	 1.00000000E+00	 5.00000000E-02	-1.00000000E-02
	 1.00000000E+00	 5.00000000E-02	-5.00000000E-03
	 1.00000000E+00	 5.00000000E-02	 0.00000000E+00
	 1.00000000E+00	 5.00000000E-02	 0.00000000E+00
	 1.00000000E+00	 5.00000000E-02	 5.00000000E-03
	 1.00000000E+00	 5.00000000E-02	 1.00000000E-02
	 7.50000000E-01	-7.45058000E-09	-1.00000000E-02
	 7.50000000E-01	-7.45058000E-09	 0.00000000E+00
	 7.50000000E-01	-7.45058000E-09	 0.00000000E+00
	 7.50000000E-01	-7.45058000E-09	 1.00000000E-02
	 1.00000000E+00	 2.50000000E-02	-1.00000000E-02
	 1.00000000E+00	 2.50000000E-02	 0.00000000E+00
	 1.00000000E+00	 2.50000000E-02	 0.00000000E+00
	 1.00000000E+00	 2.50000000E-02	 1.00000000E-02
	 7.50000000E-01	 5.00000000E-02	-1.00000000E-02
	 7.50000000E-01	 5.00000000E-02	 0.00000000E+00
	 7.50000000E-01	 5.00000000E-02	 0.00000000E+00
	 7.50000000E-01	 5.00000000E-02	 1.00000000E-02
	 1.00000000E+00	 1.00000000E-01	-1.00000000E-02
	 1.00000000E+00	 1.00000000E-01	-5.00000000E-03
	 1.00000000E+00	 1.00000000E-01	 0.00000000E+00
	 1.00000000E+00	 1.00000000E-01	 0.00000000E+00
	 1.00000000E+00	 1.00000000E-01	 5.00000000E-03
	 1.00000000E+00	 1.00000000E-01	 1.00000000E-02
	 1.00000000E+00	 7.50000000E-02	-1.00000000E-02
	 1.00000000E+00	 7.50000000E-02	 0.00000000E+00
	 1.00000000E+00	 7.50000000E-02	 0.00000000E+00
	 1.00000000E+00	 7.50000000E-02	 1.00000000E-02
	 7.50000000E-01	 1.00000000E-01	-1.00000000E-02
	 7.50000000E-01	 1.00000000E-01	 0.00000000E+00
	 7.50000000E-01	 1.00000000E-01	 0.00000000E+00
	 7.50000000E-01	 1.00000000E-01	 1.00000000E-02

CELLS 8 168
	20 0 6 12 18 2 8 14 20 24 28 32 36 25 29 33 37 1 7 13 19 
	20 3 9 15 21 5 11 17 23 26 30 34 38 27 31 35 39 4 10 16 22 
	20 18 12 40 46 20 14 42 48 32 52 56 60 33 53 57 61 19 13 41 47 
	20 21 15 43 49 23 17 45 51 34 54 58 62 35 55 59 63 22 16 44 50 
	20 6 64 70 12 8 66 72 14 76 80 84 28 77 81 85 29 7 65 71 13 
	20 9 67 73 15 11 69 75 17 78 82 86 30 79 83 87 31 10 68 74 16 
	20 12 70 88 40 14 72 90 42 84 94 98 52 85 95 99 53 13 71 89 41 
	20 15 73 91 43 17 75 93 45 86 96 100 54 87 97 101 55 16 74 92 44 

CELL_TYPES 8
	25
	25
	25
	25
	25
	25
	25
	25

POINT_DATA 102
FIELD U 1
	U 3 102 double
		 0.00000000E+00	 0.00000000E+00	 3.99030000E-06
		 0.00000000E+00	 0.00000000E+00	 1.99515000E-06
		 0.00000000E+00	 0.00000000E+00	 0.00000000E+00
		 0.00000000E+00	 0.00000000E+00	 0.00000000E+00
		 0.00000000E+00	 0.00000000E+00	-1.99515000E-06
		 0.00000000E+00	 0.00000000E+00	-3.99030000E-06
		-4.80913000E-04	-3.51661000E-06	-1.59941000E-02
		-1.92345000E-04	-1.40983000E-06	-1.59935000E-02
		 9.61909000E-05	 6.98572000E-07	-1.59939000E-02
		 9.61909000E-05	 6.98572000E-07	-1.59939000E-02
		 3.84694000E-04	 2.80859000E-06	-1.59951000E-02
		 6.73165000E-04	 4.92022000E-06	-1.59971000E-02
		-4.77393000E-04	-2.87195000E-12	-1.60096000E-02
		-1.90941000E-04	-1.16695000E-12	-1.60071000E-02
		 9.54937000E-05	 5.37447000E-13	-1.60055000E-02
		 9.54937000E-05	 5.37447000E-13	-1.60055000E-02
		 3.81912000E-04	 2.24123000E-12	-1.60048000E-02
		 6.68314000E-04	 3.94440000E-12	-1.60050000E-02
		 0.00000000E+00	 0.00000000E+00	 1.15086000E-07
		 0.00000000E+00	 0.00000000E+00	 5.75430000E-08
		 0.00000000E+00	 0.00000000E+00	 0.00000000E+00
		 0.00000000E+00	 0.00000000E+00	 0.00000000E+00
		 0.00000000E+00	 0.00000000E+00	-5.75430000E-08
		 0.00000000E+00	 0.00000000E+00	-1.15086000E-07
		-2.79617000E-04	-1.52171000E-05	-4.38438000E-03
		 5.59296000E-05	 3.04426000E-06	-4.38383000E-03
		 5.59296000E-05	 3.04426000E-06	-4.38383000E-03
		 3.91411000E-04	 2.13088000E-05	-4.38500000E-03
		-4.79147000E-04	-1.74109000E-06	-1.60116000E-02
		 9.58410000E-05	 3.45667000E-07	-1.60104000E-02
		 9.58410000E-05	 3.45667000E-07	-1.60104000E-02
		 6.70731000E-04	 2.43565000E-06	-1.60128000E-02
		-2.80697000E-04	 1.52938000E-11	-4.42767000E-03
		 5.61366000E-05	-3.08902000E-12	-4.42903000E-03
		 5.61366000E-05	-3.08902000E-12	-4.42903000E-03
		 3.92937000E-04	-2.14730000E-11	-4.43215000E-03
		 0.00000000E+00	 0.00000000E+00	-1.46454000E-06
		 0.00000000E+00	 0.00000000E+00	 1.05879000E-22
		 0.00000000E+00	 0.00000000E+00	 1.05879000E-22
		 0.00000000E+00	 0.00000000E+00	 1.46454000E-06
		-4.80913000E-04	 3.51660000E-06	-1.59941000E-02
		-1.92345000E-04	 1.40982000E-06	-1.59935000E-02
		 9.61909000E-05	-6.98570000E-07	-1.59939000E-02
		 9.61909000E-05	-6.98570000E-07	-1.59939000E-02
		 3.84694000E-04	-2.80858000E-06	-1.59951000E-02
		 6.73165000E-04	-4.92020000E-06	-1.59971000E-02
		 0.00000000E+00	 0.00000000E+00	 3.99030000E-06
		 0.00000000E+00	 0.00000000E+00	 1.99515000E-06
		 0.00000000E+00	 0.00000000E+00	 0.00000000E+00
		 0.00000000E+00	 0.00000000E+00	 0.00000000E+00
		 0.00000000E+00	 0.00000000E+00	-1.99515000E-06
		 0.00000000E+00	 0.00000000E+00	-3.99030000E-06
		-4.79147000E-04	 1.74108000E-06	-1.60116000E-02
		 9.58410000E-05	-3.45666000E-07	-1.60104000E-02
		 9.58410000E-05	-3.45666000E-07	-1.60104000E-02
		 6.70731000E-04	-2.43564000E-06	-1.60128000E-02
		-2.79617000E-04	 1.52171000E-05	-4.38438000E-03
		 5.59296000E-05	-3.04427000E-06	-4.38383000E-03
		 5.59296000E-05	-3.04427000E-06	-4.38383000E-03
		 3.91411000E-04	-2.13089000E-05	-4.38500000E-03
		 0.00000000E+00	 0.00000000E+00	-1.46454000E-06
		 0.00000000E+00	 0.00000000E+00	 0.00000000E+00
		 0.00000000E+00	 0.00000000E+00	 0.00000000E+00
		 0.00000000E+00	 0.00000000E+00	 1.46454000E-06
		-5.85063000E-04	 1.06253000E-05	-4.96017000E-02
		-2.34040000E-04	 4.25006000E-06	-4.96030000E-02
		 1.16978000E-04	-2.12866000E-06	-4.96041000E-02
		 1.16978000E-04	-2.12866000E-06	-4.96041000E-02
		 4.67990000E-04	-8.51082000E-06	-4.96048000E-02
		 8.18996000E-04	-1.48964000E-05	-4.96052000E-02
		-5.78748000E-04	-7.53399000E-12	-4.95751000E-02
		-2.31504000E-04	-3.29974000E-12	-4.95746000E-02
		 1.15733000E-04	 9.35380000E-13	-4.95737000E-02
		 1.15733000E-04	 9.35380000E-13	-4.95737000E-02
		 4.62962000E-04	 5.17138000E-12	-4.95725000E-02
		 8.10184000E-04	 9.40826000E-12	-4.95709000E-02
		-5.73023000E-04	-7.46793000E-06	-3.20129000E-02
		 1.14602000E-04	 1.50065000E-06	-3.20115000E-02
		 1.14602000E-04	 1.50065000E-06	-3.20115000E-02
		 8.02150000E-04	 1.04656000E-05	-3.20113000E-02
		-5.82449000E-04	 5.33871000E-06	-4.95851000E-02
		 1.16465000E-04	-1.06917000E-06	-4.95851000E-02
		 1.16465000E-04	-1.06917000E-06	-4.95851000E-02
		 8.15352000E-04	-7.48393000E-06	-4.95838000E-02
		-5.74666000E-04	-1.16932000E-11	-3.20325000E-02
		 1.14920000E-04	 2.06807000E-12	-3.20331000E-02
		 1.14920000E-04	 2.06807000E-12	-3.20331000E-02
		 8.04457000E-04	 1.58299000E-11	-3.20348000E-02
		-5.85063000E-04	-1.06254000E-05	-4.96017000E-02
		-2.34040000E-04	-4.25006000E-06	-4.96030000E-02
		 1.16978000E-04	 2.12866000E-06	-4.96041000E-02
		 1.16978000E-04	 2.12866000E-06	-4.96041000E-02
		 4.67990000E-04	 8.51083000E-06	-4.96048000E-02
		 8.18996000E-04	 1.48964000E-05	-4.96052000E-02
		-5.82449000E-04	-5.33872000E-06	-4.95851000E-02
		 1.16465000E-04	 1.06917000E-06	-4.95851000E-02
		 1.16465000E-04	 1.06917000E-06	-4.95851000E-02
		 8.15352000E-04	 7.48394000E-06	-4.95838000E-02
		-5.73023000E-04	 7.46790000E-06	-3.20129000E-02
		 1.14602000E-04	-1.50065000E-06	-3.20115000E-02
		 1.14602000E-04	-1.50065000E-06	-3.20115000E-02
		 8.02150000E-04	-1.04656000E-05	-3.20113000E-02
FIELD S 1
	S 10 102 double
		-6.77587000E+02	-2.07669000E+02	-2.65869000E+02	-2.46413000E+01	 4.36331000E+01	 2.31488000E+00	 4.52117394E+02	-6.78927105E+02	-2.88740381E+02	-1.83457514E+02
		-2.71121000E+02	-8.31733000E+01	-1.06581000E+02	-9.86860000E+00	 6.63848000E+01	 4.09139000E+00	 2.12216979E+02	-2.72038807E+02	-1.61467937E+02	-2.73685564E+01
		 1.35345000E+02	 4.13225000E+01	 5.27073000E+01	 4.90405000E+00	 8.91366000E+01	 5.86790000E+00	 1.78636119E+02	-4.23043614E+01	 1.28188895E+02	 1.43490266E+02
		 6.76640000E+01	 2.06603000E+01	 2.63524000E+01	 2.45211000E+00	 4.45685000E+01	 2.93398000E+00	 8.93146958E+01	-2.11534706E+01	 6.40894165E+01	 7.17407541E+01
		 2.70860000E+02	 8.28925000E+01	 1.05981000E+02	 9.83896000E+00	 5.59444000E+01	 3.54260000E+00	 2.03082164E+02	 3.71889596E+01	 1.50891903E+02	 2.71652638E+02
		 4.74056000E+02	 1.45125000E+02	 1.85609000E+02	 1.72258000E+01	 6.73203000E+01	 4.15122000E+00	 3.33250754E+02	 9.47287648E+01	 2.34893181E+02	 4.75168054E+02
		-2.06074000E+02	 6.00873000E+01	 7.74719000E+01	 4.60083000E+00	-1.33885000E+01	-3.13824000E+00	 2.76409070E+02	-2.06183358E+02	 5.28418458E+01	 8.48267118E+01
		-8.23955000E+01	 2.40666000E+01	 3.10633000E+01	 1.82350000E+00	-1.98327000E+01	-4.21837000E+00	 1.15634698E+02	-8.25635633E+01	 7.44520140E+00	 4.78527619E+01
		 4.12830000E+01	-1.19542000E+01	-1.53452000E+01	-9.53831000E-01	-2.62770000E+01	-5.29850000E+00	 7.20043024E+01	-4.02322235E+01	 1.23891512E+01	 4.18266724E+01
		 2.06359000E+01	-5.97810000E+00	-7.67389000E+00	-4.76900000E-01	-1.31386000E+01	-2.64924000E+00	 3.59988695E+01	-2.01173781E+01	 6.19349596E+00	 2.09077922E+01
		 8.24640000E+01	-2.40082000E+01	-3.08874000E+01	-1.81515000E+00	-1.64034000E+01	-3.14175000E+00	 1.13854324E+02	-4.43092242E+01	-1.06911486E+01	 8.25687727E+01
		 1.44292000E+02	-4.20382000E+01	-5.41009000E+01	-3.15340000E+00	-1.96682000E+01	-3.63425000E+00	 1.95811304E+02	-6.87497598E+01	-2.74981701E+01	 1.44400830E+02
		-2.10603000E+02	 5.74363000E+01	 7.70210000E+01	-3.55197000E-05	 1.65888000E-06	-8.47990000E-01	 2.78352750E+02	-2.10605500E+02	 5.74363000E+01	 7.70235001E+01
		-8.42616000E+01	 2.29603000E+01	 3.07648000E+01	-1.41544000E-05	 1.54388000E-06	-1.41687000E+00	 1.11356553E+02	-8.42790500E+01	 2.29603000E+01	 3.07822500E+01
		 4.20799000E+01	-1.15158000E+01	-1.54914000E+01	 7.21096000E-06	 1.42889000E-06	-1.98575000E+00	 5.57961390E+01	-1.55598112E+01	-1.15158000E+01	 4.21483112E+01
		 2.10343000E+01	-5.75887000E+00	-7.74698000E+00	 3.60559000E-06	 7.14429000E-07	-9.92860000E-01	 2.78935767E+01	-7.78118976E+00	-5.75887000E+00	 2.10685098E+01
		 8.41931000E+01	-2.30169000E+01	-3.08847000E+01	 1.41632000E-05	 6.84392000E-07	-1.22268000E+00	 1.11372699E+02	-3.08976893E+01	-2.30169000E+01	 8.42060893E+01
		 1.47352000E+02	-4.02750000E+01	-5.40224000E+01	 2.47208000E-05	 6.54355000E-07	-1.45251000E+00	 1.94880976E+02	-5.40328764E+01	-4.02750000E+01	 1.47362476E+02
		-6.86074000E+02	-2.11088000E+02	-2.68779000E+02	 3.79963000E-05	-7.65646000E-06	-8.28993000E+00	 4.49158884E+02	-6.86238622E+02	-2.68614378E+02	-2.11088000E+02
		-2.74314000E+02	-8.43237000E+01	-1.07222000E+02	 1.51848000E-05	-7.38428000E-06	-1.02559000E+01	 1.80515212E+02	-2.74941141E+02	-1.06594859E+02	-8.43237000E+01
		 1.37445000E+02	 4.24409000E+01	 5.43349000E+01	-7.62661000E-06	-7.11209000E-06	-1.22218000E+01	 9.21161477E+01	 4.24409000E+01	 5.25748882E+01	 1.39205012E+02
		 6.87143000E+01	 2.12195000E+01	 2.71662000E+01	-3.81350000E-06	-3.55603000E-06	-6.11089000E+00	 4.60511766E+01	 2.12195000E+01	 2.62860557E+01	 6.95944443E+01
		 2.74575000E+02	 8.45938000E+01	 1.07937000E+02	-1.52194000E-05	-3.41992000E-06	-7.37776000E+00	 1.79906326E+02	 8.45938000E+01	 1.07610994E+02	 2.74901006E+02
		 4.80436000E+02	 1.47968000E+02	 1.88707000E+02	-2.66253000E-05	-3.28381000E-06	-8.64463000E+00	 3.14443019E+02	 1.47968000E+02	 1.88451063E+02	 4.80691937E+02
		-4.56666000E+02	-7.63779000E+01	-9.93558000E+01	-1.53347000E+00	 1.84237000E+01	-2.04471000E+00	 3.70738043E+02	-4.56683076E+02	-1.09576121E+02	-6.61405033E+01
		 9.13447000E+01	 1.52685000E+01	 1.98353000E+01	 2.78284000E-01	 3.47157000E+01	-2.71437000E+00	 9.53881245E+01	-1.72778377E+01	 5.22606585E+01	 9.14656793E+01
		 4.56632000E+01	 7.63270000E+00	 9.91567000E+00	 1.39123000E-01	 1.73579000E+01	-1.35717000E+00	 4.76883871E+01	-8.64072158E+00	 2.61285849E+01	 4.57237067E+01
		 3.19588000E+02	 5.34062000E+01	 6.94720000E+01	 1.09701000E+00	 2.54612000E+01	-2.25128000E+00	 2.62293862E+02	 3.47235453E+01	 8.81315358E+01	 3.19611119E+02
		-2.08339000E+02	 5.87618000E+01	 7.72464000E+01	 2.88006000E+00	-4.01898000E-01	-1.99312000E+00	 2.76873718E+02	-2.08383897E+02	 5.87831512E+01	 7.72699459E+01
		 4.16814000E+01	-1.17350000E+01	-1.54183000E+01	-6.10205000E-01	-3.04100000E-01	-3.64213000E+00	 5.57208841E+01	-1.56794064E+01	-1.17117524E+01	 4.19192587E+01
		 2.08351000E+01	-5.86848000E+00	-7.71044000E+00	-3.05078000E-01	-1.52050000E-01	-1.82105000E+00	 2.78560258E+01	-7.84100636E+00	-5.85685842E+00	 2.09540448E+01
		 1.45822000E+02	-4.11566000E+01	-5.40617000E+01	-1.94882000E+00	-1.88533000E-01	-2.54338000E+00	 1.93833492E+02	-5.40975787E+01	-4.11733318E+01	 1.45874611E+02
		-4.52460000E+02	-7.48877000E+01	-9.66663000E+01	-4.09124000E-06	-1.23785000E-06	-3.55164000E+00	 3.67219274E+02	-4.52495450E+02	-9.66308500E+01	-7.48877000E+01
		 9.05459000E+01	 1.50171000E+01	 1.93909000E+01	 8.77679000E-07	-1.07495000E-06	-3.71522000E+00	 7.37210314E+01	 1.50171000E+01	 1.91974430E+01	 9.07393570E+01
		 4.52638000E+01	 7.50702000E+00	 9.69345000E+00	 4.38822000E-07	-5.37463000E-07	-1.85759000E+00	 3.68531447E+01	 7.50702000E+00	 9.59670423E+00	 4.53605458E+01
		 3.16721000E+02	 5.24251000E+01	 6.76981000E+01	 2.79766000E-06	-4.28563000E-07	-2.50720000E+00	 2.57036679E+02	 5.24251000E+01	 6.76728597E+01	 3.16746240E+02
		-6.81830000E+02	-2.09379000E+02	-2.67324000E+02	-1.53768000E+01	 2.10491000E+00	-2.98753000E+00	 4.47147406E+02	-6.82350448E+02	-2.67386277E+02	-2.08796275E+02
		 1.36395000E+02	 4.18817000E+01	 5.35211000E+01	 3.04999000E+00	 2.15582000E+00	-3.17694000E+00	 8.96676655E+01	 4.13609195E+01	 5.38273876E+01	 1.36609493E+02
		 6.81892000E+01	 2.09399000E+01	 2.67593000E+01	 1.52504000E+00	 1.07791000E+00	-1.58845000E+00	 4.48266843E+01	 2.06794861E+01	 2.69124491E+01	 6.82964648E+01
		 4.77246000E+02	 1.46546000E+02	 1.87158000E+02	 1.07390000E+01	 1.10336000E+00	-2.24671000E+00	 3.12963592E+02	 1.46163907E+02	 1.87174915E+02	 4.77611178E+02
		-2.06074000E+02	 6.00873000E+01	 7.74719000E+01	-4.60088000E+00	 1.33885000E+01	-3.13825000E+00	 2.76409073E+02	-2.06183359E+02	 5.28418465E+01	 8.48267129E+01
		-8.23955000E+01	 2.40666000E+01	 3.10633000E+01	-1.82352000E+00	 1.98327000E+01	-4.21839000E+00	 1.15634701E+02	-8.25635652E+01	 7.44520133E+00	 4.78527638E+01
		 4.12830000E+01	-1.19542000E+01	-1.53452000E+01	 9.53841000E-01	 2.62770000E+01	-5.29852000E+00	 7.20043072E+01	-4.02322259E+01	 1.23891499E+01	 4.18266760E+01
		 2.06359000E+01	-5.97809000E+00	-7.67389000E+00	 4.76905000E-01	 1.31386000E+01	-2.64925000E+00	 3.59988684E+01	-2.01173747E+01	 6.19350070E+00	 2.09077940E+01
		 8.24640000E+01	-2.40081000E+01	-3.08874000E+01	 1.81517000E+00	 1.64034000E+01	-3.14176000E+00	 1.13854282E+02	-4.43091856E+01	-1.06910881E+01	 8.25687738E+01
		 1.44292000E+02	-4.20382000E+01	-5.41009000E+01	 3.15343000E+00	 1.96682000E+01	-3.63427000E+00	 1.95811307E+02	-6.87497613E+01	-2.74981701E+01	 1.44400831E+02
		-6.77587000E+02	-2.07669000E+02	-2.65869000E+02	 2.46413000E+01	-4.36331000E+01	 2.31490000E+00	 4.52117395E+02	-6.78927105E+02	-2.88740380E+02	-1.83457515E+02
		-2.71121000E+02	-8.31733000E+01	-1.06581000E+02	 9.86864000E+00	-6.63848000E+01	 4.09142000E+00	 2.12216986E+02	-2.72038815E+02	-1.61467929E+02	-2.73685559E+01
		 1.35345000E+02	 4.13225000E+01	 5.27073000E+01	-4.90407000E+00	-8.91366000E+01	 5.86794000E+00	 1.78636125E+02	-4.23043615E+01	 1.28188853E+02	 1.43490309E+02
		 6.76640000E+01	 2.06603000E+01	 2.63524000E+01	-2.45212000E+00	-4.45685000E+01	 2.93400000E+00	 8.93146986E+01	-2.11534706E+01	 6.40893951E+01	 7.17407755E+01
		 2.70860000E+02	 8.28924000E+01	 1.05981000E+02	-9.83899000E+00	-5.59444000E+01	 3.54262000E+00	 2.03082221E+02	 3.71888988E+01	 1.50891858E+02	 2.71652643E+02
		 4.74056000E+02	 1.45125000E+02	 1.85609000E+02	-1.72259000E+01	-6.73203000E+01	 4.15124000E+00	 3.33250771E+02	 9.47287607E+01	 2.34893173E+02	 4.75168066E+02
		-2.08339000E+02	 5.87618000E+01	 7.72464000E+01	-2.88012000E+00	 4.01899000E-01	-1.99312000E+00	 2.76873720E+02	-2.08383898E+02	 5.87831524E+01	 7.72699459E+01
		 4.16814000E+01	-1.17350000E+01	-1.54183000E+01	 6.10217000E-01	 3.04102000E-01	-3.64213000E+00	 5.57208846E+01	-1.56794068E+01	-1.17117522E+01	 4.19192590E+01
		 2.08351000E+01	-5.86848000E+00	-7.71044000E+00	 3.05084000E-01	 1.52051000E-01	-1.82105000E+00	 2.78560260E+01	-7.84100660E+00	-5.85685831E+00	 2.09540449E+01
		 1.45822000E+02	-4.11566000E+01	-5.40617000E+01	 1.94886000E+00	 1.88534000E-01	-2.54339000E+00	 1.93833494E+02	-5.40975790E+01	-4.11733326E+01	 1.45874612E+02
		-4.56666000E+02	-7.63779000E+01	-9.93558000E+01	 1.53347000E+00	-1.84237000E+01	-2.04471000E+00	 3.70738043E+02	-4.56683076E+02	-1.09576121E+02	-6.61405033E+01
		 9.13447000E+01	 1.52685000E+01	 1.98353000E+01	-2.78284000E-01	-3.47157000E+01	-2.71438000E+00	 9.53881254E+01	-1.72778380E+01	 5.22606578E+01	 9.14656802E+01
		 4.56632000E+01	 7.63270000E+00	 9.91567000E+00	-1.39124000E-01	-1.73579000E+01	-1.35717000E+00	 4.76883871E+01	-8.64072161E+00	 2.61285850E+01	 4.57237066E+01
		 3.19588000E+02	 5.34062000E+01	 6.94720000E+01	-1.09702000E+00	-2.54612000E+01	-2.25129000E+00	 2.62293863E+02	 3.47235451E+01	 8.81315358E+01	 3.19611119E+02
		-6.81830000E+02	-2.09379000E+02	-2.67324000E+02	 1.53769000E+01	-2.10491000E+00	-2.98751000E+00	 4.47147416E+02	-6.82350454E+02	-2.67386277E+02	-2.08796268E+02
		 1.36395000E+02	 4.18817000E+01	 5.35211000E+01	-3.05001000E+00	-2.15583000E+00	-3.17692000E+00	 8.96676662E+01	 4.13609147E+01	 5.38273927E+01	 1.36609493E+02
		 6.81892000E+01	 2.09399000E+01	 2.67593000E+01	-1.52504000E+00	-1.07791000E+00	-1.58844000E+00	 4.48266832E+01	 2.06794863E+01	 2.69124497E+01	 6.82964641E+01
		 4.77246000E+02	 1.46546000E+02	 1.87158000E+02	-1.07390000E+01	-1.10337000E+00	-2.24670000E+00	 3.12963592E+02	 1.46163907E+02	 1.87174915E+02	 4.77611178E+02
		 2.37968000E+01	-3.26488000E+01	-4.37503000E+01	 1.80624000E+01	 1.00413000E+01	-4.20925000E+00	 7.25972950E+01	-5.20569760E+01	-2.96481170E+01	 2.91027930E+01
		 9.49932000E+00	-1.30617000E+01	-1.74335000E+01	 7.22586000E+00	 1.31332000E+01	-6.22869000E+00	 3.76459327E+01	-3.07707897E+01	-2.08166388E+00	 1.18565735E+01
		-4.79820000E+00	 6.52541000E+00	 8.88334000E+00	-3.61069000E+00	 1.62252000E+01	-8.24812000E+00	 3.45465092E+01	-1.08097579E+01	-4.89278049E+00	 2.63130884E+01
		-2.40105000E+00	 3.26322000E+00	 4.44237000E+00	-1.80533000E+00	 8.11263000E+00	-4.12406000E+00	 1.72742274E+01	-5.40519144E+00	-2.44727291E+00	 1.31570044E+01
		-9.50312000E+00	 1.31085000E+01	 1.76303000E+01	-7.23033000E+00	 9.79979000E+00	-4.75902000E+00	 3.38653619E+01	-1.17489725E+01	 5.70202532E+00	 2.72826272E+01
		-1.66052000E+01	 2.29538000E+01	 3.08183000E+01	-1.26553000E+01	 1.14869000E+01	-5.39398000E+00	 5.38653704E+01	-2.03868926E+01	 1.60699430E+01	 4.14838496E+01
		 5.20240000E+01	-2.45339000E+01	-3.90944000E+01	 1.82320000E-05	 8.11714000E-07	 4.33339000E+00	 8.51127271E+01	-3.93000224E+01	-2.45339000E+01	 5.22296224E+01
		 2.08011000E+01	-9.85019000E+00	-1.56558000E+01	 7.21572000E-06	 9.48978000E-07	 5.97123000E+00	 3.54700280E+01	-1.66089030E+01	-9.85019000E+00	 2.17542030E+01
		-1.04217000E+01	 4.83350000E+00	 7.78281000E+00	-3.80059000E-06	 1.08624000E-06	 7.60908000E+00	 2.14500854E+01	-1.31832195E+01	 4.83350000E+00	 1.05443295E+01
		-5.21295000E+00	 2.41723000E+00	 3.89208000E+00	-1.90042000E-06	 5.43231000E-07	 3.80457000E+00	 1.07271832E+01	-6.59340607E+00	 2.41723000E+00	 5.27253607E+00
		-2.07973000E+01	 9.80240000E+00	 1.56325000E+01	-7.20252000E-06	 5.09484000E-07	 5.01664000E+00	 3.49890132E+01	-2.14755008E+01	 9.80240000E+00	 1.63107008E+01
		-3.63817000E+01	 1.71876000E+01	 2.73729000E+01	-1.25046000E-05	 4.75737000E-07	 6.22870000E+00	 6.02944420E+01	-3.69845318E+01	 1.71876000E+01	 2.79757318E+01
		-7.63024000E+01	 1.63063000E+01	 2.20180000E+01	 2.84487000E+00	-4.97501000E+00	-2.04071000E+00	 9.61715835E+01	-7.64259864E+01	 1.34485806E+01	 2.49993058E+01
		 1.52115000E+01	-3.29871000E+00	-4.38520000E+00	-5.85433000E-01	-8.31183000E+00	-3.77423000E+00	 2.47980176E+01	-1.25337651E+01	 4.09245091E+00	 1.59689042E+01
		 7.60420000E+00	-1.64905000E+00	-2.19219000E+00	-2.92630000E-01	-4.15593000E+00	-1.88711000E+00	 1.23975465E+01	-6.26654569E+00	 2.04650634E+00	 7.98299935E+00
		 5.34300000E+01	-1.14052000E+01	-1.53592000E+01	-1.96517000E+00	-5.72586000E+00	-2.00435000E+00	 6.78055308E+01	-1.95451342E+01	-7.32775490E+00	 5.35384891E+01
		 3.79104000E+01	-2.85914000E+01	-4.14224000E+01	 1.56825000E+01	-3.77065000E-01	 6.20712000E-02	 7.86045105E+01	-4.14379999E+01	-3.20885178E+01	 4.14231176E+01
		-7.60997000E+00	 5.67946000E+00	 8.33307000E+00	-3.13275000E+00	-6.86305000E-01	-3.19518000E-01	 1.58138309E+01	-8.32425413E+00	 6.21238829E+00	 8.51442585E+00
		-3.80700000E+00	 2.84023000E+00	 4.16722000E+00	-1.56634000E+00	-3.43153000E-01	-1.59742000E-01	 7.90932705E+00	-4.16400293E+00	 3.10657076E+00	 4.25788218E+00
		-2.64934000E+01	 2.00707000E+01	 2.90956000E+01	-1.09858000E+01	-2.15431000E-01	 4.17361000E-01	 5.50692817E+01	-2.89573537E+01	 2.25186053E+01	 2.91116484E+01
		-7.51679000E+01	 1.45129000E+01	 1.97505000E+01	-3.31432000E-06	-5.25644000E-07	 7.25377000E-01	 9.24195272E+01	-7.51734431E+01	 1.45129000E+01	 1.97560431E+01
		 1.50456000E+01	-2.89567000E+00	-3.82344000E+00	 6.19679000E-07	-5.09088000E-07	-5.76877000E-01	 1.84497604E+01	-3.84106022E+00	-2.89567000E+00	 1.50632202E+01
		 7.52129000E+00	-1.44752000E+00	-1.91129000E+00	 3.09809000E-07	-2.54509000E-07	-2.88425000E-01	 9.22299666E+00	-1.92010109E+00	-1.44752000E+00	 7.53010109E+00
		 5.26577000E+01	-1.01223000E+01	-1.36805000E+01	 2.35811000E-06	-3.21119000E-07	-1.53268000E-01	 6.46331452E+01	-1.36808541E+01	-1.01223000E+01	 5.26580541E+01
		 2.37968000E+01	-3.26488000E+01	-4.37504000E+01	-1.80624000E+01	-1.00413000E+01	-4.20924000E+00	 7.25973475E+01	-5.20570361E+01	-2.96481566E+01	 2.91027927E+01
		 9.49928000E+00	-1.30617000E+01	-1.74335000E+01	-7.22585000E+00	-1.31332000E+01	-6.22868000E+00	 3.76458957E+01	-3.07707855E+01	-2.08166414E+00	 1.18565296E+01
		-4.79819000E+00	 6.52541000E+00	 8.88334000E+00	 3.61068000E+00	-1.62252000E+01	-8.24811000E+00	 3.45464953E+01	-1.08097524E+01	-4.89276950E+00	 2.63130819E+01
		-2.40104000E+00	 3.26323000E+00	 4.44237000E+00	 1.80532000E+00	-8.11263000E+00	-4.12405000E+00	 1.72742148E+01	-5.40518361E+00	-2.44725831E+00	 1.31570019E+01
		-9.50309000E+00	 1.31085000E+01	 1.76303000E+01	 7.23032000E+00	-9.79979000E+00	-4.75902000E+00	 3.38653335E+01	-1.17489397E+01	 5.70202383E+00	 2.72826259E+01
		-1.66051000E+01	 2.29538000E+01	 3.08183000E+01	 1.26553000E+01	-1.14870000E+01	-5.39398000E+00	 5.38653536E+01	-2.03867979E+01	 1.60698506E+01	 4.14839473E+01
		 3.79104000E+01	-2.85914000E+01	-4.14224000E+01	-1.56825000E+01	 3.77064000E-01	 6.20710000E-02	 7.86045105E+01	-4.14379998E+01	-3.20885178E+01	 4.14231176E+01
		-7.60996000E+00	 5.67946000E+00	 8.33307000E+00	 3.13275000E+00	 6.86304000E-01	-3.19519000E-01	 1.58138216E+01	-8.32424467E+00	 6.21238939E+00	 8.51442528E+00
		-3.80700000E+00	 2.84023000E+00	 4.16722000E+00	 1.56634000E+00	 3.43152000E-01	-1.59743000E-01	 7.90932698E+00	-4.16400298E+00	 3.10657138E+00	 4.25788159E+00
		-2.64934000E+01	 2.00707000E+01	 2.90956000E+01	 1.09858000E+01	 2.15430000E-01	 4.17360000E-01	 5.50692816E+01	-2.89573537E+01	 2.25186054E+01	 2.91116482E+01
		-7.63024000E+01	 1.63063000E+01	 2.20180000E+01	-2.84487000E+00	 4.97501000E+00	-2.04072000E+00	 9.61715841E+01	-7.64259868E+01	 1.34485804E+01	 2.49993064E+01
		 1.52115000E+01	-3.29871000E+00	-4.38521000E+00	 5.85433000E-01	 8.31184000E+00	-3.77423000E+00	 2.47980319E+01	-1.25337803E+01	 4.09245631E+00	 1.59689040E+01
		 7.60420000E+00	-1.64905000E+00	-2.19219000E+00	 2.92630000E-01	 4.15593000E+00	-1.88710000E+00	 1.23975419E+01	-6.26654402E+00	 2.04650867E+00	 7.98299534E+00
		 5.34300000E+01	-1.14052000E+01	-1.53592000E+01	 1.96517000E+00	 5.72586000E+00	-2.00435000E+00	 6.78055308E+01	-1.95451342E+01	-7.32775490E+00	 5.35384891E+01
