# vtk DataFile Version 3.0

ASCII
DATASET UNSTRUCTURED_GRID

POINTS 21 double
	-2.50000000E-01	 1.46447000E-01	-2.50000000E-01
	 1.03553000E-01	 1.46447000E-01	-6.03553000E-01
	 3.53553000E-01	 5.00000000E-01	-3.53553000E-01
	-5.26836000E-09	 5.00000000E-01	 5.26836000E-09
	-7.32233000E-02	 1.46447000E-01	-4.26777000E-01
	 2.28553000E-01	 3.23223000E-01	-4.78553000E-01
	 1.76777000E-01	 5.00000000E-01	-1.76777000E-01
	-1.25000000E-01	 3.23223000E-01	-1.25000000E-01
	 6.03553000E-01	 8.53553000E-01	-1.03553000E-01
	 2.50000000E-01	 8.53553000E-01	 2.50000000E-01
	 4.78553000E-01	 6.76777000E-01	-2.28553000E-01
	 4.26777000E-01	 8.53553000E-01	 7.32233000E-02
	 1.25000000E-01	 6.76777000E-01	 1.25000000E-01
	 4.57107000E-01	 1.46447000E-01	-9.57107000E-01
	 7.07107000E-01	 5.00000000E-01	-7.07107000E-01
	 2.80330000E-01	 1.46447000E-01	-7.80330000E-01
	 5.82107000E-01	 3.23223000E-01	-8.32107000E-01
	 5.30330000E-01	 5.00000000E-01	-5.30330000E-01
	 9.57107000E-01	 8.53553000E-01	-4.57107000E-01
	 8.32107000E-01	 6.76777000E-01	-5.82107000E-01
	 7.80330000E-01	 8.53553000E-01	-2.80330000E-01

CELLS 4 36
	8 0 1 2 3 4 5 6 7 
	8 3 2 8 9 6 10 11 12 
	8 1 13 14 2 15 16 17 5 
	8 2 14 18 8 17 19 20 10 

CELL_TYPES 4
	23
	23
	23
	23

POINT_DATA 21
FIELD U 1
	U 3 21 double
		-3.69779000E-32	 0.00000000E+00	-2.46519000E-32
		-9.33366000E-04	 1.31998000E-03	-9.33366000E-04
		-3.75877000E-04	 5.31571000E-04	-3.75877000E-04
		 0.00000000E+00	 0.00000000E+00	 4.93038000E-32
		-2.53315000E-04	 3.58242000E-04	-2.53315000E-04
		-6.90660000E-04	 9.76741000E-04	-6.90660000E-04
		-8.78381000E-05	 1.24222000E-04	-8.78381000E-05
		 0.00000000E+00	 0.00000000E+00	-1.23260000E-32
		 3.24078000E-04	-4.58316000E-04	 3.24078000E-04
		 6.16298000E-33	 0.00000000E+00	 0.00000000E+00
		-1.20275000E-05	 1.70094000E-05	-1.20275000E-05
		 1.14593000E-04	-1.62059000E-04	 1.14593000E-04
		-9.62965000E-35	 0.00000000E+00	-9.62965000E-35
		-3.09649000E-03	 4.37910000E-03	-3.09649000E-03
		-1.59080000E-03	 2.24974000E-03	-1.59080000E-03
		-1.90628000E-03	 2.69589000E-03	-1.90628000E-03
		-2.48412000E-03	 3.51308000E-03	-2.48412000E-03
		-8.55998000E-04	 1.21056000E-03	-8.55998000E-04
		 4.05286000E-04	-5.73161000E-04	 4.05286000E-04
		-5.63383000E-04	 7.96744000E-04	-5.63383000E-04
		 4.30898000E-04	-6.09382000E-04	 4.30898000E-04
