<?xml version="1.0"?>
<VTKFile type="UnstructuredGrid" version="0.1" byte_order="LittleEndian">
	<UnstructuredGrid>
		<Piece NumberOfPoints="21" NumberOfCells="4">
			<Points>
				<DataArray type="Float64" NumberOfComponents="3" format="ascii">
					-7.45058000E-09	-7.45058000E-09	 0.00000000E+00
					 5.00000000E-01	-7.45058000E-09	 0.00000000E+00
					 5.00000000E-01	 5.00000000E-01	 0.00000000E+00
					-7.45058000E-09	 5.00000000E-01	 0.00000000E+00
					 2.50000000E-01	-7.45058000E-09	 0.00000000E+00
					 5.00000000E-01	 2.50000000E-01	 0.00000000E+00
					 2.50000000E-01	 5.00000000E-01	 0.00000000E+00
					-7.45058000E-09	 2.50000000E-01	 0.00000000E+00
					 5.00000000E-01	 1.00000000E+00	 0.00000000E+00
					-7.45058000E-09	 1.00000000E+00	 0.00000000E+00
					 5.00000000E-01	 7.50000000E-01	 0.00000000E+00
					 2.50000000E-01	 1.00000000E+00	 0.00000000E+00
					-7.45058000E-09	 7.50000000E-01	 0.00000000E+00
					 1.00000000E+00	-7.45058000E-09	 0.00000000E+00
					 1.00000000E+00	 5.00000000E-01	 0.00000000E+00
					 7.50000000E-01	-7.45058000E-09	 0.00000000E+00
					 1.00000000E+00	 2.50000000E-01	 0.00000000E+00
					 7.50000000E-01	 5.00000000E-01	 0.00000000E+00
					 1.00000000E+00	 1.00000000E+00	 0.00000000E+00
					 1.00000000E+00	 7.50000000E-01	 0.00000000E+00
					 7.50000000E-01	 1.00000000E+00	 0.00000000E+00
				</DataArray>
			</Points>
			<Cells>
				<DataArray type="Int32" Name="connectivity" format="ascii">
					0 1 2 3 4 5 6 7 3 2 8 9 6 10 11 12 1 13 14 2 15 16 17 5 2 14 18 8 17 19 20 10 
				</DataArray>
				<DataArray type="Int32" Name="offsets" format="ascii">
					8 16 24 32 
				</DataArray>
				<DataArray type="UInt8" Name="types" format="ascii">
					23 23 23 23 
				</DataArray>
			</Cells>
			<PointData>
				<DataArray type="Float32" Name="U" NumberOfComponents="3" ComponentName0="D1" ComponentName1="D2" ComponentName2="D3" format="ascii">
					 0.00000000E+00	 0.00000000E+00	 0.00000000E+00
					-2.26954000E-17	-2.68404000E-18	-1.86672000E-03
					-2.46419000E-17	-1.76716000E-17	-7.51753000E-04
					 0.00000000E+00	 0.00000000E+00	 0.00000000E+00
					-1.68831000E-17	-1.91706000E-17	-5.06628000E-04
					-2.68831000E-17	-1.66518000E-17	-1.38132000E-03
					-1.05566000E-17	-1.63668000E-18	-1.75676000E-04
					 0.00000000E+00	 0.00000000E+00	 0.00000000E+00
					-1.05244000E-19	-8.74138000E-18	 6.48152000E-04
					 0.00000000E+00	 0.00000000E+00	 0.00000000E+00
					-2.24383000E-17	-1.69000000E-17	-2.40565000E-05
					 1.19516000E-18	 1.49925000E-18	 2.29184000E-04
					 0.00000000E+00	 0.00000000E+00	 0.00000000E+00
					-6.28465000E-17	-1.44885000E-17	-6.19296000E-03
					-4.92770000E-17	-3.62157000E-17	-3.18160000E-03
					-6.31988000E-17	-1.46791000E-17	-3.81255000E-03
					-3.86416000E-17	-2.72033000E-17	-4.96823000E-03
					-1.60801000E-17	-1.34763000E-17	-1.71199000E-03
					-7.97973000E-17	 5.97921000E-17	 8.10562000E-04
					-1.93683000E-17	 1.57989000E-17	-1.12677000E-03
					-4.44739000E-17	-8.27890000E-18	 8.61788000E-04
				</DataArray>
			</PointData>
		</Piece>
	</UnstructuredGrid>
</VTKFile>