    1C
    1UUSER                                                              
    1UDATE              25.january.2020                                 
    1UTIME              14:54:18                                        
    1UHOST                                                              
    1UPGM               CalculiX                                        
    1UVERSION           Version 2.16                             
    1UCOMPILETIME       Tue  7 Jan 19:57:43 CET 2020                    
    1UDIR                                                               
    1UDBN                                                               
    1UMAT    1EL                                                        
    2C                            40                                     1
 -1        17 1.00000E+00-2.50000E-02 0.00000E+00
 -1        18 1.00000E+00 7.45058E-09 0.00000E+00
 -1        19 1.00000E+00 2.50000E-02 0.00000E+00
 -1        20 9.75000E-01 7.45058E-09 0.00000E+00
 -1        21 1.00000E+00 7.45058E-09 0.00000E+00
 -1        22 1.02500E+00 7.45058E-09 0.00000E+00
 -1        31-7.45058E-09-2.50000E-02 0.00000E+00
 -1        32-7.45058E-09 7.45058E-09 0.00000E+00
 -1        33-7.45058E-09 2.50000E-02 0.00000E+00
 -1        34-7.45058E-09-2.50000E-02 1.00000E+00
 -1        35-7.45058E-09 7.45058E-09 1.00000E+00
 -1        36-7.45058E-09 2.50000E-02 1.00000E+00
 -1        37 1.00000E+00-2.50000E-02 1.00000E+00
 -1        38 1.00000E+00 7.45058E-09 1.00000E+00
 -1        39 1.00000E+00 2.50000E-02 1.00000E+00
 -1        40 9.75000E-01 7.45058E-09 1.00000E+00
 -1        41 1.00000E+00 7.45058E-09 1.00000E+00
 -1        42 1.02500E+00 7.45058E-09 1.00000E+00
 -1        51 5.00000E-01-2.50000E-02-8.27181E-26
 -1        53 5.00000E-01 2.50000E-02 8.27181E-26
 -1        54-7.45058E-09-2.50000E-02 5.00000E-01
 -1        56-7.45058E-09 2.50000E-02 5.00000E-01
 -1        57 5.00000E-01-2.50000E-02 1.00000E+00
 -1        59 5.00000E-01 2.50000E-02 1.00000E+00
 -1        60 1.00000E+00-2.50000E-02 5.00000E-01
 -1        62 1.00000E+00 2.50000E-02 5.00000E-01
 -1        63 9.75000E-01 7.45058E-09 5.00000E-01
 -1        65 1.02500E+00 7.45058E-09 5.00000E-01
 -1        74 9.75000E-01-1.00000E+00 0.00000E+00
 -1        75 1.00000E+00-1.00000E+00 0.00000E+00
 -1        76 1.02500E+00-1.00000E+00 0.00000E+00
 -1        77 9.75000E-01-1.00000E+00 1.00000E+00
 -1        78 1.00000E+00-1.00000E+00 1.00000E+00
 -1        79 1.02500E+00-1.00000E+00 1.00000E+00
 -1        80 9.75000E-01-5.00000E-01 0.00000E+00
 -1        82 1.02500E+00-5.00000E-01 0.00000E+00
 -1        83 9.75000E-01-5.00000E-01 1.00000E+00
 -1        85 1.02500E+00-5.00000E-01 1.00000E+00
 -1        86 9.75000E-01-1.00000E+00 5.00000E-01
 -1        88 1.02500E+00-1.00000E+00 5.00000E-01
 -3
    3C                             2                                     1
 -1         1    4    0    1
 -2        17        31        34        37        19        33        36        39        51        54
 -2        57        60        18        32        35        38        53        56        59        62
 -1         2    4    0    1
 -2        74        20        40        77        76        22        42        79        80        63
 -2        83        86        75        21        41        78        82        65        85        88
 -3
 9999
