# vtk DataFile Version 3.0

ASCII
DATASET UNSTRUCTURED_GRID

POINTS 21 double
	-7.45058000E-09	 1.46447000E-01	-3.53553000E-01
	 5.00000000E-01	 1.46447000E-01	-3.53553000E-01
	 5.00000000E-01	 5.00000000E-01	 0.00000000E+00
	-7.45058000E-09	 5.00000000E-01	 0.00000000E+00
	 2.50000000E-01	 1.46447000E-01	-3.53553000E-01
	 5.00000000E-01	 3.23223000E-01	-1.76777000E-01
	 2.50000000E-01	 5.00000000E-01	 0.00000000E+00
	-7.45058000E-09	 3.23223000E-01	-1.76777000E-01
	 5.00000000E-01	 8.53553000E-01	 3.53553000E-01
	-7.45058000E-09	 8.53553000E-01	 3.53553000E-01
	 5.00000000E-01	 6.76777000E-01	 1.76777000E-01
	 2.50000000E-01	 8.53553000E-01	 3.53553000E-01
	-7.45058000E-09	 6.76777000E-01	 1.76777000E-01
	 1.00000000E+00	 1.46447000E-01	-3.53553000E-01
	 1.00000000E+00	 5.00000000E-01	 0.00000000E+00
	 7.50000000E-01	 1.46447000E-01	-3.53553000E-01
	 1.00000000E+00	 3.23223000E-01	-1.76777000E-01
	 7.50000000E-01	 5.00000000E-01	 0.00000000E+00
	 1.00000000E+00	 8.53553000E-01	 3.53553000E-01
	 1.00000000E+00	 6.76777000E-01	 1.76777000E-01
	 7.50000000E-01	 8.53553000E-01	 3.53553000E-01

CELLS 4 36
	8 0 1 2 3 4 5 6 7 
	8 3 2 8 9 6 10 11 12 
	8 1 13 14 2 15 16 17 5 
	8 2 14 18 8 17 19 20 10 

CELL_TYPES 4
	23
	23
	23
	23

POINT_DATA 21
FIELD U 1
	U 3 21 double
		 0.00000000E+00	 0.00000000E+00	 0.00000000E+00
		-5.61949000E-15	 1.31997000E-03	-1.31997000E-03
		-3.80842000E-16	 5.31565000E-04	-5.31565000E-04
		 0.00000000E+00	 0.00000000E+00	 0.00000000E+00
		-3.38305000E-15	 3.58239000E-04	-3.58239000E-04
		-2.00080000E-15	 9.76733000E-04	-9.76733000E-04
		 3.31800000E-17	 1.24220000E-04	-1.24220000E-04
		 0.00000000E+00	 0.00000000E+00	 2.46519000E-32
		 5.89826000E-15	-4.58317000E-04	 4.58317000E-04
		 0.00000000E+00	 0.00000000E+00	 0.00000000E+00
		 1.90396000E-15	 1.70057000E-05	-1.70057000E-05
		 3.25478000E-15	-1.62059000E-04	 1.62059000E-04
		 0.00000000E+00	 0.00000000E+00	 0.00000000E+00
		-1.44145000E-15	 4.37907000E-03	-4.37907000E-03
		-3.20073000E-16	 2.24971000E-03	-2.24971000E-03
		-4.54161000E-15	 2.69587000E-03	-2.69587000E-03
		-4.64559000E-15	 3.51305000E-03	-3.51305000E-03
		-6.33040000E-16	 1.21055000E-03	-1.21055000E-03
		 5.29836000E-15	-5.73172000E-04	 5.73172000E-04
		 4.21458000E-15	 7.96725000E-04	-7.96725000E-04
		 6.53808000E-15	-6.09386000E-04	 6.09386000E-04
