<?xml version="1.0"?>
<VTKFile type="UnstructuredGrid" version="0.1" byte_order="LittleEndian">
	<UnstructuredGrid>
		<Piece NumberOfPoints="3" NumberOfCells="1">
			<Points>
				<DataArray type="Float64" NumberOfComponents="3" format="ascii">
					 0.00000000E+00	 0.00000000E+00	 0.00000000E+00
					 0.00000000E+00	 0.00000000E+00	 5.00000000E+00
					 0.00000000E+00	 0.00000000E+00	 1.00000000E+01
				</DataArray>
			</Points>
			<Cells>
				<DataArray type="Int32" Name="connectivity" format="ascii">
					0 2 1 
				</DataArray>
				<DataArray type="Int32" Name="offsets" format="ascii">
					3 
				</DataArray>
				<DataArray type="UInt8" Name="types" format="ascii">
					21 
				</DataArray>
			</Cells>
			<PointData>
				<DataArray type="Float32" Name="U" NumberOfComponents="3" ComponentName0="D1" ComponentName1="D2" ComponentName2="D3" format="ascii">
					 9.22015000E-02	-2.34937000E-10	 1.17799000E-16
					 2.81808000E-02	-7.17026000E-11	-4.85723000E-17
					 0.00000000E+00	 0.00000000E+00	 0.00000000E+00
				</DataArray>
				<DataArray type="Float32" Name="S" NumberOfComponents="10" ComponentName0="xx" ComponentName1="yy" ComponentName2="zz" ComponentName3="xy" ComponentName4="yz" ComponentName5="zx" ComponentName6="Mises" ComponentName7="Min Principal" ComponentName8="Mid Principal" ComponentName9="Max Principal" format="ascii">
					-9.99960000E-01	 2.59896000E-09	-4.90075000E-11	-9.35293000E-10	 1.09179000E-10	 3.54644000E-05	 9.99960003E-01	-9.99960001E-01	 1.20024948E-09	 2.60747700E-09
					-9.99960000E-01	 2.52978000E-09	-4.07965000E-11	-7.87783000E-10	 1.27653000E-08	 4.99997000E+00	 8.71774168E+00	-5.52488597E+00	 2.52978000E-09	 4.52492597E+00
					-9.99960000E-01	 2.46059000E-09	-3.25855000E-11	-6.40273000E-10	 2.54213000E-08	 9.99990000E+00	 1.73491764E+01	-1.05123713E+01	 2.46059000E-09	 9.51241132E+00
				</DataArray>
			</PointData>
		</Piece>
	</UnstructuredGrid>
</VTKFile>