# vtk DataFile Version 3.0

ASCII
DATASET UNSTRUCTURED_GRID

POINTS 21 double
	 0.00000000E+00	 0.00000000E+00	 0.00000000E+00
	 0.00000000E+00	 0.00000000E+00	 5.00000000E-01
	 0.00000000E+00	 0.00000000E+00	 1.00000000E+00
	 0.00000000E+00	 0.00000000E+00	 1.50000000E+00
	 0.00000000E+00	 0.00000000E+00	 2.00000000E+00
	 0.00000000E+00	 0.00000000E+00	 2.50000000E+00
	 0.00000000E+00	 0.00000000E+00	 3.00000000E+00
	 0.00000000E+00	 0.00000000E+00	 3.50000000E+00
	 0.00000000E+00	 0.00000000E+00	 4.00000000E+00
	 0.00000000E+00	 0.00000000E+00	 4.50000000E+00
	 0.00000000E+00	 0.00000000E+00	 5.00000000E+00
	 0.00000000E+00	 0.00000000E+00	 5.50000000E+00
	 0.00000000E+00	 0.00000000E+00	 6.00000000E+00
	 0.00000000E+00	 0.00000000E+00	 6.50000000E+00
	 0.00000000E+00	 0.00000000E+00	 7.00000000E+00
	 0.00000000E+00	 0.00000000E+00	 7.50000000E+00
	 0.00000000E+00	 0.00000000E+00	 8.00000000E+00
	 0.00000000E+00	 0.00000000E+00	 8.50000000E+00
	 0.00000000E+00	 0.00000000E+00	 9.00000000E+00
	 0.00000000E+00	 0.00000000E+00	 9.50000000E+00
	 0.00000000E+00	 0.00000000E+00	 1.00000000E+01

CELLS 10 40
	3 0 2 1 
	3 2 4 3 
	3 4 6 5 
	3 6 8 7 
	3 8 10 9 
	3 10 12 11 
	3 12 14 13 
	3 14 16 15 
	3 16 18 17 
	3 18 20 19 

CELL_TYPES 10
	21
	21
	21
	21
	21
	21
	21
	21
	21
	21

POINT_DATA 21
FIELD U 1
	U 3 21 double
		 9.04305000E-01	-3.16136000E-10	-2.60894000E-14
		 8.36284000E-01	-2.93330000E-10	-2.61497000E-14
		 7.68606000E-01	-2.70570000E-10	-2.57119000E-14
		 7.01615000E-01	-2.47921000E-10	-2.49393000E-14
		 6.35653000E-01	-2.25519000E-10	-2.44399000E-14
		 5.71062000E-01	-2.03503000E-10	-2.27600000E-14
		 5.08185000E-01	-1.81972000E-10	-2.15841000E-14
		 4.47367000E-01	-1.61021000E-10	-2.03028000E-14
		 3.88949000E-01	-1.40757000E-10	-1.89894000E-14
		 3.33274000E-01	-1.21291000E-10	-1.72904000E-14
		 2.80686000E-01	-1.02739000E-10	-1.58031000E-14
		 2.31528000E-01	-8.52139000E-11	-1.41844000E-14
		 1.86140000E-01	-6.88640000E-11	-1.28055000E-14
		 1.44866000E-01	-5.38512000E-11	-1.12488000E-14
		 1.08056000E-01	-4.03461000E-11	-9.73917000E-15
		 7.60550000E-02	-2.85153000E-11	-8.08598000E-15
		 4.91742000E-02	-1.85080000E-11	-6.45133000E-15
		 2.77485000E-02	-1.04821000E-11	-4.84291000E-15
		 1.22427000E-02	-4.64143000E-12	-3.23352000E-15
		 3.03121000E-03	-1.15382000E-12	-1.61411000E-15
		 0.00000000E+00	 3.38813000E-21	 2.46519000E-32
FIELD S 1
	S 10 21 double
		-9.99960000E-01	 9.39245000E-11	-4.99288000E-11	-5.38079000E-11	-3.95883000E-12	 2.11347000E-04	 9.99960067E-01	-9.99960045E-01	 9.39241460E-11	 4.46194107E-08
		-9.99960000E-01	 1.93993000E-10	 2.56318000E-11	-5.15784000E-11	 7.11868000E-11	 5.00138000E-01	 1.32300191E+00	-1.20717023E+00	 1.93993000E-10	 2.07210229E-01
		-9.99960000E-01	 2.94062000E-10	 1.01192000E-10	-4.93490000E-11	 1.46332000E-10	 1.00006000E+00	 2.00007000E+00	-1.61805871E+00	 2.94062000E-10	 6.18098711E-01
		-9.99960000E-01	 3.26988000E-10	 1.09002000E-10	-1.02340000E-11	 3.59053000E-10	 1.50002000E+00	 2.78390014E+00	-2.08113148E+00	 3.26988000E-10	 1.08117148E+00
		-9.99960000E-01	 3.59914000E-10	 1.16811000E-10	 2.88810000E-11	 5.71774000E-10	 1.99997000E+00	 3.60549026E+00	-2.56149886E+00	 3.59914000E-10	 1.56153886E+00
		-9.99960000E-01	 3.33079000E-10	 1.57890000E-10	 1.26898000E-11	 7.07118000E-10	 2.49997000E+00	 4.44403758E+00	-3.04945642E+00	 3.33079000E-10	 2.04949642E+00
		-9.99960000E-01	 3.06244000E-10	 1.98969000E-10	-3.50142000E-12	 8.42462000E-10	 2.99998000E+00	 5.29146105E+00	-3.54133825E+00	 3.06244000E-10	 2.54137825E+00
		-9.99960000E-01	 3.18134000E-10	 1.86535000E-10	-3.58662000E-11	 1.00159000E-09	 3.49999000E+00	 6.14407926E+00	-4.03550118E+00	 3.18134000E-10	 3.03554118E+00
		-9.99960000E-01	 3.30025000E-10	 1.74100000E-10	-6.82309000E-11	 1.16071000E-09	 3.99999000E+00	 6.99997714E+00	-4.53109647E+00	 3.30025000E-10	 3.53113647E+00
		-9.99960000E-01	 3.45122000E-10	 1.98654000E-10	-6.90607000E-11	 1.32651000E-09	 4.49995000E+00	 7.85802583E+00	-5.02762067E+00	 3.45122000E-10	 4.02766067E+00
		-9.99960000E-01	 3.60219000E-10	 2.23208000E-10	-6.98905000E-11	 1.49231000E-09	 4.99992000E+00	 8.71765565E+00	-5.52483622E+00	 3.60219000E-10	 4.52487622E+00
		-9.99960000E-01	 4.28121000E-10	 2.07575000E-10	-6.11909000E-11	 1.72053000E-09	 5.50001000E+00	 9.57863508E+00	-6.02266866E+00	 4.28121000E-10	 5.02270866E+00
		-9.99960000E-01	 4.96024000E-10	 1.91942000E-10	-5.24914000E-11	 1.94876000E-09	 6.00010000E+00	 1.04404751E+01	-6.52087528E+00	 4.96024000E-10	 5.52091528E+00
		-9.99960000E-01	 4.85320000E-10	 2.15775000E-10	-5.53045000E-11	 2.19254000E-09	 6.49987000E+00	 1.13024267E+01	-7.01905125E+00	 4.85320000E-10	 6.01909125E+00
		-9.99960000E-01	 4.74617000E-10	 2.39608000E-10	-5.81177000E-11	 2.43632000E-09	 6.99964000E+00	 1.21649003E+01	-7.51745391E+00	 4.74617000E-10	 6.51749391E+00
		-9.99960000E-01	 4.70692000E-10	 2.20711000E-10	-6.13087000E-11	 2.67200000E-09	 7.50001000E+00	 1.30288284E+01	-8.01663684E+00	 4.70692000E-10	 7.01667684E+00
		-9.99960000E-01	 4.66768000E-10	 2.01814000E-10	-6.44997000E-11	 2.90768000E-09	 8.00039000E+00	 1.38931149E+01	-8.51597776E+00	 4.66768000E-10	 7.51601776E+00
		-9.99960000E-01	 4.58969000E-10	 2.06531000E-10	-6.93196000E-11	 3.13563000E-09	 8.50078000E+00	 1.47576997E+01	-9.01545066E+00	 4.58969000E-10	 8.01549066E+00
		-9.99960000E-01	 4.51169000E-10	 2.11248000E-10	-7.41395000E-11	 3.36357000E-09	 9.00118000E+00	 1.56225364E+01	-9.51503526E+00	 4.51169000E-10	 8.51507526E+00
		-9.99960000E-01	 4.52368000E-10	 2.12957000E-10	-7.43799000E-11	 3.58971000E-09	 9.50081000E+00	 1.64862395E+01	-1.00139366E+01	 4.52368000E-10	 9.01397662E+00
		-9.99960000E-01	 4.53567000E-10	 2.14666000E-10	-7.46204000E-11	 3.81584000E-09	 1.00004000E+01	 1.73500409E+01	-1.05128707E+01	 4.53567000E-10	 9.51291070E+00
FIELD ERROR 1
	ERROR 1 21 double
		 5.73361000E+01
		 6.08273000E+01
		 6.43185000E+01
		 6.44132000E+01
		 6.45079000E+01
		 6.45324000E+01
		 6.45568000E+01
		 6.45641000E+01
		 6.45715000E+01
		 6.45755000E+01
		 6.45795000E+01
		 6.45804000E+01
		 6.45814000E+01
		 6.45843000E+01
		 6.45872000E+01
		 6.45872000E+01
		 6.45872000E+01
		 6.45935000E+01
		 6.45998000E+01
		 6.45998000E+01
		 6.45998000E+01
