<?xml version="1.0"?>
<VTKFile type="UnstructuredGrid" version="0.1" byte_order="LittleEndian">
	<UnstructuredGrid>
		<Piece NumberOfPoints="16" NumberOfCells="3">
			<Points>
				<DataArray type="Float64" NumberOfComponents="3" format="ascii">
					 0.00000000E+00	 0.00000000E+00	 0.00000000E+00
					 1.00000000E+00	 0.00000000E+00	 0.00000000E+00
					 1.00000000E+00	 1.00000000E+00	 0.00000000E+00
					 0.00000000E+00	 1.00000000E+00	 0.00000000E+00
					 0.00000000E+00	 0.00000000E+00	 8.00000000E+00
					 1.00000000E+00	 0.00000000E+00	 8.00000000E+00
					 1.00000000E+00	 1.00000000E+00	 8.00000000E+00
					 0.00000000E+00	 1.00000000E+00	 8.00000000E+00
					 1.00000000E+00	 0.00000000E+00	 2.00000000E+00
					 1.00000000E+00	 0.00000000E+00	 4.00000000E+00
					 0.00000000E+00	 0.00000000E+00	 4.00000000E+00
					 0.00000000E+00	 0.00000000E+00	 2.00000000E+00
					 1.00000000E+00	 1.00000000E+00	 2.00000000E+00
					 1.00000000E+00	 1.00000000E+00	 4.00000000E+00
					 0.00000000E+00	 1.00000000E+00	 2.00000000E+00
					 0.00000000E+00	 1.00000000E+00	 4.00000000E+00
				</DataArray>
			</Points>
			<Cells>
				<DataArray type="Int32" Name="connectivity" format="ascii">
					2 12 14 3 1 8 11 0 12 13 15 14 8 9 10 11 13 6 7 15 9 5 4 10 
				</DataArray>
				<DataArray type="Int32" Name="offsets" format="ascii">
					8 16 24 
				</DataArray>
				<DataArray type="UInt8" Name="types" format="ascii">
					12 12 12 
				</DataArray>
			</Cells>
			<PointData>
				<DataArray type="Float32" Name="NT" NumberOfComponents="1" ComponentName0="T" format="ascii">
					 1.00000000E+00
					 1.00000000E+00
					 1.00000000E+00
					 1.00000000E+00
					 0.00000000E+00
					 0.00000000E+00
					 0.00000000E+00
					 0.00000000E+00
					 1.00000000E+00
					 9.99998000E-01
					 9.99998000E-01
					 1.00000000E+00
					 1.00000000E+00
					 9.99998000E-01
					 1.00000000E+00
					 9.99998000E-01
				</DataArray>
			</PointData>
		</Piece>
	</UnstructuredGrid>
</VTKFile>