# vtk DataFile Version 3.0

ASCII
DATASET UNSTRUCTURED_GRID

POINTS 522 double
	 1.00000000E+00	 1.00000000E+00	 0.00000000E+00
	 1.00000000E+00	 5.00000000E-01	 0.00000000E+00
	 1.00000000E+00	 5.00000000E-01	 1.00000000E+00
	 1.00000000E+00	 1.00000000E+00	 1.00000000E+00
	 5.00000000E-01	 1.00000000E+00	 0.00000000E+00
	 5.00000000E-01	 5.00000000E-01	 0.00000000E+00
	 5.00000000E-01	 5.00000000E-01	 1.00000000E+00
	 5.00000000E-01	 1.00000000E+00	 1.00000000E+00
	 1.00000000E+00	 7.50000000E-01	 0.00000000E+00
	 1.00000000E+00	 5.00000000E-01	 5.00000000E-01
	 1.00000000E+00	 7.50000000E-01	 1.00000000E+00
	 1.00000000E+00	 1.00000000E+00	 5.00000000E-01
	 7.50000000E-01	 1.00000000E+00	 0.00000000E+00
	 7.50000000E-01	 5.00000000E-01	 0.00000000E+00
	 7.50000000E-01	 5.00000000E-01	 1.00000000E+00
	 7.50000000E-01	 1.00000000E+00	 1.00000000E+00
	 5.00000000E-01	 7.50000000E-01	 0.00000000E+00
	 5.00000000E-01	 5.00000000E-01	 5.00000000E-01
	 5.00000000E-01	 7.50000000E-01	 1.00000000E+00
	 5.00000000E-01	 1.00000000E+00	 5.00000000E-01
	 1.00000000E+00	 0.00000000E+00	 0.00000000E+00
	 1.00000000E+00	 0.00000000E+00	 1.00000000E+00
	 5.00000000E-01	 0.00000000E+00	 0.00000000E+00
	 5.00000000E-01	 0.00000000E+00	 1.00000000E+00
	 1.00000000E+00	 2.50000000E-01	 0.00000000E+00
	 1.00000000E+00	 0.00000000E+00	 5.00000000E-01
	 1.00000000E+00	 2.50000000E-01	 1.00000000E+00
	 7.50000000E-01	 0.00000000E+00	 0.00000000E+00
	 7.50000000E-01	 0.00000000E+00	 1.00000000E+00
	 5.00000000E-01	 2.50000000E-01	 0.00000000E+00
	 5.00000000E-01	 0.00000000E+00	 5.00000000E-01
	 5.00000000E-01	 2.50000000E-01	 1.00000000E+00
	 0.00000000E+00	 1.00000000E+00	 0.00000000E+00
	 0.00000000E+00	 5.00000000E-01	 0.00000000E+00
	 0.00000000E+00	 5.00000000E-01	 1.00000000E+00
	 0.00000000E+00	 1.00000000E+00	 1.00000000E+00
	 2.50000000E-01	 1.00000000E+00	 0.00000000E+00
	 2.50000000E-01	 5.00000000E-01	 0.00000000E+00
	 2.50000000E-01	 5.00000000E-01	 1.00000000E+00
	 2.50000000E-01	 1.00000000E+00	 1.00000000E+00
	 0.00000000E+00	 7.50000000E-01	 0.00000000E+00
	 0.00000000E+00	 5.00000000E-01	 5.00000000E-01
	 0.00000000E+00	 7.50000000E-01	 1.00000000E+00
	 0.00000000E+00	 1.00000000E+00	 5.00000000E-01
	 0.00000000E+00	 0.00000000E+00	 0.00000000E+00
	 0.00000000E+00	 0.00000000E+00	 1.00000000E+00
	 2.50000000E-01	 0.00000000E+00	 0.00000000E+00
	 2.50000000E-01	 0.00000000E+00	 1.00000000E+00
	 0.00000000E+00	 2.50000000E-01	 0.00000000E+00
	 0.00000000E+00	 0.00000000E+00	 5.00000000E-01
	 0.00000000E+00	 2.50000000E-01	 1.00000000E+00
	 1.00000000E+00	 5.00000000E-01	 2.00000000E+00
	 1.00000000E+00	 1.00000000E+00	 2.00000000E+00
	 5.00000000E-01	 5.00000000E-01	 2.00000000E+00
	 5.00000000E-01	 1.00000000E+00	 2.00000000E+00
	 1.00000000E+00	 5.00000000E-01	 1.50000000E+00
	 1.00000000E+00	 7.50000000E-01	 2.00000000E+00
	 1.00000000E+00	 1.00000000E+00	 1.50000000E+00
	 7.50000000E-01	 5.00000000E-01	 2.00000000E+00
	 7.50000000E-01	 1.00000000E+00	 2.00000000E+00
	 5.00000000E-01	 5.00000000E-01	 1.50000000E+00
	 5.00000000E-01	 7.50000000E-01	 2.00000000E+00
	 5.00000000E-01	 1.00000000E+00	 1.50000000E+00
	 1.00000000E+00	 0.00000000E+00	 2.00000000E+00
	 5.00000000E-01	 0.00000000E+00	 2.00000000E+00
	 1.00000000E+00	 0.00000000E+00	 1.50000000E+00
	 1.00000000E+00	 2.50000000E-01	 2.00000000E+00
	 7.50000000E-01	 0.00000000E+00	 2.00000000E+00
	 5.00000000E-01	 0.00000000E+00	 1.50000000E+00
	 5.00000000E-01	 2.50000000E-01	 2.00000000E+00
	 0.00000000E+00	 5.00000000E-01	 2.00000000E+00
	 0.00000000E+00	 1.00000000E+00	 2.00000000E+00
	 2.50000000E-01	 5.00000000E-01	 2.00000000E+00
	 2.50000000E-01	 1.00000000E+00	 2.00000000E+00
	 0.00000000E+00	 5.00000000E-01	 1.50000000E+00
	 0.00000000E+00	 7.50000000E-01	 2.00000000E+00
	 0.00000000E+00	 1.00000000E+00	 1.50000000E+00
	 0.00000000E+00	 0.00000000E+00	 2.00000000E+00
	 2.50000000E-01	 0.00000000E+00	 2.00000000E+00
	 0.00000000E+00	 0.00000000E+00	 1.50000000E+00
	 0.00000000E+00	 2.50000000E-01	 2.00000000E+00
	 1.00000000E+00	 5.00000000E-01	 3.00000000E+00
	 1.00000000E+00	 1.00000000E+00	 3.00000000E+00
	 5.00000000E-01	 5.00000000E-01	 3.00000000E+00
	 5.00000000E-01	 1.00000000E+00	 3.00000000E+00
	 1.00000000E+00	 5.00000000E-01	 2.50000000E+00
	 1.00000000E+00	 7.50000000E-01	 3.00000000E+00
	 1.00000000E+00	 1.00000000E+00	 2.50000000E+00
	 7.50000000E-01	 5.00000000E-01	 3.00000000E+00
	 7.50000000E-01	 1.00000000E+00	 3.00000000E+00
	 5.00000000E-01	 5.00000000E-01	 2.50000000E+00
	 5.00000000E-01	 7.50000000E-01	 3.00000000E+00
	 5.00000000E-01	 1.00000000E+00	 2.50000000E+00
	 1.00000000E+00	 0.00000000E+00	 3.00000000E+00
	 5.00000000E-01	 0.00000000E+00	 3.00000000E+00
	 1.00000000E+00	 0.00000000E+00	 2.50000000E+00
	 1.00000000E+00	 2.50000000E-01	 3.00000000E+00
	 7.50000000E-01	 0.00000000E+00	 3.00000000E+00
	 5.00000000E-01	 0.00000000E+00	 2.50000000E+00
	 5.00000000E-01	 2.50000000E-01	 3.00000000E+00
	 0.00000000E+00	 5.00000000E-01	 3.00000000E+00
	 0.00000000E+00	 1.00000000E+00	 3.00000000E+00
	 2.50000000E-01	 5.00000000E-01	 3.00000000E+00
	 2.50000000E-01	 1.00000000E+00	 3.00000000E+00
	 0.00000000E+00	 5.00000000E-01	 2.50000000E+00
	 0.00000000E+00	 7.50000000E-01	 3.00000000E+00
	 0.00000000E+00	 1.00000000E+00	 2.50000000E+00
	 0.00000000E+00	 0.00000000E+00	 3.00000000E+00
	 2.50000000E-01	 0.00000000E+00	 3.00000000E+00
	 0.00000000E+00	 0.00000000E+00	 2.50000000E+00
	 0.00000000E+00	 2.50000000E-01	 3.00000000E+00
	 1.00000000E+00	 5.00000000E-01	 4.00000000E+00
	 1.00000000E+00	 1.00000000E+00	 4.00000000E+00
	 5.00000000E-01	 5.00000000E-01	 4.00000000E+00
	 5.00000000E-01	 1.00000000E+00	 4.00000000E+00
	 1.00000000E+00	 5.00000000E-01	 3.50000000E+00
	 1.00000000E+00	 7.50000000E-01	 4.00000000E+00
	 1.00000000E+00	 1.00000000E+00	 3.50000000E+00
	 7.50000000E-01	 5.00000000E-01	 4.00000000E+00
	 7.50000000E-01	 1.00000000E+00	 4.00000000E+00
	 5.00000000E-01	 5.00000000E-01	 3.50000000E+00
	 5.00000000E-01	 7.50000000E-01	 4.00000000E+00
	 5.00000000E-01	 1.00000000E+00	 3.50000000E+00
	 1.00000000E+00	 0.00000000E+00	 4.00000000E+00
	 5.00000000E-01	 0.00000000E+00	 4.00000000E+00
	 1.00000000E+00	 0.00000000E+00	 3.50000000E+00
	 1.00000000E+00	 2.50000000E-01	 4.00000000E+00
	 7.50000000E-01	 0.00000000E+00	 4.00000000E+00
	 5.00000000E-01	 0.00000000E+00	 3.50000000E+00
	 5.00000000E-01	 2.50000000E-01	 4.00000000E+00
	 0.00000000E+00	 5.00000000E-01	 4.00000000E+00
	 0.00000000E+00	 1.00000000E+00	 4.00000000E+00
	 2.50000000E-01	 5.00000000E-01	 4.00000000E+00
	 2.50000000E-01	 1.00000000E+00	 4.00000000E+00
	 0.00000000E+00	 5.00000000E-01	 3.50000000E+00
	 0.00000000E+00	 7.50000000E-01	 4.00000000E+00
	 0.00000000E+00	 1.00000000E+00	 3.50000000E+00
	 0.00000000E+00	 0.00000000E+00	 4.00000000E+00
	 2.50000000E-01	 0.00000000E+00	 4.00000000E+00
	 0.00000000E+00	 0.00000000E+00	 3.50000000E+00
	 0.00000000E+00	 2.50000000E-01	 4.00000000E+00
	 1.00000000E+00	 5.00000000E-01	 5.00000000E+00
	 1.00000000E+00	 1.00000000E+00	 5.00000000E+00
	 5.00000000E-01	 5.00000000E-01	 5.00000000E+00
	 5.00000000E-01	 1.00000000E+00	 5.00000000E+00
	 1.00000000E+00	 5.00000000E-01	 4.50000000E+00
	 1.00000000E+00	 7.50000000E-01	 5.00000000E+00
	 1.00000000E+00	 1.00000000E+00	 4.50000000E+00
	 7.50000000E-01	 5.00000000E-01	 5.00000000E+00
	 7.50000000E-01	 1.00000000E+00	 5.00000000E+00
	 5.00000000E-01	 5.00000000E-01	 4.50000000E+00
	 5.00000000E-01	 7.50000000E-01	 5.00000000E+00
	 5.00000000E-01	 1.00000000E+00	 4.50000000E+00
	 1.00000000E+00	 0.00000000E+00	 5.00000000E+00
	 5.00000000E-01	 0.00000000E+00	 5.00000000E+00
	 1.00000000E+00	 0.00000000E+00	 4.50000000E+00
	 1.00000000E+00	 2.50000000E-01	 5.00000000E+00
	 7.50000000E-01	 0.00000000E+00	 5.00000000E+00
	 5.00000000E-01	 0.00000000E+00	 4.50000000E+00
	 5.00000000E-01	 2.50000000E-01	 5.00000000E+00
	 0.00000000E+00	 5.00000000E-01	 5.00000000E+00
	 0.00000000E+00	 1.00000000E+00	 5.00000000E+00
	 2.50000000E-01	 5.00000000E-01	 5.00000000E+00
	 2.50000000E-01	 1.00000000E+00	 5.00000000E+00
	 0.00000000E+00	 5.00000000E-01	 4.50000000E+00
	 0.00000000E+00	 7.50000000E-01	 5.00000000E+00
	 0.00000000E+00	 1.00000000E+00	 4.50000000E+00
	 0.00000000E+00	 0.00000000E+00	 5.00000000E+00
	 2.50000000E-01	 0.00000000E+00	 5.00000000E+00
	 0.00000000E+00	 0.00000000E+00	 4.50000000E+00
	 0.00000000E+00	 2.50000000E-01	 5.00000000E+00
	 1.00000000E+00	 5.00000000E-01	 6.00000000E+00
	 1.00000000E+00	 1.00000000E+00	 6.00000000E+00
	 5.00000000E-01	 5.00000000E-01	 6.00000000E+00
	 5.00000000E-01	 1.00000000E+00	 6.00000000E+00
	 1.00000000E+00	 5.00000000E-01	 5.50000000E+00
	 1.00000000E+00	 7.50000000E-01	 6.00000000E+00
	 1.00000000E+00	 1.00000000E+00	 5.50000000E+00
	 7.50000000E-01	 5.00000000E-01	 6.00000000E+00
	 7.50000000E-01	 1.00000000E+00	 6.00000000E+00
	 5.00000000E-01	 5.00000000E-01	 5.50000000E+00
	 5.00000000E-01	 7.50000000E-01	 6.00000000E+00
	 5.00000000E-01	 1.00000000E+00	 5.50000000E+00
	 1.00000000E+00	 0.00000000E+00	 6.00000000E+00
	 5.00000000E-01	 0.00000000E+00	 6.00000000E+00
	 1.00000000E+00	 0.00000000E+00	 5.50000000E+00
	 1.00000000E+00	 2.50000000E-01	 6.00000000E+00
	 7.50000000E-01	 0.00000000E+00	 6.00000000E+00
	 5.00000000E-01	 0.00000000E+00	 5.50000000E+00
	 5.00000000E-01	 2.50000000E-01	 6.00000000E+00
	 0.00000000E+00	 5.00000000E-01	 6.00000000E+00
	 0.00000000E+00	 1.00000000E+00	 6.00000000E+00
	 2.50000000E-01	 5.00000000E-01	 6.00000000E+00
	 2.50000000E-01	 1.00000000E+00	 6.00000000E+00
	 0.00000000E+00	 5.00000000E-01	 5.50000000E+00
	 0.00000000E+00	 7.50000000E-01	 6.00000000E+00
	 0.00000000E+00	 1.00000000E+00	 5.50000000E+00
	 0.00000000E+00	 0.00000000E+00	 6.00000000E+00
	 2.50000000E-01	 0.00000000E+00	 6.00000000E+00
	 0.00000000E+00	 0.00000000E+00	 5.50000000E+00
	 0.00000000E+00	 2.50000000E-01	 6.00000000E+00
	 1.00000000E+00	 5.00000000E-01	 7.00000000E+00
[...]
POINT_DATA 522
FIELD U 1
	U 3 522 double
		 1.06374000E-02	 1.06373000E-02	 0.00000000E+00
		 1.01721000E-02	 6.24966000E-03	 0.00000000E+00
		 1.20325000E-02	 6.24968000E-03	 8.77745000E-03
		 1.24969000E-02	 1.06406000E-02	 8.77486000E-03
		 5.78423000E-03	 1.15685000E-02	 0.00000000E+00
		 5.31883000E-03	 6.24965000E-03	 0.00000000E+00
		 7.18030000E-03	 6.24967000E-03	 1.06375000E-02
		 7.64494000E-03	 1.15700000E-02	 1.06352000E-02
		 1.02883000E-02	 8.44360000E-03	 0.00000000E+00
		 1.06377000E-02	 6.24966000E-03	 4.38903000E-03
		 1.21486000E-02	 8.44525000E-03	 8.77694000E-03
		 1.11027000E-02	 1.06385000E-02	 4.38761000E-03
		 8.32739000E-03	 1.11029000E-02	 0.00000000E+00
		 7.86201000E-03	 6.24965000E-03	 0.00000000E+00
		 9.72264000E-03	 6.24967000E-03	 9.70739000E-03
		 1.01872000E-02	 1.11053000E-02	 9.70480000E-03
		 5.43513000E-03	 8.90914000E-03	 0.00000000E+00
		 5.78428000E-03	 6.24965000E-03	 5.31934000E-03
		 7.29645000E-03	 8.90991000E-03	 1.06369000E-02
		 6.24944000E-03	 1.15692000E-02	 5.31810000E-03
		 1.06374000E-02	 1.86196000E-03	 0.00000000E+00
		 1.24969000E-02	 1.85870000E-03	 8.77489000E-03
		 5.78423000E-03	 9.30760000E-04	 0.00000000E+00
		 7.64494000E-03	 9.29309000E-04	 1.06352000E-02
		 1.02884000E-02	 4.05570000E-03	 0.00000000E+00
		 1.11027000E-02	 1.86076000E-03	 4.38763000E-03
		 1.21486000E-02	 4.05409000E-03	 8.77696000E-03
		 8.32740000E-03	 1.39637000E-03	 0.00000000E+00
		 1.01872000E-02	 1.39405000E-03	 9.70483000E-03
		 5.43514000E-03	 3.59015000E-03	 0.00000000E+00
		 6.24945000E-03	 9.30082000E-04	 5.31812000E-03
		 7.29645000E-03	 3.58942000E-03	 1.06370000E-02
		 0.00000000E+00	 1.24993000E-02	 0.00000000E+00
		-4.65613000E-04	 6.24965000E-03	 0.00000000E+00
		 1.39863000E-03	 6.24967000E-03	 1.24996000E-02
		 1.86358000E-03	 1.24993000E-02	 1.24975000E-02
		 3.00841000E-03	 1.20339000E-02	 0.00000000E+00
		 2.54296000E-03	 6.24965000E-03	 0.00000000E+00
		 4.40560000E-03	 6.24967000E-03	 1.15681000E-02
		 4.87036000E-03	 1.20346000E-02	 1.15661000E-02
		-3.49190000E-04	 9.37457000E-03	 0.00000000E+00
		 3.69571000E-07	 6.24965000E-03	 6.25066000E-03
		 1.51490000E-03	 9.37460000E-03	 1.24990000E-02
		 4.65770000E-04	 1.24994000E-02	 6.24960000E-03
		 0.00000000E+00	 0.00000000E+00	 0.00000000E+00
		 1.86358000E-03	 3.29020000E-10	 1.24976000E-02
		 3.00840000E-03	 4.65384000E-04	 0.00000000E+00
		 4.87036000E-03	 4.64697000E-04	 1.15661000E-02
		-3.49189000E-04	 3.12472000E-03	 0.00000000E+00
		 4.65770000E-04	-1.43222000E-07	 6.24962000E-03
		 1.51490000E-03	 3.12473000E-03	 1.24990000E-02
		 1.76043000E-02	 6.24975000E-03	 1.75514000E-02
		 1.80674000E-02	 1.06454000E-02	 1.75474000E-02
		 1.27589000E-02	 6.24973000E-03	 2.12651000E-02
		 1.32224000E-02	 1.15723000E-02	 2.12612000E-02
		 1.43558000E-02	 6.24971000E-03	 1.31661000E-02
		 1.77200000E-02	 8.44766000E-03	 1.75504000E-02
		 1.48193000E-02	 1.06435000E-02	 1.31626000E-02
		 1.52974000E-02	 6.24974000E-03	 1.94076000E-02
		 1.57608000E-02	 1.11087000E-02	 1.94035000E-02
		 9.50561000E-03	 6.24969000E-03	 1.59534000E-02
		 1.28748000E-02	 8.91108000E-03	 2.12641000E-02
		 9.96963000E-03	 1.15714000E-02	 1.59503000E-02
		 1.80674000E-02	 1.85408000E-03	 1.75475000E-02
		 1.32224000E-02	 9.27189000E-04	 2.12613000E-02
		 1.48194000E-02	 1.85586000E-03	 1.31627000E-02
		 1.77201000E-02	 4.05182000E-03	 1.75505000E-02
		 1.57608000E-02	 1.39070000E-03	 1.94036000E-02
		 9.96963000E-03	 9.28023000E-04	 1.59503000E-02
		 1.28748000E-02	 3.58838000E-03	 2.12642000E-02
		 6.98652000E-03	 6.24973000E-03	 2.49851000E-02
		 7.45042000E-03	 1.24994000E-02	 2.49813000E-02
		 9.98853000E-03	 6.24973000E-03	 2.31242000E-02
		 1.04522000E-02	 1.20358000E-02	 2.31205000E-02
		 3.72756000E-03	 6.24969000E-03	 1.87449000E-02
		 7.10254000E-03	 9.37468000E-03	 2.49841000E-02
		 4.19195000E-03	 1.24995000E-02	 1.87420000E-02
		 7.45042000E-03	 5.32408000E-08	 2.49814000E-02
		 1.04522000E-02	 4.63688000E-04	 2.31206000E-02
		 4.19195000E-03	-1.08311000E-07	 1.87421000E-02
		 7.10254000E-03	 3.12478000E-03	 2.49841000E-02
		 2.68755000E-02	 6.24987000E-03	 2.63036000E-02
		 2.73381000E-02	 1.06475000E-02	 2.62981000E-02
		 2.20457000E-02	 6.24985000E-03	 3.18682000E-02
		 2.25087000E-02	 1.15734000E-02	 3.18628000E-02
		 2.17777000E-02	 6.24980000E-03	 2.19312000E-02
		 2.69911000E-02	 8.44878000E-03	 2.63022000E-02
		 2.22406000E-02	 1.06466000E-02	 2.19265000E-02
		 2.45764000E-02	 6.24986000E-03	 2.90847000E-02
		 2.50392000E-02	 1.11104000E-02	 2.90792000E-02
		 1.69391000E-02	 6.24978000E-03	 2.65707000E-02
		 2.21615000E-02	 8.91171000E-03	 3.18669000E-02
		 1.74023000E-02	 1.15730000E-02	 2.65661000E-02
		 2.73381000E-02	 1.85221000E-03	 2.62983000E-02
		 2.25087000E-02	 9.26281000E-04	 3.18630000E-02
		 2.22406000E-02	 1.85291000E-03	 2.19266000E-02
		 2.69911000E-02	 4.05094000E-03	 2.63023000E-02
		 2.50392000E-02	 1.38930000E-03	 2.90794000E-02
		 1.74023000E-02	 9.26547000E-04	 2.65662000E-02
		 2.21615000E-02	 3.58799000E-03	 3.18669000E-02
		 1.62901000E-02	 6.24985000E-03	 3.74429000E-02
		 1.67534000E-02	 1.24995000E-02	 3.74375000E-02
		 1.92836000E-02	 6.24985000E-03	 3.46543000E-02
		 1.97468000E-02	 1.20364000E-02	 3.46489000E-02
		 1.11741000E-02	 6.24978000E-03	 3.12183000E-02
		 1.64060000E-02	 9.37480000E-03	 3.74415000E-02
		 1.16377000E-02	 1.24996000E-02	 3.12137000E-02
		 1.67534000E-02	 1.79933000E-07	 3.74377000E-02
		 1.97468000E-02	 4.63284000E-04	 3.46491000E-02
		 1.16377000E-02	-1.74150000E-08	 3.12139000E-02
		 1.64060000E-02	 3.12491000E-03	 3.74416000E-02
		 3.98428000E-02	 6.25005000E-03	 3.50174000E-02
		 4.03052000E-02	 1.06485000E-02	 3.50104000E-02
		 3.50365000E-02	 6.25003000E-03	 4.24315000E-02
		 3.54992000E-02	 1.15740000E-02	 4.24245000E-02
		 3.28973000E-02	 6.24995000E-03	 3.06663000E-02
		 3.99584000E-02	 8.44937000E-03	 3.50156000E-02
		 3.33598000E-02	 1.06481000E-02	 3.06600000E-02
		 3.75553000E-02	 6.25004000E-03	 3.87228000E-02
		 3.80180000E-02	 1.11112000E-02	 3.87157000E-02
		 2.80783000E-02	 6.24994000E-03	 3.71558000E-02
		 3.51522000E-02	 8.91211000E-03	 4.24298000E-02
		 2.85412000E-02	 1.15739000E-02	 3.71496000E-02
		 4.03053000E-02	 1.85157000E-03	 3.50106000E-02
		 3.54992000E-02	 9.26032000E-04	 4.24247000E-02
		 3.33599000E-02	 1.85172000E-03	 3.06602000E-02
		 3.99584000E-02	 4.05071000E-03	 3.50157000E-02
		 3.80180000E-02	 1.38885000E-03	 3.87160000E-02
		 2.85412000E-02	 9.25996000E-04	 3.71498000E-02
		 3.51522000E-02	 3.58796000E-03	 4.24299000E-02
		 2.93047000E-02	 6.25004000E-03	 4.98593000E-02
		 2.97678000E-02	 1.24997000E-02	 4.98523000E-02
		 3.22862000E-02	 6.25003000E-03	 4.61437000E-02
		 3.27491000E-02	 1.20368000E-02	 4.61367000E-02
		 2.23336000E-02	 6.24994000E-03	 4.36571000E-02
		 2.94205000E-02	 9.37498000E-03	 4.98575000E-02
		 2.27968000E-02	 1.24997000E-02	 4.36509000E-02
		 2.97678000E-02	 3.60366000E-07	 4.98525000E-02
		 3.27491000E-02	 4.63249000E-04	 4.61369000E-02
		 2.27968000E-02	 1.36472000E-07	 4.36511000E-02
		 2.94205000E-02	 3.12509000E-03	 4.98576000E-02
		 5.65046000E-02	 6.25030000E-03	 4.36774000E-02
		 5.69669000E-02	 1.06488000E-02	 4.36688000E-02
		 5.17290000E-02	 6.25028000E-03	 5.29403000E-02
		 5.21917000E-02	 1.15743000E-02	 5.29317000E-02
		 4.77121000E-02	 6.25017000E-03	 3.93551000E-02
		 5.66201000E-02	 8.44967000E-03	 4.36752000E-02
		 4.81744000E-02	 1.06488000E-02	 3.93473000E-02
		 5.42325000E-02	 6.25028000E-03	 4.83067000E-02
		 5.46950000E-02	 1.11115000E-02	 4.82981000E-02
		 4.29201000E-02	 6.25015000E-03	 4.76937000E-02
		 5.18446000E-02	 8.91237000E-03	 5.29382000E-02
		 4.33828000E-02	 1.15743000E-02	 4.76858000E-02
		 5.69670000E-02	 1.85170000E-03	 4.36691000E-02
		 5.21917000E-02	 9.26244000E-04	 5.29320000E-02
		 4.81744000E-02	 1.85147000E-03	 3.93475000E-02
		 5.66202000E-02	 4.05089000E-03	 4.36754000E-02
		 5.46950000E-02	 1.38902000E-03	 4.82984000E-02
		 4.33828000E-02	 9.25977000E-04	 4.76861000E-02
		 5.18446000E-02	 3.58818000E-03	 5.29383000E-02
		 4.60282000E-02	 6.25028000E-03	 6.22205000E-02
		 4.64912000E-02	 1.25000000E-02	 6.22118000E-02
		 4.89942000E-02	 6.25028000E-03	 5.75783000E-02
		 4.94571000E-02	 1.20371000E-02	 5.75696000E-02
		 3.72028000E-02	 6.25015000E-03	 5.60477000E-02
		 4.61440000E-02	 9.37523000E-03	 6.22183000E-02
		 3.76659000E-02	 1.25000000E-02	 5.60398000E-02
		 4.64912000E-02	 6.04804000E-07	 6.22121000E-02
		 4.94571000E-02	 4.63478000E-04	 5.75699000E-02
		 3.76658000E-02	 3.49470000E-07	 5.60400000E-02
		 4.61440000E-02	 3.12533000E-03	 6.22185000E-02
		 7.68597000E-02	 6.25060000E-03	 5.22682000E-02
		 7.73223000E-02	 1.06480000E-02	 5.22581000E-02
		 7.21226000E-02	 6.25058000E-03	 6.33800000E-02
		 7.25856000E-02	 1.15740000E-02	 6.33698000E-02
		 6.62205000E-02	 6.25044000E-03	 4.79825000E-02
		 7.69753000E-02	 8.44940000E-03	 5.22656000E-02
		 6.66829000E-02	 1.06486000E-02	 4.79732000E-02
		 7.46069000E-02	 6.25059000E-03	 5.78214000E-02
		 7.50697000E-02	 1.11109000E-02	 5.78113000E-02
		 6.14631000E-02	 6.25042000E-03	 5.81698000E-02
		 7.22384000E-02	 8.91237000E-03	 6.33774000E-02
		 6.19259000E-02	 1.15743000E-02	 5.81603000E-02
		 7.73223000E-02	 1.85314000E-03	 5.22585000E-02
		 7.25856000E-02	 9.27170000E-04	 6.33701000E-02
		 6.66830000E-02	 1.85218000E-03	 4.79735000E-02
		 7.69754000E-02	 4.05178000E-03	 5.22657000E-02
		 7.50697000E-02	 1.39022000E-03	 5.78116000E-02
		 6.19260000E-02	 9.26511000E-04	 5.81606000E-02
		 7.22384000E-02	 3.58880000E-03	 6.33775000E-02
		 6.64600000E-02	 6.25059000E-03	 7.45129000E-02
		 6.69234000E-02	 1.25003000E-02	 7.45025000E-02
		 6.94070000E-02	 6.25059000E-03	 6.89438000E-02
		 6.98702000E-02	 1.20371000E-02	 6.89335000E-02
		 5.57804000E-02	 6.25042000E-03	 6.83762000E-02
		 6.65759000E-02	 9.37554000E-03	 7.45103000E-02
		 5.62435000E-02	 1.25002000E-02	 6.83667000E-02
		 6.69234000E-02	 9.07072000E-07	 7.45029000E-02
		 6.98702000E-02	 4.64108000E-04	 6.89339000E-02
		 5.62435000E-02	 6.20648000E-07	 6.83670000E-02
		 6.65759000E-02	 3.12564000E-03	 7.45104000E-02
		 1.00909000E-01	 6.25097000E-03	 6.07725000E-02
		 1.01372000E-01	 1.06440000E-02	 6.07611000E-02
		 9.62194000E-02	 6.25095000E-03	 7.37347000E-02
		 9.66834000E-02	 1.15723000E-02	 7.37230000E-02
		 8.84224000E-02	 6.25078000E-03	 5.65323000E-02
		 1.01025000E-01	 8.44759000E-03	 6.07695000E-02
		 8.88854000E-02	 1.06466000E-02	 5.65217000E-02
		 9.86800000E-02	 6.25096000E-03	 6.72502000E-02
		 9.91439000E-02	 1.11081000E-02	 6.72388000E-02
		 8.37079000E-02	 6.25076000E-03	 6.85689000E-02
		 9.63354000E-02	 8.91173000E-03	 7.37317000E-02
		 8.41713000E-02	 1.15734000E-02	 6.85580000E-02
		 1.01372000E-01	 1.85790000E-03	 6.07615000E-02
		 9.66834000E-02	 9.29561000E-04	 7.37234000E-02
		 8.88854000E-02	 1.85490000E-03	 5.65221000E-02
		 1.01025000E-01	 4.05432000E-03	 6.07697000E-02
		 9.91439000E-02	 1.39377000E-03	 6.72392000E-02
		 8.41713000E-02	 9.28113000E-04	 6.85584000E-02
		 9.63354000E-02	 3.59018000E-03	 7.37319000E-02
		 9.06025000E-02	 6.25096000E-03	 8.67224000E-02
		 9.10668000E-02	 1.25006000E-02	 8.67104000E-02
		 9.35269000E-02	 6.25096000E-03	 8.02255000E-02
		 9.39910000E-02	 1.20364000E-02	 8.02136000E-02
		 7.80670000E-02	 6.25076000E-03	 8.06289000E-02
		 9.07186000E-02	 9.37590000E-03	 8.67195000E-02
		 7.85308000E-02	 1.25006000E-02	 8.06177000E-02
		 9.10668000E-02	 1.30354000E-06	 8.67108000E-02
		 9.39910000E-02	 4.65476000E-04	 8.02139000E-02
		 7.85308000E-02	 9.71975000E-07	 8.06181000E-02
		 9.07186000E-02	 3.12602000E-03	 8.67197000E-02
		 1.28662000E-01	 6.25139000E-03	 6.91699000E-02
		 1.29126000E-01	 1.06409000E-02	 6.91570000E-02
		 1.24027000E-01	 6.25138000E-03	 8.39892000E-02
		 1.24491000E-01	 1.15709000E-02	 8.39760000E-02
		 1.14321000E-01	 6.25117000E-03	 6.49849000E-02
		 1.28778000E-01	 8.44627000E-03	 6.91668000E-02
		 1.14786000E-01	 1.06423000E-02	 6.49725000E-02
		 1.26461000E-01	 6.25138000E-03	 7.65761000E-02
		 1.26925000E-01	 1.11058000E-02	 7.65630000E-02
		 1.09659000E-01	 6.25116000E-03	 7.88752000E-02
		 1.24143000E-01	 8.91123000E-03	 8.39859000E-02
		 1.10123000E-01	 1.15718000E-02	 7.88626000E-02
		 1.29126000E-01	 1.86188000E-03	 6.91575000E-02
		 1.24491000E-01	 9.31822000E-04	 8.39764000E-02
		 1.14786000E-01	 1.86004000E-03	 6.49729000E-02
		 1.28778000E-01	 4.05649000E-03	 6.91670000E-02
		 1.26925000E-01	 1.39691000E-03	 7.65635000E-02
		 1.10123000E-01	 9.30496000E-04	 7.88630000E-02
		 1.24143000E-01	 3.59152000E-03	 8.39861000E-02
		 1.18462000E-01	 6.25138000E-03	 9.88351000E-02
		 1.18927000E-01	 1.25009000E-02	 9.88218000E-02
		 1.21360000E-01	 6.25138000E-03	 9.14087000E-02
		 1.21825000E-01	 1.20359000E-02	 9.13954000E-02
		 1.04067000E-01	 6.25116000E-03	 9.27919000E-02
		 1.18578000E-01	 9.37624000E-03	 9.88318000E-02
		 1.04532000E-01	 1.25011000E-02	 9.27791000E-02
		 1.18927000E-01	 1.88152000E-06	 9.88222000E-02
		 1.21825000E-01	 4.66896000E-04	 9.13959000E-02
		 1.04532000E-01	 1.24069000E-06	 9.27795000E-02
		 1.18578000E-01	 3.12651000E-03	 9.88320000E-02
		 5.11993000E-04	 5.01653000E-04	 0.00000000E+00
		 3.82578000E-04	 5.02060000E-04	 0.00000000E+00
		 9.04034000E-04	 5.01637000E-04	 2.67891000E-06
		 1.04335000E-03	 5.01524000E-04	-1.50124000E-06
		 3.81597000E-04	 7.57701000E-04	 0.00000000E+00
		 2.53949000E-04	 5.02387000E-04	 0.00000000E+00
		 7.65396000E-04	 5.01966000E-04	 5.30464000E-04
		 9.04393000E-04	 7.79491000E-04	 5.22547000E-04
		 4.15242000E-04	 5.01745000E-04	 0.00000000E+00
		 5.12198000E-04	 5.01956000E-04	 1.23742000E-06
		 9.38980000E-04	 5.01579000E-04	 8.10487000E-07
		 6.44792000E-04	 5.01821000E-04	-1.27464000E-06
		 4.78599000E-04	 6.30350000E-04	 0.00000000E+00
		 3.49663000E-04	 5.02225000E-04	 0.00000000E+00
		 8.69371000E-04	 5.01803000E-04	 2.66741000E-04
		 1.00859000E-03	 6.40560000E-04	 2.62495000E-04
		 2.86678000E-04	 6.29739000E-04	 0.00000000E+00
		 3.80605000E-04	 5.02282000E-04	 2.61119000E-04
		 8.00261000E-04	 6.40697000E-04	 5.28955000E-04
		 5.11803000E-04	 7.65957000E-04	 2.55719000E-04
		 5.11294000E-04	 5.02387000E-04	 0.00000000E+00
		 1.04264000E-03	 5.01661000E-04	-2.37322000E-06
		 3.80908000E-04	 2.47174000E-04	 0.00000000E+00
		 9.03695000E-04	 2.24557000E-04	 5.21689000E-04
		 4.14911000E-04	 5.02351000E-04	 0.00000000E+00
		 6.44090000E-04	 5.02008000E-04	-1.70138000E-06
		 9.38647000E-04	 5.01668000E-04	 3.72869000E-07
		 4.77859000E-04	 3.74109000E-04	 0.00000000E+00
		 1.00784000E-03	 3.63057000E-04	 2.61626000E-04
		 2.86370000E-04	 3.75069000E-04	 0.00000000E+00
		 5.11112000E-04	 2.38716000E-04	 2.55301000E-04
		 7.99955000E-04	 3.63274000E-04	 5.28521000E-04
		 0.00000000E+00	 1.00579000E-03	 0.00000000E+00
		-1.23517000E-04	 5.02460000E-04	 0.00000000E+00
		 3.50736000E-04	 5.02013000E-04	 1.03763000E-03
		 4.88725000E-04	 1.05586000E-03	 1.02538000E-03
		 2.20356000E-04	 8.82411000E-04	 0.00000000E+00
		 9.46065000E-05	 5.02482000E-04	 0.00000000E+00
		 5.92599000E-04	 5.02058000E-04	 7.89207000E-04
		 7.31167000E-04	 9.17768000E-04	 7.76917000E-04
		-9.16336000E-05	 7.54141000E-04	 0.00000000E+00
		-9.85931000E-06	 5.02346000E-04	 5.10065000E-04
		 3.85153000E-04	 7.78848000E-04	 1.03686000E-03
		 1.17992000E-04	 1.02268000E-03	 5.01842000E-04
		 0.00000000E+00	 0.00000000E+00	 0.00000000E+00
		 4.88797000E-04	-5.08542000E-05	 1.02458000E-03
		 2.19836000E-04	 1.22968000E-04	 0.00000000E+00
		 7.30648000E-04	 8.68176000E-05	 7.76084000E-04
		-9.14971000E-05	 2.51092000E-04	 0.00000000E+00
		 1.18013000E-04	-1.70764000E-05	 5.01448000E-04
		 3.85350000E-04	 2.25532000E-04	 1.03646000E-03
		 2.53937000E-03	 5.00289000E-04	 1.39199000E-07
		 2.69311000E-03	 5.00339000E-04	-2.02189000E-06
		 2.38699000E-03	 5.00622000E-04	 1.11719000E-03
		 2.54152000E-03	 8.08746000E-04	 1.11289000E-03
		 1.57427000E-03	 5.01086000E-04	 1.25770000E-06
		 2.57778000E-03	 5.00391000E-04	-7.25045000E-07
		 1.72157000E-03	 5.01046000E-04	-2.24635000E-06
		 2.50192000E-03	 5.00456000E-04	 5.58757000E-04
		 2.65593000E-03	 6.54241000E-04	 5.56449000E-04
		 1.42759000E-03	 5.01420000E-04	 8.17608000E-04
		 2.42535000E-03	 6.54814000E-04	 1.11635000E-03
		 1.57560000E-03	 7.95906000E-04	 8.10406000E-04
		 2.69239000E-03	 5.00139000E-04	-3.87714000E-06
		 2.54081000E-03	 1.92627000E-04	 1.11104000E-03
		 1.72085000E-03	 5.01032000E-04	-3.59775000E-06
		 2.57744000E-03	 5.00156000E-04	-1.65344000E-06
		 2.65516000E-03	 3.46685000E-04	 5.54594000E-04
		 1.57490000E-03	 2.07056000E-04	 8.09064000E-04
		 2.42504000E-03	 3.46473000E-04	 1.11543000E-03
		 1.92381000E-03	 5.00637000E-04	 2.22687000E-03
		 2.07962000E-03	 1.12062000E-03	 2.22070000E-03
		 2.19503000E-03	 5.00707000E-04	 1.67398000E-03
		 2.35028000E-03	 9.64427000E-04	 1.66795000E-03
		 9.83270000E-04	 5.01446000E-04	 1.61895000E-03
		 1.96218000E-03	 8.10527000E-04	 2.22596000E-03
		 1.13251000E-03	 1.09503000E-03	 1.60800000E-03
		 2.07977000E-03	-1.18238000E-04	 2.21886000E-03
		 2.34976000E-03	 3.75166000E-05	 1.66610000E-03
		 1.13264000E-03	-9.10754000E-05	 1.60669000E-03
		 1.96244000E-03	 1.91147000E-04	 2.22504000E-03
		 5.39673000E-03	 4.97914000E-04	-4.70742000E-06
		 5.55669000E-03	 4.97854000E-04	-4.80549000E-06
		 5.24011000E-03	 4.98247000E-04	 1.74086000E-03
		 5.40039000E-03	 8.17969000E-04	 1.73989000E-03
		 3.81064000E-03	 4.99233000E-04	-2.07593000E-06
		 5.43676000E-03	 4.97923000E-04	-4.57818000E-06
		 3.96814000E-03	 4.99206000E-04	-3.08025000E-06
		 5.35841000E-03	 4.98082000E-04	 8.67987000E-04
		 5.51854000E-03	 6.57864000E-04	 8.67746000E-04
		 3.65544000E-03	 4.99566000E-04	 1.42621000E-03
		 5.28021000E-03	 6.58128000E-04	 1.74090000E-03
		 3.81339000E-03	 8.14227000E-04	 1.42405000E-03
		 5.55596000E-03	 4.97873000E-04	-7.70557000E-06
		 5.39967000E-03	 1.78657000E-04	 1.73699000E-03
		 3.96741000E-03	 4.99158000E-04	-5.45389000E-06
		 5.43642000E-03	 4.97874000E-04	-6.02853000E-06
		 5.51776000E-03	 3.38313000E-04	 8.64845000E-04
		 3.81268000E-03	 1.85035000E-04	 1.42168000E-03
		 5.27990000E-03	 3.38410000E-04	 1.73944000E-03
		 4.76249000E-03	 4.98254000E-04	 3.48398000E-03
		 4.92292000E-03	 1.13956000E-03	 3.48215000E-03
		 5.04137000E-03	 4.98329000E-04	 2.61301000E-03
		 5.20186000E-03	 9.78741000E-04	 2.61134000E-03
		 3.18464000E-03	 4.99577000E-04	 2.84948000E-03
		 4.80250000E-03	 8.18872000E-04	 3.48392000E-03
		 3.34305000E-03	 1.13126000E-03	 2.84610000E-03
		 4.92309000E-03	-1.41922000E-04	 3.47925000E-03
		 5.20135000E-03	 1.84576000E-05	 2.60844000E-03
		 3.34321000E-03	-1.30987000E-04	 2.84373000E-03
		 4.80277000E-03	 1.78045000E-04	 3.48247000E-03
		 9.52818000E-03	 4.94480000E-04	-1.34200000E-05
		 9.69049000E-03	 4.94437000E-04	-1.25656000E-05
		 9.37199000E-03	 4.94811000E-04	 2.37579000E-03
		 9.53447000E-03	 8.19010000E-04	 2.37635000E-03
		 7.30143000E-03	 4.96331000E-04	-8.43603000E-06
		 9.56882000E-03	 4.94489000E-04	-1.27845000E-05
		 7.46278000E-03	 4.96254000E-04	-8.01979000E-06
		 9.49064000E-03	 4.94647000E-04	 1.18101000E-03
		 9.65304000E-03	 6.56666000E-04	 1.18184000E-03
		 7.14457000E-03	 4.96663000E-04	 2.05768000E-03
		 9.41262000E-03	 6.56930000E-04	 2.37642000E-03
		 7.30615000E-03	 8.18863000E-04	 2.05761000E-03
		 9.68975000E-03	 4.94418000E-04	-1.65352000E-05
		 9.53374000E-03	 1.70747000E-04	 2.37238000E-03
		 7.46205000E-03	 4.96304000E-04	-1.14523000E-05
		 9.56847000E-03	 4.94438000E-04	-1.47697000E-05
		 9.65225000E-03	 3.32641000E-04	 1.17787000E-03
		 7.30543000E-03	 1.74596000E-04	 2.05418000E-03
		 9.41231000E-03	 3.32737000E-04	 2.37444000E-03
		 8.89097000E-03	 4.94811000E-04	 4.76527000E-03
		 9.05327000E-03	 1.14433000E-03	 4.76553000E-03
		 9.17216000E-03	 4.94891000E-04	 3.57063000E-03
		 9.33467000E-03	 9.81649000E-04	 3.57093000E-03
		 6.66517000E-03	 4.96667000E-04	 4.12301000E-03
		 8.93136000E-03	 8.19503000E-04	 4.76589000E-03
		 6.82668000E-03	 1.14236000E-03	 4.12250000E-03
		 9.05345000E-03	-1.53551000E-04	 4.76156000E-03