# vtk DataFile Version 3.0

ASCII
DATASET UNSTRUCTURED_GRID

POINTS 16 double
	 8.83883000E-02	-1.25000000E-01	-8.83883000E-02
	 8.83883000E-02	 1.25000000E-01	-8.83883000E-02
	-8.83883000E-02	 1.25000000E-01	 8.83883000E-02
	-8.83883000E-02	-1.25000000E-01	 8.83883000E-02
	 5.08839000E+00	-1.25000000E-01	 4.91161000E+00
	 5.08839000E+00	 1.25000000E-01	 4.91161000E+00
	 4.91161000E+00	 1.25000000E-01	 5.08839000E+00
	 4.91161000E+00	-1.25000000E-01	 5.08839000E+00
	 5.08839000E+00	-1.25000000E-01	 5.08839000E+00
	 5.08839000E+00	 1.25000000E-01	 5.08839000E+00
	 4.91161000E+00	 1.25000000E-01	 4.91161000E+00
	 4.91161000E+00	-1.25000000E-01	 4.91161000E+00
	 8.83883000E-02	-1.25000000E-01	 1.00884000E+01
	 8.83883000E-02	 1.25000000E-01	 1.00884000E+01
	-8.83883000E-02	 1.25000000E-01	 9.91161000E+00
	-8.83883000E-02	-1.25000000E-01	 9.91161000E+00

CELLS 2 18
	8 0 4 5 1 3 7 6 2 
	8 8 12 13 9 11 15 14 10 

CELL_TYPES 2
	12
	12

POINT_DATA 16
FIELD U 1
	U 3 16 double
		-1.05232000E-07	 4.24264000E-08	-4.52316000E-08
		-1.54768000E-07	-4.24264000E-08	-9.47684000E-08
		 1.05232000E-07	-4.24264000E-08	 4.52316000E-08
		 1.54768000E-07	 4.24264000E-08	 9.47684000E-08
		 1.12085000E-05	 2.02390000E-06	-4.52316000E-08
		 1.11589000E-05	 1.93905000E-06	-9.47684000E-08
		 1.14189000E-05	 1.93905000E-06	 4.52316000E-08
		 1.14685000E-05	 2.02390000E-06	 9.47684000E-08
		 1.12085000E-05	 2.02390000E-06	 4.52316000E-08
		 1.11589000E-05	 1.93905000E-06	 9.47684000E-08
		 1.14189000E-05	 1.93905000E-06	-4.52316000E-08
		 1.14685000E-05	 2.02390000E-06	-9.47684000E-08
		-1.05232000E-07	 4.24264000E-08	 4.52316000E-08
		-1.54768000E-07	-4.24264000E-08	 9.47684000E-08
		 1.05232000E-07	-4.24264000E-08	-4.52316000E-08
		 1.54768000E-07	 4.24264000E-08	-9.47684000E-08
FIELD S 1
	S 10 16 double
		 5.65663000E+00	 3.38853000E-13	 5.65663000E+00	 2.94220000E-14	 1.95515000E-14	 5.65663000E+00	 1.13132600E+01	-1.28121345E-16	 3.39412278E-13	 1.13132600E+01
		 5.65663000E+00	 2.66281000E-14	 5.65663000E+00	 5.25189000E-14	-5.65477000E-14	 5.65663000E+00	 1.13132600E+01	-6.55870879E-14	 9.13442621E-14	 1.13132600E+01
		 5.65663000E+00	-2.74203000E-13	 5.65663000E+00	-9.34279000E-14	-3.95265000E-13	 5.65663000E+00	 1.13132600E+01	-3.90681336E-13	 1.16678294E-13	 1.13132600E+01
		 5.65663000E+00	 6.75918000E-14	 5.65663000E+00	-1.07290000E-13	-3.26577000E-13	 5.65663000E+00	 1.13132600E+01	-1.24772631E-13	 1.93162369E-13	 1.13132600E+01
		 5.65663000E+00	-3.88811000E-13	 5.65663000E+00	 2.32348000E-13	 1.19277000E-13	 5.65663000E+00	 1.13132600E+01	-4.03885390E-13	 1.57514209E-14	 1.13132600E+01
		 5.65663000E+00	 3.14404000E-14	 5.65663000E+00	 1.26793000E-13	 1.30303000E-13	 5.65663000E+00	 1.13132600E+01	-1.54661743E-16	 3.12409064E-14	 1.13132600E+01
		 5.65663000E+00	 1.81171000E-13	 5.65663000E+00	-6.40910000E-13	-2.25905000E-13	 5.65663000E+00	 1.13132600E+01	-2.16372008E-13	 3.97560405E-13	 1.13132600E+01
		 5.65663000E+00	-2.23355000E-13	 5.65663000E+00	-5.78490000E-13	-2.45401000E-13	 5.65663000E+00	 1.13132600E+01	-3.71615767E-13	 1.49127073E-13	 1.13132600E+01
		 5.65663000E+00	 1.19039000E-13	 5.65663000E+00	-1.00297000E-13	 1.03103000E-13	-5.65663000E+00	 1.13132600E+01	 8.04761909E-16	 1.19099325E-13	 1.13132600E+01
		 5.65663000E+00	-4.88115000E-13	 5.65663000E+00	-1.57716000E-13	 1.80782000E-14	-5.65663000E+00	 1.13132600E+01	-5.06410375E-13	 1.96886006E-14	 1.13132600E+01
		 5.65663000E+00	 4.81922000E-14	 5.65663000E+00	 2.66051000E-13	 8.71063000E-14	-5.65663000E+00	 1.13132600E+01	-2.27368964E-13	 2.74886509E-13	 1.13132600E+01
		 5.65663000E+00	 6.34030000E-13	 5.65663000E+00	 3.27032000E-13	 1.76377000E-13	-5.65663000E+00	 1.13132600E+01	-1.60096693E-13	 7.93811995E-13	 1.13132600E+01
		 5.65663000E+00	-2.07176000E-13	 5.65663000E+00	 1.81587000E-13	 6.39184000E-14	-5.65663000E+00	 1.13132600E+01	-3.05345894E-13	 9.84003217E-14	 1.13132600E+01
		 5.65663000E+00	 2.24826000E-13	 5.65663000E+00	 2.03069000E-13	 7.20756000E-14	-5.65663000E+00	 1.13132600E+01	-1.10676633E-13	 3.36273951E-13	 1.13132600E+01
		 5.65663000E+00	 1.88265000E-13	 5.65663000E+00	-3.07842000E-13	 2.34884000E-14	-5.65663000E+00	 1.13132600E+01	-1.28100307E-13	 3.15950043E-13	 1.13132600E+01
		 5.65663000E+00	-2.65052000E-13	 5.65663000E+00	-3.31052000E-13	 2.11640000E-14	-5.65663000E+00	 1.13132600E+01	-3.89212209E-13	 1.24090951E-13	 1.13132600E+01
