<?xml version="1.0"?>
<VTKFile type="UnstructuredGrid" version="0.1" byte_order="LittleEndian">
	<UnstructuredGrid>
		<Piece NumberOfPoints="21" NumberOfCells="10">
			<Points>
				<DataArray type="Float64" NumberOfComponents="3" format="ascii">
					 0.00000000E+00	 0.00000000E+00	 0.00000000E+00
					 1.00000000E+00	 0.00000000E+00	 0.00000000E+00
					 2.00000000E+00	 0.00000000E+00	 0.00000000E+00
					 3.00000000E+00	 0.00000000E+00	 0.00000000E+00
					 4.00000000E+00	 0.00000000E+00	 0.00000000E+00
					 5.00000000E+00	 0.00000000E+00	 0.00000000E+00
					 6.00000000E+00	 0.00000000E+00	 0.00000000E+00
					 7.00000000E+00	 0.00000000E+00	 0.00000000E+00
					 8.00000000E+00	 0.00000000E+00	 0.00000000E+00
					 9.00000000E+00	 0.00000000E+00	 0.00000000E+00
					 1.00000000E+01	 0.00000000E+00	 0.00000000E+00
					 1.10000000E+01	 0.00000000E+00	 0.00000000E+00
					 1.20000000E+01	 0.00000000E+00	 0.00000000E+00
					 1.30000000E+01	 0.00000000E+00	 0.00000000E+00
					 1.40000000E+01	 0.00000000E+00	 0.00000000E+00
					 1.50000000E+01	 0.00000000E+00	 0.00000000E+00
					 1.60000000E+01	 0.00000000E+00	 0.00000000E+00
					 1.70000000E+01	 0.00000000E+00	 0.00000000E+00
					 1.80000000E+01	 0.00000000E+00	 0.00000000E+00
					 1.90000000E+01	 0.00000000E+00	 0.00000000E+00
					 2.00000000E+01	 0.00000000E+00	 0.00000000E+00
				</DataArray>
			</Points>
			<Cells>
				<DataArray type="Int32" Name="connectivity" format="ascii">
					0 2 1 2 4 3 4 6 5 6 8 7 8 10 9 10 12 11 12 14 13 14 16 15 16 18 17 18 20 19 
				</DataArray>
				<DataArray type="Int32" Name="offsets" format="ascii">
					3 6 9 12 15 18 21 24 27 30 
				</DataArray>
				<DataArray type="UInt8" Name="types" format="ascii">
					21 21 21 21 21 21 21 21 21 21 
				</DataArray>
			</Cells>
			<PointData>
				<DataArray type="Float32" Name="U" NumberOfComponents="3" ComponentName0="D1" ComponentName1="D2" ComponentName2="D3" format="ascii">
					 1.32349000E-23	-1.73549000E-29	-2.52435000E-29
					-1.99137000E-12	 1.33212000E-23	-2.59208000E-06
					-3.98274000E-12	 3.44670000E-23	-5.18415000E-06
					-4.64658000E-12	 1.45647000E-22	-7.20004000E-06
					-5.31042000E-12	 4.69623000E-22	-9.21593000E-06
					-4.97871000E-12	 1.20834000E-22	-1.06556000E-05
					-4.64700000E-12	 1.53383000E-22	-1.20953000E-05
					-3.65183000E-12	 5.00163000E-22	-1.29589000E-05
					-2.65665000E-12	 4.63252000E-23	-1.38225000E-05
					-1.32996000E-12	-9.54329000E-22	-1.41101000E-05
					-3.26139000E-15	-2.87330000E-23	-1.43977000E-05
					 1.32309000E-12	-6.27138000E-22	-1.41089000E-05
					 2.64944000E-12	 6.02606000E-23	-1.38201000E-05
					 3.64430000E-12	-2.76877000E-23	-1.29561000E-05
					 4.63916000E-12	-6.41570000E-23	-1.20922000E-05
					 4.97074000E-12	-1.39188000E-22	-1.06524000E-05
					 5.30232000E-12	-2.75389000E-22	-9.21261000E-06
					 4.63936000E-12	 2.81651000E-22	-7.19716000E-06
					 3.97640000E-12	-9.62437000E-23	-5.18171000E-06
					 1.98820000E-12	-1.35861000E-22	-2.59086000E-06
					 0.00000000E+00	-1.89327000E-29	-2.52435000E-29
				</DataArray>
				<DataArray type="Float32" Name="S" NumberOfComponents="10" ComponentName0="xx" ComponentName1="yy" ComponentName2="zz" ComponentName3="xy" ComponentName4="yz" ComponentName5="zx" ComponentName6="Mises" ComponentName7="Min Principal" ComponentName8="Mid Principal" ComponentName9="Max Principal" format="ascii">
					-4.78339000E-09	-2.03019000E-12	 1.58316000E-02	-7.62012000E-14	 9.40259000E-13	 1.59221000E-09	 1.58316024E-02	-4.78339016E-09	-2.03019116E-12	 1.58316000E-02
					-2.39327000E-09	-3.49021000E-13	 1.58316000E-02	 1.19083000E-13	-3.85628000E-13	 1.59553000E-09	 1.58316012E-02	-2.39327017E-09	-3.49019300E-13	 1.58316000E-02
					-3.14918000E-12	 1.33215000E-12	 1.58316000E-02	 3.14367000E-13	-1.71152000E-12	 1.59885000E-09	 1.58316000E-02	-3.17128621E-12	 1.35409331E-12	 1.58316000E-02
					-3.21535000E-12	 3.46319000E-12	 1.58316000E-02	 3.34671000E-13	-2.22119000E-12	 1.59429000E-09	 1.58316000E-02	-3.23223911E-12	 3.47991638E-12	 1.58316000E-02
					-3.28152000E-12	 5.59423000E-12	 1.58316000E-02	 3.54975000E-13	-2.73086000E-12	 1.58973000E-09	 1.58316000E-02	-3.29585357E-12	 5.60840283E-12	 1.58316000E-02
					-4.54364000E-12	 4.57494000E-13	 1.58316000E-02	 1.57362000E-13	 6.77483000E-13	 1.58816000E-09	 1.58316000E-02	-4.54874570E-12	 4.62442415E-13	 1.58316000E-02
					-5.80575000E-12	-4.67924000E-12	 1.58316000E-02	-4.02504000E-14	 4.08583000E-12	 1.58660000E-09	 1.58316000E-02	-5.80734516E-12	-4.67780898E-12	 1.58316000E-02
					 7.84576000E-13	 1.66808000E-12	 1.58316000E-02	-2.05776000E-13	 5.98388000E-13	 1.58442000E-09	 1.58316000E-02	 7.38848999E-13	 1.71365252E-12	 1.58316000E-02
					 7.37490000E-12	 8.01540000E-12	 1.58316000E-02	-3.71301000E-13	-2.88905000E-12	 1.58225000E-09	 1.58316000E-02	 7.20468838E-12	 8.18545281E-12	 1.58316000E-02
					 3.30716000E-12	 3.14598000E-12	 1.58316000E-02	-6.59545000E-13	-5.79344000E-12	 1.58847000E-09	 1.58316000E-02	 2.56205120E-12	 3.89093133E-12	 1.58316000E-02
					-7.60570000E-13	-1.72343000E-12	 1.58316000E-02	-9.47790000E-13	-8.69782000E-12	 1.59469000E-09	 1.58316000E-02	-2.30509334E-12	-1.79064021E-13	 1.58316000E-02
					 2.81487000E-12	-3.75700000E-12	 1.58317000E-02	-6.60924000E-13	-4.34870000E-12	 1.58606000E-09	 1.58317000E-02	-3.82280860E-12	 2.88052183E-12	 1.58317000E-02
					 6.39032000E-12	-5.79056000E-12	 1.58317000E-02	-3.74058000E-13	 4.17472000E-16	 1.57742000E-09	 1.58317000E-02	-5.80203288E-12	 6.40163897E-12	 1.58317000E-02
					-1.32219000E-12	-3.64317000E-12	 1.58317000E-02	 1.22413000E-13	-8.34033000E-14	 1.58712000E-09	 1.58317000E-02	-3.64961014E-12	-1.31591023E-12	 1.58317000E-02
					-9.03469000E-12	-1.49579000E-12	 1.58318000E-02	 6.18883000E-13	-1.67224000E-13	 1.59683000E-09	 1.58318000E-02	-9.08531744E-12	-1.44532006E-12	 1.58318000E-02
					 7.21935000E-13	-2.01951000E-12	 1.58318000E-02	-1.23496000E-13	-3.21542000E-12	 1.59131000E-09	 1.58318000E-02	-2.02506228E-12	 7.27327322E-13	 1.58318000E-02
					 1.04786000E-11	-2.54324000E-12	 1.58317000E-02	-8.65876000E-13	-6.26362000E-12	 1.58578000E-09	 1.58317000E-02	-2.60056566E-12	 1.05357651E-11	 1.58317000E-02
					 9.61447000E-12	 4.11994000E-13	 1.58317000E-02	-4.10001000E-13	-1.19663000E-12	 1.58204000E-09	 1.58317000E-02	 3.93764381E-13	 9.63254301E-12	 1.58317000E-02
					 8.75038000E-12	 3.36723000E-12	 1.58317000E-02	 4.58741000E-14	 3.87036000E-12	 1.57829000E-09	 1.58317000E-02	 3.36683781E-12	 8.75061356E-12	 1.58317000E-02
					 2.39689000E-09	 1.30574000E-12	 1.58317000E-02	-4.22085000E-13	 3.92903000E-12	 1.57168000E-09	 1.58316988E-02	 1.30566456E-12	 2.39688992E-09	 1.58317000E-02
					 4.78503000E-09	-7.55741000E-13	 1.58318000E-02	-8.90045000E-13	 3.98770000E-12	 1.56507000E-09	 1.58317976E-02	-7.55904034E-13	 4.78503001E-09	 1.58318000E-02
				</DataArray>
			</PointData>
		</Piece>
	</UnstructuredGrid>
</VTKFile>