# vtk DataFile Version 3.0

ASCII
DATASET UNSTRUCTURED_GRID

POINTS 68 double
	-1.25000000E+01	 2.50000000E+01	 0.00000000E+00
	-1.25000000E+01	-2.50000000E+01	 0.00000000E+00
	 1.25000000E+01	-2.50000000E+01	 0.00000000E+00
	 1.25000000E+01	 2.50000000E+01	 0.00000000E+00
	-1.25000000E+01	 0.00000000E+00	 0.00000000E+00
	 0.00000000E+00	-2.50000000E+01	 0.00000000E+00
	 1.25000000E+01	 0.00000000E+00	 0.00000000E+00
	 0.00000000E+00	 2.50000000E+01	 0.00000000E+00
	-1.25000000E+01	 2.50000000E+01	 1.00000000E+02
	-1.25000000E+01	-2.50000000E+01	 1.00000000E+02
	 1.25000000E+01	-2.50000000E+01	 1.00000000E+02
	 1.25000000E+01	 2.50000000E+01	 1.00000000E+02
	-1.25000000E+01	 2.50000000E+01	 2.00000000E+02
	-1.25000000E+01	-2.50000000E+01	 2.00000000E+02
	 1.25000000E+01	-2.50000000E+01	 2.00000000E+02
	 1.25000000E+01	 2.50000000E+01	 2.00000000E+02
	-1.25000000E+01	 0.00000000E+00	 2.00000000E+02
	 0.00000000E+00	-2.50000000E+01	 2.00000000E+02
	 1.25000000E+01	 0.00000000E+00	 2.00000000E+02
	 0.00000000E+00	 2.50000000E+01	 2.00000000E+02
	-1.25000000E+01	 2.50000000E+01	 3.00000000E+02
	-1.25000000E+01	-2.50000000E+01	 3.00000000E+02
	 1.25000000E+01	-2.50000000E+01	 3.00000000E+02
	 1.25000000E+01	 2.50000000E+01	 3.00000000E+02
	-1.25000000E+01	 2.50000000E+01	 4.00000000E+02
	-1.25000000E+01	-2.50000000E+01	 4.00000000E+02
	 1.25000000E+01	-2.50000000E+01	 4.00000000E+02
	 1.25000000E+01	 2.50000000E+01	 4.00000000E+02
	-1.25000000E+01	 0.00000000E+00	 4.00000000E+02
	 0.00000000E+00	-2.50000000E+01	 4.00000000E+02
	 1.25000000E+01	 0.00000000E+00	 4.00000000E+02
	 0.00000000E+00	 2.50000000E+01	 4.00000000E+02
	-1.25000000E+01	 2.50000000E+01	 5.00000000E+02
	-1.25000000E+01	-2.50000000E+01	 5.00000000E+02
	 1.25000000E+01	-2.50000000E+01	 5.00000000E+02
	 1.25000000E+01	 2.50000000E+01	 5.00000000E+02
	-1.25000000E+01	 2.50000000E+01	 6.00000000E+02
	-1.25000000E+01	-2.50000000E+01	 6.00000000E+02
	 1.25000000E+01	-2.50000000E+01	 6.00000000E+02
	 1.25000000E+01	 2.50000000E+01	 6.00000000E+02
	-1.25000000E+01	 0.00000000E+00	 6.00000000E+02
	 0.00000000E+00	-2.50000000E+01	 6.00000000E+02
	 1.25000000E+01	 0.00000000E+00	 6.00000000E+02
	 0.00000000E+00	 2.50000000E+01	 6.00000000E+02
	-1.25000000E+01	 2.50000000E+01	 7.00000000E+02
	-1.25000000E+01	-2.50000000E+01	 7.00000000E+02
	 1.25000000E+01	-2.50000000E+01	 7.00000000E+02
	 1.25000000E+01	 2.50000000E+01	 7.00000000E+02
	-1.25000000E+01	 2.50000000E+01	 8.00000000E+02
	-1.25000000E+01	-2.50000000E+01	 8.00000000E+02
	 1.25000000E+01	-2.50000000E+01	 8.00000000E+02
	 1.25000000E+01	 2.50000000E+01	 8.00000000E+02
	-1.25000000E+01	 0.00000000E+00	 8.00000000E+02
	 0.00000000E+00	-2.50000000E+01	 8.00000000E+02
	 1.25000000E+01	 0.00000000E+00	 8.00000000E+02
	 0.00000000E+00	 2.50000000E+01	 8.00000000E+02
	-1.25000000E+01	 2.50000000E+01	 9.00000000E+02
	-1.25000000E+01	-2.50000000E+01	 9.00000000E+02
	 1.25000000E+01	-2.50000000E+01	 9.00000000E+02
	 1.25000000E+01	 2.50000000E+01	 9.00000000E+02
	-1.25000000E+01	 2.50000000E+01	 1.00000000E+03
	-1.25000000E+01	-2.50000000E+01	 1.00000000E+03
	 1.25000000E+01	-2.50000000E+01	 1.00000000E+03
	 1.25000000E+01	 2.50000000E+01	 1.00000000E+03
	-1.25000000E+01	 0.00000000E+00	 1.00000000E+03
	 0.00000000E+00	-2.50000000E+01	 1.00000000E+03
	 1.25000000E+01	 0.00000000E+00	 1.00000000E+03
	 0.00000000E+00	 2.50000000E+01	 1.00000000E+03

CELLS 5 105
	20 0 12 13 1 3 15 14 2 8 16 9 4 11 18 10 6 7 19 17 5 
	20 12 24 25 13 15 27 26 14 20 28 21 16 23 30 22 18 19 31 29 17 
	20 24 36 37 25 27 39 38 26 32 40 33 28 35 42 34 30 31 43 41 29 
	20 36 48 49 37 39 51 50 38 44 52 45 40 47 54 46 42 43 55 53 41 
	20 48 60 61 49 51 63 62 50 56 64 57 52 59 66 58 54 55 67 65 53 

CELL_TYPES 5
	25
	25
	25
	25
	25

POINT_DATA 68
FIELD U 1
	U 3 68 double
		 4.13630000E-01	 1.56901000E-01	 1.04281000E+00
		-4.13630000E-01	 1.56901000E-01	-1.04281000E+00
		 5.70531000E-01	-1.56901000E-01	 1.04281000E+00
		-5.70531000E-01	-1.56901000E-01	-1.04281000E+00
		-8.27116000E-15	 1.56901000E-01	 0.00000000E+00
		 7.84507000E-02	 2.18270000E-13	 0.00000000E+00
		 8.27116000E-15	-1.56901000E-01	 0.00000000E+00
		-7.84507000E-02	-2.18270000E-13	 0.00000000E+00
		 1.31314000E+00	-1.79970000E+01	 4.68776000E+00
		-1.31314000E+00	-1.79970000E+01	-4.68776000E+00
		-1.23693000E+00	-1.91814000E+01	-4.97834000E+00
		 1.23693000E+00	-1.91814000E+01	 4.97834000E+00
		-5.56972000E-01	-3.34944000E+01	 5.74395000E-02
		 5.56972000E-01	-3.34944000E+01	-5.74395000E-02
		-1.56123000E-01	-3.35467000E+01	 2.54910000E-01
		 1.56123000E-01	-3.35467000E+01	-2.54910000E-01
		 6.46594000E-13	-3.37936000E+01	 3.19744000E-13
		 1.94531000E-01	-3.34559000E+01	 8.42830000E-02
		 6.91003000E-13	-3.38242000E+01	 1.65201000E-13
		-1.94531000E-01	-3.34559000E+01	-8.42830000E-02
		-2.00944000E+00	-1.77988000E+01	-6.69663000E+00
		 2.00944000E+00	-1.77988000E+01	 6.69663000E+00
		 1.68826000E+00	-1.57545000E+01	 6.03234000E+00
		-1.68826000E+00	-1.57545000E+01	-6.03234000E+00
		-4.07254000E+00	 1.32827000E+01	-6.79867000E+00
		 4.07254000E+00	 1.32827000E+01	 6.79867000E+00
		 4.26868000E+00	 1.71994000E+01	 6.53952000E+00
		-4.26868000E+00	 1.71994000E+01	-6.53952000E+00
		-1.35492000E-12	 1.34702000E+01	 4.58300000E-13
		 4.17522000E+00	 1.52021000E+01	 6.68286000E+00
		-1.36691000E-12	 1.73695000E+01	 8.63309000E-13
		-4.17522000E+00	 1.52021000E+01	-6.68286000E+00
		-4.11473000E+00	 2.78246000E+01	 1.04367000E-01
		 4.11473000E+00	 2.78246000E+01	-1.04367000E-01
		 4.84131000E+00	 3.23315000E+01	-2.01249000E-02
		-4.84131000E+00	 3.23315000E+01	 2.01249000E-02
		-2.88790000E+00	 1.30490000E+01	 6.87054000E+00
		 2.88790000E+00	 1.30490000E+01	-6.87054000E+00
		 3.04489000E+00	 1.58106000E+01	-6.24270000E+00
		-3.04489000E+00	 1.58106000E+01	 6.24270000E+00
		 2.59037000E-12	 1.32428000E+01	 1.01252000E-12
		 2.97005000E+00	 1.43877000E+01	-6.56732000E+00
		 2.47713000E-12	 1.59912000E+01	-4.22773000E-13
		-2.97005000E+00	 1.43877000E+01	 6.56732000E+00
		-1.60195000E-01	-1.64954000E+01	 5.93866000E+00
		 1.60195000E-01	-1.64954000E+01	-5.93866000E+00
		-2.24109000E-01	-1.63763000E+01	-5.27212000E+00
		 2.24109000E-01	-1.63763000E+01	 5.27212000E+00
		 2.00310000E+00	-2.69538000E+01	-1.89697000E+00
		-2.00310000E+00	-2.69538000E+01	 1.89697000E+00
		-2.76037000E+00	-2.95531000E+01	 2.13140000E+00
		 2.76037000E+00	-2.95531000E+01	-2.13140000E+00
		-6.34159000E-13	-2.73819000E+01	 1.45661000E-13
		-2.38715000E+00	-2.81562000E+01	 2.02250000E+00
		-6.34159000E-13	-2.99618000E+01	 2.06413000E-12
		 2.38715000E+00	-2.81562000E+01	-2.02250000E+00
		 3.11264000E+00	-1.29063000E+00	-9.16233000E+00
		-3.11264000E+00	-1.29063000E+00	 9.16233000E+00
		-3.41029000E+00	-4.45478000E+00	 9.13252000E+00
		 3.41029000E+00	-4.45478000E+00	-9.13252000E+00
		 3.00849000E+00	 4.31571000E+01	-1.15428000E+01
		-3.00849000E+00	 4.31571000E+01	 1.15428000E+01
		-3.11298000E+00	 3.98953000E+01	 1.13584000E+01
		 3.11298000E+00	 3.98953000E+01	-1.13584000E+01
		-8.52651000E-14	 4.31914000E+01	 1.17950000E-12
		-3.06045000E+00	 4.15206000E+01	 1.14501000E+01
		-1.13687000E-13	 3.99297000E+01	-4.74287000E-13
		 3.06045000E+00	 4.15206000E+01	-1.14501000E+01
