<?xml version="1.0"?>
<VTKFile type="UnstructuredGrid" version="0.1" byte_order="LittleEndian">
	<UnstructuredGrid>
		<Piece NumberOfPoints="68" NumberOfCells="5">
			<Points>
				<DataArray type="Float64" NumberOfComponents="3" format="ascii">
					-1.25000000E+01	 2.50000000E+01	 0.00000000E+00
					-1.25000000E+01	-2.50000000E+01	 0.00000000E+00
					 1.25000000E+01	-2.50000000E+01	 0.00000000E+00
					 1.25000000E+01	 2.50000000E+01	 0.00000000E+00
					-1.25000000E+01	 0.00000000E+00	 0.00000000E+00
					 0.00000000E+00	-2.50000000E+01	 0.00000000E+00
					 1.25000000E+01	 0.00000000E+00	 0.00000000E+00
					 0.00000000E+00	 2.50000000E+01	 0.00000000E+00
					-1.25000000E+01	 2.50000000E+01	 1.00000000E+02
					-1.25000000E+01	-2.50000000E+01	 1.00000000E+02
					 1.25000000E+01	-2.50000000E+01	 1.00000000E+02
					 1.25000000E+01	 2.50000000E+01	 1.00000000E+02
					-1.25000000E+01	 2.50000000E+01	 2.00000000E+02
					-1.25000000E+01	-2.50000000E+01	 2.00000000E+02
					 1.25000000E+01	-2.50000000E+01	 2.00000000E+02
					 1.25000000E+01	 2.50000000E+01	 2.00000000E+02
					-1.25000000E+01	 0.00000000E+00	 2.00000000E+02
					 0.00000000E+00	-2.50000000E+01	 2.00000000E+02
					 1.25000000E+01	 0.00000000E+00	 2.00000000E+02
					 0.00000000E+00	 2.50000000E+01	 2.00000000E+02
					-1.25000000E+01	 2.50000000E+01	 3.00000000E+02
					-1.25000000E+01	-2.50000000E+01	 3.00000000E+02
					 1.25000000E+01	-2.50000000E+01	 3.00000000E+02
					 1.25000000E+01	 2.50000000E+01	 3.00000000E+02
					-1.25000000E+01	 2.50000000E+01	 4.00000000E+02
					-1.25000000E+01	-2.50000000E+01	 4.00000000E+02
					 1.25000000E+01	-2.50000000E+01	 4.00000000E+02
					 1.25000000E+01	 2.50000000E+01	 4.00000000E+02
					-1.25000000E+01	 0.00000000E+00	 4.00000000E+02
					 0.00000000E+00	-2.50000000E+01	 4.00000000E+02
					 1.25000000E+01	 0.00000000E+00	 4.00000000E+02
					 0.00000000E+00	 2.50000000E+01	 4.00000000E+02
					-1.25000000E+01	 2.50000000E+01	 5.00000000E+02
					-1.25000000E+01	-2.50000000E+01	 5.00000000E+02
					 1.25000000E+01	-2.50000000E+01	 5.00000000E+02
					 1.25000000E+01	 2.50000000E+01	 5.00000000E+02
					-1.25000000E+01	 2.50000000E+01	 6.00000000E+02
					-1.25000000E+01	-2.50000000E+01	 6.00000000E+02
					 1.25000000E+01	-2.50000000E+01	 6.00000000E+02
					 1.25000000E+01	 2.50000000E+01	 6.00000000E+02
					-1.25000000E+01	 0.00000000E+00	 6.00000000E+02
					 0.00000000E+00	-2.50000000E+01	 6.00000000E+02
					 1.25000000E+01	 0.00000000E+00	 6.00000000E+02
					 0.00000000E+00	 2.50000000E+01	 6.00000000E+02
					-1.25000000E+01	 2.50000000E+01	 7.00000000E+02
					-1.25000000E+01	-2.50000000E+01	 7.00000000E+02
					 1.25000000E+01	-2.50000000E+01	 7.00000000E+02
					 1.25000000E+01	 2.50000000E+01	 7.00000000E+02
					-1.25000000E+01	 2.50000000E+01	 8.00000000E+02
					-1.25000000E+01	-2.50000000E+01	 8.00000000E+02
					 1.25000000E+01	-2.50000000E+01	 8.00000000E+02
					 1.25000000E+01	 2.50000000E+01	 8.00000000E+02
					-1.25000000E+01	 0.00000000E+00	 8.00000000E+02
					 0.00000000E+00	-2.50000000E+01	 8.00000000E+02
					 1.25000000E+01	 0.00000000E+00	 8.00000000E+02
					 0.00000000E+00	 2.50000000E+01	 8.00000000E+02
					-1.25000000E+01	 2.50000000E+01	 9.00000000E+02
					-1.25000000E+01	-2.50000000E+01	 9.00000000E+02
					 1.25000000E+01	-2.50000000E+01	 9.00000000E+02
					 1.25000000E+01	 2.50000000E+01	 9.00000000E+02
					-1.25000000E+01	 2.50000000E+01	 1.00000000E+03
					-1.25000000E+01	-2.50000000E+01	 1.00000000E+03
					 1.25000000E+01	-2.50000000E+01	 1.00000000E+03
					 1.25000000E+01	 2.50000000E+01	 1.00000000E+03
					-1.25000000E+01	 0.00000000E+00	 1.00000000E+03
					 0.00000000E+00	-2.50000000E+01	 1.00000000E+03
					 1.25000000E+01	 0.00000000E+00	 1.00000000E+03
					 0.00000000E+00	 2.50000000E+01	 1.00000000E+03
				</DataArray>
			</Points>
			<Cells>
				<DataArray type="Int32" Name="connectivity" format="ascii">
					0 12 13 1 3 15 14 2 8 16 9 4 11 18 10 6 7 19 17 5 12 24 25 13 15 27 26 14 20 28 21 16 23 30 22 18 19 31 29 17 24 36 37 25 27 39 38 26 32 40 33 28 35 42 34 30 31 43 41 29 36 48 49 37 39 51 50 38 44 52 45 40 47 54 46 42 43 55 53 41 48 60 61 49 51 63 62 50 56 64 57 52 59 66 58 54 55 67 65 53 
				</DataArray>
				<DataArray type="Int32" Name="offsets" format="ascii">
					20 40 60 80 100 
				</DataArray>
				<DataArray type="UInt8" Name="types" format="ascii">
					25 25 25 25 25 
				</DataArray>
			</Cells>
			<PointData>
				<DataArray type="Float32" Name="U" NumberOfComponents="3" ComponentName0="D1" ComponentName1="D2" ComponentName2="D3" format="ascii">
					-1.02019000E-02	-1.45228000E-02	-3.42204000E-02
					 1.02019000E-02	-1.45228000E-02	 3.42204000E-02
					-2.47247000E-02	 1.45228000E-02	-3.42204000E-02
					 2.47247000E-02	 1.45228000E-02	 3.42204000E-02
					 1.49863000E-14	-1.45228000E-02	 0.00000000E+00
					-7.26138000E-03	-1.36171000E-13	 0.00000000E+00
					-1.49863000E-14	 1.45228000E-02	 0.00000000E+00
					 7.26138000E-03	 1.36171000E-13	 0.00000000E+00
					-6.58739000E-02	 6.98246000E-01	-3.26836000E-01
					 6.58739000E-02	 6.98246000E-01	 3.26836000E-01
					 3.90548000E-02	 7.38827000E-01	 3.39581000E-01
					-3.90548000E-02	 7.38827000E-01	-3.39581000E-01
					-4.00503000E-02	 2.64712000E+00	-6.38426000E-01
					 4.00503000E-02	 2.64712000E+00	 6.38426000E-01
					 2.12756000E-02	 2.70149000E+00	 6.17956000E-01
					-2.12756000E-02	 2.70149000E+00	-6.17956000E-01
					 8.07301000E-11	 2.63312000E+00	 6.54218000E-12
					 3.06805000E-02	 2.67784000E+00	 6.28365000E-01
					 8.09441000E-11	 2.68739000E+00	-1.53404000E-11
					-3.06805000E-02	 2.67784000E+00	-6.28365000E-01
					-6.53158000E-02	 5.72150000E+00	-8.85047000E-01
					 6.53158000E-02	 5.72150000E+00	 8.85047000E-01
					 4.91064000E-02	 5.76670000E+00	 8.86220000E-01
					-4.91064000E-02	 5.76670000E+00	-8.86220000E-01
					-5.98381000E-02	 9.68974000E+00	-1.08698000E+00
					 5.98381000E-02	 9.68974000E+00	 1.08698000E+00
					 4.66090000E-02	 9.76338000E+00	 1.08128000E+00
					-4.66090000E-02	 9.76338000E+00	-1.08128000E+00
					 3.64061000E-10	 9.68425000E+00	 1.46232000E-11
					 5.32264000E-02	 9.72793000E+00	 1.08412000E+00
					 3.64198000E-10	 9.75789000E+00	-3.42267000E-11
					-5.32264000E-02	 9.72793000E+00	-1.08412000E+00
					-7.20449000E-02	 1.43642000E+01	-1.23456000E+00
					 7.20449000E-02	 1.43642000E+01	 1.23456000E+00
					 6.20094000E-02	 1.44228000E+01	 1.23310000E+00
					-6.20094000E-02	 1.44228000E+01	-1.23310000E+00
					-6.98538000E-02	 1.95374000E+01	-1.34153000E+00
					 6.98538000E-02	 1.95374000E+01	 1.34153000E+00
					 6.39316000E-02	 1.96199000E+01	 1.34046000E+00
					-6.39316000E-02	 1.96199000E+01	-1.34046000E+00
					 8.64166000E-10	 1.95339000E+01	 2.30152000E-11
					 6.69071000E-02	 1.95795000E+01	 1.34106000E+00
					 8.64317000E-10	 1.96164000E+01	-5.38889000E-11
					-6.69071000E-02	 1.95795000E+01	-1.34106000E+00
					-7.79448000E-02	 2.50692000E+01	-1.41120000E+00
					 7.79448000E-02	 2.50692000E+01	 1.41120000E+00
					 7.38422000E-02	 2.51378000E+01	 1.40922000E+00
					-7.38422000E-02	 2.51378000E+01	-1.40922000E+00
					-7.51178000E-02	 3.08005000E+01	-1.44684000E+00
					 7.51178000E-02	 3.08005000E+01	 1.44684000E+00
					 7.38302000E-02	 3.08889000E+01	 1.44891000E+00
					-7.38302000E-02	 3.08889000E+01	-1.44891000E+00
					 1.59381000E-09	 3.07997000E+01	 3.11702000E-11
					 7.44415000E-02	 3.08448000E+01	 1.44788000E+00
					 1.59384000E-09	 3.08882000E+01	-7.32463000E-11
					-7.44415000E-02	 3.08448000E+01	-1.44788000E+00
					-8.27831000E-02	 3.66350000E+01	-1.46310000E+00
					 8.27831000E-02	 3.66350000E+01	 1.46310000E+00
					 8.19744000E-02	 3.67107000E+01	 1.46036000E+00
					-8.19743000E-02	 3.67107000E+01	-1.46036000E+00
					-7.39865000E-02	 4.24892000E+01	-1.46040000E+00
					 7.39865000E-02	 4.24892000E+01	 1.46040000E+00
					 7.44547000E-02	 4.25772000E+01	 1.46967000E+00
					-7.44547000E-02	 4.25772000E+01	-1.46967000E+00
					 2.49618000E-09	 4.24895000E+01	 3.48773000E-11
					 7.43722000E-02	 4.25333000E+01	 1.46507000E+00
					 2.49616000E-09	 4.25770000E+01	-8.20908000E-11
					-7.43722000E-02	 4.25333000E+01	-1.46507000E+00
				</DataArray>
			</PointData>
		</Piece>
	</UnstructuredGrid>
</VTKFile>