<?xml version="1.0"?>
<VTKFile type="UnstructuredGrid" version="0.1" byte_order="LittleEndian">
	<UnstructuredGrid>
		<Piece NumberOfPoints="68" NumberOfCells="5">
			<Points>
				<DataArray type="Float64" NumberOfComponents="3" format="ascii">
					-1.25000000E+01	 2.50000000E+01	 0.00000000E+00
					-1.25000000E+01	-2.50000000E+01	 0.00000000E+00
					 1.25000000E+01	-2.50000000E+01	 0.00000000E+00
					 1.25000000E+01	 2.50000000E+01	 0.00000000E+00
					-1.25000000E+01	 0.00000000E+00	 0.00000000E+00
					 0.00000000E+00	-2.50000000E+01	 0.00000000E+00
					 1.25000000E+01	 0.00000000E+00	 0.00000000E+00
					 0.00000000E+00	 2.50000000E+01	 0.00000000E+00
					-1.25000000E+01	 2.50000000E+01	 1.00000000E+02
					-1.25000000E+01	-2.50000000E+01	 1.00000000E+02
					 1.25000000E+01	-2.50000000E+01	 1.00000000E+02
					 1.25000000E+01	 2.50000000E+01	 1.00000000E+02
					-1.25000000E+01	 2.50000000E+01	 2.00000000E+02
					-1.25000000E+01	-2.50000000E+01	 2.00000000E+02
					 1.25000000E+01	-2.50000000E+01	 2.00000000E+02
					 1.25000000E+01	 2.50000000E+01	 2.00000000E+02
					-1.25000000E+01	 0.00000000E+00	 2.00000000E+02
					 0.00000000E+00	-2.50000000E+01	 2.00000000E+02
					 1.25000000E+01	 0.00000000E+00	 2.00000000E+02
					 0.00000000E+00	 2.50000000E+01	 2.00000000E+02
					-1.25000000E+01	 2.50000000E+01	 3.00000000E+02
					-1.25000000E+01	-2.50000000E+01	 3.00000000E+02
					 1.25000000E+01	-2.50000000E+01	 3.00000000E+02
					 1.25000000E+01	 2.50000000E+01	 3.00000000E+02
					-1.25000000E+01	 2.50000000E+01	 4.00000000E+02
					-1.25000000E+01	-2.50000000E+01	 4.00000000E+02
					 1.25000000E+01	-2.50000000E+01	 4.00000000E+02
					 1.25000000E+01	 2.50000000E+01	 4.00000000E+02
					-1.25000000E+01	 0.00000000E+00	 4.00000000E+02
					 0.00000000E+00	-2.50000000E+01	 4.00000000E+02
					 1.25000000E+01	 0.00000000E+00	 4.00000000E+02
					 0.00000000E+00	 2.50000000E+01	 4.00000000E+02
					-1.25000000E+01	 2.50000000E+01	 5.00000000E+02
					-1.25000000E+01	-2.50000000E+01	 5.00000000E+02
					 1.25000000E+01	-2.50000000E+01	 5.00000000E+02
					 1.25000000E+01	 2.50000000E+01	 5.00000000E+02
					-1.25000000E+01	 2.50000000E+01	 6.00000000E+02
					-1.25000000E+01	-2.50000000E+01	 6.00000000E+02
					 1.25000000E+01	-2.50000000E+01	 6.00000000E+02
					 1.25000000E+01	 2.50000000E+01	 6.00000000E+02
					-1.25000000E+01	 0.00000000E+00	 6.00000000E+02
					 0.00000000E+00	-2.50000000E+01	 6.00000000E+02
					 1.25000000E+01	 0.00000000E+00	 6.00000000E+02
					 0.00000000E+00	 2.50000000E+01	 6.00000000E+02
					-1.25000000E+01	 2.50000000E+01	 7.00000000E+02
					-1.25000000E+01	-2.50000000E+01	 7.00000000E+02
					 1.25000000E+01	-2.50000000E+01	 7.00000000E+02
					 1.25000000E+01	 2.50000000E+01	 7.00000000E+02
					-1.25000000E+01	 2.50000000E+01	 8.00000000E+02
					-1.25000000E+01	-2.50000000E+01	 8.00000000E+02
					 1.25000000E+01	-2.50000000E+01	 8.00000000E+02
					 1.25000000E+01	 2.50000000E+01	 8.00000000E+02
					-1.25000000E+01	 0.00000000E+00	 8.00000000E+02
					 0.00000000E+00	-2.50000000E+01	 8.00000000E+02
					 1.25000000E+01	 0.00000000E+00	 8.00000000E+02
					 0.00000000E+00	 2.50000000E+01	 8.00000000E+02
					-1.25000000E+01	 2.50000000E+01	 9.00000000E+02
					-1.25000000E+01	-2.50000000E+01	 9.00000000E+02
					 1.25000000E+01	-2.50000000E+01	 9.00000000E+02
					 1.25000000E+01	 2.50000000E+01	 9.00000000E+02
					-1.25000000E+01	 2.50000000E+01	 1.00000000E+03
					-1.25000000E+01	-2.50000000E+01	 1.00000000E+03
					 1.25000000E+01	-2.50000000E+01	 1.00000000E+03
					 1.25000000E+01	 2.50000000E+01	 1.00000000E+03
					-1.25000000E+01	 0.00000000E+00	 1.00000000E+03
					 0.00000000E+00	-2.50000000E+01	 1.00000000E+03
					 1.25000000E+01	 0.00000000E+00	 1.00000000E+03
					 0.00000000E+00	 2.50000000E+01	 1.00000000E+03
				</DataArray>
			</Points>
			<Cells>
				<DataArray type="Int32" Name="connectivity" format="ascii">
					0 12 13 1 3 15 14 2 8 16 9 4 11 18 10 6 7 19 17 5 12 24 25 13 15 27 26 14 20 28 21 16 23 30 22 18 19 31 29 17 24 36 37 25 27 39 38 26 32 40 33 28 35 42 34 30 31 43 41 29 36 48 49 37 39 51 50 38 44 52 45 40 47 54 46 42 43 55 53 41 48 60 61 49 51 63 62 50 56 64 57 52 59 66 58 54 55 67 65 53 
				</DataArray>
				<DataArray type="Int32" Name="offsets" format="ascii">
					20 40 60 80 100 
				</DataArray>
				<DataArray type="UInt8" Name="types" format="ascii">
					25 25 25 25 25 
				</DataArray>
			</Cells>
			<PointData>
				<DataArray type="Float32" Name="U" NumberOfComponents="3" ComponentName0="D1" ComponentName1="D2" ComponentName2="D3" format="ascii">
					-1.85878000E-01	 2.49103000E-01	 2.08589000E-12
					-1.85878000E-01	-2.49103000E-01	-2.08589000E-12
					 1.85878000E-01	 5.87654000E-01	 2.08589000E-12
					 1.85878000E-01	-5.87654000E-01	-2.08589000E-12
					-1.85878000E-01	 8.77770000E-13	 0.00000000E+00
					 4.38885000E-13	 1.69275000E-01	 0.00000000E+00
					 1.85878000E-01	-8.77770000E-13	 0.00000000E+00
					-4.38885000E-13	-1.69275000E-01	 0.00000000E+00
					-2.33418000E+01	-1.37545000E-01	-2.11104000E+00
					-2.33418000E+01	 1.37545000E-01	-2.11104000E+00
					-2.34013000E+01	-3.15939000E-01	 5.04069000E+00
					-2.34013000E+01	 3.15939000E-01	 5.04069000E+00
					-3.34655000E+01	-3.28211000E-01	 1.76899000E+00
					-3.34655000E+01	 3.28211000E-01	 1.76899000E+00
					-3.29287000E+01	-8.07047000E-01	-4.08197000E+00
					-3.29287000E+01	 8.07047000E-01	-4.08197000E+00
					-3.29645000E+01	 6.81943000E-12	 1.74478000E+00
					-3.33339000E+01	-2.38204000E-01	-1.16376000E+00
					-3.24214000E+01	-2.34621000E-11	-4.11591000E+00
					-3.33339000E+01	 2.38204000E-01	-1.16376000E+00
					 8.04346000E+00	 7.96153000E-02	 3.31533000E+00
					 8.04346000E+00	-7.96153000E-02	 3.31533000E+00
					 7.84454000E+00	 2.34151000E-01	-7.78115000E+00
					 7.84454000E+00	-2.34151000E-01	-7.78115000E+00
					 3.43206000E+01	 4.43113000E-01	-3.57679000E-01
					 3.43206000E+01	-4.43113000E-01	-3.57679000E-01
					 3.42637000E+01	 9.63626000E-01	 1.04972000E+00
					 3.42637000E+01	-9.63626000E-01	 1.04972000E+00
					 3.35787000E+01	 1.35949000E-11	-3.49588000E-01
					 3.44955000E+01	 2.57620000E-01	 3.48102000E-01
					 3.35084000E+01	-1.85851000E-11	 1.06108000E+00
					 3.44955000E+01	-2.57620000E-01	 3.48102000E-01
					 8.66275000E-01	-9.44737000E-03	-3.31454000E+00
					 8.66275000E-01	 9.44737000E-03	-3.31454000E+00
					 7.34733000E-01	 4.25838000E-02	 8.11674000E+00
					 7.34733000E-01	-4.25838000E-02	 8.11674000E+00
					-3.43811000E+01	-3.93471000E-01	-5.69628000E-01
					-3.43811000E+01	 3.93471000E-01	-5.69628000E-01
					-3.37923000E+01	-1.07023000E+00	 1.56506000E+00
					-3.37923000E+01	 1.07023000E+00	 1.56506000E+00
					-3.36384000E+01	 4.36207000E-13	-5.23927000E-01
					-3.42916000E+01	-3.35328000E-01	 5.18287000E-01
					-3.30339000E+01	-1.54849000E-11	 1.61422000E+00
					-3.42916000E+01	 3.35328000E-01	 5.18287000E-01
					-1.02727000E+01	-8.87325000E-02	 3.22962000E+00
					-1.02727000E+01	 8.87325000E-02	 3.22962000E+00
					-1.03648000E+01	-1.57331000E-01	-7.31697000E+00
					-1.03648000E+01	 1.57331000E-01	-7.31697000E+00
					 2.84421000E+01	 4.37131000E-01	 1.57567000E+00
					 2.84421000E+01	-4.37131000E-01	 1.57567000E+00
					 2.84266000E+01	 7.51635000E-01	-3.28175000E+00
					 2.84266000E+01	-7.51635000E-01	-3.28175000E+00
					 2.78530000E+01	-6.74621000E-12	 1.45545000E+00
					 2.85962000E+01	 1.55583000E-01	-9.05168000E-01
					 2.78281000E+01	 6.79323000E-12	-3.41504000E+00
					 2.85962000E+01	-1.55583000E-01	-9.05168000E-01
					 1.37892000E+01	 1.83622000E-01	-3.06004000E+00
					 1.37892000E+01	-1.83622000E-01	-3.06004000E+00
					 1.35045000E+01	 7.07313000E-01	 7.66507000E+00
					 1.35045000E+01	-7.07313000E-01	 7.66507000E+00
					-4.76342000E+01	 2.13894000E-01	-5.30281000E+00
					-4.76342000E+01	-2.13894000E-01	-5.30281000E+00
					-4.74467000E+01	-3.08833000E-02	 1.26639000E+01
					-4.74467000E+01	 3.08833000E-02	 1.26639000E+01
					-4.78260000E+01	 1.02318000E-11	-5.12153000E+00
					-4.75009000E+01	-1.24930000E-01	 3.76142000E+00
					-4.76482000E+01	 2.77556000E-11	 1.28611000E+01
					-4.75009000E+01	 1.24930000E-01	 3.76142000E+00
				</DataArray>
			</PointData>
		</Piece>
	</UnstructuredGrid>
</VTKFile>