<?xml version="1.0"?>
<VTKFile type="UnstructuredGrid" version="0.1" byte_order="LittleEndian">
	<UnstructuredGrid>
		<Piece NumberOfPoints="68" NumberOfCells="5">
			<Points>
				<DataArray type="Float64" NumberOfComponents="3" format="ascii">
					-1.25000000E+01	 2.50000000E+01	 0.00000000E+00
					-1.25000000E+01	-2.50000000E+01	 0.00000000E+00
					 1.25000000E+01	-2.50000000E+01	 0.00000000E+00
					 1.25000000E+01	 2.50000000E+01	 0.00000000E+00
					-1.25000000E+01	 0.00000000E+00	 0.00000000E+00
					 0.00000000E+00	-2.50000000E+01	 0.00000000E+00
					 1.25000000E+01	 0.00000000E+00	 0.00000000E+00
					 0.00000000E+00	 2.50000000E+01	 0.00000000E+00
					-1.25000000E+01	 2.50000000E+01	 1.00000000E+02
					-1.25000000E+01	-2.50000000E+01	 1.00000000E+02
					 1.25000000E+01	-2.50000000E+01	 1.00000000E+02
					 1.25000000E+01	 2.50000000E+01	 1.00000000E+02
					-1.25000000E+01	 2.50000000E+01	 2.00000000E+02
					-1.25000000E+01	-2.50000000E+01	 2.00000000E+02
					 1.25000000E+01	-2.50000000E+01	 2.00000000E+02
					 1.25000000E+01	 2.50000000E+01	 2.00000000E+02
					-1.25000000E+01	 0.00000000E+00	 2.00000000E+02
					 0.00000000E+00	-2.50000000E+01	 2.00000000E+02
					 1.25000000E+01	 0.00000000E+00	 2.00000000E+02
					 0.00000000E+00	 2.50000000E+01	 2.00000000E+02
					-1.25000000E+01	 2.50000000E+01	 3.00000000E+02
					-1.25000000E+01	-2.50000000E+01	 3.00000000E+02
					 1.25000000E+01	-2.50000000E+01	 3.00000000E+02
					 1.25000000E+01	 2.50000000E+01	 3.00000000E+02
					-1.25000000E+01	 2.50000000E+01	 4.00000000E+02
					-1.25000000E+01	-2.50000000E+01	 4.00000000E+02
					 1.25000000E+01	-2.50000000E+01	 4.00000000E+02
					 1.25000000E+01	 2.50000000E+01	 4.00000000E+02
					-1.25000000E+01	 0.00000000E+00	 4.00000000E+02
					 0.00000000E+00	-2.50000000E+01	 4.00000000E+02
					 1.25000000E+01	 0.00000000E+00	 4.00000000E+02
					 0.00000000E+00	 2.50000000E+01	 4.00000000E+02
					-1.25000000E+01	 2.50000000E+01	 5.00000000E+02
					-1.25000000E+01	-2.50000000E+01	 5.00000000E+02
					 1.25000000E+01	-2.50000000E+01	 5.00000000E+02
					 1.25000000E+01	 2.50000000E+01	 5.00000000E+02
					-1.25000000E+01	 2.50000000E+01	 6.00000000E+02
					-1.25000000E+01	-2.50000000E+01	 6.00000000E+02
					 1.25000000E+01	-2.50000000E+01	 6.00000000E+02
					 1.25000000E+01	 2.50000000E+01	 6.00000000E+02
					-1.25000000E+01	 0.00000000E+00	 6.00000000E+02
					 0.00000000E+00	-2.50000000E+01	 6.00000000E+02
					 1.25000000E+01	 0.00000000E+00	 6.00000000E+02
					 0.00000000E+00	 2.50000000E+01	 6.00000000E+02
					-1.25000000E+01	 2.50000000E+01	 7.00000000E+02
					-1.25000000E+01	-2.50000000E+01	 7.00000000E+02
					 1.25000000E+01	-2.50000000E+01	 7.00000000E+02
					 1.25000000E+01	 2.50000000E+01	 7.00000000E+02
					-1.25000000E+01	 2.50000000E+01	 8.00000000E+02
					-1.25000000E+01	-2.50000000E+01	 8.00000000E+02
					 1.25000000E+01	-2.50000000E+01	 8.00000000E+02
					 1.25000000E+01	 2.50000000E+01	 8.00000000E+02
					-1.25000000E+01	 0.00000000E+00	 8.00000000E+02
					 0.00000000E+00	-2.50000000E+01	 8.00000000E+02
					 1.25000000E+01	 0.00000000E+00	 8.00000000E+02
					 0.00000000E+00	 2.50000000E+01	 8.00000000E+02
					-1.25000000E+01	 2.50000000E+01	 9.00000000E+02
					-1.25000000E+01	-2.50000000E+01	 9.00000000E+02
					 1.25000000E+01	-2.50000000E+01	 9.00000000E+02
					 1.25000000E+01	 2.50000000E+01	 9.00000000E+02
					-1.25000000E+01	 2.50000000E+01	 1.00000000E+03
					-1.25000000E+01	-2.50000000E+01	 1.00000000E+03
					 1.25000000E+01	-2.50000000E+01	 1.00000000E+03
					 1.25000000E+01	 2.50000000E+01	 1.00000000E+03
					-1.25000000E+01	 0.00000000E+00	 1.00000000E+03
					 0.00000000E+00	-2.50000000E+01	 1.00000000E+03
					 1.25000000E+01	 0.00000000E+00	 1.00000000E+03
					 0.00000000E+00	 2.50000000E+01	 1.00000000E+03
				</DataArray>
			</Points>
			<Cells>
				<DataArray type="Int32" Name="connectivity" format="ascii">
					0 12 13 1 3 15 14 2 8 16 9 4 11 18 10 6 7 19 17 5 12 24 25 13 15 27 26 14 20 28 21 16 23 30 22 18 19 31 29 17 24 36 37 25 27 39 38 26 32 40 33 28 35 42 34 30 31 43 41 29 36 48 49 37 39 51 50 38 44 52 45 40 47 54 46 42 43 55 53 41 48 60 61 49 51 63 62 50 56 64 57 52 59 66 58 54 55 67 65 53 
				</DataArray>
				<DataArray type="Int32" Name="offsets" format="ascii">
					20 40 60 80 100 
				</DataArray>
				<DataArray type="UInt8" Name="types" format="ascii">
					25 25 25 25 25 
				</DataArray>
			</Cells>
			<PointData>
				<DataArray type="Float32" Name="U" NumberOfComponents="3" ComponentName0="D1" ComponentName1="D2" ComponentName2="D3" format="ascii">
					-4.09690000E-03	 2.14647000E-02	-1.97804000E-12
					-4.09690000E-03	-2.14647000E-02	 1.97804000E-12
					 4.09690000E-03	 5.26700000E-02	-1.97804000E-12
					 4.09690000E-03	-5.26700000E-02	 1.97804000E-12
					-4.09690000E-03	-6.72344000E-13	 0.00000000E+00
					-3.36172000E-13	 1.56026000E-02	 0.00000000E+00
					 4.09690000E-03	 6.72344000E-13	 0.00000000E+00
					 3.36172000E-13	-1.56026000E-02	 0.00000000E+00
					-3.55886000E+00	 1.79278000E-02	-4.77029000E-01
					-3.55886000E+00	-1.79278000E-02	-4.77029000E-01
					-3.56937000E+00	 4.46458000E-02	 1.13151000E+00
					-3.56937000E+00	-4.46458000E-02	 1.13151000E+00
					-1.19325000E+01	 1.31947000E-02	-7.12384000E-01
					-1.19325000E+01	-1.31947000E-02	-7.12384000E-01
					-1.19401000E+01	 3.13308000E-02	 1.68938000E+00
					-1.19401000E+01	-3.13308000E-02	 1.68938000E+00
					-1.19650000E+01	-3.33267000E-12	-7.04454000E-01
					-1.19277000E+01	 8.95603000E-03	 4.92412000E-01
					-1.19730000E+01	 3.55603000E-11	 1.69666000E+00
					-1.19277000E+01	-8.95603000E-03	 4.92412000E-01
					-2.16669000E+01	-1.08218000E-02	-6.71126000E-01
					-2.16669000E+01	 1.08218000E-02	-6.71126000E-01
					-2.16637000E+01	-2.69910000E-02	 1.59371000E+00
					-2.16637000E+01	 2.69910000E-02	 1.59371000E+00
					-2.89931000E+01	-3.45081000E-02	-3.57463000E-01
					-2.89931000E+01	 3.45081000E-02	-3.57463000E-01
					-2.89616000E+01	-8.18408000E-02	 8.50351000E-01
					-2.89616000E+01	 8.18408000E-02	 8.50351000E-01
					-2.89313000E+01	-3.31561000E-11	-3.54935000E-01
					-2.89934000E+01	-2.35483000E-02	 2.47088000E-01
					-2.88991000E+01	 3.75047000E-11	 8.54110000E-01
					-2.89934000E+01	 2.35483000E-02	 2.47088000E-01
					-3.06764000E+01	-3.70516000E-02	 1.16031000E-01
					-3.06764000E+01	 3.70516000E-02	 1.16031000E-01
					-3.06527000E+01	-9.00890000E-02	-2.79785000E-01
					-3.06527000E+01	 9.00890000E-02	-2.79785000E-01
					-2.56958000E+01	-3.77762000E-02	 6.23573000E-01
					-2.56958000E+01	 3.77762000E-02	 6.23573000E-01
					-2.56645000E+01	-8.95476000E-02	-1.48917000E+00
					-2.56645000E+01	 8.95476000E-02	-1.48917000E+00
					-2.56313000E+01	-1.02998000E-10	 6.22208000E-01
					-2.56963000E+01	-2.58559000E-02	-4.33170000E-01
					-2.55999000E+01	-1.83245000E-11	-1.49110000E+00
					-2.56963000E+01	 2.58559000E-02	-4.33170000E-01
					-1.40828000E+01	-2.73528000E-02	 1.06182000E+00
					-1.40828000E+01	 2.73528000E-02	 1.06182000E+00
					-1.40662000E+01	-6.61606000E-02	-2.53534000E+00
					-1.40662000E+01	 6.61606000E-02	-2.53534000E+00
					 2.54380000E+00	-1.65869000E-02	 1.36271000E+00
					 2.54380000E+00	 1.65869000E-02	 1.36271000E+00
					 2.55935000E+00	-3.88976000E-02	-3.25184000E+00
					 2.55935000E+00	 3.88976000E-02	-3.25184000E+00
					 2.57114000E+00	-1.96395000E-10	 1.35911000E+00
					 2.54473000E+00	-1.11565000E-02	-9.46209000E-01
					 2.58669000E+00	-1.07669000E-10	-3.25570000E+00
					 2.54473000E+00	 1.11565000E-02	-9.46209000E-01
					 2.21190000E+01	-6.05732000E-03	 1.50074000E+00
					 2.21190000E+01	 6.05731000E-03	 1.50074000E+00
					 2.21214000E+01	-1.42366000E-02	-3.58493000E+00
					 2.21214000E+01	 1.42366000E-02	-3.58493000E+00
					 4.27868000E+01	 8.66246000E-04	 1.52619000E+00
					 4.27868000E+01	-8.66247000E-04	 1.52619000E+00
					 4.27889000E+01	 3.59933000E-03	-3.64806000E+00
					 4.27889000E+01	-3.59933000E-03	-3.64806000E+00
					 4.27824000E+01	-2.87201000E-10	 1.52561000E+00
					 4.27892000E+01	 1.31393000E-03	-1.06070000E+00
					 4.27842000E+01	-1.96822000E-10	-3.64907000E+00
					 4.27892000E+01	-1.31393000E-03	-1.06070000E+00
				</DataArray>
			</PointData>
		</Piece>
	</UnstructuredGrid>
</VTKFile>