# vtk DataFile Version 3.0

ASCII
DATASET UNSTRUCTURED_GRID

POINTS 68 double
	-1.25000000E+01	 2.50000000E+01	 0.00000000E+00
	-1.25000000E+01	-2.50000000E+01	 0.00000000E+00
	 1.25000000E+01	-2.50000000E+01	 0.00000000E+00
	 1.25000000E+01	 2.50000000E+01	 0.00000000E+00
	-1.25000000E+01	 0.00000000E+00	 0.00000000E+00
	 0.00000000E+00	-2.50000000E+01	 0.00000000E+00
	 1.25000000E+01	 0.00000000E+00	 0.00000000E+00
	 0.00000000E+00	 2.50000000E+01	 0.00000000E+00
	-1.25000000E+01	 2.50000000E+01	 1.00000000E+02
	-1.25000000E+01	-2.50000000E+01	 1.00000000E+02
	 1.25000000E+01	-2.50000000E+01	 1.00000000E+02
	 1.25000000E+01	 2.50000000E+01	 1.00000000E+02
	-1.25000000E+01	 2.50000000E+01	 2.00000000E+02
	-1.25000000E+01	-2.50000000E+01	 2.00000000E+02
	 1.25000000E+01	-2.50000000E+01	 2.00000000E+02
	 1.25000000E+01	 2.50000000E+01	 2.00000000E+02
	-1.25000000E+01	 0.00000000E+00	 2.00000000E+02
	 0.00000000E+00	-2.50000000E+01	 2.00000000E+02
	 1.25000000E+01	 0.00000000E+00	 2.00000000E+02
	 0.00000000E+00	 2.50000000E+01	 2.00000000E+02
	-1.25000000E+01	 2.50000000E+01	 3.00000000E+02
	-1.25000000E+01	-2.50000000E+01	 3.00000000E+02
	 1.25000000E+01	-2.50000000E+01	 3.00000000E+02
	 1.25000000E+01	 2.50000000E+01	 3.00000000E+02
	-1.25000000E+01	 2.50000000E+01	 4.00000000E+02
	-1.25000000E+01	-2.50000000E+01	 4.00000000E+02
	 1.25000000E+01	-2.50000000E+01	 4.00000000E+02
	 1.25000000E+01	 2.50000000E+01	 4.00000000E+02
	-1.25000000E+01	 0.00000000E+00	 4.00000000E+02
	 0.00000000E+00	-2.50000000E+01	 4.00000000E+02
	 1.25000000E+01	 0.00000000E+00	 4.00000000E+02
	 0.00000000E+00	 2.50000000E+01	 4.00000000E+02
	-1.25000000E+01	 2.50000000E+01	 5.00000000E+02
	-1.25000000E+01	-2.50000000E+01	 5.00000000E+02
	 1.25000000E+01	-2.50000000E+01	 5.00000000E+02
	 1.25000000E+01	 2.50000000E+01	 5.00000000E+02
	-1.25000000E+01	 2.50000000E+01	 6.00000000E+02
	-1.25000000E+01	-2.50000000E+01	 6.00000000E+02
	 1.25000000E+01	-2.50000000E+01	 6.00000000E+02
	 1.25000000E+01	 2.50000000E+01	 6.00000000E+02
	-1.25000000E+01	 0.00000000E+00	 6.00000000E+02
	 0.00000000E+00	-2.50000000E+01	 6.00000000E+02
	 1.25000000E+01	 0.00000000E+00	 6.00000000E+02
	 0.00000000E+00	 2.50000000E+01	 6.00000000E+02
	-1.25000000E+01	 2.50000000E+01	 7.00000000E+02
	-1.25000000E+01	-2.50000000E+01	 7.00000000E+02
	 1.25000000E+01	-2.50000000E+01	 7.00000000E+02
	 1.25000000E+01	 2.50000000E+01	 7.00000000E+02
	-1.25000000E+01	 2.50000000E+01	 8.00000000E+02
	-1.25000000E+01	-2.50000000E+01	 8.00000000E+02
	 1.25000000E+01	-2.50000000E+01	 8.00000000E+02
	 1.25000000E+01	 2.50000000E+01	 8.00000000E+02
	-1.25000000E+01	 0.00000000E+00	 8.00000000E+02
	 0.00000000E+00	-2.50000000E+01	 8.00000000E+02
	 1.25000000E+01	 0.00000000E+00	 8.00000000E+02
	 0.00000000E+00	 2.50000000E+01	 8.00000000E+02
	-1.25000000E+01	 2.50000000E+01	 9.00000000E+02
	-1.25000000E+01	-2.50000000E+01	 9.00000000E+02
	 1.25000000E+01	-2.50000000E+01	 9.00000000E+02
	 1.25000000E+01	 2.50000000E+01	 9.00000000E+02
	-1.25000000E+01	 2.50000000E+01	 1.00000000E+03
	-1.25000000E+01	-2.50000000E+01	 1.00000000E+03
	 1.25000000E+01	-2.50000000E+01	 1.00000000E+03
	 1.25000000E+01	 2.50000000E+01	 1.00000000E+03
	-1.25000000E+01	 0.00000000E+00	 1.00000000E+03
	 0.00000000E+00	-2.50000000E+01	 1.00000000E+03
	 1.25000000E+01	 0.00000000E+00	 1.00000000E+03
	 0.00000000E+00	 2.50000000E+01	 1.00000000E+03

CELLS 5 105
	20 0 12 13 1 3 15 14 2 8 16 9 4 11 18 10 6 7 19 17 5 
	20 12 24 25 13 15 27 26 14 20 28 21 16 23 30 22 18 19 31 29 17 
	20 24 36 37 25 27 39 38 26 32 40 33 28 35 42 34 30 31 43 41 29 
	20 36 48 49 37 39 51 50 38 44 52 45 40 47 54 46 42 43 55 53 41 
	20 48 60 61 49 51 63 62 50 56 64 57 52 59 66 58 54 55 67 65 53 

CELL_TYPES 5
	25
	25
	25
	25
	25

POINT_DATA 68
FIELD U 1
	U 3 68 double
		 1.77680000E-01	-3.54934000E-01	-1.34337000E-13
		 1.77680000E-01	 3.54934000E-01	 1.34337000E-13
		-1.77680000E-01	 3.52968000E-01	-1.34337000E-13
		-1.77680000E-01	-3.52968000E-01	 1.34337000E-13
		 1.77680000E-01	-6.94445000E-14	 0.00000000E+00
		-3.47222000E-14	 3.53951000E-01	 0.00000000E+00
		-1.77680000E-01	 6.94445000E-14	 0.00000000E+00
		 3.47222000E-14	-3.53951000E-01	 0.00000000E+00
		 2.16411000E-01	-3.49538000E-01	 4.70402000E+00
		 2.16411000E-01	 3.49538000E-01	 4.70402000E+00
		-1.32883000E-01	 3.51176000E-01	 4.69472000E+00
		-1.32883000E-01	-3.51176000E-01	 4.69472000E+00
		 1.85421000E-01	-3.36236000E-01	 9.27804000E+00
		 1.85421000E-01	 3.36236000E-01	 9.27804000E+00
		-1.52864000E-01	 3.38969000E-01	 9.30786000E+00
		-1.52864000E-01	-3.38969000E-01	 9.30786000E+00
		 1.84293000E-01	 2.12097000E-12	 9.28041000E+00
		 1.66019000E-02	 3.37584000E-01	 9.29358000E+00
		-1.54127000E-01	 2.90257000E-12	 9.31025000E+00
		 1.66019000E-02	-3.37584000E-01	 9.29358000E+00
		 3.56432000E-02	-3.16183000E-01	 1.36349000E+01
		 3.56432000E-02	 3.16183000E-01	 1.36349000E+01
		-2.79004000E-01	 3.14562000E-01	 1.36643000E+01
		-2.79004000E-01	-3.14562000E-01	 1.36643000E+01
		-2.14699000E-02	-2.87963000E-01	 1.76697000E+01
		-2.14699000E-02	 2.87963000E-01	 1.76697000E+01
		-3.07808000E-01	 2.83916000E-01	 1.76533000E+01
		-3.07808000E-01	-2.83916000E-01	 1.76533000E+01
		-1.91968000E-02	 7.26086000E-13	 1.76737000E+01
		-1.65254000E-01	 2.85938000E-01	 1.76625000E+01
		-3.05567000E-01	 1.69109000E-12	 1.76573000E+01
		-1.65254000E-01	-2.85938000E-01	 1.76625000E+01
		 9.52880000E-02	-2.50411000E-01	 2.12618000E+01
		 9.52880000E-02	 2.50411000E-01	 2.12618000E+01
		-1.54609000E-01	 2.50889000E-01	 2.12230000E+01
		-1.54609000E-01	-2.50889000E-01	 2.12230000E+01
		 1.80179000E-01	-2.06971000E-01	 2.43142000E+01
		 1.80179000E-01	 2.06971000E-01	 2.43142000E+01
		-2.98693000E-02	 2.11828000E-01	 2.43119000E+01
		-2.98693000E-02	-2.11828000E-01	 2.43119000E+01
		 1.77733000E-01	-1.46017000E-12	 2.43198000E+01
		 7.58360000E-02	 2.09380000E-01	 2.43145000E+01
		-3.24318000E-02	-1.44418000E-12	 2.43176000E+01
		 7.58360000E-02	-2.09380000E-01	 2.43145000E+01
		 6.88327000E-02	-1.60681000E-01	 2.67668000E+01
		 6.88327000E-02	 1.60681000E-01	 2.67668000E+01
		-9.15248000E-02	 1.61189000E-01	 2.68007000E+01
		-9.15248000E-02	-1.61189000E-01	 2.68007000E+01
		-6.98414000E-02	-1.10955000E-01	 2.85792000E+01
		-6.98414000E-02	 1.10955000E-01	 2.85792000E+01
		-1.79136000E-01	 1.06903000E-01	 2.85892000E+01
		-1.79136000E-01	-1.06903000E-01	 2.85892000E+01
		-6.77399000E-02	-4.31211000E-13	 2.85862000E+01
		-1.25063000E-01	 1.08932000E-01	 2.85860000E+01
		-1.77024000E-01	-8.20677000E-13	 2.85962000E+01
		-1.25063000E-01	-1.08932000E-01	 2.85860000E+01
		-2.61234000E-02	-5.60394000E-02	 2.96943000E+01
		-2.61234000E-02	 5.60394000E-02	 2.96943000E+01
		-8.05562000E-02	 5.32212000E-02	 2.96541000E+01
		-8.05562000E-02	-5.32212000E-02	 2.96541000E+01
		 1.63873000E-01	-5.79639000E-04	 3.00717000E+01
		 1.63873000E-01	 5.79639000E-04	 3.00717000E+01
		 1.63165000E-01	 2.04582000E-04	 3.00098000E+01
		 1.63165000E-01	-2.04582000E-04	 3.00098000E+01
		 1.64332000E-01	 2.13163000E-13	 3.00782000E+01
		 1.63439000E-01	 3.95535000E-04	 3.00423000E+01
		 1.63634000E-01	-7.54952000E-13	 3.00162000E+01
		 1.63439000E-01	-3.95535000E-04	 3.00423000E+01
