# vtk DataFile Version 3.0

ASCII
DATASET UNSTRUCTURED_GRID

POINTS 68 double
	-1.25000000E+01	 2.50000000E+01	 0.00000000E+00
	-1.25000000E+01	-2.50000000E+01	 0.00000000E+00
	 1.25000000E+01	-2.50000000E+01	 0.00000000E+00
	 1.25000000E+01	 2.50000000E+01	 0.00000000E+00
	-1.25000000E+01	 0.00000000E+00	 0.00000000E+00
	 0.00000000E+00	-2.50000000E+01	 0.00000000E+00
	 1.25000000E+01	 0.00000000E+00	 0.00000000E+00
	 0.00000000E+00	 2.50000000E+01	 0.00000000E+00
	-1.25000000E+01	 2.50000000E+01	 1.00000000E+02
	-1.25000000E+01	-2.50000000E+01	 1.00000000E+02
	 1.25000000E+01	-2.50000000E+01	 1.00000000E+02
	 1.25000000E+01	 2.50000000E+01	 1.00000000E+02
	-1.25000000E+01	 2.50000000E+01	 2.00000000E+02
	-1.25000000E+01	-2.50000000E+01	 2.00000000E+02
	 1.25000000E+01	-2.50000000E+01	 2.00000000E+02
	 1.25000000E+01	 2.50000000E+01	 2.00000000E+02
	-1.25000000E+01	 0.00000000E+00	 2.00000000E+02
	 0.00000000E+00	-2.50000000E+01	 2.00000000E+02
	 1.25000000E+01	 0.00000000E+00	 2.00000000E+02
	 0.00000000E+00	 2.50000000E+01	 2.00000000E+02
	-1.25000000E+01	 2.50000000E+01	 3.00000000E+02
	-1.25000000E+01	-2.50000000E+01	 3.00000000E+02
	 1.25000000E+01	-2.50000000E+01	 3.00000000E+02
	 1.25000000E+01	 2.50000000E+01	 3.00000000E+02
	-1.25000000E+01	 2.50000000E+01	 4.00000000E+02
	-1.25000000E+01	-2.50000000E+01	 4.00000000E+02
	 1.25000000E+01	-2.50000000E+01	 4.00000000E+02
	 1.25000000E+01	 2.50000000E+01	 4.00000000E+02
	-1.25000000E+01	 0.00000000E+00	 4.00000000E+02
	 0.00000000E+00	-2.50000000E+01	 4.00000000E+02
	 1.25000000E+01	 0.00000000E+00	 4.00000000E+02
	 0.00000000E+00	 2.50000000E+01	 4.00000000E+02
	-1.25000000E+01	 2.50000000E+01	 5.00000000E+02
	-1.25000000E+01	-2.50000000E+01	 5.00000000E+02
	 1.25000000E+01	-2.50000000E+01	 5.00000000E+02
	 1.25000000E+01	 2.50000000E+01	 5.00000000E+02
	-1.25000000E+01	 2.50000000E+01	 6.00000000E+02
	-1.25000000E+01	-2.50000000E+01	 6.00000000E+02
	 1.25000000E+01	-2.50000000E+01	 6.00000000E+02
	 1.25000000E+01	 2.50000000E+01	 6.00000000E+02
	-1.25000000E+01	 0.00000000E+00	 6.00000000E+02
	 0.00000000E+00	-2.50000000E+01	 6.00000000E+02
	 1.25000000E+01	 0.00000000E+00	 6.00000000E+02
	 0.00000000E+00	 2.50000000E+01	 6.00000000E+02
	-1.25000000E+01	 2.50000000E+01	 7.00000000E+02
	-1.25000000E+01	-2.50000000E+01	 7.00000000E+02
	 1.25000000E+01	-2.50000000E+01	 7.00000000E+02
	 1.25000000E+01	 2.50000000E+01	 7.00000000E+02
	-1.25000000E+01	 2.50000000E+01	 8.00000000E+02
	-1.25000000E+01	-2.50000000E+01	 8.00000000E+02
	 1.25000000E+01	-2.50000000E+01	 8.00000000E+02
	 1.25000000E+01	 2.50000000E+01	 8.00000000E+02
	-1.25000000E+01	 0.00000000E+00	 8.00000000E+02
	 0.00000000E+00	-2.50000000E+01	 8.00000000E+02
	 1.25000000E+01	 0.00000000E+00	 8.00000000E+02
	 0.00000000E+00	 2.50000000E+01	 8.00000000E+02
	-1.25000000E+01	 2.50000000E+01	 9.00000000E+02
	-1.25000000E+01	-2.50000000E+01	 9.00000000E+02
	 1.25000000E+01	-2.50000000E+01	 9.00000000E+02
	 1.25000000E+01	 2.50000000E+01	 9.00000000E+02
	-1.25000000E+01	 2.50000000E+01	 1.00000000E+03
	-1.25000000E+01	-2.50000000E+01	 1.00000000E+03
	 1.25000000E+01	-2.50000000E+01	 1.00000000E+03
	 1.25000000E+01	 2.50000000E+01	 1.00000000E+03
	-1.25000000E+01	 0.00000000E+00	 1.00000000E+03
	 0.00000000E+00	-2.50000000E+01	 1.00000000E+03
	 1.25000000E+01	 0.00000000E+00	 1.00000000E+03
	 0.00000000E+00	 2.50000000E+01	 1.00000000E+03

CELLS 5 105
	20 0 12 13 1 3 15 14 2 8 16 9 4 11 18 10 6 7 19 17 5 
	20 12 24 25 13 15 27 26 14 20 28 21 16 23 30 22 18 19 31 29 17 
	20 24 36 37 25 27 39 38 26 32 40 33 28 35 42 34 30 31 43 41 29 
	20 36 48 49 37 39 51 50 38 44 52 45 40 47 54 46 42 43 55 53 41 
	20 48 60 61 49 51 63 62 50 56 64 57 52 59 66 58 54 55 67 65 53 

CELL_TYPES 5
	25
	25
	25
	25
	25

POINT_DATA 68
FIELD U 1
	U 3 68 double
		-6.50046000E-02	-7.73539000E-02	-2.25135000E-01
		 6.50046000E-02	-7.73539000E-02	 2.25135000E-01
		-1.42358000E-01	 7.73539000E-02	-2.25135000E-01
		 1.42358000E-01	 7.73539000E-02	 2.25135000E-01
		-3.33344000E-14	-7.73539000E-02	 0.00000000E+00
		-3.86769000E-02	-8.86652000E-14	 0.00000000E+00
		 3.33344000E-14	 7.73539000E-02	 0.00000000E+00
		 3.86769000E-02	 8.86652000E-14	 0.00000000E+00
		-5.37720000E-01	 4.01804000E+00	-1.63216000E+00
		 5.37720000E-01	 4.01804000E+00	 1.63216000E+00
		 4.28615000E-01	 4.44046000E+00	 1.66445000E+00
		-4.28615000E-01	 4.44046000E+00	-1.66445000E+00
		-5.21968000E-01	 1.26100000E+01	-2.39267000E+00
		 5.21968000E-01	 1.26100000E+01	 2.39267000E+00
		 5.23960000E-01	 1.32584000E+01	 2.23003000E+00
		-5.23960000E-01	 1.32584000E+01	-2.23003000E+00
		-2.44071000E-11	 1.25824000E+01	-6.97442000E-13
		 5.23129000E-01	 1.29414000E+01	 2.31309000E+00
		-2.42988000E-11	 1.32300000E+01	 1.10845000E-12
		-5.23129000E-01	 1.29414000E+01	-2.31309000E+00
		-7.89775000E-01	 2.20261000E+01	-2.09041000E+00
		 7.89775000E-01	 2.20261000E+01	 2.09041000E+00
		 8.44868000E-01	 2.27769000E+01	 2.06767000E+00
		-8.44868000E-01	 2.27769000E+01	-2.06767000E+00
		-8.48643000E-01	 2.86852000E+01	-1.05559000E+00
		 8.48643000E-01	 2.86852000E+01	 1.05559000E+00
		 9.50593000E-01	 2.96974000E+01	 1.00248000E+00
		-9.50593000E-01	 2.96974000E+01	-1.00248000E+00
		 7.76268000E-12	 2.87463000E+01	 2.58193000E-12
		 8.99786000E-01	 2.91763000E+01	 1.02897000E+00
		 7.87281000E-12	 2.97580000E+01	-6.96310000E-12
		-8.99786000E-01	 2.91763000E+01	-1.02897000E+00
		-9.74318000E-01	 2.99332000E+01	 4.87726000E-01
		 9.74318000E-01	 2.99332000E+01	-4.87726000E-01
		 1.09309000E+00	 3.09191000E+01	-4.98351000E-01
		-1.09309000E+00	 3.09191000E+01	 4.98351000E-01
		-9.79442000E-01	 2.46792000E+01	 2.12084000E+00
		 9.79442000E-01	 2.46792000E+01	-2.12084000E+00
		 1.10247000E+00	 2.58075000E+01	-2.11810000E+00
		-1.10247000E+00	 2.58075000E+01	 2.11810000E+00
		 8.88676000E-11	 2.47406000E+01	 2.04015000E-12
		 1.04117000E+00	 2.52283000E+01	-2.11960000E+00
		 8.87823000E-11	 2.58680000E+01	-5.79292000E-12
		-1.04117000E+00	 2.52283000E+01	 2.11960000E+00
		-1.01317000E+00	 1.31549000E+01	 3.52299000E+00
		 1.01317000E+00	 1.31549000E+01	-3.52299000E+00
		 1.10128000E+00	 1.41712000E+01	-3.51394000E+00
		-1.10128000E+00	 1.41712000E+01	 3.51394000E+00
		-9.62314000E-01	-3.20309000E+00	 4.49354000E+00
		 9.62314000E-01	-3.20309000E+00	-4.49354000E+00
		 1.02157000E+00	-2.13497000E+00	-4.46000000E+00
		-1.02157000E+00	-2.13497000E+00	 4.46000000E+00
		 8.07141000E-11	-3.17765000E+00	-3.91065000E-12
		 9.91734000E-01	-2.67550000E+00	-4.47758000E+00
		 8.05542000E-11	-2.10880000E+00	 8.46345000E-12
		-9.91734000E-01	-2.67550000E+00	 4.47758000E+00
		-9.76052000E-01	-2.22654000E+01	 4.91971000E+00
		 9.76052000E-01	-2.22654000E+01	-4.91971000E+00
		 9.87777000E-01	-2.13189000E+01	-4.91986000E+00
		-9.87777000E-01	-2.13189000E+01	 4.91986000E+00
		-9.04058000E-01	-4.23302000E+01	 5.02856000E+00
		 9.04058000E-01	-4.23302000E+01	-5.02856000E+00
		 9.12637000E-01	-4.13471000E+01	-4.97367000E+00
		-9.12637000E-01	-4.13471000E+01	 4.97367000E+00
		-8.59188000E-11	-4.23340000E+01	-7.63078000E-12
		 9.09038000E-01	-4.18374000E+01	-5.00066000E+00
		-8.57980000E-11	-4.13533000E+01	 1.75877000E-11
		-9.09038000E-01	-4.18374000E+01	 5.00066000E+00
