# vtk DataFile Version 3.0

ASCII
DATASET UNSTRUCTURED_GRID

POINTS 68 double
	-1.25000000E+01	 2.50000000E+01	 0.00000000E+00
	-1.25000000E+01	-2.50000000E+01	 0.00000000E+00
	 1.25000000E+01	-2.50000000E+01	 0.00000000E+00
	 1.25000000E+01	 2.50000000E+01	 0.00000000E+00
	-1.25000000E+01	 0.00000000E+00	 0.00000000E+00
	 0.00000000E+00	-2.50000000E+01	 0.00000000E+00
	 1.25000000E+01	 0.00000000E+00	 0.00000000E+00
	 0.00000000E+00	 2.50000000E+01	 0.00000000E+00
	-1.25000000E+01	 2.50000000E+01	 1.00000000E+02
	-1.25000000E+01	-2.50000000E+01	 1.00000000E+02
	 1.25000000E+01	-2.50000000E+01	 1.00000000E+02
	 1.25000000E+01	 2.50000000E+01	 1.00000000E+02
	-1.25000000E+01	 2.50000000E+01	 2.00000000E+02
	-1.25000000E+01	-2.50000000E+01	 2.00000000E+02
	 1.25000000E+01	-2.50000000E+01	 2.00000000E+02
	 1.25000000E+01	 2.50000000E+01	 2.00000000E+02
	-1.25000000E+01	 0.00000000E+00	 2.00000000E+02
	 0.00000000E+00	-2.50000000E+01	 2.00000000E+02
	 1.25000000E+01	 0.00000000E+00	 2.00000000E+02
	 0.00000000E+00	 2.50000000E+01	 2.00000000E+02
	-1.25000000E+01	 2.50000000E+01	 3.00000000E+02
	-1.25000000E+01	-2.50000000E+01	 3.00000000E+02
	 1.25000000E+01	-2.50000000E+01	 3.00000000E+02
	 1.25000000E+01	 2.50000000E+01	 3.00000000E+02
	-1.25000000E+01	 2.50000000E+01	 4.00000000E+02
	-1.25000000E+01	-2.50000000E+01	 4.00000000E+02
	 1.25000000E+01	-2.50000000E+01	 4.00000000E+02
	 1.25000000E+01	 2.50000000E+01	 4.00000000E+02
	-1.25000000E+01	 0.00000000E+00	 4.00000000E+02
	 0.00000000E+00	-2.50000000E+01	 4.00000000E+02
	 1.25000000E+01	 0.00000000E+00	 4.00000000E+02
	 0.00000000E+00	 2.50000000E+01	 4.00000000E+02
	-1.25000000E+01	 2.50000000E+01	 5.00000000E+02
	-1.25000000E+01	-2.50000000E+01	 5.00000000E+02
	 1.25000000E+01	-2.50000000E+01	 5.00000000E+02
	 1.25000000E+01	 2.50000000E+01	 5.00000000E+02
	-1.25000000E+01	 2.50000000E+01	 6.00000000E+02
	-1.25000000E+01	-2.50000000E+01	 6.00000000E+02
	 1.25000000E+01	-2.50000000E+01	 6.00000000E+02
	 1.25000000E+01	 2.50000000E+01	 6.00000000E+02
	-1.25000000E+01	 0.00000000E+00	 6.00000000E+02
	 0.00000000E+00	-2.50000000E+01	 6.00000000E+02
	 1.25000000E+01	 0.00000000E+00	 6.00000000E+02
	 0.00000000E+00	 2.50000000E+01	 6.00000000E+02
	-1.25000000E+01	 2.50000000E+01	 7.00000000E+02
	-1.25000000E+01	-2.50000000E+01	 7.00000000E+02
	 1.25000000E+01	-2.50000000E+01	 7.00000000E+02
	 1.25000000E+01	 2.50000000E+01	 7.00000000E+02
	-1.25000000E+01	 2.50000000E+01	 8.00000000E+02
	-1.25000000E+01	-2.50000000E+01	 8.00000000E+02
	 1.25000000E+01	-2.50000000E+01	 8.00000000E+02
	 1.25000000E+01	 2.50000000E+01	 8.00000000E+02
	-1.25000000E+01	 0.00000000E+00	 8.00000000E+02
	 0.00000000E+00	-2.50000000E+01	 8.00000000E+02
	 1.25000000E+01	 0.00000000E+00	 8.00000000E+02
	 0.00000000E+00	 2.50000000E+01	 8.00000000E+02
	-1.25000000E+01	 2.50000000E+01	 9.00000000E+02
	-1.25000000E+01	-2.50000000E+01	 9.00000000E+02
	 1.25000000E+01	-2.50000000E+01	 9.00000000E+02
	 1.25000000E+01	 2.50000000E+01	 9.00000000E+02
	-1.25000000E+01	 2.50000000E+01	 1.00000000E+03
	-1.25000000E+01	-2.50000000E+01	 1.00000000E+03
	 1.25000000E+01	-2.50000000E+01	 1.00000000E+03
	 1.25000000E+01	 2.50000000E+01	 1.00000000E+03
	-1.25000000E+01	 0.00000000E+00	 1.00000000E+03
	 0.00000000E+00	-2.50000000E+01	 1.00000000E+03
	 1.25000000E+01	 0.00000000E+00	 1.00000000E+03
	 0.00000000E+00	 2.50000000E+01	 1.00000000E+03

CELLS 5 105
	20 0 12 13 1 3 15 14 2 8 16 9 4 11 18 10 6 7 19 17 5 
	20 12 24 25 13 15 27 26 14 20 28 21 16 23 30 22 18 19 31 29 17 
	20 24 36 37 25 27 39 38 26 32 40 33 28 35 42 34 30 31 43 41 29 
	20 36 48 49 37 39 51 50 38 44 52 45 40 47 54 46 42 43 55 53 41 
	20 48 60 61 49 51 63 62 50 56 64 57 52 59 66 58 54 55 67 65 53 

CELL_TYPES 5
	25
	25
	25
	25
	25

POINT_DATA 68
FIELD U 1
	U 3 68 double
		 9.24599000E-04	 1.34644000E-03	 3.04004000E-03
		-9.24599000E-04	 1.34644000E-03	-3.04004000E-03
		 2.27104000E-03	-1.34644000E-03	 3.04004000E-03
		-2.27104000E-03	-1.34644000E-03	-3.04004000E-03
		-8.20741000E-16	 1.34644000E-03	 0.00000000E+00
		 6.73222000E-04	-2.21380000E-14	 0.00000000E+00
		 8.20741000E-16	-1.34644000E-03	 0.00000000E+00
		-6.73222000E-04	 2.21380000E-14	 0.00000000E+00
		 5.09400000E-03	-6.41327000E-02	 3.03185000E-02
		-5.09400000E-03	-6.41327000E-02	-3.03185000E-02
		-2.56163000E-03	-6.68464000E-02	-3.16907000E-02
		 2.56163000E-03	-6.68464000E-02	 3.16907000E-02
		 1.80065000E-03	-2.47318000E-01	 6.06401000E-02
		-1.80065000E-03	-2.47318000E-01	-6.06401000E-02
		 1.16563000E-04	-2.50391000E-01	-5.89509000E-02
		-1.16563000E-04	-2.50391000E-01	 5.89509000E-02
		 2.24207000E-11	-2.45946000E-01	 1.62908000E-12
		-8.43661000E-04	-2.49201000E-01	-5.98119000E-02
		 2.24788000E-11	-2.49010000E-01	-3.91691000E-12
		 8.43661000E-04	-2.49201000E-01	 5.98119000E-02
		 3.19290000E-03	-5.43315000E-01	 8.62483000E-02
		-3.19290000E-03	-5.43315000E-01	-8.62483000E-02
		-1.44477000E-03	-5.44501000E-01	-8.65553000E-02
		 1.44477000E-03	-5.44501000E-01	 8.65553000E-02
		 1.78155000E-03	-9.35568000E-01	 1.08919000E-01
		-1.78154000E-03	-9.35568000E-01	-1.08919000E-01
		-2.00873000E-04	-9.38511000E-01	-1.08567000E-01
		 2.00873000E-04	-9.38511000E-01	 1.08567000E-01
		 8.57173000E-11	-9.34887000E-01	 2.89180000E-12
		-9.91232000E-04	-9.37210000E-01	-1.08743000E-01
		 8.57417000E-11	-9.37829000E-01	-6.97213000E-12
		 9.91232000E-04	-9.37210000E-01	 1.08743000E-01
		 2.02303000E-03	-1.41134000E+00	 1.27514000E-01
		-2.02303000E-03	-1.41134000E+00	-1.27514000E-01
		-7.07392000E-04	-1.41188000E+00	-1.27559000E-01
		 7.07392000E-04	-1.41188000E+00	 1.27559000E-01
		 9.62122000E-04	-1.95433000E+00	 1.42979000E-01
		-9.62121000E-04	-1.95433000E+00	-1.42979000E-01
		 3.79672000E-05	-1.95636000E+00	-1.43021000E-01
		-3.79669000E-05	-1.95636000E+00	 1.43021000E-01
		 1.73365000E-10	-1.95379000E+00	 3.39050000E-12
		-4.63690000E-04	-1.95548000E+00	-1.43007000E-01
		 1.73375000E-10	-1.95581000E+00	-8.20389000E-12
		 4.63690000E-04	-1.95548000E+00	 1.43007000E-01
		 9.33613000E-04	-2.55361000E+00	 1.55103000E-01
		-9.33612000E-04	-2.55361000E+00	-1.55103000E-01
		-1.52384000E-04	-2.55341000E+00	-1.55050000E-01
		 1.52385000E-04	-2.55341000E+00	 1.55050000E-01
		-1.05444000E-04	-3.19316000E+00	 1.63559000E-01
		 1.05444000E-04	-3.19316000E+00	-1.63559000E-01
		 6.06996000E-04	-3.19425000E+00	-1.63862000E-01
		-6.06996000E-04	-3.19425000E+00	 1.63862000E-01
		 2.64519000E-10	-3.19291000E+00	 3.14130000E-12
		 3.61413000E-04	-3.19377000E+00	-1.63715000E-01
		 2.64512000E-10	-3.19401000E+00	-7.62613000E-12
		-3.61412000E-04	-3.19377000E+00	 1.63715000E-01
		-2.27277000E-08	-3.86123000E+00	 1.68916000E-01
		 2.33388000E-08	-3.86123000E+00	-1.68916000E-01
		 2.65858000E-04	-3.86039000E+00	-1.68703000E-01
		-2.65858000E-04	-3.86039000E+00	 1.68703000E-01
		-1.53426000E-03	-4.54208000E+00	 1.70151000E-01
		 1.53426000E-03	-4.54208000E+00	-1.70151000E-01
		 1.52653000E-03	-4.54210000E+00	-1.71156000E-01
		-1.52653000E-03	-4.54210000E+00	 1.71156000E-01
		 3.43956000E-10	-4.54207000E+00	 2.75863000E-12
		 1.50969000E-03	-4.54207000E+00	-1.70660000E-01
		 3.43951000E-10	-4.54207000E+00	-6.69349000E-12
		-1.50969000E-03	-4.54207000E+00	 1.70660000E-01
