# vtk DataFile Version 3.0

ASCII
DATASET UNSTRUCTURED_GRID

POINTS 68 double
	-1.25000000E+01	 2.50000000E+01	 0.00000000E+00
	-1.25000000E+01	-2.50000000E+01	 0.00000000E+00
	 1.25000000E+01	-2.50000000E+01	 0.00000000E+00
	 1.25000000E+01	 2.50000000E+01	 0.00000000E+00
	-1.25000000E+01	 0.00000000E+00	 0.00000000E+00
	 0.00000000E+00	-2.50000000E+01	 0.00000000E+00
	 1.25000000E+01	 0.00000000E+00	 0.00000000E+00
	 0.00000000E+00	 2.50000000E+01	 0.00000000E+00
	-1.25000000E+01	 2.50000000E+01	 1.00000000E+02
	-1.25000000E+01	-2.50000000E+01	 1.00000000E+02
	 1.25000000E+01	-2.50000000E+01	 1.00000000E+02
	 1.25000000E+01	 2.50000000E+01	 1.00000000E+02
	-1.25000000E+01	 2.50000000E+01	 2.00000000E+02
	-1.25000000E+01	-2.50000000E+01	 2.00000000E+02
	 1.25000000E+01	-2.50000000E+01	 2.00000000E+02
	 1.25000000E+01	 2.50000000E+01	 2.00000000E+02
	-1.25000000E+01	 0.00000000E+00	 2.00000000E+02
	 0.00000000E+00	-2.50000000E+01	 2.00000000E+02
	 1.25000000E+01	 0.00000000E+00	 2.00000000E+02
	 0.00000000E+00	 2.50000000E+01	 2.00000000E+02
	-1.25000000E+01	 2.50000000E+01	 3.00000000E+02
	-1.25000000E+01	-2.50000000E+01	 3.00000000E+02
	 1.25000000E+01	-2.50000000E+01	 3.00000000E+02
	 1.25000000E+01	 2.50000000E+01	 3.00000000E+02
	-1.25000000E+01	 2.50000000E+01	 4.00000000E+02
	-1.25000000E+01	-2.50000000E+01	 4.00000000E+02
	 1.25000000E+01	-2.50000000E+01	 4.00000000E+02
	 1.25000000E+01	 2.50000000E+01	 4.00000000E+02
	-1.25000000E+01	 0.00000000E+00	 4.00000000E+02
	 0.00000000E+00	-2.50000000E+01	 4.00000000E+02
	 1.25000000E+01	 0.00000000E+00	 4.00000000E+02
	 0.00000000E+00	 2.50000000E+01	 4.00000000E+02
	-1.25000000E+01	 2.50000000E+01	 5.00000000E+02
	-1.25000000E+01	-2.50000000E+01	 5.00000000E+02
	 1.25000000E+01	-2.50000000E+01	 5.00000000E+02
	 1.25000000E+01	 2.50000000E+01	 5.00000000E+02
	-1.25000000E+01	 2.50000000E+01	 6.00000000E+02
	-1.25000000E+01	-2.50000000E+01	 6.00000000E+02
	 1.25000000E+01	-2.50000000E+01	 6.00000000E+02
	 1.25000000E+01	 2.50000000E+01	 6.00000000E+02
	-1.25000000E+01	 0.00000000E+00	 6.00000000E+02
	 0.00000000E+00	-2.50000000E+01	 6.00000000E+02
	 1.25000000E+01	 0.00000000E+00	 6.00000000E+02
	 0.00000000E+00	 2.50000000E+01	 6.00000000E+02
	-1.25000000E+01	 2.50000000E+01	 7.00000000E+02
	-1.25000000E+01	-2.50000000E+01	 7.00000000E+02
	 1.25000000E+01	-2.50000000E+01	 7.00000000E+02
	 1.25000000E+01	 2.50000000E+01	 7.00000000E+02
	-1.25000000E+01	 2.50000000E+01	 8.00000000E+02
	-1.25000000E+01	-2.50000000E+01	 8.00000000E+02
	 1.25000000E+01	-2.50000000E+01	 8.00000000E+02
	 1.25000000E+01	 2.50000000E+01	 8.00000000E+02
	-1.25000000E+01	 0.00000000E+00	 8.00000000E+02
	 0.00000000E+00	-2.50000000E+01	 8.00000000E+02
	 1.25000000E+01	 0.00000000E+00	 8.00000000E+02
	 0.00000000E+00	 2.50000000E+01	 8.00000000E+02
	-1.25000000E+01	 2.50000000E+01	 9.00000000E+02
	-1.25000000E+01	-2.50000000E+01	 9.00000000E+02
	 1.25000000E+01	-2.50000000E+01	 9.00000000E+02
	 1.25000000E+01	 2.50000000E+01	 9.00000000E+02
	-1.25000000E+01	 2.50000000E+01	 1.00000000E+03
	-1.25000000E+01	-2.50000000E+01	 1.00000000E+03
	 1.25000000E+01	-2.50000000E+01	 1.00000000E+03
	 1.25000000E+01	 2.50000000E+01	 1.00000000E+03
	-1.25000000E+01	 0.00000000E+00	 1.00000000E+03
	 0.00000000E+00	-2.50000000E+01	 1.00000000E+03
	 1.25000000E+01	 0.00000000E+00	 1.00000000E+03
	 0.00000000E+00	 2.50000000E+01	 1.00000000E+03

CELLS 5 105
	20 0 12 13 1 3 15 14 2 8 16 9 4 11 18 10 6 7 19 17 5 
	20 12 24 25 13 15 27 26 14 20 28 21 16 23 30 22 18 19 31 29 17 
	20 24 36 37 25 27 39 38 26 32 40 33 28 35 42 34 30 31 43 41 29 
	20 36 48 49 37 39 51 50 38 44 52 45 40 47 54 46 42 43 55 53 41 
	20 48 60 61 49 51 63 62 50 56 64 57 52 59 66 58 54 55 67 65 53 

CELL_TYPES 5
	25
	25
	25
	25
	25

POINT_DATA 68
FIELD U 1
	U 3 68 double
		 7.80168000E-02	-2.71182000E-01	-6.67827000E-01
		-7.80168000E-02	-2.71182000E-01	 6.67827000E-01
		-1.93165000E-01	 2.71182000E-01	-6.67827000E-01
		 1.93165000E-01	 2.71182000E-01	 6.67827000E-01
		 7.96946000E-13	-2.71182000E-01	 0.00000000E+00
		-1.35591000E-01	-2.15633000E-13	 0.00000000E+00
		-7.96946000E-13	 2.71182000E-01	 0.00000000E+00
		 1.35591000E-01	 2.15633000E-13	 0.00000000E+00
		-5.90758000E+00	-1.14887000E+00	-3.54631000E-01
		 5.90758000E+00	-1.14887000E+00	 3.54631000E-01
		 5.98025000E+00	 4.50538000E+00	-6.21761000E-01
		-5.98025000E+00	 4.50538000E+00	 6.21761000E-01
		-1.12850000E+01	-3.02828000E+00	-2.21575000E-01
		 1.12850000E+01	-3.02828000E+00	 2.21575000E-01
		 1.11897000E+01	 8.69498000E+00	-7.90561000E-01
		-1.11897000E+01	 8.69498000E+00	 7.90561000E-01
		 8.84484000E-11	-3.02060000E+00	 3.30402000E-12
		 1.12380000E+01	 2.83254000E+00	-2.98663000E-01
		 8.67431000E-11	 8.70002000E+00	-7.67830000E-12
		-1.12380000E+01	 2.83254000E+00	 2.98663000E-01
		-1.66268000E+01	-4.93803000E+00	-1.27471000E-01
		 1.66268000E+01	-4.93803000E+00	 1.27471000E-01
		 1.66703000E+01	 1.15078000E+01	-7.94630000E-01
		-1.66703000E+01	 1.15078000E+01	 7.94630000E-01
		-2.14159000E+01	-7.15252000E+00	-8.55790000E-02
		 2.14159000E+01	-7.15252000E+00	 8.55790000E-02
		 2.13339000E+01	 1.45636000E+01	-7.19150000E-01
		-2.13339000E+01	 1.45636000E+01	 7.19150000E-01
		 9.90408000E-11	-7.15357000E+00	-1.36424000E-12
		 2.13758000E+01	 3.70743000E+00	-3.25291000E-01
		 9.71347000E-11	 1.45591000E+01	 3.86180000E-12
		-2.13758000E+01	 3.70743000E+00	 3.25291000E-01
		-2.57569000E+01	-8.77712000E+00	-1.54687000E-01
		 2.57569000E+01	-8.77712000E+00	 1.54687000E-01
		 2.57809000E+01	 1.68427000E+01	-5.88474000E-01
		-2.57809000E+01	 1.68427000E+01	 5.88474000E-01
		-2.94237000E+01	-1.00496000E+01	-2.02364000E-01
		 2.94237000E+01	-1.00496000E+01	 2.02364000E-01
		 2.93500000E+01	 1.95929000E+01	-3.66457000E-01
		-2.93500000E+01	 1.95929000E+01	 3.66457000E-01
		 6.33857000E-11	-1.00520000E+01	 2.54019000E-13
		 2.93883000E+01	 4.77458000E+00	-8.92546000E-02
		 6.15028000E-11	 1.95849000E+01	-2.33591000E-13
		-2.93883000E+01	 4.77458000E+00	 8.92546000E-02
		-3.24041000E+01	-1.04426000E+01	-2.96530000E-01
		 3.24041000E+01	-1.04426000E+01	 2.96530000E-01
		 3.24222000E+01	 2.18496000E+01	-1.88872000E-01
		-3.24222000E+01	 2.18496000E+01	 1.88872000E-01
		-3.45501000E+01	-1.03920000E+01	-2.98340000E-01
		 3.45501000E+01	-1.03920000E+01	 2.98340000E-01
		 3.44885000E+01	 2.43422000E+01	 2.84137000E-02
		-3.44885000E+01	 2.43422000E+01	-2.84137000E-02
		 7.51168000E-11	-1.03923000E+01	-2.27129000E-12
		 3.45203000E+01	 6.97748000E+00	 1.60620000E-01
		 7.25873000E-11	 2.43378000E+01	 5.64881000E-12
		-3.45203000E+01	 6.97748000E+00	-1.60620000E-01
		-3.59197000E+01	-9.72934000E+00	-3.12960000E-01
		 3.59197000E+01	-9.72934000E+00	 3.12960000E-01
		 3.59423000E+01	 2.60905000E+01	 1.18650000E-01
		-3.59423000E+01	 2.60905000E+01	-1.18650000E-01
		-3.62807000E+01	-8.93172000E+00	-1.87952000E-01
		 3.62807000E+01	-8.93172000E+00	 1.87952000E-01
		 3.62240000E+01	 2.75311000E+01	 3.15687000E-01
		-3.62240000E+01	 2.75311000E+01	-3.15687000E-01
		-8.65157000E-11	-8.92501000E+00	-7.62568000E-12
		 3.62559000E+01	 9.30214000E+00	 2.49187000E-01
		-8.86509000E-11	 2.75247000E+01	 1.91200000E-11
		-3.62559000E+01	 9.30214000E+00	-2.49187000E-01
