# vtk DataFile Version 3.0

ASCII
DATASET UNSTRUCTURED_GRID

POINTS 68 double
	-1.25000000E+01	 2.50000000E+01	 0.00000000E+00
	-1.25000000E+01	-2.50000000E+01	 0.00000000E+00
	 1.25000000E+01	-2.50000000E+01	 0.00000000E+00
	 1.25000000E+01	 2.50000000E+01	 0.00000000E+00
	-1.25000000E+01	 0.00000000E+00	 0.00000000E+00
	 0.00000000E+00	-2.50000000E+01	 0.00000000E+00
	 1.25000000E+01	 0.00000000E+00	 0.00000000E+00
	 0.00000000E+00	 2.50000000E+01	 0.00000000E+00
	-1.25000000E+01	 2.50000000E+01	 1.00000000E+02
	-1.25000000E+01	-2.50000000E+01	 1.00000000E+02
	 1.25000000E+01	-2.50000000E+01	 1.00000000E+02
	 1.25000000E+01	 2.50000000E+01	 1.00000000E+02
	-1.25000000E+01	 2.50000000E+01	 2.00000000E+02
	-1.25000000E+01	-2.50000000E+01	 2.00000000E+02
	 1.25000000E+01	-2.50000000E+01	 2.00000000E+02
	 1.25000000E+01	 2.50000000E+01	 2.00000000E+02
	-1.25000000E+01	 0.00000000E+00	 2.00000000E+02
	 0.00000000E+00	-2.50000000E+01	 2.00000000E+02
	 1.25000000E+01	 0.00000000E+00	 2.00000000E+02
	 0.00000000E+00	 2.50000000E+01	 2.00000000E+02
	-1.25000000E+01	 2.50000000E+01	 3.00000000E+02
	-1.25000000E+01	-2.50000000E+01	 3.00000000E+02
	 1.25000000E+01	-2.50000000E+01	 3.00000000E+02
	 1.25000000E+01	 2.50000000E+01	 3.00000000E+02
	-1.25000000E+01	 2.50000000E+01	 4.00000000E+02
	-1.25000000E+01	-2.50000000E+01	 4.00000000E+02
	 1.25000000E+01	-2.50000000E+01	 4.00000000E+02
	 1.25000000E+01	 2.50000000E+01	 4.00000000E+02
	-1.25000000E+01	 0.00000000E+00	 4.00000000E+02
	 0.00000000E+00	-2.50000000E+01	 4.00000000E+02
	 1.25000000E+01	 0.00000000E+00	 4.00000000E+02
	 0.00000000E+00	 2.50000000E+01	 4.00000000E+02
	-1.25000000E+01	 2.50000000E+01	 5.00000000E+02
	-1.25000000E+01	-2.50000000E+01	 5.00000000E+02
	 1.25000000E+01	-2.50000000E+01	 5.00000000E+02
	 1.25000000E+01	 2.50000000E+01	 5.00000000E+02
	-1.25000000E+01	 2.50000000E+01	 6.00000000E+02
	-1.25000000E+01	-2.50000000E+01	 6.00000000E+02
	 1.25000000E+01	-2.50000000E+01	 6.00000000E+02
	 1.25000000E+01	 2.50000000E+01	 6.00000000E+02
	-1.25000000E+01	 0.00000000E+00	 6.00000000E+02
	 0.00000000E+00	-2.50000000E+01	 6.00000000E+02
	 1.25000000E+01	 0.00000000E+00	 6.00000000E+02
	 0.00000000E+00	 2.50000000E+01	 6.00000000E+02
	-1.25000000E+01	 2.50000000E+01	 7.00000000E+02
	-1.25000000E+01	-2.50000000E+01	 7.00000000E+02
	 1.25000000E+01	-2.50000000E+01	 7.00000000E+02
	 1.25000000E+01	 2.50000000E+01	 7.00000000E+02
	-1.25000000E+01	 2.50000000E+01	 8.00000000E+02
	-1.25000000E+01	-2.50000000E+01	 8.00000000E+02
	 1.25000000E+01	-2.50000000E+01	 8.00000000E+02
	 1.25000000E+01	 2.50000000E+01	 8.00000000E+02
	-1.25000000E+01	 0.00000000E+00	 8.00000000E+02
	 0.00000000E+00	-2.50000000E+01	 8.00000000E+02
	 1.25000000E+01	 0.00000000E+00	 8.00000000E+02
	 0.00000000E+00	 2.50000000E+01	 8.00000000E+02
	-1.25000000E+01	 2.50000000E+01	 9.00000000E+02
	-1.25000000E+01	-2.50000000E+01	 9.00000000E+02
	 1.25000000E+01	-2.50000000E+01	 9.00000000E+02
	 1.25000000E+01	 2.50000000E+01	 9.00000000E+02
	-1.25000000E+01	 2.50000000E+01	 1.00000000E+03
	-1.25000000E+01	-2.50000000E+01	 1.00000000E+03
	 1.25000000E+01	-2.50000000E+01	 1.00000000E+03
	 1.25000000E+01	 2.50000000E+01	 1.00000000E+03
	-1.25000000E+01	 0.00000000E+00	 1.00000000E+03
	 0.00000000E+00	-2.50000000E+01	 1.00000000E+03
	 1.25000000E+01	 0.00000000E+00	 1.00000000E+03
	 0.00000000E+00	 2.50000000E+01	 1.00000000E+03

CELLS 5 105
	20 0 12 13 1 3 15 14 2 8 16 9 4 11 18 10 6 7 19 17 5 
	20 12 24 25 13 15 27 26 14 20 28 21 16 23 30 22 18 19 31 29 17 
	20 24 36 37 25 27 39 38 26 32 40 33 28 35 42 34 30 31 43 41 29 
	20 36 48 49 37 39 51 50 38 44 52 45 40 47 54 46 42 43 55 53 41 
	20 48 60 61 49 51 63 62 50 56 64 57 52 59 66 58 54 55 67 65 53 

CELL_TYPES 5
	25
	25
	25
	25
	25

POINT_DATA 68
FIELD U 1
	U 3 68 double
		 1.39077000E-05	-5.43648000E-05	-1.78153000E-04
		-1.39077000E-05	-5.43648000E-05	 1.78153000E-04
		-4.04570000E-05	 5.43648000E-05	-1.78153000E-04
		 4.04570000E-05	 5.43648000E-05	 1.78153000E-04
		 5.56128000E-17	-5.43648000E-05	 0.00000000E+00
		-2.71824000E-05	 7.80026000E-16	 0.00000000E+00
		-5.56128000E-17	 5.43648000E-05	 0.00000000E+00
		 2.71824000E-05	-7.80026000E-16	 0.00000000E+00
		-1.70986000E-03	-2.24186000E-04	-1.59387000E-04
		 1.70986000E-03	-2.24186000E-04	 1.59387000E-04
		 1.72040000E-03	 1.43851000E-03	-1.37207000E-04
		-1.72040000E-03	 1.43851000E-03	 1.37207000E-04
		-3.33527000E-03	-4.62079000E-04	-1.56089000E-04
		 3.33527000E-03	-4.62079000E-04	 1.56089000E-04
		 3.31946000E-03	 2.94167000E-03	-1.40660000E-04
		-3.31946000E-03	 2.94167000E-03	 1.40660000E-04
		-7.30593000E-13	-4.61995000E-04	-5.08319000E-14
		 3.32737000E-03	 1.23984000E-03	 3.51622000E-06
		-7.32352000E-13	 2.94158000E-03	 1.21834000E-13
		-3.32737000E-03	 1.23984000E-03	-3.51622000E-06
		-5.01206000E-03	-6.49034000E-04	-1.64347000E-04
		 5.01206000E-03	-6.49034000E-04	 1.64347000E-04
		 5.01744000E-03	 4.34156000E-03	-1.43040000E-04
		-5.01744000E-03	 4.34156000E-03	 1.43040000E-04
		-6.66121000E-03	-8.69072000E-04	-1.50174000E-04
		 6.66121000E-03	-8.69072000E-04	 1.50174000E-04
		 6.65462000E-03	 5.81200000E-03	-1.32484000E-04
		-6.65462000E-03	 5.81200000E-03	 1.32484000E-04
		-2.51185000E-12	-8.69188000E-04	-7.29471000E-14
		 6.65800000E-03	 2.47141000E-03	 5.72745000E-06
		-2.51197000E-12	 5.81205000E-03	 1.74812000E-13
		-6.65800000E-03	 2.47141000E-03	-5.72745000E-06
		-8.31916000E-03	-1.07322000E-03	-1.65086000E-04
		 8.31916000E-03	-1.07322000E-03	 1.65086000E-04
		 8.32031000E-03	 7.24746000E-03	-1.44750000E-04
		-8.32031000E-03	 7.24746000E-03	 1.44750000E-04
		-9.98173000E-03	-1.27629000E-03	-1.50157000E-04
		 9.98173000E-03	-1.27629000E-03	 1.50157000E-04
		 9.98373000E-03	 8.67875000E-03	-1.32935000E-04
		-9.98373000E-03	 8.67875000E-03	 1.32935000E-04
		-4.43424000E-12	-1.27584000E-03	-6.62987000E-14
		 9.98242000E-03	 3.70144000E-03	 5.30522000E-06
		-4.43425000E-12	 8.67865000E-03	 1.58392000E-13
		-9.98242000E-03	 3.70144000E-03	-5.30522000E-06
		-1.16259000E-02	-1.49893000E-03	-1.63950000E-04
		 1.16259000E-02	-1.49893000E-03	 1.63950000E-04
		 1.16228000E-02	 1.01522000E-02	-1.43210000E-04
		-1.16228000E-02	 1.01522000E-02	 1.43210000E-04
		-1.33084000E-02	-1.68215000E-03	-1.58139000E-04
		 1.33084000E-02	-1.68215000E-03	 1.58139000E-04
		 1.33193000E-02	 1.15515000E-02	-1.41583000E-04
		-1.33193000E-02	 1.15515000E-02	 1.41583000E-04
		-6.18762000E-12	-1.68390000E-03	-6.84909000E-14
		 1.33150000E-02	 4.93385000E-03	 4.67857000E-06
		-6.18831000E-12	 1.15519000E-02	 1.63662000E-13
		-1.33150000E-02	 4.93385000E-03	-4.67857000E-06
		-1.49273000E-02	-1.91926000E-03	-1.59061000E-04
		 1.49273000E-02	-1.91926000E-03	 1.59061000E-04
		 1.49196000E-02	 1.30578000E-02	-1.34382000E-04
		-1.49196000E-02	 1.30578000E-02	 1.34382000E-04
		-1.66640000E-02	-2.09478000E-03	-1.79338000E-04
		 1.66640000E-02	-2.09478000E-03	 1.79338000E-04
		 1.66853000E-02	 1.44353000E-02	-1.85157000E-04
		-1.66853000E-02	 1.44353000E-02	 1.85157000E-04
		-8.20812000E-12	-2.08847000E-03	-7.73052000E-14
		 1.66704000E-02	 6.17315000E-03	-5.21072000E-06
		-8.20850000E-12	 1.44340000E-02	 1.85178000E-13
		-1.66704000E-02	 6.17315000E-03	 5.21072000E-06
