<?xml version="1.0"?>
<VTKFile type="UnstructuredGrid" version="0.1" byte_order="LittleEndian">
	<UnstructuredGrid>
		<Piece NumberOfPoints="68" NumberOfCells="5">
			<Points>
				<DataArray type="Float64" NumberOfComponents="3" format="ascii">
					-1.25000000E+01	 2.50000000E+01	 0.00000000E+00
					-1.25000000E+01	-2.50000000E+01	 0.00000000E+00
					 1.25000000E+01	-2.50000000E+01	 0.00000000E+00
					 1.25000000E+01	 2.50000000E+01	 0.00000000E+00
					-1.25000000E+01	 0.00000000E+00	 0.00000000E+00
					 0.00000000E+00	-2.50000000E+01	 0.00000000E+00
					 1.25000000E+01	 0.00000000E+00	 0.00000000E+00
					 0.00000000E+00	 2.50000000E+01	 0.00000000E+00
					-1.25000000E+01	 2.50000000E+01	 1.00000000E+02
					-1.25000000E+01	-2.50000000E+01	 1.00000000E+02
					 1.25000000E+01	-2.50000000E+01	 1.00000000E+02
					 1.25000000E+01	 2.50000000E+01	 1.00000000E+02
					-1.25000000E+01	 2.50000000E+01	 2.00000000E+02
					-1.25000000E+01	-2.50000000E+01	 2.00000000E+02
					 1.25000000E+01	-2.50000000E+01	 2.00000000E+02
					 1.25000000E+01	 2.50000000E+01	 2.00000000E+02
					-1.25000000E+01	 0.00000000E+00	 2.00000000E+02
					 0.00000000E+00	-2.50000000E+01	 2.00000000E+02
					 1.25000000E+01	 0.00000000E+00	 2.00000000E+02
					 0.00000000E+00	 2.50000000E+01	 2.00000000E+02
					-1.25000000E+01	 2.50000000E+01	 3.00000000E+02
					-1.25000000E+01	-2.50000000E+01	 3.00000000E+02
					 1.25000000E+01	-2.50000000E+01	 3.00000000E+02
					 1.25000000E+01	 2.50000000E+01	 3.00000000E+02
					-1.25000000E+01	 2.50000000E+01	 4.00000000E+02
					-1.25000000E+01	-2.50000000E+01	 4.00000000E+02
					 1.25000000E+01	-2.50000000E+01	 4.00000000E+02
					 1.25000000E+01	 2.50000000E+01	 4.00000000E+02
					-1.25000000E+01	 0.00000000E+00	 4.00000000E+02
					 0.00000000E+00	-2.50000000E+01	 4.00000000E+02
					 1.25000000E+01	 0.00000000E+00	 4.00000000E+02
					 0.00000000E+00	 2.50000000E+01	 4.00000000E+02
					-1.25000000E+01	 2.50000000E+01	 5.00000000E+02
					-1.25000000E+01	-2.50000000E+01	 5.00000000E+02
					 1.25000000E+01	-2.50000000E+01	 5.00000000E+02
					 1.25000000E+01	 2.50000000E+01	 5.00000000E+02
					-1.25000000E+01	 2.50000000E+01	 6.00000000E+02
					-1.25000000E+01	-2.50000000E+01	 6.00000000E+02
					 1.25000000E+01	-2.50000000E+01	 6.00000000E+02
					 1.25000000E+01	 2.50000000E+01	 6.00000000E+02
					-1.25000000E+01	 0.00000000E+00	 6.00000000E+02
					 0.00000000E+00	-2.50000000E+01	 6.00000000E+02
					 1.25000000E+01	 0.00000000E+00	 6.00000000E+02
					 0.00000000E+00	 2.50000000E+01	 6.00000000E+02
					-1.25000000E+01	 2.50000000E+01	 7.00000000E+02
					-1.25000000E+01	-2.50000000E+01	 7.00000000E+02
					 1.25000000E+01	-2.50000000E+01	 7.00000000E+02
					 1.25000000E+01	 2.50000000E+01	 7.00000000E+02
					-1.25000000E+01	 2.50000000E+01	 8.00000000E+02
					-1.25000000E+01	-2.50000000E+01	 8.00000000E+02
					 1.25000000E+01	-2.50000000E+01	 8.00000000E+02
					 1.25000000E+01	 2.50000000E+01	 8.00000000E+02
					-1.25000000E+01	 0.00000000E+00	 8.00000000E+02
					 0.00000000E+00	-2.50000000E+01	 8.00000000E+02
					 1.25000000E+01	 0.00000000E+00	 8.00000000E+02
					 0.00000000E+00	 2.50000000E+01	 8.00000000E+02
					-1.25000000E+01	 2.50000000E+01	 9.00000000E+02
					-1.25000000E+01	-2.50000000E+01	 9.00000000E+02
					 1.25000000E+01	-2.50000000E+01	 9.00000000E+02
					 1.25000000E+01	 2.50000000E+01	 9.00000000E+02
					-1.25000000E+01	 2.50000000E+01	 1.00000000E+03
					-1.25000000E+01	-2.50000000E+01	 1.00000000E+03
					 1.25000000E+01	-2.50000000E+01	 1.00000000E+03
					 1.25000000E+01	 2.50000000E+01	 1.00000000E+03
					-1.25000000E+01	 0.00000000E+00	 1.00000000E+03
					 0.00000000E+00	-2.50000000E+01	 1.00000000E+03
					 1.25000000E+01	 0.00000000E+00	 1.00000000E+03
					 0.00000000E+00	 2.50000000E+01	 1.00000000E+03
				</DataArray>
			</Points>
			<Cells>
				<DataArray type="Int32" Name="connectivity" format="ascii">
					0 12 13 1 3 15 14 2 8 16 9 4 11 18 10 6 7 19 17 5 12 24 25 13 15 27 26 14 20 28 21 16 23 30 22 18 19 31 29 17 24 36 37 25 27 39 38 26 32 40 33 28 35 42 34 30 31 43 41 29 36 48 49 37 39 51 50 38 44 52 45 40 47 54 46 42 43 55 53 41 48 60 61 49 51 63 62 50 56 64 57 52 59 66 58 54 55 67 65 53 
				</DataArray>
				<DataArray type="Int32" Name="offsets" format="ascii">
					20 40 60 80 100 
				</DataArray>
				<DataArray type="UInt8" Name="types" format="ascii">
					25 25 25 25 25 
				</DataArray>
			</Cells>
			<PointData>
				<DataArray type="Float32" Name="U" NumberOfComponents="3" ComponentName0="D1" ComponentName1="D2" ComponentName2="D3" format="ascii">
					 2.09953000E-02	-6.31239000E-02	 4.26326000E-14
					 2.09953000E-02	 6.31239000E-02	-4.26326000E-14
					-2.09953000E-02	-1.53483000E-01	 4.26326000E-14
					-2.09953000E-02	 1.53483000E-01	-4.26326000E-14
					 2.09953000E-02	 3.48055000E-14	 0.00000000E+00
					 1.74027000E-14	-4.51797000E-02	 0.00000000E+00
					-2.09953000E-02	-3.48055000E-14	 0.00000000E+00
					-1.74027000E-14	 4.51797000E-02	 0.00000000E+00
					 9.18552000E+00	-9.87345000E-03	 1.10963000E+00
					 9.18552000E+00	 9.87345000E-03	 1.10963000E+00
					 9.19506000E+00	-3.12394000E-02	-2.61670000E+00
					 9.19506000E+00	 3.12394000E-02	-2.61670000E+00
					 2.50769000E+01	 3.95611000E-02	 1.00439000E+00
					 2.50769000E+01	-3.95611000E-02	 1.00439000E+00
					 2.50245000E+01	 9.51861000E-02	-2.34995000E+00
					 2.50245000E+01	-9.51861000E-02	-2.34995000E+00
					 2.50312000E+01	 1.83853000E-11	 9.73686000E-01
					 2.50618000E+01	 2.79160000E-02	-6.87430000E-01
					 2.49791000E+01	 9.56035000E-12	-2.37963000E+00
					 2.50618000E+01	-2.79160000E-02	-6.87430000E-01
					 3.22234000E+01	 7.37217000E-02	 4.88962000E-03
					 3.22234000E+01	-7.37217000E-02	 4.88962000E-03
					 3.21933000E+01	 1.87720000E-01	 7.19201000E-03
					 3.21933000E+01	-1.87720000E-01	 7.19201000E-03
					 2.41884000E+01	 9.11727000E-02	-1.22383000E+00
					 2.41884000E+01	-9.11727000E-02	-1.22383000E+00
					 2.40861000E+01	 2.20032000E-01	 2.89836000E+00
					 2.40861000E+01	-2.20032000E-01	 2.89836000E+00
					 2.40176000E+01	 4.70646000E-11	-1.20467000E+00
					 2.41826000E+01	 6.37859000E-02	 8.46167000E-01
					 2.39120000E+01	 3.21325000E-11	 2.91757000E+00
					 2.41826000E+01	-6.37859000E-02	 8.46167000E-01
					 2.31046000E+00	 3.20533000E-03	-1.78682000E+00
					 2.31046000E+00	-3.20533000E-03	-1.78682000E+00
					 2.32052000E+00	 5.32512000E-03	 4.24897000E+00
					 2.32052000E+00	-5.32512000E-03	 4.24897000E+00
					-1.98621000E+01	-8.73346000E-02	-1.26778000E+00
					-1.98621000E+01	 8.73346000E-02	-1.26778000E+00
					-1.98203000E+01	-1.98888000E-01	 3.00802000E+00
					-1.98203000E+01	 1.98888000E-01	 3.00802000E+00
					-1.97052000E+01	 3.79670000E-11	-1.24902000E+00
					-1.98823000E+01	-5.53323000E-02	 8.77586000E-01
					-1.96612000E+01	 2.40679000E-11	 3.02951000E+00
					-1.98823000E+01	 5.53323000E-02	 8.77586000E-01
					-2.82039000E+01	-9.99075000E-02	 6.86741000E-02
					-2.82039000E+01	 9.99075000E-02	 6.86741000E-02
					-2.81240000E+01	-2.53824000E-01	-1.59157000E-01
					-2.81240000E+01	 2.53824000E-01	-1.59157000E-01
					-1.76764000E+01	-1.00053000E-01	 1.49880000E+00
					-1.76764000E+01	 1.00053000E-01	 1.49880000E+00
					-1.76289000E+01	-2.22083000E-01	-3.54970000E+00
					-1.76289000E+01	 2.22083000E-01	-3.54970000E+00
					-1.75078000E+01	-2.57305000E-11	 1.48390000E+00
					-1.76958000E+01	-6.07609000E-02	-1.03184000E+00
					-1.74590000E+01	-4.41815000E-11	-3.56533000E+00
					-1.76958000E+01	 6.07609000E-02	-1.03184000E+00
					 9.28880000E+00	-3.84982000E-02	 2.35295000E+00
					 9.28880000E+00	 3.84982000E-02	 2.35295000E+00
					 9.32966000E+00	-1.01045000E-01	-5.59930000E+00
					 9.32966000E+00	 1.01045000E-01	-5.59930000E+00
					 4.33869000E+01	 3.08196000E-04	 2.55644000E+00
					 4.33869000E+01	-3.08196000E-04	 2.55644000E+00
					 4.33533000E+01	 2.96197000E-02	-6.08467000E+00
					 4.33533000E+01	-2.96197000E-02	-6.08467000E+00
					 4.33664000E+01	-1.09782000E-10	 2.54808000E+00
					 4.33772000E+01	 1.42889000E-02	-1.76700000E+00
					 4.33307000E+01	-1.26418000E-10	-6.09736000E+00
					 4.33772000E+01	-1.42889000E-02	-1.76700000E+00
				</DataArray>
			</PointData>
		</Piece>
	</UnstructuredGrid>
</VTKFile>