<?xml version="1.0"?>
<VTKFile type="UnstructuredGrid" version="0.1" byte_order="LittleEndian">
	<UnstructuredGrid>
		<Piece NumberOfPoints="68" NumberOfCells="5">
			<Points>
				<DataArray type="Float64" NumberOfComponents="3" format="ascii">
					-1.25000000E+01	 2.50000000E+01	 0.00000000E+00
					-1.25000000E+01	-2.50000000E+01	 0.00000000E+00
					 1.25000000E+01	-2.50000000E+01	 0.00000000E+00
					 1.25000000E+01	 2.50000000E+01	 0.00000000E+00
					-1.25000000E+01	 0.00000000E+00	 0.00000000E+00
					 0.00000000E+00	-2.50000000E+01	 0.00000000E+00
					 1.25000000E+01	 0.00000000E+00	 0.00000000E+00
					 0.00000000E+00	 2.50000000E+01	 0.00000000E+00
					-1.25000000E+01	 2.50000000E+01	 1.00000000E+02
					-1.25000000E+01	-2.50000000E+01	 1.00000000E+02
					 1.25000000E+01	-2.50000000E+01	 1.00000000E+02
					 1.25000000E+01	 2.50000000E+01	 1.00000000E+02
					-1.25000000E+01	 2.50000000E+01	 2.00000000E+02
					-1.25000000E+01	-2.50000000E+01	 2.00000000E+02
					 1.25000000E+01	-2.50000000E+01	 2.00000000E+02
					 1.25000000E+01	 2.50000000E+01	 2.00000000E+02
					-1.25000000E+01	 0.00000000E+00	 2.00000000E+02
					 0.00000000E+00	-2.50000000E+01	 2.00000000E+02
					 1.25000000E+01	 0.00000000E+00	 2.00000000E+02
					 0.00000000E+00	 2.50000000E+01	 2.00000000E+02
					-1.25000000E+01	 2.50000000E+01	 3.00000000E+02
					-1.25000000E+01	-2.50000000E+01	 3.00000000E+02
					 1.25000000E+01	-2.50000000E+01	 3.00000000E+02
					 1.25000000E+01	 2.50000000E+01	 3.00000000E+02
					-1.25000000E+01	 2.50000000E+01	 4.00000000E+02
					-1.25000000E+01	-2.50000000E+01	 4.00000000E+02
					 1.25000000E+01	-2.50000000E+01	 4.00000000E+02
					 1.25000000E+01	 2.50000000E+01	 4.00000000E+02
					-1.25000000E+01	 0.00000000E+00	 4.00000000E+02
					 0.00000000E+00	-2.50000000E+01	 4.00000000E+02
					 1.25000000E+01	 0.00000000E+00	 4.00000000E+02
					 0.00000000E+00	 2.50000000E+01	 4.00000000E+02
					-1.25000000E+01	 2.50000000E+01	 5.00000000E+02
					-1.25000000E+01	-2.50000000E+01	 5.00000000E+02
					 1.25000000E+01	-2.50000000E+01	 5.00000000E+02
					 1.25000000E+01	 2.50000000E+01	 5.00000000E+02
					-1.25000000E+01	 2.50000000E+01	 6.00000000E+02
					-1.25000000E+01	-2.50000000E+01	 6.00000000E+02
					 1.25000000E+01	-2.50000000E+01	 6.00000000E+02
					 1.25000000E+01	 2.50000000E+01	 6.00000000E+02
					-1.25000000E+01	 0.00000000E+00	 6.00000000E+02
					 0.00000000E+00	-2.50000000E+01	 6.00000000E+02
					 1.25000000E+01	 0.00000000E+00	 6.00000000E+02
					 0.00000000E+00	 2.50000000E+01	 6.00000000E+02
					-1.25000000E+01	 2.50000000E+01	 7.00000000E+02
					-1.25000000E+01	-2.50000000E+01	 7.00000000E+02
					 1.25000000E+01	-2.50000000E+01	 7.00000000E+02
					 1.25000000E+01	 2.50000000E+01	 7.00000000E+02
					-1.25000000E+01	 2.50000000E+01	 8.00000000E+02
					-1.25000000E+01	-2.50000000E+01	 8.00000000E+02
					 1.25000000E+01	-2.50000000E+01	 8.00000000E+02
					 1.25000000E+01	 2.50000000E+01	 8.00000000E+02
					-1.25000000E+01	 0.00000000E+00	 8.00000000E+02
					 0.00000000E+00	-2.50000000E+01	 8.00000000E+02
					 1.25000000E+01	 0.00000000E+00	 8.00000000E+02
					 0.00000000E+00	 2.50000000E+01	 8.00000000E+02
					-1.25000000E+01	 2.50000000E+01	 9.00000000E+02
					-1.25000000E+01	-2.50000000E+01	 9.00000000E+02
					 1.25000000E+01	-2.50000000E+01	 9.00000000E+02
					 1.25000000E+01	 2.50000000E+01	 9.00000000E+02
					-1.25000000E+01	 2.50000000E+01	 1.00000000E+03
					-1.25000000E+01	-2.50000000E+01	 1.00000000E+03
					 1.25000000E+01	-2.50000000E+01	 1.00000000E+03
					 1.25000000E+01	 2.50000000E+01	 1.00000000E+03
					-1.25000000E+01	 0.00000000E+00	 1.00000000E+03
					 0.00000000E+00	-2.50000000E+01	 1.00000000E+03
					 1.25000000E+01	 0.00000000E+00	 1.00000000E+03
					 0.00000000E+00	 2.50000000E+01	 1.00000000E+03
				</DataArray>
			</Points>
			<Cells>
				<DataArray type="Int32" Name="connectivity" format="ascii">
					0 12 13 1 3 15 14 2 8 16 9 4 11 18 10 6 7 19 17 5 12 24 25 13 15 27 26 14 20 28 21 16 23 30 22 18 19 31 29 17 24 36 37 25 27 39 38 26 32 40 33 28 35 42 34 30 31 43 41 29 36 48 49 37 39 51 50 38 44 52 45 40 47 54 46 42 43 55 53 41 48 60 61 49 51 63 62 50 56 64 57 52 59 66 58 54 55 67 65 53 
				</DataArray>
				<DataArray type="Int32" Name="offsets" format="ascii">
					20 40 60 80 100 
				</DataArray>
				<DataArray type="UInt8" Name="types" format="ascii">
					25 25 25 25 25 
				</DataArray>
			</Cells>
			<PointData>
				<DataArray type="Float32" Name="U" NumberOfComponents="3" ComponentName0="D1" ComponentName1="D2" ComponentName2="D3" format="ascii">
					-1.93952000E-01	-1.52849000E-01	-5.90090000E-01
					 1.93952000E-01	-1.52849000E-01	 5.90090000E-01
					-3.46801000E-01	 1.52849000E-01	-5.90090000E-01
					 3.46801000E-01	 1.52849000E-01	 5.90090000E-01
					 8.48210000E-14	-1.52849000E-01	 0.00000000E+00
					-7.64247000E-02	-1.44218000E-13	 0.00000000E+00
					-8.48210000E-14	 1.52849000E-01	 0.00000000E+00
					 7.64247000E-02	 1.44218000E-13	 0.00000000E+00
					-1.24408000E+00	 1.02568000E+01	-3.47994000E+00
					 1.24408000E+00	 1.02568000E+01	 3.47994000E+00
					 1.07443000E+00	 1.13091000E+01	 3.55876000E+00
					-1.07443000E+00	 1.13091000E+01	-3.55876000E+00
					-9.37826000E-01	 2.58055000E+01	-3.03890000E+00
					 9.37826000E-01	 2.58055000E+01	 3.03890000E+00
					 1.17290000E+00	 2.71046000E+01	 2.67310000E+00
					-1.17290000E+00	 2.71046000E+01	-2.67310000E+00
					 1.98617000E-11	 2.58645000E+01	-4.86722000E-13
					 1.05675000E+00	 2.64429000E+01	 2.86288000E+00
					 1.96227000E-11	 2.71581000E+01	-8.73968000E-13
					-1.05675000E+00	 2.64429000E+01	-2.86288000E+00
					-1.09526000E+00	 3.15227000E+01	 4.77126000E-01
					 1.09526000E+00	 3.15227000E+01	-4.77126000E-01
					 1.39988000E+00	 3.26211000E+01	-3.73778000E-01
					-1.39988000E+00	 3.26211000E+01	 3.73778000E-01
					-5.24001000E-01	 2.21509000E+01	 4.13219000E+00
					 5.24001000E-01	 2.21509000E+01	-4.13219000E+00
					 7.56350000E-01	 2.30229000E+01	-4.04714000E+00
					-7.56350000E-01	 2.30229000E+01	 4.04714000E+00
					-6.92779000E-14	 2.23041000E+01	-1.81899000E-12
					 6.41254000E-01	 2.25503000E+01	-4.09289000E+00
					-1.50990000E-13	 2.31724000E+01	 9.73444000E-13
					-6.41254000E-01	 2.25503000E+01	 4.09289000E+00
					 1.00826000E-02	 8.90480000E-01	 5.63533000E+00
					-1.00826000E-02	 8.90480000E-01	-5.63533000E+00
					-4.13247000E-02	 7.74010000E-01	-5.41701000E+00
					 4.13247000E-02	 7.74010000E-01	 5.41701000E+00
					 7.63539000E-01	-1.98859000E+01	 3.83679000E+00
					-7.63539000E-01	-1.98859000E+01	-3.83679000E+00
					-9.67826000E-01	-2.05934000E+01	-3.68056000E+00
					 9.67826000E-01	-2.05934000E+01	 3.68056000E+00
					-5.17808000E-13	-2.00404000E+01	-9.11271000E-13
					-8.66555000E-01	-2.02025000E+01	-3.76035000E+00
					-5.99520000E-13	-2.07450000E+01	-2.37677000E-12
					 8.66555000E-01	-2.02025000E+01	 3.76035000E+00
					 1.12377000E+00	-2.70298000E+01	-4.00967000E-01
					-1.12377000E+00	-2.70298000E+01	 4.00967000E-01
					-1.50180000E+00	-2.84037000E+01	 4.59039000E-01
					 1.50180000E+00	-2.84037000E+01	-4.59039000E-01
					 1.38747000E+00	-1.62384000E+01	-4.85602000E+00
					-1.38747000E+00	-1.62384000E+01	 4.85602000E+00
					-1.63808000E+00	-1.76081000E+01	 4.84513000E+00
					 1.63808000E+00	-1.76081000E+01	-4.84513000E+00
					-1.06226000E-12	-1.63955000E+01	-2.02860000E-12
					-1.51400000E+00	-1.68856000E+01	 4.85320000E+00
					-1.13065000E-12	-1.77608000E+01	-2.13163000E-14
					 1.51400000E+00	-1.68856000E+01	-4.85320000E+00
					 1.26961000E+00	 9.93116000E+00	-7.49358000E+00
					-1.26961000E+00	 9.93116000E+00	 7.49358000E+00
					-1.38901000E+00	 8.52573000E+00	 7.40372000E+00
					 1.38901000E+00	 8.52573000E+00	-7.40372000E+00
					 1.29831000E+00	 4.21235000E+01	-8.06704000E+00
					-1.29831000E+00	 4.21235000E+01	 8.06704000E+00
					-1.28117000E+00	 4.09850000E+01	 8.14572000E+00
					 1.28117000E+00	 4.09850000E+01	-8.14572000E+00
					-1.52589000E-11	 4.21504000E+01	-1.83320000E-12
					-1.28723000E+00	 4.15503000E+01	 8.10830000E+00
					-1.53708000E-11	 4.10033000E+01	-8.73968000E-13
					 1.28723000E+00	 4.15503000E+01	-8.10830000E+00
				</DataArray>
			</PointData>
		</Piece>
	</UnstructuredGrid>
</VTKFile>