    1C
    1UUSER                                                              
    1UDATE              25.january.2020                                 
    1UTIME              14:54:53                                        
    1UHOST                                                              
    1UPGM               CalculiX                                        
    1UVERSION           Version 2.16                             
    1UCOMPILETIME       Tue  7 Jan 19:57:43 CET 2020                    
    1UDIR                                                               
    1UDBN                                                               
    1UMAT    1EL                                                        
    2C                             0                                     1
 -3
    3C                             0                                     1
 -3
 9999
