# vtk DataFile Version 3.0

ASCII
DATASET UNSTRUCTURED_GRID

POINTS 4812 double
	 1.25000000E-01	 1.25000000E-01	 0.00000000E+00
	 1.25000000E-01	 1.25000000E-01	 1.50000000E-02
	 1.25000000E-01	-1.25000000E-01	 0.00000000E+00
	 1.25000000E-01	-1.25000000E-01	 1.50000000E-02
	-1.25000000E-01	 1.25000000E-01	 0.00000000E+00
	-1.25000000E-01	 1.25000000E-01	 1.50000000E-02
	-1.25000000E-01	-1.25000000E-01	 0.00000000E+00
	-1.25000000E-01	-1.25000000E-01	 1.50000000E-02
	-1.25000000E-01	-1.10294000E-01	 1.50000000E-02
	-1.25000000E-01	-9.55882000E-02	 1.50000000E-02
	-1.25000000E-01	-8.08823000E-02	 1.50000000E-02
	-1.25000000E-01	-6.61765000E-02	 1.50000000E-02
	-1.25000000E-01	-5.14706000E-02	 1.50000000E-02
	-1.25000000E-01	-3.67647000E-02	 1.50000000E-02
	-1.25000000E-01	-2.20588000E-02	 1.50000000E-02
	-1.25000000E-01	-7.35294000E-03	 1.50000000E-02
	-1.25000000E-01	 7.35294000E-03	 1.50000000E-02
	-1.25000000E-01	 2.20588000E-02	 1.50000000E-02
	-1.25000000E-01	 3.67647000E-02	 1.50000000E-02
	-1.25000000E-01	 5.14706000E-02	 1.50000000E-02
	-1.25000000E-01	 6.61765000E-02	 1.50000000E-02
	-1.25000000E-01	 8.08823000E-02	 1.50000000E-02
	-1.25000000E-01	 9.55882000E-02	 1.50000000E-02
	-1.25000000E-01	 1.10294000E-01	 1.50000000E-02
	-1.10294000E-01	 1.25000000E-01	 1.50000000E-02
	-9.55882000E-02	 1.25000000E-01	 1.50000000E-02
	-8.08823000E-02	 1.25000000E-01	 1.50000000E-02
	-6.61765000E-02	 1.25000000E-01	 1.50000000E-02
	-5.14706000E-02	 1.25000000E-01	 1.50000000E-02
	-3.67647000E-02	 1.25000000E-01	 1.50000000E-02
	-2.20588000E-02	 1.25000000E-01	 1.50000000E-02
	-7.35294000E-03	 1.25000000E-01	 1.50000000E-02
	 7.35294000E-03	 1.25000000E-01	 1.50000000E-02
	 2.20588000E-02	 1.25000000E-01	 1.50000000E-02
	 3.67647000E-02	 1.25000000E-01	 1.50000000E-02
	 5.14706000E-02	 1.25000000E-01	 1.50000000E-02
	 6.61765000E-02	 1.25000000E-01	 1.50000000E-02
	 8.08823000E-02	 1.25000000E-01	 1.50000000E-02
	 9.55882000E-02	 1.25000000E-01	 1.50000000E-02
	 1.10294000E-01	 1.25000000E-01	 1.50000000E-02
	 1.25000000E-01	-1.10294000E-01	 1.50000000E-02
	 1.25000000E-01	-9.55882000E-02	 1.50000000E-02
	 1.25000000E-01	-8.08823000E-02	 1.50000000E-02
	 1.25000000E-01	-6.61765000E-02	 1.50000000E-02
	 1.25000000E-01	-5.14706000E-02	 1.50000000E-02
	 1.25000000E-01	-3.67647000E-02	 1.50000000E-02
	 1.25000000E-01	-2.20588000E-02	 1.50000000E-02
	 1.25000000E-01	-7.35294000E-03	 1.50000000E-02
	 1.25000000E-01	 7.35294000E-03	 1.50000000E-02
	 1.25000000E-01	 2.20588000E-02	 1.50000000E-02
	 1.25000000E-01	 3.67647000E-02	 1.50000000E-02
	 1.25000000E-01	 5.14706000E-02	 1.50000000E-02
	 1.25000000E-01	 6.61765000E-02	 1.50000000E-02
	 1.25000000E-01	 8.08823000E-02	 1.50000000E-02
	 1.25000000E-01	 9.55882000E-02	 1.50000000E-02
	 1.25000000E-01	 1.10294000E-01	 1.50000000E-02
	-1.10294000E-01	-1.25000000E-01	 1.50000000E-02
	-9.55882000E-02	-1.25000000E-01	 1.50000000E-02
	-8.08823000E-02	-1.25000000E-01	 1.50000000E-02
	-6.61765000E-02	-1.25000000E-01	 1.50000000E-02
	-5.14706000E-02	-1.25000000E-01	 1.50000000E-02
	-3.67647000E-02	-1.25000000E-01	 1.50000000E-02
	-2.20588000E-02	-1.25000000E-01	 1.50000000E-02
	-7.35294000E-03	-1.25000000E-01	 1.50000000E-02
	 7.35294000E-03	-1.25000000E-01	 1.50000000E-02
	 2.20588000E-02	-1.25000000E-01	 1.50000000E-02
	 3.67647000E-02	-1.25000000E-01	 1.50000000E-02
	 5.14706000E-02	-1.25000000E-01	 1.50000000E-02
	 6.61765000E-02	-1.25000000E-01	 1.50000000E-02
	 8.08823000E-02	-1.25000000E-01	 1.50000000E-02
	 9.55882000E-02	-1.25000000E-01	 1.50000000E-02
	 1.10294000E-01	-1.25000000E-01	 1.50000000E-02
	-1.25000000E-01	-1.10294000E-01	 0.00000000E+00
	-1.25000000E-01	-9.55882000E-02	 0.00000000E+00
	-1.25000000E-01	-8.08823000E-02	 0.00000000E+00
	-1.25000000E-01	-6.61765000E-02	 0.00000000E+00
	-1.25000000E-01	-5.14706000E-02	 0.00000000E+00
	-1.25000000E-01	-3.67647000E-02	 0.00000000E+00
	-1.25000000E-01	-2.20588000E-02	 0.00000000E+00
	-1.25000000E-01	-7.35294000E-03	 0.00000000E+00
	-1.25000000E-01	 7.35294000E-03	 0.00000000E+00
	-1.25000000E-01	 2.20588000E-02	 0.00000000E+00
	-1.25000000E-01	 3.67647000E-02	 0.00000000E+00
	-1.25000000E-01	 5.14706000E-02	 0.00000000E+00
	-1.25000000E-01	 6.61765000E-02	 0.00000000E+00
	-1.25000000E-01	 8.08823000E-02	 0.00000000E+00
	-1.25000000E-01	 9.55882000E-02	 0.00000000E+00
	-1.25000000E-01	 1.10294000E-01	 0.00000000E+00
	-1.10294000E-01	 1.25000000E-01	 0.00000000E+00
	-9.55882000E-02	 1.25000000E-01	 0.00000000E+00
	-8.08823000E-02	 1.25000000E-01	 0.00000000E+00
	-6.61765000E-02	 1.25000000E-01	 0.00000000E+00
	-5.14706000E-02	 1.25000000E-01	 0.00000000E+00
	-3.67647000E-02	 1.25000000E-01	 0.00000000E+00
	-2.20588000E-02	 1.25000000E-01	 0.00000000E+00
	-7.35294000E-03	 1.25000000E-01	 0.00000000E+00
	 7.35294000E-03	 1.25000000E-01	 0.00000000E+00
	 2.20588000E-02	 1.25000000E-01	 0.00000000E+00
	 3.67647000E-02	 1.25000000E-01	 0.00000000E+00
	 5.14706000E-02	 1.25000000E-01	 0.00000000E+00
	 6.61765000E-02	 1.25000000E-01	 0.00000000E+00
	 8.08823000E-02	 1.25000000E-01	 0.00000000E+00
	 9.55882000E-02	 1.25000000E-01	 0.00000000E+00
	 1.10294000E-01	 1.25000000E-01	 0.00000000E+00
	 1.25000000E-01	-1.10294000E-01	 0.00000000E+00
	 1.25000000E-01	-9.55882000E-02	 0.00000000E+00
	 1.25000000E-01	-8.08823000E-02	 0.00000000E+00
	 1.25000000E-01	-6.61765000E-02	 0.00000000E+00
	 1.25000000E-01	-5.14706000E-02	 0.00000000E+00
	 1.25000000E-01	-3.67647000E-02	 0.00000000E+00
	 1.25000000E-01	-2.20588000E-02	 0.00000000E+00
	 1.25000000E-01	-7.35294000E-03	 0.00000000E+00
	 1.25000000E-01	 7.35294000E-03	 0.00000000E+00
	 1.25000000E-01	 2.20588000E-02	 0.00000000E+00
	 1.25000000E-01	 3.67647000E-02	 0.00000000E+00
	 1.25000000E-01	 5.14706000E-02	 0.00000000E+00
	 1.25000000E-01	 6.61765000E-02	 0.00000000E+00
	 1.25000000E-01	 8.08823000E-02	 0.00000000E+00
	 1.25000000E-01	 9.55882000E-02	 0.00000000E+00
	 1.25000000E-01	 1.10294000E-01	 0.00000000E+00
	-1.10294000E-01	-1.25000000E-01	 0.00000000E+00
	-9.55882000E-02	-1.25000000E-01	 0.00000000E+00
	-8.08823000E-02	-1.25000000E-01	 0.00000000E+00
	-6.61765000E-02	-1.25000000E-01	 0.00000000E+00
	-5.14706000E-02	-1.25000000E-01	 0.00000000E+00
	-3.67647000E-02	-1.25000000E-01	 0.00000000E+00
	-2.20588000E-02	-1.25000000E-01	 0.00000000E+00
	-7.35294000E-03	-1.25000000E-01	 0.00000000E+00
	 7.35294000E-03	-1.25000000E-01	 0.00000000E+00
	 2.20588000E-02	-1.25000000E-01	 0.00000000E+00
	 3.67647000E-02	-1.25000000E-01	 0.00000000E+00
	 5.14706000E-02	-1.25000000E-01	 0.00000000E+00
	 6.61765000E-02	-1.25000000E-01	 0.00000000E+00
	 8.08823000E-02	-1.25000000E-01	 0.00000000E+00
	 9.55882000E-02	-1.25000000E-01	 0.00000000E+00
	 1.10294000E-01	-1.25000000E-01	 0.00000000E+00
	-1.12691000E-01	-1.00676000E-01	 1.50000000E-02
	-1.12480000E-01	-8.78239000E-02	 1.50000000E-02
	-1.12499000E-01	-7.35753000E-02	 1.50000000E-02
	-1.11896000E-01	-5.92220000E-02	 1.50000000E-02
	-1.11817000E-01	-4.44982000E-02	 1.50000000E-02
	-1.11896000E-01	-2.96596000E-02	 1.50000000E-02
	-1.11956000E-01	-1.48424000E-02	 1.50000000E-02
	-1.11981000E-01	-6.86688000E-05	 1.50000000E-02
	-1.11984000E-01	 1.46761000E-02	 1.50000000E-02
	-1.11981000E-01	 2.93807000E-02	 1.50000000E-02
	-1.12010000E-01	 4.40322000E-02	 1.50000000E-02
	-1.12061000E-01	 5.87089000E-02	 1.50000000E-02
	-1.11913000E-01	 7.36279000E-02	 1.50000000E-02
	-1.11394000E-01	 8.89844000E-02	 1.50000000E-02
	-1.11944000E-01	 1.04616000E-01	 1.50000000E-02
	-1.00679000E-01	 1.12543000E-01	 1.50000000E-02
	-8.75069000E-02	 1.11847000E-01	 1.50000000E-02
	-7.29850000E-02	 1.12227000E-01	 1.50000000E-02
	-5.83200000E-02	 1.12315000E-01	 1.50000000E-02
	-4.37561000E-02	 1.12181000E-01	 1.50000000E-02
	-2.92029000E-02	 1.12073000E-01	 1.50000000E-02
	-1.45989000E-02	 1.12031000E-01	 1.50000000E-02
	 5.28481000E-05	 1.12019000E-01	 1.50000000E-02
	 1.47228000E-02	 1.12022000E-01	 1.50000000E-02
	 2.93846000E-02	 1.12039000E-01	 1.50000000E-02
	 4.40390000E-02	 1.12026000E-01	 1.50000000E-02
	 5.87398000E-02	 1.11884000E-01	 1.50000000E-02
	 7.36211000E-02	 1.11501000E-01	 1.50000000E-02
	 8.89018000E-02	 1.10951000E-01	 1.50000000E-02
	 1.04525000E-01	 1.11735000E-01	 1.50000000E-02
	 1.13641000E-01	-1.05420000E-01	 1.50000000E-02
	 1.10503000E-01	-7.55273000E-02	 1.50000000E-02
	 1.11373000E-01	-4.47522000E-02	 1.50000000E-02
	 1.12007000E-01	-1.48999000E-02	 1.50000000E-02
	 1.12342000E-01	 1.42322000E-02	 1.50000000E-02
	 1.13012000E-01	 4.31662000E-02	 1.50000000E-02
	 1.12377000E-01	 7.25149000E-02	 1.50000000E-02
	 1.12407000E-01	 1.00420000E-01	 1.50000000E-02
	-1.04689000E-01	-1.11803000E-01	 1.50000000E-02
	-7.39103000E-02	-1.11300000E-01	 1.50000000E-02
	-4.41583000E-02	-1.11761000E-01	 1.50000000E-02
	-1.47069000E-02	-1.11933000E-01	 1.50000000E-02
	 1.47602000E-02	-1.11864000E-01	 1.50000000E-02
	 4.44803000E-02	-1.11043000E-01	 1.50000000E-02
	 7.38990000E-02	-1.11060000E-01	 1.50000000E-02
	 9.96676000E-02	-1.05638000E-01	 1.50000000E-02
	 1.11812000E-01	-2.97300000E-02	 1.50000000E-02
	 1.11143000E-01	-9.11213000E-02	 1.50000000E-02
	 1.10755000E-01	-6.00419000E-02	 1.50000000E-02
	 1.12131000E-01	-2.85896000E-04	 1.50000000E-02
	 1.12742000E-01	 2.86292000E-02	 1.50000000E-02
	 1.12924000E-01	 5.78017000E-02	 1.50000000E-02
	 1.11730000E-01	 8.70821000E-02	 1.50000000E-02
	-8.91706000E-02	-1.10878000E-01	 1.50000000E-02
	-5.89327000E-02	-1.11645000E-01	 1.50000000E-02
	-2.94282000E-02	-1.11855000E-01	 1.50000000E-02
	 1.74572000E-06	-1.11954000E-01	 1.50000000E-02
	 2.95919000E-02	-1.11536000E-01	 1.50000000E-02
	 5.93599000E-02	-1.10665000E-01	 1.50000000E-02
	 8.71431000E-02	-1.12724000E-01	 1.50000000E-02
	-1.01139000E-01	-8.10779000E-02	 1.50000000E-02
	-9.88853000E-02	-6.76141000E-02	 1.50000000E-02
	-9.85641000E-02	-5.26361000E-02	 1.50000000E-02
	-9.87848000E-02	-3.74631000E-02	 1.50000000E-02
	-9.89192000E-02	-2.24371000E-02	 1.50000000E-02
	-9.89578000E-02	-7.56375000E-03	 1.50000000E-02
[...]
POINT_DATA 4812
FIELD U 1
	U 3 4812 double
		 0.00000000E+00	 0.00000000E+00	 0.00000000E+00
		 0.00000000E+00	 0.00000000E+00	 0.00000000E+00
		 0.00000000E+00	 0.00000000E+00	 0.00000000E+00
		 0.00000000E+00	 0.00000000E+00	 0.00000000E+00
		 0.00000000E+00	 0.00000000E+00	 0.00000000E+00
		 0.00000000E+00	 0.00000000E+00	 0.00000000E+00
		 0.00000000E+00	 0.00000000E+00	 0.00000000E+00
		 0.00000000E+00	 0.00000000E+00	 0.00000000E+00
		 0.00000000E+00	 0.00000000E+00	 0.00000000E+00
		 0.00000000E+00	 0.00000000E+00	 0.00000000E+00
		 0.00000000E+00	 0.00000000E+00	 0.00000000E+00
		 0.00000000E+00	 0.00000000E+00	 0.00000000E+00
		 0.00000000E+00	 0.00000000E+00	 0.00000000E+00
		 0.00000000E+00	 0.00000000E+00	 0.00000000E+00
		 0.00000000E+00	 0.00000000E+00	 0.00000000E+00
		 0.00000000E+00	 0.00000000E+00	 0.00000000E+00
		 0.00000000E+00	 0.00000000E+00	 0.00000000E+00
		 0.00000000E+00	 0.00000000E+00	 0.00000000E+00
		 0.00000000E+00	 0.00000000E+00	 0.00000000E+00
		 0.00000000E+00	 0.00000000E+00	 0.00000000E+00
		 0.00000000E+00	 0.00000000E+00	 0.00000000E+00
		 0.00000000E+00	 0.00000000E+00	 0.00000000E+00
		 0.00000000E+00	 0.00000000E+00	 0.00000000E+00
		 0.00000000E+00	 0.00000000E+00	 0.00000000E+00
		 0.00000000E+00	 0.00000000E+00	 0.00000000E+00
		 0.00000000E+00	 0.00000000E+00	 0.00000000E+00
		 0.00000000E+00	 0.00000000E+00	 0.00000000E+00
		 0.00000000E+00	 0.00000000E+00	 0.00000000E+00
		 0.00000000E+00	 0.00000000E+00	 0.00000000E+00
		 0.00000000E+00	 0.00000000E+00	 0.00000000E+00
		 0.00000000E+00	 0.00000000E+00	 0.00000000E+00
		 0.00000000E+00	 0.00000000E+00	 0.00000000E+00
		 0.00000000E+00	 0.00000000E+00	 0.00000000E+00
		 0.00000000E+00	 0.00000000E+00	 0.00000000E+00
		 0.00000000E+00	 0.00000000E+00	 0.00000000E+00
		 0.00000000E+00	 0.00000000E+00	 0.00000000E+00
		 0.00000000E+00	 0.00000000E+00	 0.00000000E+00
		 0.00000000E+00	 0.00000000E+00	 0.00000000E+00
		 0.00000000E+00	 0.00000000E+00	 0.00000000E+00
		 0.00000000E+00	 0.00000000E+00	 0.00000000E+00
		 0.00000000E+00	 0.00000000E+00	 0.00000000E+00
		 0.00000000E+00	 0.00000000E+00	 0.00000000E+00
		 0.00000000E+00	 0.00000000E+00	 0.00000000E+00
		 0.00000000E+00	 0.00000000E+00	 0.00000000E+00
		 0.00000000E+00	 0.00000000E+00	 0.00000000E+00
		 0.00000000E+00	 0.00000000E+00	 0.00000000E+00
		 0.00000000E+00	 0.00000000E+00	 0.00000000E+00
		 0.00000000E+00	 0.00000000E+00	 0.00000000E+00
		 0.00000000E+00	 0.00000000E+00	 0.00000000E+00
		 0.00000000E+00	 0.00000000E+00	 0.00000000E+00
		 0.00000000E+00	 0.00000000E+00	 0.00000000E+00
		 0.00000000E+00	 0.00000000E+00	 0.00000000E+00
		 0.00000000E+00	 0.00000000E+00	 0.00000000E+00
		 0.00000000E+00	 0.00000000E+00	 0.00000000E+00
		 0.00000000E+00	 0.00000000E+00	 0.00000000E+00
		 0.00000000E+00	 0.00000000E+00	 0.00000000E+00
		 0.00000000E+00	 0.00000000E+00	 0.00000000E+00
		 0.00000000E+00	 0.00000000E+00	 0.00000000E+00
		 0.00000000E+00	 0.00000000E+00	 0.00000000E+00
		 0.00000000E+00	 0.00000000E+00	 0.00000000E+00
		 0.00000000E+00	 0.00000000E+00	 0.00000000E+00
		 0.00000000E+00	 0.00000000E+00	 0.00000000E+00
		 0.00000000E+00	 0.00000000E+00	 0.00000000E+00
		 0.00000000E+00	 0.00000000E+00	 0.00000000E+00
		 0.00000000E+00	 0.00000000E+00	 0.00000000E+00
		 0.00000000E+00	 0.00000000E+00	 0.00000000E+00
		 0.00000000E+00	 0.00000000E+00	 0.00000000E+00
		 0.00000000E+00	 0.00000000E+00	 0.00000000E+00
		 0.00000000E+00	 0.00000000E+00	 0.00000000E+00
		 0.00000000E+00	 0.00000000E+00	 0.00000000E+00
		 0.00000000E+00	 0.00000000E+00	 0.00000000E+00
		 0.00000000E+00	 0.00000000E+00	 0.00000000E+00
		 0.00000000E+00	 0.00000000E+00	 0.00000000E+00
		 0.00000000E+00	 0.00000000E+00	 0.00000000E+00
		 0.00000000E+00	 0.00000000E+00	 0.00000000E+00
		 0.00000000E+00	 0.00000000E+00	 0.00000000E+00
		 0.00000000E+00	 0.00000000E+00	 0.00000000E+00
		 0.00000000E+00	 0.00000000E+00	 0.00000000E+00
		 0.00000000E+00	 0.00000000E+00	 0.00000000E+00
		 0.00000000E+00	 0.00000000E+00	 0.00000000E+00
		 0.00000000E+00	 0.00000000E+00	 0.00000000E+00
		 0.00000000E+00	 0.00000000E+00	 0.00000000E+00
		 0.00000000E+00	 0.00000000E+00	 0.00000000E+00
		 0.00000000E+00	 0.00000000E+00	 0.00000000E+00
		 0.00000000E+00	 0.00000000E+00	 0.00000000E+00
		 0.00000000E+00	 0.00000000E+00	 0.00000000E+00
		 0.00000000E+00	 0.00000000E+00	 0.00000000E+00
		 0.00000000E+00	 0.00000000E+00	 0.00000000E+00
		 0.00000000E+00	 0.00000000E+00	 0.00000000E+00
		 0.00000000E+00	 0.00000000E+00	 0.00000000E+00
		 0.00000000E+00	 0.00000000E+00	 0.00000000E+00
		 0.00000000E+00	 0.00000000E+00	 0.00000000E+00
		 0.00000000E+00	 0.00000000E+00	 0.00000000E+00
		 0.00000000E+00	 0.00000000E+00	 0.00000000E+00
		 0.00000000E+00	 0.00000000E+00	 0.00000000E+00
		 0.00000000E+00	 0.00000000E+00	 0.00000000E+00
		 0.00000000E+00	 0.00000000E+00	 0.00000000E+00
		 0.00000000E+00	 0.00000000E+00	 0.00000000E+00
		 0.00000000E+00	 0.00000000E+00	 0.00000000E+00
		 0.00000000E+00	 0.00000000E+00	 0.00000000E+00
		 0.00000000E+00	 0.00000000E+00	 0.00000000E+00
		 0.00000000E+00	 0.00000000E+00	 0.00000000E+00
		 0.00000000E+00	 0.00000000E+00	 0.00000000E+00
		 0.00000000E+00	 0.00000000E+00	 0.00000000E+00
		 0.00000000E+00	 0.00000000E+00	 0.00000000E+00
		 0.00000000E+00	 0.00000000E+00	 0.00000000E+00
		 0.00000000E+00	 0.00000000E+00	 0.00000000E+00
		 0.00000000E+00	 0.00000000E+00	 0.00000000E+00
		 0.00000000E+00	 0.00000000E+00	 0.00000000E+00
		 0.00000000E+00	 0.00000000E+00	 0.00000000E+00
		 0.00000000E+00	 0.00000000E+00	 0.00000000E+00
		 0.00000000E+00	 0.00000000E+00	 0.00000000E+00
		 0.00000000E+00	 0.00000000E+00	 0.00000000E+00
		 0.00000000E+00	 0.00000000E+00	 0.00000000E+00
		 0.00000000E+00	 0.00000000E+00	 0.00000000E+00
		 0.00000000E+00	 0.00000000E+00	 0.00000000E+00
		 0.00000000E+00	 0.00000000E+00	 0.00000000E+00
		 0.00000000E+00	 0.00000000E+00	 0.00000000E+00
		 0.00000000E+00	 0.00000000E+00	 0.00000000E+00
		 0.00000000E+00	 0.00000000E+00	 0.00000000E+00
		 0.00000000E+00	 0.00000000E+00	 0.00000000E+00
		 0.00000000E+00	 0.00000000E+00	 0.00000000E+00
		 0.00000000E+00	 0.00000000E+00	 0.00000000E+00
		 0.00000000E+00	 0.00000000E+00	 0.00000000E+00
		 0.00000000E+00	 0.00000000E+00	 0.00000000E+00
		 0.00000000E+00	 0.00000000E+00	 0.00000000E+00
		 0.00000000E+00	 0.00000000E+00	 0.00000000E+00
		 0.00000000E+00	 0.00000000E+00	 0.00000000E+00
		 0.00000000E+00	 0.00000000E+00	 0.00000000E+00
		 0.00000000E+00	 0.00000000E+00	 0.00000000E+00
		 0.00000000E+00	 0.00000000E+00	 0.00000000E+00
		 0.00000000E+00	 0.00000000E+00	 0.00000000E+00
		 0.00000000E+00	 0.00000000E+00	 0.00000000E+00
		 0.00000000E+00	 0.00000000E+00	 0.00000000E+00
		 0.00000000E+00	 0.00000000E+00	 0.00000000E+00
		 0.00000000E+00	 0.00000000E+00	 0.00000000E+00
		 0.00000000E+00	 0.00000000E+00	 0.00000000E+00
		 0.00000000E+00	 0.00000000E+00	 0.00000000E+00
		 0.00000000E+00	 0.00000000E+00	 0.00000000E+00
		 0.00000000E+00	 0.00000000E+00	 0.00000000E+00
		 0.00000000E+00	 0.00000000E+00	 0.00000000E+00
		 0.00000000E+00	 0.00000000E+00	 0.00000000E+00
		 0.00000000E+00	 0.00000000E+00	 0.00000000E+00
		 0.00000000E+00	 0.00000000E+00	 0.00000000E+00
		 0.00000000E+00	 0.00000000E+00	 0.00000000E+00
		 0.00000000E+00	 0.00000000E+00	 0.00000000E+00
		 0.00000000E+00	 0.00000000E+00	 0.00000000E+00
		 0.00000000E+00	 0.00000000E+00	 0.00000000E+00
		 0.00000000E+00	 0.00000000E+00	 0.00000000E+00
		 0.00000000E+00	 0.00000000E+00	 0.00000000E+00
		 0.00000000E+00	 0.00000000E+00	 0.00000000E+00
		 0.00000000E+00	 0.00000000E+00	 0.00000000E+00
		 0.00000000E+00	 0.00000000E+00	 0.00000000E+00
		 0.00000000E+00	 0.00000000E+00	 0.00000000E+00
		 0.00000000E+00	 0.00000000E+00	 0.00000000E+00
		 0.00000000E+00	 0.00000000E+00	 0.00000000E+00
		 0.00000000E+00	 0.00000000E+00	 0.00000000E+00
		 0.00000000E+00	 0.00000000E+00	 0.00000000E+00
		 0.00000000E+00	 0.00000000E+00	 0.00000000E+00
		 0.00000000E+00	 0.00000000E+00	 0.00000000E+00
		 0.00000000E+00	 0.00000000E+00	 0.00000000E+00
		 0.00000000E+00	 0.00000000E+00	 0.00000000E+00
		 0.00000000E+00	 0.00000000E+00	 0.00000000E+00
		 0.00000000E+00	 0.00000000E+00	 0.00000000E+00
		 0.00000000E+00	 0.00000000E+00	 0.00000000E+00
		 0.00000000E+00	 0.00000000E+00	 0.00000000E+00
		 0.00000000E+00	 0.00000000E+00	 0.00000000E+00
		 0.00000000E+00	 0.00000000E+00	 0.00000000E+00
		 0.00000000E+00	 0.00000000E+00	 0.00000000E+00
		 0.00000000E+00	 0.00000000E+00	 0.00000000E+00
		 0.00000000E+00	 0.00000000E+00	 0.00000000E+00
		 0.00000000E+00	 0.00000000E+00	 0.00000000E+00
		 0.00000000E+00	 0.00000000E+00	 0.00000000E+00
		 0.00000000E+00	 0.00000000E+00	 0.00000000E+00
		 0.00000000E+00	 0.00000000E+00	 0.00000000E+00
		 0.00000000E+00	 0.00000000E+00	 0.00000000E+00
		 0.00000000E+00	 0.00000000E+00	 0.00000000E+00
		 0.00000000E+00	 0.00000000E+00	 0.00000000E+00
		 0.00000000E+00	 0.00000000E+00	 0.00000000E+00
		 0.00000000E+00	 0.00000000E+00	 0.00000000E+00
		 0.00000000E+00	 0.00000000E+00	 0.00000000E+00
		 0.00000000E+00	 0.00000000E+00	 0.00000000E+00
		 0.00000000E+00	 0.00000000E+00	 0.00000000E+00
		 0.00000000E+00	 0.00000000E+00	 0.00000000E+00
		 0.00000000E+00	 0.00000000E+00	 0.00000000E+00
		 0.00000000E+00	 0.00000000E+00	 0.00000000E+00
		 0.00000000E+00	 0.00000000E+00	 0.00000000E+00
		 0.00000000E+00	 0.00000000E+00	 0.00000000E+00
		 0.00000000E+00	 0.00000000E+00	 0.00000000E+00
		 0.00000000E+00	 0.00000000E+00	 0.00000000E+00
		 0.00000000E+00	 0.00000000E+00	 0.00000000E+00
		 0.00000000E+00	 0.00000000E+00	 0.00000000E+00
		 0.00000000E+00	 0.00000000E+00	 0.00000000E+00
		 0.00000000E+00	 0.00000000E+00	 0.00000000E+00
		 0.00000000E+00	 0.00000000E+00	 0.00000000E+00
		 0.00000000E+00	 0.00000000E+00	 0.00000000E+00
		 0.00000000E+00	 0.00000000E+00	 0.00000000E+00
		 0.00000000E+00	 0.00000000E+00	 0.00000000E+00
		 0.00000000E+00	 0.00000000E+00	 0.00000000E+00
		 0.00000000E+00	 0.00000000E+00	 0.00000000E+00
		 0.00000000E+00	 0.00000000E+00	 0.00000000E+00
		 0.00000000E+00	 0.00000000E+00	 0.00000000E+00
		 0.00000000E+00	 0.00000000E+00	 0.00000000E+00
		 0.00000000E+00	 0.00000000E+00	 0.00000000E+00
		 0.00000000E+00	 0.00000000E+00	 0.00000000E+00
		 0.00000000E+00	 0.00000000E+00	 0.00000000E+00
		 0.00000000E+00	 0.00000000E+00	 0.00000000E+00
		 0.00000000E+00	 0.00000000E+00	 0.00000000E+00
		 0.00000000E+00	 0.00000000E+00	 0.00000000E+00
		 0.00000000E+00	 0.00000000E+00	 0.00000000E+00
		 0.00000000E+00	 0.00000000E+00	 0.00000000E+00
		 0.00000000E+00	 0.00000000E+00	 0.00000000E+00
		 0.00000000E+00	 0.00000000E+00	 0.00000000E+00
		 0.00000000E+00	 0.00000000E+00	 0.00000000E+00
		 0.00000000E+00	 0.00000000E+00	 0.00000000E+00
		 0.00000000E+00	 0.00000000E+00	 0.00000000E+00
		 0.00000000E+00	 0.00000000E+00	 0.00000000E+00
		 0.00000000E+00	 0.00000000E+00	 0.00000000E+00
		 0.00000000E+00	 0.00000000E+00	 0.00000000E+00
		 0.00000000E+00	 0.00000000E+00	 0.00000000E+00
		 0.00000000E+00	 0.00000000E+00	 0.00000000E+00
		 0.00000000E+00	 0.00000000E+00	 0.00000000E+00
		 0.00000000E+00	 0.00000000E+00	 0.00000000E+00
		 0.00000000E+00	 0.00000000E+00	 0.00000000E+00
		 0.00000000E+00	 0.00000000E+00	 0.00000000E+00
		 0.00000000E+00	 0.00000000E+00	 0.00000000E+00
		 0.00000000E+00	 0.00000000E+00	 0.00000000E+00
		 0.00000000E+00	 0.00000000E+00	 0.00000000E+00
		 0.00000000E+00	 0.00000000E+00	 0.00000000E+00
		 0.00000000E+00	 0.00000000E+00	 0.00000000E+00
		 0.00000000E+00	 0.00000000E+00	 0.00000000E+00
		 0.00000000E+00	 0.00000000E+00	 0.00000000E+00
		 0.00000000E+00	 0.00000000E+00	 0.00000000E+00
		 0.00000000E+00	 0.00000000E+00	 0.00000000E+00
		 0.00000000E+00	 0.00000000E+00	 0.00000000E+00
		 0.00000000E+00	 0.00000000E+00	 0.00000000E+00
		 0.00000000E+00	 0.00000000E+00	 0.00000000E+00
		 0.00000000E+00	 0.00000000E+00	 0.00000000E+00
		 0.00000000E+00	 0.00000000E+00	 0.00000000E+00
		 0.00000000E+00	 0.00000000E+00	 0.00000000E+00
		 0.00000000E+00	 0.00000000E+00	 0.00000000E+00
		 0.00000000E+00	 0.00000000E+00	 0.00000000E+00
		 0.00000000E+00	 0.00000000E+00	 0.00000000E+00
		 0.00000000E+00	 0.00000000E+00	 0.00000000E+00
		 0.00000000E+00	 0.00000000E+00	 0.00000000E+00
		 0.00000000E+00	 0.00000000E+00	 0.00000000E+00
		 0.00000000E+00	 0.00000000E+00	 0.00000000E+00
		 0.00000000E+00	 0.00000000E+00	 0.00000000E+00
		 0.00000000E+00	 0.00000000E+00	 0.00000000E+00
		 0.00000000E+00	 0.00000000E+00	 0.00000000E+00
		 0.00000000E+00	 0.00000000E+00	 0.00000000E+00
		 0.00000000E+00	 0.00000000E+00	 0.00000000E+00
		 0.00000000E+00	 0.00000000E+00	 0.00000000E+00
		 0.00000000E+00	 0.00000000E+00	 0.00000000E+00
		 0.00000000E+00	 0.00000000E+00	 0.00000000E+00
		 0.00000000E+00	 0.00000000E+00	 0.00000000E+00
		 0.00000000E+00	 0.00000000E+00	 0.00000000E+00
		 0.00000000E+00	 0.00000000E+00	 0.00000000E+00
		 0.00000000E+00	 0.00000000E+00	 0.00000000E+00
		 0.00000000E+00	 0.00000000E+00	 0.00000000E+00
		 0.00000000E+00	 0.00000000E+00	 0.00000000E+00
		 0.00000000E+00	 0.00000000E+00	 0.00000000E+00
		 0.00000000E+00	 0.00000000E+00	 0.00000000E+00
		 0.00000000E+00	 0.00000000E+00	 0.00000000E+00
		 0.00000000E+00	 0.00000000E+00	 0.00000000E+00
		 0.00000000E+00	 0.00000000E+00	 0.00000000E+00
		 0.00000000E+00	 0.00000000E+00	 0.00000000E+00
		 0.00000000E+00	 0.00000000E+00	 0.00000000E+00
		 0.00000000E+00	 0.00000000E+00	 0.00000000E+00
		 0.00000000E+00	 0.00000000E+00	 0.00000000E+00
		 0.00000000E+00	 0.00000000E+00	 0.00000000E+00
		 0.00000000E+00	 0.00000000E+00	 0.00000000E+00
		 0.00000000E+00	 0.00000000E+00	 0.00000000E+00
		 0.00000000E+00	 0.00000000E+00	 0.00000000E+00
		 0.00000000E+00	 0.00000000E+00	 0.00000000E+00
		 0.00000000E+00	 0.00000000E+00	 0.00000000E+00
		 0.00000000E+00	 0.00000000E+00	 0.00000000E+00
		 0.00000000E+00	 0.00000000E+00	 0.00000000E+00
		 0.00000000E+00	 0.00000000E+00	 0.00000000E+00
		 0.00000000E+00	 0.00000000E+00	 0.00000000E+00
		 0.00000000E+00	 0.00000000E+00	 0.00000000E+00
		 0.00000000E+00	 0.00000000E+00	 0.00000000E+00
		 0.00000000E+00	 0.00000000E+00	 0.00000000E+00
		 0.00000000E+00	 0.00000000E+00	 0.00000000E+00
		 0.00000000E+00	 0.00000000E+00	 0.00000000E+00
		 0.00000000E+00	 0.00000000E+00	 0.00000000E+00
		 0.00000000E+00	 0.00000000E+00	 0.00000000E+00
		 0.00000000E+00	 0.00000000E+00	 0.00000000E+00
		 0.00000000E+00	 0.00000000E+00	 0.00000000E+00
		 0.00000000E+00	 0.00000000E+00	 0.00000000E+00
		 0.00000000E+00	 0.00000000E+00	 0.00000000E+00
		 0.00000000E+00	 0.00000000E+00	 0.00000000E+00
		 0.00000000E+00	 0.00000000E+00	 0.00000000E+00
		 0.00000000E+00	 0.00000000E+00	 0.00000000E+00
		 0.00000000E+00	 0.00000000E+00	 0.00000000E+00
		 0.00000000E+00	 0.00000000E+00	 0.00000000E+00
		 0.00000000E+00	 0.00000000E+00	 0.00000000E+00
		 0.00000000E+00	 0.00000000E+00	 0.00000000E+00
		 0.00000000E+00	 0.00000000E+00	 0.00000000E+00
		 0.00000000E+00	 0.00000000E+00	 0.00000000E+00
		 0.00000000E+00	 0.00000000E+00	 0.00000000E+00
		 0.00000000E+00	 0.00000000E+00	 0.00000000E+00
		 0.00000000E+00	 0.00000000E+00	 0.00000000E+00
		 0.00000000E+00	 0.00000000E+00	 0.00000000E+00
		 0.00000000E+00	 0.00000000E+00	 0.00000000E+00
		 0.00000000E+00	 0.00000000E+00	 0.00000000E+00
		 0.00000000E+00	 0.00000000E+00	 0.00000000E+00
		 0.00000000E+00	 0.00000000E+00	 0.00000000E+00
		 0.00000000E+00	 0.00000000E+00	 0.00000000E+00
		 0.00000000E+00	 0.00000000E+00	 0.00000000E+00
		 0.00000000E+00	 0.00000000E+00	 0.00000000E+00
		 0.00000000E+00	 0.00000000E+00	 0.00000000E+00
		 0.00000000E+00	 0.00000000E+00	 0.00000000E+00
		 0.00000000E+00	 0.00000000E+00	 0.00000000E+00
		 0.00000000E+00	 0.00000000E+00	 0.00000000E+00
		 0.00000000E+00	 0.00000000E+00	 0.00000000E+00
		 0.00000000E+00	 0.00000000E+00	 0.00000000E+00
		 0.00000000E+00	 0.00000000E+00	 0.00000000E+00
		 0.00000000E+00	 0.00000000E+00	 0.00000000E+00
		 0.00000000E+00	 0.00000000E+00	 0.00000000E+00
		 0.00000000E+00	 0.00000000E+00	 0.00000000E+00
		 0.00000000E+00	 0.00000000E+00	 0.00000000E+00
		 0.00000000E+00	 0.00000000E+00	 0.00000000E+00
		 0.00000000E+00	 0.00000000E+00	 0.00000000E+00
		 0.00000000E+00	 0.00000000E+00	 0.00000000E+00
		 0.00000000E+00	 0.00000000E+00	 0.00000000E+00
		 0.00000000E+00	 0.00000000E+00	 0.00000000E+00
		 0.00000000E+00	 0.00000000E+00	 0.00000000E+00
		 0.00000000E+00	 0.00000000E+00	 0.00000000E+00
		 0.00000000E+00	 0.00000000E+00	 0.00000000E+00
		 0.00000000E+00	 0.00000000E+00	 0.00000000E+00
		 0.00000000E+00	 0.00000000E+00	 0.00000000E+00
		 0.00000000E+00	 0.00000000E+00	 0.00000000E+00
		 0.00000000E+00	 0.00000000E+00	 0.00000000E+00
		 0.00000000E+00	 0.00000000E+00	 0.00000000E+00
		 0.00000000E+00	 0.00000000E+00	 0.00000000E+00
		 0.00000000E+00	 0.00000000E+00	 0.00000000E+00
		 0.00000000E+00	 0.00000000E+00	 0.00000000E+00
		 0.00000000E+00	 0.00000000E+00	 0.00000000E+00
		 0.00000000E+00	 0.00000000E+00	 0.00000000E+00
		 0.00000000E+00	 0.00000000E+00	 0.00000000E+00
		 0.00000000E+00	 0.00000000E+00	 0.00000000E+00
		 0.00000000E+00	 0.00000000E+00	 0.00000000E+00
		 0.00000000E+00	 0.00000000E+00	 0.00000000E+00
		 0.00000000E+00	 0.00000000E+00	 0.00000000E+00
		 0.00000000E+00	 0.00000000E+00	 0.00000000E+00
		 0.00000000E+00	 0.00000000E+00	 0.00000000E+00
		 0.00000000E+00	 0.00000000E+00	 0.00000000E+00
		 0.00000000E+00	 0.00000000E+00	 0.00000000E+00
		 0.00000000E+00	 0.00000000E+00	 0.00000000E+00
		 0.00000000E+00	 0.00000000E+00	 0.00000000E+00
		 0.00000000E+00	 0.00000000E+00	 0.00000000E+00
		 0.00000000E+00	 0.00000000E+00	 0.00000000E+00
		 0.00000000E+00	 0.00000000E+00	 0.00000000E+00
		 0.00000000E+00	 0.00000000E+00	 0.00000000E+00
		 0.00000000E+00	 0.00000000E+00	 0.00000000E+00
		 0.00000000E+00	 0.00000000E+00	 0.00000000E+00
		 0.00000000E+00	 0.00000000E+00	 0.00000000E+00
		 0.00000000E+00	 0.00000000E+00	 0.00000000E+00
		 0.00000000E+00	 0.00000000E+00	 0.00000000E+00
		 0.00000000E+00	 0.00000000E+00	 0.00000000E+00
		 0.00000000E+00	 0.00000000E+00	 0.00000000E+00
		 0.00000000E+00	 0.00000000E+00	 0.00000000E+00
		 0.00000000E+00	 0.00000000E+00	 0.00000000E+00
		 0.00000000E+00	 0.00000000E+00	 0.00000000E+00
		 0.00000000E+00	 0.00000000E+00	 0.00000000E+00
		 0.00000000E+00	 0.00000000E+00	 0.00000000E+00
		 0.00000000E+00	 0.00000000E+00	 0.00000000E+00
		 0.00000000E+00	 0.00000000E+00	 0.00000000E+00
		 0.00000000E+00	 0.00000000E+00	 0.00000000E+00
		 0.00000000E+00	 0.00000000E+00	 0.00000000E+00
		 0.00000000E+00	 0.00000000E+00	 0.00000000E+00
		 0.00000000E+00	 0.00000000E+00	 0.00000000E+00
		 0.00000000E+00	 0.00000000E+00	 0.00000000E+00
		 0.00000000E+00	 0.00000000E+00	 0.00000000E+00
		 0.00000000E+00	 0.00000000E+00	 0.00000000E+00
		 0.00000000E+00	 0.00000000E+00	 0.00000000E+00
		 0.00000000E+00	 0.00000000E+00	 0.00000000E+00
		 0.00000000E+00	 0.00000000E+00	 0.00000000E+00
		 0.00000000E+00	 0.00000000E+00	 0.00000000E+00
		 0.00000000E+00	 0.00000000E+00	 0.00000000E+00
		 0.00000000E+00	 0.00000000E+00	 0.00000000E+00
		 0.00000000E+00	 0.00000000E+00	 0.00000000E+00
		 0.00000000E+00	 0.00000000E+00	 0.00000000E+00
		 0.00000000E+00	 0.00000000E+00	 0.00000000E+00
		 0.00000000E+00	 0.00000000E+00	 0.00000000E+00
		 0.00000000E+00	 0.00000000E+00	 0.00000000E+00
		 0.00000000E+00	 0.00000000E+00	 0.00000000E+00
		 0.00000000E+00	 0.00000000E+00	 0.00000000E+00
		 0.00000000E+00	 0.00000000E+00	 0.00000000E+00
		 0.00000000E+00	 0.00000000E+00	 0.00000000E+00
		 0.00000000E+00	 0.00000000E+00	 0.00000000E+00
		 0.00000000E+00	 0.00000000E+00	 0.00000000E+00
		 0.00000000E+00	 0.00000000E+00	 0.00000000E+00
		 0.00000000E+00	 0.00000000E+00	 0.00000000E+00
		 0.00000000E+00	 0.00000000E+00	 0.00000000E+00
		 0.00000000E+00	 0.00000000E+00	 0.00000000E+00
		 0.00000000E+00	 0.00000000E+00	 0.00000000E+00
		 0.00000000E+00	 0.00000000E+00	 0.00000000E+00