<?xml version="1.0"?>
<VTKFile type="UnstructuredGrid" version="0.1" byte_order="LittleEndian">
	<UnstructuredGrid>
		<Piece NumberOfPoints="522" NumberOfCells="64">
			<Points>
				<DataArray type="Float64" NumberOfComponents="3" format="ascii">
					 1.00000000E+00	 1.00000000E+00	-5.96046000E-08
					 1.00000000E+00	 5.00000000E-01	-5.96046000E-08
					 1.00000000E+00	 5.00000000E-01	 1.00000000E+00
					 1.00000000E+00	 1.00000000E+00	 1.00000000E+00
					 5.00000000E-01	 1.00000000E+00	-5.96046000E-08
					 5.00000000E-01	 5.00000000E-01	-5.96046000E-08
					 5.00000000E-01	 5.00000000E-01	 1.00000000E+00
					 5.00000000E-01	 1.00000000E+00	 1.00000000E+00
					 1.00000000E+00	 7.50000000E-01	-5.96046000E-08
					 1.00000000E+00	 5.00000000E-01	 5.00000000E-01
					 1.00000000E+00	 7.50000000E-01	 1.00000000E+00
					 1.00000000E+00	 1.00000000E+00	 5.00000000E-01
					 7.50000000E-01	 1.00000000E+00	-5.96046000E-08
					 7.50000000E-01	 5.00000000E-01	-5.96046000E-08
					 7.50000000E-01	 5.00000000E-01	 1.00000000E+00
					 7.50000000E-01	 1.00000000E+00	 1.00000000E+00
					 5.00000000E-01	 7.50000000E-01	-5.96046000E-08
					 5.00000000E-01	 5.00000000E-01	 5.00000000E-01
					 5.00000000E-01	 7.50000000E-01	 1.00000000E+00
					 5.00000000E-01	 1.00000000E+00	 5.00000000E-01
					 1.00000000E+00	-1.49012000E-08	-5.96046000E-08
					 1.00000000E+00	-1.49012000E-08	 1.00000000E+00
					 5.00000000E-01	-1.49012000E-08	-5.96046000E-08
					 5.00000000E-01	-1.49012000E-08	 1.00000000E+00
					 1.00000000E+00	 2.50000000E-01	-5.96046000E-08
					 1.00000000E+00	-1.49012000E-08	 5.00000000E-01
					 1.00000000E+00	 2.50000000E-01	 1.00000000E+00
					 7.50000000E-01	-1.49012000E-08	-5.96046000E-08
					 7.50000000E-01	-1.49012000E-08	 1.00000000E+00
					 5.00000000E-01	 2.50000000E-01	-5.96046000E-08
					 5.00000000E-01	-1.49012000E-08	 5.00000000E-01
					 5.00000000E-01	 2.50000000E-01	 1.00000000E+00
					-7.45058000E-09	 1.00000000E+00	-5.96046000E-08
					-7.45058000E-09	 5.00000000E-01	-5.96046000E-08
					-7.45058000E-09	 5.00000000E-01	 1.00000000E+00
					-7.45058000E-09	 1.00000000E+00	 1.00000000E+00
					 2.50000000E-01	 1.00000000E+00	-5.96046000E-08
					 2.50000000E-01	 5.00000000E-01	-5.96046000E-08
					 2.50000000E-01	 5.00000000E-01	 1.00000000E+00
					 2.50000000E-01	 1.00000000E+00	 1.00000000E+00
					-7.45058000E-09	 7.50000000E-01	-5.96046000E-08
					-7.45058000E-09	 5.00000000E-01	 5.00000000E-01
					-7.45058000E-09	 7.50000000E-01	 1.00000000E+00
					-7.45058000E-09	 1.00000000E+00	 5.00000000E-01
					-7.45058000E-09	-1.49012000E-08	-5.96046000E-08
					-7.45058000E-09	-1.49012000E-08	 1.00000000E+00
					 2.50000000E-01	-1.49012000E-08	-5.96046000E-08
					 2.50000000E-01	-1.49012000E-08	 1.00000000E+00
					-7.45058000E-09	 2.50000000E-01	-5.96046000E-08
					-7.45058000E-09	-1.49012000E-08	 5.00000000E-01
					-7.45058000E-09	 2.50000000E-01	 1.00000000E+00
					 1.00000000E+00	 5.00000000E-01	 2.00000000E+00
					 1.00000000E+00	 1.00000000E+00	 2.00000000E+00
					 5.00000000E-01	 5.00000000E-01	 2.00000000E+00
					 5.00000000E-01	 1.00000000E+00	 2.00000000E+00
					 1.00000000E+00	 5.00000000E-01	 1.50000000E+00
					 1.00000000E+00	 7.50000000E-01	 2.00000000E+00
					 1.00000000E+00	 1.00000000E+00	 1.50000000E+00
					 7.50000000E-01	 5.00000000E-01	 2.00000000E+00
					 7.50000000E-01	 1.00000000E+00	 2.00000000E+00
					 5.00000000E-01	 5.00000000E-01	 1.50000000E+00
					 5.00000000E-01	 7.50000000E-01	 2.00000000E+00
					 5.00000000E-01	 1.00000000E+00	 1.50000000E+00
					 1.00000000E+00	-1.49012000E-08	 2.00000000E+00
					 5.00000000E-01	-1.49012000E-08	 2.00000000E+00
					 1.00000000E+00	-1.49012000E-08	 1.50000000E+00
					 1.00000000E+00	 2.50000000E-01	 2.00000000E+00
					 7.50000000E-01	-1.49012000E-08	 2.00000000E+00
					 5.00000000E-01	-1.49012000E-08	 1.50000000E+00
					 5.00000000E-01	 2.50000000E-01	 2.00000000E+00
					-7.45058000E-09	 5.00000000E-01	 2.00000000E+00
					-7.45058000E-09	 1.00000000E+00	 2.00000000E+00
					 2.50000000E-01	 5.00000000E-01	 2.00000000E+00
					 2.50000000E-01	 1.00000000E+00	 2.00000000E+00
					-7.45058000E-09	 5.00000000E-01	 1.50000000E+00
					-7.45058000E-09	 7.50000000E-01	 2.00000000E+00
					-7.45058000E-09	 1.00000000E+00	 1.50000000E+00
					-7.45058000E-09	-1.49012000E-08	 2.00000000E+00
					 2.50000000E-01	-1.49012000E-08	 2.00000000E+00
					-7.45058000E-09	-1.49012000E-08	 1.50000000E+00
					-7.45058000E-09	 2.50000000E-01	 2.00000000E+00
					 1.00000000E+00	 5.00000000E-01	 3.00000000E+00
					 1.00000000E+00	 1.00000000E+00	 3.00000000E+00
					 5.00000000E-01	 5.00000000E-01	 3.00000000E+00
					 5.00000000E-01	 1.00000000E+00	 3.00000000E+00
					 1.00000000E+00	 5.00000000E-01	 2.50000000E+00
					 1.00000000E+00	 7.50000000E-01	 3.00000000E+00
					 1.00000000E+00	 1.00000000E+00	 2.50000000E+00
					 7.50000000E-01	 5.00000000E-01	 3.00000000E+00
					 7.50000000E-01	 1.00000000E+00	 3.00000000E+00
					 5.00000000E-01	 5.00000000E-01	 2.50000000E+00
					 5.00000000E-01	 7.50000000E-01	 3.00000000E+00
					 5.00000000E-01	 1.00000000E+00	 2.50000000E+00
					 1.00000000E+00	-1.49012000E-08	 3.00000000E+00
					 5.00000000E-01	-1.49012000E-08	 3.00000000E+00
					 1.00000000E+00	-1.49012000E-08	 2.50000000E+00
					 1.00000000E+00	 2.50000000E-01	 3.00000000E+00
					 7.50000000E-01	-1.49012000E-08	 3.00000000E+00
					 5.00000000E-01	-1.49012000E-08	 2.50000000E+00
					 5.00000000E-01	 2.50000000E-01	 3.00000000E+00
					-7.45058000E-09	 5.00000000E-01	 3.00000000E+00
					-7.45058000E-09	 1.00000000E+00	 3.00000000E+00
					 2.50000000E-01	 5.00000000E-01	 3.00000000E+00
					 2.50000000E-01	 1.00000000E+00	 3.00000000E+00
					-7.45058000E-09	 5.00000000E-01	 2.50000000E+00
					-7.45058000E-09	 7.50000000E-01	 3.00000000E+00
					-7.45058000E-09	 1.00000000E+00	 2.50000000E+00
					-7.45058000E-09	-1.49012000E-08	 3.00000000E+00
					 2.50000000E-01	-1.49012000E-08	 3.00000000E+00
					-7.45058000E-09	-1.49012000E-08	 2.50000000E+00
					-7.45058000E-09	 2.50000000E-01	 3.00000000E+00
					 1.00000000E+00	 5.00000000E-01	 4.00000000E+00
					 1.00000000E+00	 1.00000000E+00	 4.00000000E+00
					 5.00000000E-01	 5.00000000E-01	 4.00000000E+00
					 5.00000000E-01	 1.00000000E+00	 4.00000000E+00
					 1.00000000E+00	 5.00000000E-01	 3.50000000E+00
					 1.00000000E+00	 7.50000000E-01	 4.00000000E+00
					 1.00000000E+00	 1.00000000E+00	 3.50000000E+00
					 7.50000000E-01	 5.00000000E-01	 4.00000000E+00
					 7.50000000E-01	 1.00000000E+00	 4.00000000E+00
					 5.00000000E-01	 5.00000000E-01	 3.50000000E+00
					 5.00000000E-01	 7.50000000E-01	 4.00000000E+00
					 5.00000000E-01	 1.00000000E+00	 3.50000000E+00
					 1.00000000E+00	-1.49012000E-08	 4.00000000E+00
					 5.00000000E-01	-1.49012000E-08	 4.00000000E+00
					 1.00000000E+00	-1.49012000E-08	 3.50000000E+00
					 1.00000000E+00	 2.50000000E-01	 4.00000000E+00
					 7.50000000E-01	-1.49012000E-08	 4.00000000E+00
					 5.00000000E-01	-1.49012000E-08	 3.50000000E+00
					 5.00000000E-01	 2.50000000E-01	 4.00000000E+00
					-7.45058000E-09	 5.00000000E-01	 4.00000000E+00
					-7.45058000E-09	 1.00000000E+00	 4.00000000E+00
					 2.50000000E-01	 5.00000000E-01	 4.00000000E+00
					 2.50000000E-01	 1.00000000E+00	 4.00000000E+00
					-7.45058000E-09	 5.00000000E-01	 3.50000000E+00
					-7.45058000E-09	 7.50000000E-01	 4.00000000E+00
					-7.45058000E-09	 1.00000000E+00	 3.50000000E+00
					-7.45058000E-09	-1.49012000E-08	 4.00000000E+00
					 2.50000000E-01	-1.49012000E-08	 4.00000000E+00
					-7.45058000E-09	-1.49012000E-08	 3.50000000E+00
					-7.45058000E-09	 2.50000000E-01	 4.00000000E+00
					 1.00000000E+00	 5.00000000E-01	 5.00000000E+00
					 1.00000000E+00	 1.00000000E+00	 5.00000000E+00
					 5.00000000E-01	 5.00000000E-01	 5.00000000E+00
					 5.00000000E-01	 1.00000000E+00	 5.00000000E+00
					 1.00000000E+00	 5.00000000E-01	 4.50000000E+00
					 1.00000000E+00	 7.50000000E-01	 5.00000000E+00
					 1.00000000E+00	 1.00000000E+00	 4.50000000E+00
					 7.50000000E-01	 5.00000000E-01	 5.00000000E+00
					 7.50000000E-01	 1.00000000E+00	 5.00000000E+00
					 5.00000000E-01	 5.00000000E-01	 4.50000000E+00
					 5.00000000E-01	 7.50000000E-01	 5.00000000E+00
					 5.00000000E-01	 1.00000000E+00	 4.50000000E+00
					 1.00000000E+00	-1.49012000E-08	 5.00000000E+00
					 5.00000000E-01	-1.49012000E-08	 5.00000000E+00
					 1.00000000E+00	-1.49012000E-08	 4.50000000E+00
					 1.00000000E+00	 2.50000000E-01	 5.00000000E+00
					 7.50000000E-01	-1.49012000E-08	 5.00000000E+00
					 5.00000000E-01	-1.49012000E-08	 4.50000000E+00
					 5.00000000E-01	 2.50000000E-01	 5.00000000E+00
					-7.45058000E-09	 5.00000000E-01	 5.00000000E+00
					-7.45058000E-09	 1.00000000E+00	 5.00000000E+00
					 2.50000000E-01	 5.00000000E-01	 5.00000000E+00
					 2.50000000E-01	 1.00000000E+00	 5.00000000E+00
					-7.45058000E-09	 5.00000000E-01	 4.50000000E+00
					-7.45058000E-09	 7.50000000E-01	 5.00000000E+00
					-7.45058000E-09	 1.00000000E+00	 4.50000000E+00
					-7.45058000E-09	-1.49012000E-08	 5.00000000E+00
					 2.50000000E-01	-1.49012000E-08	 5.00000000E+00
					-7.45058000E-09	-1.49012000E-08	 4.50000000E+00
					-7.45058000E-09	 2.50000000E-01	 5.00000000E+00
					 1.00000000E+00	 5.00000000E-01	 6.00000000E+00
					 1.00000000E+00	 1.00000000E+00	 6.00000000E+00
					 5.00000000E-01	 5.00000000E-01	 6.00000000E+00
					 5.00000000E-01	 1.00000000E+00	 6.00000000E+00
					 1.00000000E+00	 5.00000000E-01	 5.50000000E+00
					 1.00000000E+00	 7.50000000E-01	 6.00000000E+00
					 1.00000000E+00	 1.00000000E+00	 5.50000000E+00
					 7.50000000E-01	 5.00000000E-01	 6.00000000E+00
					 7.50000000E-01	 1.00000000E+00	 6.00000000E+00
					 5.00000000E-01	 5.00000000E-01	 5.50000000E+00
					 5.00000000E-01	 7.50000000E-01	 6.00000000E+00
					 5.00000000E-01	 1.00000000E+00	 5.50000000E+00
					 1.00000000E+00	-1.49012000E-08	 6.00000000E+00
[...]
			<PointData>
				<DataArray type="Float32" Name="U" NumberOfComponents="3" ComponentName0="D1" ComponentName1="D2" ComponentName2="D3" format="ascii">
					 0.00000000E+00	 0.00000000E+00	 0.00000000E+00
					 0.00000000E+00	 0.00000000E+00	 0.00000000E+00
					-5.80810000E-06	 3.30837000E-03	 1.66120000E-05
					 9.63543000E-04	 3.50041000E-03	-3.65158000E-03
					 0.00000000E+00	 0.00000000E+00	 0.00000000E+00
					 0.00000000E+00	 0.00000000E+00	 0.00000000E+00
					-2.54367000E-06	 4.02714000E-03	 1.03296000E-05
					 4.81388000E-04	 4.23856000E-03	-3.70135000E-03
					 0.00000000E+00	 0.00000000E+00	 0.00000000E+00
					-3.40808000E-06	 5.26770000E-04	 1.08208000E-05
					 4.79442000E-04	 3.31848000E-03	-1.81265000E-03
					 7.98065000E-04	 8.32096000E-04	-1.83148000E-03
					 0.00000000E+00	 0.00000000E+00	 0.00000000E+00
					 0.00000000E+00	 0.00000000E+00	 0.00000000E+00
					-4.02974000E-06	 3.74929000E-03	 1.27905000E-05
					 7.19569000E-04	 3.95078000E-03	-3.63862000E-03
					 0.00000000E+00	 0.00000000E+00	 0.00000000E+00
					-8.16234000E-07	 1.02890000E-03	 6.92631000E-06
					 2.39127000E-04	 4.04348000E-03	-1.79972000E-03
					 2.55274000E-04	 1.33139000E-03	-1.78232000E-03
					 0.00000000E+00	 0.00000000E+00	 0.00000000E+00
					-9.76759000E-04	 3.53950000E-03	 3.67921000E-03
					 0.00000000E+00	 0.00000000E+00	 0.00000000E+00
					-4.85837000E-04	 4.27793000E-03	 3.71614000E-03
					 0.00000000E+00	 0.00000000E+00	 0.00000000E+00
					-8.05658000E-04	 8.51785000E-04	 1.85275000E-03
					-4.91603000E-04	 3.33859000E-03	 1.84389000E-03
					 0.00000000E+00	 0.00000000E+00	 0.00000000E+00
					-7.27753000E-04	 3.99009000E-03	 3.65867000E-03
					 0.00000000E+00	 0.00000000E+00	 0.00000000E+00
					-2.56096000E-04	 1.34928000E-03	 1.79671000E-03
					-2.44044000E-04	 4.06330000E-03	 1.81834000E-03
					 0.00000000E+00	 0.00000000E+00	 0.00000000E+00
					 0.00000000E+00	 0.00000000E+00	 0.00000000E+00
					 3.25467000E-07	 4.27555000E-03	 7.57336000E-06
					-1.00435000E-06	 4.46883000E-03	-3.66015000E-03
					 0.00000000E+00	 0.00000000E+00	 0.00000000E+00
					 0.00000000E+00	 0.00000000E+00	 0.00000000E+00
					-1.10464000E-06	 4.23243000E-03	 8.39858000E-06
					 2.43003000E-04	 4.43528000E-03	-3.72269000E-03
					 0.00000000E+00	 0.00000000E+00	 0.00000000E+00
					 1.06938000E-06	 1.03812000E-03	 6.44236000E-06
					-2.42317000E-07	 4.28660000E-03	-1.74171000E-03
					-3.04979000E-04	 1.32828000E-03	-1.83555000E-03
					 0.00000000E+00	 0.00000000E+00	 0.00000000E+00
					 4.23079000E-06	 4.50603000E-03	 3.67059000E-03
					 0.00000000E+00	 0.00000000E+00	 0.00000000E+00
					-2.43928000E-04	 4.47454000E-03	 3.73391000E-03
					 0.00000000E+00	 0.00000000E+00	 0.00000000E+00
					 3.09377000E-04	 1.34491000E-03	 1.84867000E-03
					 1.77273000E-06	 4.30463000E-03	 1.75547000E-03
					-2.68235000E-06	 1.41220000E-02	-2.04091000E-05
					 1.00194000E-03	 1.42058000E-02	-6.41407000E-03
					 1.43840000E-06	 1.49705000E-02	-2.89225000E-05
					 7.07965000E-04	 1.50659000E-02	-6.44833000E-03
					-5.32549000E-06	 7.94017000E-03	 6.30276000E-06
					 4.97301000E-04	 1.41331000E-02	-3.14823000E-03
					 1.05254000E-03	 8.10390000E-03	-5.20240000E-03
					-4.42116000E-07	 1.45772000E-02	-2.49411000E-05
					 8.56069000E-04	 1.46699000E-02	-6.44797000E-03
					-2.06671000E-06	 8.78555000E-03	-1.40215000E-06
					 3.55553000E-04	 1.49886000E-02	-3.18403000E-03
					 6.41874000E-04	 8.95932000E-03	-5.23616000E-03
					-1.00680000E-03	 1.42989000E-02	 6.36851000E-03
					-7.04125000E-04	 1.51581000E-02	 6.38516000E-03
					-1.06466000E-03	 8.16891000E-03	 5.20868000E-03
					-5.02581000E-04	 1.41779000E-02	 3.10644000E-03
					-8.56217000E-04	 1.47629000E-02	 6.39306000E-03
					-6.45448000E-04	 9.02457000E-03	 5.22661000E-03
					-3.52430000E-04	 1.50331000E-02	 3.12507000E-03
					 4.72553000E-06	 1.55340000E-02	-3.35376000E-05
					 4.26977000E-04	 1.56334000E-02	-6.42762000E-03
					 3.11128000E-06	 1.52850000E-02	-3.19914000E-05
					 5.67573000E-04	 1.53801000E-02	-6.45369000E-03
					 6.58127000E-07	 9.22741000E-03	-4.83189000E-06
					 2.14497000E-04	 1.55540000E-02	-3.16297000E-03
					 2.47809000E-04	 9.40926000E-03	-5.21370000E-03
					-4.16134000E-04	 1.57228000E-02	 6.35491000E-03
					-5.60173000E-04	 1.54714000E-02	 6.38423000E-03
					-2.44134000E-04	 9.47246000E-03	 5.19728000E-03
					-2.04668000E-04	 1.55967000E-02	 3.09474000E-03
					 3.45177000E-07	 2.92741000E-02	-1.08047000E-04
					 5.78279000E-04	 2.92357000E-02	-7.59290000E-03
					 4.05646000E-06	 2.98295000E-02	-1.17523000E-04
					 5.35777000E-04	 2.97926000E-02	-7.62642000E-03
					 5.47788000E-07	 2.13885000E-02	-5.93640000E-05
					 2.89761000E-04	 2.92502000E-02	-3.76715000E-03
					 8.35687000E-04	 2.14117000E-02	-7.18843000E-03
					 2.32470000E-06	 2.95578000E-02	-1.13148000E-04
					 5.57287000E-04	 2.95194000E-02	-7.64875000E-03
					 4.53178000E-06	 2.21359000E-02	-6.90394000E-05
					 2.70126000E-04	 2.98061000E-02	-3.82489000E-03
					 6.69334000E-04	 2.21638000E-02	-7.22576000E-03
					-5.76968000E-04	 2.93560000E-02	 7.37579000E-03
					-5.27002000E-04	 2.99126000E-02	 7.39054000E-03
					-8.33720000E-04	 2.15231000E-02	 7.06640000E-03
					-2.88942000E-04	 2.93078000E-02	 3.55079000E-03
					-5.51982000E-04	 2.96407000E-02	 7.42143000E-03
					-6.59225000E-04	 2.22740000E-02	 7.08428000E-03
					-2.61854000E-04	 2.98646000E-02	 3.58954000E-03
					 7.18396000E-06	 3.03366000E-02	-1.26206000E-04
					 4.99597000E-04	 3.03064000E-02	-7.61099000E-03
					 5.66756000E-06	 3.00897000E-02	-1.21681000E-04
					 5.17901000E-04	 3.00544000E-02	-7.60517000E-03
					 7.70900000E-06	 2.27169000E-02	-7.62884000E-05
					 2.51632000E-04	 3.03163000E-02	-3.83734000E-03
					 5.14038000E-04	 2.27539000E-02	-7.20551000E-03
					-4.84382000E-04	 3.04241000E-02	 7.35778000E-03
					-5.05804000E-04	 3.01729000E-02	 7.36114000E-03
					-4.97214000E-04	 2.28610000E-02	 7.04936000E-03
					-2.37096000E-04	 3.03742000E-02	 3.58452000E-03
					-4.32792000E-06	 4.50813000E-02	-2.12215000E-04
					-1.19498000E-05	 4.49731000E-02	-7.37846000E-03
					-1.46695000E-06	 4.51374000E-02	-2.13504000E-04
					 1.09800000E-04	 4.50247000E-02	-7.39028000E-03
					-2.14482000E-06	 3.72963000E-02	-1.61191000E-04
					-6.80110000E-06	 4.50443000E-02	-3.73693000E-03
					 2.82679000E-04	 3.72197000E-02	-7.61350000E-03
					-2.91546000E-06	 4.50942000E-02	-2.12862000E-04
					 4.89275000E-05	 4.49819000E-02	-7.42338000E-03
					 1.05534000E-06	 3.76077000E-02	-1.67460000E-04
					 5.41133000E-05	 4.50979000E-02	-3.78183000E-03
					 3.34867000E-04	 3.75289000E-02	-7.63789000E-03
					 2.56683000E-06	 4.50815000E-02	 6.95558000E-03
					-1.13268000E-04	 4.51346000E-02	 6.96529000E-03
					-2.87067000E-04	 3.73372000E-02	 7.29179000E-03
					-2.01199000E-06	 4.50967000E-02	 3.31299000E-03
					-5.54857000E-05	 4.50922000E-02	 6.99929000E-03
					-3.32736000E-04	 3.76473000E-02	 7.30385000E-03
					-5.71941000E-05	 4.51523000E-02	 3.35531000E-03
					 2.01636000E-06	 4.53043000E-02	-2.16365000E-04
					 2.30993000E-04	 4.51937000E-02	-7.38216000E-03
					 2.00436000E-07	 4.52054000E-02	-2.14458000E-04
					 1.70089000E-04	 4.50937000E-02	-7.35690000E-03
					 4.36655000E-06	 3.79638000E-02	-1.74337000E-04
					 1.15804000E-04	 4.52650000E-02	-3.80877000E-03
					 3.90363000E-04	 3.78902000E-02	-7.62652000E-03
					-2.27302000E-04	 4.53043000E-02	 6.95169000E-03
					-1.70148000E-04	 4.52032000E-02	 6.93027000E-03
					-3.81499000E-04	 3.80080000E-02	 7.27876000E-03
					-1.11881000E-04	 4.53205000E-02	 3.37648000E-03
					-2.57114000E-06	 5.90302000E-02	-2.97224000E-04
					-4.28881000E-04	 5.89132000E-02	-6.47999000E-03
					-7.54316000E-07	 5.86933000E-02	-2.84099000E-04
					-2.58550000E-04	 5.85698000E-02	-6.46839000E-03
					-5.13428000E-06	 5.23562000E-02	-2.57192000E-04
					-2.14005000E-04	 5.89937000E-02	-3.36660000E-03
					-2.51463000E-04	 5.22438000E-02	-6.97030000E-03
					-2.08199000E-06	 5.88410000E-02	-2.91021000E-04
					-3.43846000E-04	 5.87191000E-02	-6.49365000E-03
					-2.79104000E-06	 5.21905000E-02	-2.52542000E-04
					-1.29459000E-04	 5.86535000E-02	-3.37315000E-03
					-9.70483000E-05	 5.20705000E-02	-6.97038000E-03
					 4.20606000E-04	 5.89914000E-02	 5.88700000E-03
					 2.54212000E-04	 5.86536000E-02	 5.90211000E-03
					 2.39377000E-04	 5.23379000E-02	 6.45705000E-03
					 2.07813000E-04	 5.90325000E-02	 2.77201000E-03
					 3.37020000E-04	 5.88004000E-02	 5.91366000E-03
					 8.98023000E-05	 5.21678000E-02	 6.46747000E-03
					 1.27281000E-04	 5.86955000E-02	 2.80527000E-03
					 3.49908000E-06	 5.85176000E-02	-2.72834000E-04
					-8.82203000E-05	 5.83927000E-02	-6.45550000E-03
					 1.04861000E-06	 5.85842000E-02	-2.77625000E-04
					-1.73986000E-04	 5.84600000E-02	-6.44407000E-03
					 9.26384000E-07	 5.21692000E-02	-2.49753000E-04
					-4.24552000E-05	 5.84763000E-02	-3.37851000E-03
					 5.18071000E-05	 5.20467000E-02	-6.96185000E-03
					 9.29364000E-05	 5.84819000E-02	 5.91219000E-03
					 1.73488000E-04	 5.85460000E-02	 5.89087000E-03
					-5.12268000E-05	 5.21468000E-02	 6.46539000E-03
					 4.91750000E-05	 5.85218000E-02	 2.83333000E-03
					 3.73077000E-05	 7.04358000E-02	-3.61562000E-04
					-5.99219000E-04	 7.03425000E-02	-5.49483000E-03
					 3.97020000E-05	 6.98659000E-02	-3.25870000E-04
					-4.69506000E-04	 6.97720000E-02	-5.44916000E-03
					 1.03616000E-05	 6.50410000E-02	-3.34141000E-04
					-2.80062000E-04	 7.04060000E-02	-2.93245000E-03
					-5.32472000E-04	 6.49359000E-02	-5.96210000E-03
					 3.84211000E-05	 7.01337000E-02	-3.42788000E-04
					-5.35032000E-04	 7.00394000E-02	-5.48725000E-03
					 1.21916000E-05	 6.45823000E-02	-3.08290000E-04
					-2.14778000E-04	 6.98359000E-02	-2.90903000E-03
					-3.70479000E-04	 6.44721000E-02	-5.93371000E-03
					 6.73795000E-04	 7.04024000E-02	 4.77174000E-03
					 5.48280000E-04	 6.98322000E-02	 4.79755000E-03
					 5.50208000E-04	 6.50011000E-02	 5.29715000E-03
					 3.56132000E-04	 7.04357000E-02	 2.21066000E-03
					 6.10657000E-04	 7.01010000E-02	 4.80043000E-03
					 3.92782000E-04	 6.45428000E-02	 5.31878000E-03
					 2.94123000E-04	 6.98664000E-02	 2.25743000E-03
					 4.42733000E-05	 6.94196000E-02	-2.91909000E-04
					-3.34955000E-04	 6.93288000E-02	-5.42558000E-03
					 4.15500000E-05	 6.96271000E-02	-3.09326000E-04
					-4.02365000E-04	 6.95328000E-02	-5.40936000E-03
					 1.67905000E-05	 6.42787000E-02	-2.84699000E-04
					-1.47358000E-04	 6.93916000E-02	-2.90688000E-03
					-2.05006000E-04	 6.41700000E-02	-5.91513000E-03
					 4.21329000E-04	 6.93918000E-02	 4.84183000E-03
					 4.84377000E-04	 6.95940000E-02	 4.79143000E-03
					 2.36218000E-04	 6.42458000E-02	 5.34579000E-03
					 2.34590000E-04	 6.94227000E-02	 2.32309000E-03
					 1.08916000E-04	 8.01736000E-02	-4.06638000E-04
					-8.35921000E-04	 8.01418000E-02	-5.08320000E-03
					 1.11764000E-04	 7.92246000E-02	-3.54445000E-04
					-8.30306000E-04	 7.91976000E-02	-5.03884000E-03
					 7.25966000E-05	 7.53848000E-02	-3.81096000E-04
					-3.65980000E-04	 8.01572000E-02	-2.73485000E-03
					-6.90499000E-04	 7.53260000E-02	-5.20288000E-03
					 1.09707000E-04	 7.97007000E-02	-3.81167000E-04
					-8.31315000E-04	 7.96745000E-02	-5.08847000E-03
					 7.46295000E-05	 7.46523000E-02	-3.40289000E-04
					-3.57233000E-04	 7.92102000E-02	-2.71680000E-03
					-6.25971000E-04	 7.45935000E-02	-5.14460000E-03
					 1.05535000E-03	 8.01878000E-02	 4.28658000E-03
					 1.05110000E-03	 7.92469000E-02	 4.33105000E-03
					 8.30409000E-04	 7.53689000E-02	 4.43650000E-03
					 5.81978000E-04	 8.01813000E-02	 1.92502000E-03
					 1.05295000E-03	 7.97181000E-02	 4.33987000E-03
					 7.70993000E-04	 7.46445000E-02	 4.46447000E-03
					 5.80865000E-04	 7.92358000E-02	 2.00783000E-03
					 1.13542000E-04	 7.82844000E-02	-3.05814000E-04
					-8.33077000E-04	 7.82480000E-02	-5.01305000E-03
					 1.13363000E-04	 7.87525000E-02	-3.29394000E-04
					-8.31362000E-04	 7.87239000E-02	-4.98557000E-03
					 7.70408000E-05	 7.39856000E-02	-3.00140000E-04
					-3.55458000E-04	 7.82618000E-02	-2.72218000E-03
					-5.53295000E-04	 7.39280000E-02	-5.11735000E-03
					 1.05432000E-03	 7.83074000E-02	 4.39393000E-03
					 1.05213000E-03	 7.87776000E-02	 4.32092000E-03
					 7.06426000E-04	 7.39840000E-02	 4.52111000E-03
					 5.82552000E-04	 7.82985000E-02	 2.10655000E-03
					 1.65107000E-04	 8.97622000E-02	-4.21031000E-04
					-1.01867000E-03	 8.97716000E-02	-5.18948000E-03
					 1.68127000E-04	 8.86248000E-02	-3.93842000E-04
					-9.72749000E-04	 8.86421000E-02	-5.19001000E-03
					 1.44449000E-04	 8.49695000E-02	-4.14576000E-04
					-4.27764000E-04	 8.97665000E-02	-2.77710000E-03
					-9.51327000E-04	 8.49305000E-02	-5.11426000E-03
					 1.68639000E-04	 8.91835000E-02	-4.09502000E-04
					-9.98726000E-04	 8.91872000E-02	-5.18664000E-03
					 1.44208000E-04	 8.38701000E-02	-3.68415000E-04
					-4.21303000E-04	 8.86298000E-02	-2.77634000E-03
					-9.44510000E-04	 8.38461000E-02	-5.10564000E-03
					 1.38383000E-03	 8.97962000E-02	 4.29684000E-03
					 1.37919000E-03	 8.86390000E-02	 4.36994000E-03
					 1.27405000E-03	 8.50130000E-02	 4.28213000E-03
					 7.75883000E-04	 8.97782000E-02	 1.92365000E-03
					 1.37877000E-03	 8.92085000E-02	 4.33348000E-03
					 1.27526000E-03	 8.38920000E-02	 4.34696000E-03
					 7.80782000E-04	 8.86283000E-02	 1.98146000E-03
					 1.91752000E-04	 8.75088000E-02	-3.51747000E-04
					-9.61328000E-04	 8.76140000E-02	-5.22794000E-03
					 1.73558000E-04	 8.80812000E-02	-3.73141000E-04
					-9.66276000E-04	 8.81403000E-02	-5.22871000E-03
					 1.54148000E-04	 8.27564000E-02	-3.12653000E-04
					-3.99618000E-04	 8.75691000E-02	-2.75663000E-03
					-9.79752000E-04	 8.27447000E-02	-5.10439000E-03
					 1.41470000E-03	 8.74648000E-02	 4.44294000E-03
					 1.39999000E-03	 8.80645000E-02	 4.41068000E-03
					 1.30898000E-03	 8.27572000E-02	 4.41725000E-03
					 8.01961000E-04	 8.74703000E-02	 2.04041000E-03
					 0.00000000E+00	 0.00000000E+00	 0.00000000E+00
					 0.00000000E+00	 0.00000000E+00	 0.00000000E+00
					-2.18053000E-05	-1.30213000E-02	-2.27681000E-04
					-3.15986000E-03	-1.40003000E-02	 1.32988000E-02
					 0.00000000E+00	 0.00000000E+00	 0.00000000E+00
					 0.00000000E+00	 0.00000000E+00	 0.00000000E+00
					-4.41340000E-05	-1.52496000E-02	-3.47444000E-04
					-1.40772000E-03	-1.62819000E-02	 1.33367000E-02
					 0.00000000E+00	 0.00000000E+00	 0.00000000E+00
					 3.00228000E-05	-2.46144000E-03	-7.46689000E-05
					-1.59455000E-03	-1.32011000E-02	 6.49643000E-03
					-2.67929000E-03	-3.68644000E-03	 6.78768000E-03
					 0.00000000E+00	 0.00000000E+00	 0.00000000E+00
					 0.00000000E+00	 0.00000000E+00	 0.00000000E+00
					-2.93776000E-05	-1.44343000E-02	-2.94560000E-04
					-2.26614000E-03	-1.54379000E-02	 1.31943000E-02
					 0.00000000E+00	 0.00000000E+00	 0.00000000E+00
					-6.96471000E-06	-4.04987000E-03	-1.23338000E-04
					-7.28017000E-04	-1.54418000E-02	 6.32834000E-03
					-6.80384000E-04	-5.25071000E-03	 6.55330000E-03
					 0.00000000E+00	 0.00000000E+00	 0.00000000E+00
					 3.09626000E-03	-1.35925000E-02	-1.38170000E-02
					 0.00000000E+00	 0.00000000E+00	 0.00000000E+00
					 1.33340000E-03	-1.58886000E-02	-1.40991000E-02
					 0.00000000E+00	 0.00000000E+00	 0.00000000E+00
					 2.73011000E-03	-3.56175000E-03	-6.96471000E-03
					 1.54176000E-03	-1.29930000E-02	-6.97213000E-03
					 0.00000000E+00	 0.00000000E+00	 0.00000000E+00
					 2.20861000E-03	-1.50342000E-02	-1.38461000E-02
					 0.00000000E+00	 0.00000000E+00	 0.00000000E+00
					 6.79259000E-04	-5.15639000E-03	-6.81930000E-03
					 6.41272000E-04	-1.52440000E-02	-7.04479000E-03
					 0.00000000E+00	 0.00000000E+00	 0.00000000E+00
					 0.00000000E+00	 0.00000000E+00	 0.00000000E+00
					-8.11978000E-05	-1.57572000E-02	-4.08737000E-04
					 3.40370000E-04	-1.67001000E-02	 1.31246000E-02
					 0.00000000E+00	 0.00000000E+00	 0.00000000E+00
					 0.00000000E+00	 0.00000000E+00	 0.00000000E+00
					-6.09492000E-05	-1.58000000E-02	-3.86789000E-04
					-5.45202000E-04	-1.67905000E-02	 1.33492000E-02
					 0.00000000E+00	 0.00000000E+00	 0.00000000E+00
					-5.88873000E-05	-3.81888000E-03	-1.49016000E-04
					 1.26483000E-04	-1.59126000E-02	 6.07269000E-03
					 1.35251000E-03	-4.96816000E-03	 6.71495000E-03
					 0.00000000E+00	 0.00000000E+00	 0.00000000E+00
					-4.59100000E-04	-1.63433000E-02	-1.39959000E-02
					 0.00000000E+00	 0.00000000E+00	 0.00000000E+00
					 4.46695000E-04	-1.64088000E-02	-1.41873000E-02
					 0.00000000E+00	 0.00000000E+00	 0.00000000E+00
					-1.43960000E-03	-4.89388000E-03	-7.03885000E-03
					-2.73814000E-04	-1.57416000E-02	-6.90316000E-03
					-1.74477000E-04	-5.20805000E-02	-1.07378000E-03
					-4.00812000E-03	-5.32321000E-02	 2.26932000E-02
					-1.77431000E-04	-5.52965000E-02	-1.30803000E-03
					-2.80812000E-03	-5.64519000E-02	 2.25295000E-02
					-8.53296000E-05	-2.98702000E-02	-5.49045000E-04
					-2.09086000E-03	-5.25226000E-02	 1.07097000E-02
					-3.65993000E-03	-3.10313000E-02	 1.86265000E-02
					-1.74598000E-04	-5.38184000E-02	-1.20166000E-03
					-3.40748000E-03	-5.49721000E-02	 2.25696000E-02
					-1.04836000E-04	-3.26641000E-02	-7.29961000E-04
					-1.48960000E-03	-5.57410000E-02	 1.04761000E-02
					-2.13450000E-03	-3.38234000E-02	 1.85239000E-02
					 3.66417000E-03	-5.20574000E-02	-2.49104000E-02
					 2.46037000E-03	-5.53032000E-02	-2.52157000E-02
					 3.47628000E-03	-3.02631000E-02	-1.98072000E-02
					 1.74114000E-03	-5.19447000E-02	-1.28733000E-02
					 3.06695000E-03	-5.38175000E-02	-2.50399000E-02
					 1.93759000E-03	-3.30721000E-02	-2.00667000E-02
					 1.14093000E-03	-5.51798000E-02	-1.31055000E-02
					-1.98191000E-04	-5.73359000E-02	-1.47650000E-03
					-1.61169000E-03	-5.84518000E-02	 2.22915000E-02
					-1.86561000E-04	-5.64452000E-02	-1.39865000E-03
					-2.20726000E-03	-5.76181000E-02	 2.25206000E-02
					-1.39339000E-04	-3.39359000E-02	-8.43833000E-04
					-9.12866000E-04	-5.77505000E-02	 1.01609000E-02
					-6.34469000E-04	-3.50764000E-02	 1.83349000E-02
					 1.26022000E-03	-5.73525000E-02	-2.53129000E-02
					 1.86040000E-03	-5.64534000E-02	-2.53899000E-02
					 4.04236000E-04	-3.43742000E-02	-2.01010000E-02
					 5.29792000E-04	-5.72252000E-02	-1.31254000E-02
					-3.21738000E-04	-1.07444000E-01	-2.66799000E-03
					-4.48552000E-03	-1.08540000E-01	 2.67769000E-02
					-3.12346000E-04	-1.11301000E-01	-2.94858000E-03
					-3.92625000E-03	-1.12505000E-01	 2.65609000E-02
					-2.52810000E-04	-7.83250000E-02	-1.78914000E-03
					-2.40010000E-03	-1.07916000E-01	 1.19517000E-02
					-4.27355000E-03	-7.94958000E-02	 2.53370000E-02
					-3.15242000E-04	-1.09445000E-01	-2.80970000E-03
					-4.20790000E-03	-1.10606000E-01	 2.66313000E-02
					-2.51103000E-04	-8.19004000E-02	-2.05743000E-03
					-2.14412000E-03	-1.11830000E-01	 1.16558000E-02
					-3.40551000E-03	-8.30781000E-02	 2.51480000E-02
					 3.80656000E-03	-1.06826000E-01	-3.21310000E-02
					 3.30480000E-03	-1.10698000E-01	-3.25115000E-02
					 3.76357000E-03	-7.80013000E-02	-2.89722000E-02
					 1.74473000E-03	-1.07074000E-01	-1.72856000E-02
					 3.55483000E-03	-1.08827000E-01	-3.22977000E-02
					 2.91341000E-03	-8.15772000E-02	-2.93184000E-02
					 1.49749000E-03	-1.10945000E-01	-1.75815000E-02
					-3.14189000E-04	-1.14642000E-01	-3.19746000E-03
					-3.47901000E-03	-1.15959000E-01	 2.62410000E-02
					-3.12133000E-04	-1.13053000E-01	-3.07878000E-03
					-3.70492000E-03	-1.14189000E-01	 2.65092000E-02
					-2.52578000E-04	-8.46212000E-02	-2.27373000E-03
					-1.86486000E-03	-1.15226000E-01	 1.12620000E-02
					-2.58503000E-03	-8.58191000E-02	 2.48574000E-02
					 2.81322000E-03	-1.14078000E-01	-3.27173000E-02
					 3.05995000E-03	-1.12443000E-01	-3.27231000E-02
					 2.05397000E-03	-8.43146000E-02	-2.94618000E-02
					 1.23895000E-03	-1.14319000E-01	-1.77088000E-02
					-3.51035000E-04	-1.69553000E-01	-4.66281000E-03
					-4.69409000E-03	-1.70395000E-01	 2.61864000E-02