<?xml version="1.0"?>
<VTKFile type="UnstructuredGrid" version="0.1" byte_order="LittleEndian">
	<UnstructuredGrid>
		<Piece NumberOfPoints="522" NumberOfCells="64">
			<Points>
				<DataArray type="Float64" NumberOfComponents="3" format="ascii">
					 1.00000000E+00	 1.00000000E+00	-5.96046000E-08
					 1.00000000E+00	 5.00000000E-01	-5.96046000E-08
					 1.00000000E+00	 5.00000000E-01	 1.00000000E+00
					 1.00000000E+00	 1.00000000E+00	 1.00000000E+00
					 5.00000000E-01	 1.00000000E+00	-5.96046000E-08
					 5.00000000E-01	 5.00000000E-01	-5.96046000E-08
					 5.00000000E-01	 5.00000000E-01	 1.00000000E+00
					 5.00000000E-01	 1.00000000E+00	 1.00000000E+00
					 1.00000000E+00	 7.50000000E-01	-5.96046000E-08
					 1.00000000E+00	 5.00000000E-01	 5.00000000E-01
					 1.00000000E+00	 7.50000000E-01	 1.00000000E+00
					 1.00000000E+00	 1.00000000E+00	 5.00000000E-01
					 7.50000000E-01	 1.00000000E+00	-5.96046000E-08
					 7.50000000E-01	 5.00000000E-01	-5.96046000E-08
					 7.50000000E-01	 5.00000000E-01	 1.00000000E+00
					 7.50000000E-01	 1.00000000E+00	 1.00000000E+00
					 5.00000000E-01	 7.50000000E-01	-5.96046000E-08
					 5.00000000E-01	 5.00000000E-01	 5.00000000E-01
					 5.00000000E-01	 7.50000000E-01	 1.00000000E+00
					 5.00000000E-01	 1.00000000E+00	 5.00000000E-01
					 1.00000000E+00	-1.49012000E-08	-5.96046000E-08
					 1.00000000E+00	-1.49012000E-08	 1.00000000E+00
					 5.00000000E-01	-1.49012000E-08	-5.96046000E-08
					 5.00000000E-01	-1.49012000E-08	 1.00000000E+00
					 1.00000000E+00	 2.50000000E-01	-5.96046000E-08
					 1.00000000E+00	-1.49012000E-08	 5.00000000E-01
					 1.00000000E+00	 2.50000000E-01	 1.00000000E+00
					 7.50000000E-01	-1.49012000E-08	-5.96046000E-08
					 7.50000000E-01	-1.49012000E-08	 1.00000000E+00
					 5.00000000E-01	 2.50000000E-01	-5.96046000E-08
					 5.00000000E-01	-1.49012000E-08	 5.00000000E-01
					 5.00000000E-01	 2.50000000E-01	 1.00000000E+00
					-7.45058000E-09	 1.00000000E+00	-5.96046000E-08
					-7.45058000E-09	 5.00000000E-01	-5.96046000E-08
					-7.45058000E-09	 5.00000000E-01	 1.00000000E+00
					-7.45058000E-09	 1.00000000E+00	 1.00000000E+00
					 2.50000000E-01	 1.00000000E+00	-5.96046000E-08
					 2.50000000E-01	 5.00000000E-01	-5.96046000E-08
					 2.50000000E-01	 5.00000000E-01	 1.00000000E+00
					 2.50000000E-01	 1.00000000E+00	 1.00000000E+00
					-7.45058000E-09	 7.50000000E-01	-5.96046000E-08
					-7.45058000E-09	 5.00000000E-01	 5.00000000E-01
					-7.45058000E-09	 7.50000000E-01	 1.00000000E+00
					-7.45058000E-09	 1.00000000E+00	 5.00000000E-01
					-7.45058000E-09	-1.49012000E-08	-5.96046000E-08
					-7.45058000E-09	-1.49012000E-08	 1.00000000E+00
					 2.50000000E-01	-1.49012000E-08	-5.96046000E-08
					 2.50000000E-01	-1.49012000E-08	 1.00000000E+00
					-7.45058000E-09	 2.50000000E-01	-5.96046000E-08
					-7.45058000E-09	-1.49012000E-08	 5.00000000E-01
					-7.45058000E-09	 2.50000000E-01	 1.00000000E+00
					 1.00000000E+00	 5.00000000E-01	 2.00000000E+00
					 1.00000000E+00	 1.00000000E+00	 2.00000000E+00
					 5.00000000E-01	 5.00000000E-01	 2.00000000E+00
					 5.00000000E-01	 1.00000000E+00	 2.00000000E+00
					 1.00000000E+00	 5.00000000E-01	 1.50000000E+00
					 1.00000000E+00	 7.50000000E-01	 2.00000000E+00
					 1.00000000E+00	 1.00000000E+00	 1.50000000E+00
					 7.50000000E-01	 5.00000000E-01	 2.00000000E+00
					 7.50000000E-01	 1.00000000E+00	 2.00000000E+00
					 5.00000000E-01	 5.00000000E-01	 1.50000000E+00
					 5.00000000E-01	 7.50000000E-01	 2.00000000E+00
					 5.00000000E-01	 1.00000000E+00	 1.50000000E+00
					 1.00000000E+00	-1.49012000E-08	 2.00000000E+00
					 5.00000000E-01	-1.49012000E-08	 2.00000000E+00
					 1.00000000E+00	-1.49012000E-08	 1.50000000E+00
					 1.00000000E+00	 2.50000000E-01	 2.00000000E+00
					 7.50000000E-01	-1.49012000E-08	 2.00000000E+00
					 5.00000000E-01	-1.49012000E-08	 1.50000000E+00
					 5.00000000E-01	 2.50000000E-01	 2.00000000E+00
					-7.45058000E-09	 5.00000000E-01	 2.00000000E+00
					-7.45058000E-09	 1.00000000E+00	 2.00000000E+00
					 2.50000000E-01	 5.00000000E-01	 2.00000000E+00
					 2.50000000E-01	 1.00000000E+00	 2.00000000E+00
					-7.45058000E-09	 5.00000000E-01	 1.50000000E+00
					-7.45058000E-09	 7.50000000E-01	 2.00000000E+00
					-7.45058000E-09	 1.00000000E+00	 1.50000000E+00
					-7.45058000E-09	-1.49012000E-08	 2.00000000E+00
					 2.50000000E-01	-1.49012000E-08	 2.00000000E+00
					-7.45058000E-09	-1.49012000E-08	 1.50000000E+00
					-7.45058000E-09	 2.50000000E-01	 2.00000000E+00
					 1.00000000E+00	 5.00000000E-01	 3.00000000E+00
					 1.00000000E+00	 1.00000000E+00	 3.00000000E+00
					 5.00000000E-01	 5.00000000E-01	 3.00000000E+00
					 5.00000000E-01	 1.00000000E+00	 3.00000000E+00
					 1.00000000E+00	 5.00000000E-01	 2.50000000E+00
					 1.00000000E+00	 7.50000000E-01	 3.00000000E+00
					 1.00000000E+00	 1.00000000E+00	 2.50000000E+00
					 7.50000000E-01	 5.00000000E-01	 3.00000000E+00
					 7.50000000E-01	 1.00000000E+00	 3.00000000E+00
					 5.00000000E-01	 5.00000000E-01	 2.50000000E+00
					 5.00000000E-01	 7.50000000E-01	 3.00000000E+00
					 5.00000000E-01	 1.00000000E+00	 2.50000000E+00
					 1.00000000E+00	-1.49012000E-08	 3.00000000E+00
					 5.00000000E-01	-1.49012000E-08	 3.00000000E+00
					 1.00000000E+00	-1.49012000E-08	 2.50000000E+00
					 1.00000000E+00	 2.50000000E-01	 3.00000000E+00
					 7.50000000E-01	-1.49012000E-08	 3.00000000E+00
					 5.00000000E-01	-1.49012000E-08	 2.50000000E+00
					 5.00000000E-01	 2.50000000E-01	 3.00000000E+00
					-7.45058000E-09	 5.00000000E-01	 3.00000000E+00
					-7.45058000E-09	 1.00000000E+00	 3.00000000E+00
					 2.50000000E-01	 5.00000000E-01	 3.00000000E+00
					 2.50000000E-01	 1.00000000E+00	 3.00000000E+00
					-7.45058000E-09	 5.00000000E-01	 2.50000000E+00
					-7.45058000E-09	 7.50000000E-01	 3.00000000E+00
					-7.45058000E-09	 1.00000000E+00	 2.50000000E+00
					-7.45058000E-09	-1.49012000E-08	 3.00000000E+00
					 2.50000000E-01	-1.49012000E-08	 3.00000000E+00
					-7.45058000E-09	-1.49012000E-08	 2.50000000E+00
					-7.45058000E-09	 2.50000000E-01	 3.00000000E+00
					 1.00000000E+00	 5.00000000E-01	 4.00000000E+00
					 1.00000000E+00	 1.00000000E+00	 4.00000000E+00
					 5.00000000E-01	 5.00000000E-01	 4.00000000E+00
					 5.00000000E-01	 1.00000000E+00	 4.00000000E+00
					 1.00000000E+00	 5.00000000E-01	 3.50000000E+00
					 1.00000000E+00	 7.50000000E-01	 4.00000000E+00
					 1.00000000E+00	 1.00000000E+00	 3.50000000E+00
					 7.50000000E-01	 5.00000000E-01	 4.00000000E+00
					 7.50000000E-01	 1.00000000E+00	 4.00000000E+00
					 5.00000000E-01	 5.00000000E-01	 3.50000000E+00
					 5.00000000E-01	 7.50000000E-01	 4.00000000E+00
					 5.00000000E-01	 1.00000000E+00	 3.50000000E+00
					 1.00000000E+00	-1.49012000E-08	 4.00000000E+00
					 5.00000000E-01	-1.49012000E-08	 4.00000000E+00
					 1.00000000E+00	-1.49012000E-08	 3.50000000E+00
					 1.00000000E+00	 2.50000000E-01	 4.00000000E+00
					 7.50000000E-01	-1.49012000E-08	 4.00000000E+00
					 5.00000000E-01	-1.49012000E-08	 3.50000000E+00
					 5.00000000E-01	 2.50000000E-01	 4.00000000E+00
					-7.45058000E-09	 5.00000000E-01	 4.00000000E+00
					-7.45058000E-09	 1.00000000E+00	 4.00000000E+00
					 2.50000000E-01	 5.00000000E-01	 4.00000000E+00
					 2.50000000E-01	 1.00000000E+00	 4.00000000E+00
					-7.45058000E-09	 5.00000000E-01	 3.50000000E+00
					-7.45058000E-09	 7.50000000E-01	 4.00000000E+00
					-7.45058000E-09	 1.00000000E+00	 3.50000000E+00
					-7.45058000E-09	-1.49012000E-08	 4.00000000E+00
					 2.50000000E-01	-1.49012000E-08	 4.00000000E+00
					-7.45058000E-09	-1.49012000E-08	 3.50000000E+00
					-7.45058000E-09	 2.50000000E-01	 4.00000000E+00
					 1.00000000E+00	 5.00000000E-01	 5.00000000E+00
					 1.00000000E+00	 1.00000000E+00	 5.00000000E+00
					 5.00000000E-01	 5.00000000E-01	 5.00000000E+00
					 5.00000000E-01	 1.00000000E+00	 5.00000000E+00
					 1.00000000E+00	 5.00000000E-01	 4.50000000E+00
					 1.00000000E+00	 7.50000000E-01	 5.00000000E+00
					 1.00000000E+00	 1.00000000E+00	 4.50000000E+00
					 7.50000000E-01	 5.00000000E-01	 5.00000000E+00
					 7.50000000E-01	 1.00000000E+00	 5.00000000E+00
					 5.00000000E-01	 5.00000000E-01	 4.50000000E+00
					 5.00000000E-01	 7.50000000E-01	 5.00000000E+00
					 5.00000000E-01	 1.00000000E+00	 4.50000000E+00
					 1.00000000E+00	-1.49012000E-08	 5.00000000E+00
					 5.00000000E-01	-1.49012000E-08	 5.00000000E+00
					 1.00000000E+00	-1.49012000E-08	 4.50000000E+00
					 1.00000000E+00	 2.50000000E-01	 5.00000000E+00
					 7.50000000E-01	-1.49012000E-08	 5.00000000E+00
					 5.00000000E-01	-1.49012000E-08	 4.50000000E+00
					 5.00000000E-01	 2.50000000E-01	 5.00000000E+00
					-7.45058000E-09	 5.00000000E-01	 5.00000000E+00
					-7.45058000E-09	 1.00000000E+00	 5.00000000E+00
					 2.50000000E-01	 5.00000000E-01	 5.00000000E+00
					 2.50000000E-01	 1.00000000E+00	 5.00000000E+00
					-7.45058000E-09	 5.00000000E-01	 4.50000000E+00
					-7.45058000E-09	 7.50000000E-01	 5.00000000E+00
					-7.45058000E-09	 1.00000000E+00	 4.50000000E+00
					-7.45058000E-09	-1.49012000E-08	 5.00000000E+00
					 2.50000000E-01	-1.49012000E-08	 5.00000000E+00
					-7.45058000E-09	-1.49012000E-08	 4.50000000E+00
					-7.45058000E-09	 2.50000000E-01	 5.00000000E+00
					 1.00000000E+00	 5.00000000E-01	 6.00000000E+00
					 1.00000000E+00	 1.00000000E+00	 6.00000000E+00
					 5.00000000E-01	 5.00000000E-01	 6.00000000E+00
					 5.00000000E-01	 1.00000000E+00	 6.00000000E+00
					 1.00000000E+00	 5.00000000E-01	 5.50000000E+00
					 1.00000000E+00	 7.50000000E-01	 6.00000000E+00
					 1.00000000E+00	 1.00000000E+00	 5.50000000E+00
					 7.50000000E-01	 5.00000000E-01	 6.00000000E+00
					 7.50000000E-01	 1.00000000E+00	 6.00000000E+00
					 5.00000000E-01	 5.00000000E-01	 5.50000000E+00
					 5.00000000E-01	 7.50000000E-01	 6.00000000E+00
					 5.00000000E-01	 1.00000000E+00	 5.50000000E+00
					 1.00000000E+00	-1.49012000E-08	 6.00000000E+00
[...]
			<PointData>
				<DataArray type="Float32" Name="U" NumberOfComponents="3" ComponentName0="D1" ComponentName1="D2" ComponentName2="D3" format="ascii">
					 0.00000000E+00	 0.00000000E+00	 0.00000000E+00
					 0.00000000E+00	 0.00000000E+00	 0.00000000E+00
					 1.06825000E-07	-3.16459000E-03	-7.90262000E-06
					-1.19341000E-03	-3.34879000E-03	 3.35804000E-03
					 0.00000000E+00	 0.00000000E+00	 0.00000000E+00
					 0.00000000E+00	 0.00000000E+00	 0.00000000E+00
					 2.41219000E-06	-4.16425000E-03	-1.46106000E-05
					-8.05353000E-04	-4.35815000E-03	 3.39696000E-03
					 0.00000000E+00	 0.00000000E+00	 0.00000000E+00
					 2.46061000E-06	-5.78368000E-04	-3.87667000E-06
					-5.99129000E-04	-3.18502000E-03	 1.68208000E-03
					-9.11198000E-04	-8.79352000E-04	 1.77432000E-03
					 0.00000000E+00	 0.00000000E+00	 0.00000000E+00
					 0.00000000E+00	 0.00000000E+00	 0.00000000E+00
					 1.14109000E-06	-3.73396000E-03	-1.26748000E-05
					-9.95766000E-04	-3.92101000E-03	 3.31536000E-03
					 0.00000000E+00	 0.00000000E+00	 0.00000000E+00
					 1.79171000E-06	-1.21821000E-03	-4.87972000E-06
					-4.02072000E-04	-4.18550000E-03	 1.63327000E-03
					-4.14360000E-04	-1.50859000E-03	 1.73165000E-03
					 0.00000000E+00	 0.00000000E+00	 0.00000000E+00
					 1.19706000E-03	-3.31581000E-03	-3.37579000E-03
					 0.00000000E+00	 0.00000000E+00	 0.00000000E+00
					 8.13641000E-04	-4.33199000E-03	-3.42811000E-03
					 0.00000000E+00	 0.00000000E+00	 0.00000000E+00
					 9.17801000E-04	-8.67902000E-04	-1.78336000E-03
					 6.00143000E-04	-3.16780000E-03	-1.69880000E-03
					 0.00000000E+00	 0.00000000E+00	 0.00000000E+00
					 1.00248000E-03	-3.89234000E-03	-3.34221000E-03
					 0.00000000E+00	 0.00000000E+00	 0.00000000E+00
					 4.19877000E-04	-1.50111000E-03	-1.74238000E-03
					 4.08035000E-04	-4.17331000E-03	-1.66302000E-03
					 0.00000000E+00	 0.00000000E+00	 0.00000000E+00
					 0.00000000E+00	 0.00000000E+00	 0.00000000E+00
					 2.88645000E-06	-4.78022000E-03	-1.82760000E-05
					-4.18497000E-04	-4.95669000E-03	 3.34685000E-03
					 0.00000000E+00	 0.00000000E+00	 0.00000000E+00
					 0.00000000E+00	 0.00000000E+00	 0.00000000E+00
					 3.07344000E-06	-4.53983000E-03	-1.59704000E-05
					-6.14843000E-04	-4.72605000E-03	 3.44627000E-03
					 0.00000000E+00	 0.00000000E+00	 0.00000000E+00
					 1.58494000E-06	-1.41125000E-03	-3.22887000E-06
					-2.07777000E-04	-4.79503000E-03	 1.53572000E-03
					 1.09895000E-04	-1.68110000E-03	 1.77277000E-03
					 0.00000000E+00	 0.00000000E+00	 0.00000000E+00
					 4.27342000E-04	-4.93507000E-03	-3.38432000E-03
					 0.00000000E+00	 0.00000000E+00	 0.00000000E+00
					 6.23492000E-04	-4.70123000E-03	-3.48011000E-03
					 0.00000000E+00	 0.00000000E+00	 0.00000000E+00
					-1.05227000E-04	-1.67413000E-03	-1.78090000E-03
					 2.14751000E-04	-4.78605000E-03	-1.57200000E-03
					-8.04907000E-06	-1.21956000E-02	-3.53820000E-05
					-1.54888000E-03	-1.23758000E-02	 5.57149000E-03
					-3.80251000E-06	-1.35914000E-02	-5.25073000E-05
					-1.25111000E-03	-1.37719000E-02	 5.55587000E-03
					-5.28499000E-06	-7.10970000E-03	-1.79149000E-05
					-7.80019000E-04	-1.22575000E-02	 2.77354000E-03
					-1.44070000E-03	-7.31246000E-03	 4.56757000E-03
					-5.77967000E-06	-1.29235000E-02	-4.43663000E-05
					-1.40067000E-03	-1.31038000E-02	 5.55673000E-03
					-2.47438000E-06	-8.37325000E-03	-3.05807000E-05
					-6.28515000E-04	-1.36552000E-02	 2.75083000E-03
					-1.09918000E-03	-8.57993000E-03	 4.56918000E-03
					 1.53483000E-03	-1.22981000E-02	-5.64593000E-03
					 1.24410000E-03	-1.36984000E-02	-5.66471000E-03
					 1.43272000E-03	-7.25818000E-03	-4.60608000E-03
					 7.64353000E-04	-1.22181000E-02	-2.84514000E-03
					 1.39102000E-03	-1.30286000E-02	-5.64938000E-03
					 1.09644000E-03	-8.53083000E-03	-4.63224000E-03
					 6.20928000E-04	-1.36184000E-02	-2.85694000E-03
					-1.73518000E-06	-1.46904000E-02	-6.52024000E-05
					-9.65241000E-04	-1.48783000E-02	 5.54197000E-03
					-2.42073000E-06	-1.41724000E-02	-5.96105000E-05
					-1.10803000E-03	-1.43522000E-02	 5.55752000E-03
					-1.70815000E-06	-9.30318000E-03	-4.03797000E-05
					-4.79287000E-04	-1.47570000E-02	 2.72765000E-03
					-7.85312000E-04	-9.52706000E-03	 4.54585000E-03
					 9.60832000E-04	-1.48046000E-02	-5.67636000E-03
					 1.10228000E-03	-1.42788000E-02	-5.68021000E-03
					 7.83653000E-04	-9.48023000E-03	-4.62760000E-03
					 4.75677000E-04	-1.47195000E-02	-2.85950000E-03
					-1.11198000E-05	-2.49857000E-02	-9.98405000E-05
					-1.82998000E-03	-2.52228000E-02	 7.54793000E-03
					-5.53542000E-06	-2.66323000E-02	-1.23272000E-04
					-1.47351000E-03	-2.68670000E-02	 7.51670000E-03
					-9.58131000E-06	-1.81451000E-02	-6.02357000E-05
					-9.20921000E-04	-2.50604000E-02	 3.77971000E-03
					-1.65616000E-03	-1.83591000E-02	 6.52252000E-03
					-8.84449000E-06	-2.58542000E-02	-1.11955000E-04
					-1.65181000E-03	-2.60888000E-02	 7.50170000E-03
					-4.37269000E-06	-1.96470000E-02	-8.15564000E-05
					-7.39174000E-04	-2.67045000E-02	 3.72415000E-03
					-1.34743000E-03	-1.98512000E-02	 6.49494000E-03
					 1.81287000E-03	-2.50918000E-02	-7.75466000E-03
					 1.46571000E-03	-2.67435000E-02	-7.77017000E-03
					 1.63999000E-03	-1.82587000E-02	-6.64942000E-03
					 8.99803000E-04	-2.49927000E-02	-3.98177000E-03
					 1.63950000E-03	-2.59633000E-02	-7.73205000E-03
					 1.33990000E-03	-1.97561000E-02	-6.66467000E-03
					 7.29213000E-04	-2.66428000E-02	-3.97271000E-03
					 5.27820000E-08	-2.79253000E-02	-1.41843000E-04
					-1.11801000E-03	-2.81599000E-02	 7.50813000E-03
					-2.21587000E-06	-2.73238000E-02	-1.33110000E-04
					-1.29511000E-03	-2.75598000E-02	 7.52737000E-03
					-4.32919000E-07	-2.08318000E-02	-9.71880000E-05
					-5.60162000E-04	-2.79971000E-02	 3.69376000E-03
					-1.03358000E-03	-2.10376000E-02	 6.48648000E-03
					 1.11879000E-03	-2.80370000E-02	-7.79874000E-03
					 1.29182000E-03	-2.74365000E-02	-7.80109000E-03
					 1.03157000E-03	-2.09421000E-02	-6.68804000E-03
					 5.60619000E-04	-2.79359000E-02	-3.97910000E-03
					 2.30774000E-06	-4.25052000E-02	-2.46899000E-04
					-2.07516000E-03	-4.28092000E-02	 1.00482000E-02
					 6.51802000E-06	-4.43603000E-02	-2.75554000E-04
					-1.64869000E-03	-4.46774000E-02	 1.00247000E-02
					-5.92284000E-06	-3.29807000E-02	-1.59912000E-04
					-1.03241000E-03	-4.26019000E-02	 4.88975000E-03
					-2.00619000E-03	-3.32509000E-02	 8.76276000E-03
					 4.73914000E-06	-4.34841000E-02	-2.62528000E-04
					-1.86137000E-03	-4.37993000E-02	 1.00346000E-02
					-1.78652000E-06	-3.47771000E-02	-1.85496000E-04
					-8.21950000E-04	-4.44630000E-02	 4.86320000E-03
					-1.59939000E-03	-3.50521000E-02	 8.73097000E-03
					 2.08105000E-03	-4.25851000E-02	-1.05511000E-02
					 1.66370000E-03	-4.44569000E-02	-1.05853000E-02
					 1.99959000E-03	-3.30773000E-02	-9.08985000E-03
					 1.03742000E-03	-4.24904000E-02	-5.38517000E-03
					 1.87242000E-03	-4.35771000E-02	-1.05700000E-02
					 1.59981000E-03	-3.48862000E-02	-9.10906000E-03
					 8.35649000E-04	-4.43530000E-02	-5.41668000E-03
					 9.47716000E-06	-4.58189000E-02	-2.94002000E-04
					-1.23888000E-03	-4.61349000E-02	 1.00004000E-02
					 7.95833000E-06	-4.51431000E-02	-2.86049000E-04
					-1.44489000E-03	-4.54593000E-02	 1.00173000E-02
					 2.09882000E-06	-3.61821000E-02	-2.05274000E-04
					-6.15415000E-04	-4.59225000E-02	 4.83631000E-03
					-1.20122000E-03	-3.64557000E-02	 8.71915000E-03
					 1.26025000E-03	-4.59171000E-02	-1.05976000E-02
					 1.46309000E-03	-4.52397000E-02	-1.05982000E-02
					 1.20824000E-03	-3.62923000E-02	-9.13632000E-03
					 6.35210000E-04	-4.58144000E-02	-5.42688000E-03
					 2.58814000E-05	-6.64796000E-02	-5.18484000E-04
					-1.56944000E-03	-6.67569000E-02	 1.20732000E-02
					 3.47173000E-05	-6.79522000E-02	-5.45590000E-04
					-1.31760000E-03	-6.82320000E-02	 1.20676000E-02
					 1.36973000E-05	-5.37650000E-02	-3.67755000E-04
					-7.71174000E-04	-6.65850000E-02	 5.66663000E-03
					-1.92715000E-03	-5.40540000E-02	 1.12113000E-02
					 3.00026000E-05	-6.72444000E-02	-5.32927000E-04
					-1.44350000E-03	-6.75265000E-02	 1.21324000E-02
					 2.06894000E-05	-5.55160000E-02	-3.96896000E-04
					-6.42607000E-04	-6.80606000E-02	 5.70955000E-03
					-1.56246000E-03	-5.58200000E-02	 1.12012000E-02
					 1.62839000E-03	-6.64252000E-02	-1.31140000E-02
					 1.39089000E-03	-6.79100000E-02	-1.31649000E-02
					 1.95498000E-03	-5.37760000E-02	-1.19547000E-02
					 8.24755000E-04	-6.64253000E-02	-6.70507000E-03
					 1.50980000E-03	-6.71974000E-02	-1.32017000E-02
					 1.60454000E-03	-5.55447000E-02	-1.20043000E-02
					 7.13063000E-04	-6.79033000E-02	-6.80193000E-03
					 3.94568000E-05	-6.91885000E-02	-5.67840000E-04
					-1.08443000E-03	-6.94737000E-02	 1.20212000E-02
					 3.84369000E-05	-6.86009000E-02	-5.57225000E-04
					-1.20087000E-03	-6.88796000E-02	 1.20096000E-02
					 2.48437000E-05	-5.69317000E-02	-4.15141000E-04
					-5.20697000E-04	-6.93013000E-02	 5.71201000E-03
					-1.22360000E-03	-5.72410000E-02	 1.11618000E-02
					 1.16419000E-03	-6.91565000E-02	-1.31653000E-02
					 1.27933000E-03	-6.85623000E-02	-1.31320000E-02
					 1.27354000E-03	-5.69681000E-02	-1.20021000E-02
					 5.99769000E-04	-6.91437000E-02	-6.84939000E-03
					 3.21164000E-05	-9.41896000E-02	-8.75554000E-04
					-5.57077000E-04	-9.44274000E-02	 1.26839000E-02
					 3.23455000E-05	-9.47469000E-02	-8.97580000E-04
					-4.76514000E-04	-9.49742000E-02	 1.26718000E-02
					 3.31534000E-05	-8.01168000E-02	-6.89673000E-04
					-2.65552000E-04	-9.42981000E-02	 5.81202000E-03
					-1.07674000E-03	-8.03768000E-02	 1.25070000E-02
					 3.19941000E-05	-9.44781000E-02	-8.86753000E-04
					-5.16305000E-04	-9.47103000E-02	 1.27513000E-02
					 3.76788000E-05	-8.11621000E-02	-7.14627000E-04
					-2.22505000E-04	-9.48508000E-02	 5.86817000E-03
					-9.29655000E-04	-8.14152000E-02	 1.24972000E-02
					 6.34725000E-04	-9.40436000E-02	-1.44388000E-02
					 5.51459000E-04	-9.46056000E-02	-1.44698000E-02
					 1.15750000E-03	-8.00099000E-02	-1.38877000E-02
					 3.33240000E-04	-9.41089000E-02	-7.56305000E-03
					 5.94018000E-04	-9.43321000E-02	-1.45294000E-02
					 1.01394000E-03	-8.10654000E-02	-1.39302000E-02
					 2.91005000E-04	-9.46685000E-02	-7.66420000E-03
					 3.42123000E-05	-9.52163000E-02	-9.15143000E-04
					-3.94086000E-04	-9.54426000E-02	 1.26445000E-02
					 3.29935000E-05	-9.49917000E-02	-9.06854000E-04
					-4.35692000E-04	-9.52152000E-02	 1.25921000E-02
					 4.06794000E-05	-8.20614000E-02	-7.38939000E-04
					-1.78560000E-04	-9.53209000E-02	 5.91184000E-03
					-7.93837000E-04	-8.23196000E-02	 1.24544000E-02
					 4.67076000E-04	-9.50817000E-02	-1.44770000E-02
					 5.08226000E-04	-9.48550000E-02	-1.44074000E-02
					 8.78424000E-04	-8.19770000E-02	-1.39388000E-02
					 2.49088000E-04	-9.51395000E-02	-7.74350000E-03
					 2.47270000E-05	-1.22762000E-01	-1.28751000E-03
					 2.88310000E-04	-1.22961000E-01	 1.25811000E-02
					 2.57565000E-05	-1.22497000E-01	-1.27613000E-03
					 2.96681000E-04	-1.22695000E-01	 1.26034000E-02
					 2.58580000E-05	-1.08444000E-01	-1.07533000E-03
					 1.55936000E-04	-1.22858000E-01	 5.58502000E-03
					-9.96975000E-05	-1.08663000E-01	 1.26970000E-02
					 2.46251000E-05	-1.22633000E-01	-1.28126000E-03
					 2.90071000E-04	-1.22831000E-01	 1.26403000E-02
					 2.75946000E-05	-1.08550000E-01	-1.08622000E-03
					 1.60956000E-04	-1.22595000E-01	 5.65038000E-03
					-5.44781000E-05	-1.08764000E-01	 1.26974000E-02
					-2.51444000E-04	-1.22589000E-01	-1.51478000E-02
					-2.41864000E-04	-1.22308000E-01	-1.51496000E-02
					 1.51686000E-04	-1.08285000E-01	-1.48529000E-02
					-1.09229000E-04	-1.22679000E-01	-8.15563000E-03
					-2.49049000E-04	-1.22446000E-01	-1.51958000E-02
					 1.14107000E-04	-1.08385000E-01	-1.48717000E-02
					-1.07565000E-04	-1.22401000E-01	-8.20008000E-03
					 2.82737000E-05	-1.22220000E-01	-1.27628000E-03
					 3.21894000E-04	-1.22405000E-01	 1.26009000E-02
					 2.71850000E-05	-1.22358000E-01	-1.27607000E-03
					 3.11703000E-04	-1.22553000E-01	 1.25607000E-02
					 3.13229000E-05	-1.08608000E-01	-1.09228000E-03
					 1.71167000E-04	-1.22310000E-01	 5.69331000E-03
					 3.36473000E-06	-1.08814000E-01	 1.26852000E-02
					-2.47685000E-04	-1.22033000E-01	-1.51502000E-02
					-2.42560000E-04	-1.22171000E-01	-1.51113000E-02
					 6.52495000E-05	-1.08441000E-01	-1.48682000E-02
					-1.09536000E-04	-1.22125000E-01	-8.24202000E-03
					 5.35289000E-05	-1.50878000E-01	-1.69312000E-03
					 7.06970000E-04	-1.51103000E-01	 1.21311000E-02
					 1.07268000E-05	-1.50263000E-01	-1.66379000E-03
					 6.60163000E-04	-1.50482000E-01	 1.21822000E-02
					 3.40097000E-05	-1.36943000E-01	-1.49864000E-03
					 3.84067000E-04	-1.50997000E-01	 5.21000000E-03
					 5.69843000E-04	-1.37144000E-01	 1.23607000E-02
					 3.75014000E-05	-1.50564000E-01	-1.67415000E-03
					 6.86825000E-04	-1.50790000E-01	 1.21674000E-02
					 2.11023000E-05	-1.36416000E-01	-1.46783000E-03
					 3.39443000E-04	-1.50379000E-01	 5.25984000E-03
					 5.54810000E-04	-1.36619000E-01	 1.24042000E-02
					-6.13860000E-04	-1.50668000E-01	-1.54854000E-02
					-6.07230000E-04	-1.50034000E-01	-1.54755000E-02
					-5.18374000E-04	-1.36756000E-01	-1.53279000E-02
					-2.78146000E-04	-1.50771000E-01	-8.58970000E-03
					-6.08466000E-04	-1.50339000E-01	-1.54799000E-02
					-4.93362000E-04	-1.36215000E-01	-1.53170000E-02
					-3.06594000E-04	-1.50146000E-01	-8.57816000E-03
					-2.54771000E-05	-1.49657000E-01	-1.68175000E-03
					 6.54811000E-04	-1.49827000E-01	 1.21907000E-02
					-1.46516000E-05	-1.49964000E-01	-1.66679000E-03
					 6.54367000E-04	-1.50162000E-01	 1.21815000E-02
					 1.28493000E-05	-1.35895000E-01	-1.47556000E-03
					 3.11849000E-04	-1.49743000E-01	 5.26828000E-03
					 5.61688000E-04	-1.36071000E-01	 1.24077000E-02
					-6.34624000E-04	-1.49461000E-01	-1.55214000E-02
					-6.23267000E-04	-1.49743000E-01	-1.54852000E-02
					-4.87630000E-04	-1.35719000E-01	-1.53445000E-02
					-3.43959000E-04	-1.49563000E-01	-8.61977000E-03
					 0.00000000E+00	 0.00000000E+00	 0.00000000E+00
					 0.00000000E+00	 0.00000000E+00	 0.00000000E+00
					 8.06588000E-05	-6.59483000E-03	-4.14030000E-05
					-1.56615000E-03	-7.16844000E-03	 7.53350000E-03
					 0.00000000E+00	 0.00000000E+00	 0.00000000E+00
					 0.00000000E+00	 0.00000000E+00	 0.00000000E+00
					 8.60627000E-05	-7.67869000E-03	 2.47082000E-05
					-4.58105000E-04	-8.28965000E-03	 7.66046000E-03
					 0.00000000E+00	 0.00000000E+00	 0.00000000E+00
					 2.08033000E-05	-1.09731000E-03	-1.06061000E-05
					-7.44575000E-04	-6.69849000E-03	 3.77857000E-03
					-1.35235000E-03	-1.77714000E-03	 3.67799000E-03
					 0.00000000E+00	 0.00000000E+00	 0.00000000E+00
					 0.00000000E+00	 0.00000000E+00	 0.00000000E+00
					 8.14091000E-05	-7.31581000E-03	-1.01696000E-05
					-1.00684000E-03	-7.90421000E-03	 7.52476000E-03
					 0.00000000E+00	 0.00000000E+00	 0.00000000E+00
					 2.13229000E-05	-1.85009000E-03	 2.06983000E-05
					-1.83842000E-04	-7.79351000E-03	 3.80252000E-03
					-2.18970000E-04	-2.53072000E-03	 3.59264000E-03
					 0.00000000E+00	 0.00000000E+00	 0.00000000E+00
					 1.71129000E-03	-7.02890000E-03	-7.63377000E-03
					 0.00000000E+00	 0.00000000E+00	 0.00000000E+00
					 6.22994000E-04	-8.13108000E-03	-7.63162000E-03
					 0.00000000E+00	 0.00000000E+00	 0.00000000E+00
					 1.37884000E-03	-1.73239000E-03	-3.70044000E-03
					 9.01704000E-04	-6.62545000E-03	-3.86770000E-03
					 0.00000000E+00	 0.00000000E+00	 0.00000000E+00
					 1.15999000E-03	-7.75450000E-03	-7.56365000E-03
					 0.00000000E+00	 0.00000000E+00	 0.00000000E+00
					 2.53017000E-04	-2.46703000E-03	-3.54717000E-03
					 3.54071000E-04	-7.71294000E-03	-3.76107000E-03
					 0.00000000E+00	 0.00000000E+00	 0.00000000E+00
					 0.00000000E+00	 0.00000000E+00	 0.00000000E+00
					 9.96095000E-05	-7.68038000E-03	 1.05135000E-04
					 6.73038000E-04	-8.25907000E-03	 7.68131000E-03
					 0.00000000E+00	 0.00000000E+00	 0.00000000E+00
					 0.00000000E+00	 0.00000000E+00	 0.00000000E+00
					 9.14896000E-05	-7.85809000E-03	 6.20448000E-05
					 1.00025000E-04	-8.44957000E-03	 7.71396000E-03
					 0.00000000E+00	 0.00000000E+00	 0.00000000E+00
					 3.53769000E-05	-1.57040000E-03	 6.53507000E-05
					 3.88895000E-04	-7.78436000E-03	 3.80936000E-03
					 9.51188000E-04	-2.25044000E-03	 3.75824000E-03
					 0.00000000E+00	 0.00000000E+00	 0.00000000E+00
					-4.78169000E-04	-8.08119000E-03	-7.48987000E-03
					 0.00000000E+00	 0.00000000E+00	 0.00000000E+00
					 7.46784000E-05	-8.28479000E-03	-7.60972000E-03
					 0.00000000E+00	 0.00000000E+00	 0.00000000E+00
					-8.86329000E-04	-2.16008000E-03	-3.62402000E-03
					-1.88431000E-04	-7.69576000E-03	-3.60604000E-03
					 3.24800000E-04	-2.88433000E-02	-2.87507000E-04
					-2.21331000E-03	-2.95361000E-02	 1.44414000E-02
					 3.33099000E-04	-3.08959000E-02	-2.01334000E-04
					-1.25401000E-03	-3.15959000E-02	 1.45585000E-02
					 1.86010000E-04	-1.58933000E-02	-1.26273000E-04
					-9.41580000E-04	-2.90795000E-02	 7.08723000E-03
					-1.87140000E-03	-1.65778000E-02	 1.11925000E-02
					 3.28647000E-04	-2.99802000E-02	-2.47221000E-04
					-1.73246000E-03	-3.06748000E-02	 1.44241000E-02
					 1.88427000E-04	-1.74189000E-02	-4.30107000E-05
					-4.53939000E-04	-3.11327000E-02	 7.11569000E-03
					-8.01797000E-04	-1.81020000E-02	 1.13008000E-02
					 2.85647000E-03	-2.90650000E-02	-1.50519000E-02
					 1.91041000E-03	-3.11261000E-02	-1.49969000E-02
					 2.22912000E-03	-1.62939000E-02	-1.14746000E-02
					 1.58770000E-03	-2.88414000E-02	-7.67197000E-03
					 2.38519000E-03	-3.02126000E-02	-1.49502000E-02
					 1.17112000E-03	-1.78078000E-02	-1.14162000E-02
					 1.12165000E-03	-3.08998000E-02	-7.52381000E-03
					 3.36968000E-04	-3.20159000E-02	-8.66631000E-05
					-2.65916000E-04	-3.26862000E-02	 1.46386000E-02
					 3.34889000E-04	-3.15630000E-02	-1.48417000E-04
					-7.59589000E-04	-3.22880000E-02	 1.47071000E-02
					 1.95175000E-04	-1.78756000E-02	 6.17708000E-05
					 2.46509000E-05	-3.22327000E-02	 7.10205000E-03
					 2.98242000E-04	-1.85451000E-02	 1.13810000E-02
					 9.62169000E-04	-3.22260000E-02	-1.48486000E-02
					 1.43460000E-03	-3.17891000E-02	-1.50452000E-02
					 1.00628000E-04	-1.82445000E-02	-1.12837000E-02
					 6.56413000E-04	-3.20094000E-02	-7.27839000E-03
					 6.81865000E-04	-6.40514000E-02	-8.85098000E-04
					-2.73292000E-03	-6.46889000E-02	 1.89233000E-02
					 7.00602000E-04	-6.71635000E-02	-8.13269000E-04
					-2.15249000E-03	-6.79054000E-02	 1.90405000E-02
					 4.95621000E-04	-4.50830000E-02	-5.36810000E-04
					-1.02210000E-03	-6.42968000E-02	 8.97166000E-03
					-2.51212000E-03	-4.57747000E-02	 1.70510000E-02
					 6.92335000E-04	-6.56806000E-02	-8.46997000E-04
					-2.44434000E-03	-6.63813000E-02	 1.89175000E-02
					 5.06698000E-04	-4.76952000E-02	-4.59327000E-04
					-7.51308000E-04	-6.74623000E-02	 8.98809000E-03
					-1.72782000E-03	-4.84030000E-02	 1.71754000E-02
					 4.06623000E-03	-6.39104000E-02	-2.07047000E-02
					 3.55729000E-03	-6.70424000E-02	-2.07146000E-02
					 3.49557000E-03	-4.51252000E-02	-1.81596000E-02
					 2.37478000E-03	-6.39138000E-02	-1.07386000E-02
					 3.81010000E-03	-6.55449000E-02	-2.06507000E-02
					 2.74305000E-03	-4.77412000E-02	-1.81322000E-02
					 2.13057000E-03	-6.70430000E-02	-1.06416000E-02
					 7.10228000E-04	-6.97562000E-02	-7.21853000E-04
					-1.67564000E-03	-7.06082000E-02	 1.90781000E-02
					 7.06950000E-04	-6.85419000E-02	-7.74065000E-04
					-1.91694000E-03	-6.92129000E-02	 1.91831000E-02
					 5.22221000E-04	-4.95573000E-02	-3.53069000E-04
					-4.51599000E-04	-7.01114000E-02	 8.92454000E-03
					-9.80973000E-04	-5.02879000E-02	 1.72330000E-02
					 3.05542000E-03	-6.96639000E-02	-2.05978000E-02
					 3.30794000E-03	-6.84113000E-02	-2.07830000E-02
					 1.98675000E-03	-4.95981000E-02	-1.79817000E-02
					 1.87386000E-03	-6.96630000E-02	-1.04182000E-02
					 1.14134000E-03	-1.06368000E-01	-1.75085000E-03
					-3.04373000E-03	-1.06790000E-01	 1.98560000E-02