# vtk DataFile Version 3.0

ASCII
DATASET UNSTRUCTURED_GRID

POINTS 522 double
	 1.00000000E+00	 1.00000000E+00	-5.96046000E-08
	 1.00000000E+00	 5.00000000E-01	-5.96046000E-08
	 1.00000000E+00	 5.00000000E-01	 1.00000000E+00
	 1.00000000E+00	 1.00000000E+00	 1.00000000E+00
	 5.00000000E-01	 1.00000000E+00	-5.96046000E-08
	 5.00000000E-01	 5.00000000E-01	-5.96046000E-08
	 5.00000000E-01	 5.00000000E-01	 1.00000000E+00
	 5.00000000E-01	 1.00000000E+00	 1.00000000E+00
	 1.00000000E+00	 7.50000000E-01	-5.96046000E-08
	 1.00000000E+00	 5.00000000E-01	 5.00000000E-01
	 1.00000000E+00	 7.50000000E-01	 1.00000000E+00
	 1.00000000E+00	 1.00000000E+00	 5.00000000E-01
	 7.50000000E-01	 1.00000000E+00	-5.96046000E-08
	 7.50000000E-01	 5.00000000E-01	-5.96046000E-08
	 7.50000000E-01	 5.00000000E-01	 1.00000000E+00
	 7.50000000E-01	 1.00000000E+00	 1.00000000E+00
	 5.00000000E-01	 7.50000000E-01	-5.96046000E-08
	 5.00000000E-01	 5.00000000E-01	 5.00000000E-01
	 5.00000000E-01	 7.50000000E-01	 1.00000000E+00
	 5.00000000E-01	 1.00000000E+00	 5.00000000E-01
	 1.00000000E+00	-1.49012000E-08	-5.96046000E-08
	 1.00000000E+00	-1.49012000E-08	 1.00000000E+00
	 5.00000000E-01	-1.49012000E-08	-5.96046000E-08
	 5.00000000E-01	-1.49012000E-08	 1.00000000E+00
	 1.00000000E+00	 2.50000000E-01	-5.96046000E-08
	 1.00000000E+00	-1.49012000E-08	 5.00000000E-01
	 1.00000000E+00	 2.50000000E-01	 1.00000000E+00
	 7.50000000E-01	-1.49012000E-08	-5.96046000E-08
	 7.50000000E-01	-1.49012000E-08	 1.00000000E+00
	 5.00000000E-01	 2.50000000E-01	-5.96046000E-08
	 5.00000000E-01	-1.49012000E-08	 5.00000000E-01
	 5.00000000E-01	 2.50000000E-01	 1.00000000E+00
	-7.45058000E-09	 1.00000000E+00	-5.96046000E-08
	-7.45058000E-09	 5.00000000E-01	-5.96046000E-08
	-7.45058000E-09	 5.00000000E-01	 1.00000000E+00
	-7.45058000E-09	 1.00000000E+00	 1.00000000E+00
	 2.50000000E-01	 1.00000000E+00	-5.96046000E-08
	 2.50000000E-01	 5.00000000E-01	-5.96046000E-08
	 2.50000000E-01	 5.00000000E-01	 1.00000000E+00
	 2.50000000E-01	 1.00000000E+00	 1.00000000E+00
	-7.45058000E-09	 7.50000000E-01	-5.96046000E-08
	-7.45058000E-09	 5.00000000E-01	 5.00000000E-01
	-7.45058000E-09	 7.50000000E-01	 1.00000000E+00
	-7.45058000E-09	 1.00000000E+00	 5.00000000E-01
	-7.45058000E-09	-1.49012000E-08	-5.96046000E-08
	-7.45058000E-09	-1.49012000E-08	 1.00000000E+00
	 2.50000000E-01	-1.49012000E-08	-5.96046000E-08
	 2.50000000E-01	-1.49012000E-08	 1.00000000E+00
	-7.45058000E-09	 2.50000000E-01	-5.96046000E-08
	-7.45058000E-09	-1.49012000E-08	 5.00000000E-01
	-7.45058000E-09	 2.50000000E-01	 1.00000000E+00
	 1.00000000E+00	 5.00000000E-01	 2.00000000E+00
	 1.00000000E+00	 1.00000000E+00	 2.00000000E+00
	 5.00000000E-01	 5.00000000E-01	 2.00000000E+00
	 5.00000000E-01	 1.00000000E+00	 2.00000000E+00
	 1.00000000E+00	 5.00000000E-01	 1.50000000E+00
	 1.00000000E+00	 7.50000000E-01	 2.00000000E+00
	 1.00000000E+00	 1.00000000E+00	 1.50000000E+00
	 7.50000000E-01	 5.00000000E-01	 2.00000000E+00
	 7.50000000E-01	 1.00000000E+00	 2.00000000E+00
	 5.00000000E-01	 5.00000000E-01	 1.50000000E+00
	 5.00000000E-01	 7.50000000E-01	 2.00000000E+00
	 5.00000000E-01	 1.00000000E+00	 1.50000000E+00
	 1.00000000E+00	-1.49012000E-08	 2.00000000E+00
	 5.00000000E-01	-1.49012000E-08	 2.00000000E+00
	 1.00000000E+00	-1.49012000E-08	 1.50000000E+00
	 1.00000000E+00	 2.50000000E-01	 2.00000000E+00
	 7.50000000E-01	-1.49012000E-08	 2.00000000E+00
	 5.00000000E-01	-1.49012000E-08	 1.50000000E+00
	 5.00000000E-01	 2.50000000E-01	 2.00000000E+00
	-7.45058000E-09	 5.00000000E-01	 2.00000000E+00
	-7.45058000E-09	 1.00000000E+00	 2.00000000E+00
	 2.50000000E-01	 5.00000000E-01	 2.00000000E+00
	 2.50000000E-01	 1.00000000E+00	 2.00000000E+00
	-7.45058000E-09	 5.00000000E-01	 1.50000000E+00
	-7.45058000E-09	 7.50000000E-01	 2.00000000E+00
	-7.45058000E-09	 1.00000000E+00	 1.50000000E+00
	-7.45058000E-09	-1.49012000E-08	 2.00000000E+00
	 2.50000000E-01	-1.49012000E-08	 2.00000000E+00
	-7.45058000E-09	-1.49012000E-08	 1.50000000E+00
	-7.45058000E-09	 2.50000000E-01	 2.00000000E+00
	 1.00000000E+00	 5.00000000E-01	 3.00000000E+00
	 1.00000000E+00	 1.00000000E+00	 3.00000000E+00
	 5.00000000E-01	 5.00000000E-01	 3.00000000E+00
	 5.00000000E-01	 1.00000000E+00	 3.00000000E+00
	 1.00000000E+00	 5.00000000E-01	 2.50000000E+00
	 1.00000000E+00	 7.50000000E-01	 3.00000000E+00
	 1.00000000E+00	 1.00000000E+00	 2.50000000E+00
	 7.50000000E-01	 5.00000000E-01	 3.00000000E+00
	 7.50000000E-01	 1.00000000E+00	 3.00000000E+00
	 5.00000000E-01	 5.00000000E-01	 2.50000000E+00
	 5.00000000E-01	 7.50000000E-01	 3.00000000E+00
	 5.00000000E-01	 1.00000000E+00	 2.50000000E+00
	 1.00000000E+00	-1.49012000E-08	 3.00000000E+00
	 5.00000000E-01	-1.49012000E-08	 3.00000000E+00
	 1.00000000E+00	-1.49012000E-08	 2.50000000E+00
	 1.00000000E+00	 2.50000000E-01	 3.00000000E+00
	 7.50000000E-01	-1.49012000E-08	 3.00000000E+00
	 5.00000000E-01	-1.49012000E-08	 2.50000000E+00
	 5.00000000E-01	 2.50000000E-01	 3.00000000E+00
	-7.45058000E-09	 5.00000000E-01	 3.00000000E+00
	-7.45058000E-09	 1.00000000E+00	 3.00000000E+00
	 2.50000000E-01	 5.00000000E-01	 3.00000000E+00
	 2.50000000E-01	 1.00000000E+00	 3.00000000E+00
	-7.45058000E-09	 5.00000000E-01	 2.50000000E+00
	-7.45058000E-09	 7.50000000E-01	 3.00000000E+00
	-7.45058000E-09	 1.00000000E+00	 2.50000000E+00
	-7.45058000E-09	-1.49012000E-08	 3.00000000E+00
	 2.50000000E-01	-1.49012000E-08	 3.00000000E+00
	-7.45058000E-09	-1.49012000E-08	 2.50000000E+00
	-7.45058000E-09	 2.50000000E-01	 3.00000000E+00
	 1.00000000E+00	 5.00000000E-01	 4.00000000E+00
	 1.00000000E+00	 1.00000000E+00	 4.00000000E+00
	 5.00000000E-01	 5.00000000E-01	 4.00000000E+00
	 5.00000000E-01	 1.00000000E+00	 4.00000000E+00
	 1.00000000E+00	 5.00000000E-01	 3.50000000E+00
	 1.00000000E+00	 7.50000000E-01	 4.00000000E+00
	 1.00000000E+00	 1.00000000E+00	 3.50000000E+00
	 7.50000000E-01	 5.00000000E-01	 4.00000000E+00
	 7.50000000E-01	 1.00000000E+00	 4.00000000E+00
	 5.00000000E-01	 5.00000000E-01	 3.50000000E+00
	 5.00000000E-01	 7.50000000E-01	 4.00000000E+00
	 5.00000000E-01	 1.00000000E+00	 3.50000000E+00
	 1.00000000E+00	-1.49012000E-08	 4.00000000E+00
	 5.00000000E-01	-1.49012000E-08	 4.00000000E+00
	 1.00000000E+00	-1.49012000E-08	 3.50000000E+00
	 1.00000000E+00	 2.50000000E-01	 4.00000000E+00
	 7.50000000E-01	-1.49012000E-08	 4.00000000E+00
	 5.00000000E-01	-1.49012000E-08	 3.50000000E+00
	 5.00000000E-01	 2.50000000E-01	 4.00000000E+00
	-7.45058000E-09	 5.00000000E-01	 4.00000000E+00
	-7.45058000E-09	 1.00000000E+00	 4.00000000E+00
	 2.50000000E-01	 5.00000000E-01	 4.00000000E+00
	 2.50000000E-01	 1.00000000E+00	 4.00000000E+00
	-7.45058000E-09	 5.00000000E-01	 3.50000000E+00
	-7.45058000E-09	 7.50000000E-01	 4.00000000E+00
	-7.45058000E-09	 1.00000000E+00	 3.50000000E+00
	-7.45058000E-09	-1.49012000E-08	 4.00000000E+00
	 2.50000000E-01	-1.49012000E-08	 4.00000000E+00
	-7.45058000E-09	-1.49012000E-08	 3.50000000E+00
	-7.45058000E-09	 2.50000000E-01	 4.00000000E+00
	 1.00000000E+00	 5.00000000E-01	 5.00000000E+00
	 1.00000000E+00	 1.00000000E+00	 5.00000000E+00
	 5.00000000E-01	 5.00000000E-01	 5.00000000E+00
	 5.00000000E-01	 1.00000000E+00	 5.00000000E+00
	 1.00000000E+00	 5.00000000E-01	 4.50000000E+00
	 1.00000000E+00	 7.50000000E-01	 5.00000000E+00
	 1.00000000E+00	 1.00000000E+00	 4.50000000E+00
	 7.50000000E-01	 5.00000000E-01	 5.00000000E+00
	 7.50000000E-01	 1.00000000E+00	 5.00000000E+00
	 5.00000000E-01	 5.00000000E-01	 4.50000000E+00
	 5.00000000E-01	 7.50000000E-01	 5.00000000E+00
	 5.00000000E-01	 1.00000000E+00	 4.50000000E+00
	 1.00000000E+00	-1.49012000E-08	 5.00000000E+00
	 5.00000000E-01	-1.49012000E-08	 5.00000000E+00
	 1.00000000E+00	-1.49012000E-08	 4.50000000E+00
	 1.00000000E+00	 2.50000000E-01	 5.00000000E+00
	 7.50000000E-01	-1.49012000E-08	 5.00000000E+00
	 5.00000000E-01	-1.49012000E-08	 4.50000000E+00
	 5.00000000E-01	 2.50000000E-01	 5.00000000E+00
	-7.45058000E-09	 5.00000000E-01	 5.00000000E+00
	-7.45058000E-09	 1.00000000E+00	 5.00000000E+00
	 2.50000000E-01	 5.00000000E-01	 5.00000000E+00
	 2.50000000E-01	 1.00000000E+00	 5.00000000E+00
	-7.45058000E-09	 5.00000000E-01	 4.50000000E+00
	-7.45058000E-09	 7.50000000E-01	 5.00000000E+00
	-7.45058000E-09	 1.00000000E+00	 4.50000000E+00
	-7.45058000E-09	-1.49012000E-08	 5.00000000E+00
	 2.50000000E-01	-1.49012000E-08	 5.00000000E+00
	-7.45058000E-09	-1.49012000E-08	 4.50000000E+00
	-7.45058000E-09	 2.50000000E-01	 5.00000000E+00
	 1.00000000E+00	 5.00000000E-01	 6.00000000E+00
	 1.00000000E+00	 1.00000000E+00	 6.00000000E+00
	 5.00000000E-01	 5.00000000E-01	 6.00000000E+00
	 5.00000000E-01	 1.00000000E+00	 6.00000000E+00
	 1.00000000E+00	 5.00000000E-01	 5.50000000E+00
	 1.00000000E+00	 7.50000000E-01	 6.00000000E+00
	 1.00000000E+00	 1.00000000E+00	 5.50000000E+00
	 7.50000000E-01	 5.00000000E-01	 6.00000000E+00
	 7.50000000E-01	 1.00000000E+00	 6.00000000E+00
	 5.00000000E-01	 5.00000000E-01	 5.50000000E+00
	 5.00000000E-01	 7.50000000E-01	 6.00000000E+00
	 5.00000000E-01	 1.00000000E+00	 5.50000000E+00
	 1.00000000E+00	-1.49012000E-08	 6.00000000E+00
	 5.00000000E-01	-1.49012000E-08	 6.00000000E+00
	 1.00000000E+00	-1.49012000E-08	 5.50000000E+00
	 1.00000000E+00	 2.50000000E-01	 6.00000000E+00
	 7.50000000E-01	-1.49012000E-08	 6.00000000E+00
	 5.00000000E-01	-1.49012000E-08	 5.50000000E+00
	 5.00000000E-01	 2.50000000E-01	 6.00000000E+00
	-7.45058000E-09	 5.00000000E-01	 6.00000000E+00
	-7.45058000E-09	 1.00000000E+00	 6.00000000E+00
	 2.50000000E-01	 5.00000000E-01	 6.00000000E+00
	 2.50000000E-01	 1.00000000E+00	 6.00000000E+00
	-7.45058000E-09	 5.00000000E-01	 5.50000000E+00
	-7.45058000E-09	 7.50000000E-01	 6.00000000E+00
	-7.45058000E-09	 1.00000000E+00	 5.50000000E+00
	-7.45058000E-09	-1.49012000E-08	 6.00000000E+00
	 2.50000000E-01	-1.49012000E-08	 6.00000000E+00
	-7.45058000E-09	-1.49012000E-08	 5.50000000E+00
	-7.45058000E-09	 2.50000000E-01	 6.00000000E+00
	 1.00000000E+00	 5.00000000E-01	 7.00000000E+00
[...]
POINT_DATA 522
FIELD U 1
	U 3 522 double
		 0.00000000E+00	 0.00000000E+00	 0.00000000E+00
		 0.00000000E+00	 0.00000000E+00	 0.00000000E+00
		 1.02594000E-06	-2.23387000E-03	 8.69919000E-07
		 1.01342000E-03	-2.31454000E-03	 1.22078000E-03
		 0.00000000E+00	 0.00000000E+00	 0.00000000E+00
		 0.00000000E+00	 0.00000000E+00	 0.00000000E+00
		 2.90836000E-06	-1.12026000E-03	 9.01942000E-06
		 1.20325000E-03	-1.21494000E-03	 1.24267000E-03
		 0.00000000E+00	 0.00000000E+00	 0.00000000E+00
		-2.30332000E-06	-7.14725000E-04	 8.10809000E-07
		 5.09716000E-04	-2.24282000E-03	 4.94756000E-04
		 3.89966000E-04	-7.96204000E-04	 5.78463000E-04
		 0.00000000E+00	 0.00000000E+00	 0.00000000E+00
		 0.00000000E+00	 0.00000000E+00	 0.00000000E+00
		 1.61745000E-06	-1.70485000E-03	 5.20635000E-06
		 1.10842000E-03	-1.79660000E-03	 1.33844000E-03
		 0.00000000E+00	 0.00000000E+00	 0.00000000E+00
		-1.39650000E-06	-1.98482000E-04	 3.75093000E-06
		 6.01963000E-04	-1.13538000E-03	 6.15898000E-04
		 5.99145000E-04	-3.04384000E-04	 5.61176000E-04
		 0.00000000E+00	 0.00000000E+00	 0.00000000E+00
		-1.01022000E-03	-2.30319000E-03	-1.21793000E-03
		 0.00000000E+00	 0.00000000E+00	 0.00000000E+00
		-1.19500000E-03	-1.20383000E-03	-1.22421000E-03
		 0.00000000E+00	 0.00000000E+00	 0.00000000E+00
		-3.94331000E-04	-7.91789000E-04	-5.75145000E-04
		-5.07221000E-04	-2.23690000E-03	-4.92693000E-04
		 0.00000000E+00	 0.00000000E+00	 0.00000000E+00
		-1.10311000E-03	-1.78501000E-03	-1.32743000E-03
		 0.00000000E+00	 0.00000000E+00	 0.00000000E+00
		-6.00758000E-04	-2.99223000E-04	-5.52547000E-04
		-5.94951000E-04	-1.12968000E-03	-5.97890000E-04
		 0.00000000E+00	 0.00000000E+00	 0.00000000E+00
		 0.00000000E+00	 0.00000000E+00	 0.00000000E+00
		 7.23599000E-06	 1.63937000E-04	 1.73193000E-05
		 1.38314000E-03	 7.19112000E-05	 1.23758000E-03
		 0.00000000E+00	 0.00000000E+00	 0.00000000E+00
		 0.00000000E+00	 0.00000000E+00	 0.00000000E+00
		 4.59636000E-06	-5.08563000E-04	 1.27518000E-05
		 1.29127000E-03	-5.99143000E-04	 1.13317000E-03
		 0.00000000E+00	 0.00000000E+00	 0.00000000E+00
		 1.47203000E-06	 4.85450000E-04	 7.45348000E-06
		 6.96839000E-04	 1.48288000E-04	 7.24719000E-04
		 7.64952000E-04	 3.58251000E-04	 5.84848000E-04
		 0.00000000E+00	 0.00000000E+00	 0.00000000E+00
		-1.36605000E-03	 8.14790000E-05	-1.20309000E-03
		 0.00000000E+00	 0.00000000E+00	 0.00000000E+00
		-1.27927000E-03	-5.88660000E-04	-1.10747000E-03
		 0.00000000E+00	 0.00000000E+00	 0.00000000E+00
		-7.60741000E-04	 3.63514000E-04	-5.69717000E-04
		-6.81426000E-04	 1.52778000E-04	-6.90319000E-04
		 1.02810000E-05	-7.09046000E-03	 9.31630000E-06
		 2.18936000E-03	-7.15171000E-03	 2.14488000E-03
		 1.81908000E-05	-4.88582000E-03	 1.92295000E-05
		 2.26361000E-03	-4.93657000E-03	 2.16482000E-03
		 7.29235000E-06	-4.44983000E-03	 3.11512000E-06
		 1.09690000E-03	-7.11485000E-03	 9.85657000E-04
		 1.63956000E-03	-4.53510000E-03	 1.76883000E-03
		 1.45464000E-05	-5.99653000E-03	 1.45257000E-05
		 2.22738000E-03	-6.04890000E-03	 2.22382000E-03
		 1.16644000E-05	-2.75868000E-03	 1.38624000E-05
		 1.14227000E-03	-4.90524000E-03	 1.06785000E-03
		 1.77239000E-03	-2.83520000E-03	 1.79371000E-03
		-2.16708000E-03	-7.12127000E-03	-2.12726000E-03
		-2.22467000E-03	-4.90879000E-03	-2.12747000E-03
		-1.62364000E-03	-4.51375000E-03	-1.76253000E-03
		-1.07588000E-03	-7.10009000E-03	-9.67551000E-04
		-2.19613000E-03	-6.01919000E-03	-2.19573000E-03
		-1.74633000E-03	-2.81524000E-03	-1.76594000E-03
		-1.10498000E-03	-4.89114000E-03	-1.02977000E-03
		 2.58002000E-05	-2.60351000E-03	 3.13617000E-05
		 2.35403000E-03	-2.64552000E-03	 2.16704000E-03
		 2.18448000E-05	-3.75112000E-03	 2.45602000E-05
		 2.30961000E-03	-3.80028000E-03	 2.11313000E-03
		 1.71263000E-05	-9.32528000E-04	 2.53618000E-05
		 1.18821000E-03	-2.61741000E-03	 1.12890000E-03
		 1.92467000E-03	-9.97382000E-04	 1.79201000E-03
		-2.29928000E-03	-2.62168000E-03	-2.10541000E-03
		-2.26287000E-03	-3.77459000E-03	-2.06499000E-03
		-1.88698000E-03	-9.80417000E-04	-1.74106000E-03
		-1.13568000E-03	-2.60510000E-03	-1.06655000E-03
		-7.09858000E-06	-1.24150000E-02	 3.25950000E-05
		 2.86272000E-03	-1.24724000E-02	 2.46072000E-03
		 8.36072000E-06	-9.53519000E-03	 3.47543000E-05
		 2.91761000E-03	-9.57724000E-03	 2.45626000E-03
		 5.22275000E-06	-9.81104000E-03	 2.00558000E-05
		 1.42438000E-03	-1.24389000E-02	 1.23880000E-03
		 2.61054000E-03	-9.87058000E-03	 2.32056000E-03
		 1.62149000E-07	-1.09817000E-02	 3.28995000E-05
		 2.89044000E-03	-1.10280000E-02	 2.48287000E-03
		 1.70062000E-05	-7.19928000E-03	 2.61307000E-05
		 1.46326000E-03	-9.55124000E-03	 1.26415000E-03
		 2.65428000E-03	-7.24413000E-03	 2.32918000E-03
		-2.87081000E-03	-1.24313000E-02	-2.39768000E-03
		-2.89780000E-03	-9.54405000E-03	-2.38856000E-03
		-2.59626000E-03	-9.83365000E-03	-2.28229000E-03
		-1.43703000E-03	-1.24184000E-02	-1.17435000E-03
		-2.88477000E-03	-1.09915000E-02	-2.41897000E-03
		-2.61738000E-03	-7.21285000E-03	-2.27908000E-03
		-1.44559000E-03	-9.53539000E-03	-1.19520000E-03
		 2.33107000E-05	-6.59933000E-03	 3.90044000E-05
		 2.98761000E-03	-6.63638000E-03	 2.46710000E-03
		 1.65398000E-05	-8.07258000E-03	 3.71766000E-05
		 2.95329000E-03	-8.11226000E-03	 2.42573000E-03
		 2.84001000E-05	-4.54003000E-03	 3.54246000E-05
		 1.50567000E-03	-6.61234000E-03	 1.30675000E-03
		 2.71174000E-03	-4.58124000E-03	 2.33528000E-03
		-2.94123000E-03	-6.60412000E-03	-2.39062000E-03
		-2.91930000E-03	-8.08034000E-03	-2.35273000E-03
		-2.65343000E-03	-4.55286000E-03	-2.26694000E-03
		-1.45918000E-03	-6.59647000E-03	-1.22949000E-03
		-4.03385000E-05	-1.76392000E-02	 4.38948000E-05
		 2.81325000E-03	-1.77376000E-02	 3.16228000E-03
		-2.72866000E-05	-1.47125000E-02	 4.72932000E-05
		 2.96826000E-03	-1.48075000E-02	 3.16230000E-03
		-2.32537000E-05	-1.49202000E-02	 4.23791000E-05
		 1.38592000E-03	-1.76683000E-02	 1.63397000E-03
		 2.91466000E-03	-1.50010000E-02	 2.73929000E-03
		-3.47971000E-05	-1.61965000E-02	 4.55139000E-05
		 2.89085000E-03	-1.62913000E-02	 3.14190000E-03
		-7.56339000E-06	-1.19419000E-02	 4.31456000E-05
		 1.47134000E-03	-1.47381000E-02	 1.61625000E-03
		 3.02185000E-03	-1.20102000E-02	 2.72872000E-03
		-2.89159000E-03	-1.76984000E-02	-3.07642000E-03
		-3.02480000E-03	-1.47684000E-02	-3.06889000E-03
		-2.95602000E-03	-1.49604000E-02	-2.65692000E-03
		-1.46581000E-03	-1.76485000E-02	-1.54630000E-03
		-2.95917000E-03	-1.62535000E-02	-3.05289000E-03
		-3.03588000E-03	-1.19749000E-02	-2.64348000E-03
		-1.52621000E-03	-1.47195000E-02	-1.52188000E-03
		-1.17207000E-05	-1.16446000E-02	 4.89726000E-05
		 3.14033000E-03	-1.17322000E-02	 3.16840000E-03
		-1.92790000E-05	-1.31968000E-02	 4.86932000E-05
		 3.05433000E-03	-1.32915000E-02	 3.18004000E-03
		 8.84782000E-06	-8.86151000E-03	 4.35827000E-05
		 1.56189000E-03	-1.16672000E-02	 1.60539000E-03
		 3.15028000E-03	-8.92040000E-03	 2.74163000E-03
		-3.17049000E-03	-1.16833000E-02	-3.07075000E-03
		-3.09824000E-03	-1.32485000E-02	-3.08305000E-03
		-3.13560000E-03	-8.88132000E-03	-2.65417000E-03
		-1.58683000E-03	-1.16428000E-02	-1.50765000E-03
		-5.71979000E-05	-2.46433000E-02	 2.16306000E-05
		 2.45125000E-03	-2.47124000E-02	 4.06546000E-03
		-4.90297000E-05	-2.20871000E-02	 3.22971000E-05
		 2.55231000E-03	-2.21567000E-02	 4.08805000E-03
		-5.12109000E-05	-2.08818000E-02	 3.48503000E-05
		 1.19786000E-03	-2.46650000E-02	 2.05128000E-03
		 2.65033000E-03	-2.09668000E-02	 3.66015000E-03
		-5.33752000E-05	-2.33774000E-02	 2.74191000E-05
		 2.50201000E-03	-2.34470000E-02	 4.04518000E-03
		-4.10720000E-05	-1.81098000E-02	 4.36110000E-05
		 1.25172000E-03	-2.21082000E-02	 2.03421000E-03
		 2.79567000E-03	-1.81950000E-02	 3.67612000E-03
		-2.56435000E-03	-2.46653000E-02	-4.02166000E-03
		-2.65011000E-03	-2.21097000E-02	-4.02363000E-03
		-2.75207000E-03	-2.09253000E-02	-3.59124000E-03
		-1.31180000E-03	-2.46414000E-02	-2.00793000E-03
		-2.60771000E-03	-2.34009000E-02	-3.98972000E-03
		-2.88000000E-03	-1.81517000E-02	-3.59023000E-03
		-1.34949000E-03	-2.20857000E-02	-1.96954000E-03
		-3.95323000E-05	-1.94408000E-02	 4.34694000E-05
		 2.65720000E-03	-1.95076000E-02	 4.08753000E-03
		-4.44320000E-05	-2.07760000E-02	 3.71498000E-05
		 2.60424000E-03	-2.08454000E-02	 4.13415000E-03
		-2.87754000E-05	-1.52045000E-02	 5.13331000E-05
		 1.30791000E-03	-1.94604000E-02	 1.99401000E-03
		 2.95262000E-03	-1.52844000E-02	 3.67716000E-03
		-2.73741000E-03	-1.94586000E-02	-4.00144000E-03
		-2.69368000E-03	-2.07969000E-02	-4.06126000E-03
		-3.01616000E-03	-1.52323000E-02	-3.57627000E-03
		-1.38712000E-03	-1.94377000E-02	-1.90656000E-03
		-7.22960000E-05	-3.29699000E-02	-7.97625000E-06
		 2.05533000E-03	-3.29857000E-02	 4.26948000E-03
		-6.75325000E-05	-3.08522000E-02	 5.06152000E-06
		 2.04262000E-03	-3.08685000E-02	 4.29121000E-03
		-6.58899000E-05	-2.87435000E-02	 7.91260000E-06
		 9.90977000E-04	-3.29816000E-02	 2.13478000E-03
		 2.24171000E-03	-2.87852000E-02	 4.25558000E-03
		-7.02320000E-05	-3.19078000E-02	-6.88693000E-07
		 2.04846000E-03	-3.19235000E-02	 4.25613000E-03
		-5.90395000E-05	-2.64185000E-02	 1.82010000E-05
		 9.87273000E-04	-3.08642000E-02	 2.12589000E-03
		 2.28447000E-03	-2.64615000E-02	 4.27796000E-03
		-2.19995000E-03	-3.29361000E-02	-4.28310000E-03
		-2.17533000E-03	-3.08176000E-02	-4.27880000E-03
		-2.37186000E-03	-2.87348000E-02	-4.23794000E-03
		-1.13530000E-03	-3.29562000E-02	-2.14964000E-03
		-2.18796000E-03	-3.18735000E-02	-4.25560000E-03
		-2.40025000E-03	-2.64118000E-02	-4.23992000E-03
		-1.12120000E-03	-3.08387000E-02	-2.11512000E-03
		-6.02795000E-05	-2.87514000E-02	 1.49066000E-05
		 2.02807000E-03	-2.87701000E-02	 4.29067000E-03
		-6.42201000E-05	-2.97989000E-02	 9.80929000E-06
		 2.03532000E-03	-2.98157000E-02	 4.32669000E-03
		-5.03290000E-05	-2.40599000E-02	 2.83329000E-05
		 9.84925000E-04	-2.87638000E-02	 2.09540000E-03
		 2.32429000E-03	-2.41040000E-02	 4.27529000E-03
		-2.14508000E-03	-2.87219000E-02	-4.25865000E-03
		-2.16011000E-03	-2.97647000E-02	-4.30465000E-03
		-2.42220000E-03	-2.40567000E-02	-4.21716000E-03
		-1.10446000E-03	-2.87412000E-02	-2.06510000E-03
		-6.65826000E-05	-4.10635000E-02	-3.24152000E-05
		 1.75498000E-03	-4.10532000E-02	 3.89271000E-03
		-6.56646000E-05	-3.92742000E-02	-2.14717000E-05
		 1.69312000E-03	-3.92634000E-02	 3.90403000E-03
		-6.99277000E-05	-3.71304000E-02	-2.32312000E-05
		 8.43599000E-04	-4.10681000E-02	 1.95092000E-03
		 1.90087000E-03	-3.71321000E-02	 4.11622000E-03
		-6.51888000E-05	-4.01607000E-02	-2.62134000E-05
		 1.72474000E-03	-4.01500000E-02	 3.87619000E-03
		-6.77783000E-05	-3.51853000E-02	-7.97006000E-06
		 8.12347000E-04	-3.92786000E-02	 1.94027000E-03
		 1.85134000E-03	-3.51870000E-02	 4.13662000E-03
		-1.88570000E-03	-4.10046000E-02	-3.95585000E-03
		-1.81897000E-03	-3.92185000E-02	-3.94673000E-03
		-2.04168000E-03	-3.70843000E-02	-4.16042000E-03
		-9.75896000E-04	-4.10423000E-02	-2.01597000E-03
		-1.85119000E-03	-4.01035000E-02	-3.92662000E-03
		-1.98426000E-03	-3.51380000E-02	-4.15081000E-03
		-9.41625000E-04	-3.92552000E-02	-1.98317000E-03
		-6.50595000E-05	-3.75485000E-02	-9.97751000E-06
		 1.62406000E-03	-3.75387000E-02	 3.91875000E-03
		-6.62302000E-05	-3.84022000E-02	-1.61728000E-05
		 1.65747000E-03	-3.83915000E-02	 3.93181000E-03
		-6.45363000E-05	-3.32915000E-02	 3.30271000E-06
		 7.79364000E-04	-3.75525000E-02	 1.93304000E-03
		 1.79839000E-03	-3.32954000E-02	 4.14174000E-03
		-1.74680000E-03	-3.75028000E-02	-3.93985000E-03
		-1.78296000E-03	-3.83499000E-02	-3.96524000E-03
		-1.92292000E-03	-3.32511000E-02	-4.13398000E-03
		-9.07211000E-04	-3.75346000E-02	-1.95306000E-03
		-8.86797000E-05	-4.82954000E-02	-3.78388000E-05
		 1.49305000E-03	-4.82966000E-02	 3.62967000E-03
		-8.15040000E-05	-4.67208000E-02	-4.41670000E-05
		 1.49739000E-03	-4.67251000E-02	 3.62483000E-03
		-7.19795000E-05	-4.47060000E-02	-3.41063000E-05
		 7.00043000E-04	-4.82979000E-02	 1.81486000E-03
		 1.59668000E-03	-4.47136000E-02	 3.71310000E-03
		-8.60790000E-05	-4.75049000E-02	-4.25028000E-05
		 1.49600000E-03	-4.75060000E-02	 3.61370000E-03
		-7.03481000E-05	-4.30616000E-02	-3.33431000E-05
		 7.09493000E-04	-4.67232000E-02	 1.80007000E-03
		 1.55830000E-03	-4.30650000E-02	 3.71289000E-03
		-1.65632000E-03	-4.82539000E-02	-3.71385000E-03
		-1.64851000E-03	-4.66989000E-02	-3.72005000E-03
		-1.73100000E-03	-4.46635000E-02	-3.78369000E-03
		-8.73759000E-04	-4.82741000E-02	-1.89331000E-03
		-1.65398000E-03	-4.74739000E-02	-3.70614000E-03
		-1.68949000E-03	-4.30275000E-02	-3.78322000E-03
		-8.68022000E-04	-4.67101000E-02	-1.89021000E-03
		-7.28493000E-05	-4.51692000E-02	-4.03730000E-05
		 1.48853000E-03	-4.51791000E-02	 3.64999000E-03
		-7.66977000E-05	-4.59467000E-02	-4.29055000E-05
		 1.49232000E-03	-4.59517000E-02	 3.63934000E-03
		-6.75678000E-05	-4.14575000E-02	-2.48721000E-05
		 7.10865000E-04	-4.51739000E-02	 1.81212000E-03
		 1.51799000E-03	-4.14616000E-02	 3.73559000E-03
		-1.62619000E-03	-4.51599000E-02	-3.73480000E-03
		-1.63568000E-03	-4.59286000E-02	-3.73042000E-03
		-1.64498000E-03	-4.14338000E-02	-3.78998000E-03
		-8.53780000E-04	-4.51662000E-02	-1.89383000E-03
		 0.00000000E+00	 0.00000000E+00	 0.00000000E+00
		 0.00000000E+00	 0.00000000E+00	 0.00000000E+00
		 5.22728000E-05	-1.32896000E-03	 1.48196000E-05
		-2.41812000E-03	-1.52423000E-03	 3.01674000E-03
		 0.00000000E+00	 0.00000000E+00	 0.00000000E+00
		 0.00000000E+00	 0.00000000E+00	 0.00000000E+00
		 6.52320000E-05	-3.62223000E-03	 4.59806000E-05
		-2.04222000E-03	-3.82169000E-03	 3.08150000E-03
		 0.00000000E+00	 0.00000000E+00	 0.00000000E+00
		 1.49693000E-05	 1.74843000E-04	 3.10264000E-06
		-1.18737000E-03	-1.36199000E-03	 1.66598000E-03
		-1.44681000E-03	-1.27396000E-04	 1.56560000E-03
		 0.00000000E+00	 0.00000000E+00	 0.00000000E+00
		 0.00000000E+00	 0.00000000E+00	 0.00000000E+00
		 5.82298000E-05	-2.54202000E-03	 3.18363000E-05
		-2.22708000E-03	-2.73239000E-03	 2.86231000E-03
		 0.00000000E+00	 0.00000000E+00	 0.00000000E+00
		 2.14548000E-05	-1.07127000E-03	 2.05017000E-05
		-9.87464000E-04	-3.65316000E-03	 1.52273000E-03
		-1.02626000E-03	-1.34158000E-03	 1.54439000E-03
		 0.00000000E+00	 0.00000000E+00	 0.00000000E+00
		 2.52147000E-03	-1.47764000E-03	-2.98806000E-03
		 0.00000000E+00	 0.00000000E+00	 0.00000000E+00
		 2.17441000E-03	-3.77096000E-03	-2.99144000E-03
		 0.00000000E+00	 0.00000000E+00	 0.00000000E+00
		 1.47309000E-03	-1.08796000E-04	-1.55813000E-03
		 1.29230000E-03	-1.33661000E-03	-1.63780000E-03
		 0.00000000E+00	 0.00000000E+00	 0.00000000E+00
		 2.34373000E-03	-2.68443000E-03	-2.79910000E-03
		 0.00000000E+00	 0.00000000E+00	 0.00000000E+00
		 1.06771000E-03	-1.31453000E-03	-1.50041000E-03
		 1.11815000E-03	-3.62795000E-03	-1.43252000E-03
		 0.00000000E+00	 0.00000000E+00	 0.00000000E+00
		 0.00000000E+00	 0.00000000E+00	 0.00000000E+00
		 8.05837000E-05	-5.54416000E-03	 7.94705000E-05
		-1.64576000E-03	-5.72386000E-03	 3.08134000E-03
		 0.00000000E+00	 0.00000000E+00	 0.00000000E+00
		 0.00000000E+00	 0.00000000E+00	 0.00000000E+00
		 7.22372000E-05	-4.64581000E-03	 5.99760000E-05
		-1.84620000E-03	-4.83452000E-03	 3.26810000E-03
		 0.00000000E+00	 0.00000000E+00	 0.00000000E+00
		 3.41460000E-05	-1.91824000E-03	 4.31841000E-05
		-7.83487000E-04	-5.56523000E-03	 1.35174000E-03
		-5.22971000E-04	-2.15124000E-03	 1.60650000E-03
		 0.00000000E+00	 0.00000000E+00	 0.00000000E+00
		 1.80506000E-03	-5.66984000E-03	-2.92447000E-03
		 0.00000000E+00	 0.00000000E+00	 0.00000000E+00
		 1.99038000E-03	-4.78576000E-03	-3.15115000E-03
		 0.00000000E+00	 0.00000000E+00	 0.00000000E+00
		 5.87271000E-04	-2.11430000E-03	-1.51697000E-03
		 9.45507000E-04	-5.54164000E-03	-1.19381000E-03
		 1.67361000E-04	-8.15842000E-03	 5.34148000E-05
		-4.22295000E-03	-8.36285000E-03	 5.44168000E-03
		 1.97015000E-04	-1.23737000E-02	 7.60252000E-05
		-3.86225000E-03	-1.25854000E-02	 5.47598000E-03
		 1.05579000E-04	-4.08511000E-03	 3.38828000E-05
		-2.02481000E-03	-8.22416000E-03	 2.84189000E-03
		-3.39210000E-03	-4.30173000E-03	 4.29136000E-03
		 1.82303000E-04	-1.03012000E-02	 6.36288000E-05
		-4.04235000E-03	-1.05112000E-02	 5.34432000E-03
		 1.24475000E-04	-7.39463000E-03	 6.40814000E-05
		-1.82910000E-03	-1.24411000E-02	 2.75870000E-03
		-3.00494000E-03	-7.61928000E-03	 4.32898000E-03
		 4.56242000E-03	-8.23622000E-03	-5.33907000E-03
		 4.25538000E-03	-1.24724000E-02	-5.32734000E-03
		 3.60419000E-03	-4.21734000E-03	-4.22624000E-03
		 2.35990000E-03	-8.15736000E-03	-2.73727000E-03
		 4.41137000E-03	-1.03985000E-02	-5.21802000E-03
		 3.25628000E-03	-7.53982000E-03	-4.20366000E-03
		 2.22766000E-03	-1.23841000E-02	-2.60483000E-03
		 2.19944000E-04	-1.62766000E-02	 1.04636000E-04
		-3.50224000E-03	-1.64716000E-02	 5.49100000E-03
		 2.08495000E-04	-1.43598000E-02	 9.03612000E-05
		-3.68211000E-03	-1.45945000E-02	 5.60524000E-03
		 1.44054000E-04	-1.03481000E-02	 9.78603000E-05
		-1.64799000E-03	-1.63331000E-02	 2.65912000E-03
		-2.63687000E-03	-1.05779000E-02	 4.35494000E-03
		 3.97070000E-03	-1.63825000E-02	-5.28644000E-03
		 4.11387000E-03	-1.44626000E-02	-5.43201000E-03
		 2.93747000E-03	-1.05087000E-02	-4.16046000E-03
		 2.09567000E-03	-1.62906000E-02	-2.44661000E-03
		 3.20333000E-04	-2.00167000E-02	 6.80169000E-05
		-5.40386000E-03	-2.01116000E-02	 7.05219000E-03
		 3.71497000E-04	-2.56347000E-02	 8.59752000E-05
		-5.20415000E-03	-2.58460000E-02	 7.10066000E-03
		 2.39243000E-04	-1.35318000E-02	 6.69849000E-05
		-2.53486000E-03	-2.00458000E-02	 3.56023000E-03
		-4.89883000E-03	-1.37066000E-02	 6.41936000E-03
		 3.46942000E-04	-2.28439000E-02	 8.01635000E-05
		-5.30713000E-03	-2.30127000E-02	 6.99726000E-03
		 2.78075000E-04	-1.85289000E-02	 8.21803000E-05
		-2.44146000E-03	-2.57262000E-02	 3.50070000E-03
		-4.60099000E-03	-1.87229000E-02	 6.45998000E-03
		 6.01286000E-03	-1.99650000E-02	-6.90206000E-03
		 5.94762000E-03	-2.56153000E-02	-6.94911000E-03
		 5.37549000E-03	-1.35486000E-02	-6.28819000E-03
		 3.16432000E-03	-1.99754000E-02	-3.41327000E-03
		 5.97904000E-03	-2.28056000E-02	-6.85154000E-03
		 5.16282000E-03	-1.85592000E-02	-6.30060000E-03
		 3.16121000E-03	-2.56152000E-02	-3.34923000E-03
		 4.14215000E-04	-3.11551000E-02	 1.06351000E-04
		-5.12385000E-03	-3.14890000E-02	 7.08844000E-03
		 3.94218000E-04	-2.84244000E-02	 9.29787000E-05
		-5.16628000E-03	-2.85674000E-02	 7.22095000E-03
		 3.20935000E-04	-2.32904000E-02	 1.04188000E-04
		-2.32417000E-03	-3.13126000E-02	 3.37496000E-03
		-4.34877000E-03	-2.35081000E-02	 6.45906000E-03
		 5.90836000E-03	-3.11694000E-02	-6.92257000E-03
		 5.92883000E-03	-2.84015000E-02	-7.05590000E-03
		 4.95432000E-03	-2.33204000E-02	-6.25872000E-03
		 3.15361000E-03	-3.11622000E-02	-3.20742000E-03
		 5.68076000E-04	-3.40918000E-02	 5.40805000E-05
		-5.67101000E-03	-3.39555000E-02	 6.47466000E-03
		 6.22874000E-04	-4.05065000E-02	 1.08003000E-04
		-5.97976000E-03	-4.08312000E-02	 6.54315000E-03
		 3.99629000E-04	-2.71347000E-02	 6.22936000E-05
		-2.55208000E-03	-3.40565000E-02	 3.23703000E-03
		-5.65795000E-03	-2.72066000E-02	 7.01933000E-03
		 5.95108000E-04	-3.72308000E-02	 8.25103000E-05
		-5.81682000E-03	-3.72712000E-02	 6.50852000E-03
		 4.50062000E-04	-3.32696000E-02	 4.86451000E-05
		-2.55477000E-03	-4.06880000E-02	 3.29345000E-03
		-5.73576000E-03	-3.32940000E-02	 7.12299000E-03
		 6.64106000E-03	-3.38883000E-02	-6.36248000E-03
		 6.92281000E-03	-4.01511000E-02	-6.32128000E-03
		 6.43646000E-03	-2.69950000E-02	-6.89016000E-03
		 3.60364000E-03	-3.40302000E-02	-3.12706000E-03
		 6.78525000E-03	-3.69823000E-02	-6.33970000E-03
		 6.56808000E-03	-3.31009000E-02	-6.91784000E-03
		 3.76170000E-03	-4.03435000E-02	-3.07682000E-03
		 5.40422000E-04	-4.71835000E-02	 1.55211000E-04
		-6.17144000E-03	-4.78920000E-02	 6.57777000E-03
		 5.84220000E-04	-4.37757000E-02	 1.31565000E-04
		-6.07355000E-03	-4.48073000E-02	 6.57877000E-03
		 4.75641000E-04	-3.94946000E-02	 7.34140000E-06
		-2.92571000E-03	-4.75440000E-02	 3.31657000E-03
		-5.68086000E-03	-3.94198000E-02	 7.10063000E-03
		 7.23903000E-03	-4.66795000E-02	-6.25938000E-03