<?xml version="1.0"?>
<VTKFile type="UnstructuredGrid" version="0.1" byte_order="LittleEndian">
	<UnstructuredGrid>
		<Piece NumberOfPoints="522" NumberOfCells="64">
			<Points>
				<DataArray type="Float64" NumberOfComponents="3" format="ascii">
					 1.00000000E+00	 1.00000000E+00	-5.96046000E-08
					 1.00000000E+00	 5.00000000E-01	-5.96046000E-08
					 1.00000000E+00	 5.00000000E-01	 1.00000000E+00
					 1.00000000E+00	 1.00000000E+00	 1.00000000E+00
					 5.00000000E-01	 1.00000000E+00	-5.96046000E-08
					 5.00000000E-01	 5.00000000E-01	-5.96046000E-08
					 5.00000000E-01	 5.00000000E-01	 1.00000000E+00
					 5.00000000E-01	 1.00000000E+00	 1.00000000E+00
					 1.00000000E+00	 7.50000000E-01	-5.96046000E-08
					 1.00000000E+00	 5.00000000E-01	 5.00000000E-01
					 1.00000000E+00	 7.50000000E-01	 1.00000000E+00
					 1.00000000E+00	 1.00000000E+00	 5.00000000E-01
					 7.50000000E-01	 1.00000000E+00	-5.96046000E-08
					 7.50000000E-01	 5.00000000E-01	-5.96046000E-08
					 7.50000000E-01	 5.00000000E-01	 1.00000000E+00
					 7.50000000E-01	 1.00000000E+00	 1.00000000E+00
					 5.00000000E-01	 7.50000000E-01	-5.96046000E-08
					 5.00000000E-01	 5.00000000E-01	 5.00000000E-01
					 5.00000000E-01	 7.50000000E-01	 1.00000000E+00
					 5.00000000E-01	 1.00000000E+00	 5.00000000E-01
					 1.00000000E+00	-1.49012000E-08	-5.96046000E-08
					 1.00000000E+00	-1.49012000E-08	 1.00000000E+00
					 5.00000000E-01	-1.49012000E-08	-5.96046000E-08
					 5.00000000E-01	-1.49012000E-08	 1.00000000E+00
					 1.00000000E+00	 2.50000000E-01	-5.96046000E-08
					 1.00000000E+00	-1.49012000E-08	 5.00000000E-01
					 1.00000000E+00	 2.50000000E-01	 1.00000000E+00
					 7.50000000E-01	-1.49012000E-08	-5.96046000E-08
					 7.50000000E-01	-1.49012000E-08	 1.00000000E+00
					 5.00000000E-01	 2.50000000E-01	-5.96046000E-08
					 5.00000000E-01	-1.49012000E-08	 5.00000000E-01
					 5.00000000E-01	 2.50000000E-01	 1.00000000E+00
					-7.45058000E-09	 1.00000000E+00	-5.96046000E-08
					-7.45058000E-09	 5.00000000E-01	-5.96046000E-08
					-7.45058000E-09	 5.00000000E-01	 1.00000000E+00
					-7.45058000E-09	 1.00000000E+00	 1.00000000E+00
					 2.50000000E-01	 1.00000000E+00	-5.96046000E-08
					 2.50000000E-01	 5.00000000E-01	-5.96046000E-08
					 2.50000000E-01	 5.00000000E-01	 1.00000000E+00
					 2.50000000E-01	 1.00000000E+00	 1.00000000E+00
					-7.45058000E-09	 7.50000000E-01	-5.96046000E-08
					-7.45058000E-09	 5.00000000E-01	 5.00000000E-01
					-7.45058000E-09	 7.50000000E-01	 1.00000000E+00
					-7.45058000E-09	 1.00000000E+00	 5.00000000E-01
					-7.45058000E-09	-1.49012000E-08	-5.96046000E-08
					-7.45058000E-09	-1.49012000E-08	 1.00000000E+00
					 2.50000000E-01	-1.49012000E-08	-5.96046000E-08
					 2.50000000E-01	-1.49012000E-08	 1.00000000E+00
					-7.45058000E-09	 2.50000000E-01	-5.96046000E-08
					-7.45058000E-09	-1.49012000E-08	 5.00000000E-01
					-7.45058000E-09	 2.50000000E-01	 1.00000000E+00
					 1.00000000E+00	 5.00000000E-01	 2.00000000E+00
					 1.00000000E+00	 1.00000000E+00	 2.00000000E+00
					 5.00000000E-01	 5.00000000E-01	 2.00000000E+00
					 5.00000000E-01	 1.00000000E+00	 2.00000000E+00
					 1.00000000E+00	 5.00000000E-01	 1.50000000E+00
					 1.00000000E+00	 7.50000000E-01	 2.00000000E+00
					 1.00000000E+00	 1.00000000E+00	 1.50000000E+00
					 7.50000000E-01	 5.00000000E-01	 2.00000000E+00
					 7.50000000E-01	 1.00000000E+00	 2.00000000E+00
					 5.00000000E-01	 5.00000000E-01	 1.50000000E+00
					 5.00000000E-01	 7.50000000E-01	 2.00000000E+00
					 5.00000000E-01	 1.00000000E+00	 1.50000000E+00
					 1.00000000E+00	-1.49012000E-08	 2.00000000E+00
					 5.00000000E-01	-1.49012000E-08	 2.00000000E+00
					 1.00000000E+00	-1.49012000E-08	 1.50000000E+00
					 1.00000000E+00	 2.50000000E-01	 2.00000000E+00
					 7.50000000E-01	-1.49012000E-08	 2.00000000E+00
					 5.00000000E-01	-1.49012000E-08	 1.50000000E+00
					 5.00000000E-01	 2.50000000E-01	 2.00000000E+00
					-7.45058000E-09	 5.00000000E-01	 2.00000000E+00
					-7.45058000E-09	 1.00000000E+00	 2.00000000E+00
					 2.50000000E-01	 5.00000000E-01	 2.00000000E+00
					 2.50000000E-01	 1.00000000E+00	 2.00000000E+00
					-7.45058000E-09	 5.00000000E-01	 1.50000000E+00
					-7.45058000E-09	 7.50000000E-01	 2.00000000E+00
					-7.45058000E-09	 1.00000000E+00	 1.50000000E+00
					-7.45058000E-09	-1.49012000E-08	 2.00000000E+00
					 2.50000000E-01	-1.49012000E-08	 2.00000000E+00
					-7.45058000E-09	-1.49012000E-08	 1.50000000E+00
					-7.45058000E-09	 2.50000000E-01	 2.00000000E+00
					 1.00000000E+00	 5.00000000E-01	 3.00000000E+00
					 1.00000000E+00	 1.00000000E+00	 3.00000000E+00
					 5.00000000E-01	 5.00000000E-01	 3.00000000E+00
					 5.00000000E-01	 1.00000000E+00	 3.00000000E+00
					 1.00000000E+00	 5.00000000E-01	 2.50000000E+00
					 1.00000000E+00	 7.50000000E-01	 3.00000000E+00
					 1.00000000E+00	 1.00000000E+00	 2.50000000E+00
					 7.50000000E-01	 5.00000000E-01	 3.00000000E+00
					 7.50000000E-01	 1.00000000E+00	 3.00000000E+00
					 5.00000000E-01	 5.00000000E-01	 2.50000000E+00
					 5.00000000E-01	 7.50000000E-01	 3.00000000E+00
					 5.00000000E-01	 1.00000000E+00	 2.50000000E+00
					 1.00000000E+00	-1.49012000E-08	 3.00000000E+00
					 5.00000000E-01	-1.49012000E-08	 3.00000000E+00
					 1.00000000E+00	-1.49012000E-08	 2.50000000E+00
					 1.00000000E+00	 2.50000000E-01	 3.00000000E+00
					 7.50000000E-01	-1.49012000E-08	 3.00000000E+00
					 5.00000000E-01	-1.49012000E-08	 2.50000000E+00
					 5.00000000E-01	 2.50000000E-01	 3.00000000E+00
					-7.45058000E-09	 5.00000000E-01	 3.00000000E+00
					-7.45058000E-09	 1.00000000E+00	 3.00000000E+00
					 2.50000000E-01	 5.00000000E-01	 3.00000000E+00
					 2.50000000E-01	 1.00000000E+00	 3.00000000E+00
					-7.45058000E-09	 5.00000000E-01	 2.50000000E+00
					-7.45058000E-09	 7.50000000E-01	 3.00000000E+00
					-7.45058000E-09	 1.00000000E+00	 2.50000000E+00
					-7.45058000E-09	-1.49012000E-08	 3.00000000E+00
					 2.50000000E-01	-1.49012000E-08	 3.00000000E+00
					-7.45058000E-09	-1.49012000E-08	 2.50000000E+00
					-7.45058000E-09	 2.50000000E-01	 3.00000000E+00
					 1.00000000E+00	 5.00000000E-01	 4.00000000E+00
					 1.00000000E+00	 1.00000000E+00	 4.00000000E+00
					 5.00000000E-01	 5.00000000E-01	 4.00000000E+00
					 5.00000000E-01	 1.00000000E+00	 4.00000000E+00
					 1.00000000E+00	 5.00000000E-01	 3.50000000E+00
					 1.00000000E+00	 7.50000000E-01	 4.00000000E+00
					 1.00000000E+00	 1.00000000E+00	 3.50000000E+00
					 7.50000000E-01	 5.00000000E-01	 4.00000000E+00
					 7.50000000E-01	 1.00000000E+00	 4.00000000E+00
					 5.00000000E-01	 5.00000000E-01	 3.50000000E+00
					 5.00000000E-01	 7.50000000E-01	 4.00000000E+00
					 5.00000000E-01	 1.00000000E+00	 3.50000000E+00
					 1.00000000E+00	-1.49012000E-08	 4.00000000E+00
					 5.00000000E-01	-1.49012000E-08	 4.00000000E+00
					 1.00000000E+00	-1.49012000E-08	 3.50000000E+00
					 1.00000000E+00	 2.50000000E-01	 4.00000000E+00
					 7.50000000E-01	-1.49012000E-08	 4.00000000E+00
					 5.00000000E-01	-1.49012000E-08	 3.50000000E+00
					 5.00000000E-01	 2.50000000E-01	 4.00000000E+00
					-7.45058000E-09	 5.00000000E-01	 4.00000000E+00
					-7.45058000E-09	 1.00000000E+00	 4.00000000E+00
					 2.50000000E-01	 5.00000000E-01	 4.00000000E+00
					 2.50000000E-01	 1.00000000E+00	 4.00000000E+00
					-7.45058000E-09	 5.00000000E-01	 3.50000000E+00
					-7.45058000E-09	 7.50000000E-01	 4.00000000E+00
					-7.45058000E-09	 1.00000000E+00	 3.50000000E+00
					-7.45058000E-09	-1.49012000E-08	 4.00000000E+00
					 2.50000000E-01	-1.49012000E-08	 4.00000000E+00
					-7.45058000E-09	-1.49012000E-08	 3.50000000E+00
					-7.45058000E-09	 2.50000000E-01	 4.00000000E+00
					 1.00000000E+00	 5.00000000E-01	 5.00000000E+00
					 1.00000000E+00	 1.00000000E+00	 5.00000000E+00
					 5.00000000E-01	 5.00000000E-01	 5.00000000E+00
					 5.00000000E-01	 1.00000000E+00	 5.00000000E+00
					 1.00000000E+00	 5.00000000E-01	 4.50000000E+00
					 1.00000000E+00	 7.50000000E-01	 5.00000000E+00
					 1.00000000E+00	 1.00000000E+00	 4.50000000E+00
					 7.50000000E-01	 5.00000000E-01	 5.00000000E+00
					 7.50000000E-01	 1.00000000E+00	 5.00000000E+00
					 5.00000000E-01	 5.00000000E-01	 4.50000000E+00
					 5.00000000E-01	 7.50000000E-01	 5.00000000E+00
					 5.00000000E-01	 1.00000000E+00	 4.50000000E+00
					 1.00000000E+00	-1.49012000E-08	 5.00000000E+00
					 5.00000000E-01	-1.49012000E-08	 5.00000000E+00
					 1.00000000E+00	-1.49012000E-08	 4.50000000E+00
					 1.00000000E+00	 2.50000000E-01	 5.00000000E+00
					 7.50000000E-01	-1.49012000E-08	 5.00000000E+00
					 5.00000000E-01	-1.49012000E-08	 4.50000000E+00
					 5.00000000E-01	 2.50000000E-01	 5.00000000E+00
					-7.45058000E-09	 5.00000000E-01	 5.00000000E+00
					-7.45058000E-09	 1.00000000E+00	 5.00000000E+00
					 2.50000000E-01	 5.00000000E-01	 5.00000000E+00
					 2.50000000E-01	 1.00000000E+00	 5.00000000E+00
					-7.45058000E-09	 5.00000000E-01	 4.50000000E+00
					-7.45058000E-09	 7.50000000E-01	 5.00000000E+00
					-7.45058000E-09	 1.00000000E+00	 4.50000000E+00
					-7.45058000E-09	-1.49012000E-08	 5.00000000E+00
					 2.50000000E-01	-1.49012000E-08	 5.00000000E+00
					-7.45058000E-09	-1.49012000E-08	 4.50000000E+00
					-7.45058000E-09	 2.50000000E-01	 5.00000000E+00
					 1.00000000E+00	 5.00000000E-01	 6.00000000E+00
					 1.00000000E+00	 1.00000000E+00	 6.00000000E+00
					 5.00000000E-01	 5.00000000E-01	 6.00000000E+00
					 5.00000000E-01	 1.00000000E+00	 6.00000000E+00
					 1.00000000E+00	 5.00000000E-01	 5.50000000E+00
					 1.00000000E+00	 7.50000000E-01	 6.00000000E+00
					 1.00000000E+00	 1.00000000E+00	 5.50000000E+00
					 7.50000000E-01	 5.00000000E-01	 6.00000000E+00
					 7.50000000E-01	 1.00000000E+00	 6.00000000E+00
					 5.00000000E-01	 5.00000000E-01	 5.50000000E+00
					 5.00000000E-01	 7.50000000E-01	 6.00000000E+00
					 5.00000000E-01	 1.00000000E+00	 5.50000000E+00
					 1.00000000E+00	-1.49012000E-08	 6.00000000E+00
[...]
			<PointData>
				<DataArray type="Float32" Name="U" NumberOfComponents="3" ComponentName0="D1" ComponentName1="D2" ComponentName2="D3" format="ascii">
					 0.00000000E+00	 0.00000000E+00	 0.00000000E+00
					 0.00000000E+00	 0.00000000E+00	 0.00000000E+00
					-1.85528000E-05	 2.50461000E-03	 3.46647000E-05
					-1.56472000E-04	 2.59186000E-03	-1.28762000E-03
					 0.00000000E+00	 0.00000000E+00	 0.00000000E+00
					 0.00000000E+00	 0.00000000E+00	 0.00000000E+00
					-1.83054000E-05	 2.33013000E-03	-1.56937000E-05
					-1.57523000E-04	 2.40631000E-03	-1.41898000E-03
					 0.00000000E+00	 0.00000000E+00	 0.00000000E+00
					-1.02405000E-05	 8.73019000E-04	 3.43201000E-05
					-6.07728000E-05	 2.51397000E-03	-5.85362000E-04
					 1.02829000E-04	 1.01581000E-03	-8.12038000E-04
					 0.00000000E+00	 0.00000000E+00	 0.00000000E+00
					 0.00000000E+00	 0.00000000E+00	 0.00000000E+00
					-1.94622000E-05	 2.41918000E-03	-1.12210000E-06
					-1.51397000E-04	 2.48600000E-03	-1.36596000E-03
					 0.00000000E+00	 0.00000000E+00	 0.00000000E+00
					 6.20351000E-06	 8.81988000E-04	-2.66535000E-06
					-8.65119000E-05	 2.34292000E-03	-6.57902000E-04
					-7.90688000E-05	 9.86989000E-04	-8.32729000E-04
					 0.00000000E+00	 0.00000000E+00	 0.00000000E+00
					 9.73174000E-05	 2.50489000E-03	 1.27542000E-03
					 0.00000000E+00	 0.00000000E+00	 0.00000000E+00
					 1.55218000E-04	 2.31987000E-03	 1.35065000E-03
					 0.00000000E+00	 0.00000000E+00	 0.00000000E+00
					-1.06022000E-04	 9.82536000E-04	 8.21715000E-04
					 5.16683000E-05	 2.47110000E-03	 6.01038000E-04
					 0.00000000E+00	 0.00000000E+00	 0.00000000E+00
					 1.20912000E-04	 2.42706000E-03	 1.31476000E-03
					 0.00000000E+00	 0.00000000E+00	 0.00000000E+00
					 1.03735000E-04	 9.75798000E-04	 7.91388000E-04
					 6.28900000E-05	 2.29451000E-03	 5.98789000E-04
					 0.00000000E+00	 0.00000000E+00	 0.00000000E+00
					 0.00000000E+00	 0.00000000E+00	 0.00000000E+00
					-3.25617000E-05	 2.18783000E-03	-8.31504000E-05
					-1.44014000E-04	 2.24687000E-03	-1.33708000E-03
					 0.00000000E+00	 0.00000000E+00	 0.00000000E+00
					 0.00000000E+00	 0.00000000E+00	 0.00000000E+00
					-2.26164000E-05	 2.25485000E-03	-5.68569000E-05
					-1.47608000E-04	 2.29036000E-03	-1.38583000E-03
					 0.00000000E+00	 0.00000000E+00	 0.00000000E+00
					 1.34846000E-05	 6.83836000E-04	-2.63456000E-05
					-1.29304000E-04	 2.19145000E-03	-6.69192000E-04
					-2.76936000E-04	 8.31237000E-04	-8.21449000E-04
					 0.00000000E+00	 0.00000000E+00	 0.00000000E+00
					 2.74338000E-04	 2.14227000E-03	 1.21918000E-03
					 0.00000000E+00	 0.00000000E+00	 0.00000000E+00
					 2.12455000E-04	 2.23044000E-03	 1.30942000E-03
					 0.00000000E+00	 0.00000000E+00	 0.00000000E+00
					 3.02959000E-04	 7.67591000E-04	 7.61147000E-04
					 1.31109000E-04	 2.14432000E-03	 5.29593000E-04
					 6.49712000E-06	 5.47333000E-03	-1.28863000E-04
					 5.33875000E-05	 5.37179000E-03	-1.74682000E-03
					-2.66443000E-05	 5.32760000E-03	-8.96647000E-05
					-1.51906000E-04	 5.38788000E-03	-1.78166000E-03
					-1.33059000E-05	 3.92389000E-03	-5.62454000E-05
					 1.04374000E-05	 5.41670000E-03	-9.77518000E-04
					-1.19655000E-04	 3.98156000E-03	-1.54668000E-03
					-1.70054000E-05	 5.39491000E-03	-1.01654000E-04
					-5.41990000E-05	 5.40135000E-03	-1.73021000E-03
					-6.89432000E-06	 3.77778000E-03	-7.12018000E-05
					-8.20022000E-05	 5.36217000E-03	-9.47501000E-04
					-1.78410000E-04	 3.81621000E-03	-1.56995000E-03
					 2.56942000E-04	 5.62099000E-03	 1.66990000E-03
					 1.75066000E-04	 5.37862000E-03	 1.50698000E-03
					 1.64637000E-04	 3.98950000E-03	 1.45859000E-03
					 8.18308000E-05	 5.55332000E-03	 7.83981000E-04
					 2.24977000E-04	 5.44604000E-03	 1.59011000E-03
					 1.79632000E-04	 3.81218000E-03	 1.46436000E-03
					 6.45342000E-05	 5.33580000E-03	 7.47163000E-04
					 2.60376000E-05	 5.20432000E-03	-1.33369000E-04
					-3.55355000E-04	 5.05802000E-03	-1.84446000E-03
					 5.94108000E-06	 5.26290000E-03	-1.20429000E-04
					-2.54686000E-04	 5.30064000E-03	-1.82265000E-03
					-9.63638000E-06	 3.55135000E-03	-1.08717000E-04
					-9.50035000E-05	 5.12932000E-03	-9.62205000E-04
					-2.61686000E-04	 3.56540000E-03	-1.61473000E-03
					 1.02024000E-04	 5.26854000E-03	 1.57428000E-03
					 1.20312000E-04	 5.33905000E-03	 1.56527000E-03
					 1.90314000E-04	 3.58204000E-03	 1.38689000E-03
					 4.48119000E-05	 5.24293000E-03	 7.31324000E-04
					-4.49393000E-05	 8.90077000E-03	-1.49269000E-05
					 1.73114000E-04	 8.89803000E-03	-2.40980000E-03
					 5.79565000E-07	 8.95062000E-03	-7.75848000E-05
					-3.68971000E-05	 9.01083000E-03	-2.36759000E-03
					 8.14911000E-06	 6.97046000E-03	-6.71763000E-05
					 4.85060000E-05	 8.89659000E-03	-1.20169000E-03
					 7.81533000E-05	 6.94682000E-03	-2.01542000E-03
					-2.33681000E-05	 8.96861000E-03	-3.74578000E-05
					 6.05423000E-05	 9.00134000E-03	-2.39589000E-03
					 6.76309000E-06	 6.98133000E-03	-9.88727000E-05
					-2.82830000E-05	 8.95953000E-03	-1.24939000E-03
					-3.79561000E-05	 7.02328000E-03	-2.00714000E-03
					-2.10438000E-04	 8.92512000E-03	 2.23807000E-03
					 1.89500000E-05	 9.07742000E-03	 2.26940000E-03
					-5.21722000E-05	 7.05400000E-03	 1.86834000E-03
					-8.87030000E-05	 8.90601000E-03	 1.11017000E-03
					-8.72005000E-05	 9.04316000E-03	 2.25807000E-03
					 2.87228000E-05	 7.07486000E-03	 1.78674000E-03
					 2.77701000E-05	 9.00343000E-03	 1.09181000E-03
					 3.34855000E-05	 8.81629000E-03	-7.63589000E-05
					-1.14692000E-04	 9.01557000E-03	-2.36220000E-03
					 7.94822000E-06	 8.90515000E-03	-7.21006000E-05
					-8.07269000E-05	 8.98730000E-03	-2.34651000E-03
					 2.98829000E-06	 6.90664000E-03	-7.87413000E-05
					-9.22782000E-05	 8.89672000E-03	-1.25281000E-03
					-1.28873000E-04	 6.90772000E-03	-2.02260000E-03
					 1.60882000E-04	 8.97470000E-03	 2.24697000E-03
					 1.11473000E-04	 8.99778000E-03	 2.22430000E-03
					 1.59191000E-04	 6.94122000E-03	 1.81319000E-03
					 1.12173000E-04	 8.86600000E-03	 1.12505000E-03
					-3.20413000E-05	 1.52947000E-02	-1.10124000E-04
					-7.81583000E-04	 1.53244000E-02	-3.21032000E-03
					 2.36363000E-06	 1.44382000E-02	-6.79866000E-05
					-9.53434000E-04	 1.44808000E-02	-3.27181000E-03
					-7.05349000E-07	 1.18207000E-02	-9.15500000E-05
					-4.25692000E-04	 1.52892000E-02	-1.59063000E-03
					-2.73606000E-04	 1.18598000E-02	-2.79151000E-03
					-1.54594000E-05	 1.48652000E-02	-7.82262000E-05
					-8.69624000E-04	 1.49376000E-02	-3.34760000E-03
					-1.10032000E-05	 1.14443000E-02	-3.82497000E-05
					-4.59372000E-04	 1.44495000E-02	-1.68990000E-03
					-4.22555000E-04	 1.15073000E-02	-2.83629000E-03
					 8.35585000E-04	 1.53725000E-02	 3.16477000E-03
					 9.90827000E-04	 1.44342000E-02	 3.14032000E-03
					 2.39682000E-04	 1.18338000E-02	 2.68397000E-03
					 4.17392000E-04	 1.53103000E-02	 1.47655000E-03
					 9.08738000E-04	 1.49417000E-02	 3.21179000E-03
					 4.01511000E-04	 1.15482000E-02	 2.74528000E-03
					 4.81905000E-04	 1.44088000E-02	 1.53394000E-03
					-2.74328000E-05	 1.34069000E-02	-7.96749000E-05
					-9.81546000E-04	 1.34683000E-02	-3.26978000E-03
					-6.36223000E-06	 1.39169000E-02	-7.09929000E-05
					-9.70753000E-04	 1.39629000E-02	-3.15325000E-03
					 1.25471000E-05	 1.10143000E-02	-8.67072000E-05
					-5.30527000E-04	 1.34040000E-02	-1.78335000E-03
					-4.61392000E-04	 1.11228000E-02	-2.82131000E-03
					 1.01384000E-03	 1.34564000E-02	 3.12557000E-03
					 9.95129000E-04	 1.39526000E-02	 3.01299000E-03
					 4.41437000E-04	 1.11201000E-02	 2.70435000E-03
					 5.25527000E-04	 1.34142000E-02	 1.64369000E-03
					-1.06387000E-05	 2.32152000E-02	-1.54491000E-04
					-1.45669000E-03	 2.33268000E-02	-4.54949000E-03
					-2.77616000E-05	 2.16551000E-02	-1.28794000E-04
					-1.72358000E-03	 2.17804000E-02	-4.53281000E-03
					-3.18166000E-05	 1.90381000E-02	-1.13620000E-04
					-7.34089000E-04	 2.32375000E-02	-2.32018000E-03
					-1.18802000E-03	 1.91045000E-02	-3.82352000E-03
					-1.81734000E-05	 2.24741000E-02	-1.52325000E-04
					-1.57771000E-03	 2.25811000E-02	-4.54180000E-03
					-1.07970000E-05	 1.77461000E-02	-9.95205000E-05
					-8.71107000E-04	 2.16945000E-02	-2.31686000E-03
					-1.41811000E-03	 1.78046000E-02	-3.80005000E-03
					 1.51742000E-03	 2.34671000E-02	 4.21822000E-03
					 1.67684000E-03	 2.17661000E-02	 4.25060000E-03
					 1.26356000E-03	 1.91733000E-02	 3.62376000E-03
					 6.89181000E-04	 2.33096000E-02	 1.99519000E-03
					 1.58804000E-03	 2.26071000E-02	 4.27726000E-03
					 1.37601000E-03	 1.78042000E-02	 3.61611000E-03
					 8.25251000E-04	 2.16900000E-02	 2.07568000E-03
					-3.10343000E-05	 1.99044000E-02	-1.19134000E-04
					-2.08829000E-03	 1.97743000E-02	-4.48671000E-03
					-2.94065000E-05	 2.07993000E-02	-1.25236000E-04
					-1.89625000E-03	 2.08975000E-02	-4.51882000E-03
					-1.69975000E-05	 1.62598000E-02	-1.08856000E-04
					-9.61335000E-04	 1.98368000E-02	-2.34224000E-03
					-1.66303000E-03	 1.62736000E-02	-3.81211000E-03
					 1.91901000E-03	 1.99503000E-02	 4.26819000E-03
					 1.78318000E-03	 2.09512000E-02	 4.27030000E-03
					 1.60725000E-03	 1.63174000E-02	 3.63097000E-03
					 8.89676000E-04	 1.99167000E-02	 2.07895000E-03
					-7.61495000E-05	 3.33293000E-02	-1.10857000E-04
					-1.43378000E-03	 3.34595000E-02	-5.78357000E-03
					-2.79503000E-05	 3.20620000E-02	-1.76073000E-04
					-1.40227000E-03	 3.20893000E-02	-5.76836000E-03
					-5.64370000E-06	 2.80255000E-02	-1.20318000E-04
					-6.85399000E-04	 3.33775000E-02	-2.99302000E-03
					-1.49023000E-03	 2.81316000E-02	-5.25116000E-03
					-6.03541000E-05	 3.26954000E-02	-1.46608000E-04
					-1.41886000E-03	 3.27353000E-02	-5.70791000E-03
					-2.51121000E-05	 2.65621000E-02	-1.63075000E-04
					-7.17908000E-04	 3.20520000E-02	-2.94433000E-03
					-1.58528000E-03	 2.65994000E-02	-5.27950000E-03
					 1.10418000E-03	 3.33870000E-02	 5.41201000E-03
					 1.30231000E-03	 3.21588000E-02	 5.44957000E-03
					 1.37949000E-03	 2.81463000E-02	 4.92479000E-03
					 5.69141000E-04	 3.33535000E-02	 2.69118000E-03
					 1.20152000E-03	 3.28255000E-02	 5.34518000E-03
					 1.56090000E-03	 2.66716000E-02	 4.91561000E-03
					 6.48374000E-04	 3.20869000E-02	 2.59512000E-03
					-8.86326000E-06	 3.06342000E-02	-1.77474000E-04
					-1.37485000E-03	 3.07221000E-02	-5.82553000E-03
					-5.38532000E-06	 3.13860000E-02	-1.78163000E-04
					-1.37793000E-03	 3.14296000E-02	-5.86632000E-03
					-2.24990000E-05	 2.48527000E-02	-1.42956000E-04
					-7.32022000E-04	 3.06604000E-02	-2.86526000E-03
					-1.84957000E-03	 2.47957000E-02	-5.18207000E-03
					 1.53171000E-03	 3.07057000E-02	 5.40020000E-03
					 1.40977000E-03	 3.15239000E-02	 5.46667000E-03
					 1.88873000E-03	 2.48495000E-02	 4.90976000E-03
					 6.85717000E-04	 3.06703000E-02	 2.54821000E-03
					-9.60189000E-07	 4.45716000E-02	-3.46445000E-04
					-3.23292000E-04	 4.44326000E-02	-6.23118000E-03
					-5.21770000E-05	 4.40685000E-02	-2.29571000E-04
					-5.73280000E-04	 4.40786000E-02	-6.20206000E-03
					-4.10583000E-05	 3.87788000E-02	-2.25691000E-04
					-2.82887000E-04	 4.45222000E-02	-3.27564000E-03
					-8.22129000E-04	 3.87763000E-02	-6.11719000E-03
					-1.79545000E-05	 4.43520000E-02	-2.93797000E-04
					-4.48514000E-04	 4.43396000E-02	-6.17290000E-03
					-6.52630000E-05	 3.80050000E-02	-1.84349000E-04
					-2.91766000E-04	 4.40646000E-02	-3.22510000E-03
					-8.92937000E-04	 3.80275000E-02	-6.04217000E-03
					 4.81578000E-04	 4.46552000E-02	 5.67780000E-03
					 4.16895000E-04	 4.40787000E-02	 5.67896000E-03
					 6.68217000E-04	 3.87863000E-02	 5.65252000E-03
					 1.79621000E-04	 4.46117000E-02	 2.64726000E-03
					 4.63243000E-04	 4.43420000E-02	 5.66387000E-03
					 7.59879000E-04	 3.80615000E-02	 5.68059000E-03
					 1.79680000E-04	 4.40785000E-02	 2.69854000E-03
					-5.44888000E-05	 4.36866000E-02	-2.73739000E-04
					-5.95463000E-04	 4.36017000E-02	-6.26918000E-03
					-7.28839000E-05	 4.38297000E-02	-2.58749000E-04
					-5.96556000E-04	 4.38171000E-02	-6.26006000E-03
					-6.40651000E-05	 3.71250000E-02	-2.21563000E-04
					-2.55876000E-04	 4.36524000E-02	-3.25358000E-03
					-9.59229000E-04	 3.71210000E-02	-6.15728000E-03
					 2.67174000E-04	 4.37602000E-02	 5.73663000E-03
					 3.32923000E-04	 4.38562000E-02	 5.82846000E-03
					 8.89597000E-04	 3.71148000E-02	 5.63220000E-03
					 1.78324000E-04	 4.37089000E-02	 2.61542000E-03
					-5.04088000E-04	 5.61601000E-02	-2.34815000E-04
					-9.75310000E-04	 5.59565000E-02	-5.63250000E-03
					-7.34688000E-05	 5.59893000E-02	-7.23192000E-04
					-6.06438000E-04	 5.61979000E-02	-6.46882000E-03
					-3.87381000E-05	 5.05318000E-02	-3.52015000E-04
					-7.21672000E-04	 5.60795000E-02	-2.96985000E-03
					-3.69558000E-04	 5.03321000E-02	-6.05785000E-03
					-3.04271000E-04	 5.59842000E-02	-5.20288000E-04
					-7.75103000E-04	 5.60473000E-02	-6.14476000E-03
					-1.02561000E-04	 5.00976000E-02	-4.40667000E-04
					-3.89795000E-04	 5.61155000E-02	-3.51088000E-03
					-4.64973000E-04	 5.01015000E-02	-6.37877000E-03
					 1.12060000E-04	 5.60016000E-02	 5.10666000E-03
					 3.51896000E-04	 5.56424000E-02	 5.04331000E-03
					 4.09948000E-04	 5.05428000E-02	 5.39215000E-03
					-1.23948000E-04	 5.61097000E-02	 2.51784000E-03
					 2.29441000E-04	 5.58066000E-02	 5.02706000E-03
					 2.43329000E-04	 5.01122000E-02	 5.40053000E-03
					 1.75736000E-04	 5.58081000E-02	 2.26663000E-03
					 4.41478000E-04	 5.58587000E-02	 1.05852000E-04
					-6.49284000E-04	 5.59985000E-02	-6.72915000E-03
					 1.96861000E-04	 5.59713000E-02	-3.38399000E-04
					-5.96311000E-04	 5.61914000E-02	-6.64050000E-03
					-1.63786000E-04	 4.96970000E-02	-2.31903000E-04
					-1.22275000E-04	 5.59019000E-02	-3.27910000E-03
					-5.95689000E-04	 4.95178000E-02	-6.37175000E-03
					 5.86547000E-04	 5.60482000E-02	 6.05208000E-03
					 4.61481000E-04	 5.58021000E-02	 5.41345000E-03
					 4.04302000E-05	 4.99405000E-02	 5.83188000E-03
					 5.67563000E-04	 5.59494000E-02	 3.08914000E-03
					 0.00000000E+00	 0.00000000E+00	 0.00000000E+00
					 0.00000000E+00	 0.00000000E+00	 0.00000000E+00
					-1.61419000E-04	-7.77375000E-03	 1.32109000E-04
					-1.45821000E-04	-7.97649000E-03	 5.23594000E-03
					 0.00000000E+00	 0.00000000E+00	 0.00000000E+00
					 0.00000000E+00	 0.00000000E+00	 0.00000000E+00
					-1.36116000E-04	-7.60784000E-03	-8.96553000E-05
					 2.27248000E-04	-7.79711000E-03	 5.23922000E-03
					 0.00000000E+00	 0.00000000E+00	 0.00000000E+00
					-6.22427000E-05	-2.34343000E-03	 9.10836000E-05
					-1.28420000E-04	-7.76094000E-03	 2.49681000E-03
					-6.66653000E-04	-2.79354000E-03	 2.97105000E-03
					 0.00000000E+00	 0.00000000E+00	 0.00000000E+00
					 0.00000000E+00	 0.00000000E+00	 0.00000000E+00
					-1.52025000E-04	-7.76649000E-03	 1.91271000E-05
					 4.42146000E-05	-7.96988000E-03	 5.25289000E-03
					 0.00000000E+00	 0.00000000E+00	 0.00000000E+00
					-4.77412000E-05	-2.51856000E-03	-2.92826000E-05
					 7.48747000E-05	-7.58686000E-03	 2.39545000E-03
					 1.16408000E-04	-2.95428000E-03	 2.88679000E-03
					 0.00000000E+00	 0.00000000E+00	 0.00000000E+00
					-9.97154000E-05	-8.00118000E-03	-5.09974000E-03
					 0.00000000E+00	 0.00000000E+00	 0.00000000E+00
					-4.12833000E-04	-7.84317000E-03	-5.42277000E-03
					 0.00000000E+00	 0.00000000E+00	 0.00000000E+00
					 5.60612000E-04	-2.77531000E-03	-2.89397000E-03
					-1.06832000E-04	-7.76931000E-03	-2.35248000E-03
					 0.00000000E+00	 0.00000000E+00	 0.00000000E+00
					-2.50222000E-04	-7.98071000E-03	-5.28582000E-03
					 0.00000000E+00	 0.00000000E+00	 0.00000000E+00
					-1.87963000E-04	-2.95547000E-03	-2.95530000E-03
					-2.84816000E-04	-7.62143000E-03	-2.58661000E-03
					 0.00000000E+00	 0.00000000E+00	 0.00000000E+00
					 0.00000000E+00	 0.00000000E+00	 0.00000000E+00
					-1.36339000E-04	-7.12447000E-03	-1.92424000E-04
					 7.59680000E-04	-7.30309000E-03	 4.98323000E-03
					 0.00000000E+00	 0.00000000E+00	 0.00000000E+00
					 0.00000000E+00	 0.00000000E+00	 0.00000000E+00
					-1.28089000E-04	-7.43485000E-03	-1.49799000E-04
					 4.74999000E-04	-7.65006000E-03	 5.11904000E-03
					 0.00000000E+00	 0.00000000E+00	 0.00000000E+00
					-5.65862000E-05	-2.04387000E-03	-9.65967000E-05
					 3.10070000E-04	-7.11263000E-03	 2.26208000E-03
					 9.02131000E-04	-2.41861000E-03	 2.83390000E-03
					 0.00000000E+00	 0.00000000E+00	 0.00000000E+00
					-8.06700000E-04	-7.28379000E-03	-5.36479000E-03
					 0.00000000E+00	 0.00000000E+00	 0.00000000E+00
					-5.99124000E-04	-7.59166000E-03	-5.38704000E-03
					 0.00000000E+00	 0.00000000E+00	 0.00000000E+00
					-9.81313000E-04	-2.50015000E-03	-3.02124000E-03
					-5.21554000E-04	-7.09494000E-03	-2.62070000E-03
					-3.39211000E-04	-2.17051000E-02	-1.76521000E-04
					 2.10732000E-04	-2.20592000E-02	 6.92574000E-03
					-3.31551000E-04	-2.13655000E-02	-2.11088000E-04
					 7.00119000E-05	-2.13683000E-02	 6.71133000E-03
					-1.83790000E-04	-1.43559000E-02	-4.13388000E-05
					-1.46473000E-04	-2.18895000E-02	 3.30864000E-03
					 3.03388000E-06	-1.45335000E-02	 6.38360000E-03
					-3.50301000E-04	-2.15023000E-02	-1.85796000E-04
					 1.46319000E-04	-2.16413000E-02	 6.82926000E-03
					-1.91710000E-04	-1.40679000E-02	-1.52562000E-04
					-1.75275000E-04	-2.13448000E-02	 3.20574000E-03
					 2.32243000E-04	-1.42878000E-02	 6.30041000E-03
					-4.90699000E-04	-2.16029000E-02	-7.06813000E-03
					-7.40788000E-04	-2.14744000E-02	-7.26670000E-03
					-2.92041000E-04	-1.44394000E-02	-6.38773000E-03
					-4.69959000E-04	-2.16610000E-02	-3.55927000E-03
					-6.17334000E-04	-2.15754000E-02	-7.17209000E-03
					-6.25200000E-04	-1.41751000E-02	-6.58404000E-03
					-4.92527000E-04	-2.14368000E-02	-3.67783000E-03
					-2.23016000E-04	-2.09826000E-02	-4.38069000E-04
					 7.52370000E-05	-2.11075000E-02	 6.60121000E-03
					-2.64307000E-04	-2.11799000E-02	-3.21847000E-04
					 6.60078000E-05	-2.12492000E-02	 6.73503000E-03
					-2.02184000E-04	-1.35097000E-02	-3.06799000E-04
					-9.96949000E-05	-2.10660000E-02	 2.97932000E-03
					 4.79615000E-04	-1.36517000E-02	 6.07790000E-03
					-1.08766000E-03	-2.06285000E-02	-7.32432000E-03
					-9.11295000E-04	-2.11722000E-02	-7.37613000E-03
					-9.26961000E-04	-1.36031000E-02	-6.68990000E-03
					-5.36972000E-04	-2.08091000E-02	-3.75475000E-03
					-6.21950000E-04	-3.60104000E-02	-1.89862000E-04
					-7.62334000E-04	-3.58418000E-02	 6.16746000E-03
					-5.77050000E-04	-3.61573000E-02	-3.34341000E-04
					-9.37632000E-04	-3.61106000E-02	 6.14154000E-03
					-4.41294000E-04	-2.89773000E-02	-1.59540000E-04
					-6.52884000E-04	-3.59706000E-02	 2.92867000E-03
					-3.27237000E-04	-2.90104000E-02	 6.81802000E-03
					-6.08302000E-04	-3.60886000E-02	-2.71483000E-04
					-8.46967000E-04	-3.59848000E-02	 6.09702000E-03
					-4.32740000E-04	-2.89172000E-02	-3.16012000E-04
					-7.47064000E-04	-3.61721000E-02	 2.78146000E-03
					-4.42597000E-04	-2.89442000E-02	 6.68343000E-03
					-6.39570000E-04	-3.57815000E-02	-6.68231000E-03
					-2.91792000E-04	-3.59902000E-02	-6.84572000E-03
					-5.21485000E-04	-2.88027000E-02	-7.15516000E-03
					-6.33782000E-04	-3.59354000E-02	-3.35730000E-03
					-4.64867000E-04	-3.58942000E-02	-6.72352000E-03
					-5.13331000E-04	-2.87992000E-02	-7.34192000E-03
					-4.71878000E-04	-3.61092000E-02	-3.47925000E-03
					-5.19872000E-04	-3.64981000E-02	-4.82535000E-04
					-1.24414000E-03	-3.66666000E-02	 5.92931000E-03
					-5.58211000E-04	-3.63132000E-02	-4.17400000E-04
					-1.07157000E-03	-3.61900000E-02	 6.07485000E-03
					-4.41522000E-04	-2.88841000E-02	-4.05840000E-04
					-8.07406000E-04	-3.66046000E-02	 2.55014000E-03
					-5.79593000E-04	-2.89682000E-02	 6.48137000E-03
					 6.62864000E-05	-3.65959000E-02	-6.91193000E-03
					-1.24347000E-04	-3.62007000E-02	-6.91414000E-03
					-4.69474000E-04	-2.87081000E-02	-7.36591000E-03
					-3.08171000E-04	-3.65948000E-02	-3.53144000E-03
					-7.38174000E-04	-4.74411000E-02	-5.17759000E-04
					 1.99128000E-04	-4.69457000E-02	 2.56114000E-03