# vtk DataFile Version 3.0

ASCII
DATASET UNSTRUCTURED_GRID

POINTS 522 double
	 1.00000000E+00	 1.00000000E+00	-5.96046000E-08
	 1.00000000E+00	 5.00000000E-01	-5.96046000E-08
	 1.00000000E+00	 5.00000000E-01	 1.00000000E+00
	 1.00000000E+00	 1.00000000E+00	 1.00000000E+00
	 5.00000000E-01	 1.00000000E+00	-5.96046000E-08
	 5.00000000E-01	 5.00000000E-01	-5.96046000E-08
	 5.00000000E-01	 5.00000000E-01	 1.00000000E+00
	 5.00000000E-01	 1.00000000E+00	 1.00000000E+00
	 1.00000000E+00	 7.50000000E-01	-5.96046000E-08
	 1.00000000E+00	 5.00000000E-01	 5.00000000E-01
	 1.00000000E+00	 7.50000000E-01	 1.00000000E+00
	 1.00000000E+00	 1.00000000E+00	 5.00000000E-01
	 7.50000000E-01	 1.00000000E+00	-5.96046000E-08
	 7.50000000E-01	 5.00000000E-01	-5.96046000E-08
	 7.50000000E-01	 5.00000000E-01	 1.00000000E+00
	 7.50000000E-01	 1.00000000E+00	 1.00000000E+00
	 5.00000000E-01	 7.50000000E-01	-5.96046000E-08
	 5.00000000E-01	 5.00000000E-01	 5.00000000E-01
	 5.00000000E-01	 7.50000000E-01	 1.00000000E+00
	 5.00000000E-01	 1.00000000E+00	 5.00000000E-01
	 1.00000000E+00	-1.49012000E-08	-5.96046000E-08
	 1.00000000E+00	-1.49012000E-08	 1.00000000E+00
	 5.00000000E-01	-1.49012000E-08	-5.96046000E-08
	 5.00000000E-01	-1.49012000E-08	 1.00000000E+00
	 1.00000000E+00	 2.50000000E-01	-5.96046000E-08
	 1.00000000E+00	-1.49012000E-08	 5.00000000E-01
	 1.00000000E+00	 2.50000000E-01	 1.00000000E+00
	 7.50000000E-01	-1.49012000E-08	-5.96046000E-08
	 7.50000000E-01	-1.49012000E-08	 1.00000000E+00
	 5.00000000E-01	 2.50000000E-01	-5.96046000E-08
	 5.00000000E-01	-1.49012000E-08	 5.00000000E-01
	 5.00000000E-01	 2.50000000E-01	 1.00000000E+00
	-7.45058000E-09	 1.00000000E+00	-5.96046000E-08
	-7.45058000E-09	 5.00000000E-01	-5.96046000E-08
	-7.45058000E-09	 5.00000000E-01	 1.00000000E+00
	-7.45058000E-09	 1.00000000E+00	 1.00000000E+00
	 2.50000000E-01	 1.00000000E+00	-5.96046000E-08
	 2.50000000E-01	 5.00000000E-01	-5.96046000E-08
	 2.50000000E-01	 5.00000000E-01	 1.00000000E+00
	 2.50000000E-01	 1.00000000E+00	 1.00000000E+00
	-7.45058000E-09	 7.50000000E-01	-5.96046000E-08
	-7.45058000E-09	 5.00000000E-01	 5.00000000E-01
	-7.45058000E-09	 7.50000000E-01	 1.00000000E+00
	-7.45058000E-09	 1.00000000E+00	 5.00000000E-01
	-7.45058000E-09	-1.49012000E-08	-5.96046000E-08
	-7.45058000E-09	-1.49012000E-08	 1.00000000E+00
	 2.50000000E-01	-1.49012000E-08	-5.96046000E-08
	 2.50000000E-01	-1.49012000E-08	 1.00000000E+00
	-7.45058000E-09	 2.50000000E-01	-5.96046000E-08
	-7.45058000E-09	-1.49012000E-08	 5.00000000E-01
	-7.45058000E-09	 2.50000000E-01	 1.00000000E+00
	 1.00000000E+00	 5.00000000E-01	 2.00000000E+00
	 1.00000000E+00	 1.00000000E+00	 2.00000000E+00
	 5.00000000E-01	 5.00000000E-01	 2.00000000E+00
	 5.00000000E-01	 1.00000000E+00	 2.00000000E+00
	 1.00000000E+00	 5.00000000E-01	 1.50000000E+00
	 1.00000000E+00	 7.50000000E-01	 2.00000000E+00
	 1.00000000E+00	 1.00000000E+00	 1.50000000E+00
	 7.50000000E-01	 5.00000000E-01	 2.00000000E+00
	 7.50000000E-01	 1.00000000E+00	 2.00000000E+00
	 5.00000000E-01	 5.00000000E-01	 1.50000000E+00
	 5.00000000E-01	 7.50000000E-01	 2.00000000E+00
	 5.00000000E-01	 1.00000000E+00	 1.50000000E+00
	 1.00000000E+00	-1.49012000E-08	 2.00000000E+00
	 5.00000000E-01	-1.49012000E-08	 2.00000000E+00
	 1.00000000E+00	-1.49012000E-08	 1.50000000E+00
	 1.00000000E+00	 2.50000000E-01	 2.00000000E+00
	 7.50000000E-01	-1.49012000E-08	 2.00000000E+00
	 5.00000000E-01	-1.49012000E-08	 1.50000000E+00
	 5.00000000E-01	 2.50000000E-01	 2.00000000E+00
	-7.45058000E-09	 5.00000000E-01	 2.00000000E+00
	-7.45058000E-09	 1.00000000E+00	 2.00000000E+00
	 2.50000000E-01	 5.00000000E-01	 2.00000000E+00
	 2.50000000E-01	 1.00000000E+00	 2.00000000E+00
	-7.45058000E-09	 5.00000000E-01	 1.50000000E+00
	-7.45058000E-09	 7.50000000E-01	 2.00000000E+00
	-7.45058000E-09	 1.00000000E+00	 1.50000000E+00
	-7.45058000E-09	-1.49012000E-08	 2.00000000E+00
	 2.50000000E-01	-1.49012000E-08	 2.00000000E+00
	-7.45058000E-09	-1.49012000E-08	 1.50000000E+00
	-7.45058000E-09	 2.50000000E-01	 2.00000000E+00
	 1.00000000E+00	 5.00000000E-01	 3.00000000E+00
	 1.00000000E+00	 1.00000000E+00	 3.00000000E+00
	 5.00000000E-01	 5.00000000E-01	 3.00000000E+00
	 5.00000000E-01	 1.00000000E+00	 3.00000000E+00
	 1.00000000E+00	 5.00000000E-01	 2.50000000E+00
	 1.00000000E+00	 7.50000000E-01	 3.00000000E+00
	 1.00000000E+00	 1.00000000E+00	 2.50000000E+00
	 7.50000000E-01	 5.00000000E-01	 3.00000000E+00
	 7.50000000E-01	 1.00000000E+00	 3.00000000E+00
	 5.00000000E-01	 5.00000000E-01	 2.50000000E+00
	 5.00000000E-01	 7.50000000E-01	 3.00000000E+00
	 5.00000000E-01	 1.00000000E+00	 2.50000000E+00
	 1.00000000E+00	-1.49012000E-08	 3.00000000E+00
	 5.00000000E-01	-1.49012000E-08	 3.00000000E+00
	 1.00000000E+00	-1.49012000E-08	 2.50000000E+00
	 1.00000000E+00	 2.50000000E-01	 3.00000000E+00
	 7.50000000E-01	-1.49012000E-08	 3.00000000E+00
	 5.00000000E-01	-1.49012000E-08	 2.50000000E+00
	 5.00000000E-01	 2.50000000E-01	 3.00000000E+00
	-7.45058000E-09	 5.00000000E-01	 3.00000000E+00
	-7.45058000E-09	 1.00000000E+00	 3.00000000E+00
	 2.50000000E-01	 5.00000000E-01	 3.00000000E+00
	 2.50000000E-01	 1.00000000E+00	 3.00000000E+00
	-7.45058000E-09	 5.00000000E-01	 2.50000000E+00
	-7.45058000E-09	 7.50000000E-01	 3.00000000E+00
	-7.45058000E-09	 1.00000000E+00	 2.50000000E+00
	-7.45058000E-09	-1.49012000E-08	 3.00000000E+00
	 2.50000000E-01	-1.49012000E-08	 3.00000000E+00
	-7.45058000E-09	-1.49012000E-08	 2.50000000E+00
	-7.45058000E-09	 2.50000000E-01	 3.00000000E+00
	 1.00000000E+00	 5.00000000E-01	 4.00000000E+00
	 1.00000000E+00	 1.00000000E+00	 4.00000000E+00
	 5.00000000E-01	 5.00000000E-01	 4.00000000E+00
	 5.00000000E-01	 1.00000000E+00	 4.00000000E+00
	 1.00000000E+00	 5.00000000E-01	 3.50000000E+00
	 1.00000000E+00	 7.50000000E-01	 4.00000000E+00
	 1.00000000E+00	 1.00000000E+00	 3.50000000E+00
	 7.50000000E-01	 5.00000000E-01	 4.00000000E+00
	 7.50000000E-01	 1.00000000E+00	 4.00000000E+00
	 5.00000000E-01	 5.00000000E-01	 3.50000000E+00
	 5.00000000E-01	 7.50000000E-01	 4.00000000E+00
	 5.00000000E-01	 1.00000000E+00	 3.50000000E+00
	 1.00000000E+00	-1.49012000E-08	 4.00000000E+00
	 5.00000000E-01	-1.49012000E-08	 4.00000000E+00
	 1.00000000E+00	-1.49012000E-08	 3.50000000E+00
	 1.00000000E+00	 2.50000000E-01	 4.00000000E+00
	 7.50000000E-01	-1.49012000E-08	 4.00000000E+00
	 5.00000000E-01	-1.49012000E-08	 3.50000000E+00
	 5.00000000E-01	 2.50000000E-01	 4.00000000E+00
	-7.45058000E-09	 5.00000000E-01	 4.00000000E+00
	-7.45058000E-09	 1.00000000E+00	 4.00000000E+00
	 2.50000000E-01	 5.00000000E-01	 4.00000000E+00
	 2.50000000E-01	 1.00000000E+00	 4.00000000E+00
	-7.45058000E-09	 5.00000000E-01	 3.50000000E+00
	-7.45058000E-09	 7.50000000E-01	 4.00000000E+00
	-7.45058000E-09	 1.00000000E+00	 3.50000000E+00
	-7.45058000E-09	-1.49012000E-08	 4.00000000E+00
	 2.50000000E-01	-1.49012000E-08	 4.00000000E+00
	-7.45058000E-09	-1.49012000E-08	 3.50000000E+00
	-7.45058000E-09	 2.50000000E-01	 4.00000000E+00
	 1.00000000E+00	 5.00000000E-01	 5.00000000E+00
	 1.00000000E+00	 1.00000000E+00	 5.00000000E+00
	 5.00000000E-01	 5.00000000E-01	 5.00000000E+00
	 5.00000000E-01	 1.00000000E+00	 5.00000000E+00
	 1.00000000E+00	 5.00000000E-01	 4.50000000E+00
	 1.00000000E+00	 7.50000000E-01	 5.00000000E+00
	 1.00000000E+00	 1.00000000E+00	 4.50000000E+00
	 7.50000000E-01	 5.00000000E-01	 5.00000000E+00
	 7.50000000E-01	 1.00000000E+00	 5.00000000E+00
	 5.00000000E-01	 5.00000000E-01	 4.50000000E+00
	 5.00000000E-01	 7.50000000E-01	 5.00000000E+00
	 5.00000000E-01	 1.00000000E+00	 4.50000000E+00
	 1.00000000E+00	-1.49012000E-08	 5.00000000E+00
	 5.00000000E-01	-1.49012000E-08	 5.00000000E+00
	 1.00000000E+00	-1.49012000E-08	 4.50000000E+00
	 1.00000000E+00	 2.50000000E-01	 5.00000000E+00
	 7.50000000E-01	-1.49012000E-08	 5.00000000E+00
	 5.00000000E-01	-1.49012000E-08	 4.50000000E+00
	 5.00000000E-01	 2.50000000E-01	 5.00000000E+00
	-7.45058000E-09	 5.00000000E-01	 5.00000000E+00
	-7.45058000E-09	 1.00000000E+00	 5.00000000E+00
	 2.50000000E-01	 5.00000000E-01	 5.00000000E+00
	 2.50000000E-01	 1.00000000E+00	 5.00000000E+00
	-7.45058000E-09	 5.00000000E-01	 4.50000000E+00
	-7.45058000E-09	 7.50000000E-01	 5.00000000E+00
	-7.45058000E-09	 1.00000000E+00	 4.50000000E+00
	-7.45058000E-09	-1.49012000E-08	 5.00000000E+00
	 2.50000000E-01	-1.49012000E-08	 5.00000000E+00
	-7.45058000E-09	-1.49012000E-08	 4.50000000E+00
	-7.45058000E-09	 2.50000000E-01	 5.00000000E+00
	 1.00000000E+00	 5.00000000E-01	 6.00000000E+00
	 1.00000000E+00	 1.00000000E+00	 6.00000000E+00
	 5.00000000E-01	 5.00000000E-01	 6.00000000E+00
	 5.00000000E-01	 1.00000000E+00	 6.00000000E+00
	 1.00000000E+00	 5.00000000E-01	 5.50000000E+00
	 1.00000000E+00	 7.50000000E-01	 6.00000000E+00
	 1.00000000E+00	 1.00000000E+00	 5.50000000E+00
	 7.50000000E-01	 5.00000000E-01	 6.00000000E+00
	 7.50000000E-01	 1.00000000E+00	 6.00000000E+00
	 5.00000000E-01	 5.00000000E-01	 5.50000000E+00
	 5.00000000E-01	 7.50000000E-01	 6.00000000E+00
	 5.00000000E-01	 1.00000000E+00	 5.50000000E+00
	 1.00000000E+00	-1.49012000E-08	 6.00000000E+00
	 5.00000000E-01	-1.49012000E-08	 6.00000000E+00
	 1.00000000E+00	-1.49012000E-08	 5.50000000E+00
	 1.00000000E+00	 2.50000000E-01	 6.00000000E+00
	 7.50000000E-01	-1.49012000E-08	 6.00000000E+00
	 5.00000000E-01	-1.49012000E-08	 5.50000000E+00
	 5.00000000E-01	 2.50000000E-01	 6.00000000E+00
	-7.45058000E-09	 5.00000000E-01	 6.00000000E+00
	-7.45058000E-09	 1.00000000E+00	 6.00000000E+00
	 2.50000000E-01	 5.00000000E-01	 6.00000000E+00
	 2.50000000E-01	 1.00000000E+00	 6.00000000E+00
	-7.45058000E-09	 5.00000000E-01	 5.50000000E+00
	-7.45058000E-09	 7.50000000E-01	 6.00000000E+00
	-7.45058000E-09	 1.00000000E+00	 5.50000000E+00
	-7.45058000E-09	-1.49012000E-08	 6.00000000E+00
	 2.50000000E-01	-1.49012000E-08	 6.00000000E+00
	-7.45058000E-09	-1.49012000E-08	 5.50000000E+00
	-7.45058000E-09	 2.50000000E-01	 6.00000000E+00
	 1.00000000E+00	 5.00000000E-01	 7.00000000E+00
[...]
POINT_DATA 522
FIELD U 1
	U 3 522 double
		 0.00000000E+00	 0.00000000E+00	 0.00000000E+00
		 0.00000000E+00	 0.00000000E+00	 0.00000000E+00
		 9.17758000E-06	-4.28818000E-03	-2.39701000E-05
		-1.28786000E-04	-4.41290000E-03	 2.93011000E-03
		 0.00000000E+00	 0.00000000E+00	 0.00000000E+00
		 0.00000000E+00	 0.00000000E+00	 0.00000000E+00
		 8.61200000E-06	-4.29771000E-03	-2.14805000E-05
		 1.39644000E-04	-4.42852000E-03	 2.98041000E-03
		 0.00000000E+00	 0.00000000E+00	 0.00000000E+00
		 9.47168000E-06	-1.36338000E-03	-1.14784000E-05
		-6.14182000E-05	-4.29317000E-03	 1.36565000E-03
		-3.38680000E-04	-1.60710000E-03	 1.65291000E-03
		 0.00000000E+00	 0.00000000E+00	 0.00000000E+00
		 0.00000000E+00	 0.00000000E+00	 0.00000000E+00
		 8.97601000E-06	-4.34727000E-03	-2.33160000E-05
		 8.81085000E-06	-4.47308000E-03	 2.96803000E-03
		 0.00000000E+00	 0.00000000E+00	 0.00000000E+00
		 6.74689000E-06	-1.45250000E-03	-9.69865000E-06
		 7.52259000E-05	-4.30352000E-03	 1.40052000E-03
		 1.06167000E-04	-1.70519000E-03	 1.62743000E-03
		 0.00000000E+00	 0.00000000E+00	 0.00000000E+00
		 1.42723000E-04	-4.39613000E-03	-2.97862000E-03
		 0.00000000E+00	 0.00000000E+00	 0.00000000E+00
		-1.24128000E-04	-4.40732000E-03	-3.02486000E-03
		 0.00000000E+00	 0.00000000E+00	 0.00000000E+00
		 3.53661000E-04	-1.60545000E-03	-1.67757000E-03
		 7.85905000E-05	-4.28580000E-03	-1.41380000E-03
		 0.00000000E+00	 0.00000000E+00	 0.00000000E+00
		 5.81116000E-06	-4.45309000E-03	-3.01533000E-03
		 0.00000000E+00	 0.00000000E+00	 0.00000000E+00
		-9.45545000E-05	-1.70025000E-03	-1.64790000E-03
		-5.84781000E-05	-4.29289000E-03	-1.44390000E-03
		 0.00000000E+00	 0.00000000E+00	 0.00000000E+00
		 0.00000000E+00	 0.00000000E+00	 0.00000000E+00
		 7.53030000E-06	-4.02553000E-03	-1.71783000E-05
		 4.21461000E-04	-4.13866000E-03	 2.93584000E-03
		 0.00000000E+00	 0.00000000E+00	 0.00000000E+00
		 0.00000000E+00	 0.00000000E+00	 0.00000000E+00
		 7.95275000E-06	-4.21494000E-03	-1.93830000E-05
		 2.77843000E-04	-4.33868000E-03	 2.96488000E-03
		 0.00000000E+00	 0.00000000E+00	 0.00000000E+00
		 4.35778000E-06	-1.16296000E-03	-6.20936000E-06
		 2.14154000E-04	-4.02456000E-03	 1.37803000E-03
		 5.50966000E-04	-1.40989000E-03	 1.65874000E-03
		 0.00000000E+00	 0.00000000E+00	 0.00000000E+00
		-4.05183000E-04	-4.11779000E-03	-2.97204000E-03
		 0.00000000E+00	 0.00000000E+00	 0.00000000E+00
		-2.62082000E-04	-4.31702000E-03	-3.00569000E-03
		 0.00000000E+00	 0.00000000E+00	 0.00000000E+00
		-5.41736000E-04	-1.40332000E-03	-1.67208000E-03
		-1.98585000E-04	-4.01416000E-03	-1.41274000E-03
		 1.86726000E-05	-1.17954000E-02	-5.66216000E-05
		-5.08271000E-04	-1.19295000E-02	 4.46343000E-03
		 1.67925000E-05	-1.22319000E-02	-5.73318000E-05
		-3.12934000E-04	-1.23531000E-02	 4.46490000E-03
		 1.21138000E-05	-7.81527000E-03	-3.91823000E-05
		-2.49798000E-04	-1.18456000E-02	 2.26603000E-03
		-1.95755000E-04	-7.98852000E-03	 3.77836000E-03
		 1.77469000E-05	-1.20358000E-02	-5.64478000E-05
		-4.10552000E-04	-1.21577000E-02	 4.39734000E-03
		 1.03957000E-05	-7.93082000E-03	-3.55052000E-05
		-1.47461000E-04	-1.22751000E-02	 2.20003000E-03
		 1.46025000E-05	-8.08184000E-03	 3.79007000E-03
		 5.50912000E-04	-1.18823000E-02	-4.58027000E-03
		 3.51717000E-04	-1.23130000E-02	-4.58320000E-03
		 2.20039000E-04	-7.95710000E-03	-3.85906000E-03
		 2.88545000E-04	-1.18199000E-02	-2.38066000E-03
		 4.51902000E-04	-1.21158000E-02	-4.51319000E-03
		 7.81705000E-06	-8.05087000E-03	-3.86485000E-03
		 1.82860000E-04	-1.22554000E-02	-2.31568000E-03
		 1.55224000E-05	-1.24593000E-02	-5.53095000E-05
		-9.97254000E-05	-1.25692000E-02	 4.46274000E-03
		 1.59341000E-05	-1.23653000E-02	-5.73772000E-05
		-2.05158000E-04	-1.24831000E-02	 4.52822000E-03
		 8.92420000E-06	-7.80949000E-03	-3.10580000E-05
		-4.24073000E-05	-1.24940000E-02	 2.13289000E-03
		 2.55564000E-04	-7.95053000E-03	 3.78336000E-03
		 1.34736000E-04	-1.25343000E-02	-4.57716000E-03
		 2.41562000E-04	-1.24443000E-02	-4.64703000E-03
		-2.35144000E-04	-7.92182000E-03	-3.85086000E-03
		 7.46442000E-05	-1.24789000E-02	-2.24433000E-03
		 2.15822000E-05	-2.13112000E-02	-1.02353000E-04
		-1.53724000E-03	-2.14322000E-02	 5.73559000E-03
		 2.46316000E-05	-2.27751000E-02	-1.20121000E-04
		-1.35051000E-03	-2.28984000E-02	 5.72809000E-03
		 2.25073000E-05	-1.62349000E-02	-7.58384000E-05
		-7.55586000E-04	-2.13458000E-02	 2.87666000E-03
		-1.00012000E-03	-1.63633000E-02	 5.12500000E-03
		 2.28532000E-05	-2.20685000E-02	-1.11876000E-04
		-1.44457000E-03	-2.21920000E-02	 5.65403000E-03
		 2.25084000E-05	-1.71615000E-02	-8.58548000E-05
		-6.63552000E-04	-2.28092000E-02	 2.78600000E-03
		-8.00727000E-04	-1.72833000E-02	 5.11770000E-03
		 1.58315000E-03	-2.13603000E-02	-5.94456000E-03
		 1.40064000E-03	-2.28296000E-02	-5.97207000E-03
		 1.05012000E-03	-1.63038000E-02	-5.28164000E-03
		 7.99429000E-04	-2.13087000E-02	-3.08252000E-03
		 1.49257000E-03	-2.21241000E-02	-5.88194000E-03
		 8.49595000E-04	-1.72302000E-02	-5.29264000E-03
		 7.13154000E-04	-2.27756000E-02	-3.02723000E-03
		 2.72858000E-05	-2.40608000E-02	-1.33642000E-04
		-1.16311000E-03	-2.41785000E-02	 5.70420000E-03
		 2.63735000E-05	-2.34429000E-02	-1.27237000E-04
		-1.25617000E-03	-2.35660000E-02	 5.80231000E-03
		 2.27438000E-05	-1.78834000E-02	-9.11556000E-05
		-5.70112000E-04	-2.40920000E-02	 2.68121000E-03
		-5.94707000E-04	-1.79998000E-02	 5.11005000E-03
		 1.21661000E-03	-2.41090000E-02	-5.97439000E-03
		 1.30844000E-03	-2.34951000E-02	-6.05984000E-03
		 6.42625000E-04	-1.79503000E-02	-5.29397000E-03
		 6.24448000E-04	-2.40597000E-02	-2.94945000E-03
		 1.73050000E-05	-3.34504000E-02	-1.77874000E-04
		-2.41716000E-03	-3.34993000E-02	 6.37329000E-03
		 2.64351000E-05	-3.58895000E-02	-2.09423000E-04
		-2.41650000E-03	-3.59344000E-02	 6.36872000E-03
		 1.89077000E-05	-2.71216000E-02	-1.38092000E-04
		-1.20110000E-03	-3.34755000E-02	 3.10363000E-03
		-2.01139000E-03	-2.72070000E-02	 6.19973000E-03
		 2.12897000E-05	-3.46693000E-02	-1.93944000E-04
		-2.41648000E-03	-3.47145000E-02	 6.31347000E-03
		 2.48352000E-05	-2.90916000E-02	-1.61888000E-04
		-1.19533000E-03	-3.59110000E-02	 3.02506000E-03
		-1.89307000E-03	-2.91806000E-02	 6.19721000E-03
		 2.45869000E-03	-3.33990000E-02	-6.72774000E-03
		 2.47184000E-03	-3.58418000E-02	-6.78657000E-03
		 2.05363000E-03	-2.71195000E-02	-6.47754000E-03
		 1.23760000E-03	-3.34255000E-02	-3.45921000E-03
		 2.46471000E-03	-3.46207000E-02	-6.69994000E-03
		 1.94391000E-03	-2.90979000E-02	-6.52367000E-03
		 1.24899000E-03	-3.58676000E-02	-3.44359000E-03
		 3.52757000E-05	-3.83372000E-02	-2.40562000E-04
		-2.41465000E-03	-3.83805000E-02	 6.31014000E-03
		 3.15960000E-05	-3.71122000E-02	-2.24929000E-04
		-2.41561000E-03	-3.71574000E-02	 6.42888000E-03
		 3.03875000E-05	-3.09568000E-02	-1.83113000E-04
		-1.18961000E-03	-3.83570000E-02	 2.89368000E-03
		-1.77975000E-03	-3.10442000E-02	 6.15337000E-03
		 2.48282000E-03	-3.82873000E-02	-6.79063000E-03
		 2.47802000E-03	-3.70630000E-02	-6.87824000E-03
		 1.83793000E-03	-3.09599000E-02	-6.52301000E-03
		 1.25959000E-03	-3.83153000E-02	-3.37430000E-03
		 3.09584000E-06	-4.55192000E-02	-2.42526000E-04
		-3.34371000E-03	-4.54631000E-02	 5.48002000E-03
		 1.63789000E-05	-4.89807000E-02	-2.91741000E-04
		-3.55068000E-03	-4.89202000E-02	 5.44364000E-03
		 1.43271000E-05	-3.97756000E-02	-2.13641000E-04
		-1.67245000E-03	-4.55210000E-02	 2.67741000E-03
		-2.83245000E-03	-3.97750000E-02	 6.08816000E-03
		 9.22007000E-06	-4.72224000E-02	-2.66964000E-04
		-3.44723000E-03	-4.71608000E-02	 5.37854000E-03
		 2.61244000E-05	-4.26952000E-02	-2.54928000E-04
		-1.76677000E-03	-4.89795000E-02	 2.54991000E-03
		-2.95605000E-03	-4.26854000E-02	 6.07117000E-03
		 3.35048000E-03	-4.53717000E-02	-5.96038000E-03
		 3.58284000E-03	-4.88276000E-02	-6.02209000E-03
		 2.86559000E-03	-3.96758000E-02	-6.51164000E-03
		 1.67885000E-03	-4.54735000E-02	-3.16081000E-03
		 3.46619000E-03	-4.70711000E-02	-5.90822000E-03
		 3.00970000E-03	-4.25904000E-02	-6.57636000E-03
		 1.79960000E-03	-4.89338000E-02	-3.13224000E-03
		 3.17333000E-05	-5.26518000E-02	-3.46735000E-04
		-3.75428000E-03	-5.25970000E-02	 5.37601000E-03
		 2.40373000E-05	-5.07881000E-02	-3.17850000E-04
		-3.65267000E-03	-5.07309000E-02	 5.50808000E-03
		 3.82748000E-05	-4.57404000E-02	-2.99096000E-04
		-1.85976000E-03	-5.26518000E-02	 2.39285000E-03
		-3.07195000E-03	-4.57306000E-02	 6.00323000E-03
		 3.81562000E-03	-5.25003000E-02	-6.06424000E-03
		 3.69901000E-03	-5.06341000E-02	-6.13823000E-03
		 3.14686000E-03	-4.56349000E-02	-6.59620000E-03
		 1.92284000E-03	-5.26061000E-02	-3.08548000E-03
		-3.50674000E-05	-5.43039000E-02	-2.86697000E-04
		-4.54708000E-03	-5.42095000E-02	 3.76081000E-03
		-1.56315000E-05	-5.89502000E-02	-3.43271000E-04
		-4.78858000E-03	-5.88575000E-02	 3.70287000E-03
		-1.40256000E-05	-5.03643000E-02	-2.67375000E-04
		-2.29165000E-03	-5.42928000E-02	 1.82262000E-03
		-3.94866000E-03	-5.02870000E-02	 4.65647000E-03
		-2.59134000E-05	-5.65924000E-02	-3.15250000E-04
		-4.66866000E-03	-5.64982000E-02	 3.64916000E-03
		 4.42910000E-07	-5.44266000E-02	-3.20566000E-04
		-2.40218000E-03	-5.89396000E-02	 1.68322000E-03
		-4.18572000E-03	-5.43485000E-02	 4.60830000E-03
		 4.47873000E-03	-5.41325000E-02	-4.33523000E-03
		 4.75823000E-03	-5.87796000E-02	-4.39147000E-03
		 3.92103000E-03	-5.02037000E-02	-5.18850000E-03
		 2.22200000E-03	-5.42516000E-02	-2.39651000E-03
		 4.61916000E-03	-5.64232000E-02	-4.28084000E-03
		 4.18613000E-03	-5.42627000E-02	-5.24734000E-03
		 2.37198000E-03	-5.89004000E-02	-2.37034000E-03
		 8.65371000E-06	-6.38520000E-02	-3.98340000E-04
		-5.03713000E-03	-6.37724000E-02	 3.64942000E-03
		-4.29607000E-06	-6.13682000E-02	-3.70824000E-04
		-4.91386000E-03	-6.12793000E-02	 3.75685000E-03
		 1.89556000E-05	-5.87352000E-02	-3.77904000E-04
		-2.51069000E-03	-6.38469000E-02	 1.54851000E-03
		-4.42242000E-03	-5.86663000E-02	 4.54612000E-03
		 5.05338000E-03	-6.36891000E-02	-4.44937000E-03
		 4.90473000E-03	-6.11977000E-02	-4.50101000E-03
		 4.45790000E-03	-5.85738000E-02	-5.30057000E-03
		 2.52861000E-03	-6.38065000E-02	-2.34635000E-03
		-1.01086000E-04	-5.96309000E-02	-3.12197000E-04
		-5.53129000E-03	-5.95748000E-02	 2.22101000E-03
		-6.82183000E-05	-6.51359000E-02	-3.67756000E-04
		-5.64787000E-03	-6.50872000E-02	 2.14091000E-03
		-6.54595000E-05	-5.73406000E-02	-2.99700000E-04
		-2.81342000E-03	-5.96219000E-02	 1.03652000E-03
		-5.09131000E-03	-5.72601000E-02	 2.90656000E-03
		-8.62635000E-05	-6.23604000E-02	-3.39865000E-04
		-5.59126000E-03	-6.23109000E-02	 2.13485000E-03
		-3.73065000E-05	-6.24812000E-02	-3.58525000E-04
		-2.85742000E-03	-6.51315000E-02	 9.22273000E-04
		-5.28542000E-03	-6.24056000E-02	 2.83530000E-03
		 5.33065000E-03	-5.95077000E-02	-2.83848000E-03
		 5.51671000E-03	-6.50211000E-02	-2.87019000E-03
		 4.96423000E-03	-5.71898000E-02	-3.50801000E-03
		 2.61196000E-03	-5.95894000E-02	-1.65713000E-03
		 5.42184000E-03	-6.22447000E-02	-2.80881000E-03
		 5.21391000E-03	-6.23375000E-02	-3.55532000E-03
		 2.72330000E-03	-6.51001000E-02	-1.65516000E-03
		-3.17019000E-05	-7.08013000E-02	-4.30781000E-04
		-5.78044000E-03	-7.07587000E-02	 2.08863000E-03
		-4.92873000E-05	-6.79507000E-02	-3.98827000E-04
		-5.71288000E-03	-6.79024000E-02	 2.13937000E-03
		-4.87979000E-06	-6.78459000E-02	-4.14709000E-04
		-2.90427000E-03	-7.07996000E-02	 8.35812000E-04
		-5.49612000E-03	-6.77854000E-02	 2.78971000E-03
		 5.72404000E-03	-7.06977000E-02	-2.94453000E-03
		 5.62167000E-03	-6.78374000E-02	-2.93223000E-03
		 5.48731000E-03	-6.77148000E-02	-3.62296000E-03
		 2.84297000E-03	-7.07730000E-02	-1.69390000E-03
		-1.51118000E-04	-6.33582000E-02	-3.31758000E-04
		-6.03363000E-03	-6.33870000E-02	 1.77943000E-03
		-1.43318000E-04	-6.91762000E-02	-3.79552000E-04
		-5.99929000E-03	-6.92242000E-02	 1.68573000E-03
		-1.31604000E-04	-6.14687000E-02	-3.25198000E-04
		-3.09422000E-03	-6.33724000E-02	 7.46556000E-04
		-5.85593000E-03	-6.14658000E-02	 1.87631000E-03
		-1.43981000E-04	-6.62739000E-02	-3.51944000E-04
		-6.01291000E-03	-6.63139000E-02	 1.72707000E-03
		-1.04552000E-04	-6.72120000E-02	-3.74023000E-04
		-3.07844000E-03	-6.92004000E-02	 6.64219000E-04
		-5.88094000E-03	-6.72180000E-02	 1.78948000E-03
		 5.71274000E-03	-6.32798000E-02	-2.41437000E-03
		 5.72110000E-03	-6.90990000E-02	-2.41394000E-03
		 5.58276000E-03	-6.13913000E-02	-2.50347000E-03
		 2.78771000E-03	-6.33142000E-02	-1.40172000E-03
		 5.71686000E-03	-6.61921000E-02	-2.40223000E-03
		 5.67912000E-03	-6.71343000E-02	-2.51440000E-03
		 2.79503000E-03	-6.91313000E-02	-1.41486000E-03
		-1.33164000E-04	-7.50260000E-02	-4.58234000E-04
		-5.99268000E-03	-7.50571000E-02	 1.59995000E-03
		-1.42028000E-04	-7.20962000E-02	-4.15632000E-04
		-5.99986000E-03	-7.21401000E-02	 1.63991000E-03
		-7.49402000E-05	-7.30301000E-02	-4.47552000E-04
		-3.06938000E-03	-7.50404000E-02	 5.82266000E-04
		-5.92527000E-03	-7.30267000E-02	 1.71616000E-03
		 5.75993000E-03	-7.49665000E-02	-2.48371000E-03
		 5.74070000E-03	-7.20250000E-02	-2.44012000E-03
		 5.79807000E-03	-7.29657000E-02	-2.58834000E-03
		 2.81190000E-03	-7.49935000E-02	-1.48851000E-03
		 0.00000000E+00	 0.00000000E+00	 0.00000000E+00
		 0.00000000E+00	 0.00000000E+00	 0.00000000E+00
		-8.99917000E-06	-3.96713000E-03	-1.00733000E-04
		-2.78547000E-03	-4.32633000E-03	 5.66947000E-03
		 0.00000000E+00	 0.00000000E+00	 0.00000000E+00
		 0.00000000E+00	 0.00000000E+00	 0.00000000E+00
		-2.17435000E-05	-6.35153000E-03	-1.37619000E-04
		-2.04288000E-03	-6.73927000E-03	 5.71149000E-03
		 0.00000000E+00	 0.00000000E+00	 0.00000000E+00
		 9.45296000E-06	-1.67617000E-04	-3.86312000E-05
		-1.39876000E-03	-4.01456000E-03	 2.87928000E-03
		-1.84967000E-03	-6.88090000E-04	 2.86542000E-03
		 0.00000000E+00	 0.00000000E+00	 0.00000000E+00
		 0.00000000E+00	 0.00000000E+00	 0.00000000E+00
		-1.42757000E-05	-5.28841000E-03	-1.21067000E-04
		-2.40810000E-03	-5.65905000E-03	 5.51702000E-03
		 0.00000000E+00	 0.00000000E+00	 0.00000000E+00
		-6.13895000E-06	-1.57425000E-03	-5.37161000E-05
		-1.03272000E-03	-6.40601000E-03	 2.70483000E-03
		-1.02113000E-03	-2.06274000E-03	 2.76983000E-03
		 0.00000000E+00	 0.00000000E+00	 0.00000000E+00
		 2.76046000E-03	-4.26974000E-03	-5.88724000E-03
		 0.00000000E+00	 0.00000000E+00	 0.00000000E+00
		 2.00118000E-03	-6.68252000E-03	-6.00214000E-03
		 0.00000000E+00	 0.00000000E+00	 0.00000000E+00
		 1.86670000E-03	-6.82016000E-04	-2.95371000E-03
		 1.37776000E-03	-3.98331000E-03	-3.08574000E-03
		 0.00000000E+00	 0.00000000E+00	 0.00000000E+00
		 2.37701000E-03	-5.60278000E-03	-5.77348000E-03
		 0.00000000E+00	 0.00000000E+00	 0.00000000E+00
		 1.01232000E-03	-2.06424000E-03	-2.88449000E-03
		 9.87916000E-04	-6.37663000E-03	-2.98463000E-03
		 0.00000000E+00	 0.00000000E+00	 0.00000000E+00
		 0.00000000E+00	 0.00000000E+00	 0.00000000E+00
		-3.81255000E-05	-8.00877000E-03	-1.66637000E-04
		-1.29546000E-03	-8.35815000E-03	 5.60829000E-03
		 0.00000000E+00	 0.00000000E+00	 0.00000000E+00
		 0.00000000E+00	 0.00000000E+00	 0.00000000E+00
		-2.91212000E-05	-7.30681000E-03	-1.52243000E-04
		-1.67242000E-03	-7.67596000E-03	 5.84422000E-03
		 0.00000000E+00	 0.00000000E+00	 0.00000000E+00
		-2.70091000E-05	-2.19958000E-03	-6.94901000E-05
		-6.69263000E-04	-8.04727000E-03	 2.45808000E-03
		-1.25398000E-04	-2.63962000E-03	 2.83729000E-03
		 0.00000000E+00	 0.00000000E+00	 0.00000000E+00
		 1.22504000E-03	-8.30452000E-03	-5.95240000E-03
		 0.00000000E+00	 0.00000000E+00	 0.00000000E+00
		 1.61675000E-03	-7.62184000E-03	-6.16337000E-03
		 0.00000000E+00	 0.00000000E+00	 0.00000000E+00
		 7.70847000E-05	-2.64793000E-03	-2.98287000E-03
		 5.95852000E-04	-8.02401000E-03	-2.79330000E-03
		-9.20873000E-06	-1.98712000E-02	-3.71738000E-04
		-3.87583000E-03	-2.00891000E-02	 9.19955000E-03
		-1.90320000E-05	-2.35666000E-02	-4.19708000E-04
		-3.56269000E-03	-2.37979000E-02	 9.20606000E-03
		-1.79611000E-05	-1.07707000E-02	-2.10473000E-04
		-1.93853000E-03	-1.99473000E-02	 4.34312000E-03
		-3.50669000E-03	-1.10881000E-02	 7.83674000E-03
		-1.50857000E-05	-2.17480000E-02	-3.98384000E-04
		-3.72001000E-03	-2.19758000E-02	 9.16872000E-03
		-3.11054000E-05	-1.39503000E-02	-2.56977000E-04
		-1.78698000E-03	-2.36482000E-02	 4.28803000E-03
		-2.92792000E-03	-1.42910000E-02	 7.84691000E-03
		 3.86206000E-03	-1.99166000E-02	-9.95506000E-03
		 3.52206000E-03	-2.36329000E-02	-1.00566000E-02
		 3.46892000E-03	-1.09704000E-02	-8.27630000E-03
		 1.92109000E-03	-1.98621000E-02	-5.08973000E-03
		 3.69395000E-03	-2.18139000E-02	-9.97529000E-03
		 2.86721000E-03	-1.41762000E-02	-8.38092000E-03
		 1.75358000E-03	-2.35707000E-02	-5.12754000E-03
		-2.97559000E-05	-2.69570000E-02	-4.60621000E-04
		-3.25121000E-03	-2.71789000E-02	 9.11103000E-03
		-2.52578000E-05	-2.52922000E-02	-4.39176000E-04
		-3.40803000E-03	-2.55486000E-02	 9.25730000E-03
		-4.51142000E-05	-1.65670000E-02	-2.96650000E-04
		-1.64500000E-03	-2.70299000E-02	 4.12796000E-03
		-2.38886000E-03	-1.69174000E-02	 7.75152000E-03
		 3.21582000E-03	-2.70311000E-02	-1.00437000E-02
		 3.36905000E-03	-2.53606000E-02	-1.01494000E-02
		 2.31190000E-03	-1.68146000E-02	-8.36361000E-03
		 1.59242000E-03	-2.69651000E-02	-5.04825000E-03
		 9.56880000E-05	-4.07304000E-02	-7.83352000E-04
		-4.14050000E-03	-4.06987000E-02	 9.21884000E-03
		 9.27382000E-05	-4.50112000E-02	-7.79479000E-04
		-4.28170000E-03	-4.50944000E-02	 9.25945000E-03
		 2.80068000E-05	-3.01975000E-02	-5.69785000E-04
		-2.01996000E-03	-4.07342000E-02	 4.16869000E-03
		-4.04184000E-03	-3.03222000E-02	 9.58545000E-03
		 9.39589000E-05	-4.28536000E-02	-7.77706000E-04
		-4.21450000E-03	-4.28889000E-02	 9.20300000E-03
		 2.02520000E-05	-3.42261000E-02	-6.02095000E-04
		-2.11668000E-03	-4.50780000E-02	 4.14081000E-03
		-3.98082000E-03	-3.43677000E-02	 9.61103000E-03
		 4.28532000E-03	-4.05714000E-02	-1.07667000E-02
		 4.45357000E-03	-4.48531000E-02	-1.08328000E-02
		 4.08847000E-03	-3.01427000E-02	-1.07292000E-02
		 2.19662000E-03	-4.06755000E-02	-5.72354000E-03
		 4.36560000E-03	-4.26850000E-02	-1.07681000E-02
		 4.01908000E-03	-3.41625000E-02	-1.08179000E-02
		 2.27551000E-03	-4.49624000E-02	-5.71917000E-03
		 9.31092000E-05	-4.94534000E-02	-7.79130000E-04
		-4.51900000E-03	-4.96778000E-02	 9.22132000E-03
		 9.25018000E-05	-4.72253000E-02	-7.80981000E-04
		-4.40451000E-03	-4.72471000E-02	 9.32746000E-03
		 2.60438000E-05	-3.81934000E-02	-6.30679000E-04
		-2.17672000E-03	-4.95944000E-02	 4.03373000E-03
		-3.95058000E-03	-3.83744000E-02	 9.53070000E-03
		 4.64847000E-03	-4.93222000E-02	-1.08204000E-02
		 4.55045000E-03	-4.70581000E-02	-1.09036000E-02
		 3.95765000E-03	-3.81288000E-02	-1.07951000E-02
		 2.36099000E-03	-4.94258000E-02	-5.63638000E-03
		 3.67676000E-04	-5.90224000E-02	-1.16084000E-03
		-4.26192000E-03	-5.87893000E-02	 6.78910000E-03
		 3.66802000E-04	-6.38879000E-02	-1.05914000E-03
		-4.74872000E-03	-6.41218000E-02	 6.88368000E-03
		 1.77077000E-04	-5.05035000E-02	-9.83466000E-04
		-1.94657000E-03	-5.89545000E-02	 2.84549000E-03
		-4.23605000E-03	-5.04611000E-02	 8.13470000E-03
		 3.65987000E-04	-6.13723000E-02	-1.10960000E-03
		-4.49835000E-03	-6.13184000E-02	 6.82036000E-03
		 1.70153000E-04	-5.51186000E-02	-9.78325000E-04
		-2.06635000E-03	-6.40397000E-02	 2.92758000E-03
		-4.61107000E-03	-5.50249000E-02	 8.23765000E-03
		 4.82266000E-03	-5.87973000E-02	-9.10196000E-03
		 5.17365000E-03	-6.35002000E-02	-8.99110000E-03
		 4.55684000E-03	-5.03036000E-02	-1.00921000E-02
		 2.59536000E-03	-5.89643000E-02	-5.16409000E-03
		 5.00076000E-03	-6.10968000E-02	-9.03069000E-03
		 4.87155000E-03	-5.48617000E-02	-1.00827000E-02
		 2.75993000E-03	-6.37228000E-02	-5.04396000E-03
		 2.38974000E-04	-6.91360000E-02	-9.61294000E-04
		-5.10229000E-03	-6.97576000E-02	 6.99142000E-03
		 3.03928000E-04	-6.64273000E-02	-1.01020000E-03
		-4.92467000E-03	-6.73722000E-02	 6.94113000E-03
		 1.49863000E-04	-6.00430000E-02	-1.00338000E-03
		-2.54355000E-03	-6.94674000E-02	 3.02460000E-03
		-4.82173000E-03	-5.98594000E-02	 8.25055000E-03
		 5.56369000E-03	-6.85882000E-02	-8.90066000E-03