<?xml version="1.0"?>
<VTKFile type="UnstructuredGrid" version="0.1" byte_order="LittleEndian">
	<UnstructuredGrid>
		<Piece NumberOfPoints="522" NumberOfCells="64">
			<Points>
				<DataArray type="Float64" NumberOfComponents="3" format="ascii">
					 1.00000000E+00	 1.00000000E+00	-5.96046000E-08
					 1.00000000E+00	 5.00000000E-01	-5.96046000E-08
					 1.00000000E+00	 5.00000000E-01	 1.00000000E+00
					 1.00000000E+00	 1.00000000E+00	 1.00000000E+00
					 5.00000000E-01	 1.00000000E+00	-5.96046000E-08
					 5.00000000E-01	 5.00000000E-01	-5.96046000E-08
					 5.00000000E-01	 5.00000000E-01	 1.00000000E+00
					 5.00000000E-01	 1.00000000E+00	 1.00000000E+00
					 1.00000000E+00	 7.50000000E-01	-5.96046000E-08
					 1.00000000E+00	 5.00000000E-01	 5.00000000E-01
					 1.00000000E+00	 7.50000000E-01	 1.00000000E+00
					 1.00000000E+00	 1.00000000E+00	 5.00000000E-01
					 7.50000000E-01	 1.00000000E+00	-5.96046000E-08
					 7.50000000E-01	 5.00000000E-01	-5.96046000E-08
					 7.50000000E-01	 5.00000000E-01	 1.00000000E+00
					 7.50000000E-01	 1.00000000E+00	 1.00000000E+00
					 5.00000000E-01	 7.50000000E-01	-5.96046000E-08
					 5.00000000E-01	 5.00000000E-01	 5.00000000E-01
					 5.00000000E-01	 7.50000000E-01	 1.00000000E+00
					 5.00000000E-01	 1.00000000E+00	 5.00000000E-01
					 1.00000000E+00	-1.49012000E-08	-5.96046000E-08
					 1.00000000E+00	-1.49012000E-08	 1.00000000E+00
					 5.00000000E-01	-1.49012000E-08	-5.96046000E-08
					 5.00000000E-01	-1.49012000E-08	 1.00000000E+00
					 1.00000000E+00	 2.50000000E-01	-5.96046000E-08
					 1.00000000E+00	-1.49012000E-08	 5.00000000E-01
					 1.00000000E+00	 2.50000000E-01	 1.00000000E+00
					 7.50000000E-01	-1.49012000E-08	-5.96046000E-08
					 7.50000000E-01	-1.49012000E-08	 1.00000000E+00
					 5.00000000E-01	 2.50000000E-01	-5.96046000E-08
					 5.00000000E-01	-1.49012000E-08	 5.00000000E-01
					 5.00000000E-01	 2.50000000E-01	 1.00000000E+00
					-7.45058000E-09	 1.00000000E+00	-5.96046000E-08
					-7.45058000E-09	 5.00000000E-01	-5.96046000E-08
					-7.45058000E-09	 5.00000000E-01	 1.00000000E+00
					-7.45058000E-09	 1.00000000E+00	 1.00000000E+00
					 2.50000000E-01	 1.00000000E+00	-5.96046000E-08
					 2.50000000E-01	 5.00000000E-01	-5.96046000E-08
					 2.50000000E-01	 5.00000000E-01	 1.00000000E+00
					 2.50000000E-01	 1.00000000E+00	 1.00000000E+00
					-7.45058000E-09	 7.50000000E-01	-5.96046000E-08
					-7.45058000E-09	 5.00000000E-01	 5.00000000E-01
					-7.45058000E-09	 7.50000000E-01	 1.00000000E+00
					-7.45058000E-09	 1.00000000E+00	 5.00000000E-01
					-7.45058000E-09	-1.49012000E-08	-5.96046000E-08
					-7.45058000E-09	-1.49012000E-08	 1.00000000E+00
					 2.50000000E-01	-1.49012000E-08	-5.96046000E-08
					 2.50000000E-01	-1.49012000E-08	 1.00000000E+00
					-7.45058000E-09	 2.50000000E-01	-5.96046000E-08
					-7.45058000E-09	-1.49012000E-08	 5.00000000E-01
					-7.45058000E-09	 2.50000000E-01	 1.00000000E+00
					 1.00000000E+00	 5.00000000E-01	 2.00000000E+00
					 1.00000000E+00	 1.00000000E+00	 2.00000000E+00
					 5.00000000E-01	 5.00000000E-01	 2.00000000E+00
					 5.00000000E-01	 1.00000000E+00	 2.00000000E+00
					 1.00000000E+00	 5.00000000E-01	 1.50000000E+00
					 1.00000000E+00	 7.50000000E-01	 2.00000000E+00
					 1.00000000E+00	 1.00000000E+00	 1.50000000E+00
					 7.50000000E-01	 5.00000000E-01	 2.00000000E+00
					 7.50000000E-01	 1.00000000E+00	 2.00000000E+00
					 5.00000000E-01	 5.00000000E-01	 1.50000000E+00
					 5.00000000E-01	 7.50000000E-01	 2.00000000E+00
					 5.00000000E-01	 1.00000000E+00	 1.50000000E+00
					 1.00000000E+00	-1.49012000E-08	 2.00000000E+00
					 5.00000000E-01	-1.49012000E-08	 2.00000000E+00
					 1.00000000E+00	-1.49012000E-08	 1.50000000E+00
					 1.00000000E+00	 2.50000000E-01	 2.00000000E+00
					 7.50000000E-01	-1.49012000E-08	 2.00000000E+00
					 5.00000000E-01	-1.49012000E-08	 1.50000000E+00
					 5.00000000E-01	 2.50000000E-01	 2.00000000E+00
					-7.45058000E-09	 5.00000000E-01	 2.00000000E+00
					-7.45058000E-09	 1.00000000E+00	 2.00000000E+00
					 2.50000000E-01	 5.00000000E-01	 2.00000000E+00
					 2.50000000E-01	 1.00000000E+00	 2.00000000E+00
					-7.45058000E-09	 5.00000000E-01	 1.50000000E+00
					-7.45058000E-09	 7.50000000E-01	 2.00000000E+00
					-7.45058000E-09	 1.00000000E+00	 1.50000000E+00
					-7.45058000E-09	-1.49012000E-08	 2.00000000E+00
					 2.50000000E-01	-1.49012000E-08	 2.00000000E+00
					-7.45058000E-09	-1.49012000E-08	 1.50000000E+00
					-7.45058000E-09	 2.50000000E-01	 2.00000000E+00
					 1.00000000E+00	 5.00000000E-01	 3.00000000E+00
					 1.00000000E+00	 1.00000000E+00	 3.00000000E+00
					 5.00000000E-01	 5.00000000E-01	 3.00000000E+00
					 5.00000000E-01	 1.00000000E+00	 3.00000000E+00
					 1.00000000E+00	 5.00000000E-01	 2.50000000E+00
					 1.00000000E+00	 7.50000000E-01	 3.00000000E+00
					 1.00000000E+00	 1.00000000E+00	 2.50000000E+00
					 7.50000000E-01	 5.00000000E-01	 3.00000000E+00
					 7.50000000E-01	 1.00000000E+00	 3.00000000E+00
					 5.00000000E-01	 5.00000000E-01	 2.50000000E+00
					 5.00000000E-01	 7.50000000E-01	 3.00000000E+00
					 5.00000000E-01	 1.00000000E+00	 2.50000000E+00
					 1.00000000E+00	-1.49012000E-08	 3.00000000E+00
					 5.00000000E-01	-1.49012000E-08	 3.00000000E+00
					 1.00000000E+00	-1.49012000E-08	 2.50000000E+00
					 1.00000000E+00	 2.50000000E-01	 3.00000000E+00
					 7.50000000E-01	-1.49012000E-08	 3.00000000E+00
					 5.00000000E-01	-1.49012000E-08	 2.50000000E+00
					 5.00000000E-01	 2.50000000E-01	 3.00000000E+00
					-7.45058000E-09	 5.00000000E-01	 3.00000000E+00
					-7.45058000E-09	 1.00000000E+00	 3.00000000E+00
					 2.50000000E-01	 5.00000000E-01	 3.00000000E+00
					 2.50000000E-01	 1.00000000E+00	 3.00000000E+00
					-7.45058000E-09	 5.00000000E-01	 2.50000000E+00
					-7.45058000E-09	 7.50000000E-01	 3.00000000E+00
					-7.45058000E-09	 1.00000000E+00	 2.50000000E+00
					-7.45058000E-09	-1.49012000E-08	 3.00000000E+00
					 2.50000000E-01	-1.49012000E-08	 3.00000000E+00
					-7.45058000E-09	-1.49012000E-08	 2.50000000E+00
					-7.45058000E-09	 2.50000000E-01	 3.00000000E+00
					 1.00000000E+00	 5.00000000E-01	 4.00000000E+00
					 1.00000000E+00	 1.00000000E+00	 4.00000000E+00
					 5.00000000E-01	 5.00000000E-01	 4.00000000E+00
					 5.00000000E-01	 1.00000000E+00	 4.00000000E+00
					 1.00000000E+00	 5.00000000E-01	 3.50000000E+00
					 1.00000000E+00	 7.50000000E-01	 4.00000000E+00
					 1.00000000E+00	 1.00000000E+00	 3.50000000E+00
					 7.50000000E-01	 5.00000000E-01	 4.00000000E+00
					 7.50000000E-01	 1.00000000E+00	 4.00000000E+00
					 5.00000000E-01	 5.00000000E-01	 3.50000000E+00
					 5.00000000E-01	 7.50000000E-01	 4.00000000E+00
					 5.00000000E-01	 1.00000000E+00	 3.50000000E+00
					 1.00000000E+00	-1.49012000E-08	 4.00000000E+00
					 5.00000000E-01	-1.49012000E-08	 4.00000000E+00
					 1.00000000E+00	-1.49012000E-08	 3.50000000E+00
					 1.00000000E+00	 2.50000000E-01	 4.00000000E+00
					 7.50000000E-01	-1.49012000E-08	 4.00000000E+00
					 5.00000000E-01	-1.49012000E-08	 3.50000000E+00
					 5.00000000E-01	 2.50000000E-01	 4.00000000E+00
					-7.45058000E-09	 5.00000000E-01	 4.00000000E+00
					-7.45058000E-09	 1.00000000E+00	 4.00000000E+00
					 2.50000000E-01	 5.00000000E-01	 4.00000000E+00
					 2.50000000E-01	 1.00000000E+00	 4.00000000E+00
					-7.45058000E-09	 5.00000000E-01	 3.50000000E+00
					-7.45058000E-09	 7.50000000E-01	 4.00000000E+00
					-7.45058000E-09	 1.00000000E+00	 3.50000000E+00
					-7.45058000E-09	-1.49012000E-08	 4.00000000E+00
					 2.50000000E-01	-1.49012000E-08	 4.00000000E+00
					-7.45058000E-09	-1.49012000E-08	 3.50000000E+00
					-7.45058000E-09	 2.50000000E-01	 4.00000000E+00
					 1.00000000E+00	 5.00000000E-01	 5.00000000E+00
					 1.00000000E+00	 1.00000000E+00	 5.00000000E+00
					 5.00000000E-01	 5.00000000E-01	 5.00000000E+00
					 5.00000000E-01	 1.00000000E+00	 5.00000000E+00
					 1.00000000E+00	 5.00000000E-01	 4.50000000E+00
					 1.00000000E+00	 7.50000000E-01	 5.00000000E+00
					 1.00000000E+00	 1.00000000E+00	 4.50000000E+00
					 7.50000000E-01	 5.00000000E-01	 5.00000000E+00
					 7.50000000E-01	 1.00000000E+00	 5.00000000E+00
					 5.00000000E-01	 5.00000000E-01	 4.50000000E+00
					 5.00000000E-01	 7.50000000E-01	 5.00000000E+00
					 5.00000000E-01	 1.00000000E+00	 4.50000000E+00
					 1.00000000E+00	-1.49012000E-08	 5.00000000E+00
					 5.00000000E-01	-1.49012000E-08	 5.00000000E+00
					 1.00000000E+00	-1.49012000E-08	 4.50000000E+00
					 1.00000000E+00	 2.50000000E-01	 5.00000000E+00
					 7.50000000E-01	-1.49012000E-08	 5.00000000E+00
					 5.00000000E-01	-1.49012000E-08	 4.50000000E+00
					 5.00000000E-01	 2.50000000E-01	 5.00000000E+00
					-7.45058000E-09	 5.00000000E-01	 5.00000000E+00
					-7.45058000E-09	 1.00000000E+00	 5.00000000E+00
					 2.50000000E-01	 5.00000000E-01	 5.00000000E+00
					 2.50000000E-01	 1.00000000E+00	 5.00000000E+00
					-7.45058000E-09	 5.00000000E-01	 4.50000000E+00
					-7.45058000E-09	 7.50000000E-01	 5.00000000E+00
					-7.45058000E-09	 1.00000000E+00	 4.50000000E+00
					-7.45058000E-09	-1.49012000E-08	 5.00000000E+00
					 2.50000000E-01	-1.49012000E-08	 5.00000000E+00
					-7.45058000E-09	-1.49012000E-08	 4.50000000E+00
					-7.45058000E-09	 2.50000000E-01	 5.00000000E+00
					 1.00000000E+00	 5.00000000E-01	 6.00000000E+00
					 1.00000000E+00	 1.00000000E+00	 6.00000000E+00
					 5.00000000E-01	 5.00000000E-01	 6.00000000E+00
					 5.00000000E-01	 1.00000000E+00	 6.00000000E+00
					 1.00000000E+00	 5.00000000E-01	 5.50000000E+00
					 1.00000000E+00	 7.50000000E-01	 6.00000000E+00
					 1.00000000E+00	 1.00000000E+00	 5.50000000E+00
					 7.50000000E-01	 5.00000000E-01	 6.00000000E+00
					 7.50000000E-01	 1.00000000E+00	 6.00000000E+00
					 5.00000000E-01	 5.00000000E-01	 5.50000000E+00
					 5.00000000E-01	 7.50000000E-01	 6.00000000E+00
					 5.00000000E-01	 1.00000000E+00	 5.50000000E+00
					 1.00000000E+00	-1.49012000E-08	 6.00000000E+00
[...]
			<PointData>
				<DataArray type="Float32" Name="U" NumberOfComponents="3" ComponentName0="D1" ComponentName1="D2" ComponentName2="D3" format="ascii">
					 0.00000000E+00	 0.00000000E+00	 0.00000000E+00
					 0.00000000E+00	 0.00000000E+00	 0.00000000E+00
					-1.73413000E-05	 4.72541000E-03	 1.58121000E-05
					 1.72246000E-04	 4.88549000E-03	-3.71513000E-03
					 0.00000000E+00	 0.00000000E+00	 0.00000000E+00
					 0.00000000E+00	 0.00000000E+00	 0.00000000E+00
					-1.41637000E-05	 4.69665000E-03	 8.48738000E-06
					-2.59477000E-04	 4.87496000E-03	-3.77047000E-03
					 0.00000000E+00	 0.00000000E+00	 0.00000000E+00
					-8.92894000E-06	 1.25121000E-03	 1.24375000E-05
					 7.76802000E-05	 4.72603000E-03	-1.74988000E-03
					 4.88359000E-04	 1.54505000E-03	-1.96613000E-03
					 0.00000000E+00	 0.00000000E+00	 0.00000000E+00
					 0.00000000E+00	 0.00000000E+00	 0.00000000E+00
					-1.55969000E-05	 4.78651000E-03	 1.12535000E-05
					-4.59513000E-05	 4.95638000E-03	-3.78412000E-03
					 0.00000000E+00	 0.00000000E+00	 0.00000000E+00
					-5.96534000E-06	 1.42340000E-03	 6.23411000E-06
					-1.36113000E-04	 4.70363000E-03	-1.81759000E-03
					-8.02136000E-05	 1.73142000E-03	-1.92675000E-03
					 0.00000000E+00	 0.00000000E+00	 0.00000000E+00
					-2.08675000E-04	 4.92373000E-03	 3.74200000E-03
					 0.00000000E+00	 0.00000000E+00	 0.00000000E+00
					 2.31446000E-04	 4.91447000E-03	 3.78225000E-03
					 0.00000000E+00	 0.00000000E+00	 0.00000000E+00
					-5.06295000E-04	 1.56633000E-03	 1.99014000E-03
					-1.13109000E-04	 4.74414000E-03	 1.78034000E-03
					 0.00000000E+00	 0.00000000E+00	 0.00000000E+00
					 1.42692000E-05	 4.99630000E-03	 3.80104000E-03
					 0.00000000E+00	 0.00000000E+00	 0.00000000E+00
					 6.94320000E-05	 1.75008000E-03	 1.93865000E-03
					 1.07691000E-04	 4.72300000E-03	 1.83274000E-03
					 0.00000000E+00	 0.00000000E+00	 0.00000000E+00
					 0.00000000E+00	 0.00000000E+00	 0.00000000E+00
					-1.08898000E-05	 4.23402000E-03	 4.25192000E-06
					-6.80999000E-04	 4.40437000E-03	-3.72634000E-03
					 0.00000000E+00	 0.00000000E+00	 0.00000000E+00
					 0.00000000E+00	 0.00000000E+00	 0.00000000E+00
					-1.25150000E-05	 4.54216000E-03	 6.13791000E-06
					-4.66934000E-04	 4.71343000E-03	-3.71835000E-03
					 0.00000000E+00	 0.00000000E+00	 0.00000000E+00
					-3.97925000E-06	 1.10137000E-03	 3.82119000E-06
					-3.49074000E-04	 4.24013000E-03	-1.83185000E-03
					-6.34275000E-04	 1.41278000E-03	-1.97487000E-03
					 0.00000000E+00	 0.00000000E+00	 0.00000000E+00
					 6.61634000E-04	 4.44184000E-03	 3.73058000E-03
					 0.00000000E+00	 0.00000000E+00	 0.00000000E+00
					 4.43010000E-04	 4.75209000E-03	 3.72627000E-03
					 0.00000000E+00	 0.00000000E+00	 0.00000000E+00
					 6.28869000E-04	 1.42940000E-03	 1.98115000E-03
					 3.27864000E-04	 4.25870000E-03	 1.83868000E-03
					-3.78229000E-05	 1.58629000E-02	-2.67095000E-05
					-5.02146000E-04	 1.60027000E-02	-6.44723000E-03
					-3.54054000E-05	 1.52087000E-02	-2.61021000E-05
					-8.78789000E-04	 1.53486000E-02	-6.44941000E-03
					-2.65801000E-05	 9.64944000E-03	 3.17014000E-06
					-2.68211000E-04	 1.58930000E-02	-3.18491000E-03
					-1.51770000E-04	 9.83884000E-03	-5.14175000E-03
					-3.66713000E-05	 1.55783000E-02	-2.73262000E-05
					-6.90229000E-04	 1.57162000E-02	-6.49724000E-03
					-2.41954000E-05	 9.32986000E-03	-2.05272000E-06
					-4.56899000E-04	 1.52389000E-02	-3.23530000E-03
					-5.46209000E-04	 9.51516000E-03	-5.15609000E-03
					 4.22338000E-04	 1.60915000E-02	 6.38899000E-03
					 8.05587000E-04	 1.54429000E-02	 6.39237000E-03
					 9.45990000E-05	 9.89872000E-03	 5.14254000E-03
					 1.91424000E-04	 1.59359000E-02	 3.13063000E-03
					 6.13480000E-04	 1.58094000E-02	 6.43756000E-03
					 4.96611000E-04	 9.57849000E-03	 5.14680000E-03
					 3.85506000E-04	 1.52863000E-02	 3.18203000E-03
					-3.13886000E-05	 1.41782000E-02	-2.10024000E-05
					-1.25303000E-03	 1.43142000E-02	-6.44156000E-03
					-3.37590000E-05	 1.47354000E-02	-2.37148000E-05
					-1.06679000E-03	 1.48738000E-02	-6.39697000E-03
					-2.12205000E-05	 8.60607000E-03	-3.52143000E-06
					-6.42599000E-04	 1.42047000E-02	-3.27582000E-03
					-9.34006000E-04	 8.79939000E-03	-5.14810000E-03
					 1.18977000E-03	 1.44116000E-02	 6.39466000E-03
					 9.97898000E-04	 1.49687000E-02	 6.34504000E-03
					 8.93145000E-04	 8.86318000E-03	 5.13618000E-03
					 5.79943000E-04	 1.42547000E-02	 3.23250000E-03
					-5.25500000E-05	 3.20179000E-02	-1.46212000E-04
					-1.15902000E-03	 3.20900000E-02	-8.98529000E-03
					-4.98009000E-05	 3.07464000E-02	-1.27343000E-04
					-1.47945000E-03	 3.08217000E-02	-8.98186000E-03
					-4.62767000E-05	 2.32980000E-02	-7.57008000E-05
					-6.07087000E-04	 3.20115000E-02	-4.48929000E-03
					-8.31438000E-04	 2.34125000E-02	-7.75130000E-03
					-5.13901000E-05	 3.14242000E-02	-1.37647000E-04
					-1.31944000E-03	 3.14985000E-02	-9.03055000E-03
					-4.41191000E-05	 2.23316000E-02	-6.64210000E-05
					-7.64209000E-04	 3.07400000E-02	-4.52221000E-03
					-1.19270000E-03	 2.24424000E-02	-7.74848000E-03
					 1.05026000E-03	 3.22544000E-02	 8.68652000E-03
					 1.37846000E-03	 3.09918000E-02	 8.72041000E-03
					 7.34766000E-04	 2.35371000E-02	 7.59465000E-03
					 5.00970000E-04	 3.20916000E-02	 4.19554000E-03
					 1.21411000E-03	 3.16678000E-02	 8.74849000E-03
					 1.10241000E-03	 2.25728000E-02	 7.60989000E-03
					 6.64399000E-04	 3.08246000E-02	 4.26592000E-03
					-4.44288000E-05	 2.91601000E-02	-1.02778000E-04
					-1.79336000E-03	 2.92322000E-02	-8.94183000E-03
					-4.76602000E-05	 2.99955000E-02	-1.15719000E-04
					-1.63675000E-03	 3.00704000E-02	-8.93343000E-03
					-3.97295000E-05	 2.10028000E-02	-5.18165000E-05
					-9.17570000E-04	 2.91528000E-02	-4.52089000E-03
					-1.55676000E-03	 2.11077000E-02	-7.72774000E-03
					 1.70499000E-03	 2.94045000E-02	 8.72946000E-03
					 1.54113000E-03	 3.02410000E-02	 8.69524000E-03
					 1.47712000E-03	 2.12412000E-02	 7.61804000E-03
					 8.29078000E-04	 2.92390000E-02	 4.31360000E-03
					-5.69419000E-05	 5.27659000E-02	-3.54010000E-04
					-2.04999000E-03	 5.27166000E-02	-1.07440000E-02
					-5.09883000E-05	 5.07003000E-02	-3.08448000E-04
					-2.18811000E-03	 5.06529000E-02	-1.07175000E-02
					-5.66490000E-05	 4.19446000E-02	-2.40392000E-04
					-1.05425000E-03	 5.27268000E-02	-5.43528000E-03
					-1.55585000E-03	 4.19531000E-02	-9.99834000E-03
					-5.41706000E-05	 5.17493000E-02	-3.31024000E-04
					-2.11893000E-03	 5.17011000E-02	-1.08071000E-02
					-5.28075000E-05	 4.03231000E-02	-2.09539000E-04
					-1.11853000E-03	 5.06612000E-02	-5.47391000E-03
					-1.79120000E-03	 4.03362000E-02	-9.98844000E-03
					 1.93385000E-03	 5.29437000E-02	 1.00329000E-02
					 2.08487000E-03	 5.08851000E-02	 1.00970000E-02
					 1.43949000E-03	 4.21518000E-02	 9.51164000E-03
					 9.39855000E-04	 5.28355000E-02	 4.72650000E-03
					 2.00880000E-03	 5.19342000E-02	 1.01416000E-02
					 1.68420000E-03	 4.05409000E-02	 9.56326000E-03
					 1.01639000E-03	 5.07757000E-02	 4.85611000E-03
					-4.29537000E-05	 4.84936000E-02	-2.59419000E-04
					-2.31360000E-03	 4.84513000E-02	-1.06496000E-02
					-4.73784000E-05	 4.96144000E-02	-2.84971000E-04
					-2.25077000E-03	 4.95685000E-02	-1.06284000E-02
					-4.64661000E-05	 3.84696000E-02	-1.73832000E-04
					-1.17959000E-03	 4.84560000E-02	-5.47314000E-03
					-2.01135000E-03	 3.84867000E-02	-9.93149000E-03
					 2.22697000E-03	 4.86855000E-02	 1.01265000E-02
					 2.15519000E-03	 4.97995000E-02	 1.00548000E-02
					 1.91830000E-03	 3.86936000E-02	 9.57765000E-03
					 1.09364000E-03	 4.85737000E-02	 4.95312000E-03
					-5.37870000E-05	 7.57236000E-02	-5.95471000E-04
					-3.29288000E-03	 7.55872000E-02	-1.13818000E-02
					-3.88243000E-05	 7.24919000E-02	-5.26447000E-04
					-3.26541000E-03	 7.23560000E-02	-1.13283000E-02
					-5.37841000E-05	 6.41246000E-02	-4.75294000E-04
					-1.67318000E-03	 7.56600000E-02	-5.86274000E-03
					-2.63517000E-03	 6.40273000E-02	-1.11809000E-02
					-4.59744000E-05	 7.41064000E-02	-5.60607000E-04
					-3.27850000E-03	 7.39678000E-02	-1.14519000E-02
					-4.39733000E-05	 6.15100000E-02	-4.16174000E-04
					-1.65222000E-03	 7.24264000E-02	-5.89714000E-03
					-2.69005000E-03	 6.14159000E-02	-1.11385000E-02
					 3.18684000E-03	 7.58514000E-02	 1.01918000E-02
					 3.18917000E-03	 7.26174000E-02	 1.02761000E-02
					 2.52707000E-03	 6.42761000E-02	 1.02300000E-02
					 1.56579000E-03	 7.57865000E-02	 4.67178000E-03
					 3.18799000E-03	 7.42349000E-02	 1.03317000E-02
					 2.60193000E-03	 6.16661000E-02	 1.03050000E-02
					 1.57479000E-03	 7.25558000E-02	 4.84435000E-03
					-2.60229000E-05	 6.92701000E-02	-4.56722000E-04
					-3.23899000E-03	 6.91378000E-02	-1.12434000E-02
					-3.20905000E-05	 7.08795000E-02	-4.92116000E-04
					-3.25219000E-03	 7.07467000E-02	-1.12057000E-02
					-3.40836000E-05	 5.88335000E-02	-3.54976000E-04
					-1.63322000E-03	 6.92046000E-02	-5.90190000E-03
					-2.73445000E-03	 5.87461000E-02	-1.10613000E-02
					 3.18878000E-03	 6.93948000E-02	 1.03302000E-02
					 3.18952000E-03	 7.10024000E-02	 1.02217000E-02
					 2.66639000E-03	 5.89956000E-02	 1.03491000E-02
					 1.58161000E-03	 6.93354000E-02	 4.98862000E-03
					-7.76869000E-05	 9.84021000E-02	-8.15762000E-04
					-4.55295000E-03	 9.82150000E-02	-1.10615000E-02
					-5.38344000E-05	 9.40071000E-02	-7.33175000E-04
					-4.38471000E-03	 9.38112000E-02	-1.09852000E-02
					-6.28042000E-05	 8.72603000E-02	-7.09366000E-04
					-2.31259000E-03	 9.83300000E-02	-5.85237000E-03
					-3.95646000E-03	 8.70958000E-02	-1.13225000E-02
					-6.55706000E-05	 9.61874000E-02	-7.74266000E-04
					-4.46882000E-03	 9.59910000E-02	-1.10981000E-02
					-4.30140000E-05	 8.34132000E-02	-6.33825000E-04
					-2.22001000E-03	 9.39293000E-02	-5.84726000E-03
					-3.85106000E-03	 8.32440000E-02	-1.12613000E-02
					 4.39818000E-03	 9.84741000E-02	 9.43248000E-03
					 4.27849000E-03	 9.40673000E-02	 9.52225000E-03
					 3.83250000E-03	 8.73623000E-02	 9.90531000E-03
					 2.15721000E-03	 9.84558000E-02	 4.22149000E-03
					 4.33865000E-03	 9.62520000E-02	 9.55251000E-03
					 3.76690000E-03	 8.35066000E-02	 9.99585000E-03
					 2.11254000E-03	 9.40570000E-02	 4.38168000E-03
					-3.22200000E-05	 8.97396000E-02	-6.54734000E-04
					-4.22954000E-03	 8.95452000E-02	-1.09002000E-02
					-4.26263000E-05	 9.18547000E-02	-6.93100000E-04
					-4.30714000E-03	 9.16611000E-02	-1.08748000E-02
					-2.56447000E-05	 7.96432000E-02	-5.59625000E-04
					-2.13176000E-03	 8.96601000E-02	-5.83358000E-03
					-3.75574000E-03	 7.94754000E-02	-1.11724000E-02
					 4.16731000E-03	 8.97971000E-02	 9.59464000E-03
					 4.22376000E-03	 9.19126000E-02	 9.49224000E-03
					 3.70699000E-03	 7.97325000E-02	 1.00557000E-02
					 2.06780000E-03	 8.97885000E-02	 4.52506000E-03
					-9.11144000E-05	 1.18581000E-01	-9.93021000E-04
					-5.28010000E-03	 1.18426000E-01	-1.03638000E-02
					-6.29233000E-05	 1.13445000E-01	-9.01798000E-04
					-5.15543000E-03	 1.13284000E-01	-1.02625000E-02
					-8.71348000E-05	 1.08841000E-01	-9.11287000E-04
					-2.68381000E-03	 1.18516000E-01	-5.67446000E-03
					-4.99703000E-03	 1.08670000E-01	-1.06829000E-02
					-7.63650000E-05	 1.16003000E-01	-9.46761000E-04
					-5.21730000E-03	 1.15841000E-01	-1.03419000E-02
					-6.09864000E-05	 1.04011000E-01	-8.21550000E-04
					-2.60980000E-03	 1.13375000E-01	-5.61003000E-03
					-4.82729000E-03	 1.03830000E-01	-1.05877000E-02
					 5.09923000E-03	 1.18665000E-01	 8.37690000E-03
					 5.03067000E-03	 1.13518000E-01	 8.45822000E-03
					 4.82256000E-03	 1.08918000E-01	 8.86233000E-03
					 2.50181000E-03	 1.18636000E-01	 3.68743000E-03
					 5.06597000E-03	 1.16079000E-01	 8.44810000E-03
					 4.70621000E-03	 1.04074000E-01	 8.94698000E-03
					 2.48406000E-03	 1.13494000E-01	 3.80600000E-03
					-3.74350000E-05	 1.08396000E-01	-8.12140000E-04
					-5.04877000E-03	 1.08229000E-01	-1.01860000E-02
					-5.01975000E-05	 1.10908000E-01	-8.56924000E-04
					-5.10257000E-03	 1.10747000E-01	-1.01787000E-02
					-3.73188000E-05	 9.93082000E-02	-7.36738000E-04
					-2.54219000E-03	 1.08322000E-01	-5.57128000E-03
					-4.67482000E-03	 9.91256000E-02	-1.05092000E-02
					 4.97502000E-03	 1.08461000E-01	 8.56120000E-03
					 5.00294000E-03	 1.10978000E-01	 8.46430000E-03
					 4.60199000E-03	 9.93670000E-02	 9.03818000E-03
					 2.46767000E-03	 1.08442000E-01	 3.94662000E-03
					-1.13452000E-04	 1.37001000E-01	-1.14389000E-03
					-5.47006000E-03	 1.36890000E-01	-1.03053000E-02
					-7.80508000E-05	 1.31648000E-01	-1.05969000E-03
					-5.43361000E-03	 1.31535000E-01	-1.02178000E-02
					-9.86903000E-05	 1.27859000E-01	-1.06616000E-03
					-2.79315000E-03	 1.36943000E-01	-5.72962000E-03
					-5.42443000E-03	 1.27729000E-01	-1.02635000E-02
					-9.64103000E-05	 1.34325000E-01	-1.10312000E-03
					-5.45291000E-03	 1.34214000E-01	-1.02616000E-02
					-6.82776000E-05	 1.22554000E-01	-9.79110000E-04
					-2.75774000E-03	 1.31589000E-01	-5.64391000E-03
					-5.35713000E-03	 1.22422000E-01	-1.01692000E-02
					 5.24939000E-03	 1.37110000E-01	 8.00797000E-03
					 5.27710000E-03	 1.31748000E-01	 8.08945000E-03
					 5.23161000E-03	 1.27962000E-01	 8.12446000E-03
					 2.56763000E-03	 1.37053000E-01	 3.43941000E-03
					 5.26386000E-03	 1.34429000E-01	 8.04610000E-03
					 5.22091000E-03	 1.22648000E-01	 8.20477000E-03
					 2.60150000E-03	 1.31694000E-01	 3.52225000E-03
					-4.39515000E-05	 1.26303000E-01	-9.68052000E-04
					-5.41836000E-03	 1.26175000E-01	-1.01402000E-02
					-6.01138000E-05	 1.28978000E-01	-1.01426000E-03
					-5.42538000E-03	 1.28860000E-01	-1.01750000E-02
					-3.91883000E-05	 1.17282000E-01	-8.87558000E-04
					-2.72914000E-03	 1.26236000E-01	-5.56433000E-03
					-5.30763000E-03	 1.17140000E-01	-1.00923000E-02
					 5.32397000E-03	 1.26396000E-01	 8.19615000E-03
					 5.30069000E-03	 1.29076000E-01	 8.13839000E-03
					 5.22618000E-03	 1.17369000E-01	 8.31173000E-03
					 2.63958000E-03	 1.26347000E-01	 3.62579000E-03
					 0.00000000E+00	 0.00000000E+00	 0.00000000E+00
					 0.00000000E+00	 0.00000000E+00	 0.00000000E+00
					-7.00967000E-05	-6.25024000E-03	 1.44773000E-04
					-2.53683000E-03	-6.64200000E-03	 6.65960000E-03
					 0.00000000E+00	 0.00000000E+00	 0.00000000E+00
					 0.00000000E+00	 0.00000000E+00	 0.00000000E+00
					-4.50104000E-05	-8.35799000E-03	 6.70045000E-05
					-1.78438000E-03	-8.76476000E-03	 6.67674000E-03
					 0.00000000E+00	 0.00000000E+00	 0.00000000E+00
					-2.97769000E-05	-1.20023000E-03	 7.62897000E-05
					-1.30817000E-03	-6.30929000E-03	 3.41657000E-03
					-1.88438000E-03	-1.82072000E-03	 3.56156000E-03
					 0.00000000E+00	 0.00000000E+00	 0.00000000E+00
					 0.00000000E+00	 0.00000000E+00	 0.00000000E+00
					-5.54058000E-05	-7.43710000E-03	 1.04467000E-04
					-2.15220000E-03	-7.83176000E-03	 6.53318000E-03
					 0.00000000E+00	 0.00000000E+00	 0.00000000E+00
					-8.60405000E-06	-2.52884000E-03	 3.71439000E-05
					-9.16131000E-04	-8.41741000E-03	 3.24427000E-03
					-9.02242000E-04	-3.11965000E-03	 3.44639000E-03
					 0.00000000E+00	 0.00000000E+00	 0.00000000E+00
					 2.40077000E-03	-6.48702000E-03	-6.38883000E-03
					 0.00000000E+00	 0.00000000E+00	 0.00000000E+00
					 1.70450000E-03	-8.62296000E-03	-6.56088000E-03
					 0.00000000E+00	 0.00000000E+00	 0.00000000E+00
					 1.83021000E-03	-1.72512000E-03	-3.41050000E-03
					 1.16851000E-03	-6.23057000E-03	-3.13427000E-03
					 0.00000000E+00	 0.00000000E+00	 0.00000000E+00
					 2.04864000E-03	-7.68354000E-03	-6.34170000E-03
					 0.00000000E+00	 0.00000000E+00	 0.00000000E+00
					 8.94955000E-04	-3.04573000E-03	-3.37177000E-03
					 8.26777000E-04	-8.34775000E-03	-3.11724000E-03
					 0.00000000E+00	 0.00000000E+00	 0.00000000E+00
					 0.00000000E+00	 0.00000000E+00	 0.00000000E+00
					-3.05828000E-05	-9.73610000E-03	-2.11404000E-06
					-1.03038000E-03	-1.00984000E-02	 6.51700000E-03
					 0.00000000E+00	 0.00000000E+00	 0.00000000E+00
					 0.00000000E+00	 0.00000000E+00	 0.00000000E+00
					-3.59609000E-05	-9.17777000E-03	 2.99873000E-05
					-1.41088000E-03	-9.56075000E-03	 6.75436000E-03
					 0.00000000E+00	 0.00000000E+00	 0.00000000E+00
					 6.69752000E-07	-2.99597000E-03	 1.21863000E-05
					-5.31850000E-04	-9.77640000E-03	 2.97664000E-03
					 1.26985000E-04	-3.53619000E-03	 3.49788000E-03
					 0.00000000E+00	 0.00000000E+00	 0.00000000E+00
					 9.81122000E-04	-9.97837000E-03	-6.53413000E-03
					 0.00000000E+00	 0.00000000E+00	 0.00000000E+00
					 1.34870000E-03	-9.43124000E-03	-6.71144000E-03
					 0.00000000E+00	 0.00000000E+00	 0.00000000E+00
					-1.14814000E-04	-3.48066000E-03	-3.47507000E-03
					 4.74245000E-04	-9.72185000E-03	-2.98456000E-03
					-2.10580000E-04	-2.33703000E-02	 1.56221000E-04
					-3.85834000E-03	-2.37491000E-02	 1.07847000E-02
					-1.80644000E-04	-2.67682000E-02	-4.88487000E-07
					-3.33867000E-03	-2.71429000E-02	 1.06534000E-02
					-1.30129000E-04	-1.37841000E-02	 1.71922000E-04
					-2.03578000E-03	-2.35106000E-02	 5.49942000E-03
					-3.23948000E-03	-1.42229000E-02	 8.98192000E-03
					-1.94609000E-04	-2.51194000E-02	 7.53231000E-05
					-3.59760000E-03	-2.54942000E-02	 1.06458000E-02
					-1.04650000E-04	-1.65859000E-02	 5.35947000E-05
					-1.75603000E-03	-2.69056000E-02	 5.28628000E-03
					-2.59491000E-03	-1.70189000E-02	 8.89742000E-03
					 3.44662000E-03	-2.34468000E-02	-1.04867000E-02
					 2.98139000E-03	-2.68654000E-02	-1.06676000E-02
					 2.98267000E-03	-1.39972000E-02	-8.65746000E-03
					 1.61631000E-03	-2.33579000E-02	-5.19116000E-03
					 3.21721000E-03	-2.52117000E-02	-1.05062000E-02
					 2.39441000E-03	-1.68120000E-02	-8.80907000E-03
					 1.40031000E-03	-2.67685000E-02	-5.28761000E-03
					-1.65647000E-04	-2.96854000E-02	-1.47160000E-04
					-2.81863000E-03	-3.00337000E-02	 1.04803000E-02
					-1.72332000E-04	-2.82756000E-02	-7.32912000E-05
					-3.07697000E-03	-2.86689000E-02	 1.06602000E-02
					-9.03147000E-05	-1.87719000E-02	-5.55005000E-05
					-1.49807000E-03	-2.98046000E-02	 5.03385000E-03
					-1.97853000E-03	-1.92053000E-02	 8.75570000E-03
					 2.52208000E-03	-2.97944000E-02	-1.07889000E-02
					 2.75260000E-03	-2.83782000E-02	-1.08235000E-02
					 1.82140000E-03	-1.90279000E-02	-8.88304000E-03
					 1.17621000E-03	-2.96903000E-02	-5.32732000E-03
					-3.99009000E-04	-4.71453000E-02	 3.23841000E-06
					-5.06752000E-03	-4.74113000E-02	 1.30770000E-02
					-3.60414000E-04	-5.16535000E-02	-2.04573000E-04
					-4.77652000E-03	-5.20318000E-02	 1.29044000E-02
					-3.00480000E-04	-3.45796000E-02	 1.00041000E-04
					-2.72698000E-03	-4.72455000E-02	 6.53302000E-03
					-4.47250000E-03	-3.49346000E-02	 1.21653000E-02
					-3.77321000E-04	-4.94328000E-02	-9.85095000E-05
					-4.92391000E-03	-4.97690000E-02	 1.29122000E-02
					-2.68190000E-04	-3.85549000E-02	-8.88294000E-05
					-2.59360000E-03	-5.18128000E-02	 6.25197000E-03
					-4.06196000E-03	-3.89145000E-02	 1.20090000E-02
					 4.23607000E-03	-4.70351000E-02	-1.30608000E-02
					 4.05927000E-03	-5.15720000E-02	-1.33379000E-02
					 3.87137000E-03	-3.45715000E-02	-1.19747000E-02
					 1.91723000E-03	-4.70603000E-02	-6.51637000E-03
					 4.14714000E-03	-4.93331000E-02	-1.31284000E-02
					 3.53542000E-03	-3.85520000E-02	-1.21969000E-02
					 1.85025000E-03	-5.15884000E-02	-6.68231000E-03
					-3.34833000E-04	-5.59584000E-02	-4.08102000E-04
					-4.60258000E-03	-5.64482000E-02	 1.26626000E-02
					-3.46417000E-04	-5.38494000E-02	-3.09027000E-04
					-4.69136000E-03	-5.41573000E-02	 1.29101000E-02
					-2.38500000E-04	-4.21643000E-02	-2.68609000E-04
					-2.43994000E-03	-5.61763000E-02	 5.90036000E-03
					-3.68780000E-03	-4.25364000E-02	 1.18001000E-02
					 3.89650000E-03	-5.59126000E-02	-1.35292000E-02
					 3.97882000E-03	-5.37649000E-02	-1.35534000E-02
					 3.18144000E-03	-4.21636000E-02	-1.23497000E-02
					 1.77310000E-03	-5.59225000E-02	-6.76188000E-03
					-5.40443000E-04	-7.42313000E-02	-2.66902000E-04
					-5.69442000E-03	-7.42346000E-02	 1.28243000E-02