<?xml version="1.0"?>
<VTKFile type="UnstructuredGrid" version="0.1" byte_order="LittleEndian">
	<UnstructuredGrid>
		<Piece NumberOfPoints="522" NumberOfCells="64">
			<Points>
				<DataArray type="Float64" NumberOfComponents="3" format="ascii">
					 1.00000000E+00	 1.00000000E+00	-5.96046000E-08
					 1.00000000E+00	 5.00000000E-01	-5.96046000E-08
					 1.00000000E+00	 5.00000000E-01	 1.00000000E+00
					 1.00000000E+00	 1.00000000E+00	 1.00000000E+00
					 5.00000000E-01	 1.00000000E+00	-5.96046000E-08
					 5.00000000E-01	 5.00000000E-01	-5.96046000E-08
					 5.00000000E-01	 5.00000000E-01	 1.00000000E+00
					 5.00000000E-01	 1.00000000E+00	 1.00000000E+00
					 1.00000000E+00	 7.50000000E-01	-5.96046000E-08
					 1.00000000E+00	 5.00000000E-01	 5.00000000E-01
					 1.00000000E+00	 7.50000000E-01	 1.00000000E+00
					 1.00000000E+00	 1.00000000E+00	 5.00000000E-01
					 7.50000000E-01	 1.00000000E+00	-5.96046000E-08
					 7.50000000E-01	 5.00000000E-01	-5.96046000E-08
					 7.50000000E-01	 5.00000000E-01	 1.00000000E+00
					 7.50000000E-01	 1.00000000E+00	 1.00000000E+00
					 5.00000000E-01	 7.50000000E-01	-5.96046000E-08
					 5.00000000E-01	 5.00000000E-01	 5.00000000E-01
					 5.00000000E-01	 7.50000000E-01	 1.00000000E+00
					 5.00000000E-01	 1.00000000E+00	 5.00000000E-01
					 1.00000000E+00	-1.49012000E-08	-5.96046000E-08
					 1.00000000E+00	-1.49012000E-08	 1.00000000E+00
					 5.00000000E-01	-1.49012000E-08	-5.96046000E-08
					 5.00000000E-01	-1.49012000E-08	 1.00000000E+00
					 1.00000000E+00	 2.50000000E-01	-5.96046000E-08
					 1.00000000E+00	-1.49012000E-08	 5.00000000E-01
					 1.00000000E+00	 2.50000000E-01	 1.00000000E+00
					 7.50000000E-01	-1.49012000E-08	-5.96046000E-08
					 7.50000000E-01	-1.49012000E-08	 1.00000000E+00
					 5.00000000E-01	 2.50000000E-01	-5.96046000E-08
					 5.00000000E-01	-1.49012000E-08	 5.00000000E-01
					 5.00000000E-01	 2.50000000E-01	 1.00000000E+00
					-7.45058000E-09	 1.00000000E+00	-5.96046000E-08
					-7.45058000E-09	 5.00000000E-01	-5.96046000E-08
					-7.45058000E-09	 5.00000000E-01	 1.00000000E+00
					-7.45058000E-09	 1.00000000E+00	 1.00000000E+00
					 2.50000000E-01	 1.00000000E+00	-5.96046000E-08
					 2.50000000E-01	 5.00000000E-01	-5.96046000E-08
					 2.50000000E-01	 5.00000000E-01	 1.00000000E+00
					 2.50000000E-01	 1.00000000E+00	 1.00000000E+00
					-7.45058000E-09	 7.50000000E-01	-5.96046000E-08
					-7.45058000E-09	 5.00000000E-01	 5.00000000E-01
					-7.45058000E-09	 7.50000000E-01	 1.00000000E+00
					-7.45058000E-09	 1.00000000E+00	 5.00000000E-01
					-7.45058000E-09	-1.49012000E-08	-5.96046000E-08
					-7.45058000E-09	-1.49012000E-08	 1.00000000E+00
					 2.50000000E-01	-1.49012000E-08	-5.96046000E-08
					 2.50000000E-01	-1.49012000E-08	 1.00000000E+00
					-7.45058000E-09	 2.50000000E-01	-5.96046000E-08
					-7.45058000E-09	-1.49012000E-08	 5.00000000E-01
					-7.45058000E-09	 2.50000000E-01	 1.00000000E+00
					 1.00000000E+00	 5.00000000E-01	 2.00000000E+00
					 1.00000000E+00	 1.00000000E+00	 2.00000000E+00
					 5.00000000E-01	 5.00000000E-01	 2.00000000E+00
					 5.00000000E-01	 1.00000000E+00	 2.00000000E+00
					 1.00000000E+00	 5.00000000E-01	 1.50000000E+00
					 1.00000000E+00	 7.50000000E-01	 2.00000000E+00
					 1.00000000E+00	 1.00000000E+00	 1.50000000E+00
					 7.50000000E-01	 5.00000000E-01	 2.00000000E+00
					 7.50000000E-01	 1.00000000E+00	 2.00000000E+00
					 5.00000000E-01	 5.00000000E-01	 1.50000000E+00
					 5.00000000E-01	 7.50000000E-01	 2.00000000E+00
					 5.00000000E-01	 1.00000000E+00	 1.50000000E+00
					 1.00000000E+00	-1.49012000E-08	 2.00000000E+00
					 5.00000000E-01	-1.49012000E-08	 2.00000000E+00
					 1.00000000E+00	-1.49012000E-08	 1.50000000E+00
					 1.00000000E+00	 2.50000000E-01	 2.00000000E+00
					 7.50000000E-01	-1.49012000E-08	 2.00000000E+00
					 5.00000000E-01	-1.49012000E-08	 1.50000000E+00
					 5.00000000E-01	 2.50000000E-01	 2.00000000E+00
					-7.45058000E-09	 5.00000000E-01	 2.00000000E+00
					-7.45058000E-09	 1.00000000E+00	 2.00000000E+00
					 2.50000000E-01	 5.00000000E-01	 2.00000000E+00
					 2.50000000E-01	 1.00000000E+00	 2.00000000E+00
					-7.45058000E-09	 5.00000000E-01	 1.50000000E+00
					-7.45058000E-09	 7.50000000E-01	 2.00000000E+00
					-7.45058000E-09	 1.00000000E+00	 1.50000000E+00
					-7.45058000E-09	-1.49012000E-08	 2.00000000E+00
					 2.50000000E-01	-1.49012000E-08	 2.00000000E+00
					-7.45058000E-09	-1.49012000E-08	 1.50000000E+00
					-7.45058000E-09	 2.50000000E-01	 2.00000000E+00
					 1.00000000E+00	 5.00000000E-01	 3.00000000E+00
					 1.00000000E+00	 1.00000000E+00	 3.00000000E+00
					 5.00000000E-01	 5.00000000E-01	 3.00000000E+00
					 5.00000000E-01	 1.00000000E+00	 3.00000000E+00
					 1.00000000E+00	 5.00000000E-01	 2.50000000E+00
					 1.00000000E+00	 7.50000000E-01	 3.00000000E+00
					 1.00000000E+00	 1.00000000E+00	 2.50000000E+00
					 7.50000000E-01	 5.00000000E-01	 3.00000000E+00
					 7.50000000E-01	 1.00000000E+00	 3.00000000E+00
					 5.00000000E-01	 5.00000000E-01	 2.50000000E+00
					 5.00000000E-01	 7.50000000E-01	 3.00000000E+00
					 5.00000000E-01	 1.00000000E+00	 2.50000000E+00
					 1.00000000E+00	-1.49012000E-08	 3.00000000E+00
					 5.00000000E-01	-1.49012000E-08	 3.00000000E+00
					 1.00000000E+00	-1.49012000E-08	 2.50000000E+00
					 1.00000000E+00	 2.50000000E-01	 3.00000000E+00
					 7.50000000E-01	-1.49012000E-08	 3.00000000E+00
					 5.00000000E-01	-1.49012000E-08	 2.50000000E+00
					 5.00000000E-01	 2.50000000E-01	 3.00000000E+00
					-7.45058000E-09	 5.00000000E-01	 3.00000000E+00
					-7.45058000E-09	 1.00000000E+00	 3.00000000E+00
					 2.50000000E-01	 5.00000000E-01	 3.00000000E+00
					 2.50000000E-01	 1.00000000E+00	 3.00000000E+00
					-7.45058000E-09	 5.00000000E-01	 2.50000000E+00
					-7.45058000E-09	 7.50000000E-01	 3.00000000E+00
					-7.45058000E-09	 1.00000000E+00	 2.50000000E+00
					-7.45058000E-09	-1.49012000E-08	 3.00000000E+00
					 2.50000000E-01	-1.49012000E-08	 3.00000000E+00
					-7.45058000E-09	-1.49012000E-08	 2.50000000E+00
					-7.45058000E-09	 2.50000000E-01	 3.00000000E+00
					 1.00000000E+00	 5.00000000E-01	 4.00000000E+00
					 1.00000000E+00	 1.00000000E+00	 4.00000000E+00
					 5.00000000E-01	 5.00000000E-01	 4.00000000E+00
					 5.00000000E-01	 1.00000000E+00	 4.00000000E+00
					 1.00000000E+00	 5.00000000E-01	 3.50000000E+00
					 1.00000000E+00	 7.50000000E-01	 4.00000000E+00
					 1.00000000E+00	 1.00000000E+00	 3.50000000E+00
					 7.50000000E-01	 5.00000000E-01	 4.00000000E+00
					 7.50000000E-01	 1.00000000E+00	 4.00000000E+00
					 5.00000000E-01	 5.00000000E-01	 3.50000000E+00
					 5.00000000E-01	 7.50000000E-01	 4.00000000E+00
					 5.00000000E-01	 1.00000000E+00	 3.50000000E+00
					 1.00000000E+00	-1.49012000E-08	 4.00000000E+00
					 5.00000000E-01	-1.49012000E-08	 4.00000000E+00
					 1.00000000E+00	-1.49012000E-08	 3.50000000E+00
					 1.00000000E+00	 2.50000000E-01	 4.00000000E+00
					 7.50000000E-01	-1.49012000E-08	 4.00000000E+00
					 5.00000000E-01	-1.49012000E-08	 3.50000000E+00
					 5.00000000E-01	 2.50000000E-01	 4.00000000E+00
					-7.45058000E-09	 5.00000000E-01	 4.00000000E+00
					-7.45058000E-09	 1.00000000E+00	 4.00000000E+00
					 2.50000000E-01	 5.00000000E-01	 4.00000000E+00
					 2.50000000E-01	 1.00000000E+00	 4.00000000E+00
					-7.45058000E-09	 5.00000000E-01	 3.50000000E+00
					-7.45058000E-09	 7.50000000E-01	 4.00000000E+00
					-7.45058000E-09	 1.00000000E+00	 3.50000000E+00
					-7.45058000E-09	-1.49012000E-08	 4.00000000E+00
					 2.50000000E-01	-1.49012000E-08	 4.00000000E+00
					-7.45058000E-09	-1.49012000E-08	 3.50000000E+00
					-7.45058000E-09	 2.50000000E-01	 4.00000000E+00
					 1.00000000E+00	 5.00000000E-01	 5.00000000E+00
					 1.00000000E+00	 1.00000000E+00	 5.00000000E+00
					 5.00000000E-01	 5.00000000E-01	 5.00000000E+00
					 5.00000000E-01	 1.00000000E+00	 5.00000000E+00
					 1.00000000E+00	 5.00000000E-01	 4.50000000E+00
					 1.00000000E+00	 7.50000000E-01	 5.00000000E+00
					 1.00000000E+00	 1.00000000E+00	 4.50000000E+00
					 7.50000000E-01	 5.00000000E-01	 5.00000000E+00
					 7.50000000E-01	 1.00000000E+00	 5.00000000E+00
					 5.00000000E-01	 5.00000000E-01	 4.50000000E+00
					 5.00000000E-01	 7.50000000E-01	 5.00000000E+00
					 5.00000000E-01	 1.00000000E+00	 4.50000000E+00
					 1.00000000E+00	-1.49012000E-08	 5.00000000E+00
					 5.00000000E-01	-1.49012000E-08	 5.00000000E+00
					 1.00000000E+00	-1.49012000E-08	 4.50000000E+00
					 1.00000000E+00	 2.50000000E-01	 5.00000000E+00
					 7.50000000E-01	-1.49012000E-08	 5.00000000E+00
					 5.00000000E-01	-1.49012000E-08	 4.50000000E+00
					 5.00000000E-01	 2.50000000E-01	 5.00000000E+00
					-7.45058000E-09	 5.00000000E-01	 5.00000000E+00
					-7.45058000E-09	 1.00000000E+00	 5.00000000E+00
					 2.50000000E-01	 5.00000000E-01	 5.00000000E+00
					 2.50000000E-01	 1.00000000E+00	 5.00000000E+00
					-7.45058000E-09	 5.00000000E-01	 4.50000000E+00
					-7.45058000E-09	 7.50000000E-01	 5.00000000E+00
					-7.45058000E-09	 1.00000000E+00	 4.50000000E+00
					-7.45058000E-09	-1.49012000E-08	 5.00000000E+00
					 2.50000000E-01	-1.49012000E-08	 5.00000000E+00
					-7.45058000E-09	-1.49012000E-08	 4.50000000E+00
					-7.45058000E-09	 2.50000000E-01	 5.00000000E+00
					 1.00000000E+00	 5.00000000E-01	 6.00000000E+00
					 1.00000000E+00	 1.00000000E+00	 6.00000000E+00
					 5.00000000E-01	 5.00000000E-01	 6.00000000E+00
					 5.00000000E-01	 1.00000000E+00	 6.00000000E+00
					 1.00000000E+00	 5.00000000E-01	 5.50000000E+00
					 1.00000000E+00	 7.50000000E-01	 6.00000000E+00
					 1.00000000E+00	 1.00000000E+00	 5.50000000E+00
					 7.50000000E-01	 5.00000000E-01	 6.00000000E+00
					 7.50000000E-01	 1.00000000E+00	 6.00000000E+00
					 5.00000000E-01	 5.00000000E-01	 5.50000000E+00
					 5.00000000E-01	 7.50000000E-01	 6.00000000E+00
					 5.00000000E-01	 1.00000000E+00	 5.50000000E+00
					 1.00000000E+00	-1.49012000E-08	 6.00000000E+00
[...]
			<PointData>
				<DataArray type="Float32" Name="U" NumberOfComponents="3" ComponentName0="D1" ComponentName1="D2" ComponentName2="D3" format="ascii">
					 0.00000000E+00	 0.00000000E+00	 0.00000000E+00
					 0.00000000E+00	 0.00000000E+00	 0.00000000E+00
					-7.50443000E-06	 3.62594000E-03	 2.62679000E-05
					 1.12307000E-03	 3.77883000E-03	-3.60330000E-03
					 0.00000000E+00	 0.00000000E+00	 0.00000000E+00
					 0.00000000E+00	 0.00000000E+00	 0.00000000E+00
					-1.69023000E-06	 4.54833000E-03	 1.53700000E-05
					 7.18795000E-04	 4.71771000E-03	-3.66938000E-03
					 0.00000000E+00	 0.00000000E+00	 0.00000000E+00
					-2.98621000E-06	 7.17792000E-04	 1.45783000E-05
					 5.58771000E-04	 3.62444000E-03	-1.77191000E-03
					 9.01036000E-04	 1.01860000E-03	-1.90760000E-03
					 0.00000000E+00	 0.00000000E+00	 0.00000000E+00
					 0.00000000E+00	 0.00000000E+00	 0.00000000E+00
					-4.33761000E-06	 4.16138000E-03	 2.00308000E-05
					 9.17991000E-04	 4.32150000E-03	-3.58284000E-03
					 0.00000000E+00	 0.00000000E+00	 0.00000000E+00
					 1.22602000E-06	 1.32430000E-03	 8.83606000E-06
					 3.57857000E-04	 4.55162000E-03	-1.75188000E-03
					 3.68493000E-04	 1.62048000E-03	-1.86896000E-03
					 0.00000000E+00	 0.00000000E+00	 0.00000000E+00
					-1.13887000E-03	 3.82098000E-03	 3.65067000E-03
					 0.00000000E+00	 0.00000000E+00	 0.00000000E+00
					-7.21392000E-04	 4.75920000E-03	 3.69486000E-03
					 0.00000000E+00	 0.00000000E+00	 0.00000000E+00
					-9.07147000E-04	 1.04212000E-03	 1.93607000E-03
					-5.74088000E-04	 3.64572000E-03	 1.82261000E-03
					 0.00000000E+00	 0.00000000E+00	 0.00000000E+00
					-9.26363000E-04	 4.36317000E-03	 3.61796000E-03
					 0.00000000E+00	 0.00000000E+00	 0.00000000E+00
					-3.64989000E-04	 1.64105000E-03	 1.88681000E-03
					-3.61114000E-04	 4.57197000E-03	 1.78083000E-03
					 0.00000000E+00	 0.00000000E+00	 0.00000000E+00
					 0.00000000E+00	 0.00000000E+00	 0.00000000E+00
					 2.75064000E-06	 5.06604000E-03	 8.23634000E-06
					 3.09378000E-04	 5.21716000E-03	-3.62066000E-03
					 0.00000000E+00	 0.00000000E+00	 0.00000000E+00
					 0.00000000E+00	 0.00000000E+00	 0.00000000E+00
					 7.27659000E-07	 4.88033000E-03	 1.12372000E-05
					 5.16839000E-04	 5.04192000E-03	-3.71724000E-03
					 0.00000000E+00	 0.00000000E+00	 0.00000000E+00
					 4.05232000E-06	 1.45125000E-03	 7.50730000E-06
					 1.56854000E-04	 5.06383000E-03	-1.66390000E-03
					-1.91937000E-04	 1.72803000E-03	-1.91433000E-03
					 0.00000000E+00	 0.00000000E+00	 0.00000000E+00
					-3.01532000E-04	 5.25534000E-03	 3.63333000E-03
					 0.00000000E+00	 0.00000000E+00	 0.00000000E+00
					-5.14199000E-04	 5.08299000E-03	 3.73477000E-03
					 0.00000000E+00	 0.00000000E+00	 0.00000000E+00
					 2.02241000E-04	 1.74664000E-03	 1.92937000E-03
					-1.50576000E-04	 5.08157000E-03	 1.67941000E-03
					-1.49610000E-05	 1.35563000E-02	 1.08096000E-05
					 1.41358000E-03	 1.36004000E-02	-5.69771000E-03
					-7.83968000E-06	 1.48804000E-02	-4.79532000E-06
					 1.22029000E-03	 1.49337000E-02	-5.73598000E-03
					-1.22575000E-05	 8.02821000E-03	 2.46768000E-05
					 6.98467000E-04	 1.35612000E-02	-2.80667000E-03
					 1.32346000E-03	 8.15598000E-03	-4.84249000E-03
					-1.14053000E-05	 1.42361000E-02	 2.61105000E-06
					 1.31805000E-03	 1.42872000E-02	-5.70993000E-03
					-6.07542000E-06	 9.20384000E-03	 1.02435000E-05
					 6.07240000E-04	 1.48919000E-02	-2.82514000E-03
					 1.01445000E-03	 9.33834000E-03	-4.88544000E-03
					-1.44296000E-03	 1.36808000E-02	 5.71647000E-03
					-1.23559000E-03	 1.50139000E-02	 5.72326000E-03
					-1.34901000E-03	 8.21787000E-03	 4.88674000E-03
					-7.28269000E-04	 1.36005000E-02	 2.82769000E-03
					-1.34037000E-03	 1.43671000E-02	 5.71222000E-03
					-1.02620000E-03	 9.40020000E-03	 4.90070000E-03
					-6.22829000E-04	 1.49307000E-02	 2.81484000E-03
					-8.63411000E-07	 1.60120000E-02	-1.78894000E-05
					 1.04258000E-03	 1.60725000E-02	-5.72663000E-03
					-4.29521000E-06	 1.54660000E-02	-1.15498000E-05
					 1.13152000E-03	 1.55188000E-02	-5.76418000E-03
					-5.44955000E-07	 1.00687000E-02	-6.30964000E-07
					 5.17762000E-04	 1.60268000E-02	-2.79548000E-03
					 7.22463000E-04	 1.02151000E-02	-4.86771000E-03
					-1.04408000E-03	 1.61515000E-02	 5.68748000E-03
					-1.13981000E-03	 1.55993000E-02	 5.73787000E-03
					-7.21779000E-04	 1.02752000E-02	 4.86145000E-03
					-5.19517000E-04	 1.60642000E-02	 2.75892000E-03
					-1.19604000E-05	 2.63700000E-02	-3.88935000E-05
					 1.30938000E-03	 2.63241000E-02	-6.38949000E-03
					-5.65488000E-06	 2.76808000E-02	-5.07105000E-05
					 1.29719000E-03	 2.76401000E-02	-6.41831000E-03
					-1.42461000E-05	 1.97679000E-02	-1.07582000E-05
					 6.48099000E-04	 2.63447000E-02	-3.16336000E-03
					 1.41460000E-03	 1.97681000E-02	-6.17999000E-03
					-9.01119000E-06	 2.70273000E-02	-4.51669000E-05
					 1.30349000E-03	 2.69853000E-02	-6.42375000E-03
					-7.21537000E-06	 2.11431000E-02	-2.59643000E-05
					 6.46557000E-04	 2.76581000E-02	-3.20137000E-03
					 1.31804000E-03	 2.11473000E-02	-6.21529000E-03
					-1.33461000E-03	 2.64167000E-02	 6.31101000E-03
					-1.30930000E-03	 2.77356000E-02	 6.31652000E-03
					-1.44293000E-03	 1.98584000E-02	 6.15673000E-03
					-6.72350000E-04	 2.63899000E-02	 3.08551000E-03
					-1.32249000E-03	 2.70798000E-02	 6.33262000E-03
					-1.33239000E-03	 2.12381000E-02	 6.16179000E-03
					-6.57961000E-04	 2.77051000E-02	 3.09984000E-03
					 2.08718000E-06	 2.89763000E-02	-6.26436000E-05
					 1.30176000E-03	 2.89438000E-02	-6.41288000E-03
					-1.98502000E-06	 2.83319000E-02	-5.62995000E-05
					 1.29953000E-03	 2.82929000E-02	-6.41320000E-03
					 2.65219000E-07	 2.24181000E-02	-4.00592000E-05
					 6.50329000E-04	 2.89582000E-02	-3.20835000E-03
					 1.23623000E-03	 2.24325000E-02	-6.20926000E-03
					-1.29831000E-03	 2.90410000E-02	 6.28748000E-03
					-1.30428000E-03	 2.83892000E-02	 6.30074000E-03
					-1.23554000E-03	 2.25229000E-02	 6.12753000E-03
					-6.46223000E-04	 2.90060000E-02	 3.08270000E-03
					 1.19253000E-05	 3.96991000E-02	-1.05195000E-04
					 7.64301000E-04	 3.96024000E-02	-6.09162000E-03
					 1.67469000E-05	 4.05040000E-02	-9.91465000E-05
					 8.71373000E-04	 4.04095000E-02	-6.09320000E-03
					-4.68971000E-06	 3.30896000E-02	-7.24916000E-05
					 3.88096000E-04	 3.96669000E-02	-3.02375000E-03
					 1.09754000E-03	 3.30135000E-02	-6.33550000E-03
					 1.41337000E-05	 4.00863000E-02	-1.01696000E-04
					 8.18196000E-04	 3.99912000E-02	-6.15211000E-03
					 1.02558000E-06	 3.42128000E-02	-7.57898000E-05
					 4.45254000E-04	 4.04730000E-02	-3.08117000E-03
					 1.14919000E-03	 3.41424000E-02	-6.35242000E-03
					-7.41448000E-04	 3.96828000E-02	 5.88202000E-03
					-8.39345000E-04	 4.04919000E-02	 5.89538000E-03
					-1.10869000E-03	 3.31013000E-02	 6.19066000E-03
					-3.64314000E-04	 3.97049000E-02	 2.81310000E-03
					-7.91166000E-04	 4.00742000E-02	 5.94955000E-03
					-1.14911000E-03	 3.42341000E-02	 6.20108000E-03
					-4.12037000E-04	 4.05138000E-02	 2.88252000E-03
					 2.26015000E-05	 4.14107000E-02	-9.46421000E-05
					 9.92869000E-04	 4.13242000E-02	-6.08088000E-03
					 1.95904000E-05	 4.09437000E-02	-9.69123000E-05
					 9.32427000E-04	 4.08502000E-02	-6.03511000E-03
					 8.21715000E-06	 3.53881000E-02	-8.03168000E-05
					 5.05133000E-04	 4.13828000E-02	-3.12546000E-03
					 1.22251000E-03	 3.53281000E-02	-6.34309000E-03
					-9.49456000E-04	 4.14101000E-02	 5.89152000E-03
					-8.94919000E-04	 4.09331000E-02	 5.84104000E-03
					-1.20838000E-03	 3.54239000E-02	 6.18265000E-03
					-4.60320000E-04	 4.14269000E-02	 2.93613000E-03
					 4.76483000E-05	 5.18332000E-02	-1.57158000E-04
					-1.33311000E-04	 5.17503000E-02	-5.34334000E-03
					 5.00461000E-05	 5.17109000E-02	-1.33288000E-04
					-1.80925000E-05	 5.16237000E-02	-5.31584000E-03
					 3.01705000E-05	 4.59816000E-02	-1.33428000E-04
					-4.18478000E-05	 5.18058000E-02	-2.68957000E-03
					 3.34369000E-04	 4.58902000E-02	-5.72062000E-03
					 4.87954000E-05	 5.17587000E-02	-1.44815000E-04
					-7.60997000E-05	 5.16714000E-02	-5.39827000E-03
					 3.40000000E-05	 4.63470000E-02	-1.19265000E-04
					 1.52263000E-05	 5.16806000E-02	-2.73339000E-03
					 4.58792000E-04	 4.62547000E-02	-5.70735000E-03
					 2.30806000E-04	 5.18159000E-02	 5.02659000E-03
					 1.19065000E-04	 5.16893000E-02	 5.04784000E-03
					-2.76600000E-04	 4.59588000E-02	 5.45646000E-03
					 1.38422000E-04	 5.18383000E-02	 2.37454000E-03
					 1.75113000E-04	 5.17387000E-02	 5.10678000E-03
					-3.91606000E-04	 4.63268000E-02	 5.47105000E-03
					 8.53062000E-05	 5.17140000E-02	 2.46688000E-03
					 5.55335000E-05	 5.16969000E-02	-1.12276000E-04
					 9.34013000E-05	 5.16069000E-02	-5.29898000E-03
					 5.22847000E-05	 5.16900000E-02	-1.22856000E-04
					 3.69528000E-05	 5.16032000E-02	-5.23191000E-03
					 3.90672000E-05	 4.68306000E-02	-1.06861000E-04
					 7.50786000E-05	 5.16648000E-02	-2.78907000E-03
					 5.91117000E-04	 4.67448000E-02	-5.69635000E-03
					 1.64317000E-05	 5.16725000E-02	 5.07503000E-03
					 6.77706000E-05	 5.16677000E-02	 4.98636000E-03
					-5.12074000E-04	 4.68171000E-02	 5.48315000E-03
					 3.51270000E-05	 5.16987000E-02	 2.56478000E-03
					 1.00376000E-04	 6.21338000E-02	-1.92705000E-04
					-6.97565000E-04	 6.20730000E-02	-4.74476000E-03
					 1.09354000E-04	 6.13902000E-02	-1.64151000E-04
					-5.90605000E-04	 6.13232000E-02	-4.71734000E-03
					 7.66299000E-05	 5.71921000E-02	-1.77219000E-04
					-2.97429000E-04	 6.21168000E-02	-2.44160000E-03
					-4.91585000E-04	 5.71270000E-02	-5.03788000E-03
					 1.04637000E-04	 6.17511000E-02	-1.78655000E-04
					-6.43869000E-04	 6.16855000E-02	-4.75492000E-03
					 7.93683000E-05	 5.66828000E-02	-1.47467000E-04
					-2.41033000E-04	 6.13689000E-02	-2.43767000E-03
					-3.85739000E-04	 5.66081000E-02	-5.00622000E-03
					 8.96670000E-04	 6.21134000E-02	 4.36409000E-03
					 8.00966000E-04	 6.13621000E-02	 4.39806000E-03
					 6.43527000E-04	 5.71766000E-02	 4.68056000E-03
					 4.97157000E-04	 6.21344000E-02	 2.05695000E-03
					 8.49080000E-04	 6.17244000E-02	 4.40423000E-03
					 5.43124000E-04	 5.66581000E-02	 4.70872000E-03
					 4.56232000E-04	 6.13875000E-02	 2.11194000E-03
					 1.13598000E-04	 6.07380000E-02	-1.34135000E-04
					-4.99540000E-04	 6.06610000E-02	-4.69116000E-03
					 1.12580000E-04	 6.10519000E-02	-1.48024000E-04
					-5.45258000E-04	 6.09830000E-02	-4.68267000E-03
					 8.16843000E-05	 5.62671000E-02	-1.18464000E-04
					-1.90736000E-04	 6.07096000E-02	-2.43142000E-03
					-3.02976000E-04	 5.61783000E-02	-4.97675000E-03
					 7.17953000E-04	 6.07103000E-02	 4.42548000E-03
					 7.60344000E-04	 6.10258000E-02	 4.39102000E-03
					 4.65423000E-04	 5.62328000E-02	 4.74044000E-03
					 4.15047000E-04	 6.07365000E-02	 2.16434000E-03
					 1.43630000E-04	 7.08326000E-02	-2.13474000E-04
					-9.04567000E-04	 7.07740000E-02	-4.14566000E-03
					 1.36551000E-04	 6.98206000E-02	-1.83553000E-04
					-8.19865000E-04	 6.97643000E-02	-4.13307000E-03
					 1.20062000E-04	 6.66883000E-02	-2.04264000E-04
					-3.78900000E-04	 7.08105000E-02	-2.17543000E-03
					-8.22502000E-04	 6.66200000E-02	-4.43224000E-03
					 1.40739000E-04	 7.03188000E-02	-1.99051000E-04
					-8.62597000E-04	 7.02578000E-02	-4.14520000E-03
					 1.19076000E-04	 6.57899000E-02	-1.72110000E-04
					-3.40891000E-04	 6.98002000E-02	-2.16901000E-03
					-7.24313000E-04	 6.57205000E-02	-4.40700000E-03
					 1.18576000E-03	 7.08217000E-02	 3.71664000E-03
					 1.10684000E-03	 6.98078000E-02	 3.75914000E-03
					 1.06347000E-03	 6.66748000E-02	 4.03069000E-03
					 6.63152000E-04	 7.08402000E-02	 1.74723000E-03
					 1.14642000E-03	 7.03076000E-02	 3.74535000E-03
					 9.68803000E-04	 6.57754000E-02	 4.06228000E-03
					 6.18477000E-04	 6.98250000E-02	 1.80038000E-03
					 1.34500000E-04	 6.89014000E-02	-1.51573000E-04
					-7.39144000E-04	 6.88560000E-02	-4.11650000E-03
					 1.33462000E-04	 6.93489000E-02	-1.67357000E-04
					-7.78610000E-04	 6.92969000E-02	-4.11089000E-03
					 1.20715000E-04	 6.49856000E-02	-1.43406000E-04
					-3.04262000E-04	 6.88888000E-02	-2.16400000E-03
					-6.33130000E-04	 6.49208000E-02	-4.38843000E-03
					 1.03137000E-03	 6.88780000E-02	 3.81412000E-03
					 1.06701000E-03	 6.93314000E-02	 3.77397000E-03
					 8.79359000E-04	 6.49656000E-02	 4.09729000E-03
					 5.81190000E-04	 6.88971000E-02	 1.86134000E-03
					 1.77280000E-04	 7.82959000E-02	-2.32852000E-04
					-8.99523000E-04	 7.82812000E-02	-3.92126000E-03
					 1.99919000E-04	 7.72700000E-02	-2.15961000E-04
					-8.75146000E-04	 7.72600000E-02	-3.93006000E-03
					 1.59963000E-04	 7.46339000E-02	-2.19437000E-04
					-3.69101000E-04	 7.82916000E-02	-2.08120000E-03
					-9.07196000E-04	 7.45926000E-02	-3.97699000E-03
					 1.84440000E-04	 7.77687000E-02	-2.25868000E-04
					-8.89339000E-04	 7.77674000E-02	-3.91953000E-03
					 1.67454000E-04	 7.35880000E-02	-2.01557000E-04
					-3.46803000E-04	 7.72672000E-02	-2.07847000E-03
					-8.57958000E-04	 7.35642000E-02	-3.97788000E-03
					 1.27408000E-03	 7.82759000E-02	 3.41754000E-03
					 1.24966000E-03	 7.72701000E-02	 3.50760000E-03
					 1.25003000E-03	 7.46346000E-02	 3.51125000E-03
					 7.25354000E-04	 7.82859000E-02	 1.60342000E-03
					 1.26675000E-03	 7.77521000E-02	 3.45023000E-03
					 1.18914000E-03	 7.35838000E-02	 3.57786000E-03
					 7.38652000E-04	 7.72638000E-02	 1.65396000E-03
					 2.10594000E-04	 7.62738000E-02	-1.71446000E-04
					-8.75625000E-04	 7.62252000E-02	-3.94678000E-03
					 2.11453000E-04	 7.67828000E-02	-1.96465000E-04
					-8.71932000E-04	 7.67570000E-02	-3.93848000E-03
					 1.72488000E-04	 7.25879000E-02	-1.63323000E-04
					-3.31220000E-04	 7.62452000E-02	-2.07609000E-03
					-8.27192000E-04	 7.25517000E-02	-3.97584000E-03
					 1.24481000E-03	 7.63046000E-02	 3.60740000E-03
					 1.24390000E-03	 7.67902000E-02	 3.56060000E-03
					 1.15590000E-03	 7.25970000E-02	 3.65923000E-03
					 7.41199000E-04	 7.62921000E-02	 1.73014000E-03
					 0.00000000E+00	 0.00000000E+00	 0.00000000E+00
					 0.00000000E+00	 0.00000000E+00	 0.00000000E+00
					-2.22131000E-05	-1.46379000E-02	-3.54238000E-04
					-3.25444000E-03	-1.56437000E-02	 1.41285000E-02
					 0.00000000E+00	 0.00000000E+00	 0.00000000E+00
					 0.00000000E+00	 0.00000000E+00	 0.00000000E+00
					-6.08166000E-05	-1.69333000E-02	-4.89665000E-04
					-1.46389000E-03	-1.79975000E-02	 1.41754000E-02
					 0.00000000E+00	 0.00000000E+00	 0.00000000E+00
					 4.16577000E-05	-2.99723000E-03	-1.24633000E-04
					-1.64162000E-03	-1.48149000E-02	 6.80333000E-03
					-2.83401000E-03	-4.29628000E-03	 7.32444000E-03
					 0.00000000E+00	 0.00000000E+00	 0.00000000E+00
					 0.00000000E+00	 0.00000000E+00	 0.00000000E+00
					-3.78153000E-05	-1.60984000E-02	-4.30349000E-04
					-2.34026000E-03	-1.71320000E-02	 1.40314000E-02
					 0.00000000E+00	 0.00000000E+00	 0.00000000E+00
					-1.31933000E-05	-4.66506000E-03	-1.80458000E-04
					-7.64458000E-04	-1.71244000E-02	 6.63363000E-03
					-7.05856000E-04	-5.94112000E-03	 7.07859000E-03
					 0.00000000E+00	 0.00000000E+00	 0.00000000E+00
					 3.18572000E-03	-1.52093000E-02	-1.49092000E-02
					 0.00000000E+00	 0.00000000E+00	 0.00000000E+00
					 1.35589000E-03	-1.75757000E-02	-1.52323000E-02
					 0.00000000E+00	 0.00000000E+00	 0.00000000E+00
					 2.90733000E-03	-4.17622000E-03	-7.61426000E-03
					 1.58626000E-03	-1.45955000E-02	-7.53359000E-03
					 0.00000000E+00	 0.00000000E+00	 0.00000000E+00
					 2.26422000E-03	-1.67000000E-02	-1.49647000E-02
					 0.00000000E+00	 0.00000000E+00	 0.00000000E+00
					 6.93151000E-04	-5.85568000E-03	-7.47066000E-03
					 6.44127000E-04	-1.69144000E-02	-7.63655000E-03
					 0.00000000E+00	 0.00000000E+00	 0.00000000E+00
					 0.00000000E+00	 0.00000000E+00	 0.00000000E+00
					-1.14288000E-04	-1.74517000E-02	-5.59269000E-04
					 3.22061000E-04	-1.84222000E-02	 1.39314000E-02
					 0.00000000E+00	 0.00000000E+00	 0.00000000E+00
					 0.00000000E+00	 0.00000000E+00	 0.00000000E+00
					-8.56489000E-05	-1.75031000E-02	-5.33383000E-04
					-5.83429000E-04	-1.85245000E-02	 1.41833000E-02
					 0.00000000E+00	 0.00000000E+00	 0.00000000E+00
					-8.47889000E-05	-4.39366000E-03	-2.13225000E-04
					 1.00420000E-04	-1.76041000E-02	 6.34877000E-03
					 1.45609000E-03	-5.61252000E-03	 7.23820000E-03
					 0.00000000E+00	 0.00000000E+00	 0.00000000E+00
					-5.03302000E-04	-1.80380000E-02	-1.51114000E-02
					 0.00000000E+00	 0.00000000E+00	 0.00000000E+00
					 4.36432000E-04	-1.81131000E-02	-1.53237000E-02
					 0.00000000E+00	 0.00000000E+00	 0.00000000E+00
					-1.59226000E-03	-5.54878000E-03	-7.70250000E-03
					-3.12371000E-04	-1.74225000E-02	-7.48124000E-03
					-1.84564000E-04	-5.60770000E-02	-1.41872000E-03
					-4.03642000E-03	-5.72389000E-02	 2.33385000E-02
					-2.05950000E-04	-5.93297000E-02	-1.66321000E-03
					-2.89076000E-03	-6.04963000E-02	 2.31711000E-02
					-9.27684000E-05	-3.26904000E-02	-7.76144000E-04
					-2.11121000E-03	-5.65306000E-02	 1.08454000E-02
					-3.72521000E-03	-3.38867000E-02	 1.94484000E-02
					-1.94153000E-04	-5.78267000E-02	-1.55148000E-03
					-3.46359000E-03	-5.89904000E-02	 2.32172000E-02
					-1.29755000E-04	-3.55409000E-02	-9.70594000E-04
					-1.54518000E-03	-5.97867000E-02	 1.06088000E-02
					-2.21335000E-03	-3.67352000E-02	 1.93430000E-02
					 3.67314000E-03	-5.60064000E-02	-2.62486000E-02
					 2.48561000E-03	-5.92884000E-02	-2.65712000E-02
					 3.52407000E-03	-3.30716000E-02	-2.10932000E-02
					 1.74175000E-03	-5.59263000E-02	-1.37000000E-02
					 3.08404000E-03	-5.77772000E-02	-2.63902000E-02
					 1.96592000E-03	-3.59334000E-02	-2.13769000E-02
					 1.13945000E-03	-5.91985000E-02	-1.39497000E-02
					-2.44300000E-04	-6.14391000E-02	-1.84235000E-03
					-1.75079000E-03	-6.25694000E-02	 2.29153000E-02
					-2.23904000E-04	-6.05070000E-02	-1.75926000E-03
					-2.31785000E-03	-6.16917000E-02	 2.31548000E-02
					-1.81523000E-04	-3.68623000E-02	-1.09502000E-03
					-1.00381000E-03	-6.18671000E-02	 1.02779000E-02
					-7.28695000E-04	-3.80413000E-02	 1.91327000E-02
					 1.30539000E-03	-6.14100000E-02	-2.66725000E-02
					 1.89548000E-03	-6.04668000E-02	-2.67489000E-02
					 4.15085000E-04	-3.72893000E-02	-2.14112000E-02
					 5.27918000E-04	-6.13149000E-02	-1.39753000E-02
					-3.32264000E-04	-1.13292000E-01	-3.25187000E-03
					-4.40646000E-03	-1.14362000E-01	 2.68086000E-02
					-3.44426000E-04	-1.17092000E-01	-3.53586000E-03
					-3.93742000E-03	-1.18275000E-01	 2.65919000E-02
					-2.62724000E-04	-8.33413000E-02	-2.25505000E-03
					-2.36490000E-03	-1.13758000E-01	 1.16588000E-02
					-4.26086000E-03	-8.45086000E-02	 2.57030000E-02
					-3.36647000E-04	-1.15255000E-01	-3.39495000E-03
					-4.17426000E-03	-1.16395000E-01	 2.66732000E-02
					-2.80632000E-04	-8.69220000E-02	-2.53093000E-03
					-2.16600000E-03	-1.17618000E-01	 1.13709000E-02
					-3.46846000E-03	-8.80970000E-02	 2.55106000E-02
					 3.70606000E-03	-1.12621000E-01	-3.33261000E-02
					 3.25139000E-03	-1.16438000E-01	-3.37129000E-02
					 3.73210000E-03	-8.29640000E-02	-3.02691000E-02
					 1.68840000E-03	-1.12905000E-01	-1.81589000E-02
					 3.47805000E-03	-1.14586000E-01	-3.35064000E-02
					 2.91725000E-03	-8.65450000E-02	-3.06270000E-02
					 1.45520000E-03	-1.16719000E-01	-1.84701000E-02
					-3.66443000E-04	-1.20447000E-01	-3.79250000E-03
					-3.58789000E-03	-1.21749000E-01	 2.62610000E-02
					-3.54543000E-04	-1.18843000E-01	-3.66909000E-03
					-3.76526000E-03	-1.19960000E-01	 2.65286000E-02
					-3.00715000E-04	-8.97031000E-02	-2.75790000E-03
					-1.94476000E-03	-1.21032000E-01	 1.09750000E-02
					-2.72593000E-03	-9.09016000E-02	 2.52048000E-02
					 2.81669000E-03	-1.19836000E-01	-3.39236000E-02
					 3.03486000E-03	-1.18183000E-01	-3.39187000E-02
					 2.09749000E-03	-8.93457000E-02	-3.07772000E-02
					 1.21413000E-03	-1.20110000E-01	-1.86114000E-02
					-3.62117000E-04	-1.76473000E-01	-5.45435000E-03
					-4.25864000E-03	-1.77245000E-01	 2.54536000E-02