<?xml version="1.0"?>
<VTKFile type="UnstructuredGrid" version="0.1" byte_order="LittleEndian">
	<UnstructuredGrid>
		<Piece NumberOfPoints="522" NumberOfCells="64">
			<Points>
				<DataArray type="Float64" NumberOfComponents="3" format="ascii">
					 1.00000000E+00	 1.00000000E+00	-5.96046000E-08
					 1.00000000E+00	 5.00000000E-01	-5.96046000E-08
					 1.00000000E+00	 5.00000000E-01	 1.00000000E+00
					 1.00000000E+00	 1.00000000E+00	 1.00000000E+00
					 5.00000000E-01	 1.00000000E+00	-5.96046000E-08
					 5.00000000E-01	 5.00000000E-01	-5.96046000E-08
					 5.00000000E-01	 5.00000000E-01	 1.00000000E+00
					 5.00000000E-01	 1.00000000E+00	 1.00000000E+00
					 1.00000000E+00	 7.50000000E-01	-5.96046000E-08
					 1.00000000E+00	 5.00000000E-01	 5.00000000E-01
					 1.00000000E+00	 7.50000000E-01	 1.00000000E+00
					 1.00000000E+00	 1.00000000E+00	 5.00000000E-01
					 7.50000000E-01	 1.00000000E+00	-5.96046000E-08
					 7.50000000E-01	 5.00000000E-01	-5.96046000E-08
					 7.50000000E-01	 5.00000000E-01	 1.00000000E+00
					 7.50000000E-01	 1.00000000E+00	 1.00000000E+00
					 5.00000000E-01	 7.50000000E-01	-5.96046000E-08
					 5.00000000E-01	 5.00000000E-01	 5.00000000E-01
					 5.00000000E-01	 7.50000000E-01	 1.00000000E+00
					 5.00000000E-01	 1.00000000E+00	 5.00000000E-01
					 1.00000000E+00	-1.49012000E-08	-5.96046000E-08
					 1.00000000E+00	-1.49012000E-08	 1.00000000E+00
					 5.00000000E-01	-1.49012000E-08	-5.96046000E-08
					 5.00000000E-01	-1.49012000E-08	 1.00000000E+00
					 1.00000000E+00	 2.50000000E-01	-5.96046000E-08
					 1.00000000E+00	-1.49012000E-08	 5.00000000E-01
					 1.00000000E+00	 2.50000000E-01	 1.00000000E+00
					 7.50000000E-01	-1.49012000E-08	-5.96046000E-08
					 7.50000000E-01	-1.49012000E-08	 1.00000000E+00
					 5.00000000E-01	 2.50000000E-01	-5.96046000E-08
					 5.00000000E-01	-1.49012000E-08	 5.00000000E-01
					 5.00000000E-01	 2.50000000E-01	 1.00000000E+00
					-7.45058000E-09	 1.00000000E+00	-5.96046000E-08
					-7.45058000E-09	 5.00000000E-01	-5.96046000E-08
					-7.45058000E-09	 5.00000000E-01	 1.00000000E+00
					-7.45058000E-09	 1.00000000E+00	 1.00000000E+00
					 2.50000000E-01	 1.00000000E+00	-5.96046000E-08
					 2.50000000E-01	 5.00000000E-01	-5.96046000E-08
					 2.50000000E-01	 5.00000000E-01	 1.00000000E+00
					 2.50000000E-01	 1.00000000E+00	 1.00000000E+00
					-7.45058000E-09	 7.50000000E-01	-5.96046000E-08
					-7.45058000E-09	 5.00000000E-01	 5.00000000E-01
					-7.45058000E-09	 7.50000000E-01	 1.00000000E+00
					-7.45058000E-09	 1.00000000E+00	 5.00000000E-01
					-7.45058000E-09	-1.49012000E-08	-5.96046000E-08
					-7.45058000E-09	-1.49012000E-08	 1.00000000E+00
					 2.50000000E-01	-1.49012000E-08	-5.96046000E-08
					 2.50000000E-01	-1.49012000E-08	 1.00000000E+00
					-7.45058000E-09	 2.50000000E-01	-5.96046000E-08
					-7.45058000E-09	-1.49012000E-08	 5.00000000E-01
					-7.45058000E-09	 2.50000000E-01	 1.00000000E+00
					 1.00000000E+00	 5.00000000E-01	 2.00000000E+00
					 1.00000000E+00	 1.00000000E+00	 2.00000000E+00
					 5.00000000E-01	 5.00000000E-01	 2.00000000E+00
					 5.00000000E-01	 1.00000000E+00	 2.00000000E+00
					 1.00000000E+00	 5.00000000E-01	 1.50000000E+00
					 1.00000000E+00	 7.50000000E-01	 2.00000000E+00
					 1.00000000E+00	 1.00000000E+00	 1.50000000E+00
					 7.50000000E-01	 5.00000000E-01	 2.00000000E+00
					 7.50000000E-01	 1.00000000E+00	 2.00000000E+00
					 5.00000000E-01	 5.00000000E-01	 1.50000000E+00
					 5.00000000E-01	 7.50000000E-01	 2.00000000E+00
					 5.00000000E-01	 1.00000000E+00	 1.50000000E+00
					 1.00000000E+00	-1.49012000E-08	 2.00000000E+00
					 5.00000000E-01	-1.49012000E-08	 2.00000000E+00
					 1.00000000E+00	-1.49012000E-08	 1.50000000E+00
					 1.00000000E+00	 2.50000000E-01	 2.00000000E+00
					 7.50000000E-01	-1.49012000E-08	 2.00000000E+00
					 5.00000000E-01	-1.49012000E-08	 1.50000000E+00
					 5.00000000E-01	 2.50000000E-01	 2.00000000E+00
					-7.45058000E-09	 5.00000000E-01	 2.00000000E+00
					-7.45058000E-09	 1.00000000E+00	 2.00000000E+00
					 2.50000000E-01	 5.00000000E-01	 2.00000000E+00
					 2.50000000E-01	 1.00000000E+00	 2.00000000E+00
					-7.45058000E-09	 5.00000000E-01	 1.50000000E+00
					-7.45058000E-09	 7.50000000E-01	 2.00000000E+00
					-7.45058000E-09	 1.00000000E+00	 1.50000000E+00
					-7.45058000E-09	-1.49012000E-08	 2.00000000E+00
					 2.50000000E-01	-1.49012000E-08	 2.00000000E+00
					-7.45058000E-09	-1.49012000E-08	 1.50000000E+00
					-7.45058000E-09	 2.50000000E-01	 2.00000000E+00
					 1.00000000E+00	 5.00000000E-01	 3.00000000E+00
					 1.00000000E+00	 1.00000000E+00	 3.00000000E+00
					 5.00000000E-01	 5.00000000E-01	 3.00000000E+00
					 5.00000000E-01	 1.00000000E+00	 3.00000000E+00
					 1.00000000E+00	 5.00000000E-01	 2.50000000E+00
					 1.00000000E+00	 7.50000000E-01	 3.00000000E+00
					 1.00000000E+00	 1.00000000E+00	 2.50000000E+00
					 7.50000000E-01	 5.00000000E-01	 3.00000000E+00
					 7.50000000E-01	 1.00000000E+00	 3.00000000E+00
					 5.00000000E-01	 5.00000000E-01	 2.50000000E+00
					 5.00000000E-01	 7.50000000E-01	 3.00000000E+00
					 5.00000000E-01	 1.00000000E+00	 2.50000000E+00
					 1.00000000E+00	-1.49012000E-08	 3.00000000E+00
					 5.00000000E-01	-1.49012000E-08	 3.00000000E+00
					 1.00000000E+00	-1.49012000E-08	 2.50000000E+00
					 1.00000000E+00	 2.50000000E-01	 3.00000000E+00
					 7.50000000E-01	-1.49012000E-08	 3.00000000E+00
					 5.00000000E-01	-1.49012000E-08	 2.50000000E+00
					 5.00000000E-01	 2.50000000E-01	 3.00000000E+00
					-7.45058000E-09	 5.00000000E-01	 3.00000000E+00
					-7.45058000E-09	 1.00000000E+00	 3.00000000E+00
					 2.50000000E-01	 5.00000000E-01	 3.00000000E+00
					 2.50000000E-01	 1.00000000E+00	 3.00000000E+00
					-7.45058000E-09	 5.00000000E-01	 2.50000000E+00
					-7.45058000E-09	 7.50000000E-01	 3.00000000E+00
					-7.45058000E-09	 1.00000000E+00	 2.50000000E+00
					-7.45058000E-09	-1.49012000E-08	 3.00000000E+00
					 2.50000000E-01	-1.49012000E-08	 3.00000000E+00
					-7.45058000E-09	-1.49012000E-08	 2.50000000E+00
					-7.45058000E-09	 2.50000000E-01	 3.00000000E+00
					 1.00000000E+00	 5.00000000E-01	 4.00000000E+00
					 1.00000000E+00	 1.00000000E+00	 4.00000000E+00
					 5.00000000E-01	 5.00000000E-01	 4.00000000E+00
					 5.00000000E-01	 1.00000000E+00	 4.00000000E+00
					 1.00000000E+00	 5.00000000E-01	 3.50000000E+00
					 1.00000000E+00	 7.50000000E-01	 4.00000000E+00
					 1.00000000E+00	 1.00000000E+00	 3.50000000E+00
					 7.50000000E-01	 5.00000000E-01	 4.00000000E+00
					 7.50000000E-01	 1.00000000E+00	 4.00000000E+00
					 5.00000000E-01	 5.00000000E-01	 3.50000000E+00
					 5.00000000E-01	 7.50000000E-01	 4.00000000E+00
					 5.00000000E-01	 1.00000000E+00	 3.50000000E+00
					 1.00000000E+00	-1.49012000E-08	 4.00000000E+00
					 5.00000000E-01	-1.49012000E-08	 4.00000000E+00
					 1.00000000E+00	-1.49012000E-08	 3.50000000E+00
					 1.00000000E+00	 2.50000000E-01	 4.00000000E+00
					 7.50000000E-01	-1.49012000E-08	 4.00000000E+00
					 5.00000000E-01	-1.49012000E-08	 3.50000000E+00
					 5.00000000E-01	 2.50000000E-01	 4.00000000E+00
					-7.45058000E-09	 5.00000000E-01	 4.00000000E+00
					-7.45058000E-09	 1.00000000E+00	 4.00000000E+00
					 2.50000000E-01	 5.00000000E-01	 4.00000000E+00
					 2.50000000E-01	 1.00000000E+00	 4.00000000E+00
					-7.45058000E-09	 5.00000000E-01	 3.50000000E+00
					-7.45058000E-09	 7.50000000E-01	 4.00000000E+00
					-7.45058000E-09	 1.00000000E+00	 3.50000000E+00
					-7.45058000E-09	-1.49012000E-08	 4.00000000E+00
					 2.50000000E-01	-1.49012000E-08	 4.00000000E+00
					-7.45058000E-09	-1.49012000E-08	 3.50000000E+00
					-7.45058000E-09	 2.50000000E-01	 4.00000000E+00
					 1.00000000E+00	 5.00000000E-01	 5.00000000E+00
					 1.00000000E+00	 1.00000000E+00	 5.00000000E+00
					 5.00000000E-01	 5.00000000E-01	 5.00000000E+00
					 5.00000000E-01	 1.00000000E+00	 5.00000000E+00
					 1.00000000E+00	 5.00000000E-01	 4.50000000E+00
					 1.00000000E+00	 7.50000000E-01	 5.00000000E+00
					 1.00000000E+00	 1.00000000E+00	 4.50000000E+00
					 7.50000000E-01	 5.00000000E-01	 5.00000000E+00
					 7.50000000E-01	 1.00000000E+00	 5.00000000E+00
					 5.00000000E-01	 5.00000000E-01	 4.50000000E+00
					 5.00000000E-01	 7.50000000E-01	 5.00000000E+00
					 5.00000000E-01	 1.00000000E+00	 4.50000000E+00
					 1.00000000E+00	-1.49012000E-08	 5.00000000E+00
					 5.00000000E-01	-1.49012000E-08	 5.00000000E+00
					 1.00000000E+00	-1.49012000E-08	 4.50000000E+00
					 1.00000000E+00	 2.50000000E-01	 5.00000000E+00
					 7.50000000E-01	-1.49012000E-08	 5.00000000E+00
					 5.00000000E-01	-1.49012000E-08	 4.50000000E+00
					 5.00000000E-01	 2.50000000E-01	 5.00000000E+00
					-7.45058000E-09	 5.00000000E-01	 5.00000000E+00
					-7.45058000E-09	 1.00000000E+00	 5.00000000E+00
					 2.50000000E-01	 5.00000000E-01	 5.00000000E+00
					 2.50000000E-01	 1.00000000E+00	 5.00000000E+00
					-7.45058000E-09	 5.00000000E-01	 4.50000000E+00
					-7.45058000E-09	 7.50000000E-01	 5.00000000E+00
					-7.45058000E-09	 1.00000000E+00	 4.50000000E+00
					-7.45058000E-09	-1.49012000E-08	 5.00000000E+00
					 2.50000000E-01	-1.49012000E-08	 5.00000000E+00
					-7.45058000E-09	-1.49012000E-08	 4.50000000E+00
					-7.45058000E-09	 2.50000000E-01	 5.00000000E+00
					 1.00000000E+00	 5.00000000E-01	 6.00000000E+00
					 1.00000000E+00	 1.00000000E+00	 6.00000000E+00
					 5.00000000E-01	 5.00000000E-01	 6.00000000E+00
					 5.00000000E-01	 1.00000000E+00	 6.00000000E+00
					 1.00000000E+00	 5.00000000E-01	 5.50000000E+00
					 1.00000000E+00	 7.50000000E-01	 6.00000000E+00
					 1.00000000E+00	 1.00000000E+00	 5.50000000E+00
					 7.50000000E-01	 5.00000000E-01	 6.00000000E+00
					 7.50000000E-01	 1.00000000E+00	 6.00000000E+00
					 5.00000000E-01	 5.00000000E-01	 5.50000000E+00
					 5.00000000E-01	 7.50000000E-01	 6.00000000E+00
					 5.00000000E-01	 1.00000000E+00	 5.50000000E+00
					 1.00000000E+00	-1.49012000E-08	 6.00000000E+00
[...]
			<PointData>
				<DataArray type="Float32" Name="U" NumberOfComponents="3" ComponentName0="D1" ComponentName1="D2" ComponentName2="D3" format="ascii">
					 0.00000000E+00	 0.00000000E+00	 0.00000000E+00
					 0.00000000E+00	 0.00000000E+00	 0.00000000E+00
					 1.40970000E-05	 9.31576000E-04	-2.58234000E-05
					-6.52041000E-04	 9.56812000E-04	-2.76766000E-04
					 0.00000000E+00	 0.00000000E+00	 0.00000000E+00
					 0.00000000E+00	 0.00000000E+00	 0.00000000E+00
					 1.13190000E-05	 2.51728000E-04	-1.99342000E-05
					-6.93020000E-04	 2.73591000E-04	-2.66420000E-04
					 0.00000000E+00	 0.00000000E+00	 0.00000000E+00
					 8.02863000E-06	 4.37954000E-04	-1.24225000E-05
					-3.17823000E-04	 9.39078000E-04	-1.03140000E-04
					-3.10036000E-04	 4.54131000E-04	-1.36047000E-04
					 0.00000000E+00	 0.00000000E+00	 0.00000000E+00
					 0.00000000E+00	 0.00000000E+00	 0.00000000E+00
					 1.25767000E-05	 5.97011000E-04	-2.22673000E-05
					-6.72592000E-04	 6.20049000E-04	-3.26926000E-04
					 0.00000000E+00	 0.00000000E+00	 0.00000000E+00
					 5.02076000E-06	 8.89743000E-05	-8.71586000E-06
					-3.40484000E-04	 2.57919000E-04	-1.51005000E-04
					-3.62143000E-04	 1.14989000E-04	-1.28586000E-04
					 0.00000000E+00	 0.00000000E+00	 0.00000000E+00
					 6.78228000E-04	 9.49849000E-04	 2.25613000E-04
					 0.00000000E+00	 0.00000000E+00	 0.00000000E+00
					 7.14247000E-04	 2.68685000E-04	 2.27071000E-04
					 0.00000000E+00	 0.00000000E+00	 0.00000000E+00
					 3.25062000E-04	 4.46293000E-04	 1.10080000E-04
					 3.45404000E-04	 9.35410000E-04	 5.19994000E-05
					 0.00000000E+00	 0.00000000E+00	 0.00000000E+00
					 6.95969000E-04	 6.14377000E-04	 2.82666000E-04
					 0.00000000E+00	 0.00000000E+00	 0.00000000E+00
					 3.71263000E-04	 1.09004000E-04	 1.10207000E-04
					 3.62700000E-04	 2.55554000E-04	 1.11472000E-04
					 0.00000000E+00	 0.00000000E+00	 0.00000000E+00
					 0.00000000E+00	 0.00000000E+00	 0.00000000E+00
					 8.74045000E-06	-4.75150000E-04	-1.50379000E-05
					-7.32340000E-04	-4.50122000E-04	-2.66345000E-04
					 0.00000000E+00	 0.00000000E+00	 0.00000000E+00
					 0.00000000E+00	 0.00000000E+00	 0.00000000E+00
					 9.98993000E-06	-1.05473000E-04	-1.77888000E-05
					-7.12479000E-04	-8.42314000E-05	-2.05982000E-04
					 0.00000000E+00	 0.00000000E+00	 0.00000000E+00
					 2.63646000E-06	-2.95361000E-04	-6.20680000E-06
					-3.63835000E-04	-4.67537000E-04	-2.09215000E-04
					-3.89404000E-04	-2.56475000E-04	-1.29988000E-04
					 0.00000000E+00	 0.00000000E+00	 0.00000000E+00
					 7.49087000E-04	-4.53333000E-04	 2.36779000E-04
					 0.00000000E+00	 0.00000000E+00	 0.00000000E+00
					 7.31357000E-04	-8.83161000E-05	 1.71094000E-04
					 0.00000000E+00	 0.00000000E+00	 0.00000000E+00
					 3.94051000E-04	-2.60929000E-04	 1.16804000E-04
					 3.81253000E-04	-4.68989000E-04	 1.79352000E-04
					 3.26927000E-05	 1.80049000E-03	-5.53184000E-05
					-8.70303000E-04	 1.90755000E-03	-9.64532000E-04
					 2.79463000E-05	 8.12165000E-04	-4.53587000E-05
					-1.05953000E-03	 9.09229000E-04	-9.30285000E-04
					 2.26055000E-05	 1.33067000E-03	-3.97268000E-05
					-4.15426000E-04	 1.83267000E-03	-5.66143000E-04
					-8.47061000E-04	 1.40716000E-03	-5.02886000E-04
					 3.05339000E-05	 1.32988000E-03	-4.99649000E-05
					-9.65338000E-04	 1.42802000E-03	-9.39962000E-04
					 1.87530000E-05	 4.30746000E-04	-3.13997000E-05
					-5.16626000E-04	 8.39177000E-04	-5.39805000E-04
					-9.33618000E-04	 4.89726000E-04	-4.77715000E-04
					 9.32185000E-04	 1.90144000E-03	 8.54314000E-04
					 1.11347000E-03	 9.07181000E-04	 8.39666000E-04
					 8.89339000E-04	 1.39961000E-03	 4.23594000E-04
					 4.79811000E-04	 1.82963000E-03	 4.55520000E-04
					 1.02341000E-03	 1.42436000E-03	 8.40430000E-04
					 9.69085000E-04	 4.85843000E-04	 4.15202000E-04
					 5.71887000E-04	 8.38647000E-04	 4.49085000E-04
					 2.37821000E-05	-3.71907000E-04	-3.61503000E-05
					-1.25869000E-03	-2.77952000E-04	-9.45452000E-04
					 2.55492000E-05	 2.42207000E-04	-4.08734000E-05
					-1.15982000E-03	 3.38651000E-04	-9.15787000E-04
					 1.55108000E-05	-5.71221000E-04	-2.47263000E-05
					-6.17489000E-04	-3.47461000E-04	-5.62123000E-04
					-1.04096000E-03	-5.18798000E-04	-4.87889000E-04
					 1.30619000E-03	-2.78608000E-04	 8.72943000E-04
					 1.21005000E-03	 3.37549000E-04	 8.33731000E-04
					 1.07098000E-03	-5.20675000E-04	 4.38819000E-04
					 6.65041000E-04	-3.47222000E-04	 4.89936000E-04
					 4.60137000E-05	 4.82389000E-03	-8.84774000E-05
					-7.26985000E-04	 5.02602000E-03	-3.13051000E-03
					 4.14736000E-05	 3.82190000E-03	-8.37130000E-05
					-1.17338000E-03	 4.03166000E-03	-3.10934000E-03
					 4.23281000E-05	 2.75952000E-03	-7.13219000E-05
					-3.44270000E-04	 4.86541000E-03	-1.64725000E-03
					-7.94293000E-04	 2.91533000E-03	-1.85710000E-03
					 4.40317000E-05	 4.37928000E-03	-8.64668000E-05
					-9.49879000E-04	 4.58883000E-03	-3.11851000E-03
					 3.72672000E-05	 1.76259000E-03	-6.24668000E-05
					-5.65595000E-04	 3.86619000E-03	-1.63497000E-03
					-1.11918000E-03	 1.91935000E-03	-1.81991000E-03
					 8.16070000E-04	 5.04041000E-03	 2.95192000E-03
					 1.25589000E-03	 4.04711000E-03	 2.94013000E-03
					 8.75667000E-04	 2.91515000E-03	 1.71503000E-03
					 4.35209000E-04	 4.87354000E-03	 1.46970000E-03
					 1.03616000E-03	 4.60419000E-03	 2.94395000E-03
					 1.19269000E-03	 1.92177000E-03	 1.69498000E-03
					 6.48302000E-04	 3.87517000E-03	 1.46704000E-03
					 3.64701000E-05	 2.39445000E-03	-7.59076000E-05
					-1.62055000E-03	 2.59609000E-03	-3.11786000E-03
					 3.88435000E-05	 3.16511000E-03	-8.01098000E-05
					-1.39680000E-03	 3.37278000E-03	-3.09271000E-03
					 3.22891000E-05	 4.47927000E-04	-5.25310000E-05
					-7.89395000E-04	 2.43594000E-03	-1.65400000E-03
					-1.44334000E-03	 6.03207000E-04	-1.83855000E-03
					 1.69605000E-03	 2.61032000E-03	 2.96409000E-03
					 1.47550000E-03	 3.38778000E-03	 2.93074000E-03
					 1.50962000E-03	 6.05205000E-04	 1.73277000E-03
					 8.63192000E-04	 2.44424000E-03	 1.50156000E-03
					 2.13864000E-05	 1.42510000E-02	-1.55876000E-04
					-9.04885000E-04	 1.44106000E-02	-6.26509000E-03
					 1.91971000E-05	 1.31225000E-02	-1.60800000E-04
					-1.30137000E-03	 1.32830000E-02	-6.29634000E-03
					 3.94349000E-05	 8.60729000E-03	-1.13882000E-04
					-4.43309000E-04	 1.42789000E-02	-3.13532000E-03
					-7.69981000E-04	 8.79197000E-03	-4.72213000E-03
					 2.03366000E-05	 1.37386000E-02	-1.59658000E-04
					-1.10343000E-03	 1.38989000E-02	-6.30433000E-03
					 3.53612000E-05	 7.55490000E-03	-1.14782000E-04
					-6.41517000E-04	 1.31490000E-02	-3.17227000E-03
					-1.24312000E-03	 7.74939000E-03	-4.72758000E-03
					 9.44978000E-04	 1.44816000E-02	 5.94682000E-03
					 1.33785000E-03	 1.33566000E-02	 5.96829000E-03
					 8.46497000E-04	 8.83124000E-03	 4.48988000E-03
					 4.85099000E-04	 1.43126000E-02	 2.82227000E-03
					 1.14186000E-03	 1.39720000E-02	 5.97824000E-03
					 1.31287000E-03	 7.78986000E-03	 4.49370000E-03
					 6.79187000E-04	 1.31848000E-02	 2.84923000E-03
					 1.66331000E-05	 1.16111000E-02	-1.59109000E-04
					-1.70937000E-03	 1.17572000E-02	-6.26858000E-03
					 1.80006000E-05	 1.24172000E-02	-1.60487000E-04
					-1.50570000E-03	 1.25748000E-02	-6.29466000E-03
					 3.08946000E-05	 6.05061000E-03	-1.10138000E-04
					-8.42075000E-04	 1.16311000E-02	-3.14956000E-03
					-1.71780000E-03	 6.23307000E-03	-4.71815000E-03
					 1.74218000E-03	 1.18321000E-02	 5.94468000E-03
					 1.54020000E-03	 1.26492000E-02	 5.96771000E-03
					 1.78065000E-03	 6.27380000E-03	 4.49418000E-03
					 8.75337000E-04	 1.16677000E-02	 2.82999000E-03
					-2.92588000E-05	 2.91380000E-02	-2.87321000E-04
					-1.03416000E-03	 2.91328000E-02	-7.95544000E-03
					-3.01504000E-05	 2.81110000E-02	-2.94999000E-04
					-1.09953000E-03	 2.80916000E-02	-7.98943000E-03
					-3.10796000E-06	 2.13836000E-02	-2.16732000E-04
					-5.27606000E-04	 2.91300000E-02	-4.09710000E-03
					-1.05463000E-03	 2.14634000E-02	-7.35386000E-03
					-2.99121000E-05	 2.86332000E-02	-2.91492000E-04
					-1.06781000E-03	 2.86166000E-02	-7.94453000E-03
					-4.20324000E-06	 2.02273000E-02	-2.22929000E-04
					-5.65798000E-04	 2.80968000E-02	-4.08688000E-03
					-1.27739000E-03	 2.02949000E-02	-7.39797000E-03
					 9.75108000E-04	 2.92452000E-02	 7.37904000E-03
					 1.03736000E-03	 2.82060000E-02	 7.39821000E-03
					 1.04637000E-03	 2.15599000E-02	 6.91504000E-03
					 4.69002000E-04	 2.91850000E-02	 3.52163000E-03
					 1.00699000E-03	 2.87290000E-02	 7.36040000E-03
					 1.26690000E-03	 2.03944000E-02	 6.94715000E-03
					 5.04872000E-04	 2.81518000E-02	 3.49640000E-03
					-3.08224000E-05	 2.70013000E-02	-3.01056000E-04
					-1.17998000E-03	 2.69786000E-02	-7.96925000E-03
					-3.03662000E-05	 2.75633000E-02	-2.97966000E-04
					-1.13998000E-03	 2.75420000E-02	-8.03899000E-03
					-5.52578000E-06	 1.88392000E-02	-2.24678000E-04
					-6.05702000E-04	 2.69848000E-02	-4.02322000E-03
					-1.52225000E-03	 1.88946000E-02	-7.36224000E-03
					 1.11530000E-03	 2.70958000E-02	 7.36603000E-03
					 1.07644000E-03	 2.76593000E-02	 7.44185000E-03
					 1.50947000E-03	 1.89958000E-02	 6.90845000E-03
					 5.43245000E-04	 2.70399000E-02	 3.42066000E-03
					-7.44302000E-05	 4.41511000E-02	-4.16901000E-04
					-3.74325000E-04	 4.40823000E-02	-8.05420000E-03
					-7.51468000E-05	 4.38710000E-02	-4.34822000E-04
					-3.41099000E-04	 4.38000000E-02	-8.07270000E-03
					-5.25529000E-05	 3.67945000E-02	-3.55764000E-04
					-2.23311000E-04	 4.41214000E-02	-4.30760000E-03
					-7.76104000E-04	 3.67561000E-02	-8.09328000E-03
					-7.49441000E-05	 4.40061000E-02	-4.26092000E-04
					-3.57367000E-04	 4.39366000E-02	-7.99265000E-03
					-5.38807000E-05	 3.60872000E-02	-3.67092000E-04
					-2.07969000E-04	 4.38421000E-02	-4.25554000E-03
					-7.61158000E-04	 3.60367000E-02	-8.11572000E-03
					 2.28380000E-04	 4.41963000E-02	 7.21979000E-03
					 1.90804000E-04	 4.39110000E-02	 7.20216000E-03
					 6.72109000E-04	 3.68717000E-02	 7.38147000E-03
					 7.50126000E-05	 4.41808000E-02	 3.47316000E-03
					 2.09573000E-04	 4.40461000E-02	 7.14011000E-03
					 6.52268000E-04	 3.61520000E-02	 7.38139000E-03
					 5.76346000E-05	 4.38972000E-02	 3.38547000E-03
					-7.57951000E-05	 4.36177000E-02	-4.50427000E-04
					-3.06859000E-04	 4.35500000E-02	-8.08767000E-03
					-7.52801000E-05	 4.37394000E-02	-4.42823000E-04
					-3.24213000E-04	 4.36678000E-02	-8.14711000E-03
					-5.50277000E-05	 3.53812000E-02	-3.77661000E-04
					-1.92716000E-04	 4.35908000E-02	-4.20341000E-03
					-7.57210000E-04	 3.53300000E-02	-8.11488000E-03
					 1.52502000E-04	 4.36637000E-02	 7.18540000E-03
					 1.71648000E-04	 4.37815000E-02	 7.26029000E-03
					 6.43823000E-04	 3.54487000E-02	 7.35908000E-03
					 4.04452000E-05	 4.36458000E-02	 3.30194000E-03
					-1.25383000E-04	 5.84662000E-02	-5.27168000E-04
					 3.69226000E-04	 5.84040000E-02	-8.05256000E-03
					-1.22076000E-04	 5.89499000E-02	-5.55602000E-04
					 3.63662000E-04	 5.88970000E-02	-8.08193000E-03
					-9.91373000E-05	 5.12977000E-02	-4.71714000E-04
					 1.20141000E-04	 5.84342000E-02	-4.33345000E-03
					 4.73471000E-05	 5.12281000E-02	-8.03113000E-03
					-1.24654000E-04	 5.87084000E-02	-5.42106000E-04
					 3.66465000E-04	 5.86541000E-02	-8.02608000E-03
					-9.74188000E-05	 5.14421000E-02	-4.97061000E-04
					 1.22354000E-04	 5.89235000E-02	-4.32169000E-03
					 5.62392000E-05	 5.13806000E-02	-8.05295000E-03
					-6.17599000E-04	 5.85122000E-02	 7.00057000E-03
					-6.07765000E-04	 5.90032000E-02	 6.97336000E-03
					-2.41152000E-04	 5.13393000E-02	 7.08670000E-03
					-3.70215000E-04	 5.84884000E-02	 3.28079000E-03
					-6.14268000E-04	 5.87596000E-02	 6.94360000E-03
					-2.50337000E-04	 5.14870000E-02	 7.05758000E-03
					-3.66456000E-04	 5.89750000E-02	 3.21163000E-03
					-1.18036000E-04	 5.94340000E-02	-5.85116000E-04
					 3.73200000E-04	 5.93861000E-02	-8.11554000E-03
					-1.19295000E-04	 5.91924000E-02	-5.69788000E-04
					 3.69526000E-04	 5.91400000E-02	-8.13811000E-03
					-9.53545000E-05	 5.16007000E-02	-5.19458000E-04
					 1.27266000E-04	 5.94110000E-02	-4.31422000E-03
					 7.81604000E-05	 5.15448000E-02	-8.07985000E-03
					-6.11685000E-04	 5.94953000E-02	 6.94835000E-03
					-6.09512000E-04	 5.92485000E-02	 7.00136000E-03
					-2.71628000E-04	 5.16539000E-02	 7.03945000E-03
					-3.64082000E-04	 5.94629000E-02	 3.14540000E-03
					-1.55136000E-04	 7.32291000E-02	-6.47183000E-04
					 6.33635000E-04	 7.31575000E-02	-8.17325000E-03
					-1.61923000E-04	 7.40225000E-02	-6.68883000E-04
					 6.18989000E-04	 7.39588000E-02	-8.20678000E-03
					-1.45497000E-04	 6.57715000E-02	-5.87428000E-04
					 2.37841000E-04	 7.31926000E-02	-4.41322000E-03
					 5.67955000E-04	 6.57084000E-02	-8.11119000E-03
					-1.57751000E-04	 7.36233000E-02	-6.56485000E-04
					 6.26980000E-04	 7.35568000E-02	-8.18303000E-03
					-1.44531000E-04	 6.64786000E-02	-6.12464000E-04
					 2.26992000E-04	 7.39896000E-02	-4.43678000E-03
					 5.61060000E-04	 6.64215000E-02	-8.14355000E-03
					-9.54272000E-04	 7.32779000E-02	 6.89288000E-03
					-9.45725000E-04	 7.40905000E-02	 6.88241000E-03
					-8.64050000E-04	 6.58163000E-02	 6.94602000E-03
					-5.50760000E-04	 7.32534000E-02	 3.12336000E-03
					-9.50012000E-04	 7.36849000E-02	 6.88309000E-03
					-8.51970000E-04	 6.65355000E-02	 6.92874000E-03
					-5.51777000E-04	 7.40573000E-02	 3.10277000E-03
					-1.69082000E-04	 7.48132000E-02	-7.03350000E-04
					 6.24790000E-04	 7.47643000E-02	-8.25129000E-03
					-1.66301000E-04	 7.44207000E-02	-6.84762000E-04
					 6.21459000E-04	 7.43618000E-02	-8.23510000E-03
					-1.43359000E-04	 6.71824000E-02	-6.46369000E-04
					 2.25538000E-04	 7.47880000E-02	-4.47063000E-03
					 5.66026000E-04	 6.71330000E-02	-8.18437000E-03
					-9.58010000E-04	 7.48929000E-02	 6.85772000E-03
					-9.52437000E-04	 7.44938000E-02	 6.87865000E-03
					-8.51144000E-04	 6.72468000E-02	 6.90236000E-03
					-5.62412000E-04	 7.48537000E-02	 3.06786000E-03
					 0.00000000E+00	 0.00000000E+00	 0.00000000E+00
					 0.00000000E+00	 0.00000000E+00	 0.00000000E+00
					-6.26717000E-05	-4.73318000E-03	 6.69201000E-06
					-9.98446000E-04	-4.91027000E-03	 3.94251000E-03
					 0.00000000E+00	 0.00000000E+00	 0.00000000E+00
					 0.00000000E+00	 0.00000000E+00	 0.00000000E+00
					-6.50278000E-05	-5.48852000E-03	-5.76169000E-05
					-6.28481000E-04	-5.67154000E-03	 3.95134000E-03
					 0.00000000E+00	 0.00000000E+00	 0.00000000E+00
					-1.47865000E-05	-1.23262000E-03	 9.06399000E-06
					-5.33748000E-04	-4.74379000E-03	 1.91641000E-03
					-8.44880000E-04	-1.57685000E-03	 2.19168000E-03
					 0.00000000E+00	 0.00000000E+00	 0.00000000E+00
					 0.00000000E+00	 0.00000000E+00	 0.00000000E+00
					-6.21524000E-05	-5.18530000E-03	-2.63528000E-05
					-8.08068000E-04	-5.36276000E-03	 3.90179000E-03
					 0.00000000E+00	 0.00000000E+00	 0.00000000E+00
					-1.62929000E-05	-1.73458000E-03	-2.18307000E-05
					-3.47922000E-04	-5.49827000E-03	 1.83741000E-03
					-2.58622000E-04	-2.06790000E-03	 2.12125000E-03
					 0.00000000E+00	 0.00000000E+00	 0.00000000E+00
					 8.76494000E-04	-4.87460000E-03	-3.93646000E-03
					 0.00000000E+00	 0.00000000E+00	 0.00000000E+00
					 5.04318000E-04	-5.64561000E-03	-4.07226000E-03
					 0.00000000E+00	 0.00000000E+00	 0.00000000E+00
					 8.21468000E-04	-1.55649000E-03	-2.17787000E-03
					 4.08259000E-04	-4.72696000E-03	-1.90467000E-03
					 0.00000000E+00	 0.00000000E+00	 0.00000000E+00
					 6.87804000E-04	-5.33104000E-03	-3.96150000E-03
					 0.00000000E+00	 0.00000000E+00	 0.00000000E+00
					 2.33645000E-04	-2.06519000E-03	-2.16994000E-03
					 2.17080000E-04	-5.48617000E-03	-1.95454000E-03
					 0.00000000E+00	 0.00000000E+00	 0.00000000E+00
					 0.00000000E+00	 0.00000000E+00	 0.00000000E+00
					-7.47163000E-05	-5.86445000E-03	-1.19740000E-04
					-2.50819000E-04	-6.01749000E-03	 3.82018000E-03
					 0.00000000E+00	 0.00000000E+00	 0.00000000E+00
					 0.00000000E+00	 0.00000000E+00	 0.00000000E+00
					-6.82599000E-05	-5.74961000E-03	-8.86128000E-05
					-4.41203000E-04	-5.91453000E-03	 3.96282000E-03
					 0.00000000E+00	 0.00000000E+00	 0.00000000E+00
					-2.83181000E-05	-1.72383000E-03	-5.20238000E-05
					-1.64340000E-04	-5.86220000E-03	 1.66975000E-03
					 3.41111000E-04	-2.02720000E-03	 2.13023000E-03
					 0.00000000E+00	 0.00000000E+00	 0.00000000E+00
					 1.07321000E-04	-6.00312000E-03	-4.06207000E-03
					 0.00000000E+00	 0.00000000E+00	 0.00000000E+00
					 3.09825000E-04	-5.89898000E-03	-4.14380000E-03
					 0.00000000E+00	 0.00000000E+00	 0.00000000E+00
					-3.90934000E-04	-2.04034000E-03	-2.24103000E-03
					 1.63858000E-05	-5.85699000E-03	-1.90989000E-03
					-2.27296000E-04	-1.45405000E-02	-6.40872000E-05
					-1.94147000E-03	-1.46372000E-02	 5.56848000E-03
					-2.34068000E-04	-1.61955000E-02	-1.68173000E-04
					-1.82380000E-03	-1.62813000E-02	 5.48495000E-03
					-1.35978000E-04	-9.33486000E-03	-1.73492000E-05
					-1.08849000E-03	-1.45829000E-02	 2.80073000E-03
					-1.38626000E-03	-9.51838000E-03	 4.98726000E-03
					-2.30845000E-04	-1.53776000E-02	-1.19246000E-04
					-1.88194000E-03	-1.54620000E-02	 5.44302000E-03
					-1.41822000E-04	-1.04777000E-02	-1.06005000E-04
					-1.02239000E-03	-1.62314000E-02	 2.62736000E-03
					-1.15485000E-03	-1.06412000E-02	 4.93102000E-03
					 1.48730000E-03	-1.45841000E-02	-5.70284000E-03
					 1.35000000E-03	-1.62340000E-02	-5.82424000E-03
					 1.11576000E-03	-9.47178000E-03	-5.03048000E-03
					 6.33740000E-04	-1.45547000E-02	-2.93091000E-03
					 1.41955000E-03	-1.54176000E-02	-5.68436000E-03
					 8.73630000E-04	-1.06025000E-02	-5.14932000E-03
					 5.57510000E-04	-1.62080000E-02	-2.96195000E-03
					-2.46430000E-04	-1.77134000E-02	-2.71318000E-04
					-1.67597000E-03	-1.77791000E-02	 5.36099000E-03
					-2.40710000E-04	-1.69602000E-02	-2.16375000E-04
					-1.74888000E-03	-1.70689000E-02	 5.52422000E-03
					-1.52776000E-04	-1.13647000E-02	-1.94305000E-04
					-9.66654000E-04	-1.77345000E-02	 2.41677000E-03
					-9.05500000E-04	-1.15155000E-02	 4.81249000E-03
					 1.20759000E-03	-1.77502000E-02	-5.90600000E-03
					 1.27796000E-03	-1.70008000E-02	-5.96195000E-03
					 6.13202000E-04	-1.14933000E-02	-5.20399000E-03
					 4.80593000E-04	-1.77221000E-02	-2.95648000E-03
					-3.87025000E-04	-2.56147000E-02	-2.24261000E-04
					-3.33609000E-03	-2.55968000E-02	 5.87179000E-03
					-3.90542000E-04	-2.85053000E-02	-3.01648000E-04
					-3.29636000E-03	-2.86085000E-02	 5.80920000E-03
					-3.16827000E-04	-1.99830000E-02	-1.34983000E-04
					-1.85264000E-03	-2.55991000E-02	 2.88246000E-03
					-2.62860000E-03	-2.00417000E-02	 5.83163000E-03
					-3.88018000E-04	-2.70672000E-02	-2.59989000E-04
					-3.31979000E-03	-2.71258000E-02	 5.74282000E-03
					-3.24013000E-04	-2.22494000E-02	-2.35668000E-04
					-1.86691000E-03	-2.85545000E-02	 2.70449000E-03
					-2.56042000E-03	-2.23216000E-02	 5.74669000E-03
					 2.51555000E-03	-2.55886000E-02	-6.30488000E-03
					 2.50508000E-03	-2.84925000E-02	-6.43031000E-03
					 1.98281000E-03	-1.99939000E-02	-6.10369000E-03
					 1.06359000E-03	-2.55965000E-02	-3.31923000E-03
					 2.50809000E-03	-2.70441000E-02	-6.27601000E-03
					 1.90998000E-03	-2.22505000E-02	-6.22008000E-03
					 1.05970000E-03	-2.84985000E-02	-3.32748000E-03
					-3.95188000E-04	-3.13992000E-02	-3.80339000E-04
					-3.35090000E-03	-3.16216000E-02	 5.71345000E-03
					-3.93222000E-04	-2.99698000E-02	-3.42949000E-04
					-3.32692000E-03	-3.00049000E-02	 5.87990000E-03
					-3.22540000E-04	-2.44459000E-02	-3.35234000E-04
					-1.84307000E-03	-3.15131000E-02	 2.49321000E-03
					-2.51705000E-03	-2.45464000E-02	 5.63450000E-03
					 2.51007000E-03	-3.14021000E-02	-6.51731000E-03
					 2.50700000E-03	-2.99467000E-02	-6.58332000E-03
					 1.82997000E-03	-2.44394000E-02	-6.30862000E-03
					 1.05238000E-03	-3.14097000E-02	-3.29808000E-03
					-3.81181000E-04	-3.70328000E-02	-4.17951000E-04
					-4.32696000E-03	-3.68048000E-02	 4.85947000E-03