# vtk DataFile Version 3.0

ASCII
DATASET UNSTRUCTURED_GRID

POINTS 522 double
	 1.00000000E+00	 1.00000000E+00	-5.96046000E-08
	 1.00000000E+00	 5.00000000E-01	-5.96046000E-08
	 1.00000000E+00	 5.00000000E-01	 1.00000000E+00
	 1.00000000E+00	 1.00000000E+00	 1.00000000E+00
	 5.00000000E-01	 1.00000000E+00	-5.96046000E-08
	 5.00000000E-01	 5.00000000E-01	-5.96046000E-08
	 5.00000000E-01	 5.00000000E-01	 1.00000000E+00
	 5.00000000E-01	 1.00000000E+00	 1.00000000E+00
	 1.00000000E+00	 7.50000000E-01	-5.96046000E-08
	 1.00000000E+00	 5.00000000E-01	 5.00000000E-01
	 1.00000000E+00	 7.50000000E-01	 1.00000000E+00
	 1.00000000E+00	 1.00000000E+00	 5.00000000E-01
	 7.50000000E-01	 1.00000000E+00	-5.96046000E-08
	 7.50000000E-01	 5.00000000E-01	-5.96046000E-08
	 7.50000000E-01	 5.00000000E-01	 1.00000000E+00
	 7.50000000E-01	 1.00000000E+00	 1.00000000E+00
	 5.00000000E-01	 7.50000000E-01	-5.96046000E-08
	 5.00000000E-01	 5.00000000E-01	 5.00000000E-01
	 5.00000000E-01	 7.50000000E-01	 1.00000000E+00
	 5.00000000E-01	 1.00000000E+00	 5.00000000E-01
	 1.00000000E+00	-1.49012000E-08	-5.96046000E-08
	 1.00000000E+00	-1.49012000E-08	 1.00000000E+00
	 5.00000000E-01	-1.49012000E-08	-5.96046000E-08
	 5.00000000E-01	-1.49012000E-08	 1.00000000E+00
	 1.00000000E+00	 2.50000000E-01	-5.96046000E-08
	 1.00000000E+00	-1.49012000E-08	 5.00000000E-01
	 1.00000000E+00	 2.50000000E-01	 1.00000000E+00
	 7.50000000E-01	-1.49012000E-08	-5.96046000E-08
	 7.50000000E-01	-1.49012000E-08	 1.00000000E+00
	 5.00000000E-01	 2.50000000E-01	-5.96046000E-08
	 5.00000000E-01	-1.49012000E-08	 5.00000000E-01
	 5.00000000E-01	 2.50000000E-01	 1.00000000E+00
	-7.45058000E-09	 1.00000000E+00	-5.96046000E-08
	-7.45058000E-09	 5.00000000E-01	-5.96046000E-08
	-7.45058000E-09	 5.00000000E-01	 1.00000000E+00
	-7.45058000E-09	 1.00000000E+00	 1.00000000E+00
	 2.50000000E-01	 1.00000000E+00	-5.96046000E-08
	 2.50000000E-01	 5.00000000E-01	-5.96046000E-08
	 2.50000000E-01	 5.00000000E-01	 1.00000000E+00
	 2.50000000E-01	 1.00000000E+00	 1.00000000E+00
	-7.45058000E-09	 7.50000000E-01	-5.96046000E-08
	-7.45058000E-09	 5.00000000E-01	 5.00000000E-01
	-7.45058000E-09	 7.50000000E-01	 1.00000000E+00
	-7.45058000E-09	 1.00000000E+00	 5.00000000E-01
	-7.45058000E-09	-1.49012000E-08	-5.96046000E-08
	-7.45058000E-09	-1.49012000E-08	 1.00000000E+00
	 2.50000000E-01	-1.49012000E-08	-5.96046000E-08
	 2.50000000E-01	-1.49012000E-08	 1.00000000E+00
	-7.45058000E-09	 2.50000000E-01	-5.96046000E-08
	-7.45058000E-09	-1.49012000E-08	 5.00000000E-01
	-7.45058000E-09	 2.50000000E-01	 1.00000000E+00
	 1.00000000E+00	 5.00000000E-01	 2.00000000E+00
	 1.00000000E+00	 1.00000000E+00	 2.00000000E+00
	 5.00000000E-01	 5.00000000E-01	 2.00000000E+00
	 5.00000000E-01	 1.00000000E+00	 2.00000000E+00
	 1.00000000E+00	 5.00000000E-01	 1.50000000E+00
	 1.00000000E+00	 7.50000000E-01	 2.00000000E+00
	 1.00000000E+00	 1.00000000E+00	 1.50000000E+00
	 7.50000000E-01	 5.00000000E-01	 2.00000000E+00
	 7.50000000E-01	 1.00000000E+00	 2.00000000E+00
	 5.00000000E-01	 5.00000000E-01	 1.50000000E+00
	 5.00000000E-01	 7.50000000E-01	 2.00000000E+00
	 5.00000000E-01	 1.00000000E+00	 1.50000000E+00
	 1.00000000E+00	-1.49012000E-08	 2.00000000E+00
	 5.00000000E-01	-1.49012000E-08	 2.00000000E+00
	 1.00000000E+00	-1.49012000E-08	 1.50000000E+00
	 1.00000000E+00	 2.50000000E-01	 2.00000000E+00
	 7.50000000E-01	-1.49012000E-08	 2.00000000E+00
	 5.00000000E-01	-1.49012000E-08	 1.50000000E+00
	 5.00000000E-01	 2.50000000E-01	 2.00000000E+00
	-7.45058000E-09	 5.00000000E-01	 2.00000000E+00
	-7.45058000E-09	 1.00000000E+00	 2.00000000E+00
	 2.50000000E-01	 5.00000000E-01	 2.00000000E+00
	 2.50000000E-01	 1.00000000E+00	 2.00000000E+00
	-7.45058000E-09	 5.00000000E-01	 1.50000000E+00
	-7.45058000E-09	 7.50000000E-01	 2.00000000E+00
	-7.45058000E-09	 1.00000000E+00	 1.50000000E+00
	-7.45058000E-09	-1.49012000E-08	 2.00000000E+00
	 2.50000000E-01	-1.49012000E-08	 2.00000000E+00
	-7.45058000E-09	-1.49012000E-08	 1.50000000E+00
	-7.45058000E-09	 2.50000000E-01	 2.00000000E+00
	 1.00000000E+00	 5.00000000E-01	 3.00000000E+00
	 1.00000000E+00	 1.00000000E+00	 3.00000000E+00
	 5.00000000E-01	 5.00000000E-01	 3.00000000E+00
	 5.00000000E-01	 1.00000000E+00	 3.00000000E+00
	 1.00000000E+00	 5.00000000E-01	 2.50000000E+00
	 1.00000000E+00	 7.50000000E-01	 3.00000000E+00
	 1.00000000E+00	 1.00000000E+00	 2.50000000E+00
	 7.50000000E-01	 5.00000000E-01	 3.00000000E+00
	 7.50000000E-01	 1.00000000E+00	 3.00000000E+00
	 5.00000000E-01	 5.00000000E-01	 2.50000000E+00
	 5.00000000E-01	 7.50000000E-01	 3.00000000E+00
	 5.00000000E-01	 1.00000000E+00	 2.50000000E+00
	 1.00000000E+00	-1.49012000E-08	 3.00000000E+00
	 5.00000000E-01	-1.49012000E-08	 3.00000000E+00
	 1.00000000E+00	-1.49012000E-08	 2.50000000E+00
	 1.00000000E+00	 2.50000000E-01	 3.00000000E+00
	 7.50000000E-01	-1.49012000E-08	 3.00000000E+00
	 5.00000000E-01	-1.49012000E-08	 2.50000000E+00
	 5.00000000E-01	 2.50000000E-01	 3.00000000E+00
	-7.45058000E-09	 5.00000000E-01	 3.00000000E+00
	-7.45058000E-09	 1.00000000E+00	 3.00000000E+00
	 2.50000000E-01	 5.00000000E-01	 3.00000000E+00
	 2.50000000E-01	 1.00000000E+00	 3.00000000E+00
	-7.45058000E-09	 5.00000000E-01	 2.50000000E+00
	-7.45058000E-09	 7.50000000E-01	 3.00000000E+00
	-7.45058000E-09	 1.00000000E+00	 2.50000000E+00
	-7.45058000E-09	-1.49012000E-08	 3.00000000E+00
	 2.50000000E-01	-1.49012000E-08	 3.00000000E+00
	-7.45058000E-09	-1.49012000E-08	 2.50000000E+00
	-7.45058000E-09	 2.50000000E-01	 3.00000000E+00
	 1.00000000E+00	 5.00000000E-01	 4.00000000E+00
	 1.00000000E+00	 1.00000000E+00	 4.00000000E+00
	 5.00000000E-01	 5.00000000E-01	 4.00000000E+00
	 5.00000000E-01	 1.00000000E+00	 4.00000000E+00
	 1.00000000E+00	 5.00000000E-01	 3.50000000E+00
	 1.00000000E+00	 7.50000000E-01	 4.00000000E+00
	 1.00000000E+00	 1.00000000E+00	 3.50000000E+00
	 7.50000000E-01	 5.00000000E-01	 4.00000000E+00
	 7.50000000E-01	 1.00000000E+00	 4.00000000E+00
	 5.00000000E-01	 5.00000000E-01	 3.50000000E+00
	 5.00000000E-01	 7.50000000E-01	 4.00000000E+00
	 5.00000000E-01	 1.00000000E+00	 3.50000000E+00
	 1.00000000E+00	-1.49012000E-08	 4.00000000E+00
	 5.00000000E-01	-1.49012000E-08	 4.00000000E+00
	 1.00000000E+00	-1.49012000E-08	 3.50000000E+00
	 1.00000000E+00	 2.50000000E-01	 4.00000000E+00
	 7.50000000E-01	-1.49012000E-08	 4.00000000E+00
	 5.00000000E-01	-1.49012000E-08	 3.50000000E+00
	 5.00000000E-01	 2.50000000E-01	 4.00000000E+00
	-7.45058000E-09	 5.00000000E-01	 4.00000000E+00
	-7.45058000E-09	 1.00000000E+00	 4.00000000E+00
	 2.50000000E-01	 5.00000000E-01	 4.00000000E+00
	 2.50000000E-01	 1.00000000E+00	 4.00000000E+00
	-7.45058000E-09	 5.00000000E-01	 3.50000000E+00
	-7.45058000E-09	 7.50000000E-01	 4.00000000E+00
	-7.45058000E-09	 1.00000000E+00	 3.50000000E+00
	-7.45058000E-09	-1.49012000E-08	 4.00000000E+00
	 2.50000000E-01	-1.49012000E-08	 4.00000000E+00
	-7.45058000E-09	-1.49012000E-08	 3.50000000E+00
	-7.45058000E-09	 2.50000000E-01	 4.00000000E+00
	 1.00000000E+00	 5.00000000E-01	 5.00000000E+00
	 1.00000000E+00	 1.00000000E+00	 5.00000000E+00
	 5.00000000E-01	 5.00000000E-01	 5.00000000E+00
	 5.00000000E-01	 1.00000000E+00	 5.00000000E+00
	 1.00000000E+00	 5.00000000E-01	 4.50000000E+00
	 1.00000000E+00	 7.50000000E-01	 5.00000000E+00
	 1.00000000E+00	 1.00000000E+00	 4.50000000E+00
	 7.50000000E-01	 5.00000000E-01	 5.00000000E+00
	 7.50000000E-01	 1.00000000E+00	 5.00000000E+00
	 5.00000000E-01	 5.00000000E-01	 4.50000000E+00
	 5.00000000E-01	 7.50000000E-01	 5.00000000E+00
	 5.00000000E-01	 1.00000000E+00	 4.50000000E+00
	 1.00000000E+00	-1.49012000E-08	 5.00000000E+00
	 5.00000000E-01	-1.49012000E-08	 5.00000000E+00
	 1.00000000E+00	-1.49012000E-08	 4.50000000E+00
	 1.00000000E+00	 2.50000000E-01	 5.00000000E+00
	 7.50000000E-01	-1.49012000E-08	 5.00000000E+00
	 5.00000000E-01	-1.49012000E-08	 4.50000000E+00
	 5.00000000E-01	 2.50000000E-01	 5.00000000E+00
	-7.45058000E-09	 5.00000000E-01	 5.00000000E+00
	-7.45058000E-09	 1.00000000E+00	 5.00000000E+00
	 2.50000000E-01	 5.00000000E-01	 5.00000000E+00
	 2.50000000E-01	 1.00000000E+00	 5.00000000E+00
	-7.45058000E-09	 5.00000000E-01	 4.50000000E+00
	-7.45058000E-09	 7.50000000E-01	 5.00000000E+00
	-7.45058000E-09	 1.00000000E+00	 4.50000000E+00
	-7.45058000E-09	-1.49012000E-08	 5.00000000E+00
	 2.50000000E-01	-1.49012000E-08	 5.00000000E+00
	-7.45058000E-09	-1.49012000E-08	 4.50000000E+00
	-7.45058000E-09	 2.50000000E-01	 5.00000000E+00
	 1.00000000E+00	 5.00000000E-01	 6.00000000E+00
	 1.00000000E+00	 1.00000000E+00	 6.00000000E+00
	 5.00000000E-01	 5.00000000E-01	 6.00000000E+00
	 5.00000000E-01	 1.00000000E+00	 6.00000000E+00
	 1.00000000E+00	 5.00000000E-01	 5.50000000E+00
	 1.00000000E+00	 7.50000000E-01	 6.00000000E+00
	 1.00000000E+00	 1.00000000E+00	 5.50000000E+00
	 7.50000000E-01	 5.00000000E-01	 6.00000000E+00
	 7.50000000E-01	 1.00000000E+00	 6.00000000E+00
	 5.00000000E-01	 5.00000000E-01	 5.50000000E+00
	 5.00000000E-01	 7.50000000E-01	 6.00000000E+00
	 5.00000000E-01	 1.00000000E+00	 5.50000000E+00
	 1.00000000E+00	-1.49012000E-08	 6.00000000E+00
	 5.00000000E-01	-1.49012000E-08	 6.00000000E+00
	 1.00000000E+00	-1.49012000E-08	 5.50000000E+00
	 1.00000000E+00	 2.50000000E-01	 6.00000000E+00
	 7.50000000E-01	-1.49012000E-08	 6.00000000E+00
	 5.00000000E-01	-1.49012000E-08	 5.50000000E+00
	 5.00000000E-01	 2.50000000E-01	 6.00000000E+00
	-7.45058000E-09	 5.00000000E-01	 6.00000000E+00
	-7.45058000E-09	 1.00000000E+00	 6.00000000E+00
	 2.50000000E-01	 5.00000000E-01	 6.00000000E+00
	 2.50000000E-01	 1.00000000E+00	 6.00000000E+00
	-7.45058000E-09	 5.00000000E-01	 5.50000000E+00
	-7.45058000E-09	 7.50000000E-01	 6.00000000E+00
	-7.45058000E-09	 1.00000000E+00	 5.50000000E+00
	-7.45058000E-09	-1.49012000E-08	 6.00000000E+00
	 2.50000000E-01	-1.49012000E-08	 6.00000000E+00
	-7.45058000E-09	-1.49012000E-08	 5.50000000E+00
	-7.45058000E-09	 2.50000000E-01	 6.00000000E+00
	 1.00000000E+00	 5.00000000E-01	 7.00000000E+00
[...]
POINT_DATA 522
FIELD U 1
	U 3 522 double
		 0.00000000E+00	 0.00000000E+00	 0.00000000E+00
		 0.00000000E+00	 0.00000000E+00	 0.00000000E+00
		-1.05690000E-05	 2.94439000E-03	 2.53012000E-05
		-9.25955000E-04	 2.97925000E-03	-1.39862000E-03
		 0.00000000E+00	 0.00000000E+00	 0.00000000E+00
		 0.00000000E+00	 0.00000000E+00	 0.00000000E+00
		-5.64558000E-06	 1.95496000E-03	 2.25901000E-05
		-1.05552000E-03	 2.00490000E-03	-1.43464000E-03
		 0.00000000E+00	 0.00000000E+00	 0.00000000E+00
		-4.40732000E-06	 9.95402000E-04	 1.18530000E-05
		-4.71058000E-04	 2.93314000E-03	-5.35108000E-04
		-2.83883000E-04	 1.08218000E-03	-7.75491000E-04
		 0.00000000E+00	 0.00000000E+00	 0.00000000E+00
		 0.00000000E+00	 0.00000000E+00	 0.00000000E+00
		-7.97977000E-06	 2.47460000E-03	 2.34448000E-05
		-9.91130000E-04	 2.52043000E-03	-1.52180000E-03
		 0.00000000E+00	 0.00000000E+00	 0.00000000E+00
		-6.88699000E-07	 5.69334000E-04	 9.89850000E-06
		-5.29743000E-04	 1.94975000E-03	-6.56236000E-04
		-5.18933000E-04	 6.81978000E-04	-7.63681000E-04
		 0.00000000E+00	 0.00000000E+00	 0.00000000E+00
		 9.05912000E-04	 2.99733000E-03	 1.44929000E-03
		 0.00000000E+00	 0.00000000E+00	 0.00000000E+00
		 1.04639000E-03	 2.02174000E-03	 1.47975000E-03
		 0.00000000E+00	 0.00000000E+00	 0.00000000E+00
		 2.75630000E-04	 1.09423000E-03	 8.01377000E-04
		 4.50216000E-04	 2.94177000E-03	 5.85687000E-04
		 0.00000000E+00	 0.00000000E+00	 0.00000000E+00
		 9.76773000E-04	 2.53861000E-03	 1.56842000E-03
		 0.00000000E+00	 0.00000000E+00	 0.00000000E+00
		 5.19097000E-04	 6.92817000E-04	 7.85073000E-04
		 5.19169000E-04	 1.95820000E-03	 7.01161000E-04
		 0.00000000E+00	 0.00000000E+00	 0.00000000E+00
		 0.00000000E+00	 0.00000000E+00	 0.00000000E+00
		-7.06226000E-07	 8.42460000E-04	 2.05500000E-05
		-1.17501000E-03	 8.90149000E-04	-1.40387000E-03
		 0.00000000E+00	 0.00000000E+00	 0.00000000E+00
		 0.00000000E+00	 0.00000000E+00	 0.00000000E+00
		-3.39016000E-06	 1.42566000E-03	 2.16621000E-05
		-1.11374000E-03	 1.47264000E-03	-1.33416000E-03
		 0.00000000E+00	 0.00000000E+00	 0.00000000E+00
		 3.02364000E-06	-4.29153000E-05	 9.69671000E-06
		-5.89117000E-04	 8.38553000E-04	-7.29882000E-04
		-7.14184000E-04	 8.58265000E-05	-7.78630000E-04
		 0.00000000E+00	 0.00000000E+00	 0.00000000E+00
		 1.17659000E-03	 9.03011000E-04	 1.44504000E-03
		 0.00000000E+00	 0.00000000E+00	 0.00000000E+00
		 1.10979000E-03	 1.48756000E-03	 1.37766000E-03
		 0.00000000E+00	 0.00000000E+00	 0.00000000E+00
		 7.22439000E-04	 9.41351000E-05	 7.98703000E-04
		 5.88454000E-04	 8.44876000E-04	 7.70657000E-04
		-2.94847000E-05	 7.79251000E-03	 4.85799000E-05
		-2.07910000E-03	 7.75124000E-03	-1.55206000E-03
		-1.98821000E-05	 5.79599000E-03	 4.86211000E-05
		-1.98121000E-03	 5.74410000E-03	-1.56645000E-03
		-2.06710000E-05	 5.38304000E-03	 3.65673000E-05
		-1.04996000E-03	 7.78796000E-03	-6.62060000E-04
		-1.55234000E-03	 5.40054000E-03	-1.64643000E-03
		-2.46787000E-05	 6.78203000E-03	 4.90586000E-05
		-2.03048000E-03	 6.73018000E-03	-1.61929000E-03
		-1.36752000E-05	 3.85012000E-03	 3.45847000E-05
		-1.00175000E-03	 5.78658000E-03	-7.28118000E-04
		-1.55963000E-03	 3.85687000E-03	-1.67423000E-03
		 2.02083000E-03	 7.77688000E-03	 1.64822000E-03
		 1.94196000E-03	 5.76867000E-03	 1.66286000E-03
		 1.51140000E-03	 5.42343000E-03	 1.71900000E-03
		 9.91156000E-04	 7.80031000E-03	 7.58712000E-04
		 1.98191000E-03	 6.75568000E-03	 1.71664000E-03
		 1.53363000E-03	 3.87909000E-03	 1.74340000E-03
		 9.62152000E-04	 5.79883000E-03	 8.25075000E-04
		-1.06411000E-05	 3.86968000E-03	 4.95793000E-05
		-1.89621000E-03	 3.81691000E-03	-1.55125000E-03
		-1.51804000E-05	 4.81862000E-03	 4.85321000E-05
		-1.93944000E-03	 4.76733000E-03	-1.51896000E-03
		-6.76643000E-06	 2.29005000E-03	 3.36621000E-05
		-9.54098000E-04	 3.85779000E-03	-7.62218000E-04
		-1.58527000E-03	 2.29083000E-03	-1.64919000E-03
		 1.87488000E-03	 3.84116000E-03	 1.64964000E-03
		 1.90921000E-03	 4.79132000E-03	 1.61541000E-03
		 1.57361000E-03	 2.31119000E-03	 1.71725000E-03
		 9.32860000E-04	 3.87035000E-03	 8.61012000E-04
		-4.12073000E-05	 1.08795000E-02	 8.32971000E-05
		-2.70517000E-03	 1.08407000E-02	-8.26881000E-04
		-2.71796000E-05	 8.25733000E-03	 8.08641000E-05
		-2.61937000E-03	 8.21357000E-03	-8.13492000E-04
		-3.48992000E-05	 9.66157000E-03	 6.48196000E-05
		-1.37107000E-03	 1.08710000E-02	-3.80674000E-04
		-2.45449000E-03	 9.61935000E-03	-1.18160000E-03
		-3.44310000E-05	 9.55926000E-03	 8.20064000E-05
		-2.66227000E-03	 9.51578000E-03	-8.45440000E-04
		-2.29368000E-05	 7.30706000E-03	 6.45321000E-05
		-1.32367000E-03	 8.24720000E-03	-4.02582000E-04
		-2.32839000E-03	 7.25456000E-03	-1.18072000E-03
		 2.62730000E-03	 1.08684000E-02	 9.92393000E-04
		 2.56674000E-03	 8.23541000E-03	 9.74008000E-04
		 2.38714000E-03	 9.64616000E-03	 1.30973000E-03
		 1.28984000E-03	 1.08846000E-02	 5.46813000E-04
		 2.59716000E-03	 9.53987000E-03	 1.00860000E-03
		 2.28337000E-03	 7.27742000E-03	 1.30794000E-03
		 1.26981000E-03	 8.25736000E-03	 5.63939000E-04
		-1.39209000E-05	 5.69380000E-03	 7.93430000E-05
		-2.53897000E-03	 5.65338000E-03	-8.30894000E-04
		-2.00412000E-05	 6.96626000E-03	 8.00063000E-05
		-2.57900000E-03	 6.92283000E-03	-7.75437000E-04
		-1.18652000E-05	 5.05022000E-03	 6.51366000E-05
		-1.27842000E-03	 5.68431000E-03	-4.56827000E-04
		-2.21085000E-03	 5.00265000E-03	-1.18177000E-03
		 2.50995000E-03	 5.67533000E-03	 9.88254000E-04
		 2.53866000E-03	 6.94403000E-03	 9.34016000E-04
		 2.18611000E-03	 5.02529000E-03	 1.30982000E-03
		 1.25026000E-03	 5.69514000E-03	 6.15077000E-04
		-5.58697000E-05	 1.24735000E-02	 1.12675000E-04
		-2.91236000E-03	 1.25255000E-02	-1.06125000E-03
		-4.16162000E-05	 9.53179000E-03	 1.13208000E-04
		-3.05245000E-03	 9.59230000E-03	-1.04287000E-03
		-4.91155000E-05	 1.16300000E-02	 9.98664000E-05
		-1.48728000E-03	 1.24778000E-02	-4.95210000E-04
		-2.82665000E-03	 1.16385000E-02	-7.76098000E-04
		-4.96124000E-05	 1.10219000E-02	 1.13008000E-04
		-2.98302000E-03	 1.10814000E-02	-1.06753000E-03
		-3.45783000E-05	 8.83285000E-03	 9.73686000E-05
		-1.54676000E-03	 9.54029000E-03	-5.03700000E-04
		-2.85050000E-03	 8.84164000E-03	-7.53625000E-04
		 2.80433000E-03	 1.25548000E-02	 1.28690000E-03
		 2.97057000E-03	 9.61923000E-03	 1.26962000E-03
		 2.73296000E-03	 1.16660000E-02	 9.75910000E-04
		 1.37667000E-03	 1.24930000E-02	 7.20864000E-04
		 2.88707000E-03	 1.11086000E-02	 1.29370000E-03
		 2.78309000E-03	 8.86471000E-03	 9.48344000E-04
		 1.46434000E-03	 9.55326000E-03	 7.30280000E-04
		-2.45623000E-05	 6.45090000E-03	 1.12267000E-04
		-3.18674000E-03	 6.50565000E-03	-1.06115000E-03
		-3.29642000E-05	 8.01131000E-03	 1.12982000E-04
		-3.11927000E-03	 8.07033000E-03	-1.01272000E-03
		-1.88463000E-05	 5.99686000E-03	 9.49938000E-05
		-1.60367000E-03	 6.45741000E-03	-5.49703000E-04
		-2.87684000E-03	 6.00310000E-03	-7.80815000E-04
		 3.13586000E-03	 6.53619000E-03	 1.28600000E-03
		 3.05282000E-03	 8.09861000E-03	 1.23901000E-03
		 2.83763000E-03	 6.02823000E-03	 9.70696000E-04
		 1.55423000E-03	 6.47221000E-03	 7.74423000E-04
		-7.22556000E-05	 1.65690000E-02	 1.21777000E-04
		-3.47499000E-03	 1.66330000E-02	-2.35963000E-03
		-5.84811000E-05	 1.30675000E-02	 1.30628000E-04
		-3.64591000E-03	 1.31358000E-02	-2.36194000E-03
		-6.19072000E-05	 1.40302000E-02	 1.20764000E-04
		-1.77596000E-03	 1.65755000E-02	-1.02746000E-03
		-3.11048000E-03	 1.40865000E-02	-1.68124000E-03
		-6.56421000E-05	 1.48421000E-02	 1.26247000E-04
		-3.56070000E-03	 1.49104000E-02	-2.42502000E-03
		-4.82803000E-05	 1.08662000E-02	 1.25203000E-04
		-1.85167000E-03	 1.30752000E-02	-1.08627000E-03
		-3.30630000E-03	 1.09365000E-02	-1.67235000E-03
		 3.32887000E-03	 1.66734000E-02	 2.60261000E-03
		 3.52771000E-03	 1.31804000E-02	 2.62306000E-03
		 2.98835000E-03	 1.41197000E-02	 1.92259000E-03
		 1.63121000E-03	 1.65952000E-02	 1.27137000E-03
		 3.42813000E-03	 1.49536000E-02	 2.67644000E-03
		 3.21024000E-03	 1.09702000E-02	 1.92294000E-03
		 1.73469000E-03	 1.30973000E-02	 1.34759000E-03
		-4.18583000E-05	 9.39508000E-03	 1.37849000E-04
		-3.81366000E-03	 9.45545000E-03	-2.34231000E-03
		-5.07132000E-05	 1.12554000E-02	 1.34558000E-04
		-3.73005000E-03	 1.13213000E-02	-2.30481000E-03
		-3.16973000E-05	 7.51383000E-03	 1.27271000E-04
		-1.92562000E-03	 9.39965000E-03	-1.12159000E-03
		-3.48664000E-03	 7.58076000E-03	-1.67359000E-03
		 3.72874000E-03	 9.50402000E-03	 2.61851000E-03
		 3.62739000E-03	 1.13676000E-02	 2.57451000E-03
		 3.42229000E-03	 7.61786000E-03	 1.92875000E-03
		 1.84183000E-03	 9.42407000E-03	 1.39738000E-03
		-9.52501000E-05	 2.35202000E-02	 1.07601000E-04
		-4.29798000E-03	 2.35009000E-02	-2.98241000E-03
		-7.60929000E-05	 1.93308000E-02	 1.27034000E-04
		-4.26898000E-03	 1.92991000E-02	-2.97780000E-03
		-8.51691000E-05	 1.99251000E-02	 1.15136000E-04
		-2.19306000E-03	 2.35139000E-02	-1.36786000E-03
		-3.93060000E-03	 1.99502000E-02	-2.81218000E-03
		-8.55068000E-05	 2.14255000E-02	 1.17272000E-04
		-4.28354000E-03	 2.13956000E-02	-3.01912000E-03
		-6.94720000E-05	 1.60401000E-02	 1.30122000E-04
		-2.17323000E-03	 1.93182000E-02	-1.39279000E-03
		-4.00111000E-03	 1.60576000E-02	-2.81795000E-03
		 4.10655000E-03	 2.35596000E-02	 3.19536000E-03
		 4.11584000E-03	 1.93593000E-02	 3.22911000E-03
		 3.75775000E-03	 2.00009000E-02	 3.04132000E-03
		 2.00218000E-03	 2.35425000E-02	 1.58195000E-03
		 4.11168000E-03	 2.14554000E-02	 3.25172000E-03
		 3.86012000E-03	 1.61131000E-02	 3.07727000E-03
		 2.02078000E-03	 1.93482000E-02	 1.64602000E-03
		-5.65364000E-05	 1.51340000E-02	 1.49334000E-04
		-4.25394000E-03	 1.50988000E-02	-2.94080000E-03
		-6.65183000E-05	 1.72302000E-02	 1.37589000E-04
		-4.26253000E-03	 1.71984000E-02	-2.93944000E-03
		-5.19106000E-05	 1.20636000E-02	 1.45413000E-04
		-2.15469000E-03	 1.51181000E-02	-1.38544000E-03
		-4.08115000E-03	 1.20726000E-02	-2.78089000E-03
		 4.13991000E-03	 1.51606000E-02	 3.23614000E-03
		 4.12837000E-03	 1.72590000E-02	 3.21143000E-03
		 3.97530000E-03	 1.21324000E-02	 3.07109000E-03
		 2.04158000E-03	 1.51495000E-02	 1.68317000E-03
		-1.11412000E-04	 2.97024000E-02	 1.02662000E-04
		-4.44898000E-03	 2.96601000E-02	-2.70155000E-03
		-8.82046000E-05	 2.53887000E-02	 1.23114000E-04
		-4.38094000E-03	 2.53432000E-02	-2.68292000E-03
		-1.03962000E-04	 2.68306000E-02	 1.04806000E-04
		-2.27830000E-03	 2.96885000E-02	-1.32660000E-03
		-4.46986000E-03	 2.68019000E-02	-2.87552000E-03
		-1.00516000E-04	 2.75415000E-02	 1.12520000E-04
		-4.41522000E-03	 2.74954000E-02	-2.67439000E-03
		-8.11340000E-05	 2.24992000E-02	 1.24520000E-04
		-2.23415000E-03	 2.53732000E-02	-1.29195000E-03
		-4.39240000E-03	 2.24573000E-02	-2.86087000E-03
		 4.22869000E-03	 2.97149000E-02	 2.90981000E-03
		 4.20827000E-03	 2.53941000E-02	 2.93147000E-03
		 4.26382000E-03	 2.68609000E-02	 3.08296000E-03
		 2.05621000E-03	 2.97150000E-02	 1.53360000E-03
		 4.21715000E-03	 2.75480000E-02	 2.90203000E-03
		 4.23146000E-03	 2.25130000E-02	 3.10696000E-03
		 2.05901000E-03	 2.53976000E-02	 1.53932000E-03
		-6.50838000E-05	 2.11095000E-02	 1.39878000E-04
		-4.32052000E-03	 2.10664000E-02	-2.67533000E-03
		-7.58437000E-05	 2.32422000E-02	 1.32181000E-04
		-4.34979000E-03	 2.31981000E-02	-2.68975000E-03
		-5.85267000E-05	 1.82025000E-02	 1.46969000E-04
		-2.19302000E-03	 2.10948000E-02	-1.26947000E-03
		-4.33513000E-03	 1.81570000E-02	-2.83582000E-03
		 4.19441000E-03	 2.11124000E-02	 2.95672000E-03
		 4.20257000E-03	 2.32472000E-02	 2.95517000E-03
		 4.21856000E-03	 1.82113000E-02	 3.12591000E-03
		 2.06389000E-03	 2.11157000E-02	 1.55075000E-03
		-1.06579000E-04	 3.49230000E-02	 9.08264000E-05
		-4.27797000E-03	 3.48750000E-02	-2.59753000E-03
		-1.03019000E-04	 3.07680000E-02	 1.15200000E-04
		-4.27483000E-03	 3.07278000E-02	-2.59054000E-03
		-1.12335000E-04	 3.23001000E-02	 9.70242000E-05
		-2.19524000E-03	 3.48959000E-02	-1.26446000E-03
		-4.33870000E-03	 3.22609000E-02	-2.61546000E-03
		-1.03309000E-04	 3.28419000E-02	 1.05147000E-04
		-4.27555000E-03	 3.27990000E-02	-2.58272000E-03
		-9.56994000E-05	 2.80833000E-02	 1.20846000E-04
		-2.19390000E-03	 3.07443000E-02	-1.24283000E-03
		-4.30373000E-03	 2.80467000E-02	-2.60103000E-03
		 4.05702000E-03	 3.49418000E-02	 2.79393000E-03
		 4.07535000E-03	 3.08028000E-02	 2.83678000E-03
		 4.11074000E-03	 3.23140000E-02	 2.82156000E-03
		 1.98060000E-03	 3.49322000E-02	 1.45049000E-03
		 4.06685000E-03	 3.28728000E-02	 2.80776000E-03
		 4.11780000E-03	 2.81024000E-02	 2.85431000E-03
		 1.99046000E-03	 3.07852000E-02	 1.47761000E-03
		-9.81579000E-05	 2.66129000E-02	 1.20857000E-04
		-4.26482000E-03	 2.65908000E-02	-2.60783000E-03
		-1.02635000E-04	 2.86965000E-02	 1.20149000E-04
		-4.27074000E-03	 2.86624000E-02	-2.60452000E-03
		-7.82741000E-05	 2.38780000E-02	 1.30356000E-04
		-2.18610000E-03	 2.66000000E-02	-1.24427000E-03
		-4.27247000E-03	 2.38517000E-02	-2.61094000E-03
		 4.08806000E-03	 2.66459000E-02	 2.86634000E-03
		 4.08075000E-03	 2.87314000E-02	 2.86059000E-03
		 4.12899000E-03	 2.38937000E-02	 2.88274000E-03
		 1.99512000E-03	 2.66279000E-02	 1.49140000E-03
		 0.00000000E+00	 0.00000000E+00	 0.00000000E+00
		 0.00000000E+00	 0.00000000E+00	 0.00000000E+00
		-1.72365000E-05	-5.57269000E-03	 2.65075000E-05
		-9.21074000E-04	-5.80018000E-03	 4.71911000E-03
		 0.00000000E+00	 0.00000000E+00	 0.00000000E+00
		 0.00000000E+00	 0.00000000E+00	 0.00000000E+00
		-1.09902000E-05	-6.23279000E-03	 4.39781000E-06
		-4.38939000E-04	-6.48317000E-03	 4.78822000E-03
		 0.00000000E+00	 0.00000000E+00	 0.00000000E+00
		-4.65883000E-06	-1.32998000E-03	 1.63099000E-05
		-4.68923000E-04	-5.58900000E-03	 2.27019000E-03
		-9.13982000E-04	-1.73659000E-03	 2.56877000E-03
		 0.00000000E+00	 0.00000000E+00	 0.00000000E+00
		 0.00000000E+00	 0.00000000E+00	 0.00000000E+00
		-1.32658000E-05	-5.99380000E-03	 1.44719000E-05
		-6.75032000E-04	-6.23342000E-03	 4.73150000E-03
		 0.00000000E+00	 0.00000000E+00	 0.00000000E+00
		-8.33303000E-07	-1.83840000E-03	 5.98758000E-06
		-2.26103000E-04	-6.25525000E-03	 2.26466000E-03
		-2.00240000E-04	-2.24721000E-03	 2.50749000E-03
		 0.00000000E+00	 0.00000000E+00	 0.00000000E+00
		 8.87181000E-04	-5.73317000E-03	-4.67377000E-03
		 0.00000000E+00	 0.00000000E+00	 0.00000000E+00
		 4.21287000E-04	-6.41841000E-03	-4.78787000E-03
		 0.00000000E+00	 0.00000000E+00	 0.00000000E+00
		 9.05518000E-04	-1.70077000E-03	-2.53768000E-03
		 4.34352000E-04	-5.55655000E-03	-2.21936000E-03
		 0.00000000E+00	 0.00000000E+00	 0.00000000E+00
		 6.50680000E-04	-6.16630000E-03	-4.71087000E-03
		 0.00000000E+00	 0.00000000E+00	 0.00000000E+00
		 2.02196000E-04	-2.21725000E-03	-2.49706000E-03
		 2.03856000E-04	-6.22411000E-03	-2.25907000E-03
		 0.00000000E+00	 0.00000000E+00	 0.00000000E+00
		 0.00000000E+00	 0.00000000E+00	 0.00000000E+00
		-7.44867000E-06	-6.43146000E-03	-1.16285000E-05
		 4.75853000E-05	-6.64788000E-03	 4.68332000E-03
		 0.00000000E+00	 0.00000000E+00	 0.00000000E+00
		 0.00000000E+00	 0.00000000E+00	 0.00000000E+00
		-8.91280000E-06	-6.42266000E-03	-5.08429000E-06
		-1.99219000E-04	-6.65346000E-03	 4.79768000E-03
		 0.00000000E+00	 0.00000000E+00	 0.00000000E+00
		 4.58946000E-07	-1.73117000E-03	 1.65708000E-06
		 1.80007000E-05	-6.44146000E-03	 2.14784000E-03
		 5.26255000E-04	-2.11675000E-03	 2.55388000E-03
		 0.00000000E+00	 0.00000000E+00	 0.00000000E+00
		-5.86588000E-05	-6.58999000E-03	-4.71299000E-03
		 0.00000000E+00	 0.00000000E+00	 0.00000000E+00
		 1.84965000E-04	-6.59637000E-03	-4.81534000E-03
		 0.00000000E+00	 0.00000000E+00	 0.00000000E+00
		-5.22396000E-04	-2.09084000E-03	-2.55382000E-03
		-3.14913000E-05	-6.41546000E-03	-2.17333000E-03
		-7.02168000E-05	-1.82809000E-02	 3.56977000E-06
		-1.11994000E-03	-1.83208000E-02	 6.31109000E-03
		-5.99232000E-05	-1.93570000E-02	-3.98855000E-05
		-1.14962000E-03	-1.93843000E-02	 6.31745000E-03
		-3.94239000E-05	-1.15535000E-02	 2.05170000E-05
		-5.99441000E-04	-1.83149000E-02	 3.08874000E-03
		-9.91066000E-04	-1.17376000E-02	 5.94507000E-03
		-6.54802000E-05	-1.88072000E-02	-1.99633000E-05
		-1.13421000E-03	-1.88345000E-02	 6.28679000E-03
		-3.25382000E-05	-1.23950000E-02	-1.41248000E-05
		-5.98372000E-04	-1.93843000E-02	 3.04183000E-03
		-7.52406000E-04	-1.25687000E-02	 5.97349000E-03
		 9.82898000E-04	-1.82198000E-02	-6.30586000E-03
		 1.02476000E-03	-1.92909000E-02	-6.39673000E-03
		 9.13363000E-04	-1.16462000E-02	-5.91159000E-03
		 4.59638000E-04	-1.82658000E-02	-3.08295000E-03
		 1.00472000E-03	-1.87425000E-02	-6.32545000E-03
		 6.89409000E-04	-1.24822000E-02	-6.00818000E-03
		 4.81913000E-04	-1.93404000E-02	-3.11906000E-03
		-5.51807000E-05	-2.04555000E-02	-8.11512000E-05
		-1.14980000E-03	-2.04642000E-02	 6.22569000E-03
		-5.75459000E-05	-1.98906000E-02	-5.86354000E-05
		-1.14839000E-03	-1.99415000E-02	 6.35711000E-03
		-2.79382000E-05	-1.29973000E-02	-4.39093000E-05
		-6.07934000E-04	-2.04687000E-02	 2.89680000E-03
		-5.00742000E-04	-1.31587000E-02	 5.88235000E-03
		 1.06183000E-03	-2.03887000E-02	-6.38794000E-03
		 1.04271000E-03	-1.98274000E-02	-6.47633000E-03
		 4.57288000E-04	-1.30864000E-02	-5.97386000E-03
		 5.03543000E-04	-2.04349000E-02	-3.05566000E-03
		-1.24501000E-04	-2.99429000E-02	-2.74500000E-05
		-1.83252000E-03	-2.97778000E-02	 4.86727000E-03
		-1.10858000E-04	-3.17870000E-02	-5.47778000E-05
		-2.12771000E-03	-3.17227000E-02	 4.85171000E-03
		-9.93108000E-05	-2.46347000E-02	-1.40265000E-05
		-9.77149000E-04	-2.99031000E-02	 2.46562000E-03
		-1.40144000E-03	-2.45924000E-02	 5.82485000E-03
		-1.17250000E-04	-3.08273000E-02	-3.74504000E-05
		-1.98338000E-03	-3.07218000E-02	 4.77995000E-03
		-8.88299000E-05	-2.60500000E-02	-5.68469000E-05
		-1.14237000E-03	-3.18032000E-02	 2.35328000E-03
		-1.60996000E-03	-2.60054000E-02	 5.81820000E-03
		 1.54391000E-03	-2.97599000E-02	-4.90287000E-03
		 1.89940000E-03	-3.16069000E-02	-4.97524000E-03
		 1.19553000E-03	-2.45129000E-02	-5.84924000E-03
		 7.14902000E-04	-2.98954000E-02	-2.50805000E-03
		 1.71940000E-03	-3.06356000E-02	-4.86400000E-03
		 1.43174000E-03	-2.59088000E-02	-5.92887000E-03
		 8.95717000E-04	-3.17472000E-02	-2.48194000E-03
		-1.00235000E-04	-3.39543000E-02	-8.66311000E-05
		-2.51402000E-03	-3.40196000E-02	 4.80620000E-03
		-1.05058000E-04	-3.28425000E-02	-7.23252000E-05
		-2.32318000E-03	-3.27109000E-02	 4.92839000E-03
		-7.08132000E-05	-2.76702000E-02	-1.00336000E-04
		-1.27214000E-03	-3.40394000E-02	 2.20989000E-03
		-1.83662000E-03	-2.76585000E-02	 5.74152000E-03
		 2.26395000E-03	-3.38022000E-02	-5.01971000E-03
		 2.08104000E-03	-3.26555000E-02	-5.08703000E-03
		 1.65201000E-03	-2.75268000E-02	-5.94180000E-03
		 1.07211000E-03	-3.39352000E-02	-2.42739000E-03
		-8.14151000E-05	-3.63311000E-02	-4.60588000E-05
		-2.90336000E-03	-3.60588000E-02	 2.41602000E-03
		-7.16995000E-05	-3.93753000E-02	-3.47756000E-06
		-3.36480000E-03	-3.95698000E-02	 2.44572000E-03
		-1.53015000E-04	-3.38094000E-02	-3.47872000E-05
		-1.49031000E-03	-3.62388000E-02	 1.28031000E-03
		-2.38547000E-03	-3.36811000E-02	 3.64469000E-03
		-7.70530000E-05	-3.77735000E-02	-2.46425000E-05
		-3.12577000E-03	-3.76820000E-02	 2.36435000E-03
		-1.46012000E-04	-3.62706000E-02	-7.81857000E-05
		-1.59463000E-03	-3.95023000E-02	 1.25169000E-03
		-2.79998000E-03	-3.60842000E-02	 3.67813000E-03
		 2.56991000E-03	-3.61489000E-02	-2.50806000E-03
		 2.92156000E-03	-3.90387000E-02	-2.45189000E-03
		 2.05238000E-03	-3.36242000E-02	-3.71003000E-03
		 1.24197000E-03	-3.62893000E-02	-1.37157000E-03
		 2.74780000E-03	-3.75464000E-02	-2.41409000E-03
		 2.43655000E-03	-3.60355000E-02	-3.72842000E-03
		 1.41394000E-03	-3.92292000E-02	-1.25852000E-03
		-1.92614000E-04	-4.28039000E-02	 3.45813000E-05
		-3.69075000E-03	-4.33678000E-02	 2.49736000E-03
		-1.30972000E-04	-4.10075000E-02	 1.61938000E-05
		-3.52796000E-03	-4.19081000E-02	 2.51905000E-03
		-1.57359000E-04	-3.91012000E-02	-1.51065000E-04
		-2.05898000E-03	-4.31006000E-02	 1.24691000E-03
		-3.05047000E-03	-3.88089000E-02	 3.66214000E-03
		 3.30271000E-03	-4.23050000E-02	-2.42633000E-03