<?xml version="1.0"?>
<VTKFile type="UnstructuredGrid" version="0.1" byte_order="LittleEndian">
	<UnstructuredGrid>
		<Piece NumberOfPoints="522" NumberOfCells="64">
			<Points>
				<DataArray type="Float64" NumberOfComponents="3" format="ascii">
					 1.00000000E+00	 1.00000000E+00	-5.96046000E-08
					 1.00000000E+00	 5.00000000E-01	-5.96046000E-08
					 1.00000000E+00	 5.00000000E-01	 1.00000000E+00
					 1.00000000E+00	 1.00000000E+00	 1.00000000E+00
					 5.00000000E-01	 1.00000000E+00	-5.96046000E-08
					 5.00000000E-01	 5.00000000E-01	-5.96046000E-08
					 5.00000000E-01	 5.00000000E-01	 1.00000000E+00
					 5.00000000E-01	 1.00000000E+00	 1.00000000E+00
					 1.00000000E+00	 7.50000000E-01	-5.96046000E-08
					 1.00000000E+00	 5.00000000E-01	 5.00000000E-01
					 1.00000000E+00	 7.50000000E-01	 1.00000000E+00
					 1.00000000E+00	 1.00000000E+00	 5.00000000E-01
					 7.50000000E-01	 1.00000000E+00	-5.96046000E-08
					 7.50000000E-01	 5.00000000E-01	-5.96046000E-08
					 7.50000000E-01	 5.00000000E-01	 1.00000000E+00
					 7.50000000E-01	 1.00000000E+00	 1.00000000E+00
					 5.00000000E-01	 7.50000000E-01	-5.96046000E-08
					 5.00000000E-01	 5.00000000E-01	 5.00000000E-01
					 5.00000000E-01	 7.50000000E-01	 1.00000000E+00
					 5.00000000E-01	 1.00000000E+00	 5.00000000E-01
					 1.00000000E+00	-1.49012000E-08	-5.96046000E-08
					 1.00000000E+00	-1.49012000E-08	 1.00000000E+00
					 5.00000000E-01	-1.49012000E-08	-5.96046000E-08
					 5.00000000E-01	-1.49012000E-08	 1.00000000E+00
					 1.00000000E+00	 2.50000000E-01	-5.96046000E-08
					 1.00000000E+00	-1.49012000E-08	 5.00000000E-01
					 1.00000000E+00	 2.50000000E-01	 1.00000000E+00
					 7.50000000E-01	-1.49012000E-08	-5.96046000E-08
					 7.50000000E-01	-1.49012000E-08	 1.00000000E+00
					 5.00000000E-01	 2.50000000E-01	-5.96046000E-08
					 5.00000000E-01	-1.49012000E-08	 5.00000000E-01
					 5.00000000E-01	 2.50000000E-01	 1.00000000E+00
					-7.45058000E-09	 1.00000000E+00	-5.96046000E-08
					-7.45058000E-09	 5.00000000E-01	-5.96046000E-08
					-7.45058000E-09	 5.00000000E-01	 1.00000000E+00
					-7.45058000E-09	 1.00000000E+00	 1.00000000E+00
					 2.50000000E-01	 1.00000000E+00	-5.96046000E-08
					 2.50000000E-01	 5.00000000E-01	-5.96046000E-08
					 2.50000000E-01	 5.00000000E-01	 1.00000000E+00
					 2.50000000E-01	 1.00000000E+00	 1.00000000E+00
					-7.45058000E-09	 7.50000000E-01	-5.96046000E-08
					-7.45058000E-09	 5.00000000E-01	 5.00000000E-01
					-7.45058000E-09	 7.50000000E-01	 1.00000000E+00
					-7.45058000E-09	 1.00000000E+00	 5.00000000E-01
					-7.45058000E-09	-1.49012000E-08	-5.96046000E-08
					-7.45058000E-09	-1.49012000E-08	 1.00000000E+00
					 2.50000000E-01	-1.49012000E-08	-5.96046000E-08
					 2.50000000E-01	-1.49012000E-08	 1.00000000E+00
					-7.45058000E-09	 2.50000000E-01	-5.96046000E-08
					-7.45058000E-09	-1.49012000E-08	 5.00000000E-01
					-7.45058000E-09	 2.50000000E-01	 1.00000000E+00
					 1.00000000E+00	 5.00000000E-01	 2.00000000E+00
					 1.00000000E+00	 1.00000000E+00	 2.00000000E+00
					 5.00000000E-01	 5.00000000E-01	 2.00000000E+00
					 5.00000000E-01	 1.00000000E+00	 2.00000000E+00
					 1.00000000E+00	 5.00000000E-01	 1.50000000E+00
					 1.00000000E+00	 7.50000000E-01	 2.00000000E+00
					 1.00000000E+00	 1.00000000E+00	 1.50000000E+00
					 7.50000000E-01	 5.00000000E-01	 2.00000000E+00
					 7.50000000E-01	 1.00000000E+00	 2.00000000E+00
					 5.00000000E-01	 5.00000000E-01	 1.50000000E+00
					 5.00000000E-01	 7.50000000E-01	 2.00000000E+00
					 5.00000000E-01	 1.00000000E+00	 1.50000000E+00
					 1.00000000E+00	-1.49012000E-08	 2.00000000E+00
					 5.00000000E-01	-1.49012000E-08	 2.00000000E+00
					 1.00000000E+00	-1.49012000E-08	 1.50000000E+00
					 1.00000000E+00	 2.50000000E-01	 2.00000000E+00
					 7.50000000E-01	-1.49012000E-08	 2.00000000E+00
					 5.00000000E-01	-1.49012000E-08	 1.50000000E+00
					 5.00000000E-01	 2.50000000E-01	 2.00000000E+00
					-7.45058000E-09	 5.00000000E-01	 2.00000000E+00
					-7.45058000E-09	 1.00000000E+00	 2.00000000E+00
					 2.50000000E-01	 5.00000000E-01	 2.00000000E+00
					 2.50000000E-01	 1.00000000E+00	 2.00000000E+00
					-7.45058000E-09	 5.00000000E-01	 1.50000000E+00
					-7.45058000E-09	 7.50000000E-01	 2.00000000E+00
					-7.45058000E-09	 1.00000000E+00	 1.50000000E+00
					-7.45058000E-09	-1.49012000E-08	 2.00000000E+00
					 2.50000000E-01	-1.49012000E-08	 2.00000000E+00
					-7.45058000E-09	-1.49012000E-08	 1.50000000E+00
					-7.45058000E-09	 2.50000000E-01	 2.00000000E+00
					 1.00000000E+00	 5.00000000E-01	 3.00000000E+00
					 1.00000000E+00	 1.00000000E+00	 3.00000000E+00
					 5.00000000E-01	 5.00000000E-01	 3.00000000E+00
					 5.00000000E-01	 1.00000000E+00	 3.00000000E+00
					 1.00000000E+00	 5.00000000E-01	 2.50000000E+00
					 1.00000000E+00	 7.50000000E-01	 3.00000000E+00
					 1.00000000E+00	 1.00000000E+00	 2.50000000E+00
					 7.50000000E-01	 5.00000000E-01	 3.00000000E+00
					 7.50000000E-01	 1.00000000E+00	 3.00000000E+00
					 5.00000000E-01	 5.00000000E-01	 2.50000000E+00
					 5.00000000E-01	 7.50000000E-01	 3.00000000E+00
					 5.00000000E-01	 1.00000000E+00	 2.50000000E+00
					 1.00000000E+00	-1.49012000E-08	 3.00000000E+00
					 5.00000000E-01	-1.49012000E-08	 3.00000000E+00
					 1.00000000E+00	-1.49012000E-08	 2.50000000E+00
					 1.00000000E+00	 2.50000000E-01	 3.00000000E+00
					 7.50000000E-01	-1.49012000E-08	 3.00000000E+00
					 5.00000000E-01	-1.49012000E-08	 2.50000000E+00
					 5.00000000E-01	 2.50000000E-01	 3.00000000E+00
					-7.45058000E-09	 5.00000000E-01	 3.00000000E+00
					-7.45058000E-09	 1.00000000E+00	 3.00000000E+00
					 2.50000000E-01	 5.00000000E-01	 3.00000000E+00
					 2.50000000E-01	 1.00000000E+00	 3.00000000E+00
					-7.45058000E-09	 5.00000000E-01	 2.50000000E+00
					-7.45058000E-09	 7.50000000E-01	 3.00000000E+00
					-7.45058000E-09	 1.00000000E+00	 2.50000000E+00
					-7.45058000E-09	-1.49012000E-08	 3.00000000E+00
					 2.50000000E-01	-1.49012000E-08	 3.00000000E+00
					-7.45058000E-09	-1.49012000E-08	 2.50000000E+00
					-7.45058000E-09	 2.50000000E-01	 3.00000000E+00
					 1.00000000E+00	 5.00000000E-01	 4.00000000E+00
					 1.00000000E+00	 1.00000000E+00	 4.00000000E+00
					 5.00000000E-01	 5.00000000E-01	 4.00000000E+00
					 5.00000000E-01	 1.00000000E+00	 4.00000000E+00
					 1.00000000E+00	 5.00000000E-01	 3.50000000E+00
					 1.00000000E+00	 7.50000000E-01	 4.00000000E+00
					 1.00000000E+00	 1.00000000E+00	 3.50000000E+00
					 7.50000000E-01	 5.00000000E-01	 4.00000000E+00
					 7.50000000E-01	 1.00000000E+00	 4.00000000E+00
					 5.00000000E-01	 5.00000000E-01	 3.50000000E+00
					 5.00000000E-01	 7.50000000E-01	 4.00000000E+00
					 5.00000000E-01	 1.00000000E+00	 3.50000000E+00
					 1.00000000E+00	-1.49012000E-08	 4.00000000E+00
					 5.00000000E-01	-1.49012000E-08	 4.00000000E+00
					 1.00000000E+00	-1.49012000E-08	 3.50000000E+00
					 1.00000000E+00	 2.50000000E-01	 4.00000000E+00
					 7.50000000E-01	-1.49012000E-08	 4.00000000E+00
					 5.00000000E-01	-1.49012000E-08	 3.50000000E+00
					 5.00000000E-01	 2.50000000E-01	 4.00000000E+00
					-7.45058000E-09	 5.00000000E-01	 4.00000000E+00
					-7.45058000E-09	 1.00000000E+00	 4.00000000E+00
					 2.50000000E-01	 5.00000000E-01	 4.00000000E+00
					 2.50000000E-01	 1.00000000E+00	 4.00000000E+00
					-7.45058000E-09	 5.00000000E-01	 3.50000000E+00
					-7.45058000E-09	 7.50000000E-01	 4.00000000E+00
					-7.45058000E-09	 1.00000000E+00	 3.50000000E+00
					-7.45058000E-09	-1.49012000E-08	 4.00000000E+00
					 2.50000000E-01	-1.49012000E-08	 4.00000000E+00
					-7.45058000E-09	-1.49012000E-08	 3.50000000E+00
					-7.45058000E-09	 2.50000000E-01	 4.00000000E+00
					 1.00000000E+00	 5.00000000E-01	 5.00000000E+00
					 1.00000000E+00	 1.00000000E+00	 5.00000000E+00
					 5.00000000E-01	 5.00000000E-01	 5.00000000E+00
					 5.00000000E-01	 1.00000000E+00	 5.00000000E+00
					 1.00000000E+00	 5.00000000E-01	 4.50000000E+00
					 1.00000000E+00	 7.50000000E-01	 5.00000000E+00
					 1.00000000E+00	 1.00000000E+00	 4.50000000E+00
					 7.50000000E-01	 5.00000000E-01	 5.00000000E+00
					 7.50000000E-01	 1.00000000E+00	 5.00000000E+00
					 5.00000000E-01	 5.00000000E-01	 4.50000000E+00
					 5.00000000E-01	 7.50000000E-01	 5.00000000E+00
					 5.00000000E-01	 1.00000000E+00	 4.50000000E+00
					 1.00000000E+00	-1.49012000E-08	 5.00000000E+00
					 5.00000000E-01	-1.49012000E-08	 5.00000000E+00
					 1.00000000E+00	-1.49012000E-08	 4.50000000E+00
					 1.00000000E+00	 2.50000000E-01	 5.00000000E+00
					 7.50000000E-01	-1.49012000E-08	 5.00000000E+00
					 5.00000000E-01	-1.49012000E-08	 4.50000000E+00
					 5.00000000E-01	 2.50000000E-01	 5.00000000E+00
					-7.45058000E-09	 5.00000000E-01	 5.00000000E+00
					-7.45058000E-09	 1.00000000E+00	 5.00000000E+00
					 2.50000000E-01	 5.00000000E-01	 5.00000000E+00
					 2.50000000E-01	 1.00000000E+00	 5.00000000E+00
					-7.45058000E-09	 5.00000000E-01	 4.50000000E+00
					-7.45058000E-09	 7.50000000E-01	 5.00000000E+00
					-7.45058000E-09	 1.00000000E+00	 4.50000000E+00
					-7.45058000E-09	-1.49012000E-08	 5.00000000E+00
					 2.50000000E-01	-1.49012000E-08	 5.00000000E+00
					-7.45058000E-09	-1.49012000E-08	 4.50000000E+00
					-7.45058000E-09	 2.50000000E-01	 5.00000000E+00
					 1.00000000E+00	 5.00000000E-01	 6.00000000E+00
					 1.00000000E+00	 1.00000000E+00	 6.00000000E+00
					 5.00000000E-01	 5.00000000E-01	 6.00000000E+00
					 5.00000000E-01	 1.00000000E+00	 6.00000000E+00
					 1.00000000E+00	 5.00000000E-01	 5.50000000E+00
					 1.00000000E+00	 7.50000000E-01	 6.00000000E+00
					 1.00000000E+00	 1.00000000E+00	 5.50000000E+00
					 7.50000000E-01	 5.00000000E-01	 6.00000000E+00
					 7.50000000E-01	 1.00000000E+00	 6.00000000E+00
					 5.00000000E-01	 5.00000000E-01	 5.50000000E+00
					 5.00000000E-01	 7.50000000E-01	 6.00000000E+00
					 5.00000000E-01	 1.00000000E+00	 5.50000000E+00
					 1.00000000E+00	-1.49012000E-08	 6.00000000E+00
[...]
			<PointData>
				<DataArray type="Float32" Name="U" NumberOfComponents="3" ComponentName0="D1" ComponentName1="D2" ComponentName2="D3" format="ascii">
					 0.00000000E+00	 0.00000000E+00	 0.00000000E+00
					 0.00000000E+00	 0.00000000E+00	 0.00000000E+00
					-1.53051000E-05	-4.98567000E-03	-2.37910000E-06
					 3.29212000E-04	-5.21769000E-03	 3.79116000E-03
					 0.00000000E+00	 0.00000000E+00	 0.00000000E+00
					 0.00000000E+00	 0.00000000E+00	 0.00000000E+00
					-1.55055000E-05	-4.39892000E-03	 2.66749000E-06
					 8.18558000E-04	-4.64333000E-03	 3.83490000E-03
					 0.00000000E+00	 0.00000000E+00	 0.00000000E+00
					-8.59956000E-06	-1.35210000E-03	 4.68646000E-06
					 1.55482000E-04	-5.01692000E-03	 1.76741000E-03
					-2.25306000E-04	-1.66932000E-03	 1.95209000E-03
					 0.00000000E+00	 0.00000000E+00	 0.00000000E+00
					 0.00000000E+00	 0.00000000E+00	 0.00000000E+00
					-1.72438000E-05	-4.77331000E-03	-1.58261000E-06
					 5.76219000E-04	-5.01297000E-03	 3.89588000E-03
					 0.00000000E+00	 0.00000000E+00	 0.00000000E+00
					-8.18705000E-06	-1.23938000E-03	 4.78414000E-06
					 3.99443000E-04	-4.43221000E-03	 1.87255000E-03
					 3.66494000E-04	-1.57026000E-03	 1.89841000E-03
					 0.00000000E+00	 0.00000000E+00	 0.00000000E+00
					-3.44278000E-04	-5.16569000E-03	-3.80300000E-03
					 0.00000000E+00	 0.00000000E+00	 0.00000000E+00
					-8.38478000E-04	-4.60821000E-03	-3.83792000E-03
					 0.00000000E+00	 0.00000000E+00	 0.00000000E+00
					 2.22535000E-04	-1.63880000E-03	-1.94148000E-03
					-1.82503000E-04	-4.98895000E-03	-1.77371000E-03
					 0.00000000E+00	 0.00000000E+00	 0.00000000E+00
					-5.93519000E-04	-4.97141000E-03	-3.90800000E-03
					 0.00000000E+00	 0.00000000E+00	 0.00000000E+00
					-3.71902000E-04	-1.55503000E-03	-1.89104000E-03
					-4.26094000E-04	-4.41673000E-03	-1.87030000E-03
					 0.00000000E+00	 0.00000000E+00	 0.00000000E+00
					 0.00000000E+00	 0.00000000E+00	 0.00000000E+00
					-8.60502000E-06	-3.32726000E-03	 1.25881000E-05
					 1.30032000E-03	-3.56301000E-03	 3.80405000E-03
					 0.00000000E+00	 0.00000000E+00	 0.00000000E+00
					 0.00000000E+00	 0.00000000E+00	 0.00000000E+00
					-1.21587000E-05	-3.94594000E-03	 8.27022000E-06
					 1.05484000E-03	-4.18138000E-03	 3.73646000E-03
					 0.00000000E+00	 0.00000000E+00	 0.00000000E+00
					-2.64804000E-06	-6.13551000E-04	 8.51652000E-06
					 6.49058000E-04	-3.35990000E-03	 1.94809000E-03
					 9.25359000E-04	-9.57068000E-04	 1.95035000E-03
					 0.00000000E+00	 0.00000000E+00	 0.00000000E+00
					-1.31319000E-03	-3.52921000E-03	-3.78574000E-03
					 0.00000000E+00	 0.00000000E+00	 0.00000000E+00
					-1.07330000E-03	-4.14788000E-03	-3.72704000E-03
					 0.00000000E+00	 0.00000000E+00	 0.00000000E+00
					-9.25657000E-04	-9.44683000E-04	-1.93937000E-03
					-6.64449000E-04	-3.34448000E-03	-1.92579000E-03
					-1.54800000E-05	-1.69804000E-02	-7.28328000E-05
					 1.33439000E-03	-1.72479000E-02	 6.82181000E-03
					-1.09538000E-05	-1.54075000E-02	-4.78973000E-05
					 1.79018000E-03	-1.56784000E-02	 6.84980000E-03
					-1.55423000E-05	-1.02545000E-02	-2.99668000E-05
					 6.60193000E-04	-1.70638000E-02	 3.30665000E-03
					 8.54128000E-04	-1.05384000E-02	 5.37493000E-03
					-1.32405000E-05	-1.62464000E-02	-6.18673000E-05
					 1.55949000E-03	-1.65154000E-02	 6.89945000E-03
					-1.35917000E-05	-9.16381000E-03	-1.63687000E-05
					 8.91752000E-04	-1.54959000E-02	 3.39875000E-03
					 1.31767000E-03	-9.43895000E-03	 5.39485000E-03
					-1.37589000E-03	-1.71477000E-02	-6.97288000E-03
					-1.81791000E-03	-1.55642000E-02	-6.94757000E-03
					-8.84471000E-04	-1.04710000E-02	-5.44279000E-03
					-6.93641000E-04	-1.70166000E-02	-3.45260000E-03
					-1.59557000E-03	-1.64049000E-02	-7.02870000E-03
					-1.34229000E-03	-9.37272000E-03	-5.43183000E-03
					-9.15103000E-04	-1.54375000E-02	-3.49449000E-03
					-3.98506000E-06	-1.33747000E-02	-1.40084000E-05
					 2.26313000E-03	-1.36382000E-02	 6.87934000E-03
					-8.24177000E-06	-1.44423000E-02	-3.12099000E-05
					 2.02964000E-03	-1.47130000E-02	 6.79987000E-03
					-7.49474000E-06	-7.59527000E-03	 5.63090000E-06
					 1.12698000E-03	-1.34576000E-02	 3.49289000E-03
					 1.79213000E-03	-7.87268000E-03	 5.41130000E-03
					-2.27006000E-03	-1.35198000E-02	-6.90790000E-03
					-2.04757000E-03	-1.45972000E-02	-6.86154000E-03
					-1.80349000E-03	-7.80389000E-03	-5.40210000E-03
					-1.13429000E-03	-1.33964000E-02	-3.52132000E-03
					-4.41281000E-06	-3.46655000E-02	-2.27774000E-04
					 2.08917000E-03	-3.49419000E-02	 9.44714000E-03
					 4.74427000E-06	-3.23919000E-02	-1.67375000E-04
					 2.43899000E-03	-3.26738000E-02	 9.53147000E-03
					-1.59288000E-05	-2.51131000E-02	-1.37079000E-04
					 1.04355000E-03	-3.47538000E-02	 4.52840000E-03
					 1.75755000E-03	-2.53920000E-02	 8.21730000E-03
					-9.43757000E-07	-3.35759000E-02	-1.98094000E-04
					 2.26522000E-03	-3.38551000E-02	 9.52518000E-03
					-9.87190000E-06	-2.31299000E-02	-9.49244000E-05
					 1.22327000E-03	-3.24813000E-02	 4.63476000E-03
					 2.18150000E-03	-2.34107000E-02	 8.27051000E-03
					-2.10341000E-03	-3.47428000E-02	-9.91087000E-03
					-2.44058000E-03	-3.24649000E-02	-9.87462000E-03
					-1.79855000E-03	-2.52451000E-02	-8.50002000E-03
					-1.05434000E-03	-3.46574000E-02	-4.98666000E-03
					-2.27351000E-03	-3.36505000E-02	-9.92954000E-03
					-2.21027000E-03	-2.32486000E-02	-8.46689000E-03
					-1.21740000E-03	-3.23795000E-02	-4.97158000E-03
					 1.65974000E-05	-2.97848000E-02	-1.00665000E-04
					 2.80602000E-03	-3.00639000E-02	 9.57096000E-03
					 1.09931000E-05	-3.11334000E-02	-1.35080000E-04
					 2.62080000E-03	-3.14168000E-02	 9.54147000E-03
					-1.37884000E-07	-2.07231000E-02	-4.52480000E-05
					 1.40952000E-03	-2.98756000E-02	 4.69786000E-03
					 2.62962000E-03	-2.09974000E-02	 8.30630000E-03
					-2.78892000E-03	-2.98321000E-02	-9.77936000E-03
					-2.61497000E-03	-3.11989000E-02	-9.81975000E-03
					-2.63773000E-03	-2.08205000E-02	-8.39977000E-03
					-1.38050000E-03	-2.97587000E-02	-4.89998000E-03
					 2.57809000E-05	-5.68598000E-02	-4.50018000E-04
					 2.52127000E-03	-5.70258000E-02	 1.06208000E-02
					 3.33797000E-05	-5.43471000E-02	-3.81551000E-04
					 2.56906000E-03	-5.45103000E-02	 1.07181000E-02
					 1.29605000E-05	-4.54239000E-02	-3.34869000E-04
					 1.27201000E-03	-5.69371000E-02	 5.00681000E-03
					 2.34259000E-03	-4.56524000E-02	 1.02741000E-02
					 3.07031000E-05	-5.56077000E-02	-4.15812000E-04
					 2.54710000E-03	-5.57714000E-02	 1.06831000E-02
					 2.14789000E-05	-4.29909000E-02	-2.66015000E-04
					 1.30118000E-03	-5.44241000E-02	 5.09974000E-03
					 2.54885000E-03	-4.32201000E-02	 1.03783000E-02
					-2.47389000E-03	-5.67571000E-02	-1.15256000E-02
					-2.50077000E-03	-5.42365000E-02	-1.14871000E-02
					-2.32138000E-03	-4.54080000E-02	-1.09486000E-02
					-1.22125000E-03	-5.68061000E-02	-5.90882000E-03
					-2.48864000E-03	-5.54978000E-02	-1.15195000E-02
					-2.51011000E-03	-4.29687000E-02	-1.09162000E-02
					-1.23412000E-03	-5.42886000E-02	-5.86506000E-03
					 4.07160000E-05	-5.17923000E-02	-3.10698000E-04
					 2.62139000E-03	-5.19505000E-02	 1.07600000E-02
					 3.61440000E-05	-5.30736000E-02	-3.46704000E-04
					 2.59373000E-03	-5.32346000E-02	 1.07604000E-02
					 3.06639000E-05	-4.03646000E-02	-1.93395000E-04
					 1.33142000E-03	-5.18651000E-02	 5.13856000E-03
					 2.76779000E-03	-4.05874000E-02	 1.04137000E-02
					-2.53334000E-03	-5.16875000E-02	-1.13879000E-02
					-2.51563000E-03	-5.29638000E-02	-1.14608000E-02
					-2.71005000E-03	-4.03323000E-02	-1.08084000E-02
					-1.24869000E-03	-5.17378000E-02	-5.76184000E-03
					 3.80254000E-05	-7.93551000E-02	-6.67676000E-04
					 2.68574000E-03	-7.94319000E-02	 9.99204000E-03
					 5.51199000E-05	-7.67824000E-02	-6.08199000E-04
					 2.58525000E-03	-7.68408000E-02	 1.00536000E-02
					 3.48501000E-05	-6.83175000E-02	-5.63339000E-04
					 1.35683000E-03	-7.94115000E-02	 4.65527000E-03
					 2.62935000E-03	-6.84357000E-02	 1.04307000E-02
					 4.52023000E-05	-7.80541000E-02	-6.38235000E-04
					 2.63325000E-03	-7.81179000E-02	 1.00232000E-02
					 4.67309000E-05	-6.57645000E-02	-4.99632000E-04
					 1.31885000E-03	-7.68296000E-02	 4.71631000E-03
					 2.57462000E-03	-6.58726000E-02	 1.05090000E-02
					-2.59225000E-03	-7.91766000E-02	-1.13270000E-02
					-2.46707000E-03	-7.66046000E-02	-1.12701000E-02
					-2.55500000E-03	-6.81702000E-02	-1.15616000E-02
					-1.27628000E-03	-7.92838000E-02	-5.99148000E-03
					-2.52767000E-03	-7.78756000E-02	-1.12978000E-02
					-2.47662000E-03	-6.56134000E-02	-1.15137000E-02
					-1.20580000E-03	-7.67146000E-02	-5.93270000E-03
					 7.16404000E-05	-7.43008000E-02	-5.47848000E-04
					 2.48133000E-03	-7.43683000E-02	 1.01104000E-02
					 6.48887000E-05	-7.55262000E-02	-5.77959000E-04
					 2.53593000E-03	-7.55858000E-02	 1.00817000E-02
					 5.80741000E-05	-6.32666000E-02	-4.32717000E-04
					 1.27949000E-03	-7.43519000E-02	 4.77539000E-03
					 2.51625000E-03	-6.33800000E-02	 1.05612000E-02
					-2.34122000E-03	-7.41309000E-02	-1.12079000E-02
					-2.40541000E-03	-7.53506000E-02	-1.12382000E-02
					-2.39691000E-03	-6.31268000E-02	-1.14319000E-02
					-1.13702000E-03	-7.42349000E-02	-5.87220000E-03
					 4.40755000E-05	-9.97902000E-02	-8.47085000E-04
					 2.62764000E-03	-9.98792000E-02	 9.19626000E-03
					 5.70993000E-05	-9.72320000E-02	-7.92067000E-04
					 2.59337000E-03	-9.73154000E-02	 9.24133000E-03
					 4.00713000E-05	-8.97794000E-02	-7.59530000E-04
					 1.33487000E-03	-9.98396000E-02	 4.19996000E-03
					 2.66498000E-03	-8.98611000E-02	 9.53687000E-03
					 4.97297000E-05	-9.85069000E-02	-8.19018000E-04
					 2.60996000E-03	-9.85924000E-02	 9.21667000E-03
					 5.62382000E-05	-8.72125000E-02	-7.03000000E-04
					 1.32393000E-03	-9.72778000E-02	 4.24806000E-03
					 2.58762000E-03	-8.72794000E-02	 9.58544000E-03
					-2.52725000E-03	-9.96559000E-02	-1.08805000E-02
					-2.47082000E-03	-9.71040000E-02	-1.08166000E-02
					-2.56452000E-03	-8.96206000E-02	-1.10534000E-02
					-1.24190000E-03	-9.97288000E-02	-5.88884000E-03
					-2.49928000E-03	-9.83764000E-02	-1.08469000E-02
					-2.46502000E-03	-8.70596000E-02	-1.09892000E-02
					-1.20610000E-03	-9.71741000E-02	-5.82921000E-03
					 7.21448000E-05	-9.47226000E-02	-7.40269000E-04
					 2.55683000E-03	-9.48037000E-02	 9.29678000E-03
					 6.48715000E-05	-9.59706000E-02	-7.65717000E-04
					 2.57557000E-03	-9.60530000E-02	 9.26049000E-03
					 7.30123000E-05	-8.47270000E-02	-6.49078000E-04
					 1.31391000E-03	-9.47672000E-02	 4.30756000E-03
					 2.50659000E-03	-8.47970000E-02	 9.64357000E-03
					-2.41012000E-03	-9.45961000E-02	-1.07692000E-02
					-2.44047000E-03	-9.58441000E-02	-1.07841000E-02
					-2.36153000E-03	-8.45788000E-02	-1.09413000E-02
					-1.16864000E-03	-9.46657000E-02	-5.78537000E-03
					 6.86679000E-05	-1.19633000E-01	-1.01649000E-03
					 2.68988000E-03	-1.19754000E-01	 8.89679000E-03
					 7.48953000E-05	-1.17018000E-01	-9.56892000E-04
					 2.67751000E-03	-1.17130000E-01	 8.96751000E-03
					 5.48427000E-05	-1.09696000E-01	-9.35770000E-04
					 1.37501000E-03	-1.19699000E-01	 3.93114000E-03
					 2.63366000E-03	-1.09795000E-01	 9.02477000E-03
					 7.08807000E-05	-1.18327000E-01	-9.85137000E-04
					 2.68497000E-03	-1.18441000E-01	 8.93866000E-03
					 6.50709000E-05	-1.07115000E-01	-8.76990000E-04
					 1.37183000E-03	-1.17076000E-01	 4.00504000E-03
					 2.62748000E-03	-1.07214000E-01	 9.07976000E-03
					-2.53159000E-03	-1.19503000E-01	-1.09349000E-02
					-2.50987000E-03	-1.16902000E-01	-1.08883000E-02
					-2.52010000E-03	-1.09569000E-01	-1.08803000E-02
					-1.23136000E-03	-1.19564000E-01	-5.97090000E-03
					-2.52115000E-03	-1.18204000E-01	-1.09110000E-02
					-2.49064000E-03	-1.06994000E-01	-1.08209000E-02
					-1.21523000E-03	-1.16957000E-01	-5.92280000E-03
					 8.55070000E-05	-1.14433000E-01	-9.01360000E-04
					 2.66843000E-03	-1.14536000E-01	 9.03325000E-03
					 7.98548000E-05	-1.15721000E-01	-9.29440000E-04
					 2.66981000E-03	-1.15829000E-01	 8.99873000E-03
					 7.79991000E-05	-1.04561000E-01	-8.22559000E-04
					 1.37431000E-03	-1.14485000E-01	 4.07129000E-03
					 2.62022000E-03	-1.04656000E-01	 9.13570000E-03
					-2.48837000E-03	-1.14319000E-01	-1.08456000E-02
					-2.49711000E-03	-1.15608000E-01	-1.08669000E-02
					-2.46115000E-03	-1.04440000E-01	-1.07701000E-02
					-1.19980000E-03	-1.14374000E-01	-5.87844000E-03
					 4.85262000E-05	-1.39374000E-01	-1.17609000E-03
					 2.69743000E-03	-1.39445000E-01	 8.61872000E-03
					 7.96620000E-05	-1.36795000E-01	-1.14834000E-03
					 2.69503000E-03	-1.36852000E-01	 8.69305000E-03
					 7.09742000E-05	-1.29535000E-01	-1.08841000E-03
					 1.36759000E-03	-1.39410000E-01	 3.73661000E-03
					 2.71933000E-03	-1.29659000E-01	 8.75044000E-03
					 6.20546000E-05	-1.38076000E-01	-1.16576000E-03
					 2.69782000E-03	-1.38131000E-01	 8.64033000E-03
					 7.95719000E-05	-1.26922000E-01	-1.04386000E-03
					 1.39485000E-03	-1.36818000E-01	 3.78302000E-03
					 2.68849000E-03	-1.27022000E-01	 8.82694000E-03
					-2.53330000E-03	-1.39285000E-01	-1.10628000E-02
					-2.51671000E-03	-1.36728000E-01	-1.10546000E-02
					-2.52565000E-03	-1.29407000E-01	-1.09854000E-02
					-1.25073000E-03	-1.39332000E-01	-6.11644000E-03
					-2.52597000E-03	-1.38006000E-01	-1.10526000E-02
					-2.50788000E-03	-1.26820000E-01	-1.09627000E-02
					-1.22720000E-03	-1.36769000E-01	-6.09802000E-03
					 1.10957000E-04	-1.34232000E-01	-1.08894000E-03
					 2.69905000E-03	-1.34308000E-01	 8.79859000E-03
					 9.65498000E-05	-1.35519000E-01	-1.12235000E-03
					 2.69586000E-03	-1.35581000E-01	 8.75173000E-03
					 9.28475000E-05	-1.24335000E-01	-9.87154000E-04
					 1.41387000E-03	-1.34267000E-01	 3.86417000E-03
					 2.67871000E-03	-1.24436000E-01	 8.91462000E-03
					-2.50320000E-03	-1.34162000E-01	-1.10340000E-02
					-2.50983000E-03	-1.35451000E-01	-1.10512000E-02
					-2.49733000E-03	-1.24236000E-01	-1.09350000E-02
					-1.20109000E-03	-1.34202000E-01	-6.06108000E-03
					 0.00000000E+00	 0.00000000E+00	 0.00000000E+00
					 0.00000000E+00	 0.00000000E+00	 0.00000000E+00
					-9.74276000E-06	-1.36861000E-02	-1.00912000E-04
					-2.69817000E-03	-1.46485000E-02	 1.32978000E-02
					 0.00000000E+00	 0.00000000E+00	 0.00000000E+00
					 0.00000000E+00	 0.00000000E+00	 0.00000000E+00
					-9.20786000E-06	-1.55083000E-02	-1.46976000E-04
					-9.98266000E-04	-1.65262000E-02	 1.34199000E-02
					 0.00000000E+00	 0.00000000E+00	 0.00000000E+00
					 4.64007000E-06	-2.87311000E-03	-8.36755000E-06
					-1.35797000E-03	-1.38647000E-02	 6.50992000E-03
					-2.44949000E-03	-4.10713000E-03	 6.86458000E-03
					 0.00000000E+00	 0.00000000E+00	 0.00000000E+00
					 0.00000000E+00	 0.00000000E+00	 0.00000000E+00
					-1.03497000E-05	-1.48884000E-02	-1.32093000E-04
					-1.83282000E-03	-1.58751000E-02	 1.32620000E-02
					 0.00000000E+00	 0.00000000E+00	 0.00000000E+00
					-6.05523000E-06	-4.21205000E-03	-3.27874000E-05
					-5.04223000E-04	-1.56974000E-02	 6.44865000E-03
					-4.42580000E-04	-5.43086000E-03	 6.66105000E-03
					 0.00000000E+00	 0.00000000E+00	 0.00000000E+00
					 2.67193000E-03	-1.42039000E-02	-1.35696000E-02
					 0.00000000E+00	 0.00000000E+00	 0.00000000E+00
					 9.94199000E-04	-1.60928000E-02	-1.37900000E-02
					 0.00000000E+00	 0.00000000E+00	 0.00000000E+00
					 2.45943000E-03	-3.92700000E-03	-6.90158000E-03
					 1.33381000E-03	-1.36369000E-02	-6.73373000E-03
					 0.00000000E+00	 0.00000000E+00	 0.00000000E+00
					 1.82405000E-03	-1.54368000E-02	-1.35984000E-02
					 0.00000000E+00	 0.00000000E+00	 0.00000000E+00
					 4.44889000E-04	-5.27838000E-03	-6.74108000E-03
					 4.89826000E-04	-1.54834000E-02	-6.76776000E-03
					 0.00000000E+00	 0.00000000E+00	 0.00000000E+00
					 0.00000000E+00	 0.00000000E+00	 0.00000000E+00
					-5.72860000E-06	-1.56790000E-02	-1.41594000E-04
					 7.17166000E-04	-1.66156000E-02	 1.32650000E-02
					 0.00000000E+00	 0.00000000E+00	 0.00000000E+00
					 0.00000000E+00	 0.00000000E+00	 0.00000000E+00
					-6.80340000E-06	-1.58834000E-02	-1.51658000E-04
					-1.54174000E-04	-1.68633000E-02	 1.34466000E-02
					 0.00000000E+00	 0.00000000E+00	 0.00000000E+00
					-1.55405000E-05	-3.75935000E-03	-2.24266000E-05
					 3.53980000E-04	-1.58366000E-02	 6.27228000E-03
					 1.60541000E-03	-4.93812000E-03	 6.85214000E-03
					 0.00000000E+00	 0.00000000E+00	 0.00000000E+00
					-6.99804000E-04	-1.61972000E-02	-1.36100000E-02
					 0.00000000E+00	 0.00000000E+00	 0.00000000E+00
					 1.55004000E-04	-1.64330000E-02	-1.38217000E-02
					 0.00000000E+00	 0.00000000E+00	 0.00000000E+00
					-1.61433000E-03	-4.78725000E-03	-6.91940000E-03
					-3.53714000E-04	-1.56369000E-02	-6.57288000E-03
					 4.08847000E-05	-5.21867000E-02	-8.47333000E-04
					-3.22876000E-03	-5.32340000E-02	 2.20951000E-02
					 4.93972000E-05	-5.49201000E-02	-9.25804000E-04
					-2.18532000E-03	-5.59829000E-02	 2.20965000E-02
					 9.48829000E-06	-3.04650000E-02	-3.74631000E-04
					-1.59519000E-03	-5.25959000E-02	 1.05157000E-02
					-3.02204000E-03	-3.15775000E-02	 1.83852000E-02
					 4.54591000E-05	-5.36629000E-02	-8.94684000E-04
					-2.70548000E-03	-5.47147000E-02	 2.20484000E-02
					 8.64096000E-06	-3.27786000E-02	-4.38374000E-04
					-1.06282000E-03	-5.53376000E-02	 1.04341000E-02
					-1.60136000E-03	-3.38911000E-02	 1.84144000E-02
					 3.30121000E-03	-5.21399000E-02	-2.38567000E-02
					 2.27505000E-03	-5.48830000E-02	-2.40111000E-02
					 3.02574000E-03	-3.08231000E-02	-1.92217000E-02
					 1.67339000E-03	-5.20611000E-02	-1.22257000E-02
					 2.78825000E-03	-5.36245000E-02	-2.39008000E-02
					 1.62273000E-03	-3.31368000E-02	-1.93747000E-02
					 1.16334000E-03	-5.48021000E-02	-1.22969000E-02
					 5.06048000E-05	-5.66461000E-02	-9.52790000E-04
					-1.13026000E-03	-5.76826000E-02	 2.19938000E-02
					 4.96368000E-05	-5.58905000E-02	-9.43639000E-04
					-1.65878000E-03	-5.69768000E-02	 2.21759000E-02
					 6.47774000E-06	-3.36914000E-02	-4.45700000E-04
					-5.43807000E-04	-5.70399000E-02	 1.02412000E-02
					-1.77477000E-04	-3.47910000E-02	 1.83208000E-02
					 1.26082000E-03	-5.66076000E-02	-2.39601000E-02
					 1.76926000E-03	-5.58471000E-02	-2.41266000E-02
					 2.23412000E-04	-3.40580000E-02	-1.92888000E-02
					 6.53667000E-04	-5.65294000E-02	-1.21562000E-02
					 2.17809000E-04	-1.04573000E-01	-2.26517000E-03
					-3.50490000E-03	-1.05504000E-01	 2.53171000E-02
					 2.29158000E-04	-1.08058000E-01	-2.31824000E-03
					-3.05162000E-03	-1.09101000E-01	 2.53070000E-02
					 1.07088000E-04	-7.73005000E-02	-1.48966000E-03
					-1.64008000E-03	-1.04982000E-01	 1.14718000E-02
					-3.40447000E-03	-7.83294000E-02	 2.42626000E-02
					 2.23511000E-04	-1.06373000E-01	-2.29127000E-03
					-3.28264000E-03	-1.07370000E-01	 2.52674000E-02
					 1.14606000E-04	-8.04543000E-02	-1.56638000E-03
					-1.43438000E-03	-1.08527000E-01	 1.13860000E-02
					-2.69774000E-03	-8.15007000E-02	 2.42594000E-02
					 3.89635000E-03	-1.04017000E-01	-2.98586000E-02
					 3.49520000E-03	-1.07504000E-01	-2.99890000E-02
					 3.60141000E-03	-7.69915000E-02	-2.72925000E-02
					 2.06144000E-03	-1.04248000E-01	-1.59996000E-02
					 3.69544000E-03	-1.05811000E-01	-2.98894000E-02
					 2.92036000E-03	-8.01280000E-02	-2.74396000E-02
					 1.86539000E-03	-1.07742000E-01	-1.60499000E-02
					 2.39096000E-04	-1.11114000E-01	-2.34927000E-03
					-2.70566000E-03	-1.12302000E-01	 2.52280000E-02
					 2.34565000E-04	-1.09654000E-01	-2.33808000E-03
					-2.88167000E-03	-1.10639000E-01	 2.53593000E-02
					 1.30328000E-04	-8.29140000E-02	-1.60698000E-03
					-1.19561000E-03	-1.11656000E-01	 1.12386000E-02
					-2.03326000E-03	-8.40076000E-02	 2.41544000E-02
					 3.12035000E-03	-1.10588000E-01	-2.99998000E-02
					 3.30568000E-03	-1.09087000E-01	-3.00834000E-02
					 2.24943000E-03	-8.25994000E-02	-2.74151000E-02
					 1.66908000E-03	-1.10822000E-01	-1.59873000E-02
					 6.25472000E-04	-1.62093000E-01	-3.99612000E-03
					-3.38620000E-03	-1.62896000E-01	 2.51223000E-02