# vtk DataFile Version 3.0

ASCII
DATASET UNSTRUCTURED_GRID

POINTS 522 double
	 1.00000000E+00	 1.00000000E+00	-5.96046000E-08
	 1.00000000E+00	 5.00000000E-01	-5.96046000E-08
	 1.00000000E+00	 5.00000000E-01	 1.00000000E+00
	 1.00000000E+00	 1.00000000E+00	 1.00000000E+00
	 5.00000000E-01	 1.00000000E+00	-5.96046000E-08
	 5.00000000E-01	 5.00000000E-01	-5.96046000E-08
	 5.00000000E-01	 5.00000000E-01	 1.00000000E+00
	 5.00000000E-01	 1.00000000E+00	 1.00000000E+00
	 1.00000000E+00	 7.50000000E-01	-5.96046000E-08
	 1.00000000E+00	 5.00000000E-01	 5.00000000E-01
	 1.00000000E+00	 7.50000000E-01	 1.00000000E+00
	 1.00000000E+00	 1.00000000E+00	 5.00000000E-01
	 7.50000000E-01	 1.00000000E+00	-5.96046000E-08
	 7.50000000E-01	 5.00000000E-01	-5.96046000E-08
	 7.50000000E-01	 5.00000000E-01	 1.00000000E+00
	 7.50000000E-01	 1.00000000E+00	 1.00000000E+00
	 5.00000000E-01	 7.50000000E-01	-5.96046000E-08
	 5.00000000E-01	 5.00000000E-01	 5.00000000E-01
	 5.00000000E-01	 7.50000000E-01	 1.00000000E+00
	 5.00000000E-01	 1.00000000E+00	 5.00000000E-01
	 1.00000000E+00	-1.49012000E-08	-5.96046000E-08
	 1.00000000E+00	-1.49012000E-08	 1.00000000E+00
	 5.00000000E-01	-1.49012000E-08	-5.96046000E-08
	 5.00000000E-01	-1.49012000E-08	 1.00000000E+00
	 1.00000000E+00	 2.50000000E-01	-5.96046000E-08
	 1.00000000E+00	-1.49012000E-08	 5.00000000E-01
	 1.00000000E+00	 2.50000000E-01	 1.00000000E+00
	 7.50000000E-01	-1.49012000E-08	-5.96046000E-08
	 7.50000000E-01	-1.49012000E-08	 1.00000000E+00
	 5.00000000E-01	 2.50000000E-01	-5.96046000E-08
	 5.00000000E-01	-1.49012000E-08	 5.00000000E-01
	 5.00000000E-01	 2.50000000E-01	 1.00000000E+00
	-7.45058000E-09	 1.00000000E+00	-5.96046000E-08
	-7.45058000E-09	 5.00000000E-01	-5.96046000E-08
	-7.45058000E-09	 5.00000000E-01	 1.00000000E+00
	-7.45058000E-09	 1.00000000E+00	 1.00000000E+00
	 2.50000000E-01	 1.00000000E+00	-5.96046000E-08
	 2.50000000E-01	 5.00000000E-01	-5.96046000E-08
	 2.50000000E-01	 5.00000000E-01	 1.00000000E+00
	 2.50000000E-01	 1.00000000E+00	 1.00000000E+00
	-7.45058000E-09	 7.50000000E-01	-5.96046000E-08
	-7.45058000E-09	 5.00000000E-01	 5.00000000E-01
	-7.45058000E-09	 7.50000000E-01	 1.00000000E+00
	-7.45058000E-09	 1.00000000E+00	 5.00000000E-01
	-7.45058000E-09	-1.49012000E-08	-5.96046000E-08
	-7.45058000E-09	-1.49012000E-08	 1.00000000E+00
	 2.50000000E-01	-1.49012000E-08	-5.96046000E-08
	 2.50000000E-01	-1.49012000E-08	 1.00000000E+00
	-7.45058000E-09	 2.50000000E-01	-5.96046000E-08
	-7.45058000E-09	-1.49012000E-08	 5.00000000E-01
	-7.45058000E-09	 2.50000000E-01	 1.00000000E+00
	 1.00000000E+00	 5.00000000E-01	 2.00000000E+00
	 1.00000000E+00	 1.00000000E+00	 2.00000000E+00
	 5.00000000E-01	 5.00000000E-01	 2.00000000E+00
	 5.00000000E-01	 1.00000000E+00	 2.00000000E+00
	 1.00000000E+00	 5.00000000E-01	 1.50000000E+00
	 1.00000000E+00	 7.50000000E-01	 2.00000000E+00
	 1.00000000E+00	 1.00000000E+00	 1.50000000E+00
	 7.50000000E-01	 5.00000000E-01	 2.00000000E+00
	 7.50000000E-01	 1.00000000E+00	 2.00000000E+00
	 5.00000000E-01	 5.00000000E-01	 1.50000000E+00
	 5.00000000E-01	 7.50000000E-01	 2.00000000E+00
	 5.00000000E-01	 1.00000000E+00	 1.50000000E+00
	 1.00000000E+00	-1.49012000E-08	 2.00000000E+00
	 5.00000000E-01	-1.49012000E-08	 2.00000000E+00
	 1.00000000E+00	-1.49012000E-08	 1.50000000E+00
	 1.00000000E+00	 2.50000000E-01	 2.00000000E+00
	 7.50000000E-01	-1.49012000E-08	 2.00000000E+00
	 5.00000000E-01	-1.49012000E-08	 1.50000000E+00
	 5.00000000E-01	 2.50000000E-01	 2.00000000E+00
	-7.45058000E-09	 5.00000000E-01	 2.00000000E+00
	-7.45058000E-09	 1.00000000E+00	 2.00000000E+00
	 2.50000000E-01	 5.00000000E-01	 2.00000000E+00
	 2.50000000E-01	 1.00000000E+00	 2.00000000E+00
	-7.45058000E-09	 5.00000000E-01	 1.50000000E+00
	-7.45058000E-09	 7.50000000E-01	 2.00000000E+00
	-7.45058000E-09	 1.00000000E+00	 1.50000000E+00
	-7.45058000E-09	-1.49012000E-08	 2.00000000E+00
	 2.50000000E-01	-1.49012000E-08	 2.00000000E+00
	-7.45058000E-09	-1.49012000E-08	 1.50000000E+00
	-7.45058000E-09	 2.50000000E-01	 2.00000000E+00
	 1.00000000E+00	 5.00000000E-01	 3.00000000E+00
	 1.00000000E+00	 1.00000000E+00	 3.00000000E+00
	 5.00000000E-01	 5.00000000E-01	 3.00000000E+00
	 5.00000000E-01	 1.00000000E+00	 3.00000000E+00
	 1.00000000E+00	 5.00000000E-01	 2.50000000E+00
	 1.00000000E+00	 7.50000000E-01	 3.00000000E+00
	 1.00000000E+00	 1.00000000E+00	 2.50000000E+00
	 7.50000000E-01	 5.00000000E-01	 3.00000000E+00
	 7.50000000E-01	 1.00000000E+00	 3.00000000E+00
	 5.00000000E-01	 5.00000000E-01	 2.50000000E+00
	 5.00000000E-01	 7.50000000E-01	 3.00000000E+00
	 5.00000000E-01	 1.00000000E+00	 2.50000000E+00
	 1.00000000E+00	-1.49012000E-08	 3.00000000E+00
	 5.00000000E-01	-1.49012000E-08	 3.00000000E+00
	 1.00000000E+00	-1.49012000E-08	 2.50000000E+00
	 1.00000000E+00	 2.50000000E-01	 3.00000000E+00
	 7.50000000E-01	-1.49012000E-08	 3.00000000E+00
	 5.00000000E-01	-1.49012000E-08	 2.50000000E+00
	 5.00000000E-01	 2.50000000E-01	 3.00000000E+00
	-7.45058000E-09	 5.00000000E-01	 3.00000000E+00
	-7.45058000E-09	 1.00000000E+00	 3.00000000E+00
	 2.50000000E-01	 5.00000000E-01	 3.00000000E+00
	 2.50000000E-01	 1.00000000E+00	 3.00000000E+00
	-7.45058000E-09	 5.00000000E-01	 2.50000000E+00
	-7.45058000E-09	 7.50000000E-01	 3.00000000E+00
	-7.45058000E-09	 1.00000000E+00	 2.50000000E+00
	-7.45058000E-09	-1.49012000E-08	 3.00000000E+00
	 2.50000000E-01	-1.49012000E-08	 3.00000000E+00
	-7.45058000E-09	-1.49012000E-08	 2.50000000E+00
	-7.45058000E-09	 2.50000000E-01	 3.00000000E+00
	 1.00000000E+00	 5.00000000E-01	 4.00000000E+00
	 1.00000000E+00	 1.00000000E+00	 4.00000000E+00
	 5.00000000E-01	 5.00000000E-01	 4.00000000E+00
	 5.00000000E-01	 1.00000000E+00	 4.00000000E+00
	 1.00000000E+00	 5.00000000E-01	 3.50000000E+00
	 1.00000000E+00	 7.50000000E-01	 4.00000000E+00
	 1.00000000E+00	 1.00000000E+00	 3.50000000E+00
	 7.50000000E-01	 5.00000000E-01	 4.00000000E+00
	 7.50000000E-01	 1.00000000E+00	 4.00000000E+00
	 5.00000000E-01	 5.00000000E-01	 3.50000000E+00
	 5.00000000E-01	 7.50000000E-01	 4.00000000E+00
	 5.00000000E-01	 1.00000000E+00	 3.50000000E+00
	 1.00000000E+00	-1.49012000E-08	 4.00000000E+00
	 5.00000000E-01	-1.49012000E-08	 4.00000000E+00
	 1.00000000E+00	-1.49012000E-08	 3.50000000E+00
	 1.00000000E+00	 2.50000000E-01	 4.00000000E+00
	 7.50000000E-01	-1.49012000E-08	 4.00000000E+00
	 5.00000000E-01	-1.49012000E-08	 3.50000000E+00
	 5.00000000E-01	 2.50000000E-01	 4.00000000E+00
	-7.45058000E-09	 5.00000000E-01	 4.00000000E+00
	-7.45058000E-09	 1.00000000E+00	 4.00000000E+00
	 2.50000000E-01	 5.00000000E-01	 4.00000000E+00
	 2.50000000E-01	 1.00000000E+00	 4.00000000E+00
	-7.45058000E-09	 5.00000000E-01	 3.50000000E+00
	-7.45058000E-09	 7.50000000E-01	 4.00000000E+00
	-7.45058000E-09	 1.00000000E+00	 3.50000000E+00
	-7.45058000E-09	-1.49012000E-08	 4.00000000E+00
	 2.50000000E-01	-1.49012000E-08	 4.00000000E+00
	-7.45058000E-09	-1.49012000E-08	 3.50000000E+00
	-7.45058000E-09	 2.50000000E-01	 4.00000000E+00
	 1.00000000E+00	 5.00000000E-01	 5.00000000E+00
	 1.00000000E+00	 1.00000000E+00	 5.00000000E+00
	 5.00000000E-01	 5.00000000E-01	 5.00000000E+00
	 5.00000000E-01	 1.00000000E+00	 5.00000000E+00
	 1.00000000E+00	 5.00000000E-01	 4.50000000E+00
	 1.00000000E+00	 7.50000000E-01	 5.00000000E+00
	 1.00000000E+00	 1.00000000E+00	 4.50000000E+00
	 7.50000000E-01	 5.00000000E-01	 5.00000000E+00
	 7.50000000E-01	 1.00000000E+00	 5.00000000E+00
	 5.00000000E-01	 5.00000000E-01	 4.50000000E+00
	 5.00000000E-01	 7.50000000E-01	 5.00000000E+00
	 5.00000000E-01	 1.00000000E+00	 4.50000000E+00
	 1.00000000E+00	-1.49012000E-08	 5.00000000E+00
	 5.00000000E-01	-1.49012000E-08	 5.00000000E+00
	 1.00000000E+00	-1.49012000E-08	 4.50000000E+00
	 1.00000000E+00	 2.50000000E-01	 5.00000000E+00
	 7.50000000E-01	-1.49012000E-08	 5.00000000E+00
	 5.00000000E-01	-1.49012000E-08	 4.50000000E+00
	 5.00000000E-01	 2.50000000E-01	 5.00000000E+00
	-7.45058000E-09	 5.00000000E-01	 5.00000000E+00
	-7.45058000E-09	 1.00000000E+00	 5.00000000E+00
	 2.50000000E-01	 5.00000000E-01	 5.00000000E+00
	 2.50000000E-01	 1.00000000E+00	 5.00000000E+00
	-7.45058000E-09	 5.00000000E-01	 4.50000000E+00
	-7.45058000E-09	 7.50000000E-01	 5.00000000E+00
	-7.45058000E-09	 1.00000000E+00	 4.50000000E+00
	-7.45058000E-09	-1.49012000E-08	 5.00000000E+00
	 2.50000000E-01	-1.49012000E-08	 5.00000000E+00
	-7.45058000E-09	-1.49012000E-08	 4.50000000E+00
	-7.45058000E-09	 2.50000000E-01	 5.00000000E+00
	 1.00000000E+00	 5.00000000E-01	 6.00000000E+00
	 1.00000000E+00	 1.00000000E+00	 6.00000000E+00
	 5.00000000E-01	 5.00000000E-01	 6.00000000E+00
	 5.00000000E-01	 1.00000000E+00	 6.00000000E+00
	 1.00000000E+00	 5.00000000E-01	 5.50000000E+00
	 1.00000000E+00	 7.50000000E-01	 6.00000000E+00
	 1.00000000E+00	 1.00000000E+00	 5.50000000E+00
	 7.50000000E-01	 5.00000000E-01	 6.00000000E+00
	 7.50000000E-01	 1.00000000E+00	 6.00000000E+00
	 5.00000000E-01	 5.00000000E-01	 5.50000000E+00
	 5.00000000E-01	 7.50000000E-01	 6.00000000E+00
	 5.00000000E-01	 1.00000000E+00	 5.50000000E+00
	 1.00000000E+00	-1.49012000E-08	 6.00000000E+00
	 5.00000000E-01	-1.49012000E-08	 6.00000000E+00
	 1.00000000E+00	-1.49012000E-08	 5.50000000E+00
	 1.00000000E+00	 2.50000000E-01	 6.00000000E+00
	 7.50000000E-01	-1.49012000E-08	 6.00000000E+00
	 5.00000000E-01	-1.49012000E-08	 5.50000000E+00
	 5.00000000E-01	 2.50000000E-01	 6.00000000E+00
	-7.45058000E-09	 5.00000000E-01	 6.00000000E+00
	-7.45058000E-09	 1.00000000E+00	 6.00000000E+00
	 2.50000000E-01	 5.00000000E-01	 6.00000000E+00
	 2.50000000E-01	 1.00000000E+00	 6.00000000E+00
	-7.45058000E-09	 5.00000000E-01	 5.50000000E+00
	-7.45058000E-09	 7.50000000E-01	 6.00000000E+00
	-7.45058000E-09	 1.00000000E+00	 5.50000000E+00
	-7.45058000E-09	-1.49012000E-08	 6.00000000E+00
	 2.50000000E-01	-1.49012000E-08	 6.00000000E+00
	-7.45058000E-09	-1.49012000E-08	 5.50000000E+00
	-7.45058000E-09	 2.50000000E-01	 6.00000000E+00
	 1.00000000E+00	 5.00000000E-01	 7.00000000E+00
[...]
POINT_DATA 522
FIELD U 1
	U 3 522 double
		 0.00000000E+00	 0.00000000E+00	 0.00000000E+00
		 0.00000000E+00	 0.00000000E+00	 0.00000000E+00
		-1.40556000E-05	 2.40264000E-03	 4.57036000E-05
		-2.20418000E-04	 2.40792000E-03	-1.20807000E-03
		 0.00000000E+00	 0.00000000E+00	 0.00000000E+00
		 0.00000000E+00	 0.00000000E+00	 0.00000000E+00
		-7.41460000E-06	 2.15789000E-03	 4.39713000E-05
		-2.88824000E-04	 2.17402000E-03	-1.24242000E-03
		 0.00000000E+00	 0.00000000E+00	 0.00000000E+00
		-1.14208000E-05	 8.22894000E-04	 2.22279000E-05
		-1.18813000E-04	 2.38460000E-03	-4.87025000E-04
		 6.10507000E-05	 9.06395000E-04	-7.43673000E-04
		 0.00000000E+00	 0.00000000E+00	 0.00000000E+00
		 0.00000000E+00	 0.00000000E+00	 0.00000000E+00
		-1.06103000E-05	 2.29825000E-03	 4.46363000E-05
		-2.55222000E-04	 2.31083000E-03	-1.26505000E-03
		 0.00000000E+00	 0.00000000E+00	 0.00000000E+00
		-4.60490000E-06	 7.75093000E-04	 1.97454000E-05
		-1.47898000E-04	 2.14439000E-03	-5.41241000E-04
		-1.30151000E-04	 8.70700000E-04	-7.39678000E-04
		 0.00000000E+00	 0.00000000E+00	 0.00000000E+00
		 1.94393000E-04	 2.42852000E-03	 1.29875000E-03
		 0.00000000E+00	 0.00000000E+00	 0.00000000E+00
		 2.76468000E-04	 2.19281000E-03	 1.32941000E-03
		 0.00000000E+00	 0.00000000E+00	 0.00000000E+00
		-8.30440000E-05	 9.24263000E-04	 7.90835000E-04
		 9.13253000E-05	 2.39503000E-03	 5.77787000E-04
		 0.00000000E+00	 0.00000000E+00	 0.00000000E+00
		 2.36291000E-04	 2.33065000E-03	 1.35351000E-03
		 0.00000000E+00	 0.00000000E+00	 0.00000000E+00
		 1.22546000E-04	 8.87316000E-04	 7.81379000E-04
		 1.33848000E-04	 2.15373000E-03	 6.28564000E-04
		 0.00000000E+00	 0.00000000E+00	 0.00000000E+00
		 0.00000000E+00	 0.00000000E+00	 0.00000000E+00
		-5.44437000E-07	 1.83762000E-03	 4.18022000E-05
		-3.48570000E-04	 1.85473000E-03	-1.21258000E-03
		 0.00000000E+00	 0.00000000E+00	 0.00000000E+00
		 0.00000000E+00	 0.00000000E+00	 0.00000000E+00
		-4.07750000E-06	 2.01688000E-03	 4.28421000E-05
		-3.17398000E-04	 2.03238000E-03	-1.20987000E-03
		 0.00000000E+00	 0.00000000E+00	 0.00000000E+00
		 2.29053000E-06	 5.70127000E-04	 1.98792000E-05
		-1.75522000E-04	 1.82632000E-03	-5.48562000E-04
		-3.09489000E-04	 6.67598000E-04	-7.46914000E-04
		 0.00000000E+00	 0.00000000E+00	 0.00000000E+00
		 3.50020000E-04	 1.86923000E-03	 1.29523000E-03
		 0.00000000E+00	 0.00000000E+00	 0.00000000E+00
		 3.11999000E-04	 2.04933000E-03	 1.29452000E-03
		 0.00000000E+00	 0.00000000E+00	 0.00000000E+00
		 3.15905000E-04	 6.82064000E-04	 7.88192000E-04
		 1.74891000E-04	 1.83313000E-03	 6.31678000E-04
		-2.75006000E-05	 5.97451000E-03	 9.09601000E-05
		-8.25093000E-04	 5.94134000E-03	-1.18513000E-03
		-1.99948000E-05	 5.20473000E-03	 8.49670000E-05
		-7.70431000E-04	 5.17144000E-03	-1.19483000E-03
		-1.82324000E-05	 4.20437000E-03	 6.91528000E-05
		-4.23991000E-04	 5.96984000E-03	-4.95340000E-04
		-5.01346000E-04	 4.20806000E-03	-1.29946000E-03
		-2.37427000E-05	 5.57958000E-03	 8.74944000E-05
		-7.97127000E-04	 5.54487000E-03	-1.23404000E-03
		-1.12276000E-05	 3.72257000E-03	 6.46149000E-05
		-3.94952000E-04	 5.20127000E-03	-5.46750000E-04
		-4.96497000E-04	 3.72552000E-03	-1.31877000E-03
		 7.70356000E-04	 5.95893000E-03	 1.36489000E-03
		 7.29841000E-04	 5.18906000E-03	 1.36346000E-03
		 4.66360000E-04	 4.22948000E-03	 1.43621000E-03
		 3.69090000E-04	 5.97823000E-03	 6.76881000E-04
		 7.49598000E-04	 5.56265000E-03	 1.40696000E-03
		 4.75664000E-04	 3.74442000E-03	 1.44721000E-03
		 3.54761000E-04	 5.21000000E-03	 7.16334000E-04
		-1.27332000E-05	 4.47512000E-03	 7.96913000E-05
		-7.05757000E-04	 4.45176000E-03	-1.19549000E-03
		-1.62975000E-05	 4.83102000E-03	 8.27644000E-05
		-7.38359000E-04	 4.79914000E-03	-1.15589000E-03
		-4.68012000E-06	 3.23296000E-03	 6.03052000E-05
		-3.63093000E-04	 4.47535000E-03	-5.88578000E-04
		-4.86390000E-04	 3.24516000E-03	-1.30792000E-03
		 6.78915000E-04	 4.47070000E-03	 1.35417000E-03
		 7.04572000E-04	 4.81698000E-03	 1.32102000E-03
		 4.78977000E-04	 3.26123000E-03	 1.42852000E-03
		 3.37270000E-04	 4.48529000E-03	 7.47292000E-04
		-4.03888000E-05	 8.80631000E-03	 1.20814000E-04
		-1.57528000E-03	 8.80831000E-03	-9.42338000E-04
		-3.09927000E-05	 7.25227000E-03	 1.24517000E-04
		-1.60274000E-03	 7.25923000E-03	-9.21258000E-04
		-3.71539000E-05	 7.47584000E-03	 1.07402000E-04
		-8.09002000E-04	 8.80384000E-03	-3.79476000E-04
		-1.16677000E-03	 7.45777000E-03	-1.00185000E-03
		-3.62802000E-05	 8.03209000E-03	 1.22710000E-04
		-1.58870000E-03	 8.03875000E-03	-9.99008000E-04
		-2.90536000E-05	 6.36170000E-03	 1.05133000E-04
		-8.15793000E-04	 7.25325000E-03	-4.36487000E-04
		-1.13136000E-03	 6.34497000E-03	-9.94981000E-04
		 1.49642000E-03	 8.82459000E-03	 1.18367000E-03
		 1.54011000E-03	 7.27487000E-03	 1.16938000E-03
		 1.09240000E-03	 7.47196000E-03	 1.21498000E-03
		 7.28843000E-04	 8.81161000E-03	 6.20686000E-04
		 1.51736000E-03	 8.05428000E-03	 1.24432000E-03
		 1.07162000E-03	 6.36043000E-03	 1.20350000E-03
		 7.53795000E-04	 7.26037000E-03	 6.85242000E-04
		-1.99241000E-05	 5.66344000E-03	 1.29013000E-04
		-1.61480000E-03	 5.67728000E-03	-9.34294000E-04
		-2.53061000E-05	 6.46252000E-03	 1.26595000E-04
		-1.60849000E-03	 6.47002000E-03	-8.38049000E-04
		-2.01454000E-05	 5.27334000E-03	 1.03884000E-04
		-8.19334000E-04	 5.66765000E-03	-5.28401000E-04
		-1.07875000E-03	 5.26903000E-03	-1.00485000E-03
		 1.57138000E-03	 5.69786000E-03	 1.19062000E-03
		 1.55528000E-03	 6.48724000E-03	 1.08956000E-03
		 1.03467000E-03	 5.28946000E-03	 1.21070000E-03
		 7.78692000E-04	 5.67797000E-03	 7.86062000E-04
		-4.09597000E-05	 1.23225000E-02	 1.48991000E-04
		-2.70793000E-03	 1.24019000E-02	-1.73733000E-03
		-2.65469000E-05	 9.54702000E-03	 1.59773000E-04
		-2.89801000E-03	 9.63144000E-03	-1.71660000E-03
		-3.92918000E-05	 1.02819000E-02	 1.35211000E-04
		-1.37638000E-03	 1.23348000E-02	-7.14188000E-04
		-2.08167000E-03	 1.03209000E-02	-1.20615000E-03
		-3.44445000E-05	 1.09613000E-02	 1.54068000E-04
		-2.80351000E-03	 1.10444000E-02	-1.82856000E-03
		-2.77142000E-05	 8.16681000E-03	 1.42834000E-04
		-1.46238000E-03	 9.56102000E-03	-8.00988000E-04
		-2.20379000E-03	 8.21567000E-03	-1.17884000E-03
		 2.62894000E-03	 1.24366000E-02	 2.03615000E-03
		 2.84613000E-03	 9.66394000E-03	 2.03667000E-03
		 2.00656000E-03	 1.03446000E-02	 1.47760000E-03
		 1.29524000E-03	 1.23518000E-02	 1.01279000E-03
		 2.73740000E-03	 1.10780000E-02	 2.13700000E-03
		 2.14921000E-03	 8.23660000E-03	 1.46482000E-03
		 1.40997000E-03	 9.57687000E-03	 1.12075000E-03
		-9.82320000E-06	 6.57826000E-03	 1.70066000E-04
		-3.08895000E-03	 6.65432000E-03	-1.71630000E-03
		-1.80992000E-05	 8.08867000E-03	 1.65266000E-04
		-2.99357000E-03	 8.17174000E-03	-1.60208000E-03
		-1.42244000E-05	 5.92877000E-03	 1.50729000E-04
		-1.54676000E-03	 6.58843000E-03	-9.08254000E-04
		-2.31115000E-03	 5.98052000E-03	-1.19109000E-03
		 3.06823000E-03	 6.68970000E-03	 2.05671000E-03
		 2.95709000E-03	 8.20470000E-03	 1.93314000E-03
		 2.28078000E-03	 6.00453000E-03	 1.49200000E-03
		 1.52703000E-03	 6.60628000E-03	 1.24846000E-03
		-5.71587000E-05	 1.87957000E-02	 1.62973000E-04
		-3.95148000E-03	 1.88593000E-02	-3.16350000E-03
		-3.67176000E-05	 1.48104000E-02	 1.81404000E-04
		-4.11195000E-03	 1.48695000E-02	-3.15641000E-03
		-4.70668000E-05	 1.51790000E-02	 1.58254000E-04
		-2.00392000E-03	 1.88031000E-02	-1.40429000E-03
		-3.37717000E-03	 1.52588000E-02	-2.45948000E-03
		-4.70576000E-05	 1.68282000E-02	 1.72288000E-04
		-4.03250000E-03	 1.68875000E-02	-3.23218000E-03
		-2.95687000E-05	 1.17427000E-02	 1.73231000E-04
		-2.07523000E-03	 1.48141000E-02	-1.46202000E-03
		-3.57036000E-03	 1.18185000E-02	-2.44645000E-03
		 3.83631000E-03	 1.89255000E-02	 3.48908000E-03
		 4.03874000E-03	 1.49374000E-02	 3.51901000E-03
		 3.28407000E-03	 1.53080000E-02	 2.77645000E-03
		 1.88939000E-03	 1.88355000E-02	 1.73046000E-03
		 3.93818000E-03	 1.69557000E-02	 3.57595000E-03
		 3.51220000E-03	 1.18678000E-02	 2.79334000E-03
		 2.00210000E-03	 1.48481000E-02	 1.82484000E-03
		-1.45781000E-05	 1.06451000E-02	 1.98647000E-04
		-4.28615000E-03	 1.06922000E-02	-3.12744000E-03
		-2.59810000E-05	 1.27510000E-02	 1.90123000E-04
		-4.19965000E-03	 1.28084000E-02	-3.08482000E-03
		-9.76999000E-06	 8.09625000E-03	 1.87061000E-04
		-2.14707000E-03	 1.06426000E-02	-1.49739000E-03
		-3.78078000E-03	 8.15560000E-03	-2.43046000E-03
		 4.25811000E-03	 1.07607000E-02	 3.52498000E-03
		 4.14839000E-03	 1.28761000E-02	 3.46534000E-03
		 3.76170000E-03	 8.20696000E-03	 2.80528000E-03
		 2.11842000E-03	 1.06773000E-02	 1.89481000E-03
		-9.51547000E-05	 2.75042000E-02	 1.59098000E-04
		-4.80500000E-03	 2.74851000E-02	-3.91814000E-03
		-6.98491000E-05	 2.27842000E-02	 1.79838000E-04
		-4.81012000E-03	 2.27576000E-02	-3.91112000E-03
		-7.30510000E-05	 2.30047000E-02	 1.63908000E-04
		-2.44853000E-03	 2.74923000E-02	-1.80915000E-03
		-4.42444000E-03	 2.30267000E-02	-3.65581000E-03
		-8.23667000E-05	 2.51483000E-02	 1.68921000E-04
		-4.80723000E-03	 2.51236000E-02	-3.95808000E-03
		-5.04844000E-05	 1.86041000E-02	 1.83436000E-04
		-2.43998000E-03	 2.27684000E-02	-1.83639000E-03
		-4.50792000E-03	 1.86189000E-02	-3.65276000E-03
		 4.61319000E-03	 2.75702000E-02	 4.23143000E-03
		 4.66905000E-03	 2.28451000E-02	 4.26610000E-03
		 4.27692000E-03	 2.31063000E-02	 3.98090000E-03
		 2.25767000E-03	 2.75339000E-02	 2.12592000E-03
		 4.64113000E-03	 2.52105000E-02	 4.29125000E-03
		 4.40615000E-03	 1.87005000E-02	 4.01761000E-03
		 2.29990000E-03	 2.28121000E-02	 2.19477000E-03
		-4.41255000E-05	 1.80241000E-02	 2.02822000E-04
		-4.82255000E-03	 1.79951000E-02	-3.87342000E-03
		-5.72163000E-05	 2.04077000E-02	 1.91455000E-04
		-4.81707000E-03	 2.03800000E-02	-3.86630000E-03
		-2.70481000E-05	 1.40910000E-02	 2.02946000E-04
		-2.43365000E-03	 1.80062000E-02	-1.83351000E-03
		-4.60384000E-03	 1.40979000E-02	-3.61540000E-03
		 4.73297000E-03	 1.80848000E-02	 4.27451000E-03
		 4.70112000E-03	 2.04679000E-02	 4.24488000E-03
		 4.54954000E-03	 1.41807000E-02	 4.02010000E-03
		 2.34531000E-03	 1.80518000E-02	 2.23759000E-03
		-1.32166000E-04	 3.63136000E-02	 1.29982000E-04
		-5.36224000E-03	 3.62582000E-02	-3.83230000E-03
		-1.01405000E-04	 3.11077000E-02	 1.60836000E-04
		-5.28665000E-03	 3.10477000E-02	-3.80734000E-03
		-1.17276000E-04	 3.20045000E-02	 1.46877000E-04
		-2.74539000E-03	 3.62933000E-02	-1.82294000E-03
		-5.11257000E-03	 3.19636000E-02	-3.93329000E-03
		-1.17513000E-04	 3.37067000E-02	 1.45955000E-04
		-5.32512000E-03	 3.36467000E-02	-3.84700000E-03
		-8.82941000E-05	 2.70208000E-02	 1.72079000E-04
		-2.69349000E-03	 3.10847000E-02	-1.82496000E-03
		-5.06413000E-03	 2.69756000E-02	-3.91751000E-03
		 5.09994000E-03	 3.63427000E-02	 4.09509000E-03
		 5.08759000E-03	 3.11290000E-02	 4.13076000E-03
		 4.87856000E-03	 3.20477000E-02	 4.22308000E-03
		 2.48181000E-03	 3.63336000E-02	 2.08435000E-03
		 5.09269000E-03	 3.37301000E-02	 4.14144000E-03
		 4.88782000E-03	 2.70594000E-02	 4.25676000E-03
		 2.49204000E-03	 3.11239000E-02	 2.14763000E-03
		-7.06857000E-05	 2.59356000E-02	 1.87041000E-04
		-5.22033000E-03	 2.58774000E-02	-3.78571000E-03
		-8.53749000E-05	 2.85150000E-02	 1.73893000E-04
		-5.25229000E-03	 2.84563000E-02	-3.76838000E-03
		-5.90870000E-05	 2.20486000E-02	 1.99053000E-04
		-2.64562000E-03	 2.59129000E-02	-1.83069000E-03
		-5.01813000E-03	 2.20057000E-02	-3.88302000E-03
		 5.08336000E-03	 2.59533000E-02	 4.16036000E-03
		 5.08633000E-03	 2.85350000E-02	 4.11604000E-03
		 4.89907000E-03	 2.20904000E-02	 4.27517000E-03
		 2.50549000E-03	 2.59489000E-02	 2.20638000E-03
		-1.44280000E-04	 4.42068000E-02	 9.95408000E-05
		-5.59026000E-03	 4.41528000E-02	-3.70327000E-03
		-1.29958000E-04	 3.87942000E-02	 1.32794000E-04
		-5.55141000E-03	 3.87303000E-02	-3.68310000E-03
		-1.40203000E-04	 4.03475000E-02	 1.13359000E-04
		-2.86735000E-03	 4.41786000E-02	-1.80577000E-03
		-5.52402000E-03	 4.02975000E-02	-3.73815000E-03
		-1.35183000E-04	 4.14964000E-02	 1.18235000E-04
		-5.57064000E-03	 4.14358000E-02	-3.69265000E-03
		-1.13598000E-04	 3.49843000E-02	 1.47546000E-04
		-2.84587000E-03	 3.87600000E-02	-1.78433000E-03
		-5.46205000E-03	 3.49302000E-02	-3.71292000E-03
		 5.29279000E-03	 4.42594000E-02	 3.91911000E-03
		 5.29866000E-03	 3.88457000E-02	 3.96720000E-03
		 5.23990000E-03	 4.03866000E-02	 3.97829000E-03
		 2.57678000E-03	 4.42346000E-02	 2.00989000E-03
		 5.29762000E-03	 4.15499000E-02	 3.94603000E-03
		 5.24093000E-03	 3.50213000E-02	 4.02099000E-03
		 2.58861000E-03	 3.88213000E-02	 2.05498000E-03
		-1.14944000E-04	 3.33937000E-02	 1.46374000E-04
		-5.53805000E-03	 3.33337000E-02	-3.69352000E-03
		-1.24597000E-04	 3.60978000E-02	 1.41891000E-04
		-5.54495000E-03	 3.60326000E-02	-3.67908000E-03
		-8.64849000E-05	 2.96436000E-02	 1.66424000E-04
		-2.83250000E-03	 3.33632000E-02	-1.79191000E-03
		-5.41416000E-03	 2.95972000E-02	-3.71201000E-03
		 5.33029000E-03	 3.34266000E-02	 4.00616000E-03
		 5.31295000E-03	 3.61411000E-02	 3.98167000E-03
		 5.25625000E-03	 2.96716000E-02	 4.05728000E-03
		 2.60835000E-03	 3.34101000E-02	 2.09077000E-03
		 0.00000000E+00	 0.00000000E+00	 0.00000000E+00
		 0.00000000E+00	 0.00000000E+00	 0.00000000E+00
		-2.38338000E-05	-5.42421000E-03	-2.60182000E-05
		-1.80154000E-03	-5.61436000E-03	 4.75042000E-03
		 0.00000000E+00	 0.00000000E+00	 0.00000000E+00
		 0.00000000E+00	 0.00000000E+00	 0.00000000E+00
		-2.53225000E-05	-6.99718000E-03	-6.76582000E-05
		-1.38801000E-03	-7.20320000E-03	 4.80917000E-03
		 0.00000000E+00	 0.00000000E+00	 0.00000000E+00
		-1.41129000E-06	-1.28969000E-03	-6.86553000E-06
		-9.14324000E-04	-5.42785000E-03	 2.31244000E-03
		-1.37473000E-03	-1.71214000E-03	 2.69870000E-03
		 0.00000000E+00	 0.00000000E+00	 0.00000000E+00
		 0.00000000E+00	 0.00000000E+00	 0.00000000E+00
		-2.34605000E-05	-6.29746000E-03	-4.76217000E-05
		-1.58882000E-03	-6.49326000E-03	 4.68046000E-03
		 0.00000000E+00	 0.00000000E+00	 0.00000000E+00
		-5.61653000E-06	-2.26880000E-03	-2.50677000E-05
		-7.07268000E-04	-7.00265000E-03	 2.21291000E-03
		-6.74306000E-04	-2.67515000E-03	 2.63737000E-03
		 0.00000000E+00	 0.00000000E+00	 0.00000000E+00
		 1.75589000E-03	-5.56027000E-03	-4.81170000E-03
		 0.00000000E+00	 0.00000000E+00	 0.00000000E+00
		 1.34318000E-03	-7.15560000E-03	-4.95325000E-03
		 0.00000000E+00	 0.00000000E+00	 0.00000000E+00
		 1.37509000E-03	-1.68893000E-03	-2.71962000E-03
		 8.66629000E-04	-5.40096000E-03	-2.36704000E-03
		 0.00000000E+00	 0.00000000E+00	 0.00000000E+00
		 1.54575000E-03	-6.44243000E-03	-4.78445000E-03
		 0.00000000E+00	 0.00000000E+00	 0.00000000E+00
		 6.68619000E-04	-2.66322000E-03	-2.69438000E-03
		 6.56554000E-04	-6.98064000E-03	-2.35097000E-03
		 0.00000000E+00	 0.00000000E+00	 0.00000000E+00
		 0.00000000E+00	 0.00000000E+00	 0.00000000E+00
		-3.13228000E-05	-8.15390000E-03	-1.04315000E-04
		-9.67263000E-04	-8.32502000E-03	 4.67572000E-03
		 0.00000000E+00	 0.00000000E+00	 0.00000000E+00
		 0.00000000E+00	 0.00000000E+00	 0.00000000E+00
		-2.73752000E-05	-7.66039000E-03	-8.69216000E-05
		-1.18047000E-03	-7.84877000E-03	 4.89172000E-03
		 0.00000000E+00	 0.00000000E+00	 0.00000000E+00
		-1.53225000E-05	-2.63144000E-03	-4.04106000E-05
		-5.02402000E-04	-8.14496000E-03	 1.98604000E-03
		 7.06842000E-05	-2.99305000E-03	 2.66550000E-03
		 0.00000000E+00	 0.00000000E+00	 0.00000000E+00
		 9.09984000E-04	-8.28699000E-03	-4.89007000E-03
		 0.00000000E+00	 0.00000000E+00	 0.00000000E+00
		 1.13051000E-03	-7.80879000E-03	-5.07341000E-03
		 0.00000000E+00	 0.00000000E+00	 0.00000000E+00
		-9.70391000E-05	-2.98982000E-03	-2.75438000E-03
		 4.41802000E-04	-8.13098000E-03	-2.19570000E-03
		-1.02329000E-04	-1.72132000E-02	-1.21267000E-04
		-2.74031000E-03	-1.72264000E-02	 5.98281000E-03
		-1.02054000E-04	-1.98704000E-02	-1.97471000E-04
		-2.77558000E-03	-1.98818000E-02	 5.94867000E-03
		-5.69525000E-05	-1.09936000E-02	-6.38979000E-05
		-1.42412000E-03	-1.72361000E-02	 2.91070000E-03
		-2.30287000E-03	-1.11476000E-02	 5.76490000E-03
		-1.02681000E-04	-1.85270000E-02	-1.61635000E-04
		-2.75859000E-03	-1.85358000E-02	 5.90615000E-03
		-5.87019000E-05	-1.31442000E-02	-1.25915000E-04
		-1.43375000E-03	-1.98927000E-02	 2.79701000E-03
		-2.10627000E-03	-1.32944000E-02	 5.75956000E-03
		 2.53840000E-03	-1.71518000E-02	-6.23022000E-03
		 2.56537000E-03	-1.98145000E-02	-6.34605000E-03
		 2.19134000E-03	-1.10758000E-02	-5.90262000E-03
		 1.21987000E-03	-1.71990000E-02	-3.15492000E-03
		 2.55385000E-03	-1.84710000E-02	-6.23160000E-03
		 1.99154000E-03	-1.32302000E-02	-6.01972000E-03
		 1.23266000E-03	-1.98613000E-02	-3.19025000E-03
		-1.07348000E-04	-2.25545000E-02	-2.74633000E-04
		-2.80466000E-03	-2.25613000E-02	 5.82850000E-03
		-1.04683000E-04	-2.11970000E-02	-2.32915000E-04
		-2.78930000E-03	-2.12338000E-02	 5.99386000E-03
		-6.39669000E-05	-1.50934000E-02	-1.86450000E-04
		-1.45711000E-03	-2.25700000E-02	 2.59970000E-03
		-1.92149000E-03	-1.52467000E-02	 5.64441000E-03
		 2.61132000E-03	-2.25098000E-02	-6.38023000E-03
		 2.58816000E-03	-2.11444000E-02	-6.46378000E-03
		 1.80638000E-03	-1.51979000E-02	-6.02261000E-03
		 1.24815000E-03	-2.25482000E-02	-3.14660000E-03
		-1.84669000E-04	-2.84315000E-02	-2.81209000E-04
		-3.55133000E-03	-2.82627000E-02	 4.60823000E-03
		-1.84269000E-04	-3.18897000E-02	-3.30581000E-04
		-3.79156000E-03	-3.18394000E-02	 4.56832000E-03
		-1.48601000E-04	-2.31807000E-02	-1.95443000E-04
		-1.86199000E-03	-2.83798000E-02	 2.18203000E-03
		-3.17760000E-03	-2.31211000E-02	 5.49282000E-03
		-1.84352000E-04	-3.01295000E-02	-3.02244000E-04
		-3.67586000E-03	-3.00348000E-02	 4.53861000E-03
		-1.49491000E-04	-2.62918000E-02	-2.68738000E-04
		-2.01196000E-03	-3.19036000E-02	 2.07654000E-03
		-3.35242000E-03	-2.62462000E-02	 5.44862000E-03
		 3.13896000E-03	-2.82759000E-02	-5.15300000E-03
		 3.41310000E-03	-3.17479000E-02	-5.24557000E-03
		 2.87062000E-03	-2.30715000E-02	-5.88357000E-03
		 1.47868000E-03	-2.83888000E-02	-2.73235000E-03
		 3.27419000E-03	-2.99756000E-02	-5.15403000E-03
		 3.05022000E-03	-2.61749000E-02	-5.98646000E-03
		 1.61765000E-03	-3.18601000E-02	-2.75722000E-03
		-1.83737000E-04	-3.56196000E-02	-3.85675000E-04
		-4.14199000E-03	-3.57101000E-02	 4.50086000E-03
		-1.84076000E-04	-3.37355000E-02	-3.59473000E-04
		-3.97025000E-03	-3.36210000E-02	 4.60249000E-03
		-1.41107000E-04	-2.95768000E-02	-3.44981000E-04
		-2.12704000E-03	-3.57093000E-02	 1.94205000E-03
		-3.56949000E-03	-2.95788000E-02	 5.34560000E-03
		 3.72162000E-03	-3.55104000E-02	-5.31464000E-03
		 3.56673000E-03	-3.35874000E-02	-5.33783000E-03
		 3.24152000E-03	-2.94670000E-02	-6.03812000E-03
		 1.75904000E-03	-3.56137000E-02	-2.75790000E-03
		-1.41545000E-04	-3.61014000E-02	-4.52599000E-04
		-3.74093000E-03	-3.58207000E-02	 2.28811000E-03
		-1.46439000E-04	-3.99186000E-02	-4.18564000E-04
		-4.21050000E-03	-4.01050000E-02	 2.31872000E-03
		-2.15295000E-04	-3.27406000E-02	-3.67333000E-04
		-1.93978000E-03	-3.60035000E-02	 9.04182000E-04
		-3.76888000E-03	-3.26019000E-02	 3.48409000E-03
		-1.44375000E-04	-3.79319000E-02	-4.35653000E-04
		-3.96735000E-03	-3.78316000E-02	 2.32634000E-03
		-2.21928000E-04	-3.64846000E-02	-4.23989000E-04
		-2.05450000E-03	-4.00400000E-02	 9.59875000E-04
		-4.13905000E-03	-3.63042000E-02	 3.50933000E-03
		 3.28560000E-03	-3.59389000E-02	-3.18937000E-03
		 3.61541000E-03	-3.95990000E-02	-3.15102000E-03
		 3.30862000E-03	-3.25727000E-02	-4.21309000E-03
		 1.57075000E-03	-3.60694000E-02	-1.80795000E-03
		 3.45275000E-03	-3.77217000E-02	-3.19356000E-03
		 3.62153000E-03	-3.62785000E-02	-4.25006000E-03
		 1.72352000E-03	-3.97803000E-02	-1.79594000E-03
		-2.81231000E-04	-4.41129000E-02	-3.86180000E-04
		-4.54119000E-03	-4.46680000E-02	 2.35567000E-03
		-2.12925000E-04	-4.19342000E-02	-4.02180000E-04
		-4.37559000E-03	-4.28265000E-02	 2.30770000E-03
		-2.45093000E-04	-4.05557000E-02	-5.09823000E-04
		-2.52840000E-03	-4.44044000E-02	 1.02305000E-03
		-4.36647000E-03	-4.02798000E-02	 3.47411000E-03
		 3.97270000E-03	-4.36278000E-02	-3.12191000E-03