# vtk DataFile Version 3.0

ASCII
DATASET UNSTRUCTURED_GRID

POINTS 522 double
	 1.00000000E+00	 1.00000000E+00	-5.96046000E-08
	 1.00000000E+00	 5.00000000E-01	-5.96046000E-08
	 1.00000000E+00	 5.00000000E-01	 1.00000000E+00
	 1.00000000E+00	 1.00000000E+00	 1.00000000E+00
	 5.00000000E-01	 1.00000000E+00	-5.96046000E-08
	 5.00000000E-01	 5.00000000E-01	-5.96046000E-08
	 5.00000000E-01	 5.00000000E-01	 1.00000000E+00
	 5.00000000E-01	 1.00000000E+00	 1.00000000E+00
	 1.00000000E+00	 7.50000000E-01	-5.96046000E-08
	 1.00000000E+00	 5.00000000E-01	 5.00000000E-01
	 1.00000000E+00	 7.50000000E-01	 1.00000000E+00
	 1.00000000E+00	 1.00000000E+00	 5.00000000E-01
	 7.50000000E-01	 1.00000000E+00	-5.96046000E-08
	 7.50000000E-01	 5.00000000E-01	-5.96046000E-08
	 7.50000000E-01	 5.00000000E-01	 1.00000000E+00
	 7.50000000E-01	 1.00000000E+00	 1.00000000E+00
	 5.00000000E-01	 7.50000000E-01	-5.96046000E-08
	 5.00000000E-01	 5.00000000E-01	 5.00000000E-01
	 5.00000000E-01	 7.50000000E-01	 1.00000000E+00
	 5.00000000E-01	 1.00000000E+00	 5.00000000E-01
	 1.00000000E+00	-1.49012000E-08	-5.96046000E-08
	 1.00000000E+00	-1.49012000E-08	 1.00000000E+00
	 5.00000000E-01	-1.49012000E-08	-5.96046000E-08
	 5.00000000E-01	-1.49012000E-08	 1.00000000E+00
	 1.00000000E+00	 2.50000000E-01	-5.96046000E-08
	 1.00000000E+00	-1.49012000E-08	 5.00000000E-01
	 1.00000000E+00	 2.50000000E-01	 1.00000000E+00
	 7.50000000E-01	-1.49012000E-08	-5.96046000E-08
	 7.50000000E-01	-1.49012000E-08	 1.00000000E+00
	 5.00000000E-01	 2.50000000E-01	-5.96046000E-08
	 5.00000000E-01	-1.49012000E-08	 5.00000000E-01
	 5.00000000E-01	 2.50000000E-01	 1.00000000E+00
	-7.45058000E-09	 1.00000000E+00	-5.96046000E-08
	-7.45058000E-09	 5.00000000E-01	-5.96046000E-08
	-7.45058000E-09	 5.00000000E-01	 1.00000000E+00
	-7.45058000E-09	 1.00000000E+00	 1.00000000E+00
	 2.50000000E-01	 1.00000000E+00	-5.96046000E-08
	 2.50000000E-01	 5.00000000E-01	-5.96046000E-08
	 2.50000000E-01	 5.00000000E-01	 1.00000000E+00
	 2.50000000E-01	 1.00000000E+00	 1.00000000E+00
	-7.45058000E-09	 7.50000000E-01	-5.96046000E-08
	-7.45058000E-09	 5.00000000E-01	 5.00000000E-01
	-7.45058000E-09	 7.50000000E-01	 1.00000000E+00
	-7.45058000E-09	 1.00000000E+00	 5.00000000E-01
	-7.45058000E-09	-1.49012000E-08	-5.96046000E-08
	-7.45058000E-09	-1.49012000E-08	 1.00000000E+00
	 2.50000000E-01	-1.49012000E-08	-5.96046000E-08
	 2.50000000E-01	-1.49012000E-08	 1.00000000E+00
	-7.45058000E-09	 2.50000000E-01	-5.96046000E-08
	-7.45058000E-09	-1.49012000E-08	 5.00000000E-01
	-7.45058000E-09	 2.50000000E-01	 1.00000000E+00
	 1.00000000E+00	 5.00000000E-01	 2.00000000E+00
	 1.00000000E+00	 1.00000000E+00	 2.00000000E+00
	 5.00000000E-01	 5.00000000E-01	 2.00000000E+00
	 5.00000000E-01	 1.00000000E+00	 2.00000000E+00
	 1.00000000E+00	 5.00000000E-01	 1.50000000E+00
	 1.00000000E+00	 7.50000000E-01	 2.00000000E+00
	 1.00000000E+00	 1.00000000E+00	 1.50000000E+00
	 7.50000000E-01	 5.00000000E-01	 2.00000000E+00
	 7.50000000E-01	 1.00000000E+00	 2.00000000E+00
	 5.00000000E-01	 5.00000000E-01	 1.50000000E+00
	 5.00000000E-01	 7.50000000E-01	 2.00000000E+00
	 5.00000000E-01	 1.00000000E+00	 1.50000000E+00
	 1.00000000E+00	-1.49012000E-08	 2.00000000E+00
	 5.00000000E-01	-1.49012000E-08	 2.00000000E+00
	 1.00000000E+00	-1.49012000E-08	 1.50000000E+00
	 1.00000000E+00	 2.50000000E-01	 2.00000000E+00
	 7.50000000E-01	-1.49012000E-08	 2.00000000E+00
	 5.00000000E-01	-1.49012000E-08	 1.50000000E+00
	 5.00000000E-01	 2.50000000E-01	 2.00000000E+00
	-7.45058000E-09	 5.00000000E-01	 2.00000000E+00
	-7.45058000E-09	 1.00000000E+00	 2.00000000E+00
	 2.50000000E-01	 5.00000000E-01	 2.00000000E+00
	 2.50000000E-01	 1.00000000E+00	 2.00000000E+00
	-7.45058000E-09	 5.00000000E-01	 1.50000000E+00
	-7.45058000E-09	 7.50000000E-01	 2.00000000E+00
	-7.45058000E-09	 1.00000000E+00	 1.50000000E+00
	-7.45058000E-09	-1.49012000E-08	 2.00000000E+00
	 2.50000000E-01	-1.49012000E-08	 2.00000000E+00
	-7.45058000E-09	-1.49012000E-08	 1.50000000E+00
	-7.45058000E-09	 2.50000000E-01	 2.00000000E+00
	 1.00000000E+00	 5.00000000E-01	 3.00000000E+00
	 1.00000000E+00	 1.00000000E+00	 3.00000000E+00
	 5.00000000E-01	 5.00000000E-01	 3.00000000E+00
	 5.00000000E-01	 1.00000000E+00	 3.00000000E+00
	 1.00000000E+00	 5.00000000E-01	 2.50000000E+00
	 1.00000000E+00	 7.50000000E-01	 3.00000000E+00
	 1.00000000E+00	 1.00000000E+00	 2.50000000E+00
	 7.50000000E-01	 5.00000000E-01	 3.00000000E+00
	 7.50000000E-01	 1.00000000E+00	 3.00000000E+00
	 5.00000000E-01	 5.00000000E-01	 2.50000000E+00
	 5.00000000E-01	 7.50000000E-01	 3.00000000E+00
	 5.00000000E-01	 1.00000000E+00	 2.50000000E+00
	 1.00000000E+00	-1.49012000E-08	 3.00000000E+00
	 5.00000000E-01	-1.49012000E-08	 3.00000000E+00
	 1.00000000E+00	-1.49012000E-08	 2.50000000E+00
	 1.00000000E+00	 2.50000000E-01	 3.00000000E+00
	 7.50000000E-01	-1.49012000E-08	 3.00000000E+00
	 5.00000000E-01	-1.49012000E-08	 2.50000000E+00
	 5.00000000E-01	 2.50000000E-01	 3.00000000E+00
	-7.45058000E-09	 5.00000000E-01	 3.00000000E+00
	-7.45058000E-09	 1.00000000E+00	 3.00000000E+00
	 2.50000000E-01	 5.00000000E-01	 3.00000000E+00
	 2.50000000E-01	 1.00000000E+00	 3.00000000E+00
	-7.45058000E-09	 5.00000000E-01	 2.50000000E+00
	-7.45058000E-09	 7.50000000E-01	 3.00000000E+00
	-7.45058000E-09	 1.00000000E+00	 2.50000000E+00
	-7.45058000E-09	-1.49012000E-08	 3.00000000E+00
	 2.50000000E-01	-1.49012000E-08	 3.00000000E+00
	-7.45058000E-09	-1.49012000E-08	 2.50000000E+00
	-7.45058000E-09	 2.50000000E-01	 3.00000000E+00
	 1.00000000E+00	 5.00000000E-01	 4.00000000E+00
	 1.00000000E+00	 1.00000000E+00	 4.00000000E+00
	 5.00000000E-01	 5.00000000E-01	 4.00000000E+00
	 5.00000000E-01	 1.00000000E+00	 4.00000000E+00
	 1.00000000E+00	 5.00000000E-01	 3.50000000E+00
	 1.00000000E+00	 7.50000000E-01	 4.00000000E+00
	 1.00000000E+00	 1.00000000E+00	 3.50000000E+00
	 7.50000000E-01	 5.00000000E-01	 4.00000000E+00
	 7.50000000E-01	 1.00000000E+00	 4.00000000E+00
	 5.00000000E-01	 5.00000000E-01	 3.50000000E+00
	 5.00000000E-01	 7.50000000E-01	 4.00000000E+00
	 5.00000000E-01	 1.00000000E+00	 3.50000000E+00
	 1.00000000E+00	-1.49012000E-08	 4.00000000E+00
	 5.00000000E-01	-1.49012000E-08	 4.00000000E+00
	 1.00000000E+00	-1.49012000E-08	 3.50000000E+00
	 1.00000000E+00	 2.50000000E-01	 4.00000000E+00
	 7.50000000E-01	-1.49012000E-08	 4.00000000E+00
	 5.00000000E-01	-1.49012000E-08	 3.50000000E+00
	 5.00000000E-01	 2.50000000E-01	 4.00000000E+00
	-7.45058000E-09	 5.00000000E-01	 4.00000000E+00
	-7.45058000E-09	 1.00000000E+00	 4.00000000E+00
	 2.50000000E-01	 5.00000000E-01	 4.00000000E+00
	 2.50000000E-01	 1.00000000E+00	 4.00000000E+00
	-7.45058000E-09	 5.00000000E-01	 3.50000000E+00
	-7.45058000E-09	 7.50000000E-01	 4.00000000E+00
	-7.45058000E-09	 1.00000000E+00	 3.50000000E+00
	-7.45058000E-09	-1.49012000E-08	 4.00000000E+00
	 2.50000000E-01	-1.49012000E-08	 4.00000000E+00
	-7.45058000E-09	-1.49012000E-08	 3.50000000E+00
	-7.45058000E-09	 2.50000000E-01	 4.00000000E+00
	 1.00000000E+00	 5.00000000E-01	 5.00000000E+00
	 1.00000000E+00	 1.00000000E+00	 5.00000000E+00
	 5.00000000E-01	 5.00000000E-01	 5.00000000E+00
	 5.00000000E-01	 1.00000000E+00	 5.00000000E+00
	 1.00000000E+00	 5.00000000E-01	 4.50000000E+00
	 1.00000000E+00	 7.50000000E-01	 5.00000000E+00
	 1.00000000E+00	 1.00000000E+00	 4.50000000E+00
	 7.50000000E-01	 5.00000000E-01	 5.00000000E+00
	 7.50000000E-01	 1.00000000E+00	 5.00000000E+00
	 5.00000000E-01	 5.00000000E-01	 4.50000000E+00
	 5.00000000E-01	 7.50000000E-01	 5.00000000E+00
	 5.00000000E-01	 1.00000000E+00	 4.50000000E+00
	 1.00000000E+00	-1.49012000E-08	 5.00000000E+00
	 5.00000000E-01	-1.49012000E-08	 5.00000000E+00
	 1.00000000E+00	-1.49012000E-08	 4.50000000E+00
	 1.00000000E+00	 2.50000000E-01	 5.00000000E+00
	 7.50000000E-01	-1.49012000E-08	 5.00000000E+00
	 5.00000000E-01	-1.49012000E-08	 4.50000000E+00
	 5.00000000E-01	 2.50000000E-01	 5.00000000E+00
	-7.45058000E-09	 5.00000000E-01	 5.00000000E+00
	-7.45058000E-09	 1.00000000E+00	 5.00000000E+00
	 2.50000000E-01	 5.00000000E-01	 5.00000000E+00
	 2.50000000E-01	 1.00000000E+00	 5.00000000E+00
	-7.45058000E-09	 5.00000000E-01	 4.50000000E+00
	-7.45058000E-09	 7.50000000E-01	 5.00000000E+00
	-7.45058000E-09	 1.00000000E+00	 4.50000000E+00
	-7.45058000E-09	-1.49012000E-08	 5.00000000E+00
	 2.50000000E-01	-1.49012000E-08	 5.00000000E+00
	-7.45058000E-09	-1.49012000E-08	 4.50000000E+00
	-7.45058000E-09	 2.50000000E-01	 5.00000000E+00
	 1.00000000E+00	 5.00000000E-01	 6.00000000E+00
	 1.00000000E+00	 1.00000000E+00	 6.00000000E+00
	 5.00000000E-01	 5.00000000E-01	 6.00000000E+00
	 5.00000000E-01	 1.00000000E+00	 6.00000000E+00
	 1.00000000E+00	 5.00000000E-01	 5.50000000E+00
	 1.00000000E+00	 7.50000000E-01	 6.00000000E+00
	 1.00000000E+00	 1.00000000E+00	 5.50000000E+00
	 7.50000000E-01	 5.00000000E-01	 6.00000000E+00
	 7.50000000E-01	 1.00000000E+00	 6.00000000E+00
	 5.00000000E-01	 5.00000000E-01	 5.50000000E+00
	 5.00000000E-01	 7.50000000E-01	 6.00000000E+00
	 5.00000000E-01	 1.00000000E+00	 5.50000000E+00
	 1.00000000E+00	-1.49012000E-08	 6.00000000E+00
	 5.00000000E-01	-1.49012000E-08	 6.00000000E+00
	 1.00000000E+00	-1.49012000E-08	 5.50000000E+00
	 1.00000000E+00	 2.50000000E-01	 6.00000000E+00
	 7.50000000E-01	-1.49012000E-08	 6.00000000E+00
	 5.00000000E-01	-1.49012000E-08	 5.50000000E+00
	 5.00000000E-01	 2.50000000E-01	 6.00000000E+00
	-7.45058000E-09	 5.00000000E-01	 6.00000000E+00
	-7.45058000E-09	 1.00000000E+00	 6.00000000E+00
	 2.50000000E-01	 5.00000000E-01	 6.00000000E+00
	 2.50000000E-01	 1.00000000E+00	 6.00000000E+00
	-7.45058000E-09	 5.00000000E-01	 5.50000000E+00
	-7.45058000E-09	 7.50000000E-01	 6.00000000E+00
	-7.45058000E-09	 1.00000000E+00	 5.50000000E+00
	-7.45058000E-09	-1.49012000E-08	 6.00000000E+00
	 2.50000000E-01	-1.49012000E-08	 6.00000000E+00
	-7.45058000E-09	-1.49012000E-08	 5.50000000E+00
	-7.45058000E-09	 2.50000000E-01	 6.00000000E+00
	 1.00000000E+00	 5.00000000E-01	 7.00000000E+00
[...]
POINT_DATA 522
FIELD U 1
	U 3 522 double
		 0.00000000E+00	 0.00000000E+00	 0.00000000E+00
		 0.00000000E+00	 0.00000000E+00	 0.00000000E+00
		-2.48197000E-05	 4.39025000E-03	-4.09614000E-05
		-1.00719000E-03	 4.36632000E-03	-1.30831000E-03
		 0.00000000E+00	 0.00000000E+00	 0.00000000E+00
		 0.00000000E+00	 0.00000000E+00	 0.00000000E+00
		-1.72554000E-05	 3.51618000E-03	-3.02596000E-05
		-8.50283000E-04	 3.46476000E-03	-1.35034000E-03
		 0.00000000E+00	 0.00000000E+00	 0.00000000E+00
		-1.25378000E-05	 1.81863000E-03	-2.92367000E-05
		-4.69417000E-04	 4.37177000E-03	-4.57724000E-04
		-2.76928000E-04	 1.87627000E-03	-1.02874000E-03
		 0.00000000E+00	 0.00000000E+00	 0.00000000E+00
		 0.00000000E+00	 0.00000000E+00	 0.00000000E+00
		-1.51363000E-05	 3.91544000E-03	-2.09930000E-05
		-9.34582000E-04	 3.86046000E-03	-1.41628000E-03
		 0.00000000E+00	 0.00000000E+00	 0.00000000E+00
		-7.45856000E-06	 1.42673000E-03	-1.15555000E-05
		-4.26395000E-04	 3.45444000E-03	-5.76769000E-04
		-4.37165000E-04	 1.55591000E-03	-1.02894000E-03
		 0.00000000E+00	 0.00000000E+00	 0.00000000E+00
		 9.80873000E-04	 4.38868000E-03	 1.25083000E-03
		 0.00000000E+00	 0.00000000E+00	 0.00000000E+00
		 8.14285000E-04	 3.45179000E-03	 1.31421000E-03
		 0.00000000E+00	 0.00000000E+00	 0.00000000E+00
		 2.23528000E-04	 1.88712000E-03	 9.91801000E-04
		 4.38632000E-04	 4.35870000E-03	 4.21205000E-04
		 0.00000000E+00	 0.00000000E+00	 0.00000000E+00
		 8.82885000E-04	 3.85485000E-03	 1.38017000E-03
		 0.00000000E+00	 0.00000000E+00	 0.00000000E+00
		 4.05638000E-04	 1.55434000E-03	 9.95676000E-04
		 3.93685000E-04	 3.47254000E-03	 5.19694000E-04
		 0.00000000E+00	 0.00000000E+00	 0.00000000E+00
		 0.00000000E+00	 0.00000000E+00	 0.00000000E+00
		-1.43563000E-05	 2.72739000E-03	-1.31105000E-05
		-7.30321000E-04	 2.64838000E-03	-1.28758000E-03
		 0.00000000E+00	 0.00000000E+00	 0.00000000E+00
		 0.00000000E+00	 0.00000000E+00	 0.00000000E+00
		-1.98483000E-05	 3.11070000E-03	-7.83102000E-06
		-7.84881000E-04	 3.02856000E-03	-1.27935000E-03
		 0.00000000E+00	 0.00000000E+00	 0.00000000E+00
		-2.22871000E-05	 9.47123000E-04	 1.10299000E-05
		-3.55212000E-04	 2.69236000E-03	-5.74822000E-04
		-6.08037000E-04	 1.09589000E-03	-1.02918000E-03
		 0.00000000E+00	 0.00000000E+00	 0.00000000E+00
		 6.84661000E-04	 2.68412000E-03	 1.28207000E-03
		 0.00000000E+00	 0.00000000E+00	 0.00000000E+00
		 7.56350000E-04	 3.05076000E-03	 1.25275000E-03
		 0.00000000E+00	 0.00000000E+00	 0.00000000E+00
		 5.66055000E-04	 1.05860000E-03	 1.01917000E-03
		 3.42009000E-04	 2.68137000E-03	 5.39084000E-04
		-1.24516000E-05	 6.68771000E-03	 3.91723000E-05
		-1.26889000E-03	 6.60249000E-03	-9.29674000E-05
		-6.31802000E-06	 5.54113000E-03	 1.91524000E-05
		-1.04318000E-03	 5.43748000E-03	-1.23582000E-04
		-2.30050000E-05	 5.92913000E-03	-2.05265000E-05
		-6.30157000E-04	 6.67848000E-03	-7.74915000E-05
		-1.20447000E-03	 5.91868000E-03	-8.24920000E-04
		-4.80616000E-06	 6.07212000E-03	 1.27729000E-05
		-1.16663000E-03	 5.95863000E-03	-1.07197000E-04
		 8.85471000E-06	 4.85504000E-03	-1.72057000E-05
		-5.21329000E-04	 5.53023000E-03	-5.62464000E-05
		-9.75468000E-04	 4.80056000E-03	-8.61339000E-04
		 1.26027000E-03	 6.61628000E-03	 1.20996000E-04
		 1.04375000E-03	 5.47066000E-03	 1.26795000E-04
		 1.23445000E-03	 5.93452000E-03	 7.95173000E-04
		 6.05652000E-04	 6.69581000E-03	 1.12719000E-04
		 1.16501000E-03	 5.98681000E-03	 1.57954000E-04
		 9.79475000E-04	 4.80035000E-03	 8.35665000E-04
		 5.05355000E-04	 5.52316000E-03	 9.27091000E-05
		 3.15415000E-06	 4.60568000E-03	-1.11224000E-05
		-8.34606000E-04	 4.48597000E-03	-1.55221000E-04
		 9.64266000E-06	 5.04201000E-03	-5.15469000E-06
		-9.30752000E-04	 4.93968000E-03	-1.36402000E-04
		 6.80398000E-06	 3.97783000E-03	-2.66587000E-07
		-4.51278000E-04	 4.56908000E-03	-6.47641000E-05
		-7.68586000E-04	 3.87609000E-03	-8.22818000E-04
		 8.73114000E-04	 4.47426000E-03	 1.28081000E-04
		 9.36580000E-04	 4.94827000E-03	 1.20254000E-04
		 8.19063000E-04	 3.92309000E-03	 8.14163000E-04
		 4.25014000E-04	 4.58874000E-03	 4.41720000E-05
		 1.39660000E-05	 5.53075000E-03	-3.78675000E-05
		-1.17875000E-03	 5.47858000E-03	 1.15354000E-03
		-6.21687000E-07	 4.45838000E-03	-2.01679000E-05
		-9.94157000E-04	 4.39487000E-03	 1.16692000E-03
		-3.38808000E-06	 6.44382000E-03	 1.27951000E-05
		-5.82938000E-04	 5.52424000E-03	 5.52181000E-04
		-1.21750000E-03	 6.38246000E-03	 5.37032000E-04
		 2.19071000E-06	 4.98839000E-03	-1.16399000E-05
		-1.07253000E-03	 4.91643000E-03	 1.15997000E-03
		-2.99684000E-05	 5.33703000E-03	 1.11478000E-05
		-4.96275000E-04	 4.44885000E-03	 5.66867000E-04
		-1.03910000E-03	 5.21913000E-03	 5.56389000E-04
		 1.16774000E-03	 5.44318000E-03	-1.19034000E-03
		 9.64801000E-04	 4.36515000E-03	-1.18084000E-03
		 1.16081000E-03	 6.32906000E-03	-5.32377000E-04
		 5.71971000E-04	 5.51304000E-03	-6.17556000E-04
		 1.06930000E-03	 4.88177000E-03	-1.21138000E-03
		 1.00897000E-03	 5.23645000E-03	-5.44168000E-04
		 4.79840000E-04	 4.44387000E-03	-6.15102000E-04
		-1.41074000E-05	 3.58096000E-03	 7.84531000E-06
		-8.08944000E-04	 3.50373000E-03	 1.18105000E-03
		-1.35237000E-05	 4.00830000E-03	-1.64258000E-05
		-9.05051000E-04	 3.91273000E-03	 1.14597000E-03
		-2.75984000E-05	 4.41890000E-03	-1.08935000E-05
		-4.00417000E-04	 3.55726000E-03	 6.00905000E-04
		-8.57136000E-04	 4.32092000E-03	 5.19240000E-04
		 7.77391000E-04	 3.50410000E-03	-1.19302000E-03
		 8.88453000E-04	 3.91418000E-03	-1.17675000E-03
		 7.89120000E-04	 4.32424000E-03	-5.30051000E-04
		 3.78088000E-04	 3.54420000E-03	-5.73342000E-04
		-1.92675000E-05	 2.02329000E-03	 4.36287000E-05
		-1.26536000E-03	 1.92137000E-03	 2.43270000E-03
		-1.22673000E-05	 8.75455000E-04	-3.13155000E-05
		-1.05565000E-03	 7.68940000E-04	 2.38669000E-03
		 1.12757000E-05	 4.08594000E-03	-8.39280000E-06
		-6.43036000E-04	 1.99567000E-03	 1.23973000E-03
		-1.17280000E-03	 3.95699000E-03	 1.79886000E-03
		-1.38650000E-05	 1.41567000E-03	 1.41865000E-06
		-1.17036000E-03	 1.31321000E-03	 2.38765000E-03
		 2.55223000E-05	 2.98320000E-03	-2.81788000E-05
		-5.35198000E-04	 8.35287000E-04	 1.18323000E-03
		-1.00178000E-03	 2.89039000E-03	 1.77215000E-03
		 1.26005000E-03	 1.99381000E-03	-2.37871000E-03
		 1.06475000E-03	 8.06067000E-04	-2.41525000E-03
		 1.21660000E-03	 4.02168000E-03	-1.80241000E-03
		 6.32957000E-04	 2.03335000E-03	-1.18499000E-03
		 1.15935000E-03	 1.35183000E-03	-2.35934000E-03
		 1.04306000E-03	 2.89693000E-03	-1.82279000E-03
		 5.30617000E-04	 8.49419000E-04	-1.21484000E-03
		-2.47702000E-06	-1.06782000E-04	-6.79287000E-05
		-8.87469000E-04	-2.43665000E-04	 2.31913000E-03
		-2.45630000E-06	 3.32339000E-04	-3.69517000E-05
		-9.64430000E-04	 2.52714000E-04	 2.39755000E-03
		 7.34823000E-06	 2.06546000E-03	-3.68304000E-05
		-4.41780000E-04	-1.36256000E-04	 1.10043000E-03
		-7.67789000E-04	 1.97728000E-03	 1.78480000E-03
		 9.28276000E-04	-2.06059000E-04	-2.46229000E-03
		 9.84383000E-04	 3.08675000E-04	-2.43759000E-03
		 8.06115000E-04	 1.98910000E-03	-1.84573000E-03
		 4.64857000E-04	-1.24880000E-04	-1.24382000E-03
		 1.59781000E-05	-4.06813000E-03	-1.27952000E-05
		-1.15464000E-03	-4.14703000E-03	 3.27741000E-03
		 2.92156000E-05	-5.13774000E-03	 4.00486000E-05
		-1.00625000E-03	-5.23449000E-03	 3.33602000E-03
		-3.00029000E-05	-7.76051000E-04	 2.70056000E-05
		-5.45551000E-04	-4.06637000E-03	 1.61773000E-03
		-1.26711000E-03	-8.63228000E-04	 2.91235000E-03
		 2.68865000E-05	-4.63441000E-03	 5.31554000E-06
		-1.08729000E-03	-4.74041000E-03	 3.32254000E-03
		-1.95079000E-05	-1.92084000E-03	-3.28458000E-06
		-4.78244000E-04	-5.18768000E-03	 1.67251000E-03
		-1.08928000E-03	-1.97768000E-03	 2.91966000E-03
		 1.15499000E-03	-4.15831000E-03	-3.34114000E-03
		 1.01109000E-03	-5.22367000E-03	-3.30735000E-03
		 1.19555000E-03	-8.45532000E-04	-2.89276000E-03
		 5.97847000E-04	-4.10982000E-03	-1.65360000E-03
		 1.07100000E-03	-4.68559000E-03	-3.36258000E-03
		 1.04512000E-03	-1.96965000E-03	-2.91005000E-03
		 5.26431000E-04	-5.15648000E-03	-1.61640000E-03
		 5.98140000E-05	-6.16620000E-03	 4.36884000E-05
		-9.16685000E-04	-6.18969000E-03	 3.36217000E-03
		 1.80878000E-05	-5.63601000E-03	 2.10349000E-05
		-9.48925000E-04	-5.74860000E-03	 3.32746000E-03
		 1.16093000E-05	-2.93406000E-03	-1.88984000E-05
		-4.30704000E-04	-6.15277000E-03	 1.67971000E-03
		-9.55672000E-04	-3.02869000E-03	 2.91267000E-03
		 9.46664000E-04	-6.14466000E-03	-3.29369000E-03
		 1.01345000E-03	-5.69129000E-03	-3.30259000E-03
		 9.46966000E-04	-2.98448000E-03	-2.93613000E-03
		 4.72217000E-04	-6.15607000E-03	-1.58515000E-03
		-6.54448000E-06	-1.14948000E-02	-8.18599000E-05
		-1.01169000E-03	-1.15824000E-02	 3.77484000E-03
		-7.12167000E-07	-1.25676000E-02	-9.14602000E-05
		-1.02112000E-03	-1.26118000E-02	 3.76391000E-03
		 3.48196000E-05	-7.65445000E-03	-2.69759000E-05
		-5.27313000E-04	-1.15309000E-02	 1.82738000E-03
		-1.05522000E-03	-7.70591000E-03	 3.59682000E-03
		 1.76343000E-05	-1.20482000E-02	-8.42264000E-05
		-1.04307000E-03	-1.20486000E-02	 3.79883000E-03
		 1.78390000E-05	-8.70254000E-03	-1.21481000E-05
		-4.96357000E-04	-1.25897000E-02	 1.83383000E-03
		-1.01062000E-03	-8.77287000E-03	 3.59842000E-03
		 1.12344000E-03	-1.14998000E-02	-3.88260000E-03
		 1.09521000E-03	-1.25886000E-02	-3.90681000E-03
		 1.14727000E-03	-7.67529000E-03	-3.64773000E-03
		 5.38828000E-04	-1.14962000E-02	-1.96437000E-03
		 1.09632000E-03	-1.20680000E-02	-3.93576000E-03
		 1.06243000E-03	-8.72099000E-03	-3.63686000E-03
		 5.38819000E-04	-1.25595000E-02	-1.98896000E-03
		-2.28502000E-05	-1.35576000E-02	-4.46329000E-05
		-9.55934000E-04	-1.35691000E-02	 3.78591000E-03
		-2.87170000E-05	-1.30781000E-02	-5.67797000E-05
		-9.77921000E-04	-1.30570000E-02	 3.78053000E-03
		 4.08443000E-06	-9.69667000E-03	 1.85140000E-05
		-4.89292000E-04	-1.35478000E-02	 1.84328000E-03
		-9.38467000E-04	-9.76753000E-03	 3.60878000E-03
		 9.63512000E-04	-1.36722000E-02	-3.88802000E-03
		 1.01839000E-03	-1.31219000E-02	-3.91000000E-03
		 9.85646000E-04	-9.81044000E-03	-3.63705000E-03
		 5.14151000E-04	-1.36272000E-02	-1.97704000E-03
		-1.52048000E-05	-1.95250000E-02	-7.51264000E-06
		-1.07860000E-03	-1.95605000E-02	 3.93165000E-03
		-1.86468000E-05	-2.05831000E-02	-1.27456000E-04
		-1.04879000E-03	-2.06307000E-02	 3.86374000E-03
		-1.74040000E-07	-1.54409000E-02	-8.02571000E-05
		-5.28400000E-04	-1.95664000E-02	 1.94932000E-03
		-1.05627000E-03	-1.55176000E-02	 3.85615000E-03
		-4.11547000E-05	-2.00534000E-02	-8.35067000E-05
		-1.03932000E-03	-2.01002000E-02	 3.89326000E-03
		 1.31208000E-06	-1.65210000E-02	-1.09908000E-04
		-5.32141000E-04	-2.05844000E-02	 1.85631000E-03
		-1.03254000E-03	-1.65853000E-02	 3.85385000E-03
		 9.94829000E-04	-1.95810000E-02	-4.23122000E-03
		 1.04326000E-03	-2.06034000E-02	-4.21477000E-03
		 1.13152000E-03	-1.54388000E-02	-4.06722000E-03
		 5.28387000E-04	-1.95349000E-02	-2.09024000E-03
		 1.04185000E-03	-2.00436000E-02	-4.18991000E-03
		 1.09097000E-03	-1.65417000E-02	-4.10294000E-03
		 5.08979000E-04	-2.06295000E-02	-2.11883000E-03
		 3.26329000E-06	-2.16535000E-02	-8.41333000E-05
		-9.80235000E-04	-2.15614000E-02	 3.93073000E-03
		 1.65877000E-05	-2.11330000E-02	-1.30267000E-04
		-1.02913000E-03	-2.11315000E-02	 3.87159000E-03
		 7.77362000E-06	-1.75861000E-02	-8.25387000E-05
		-5.12031000E-04	-2.16167000E-02	 1.94318000E-03
		-1.04149000E-03	-1.76268000E-02	 3.89796000E-03
		 1.12257000E-03	-2.17099000E-02	-4.18860000E-03
		 1.08395000E-03	-2.11128000E-02	-4.23106000E-03
		 1.03677000E-03	-1.76091000E-02	-4.04840000E-03
		 5.32412000E-04	-2.16506000E-02	-2.13266000E-03
		 4.41116000E-04	-2.77720000E-02	-3.58976000E-04
		-7.14192000E-04	-2.82849000E-02	 4.11008000E-03
		 5.99316000E-05	-2.87560000E-02	-5.12316000E-05
		-9.85568000E-04	-2.92370000E-02	 4.14168000E-03
		 6.88248000E-06	-2.36534000E-02	-1.87923000E-04
		-1.79806000E-04	-2.79829000E-02	 1.82543000E-03
		-1.00880000E-03	-2.37045000E-02	 3.95159000E-03
		 2.67897000E-04	-2.82839000E-02	-1.34653000E-04
		-8.67213000E-04	-2.87130000E-02	 4.22092000E-03
		 6.37333000E-05	-2.46676000E-02	-1.13443000E-04
		-5.20383000E-04	-2.90080000E-02	 1.95802000E-03
		-9.46787000E-04	-2.47254000E-02	 4.02403000E-03
		 1.24745000E-03	-2.73155000E-02	-3.94724000E-03
		 1.20626000E-03	-2.83214000E-02	-3.90919000E-03
		 1.08793000E-03	-2.36839000E-02	-4.09573000E-03
		 7.86437000E-04	-2.75420000E-02	-2.27498000E-03
		 1.21051000E-03	-2.78842000E-02	-3.93924000E-03
		 1.13836000E-03	-2.46469000E-02	-4.10620000E-03
		 5.73513000E-04	-2.85192000E-02	-2.08866000E-03
		-2.60885000E-04	-2.97962000E-02	-5.04782000E-04
		-1.21239000E-03	-2.97791000E-02	 3.54902000E-03
		-1.10366000E-04	-2.92774000E-02	-2.25843000E-04
		-1.09799000E-03	-2.94791000E-02	 3.96297000E-03
		 9.64222000E-05	-2.57313000E-02	-2.36937000E-04
		-7.91980000E-04	-2.97975000E-02	 1.55916000E-03
		-8.47940000E-04	-2.56330000E-02	 3.74565000E-03
		 1.03535000E-03	-2.97407000E-02	-4.39984000E-03
		 1.11767000E-03	-2.90936000E-02	-4.09712000E-03
		 1.16368000E-03	-2.57930000E-02	-4.29298000E-03
		 3.51600000E-04	-2.97787000E-02	-2.40903000E-03
		 0.00000000E+00	 0.00000000E+00	 0.00000000E+00
		 0.00000000E+00	 0.00000000E+00	 0.00000000E+00
		 1.08591000E-04	-1.98680000E-02	-3.44254000E-04
		-3.20580000E-03	-2.12691000E-02	 1.69328000E-02
		 0.00000000E+00	 0.00000000E+00	 0.00000000E+00
		 0.00000000E+00	 0.00000000E+00	 0.00000000E+00
		 2.00418000E-05	-2.22121000E-02	-4.26436000E-04
		-1.30223000E-03	-2.34991000E-02	 1.71229000E-02
		 0.00000000E+00	 0.00000000E+00	 0.00000000E+00
		 5.85907000E-05	-4.79986000E-03	-1.35797000E-04
		-1.62255000E-03	-2.01677000E-02	 8.11332000E-03
		-3.18021000E-03	-6.43401000E-03	 9.13663000E-03
		 0.00000000E+00	 0.00000000E+00	 0.00000000E+00
		 0.00000000E+00	 0.00000000E+00	 0.00000000E+00
		 7.34516000E-05	-2.13530000E-02	-3.93812000E-04
		-2.25710000E-03	-2.26198000E-02	 1.69345000E-02
		 0.00000000E+00	 0.00000000E+00	 0.00000000E+00
		 3.70297000E-05	-6.58444000E-03	-1.40805000E-04
		-6.65739000E-04	-2.24677000E-02	 8.02762000E-03
		-6.38618000E-04	-8.18421000E-03	 8.88425000E-03
		 0.00000000E+00	 0.00000000E+00	 0.00000000E+00
		 3.15457000E-03	-2.04825000E-02	-1.77897000E-02
		 0.00000000E+00	 0.00000000E+00	 0.00000000E+00
		 1.30778000E-03	-2.26025000E-02	-1.80705000E-02
		 0.00000000E+00	 0.00000000E+00	 0.00000000E+00
		 3.18364000E-03	-6.19066000E-03	-9.38114000E-03
		 1.75050000E-03	-1.98063000E-02	-8.82993000E-03
		 0.00000000E+00	 0.00000000E+00	 0.00000000E+00
		 2.21946000E-03	-2.17662000E-02	-1.78011000E-02
		 0.00000000E+00	 0.00000000E+00	 0.00000000E+00
		 6.38600000E-04	-7.96380000E-03	-9.21564000E-03
		 6.76109000E-04	-2.19826000E-02	-8.94158000E-03
		 0.00000000E+00	 0.00000000E+00	 0.00000000E+00
		 0.00000000E+00	 0.00000000E+00	 0.00000000E+00
		 1.12371000E-05	-2.25514000E-02	-3.81167000E-04
		 5.83017000E-04	-2.36805000E-02	 1.68940000E-02
		 0.00000000E+00	 0.00000000E+00	 0.00000000E+00
		 0.00000000E+00	 0.00000000E+00	 0.00000000E+00
		 6.22802000E-06	-2.26901000E-02	-3.93766000E-04
		-3.61001000E-04	-2.39184000E-02	 1.71491000E-02
		 0.00000000E+00	 0.00000000E+00	 0.00000000E+00
		-2.15995000E-05	-6.06742000E-03	-7.26552000E-05
		 2.81103000E-04	-2.27077000E-02	 7.76963000E-03
		 1.95987000E-03	-7.62853000E-03	 9.14569000E-03
		 0.00000000E+00	 0.00000000E+00	 0.00000000E+00
		-5.86892000E-04	-2.30461000E-02	-1.78037000E-02
		 0.00000000E+00	 0.00000000E+00	 0.00000000E+00
		 3.77150000E-04	-2.31660000E-02	-1.81181000E-02
		 0.00000000E+00	 0.00000000E+00	 0.00000000E+00
		-2.04121000E-03	-7.35324000E-03	-9.41259000E-03
		-2.78578000E-04	-2.24496000E-02	-8.61787000E-03
		 1.73158000E-04	-6.71333000E-02	-1.39397000E-03
		-4.58404000E-03	-6.86665000E-02	 2.69081000E-02
		 1.22029000E-04	-7.11570000E-02	-1.63819000E-03
		-3.27889000E-03	-7.27881000E-02	 2.67960000E-02
		 6.52190000E-05	-4.07634000E-02	-7.82596000E-04
		-2.25185000E-03	-6.77699000E-02	 1.27891000E-02
		-3.74248000E-03	-4.24090000E-02	 2.26988000E-02
		 1.53693000E-04	-6.92894000E-02	-1.53984000E-03
		-3.93273000E-03	-7.08092000E-02	 2.67461000E-02
		 8.68360000E-05	-4.39317000E-02	-9.01018000E-04
		-1.54645000E-03	-7.18253000E-02	 1.24969000E-02
		-2.27055000E-03	-4.53924000E-02	 2.26462000E-02
		 4.84264000E-03	-6.68333000E-02	-2.98750000E-02
		 3.52229000E-03	-7.09318000E-02	-3.01829000E-02
		 3.97568000E-03	-4.11457000E-02	-2.43971000E-02
		 2.51088000E-03	-6.68507000E-02	-1.56648000E-02
		 4.17769000E-03	-6.89973000E-02	-2.99392000E-02
		 2.45091000E-03	-4.42402000E-02	-2.45676000E-02
		 1.78224000E-03	-7.09259000E-02	-1.57699000E-02
		 7.90854000E-05	-7.39953000E-02	-1.75976000E-03
		-1.86433000E-03	-7.53249000E-02	 2.66432000E-02
		 1.09733000E-04	-7.26847000E-02	-1.71265000E-03
		-2.60114000E-03	-7.42833000E-02	 2.68536000E-02
		 4.95704000E-05	-4.54890000E-02	-9.35955000E-04
		-9.46076000E-04	-7.45304000E-02	 1.21232000E-02
		-5.47370000E-04	-4.68779000E-02	 2.25758000E-02
		 2.24681000E-03	-7.37705000E-02	-3.02434000E-02
		 2.89493000E-03	-7.24904000E-02	-3.04184000E-02
		 8.13270000E-04	-4.57093000E-02	-2.45102000E-02
		 1.15551000E-03	-7.37625000E-02	-1.56696000E-02
		 2.61182000E-04	-1.31543000E-01	-3.56148000E-03
		-5.90751000E-03	-1.33250000E-01	 3.16555000E-02
		 2.99645000E-04	-1.37267000E-01	-3.83654000E-03
		-5.12793000E-03	-1.39081000E-01	 3.14668000E-02
		 1.57108000E-04	-9.75907000E-02	-2.38440000E-03
		-2.84212000E-03	-1.32302000E-01	 1.40043000E-02
		-5.31481000E-03	-9.92306000E-02	 2.98916000E-02
		 2.81103000E-04	-1.34522000E-01	-3.66091000E-03
		-5.50758000E-03	-1.36287000E-01	 3.14610000E-02
		 1.34134000E-04	-1.02562000E-01	-2.62219000E-03
		-2.47917000E-03	-1.38084000E-01	 1.36438000E-02
		-4.22878000E-03	-1.04122000E-01	 2.96941000E-02
		 6.41299000E-03	-1.30518000E-01	-3.87896000E-02
		 5.56571000E-03	-1.36378000E-01	-3.91312000E-02
		 5.67432000E-03	-9.70047000E-02	-3.46238000E-02
		 3.28508000E-03	-1.30948000E-01	-2.11474000E-02
		 5.97954000E-03	-1.33602000E-01	-3.89069000E-02
		 4.63151000E-03	-1.01980000E-01	-3.49983000E-02
		 2.97281000E-03	-1.36732000E-01	-2.13556000E-02
		 2.69674000E-04	-1.42316000E-01	-4.06000000E-03
		-4.34600000E-03	-1.44123000E-01	 3.10442000E-02
		 2.81440000E-04	-1.39942000E-01	-3.97054000E-03
		-4.72132000E-03	-1.41580000E-01	 3.14739000E-02
		 1.70133000E-04	-1.06453000E-01	-2.81658000E-03
		-2.00270000E-03	-1.43089000E-01	 1.32354000E-02
		-3.18141000E-03	-1.08035000E-01	 2.94073000E-02
		 4.98390000E-03	-1.41430000E-01	-3.94023000E-02
		 5.26707000E-03	-1.38937000E-01	-3.94785000E-02
		 3.57985000E-03	-1.05948000E-01	-3.51587000E-02
		 2.59297000E-03	-1.41793000E-01	-2.14023000E-02
		 5.22932000E-04	-2.06300000E-01	-6.22118000E-03
		-6.30195000E-03	-2.08068000E-01	 3.19377000E-02
		 5.02006000E-04	-2.13202000E-01	-6.65043000E-03
		-6.20028000E-03	-2.15186000E-01	 3.16102000E-02
		 3.46734000E-04	-1.68187000E-01	-4.85851000E-03
		-2.89153000E-03	-2.07170000E-01	 1.28246000E-02
		-6.18306000E-03	-1.69893000E-01	 3.22513000E-02
		 5.10579000E-04	-2.09734000E-01	-6.44962000E-03
		-6.25052000E-03	-2.11505000E-01	 3.17763000E-02
		 3.92332000E-04	-1.74538000E-01	-5.21212000E-03
		-2.71603000E-03	-2.14133000E-01	 1.23935000E-02
		-5.73719000E-03	-1.76173000E-01	 3.20428000E-02
		 7.24185000E-03	-2.04821000E-01	-4.44315000E-02
		 7.15221000E-03	-2.11591000E-01	-4.48470000E-02
		 6.91490000E-03	-1.66953000E-01	-4.19636000E-02
		 3.88508000E-03	-2.05521000E-01	-2.52631000E-02
		 7.21218000E-03	-2.08211000E-01	-4.46093000E-02
		 6.49048000E-03	-1.73296000E-01	-4.24111000E-02
		 3.79258000E-03	-2.12362000E-01	-2.56592000E-02
		 4.20267000E-04	-2.19963000E-01	-7.03995000E-03
		-5.91761000E-03	-2.22208000E-01	 3.12071000E-02
		 4.73047000E-04	-2.16501000E-01	-6.81297000E-03
		-6.07990000E-03	-2.19264000E-01	 3.14857000E-02
		 4.02801000E-04	-1.80488000E-01	-5.65256000E-03
		-2.92797000E-03	-2.21040000E-01	 1.19296000E-02
		-5.19560000E-03	-1.81973000E-01	 3.16252000E-02
		 7.06084000E-03	-2.18226000E-01	-4.52156000E-02