<?xml version="1.0"?>
<VTKFile type="UnstructuredGrid" version="0.1" byte_order="LittleEndian">
	<UnstructuredGrid>
		<Piece NumberOfPoints="522" NumberOfCells="64">
			<Points>
				<DataArray type="Float64" NumberOfComponents="3" format="ascii">
					 1.00000000E+00	 1.00000000E+00	-5.96046000E-08
					 1.00000000E+00	 5.00000000E-01	-5.96046000E-08
					 1.00000000E+00	 5.00000000E-01	 1.00000000E+00
					 1.00000000E+00	 1.00000000E+00	 1.00000000E+00
					 5.00000000E-01	 1.00000000E+00	-5.96046000E-08
					 5.00000000E-01	 5.00000000E-01	-5.96046000E-08
					 5.00000000E-01	 5.00000000E-01	 1.00000000E+00
					 5.00000000E-01	 1.00000000E+00	 1.00000000E+00
					 1.00000000E+00	 7.50000000E-01	-5.96046000E-08
					 1.00000000E+00	 5.00000000E-01	 5.00000000E-01
					 1.00000000E+00	 7.50000000E-01	 1.00000000E+00
					 1.00000000E+00	 1.00000000E+00	 5.00000000E-01
					 7.50000000E-01	 1.00000000E+00	-5.96046000E-08
					 7.50000000E-01	 5.00000000E-01	-5.96046000E-08
					 7.50000000E-01	 5.00000000E-01	 1.00000000E+00
					 7.50000000E-01	 1.00000000E+00	 1.00000000E+00
					 5.00000000E-01	 7.50000000E-01	-5.96046000E-08
					 5.00000000E-01	 5.00000000E-01	 5.00000000E-01
					 5.00000000E-01	 7.50000000E-01	 1.00000000E+00
					 5.00000000E-01	 1.00000000E+00	 5.00000000E-01
					 1.00000000E+00	-1.49012000E-08	-5.96046000E-08
					 1.00000000E+00	-1.49012000E-08	 1.00000000E+00
					 5.00000000E-01	-1.49012000E-08	-5.96046000E-08
					 5.00000000E-01	-1.49012000E-08	 1.00000000E+00
					 1.00000000E+00	 2.50000000E-01	-5.96046000E-08
					 1.00000000E+00	-1.49012000E-08	 5.00000000E-01
					 1.00000000E+00	 2.50000000E-01	 1.00000000E+00
					 7.50000000E-01	-1.49012000E-08	-5.96046000E-08
					 7.50000000E-01	-1.49012000E-08	 1.00000000E+00
					 5.00000000E-01	 2.50000000E-01	-5.96046000E-08
					 5.00000000E-01	-1.49012000E-08	 5.00000000E-01
					 5.00000000E-01	 2.50000000E-01	 1.00000000E+00
					-7.45058000E-09	 1.00000000E+00	-5.96046000E-08
					-7.45058000E-09	 5.00000000E-01	-5.96046000E-08
					-7.45058000E-09	 5.00000000E-01	 1.00000000E+00
					-7.45058000E-09	 1.00000000E+00	 1.00000000E+00
					 2.50000000E-01	 1.00000000E+00	-5.96046000E-08
					 2.50000000E-01	 5.00000000E-01	-5.96046000E-08
					 2.50000000E-01	 5.00000000E-01	 1.00000000E+00
					 2.50000000E-01	 1.00000000E+00	 1.00000000E+00
					-7.45058000E-09	 7.50000000E-01	-5.96046000E-08
					-7.45058000E-09	 5.00000000E-01	 5.00000000E-01
					-7.45058000E-09	 7.50000000E-01	 1.00000000E+00
					-7.45058000E-09	 1.00000000E+00	 5.00000000E-01
					-7.45058000E-09	-1.49012000E-08	-5.96046000E-08
					-7.45058000E-09	-1.49012000E-08	 1.00000000E+00
					 2.50000000E-01	-1.49012000E-08	-5.96046000E-08
					 2.50000000E-01	-1.49012000E-08	 1.00000000E+00
					-7.45058000E-09	 2.50000000E-01	-5.96046000E-08
					-7.45058000E-09	-1.49012000E-08	 5.00000000E-01
					-7.45058000E-09	 2.50000000E-01	 1.00000000E+00
					 1.00000000E+00	 5.00000000E-01	 2.00000000E+00
					 1.00000000E+00	 1.00000000E+00	 2.00000000E+00
					 5.00000000E-01	 5.00000000E-01	 2.00000000E+00
					 5.00000000E-01	 1.00000000E+00	 2.00000000E+00
					 1.00000000E+00	 5.00000000E-01	 1.50000000E+00
					 1.00000000E+00	 7.50000000E-01	 2.00000000E+00
					 1.00000000E+00	 1.00000000E+00	 1.50000000E+00
					 7.50000000E-01	 5.00000000E-01	 2.00000000E+00
					 7.50000000E-01	 1.00000000E+00	 2.00000000E+00
					 5.00000000E-01	 5.00000000E-01	 1.50000000E+00
					 5.00000000E-01	 7.50000000E-01	 2.00000000E+00
					 5.00000000E-01	 1.00000000E+00	 1.50000000E+00
					 1.00000000E+00	-1.49012000E-08	 2.00000000E+00
					 5.00000000E-01	-1.49012000E-08	 2.00000000E+00
					 1.00000000E+00	-1.49012000E-08	 1.50000000E+00
					 1.00000000E+00	 2.50000000E-01	 2.00000000E+00
					 7.50000000E-01	-1.49012000E-08	 2.00000000E+00
					 5.00000000E-01	-1.49012000E-08	 1.50000000E+00
					 5.00000000E-01	 2.50000000E-01	 2.00000000E+00
					-7.45058000E-09	 5.00000000E-01	 2.00000000E+00
					-7.45058000E-09	 1.00000000E+00	 2.00000000E+00
					 2.50000000E-01	 5.00000000E-01	 2.00000000E+00
					 2.50000000E-01	 1.00000000E+00	 2.00000000E+00
					-7.45058000E-09	 5.00000000E-01	 1.50000000E+00
					-7.45058000E-09	 7.50000000E-01	 2.00000000E+00
					-7.45058000E-09	 1.00000000E+00	 1.50000000E+00
					-7.45058000E-09	-1.49012000E-08	 2.00000000E+00
					 2.50000000E-01	-1.49012000E-08	 2.00000000E+00
					-7.45058000E-09	-1.49012000E-08	 1.50000000E+00
					-7.45058000E-09	 2.50000000E-01	 2.00000000E+00
					 1.00000000E+00	 5.00000000E-01	 3.00000000E+00
					 1.00000000E+00	 1.00000000E+00	 3.00000000E+00
					 5.00000000E-01	 5.00000000E-01	 3.00000000E+00
					 5.00000000E-01	 1.00000000E+00	 3.00000000E+00
					 1.00000000E+00	 5.00000000E-01	 2.50000000E+00
					 1.00000000E+00	 7.50000000E-01	 3.00000000E+00
					 1.00000000E+00	 1.00000000E+00	 2.50000000E+00
					 7.50000000E-01	 5.00000000E-01	 3.00000000E+00
					 7.50000000E-01	 1.00000000E+00	 3.00000000E+00
					 5.00000000E-01	 5.00000000E-01	 2.50000000E+00
					 5.00000000E-01	 7.50000000E-01	 3.00000000E+00
					 5.00000000E-01	 1.00000000E+00	 2.50000000E+00
					 1.00000000E+00	-1.49012000E-08	 3.00000000E+00
					 5.00000000E-01	-1.49012000E-08	 3.00000000E+00
					 1.00000000E+00	-1.49012000E-08	 2.50000000E+00
					 1.00000000E+00	 2.50000000E-01	 3.00000000E+00
					 7.50000000E-01	-1.49012000E-08	 3.00000000E+00
					 5.00000000E-01	-1.49012000E-08	 2.50000000E+00
					 5.00000000E-01	 2.50000000E-01	 3.00000000E+00
					-7.45058000E-09	 5.00000000E-01	 3.00000000E+00
					-7.45058000E-09	 1.00000000E+00	 3.00000000E+00
					 2.50000000E-01	 5.00000000E-01	 3.00000000E+00
					 2.50000000E-01	 1.00000000E+00	 3.00000000E+00
					-7.45058000E-09	 5.00000000E-01	 2.50000000E+00
					-7.45058000E-09	 7.50000000E-01	 3.00000000E+00
					-7.45058000E-09	 1.00000000E+00	 2.50000000E+00
					-7.45058000E-09	-1.49012000E-08	 3.00000000E+00
					 2.50000000E-01	-1.49012000E-08	 3.00000000E+00
					-7.45058000E-09	-1.49012000E-08	 2.50000000E+00
					-7.45058000E-09	 2.50000000E-01	 3.00000000E+00
					 1.00000000E+00	 5.00000000E-01	 4.00000000E+00
					 1.00000000E+00	 1.00000000E+00	 4.00000000E+00
					 5.00000000E-01	 5.00000000E-01	 4.00000000E+00
					 5.00000000E-01	 1.00000000E+00	 4.00000000E+00
					 1.00000000E+00	 5.00000000E-01	 3.50000000E+00
					 1.00000000E+00	 7.50000000E-01	 4.00000000E+00
					 1.00000000E+00	 1.00000000E+00	 3.50000000E+00
					 7.50000000E-01	 5.00000000E-01	 4.00000000E+00
					 7.50000000E-01	 1.00000000E+00	 4.00000000E+00
					 5.00000000E-01	 5.00000000E-01	 3.50000000E+00
					 5.00000000E-01	 7.50000000E-01	 4.00000000E+00
					 5.00000000E-01	 1.00000000E+00	 3.50000000E+00
					 1.00000000E+00	-1.49012000E-08	 4.00000000E+00
					 5.00000000E-01	-1.49012000E-08	 4.00000000E+00
					 1.00000000E+00	-1.49012000E-08	 3.50000000E+00
					 1.00000000E+00	 2.50000000E-01	 4.00000000E+00
					 7.50000000E-01	-1.49012000E-08	 4.00000000E+00
					 5.00000000E-01	-1.49012000E-08	 3.50000000E+00
					 5.00000000E-01	 2.50000000E-01	 4.00000000E+00
					-7.45058000E-09	 5.00000000E-01	 4.00000000E+00
					-7.45058000E-09	 1.00000000E+00	 4.00000000E+00
					 2.50000000E-01	 5.00000000E-01	 4.00000000E+00
					 2.50000000E-01	 1.00000000E+00	 4.00000000E+00
					-7.45058000E-09	 5.00000000E-01	 3.50000000E+00
					-7.45058000E-09	 7.50000000E-01	 4.00000000E+00
					-7.45058000E-09	 1.00000000E+00	 3.50000000E+00
					-7.45058000E-09	-1.49012000E-08	 4.00000000E+00
					 2.50000000E-01	-1.49012000E-08	 4.00000000E+00
					-7.45058000E-09	-1.49012000E-08	 3.50000000E+00
					-7.45058000E-09	 2.50000000E-01	 4.00000000E+00
					 1.00000000E+00	 5.00000000E-01	 5.00000000E+00
					 1.00000000E+00	 1.00000000E+00	 5.00000000E+00
					 5.00000000E-01	 5.00000000E-01	 5.00000000E+00
					 5.00000000E-01	 1.00000000E+00	 5.00000000E+00
					 1.00000000E+00	 5.00000000E-01	 4.50000000E+00
					 1.00000000E+00	 7.50000000E-01	 5.00000000E+00
					 1.00000000E+00	 1.00000000E+00	 4.50000000E+00
					 7.50000000E-01	 5.00000000E-01	 5.00000000E+00
					 7.50000000E-01	 1.00000000E+00	 5.00000000E+00
					 5.00000000E-01	 5.00000000E-01	 4.50000000E+00
					 5.00000000E-01	 7.50000000E-01	 5.00000000E+00
					 5.00000000E-01	 1.00000000E+00	 4.50000000E+00
					 1.00000000E+00	-1.49012000E-08	 5.00000000E+00
					 5.00000000E-01	-1.49012000E-08	 5.00000000E+00
					 1.00000000E+00	-1.49012000E-08	 4.50000000E+00
					 1.00000000E+00	 2.50000000E-01	 5.00000000E+00
					 7.50000000E-01	-1.49012000E-08	 5.00000000E+00
					 5.00000000E-01	-1.49012000E-08	 4.50000000E+00
					 5.00000000E-01	 2.50000000E-01	 5.00000000E+00
					-7.45058000E-09	 5.00000000E-01	 5.00000000E+00
					-7.45058000E-09	 1.00000000E+00	 5.00000000E+00
					 2.50000000E-01	 5.00000000E-01	 5.00000000E+00
					 2.50000000E-01	 1.00000000E+00	 5.00000000E+00
					-7.45058000E-09	 5.00000000E-01	 4.50000000E+00
					-7.45058000E-09	 7.50000000E-01	 5.00000000E+00
					-7.45058000E-09	 1.00000000E+00	 4.50000000E+00
					-7.45058000E-09	-1.49012000E-08	 5.00000000E+00
					 2.50000000E-01	-1.49012000E-08	 5.00000000E+00
					-7.45058000E-09	-1.49012000E-08	 4.50000000E+00
					-7.45058000E-09	 2.50000000E-01	 5.00000000E+00
					 1.00000000E+00	 5.00000000E-01	 6.00000000E+00
					 1.00000000E+00	 1.00000000E+00	 6.00000000E+00
					 5.00000000E-01	 5.00000000E-01	 6.00000000E+00
					 5.00000000E-01	 1.00000000E+00	 6.00000000E+00
					 1.00000000E+00	 5.00000000E-01	 5.50000000E+00
					 1.00000000E+00	 7.50000000E-01	 6.00000000E+00
					 1.00000000E+00	 1.00000000E+00	 5.50000000E+00
					 7.50000000E-01	 5.00000000E-01	 6.00000000E+00
					 7.50000000E-01	 1.00000000E+00	 6.00000000E+00
					 5.00000000E-01	 5.00000000E-01	 5.50000000E+00
					 5.00000000E-01	 7.50000000E-01	 6.00000000E+00
					 5.00000000E-01	 1.00000000E+00	 5.50000000E+00
					 1.00000000E+00	-1.49012000E-08	 6.00000000E+00
[...]
			<PointData>
				<DataArray type="Float32" Name="U" NumberOfComponents="3" ComponentName0="D1" ComponentName1="D2" ComponentName2="D3" format="ascii">
					 0.00000000E+00	 0.00000000E+00	 0.00000000E+00
					 0.00000000E+00	 0.00000000E+00	 0.00000000E+00
					 1.10187000E-06	 6.20174000E-03	-1.01786000E-04
					-7.98443000E-04	 6.43309000E-03	-4.61085000E-03
					 0.00000000E+00	 0.00000000E+00	 0.00000000E+00
					 0.00000000E+00	 0.00000000E+00	 0.00000000E+00
					-9.93644000E-06	 5.09609000E-03	-1.00001000E-04
					-1.39870000E-03	 5.35720000E-03	-4.66667000E-03
					 0.00000000E+00	 0.00000000E+00	 0.00000000E+00
					 1.11797000E-05	 1.73109000E-03	-4.21221000E-05
					-4.01622000E-04	 6.21308000E-03	-2.16510000E-03
					 3.37751000E-05	 2.08406000E-03	-2.33306000E-03
					 0.00000000E+00	 0.00000000E+00	 0.00000000E+00
					 0.00000000E+00	 0.00000000E+00	 0.00000000E+00
					-4.63035000E-06	 5.74646000E-03	-1.02194000E-04
					-1.10143000E-03	 5.99629000E-03	-4.77029000E-03
					 0.00000000E+00	 0.00000000E+00	 0.00000000E+00
					-3.09382000E-06	 1.34827000E-03	-4.10823000E-05
					-7.02865000E-04	 5.11736000E-03	-2.31871000E-03
					-6.88237000E-04	 1.73429000E-03	-2.26908000E-03
					 0.00000000E+00	 0.00000000E+00	 0.00000000E+00
					 7.95633000E-04	 6.45825000E-03	 4.40259000E-03
					 0.00000000E+00	 0.00000000E+00	 0.00000000E+00
					 1.37730000E-03	 5.38554000E-03	 4.46013000E-03
					 0.00000000E+00	 0.00000000E+00	 0.00000000E+00
					-1.38971000E-05	 2.07591000E-03	 2.24369000E-03
					 4.01673000E-04	 6.22318000E-03	 1.96164000E-03
					 0.00000000E+00	 0.00000000E+00	 0.00000000E+00
					 1.08970000E-03	 6.02565000E-03	 4.55888000E-03
					 0.00000000E+00	 0.00000000E+00	 0.00000000E+00
					 6.81208000E-04	 1.72663000E-03	 2.18152000E-03
					 6.82555000E-04	 5.13143000E-03	 2.11717000E-03
					 0.00000000E+00	 0.00000000E+00	 0.00000000E+00
					 0.00000000E+00	 0.00000000E+00	 0.00000000E+00
					-1.91906000E-05	 3.42604000E-03	-8.98195000E-05
					-1.98422000E-03	 3.66713000E-03	-4.59975000E-03
					 0.00000000E+00	 0.00000000E+00	 0.00000000E+00
					 0.00000000E+00	 0.00000000E+00	 0.00000000E+00
					-1.48825000E-05	 4.36145000E-03	-9.54216000E-05
					-1.68770000E-03	 4.61044000E-03	-4.50979000E-03
					 0.00000000E+00	 0.00000000E+00	 0.00000000E+00
					-1.64082000E-05	 3.61771000E-04	-4.02580000E-05
					-1.00345000E-03	 3.44164000E-03	-2.40710000E-03
					-1.35558000E-03	 7.66854000E-04	-2.33241000E-03
					 0.00000000E+00	 0.00000000E+00	 0.00000000E+00
					 1.94836000E-03	 3.69840000E-03	 4.41372000E-03
					 0.00000000E+00	 0.00000000E+00	 0.00000000E+00
					 1.65760000E-03	 4.63925000E-03	 4.31375000E-03
					 0.00000000E+00	 0.00000000E+00	 0.00000000E+00
					 1.32415000E-03	 7.61501000E-04	 2.24459000E-03
					 9.66270000E-04	 3.45893000E-03	 2.22523000E-03
					-3.66394000E-05	 2.09758000E-02	-2.80803000E-04
					-2.34623000E-03	 2.10696000E-02	-7.92450000E-03
					-3.87378000E-05	 1.85291000E-02	-2.59030000E-04
					-2.63093000E-03	 1.86137000E-02	-7.94062000E-03
					-1.46770000E-05	 1.27876000E-02	-1.81455000E-04
					-1.18811000E-03	 2.09967000E-02	-3.93498000E-03
					-1.60922000E-03	 1.30004000E-02	-6.51519000E-03
					-3.80598000E-05	 1.97849000E-02	-2.71007000E-04
					-2.48916000E-03	 1.98682000E-02	-8.02189000E-03
					-2.19349000E-05	 1.09712000E-02	-1.70899000E-04
					-1.33625000E-03	 1.85441000E-02	-4.01679000E-03
					-2.07171000E-03	 1.11712000E-02	-6.54183000E-03
					 2.27024000E-03	 2.11813000E-02	 7.35853000E-03
					 2.55133000E-03	 1.87307000E-02	 7.41792000E-03
					 1.57543000E-03	 1.30672000E-02	 6.14442000E-03
					 1.11409000E-03	 2.10468000E-02	 3.37256000E-03
					 2.41067000E-03	 1.99857000E-02	 7.47538000E-03
					 2.02571000E-03	 1.12438000E-02	 6.19213000E-03
					 1.25832000E-03	 1.85999000E-02	 3.49771000E-03
					-3.88994000E-05	 1.57939000E-02	-2.31606000E-04
					-2.93497000E-03	 1.58621000E-02	-7.87480000E-03
					-3.89063000E-05	 1.71908000E-02	-2.45916000E-04
					-2.78463000E-03	 1.72728000E-02	-7.86875000E-03
					-2.71677000E-05	 8.69057000E-03	-1.52104000E-04
					-1.48382000E-03	 1.57980000E-02	-4.01327000E-03
					-2.55773000E-03	 8.87341000E-03	-6.48537000E-03
					 2.85572000E-03	 1.59828000E-02	 7.40754000E-03
					 2.70494000E-03	 1.73901000E-02	 7.37251000E-03
					 2.50353000E-03	 8.94940000E-03	 6.17387000E-03
					 1.40588000E-03	 1.58572000E-02	 3.54934000E-03
					-8.04598000E-05	 3.90808000E-02	-4.97986000E-04
					-3.36057000E-03	 3.90117000E-02	-8.91270000E-03
					-7.82404000E-05	 3.58314000E-02	-4.56441000E-04
					-3.32322000E-03	 3.57456000E-02	-8.89080000E-03
					-5.96464000E-05	 2.99841000E-02	-3.89559000E-04
					-1.71630000E-03	 3.90520000E-02	-4.63053000E-03
					-2.94685000E-03	 2.99945000E-02	-8.66086000E-03
					-7.94013000E-05	 3.74539000E-02	-4.77223000E-04
					-3.34231000E-03	 3.73714000E-02	-8.93915000E-03
					-5.89338000E-05	 2.70552000E-02	-3.56863000E-04
					-1.70126000E-03	 3.57942000E-02	-4.63420000E-03
					-3.04924000E-03	 2.70486000E-02	-8.66402000E-03
					 3.19804000E-03	 3.91617000E-02	 7.91735000E-03
					 3.16716000E-03	 3.58984000E-02	 7.97919000E-03
					 2.82562000E-03	 3.01333000E-02	 7.88048000E-03
					 1.55492000E-03	 3.91250000E-02	 3.63455000E-03
					 3.18291000E-03	 3.75243000E-02	 7.98572000E-03
					 2.93066000E-03	 2.71914000E-02	 7.94904000E-03
					 1.54505000E-03	 3.58697000E-02	 3.72145000E-03
					-7.43208000E-05	 3.25909000E-02	-4.15503000E-04
					-3.30076000E-03	 3.25050000E-02	-8.82952000E-03
					-7.67562000E-05	 3.42079000E-02	-4.35698000E-04
					-3.31245000E-03	 3.41210000E-02	-8.84283000E-03
					-5.65511000E-05	 2.40046000E-02	-3.22531000E-04
					-1.68959000E-03	 3.25526000E-02	-4.60213000E-03
					-3.16768000E-03	 2.39955000E-02	-8.59364000E-03
					 3.15371000E-03	 3.26566000E-02	 7.99997000E-03
					 3.16028000E-03	 3.42731000E-02	 7.97281000E-03
					 3.05469000E-03	 2.41385000E-02	 7.94692000E-03
					 1.54147000E-03	 3.26276000E-02	 3.77135000E-03
					-9.35109000E-05	 5.57833000E-02	-6.87593000E-04
					-3.48890000E-03	 5.56971000E-02	-8.68636000E-03
					-8.94198000E-05	 5.24317000E-02	-6.35722000E-04
					-3.41606000E-03	 5.23335000E-02	-8.62945000E-03
					-9.21308000E-05	 4.77047000E-02	-5.98252000E-04
					-1.78825000E-03	 5.57493000E-02	-4.71778000E-03
					-3.52519000E-03	 4.76242000E-02	-8.83614000E-03
					-9.12457000E-05	 5.41003000E-02	-6.60977000E-04
					-3.45230000E-03	 5.40048000E-02	-8.63788000E-03
					-8.87874000E-05	 4.43216000E-02	-5.49660000E-04
					-1.75368000E-03	 5.23918000E-02	-4.64507000E-03
					-3.44436000E-03	 4.42242000E-02	-8.79039000E-03
					 3.29995000E-03	 5.58354000E-02	 7.31161000E-03
					 3.23704000E-03	 5.24735000E-02	 7.35866000E-03
					 3.33895000E-03	 4.77701000E-02	 7.63981000E-03
					 1.60059000E-03	 5.58195000E-02	 3.34243000E-03
					 3.26848000E-03	 5.41436000E-02	 7.31658000E-03
					 3.26683000E-03	 4.43726000E-02	 7.69194000E-03
					 1.57476000E-03	 5.24626000E-02	 3.37373000E-03
					-8.50919000E-05	 4.91313000E-02	-5.83852000E-04
					-3.35845000E-03	 4.90296000E-02	-8.58250000E-03
					-8.74403000E-05	 5.07727000E-02	-6.10413000E-04
					-3.38832000E-03	 5.06738000E-02	-8.61737000E-03
					-8.44293000E-05	 4.09942000E-02	-5.01656000E-04
					-1.72165000E-03	 4.90891000E-02	-4.58368000E-03
					-3.38124000E-03	 4.08946000E-02	-8.73894000E-03
					 3.18988000E-03	 4.91685000E-02	 7.41545000E-03
					 3.21442000E-03	 5.08140000E-02	 7.39718000E-03
					 3.21382000E-03	 4.10425000E-02	 7.73681000E-03
					 1.55188000E-03	 4.91587000E-02	 3.41623000E-03
					-9.17373000E-05	 7.08989000E-02	-8.39553000E-04
					-2.99352000E-03	 7.08458000E-02	-8.69159000E-03
					-8.92582000E-05	 6.79932000E-02	-7.93943000E-04
					-3.00586000E-03	 6.79362000E-02	-8.63689000E-03
					-9.13463000E-05	 6.34369000E-02	-7.65377000E-04
					-1.54184000E-03	 7.08696000E-02	-4.83351000E-03
					-3.28886000E-03	 6.33683000E-02	-8.63298000E-03
					-9.04957000E-05	 6.94482000E-02	-8.17558000E-04
					-2.99994000E-03	 6.93931000E-02	-8.61546000E-03
					-8.77010000E-05	 6.02594000E-02	-7.16216000E-04
					-1.54770000E-03	 6.79625000E-02	-4.73461000E-03
					-3.25693000E-03	 6.01821000E-02	-8.57553000E-03
					 2.80757000E-03	 7.09732000E-02	 7.01212000E-03
					 2.82579000E-03	 6.80669000E-02	 7.04923000E-03
					 3.10434000E-03	 6.35006000E-02	 7.10206000E-03
					 1.35769000E-03	 7.09352000E-02	 3.15443000E-03
					 2.81672000E-03	 6.95209000E-02	 6.98013000E-03
					 3.08095000E-03	 6.03159000E-02	 7.14338000E-03
					 1.36874000E-03	 6.80286000E-02	 3.14674000E-03
					-8.58494000E-05	 6.50686000E-02	-7.47210000E-04
					-3.02046000E-03	 6.50099000E-02	-8.59853000E-03
					-8.77679000E-05	 6.65329000E-02	-7.70019000E-04
					-3.01339000E-03	 6.64748000E-02	-8.65695000E-03
					-8.36711000E-05	 5.71003000E-02	-6.66507000E-04
					-1.55293000E-03	 6.50375000E-02	-4.65151000E-03
					-3.23797000E-03	 5.70181000E-02	-8.53366000E-03
					 2.84832000E-03	 6.51425000E-02	 7.10487000E-03
					 2.83698000E-03	 6.66079000E-02	 7.11761000E-03
					 3.07169000E-03	 5.71511000E-02	 7.20125000E-03
					 1.38114000E-03	 6.51032000E-02	 3.15703000E-03
					-7.81980000E-05	 8.60785000E-02	-9.98356000E-04
					-2.34321000E-03	 8.60603000E-02	-9.30119000E-03
					-7.79086000E-05	 8.37452000E-02	-9.47576000E-04
					-2.47121000E-03	 8.37341000E-02	-9.24199000E-03
					-8.96280000E-05	 7.83543000E-02	-9.17308000E-04
					-1.21333000E-03	 8.60513000E-02	-5.20174000E-03
					-2.65063000E-03	 7.83201000E-02	-8.91415000E-03
					-7.83143000E-05	 8.49264000E-02	-9.72737000E-04
					-2.40727000E-03	 8.49159000E-02	-9.23695000E-03
					-8.84779000E-05	 7.57588000E-02	-8.70230000E-04
					-1.27357000E-03	 8.37220000E-02	-5.11347000E-03
					-2.71895000E-03	 7.57260000E-02	-8.85512000E-03
					 2.18305000E-03	 8.61971000E-02	 7.30395000E-03
					 2.31285000E-03	 8.38769000E-02	 7.34577000E-03
					 2.46773000E-03	 7.84477000E-02	 7.07943000E-03
					 1.05602000E-03	 8.61216000E-02	 3.20489000E-03
					 2.24728000E-03	 8.50549000E-02	 7.29070000E-03
					 2.53951000E-03	 7.58594000E-02	 7.11452000E-03
					 1.11712000E-03	 8.37944000E-02	 3.21812000E-03
					-7.52592000E-05	 8.12971000E-02	-8.94678000E-04
					-2.58392000E-03	 8.12871000E-02	-9.19754000E-03
					-7.70263000E-05	 8.25380000E-02	-9.21934000E-04
					-2.52724000E-03	 8.25253000E-02	-9.24362000E-03
					-8.54367000E-05	 7.30974000E-02	-8.21413000E-04
					-1.32994000E-03	 8.12760000E-02	-5.04027000E-03
					-2.77832000E-03	 7.30657000E-02	-8.81820000E-03
					 2.43190000E-03	 8.14342000E-02	 7.40682000E-03
					 2.37139000E-03	 8.26712000E-02	 7.39842000E-03
					 2.60582000E-03	 7.32037000E-02	 7.17525000E-03
					 1.17911000E-03	 8.13494000E-02	 3.25078000E-03
					-4.78745000E-05	 1.03573000E-01	-1.17861000E-03
					-2.27719000E-03	 1.03536000E-01	-1.03808000E-02
					-4.61050000E-05	 1.01288000E-01	-1.12272000E-03
					-2.38650000E-03	 1.01254000E-01	-1.03316000E-02
					-6.16703000E-05	 9.44438000E-02	-1.08394000E-03
					-1.16404000E-03	 1.03540000E-01	-5.73217000E-03
					-2.20106000E-03	 9.44116000E-02	-9.84547000E-03
					-4.67766000E-05	 1.02444000E-01	-1.15103000E-03
					-2.33177000E-03	 1.02409000E-01	-1.03845000E-02
					-6.11638000E-05	 9.22234000E-02	-1.03100000E-03
					-1.21645000E-03	 1.01256000E-01	-5.70446000E-03
					-2.35040000E-03	 9.22043000E-02	-9.79333000E-03
					 2.17779000E-03	 1.03708000E-01	 8.02189000E-03
					 2.29125000E-03	 1.01431000E-01	 8.08451000E-03
					 2.07443000E-03	 9.45659000E-02	 7.67660000E-03
					 1.06721000E-03	 1.03624000E-01	 3.37464000E-03
					 2.23456000E-03	 1.02585000E-01	 8.08055000E-03
					 2.22561000E-03	 9.23637000E-02	 7.72986000E-03
					 1.12321000E-03	 1.01344000E-01	 3.45863000E-03
					-4.35014000E-05	 9.88991000E-02	-1.06347000E-03
					-2.48838000E-03	 9.88639000E-02	-1.02581000E-02
					-4.51182000E-05	 1.00109000E-01	-1.09351000E-03
					-2.43786000E-03	 1.00074000E-01	-1.02812000E-02
					-5.91532000E-05	 8.98724000E-02	-9.75556000E-04
					-1.26623000E-03	 9.88673000E-02	-5.65239000E-03
					-2.47594000E-03	 8.98583000E-02	-9.73553000E-03
					 2.39965000E-03	 9.90438000E-02	 8.12976000E-03
					 2.34528000E-03	 1.00252000E-01	 8.09287000E-03
					 2.35656000E-03	 9.00202000E-02	 7.78282000E-03
					 1.17866000E-03	 9.89573000E-02	 3.52491000E-03
					-2.14197000E-05	 1.22879000E-01	-1.37739000E-03
					-2.55823000E-03	 1.22810000E-01	-1.08895000E-02
					-1.37752000E-05	 1.20349000E-01	-1.31278000E-03
					-2.54254000E-03	 1.20263000E-01	-1.08238000E-02
					-3.57902000E-05	 1.13222000E-01	-1.28020000E-03
					-1.28787000E-03	 1.22847000E-01	-6.11064000E-03
					-2.45753000E-03	 1.13157000E-01	-1.07209000E-02
					-1.77290000E-05	 1.21616000E-01	-1.34547000E-03
					-2.54958000E-03	 1.21537000E-01	-1.08727000E-02
					-3.13874000E-05	 1.10780000E-01	-1.21912000E-03
					-1.27510000E-03	 1.20309000E-01	-6.05790000E-03
					-2.50014000E-03	 1.10710000E-01	-1.06636000E-02
					 2.51330000E-03	 1.23000000E-01	 8.13463000E-03
					 2.51216000E-03	 1.20455000E-01	 8.19756000E-03
					 2.38301000E-03	 1.13341000E-01	 8.15962000E-03
					 1.24436000E-03	 1.22941000E-01	 3.35542000E-03
					 2.51159000E-03	 1.21728000E-01	 8.18168000E-03
					 2.43437000E-03	 1.10898000E-01	 8.22429000E-03
					 1.24647000E-03	 1.20404000E-01	 3.43195000E-03
					-5.99961000E-06	 1.17800000E-01	-1.24405000E-03
					-2.54200000E-03	 1.17705000E-01	-1.07295000E-02
					-9.76085000E-06	 1.19070000E-01	-1.27886000E-03
					-2.54323000E-03	 1.18981000E-01	-1.07713000E-02
					-2.66375000E-05	 1.08290000E-01	-1.15401000E-03
					-1.27113000E-03	 1.17754000E-01	-5.98116000E-03
					-2.54133000E-03	 1.08215000E-01	-1.05759000E-02
					 2.52670000E-03	 1.17899000E-01	 8.24000000E-03
					 2.52050000E-03	 1.19173000E-01	 8.21231000E-03
					 2.48520000E-03	 1.08407000E-01	 8.26676000E-03
					 1.25825000E-03	 1.17851000E-01	 3.49250000E-03
					 0.00000000E+00	 0.00000000E+00	 0.00000000E+00
					 0.00000000E+00	 0.00000000E+00	 0.00000000E+00
					-9.48500000E-06	-5.77460000E-03	 5.82487000E-05
					-5.31447000E-04	-6.11799000E-03	 5.32721000E-03
					 0.00000000E+00	 0.00000000E+00	 0.00000000E+00
					 0.00000000E+00	 0.00000000E+00	 0.00000000E+00
					 3.05225000E-06	-5.94185000E-03	 5.22793000E-05
					 1.68626000E-04	-6.31399000E-03	 5.38542000E-03
					 0.00000000E+00	 0.00000000E+00	 0.00000000E+00
					-7.16320000E-06	-1.31574000E-03	 3.15227000E-05
					-2.69875000E-04	-5.82303000E-03	 2.61133000E-03
					-7.11889000E-04	-1.77743000E-03	 2.70618000E-03
					 0.00000000E+00	 0.00000000E+00	 0.00000000E+00
					 0.00000000E+00	 0.00000000E+00	 0.00000000E+00
					-2.84526000E-06	-5.97468000E-03	 5.43643000E-05
					-1.76539000E-04	-6.33408000E-03	 5.36943000E-03
					 0.00000000E+00	 0.00000000E+00	 0.00000000E+00
					 2.45391000E-06	-1.57197000E-03	 2.70722000E-05
					 8.46892000E-05	-6.00019000E-03	 2.64746000E-03
					 9.96653000E-05	-2.04356000E-03	 2.62799000E-03
					 0.00000000E+00	 0.00000000E+00	 0.00000000E+00
					 5.09151000E-04	-6.02836000E-03	-5.21988000E-03
					 0.00000000E+00	 0.00000000E+00	 0.00000000E+00
					-1.61708000E-04	-6.22131000E-03	-5.29198000E-03
					 0.00000000E+00	 0.00000000E+00	 0.00000000E+00
					 6.94835000E-04	-1.72987000E-03	-2.64105000E-03
					 2.49824000E-04	-5.77902000E-03	-2.49773000E-03
					 0.00000000E+00	 0.00000000E+00	 0.00000000E+00
					 1.69654000E-04	-6.24092000E-03	-5.27147000E-03
					 0.00000000E+00	 0.00000000E+00	 0.00000000E+00
					-9.42387000E-05	-1.99685000E-03	-2.57104000E-03
					-7.96978000E-05	-5.95391000E-03	-2.54754000E-03
					 0.00000000E+00	 0.00000000E+00	 0.00000000E+00
					 0.00000000E+00	 0.00000000E+00	 0.00000000E+00
					 1.46430000E-05	-5.44342000E-03	 5.52443000E-05
					 8.70446000E-04	-5.78622000E-03	 5.32474000E-03
					 0.00000000E+00	 0.00000000E+00	 0.00000000E+00
					 0.00000000E+00	 0.00000000E+00	 0.00000000E+00
					 8.83235000E-06	-5.80974000E-03	 5.12582000E-05
					 5.14682000E-04	-6.16153000E-03	 5.34408000E-03
					 0.00000000E+00	 0.00000000E+00	 0.00000000E+00
					 1.18253000E-05	-1.12122000E-03	 3.20850000E-05
					 4.43002000E-04	-5.49266000E-03	 2.63044000E-03
					 9.03759000E-04	-1.59024000E-03	 2.70652000E-03
					 0.00000000E+00	 0.00000000E+00	 0.00000000E+00
					-8.40460000E-04	-5.69353000E-03	-5.22429000E-03
					 0.00000000E+00	 0.00000000E+00	 0.00000000E+00
					-4.97225000E-04	-6.07443000E-03	-5.25154000E-03
					 0.00000000E+00	 0.00000000E+00	 0.00000000E+00
					-8.79310000E-04	-1.54122000E-03	-2.64147000E-03
					-4.12962000E-04	-5.44642000E-03	-2.52434000E-03
					-3.06695000E-05	-2.15012000E-02	 4.53265000E-05
					-3.94430000E-04	-2.17885000E-02	 9.08064000E-03
					-1.10261000E-05	-2.16893000E-02	 2.07988000E-05
					-2.01348000E-05	-2.19640000E-02	 9.09884000E-03
					-1.57186000E-05	-1.26737000E-02	 6.26876000E-05
					-2.15366000E-04	-2.16057000E-02	 4.48124000E-03
					-4.22254000E-04	-1.30388000E-02	 7.49593000E-03
					-2.09061000E-05	-2.16352000E-02	 3.14634000E-05
					-2.06084000E-04	-2.19109000E-02	 9.08324000E-03
					-1.32251000E-06	-1.28067000E-02	 4.92348000E-05
					-8.80475000E-06	-2.17862000E-02	 4.47051000E-03
					 1.45720000E-04	-1.31611000E-02	 7.52308000E-03
					 3.37442000E-04	-2.15809000E-02	-8.99701000E-03
					-4.10403000E-06	-2.17685000E-02	-9.06373000E-03
					 3.89048000E-04	-1.28911000E-02	-7.38220000E-03
					 1.54744000E-04	-2.15047000E-02	-4.39318000E-03
					 1.67547000E-04	-2.17136000E-02	-9.02413000E-03
					-1.47729000E-04	-1.30170000E-02	-7.43663000E-03
					-9.15924000E-06	-2.16917000E-02	-4.42759000E-03
					-1.97003000E-07	-2.15172000E-02	 5.28816000E-06
					 3.91453000E-04	-2.17565000E-02	 9.03817000E-03
					-5.19647000E-06	-2.16375000E-02	 1.26346000E-05
					 1.87912000E-04	-2.19325000E-02	 9.12653000E-03
					 1.04204000E-05	-1.23824000E-02	 4.67775000E-05
					 1.84967000E-04	-2.15922000E-02	 4.37851000E-03
					 7.39176000E-04	-1.27140000E-02	 7.47983000E-03
					-3.64890000E-04	-2.15856000E-02	-9.03569000E-03
					-1.85216000E-04	-2.17197000E-02	-9.11239000E-03
					-7.06162000E-04	-1.25812000E-02	-7.39637000E-03
					-1.77899000E-04	-2.15111000E-02	-4.36506000E-03
					-8.56285000E-05	-4.16104000E-02	-6.15024000E-06
					-8.58672000E-04	-4.17057000E-02	 1.01141000E-02
					-6.12374000E-05	-4.23660000E-02	-6.33409000E-05
					-8.25244000E-04	-4.25487000E-02	 1.00812000E-02
					-5.08413000E-05	-3.14198000E-02	 1.86612000E-05
					-4.71845000E-04	-4.16599000E-02	 5.05828000E-03
					-5.20912000E-04	-3.16376000E-02	 9.89094000E-03
					-7.09243000E-05	-4.19913000E-02	-2.96786000E-05
					-8.43185000E-04	-4.21391000E-02	 1.00315000E-02
					-2.98894000E-05	-3.18161000E-02	-2.14881000E-05
					-4.67690000E-04	-4.24640000E-02	 4.93295000E-03
					-3.43164000E-04	-3.20261000E-02	 9.89541000E-03
					 6.57372000E-04	-4.14916000E-02	-1.01086000E-02
					 7.09091000E-04	-4.22567000E-02	-1.02246000E-02
					 4.17288000E-04	-3.13998000E-02	-9.85359000E-03
					 2.89751000E-04	-4.15546000E-02	-5.05935000E-03
					 6.82365000E-04	-4.18670000E-02	-1.01010000E-02
					 2.91021000E-04	-3.17835000E-02	-9.94058000E-03
					 3.23612000E-04	-4.23214000E-02	-5.07927000E-03
					-5.18477000E-05	-4.31274000E-02	-1.23136000E-04
					-8.86308000E-04	-4.34180000E-02	 9.99334000E-03
					-5.50616000E-05	-4.27585000E-02	-9.68168000E-05
					-8.56687000E-04	-4.28659000E-02	 1.01398000E-02
					-9.17813000E-06	-3.20470000E-02	-5.79287000E-05
					-4.37134000E-04	-4.32819000E-02	 4.75164000E-03
					-1.82899000E-04	-3.22706000E-02	 9.81556000E-03
					 7.48478000E-04	-4.30549000E-02	-1.02843000E-02
					 7.29814000E-04	-4.26463000E-02	-1.03526000E-02
					 1.32111000E-04	-3.20124000E-02	-9.93790000E-03
					 3.37397000E-04	-4.31094000E-02	-5.04171000E-03
					-1.74003000E-04	-6.05633000E-02	-1.78358000E-05
					-2.03831000E-03	-6.05018000E-02	 9.34529000E-03