# vtk DataFile Version 3.0

ASCII
DATASET UNSTRUCTURED_GRID

POINTS 522 double
	 1.00000000E+00	 1.00000000E+00	-5.96046000E-08
	 1.00000000E+00	 5.00000000E-01	-5.96046000E-08
	 1.00000000E+00	 5.00000000E-01	 1.00000000E+00
	 1.00000000E+00	 1.00000000E+00	 1.00000000E+00
	 5.00000000E-01	 1.00000000E+00	-5.96046000E-08
	 5.00000000E-01	 5.00000000E-01	-5.96046000E-08
	 5.00000000E-01	 5.00000000E-01	 1.00000000E+00
	 5.00000000E-01	 1.00000000E+00	 1.00000000E+00
	 1.00000000E+00	 7.50000000E-01	-5.96046000E-08
	 1.00000000E+00	 5.00000000E-01	 5.00000000E-01
	 1.00000000E+00	 7.50000000E-01	 1.00000000E+00
	 1.00000000E+00	 1.00000000E+00	 5.00000000E-01
	 7.50000000E-01	 1.00000000E+00	-5.96046000E-08
	 7.50000000E-01	 5.00000000E-01	-5.96046000E-08
	 7.50000000E-01	 5.00000000E-01	 1.00000000E+00
	 7.50000000E-01	 1.00000000E+00	 1.00000000E+00
	 5.00000000E-01	 7.50000000E-01	-5.96046000E-08
	 5.00000000E-01	 5.00000000E-01	 5.00000000E-01
	 5.00000000E-01	 7.50000000E-01	 1.00000000E+00
	 5.00000000E-01	 1.00000000E+00	 5.00000000E-01
	 1.00000000E+00	-1.49012000E-08	-5.96046000E-08
	 1.00000000E+00	-1.49012000E-08	 1.00000000E+00
	 5.00000000E-01	-1.49012000E-08	-5.96046000E-08
	 5.00000000E-01	-1.49012000E-08	 1.00000000E+00
	 1.00000000E+00	 2.50000000E-01	-5.96046000E-08
	 1.00000000E+00	-1.49012000E-08	 5.00000000E-01
	 1.00000000E+00	 2.50000000E-01	 1.00000000E+00
	 7.50000000E-01	-1.49012000E-08	-5.96046000E-08
	 7.50000000E-01	-1.49012000E-08	 1.00000000E+00
	 5.00000000E-01	 2.50000000E-01	-5.96046000E-08
	 5.00000000E-01	-1.49012000E-08	 5.00000000E-01
	 5.00000000E-01	 2.50000000E-01	 1.00000000E+00
	-7.45058000E-09	 1.00000000E+00	-5.96046000E-08
	-7.45058000E-09	 5.00000000E-01	-5.96046000E-08
	-7.45058000E-09	 5.00000000E-01	 1.00000000E+00
	-7.45058000E-09	 1.00000000E+00	 1.00000000E+00
	 2.50000000E-01	 1.00000000E+00	-5.96046000E-08
	 2.50000000E-01	 5.00000000E-01	-5.96046000E-08
	 2.50000000E-01	 5.00000000E-01	 1.00000000E+00
	 2.50000000E-01	 1.00000000E+00	 1.00000000E+00
	-7.45058000E-09	 7.50000000E-01	-5.96046000E-08
	-7.45058000E-09	 5.00000000E-01	 5.00000000E-01
	-7.45058000E-09	 7.50000000E-01	 1.00000000E+00
	-7.45058000E-09	 1.00000000E+00	 5.00000000E-01
	-7.45058000E-09	-1.49012000E-08	-5.96046000E-08
	-7.45058000E-09	-1.49012000E-08	 1.00000000E+00
	 2.50000000E-01	-1.49012000E-08	-5.96046000E-08
	 2.50000000E-01	-1.49012000E-08	 1.00000000E+00
	-7.45058000E-09	 2.50000000E-01	-5.96046000E-08
	-7.45058000E-09	-1.49012000E-08	 5.00000000E-01
	-7.45058000E-09	 2.50000000E-01	 1.00000000E+00
	 1.00000000E+00	 5.00000000E-01	 2.00000000E+00
	 1.00000000E+00	 1.00000000E+00	 2.00000000E+00
	 5.00000000E-01	 5.00000000E-01	 2.00000000E+00
	 5.00000000E-01	 1.00000000E+00	 2.00000000E+00
	 1.00000000E+00	 5.00000000E-01	 1.50000000E+00
	 1.00000000E+00	 7.50000000E-01	 2.00000000E+00
	 1.00000000E+00	 1.00000000E+00	 1.50000000E+00
	 7.50000000E-01	 5.00000000E-01	 2.00000000E+00
	 7.50000000E-01	 1.00000000E+00	 2.00000000E+00
	 5.00000000E-01	 5.00000000E-01	 1.50000000E+00
	 5.00000000E-01	 7.50000000E-01	 2.00000000E+00
	 5.00000000E-01	 1.00000000E+00	 1.50000000E+00
	 1.00000000E+00	-1.49012000E-08	 2.00000000E+00
	 5.00000000E-01	-1.49012000E-08	 2.00000000E+00
	 1.00000000E+00	-1.49012000E-08	 1.50000000E+00
	 1.00000000E+00	 2.50000000E-01	 2.00000000E+00
	 7.50000000E-01	-1.49012000E-08	 2.00000000E+00
	 5.00000000E-01	-1.49012000E-08	 1.50000000E+00
	 5.00000000E-01	 2.50000000E-01	 2.00000000E+00
	-7.45058000E-09	 5.00000000E-01	 2.00000000E+00
	-7.45058000E-09	 1.00000000E+00	 2.00000000E+00
	 2.50000000E-01	 5.00000000E-01	 2.00000000E+00
	 2.50000000E-01	 1.00000000E+00	 2.00000000E+00
	-7.45058000E-09	 5.00000000E-01	 1.50000000E+00
	-7.45058000E-09	 7.50000000E-01	 2.00000000E+00
	-7.45058000E-09	 1.00000000E+00	 1.50000000E+00
	-7.45058000E-09	-1.49012000E-08	 2.00000000E+00
	 2.50000000E-01	-1.49012000E-08	 2.00000000E+00
	-7.45058000E-09	-1.49012000E-08	 1.50000000E+00
	-7.45058000E-09	 2.50000000E-01	 2.00000000E+00
	 1.00000000E+00	 5.00000000E-01	 3.00000000E+00
	 1.00000000E+00	 1.00000000E+00	 3.00000000E+00
	 5.00000000E-01	 5.00000000E-01	 3.00000000E+00
	 5.00000000E-01	 1.00000000E+00	 3.00000000E+00
	 1.00000000E+00	 5.00000000E-01	 2.50000000E+00
	 1.00000000E+00	 7.50000000E-01	 3.00000000E+00
	 1.00000000E+00	 1.00000000E+00	 2.50000000E+00
	 7.50000000E-01	 5.00000000E-01	 3.00000000E+00
	 7.50000000E-01	 1.00000000E+00	 3.00000000E+00
	 5.00000000E-01	 5.00000000E-01	 2.50000000E+00
	 5.00000000E-01	 7.50000000E-01	 3.00000000E+00
	 5.00000000E-01	 1.00000000E+00	 2.50000000E+00
	 1.00000000E+00	-1.49012000E-08	 3.00000000E+00
	 5.00000000E-01	-1.49012000E-08	 3.00000000E+00
	 1.00000000E+00	-1.49012000E-08	 2.50000000E+00
	 1.00000000E+00	 2.50000000E-01	 3.00000000E+00
	 7.50000000E-01	-1.49012000E-08	 3.00000000E+00
	 5.00000000E-01	-1.49012000E-08	 2.50000000E+00
	 5.00000000E-01	 2.50000000E-01	 3.00000000E+00
	-7.45058000E-09	 5.00000000E-01	 3.00000000E+00
	-7.45058000E-09	 1.00000000E+00	 3.00000000E+00
	 2.50000000E-01	 5.00000000E-01	 3.00000000E+00
	 2.50000000E-01	 1.00000000E+00	 3.00000000E+00
	-7.45058000E-09	 5.00000000E-01	 2.50000000E+00
	-7.45058000E-09	 7.50000000E-01	 3.00000000E+00
	-7.45058000E-09	 1.00000000E+00	 2.50000000E+00
	-7.45058000E-09	-1.49012000E-08	 3.00000000E+00
	 2.50000000E-01	-1.49012000E-08	 3.00000000E+00
	-7.45058000E-09	-1.49012000E-08	 2.50000000E+00
	-7.45058000E-09	 2.50000000E-01	 3.00000000E+00
	 1.00000000E+00	 5.00000000E-01	 4.00000000E+00
	 1.00000000E+00	 1.00000000E+00	 4.00000000E+00
	 5.00000000E-01	 5.00000000E-01	 4.00000000E+00
	 5.00000000E-01	 1.00000000E+00	 4.00000000E+00
	 1.00000000E+00	 5.00000000E-01	 3.50000000E+00
	 1.00000000E+00	 7.50000000E-01	 4.00000000E+00
	 1.00000000E+00	 1.00000000E+00	 3.50000000E+00
	 7.50000000E-01	 5.00000000E-01	 4.00000000E+00
	 7.50000000E-01	 1.00000000E+00	 4.00000000E+00
	 5.00000000E-01	 5.00000000E-01	 3.50000000E+00
	 5.00000000E-01	 7.50000000E-01	 4.00000000E+00
	 5.00000000E-01	 1.00000000E+00	 3.50000000E+00
	 1.00000000E+00	-1.49012000E-08	 4.00000000E+00
	 5.00000000E-01	-1.49012000E-08	 4.00000000E+00
	 1.00000000E+00	-1.49012000E-08	 3.50000000E+00
	 1.00000000E+00	 2.50000000E-01	 4.00000000E+00
	 7.50000000E-01	-1.49012000E-08	 4.00000000E+00
	 5.00000000E-01	-1.49012000E-08	 3.50000000E+00
	 5.00000000E-01	 2.50000000E-01	 4.00000000E+00
	-7.45058000E-09	 5.00000000E-01	 4.00000000E+00
	-7.45058000E-09	 1.00000000E+00	 4.00000000E+00
	 2.50000000E-01	 5.00000000E-01	 4.00000000E+00
	 2.50000000E-01	 1.00000000E+00	 4.00000000E+00
	-7.45058000E-09	 5.00000000E-01	 3.50000000E+00
	-7.45058000E-09	 7.50000000E-01	 4.00000000E+00
	-7.45058000E-09	 1.00000000E+00	 3.50000000E+00
	-7.45058000E-09	-1.49012000E-08	 4.00000000E+00
	 2.50000000E-01	-1.49012000E-08	 4.00000000E+00
	-7.45058000E-09	-1.49012000E-08	 3.50000000E+00
	-7.45058000E-09	 2.50000000E-01	 4.00000000E+00
	 1.00000000E+00	 5.00000000E-01	 5.00000000E+00
	 1.00000000E+00	 1.00000000E+00	 5.00000000E+00
	 5.00000000E-01	 5.00000000E-01	 5.00000000E+00
	 5.00000000E-01	 1.00000000E+00	 5.00000000E+00
	 1.00000000E+00	 5.00000000E-01	 4.50000000E+00
	 1.00000000E+00	 7.50000000E-01	 5.00000000E+00
	 1.00000000E+00	 1.00000000E+00	 4.50000000E+00
	 7.50000000E-01	 5.00000000E-01	 5.00000000E+00
	 7.50000000E-01	 1.00000000E+00	 5.00000000E+00
	 5.00000000E-01	 5.00000000E-01	 4.50000000E+00
	 5.00000000E-01	 7.50000000E-01	 5.00000000E+00
	 5.00000000E-01	 1.00000000E+00	 4.50000000E+00
	 1.00000000E+00	-1.49012000E-08	 5.00000000E+00
	 5.00000000E-01	-1.49012000E-08	 5.00000000E+00
	 1.00000000E+00	-1.49012000E-08	 4.50000000E+00
	 1.00000000E+00	 2.50000000E-01	 5.00000000E+00
	 7.50000000E-01	-1.49012000E-08	 5.00000000E+00
	 5.00000000E-01	-1.49012000E-08	 4.50000000E+00
	 5.00000000E-01	 2.50000000E-01	 5.00000000E+00
	-7.45058000E-09	 5.00000000E-01	 5.00000000E+00
	-7.45058000E-09	 1.00000000E+00	 5.00000000E+00
	 2.50000000E-01	 5.00000000E-01	 5.00000000E+00
	 2.50000000E-01	 1.00000000E+00	 5.00000000E+00
	-7.45058000E-09	 5.00000000E-01	 4.50000000E+00
	-7.45058000E-09	 7.50000000E-01	 5.00000000E+00
	-7.45058000E-09	 1.00000000E+00	 4.50000000E+00
	-7.45058000E-09	-1.49012000E-08	 5.00000000E+00
	 2.50000000E-01	-1.49012000E-08	 5.00000000E+00
	-7.45058000E-09	-1.49012000E-08	 4.50000000E+00
	-7.45058000E-09	 2.50000000E-01	 5.00000000E+00
	 1.00000000E+00	 5.00000000E-01	 6.00000000E+00
	 1.00000000E+00	 1.00000000E+00	 6.00000000E+00
	 5.00000000E-01	 5.00000000E-01	 6.00000000E+00
	 5.00000000E-01	 1.00000000E+00	 6.00000000E+00
	 1.00000000E+00	 5.00000000E-01	 5.50000000E+00
	 1.00000000E+00	 7.50000000E-01	 6.00000000E+00
	 1.00000000E+00	 1.00000000E+00	 5.50000000E+00
	 7.50000000E-01	 5.00000000E-01	 6.00000000E+00
	 7.50000000E-01	 1.00000000E+00	 6.00000000E+00
	 5.00000000E-01	 5.00000000E-01	 5.50000000E+00
	 5.00000000E-01	 7.50000000E-01	 6.00000000E+00
	 5.00000000E-01	 1.00000000E+00	 5.50000000E+00
	 1.00000000E+00	-1.49012000E-08	 6.00000000E+00
	 5.00000000E-01	-1.49012000E-08	 6.00000000E+00
	 1.00000000E+00	-1.49012000E-08	 5.50000000E+00
	 1.00000000E+00	 2.50000000E-01	 6.00000000E+00
	 7.50000000E-01	-1.49012000E-08	 6.00000000E+00
	 5.00000000E-01	-1.49012000E-08	 5.50000000E+00
	 5.00000000E-01	 2.50000000E-01	 6.00000000E+00
	-7.45058000E-09	 5.00000000E-01	 6.00000000E+00
	-7.45058000E-09	 1.00000000E+00	 6.00000000E+00
	 2.50000000E-01	 5.00000000E-01	 6.00000000E+00
	 2.50000000E-01	 1.00000000E+00	 6.00000000E+00
	-7.45058000E-09	 5.00000000E-01	 5.50000000E+00
	-7.45058000E-09	 7.50000000E-01	 6.00000000E+00
	-7.45058000E-09	 1.00000000E+00	 5.50000000E+00
	-7.45058000E-09	-1.49012000E-08	 6.00000000E+00
	 2.50000000E-01	-1.49012000E-08	 6.00000000E+00
	-7.45058000E-09	-1.49012000E-08	 5.50000000E+00
	-7.45058000E-09	 2.50000000E-01	 6.00000000E+00
	 1.00000000E+00	 5.00000000E-01	 7.00000000E+00
[...]
POINT_DATA 522
FIELD U 1
	U 3 522 double
		 0.00000000E+00	 0.00000000E+00	 0.00000000E+00
		 0.00000000E+00	 0.00000000E+00	 0.00000000E+00
		 2.03003000E-05	 4.53214000E-03	-3.48783000E-05
		 6.02662000E-05	 4.74762000E-03	-3.91618000E-03
		 0.00000000E+00	 0.00000000E+00	 0.00000000E+00
		 0.00000000E+00	 0.00000000E+00	 0.00000000E+00
		 2.04357000E-05	 4.16125000E-03	 2.85335000E-05
		-6.56648000E-04	 4.38979000E-03	-3.87648000E-03
		 0.00000000E+00	 0.00000000E+00	 0.00000000E+00
		-3.93848000E-06	 1.10892000E-03	-1.31652000E-05
		 2.89187000E-05	 4.57850000E-03	-1.86084000E-03
		 3.12769000E-04	 1.43256000E-03	-1.90959000E-03
		 0.00000000E+00	 0.00000000E+00	 0.00000000E+00
		 0.00000000E+00	 0.00000000E+00	 0.00000000E+00
		 2.01729000E-05	 4.42742000E-03	-2.95588000E-05
		-3.00126000E-04	 4.72700000E-03	-4.00256000E-03
		 0.00000000E+00	 0.00000000E+00	 0.00000000E+00
		 1.14587000E-05	 1.09976000E-03	 1.15845000E-05
		-3.25791000E-04	 4.19895000E-03	-1.90611000E-03
		-2.97109000E-04	 1.37869000E-03	-1.81595000E-03
		 0.00000000E+00	 0.00000000E+00	 0.00000000E+00
		 8.59840000E-05	 4.77349000E-03	 3.79000000E-03
		 0.00000000E+00	 0.00000000E+00	 0.00000000E+00
		 6.15823000E-04	 4.41980000E-03	 3.87221000E-03
		 0.00000000E+00	 0.00000000E+00	 0.00000000E+00
		-3.10332000E-04	 1.42413000E-03	 1.89515000E-03
		 5.93069000E-05	 4.56999000E-03	 1.75895000E-03
		 0.00000000E+00	 0.00000000E+00	 0.00000000E+00
		 3.72935000E-04	 4.68821000E-03	 3.90649000E-03
		 0.00000000E+00	 0.00000000E+00	 0.00000000E+00
		 2.88180000E-04	 1.40164000E-03	 1.87655000E-03
		 3.22736000E-04	 4.20052000E-03	 1.90466000E-03
		 0.00000000E+00	 0.00000000E+00	 0.00000000E+00
		 0.00000000E+00	 0.00000000E+00	 0.00000000E+00
		-4.26074000E-06	 3.29074000E-03	 2.73489000E-06
		-1.20670000E-03	 3.54394000E-03	-3.84347000E-03
		 0.00000000E+00	 0.00000000E+00	 0.00000000E+00
		 0.00000000E+00	 0.00000000E+00	 0.00000000E+00
		-1.04209000E-05	 3.80105000E-03	-1.19916000E-05
		-9.22153000E-04	 4.03144000E-03	-3.81268000E-03
		 0.00000000E+00	 0.00000000E+00	 0.00000000E+00
		-1.34870000E-05	 5.23430000E-04	 1.00490000E-05
		-6.53114000E-04	 3.29035000E-03	-1.96759000E-03
		-8.36226000E-04	 9.07261000E-04	-1.91236000E-03
		 0.00000000E+00	 0.00000000E+00	 0.00000000E+00
		 1.10362000E-03	 3.55920000E-03	 3.83885000E-03
		 0.00000000E+00	 0.00000000E+00	 0.00000000E+00
		 8.63585000E-04	 4.03056000E-03	 3.77647000E-03
		 0.00000000E+00	 0.00000000E+00	 0.00000000E+00
		 8.20028000E-04	 9.32481000E-04	 1.91479000E-03
		 5.73220000E-04	 3.31499000E-03	 1.97632000E-03
		-2.81370000E-05	 1.80058000E-02	-2.87281000E-04
		-1.95504000E-03	 1.81542000E-02	-7.41142000E-03
		-2.94974000E-05	 1.59366000E-02	-2.52829000E-04
		-2.27784000E-03	 1.60777000E-02	-7.33952000E-03
		 2.21466000E-06	 1.03466000E-02	-1.55210000E-04
		-1.03267000E-03	 1.80189000E-02	-3.60069000E-03
		-8.86923000E-04	 1.05288000E-02	-5.76976000E-03
		-4.93351000E-05	 1.70119000E-02	-2.61851000E-04
		-2.09404000E-03	 1.71480000E-02	-7.50147000E-03
		-4.00218000E-05	 9.21371000E-03	-1.08332000E-04
		-1.16043000E-03	 1.59554000E-02	-3.71555000E-03
		-1.42210000E-03	 9.41727000E-03	-5.81198000E-03
		 1.85180000E-03	 1.82068000E-02	 6.79047000E-03
		 2.22822000E-03	 1.61638000E-02	 6.88754000E-03
		 8.41839000E-04	 1.05506000E-02	 5.50675000E-03
		 9.27417000E-04	 1.80814000E-02	 3.07198000E-03
		 2.05409000E-03	 1.72352000E-02	 7.01874000E-03
		 1.36715000E-03	 9.44951000E-03	 5.52314000E-03
		 1.10026000E-03	 1.60107000E-02	 3.26084000E-03
		-1.65286000E-05	 1.35317000E-02	-1.26086000E-04
		-2.52665000E-03	 1.36046000E-02	-7.24966000E-03
		 1.09196000E-05	 1.47742000E-02	-1.48467000E-04
		-2.43447000E-03	 1.49071000E-02	-7.11364000E-03
		-2.75271000E-05	 7.55592000E-03	-7.35414000E-05
		-1.26330000E-03	 1.35524000E-02	-3.77422000E-03
		-1.89475000E-03	 7.82004000E-03	-5.72541000E-03
		 2.65593000E-03	 1.36634000E-02	 6.96047000E-03
		 2.43219000E-03	 1.49918000E-02	 6.81669000E-03
		 1.82851000E-03	 7.85112000E-03	 5.60082000E-03
		 1.28161000E-03	 1.35745000E-02	 3.46660000E-03
		-1.14589000E-04	 3.60445000E-02	-3.66287000E-04
		-3.70025000E-03	 3.60044000E-02	-8.65615000E-03
		-8.41115000E-05	 3.24794000E-02	-2.72478000E-04
		-3.67947000E-03	 3.24362000E-02	-8.63286000E-03
		-8.11761000E-05	 2.68356000E-02	-3.28214000E-04
		-1.87100000E-03	 3.60176000E-02	-4.38320000E-03
		-2.88992000E-03	 2.68583000E-02	-8.24033000E-03
		-9.24607000E-05	 3.42485000E-02	-3.30479000E-04
		-3.66485000E-03	 3.41671000E-02	-8.72218000E-03
		-4.21327000E-05	 2.39143000E-02	-2.63824000E-04
		-1.86615000E-03	 3.24832000E-02	-4.39563000E-03
		-3.04835000E-03	 2.39331000E-02	-8.22147000E-03
		 3.53471000E-03	 3.62908000E-02	 7.91650000E-03
		 3.50282000E-03	 3.26050000E-02	 8.04081000E-03
		 2.80698000E-03	 2.70412000E-02	 7.58729000E-03
		 1.63338000E-03	 3.61591000E-02	 3.65534000E-03
		 3.51277000E-03	 3.43563000E-02	 8.04290000E-03
		 2.98135000E-03	 2.41101000E-02	 7.73522000E-03
		 1.66660000E-03	 3.25300000E-02	 3.81437000E-03
		-6.60332000E-05	 2.89134000E-02	-2.41621000E-04
		-3.82286000E-03	 2.87124000E-02	-8.49526000E-03
		-7.09162000E-05	 3.06940000E-02	-2.47164000E-04
		-3.74259000E-03	 3.06259000E-02	-8.56837000E-03
		-1.75891000E-05	 2.08105000E-02	-2.05533000E-04
		-1.88892000E-03	 2.88037000E-02	-4.35612000E-03
		-3.27156000E-03	 2.07399000E-02	-8.10787000E-03
		 3.55960000E-03	 2.89967000E-02	 8.10351000E-03
		 3.48088000E-03	 3.08349000E-02	 8.00201000E-03
		 3.25438000E-03	 2.08688000E-02	 7.72239000E-03
		 1.69666000E-03	 2.89753000E-02	 3.86813000E-03
		-9.34930000E-05	 5.30926000E-02	-4.30331000E-04
		-3.97244000E-03	 5.28951000E-02	-8.07837000E-03
		-7.85246000E-05	 4.93093000E-02	-4.24360000E-04
		-3.68693000E-03	 4.90973000E-02	-7.95789000E-03
		-1.32137000E-04	 4.47755000E-02	-4.08681000E-04
		-2.06570000E-03	 5.29955000E-02	-4.26312000E-03
		-3.87492000E-03	 4.47050000E-02	-8.57663000E-03
		-8.27299000E-05	 5.11394000E-02	-4.28172000E-04
		-3.84457000E-03	 5.09672000E-02	-7.97512000E-03
		-7.75611000E-05	 4.11056000E-02	-3.47131000E-04
		-1.88579000E-03	 4.92241000E-02	-4.16945000E-03
		-3.72284000E-03	 4.10074000E-02	-8.51640000E-03
		 3.76558000E-03	 5.30108000E-02	 7.12012000E-03
		 3.48427000E-03	 4.92984000E-02	 7.21485000E-03
		 3.64520000E-03	 4.48799000E-02	 7.75617000E-03
		 1.83057000E-03	 5.30627000E-02	 3.31355000E-03
		 3.62604000E-03	 5.11022000E-02	 7.14658000E-03
		 3.54962000E-03	 4.11573000E-02	 7.79411000E-03
		 1.73092000E-03	 4.93354000E-02	 3.40330000E-03
		-1.16146000E-04	 4.58082000E-02	-3.19615000E-04
		-3.48513000E-03	 4.56883000E-02	-7.95623000E-03
		-9.05730000E-05	 4.75146000E-02	-3.80646000E-04
		-3.59199000E-03	 4.73264000E-02	-7.96086000E-03
		-8.97657000E-05	 3.75634000E-02	-2.57544000E-04
		-1.83432000E-03	 4.57542000E-02	-4.10970000E-03
		-3.61691000E-03	 3.73994000E-02	-8.39850000E-03
		 3.30055000E-03	 4.58385000E-02	 7.22895000E-03
		 3.42002000E-03	 4.74653000E-02	 7.22600000E-03
		 3.39147000E-03	 3.76089000E-02	 7.82963000E-03
		 1.65244000E-03	 4.58428000E-02	 3.43222000E-03
		-7.16383000E-05	 6.64061000E-02	-4.91152000E-04
		-3.69958000E-03	 6.63151000E-02	-7.09298000E-03
		-7.90591000E-05	 6.28382000E-02	-5.12539000E-04
		-3.63949000E-03	 6.27269000E-02	-6.96497000E-03
		-7.74040000E-05	 6.00348000E-02	-4.65843000E-04
		-1.82728000E-03	 6.63694000E-02	-3.86728000E-03
		-3.85140000E-03	 5.99437000E-02	-7.41217000E-03
		-8.40479000E-05	 6.46162000E-02	-4.98489000E-04
		-3.65198000E-03	 6.44718000E-02	-7.01908000E-03
		-1.08203000E-04	 5.63723000E-02	-4.60456000E-04
		-1.83940000E-03	 6.28001000E-02	-3.80499000E-03
		-3.67698000E-03	 5.62250000E-02	-7.36502000E-03
		 3.35020000E-03	 6.63186000E-02	 6.07176000E-03
		 3.44862000E-03	 6.28852000E-02	 6.02858000E-03
		 3.64315000E-03	 6.00636000E-02	 6.46419000E-03
		 1.64443000E-03	 6.63821000E-02	 2.88248000E-03
		 3.40358000E-03	 6.46211000E-02	 6.03968000E-03
		 3.52939000E-03	 5.63680000E-02	 6.47734000E-03
		 1.66223000E-03	 6.28616000E-02	 2.83429000E-03
		-5.96145000E-05	 5.93080000E-02	-4.45390000E-04
		-3.51187000E-03	 5.92699000E-02	-7.02033000E-03
		-5.86774000E-05	 6.10808000E-02	-4.52808000E-04
		-3.58984000E-03	 6.09716000E-02	-7.01638000E-03
		-7.24984000E-05	 5.28091000E-02	-3.82407000E-04
		-1.83444000E-03	 5.92775000E-02	-3.78361000E-03
		-3.48146000E-03	 5.27594000E-02	-7.35809000E-03
		 3.49646000E-03	 5.93423000E-02	 6.13281000E-03
		 3.45950000E-03	 6.11345000E-02	 6.11758000E-03
		 3.36526000E-03	 5.28590000E-02	 6.55749000E-03
		 1.66637000E-03	 5.93299000E-02	 2.88729000E-03
		-7.67597000E-05	 7.91334000E-02	-5.47994000E-04
		-3.15010000E-03	 7.90422000E-02	-7.53559000E-03
		-3.02719000E-05	 7.59571000E-02	-4.44621000E-04
		-3.20273000E-03	 7.60050000E-02	-7.48316000E-03
		-1.03925000E-04	 7.25578000E-02	-5.34685000E-04
		-1.59018000E-03	 7.90632000E-02	-4.07519000E-03
		-3.41600000E-03	 7.25906000E-02	-7.22504000E-03
		-4.33232000E-05	 7.75797000E-02	-5.09153000E-04
		-3.18821000E-03	 7.75495000E-02	-7.49152000E-03
		-6.46845000E-05	 6.92699000E-02	-4.72626000E-04
		-1.64708000E-03	 7.59536000E-02	-3.96421000E-03
		-3.42438000E-03	 6.91910000E-02	-7.10510000E-03
		 2.76450000E-03	 7.89741000E-02	 6.48133000E-03
		 3.07012000E-03	 7.61086000E-02	 6.47177000E-03
		 3.20684000E-03	 7.26832000E-02	 6.20435000E-03
		 1.38759000E-03	 7.89988000E-02	 3.01909000E-03
		 2.90017000E-03	 7.75648000E-02	 6.40775000E-03
		 3.24742000E-03	 6.93255000E-02	 6.17161000E-03
		 1.52315000E-03	 7.60522000E-02	 2.97842000E-03
		-9.91590000E-05	 7.28367000E-02	-4.47848000E-04
		-3.33853000E-03	 7.26969000E-02	-7.43875000E-03
		-6.60883000E-05	 7.44071000E-02	-4.83910000E-04
		-3.26094000E-03	 7.44584000E-02	-7.53852000E-03
		-6.05910000E-05	 6.58927000E-02	-4.47456000E-04
		-1.64266000E-03	 7.27649000E-02	-3.91835000E-03
		-3.48228000E-03	 6.58390000E-02	-7.12948000E-03
		 3.22672000E-03	 7.27899000E-02	 6.57077000E-03
		 3.15224000E-03	 7.45487000E-02	 6.56054000E-03
		 3.37964000E-03	 6.58892000E-02	 6.26332000E-03
		 1.54278000E-03	 7.28084000E-02	 3.02233000E-03
		 1.25637000E-04	 9.34105000E-02	-6.70683000E-04
		-2.40759000E-03	 9.32753000E-02	-8.24374000E-03
		-1.07114000E-05	 9.10498000E-02	-7.47992000E-04
		-2.36584000E-03	 9.10427000E-02	-8.17185000E-03
		-2.95950000E-05	 8.60946000E-02	-5.96249000E-04
		-1.22325000E-03	 9.33621000E-02	-4.49492000E-03
		-2.67623000E-03	 8.60733000E-02	-7.98490000E-03
		 4.77404000E-05	 9.22036000E-02	-7.59629000E-04
		-2.41281000E-03	 9.21390000E-02	-8.09143000E-03
		-5.23293000E-05	 8.33984000E-02	-5.58647000E-04
		-1.18161000E-03	 9.10372000E-02	-4.39258000E-03
		-2.73024000E-03	 8.34377000E-02	-8.00659000E-03
		 2.29519000E-03	 9.33024000E-02	 6.70304000E-03
		 2.25905000E-03	 9.11839000E-02	 6.63605000E-03
		 2.60731000E-03	 8.61430000E-02	 6.64739000E-03
		 1.19037000E-03	 9.33736000E-02	 2.93510000E-03
		 2.29164000E-03	 9.22400000E-02	 6.70083000E-03
		 2.61322000E-03	 8.34917000E-02	 6.71365000E-03
		 1.13248000E-03	 9.10938000E-02	 2.93119000E-03
		-1.03158000E-04	 8.87511000E-02	-6.70460000E-04
		-2.08892000E-03	 8.88431000E-02	-8.22884000E-03
		-3.50047000E-05	 8.98973000E-02	-7.19117000E-04
		-2.22903000E-03	 8.98703000E-02	-8.24137000E-03
		-5.60780000E-05	 8.07517000E-02	-5.66635000E-04
		-1.17949000E-03	 8.87731000E-02	-4.30414000E-03
		-2.78450000E-03	 8.06742000E-02	-7.86070000E-03
		 1.99545000E-03	 8.90008000E-02	 6.79579000E-03
		 2.11863000E-03	 8.99628000E-02	 6.83375000E-03
		 2.63456000E-03	 8.08410000E-02	 6.74379000E-03
		 1.00012000E-03	 8.88795000E-02	 2.93445000E-03
		 2.19447000E-04	 1.07602000E-01	-1.22796000E-03
		-2.22139000E-03	 1.07891000E-01	-7.92843000E-03
		-1.34540000E-05	 1.05760000E-01	-8.48437000E-04
		-1.92429000E-03	 1.05437000E-01	-7.80050000E-03
		-1.23571000E-04	 1.00542000E-01	-8.72955000E-04
		-9.36362000E-04	 1.07764000E-01	-4.56008000E-03
		-2.01990000E-03	 1.00490000E-01	-8.14323000E-03
		 1.00796000E-04	 1.06712000E-01	-9.16894000E-04
		-2.03451000E-03	 1.06567000E-01	-7.97661000E-03
		-8.31127000E-05	 9.85549000E-02	-8.11636000E-04
		-9.51324000E-04	 1.05606000E-01	-4.47326000E-03
		-2.06396000E-03	 9.86314000E-02	-8.04880000E-03
		 1.68653000E-03	 1.07167000E-01	 5.92031000E-03
		 1.74333000E-03	 1.05989000E-01	 6.45335000E-03
		 2.05113000E-03	 1.00779000E-01	 6.39197000E-03
		 9.06196000E-04	 1.07399000E-01	 2.60428000E-03
		 1.71094000E-03	 1.06515000E-01	 6.07444000E-03
		 1.93564000E-03	 9.85508000E-02	 6.52914000E-03
		 8.87262000E-04	 1.05892000E-01	 2.78266000E-03
		-2.53326000E-04	 1.04294000E-01	-8.93052000E-04
		-1.60834000E-03	 1.04348000E-01	-7.91353000E-03
		-1.36781000E-04	 1.05045000E-01	-8.14570000E-04
		-1.79051000E-03	 1.04805000E-01	-7.95608000E-03
		-3.81714000E-05	 9.65279000E-02	-7.32590000E-04
		-9.26204000E-04	 1.04336000E-01	-4.40305000E-03
		-1.94918000E-03	 9.65487000E-02	-8.21669000E-03
		 1.91358000E-03	 1.03935000E-01	 6.60528000E-03
		 1.80512000E-03	 1.05022000E-01	 6.48489000E-03
		 1.88080000E-03	 9.67785000E-02	 6.67906000E-03
		 8.37791000E-04	 1.04092000E-01	 2.91849000E-03
		 0.00000000E+00	 0.00000000E+00	 0.00000000E+00
		 0.00000000E+00	 0.00000000E+00	 0.00000000E+00
		-3.68506000E-05	-1.20617000E-02	-1.75853000E-04
		-2.02604000E-03	-1.31844000E-02	 1.15816000E-02
		 0.00000000E+00	 0.00000000E+00	 0.00000000E+00
		 0.00000000E+00	 0.00000000E+00	 0.00000000E+00
		-9.24686000E-05	-1.33858000E-02	-1.39349000E-04
		-4.84722000E-04	-1.42422000E-02	 1.17406000E-02
		 0.00000000E+00	 0.00000000E+00	 0.00000000E+00
		 7.70138000E-07	-2.55237000E-03	-2.66805000E-05
		-1.06768000E-03	-1.23607000E-02	 5.59920000E-03
		-1.99707000E-03	-3.65828000E-03	 5.90035000E-03
		 0.00000000E+00	 0.00000000E+00	 0.00000000E+00
		 0.00000000E+00	 0.00000000E+00	 0.00000000E+00
		-8.26868000E-05	-1.30322000E-02	-2.11737000E-04
		-1.23024000E-03	-1.39297000E-02	 1.16387000E-02
		 0.00000000E+00	 0.00000000E+00	 0.00000000E+00
		 1.06411000E-05	-3.61234000E-03	-5.21624000E-05
		-2.74053000E-04	-1.35192000E-02	 5.67067000E-03
		-3.08358000E-04	-4.66326000E-03	 5.78802000E-03
		 0.00000000E+00	 0.00000000E+00	 0.00000000E+00
		 2.12091000E-03	-1.26536000E-02	-1.21073000E-02
		 0.00000000E+00	 0.00000000E+00	 0.00000000E+00
		 3.82824000E-04	-1.40908000E-02	-1.21418000E-02
		 0.00000000E+00	 0.00000000E+00	 0.00000000E+00
		 1.91206000E-03	-3.65294000E-03	-6.04745000E-03
		 1.11173000E-03	-1.20961000E-02	-6.04695000E-03
		 0.00000000E+00	 0.00000000E+00	 0.00000000E+00
		 1.26434000E-03	-1.35880000E-02	-1.21080000E-02
		 0.00000000E+00	 0.00000000E+00	 0.00000000E+00
		 2.41112000E-04	-4.58301000E-03	-5.84671000E-03
		 9.54337000E-05	-1.34798000E-02	-6.01408000E-03
		 0.00000000E+00	 0.00000000E+00	 0.00000000E+00
		 0.00000000E+00	 0.00000000E+00	 0.00000000E+00
		 3.35305000E-05	-1.31605000E-02	-1.69947000E-04
		 8.98264000E-04	-1.40893000E-02	 1.16481000E-02
		 0.00000000E+00	 0.00000000E+00	 0.00000000E+00
		 0.00000000E+00	 0.00000000E+00	 0.00000000E+00
		-4.72691000E-05	-1.35372000E-02	-1.80153000E-04
		 2.08367000E-04	-1.43146000E-02	 1.17155000E-02
		 0.00000000E+00	 0.00000000E+00	 0.00000000E+00
		-5.43317000E-05	-3.12729000E-03	-2.26319000E-05
		 5.51697000E-04	-1.33067000E-02	 5.59632000E-03
		 1.37529000E-03	-4.29923000E-03	 5.93570000E-03
		 0.00000000E+00	 0.00000000E+00	 0.00000000E+00
		-1.20276000E-03	-1.38980000E-02	-1.19968000E-02
		 0.00000000E+00	 0.00000000E+00	 0.00000000E+00
		-3.98307000E-04	-1.42075000E-02	-1.21119000E-02
		 0.00000000E+00	 0.00000000E+00	 0.00000000E+00
		-1.55066000E-03	-4.09012000E-03	-6.09022000E-03
		-6.27459000E-04	-1.32205000E-02	-5.93294000E-03
		 2.21868000E-05	-4.81118000E-02	-1.11029000E-03
		-1.19061000E-03	-4.91678000E-02	 2.02466000E-02
		-3.95701000E-05	-4.85941000E-02	-1.04158000E-03
		 7.11417000E-05	-4.95514000E-02	 2.04374000E-02
		-4.24689000E-05	-2.75400000E-02	-5.38995000E-04
		-5.55763000E-04	-4.85208000E-02	 9.40987000E-03
		-1.77885000E-03	-2.85266000E-02	 1.64448000E-02
		-3.19461000E-05	-4.84585000E-02	-1.05991000E-03
		-5.38890000E-04	-4.95337000E-02	 2.04426000E-02
		-7.36818000E-05	-2.85694000E-02	-5.19478000E-04
		 5.14158000E-06	-4.89472000E-02	 9.58666000E-03
		-3.43203000E-04	-2.95329000E-02	 1.65110000E-02
		 1.05847000E-03	-4.82501000E-02	-2.25969000E-02
		-1.43967000E-04	-4.87243000E-02	-2.24438000E-02
		 1.62503000E-03	-2.80398000E-02	-1.76157000E-02
		 4.95733000E-04	-4.80387000E-02	-1.15861000E-02
		 4.89356000E-04	-4.86352000E-02	-2.26407000E-02
		 1.93920000E-04	-2.90071000E-02	-1.76341000E-02
		-6.23364000E-05	-4.85213000E-02	-1.16283000E-02
		-5.88606000E-06	-4.78916000E-02	-9.02344000E-04
		 1.37722000E-03	-4.87052000E-02	 2.04416000E-02
		 1.75557000E-05	-4.83592000E-02	-9.41801000E-04
		 7.12104000E-04	-4.93786000E-02	 2.03944000E-02
		-1.15378000E-04	-2.80825000E-02	-4.73634000E-04
		 6.05114000E-04	-4.81889000E-02	 9.70426000E-03
		 1.05184000E-03	-2.91327000E-02	 1.65320000E-02
		-1.21637000E-03	-4.79054000E-02	-2.23063000E-02
		-7.21625000E-04	-4.84770000E-02	-2.23248000E-02
		-1.23197000E-03	-2.86001000E-02	-1.74576000E-02
		-5.95593000E-04	-4.77950000E-02	-1.15519000E-02
		 1.12312000E-05	-9.94277000E-02	-2.44057000E-03
		-3.46902000E-04	-1.00674000E-01	 2.47350000E-02
		-3.16205000E-05	-9.94750000E-02	-2.41957000E-03
		 1.80202000E-04	-1.00575000E-01	 2.47239000E-02
		 9.85383000E-06	-7.24686000E-02	-1.72252000E-03
		-2.34362000E-04	-9.99661000E-02	 1.09982000E-02
		-4.73897000E-04	-7.35147000E-02	 2.30428000E-02
		-5.84893000E-06	-9.95288000E-02	-2.43763000E-03
		-1.13123000E-04	-1.00635000E-01	 2.46996000E-02
		 1.75252000E-05	-7.25872000E-02	-1.67472000E-03
		 2.09971000E-05	-9.99436000E-02	 1.09924000E-02
		 3.35914000E-04	-7.36115000E-02	 2.31544000E-02
		 2.77943000E-04	-9.89603000E-02	-2.95729000E-02
		-1.75001000E-04	-9.90512000E-02	-2.97060000E-02
		 6.16232000E-04	-7.22914000E-02	-2.64398000E-02
		 1.90543000E-04	-9.90995000E-02	-1.58982000E-02
		 8.82817000E-05	-9.90418000E-02	-2.96252000E-02
		-2.70342000E-04	-7.23927000E-02	-2.64654000E-02
		-9.59176000E-05	-9.92341000E-02	-1.59160000E-02
		-1.39208000E-05	-9.90168000E-02	-2.41609000E-03
		 6.84972000E-04	-1.00147000E-01	 2.47725000E-02
		-1.88392000E-05	-9.93352000E-02	-2.40451000E-03
		 3.78894000E-04	-1.00390000E-01	 2.48050000E-02
		-4.28919000E-06	-7.18568000E-02	-1.60685000E-03
		 2.97202000E-04	-9.95215000E-02	 1.08717000E-02
		 1.22932000E-03	-7.27603000E-02	 2.30994000E-02
		-8.90598000E-04	-9.84926000E-02	-2.95794000E-02
		-5.19337000E-04	-9.89005000E-02	-2.98036000E-02
		-1.22598000E-03	-7.15934000E-02	-2.63018000E-02
		-4.09755000E-04	-9.87072000E-02	-1.57698000E-02
		 5.60583000E-06	-1.56709000E-01	-4.11499000E-03
		-1.18162000E-03	-1.57385000E-01	 2.43200000E-02
		-1.44795000E-04	-1.57795000E-01	-4.34462000E-03
		-1.44426000E-03	-1.59089000E-01	 2.43196000E-02
		-7.45834000E-05	-1.27685000E-01	-3.26538000E-03
		-5.66589000E-04	-1.57051000E-01	 1.00887000E-02
		-7.98259000E-04	-1.28661000E-01	 2.50826000E-02
		-5.44178000E-05	-1.57172000E-01	-4.23994000E-03
		-1.29195000E-03	-1.58123000E-01	 2.42654000E-02
		-5.39622000E-05	-1.28349000E-01	-3.41779000E-03
		-6.65411000E-04	-1.58452000E-01	 9.94742000E-03
		-6.45462000E-04	-1.29234000E-01	 2.50888000E-02
		 9.44441000E-04	-1.55712000E-01	-3.28024000E-02
		 1.04260000E-03	-1.56661000E-01	-3.28677000E-02
		 6.33859000E-04	-1.27079000E-01	-3.16898000E-02
		 4.71239000E-04	-1.56205000E-01	-1.84485000E-02
		 9.67340000E-04	-1.56143000E-01	-3.27362000E-02
		 4.59590000E-04	-1.27698000E-01	-3.17892000E-02
		 4.34526000E-04	-1.57207000E-01	-1.85284000E-02
		-3.85637000E-04	-1.59079000E-01	-4.41244000E-03
		-1.59440000E-03	-1.60621000E-01	 2.41465000E-02
		-2.58838000E-04	-1.58384000E-01	-4.37287000E-03
		-1.48552000E-03	-1.60208000E-01	 2.43161000E-02
		-1.63502000E-04	-1.28840000E-01	-3.50726000E-03
		-1.03253000E-03	-1.59812000E-01	 9.71410000E-03
		-4.29531000E-04	-1.29588000E-01	 2.49351000E-02
		 1.06357000E-03	-1.58033000E-01	-3.29886000E-02