<?xml version="1.0"?>
<VTKFile type="UnstructuredGrid" version="0.1" byte_order="LittleEndian">
	<UnstructuredGrid>
		<Piece NumberOfPoints="522" NumberOfCells="64">
			<Points>
				<DataArray type="Float64" NumberOfComponents="3" format="ascii">
					 1.00000000E+00	 1.00000000E+00	-5.96046000E-08
					 1.00000000E+00	 5.00000000E-01	-5.96046000E-08
					 1.00000000E+00	 5.00000000E-01	 1.00000000E+00
					 1.00000000E+00	 1.00000000E+00	 1.00000000E+00
					 5.00000000E-01	 1.00000000E+00	-5.96046000E-08
					 5.00000000E-01	 5.00000000E-01	-5.96046000E-08
					 5.00000000E-01	 5.00000000E-01	 1.00000000E+00
					 5.00000000E-01	 1.00000000E+00	 1.00000000E+00
					 1.00000000E+00	 7.50000000E-01	-5.96046000E-08
					 1.00000000E+00	 5.00000000E-01	 5.00000000E-01
					 1.00000000E+00	 7.50000000E-01	 1.00000000E+00
					 1.00000000E+00	 1.00000000E+00	 5.00000000E-01
					 7.50000000E-01	 1.00000000E+00	-5.96046000E-08
					 7.50000000E-01	 5.00000000E-01	-5.96046000E-08
					 7.50000000E-01	 5.00000000E-01	 1.00000000E+00
					 7.50000000E-01	 1.00000000E+00	 1.00000000E+00
					 5.00000000E-01	 7.50000000E-01	-5.96046000E-08
					 5.00000000E-01	 5.00000000E-01	 5.00000000E-01
					 5.00000000E-01	 7.50000000E-01	 1.00000000E+00
					 5.00000000E-01	 1.00000000E+00	 5.00000000E-01
					 1.00000000E+00	-1.49012000E-08	-5.96046000E-08
					 1.00000000E+00	-1.49012000E-08	 1.00000000E+00
					 5.00000000E-01	-1.49012000E-08	-5.96046000E-08
					 5.00000000E-01	-1.49012000E-08	 1.00000000E+00
					 1.00000000E+00	 2.50000000E-01	-5.96046000E-08
					 1.00000000E+00	-1.49012000E-08	 5.00000000E-01
					 1.00000000E+00	 2.50000000E-01	 1.00000000E+00
					 7.50000000E-01	-1.49012000E-08	-5.96046000E-08
					 7.50000000E-01	-1.49012000E-08	 1.00000000E+00
					 5.00000000E-01	 2.50000000E-01	-5.96046000E-08
					 5.00000000E-01	-1.49012000E-08	 5.00000000E-01
					 5.00000000E-01	 2.50000000E-01	 1.00000000E+00
					-7.45058000E-09	 1.00000000E+00	-5.96046000E-08
					-7.45058000E-09	 5.00000000E-01	-5.96046000E-08
					-7.45058000E-09	 5.00000000E-01	 1.00000000E+00
					-7.45058000E-09	 1.00000000E+00	 1.00000000E+00
					 2.50000000E-01	 1.00000000E+00	-5.96046000E-08
					 2.50000000E-01	 5.00000000E-01	-5.96046000E-08
					 2.50000000E-01	 5.00000000E-01	 1.00000000E+00
					 2.50000000E-01	 1.00000000E+00	 1.00000000E+00
					-7.45058000E-09	 7.50000000E-01	-5.96046000E-08
					-7.45058000E-09	 5.00000000E-01	 5.00000000E-01
					-7.45058000E-09	 7.50000000E-01	 1.00000000E+00
					-7.45058000E-09	 1.00000000E+00	 5.00000000E-01
					-7.45058000E-09	-1.49012000E-08	-5.96046000E-08
					-7.45058000E-09	-1.49012000E-08	 1.00000000E+00
					 2.50000000E-01	-1.49012000E-08	-5.96046000E-08
					 2.50000000E-01	-1.49012000E-08	 1.00000000E+00
					-7.45058000E-09	 2.50000000E-01	-5.96046000E-08
					-7.45058000E-09	-1.49012000E-08	 5.00000000E-01
					-7.45058000E-09	 2.50000000E-01	 1.00000000E+00
					 1.00000000E+00	 5.00000000E-01	 2.00000000E+00
					 1.00000000E+00	 1.00000000E+00	 2.00000000E+00
					 5.00000000E-01	 5.00000000E-01	 2.00000000E+00
					 5.00000000E-01	 1.00000000E+00	 2.00000000E+00
					 1.00000000E+00	 5.00000000E-01	 1.50000000E+00
					 1.00000000E+00	 7.50000000E-01	 2.00000000E+00
					 1.00000000E+00	 1.00000000E+00	 1.50000000E+00
					 7.50000000E-01	 5.00000000E-01	 2.00000000E+00
					 7.50000000E-01	 1.00000000E+00	 2.00000000E+00
					 5.00000000E-01	 5.00000000E-01	 1.50000000E+00
					 5.00000000E-01	 7.50000000E-01	 2.00000000E+00
					 5.00000000E-01	 1.00000000E+00	 1.50000000E+00
					 1.00000000E+00	-1.49012000E-08	 2.00000000E+00
					 5.00000000E-01	-1.49012000E-08	 2.00000000E+00
					 1.00000000E+00	-1.49012000E-08	 1.50000000E+00
					 1.00000000E+00	 2.50000000E-01	 2.00000000E+00
					 7.50000000E-01	-1.49012000E-08	 2.00000000E+00
					 5.00000000E-01	-1.49012000E-08	 1.50000000E+00
					 5.00000000E-01	 2.50000000E-01	 2.00000000E+00
					-7.45058000E-09	 5.00000000E-01	 2.00000000E+00
					-7.45058000E-09	 1.00000000E+00	 2.00000000E+00
					 2.50000000E-01	 5.00000000E-01	 2.00000000E+00
					 2.50000000E-01	 1.00000000E+00	 2.00000000E+00
					-7.45058000E-09	 5.00000000E-01	 1.50000000E+00
					-7.45058000E-09	 7.50000000E-01	 2.00000000E+00
					-7.45058000E-09	 1.00000000E+00	 1.50000000E+00
					-7.45058000E-09	-1.49012000E-08	 2.00000000E+00
					 2.50000000E-01	-1.49012000E-08	 2.00000000E+00
					-7.45058000E-09	-1.49012000E-08	 1.50000000E+00
					-7.45058000E-09	 2.50000000E-01	 2.00000000E+00
					 1.00000000E+00	 5.00000000E-01	 3.00000000E+00
					 1.00000000E+00	 1.00000000E+00	 3.00000000E+00
					 5.00000000E-01	 5.00000000E-01	 3.00000000E+00
					 5.00000000E-01	 1.00000000E+00	 3.00000000E+00
					 1.00000000E+00	 5.00000000E-01	 2.50000000E+00
					 1.00000000E+00	 7.50000000E-01	 3.00000000E+00
					 1.00000000E+00	 1.00000000E+00	 2.50000000E+00
					 7.50000000E-01	 5.00000000E-01	 3.00000000E+00
					 7.50000000E-01	 1.00000000E+00	 3.00000000E+00
					 5.00000000E-01	 5.00000000E-01	 2.50000000E+00
					 5.00000000E-01	 7.50000000E-01	 3.00000000E+00
					 5.00000000E-01	 1.00000000E+00	 2.50000000E+00
					 1.00000000E+00	-1.49012000E-08	 3.00000000E+00
					 5.00000000E-01	-1.49012000E-08	 3.00000000E+00
					 1.00000000E+00	-1.49012000E-08	 2.50000000E+00
					 1.00000000E+00	 2.50000000E-01	 3.00000000E+00
					 7.50000000E-01	-1.49012000E-08	 3.00000000E+00
					 5.00000000E-01	-1.49012000E-08	 2.50000000E+00
					 5.00000000E-01	 2.50000000E-01	 3.00000000E+00
					-7.45058000E-09	 5.00000000E-01	 3.00000000E+00
					-7.45058000E-09	 1.00000000E+00	 3.00000000E+00
					 2.50000000E-01	 5.00000000E-01	 3.00000000E+00
					 2.50000000E-01	 1.00000000E+00	 3.00000000E+00
					-7.45058000E-09	 5.00000000E-01	 2.50000000E+00
					-7.45058000E-09	 7.50000000E-01	 3.00000000E+00
					-7.45058000E-09	 1.00000000E+00	 2.50000000E+00
					-7.45058000E-09	-1.49012000E-08	 3.00000000E+00
					 2.50000000E-01	-1.49012000E-08	 3.00000000E+00
					-7.45058000E-09	-1.49012000E-08	 2.50000000E+00
					-7.45058000E-09	 2.50000000E-01	 3.00000000E+00
					 1.00000000E+00	 5.00000000E-01	 4.00000000E+00
					 1.00000000E+00	 1.00000000E+00	 4.00000000E+00
					 5.00000000E-01	 5.00000000E-01	 4.00000000E+00
					 5.00000000E-01	 1.00000000E+00	 4.00000000E+00
					 1.00000000E+00	 5.00000000E-01	 3.50000000E+00
					 1.00000000E+00	 7.50000000E-01	 4.00000000E+00
					 1.00000000E+00	 1.00000000E+00	 3.50000000E+00
					 7.50000000E-01	 5.00000000E-01	 4.00000000E+00
					 7.50000000E-01	 1.00000000E+00	 4.00000000E+00
					 5.00000000E-01	 5.00000000E-01	 3.50000000E+00
					 5.00000000E-01	 7.50000000E-01	 4.00000000E+00
					 5.00000000E-01	 1.00000000E+00	 3.50000000E+00
					 1.00000000E+00	-1.49012000E-08	 4.00000000E+00
					 5.00000000E-01	-1.49012000E-08	 4.00000000E+00
					 1.00000000E+00	-1.49012000E-08	 3.50000000E+00
					 1.00000000E+00	 2.50000000E-01	 4.00000000E+00
					 7.50000000E-01	-1.49012000E-08	 4.00000000E+00
					 5.00000000E-01	-1.49012000E-08	 3.50000000E+00
					 5.00000000E-01	 2.50000000E-01	 4.00000000E+00
					-7.45058000E-09	 5.00000000E-01	 4.00000000E+00
					-7.45058000E-09	 1.00000000E+00	 4.00000000E+00
					 2.50000000E-01	 5.00000000E-01	 4.00000000E+00
					 2.50000000E-01	 1.00000000E+00	 4.00000000E+00
					-7.45058000E-09	 5.00000000E-01	 3.50000000E+00
					-7.45058000E-09	 7.50000000E-01	 4.00000000E+00
					-7.45058000E-09	 1.00000000E+00	 3.50000000E+00
					-7.45058000E-09	-1.49012000E-08	 4.00000000E+00
					 2.50000000E-01	-1.49012000E-08	 4.00000000E+00
					-7.45058000E-09	-1.49012000E-08	 3.50000000E+00
					-7.45058000E-09	 2.50000000E-01	 4.00000000E+00
					 1.00000000E+00	 5.00000000E-01	 5.00000000E+00
					 1.00000000E+00	 1.00000000E+00	 5.00000000E+00
					 5.00000000E-01	 5.00000000E-01	 5.00000000E+00
					 5.00000000E-01	 1.00000000E+00	 5.00000000E+00
					 1.00000000E+00	 5.00000000E-01	 4.50000000E+00
					 1.00000000E+00	 7.50000000E-01	 5.00000000E+00
					 1.00000000E+00	 1.00000000E+00	 4.50000000E+00
					 7.50000000E-01	 5.00000000E-01	 5.00000000E+00
					 7.50000000E-01	 1.00000000E+00	 5.00000000E+00
					 5.00000000E-01	 5.00000000E-01	 4.50000000E+00
					 5.00000000E-01	 7.50000000E-01	 5.00000000E+00
					 5.00000000E-01	 1.00000000E+00	 4.50000000E+00
					 1.00000000E+00	-1.49012000E-08	 5.00000000E+00
					 5.00000000E-01	-1.49012000E-08	 5.00000000E+00
					 1.00000000E+00	-1.49012000E-08	 4.50000000E+00
					 1.00000000E+00	 2.50000000E-01	 5.00000000E+00
					 7.50000000E-01	-1.49012000E-08	 5.00000000E+00
					 5.00000000E-01	-1.49012000E-08	 4.50000000E+00
					 5.00000000E-01	 2.50000000E-01	 5.00000000E+00
					-7.45058000E-09	 5.00000000E-01	 5.00000000E+00
					-7.45058000E-09	 1.00000000E+00	 5.00000000E+00
					 2.50000000E-01	 5.00000000E-01	 5.00000000E+00
					 2.50000000E-01	 1.00000000E+00	 5.00000000E+00
					-7.45058000E-09	 5.00000000E-01	 4.50000000E+00
					-7.45058000E-09	 7.50000000E-01	 5.00000000E+00
					-7.45058000E-09	 1.00000000E+00	 4.50000000E+00
					-7.45058000E-09	-1.49012000E-08	 5.00000000E+00
					 2.50000000E-01	-1.49012000E-08	 5.00000000E+00
					-7.45058000E-09	-1.49012000E-08	 4.50000000E+00
					-7.45058000E-09	 2.50000000E-01	 5.00000000E+00
					 1.00000000E+00	 5.00000000E-01	 6.00000000E+00
					 1.00000000E+00	 1.00000000E+00	 6.00000000E+00
					 5.00000000E-01	 5.00000000E-01	 6.00000000E+00
					 5.00000000E-01	 1.00000000E+00	 6.00000000E+00
					 1.00000000E+00	 5.00000000E-01	 5.50000000E+00
					 1.00000000E+00	 7.50000000E-01	 6.00000000E+00
					 1.00000000E+00	 1.00000000E+00	 5.50000000E+00
					 7.50000000E-01	 5.00000000E-01	 6.00000000E+00
					 7.50000000E-01	 1.00000000E+00	 6.00000000E+00
					 5.00000000E-01	 5.00000000E-01	 5.50000000E+00
					 5.00000000E-01	 7.50000000E-01	 6.00000000E+00
					 5.00000000E-01	 1.00000000E+00	 5.50000000E+00
					 1.00000000E+00	-1.49012000E-08	 6.00000000E+00
[...]
			<PointData>
				<DataArray type="Float32" Name="U" NumberOfComponents="3" ComponentName0="D1" ComponentName1="D2" ComponentName2="D3" format="ascii">
					 0.00000000E+00	 0.00000000E+00	 0.00000000E+00
					 0.00000000E+00	 0.00000000E+00	 0.00000000E+00
					 2.09043000E-08	-7.81273000E-07	-3.60110000E-07
					-1.83748000E-05	-1.87130000E-07	 4.50344000E-06
					 0.00000000E+00	 0.00000000E+00	 0.00000000E+00
					 0.00000000E+00	 0.00000000E+00	 0.00000000E+00
					-3.73846000E-08	-2.00791000E-05	-4.14198000E-07
					-2.01338000E-05	-1.92282000E-05	 5.19452000E-06
					 0.00000000E+00	 0.00000000E+00	 0.00000000E+00
					 5.79741000E-08	 1.10460000E-06	-1.79837000E-07
					-9.17858000E-06	-5.02539000E-07	 2.63435000E-06
					-8.98094000E-06	 5.79429000E-07	 4.80940000E-06
					 0.00000000E+00	 0.00000000E+00	 0.00000000E+00
					 0.00000000E+00	 0.00000000E+00	 0.00000000E+00
					-6.43938000E-09	-1.04150000E-05	-3.90136000E-07
					-1.92144000E-05	-9.63775000E-06	 3.05993000E-06
					 0.00000000E+00	 0.00000000E+00	 0.00000000E+00
					-6.45977000E-09	-7.73040000E-06	-1.87932000E-07
					-1.00428000E-05	-1.96134000E-05	 1.11458000E-06
					-8.65074000E-06	-7.97192000E-06	 4.93975000E-06
					 0.00000000E+00	 0.00000000E+00	 0.00000000E+00
					 1.84229000E-05	-2.78880000E-07	-5.22439000E-06
					 0.00000000E+00	 0.00000000E+00	 0.00000000E+00
					 2.00693000E-05	-1.93407000E-05	-6.01966000E-06
					 0.00000000E+00	 0.00000000E+00	 0.00000000E+00
					 9.10082000E-06	 4.67868000E-07	-5.18638000E-06
					 9.21583000E-06	-5.43432000E-07	-3.35073000E-06
					 0.00000000E+00	 0.00000000E+00	 0.00000000E+00
					 1.92119000E-05	-9.74262000E-06	-3.83567000E-06
					 0.00000000E+00	 0.00000000E+00	 0.00000000E+00
					 8.64632000E-06	-8.09517000E-06	-5.33618000E-06
					 9.96900000E-06	-1.96712000E-05	-1.93333000E-06
					 0.00000000E+00	 0.00000000E+00	 0.00000000E+00
					 0.00000000E+00	 0.00000000E+00	 0.00000000E+00
					-9.86544000E-08	-4.09842000E-05	-4.46077000E-07
					-2.09059000E-05	-3.93823000E-05	 4.42494000E-06
					 0.00000000E+00	 0.00000000E+00	 0.00000000E+00
					 0.00000000E+00	 0.00000000E+00	 0.00000000E+00
					-6.67067000E-08	-3.04260000E-05	-4.32916000E-07
					-2.05113000E-05	-2.94016000E-05	 7.16129000E-06
					 0.00000000E+00	 0.00000000E+00	 0.00000000E+00
					-7.59384000E-08	-1.61916000E-05	-2.15814000E-07
					-1.06723000E-05	-4.01492000E-05	-1.59022000E-06
					-7.46145000E-06	-1.58363000E-05	 4.77070000E-06
					 0.00000000E+00	 0.00000000E+00	 0.00000000E+00
					 2.07173000E-05	-3.95039000E-05	-5.30865000E-06
					 0.00000000E+00	 0.00000000E+00	 0.00000000E+00
					 2.03822000E-05	-2.95206000E-05	-8.01891000E-06
					 0.00000000E+00	 0.00000000E+00	 0.00000000E+00
					 7.31627000E-06	-1.59726000E-05	-5.22681000E-06
					 1.04759000E-05	-4.02146000E-05	 7.08463000E-07
					-2.01663000E-07	 2.45320000E-05	-6.06629000E-07
					-5.15203000E-05	 2.93185000E-05	-3.20041000E-05
					-2.05678000E-07	-3.34793000E-05	-6.69693000E-07
					-6.39783000E-05	-2.77872000E-05	-3.06156000E-05
					-7.51824000E-08	 1.48661000E-06	-4.98568000E-07
					-2.59138000E-05	 2.55523000E-05	-1.57020000E-05
					-3.15095000E-05	 4.24878000E-06	-5.83480000E-06
					-2.02502000E-07	-3.17381000E-06	-6.42688000E-07
					-5.77354000E-05	 2.21608000E-06	-3.47750000E-05
					-1.04337000E-07	-3.28642000E-05	-5.76101000E-07
					-3.20081000E-05	-3.19601000E-05	-1.86734000E-05
					-3.72022000E-05	-2.98282000E-05	-4.80211000E-06
					 5.10938000E-05	 2.92465000E-05	 3.08763000E-05
					 6.35341000E-05	-2.78236000E-05	 2.93638000E-05
					 3.13665000E-05	 4.15552000E-06	 4.84207000E-06
					 2.55234000E-05	 2.54858000E-05	 1.45110000E-05
					 5.72945000E-05	 2.17091000E-06	 3.35611000E-05
					 3.69857000E-05	-2.99266000E-05	 3.66503000E-06
					 3.15910000E-05	-3.19821000E-05	 1.73382000E-05
					-2.09916000E-07	-1.02979000E-04	-7.15046000E-07
					-7.42284000E-05	-9.60356000E-05	-3.21257000E-05
					-2.11919000E-07	-6.67771000E-05	-6.79024000E-07
					-6.90346000E-05	-6.07514000E-05	-2.60920000E-05
					-1.37569000E-07	-7.27033000E-05	-6.31016000E-07
					-3.74383000E-05	-1.00822000E-04	-2.45372000E-05
					-4.19041000E-05	-6.89567000E-05	-5.95470000E-06
					 7.38062000E-05	-9.60508000E-05	 3.07763000E-05
					 6.86099000E-05	-6.07645000E-05	 2.48126000E-05
					 4.16303000E-05	-6.90598000E-05	 4.72595000E-06
					 3.70202000E-05	-1.00822000E-04	 2.31113000E-05
					-3.29064000E-07	 2.70385000E-04	-4.40364000E-07
					-1.43357000E-04	 2.79951000E-04	-1.65159000E-04
					-2.52928000E-07	 1.08618000E-04	-3.17868000E-07
					-1.74736000E-04	 1.21985000E-04	-1.65005000E-04
					-3.03050000E-07	 9.72692000E-05	-6.35093000E-07
					-7.25385000E-05	 2.71198000E-04	-7.36463000E-05
					-8.53019000E-05	 1.05375000E-04	-8.63870000E-05
					-2.99220000E-07	 1.92882000E-04	-4.30805000E-07
					-1.59055000E-04	 2.05153000E-04	-1.75836000E-04
					-3.04690000E-07	 6.14039000E-07	-6.22180000E-07
					-8.73020000E-05	 1.11352000E-04	-8.44252000E-05
					-1.06572000E-04	 1.04666000E-05	-8.44912000E-05
					 1.42648000E-04	 2.80309000E-04	 1.64239000E-04
					 1.74242000E-04	 1.22464000E-04	 1.64339000E-04
					 8.46280000E-05	 1.05489000E-04	 8.52441000E-05
					 7.17925000E-05	 2.71469000E-04	 7.27680000E-05
					 1.58466000E-04	 2.05544000E-04	 1.74962000E-04
					 1.05947000E-04	 1.06838000E-05	 8.33588000E-05
					 8.67900000E-05	 1.11593000E-04	 8.38387000E-05
					-5.87813000E-08	-7.86051000E-05	 1.56397000E-08
					-2.00909000E-04	-6.39957000E-05	-1.64649000E-04
					-1.68180000E-07	 1.88141000E-05	-1.86958000E-07
					-1.87641000E-04	 3.24192000E-05	-1.52453000E-04
					-2.38265000E-07	-1.15244000E-04	-5.39289000E-07
					-1.00605000E-04	-7.49847000E-05	-9.62904000E-05
					-1.24767000E-04	-1.04172000E-04	-8.63185000E-05
					 2.00696000E-04	-6.33453000E-05	 1.64675000E-04
					 1.87208000E-04	 3.29248000E-05	 1.52108000E-04
					 1.24249000E-04	-1.03873000E-04	 8.53036000E-05
					 1.00463000E-04	-7.46959000E-05	 9.63411000E-05
					-1.28733000E-07	 1.18844000E-03	 8.78352000E-07
					-4.42550000E-04	 1.17530000E-03	-3.10908000E-04
					 8.61657000E-07	 7.35075000E-04	 1.39510000E-06
					-4.47489000E-04	 7.32242000E-04	-3.21766000E-04
					-3.32571000E-07	 6.20462000E-04	-2.30632000E-08
					-2.24298000E-04	 1.17951000E-03	-1.03271000E-04
					-2.55004000E-04	 6.21374000E-04	-2.63744000E-04
					 3.70855000E-07	 9.62128000E-04	 1.28908000E-06
					-4.44975000E-04	 9.57372000E-04	-3.48677000E-04
					 1.74214000E-07	 3.47638000E-04	 3.25632000E-07
					-2.22735000E-04	 7.30750000E-04	-1.40396000E-04
					-2.82137000E-04	 3.55214000E-04	-2.66585000E-04
					 4.42453000E-04	 1.17693000E-03	 3.13573000E-04
					 4.49250000E-04	 7.33611000E-04	 3.25318000E-04
					 2.54434000E-04	 6.22039000E-04	 2.63694000E-04
					 2.24425000E-04	 1.17989000E-03	 1.05246000E-04
					 4.45730000E-04	 9.59050000E-04	 3.52056000E-04
					 2.82424000E-04	 3.55861000E-04	 2.67283000E-04
					 2.24573000E-04	 7.31371000E-04	 1.43224000E-04
					 1.49790000E-06	 2.91780000E-04	 1.90479000E-06
					-4.42673000E-04	 2.88756000E-04	-3.10218000E-04
					 1.16933000E-06	 5.14689000E-04	 1.59337000E-06
					-4.44554000E-04	 5.12296000E-04	-2.92946000E-04
					 5.89669000E-07	 5.58922000E-05	 9.05596000E-07
					-2.19191000E-04	 2.88094000E-04	-1.57976000E-04
					-3.02085000E-04	 6.38986000E-05	-2.62714000E-04
					 4.46060000E-04	 2.89695000E-04	 3.14502000E-04
					 4.47281000E-04	 5.13605000E-04	 2.96552000E-04
					 3.03262000E-04	 6.45918000E-05	 2.64730000E-04
					 2.22348000E-04	 2.88684000E-04	 1.61873000E-04
					-1.65709000E-06	 2.74414000E-03	 9.23457000E-06
					-1.24481000E-03	 2.63244000E-03	 2.54861000E-04
					 4.22639000E-07	 1.59756000E-03	 5.89768000E-06
					-1.04187000E-03	 1.49323000E-03	 2.23073000E-04
					 2.10162000E-07	 1.98186000E-03	 3.43971000E-06
					-6.25632000E-04	 2.71270000E-03	 2.71431000E-04
					-7.67273000E-04	 1.91796000E-03	-1.85606000E-04
					-4.08978000E-07	 2.14457000E-03	 7.54501000E-06
					-1.14229000E-03	 2.03889000E-03	 1.60415000E-04
					 1.34955000E-06	 1.24246000E-03	 3.03799000E-06
					-5.20678000E-04	 1.57044000E-03	 1.79589000E-04
					-6.94122000E-04	 1.19110000E-03	-2.08671000E-04
					 1.24304000E-03	 2.64225000E-03	-2.36888000E-04
					 1.04512000E-03	 1.49960000E-03	-2.11572000E-04
					 7.67987000E-04	 1.92252000E-03	 1.94200000E-04
					 6.21521000E-04	 2.71879000E-03	-2.53457000E-04
					 1.14382000E-03	 2.04677000E-03	-1.45338000E-04
					 6.97976000E-04	 1.19462000E-03	 2.16000000E-04
					 5.21850000E-04	 1.57368000E-03	-1.67372000E-04
					 1.75221000E-06	 6.56589000E-04	 3.54576000E-06
					-8.30569000E-04	 5.58594000E-04	 2.49827000E-04
					 1.28709000E-06	 1.10259000E-03	 4.29261000E-06
					-9.36347000E-04	 9.99764000E-04	 2.76356000E-04
					 2.05493000E-06	 5.89745000E-04	 2.78220000E-06
					-4.15987000E-04	 6.33762000E-04	 1.47326000E-04
					-6.07776000E-04	 5.41592000E-04	-1.86973000E-04
					 8.35326000E-04	 5.62312000E-04	-2.42640000E-04
					 9.40197000E-04	 1.00410000E-03	-2.67580000E-04
					 6.12797000E-04	 5.43507000E-04	 1.92879000E-04
					 4.19791000E-04	 6.35049000E-04	-1.39867000E-04
					-1.66287000E-05	 1.88151000E-03	 1.46278000E-05
					-2.46156000E-03	 1.67690000E-03	 2.53258000E-03
					-9.07955000E-06	-3.28512000E-04	 7.19974000E-06
					-2.01706000E-03	-5.51452000E-04	 2.52520000E-03
					-8.86728000E-06	 2.95523000E-03	 1.60295000E-05
					-1.23029000E-03	 1.83993000E-03	 1.35597000E-03
					-1.84691000E-03	 2.79216000E-03	 1.22514000E-03
					-1.27732000E-05	 7.21936000E-04	 1.05379000E-05
					-2.24015000E-03	 5.02243000E-04	 2.45036000E-03
					-4.01372000E-06	 1.29086000E-03	 8.51489000E-06
					-1.01152000E-03	-3.79276000E-04	 1.26841000E-03
					-1.50007000E-03	 1.12673000E-03	 1.19195000E-03
					 2.42796000E-03	 1.69811000E-03	-2.50062000E-03
					 1.99692000E-03	-5.31329000E-04	-2.50688000E-03
					 1.83180000E-03	 2.80507000E-03	-1.19616000E-03
					 1.20035000E-03	 1.84777000E-03	-1.32485000E-03
					 2.21259000E-03	 5.22432000E-04	-2.42600000E-03
					 1.49285000E-03	 1.13474000E-03	-1.17576000E-03
					 9.93927000E-04	-3.68618000E-04	-1.25407000E-03
					-4.88435000E-06	-2.13195000E-03	-2.36198000E-06
					-1.57826000E-03	-2.34456000E-03	 2.51678000E-03
					-6.65050000E-06	-1.28767000E-03	 3.74605000E-06
					-1.79626000E-03	-1.51088000E-03	 2.59891000E-03
					-1.41068000E-06	-3.74864000E-05	 1.99166000E-06
					-7.96294000E-04	-2.18091000E-03	 1.18282000E-03
					-1.14399000E-03	-1.88324000E-04	 1.21471000E-03
					 1.57453000E-03	-2.32725000E-03	-2.51674000E-03
					 1.78604000E-03	-1.48764000E-03	-2.58911000E-03
					 1.14480000E-03	-1.84220000E-04	-1.20807000E-03
					 7.88100000E-04	-2.17020000E-03	-1.18592000E-03
					 2.91913000E-05	-5.75179000E-03	-3.82002000E-06
					-2.79635000E-03	-5.87969000E-03	 4.72333000E-03
					 2.71863000E-05	-8.50974000E-03	-2.61283000E-05
					-2.63092000E-03	-8.62799000E-03	 4.73521000E-03
					 1.39961000E-06	-1.12378000E-03	 1.74734000E-07
					-1.39153000E-03	-5.80102000E-03	 2.28454000E-03
					-2.80094000E-03	-1.28369000E-03	 3.83665000E-03
					 2.82771000E-05	-7.15332000E-03	-1.23750000E-05
					-2.71276000E-03	-7.28030000E-03	 4.73942000E-03
					 1.92132000E-06	-3.73205000E-03	-3.25611000E-06
					-1.31042000E-03	-8.54844000E-03	 2.28786000E-03
					-2.43342000E-03	-3.91500000E-03	 3.85937000E-03
					 2.88079000E-03	-5.77680000E-03	-4.75949000E-03
					 2.70504000E-03	-8.55540000E-03	-4.81631000E-03
					 2.79609000E-03	-1.23074000E-03	-3.82587000E-03
					 1.45090000E-03	-5.73509000E-03	-2.31067000E-03
					 2.79719000E-03	-7.18920000E-03	-4.79069000E-03
					 2.44295000E-03	-3.85817000E-03	-3.86329000E-03
					 1.36632000E-03	-8.51218000E-03	-2.34751000E-03
					 2.33091000E-05	-1.10949000E-02	-4.19594000E-05
					-2.49533000E-03	-1.12235000E-02	 4.69435000E-03
					 2.45131000E-05	-9.82349000E-03	-3.85695000E-05
					-2.56658000E-03	-9.93356000E-03	 4.75222000E-03
					 2.87659000E-06	-6.00779000E-03	-9.60833000E-06
					-1.22910000E-03	-1.11326000E-02	 2.21994000E-03
					-2.10636000E-03	-6.19459000E-03	 3.81276000E-03
					 2.53894000E-03	-1.11601000E-02	-4.78815000E-03
					 2.62052000E-03	-9.87933000E-03	-4.84397000E-03
					 2.11068000E-03	-6.14101000E-03	-3.84200000E-03
					 1.27857000E-03	-1.11102000E-02	-2.30449000E-03
					-8.84599000E-07	-1.60460000E-02	-4.53538000E-05
					-2.87374000E-03	-1.57986000E-02	 4.80938000E-03
					 9.12543000E-05	-1.89643000E-02	-9.83210000E-05
					-2.84421000E-03	-1.91115000E-02	 5.01585000E-03
					 1.45087000E-05	-1.09649000E-02	 4.08951000E-06
					-1.39993000E-03	-1.59134000E-02	 2.44188000E-03
					-2.78724000E-03	-1.10075000E-02	 4.91964000E-03
					 5.06900000E-05	-1.74768000E-02	-7.15232000E-05
					-2.85445000E-03	-1.74045000E-02	 4.86814000E-03
					 5.05923000E-05	-1.37706000E-02	-7.01993000E-05
					-1.32139000E-03	-1.90341000E-02	 2.43144000E-03
					-2.78533000E-03	-1.38303000E-02	 4.97419000E-03
					 2.74894000E-03	-1.61414000E-02	-5.08839000E-03
					 2.81737000E-03	-1.89473000E-02	-5.16567000E-03
					 2.83042000E-03	-1.09741000E-02	-5.05654000E-03
					 1.36446000E-03	-1.61293000E-02	-2.55841000E-03
					 2.77578000E-03	-1.75402000E-02	-5.14039000E-03
					 2.79378000E-03	-1.37891000E-02	-5.13092000E-03
					 1.44837000E-03	-1.89657000E-02	-2.62690000E-03
					 7.73221000E-05	-2.18664000E-02	-9.52348000E-05
					-2.81776000E-03	-2.20847000E-02	 5.07410000E-03
					 9.82848000E-05	-2.04222000E-02	-1.04071000E-04
					-2.83658000E-03	-2.06478000E-02	 5.08147000E-03
					 5.15258000E-05	-1.65425000E-02	-9.41051000E-05
					-1.38056000E-03	-2.20076000E-02	 2.43541000E-03
					-2.70509000E-03	-1.66404000E-02	 4.99753000E-03
					 2.85566000E-03	-2.17186000E-02	-5.15259000E-03
					 2.84200000E-03	-2.03363000E-02	-5.16188000E-03
					 2.75718000E-03	-1.65247000E-02	-5.11308000E-03
					 1.47760000E-03	-2.17769000E-02	-2.62152000E-03
					 0.00000000E+00	 0.00000000E+00	 0.00000000E+00
					 0.00000000E+00	 0.00000000E+00	 0.00000000E+00
					 7.09824000E-05	-1.13318000E-02	-1.49190000E-04
					-3.25699000E-03	-1.23222000E-02	 1.26789000E-02
					 0.00000000E+00	 0.00000000E+00	 0.00000000E+00
					 0.00000000E+00	 0.00000000E+00	 0.00000000E+00
					 6.38281000E-05	-1.37539000E-02	-1.77950000E-04
					-1.48913000E-03	-1.47951000E-02	 1.27711000E-02
					 0.00000000E+00	 0.00000000E+00	 0.00000000E+00
					 4.38860000E-05	-1.89762000E-03	-4.49763000E-05
					-1.59764000E-03	-1.15279000E-02	 6.32070000E-03
					-2.62831000E-03	-3.07901000E-03	 6.34161000E-03
					 0.00000000E+00	 0.00000000E+00	 0.00000000E+00
					 0.00000000E+00	 0.00000000E+00	 0.00000000E+00
					 6.90897000E-05	-1.28360000E-02	-1.67312000E-04
					-2.35824000E-03	-1.38461000E-02	 1.25698000E-02
					 0.00000000E+00	 0.00000000E+00	 0.00000000E+00
					 2.41410000E-05	-3.51842000E-03	-5.05119000E-05
					-7.12406000E-04	-1.39619000E-02	 6.19351000E-03
					-7.27222000E-04	-4.67782000E-03	 6.15045000E-03
					 0.00000000E+00	 0.00000000E+00	 0.00000000E+00
					 3.37029000E-03	-1.19354000E-02	-1.30336000E-02
					 0.00000000E+00	 0.00000000E+00	 0.00000000E+00
					 1.62189000E-03	-1.44040000E-02	-1.31884000E-02
					 0.00000000E+00	 0.00000000E+00	 0.00000000E+00
					 2.69613000E-03	-2.95544000E-03	-6.44978000E-03
					 1.72977000E-03	-1.13266000E-02	-6.63975000E-03
					 0.00000000E+00	 0.00000000E+00	 0.00000000E+00
					 2.48841000E-03	-1.34553000E-02	-1.29596000E-02
					 0.00000000E+00	 0.00000000E+00	 0.00000000E+00
					 7.77328000E-04	-4.55745000E-03	-6.25890000E-03
					 8.40724000E-04	-1.37626000E-02	-6.57067000E-03
					 0.00000000E+00	 0.00000000E+00	 0.00000000E+00
					 0.00000000E+00	 0.00000000E+00	 0.00000000E+00
					 5.04932000E-05	-1.44421000E-02	-1.58155000E-04
					 2.89420000E-04	-1.54085000E-02	 1.26740000E-02
					 0.00000000E+00	 0.00000000E+00	 0.00000000E+00
					 0.00000000E+00	 0.00000000E+00	 0.00000000E+00
					 5.70452000E-05	-1.43882000E-02	-1.77693000E-04
					-6.11694000E-04	-1.53940000E-02	 1.28473000E-02
					 0.00000000E+00	 0.00000000E+00	 0.00000000E+00
					 3.42869000E-06	-3.40131000E-03	-3.09896000E-05
					 1.69877000E-04	-1.46188000E-02	 6.02569000E-03
					 1.23112000E-03	-4.52353000E-03	 6.35914000E-03
					 0.00000000E+00	 0.00000000E+00	 0.00000000E+00
					-1.55413000E-04	-1.50353000E-02	-1.30415000E-02
					 0.00000000E+00	 0.00000000E+00	 0.00000000E+00
					 7.40146000E-04	-1.50058000E-02	-1.32630000E-02
					 0.00000000E+00	 0.00000000E+00	 0.00000000E+00
					-1.20519000E-03	-4.39945000E-03	-6.43227000E-03
					-5.55829000E-05	-1.44371000E-02	-6.35599000E-03
					 1.82588000E-04	-4.82003000E-02	-8.57106000E-04
					-4.51290000E-03	-4.95452000E-02	 2.31803000E-02
					 1.91639000E-04	-5.21313000E-02	-9.80441000E-04
					-2.99125000E-03	-5.34739000E-02	 2.30899000E-02
					 1.27138000E-04	-2.68960000E-02	-4.02265000E-04
					-2.16480000E-03	-4.87055000E-02	 1.11827000E-02
					-3.94097000E-03	-2.81320000E-02	 1.83195000E-02
					 1.88946000E-04	-5.03355000E-02	-9.28748000E-04
					-3.75031000E-03	-5.16770000E-02	 2.30430000E-02
					 1.19858000E-04	-3.01161000E-02	-4.71623000E-04
					-1.39662000E-03	-5.26334000E-02	 1.09924000E-02
					-2.25802000E-03	-3.13492000E-02	 1.82919000E-02
					 4.87825000E-03	-4.82991000E-02	-2.49793000E-02
					 3.38313000E-03	-5.22603000E-02	-2.51367000E-02
					 4.17398000E-03	-2.73686000E-02	-1.92025000E-02
					 2.52651000E-03	-4.80787000E-02	-1.29185000E-02
					 4.13595000E-03	-5.04584000E-02	-2.49809000E-02
					 2.50466000E-03	-3.05954000E-02	-1.93153000E-02
					 1.78604000E-03	-5.20309000E-02	-1.29708000E-02
					 1.80996000E-04	-5.45766000E-02	-1.02743000E-03
					-1.47035000E-03	-5.58772000E-02	 2.30058000E-02
					 1.87689000E-04	-5.35227000E-02	-1.01328000E-03
					-2.22837000E-03	-5.48833000E-02	 2.31673000E-02
					 1.02284000E-04	-3.16641000E-02	-4.75982000E-04
					-6.53849000E-04	-5.50466000E-02	 1.07985000E-02
					-5.90820000E-04	-3.28844000E-02	 1.82452000E-02
					 1.88599000E-03	-5.47152000E-02	-2.51466000E-02
					 2.63434000E-03	-5.36523000E-02	-2.52850000E-02
					 8.39884000E-04	-3.21653000E-02	-1.92753000E-02
					 1.03207000E-03	-5.44836000E-02	-1.28678000E-02
					 3.62107000E-04	-1.05347000E-01	-2.49505000E-03
					-5.50575000E-03	-1.06991000E-01	 3.03456000E-02
					 3.87428000E-04	-1.10591000E-01	-2.72832000E-03
					-4.29731000E-03	-1.12339000E-01	 3.01496000E-02
					 2.64184000E-04	-7.45322000E-02	-1.54595000E-03
					-2.56709000E-03	-1.06020000E-01	 1.39381000E-02
					-5.02844000E-03	-7.60515000E-02	 2.71693000E-02
					 3.78945000E-04	-1.08120000E-01	-2.61662000E-03
					-4.90072000E-03	-1.09826000E-01	 3.01485000E-02
					 2.78132000E-04	-7.91481000E-02	-1.72720000E-03
					-1.98155000E-03	-1.11315000E-01	 1.36219000E-02
					-3.67279000E-03	-8.06672000E-02	 2.70314000E-02
					 6.19215000E-03	-1.04788000E-01	-3.53988000E-02
					 5.08474000E-03	-1.10062000E-01	-3.57078000E-02
					 5.55127000E-03	-7.43261000E-02	-3.03497000E-02
					 3.27724000E-03	-1.04920000E-01	-1.89375000E-02
					 5.63953000E-03	-1.07573000E-01	-3.54737000E-02
					 4.24951000E-03	-7.89516000E-02	-3.05723000E-02
					 2.73607000E-03	-1.10188000E-01	-1.91184000E-02
					 3.88398000E-04	-1.14709000E-01	-2.89227000E-03
					-3.21760000E-03	-1.16553000E-01	 2.99417000E-02
					 3.90222000E-04	-1.12810000E-01	-2.82301000E-03
					-3.75925000E-03	-1.14486000E-01	 3.01729000E-02
					 2.81808000E-04	-8.24425000E-02	-1.83174000E-03
					-1.38768000E-03	-1.15477000E-01	 1.32982000E-02
					-2.36712000E-03	-8.39684000E-02	 2.68873000E-02
					 3.97452000E-03	-1.14226000E-01	-3.58578000E-02
					 4.53235000E-03	-1.12275000E-01	-3.59266000E-02
					 2.92602000E-03	-8.22676000E-02	-3.06384000E-02
					 2.17055000E-03	-1.14346000E-01	-1.91454000E-02
					 6.61905000E-04	-1.78110000E-01	-5.14547000E-03
					-5.96196000E-03	-1.79894000E-01	 3.37942000E-02