# vtk DataFile Version 3.0

ASCII
DATASET UNSTRUCTURED_GRID

POINTS 522 double
	 1.00000000E+00	 1.00000000E+00	-5.96046000E-08
	 1.00000000E+00	 5.00000000E-01	-5.96046000E-08
	 1.00000000E+00	 5.00000000E-01	 1.00000000E+00
	 1.00000000E+00	 1.00000000E+00	 1.00000000E+00
	 5.00000000E-01	 1.00000000E+00	-5.96046000E-08
	 5.00000000E-01	 5.00000000E-01	-5.96046000E-08
	 5.00000000E-01	 5.00000000E-01	 1.00000000E+00
	 5.00000000E-01	 1.00000000E+00	 1.00000000E+00
	 1.00000000E+00	 7.50000000E-01	-5.96046000E-08
	 1.00000000E+00	 5.00000000E-01	 5.00000000E-01
	 1.00000000E+00	 7.50000000E-01	 1.00000000E+00
	 1.00000000E+00	 1.00000000E+00	 5.00000000E-01
	 7.50000000E-01	 1.00000000E+00	-5.96046000E-08
	 7.50000000E-01	 5.00000000E-01	-5.96046000E-08
	 7.50000000E-01	 5.00000000E-01	 1.00000000E+00
	 7.50000000E-01	 1.00000000E+00	 1.00000000E+00
	 5.00000000E-01	 7.50000000E-01	-5.96046000E-08
	 5.00000000E-01	 5.00000000E-01	 5.00000000E-01
	 5.00000000E-01	 7.50000000E-01	 1.00000000E+00
	 5.00000000E-01	 1.00000000E+00	 5.00000000E-01
	 1.00000000E+00	-1.49012000E-08	-5.96046000E-08
	 1.00000000E+00	-1.49012000E-08	 1.00000000E+00
	 5.00000000E-01	-1.49012000E-08	-5.96046000E-08
	 5.00000000E-01	-1.49012000E-08	 1.00000000E+00
	 1.00000000E+00	 2.50000000E-01	-5.96046000E-08
	 1.00000000E+00	-1.49012000E-08	 5.00000000E-01
	 1.00000000E+00	 2.50000000E-01	 1.00000000E+00
	 7.50000000E-01	-1.49012000E-08	-5.96046000E-08
	 7.50000000E-01	-1.49012000E-08	 1.00000000E+00
	 5.00000000E-01	 2.50000000E-01	-5.96046000E-08
	 5.00000000E-01	-1.49012000E-08	 5.00000000E-01
	 5.00000000E-01	 2.50000000E-01	 1.00000000E+00
	-7.45058000E-09	 1.00000000E+00	-5.96046000E-08
	-7.45058000E-09	 5.00000000E-01	-5.96046000E-08
	-7.45058000E-09	 5.00000000E-01	 1.00000000E+00
	-7.45058000E-09	 1.00000000E+00	 1.00000000E+00
	 2.50000000E-01	 1.00000000E+00	-5.96046000E-08
	 2.50000000E-01	 5.00000000E-01	-5.96046000E-08
	 2.50000000E-01	 5.00000000E-01	 1.00000000E+00
	 2.50000000E-01	 1.00000000E+00	 1.00000000E+00
	-7.45058000E-09	 7.50000000E-01	-5.96046000E-08
	-7.45058000E-09	 5.00000000E-01	 5.00000000E-01
	-7.45058000E-09	 7.50000000E-01	 1.00000000E+00
	-7.45058000E-09	 1.00000000E+00	 5.00000000E-01
	-7.45058000E-09	-1.49012000E-08	-5.96046000E-08
	-7.45058000E-09	-1.49012000E-08	 1.00000000E+00
	 2.50000000E-01	-1.49012000E-08	-5.96046000E-08
	 2.50000000E-01	-1.49012000E-08	 1.00000000E+00
	-7.45058000E-09	 2.50000000E-01	-5.96046000E-08
	-7.45058000E-09	-1.49012000E-08	 5.00000000E-01
	-7.45058000E-09	 2.50000000E-01	 1.00000000E+00
	 1.00000000E+00	 5.00000000E-01	 2.00000000E+00
	 1.00000000E+00	 1.00000000E+00	 2.00000000E+00
	 5.00000000E-01	 5.00000000E-01	 2.00000000E+00
	 5.00000000E-01	 1.00000000E+00	 2.00000000E+00
	 1.00000000E+00	 5.00000000E-01	 1.50000000E+00
	 1.00000000E+00	 7.50000000E-01	 2.00000000E+00
	 1.00000000E+00	 1.00000000E+00	 1.50000000E+00
	 7.50000000E-01	 5.00000000E-01	 2.00000000E+00
	 7.50000000E-01	 1.00000000E+00	 2.00000000E+00
	 5.00000000E-01	 5.00000000E-01	 1.50000000E+00
	 5.00000000E-01	 7.50000000E-01	 2.00000000E+00
	 5.00000000E-01	 1.00000000E+00	 1.50000000E+00
	 1.00000000E+00	-1.49012000E-08	 2.00000000E+00
	 5.00000000E-01	-1.49012000E-08	 2.00000000E+00
	 1.00000000E+00	-1.49012000E-08	 1.50000000E+00
	 1.00000000E+00	 2.50000000E-01	 2.00000000E+00
	 7.50000000E-01	-1.49012000E-08	 2.00000000E+00
	 5.00000000E-01	-1.49012000E-08	 1.50000000E+00
	 5.00000000E-01	 2.50000000E-01	 2.00000000E+00
	-7.45058000E-09	 5.00000000E-01	 2.00000000E+00
	-7.45058000E-09	 1.00000000E+00	 2.00000000E+00
	 2.50000000E-01	 5.00000000E-01	 2.00000000E+00
	 2.50000000E-01	 1.00000000E+00	 2.00000000E+00
	-7.45058000E-09	 5.00000000E-01	 1.50000000E+00
	-7.45058000E-09	 7.50000000E-01	 2.00000000E+00
	-7.45058000E-09	 1.00000000E+00	 1.50000000E+00
	-7.45058000E-09	-1.49012000E-08	 2.00000000E+00
	 2.50000000E-01	-1.49012000E-08	 2.00000000E+00
	-7.45058000E-09	-1.49012000E-08	 1.50000000E+00
	-7.45058000E-09	 2.50000000E-01	 2.00000000E+00
	 1.00000000E+00	 5.00000000E-01	 3.00000000E+00
	 1.00000000E+00	 1.00000000E+00	 3.00000000E+00
	 5.00000000E-01	 5.00000000E-01	 3.00000000E+00
	 5.00000000E-01	 1.00000000E+00	 3.00000000E+00
	 1.00000000E+00	 5.00000000E-01	 2.50000000E+00
	 1.00000000E+00	 7.50000000E-01	 3.00000000E+00
	 1.00000000E+00	 1.00000000E+00	 2.50000000E+00
	 7.50000000E-01	 5.00000000E-01	 3.00000000E+00
	 7.50000000E-01	 1.00000000E+00	 3.00000000E+00
	 5.00000000E-01	 5.00000000E-01	 2.50000000E+00
	 5.00000000E-01	 7.50000000E-01	 3.00000000E+00
	 5.00000000E-01	 1.00000000E+00	 2.50000000E+00
	 1.00000000E+00	-1.49012000E-08	 3.00000000E+00
	 5.00000000E-01	-1.49012000E-08	 3.00000000E+00
	 1.00000000E+00	-1.49012000E-08	 2.50000000E+00
	 1.00000000E+00	 2.50000000E-01	 3.00000000E+00
	 7.50000000E-01	-1.49012000E-08	 3.00000000E+00
	 5.00000000E-01	-1.49012000E-08	 2.50000000E+00
	 5.00000000E-01	 2.50000000E-01	 3.00000000E+00
	-7.45058000E-09	 5.00000000E-01	 3.00000000E+00
	-7.45058000E-09	 1.00000000E+00	 3.00000000E+00
	 2.50000000E-01	 5.00000000E-01	 3.00000000E+00
	 2.50000000E-01	 1.00000000E+00	 3.00000000E+00
	-7.45058000E-09	 5.00000000E-01	 2.50000000E+00
	-7.45058000E-09	 7.50000000E-01	 3.00000000E+00
	-7.45058000E-09	 1.00000000E+00	 2.50000000E+00
	-7.45058000E-09	-1.49012000E-08	 3.00000000E+00
	 2.50000000E-01	-1.49012000E-08	 3.00000000E+00
	-7.45058000E-09	-1.49012000E-08	 2.50000000E+00
	-7.45058000E-09	 2.50000000E-01	 3.00000000E+00
	 1.00000000E+00	 5.00000000E-01	 4.00000000E+00
	 1.00000000E+00	 1.00000000E+00	 4.00000000E+00
	 5.00000000E-01	 5.00000000E-01	 4.00000000E+00
	 5.00000000E-01	 1.00000000E+00	 4.00000000E+00
	 1.00000000E+00	 5.00000000E-01	 3.50000000E+00
	 1.00000000E+00	 7.50000000E-01	 4.00000000E+00
	 1.00000000E+00	 1.00000000E+00	 3.50000000E+00
	 7.50000000E-01	 5.00000000E-01	 4.00000000E+00
	 7.50000000E-01	 1.00000000E+00	 4.00000000E+00
	 5.00000000E-01	 5.00000000E-01	 3.50000000E+00
	 5.00000000E-01	 7.50000000E-01	 4.00000000E+00
	 5.00000000E-01	 1.00000000E+00	 3.50000000E+00
	 1.00000000E+00	-1.49012000E-08	 4.00000000E+00
	 5.00000000E-01	-1.49012000E-08	 4.00000000E+00
	 1.00000000E+00	-1.49012000E-08	 3.50000000E+00
	 1.00000000E+00	 2.50000000E-01	 4.00000000E+00
	 7.50000000E-01	-1.49012000E-08	 4.00000000E+00
	 5.00000000E-01	-1.49012000E-08	 3.50000000E+00
	 5.00000000E-01	 2.50000000E-01	 4.00000000E+00
	-7.45058000E-09	 5.00000000E-01	 4.00000000E+00
	-7.45058000E-09	 1.00000000E+00	 4.00000000E+00
	 2.50000000E-01	 5.00000000E-01	 4.00000000E+00
	 2.50000000E-01	 1.00000000E+00	 4.00000000E+00
	-7.45058000E-09	 5.00000000E-01	 3.50000000E+00
	-7.45058000E-09	 7.50000000E-01	 4.00000000E+00
	-7.45058000E-09	 1.00000000E+00	 3.50000000E+00
	-7.45058000E-09	-1.49012000E-08	 4.00000000E+00
	 2.50000000E-01	-1.49012000E-08	 4.00000000E+00
	-7.45058000E-09	-1.49012000E-08	 3.50000000E+00
	-7.45058000E-09	 2.50000000E-01	 4.00000000E+00
	 1.00000000E+00	 5.00000000E-01	 5.00000000E+00
	 1.00000000E+00	 1.00000000E+00	 5.00000000E+00
	 5.00000000E-01	 5.00000000E-01	 5.00000000E+00
	 5.00000000E-01	 1.00000000E+00	 5.00000000E+00
	 1.00000000E+00	 5.00000000E-01	 4.50000000E+00
	 1.00000000E+00	 7.50000000E-01	 5.00000000E+00
	 1.00000000E+00	 1.00000000E+00	 4.50000000E+00
	 7.50000000E-01	 5.00000000E-01	 5.00000000E+00
	 7.50000000E-01	 1.00000000E+00	 5.00000000E+00
	 5.00000000E-01	 5.00000000E-01	 4.50000000E+00
	 5.00000000E-01	 7.50000000E-01	 5.00000000E+00
	 5.00000000E-01	 1.00000000E+00	 4.50000000E+00
	 1.00000000E+00	-1.49012000E-08	 5.00000000E+00
	 5.00000000E-01	-1.49012000E-08	 5.00000000E+00
	 1.00000000E+00	-1.49012000E-08	 4.50000000E+00
	 1.00000000E+00	 2.50000000E-01	 5.00000000E+00
	 7.50000000E-01	-1.49012000E-08	 5.00000000E+00
	 5.00000000E-01	-1.49012000E-08	 4.50000000E+00
	 5.00000000E-01	 2.50000000E-01	 5.00000000E+00
	-7.45058000E-09	 5.00000000E-01	 5.00000000E+00
	-7.45058000E-09	 1.00000000E+00	 5.00000000E+00
	 2.50000000E-01	 5.00000000E-01	 5.00000000E+00
	 2.50000000E-01	 1.00000000E+00	 5.00000000E+00
	-7.45058000E-09	 5.00000000E-01	 4.50000000E+00
	-7.45058000E-09	 7.50000000E-01	 5.00000000E+00
	-7.45058000E-09	 1.00000000E+00	 4.50000000E+00
	-7.45058000E-09	-1.49012000E-08	 5.00000000E+00
	 2.50000000E-01	-1.49012000E-08	 5.00000000E+00
	-7.45058000E-09	-1.49012000E-08	 4.50000000E+00
	-7.45058000E-09	 2.50000000E-01	 5.00000000E+00
	 1.00000000E+00	 5.00000000E-01	 6.00000000E+00
	 1.00000000E+00	 1.00000000E+00	 6.00000000E+00
	 5.00000000E-01	 5.00000000E-01	 6.00000000E+00
	 5.00000000E-01	 1.00000000E+00	 6.00000000E+00
	 1.00000000E+00	 5.00000000E-01	 5.50000000E+00
	 1.00000000E+00	 7.50000000E-01	 6.00000000E+00
	 1.00000000E+00	 1.00000000E+00	 5.50000000E+00
	 7.50000000E-01	 5.00000000E-01	 6.00000000E+00
	 7.50000000E-01	 1.00000000E+00	 6.00000000E+00
	 5.00000000E-01	 5.00000000E-01	 5.50000000E+00
	 5.00000000E-01	 7.50000000E-01	 6.00000000E+00
	 5.00000000E-01	 1.00000000E+00	 5.50000000E+00
	 1.00000000E+00	-1.49012000E-08	 6.00000000E+00
	 5.00000000E-01	-1.49012000E-08	 6.00000000E+00
	 1.00000000E+00	-1.49012000E-08	 5.50000000E+00
	 1.00000000E+00	 2.50000000E-01	 6.00000000E+00
	 7.50000000E-01	-1.49012000E-08	 6.00000000E+00
	 5.00000000E-01	-1.49012000E-08	 5.50000000E+00
	 5.00000000E-01	 2.50000000E-01	 6.00000000E+00
	-7.45058000E-09	 5.00000000E-01	 6.00000000E+00
	-7.45058000E-09	 1.00000000E+00	 6.00000000E+00
	 2.50000000E-01	 5.00000000E-01	 6.00000000E+00
	 2.50000000E-01	 1.00000000E+00	 6.00000000E+00
	-7.45058000E-09	 5.00000000E-01	 5.50000000E+00
	-7.45058000E-09	 7.50000000E-01	 6.00000000E+00
	-7.45058000E-09	 1.00000000E+00	 5.50000000E+00
	-7.45058000E-09	-1.49012000E-08	 6.00000000E+00
	 2.50000000E-01	-1.49012000E-08	 6.00000000E+00
	-7.45058000E-09	-1.49012000E-08	 5.50000000E+00
	-7.45058000E-09	 2.50000000E-01	 6.00000000E+00
	 1.00000000E+00	 5.00000000E-01	 7.00000000E+00
[...]
POINT_DATA 522
FIELD U 1
	U 3 522 double
		 0.00000000E+00	 0.00000000E+00	 0.00000000E+00
		 0.00000000E+00	 0.00000000E+00	 0.00000000E+00
		-4.59354000E-07	 4.39727000E-03	-1.07529000E-05
		 9.26846000E-04	 4.54601000E-03	-3.89247000E-03
		 0.00000000E+00	 0.00000000E+00	 0.00000000E+00
		 0.00000000E+00	 0.00000000E+00	 0.00000000E+00
		 6.50820000E-07	 5.12526000E-03	-2.71046000E-05
		 5.28874000E-04	 5.29097000E-03	-3.97337000E-03
		 0.00000000E+00	 0.00000000E+00	 0.00000000E+00
		 7.57286000E-06	 1.01657000E-03	-3.55506000E-06
		 4.64712000E-04	 4.39385000E-03	-1.89364000E-03
		 8.63728000E-04	 1.33693000E-03	-2.11133000E-03
		 0.00000000E+00	 0.00000000E+00	 0.00000000E+00
		 0.00000000E+00	 0.00000000E+00	 0.00000000E+00
		 4.00852000E-07	 4.83584000E-03	-1.97109000E-05
		 7.25175000E-04	 4.99171000E-03	-3.90281000E-03
		 0.00000000E+00	 0.00000000E+00	 0.00000000E+00
		 5.93407000E-06	 1.54571000E-03	-9.88146000E-06
		 2.64236000E-04	 5.12701000E-03	-1.90528000E-03
		 2.80470000E-04	 1.86765000E-03	-2.07498000E-03
		 0.00000000E+00	 0.00000000E+00	 0.00000000E+00
		-9.27591000E-04	 4.58237000E-03	 3.86536000E-03
		 0.00000000E+00	 0.00000000E+00	 0.00000000E+00
		-5.26165000E-04	 5.32428000E-03	 3.91359000E-03
		 0.00000000E+00	 0.00000000E+00	 0.00000000E+00
		-8.47475000E-04	 1.35203000E-03	 2.10073000E-03
		-4.65819000E-04	 4.41149000E-03	 1.87049000E-03
		 0.00000000E+00	 0.00000000E+00	 0.00000000E+00
		-7.23125000E-04	 5.02659000E-03	 3.85784000E-03
		 0.00000000E+00	 0.00000000E+00	 0.00000000E+00
		-2.66894000E-04	 1.87762000E-03	 2.05225000E-03
		-2.62700000E-04	 5.14268000E-03	 1.84936000E-03
		 0.00000000E+00	 0.00000000E+00	 0.00000000E+00
		 0.00000000E+00	 0.00000000E+00	 0.00000000E+00
		-6.68966000E-07	 5.45204000E-03	-3.77399000E-05
		 1.27518000E-04	 5.60325000E-03	-3.91837000E-03
		 0.00000000E+00	 0.00000000E+00	 0.00000000E+00
		 0.00000000E+00	 0.00000000E+00	 0.00000000E+00
		 3.68715000E-07	 5.36256000E-03	-3.32602000E-05
		 3.31155000E-04	 5.52090000E-03	-4.00572000E-03
		 0.00000000E+00	 0.00000000E+00	 0.00000000E+00
		 2.09437000E-06	 1.56394000E-03	-1.29366000E-05
		 6.26713000E-05	 5.45008000E-03	-1.83019000E-03
		-3.23756000E-04	 1.86928000E-03	-2.12046000E-03
		 0.00000000E+00	 0.00000000E+00	 0.00000000E+00
		-1.26062000E-04	 5.63247000E-03	 3.83890000E-03
		 0.00000000E+00	 0.00000000E+00	 0.00000000E+00
		-3.28893000E-04	 5.55316000E-03	 3.93417000E-03
		 0.00000000E+00	 0.00000000E+00	 0.00000000E+00
		 3.30301000E-04	 1.87650000E-03	 2.09115000E-03
		-6.30216000E-05	 5.46300000E-03	 1.75376000E-03
		-2.35749000E-05	 1.47323000E-02	-6.12395000E-05
		 1.04363000E-03	 1.48054000E-02	-5.95297000E-03
		-2.10510000E-05	 1.56807000E-02	-8.24953000E-05
		 8.08172000E-04	 1.57587000E-02	-5.97888000E-03
		-1.31426000E-05	 9.12470000E-03	-3.10533000E-05
		 5.11155000E-04	 1.47493000E-02	-3.00632000E-03
		 1.00861000E-03	 9.26920000E-03	-5.07828000E-03
		-2.24616000E-05	 1.52279000E-02	-7.18274000E-05
		 9.26844000E-04	 1.53039000E-02	-5.96157000E-03
		-1.13854000E-05	 1.00007000E-02	-5.13738000E-05
		 3.94407000E-04	 1.57028000E-02	-3.02702000E-03
		 7.12299000E-04	 1.01453000E-02	-5.12169000E-03
		-1.08910000E-03	 1.48797000E-02	 5.82858000E-03
		-8.49087000E-04	 1.58302000E-02	 5.81140000E-03
		-1.03528000E-03	 9.32261000E-03	 5.01089000E-03
		-5.57809000E-04	 1.47860000E-02	 2.88333000E-03
		-9.70259000E-04	 1.53765000E-02	 5.81599000E-03
		-7.34387000E-04	 1.01979000E-02	 5.01385000E-03
		-4.36127000E-04	 1.57379000E-02	 2.86142000E-03
		-1.93834000E-05	 1.63893000E-02	-1.01705000E-04
		 5.84242000E-04	 1.64769000E-02	-5.99374000E-03
		-1.99128000E-05	 1.60583000E-02	-9.25747000E-05
		 6.96468000E-04	 1.61359000E-02	-5.99280000E-03
		-1.06677000E-05	 1.05710000E-02	-6.74337000E-05
		 2.77521000E-04	 1.64148000E-02	-3.03632000E-03
		 4.31759000E-04	 1.07337000E-02	-5.11421000E-03
		-6.22361000E-04	 1.65470000E-02	 5.78714000E-03
		-7.35405000E-04	 1.62069000E-02	 5.80476000E-03
		-4.51591000E-04	 1.07846000E-02	 4.97434000E-03
		-3.16099000E-04	 1.64490000E-02	 2.83221000E-03
		-4.66536000E-05	 2.81844000E-02	-1.41512000E-04
		 9.82036000E-04	 2.82437000E-02	-7.65505000E-03
		-4.64303000E-05	 2.90799000E-02	-1.70310000E-04
		 7.30107000E-04	 2.91469000E-02	-7.68961000E-03
		-3.25048000E-05	 2.10125000E-02	-9.60635000E-05
		 4.65685000E-04	 2.81784000E-02	-3.87784000E-03
		 1.05377000E-03	 2.10823000E-02	-6.78619000E-03
		-4.60800000E-05	 2.86661000E-02	-1.56668000E-04
		 8.56140000E-04	 2.87303000E-02	-7.68751000E-03
		-3.11127000E-05	 2.19712000E-02	-1.20638000E-04
		 3.41439000E-04	 2.90764000E-02	-3.92374000E-03
		 8.06703000E-04	 2.20461000E-02	-6.80812000E-03
		-1.07467000E-03	 2.83638000E-02	 7.36935000E-03
		-8.20546000E-04	 2.92646000E-02	 7.34642000E-03
		-1.11692000E-03	 2.11786000E-02	 6.59263000E-03
		-5.58988000E-04	 2.82385000E-02	 3.59449000E-03
		-9.46785000E-04	 2.88498000E-02	 7.37127000E-03
		-8.66634000E-04	 2.21384000E-02	 6.56501000E-03
		-4.33614000E-04	 2.91356000E-02	 3.58261000E-03
		-4.71356000E-05	 2.97343000E-02	-1.96009000E-04
		 4.78453000E-04	 2.97988000E-02	-7.70898000E-03
		-4.69366000E-05	 2.94408000E-02	-1.83316000E-04
		 6.04434000E-04	 2.95086000E-02	-7.68653000E-03
		-3.08654000E-05	 2.26854000E-02	-1.43783000E-04
		 2.17531000E-04	 2.97306000E-02	-3.95928000E-03
		 5.67226000E-04	 2.27679000E-02	-6.83402000E-03
		-5.68753000E-04	 2.99113000E-02	 7.31483000E-03
		-6.94937000E-04	 2.96237000E-02	 7.31755000E-03
		-6.26117000E-04	 2.28561000E-02	 6.54407000E-03
		-3.10728000E-04	 2.97872000E-02	 3.56685000E-03
		-8.14586000E-05	 4.53214000E-02	-2.79686000E-04
		 6.84771000E-04	 4.52862000E-02	-9.10760000E-03
		-8.00221000E-05	 4.60332000E-02	-3.06915000E-04
		 5.84972000E-04	 4.60007000E-02	-9.16012000E-03
		-6.45010000E-05	 3.63562000E-02	-2.03596000E-04
		 3.00604000E-04	 4.52913000E-02	-4.62405000E-03
		 8.37064000E-04	 3.63722000E-02	-8.49412000E-03
		-8.06762000E-05	 4.56902000E-02	-2.93932000E-04
		 6.34726000E-04	 4.56570000E-02	-9.15095000E-03
		-6.41292000E-05	 3.71549000E-02	-2.33346000E-04
		 2.52547000E-04	 4.60037000E-02	-4.67732000E-03
		 6.40101000E-04	 3.71735000E-02	-8.54071000E-03
		-8.49742000E-04	 4.54467000E-02	 8.54640000E-03
		-7.45357000E-04	 4.61646000E-02	 8.54473000E-03
		-9.66635000E-04	 3.65156000E-02	 8.08379000E-03
		-4.64040000E-04	 4.53692000E-02	 4.06456000E-03
		-7.97557000E-04	 4.58202000E-02	 8.56102000E-03
		-7.67187000E-04	 3.73174000E-02	 8.07133000E-03
		-4.12627000E-04	 4.60840000E-02	 4.06323000E-03
		-7.80025000E-05	 4.66508000E-02	-3.31200000E-04
		 4.87803000E-04	 4.66169000E-02	-9.15862000E-03
		-7.92354000E-05	 4.63548000E-02	-3.19308000E-04
		 5.36369000E-04	 4.63225000E-02	-9.17451000E-03
		-6.38628000E-05	 3.77626000E-02	-2.58683000E-04
		 2.06274000E-04	 4.66213000E-02	-4.67685000E-03
		 4.36735000E-04	 3.77739000E-02	-8.54833000E-03
		-6.42491000E-04	 4.67791000E-02	 8.49522000E-03
		-6.94046000E-04	 4.64865000E-02	 8.53484000E-03
		-5.61742000E-04	 3.79144000E-02	 8.02919000E-03
		-3.61871000E-04	 4.67001000E-02	 4.01419000E-03
		-1.03233000E-04	 6.39946000E-02	-4.48673000E-04
		 2.71364000E-04	 6.38438000E-02	-9.04238000E-03
		-1.02748000E-04	 6.44539000E-02	-4.60265000E-04
		 4.28147000E-04	 6.42979000E-02	-9.07254000E-03
		-9.49519000E-05	 5.47059000E-02	-3.63997000E-04
		 8.60109000E-05	 6.39431000E-02	-4.67365000E-03
		 5.06287000E-04	 5.46074000E-02	-9.27323000E-03
		-1.03154000E-04	 6.42023000E-02	-4.54196000E-04
		 3.50025000E-04	 6.40479000E-02	-9.09086000E-03
		-9.35961000E-05	 5.53232000E-02	-3.85339000E-04
		 1.63855000E-04	 6.44003000E-02	-4.72597000E-03
		 5.39562000E-04	 5.52245000E-02	-9.32389000E-03
		-4.82492000E-04	 6.39923000E-02	 8.14777000E-03
		-6.36273000E-04	 6.44542000E-02	 8.15509000E-03
		-6.99922000E-04	 5.47685000E-02	 8.54585000E-03
		-2.93660000E-04	 6.40150000E-02	 3.77679000E-03
		-5.60273000E-04	 6.42020000E-02	 8.18542000E-03
		-7.28452000E-04	 5.53918000E-02	 8.55423000E-03
		-3.69979000E-04	 6.44777000E-02	 3.80598000E-03
		-9.97447000E-05	 6.50587000E-02	-4.75252000E-04
		 5.99231000E-04	 6.49144000E-02	-9.06941000E-03
		-1.01779000E-04	 6.47360000E-02	-4.66961000E-04
		 5.13578000E-04	 6.45810000E-02	-9.05946000E-03
		-9.07122000E-05	 5.59730000E-02	-4.07195000E-04
		 2.45488000E-04	 6.50104000E-02	-4.74502000E-03
		 5.83939000E-04	 5.58810000E-02	-9.31624000E-03
		-7.99434000E-04	 6.50738000E-02	 8.12172000E-03
		-7.18505000E-04	 6.47389000E-02	 8.12868000E-03
		-7.65137000E-04	 5.60486000E-02	 8.50313000E-03
		-4.45069000E-04	 6.50894000E-02	 3.79484000E-03
		-9.19146000E-05	 8.05376000E-02	-5.89095000E-04
		-3.03499000E-04	 8.04041000E-02	-7.88082000E-03
		-9.22866000E-05	 8.04184000E-02	-5.75747000E-04
		-1.32932000E-04	 8.02793000E-02	-7.85444000E-03
		-1.02279000E-04	 7.26698000E-02	-5.25414000E-04
		-1.96177000E-04	 8.04940000E-02	-4.21473000E-03
		 1.02069000E-06	 7.25201000E-02	-8.47750000E-03
		-9.21661000E-05	 8.04556000E-02	-5.81683000E-04
		-2.18108000E-04	 8.03177000E-02	-7.91469000E-03
		-1.02811000E-04	 7.28763000E-02	-5.24130000E-04
		-1.12422000E-04	 8.03720000E-02	-4.24502000E-03
		 1.96735000E-04	 7.27231000E-02	-8.47789000E-03
		 1.16640000E-04	 8.05107000E-02	 6.70261000E-03
		-5.38221000E-05	 8.03902000E-02	 6.70299000E-03
		-2.09521000E-04	 7.26472000E-02	 7.42891000E-03
		 1.13976000E-05	 8.05471000E-02	 3.03607000E-03
		 3.12106000E-05	 8.04279000E-02	 6.75165000E-03
		-4.04844000E-04	 7.28567000E-02	 7.43173000E-03
		-7.27171000E-05	 8.04288000E-02	 3.09341000E-03
		-9.06736000E-05	 8.04602000E-02	-5.63275000E-04
		 4.17047000E-05	 8.03251000E-02	-7.85555000E-03
		-9.19667000E-05	 8.04177000E-02	-5.69914000E-04
		-4.61364000E-05	 8.02796000E-02	-7.78752000E-03
		-1.00980000E-04	 7.32720000E-02	-5.26232000E-04
		-2.63508000E-05	 8.04143000E-02	-4.30493000E-03
		 4.10640000E-04	 7.31332000E-02	-8.47952000E-03
		-2.24480000E-04	 8.04400000E-02	 6.72890000E-03
		-1.39649000E-04	 8.03905000E-02	 6.64769000E-03
		-6.13811000E-04	 7.32709000E-02	 7.42844000E-03
		-1.55119000E-04	 8.04749000E-02	 3.17825000E-03
		-5.43212000E-05	 9.45619000E-02	-6.90326000E-04
		-7.60281000E-04	 9.45158000E-02	-7.42080000E-03
		-5.16144000E-05	 9.38670000E-02	-6.58839000E-04
		-7.40315000E-04	 9.38163000E-02	-7.37883000E-03
		-7.53611000E-05	 8.77055000E-02	-6.41145000E-04
		-4.07092000E-04	 9.45399000E-02	-4.04517000E-03
		-5.62565000E-04	 8.76193000E-02	-7.53307000E-03
		-5.33794000E-05	 9.42141000E-02	-6.74223000E-04
		-7.51229000E-04	 9.41643000E-02	-7.42908000E-03
		-7.38087000E-05	 8.72662000E-02	-6.18438000E-04
		-3.96947000E-04	 9.38410000E-02	-4.03851000E-03
		-4.73981000E-04	 8.71744000E-02	-7.49157000E-03
		 6.48242000E-04	 9.46015000E-02	 6.04106000E-03
		 6.34396000E-04	 9.39061000E-02	 6.06198000E-03
		 4.09641000E-04	 8.77122000E-02	 6.24889000E-03
		 2.97484000E-04	 9.45810000E-02	 2.66544000E-03
		 6.40935000E-04	 9.42532000E-02	 6.08121000E-03
		 3.23942000E-04	 8.72700000E-02	 6.25311000E-03
		 2.92777000E-04	 9.38857000E-02	 2.72143000E-03
		-4.86327000E-05	 9.31898000E-02	-6.29496000E-04
		-7.32156000E-04	 9.31282000E-02	-7.35757000E-03
		-4.96947000E-05	 9.35275000E-02	-6.44452000E-04
		-7.36362000E-04	 9.34748000E-02	-7.32818000E-03
		-7.12295000E-05	 8.69103000E-02	-5.94984000E-04
		-3.87989000E-04	 9.31582000E-02	-4.05220000E-03
		-3.94595000E-04	 8.68106000E-02	-7.48625000E-03
		 6.33630000E-04	 9.32205000E-02	 6.09952000E-03
		 6.35226000E-04	 9.35650000E-02	 6.03972000E-03
		 2.49885000E-04	 8.69105000E-02	 6.29512000E-03
		 2.90276000E-04	 9.32052000E-02	 2.79423000E-03
		 4.32487000E-06	 1.08195000E-01	-7.89162000E-04
		-9.25586000E-04	 1.08158000E-01	-7.55068000E-03
		-3.88144000E-06	 1.07271000E-01	-7.46565000E-04
		-9.28007000E-04	 1.07221000E-01	-7.50444000E-03
		-2.78111000E-05	 1.01393000E-01	-7.40791000E-04
		-4.59768000E-04	 1.08175000E-01	-4.16142000E-03
		-8.95049000E-04	 1.01351000E-01	-7.47372000E-03
		 1.41952000E-06	 1.07736000E-01	-7.66418000E-04
		-9.26344000E-04	 1.07690000E-01	-7.53104000E-03
		-2.79094000E-05	 1.00530000E-01	-7.01401000E-04
		-4.65621000E-04	 1.07244000E-01	-4.12065000E-03
		-8.94222000E-04	 1.00480000E-01	-7.43008000E-03
		 9.23595000E-04	 1.08258000E-01	 5.98425000E-03
		 9.19322000E-04	 1.07331000E-01	 6.02242000E-03
		 8.31668000E-04	 1.01438000E-01	 6.00037000E-03
		 4.65731000E-04	 1.08225000E-01	 2.58655000E-03
		 9.21987000E-04	 1.07798000E-01	 6.00974000E-03
		 8.36778000E-04	 1.00575000E-01	 6.03489000E-03
		 4.57422000E-04	 1.07301000E-01	 2.63057000E-03
		-1.18552000E-05	 1.06341000E-01	-7.16588000E-04
		-9.45975000E-04	 1.06285000E-01	-7.46991000E-03
		-9.04991000E-06	 1.06806000E-01	-7.30181000E-04
		-9.37981000E-04	 1.06755000E-01	-7.48589000E-03
		-2.78993000E-05	 9.96636000E-02	-6.71218000E-04
		-4.76589000E-04	 1.06311000E-01	-4.08824000E-03
		-9.06430000E-04	 9.96048000E-02	-7.39836000E-03
		 9.31189000E-04	 1.06385000E-01	 6.04699000E-03
		 9.25244000E-04	 1.06862000E-01	 6.03544000E-03
		 8.55215000E-04	 9.96957000E-02	 6.06308000E-03
		 4.55026000E-04	 1.06361000E-01	 2.65837000E-03
		 0.00000000E+00	 0.00000000E+00	 0.00000000E+00
		 0.00000000E+00	 0.00000000E+00	 0.00000000E+00
		 6.93863000E-05	-3.39981000E-03	-2.08535000E-04
		-1.84774000E-03	-3.59943000E-03	 3.88100000E-03
		 0.00000000E+00	 0.00000000E+00	 0.00000000E+00
		 0.00000000E+00	 0.00000000E+00	 0.00000000E+00
		 4.55666000E-05	-5.09114000E-03	-2.20569000E-04
		-1.41541000E-03	-5.29885000E-03	 3.93007000E-03
		 0.00000000E+00	 0.00000000E+00	 0.00000000E+00
		 5.61712000E-05	-4.56667000E-04	-1.03633000E-04
		-8.93129000E-04	-3.41440000E-03	 1.87945000E-03
		-1.27103000E-03	-7.99969000E-04	 2.05608000E-03
		 0.00000000E+00	 0.00000000E+00	 0.00000000E+00
		 0.00000000E+00	 0.00000000E+00	 0.00000000E+00
		 5.83397000E-05	-4.32888000E-03	-2.12798000E-04
		-1.62680000E-03	-4.52823000E-03	 3.78769000E-03
		 0.00000000E+00	 0.00000000E+00	 0.00000000E+00
		 2.46917000E-05	-1.46002000E-03	-9.54489000E-05
		-6.85362000E-04	-5.10537000E-03	 1.77235000E-03
		-7.06429000E-04	-1.78269000E-03	 2.01534000E-03
		 0.00000000E+00	 0.00000000E+00	 0.00000000E+00
		 1.98666000E-03	-3.60477000E-03	-4.29939000E-03
		 0.00000000E+00	 0.00000000E+00	 0.00000000E+00
		 1.51114000E-03	-5.31342000E-03	-4.37376000E-03
		 0.00000000E+00	 0.00000000E+00	 0.00000000E+00
		 1.38305000E-03	-8.44756000E-04	-2.27636000E-03
		 1.03140000E-03	-3.41682000E-03	-2.29645000E-03
		 0.00000000E+00	 0.00000000E+00	 0.00000000E+00
		 1.74594000E-03	-4.53823000E-03	-4.21422000E-03
		 0.00000000E+00	 0.00000000E+00	 0.00000000E+00
		 7.57346000E-04	-1.82966000E-03	-2.21887000E-03
		 7.76506000E-04	-5.11360000E-03	-2.21363000E-03
		 0.00000000E+00	 0.00000000E+00	 0.00000000E+00
		 0.00000000E+00	 0.00000000E+00	 0.00000000E+00
		 1.54856000E-05	-6.32535000E-03	-2.22428000E-04
		-9.80853000E-04	-6.50972000E-03	 3.86733000E-03
		 0.00000000E+00	 0.00000000E+00	 0.00000000E+00
		 0.00000000E+00	 0.00000000E+00	 0.00000000E+00
		 3.11255000E-05	-5.78991000E-03	-2.24698000E-04
		-1.20057000E-03	-5.98245000E-03	 4.03640000E-03
		 0.00000000E+00	 0.00000000E+00	 0.00000000E+00
		-8.01779000E-06	-1.91989000E-03	-9.39676000E-05
		-4.82214000E-04	-6.32998000E-03	 1.60392000E-03
		-9.08763000E-05	-2.20938000E-03	 2.06565000E-03
		 0.00000000E+00	 0.00000000E+00	 0.00000000E+00
		 1.01631000E-03	-6.52923000E-03	-4.31446000E-03
		 0.00000000E+00	 0.00000000E+00	 0.00000000E+00
		 1.26630000E-03	-6.00334000E-03	-4.48925000E-03
		 0.00000000E+00	 0.00000000E+00	 0.00000000E+00
		 7.42934000E-05	-2.25491000E-03	-2.26686000E-03
		 5.15944000E-04	-6.34318000E-03	-2.04780000E-03
		 4.91682000E-05	-1.36471000E-02	-3.96222000E-04
		-2.95431000E-03	-1.38242000E-02	 6.17558000E-03
		 3.97080000E-05	-1.64971000E-02	-4.59075000E-04
		-2.65567000E-03	-1.66683000E-02	 6.11843000E-03
		 6.83655000E-05	-7.93171000E-03	-3.03136000E-04
		-1.45344000E-03	-1.37067000E-02	 2.94388000E-03
		-2.44071000E-03	-8.14523000E-03	 5.17755000E-03
		 4.48315000E-05	-1.51014000E-02	-4.29611000E-04
		-2.80448000E-03	-1.52748000E-02	 6.08360000E-03
		 5.00735000E-05	-1.02582000E-02	-3.39166000E-04
		-1.30466000E-03	-1.65536000E-02	 2.82490000E-03
		-2.08573000E-03	-1.04680000E-02	 5.16322000E-03
		 3.06307000E-03	-1.37482000E-02	-6.96763000E-03
		 2.73853000E-03	-1.66174000E-02	-7.03606000E-03
		 2.58330000E-03	-8.11342000E-03	-5.78692000E-03
		 1.55379000E-03	-1.36667000E-02	-3.73718000E-03
		 2.90338000E-03	-1.52178000E-02	-6.93978000E-03
		 2.19176000E-03	-1.04513000E-02	-5.84496000E-03
		 1.38958000E-03	-1.65283000E-02	-3.74064000E-03
		 1.73753000E-05	-1.90409000E-02	-5.14517000E-04
		-2.36183000E-03	-1.91975000E-02	 6.05449000E-03
		 2.96939000E-05	-1.77981000E-02	-4.86531000E-04
		-2.50742000E-03	-1.79901000E-02	 6.15143000E-03
		 2.53077000E-05	-1.22110000E-02	-3.66471000E-04
		-1.17646000E-03	-1.90867000E-02	 2.69988000E-03
		-1.75562000E-03	-1.24273000E-02	 5.11335000E-03
		 2.42887000E-03	-1.91792000E-02	-7.08466000E-03
		 2.58546000E-03	-1.79261000E-02	-7.12794000E-03
		 1.82182000E-03	-1.24311000E-02	-5.84887000E-03
		 1.21982000E-03	-1.90789000E-02	-3.72537000E-03
		-2.51700000E-05	-2.82685000E-02	-5.93784000E-04
		-3.76520000E-03	-2.84246000E-02	 7.93655000E-03
		-2.41456000E-05	-3.18250000E-02	-6.94617000E-04
		-3.46308000E-03	-3.20910000E-02	 7.84721000E-03
		 1.79292000E-05	-2.03717000E-02	-4.90374000E-04
		-1.88861000E-03	-2.83077000E-02	 3.67666000E-03
		-3.41097000E-03	-2.05606000E-02	 7.09525000E-03
		-2.20939000E-05	-3.00860000E-02	-6.40733000E-04
		-3.61537000E-03	-3.03129000E-02	 7.85206000E-03
		 1.28339000E-05	-2.36384000E-02	-5.76970000E-04
		-1.76888000E-03	-3.19232000E-02	 3.53104000E-03
		-3.10626000E-03	-2.38375000E-02	 7.01375000E-03
		 3.68509000E-03	-2.83145000E-02	-9.10911000E-03
		 3.42210000E-03	-3.19055000E-02	-9.25621000E-03
		 3.44886000E-03	-2.04501000E-02	-8.07393000E-03
		 1.82741000E-03	-2.82543000E-02	-4.85278000E-03
		 3.55291000E-03	-3.01447000E-02	-9.14730000E-03
		 3.14312000E-03	-2.37309000E-02	-8.16736000E-03
		 1.69921000E-03	-3.18320000E-02	-4.94018000E-03
		-3.86874000E-05	-3.51361000E-02	-7.91745000E-04
		-3.27712000E-03	-3.55066000E-02	 7.73511000E-03
		-2.99297000E-05	-3.35297000E-02	-7.47022000E-04
		-3.37173000E-03	-3.37205000E-02	 7.84906000E-03
		 5.14550000E-06	-2.66137000E-02	-6.57288000E-04
		-1.63036000E-03	-3.52922000E-02	 3.36138000E-03
		-2.85259000E-03	-2.68334000E-02	 6.93006000E-03
		 3.16678000E-03	-3.52503000E-02	-9.36496000E-03
		 3.29595000E-03	-3.36097000E-02	-9.36438000E-03
		 2.83365000E-03	-2.67151000E-02	-8.24760000E-03
		 1.55712000E-03	-3.51694000E-02	-4.98881000E-03
		-8.46696000E-05	-4.70007000E-02	-8.31496000E-04
		-4.03647000E-03	-4.69775000E-02	 8.61828000E-03
		-8.30723000E-05	-5.10067000E-02	-9.46191000E-04
		-4.16690000E-03	-5.14390000E-02	 8.53068000E-03
		-8.96185000E-05	-3.72979000E-02	-7.07364000E-04
		-2.05990000E-03	-4.69885000E-02	 3.83325000E-03
		-3.96070000E-03	-3.74656000E-02	 8.48147000E-03
		-8.14915000E-05	-4.89668000E-02	-8.87873000E-04
		-4.09090000E-03	-4.91195000E-02	 8.58163000E-03
		-9.24254000E-05	-4.11342000E-02	-8.61382000E-04
		-2.00330000E-03	-5.12083000E-02	 3.73328000E-03
		-3.87184000E-03	-4.12446000E-02	 8.43509000E-03
		 3.70809000E-03	-4.69005000E-02	-1.02803000E-02
		 3.71478000E-03	-5.07679000E-02	-1.04198000E-02
		 3.76422000E-03	-3.72679000E-02	-9.89492000E-03
		 1.80778000E-03	-4.69590000E-02	-5.49473000E-03
		 3.71577000E-03	-4.88285000E-02	-1.03566000E-02
		 3.62868000E-03	-4.10788000E-02	-1.00546000E-02
		 1.80275000E-03	-5.08674000E-02	-5.62569000E-03
		-2.30157000E-04	-5.50642000E-02	-1.06228000E-03
		-4.17975000E-03	-5.58451000E-02	 8.39084000E-03
		-1.53548000E-04	-5.29953000E-02	-1.00549000E-03
		-4.17096000E-03	-5.41251000E-02	 8.48604000E-03
		-1.29526000E-04	-4.48471000E-02	-1.03814000E-03
		-2.32542000E-03	-5.54254000E-02	 3.58033000E-03
		-3.63460000E-03	-4.48248000E-02	 8.28756000E-03
		 3.73401000E-03	-5.46801000E-02	-1.05085000E-02