# vtk DataFile Version 3.0

ASCII
DATASET UNSTRUCTURED_GRID

POINTS 522 double
	 1.00000000E+00	 1.00000000E+00	-5.96046000E-08
	 1.00000000E+00	 5.00000000E-01	-5.96046000E-08
	 1.00000000E+00	 5.00000000E-01	 1.00000000E+00
	 1.00000000E+00	 1.00000000E+00	 1.00000000E+00
	 5.00000000E-01	 1.00000000E+00	-5.96046000E-08
	 5.00000000E-01	 5.00000000E-01	-5.96046000E-08
	 5.00000000E-01	 5.00000000E-01	 1.00000000E+00
	 5.00000000E-01	 1.00000000E+00	 1.00000000E+00
	 1.00000000E+00	 7.50000000E-01	-5.96046000E-08
	 1.00000000E+00	 5.00000000E-01	 5.00000000E-01
	 1.00000000E+00	 7.50000000E-01	 1.00000000E+00
	 1.00000000E+00	 1.00000000E+00	 5.00000000E-01
	 7.50000000E-01	 1.00000000E+00	-5.96046000E-08
	 7.50000000E-01	 5.00000000E-01	-5.96046000E-08
	 7.50000000E-01	 5.00000000E-01	 1.00000000E+00
	 7.50000000E-01	 1.00000000E+00	 1.00000000E+00
	 5.00000000E-01	 7.50000000E-01	-5.96046000E-08
	 5.00000000E-01	 5.00000000E-01	 5.00000000E-01
	 5.00000000E-01	 7.50000000E-01	 1.00000000E+00
	 5.00000000E-01	 1.00000000E+00	 5.00000000E-01
	 1.00000000E+00	-1.49012000E-08	-5.96046000E-08
	 1.00000000E+00	-1.49012000E-08	 1.00000000E+00
	 5.00000000E-01	-1.49012000E-08	-5.96046000E-08
	 5.00000000E-01	-1.49012000E-08	 1.00000000E+00
	 1.00000000E+00	 2.50000000E-01	-5.96046000E-08
	 1.00000000E+00	-1.49012000E-08	 5.00000000E-01
	 1.00000000E+00	 2.50000000E-01	 1.00000000E+00
	 7.50000000E-01	-1.49012000E-08	-5.96046000E-08
	 7.50000000E-01	-1.49012000E-08	 1.00000000E+00
	 5.00000000E-01	 2.50000000E-01	-5.96046000E-08
	 5.00000000E-01	-1.49012000E-08	 5.00000000E-01
	 5.00000000E-01	 2.50000000E-01	 1.00000000E+00
	-7.45058000E-09	 1.00000000E+00	-5.96046000E-08
	-7.45058000E-09	 5.00000000E-01	-5.96046000E-08
	-7.45058000E-09	 5.00000000E-01	 1.00000000E+00
	-7.45058000E-09	 1.00000000E+00	 1.00000000E+00
	 2.50000000E-01	 1.00000000E+00	-5.96046000E-08
	 2.50000000E-01	 5.00000000E-01	-5.96046000E-08
	 2.50000000E-01	 5.00000000E-01	 1.00000000E+00
	 2.50000000E-01	 1.00000000E+00	 1.00000000E+00
	-7.45058000E-09	 7.50000000E-01	-5.96046000E-08
	-7.45058000E-09	 5.00000000E-01	 5.00000000E-01
	-7.45058000E-09	 7.50000000E-01	 1.00000000E+00
	-7.45058000E-09	 1.00000000E+00	 5.00000000E-01
	-7.45058000E-09	-1.49012000E-08	-5.96046000E-08
	-7.45058000E-09	-1.49012000E-08	 1.00000000E+00
	 2.50000000E-01	-1.49012000E-08	-5.96046000E-08
	 2.50000000E-01	-1.49012000E-08	 1.00000000E+00
	-7.45058000E-09	 2.50000000E-01	-5.96046000E-08
	-7.45058000E-09	-1.49012000E-08	 5.00000000E-01
	-7.45058000E-09	 2.50000000E-01	 1.00000000E+00
	 1.00000000E+00	 5.00000000E-01	 2.00000000E+00
	 1.00000000E+00	 1.00000000E+00	 2.00000000E+00
	 5.00000000E-01	 5.00000000E-01	 2.00000000E+00
	 5.00000000E-01	 1.00000000E+00	 2.00000000E+00
	 1.00000000E+00	 5.00000000E-01	 1.50000000E+00
	 1.00000000E+00	 7.50000000E-01	 2.00000000E+00
	 1.00000000E+00	 1.00000000E+00	 1.50000000E+00
	 7.50000000E-01	 5.00000000E-01	 2.00000000E+00
	 7.50000000E-01	 1.00000000E+00	 2.00000000E+00
	 5.00000000E-01	 5.00000000E-01	 1.50000000E+00
	 5.00000000E-01	 7.50000000E-01	 2.00000000E+00
	 5.00000000E-01	 1.00000000E+00	 1.50000000E+00
	 1.00000000E+00	-1.49012000E-08	 2.00000000E+00
	 5.00000000E-01	-1.49012000E-08	 2.00000000E+00
	 1.00000000E+00	-1.49012000E-08	 1.50000000E+00
	 1.00000000E+00	 2.50000000E-01	 2.00000000E+00
	 7.50000000E-01	-1.49012000E-08	 2.00000000E+00
	 5.00000000E-01	-1.49012000E-08	 1.50000000E+00
	 5.00000000E-01	 2.50000000E-01	 2.00000000E+00
	-7.45058000E-09	 5.00000000E-01	 2.00000000E+00
	-7.45058000E-09	 1.00000000E+00	 2.00000000E+00
	 2.50000000E-01	 5.00000000E-01	 2.00000000E+00
	 2.50000000E-01	 1.00000000E+00	 2.00000000E+00
	-7.45058000E-09	 5.00000000E-01	 1.50000000E+00
	-7.45058000E-09	 7.50000000E-01	 2.00000000E+00
	-7.45058000E-09	 1.00000000E+00	 1.50000000E+00
	-7.45058000E-09	-1.49012000E-08	 2.00000000E+00
	 2.50000000E-01	-1.49012000E-08	 2.00000000E+00
	-7.45058000E-09	-1.49012000E-08	 1.50000000E+00
	-7.45058000E-09	 2.50000000E-01	 2.00000000E+00
	 1.00000000E+00	 5.00000000E-01	 3.00000000E+00
	 1.00000000E+00	 1.00000000E+00	 3.00000000E+00
	 5.00000000E-01	 5.00000000E-01	 3.00000000E+00
	 5.00000000E-01	 1.00000000E+00	 3.00000000E+00
	 1.00000000E+00	 5.00000000E-01	 2.50000000E+00
	 1.00000000E+00	 7.50000000E-01	 3.00000000E+00
	 1.00000000E+00	 1.00000000E+00	 2.50000000E+00
	 7.50000000E-01	 5.00000000E-01	 3.00000000E+00
	 7.50000000E-01	 1.00000000E+00	 3.00000000E+00
	 5.00000000E-01	 5.00000000E-01	 2.50000000E+00
	 5.00000000E-01	 7.50000000E-01	 3.00000000E+00
	 5.00000000E-01	 1.00000000E+00	 2.50000000E+00
	 1.00000000E+00	-1.49012000E-08	 3.00000000E+00
	 5.00000000E-01	-1.49012000E-08	 3.00000000E+00
	 1.00000000E+00	-1.49012000E-08	 2.50000000E+00
	 1.00000000E+00	 2.50000000E-01	 3.00000000E+00
	 7.50000000E-01	-1.49012000E-08	 3.00000000E+00
	 5.00000000E-01	-1.49012000E-08	 2.50000000E+00
	 5.00000000E-01	 2.50000000E-01	 3.00000000E+00
	-7.45058000E-09	 5.00000000E-01	 3.00000000E+00
	-7.45058000E-09	 1.00000000E+00	 3.00000000E+00
	 2.50000000E-01	 5.00000000E-01	 3.00000000E+00
	 2.50000000E-01	 1.00000000E+00	 3.00000000E+00
	-7.45058000E-09	 5.00000000E-01	 2.50000000E+00
	-7.45058000E-09	 7.50000000E-01	 3.00000000E+00
	-7.45058000E-09	 1.00000000E+00	 2.50000000E+00
	-7.45058000E-09	-1.49012000E-08	 3.00000000E+00
	 2.50000000E-01	-1.49012000E-08	 3.00000000E+00
	-7.45058000E-09	-1.49012000E-08	 2.50000000E+00
	-7.45058000E-09	 2.50000000E-01	 3.00000000E+00
	 1.00000000E+00	 5.00000000E-01	 4.00000000E+00
	 1.00000000E+00	 1.00000000E+00	 4.00000000E+00
	 5.00000000E-01	 5.00000000E-01	 4.00000000E+00
	 5.00000000E-01	 1.00000000E+00	 4.00000000E+00
	 1.00000000E+00	 5.00000000E-01	 3.50000000E+00
	 1.00000000E+00	 7.50000000E-01	 4.00000000E+00
	 1.00000000E+00	 1.00000000E+00	 3.50000000E+00
	 7.50000000E-01	 5.00000000E-01	 4.00000000E+00
	 7.50000000E-01	 1.00000000E+00	 4.00000000E+00
	 5.00000000E-01	 5.00000000E-01	 3.50000000E+00
	 5.00000000E-01	 7.50000000E-01	 4.00000000E+00
	 5.00000000E-01	 1.00000000E+00	 3.50000000E+00
	 1.00000000E+00	-1.49012000E-08	 4.00000000E+00
	 5.00000000E-01	-1.49012000E-08	 4.00000000E+00
	 1.00000000E+00	-1.49012000E-08	 3.50000000E+00
	 1.00000000E+00	 2.50000000E-01	 4.00000000E+00
	 7.50000000E-01	-1.49012000E-08	 4.00000000E+00
	 5.00000000E-01	-1.49012000E-08	 3.50000000E+00
	 5.00000000E-01	 2.50000000E-01	 4.00000000E+00
	-7.45058000E-09	 5.00000000E-01	 4.00000000E+00
	-7.45058000E-09	 1.00000000E+00	 4.00000000E+00
	 2.50000000E-01	 5.00000000E-01	 4.00000000E+00
	 2.50000000E-01	 1.00000000E+00	 4.00000000E+00
	-7.45058000E-09	 5.00000000E-01	 3.50000000E+00
	-7.45058000E-09	 7.50000000E-01	 4.00000000E+00
	-7.45058000E-09	 1.00000000E+00	 3.50000000E+00
	-7.45058000E-09	-1.49012000E-08	 4.00000000E+00
	 2.50000000E-01	-1.49012000E-08	 4.00000000E+00
	-7.45058000E-09	-1.49012000E-08	 3.50000000E+00
	-7.45058000E-09	 2.50000000E-01	 4.00000000E+00
	 1.00000000E+00	 5.00000000E-01	 5.00000000E+00
	 1.00000000E+00	 1.00000000E+00	 5.00000000E+00
	 5.00000000E-01	 5.00000000E-01	 5.00000000E+00
	 5.00000000E-01	 1.00000000E+00	 5.00000000E+00
	 1.00000000E+00	 5.00000000E-01	 4.50000000E+00
	 1.00000000E+00	 7.50000000E-01	 5.00000000E+00
	 1.00000000E+00	 1.00000000E+00	 4.50000000E+00
	 7.50000000E-01	 5.00000000E-01	 5.00000000E+00
	 7.50000000E-01	 1.00000000E+00	 5.00000000E+00
	 5.00000000E-01	 5.00000000E-01	 4.50000000E+00
	 5.00000000E-01	 7.50000000E-01	 5.00000000E+00
	 5.00000000E-01	 1.00000000E+00	 4.50000000E+00
	 1.00000000E+00	-1.49012000E-08	 5.00000000E+00
	 5.00000000E-01	-1.49012000E-08	 5.00000000E+00
	 1.00000000E+00	-1.49012000E-08	 4.50000000E+00
	 1.00000000E+00	 2.50000000E-01	 5.00000000E+00
	 7.50000000E-01	-1.49012000E-08	 5.00000000E+00
	 5.00000000E-01	-1.49012000E-08	 4.50000000E+00
	 5.00000000E-01	 2.50000000E-01	 5.00000000E+00
	-7.45058000E-09	 5.00000000E-01	 5.00000000E+00
	-7.45058000E-09	 1.00000000E+00	 5.00000000E+00
	 2.50000000E-01	 5.00000000E-01	 5.00000000E+00
	 2.50000000E-01	 1.00000000E+00	 5.00000000E+00
	-7.45058000E-09	 5.00000000E-01	 4.50000000E+00
	-7.45058000E-09	 7.50000000E-01	 5.00000000E+00
	-7.45058000E-09	 1.00000000E+00	 4.50000000E+00
	-7.45058000E-09	-1.49012000E-08	 5.00000000E+00
	 2.50000000E-01	-1.49012000E-08	 5.00000000E+00
	-7.45058000E-09	-1.49012000E-08	 4.50000000E+00
	-7.45058000E-09	 2.50000000E-01	 5.00000000E+00
	 1.00000000E+00	 5.00000000E-01	 6.00000000E+00
	 1.00000000E+00	 1.00000000E+00	 6.00000000E+00
	 5.00000000E-01	 5.00000000E-01	 6.00000000E+00
	 5.00000000E-01	 1.00000000E+00	 6.00000000E+00
	 1.00000000E+00	 5.00000000E-01	 5.50000000E+00
	 1.00000000E+00	 7.50000000E-01	 6.00000000E+00
	 1.00000000E+00	 1.00000000E+00	 5.50000000E+00
	 7.50000000E-01	 5.00000000E-01	 6.00000000E+00
	 7.50000000E-01	 1.00000000E+00	 6.00000000E+00
	 5.00000000E-01	 5.00000000E-01	 5.50000000E+00
	 5.00000000E-01	 7.50000000E-01	 6.00000000E+00
	 5.00000000E-01	 1.00000000E+00	 5.50000000E+00
	 1.00000000E+00	-1.49012000E-08	 6.00000000E+00
	 5.00000000E-01	-1.49012000E-08	 6.00000000E+00
	 1.00000000E+00	-1.49012000E-08	 5.50000000E+00
	 1.00000000E+00	 2.50000000E-01	 6.00000000E+00
	 7.50000000E-01	-1.49012000E-08	 6.00000000E+00
	 5.00000000E-01	-1.49012000E-08	 5.50000000E+00
	 5.00000000E-01	 2.50000000E-01	 6.00000000E+00
	-7.45058000E-09	 5.00000000E-01	 6.00000000E+00
	-7.45058000E-09	 1.00000000E+00	 6.00000000E+00
	 2.50000000E-01	 5.00000000E-01	 6.00000000E+00
	 2.50000000E-01	 1.00000000E+00	 6.00000000E+00
	-7.45058000E-09	 5.00000000E-01	 5.50000000E+00
	-7.45058000E-09	 7.50000000E-01	 6.00000000E+00
	-7.45058000E-09	 1.00000000E+00	 5.50000000E+00
	-7.45058000E-09	-1.49012000E-08	 6.00000000E+00
	 2.50000000E-01	-1.49012000E-08	 6.00000000E+00
	-7.45058000E-09	-1.49012000E-08	 5.50000000E+00
	-7.45058000E-09	 2.50000000E-01	 6.00000000E+00
	 1.00000000E+00	 5.00000000E-01	 7.00000000E+00
[...]
POINT_DATA 522
FIELD U 1
	U 3 522 double
		 0.00000000E+00	 0.00000000E+00	 0.00000000E+00
		 0.00000000E+00	 0.00000000E+00	 0.00000000E+00
		 8.14575000E-06	-3.20077000E-03	-3.89202000E-05
		-7.46291000E-04	-3.28619000E-03	 2.57488000E-03
		 0.00000000E+00	 0.00000000E+00	 0.00000000E+00
		 0.00000000E+00	 0.00000000E+00	 0.00000000E+00
		 5.38037000E-06	-3.84730000E-03	-3.92945000E-05
		-5.32805000E-04	-3.94521000E-03	 2.63045000E-03
		 0.00000000E+00	 0.00000000E+00	 0.00000000E+00
		 6.30904000E-06	-7.89823000E-04	-1.70686000E-05
		-3.69433000E-04	-3.19501000E-03	 1.21320000E-03
		-6.57847000E-04	-1.00688000E-03	 1.46998000E-03
		 0.00000000E+00	 0.00000000E+00	 0.00000000E+00
		 0.00000000E+00	 0.00000000E+00	 0.00000000E+00
		 6.79740000E-06	-3.56922000E-03	-3.94037000E-05
		-6.37142000E-04	-3.66015000E-03	 2.57153000E-03
		 0.00000000E+00	 0.00000000E+00	 0.00000000E+00
		 1.49730000E-06	-1.23170000E-03	-1.64972000E-05
		-2.62860000E-04	-3.84511000E-03	 1.20412000E-03
		-2.72395000E-04	-1.44800000E-03	 1.44846000E-03
		 0.00000000E+00	 0.00000000E+00	 0.00000000E+00
		 7.59160000E-04	-3.28161000E-03	-2.65432000E-03
		 0.00000000E+00	 0.00000000E+00	 0.00000000E+00
		 5.39925000E-04	-3.93743000E-03	-2.71090000E-03
		 0.00000000E+00	 0.00000000E+00	 0.00000000E+00
		 6.68407000E-04	-1.01174000E-03	-1.50832000E-03
		 3.84583000E-04	-3.19372000E-03	-1.29138000E-03
		 0.00000000E+00	 0.00000000E+00	 0.00000000E+00
		 6.47442000E-04	-3.65392000E-03	-2.65198000E-03
		 0.00000000E+00	 0.00000000E+00	 0.00000000E+00
		 2.72828000E-04	-1.45124000E-03	-1.48455000E-03
		 2.72314000E-04	-3.84211000E-03	-1.28307000E-03
		 0.00000000E+00	 0.00000000E+00	 0.00000000E+00
		 0.00000000E+00	 0.00000000E+00	 0.00000000E+00
		 1.65202000E-06	-4.27452000E-03	-3.63995000E-05
		-3.17943000E-04	-4.36183000E-03	 2.57706000E-03
		 0.00000000E+00	 0.00000000E+00	 0.00000000E+00
		 0.00000000E+00	 0.00000000E+00	 0.00000000E+00
		 3.69357000E-06	-4.10568000E-03	-3.82818000E-05
		-4.27286000E-04	-4.19968000E-03	 2.66724000E-03
		 0.00000000E+00	 0.00000000E+00	 0.00000000E+00
		-3.61587000E-06	-1.33558000E-03	-1.54842000E-05
		-1.58174000E-04	-4.26948000E-03	 1.12052000E-03
		 1.33200000E-04	-1.53529000E-03	 1.47266000E-03
		 0.00000000E+00	 0.00000000E+00	 0.00000000E+00
		 3.17889000E-04	-4.34969000E-03	-2.65128000E-03
		 0.00000000E+00	 0.00000000E+00	 0.00000000E+00
		 4.30510000E-04	-4.18956000E-03	-2.74563000E-03
		 0.00000000E+00	 0.00000000E+00	 0.00000000E+00
		-1.42928000E-04	-1.53490000E-03	-1.50590000E-03
		 1.60803000E-04	-4.26408000E-03	-1.19334000E-03
		 1.76077000E-05	-9.72434000E-03	-7.92629000E-05
		-8.91057000E-04	-9.73455000E-03	 3.19523000E-03
		 1.79436000E-05	-1.06286000E-02	-8.27195000E-05
		-8.76047000E-04	-1.06403000E-02	 3.19915000E-03
		 1.27723000E-05	-6.34988000E-03	-6.05649000E-05
		-4.38277000E-04	-9.73590000E-03	 1.55174000E-03
		-8.44413000E-04	-6.42183000E-03	 3.06539000E-03
		 1.79345000E-05	-1.01712000E-02	-8.06145000E-05
		-8.84846000E-04	-1.01824000E-02	 3.19182000E-03
		 1.17158000E-05	-7.16008000E-03	-6.15899000E-05
		-4.30136000E-04	-1.06437000E-02	 1.54633000E-03
		-7.46543000E-04	-7.23334000E-03	 3.08986000E-03
		 9.25064000E-04	-9.71784000E-03	-3.35274000E-03
		 9.10468000E-04	-1.06235000E-02	-3.36390000E-03
		 8.67736000E-04	-6.41006000E-03	-3.18725000E-03
		 4.73046000E-04	-9.72851000E-03	-1.70996000E-03
		 9.18883000E-04	-1.01654000E-02	-3.35219000E-03
		 7.67250000E-04	-7.21952000E-03	-3.21448000E-03
		 4.65171000E-04	-1.06358000E-02	-1.71165000E-03
		 1.61060000E-05	-1.15111000E-02	-8.62579000E-05
		-8.76557000E-04	-1.15348000E-02	 3.18578000E-03
		 1.75061000E-05	-1.10668000E-02	-8.48814000E-05
		-8.75696000E-04	-1.10786000E-02	 3.20520000E-03
		 9.01949000E-06	-7.86479000E-03	-6.04789000E-05
		-4.24706000E-04	-1.15308000E-02	 1.52398000E-03
		-6.65974000E-04	-7.95481000E-03	 3.06338000E-03
		 9.08070000E-04	-1.15186000E-02	-3.35798000E-03
		 9.09658000E-04	-1.10620000E-02	-3.37453000E-03
		 6.81671000E-04	-7.93901000E-03	-3.18661000E-03
		 4.56473000E-04	-1.15232000E-02	-1.69634000E-03
		 1.74935000E-05	-1.63201000E-02	-1.10375000E-04
		-8.67515000E-04	-1.63482000E-02	 3.25706000E-03
		 1.48458000E-05	-1.71788000E-02	-1.19486000E-04
		-8.26308000E-04	-1.72118000E-02	 3.24312000E-03
		 1.97970000E-05	-1.30020000E-02	-9.42951000E-05
		-4.24053000E-04	-1.63265000E-02	 1.57328000E-03
		-9.15515000E-04	-1.30194000E-02	 3.20343000E-03
		 1.65987000E-05	-1.67566000E-02	-1.14863000E-04
		-8.46580000E-04	-1.67880000E-02	 3.26355000E-03
		 1.91950000E-05	-1.39264000E-02	-1.01356000E-04
		-4.05880000E-04	-1.71874000E-02	 1.57564000E-03
		-8.97298000E-04	-1.39465000E-02	 3.19141000E-03
		 8.98635000E-04	-1.63293000E-02	-3.47566000E-03
		 8.53846000E-04	-1.71892000E-02	-3.48003000E-03
		 9.52335000E-04	-1.30023000E-02	-3.39029000E-03
		 4.57885000E-04	-1.63172000E-02	-1.79320000E-03
		 8.76383000E-04	-1.67665000E-02	-3.49109000E-03
		 9.33837000E-04	-1.39276000E-02	-3.39193000E-03
		 4.34722000E-04	-1.71753000E-02	-1.81389000E-03
		 1.11647000E-05	-1.79987000E-02	-1.30721000E-04
		-7.88642000E-04	-1.80306000E-02	 3.23482000E-03
		 1.27724000E-05	-1.75951000E-02	-1.24799000E-04
		-8.07710000E-04	-1.76286000E-02	 3.21728000E-03
		 1.68026000E-05	-1.48322000E-02	-1.10581000E-04
		-3.89976000E-04	-1.80075000E-02	 1.58641000E-03
		-8.93098000E-04	-1.48624000E-02	 3.18513000E-03
		 8.11009000E-04	-1.80080000E-02	-3.49423000E-03
		 8.32347000E-04	-1.76061000E-02	-3.46501000E-03
		 9.26622000E-04	-1.48443000E-02	-3.40381000E-03
		 4.12274000E-04	-1.79949000E-02	-1.84716000E-03
		 1.34653000E-05	-2.35783000E-02	-1.49944000E-04
		-7.13743000E-04	-2.36021000E-02	 3.53306000E-03
		 9.59875000E-06	-2.42914000E-02	-1.60208000E-04
		-6.92136000E-04	-2.43166000E-02	 3.52948000E-03
		 1.44305000E-05	-1.98382000E-02	-1.30043000E-04
		-3.49952000E-04	-2.35876000E-02	 1.66886000E-03
		-7.82682000E-04	-1.98694000E-02	 3.41107000E-03
		 1.21433000E-05	-2.39380000E-02	-1.54416000E-04
		-7.02682000E-04	-2.39628000E-02	 3.53910000E-03
		 1.05043000E-05	-2.06082000E-02	-1.38881000E-04
		-3.41590000E-04	-2.43015000E-02	 1.66754000E-03
		-7.37794000E-04	-2.06400000E-02	 3.40347000E-03
		 7.38700000E-04	-2.35747000E-02	-3.83354000E-03
		 7.12548000E-04	-2.42883000E-02	-3.85084000E-03
		 8.08893000E-04	-1.98455000E-02	-3.66973000E-03
		 3.76235000E-04	-2.35736000E-02	-1.96897000E-03
		 7.26105000E-04	-2.39342000E-02	-3.84870000E-03
		 7.58411000E-04	-2.06135000E-02	-3.68078000E-03
		 3.61038000E-04	-2.42867000E-02	-1.98823000E-03
		 4.83456000E-06	-2.49816000E-02	-1.69693000E-04
		-6.72724000E-04	-2.50037000E-02	 3.51267000E-03
		 6.87200000E-06	-2.46389000E-02	-1.65761000E-04
		-6.82374000E-04	-2.46637000E-02	 3.52437000E-03
		 5.89722000E-06	-2.13325000E-02	-1.48156000E-04
		-3.35224000E-04	-2.49897000E-02	 1.65156000E-03
		-6.86223000E-04	-2.13561000E-02	 3.39100000E-03
		 6.86947000E-04	-2.49814000E-02	-3.85333000E-03
		 6.99468000E-04	-2.46376000E-02	-3.85717000E-03
		 7.00048000E-04	-2.13318000E-02	-3.68773000E-03
		 3.46077000E-04	-2.49786000E-02	-1.99109000E-03
		-6.01241000E-06	-3.11491000E-02	-1.84294000E-04
		-5.62861000E-04	-3.11534000E-02	 3.44741000E-03
		-8.94258000E-06	-3.17075000E-02	-2.03780000E-04
		-5.70331000E-04	-3.17156000E-02	 3.42280000E-03
		 8.50057000E-06	-2.73970000E-02	-1.66731000E-04
		-2.84349000E-04	-3.11538000E-02	 1.62398000E-03
		-6.53226000E-04	-2.74090000E-02	 3.51367000E-03
		-6.84367000E-06	-3.14254000E-02	-1.94664000E-04
		-5.66773000E-04	-3.14327000E-02	 3.45286000E-03
		 5.23873000E-06	-2.80606000E-02	-1.82357000E-04
		-2.90335000E-04	-3.17159000E-02	 1.62097000E-03
		-6.60989000E-04	-2.80747000E-02	 3.50257000E-03
		 5.45836000E-04	-3.11330000E-02	-3.81732000E-03
		 5.50376000E-04	-3.16905000E-02	-3.83112000E-03
		 6.66978000E-04	-2.73838000E-02	-3.84921000E-03
		 2.70822000E-04	-3.11444000E-02	-1.99287000E-03
		 5.48670000E-04	-3.14089000E-02	-3.84340000E-03
		 6.71422000E-04	-2.80477000E-02	-3.86843000E-03
		 2.71556000E-04	-3.17026000E-02	-2.02879000E-03
		-1.32938000E-05	-3.22693000E-02	-2.22159000E-04
		-5.89827000E-04	-3.22859000E-02	 3.40993000E-03
		-1.13142000E-05	-3.19869000E-02	-2.12548000E-04
		-5.80397000E-04	-3.19957000E-02	 3.39245000E-03
		 5.82588000E-07	-2.87287000E-02	-1.97026000E-04
		-2.98637000E-04	-3.22819000E-02	 1.62890000E-03
		-6.78874000E-04	-2.87476000E-02	 3.48426000E-03
		 5.64979000E-04	-3.22630000E-02	-3.85457000E-03
		 5.58153000E-04	-3.19715000E-02	-3.81775000E-03
		 6.83924000E-04	-2.87261000E-02	-3.87865000E-03
		 2.72402000E-04	-3.22694000E-02	-2.07361000E-03
		-3.99289000E-05	-3.87540000E-02	-2.28378000E-04
		-1.74347000E-04	-3.88121000E-02	 3.66370000E-03
		-4.24081000E-05	-3.88316000E-02	-2.44260000E-04
		-7.53020000E-05	-3.88956000E-02	 3.63678000E-03
		-2.41197000E-05	-3.48591000E-02	-2.05709000E-04
		-1.05293000E-04	-3.87688000E-02	 1.69478000E-03
		-4.14932000E-04	-3.48850000E-02	 3.47354000E-03
		-4.08325000E-05	-3.88055000E-02	-2.36253000E-04
		-1.24684000E-04	-3.88689000E-02	 3.69619000E-03
		-2.67898000E-05	-3.52219000E-02	-2.24054000E-04
		-5.92278000E-05	-3.88500000E-02	 1.72125000E-03
		-3.72480000E-04	-3.52564000E-02	 3.44274000E-03
		 8.92340000E-05	-3.87880000E-02	-4.11921000E-03
		-1.12292000E-05	-3.88673000E-02	-4.12384000E-03
		 3.61392000E-04	-3.48655000E-02	-3.88458000E-03
		 2.40260000E-05	-3.87576000E-02	-2.15099000E-03
		 3.85067000E-05	-3.88407000E-02	-4.16769000E-03
		 3.16901000E-04	-3.52318000E-02	-3.89104000E-03
		-2.64359000E-05	-3.88349000E-02	-2.20928000E-03
		-4.59553000E-05	-3.88165000E-02	-2.60700000E-04
		 1.98888000E-05	-3.88783000E-02	 3.63216000E-03
		-4.42642000E-05	-3.88369000E-02	-2.52447000E-04
		-2.79979000E-05	-3.89000000E-02	 3.57224000E-03
		-3.04660000E-05	-3.55475000E-02	-2.41286000E-04
		-1.41206000E-05	-3.88343000E-02	 1.77157000E-03
		-3.45606000E-04	-3.55900000E-02	 3.43728000E-03
		-1.09298000E-04	-3.88528000E-02	-4.15188000E-03
		-5.93913000E-05	-3.88731000E-02	-4.07557000E-03
		 2.86467000E-04	-3.55669000E-02	-3.92068000E-03
		-7.74492000E-05	-3.88205000E-02	-2.29222000E-03
		-7.53947000E-05	-4.79233000E-02	-2.81109000E-04
		 4.04523000E-04	-4.80172000E-02	 4.52055000E-03
		-8.00850000E-05	-4.73712000E-02	-2.93938000E-04
		 5.35964000E-04	-4.74666000E-02	 4.51520000E-03
		-5.59508000E-05	-4.30667000E-02	-2.52273000E-04
		 1.64559000E-04	-4.79518000E-02	 2.06623000E-03
		 1.21716000E-04	-4.31449000E-02	 4.06412000E-03
		-7.68840000E-05	-4.76666000E-02	-2.88232000E-04
		 4.70901000E-04	-4.77608000E-02	 4.55877000E-03
		-5.99724000E-05	-4.28137000E-02	-2.66711000E-04
		 2.28833000E-04	-4.74004000E-02	 2.09806000E-03
		 2.57187000E-04	-4.28959000E-02	 4.04514000E-03
		-5.62333000E-04	-4.79761000E-02	-5.08963000E-03
		-7.05073000E-04	-4.74166000E-02	-5.10866000E-03
		-2.40757000E-04	-4.31126000E-02	-4.56879000E-03
		-3.17706000E-04	-4.79314000E-02	-2.63141000E-03
		-6.32563000E-04	-4.77142000E-02	-5.14151000E-03
		-3.81621000E-04	-4.28565000E-02	-4.57709000E-03
		-3.92333000E-04	-4.73739000E-02	-2.68822000E-03
		-8.53562000E-05	-4.66807000E-02	-3.02502000E-04
		 6.79026000E-04	-4.67727000E-02	 4.50147000E-03
		-8.33117000E-05	-4.70434000E-02	-2.97951000E-04
		 6.07243000E-04	-4.71393000E-02	 4.47636000E-03
		-6.50654000E-05	-4.24266000E-02	-2.82559000E-04
		 2.95439000E-04	-4.67095000E-02	 2.12079000E-03
		 3.99507000E-04	-4.25011000E-02	 4.03649000E-03
		-8.58335000E-04	-4.67118000E-02	-5.11066000E-03
		-7.83683000E-04	-4.70854000E-02	-5.07544000E-03
		-5.29642000E-04	-4.24611000E-02	-4.59840000E-03
		-4.68673000E-04	-4.66752000E-02	-2.72904000E-03
		-1.20429000E-04	-5.87111000E-02	-3.49873000E-04
		 7.42628000E-04	-5.87552000E-02	 4.91773000E-03
		-1.03090000E-04	-5.78705000E-02	-3.58477000E-04
		 7.55859000E-04	-5.78989000E-02	 4.92976000E-03
		-9.70223000E-05	-5.32841000E-02	-3.15405000E-04
		 3.11611000E-04	-5.87312000E-02	 2.25977000E-03
		 6.35990000E-04	-5.33451000E-02	 4.82220000E-03
		-1.13535000E-04	-5.82927000E-02	-3.56648000E-04
		 7.46076000E-04	-5.83271000E-02	 4.93158000E-03
		-9.51461000E-05	-5.25196000E-02	-3.26296000E-04
		 3.27630000E-04	-5.78829000E-02	 2.26968000E-03
		 7.04600000E-04	-5.25746000E-02	 4.82855000E-03
		-9.73901000E-04	-5.87251000E-02	-5.63813000E-03
		-9.73179000E-04	-5.78770000E-02	-5.67024000E-03
		-8.27969000E-04	-5.32992000E-02	-5.47089000E-03
		-5.50298000E-04	-5.87206000E-02	-2.96613000E-03
		-9.71818000E-04	-5.83045000E-02	-5.66560000E-03
		-9.05476000E-04	-5.25274000E-02	-5.49922000E-03
		-5.38143000E-04	-5.78774000E-02	-2.99337000E-03
		-8.68282000E-05	-5.69834000E-02	-3.42958000E-04
		 7.84317000E-04	-5.70213000E-02	 4.92451000E-03
		-9.28202000E-05	-5.74270000E-02	-3.53672000E-04
		 7.73772000E-04	-5.74614000E-02	 4.93309000E-03
		-9.45425000E-05	-5.16718000E-02	-3.20395000E-04
		 3.47332000E-04	-5.70014000E-02	 2.26868000E-03
		 7.88918000E-04	-5.17286000E-02	 4.81915000E-03
		-9.88376000E-04	-5.69710000E-02	-5.63784000E-03
		-9.83389000E-04	-5.74315000E-02	-5.66601000E-03
		-1.00020000E-03	-5.16573000E-02	-5.47834000E-03
		-5.29211000E-04	-5.69771000E-02	-2.96306000E-03
		 0.00000000E+00	 0.00000000E+00	 0.00000000E+00
		 0.00000000E+00	 0.00000000E+00	 0.00000000E+00
		-2.80731000E-05	-2.42501000E-03	 1.81364000E-04
		-1.16133000E-03	-2.69067000E-03	 3.47509000E-03
		 0.00000000E+00	 0.00000000E+00	 0.00000000E+00
		 0.00000000E+00	 0.00000000E+00	 0.00000000E+00
		 2.61210000E-06	-3.30778000E-03	 1.95415000E-04
		-6.46323000E-04	-3.59186000E-03	 3.51389000E-03
		 0.00000000E+00	 0.00000000E+00	 0.00000000E+00
		-3.40111000E-05	-2.89898000E-04	 8.83836000E-05
		-5.95906000E-04	-2.47617000E-03	 1.88928000E-03
		-8.15139000E-04	-6.17553000E-04	 1.68957000E-03
		 0.00000000E+00	 0.00000000E+00	 0.00000000E+00
		 0.00000000E+00	 0.00000000E+00	 0.00000000E+00
		-1.28811000E-05	-2.94645000E-03	 1.86702000E-04
		-9.00806000E-04	-3.21872000E-03	 3.42171000E-03
		 0.00000000E+00	 0.00000000E+00	 0.00000000E+00
		-4.54527000E-06	-8.09454000E-04	 8.61592000E-05
		-3.21513000E-04	-3.36514000E-03	 1.84396000E-03
		-3.03018000E-04	-1.12915000E-03	 1.63585000E-03
		 0.00000000E+00	 0.00000000E+00	 0.00000000E+00
		 1.09731000E-03	-2.61319000E-03	-3.11708000E-03
		 0.00000000E+00	 0.00000000E+00	 0.00000000E+00
		 6.44315000E-04	-3.49787000E-03	-3.12737000E-03
		 0.00000000E+00	 0.00000000E+00	 0.00000000E+00
		 7.41150000E-04	-5.53357000E-04	-1.50348000E-03
		 5.38074000E-04	-2.43697000E-03	-1.52927000E-03
		 0.00000000E+00	 0.00000000E+00	 0.00000000E+00
		 8.66836000E-04	-3.13230000E-03	-3.05323000E-03
		 0.00000000E+00	 0.00000000E+00	 0.00000000E+00
		 2.89555000E-04	-1.05773000E-03	-1.45135000E-03
		 3.23309000E-04	-3.31763000E-03	-1.45672000E-03
		 0.00000000E+00	 0.00000000E+00	 0.00000000E+00
		 0.00000000E+00	 0.00000000E+00	 0.00000000E+00
		 3.66462000E-05	-3.71401000E-03	 2.12339000E-04
		-1.15445000E-04	-3.98242000E-03	 3.50780000E-03
		 0.00000000E+00	 0.00000000E+00	 0.00000000E+00
		 0.00000000E+00	 0.00000000E+00	 0.00000000E+00
		 1.90906000E-05	-3.58943000E-03	 2.03093000E-04
		-3.84244000E-04	-3.86127000E-03	 3.56556000E-03
		 0.00000000E+00	 0.00000000E+00	 0.00000000E+00
		 2.72429000E-05	-8.81514000E-04	 9.71843000E-05
		-3.85240000E-05	-3.76632000E-03	 1.79350000E-03
		 2.35984000E-04	-1.19200000E-03	 1.70031000E-03
		 0.00000000E+00	 0.00000000E+00	 0.00000000E+00
		 1.77930000E-04	-3.87494000E-03	-3.08599000E-03
		 0.00000000E+00	 0.00000000E+00	 0.00000000E+00
		 4.12778000E-04	-3.76631000E-03	-3.16229000E-03
		 0.00000000E+00	 0.00000000E+00	 0.00000000E+00
		-1.86367000E-04	-1.11196000E-03	-1.49269000E-03
		 1.09054000E-04	-3.71212000E-03	-1.37236000E-03
		 4.61269000E-05	-1.18042000E-02	 3.27592000E-04
		-1.97049000E-03	-1.20796000E-02	 6.85901000E-03
		 8.39236000E-05	-1.36099000E-02	 3.62399000E-04
		-1.53091000E-03	-1.38881000E-02	 6.91983000E-03
		-2.28160000E-06	-6.24548000E-03	 2.60650000E-04
		-9.60534000E-04	-1.18926000E-02	 3.60914000E-03
		-1.56309000E-03	-6.54107000E-03	 5.25865000E-03
		 6.42234000E-05	-1.27559000E-02	 3.43971000E-04
		-1.75013000E-03	-1.30303000E-02	 6.82099000E-03
		 3.04836000E-05	-7.56002000E-03	 2.85673000E-04
		-7.16439000E-04	-1.36965000E-02	 3.58907000E-03
		-1.04995000E-03	-7.85847000E-03	 5.29520000E-03
		 2.05685000E-03	-1.19249000E-02	-6.21104000E-03
		 1.68753000E-03	-1.37300000E-02	-6.20085000E-03
		 1.54942000E-03	-6.42786000E-03	-4.74285000E-03
		 1.05057000E-03	-1.18145000E-02	-2.95649000E-03
		 1.87188000E-03	-1.28791000E-02	-6.13688000E-03
		 1.10286000E-03	-7.73584000E-03	-4.72972000E-03
		 8.85608000E-04	-1.36181000E-02	-2.86256000E-03
		 1.18619000E-04	-1.50239000E-02	 4.03572000E-04
		-1.05376000E-03	-1.52721000E-02	 6.93501000E-03
		 1.01034000E-04	-1.43608000E-02	 3.82759000E-04
		-1.29153000E-03	-1.46631000E-02	 7.02407000E-03
		 6.51425000E-05	-8.39983000E-03	 3.17721000E-04
		-4.79210000E-04	-1.50928000E-02	 3.52348000E-03
		-5.15905000E-04	-8.68567000E-03	 5.31610000E-03
		 1.31072000E-03	-1.51241000E-02	-6.13488000E-03
		 1.49865000E-03	-1.44799000E-02	-6.26902000E-03
		 6.48752000E-04	-8.55837000E-03	-4.68483000E-03
		 7.22035000E-04	-1.50212000E-02	-2.71279000E-03
		 2.14113000E-04	-2.66250000E-02	 4.14045000E-04
		-2.95240000E-03	-2.67204000E-02	 8.59256000E-03
		 2.56321000E-04	-2.97219000E-02	 4.68976000E-04
		-2.82032000E-03	-2.99274000E-02	 8.68162000E-03
		 1.21467000E-04	-1.88151000E-02	 3.79262000E-04
		-1.36435000E-03	-2.66645000E-02	 4.52706000E-03
		-2.41017000E-03	-1.90283000E-02	 8.00464000E-03
		 2.36704000E-04	-2.81846000E-02	 4.46260000E-04
		-2.88926000E-03	-2.83466000E-02	 8.52928000E-03
		 1.60262000E-04	-2.12158000E-02	 4.22069000E-04
		-1.30504000E-03	-2.98215000E-02	 4.47612000E-03
		-2.12234000E-03	-2.14403000E-02	 8.09009000E-03
		 3.33470000E-03	-2.65566000E-02	-7.74931000E-03
		 3.32375000E-03	-2.96593000E-02	-7.76300000E-03
		 2.63763000E-03	-1.88472000E-02	-7.24916000E-03
		 1.77743000E-03	-2.65846000E-02	-3.68788000E-03
		 3.32750000E-03	-2.81119000E-02	-7.64976000E-03
		 2.43813000E-03	-2.12338000E-02	-7.25021000E-03
		 1.79143000E-03	-2.96907000E-02	-3.55825000E-03
		 2.92461000E-04	-3.27586000E-02	 5.17742000E-04
		-2.78378000E-03	-3.30866000E-02	 8.69429000E-03
		 2.74712000E-04	-3.12621000E-02	 4.90710000E-04
		-2.80445000E-03	-3.13999000E-02	 8.84764000E-03
		 2.05997000E-04	-2.33727000E-02	 4.65827000E-04
		-1.21276000E-03	-3.29222000E-02	 4.34495000E-03
		-1.84534000E-03	-2.36133000E-02	 8.09617000E-03
		 3.32115000E-03	-3.27223000E-02	-7.70545000E-03
		 3.32213000E-03	-3.11905000E-02	-7.88713000E-03
		 2.21507000E-03	-2.33722000E-02	-7.17129000E-03
		 1.79796000E-03	-3.27496000E-02	-3.35403000E-03
		 4.94773000E-04	-4.19700000E-02	 4.58021000E-04
		-3.94570000E-03	-4.18616000E-02	 7.94440000E-03
		 5.32455000E-04	-4.65655000E-02	 5.48870000E-04
		-4.23380000E-03	-4.69180000E-02	 8.04247000E-03
		 3.07789000E-04	-3.45162000E-02	 4.40514000E-04
		-1.72536000E-03	-4.19441000E-02	 4.26493000E-03
		-3.50379000E-03	-3.45993000E-02	 8.46172000E-03
		 5.14698000E-04	-4.42057000E-02	 5.05344000E-04
		-4.08026000E-03	-4.42730000E-02	 7.92317000E-03
		 3.42702000E-04	-3.84213000E-02	 4.66477000E-04
		-1.72700000E-03	-4.67555000E-02	 4.28643000E-03
		-3.62344000E-03	-3.84540000E-02	 8.59298000E-03
		 4.76171000E-03	-4.17850000E-02	-7.03065000E-03
		 4.99894000E-03	-4.62214000E-02	-6.94523000E-03
		 4.08790000E-03	-3.43754000E-02	-7.57827000E-03
		 2.62823000E-03	-4.19096000E-02	-3.34854000E-03
		 4.88353000E-03	-4.39715000E-02	-6.91512000E-03
		 4.23636000E-03	-3.82353000E-02	-7.55653000E-03
		 2.75391000E-03	-4.63993000E-02	-3.18970000E-03
		 4.33719000E-04	-5.13929000E-02	 6.31496000E-04
		-4.38826000E-03	-5.21111000E-02	 8.12013000E-03
		 4.84253000E-04	-4.89147000E-02	 5.90039000E-04
		-4.31019000E-03	-4.99709000E-02	 8.15527000E-03
		 3.54565000E-04	-4.24337000E-02	 4.58975000E-04
		-2.09261000E-03	-5.17500000E-02	 4.29092000E-03
		-3.59373000E-03	-4.23637000E-02	 8.61556000E-03
		 5.25688000E-03	-5.08948000E-02	-6.85533000E-03