<?xml version="1.0"?>
<VTKFile type="UnstructuredGrid" version="0.1" byte_order="LittleEndian">
	<UnstructuredGrid>
		<Piece NumberOfPoints="522" NumberOfCells="64">
			<Points>
				<DataArray type="Float64" NumberOfComponents="3" format="ascii">
					 1.00000000E+00	 1.00000000E+00	-5.96046000E-08
					 1.00000000E+00	 5.00000000E-01	-5.96046000E-08
					 1.00000000E+00	 5.00000000E-01	 1.00000000E+00
					 1.00000000E+00	 1.00000000E+00	 1.00000000E+00
					 5.00000000E-01	 1.00000000E+00	-5.96046000E-08
					 5.00000000E-01	 5.00000000E-01	-5.96046000E-08
					 5.00000000E-01	 5.00000000E-01	 1.00000000E+00
					 5.00000000E-01	 1.00000000E+00	 1.00000000E+00
					 1.00000000E+00	 7.50000000E-01	-5.96046000E-08
					 1.00000000E+00	 5.00000000E-01	 5.00000000E-01
					 1.00000000E+00	 7.50000000E-01	 1.00000000E+00
					 1.00000000E+00	 1.00000000E+00	 5.00000000E-01
					 7.50000000E-01	 1.00000000E+00	-5.96046000E-08
					 7.50000000E-01	 5.00000000E-01	-5.96046000E-08
					 7.50000000E-01	 5.00000000E-01	 1.00000000E+00
					 7.50000000E-01	 1.00000000E+00	 1.00000000E+00
					 5.00000000E-01	 7.50000000E-01	-5.96046000E-08
					 5.00000000E-01	 5.00000000E-01	 5.00000000E-01
					 5.00000000E-01	 7.50000000E-01	 1.00000000E+00
					 5.00000000E-01	 1.00000000E+00	 5.00000000E-01
					 1.00000000E+00	-1.49012000E-08	-5.96046000E-08
					 1.00000000E+00	-1.49012000E-08	 1.00000000E+00
					 5.00000000E-01	-1.49012000E-08	-5.96046000E-08
					 5.00000000E-01	-1.49012000E-08	 1.00000000E+00
					 1.00000000E+00	 2.50000000E-01	-5.96046000E-08
					 1.00000000E+00	-1.49012000E-08	 5.00000000E-01
					 1.00000000E+00	 2.50000000E-01	 1.00000000E+00
					 7.50000000E-01	-1.49012000E-08	-5.96046000E-08
					 7.50000000E-01	-1.49012000E-08	 1.00000000E+00
					 5.00000000E-01	 2.50000000E-01	-5.96046000E-08
					 5.00000000E-01	-1.49012000E-08	 5.00000000E-01
					 5.00000000E-01	 2.50000000E-01	 1.00000000E+00
					-7.45058000E-09	 1.00000000E+00	-5.96046000E-08
					-7.45058000E-09	 5.00000000E-01	-5.96046000E-08
					-7.45058000E-09	 5.00000000E-01	 1.00000000E+00
					-7.45058000E-09	 1.00000000E+00	 1.00000000E+00
					 2.50000000E-01	 1.00000000E+00	-5.96046000E-08
					 2.50000000E-01	 5.00000000E-01	-5.96046000E-08
					 2.50000000E-01	 5.00000000E-01	 1.00000000E+00
					 2.50000000E-01	 1.00000000E+00	 1.00000000E+00
					-7.45058000E-09	 7.50000000E-01	-5.96046000E-08
					-7.45058000E-09	 5.00000000E-01	 5.00000000E-01
					-7.45058000E-09	 7.50000000E-01	 1.00000000E+00
					-7.45058000E-09	 1.00000000E+00	 5.00000000E-01
					-7.45058000E-09	-1.49012000E-08	-5.96046000E-08
					-7.45058000E-09	-1.49012000E-08	 1.00000000E+00
					 2.50000000E-01	-1.49012000E-08	-5.96046000E-08
					 2.50000000E-01	-1.49012000E-08	 1.00000000E+00
					-7.45058000E-09	 2.50000000E-01	-5.96046000E-08
					-7.45058000E-09	-1.49012000E-08	 5.00000000E-01
					-7.45058000E-09	 2.50000000E-01	 1.00000000E+00
					 1.00000000E+00	 5.00000000E-01	 2.00000000E+00
					 1.00000000E+00	 1.00000000E+00	 2.00000000E+00
					 5.00000000E-01	 5.00000000E-01	 2.00000000E+00
					 5.00000000E-01	 1.00000000E+00	 2.00000000E+00
					 1.00000000E+00	 5.00000000E-01	 1.50000000E+00
					 1.00000000E+00	 7.50000000E-01	 2.00000000E+00
					 1.00000000E+00	 1.00000000E+00	 1.50000000E+00
					 7.50000000E-01	 5.00000000E-01	 2.00000000E+00
					 7.50000000E-01	 1.00000000E+00	 2.00000000E+00
					 5.00000000E-01	 5.00000000E-01	 1.50000000E+00
					 5.00000000E-01	 7.50000000E-01	 2.00000000E+00
					 5.00000000E-01	 1.00000000E+00	 1.50000000E+00
					 1.00000000E+00	-1.49012000E-08	 2.00000000E+00
					 5.00000000E-01	-1.49012000E-08	 2.00000000E+00
					 1.00000000E+00	-1.49012000E-08	 1.50000000E+00
					 1.00000000E+00	 2.50000000E-01	 2.00000000E+00
					 7.50000000E-01	-1.49012000E-08	 2.00000000E+00
					 5.00000000E-01	-1.49012000E-08	 1.50000000E+00
					 5.00000000E-01	 2.50000000E-01	 2.00000000E+00
					-7.45058000E-09	 5.00000000E-01	 2.00000000E+00
					-7.45058000E-09	 1.00000000E+00	 2.00000000E+00
					 2.50000000E-01	 5.00000000E-01	 2.00000000E+00
					 2.50000000E-01	 1.00000000E+00	 2.00000000E+00
					-7.45058000E-09	 5.00000000E-01	 1.50000000E+00
					-7.45058000E-09	 7.50000000E-01	 2.00000000E+00
					-7.45058000E-09	 1.00000000E+00	 1.50000000E+00
					-7.45058000E-09	-1.49012000E-08	 2.00000000E+00
					 2.50000000E-01	-1.49012000E-08	 2.00000000E+00
					-7.45058000E-09	-1.49012000E-08	 1.50000000E+00
					-7.45058000E-09	 2.50000000E-01	 2.00000000E+00
					 1.00000000E+00	 5.00000000E-01	 3.00000000E+00
					 1.00000000E+00	 1.00000000E+00	 3.00000000E+00
					 5.00000000E-01	 5.00000000E-01	 3.00000000E+00
					 5.00000000E-01	 1.00000000E+00	 3.00000000E+00
					 1.00000000E+00	 5.00000000E-01	 2.50000000E+00
					 1.00000000E+00	 7.50000000E-01	 3.00000000E+00
					 1.00000000E+00	 1.00000000E+00	 2.50000000E+00
					 7.50000000E-01	 5.00000000E-01	 3.00000000E+00
					 7.50000000E-01	 1.00000000E+00	 3.00000000E+00
					 5.00000000E-01	 5.00000000E-01	 2.50000000E+00
					 5.00000000E-01	 7.50000000E-01	 3.00000000E+00
					 5.00000000E-01	 1.00000000E+00	 2.50000000E+00
					 1.00000000E+00	-1.49012000E-08	 3.00000000E+00
					 5.00000000E-01	-1.49012000E-08	 3.00000000E+00
					 1.00000000E+00	-1.49012000E-08	 2.50000000E+00
					 1.00000000E+00	 2.50000000E-01	 3.00000000E+00
					 7.50000000E-01	-1.49012000E-08	 3.00000000E+00
					 5.00000000E-01	-1.49012000E-08	 2.50000000E+00
					 5.00000000E-01	 2.50000000E-01	 3.00000000E+00
					-7.45058000E-09	 5.00000000E-01	 3.00000000E+00
					-7.45058000E-09	 1.00000000E+00	 3.00000000E+00
					 2.50000000E-01	 5.00000000E-01	 3.00000000E+00
					 2.50000000E-01	 1.00000000E+00	 3.00000000E+00
					-7.45058000E-09	 5.00000000E-01	 2.50000000E+00
					-7.45058000E-09	 7.50000000E-01	 3.00000000E+00
					-7.45058000E-09	 1.00000000E+00	 2.50000000E+00
					-7.45058000E-09	-1.49012000E-08	 3.00000000E+00
					 2.50000000E-01	-1.49012000E-08	 3.00000000E+00
					-7.45058000E-09	-1.49012000E-08	 2.50000000E+00
					-7.45058000E-09	 2.50000000E-01	 3.00000000E+00
					 1.00000000E+00	 5.00000000E-01	 4.00000000E+00
					 1.00000000E+00	 1.00000000E+00	 4.00000000E+00
					 5.00000000E-01	 5.00000000E-01	 4.00000000E+00
					 5.00000000E-01	 1.00000000E+00	 4.00000000E+00
					 1.00000000E+00	 5.00000000E-01	 3.50000000E+00
					 1.00000000E+00	 7.50000000E-01	 4.00000000E+00
					 1.00000000E+00	 1.00000000E+00	 3.50000000E+00
					 7.50000000E-01	 5.00000000E-01	 4.00000000E+00
					 7.50000000E-01	 1.00000000E+00	 4.00000000E+00
					 5.00000000E-01	 5.00000000E-01	 3.50000000E+00
					 5.00000000E-01	 7.50000000E-01	 4.00000000E+00
					 5.00000000E-01	 1.00000000E+00	 3.50000000E+00
					 1.00000000E+00	-1.49012000E-08	 4.00000000E+00
					 5.00000000E-01	-1.49012000E-08	 4.00000000E+00
					 1.00000000E+00	-1.49012000E-08	 3.50000000E+00
					 1.00000000E+00	 2.50000000E-01	 4.00000000E+00
					 7.50000000E-01	-1.49012000E-08	 4.00000000E+00
					 5.00000000E-01	-1.49012000E-08	 3.50000000E+00
					 5.00000000E-01	 2.50000000E-01	 4.00000000E+00
					-7.45058000E-09	 5.00000000E-01	 4.00000000E+00
					-7.45058000E-09	 1.00000000E+00	 4.00000000E+00
					 2.50000000E-01	 5.00000000E-01	 4.00000000E+00
					 2.50000000E-01	 1.00000000E+00	 4.00000000E+00
					-7.45058000E-09	 5.00000000E-01	 3.50000000E+00
					-7.45058000E-09	 7.50000000E-01	 4.00000000E+00
					-7.45058000E-09	 1.00000000E+00	 3.50000000E+00
					-7.45058000E-09	-1.49012000E-08	 4.00000000E+00
					 2.50000000E-01	-1.49012000E-08	 4.00000000E+00
					-7.45058000E-09	-1.49012000E-08	 3.50000000E+00
					-7.45058000E-09	 2.50000000E-01	 4.00000000E+00
					 1.00000000E+00	 5.00000000E-01	 5.00000000E+00
					 1.00000000E+00	 1.00000000E+00	 5.00000000E+00
					 5.00000000E-01	 5.00000000E-01	 5.00000000E+00
					 5.00000000E-01	 1.00000000E+00	 5.00000000E+00
					 1.00000000E+00	 5.00000000E-01	 4.50000000E+00
					 1.00000000E+00	 7.50000000E-01	 5.00000000E+00
					 1.00000000E+00	 1.00000000E+00	 4.50000000E+00
					 7.50000000E-01	 5.00000000E-01	 5.00000000E+00
					 7.50000000E-01	 1.00000000E+00	 5.00000000E+00
					 5.00000000E-01	 5.00000000E-01	 4.50000000E+00
					 5.00000000E-01	 7.50000000E-01	 5.00000000E+00
					 5.00000000E-01	 1.00000000E+00	 4.50000000E+00
					 1.00000000E+00	-1.49012000E-08	 5.00000000E+00
					 5.00000000E-01	-1.49012000E-08	 5.00000000E+00
					 1.00000000E+00	-1.49012000E-08	 4.50000000E+00
					 1.00000000E+00	 2.50000000E-01	 5.00000000E+00
					 7.50000000E-01	-1.49012000E-08	 5.00000000E+00
					 5.00000000E-01	-1.49012000E-08	 4.50000000E+00
					 5.00000000E-01	 2.50000000E-01	 5.00000000E+00
					-7.45058000E-09	 5.00000000E-01	 5.00000000E+00
					-7.45058000E-09	 1.00000000E+00	 5.00000000E+00
					 2.50000000E-01	 5.00000000E-01	 5.00000000E+00
					 2.50000000E-01	 1.00000000E+00	 5.00000000E+00
					-7.45058000E-09	 5.00000000E-01	 4.50000000E+00
					-7.45058000E-09	 7.50000000E-01	 5.00000000E+00
					-7.45058000E-09	 1.00000000E+00	 4.50000000E+00
					-7.45058000E-09	-1.49012000E-08	 5.00000000E+00
					 2.50000000E-01	-1.49012000E-08	 5.00000000E+00
					-7.45058000E-09	-1.49012000E-08	 4.50000000E+00
					-7.45058000E-09	 2.50000000E-01	 5.00000000E+00
					 1.00000000E+00	 5.00000000E-01	 6.00000000E+00
					 1.00000000E+00	 1.00000000E+00	 6.00000000E+00
					 5.00000000E-01	 5.00000000E-01	 6.00000000E+00
					 5.00000000E-01	 1.00000000E+00	 6.00000000E+00
					 1.00000000E+00	 5.00000000E-01	 5.50000000E+00
					 1.00000000E+00	 7.50000000E-01	 6.00000000E+00
					 1.00000000E+00	 1.00000000E+00	 5.50000000E+00
					 7.50000000E-01	 5.00000000E-01	 6.00000000E+00
					 7.50000000E-01	 1.00000000E+00	 6.00000000E+00
					 5.00000000E-01	 5.00000000E-01	 5.50000000E+00
					 5.00000000E-01	 7.50000000E-01	 6.00000000E+00
					 5.00000000E-01	 1.00000000E+00	 5.50000000E+00
					 1.00000000E+00	-1.49012000E-08	 6.00000000E+00
[...]
			<PointData>
				<DataArray type="Float32" Name="U" NumberOfComponents="3" ComponentName0="D1" ComponentName1="D2" ComponentName2="D3" format="ascii">
					 0.00000000E+00	 0.00000000E+00	 0.00000000E+00
					 0.00000000E+00	 0.00000000E+00	 0.00000000E+00
					 2.68069000E-05	-4.33809000E-03	-3.15424000E-05
					-2.96399000E-04	-4.56949000E-03	 3.78587000E-03
					 0.00000000E+00	 0.00000000E+00	 0.00000000E+00
					 0.00000000E+00	 0.00000000E+00	 0.00000000E+00
					 2.06053000E-05	-4.42238000E-03	-2.44000000E-05
					 1.75707000E-04	-4.66522000E-03	 3.83393000E-03
					 0.00000000E+00	 0.00000000E+00	 0.00000000E+00
					 1.52708000E-05	-1.07323000E-03	-1.16025000E-05
					-1.36725000E-04	-4.36837000E-03	 1.82354000E-03
					-4.57237000E-04	-1.39765000E-03	 1.94621000E-03
					 0.00000000E+00	 0.00000000E+00	 0.00000000E+00
					 0.00000000E+00	 0.00000000E+00	 0.00000000E+00
					 2.43978000E-05	-4.46280000E-03	-2.77477000E-05
					-5.63278000E-05	-4.69792000E-03	 3.81805000E-03
					 0.00000000E+00	 0.00000000E+00	 0.00000000E+00
					 9.46645000E-06	-1.22059000E-03	-5.65562000E-06
					 9.87817000E-05	-4.45560000E-03	 1.85514000E-03
					 1.17497000E-04	-1.55222000E-03	 1.90040000E-03
					 0.00000000E+00	 0.00000000E+00	 0.00000000E+00
					 3.44365000E-04	-4.54384000E-03	-3.85381000E-03
					 0.00000000E+00	 0.00000000E+00	 0.00000000E+00
					-1.34075000E-04	-4.63420000E-03	-3.88960000E-03
					 0.00000000E+00	 0.00000000E+00	 0.00000000E+00
					 4.84365000E-04	-1.38901000E-03	-1.97276000E-03
					 1.89053000E-04	-4.35632000E-03	-1.88817000E-03
					 0.00000000E+00	 0.00000000E+00	 0.00000000E+00
					 1.02035000E-04	-4.66820000E-03	-3.87909000E-03
					 0.00000000E+00	 0.00000000E+00	 0.00000000E+00
					-9.85753000E-05	-1.53910000E-03	-1.91433000E-03
					-5.70233000E-05	-4.43966000E-03	-1.90608000E-03
					 0.00000000E+00	 0.00000000E+00	 0.00000000E+00
					 0.00000000E+00	 0.00000000E+00	 0.00000000E+00
					 1.50338000E-05	-4.02777000E-03	-1.18865000E-05
					 6.61412000E-04	-4.24647000E-03	 3.80325000E-03
					 0.00000000E+00	 0.00000000E+00	 0.00000000E+00
					 0.00000000E+00	 0.00000000E+00	 0.00000000E+00
					 1.67096000E-05	-4.30605000E-03	-1.94756000E-05
					 4.14874000E-04	-4.53866000E-03	 3.81280000E-03
					 0.00000000E+00	 0.00000000E+00	 0.00000000E+00
					 5.21834000E-06	-8.55922000E-04	 3.73974000E-07
					 3.37760000E-04	-4.05129000E-03	 1.85280000E-03
					 6.91477000E-04	-1.18363000E-03	 1.95701000E-03
					 0.00000000E+00	 0.00000000E+00	 0.00000000E+00
					-6.24815000E-04	-4.21964000E-03	-3.83381000E-03
					 0.00000000E+00	 0.00000000E+00	 0.00000000E+00
					-3.77306000E-04	-4.50796000E-03	-3.85926000E-03
					 0.00000000E+00	 0.00000000E+00	 0.00000000E+00
					-6.77463000E-04	-1.17112000E-03	-1.95894000E-03
					-3.05717000E-04	-4.03825000E-03	-1.87810000E-03
					 4.02318000E-05	-1.49748000E-02	-9.88268000E-05
					-6.66268000E-04	-1.52524000E-02	 6.78966000E-03
					 3.87318000E-05	-1.54734000E-02	-1.04191000E-04
					-2.39354000E-04	-1.57377000E-02	 6.78651000E-03
					 3.62843000E-05	-9.03221000E-03	-6.22642000E-05
					-3.17039000E-04	-1.50678000E-02	 3.40466000E-03
					-3.58905000E-04	-9.32394000E-03	 5.35435000E-03
					 3.91547000E-05	-1.52750000E-02	-1.02222000E-04
					-4.52223000E-04	-1.55408000E-02	 6.72308000E-03
					 3.17415000E-05	-9.22007000E-03	-5.85065000E-05
					-9.96737000E-05	-1.55582000E-02	 3.33747000E-03
					 7.56688000E-05	-9.49144000E-03	 5.36491000E-03
					 7.54690000E-04	-1.51431000E-02	-6.99400000E-03
					 3.24684000E-04	-1.56405000E-02	-7.00001000E-03
					 4.30603000E-04	-9.26387000E-03	-5.48158000E-03
					 3.99262000E-04	-1.50093000E-02	-3.60471000E-03
					 5.39600000E-04	-1.54400000E-02	-6.93251000E-03
					-8.10496000E-06	-9.43329000E-03	-5.48634000E-03
					 1.79660000E-04	-1.55096000E-02	-3.54672000E-03
					 3.71983000E-05	-1.55370000E-02	-1.01331000E-04
					 2.08827000E-04	-1.57835000E-02	 6.78836000E-03
					 3.83147000E-05	-1.55535000E-02	-1.03931000E-04
					-1.41769000E-05	-1.58136000E-02	 6.85045000E-03
					 2.78176000E-05	-8.94901000E-03	-4.56956000E-05
					 1.20212000E-04	-1.56097000E-02	 3.27440000E-03
					 5.41563000E-04	-9.20517000E-03	 5.36740000E-03
					-1.27575000E-04	-1.56954000E-02	-6.99468000E-03
					 9.77504000E-05	-1.57191000E-02	-7.06232000E-03
					-4.77691000E-04	-9.15482000E-03	-5.46499000E-03
					-4.38445000E-05	-1.55683000E-02	-3.47763000E-03
					 4.17867000E-05	-3.08159000E-02	-2.30320000E-04
					-1.71996000E-03	-3.10917000E-02	 9.47270000E-03
					 4.45569000E-05	-3.23805000E-02	-2.60952000E-04
					-1.33572000E-03	-3.26624000E-02	 9.46208000E-03
					 4.14367000E-05	-2.21840000E-02	-1.50065000E-04
					-8.36397000E-04	-3.09024000E-02	 4.67178000E-03
					-1.15614000E-03	-2.24670000E-02	 8.18974000E-03
					 4.31958000E-05	-3.16485000E-02	-2.46525000E-04
					-1.52836000E-03	-3.19279000E-02	 9.38162000E-03
					 4.11731000E-05	-2.31741000E-02	-1.68456000E-04
					-6.45291000E-04	-3.24680000E-02	 4.56465000E-03
					-7.35394000E-04	-2.34487000E-02	 8.17948000E-03
					 1.79968000E-03	-3.09084000E-02	-9.94474000E-03
					 1.41569000E-03	-3.24752000E-02	-9.99318000E-03
					 1.24508000E-03	-2.23199000E-02	-8.50386000E-03
					 9.18364000E-04	-3.08107000E-02	-5.13436000E-03
					 1.60928000E-03	-3.17463000E-02	-9.88674000E-03
					 8.19297000E-04	-2.33100000E-02	-8.52534000E-03
					 7.30902000E-04	-3.23769000E-02	-5.08878000E-03
					 4.40940000E-05	-3.35679000E-02	-2.80440000E-04
					-9.52292000E-04	-3.38498000E-02	 9.42466000E-03
					 4.51789000E-05	-3.30245000E-02	-2.72214000E-04
					-1.14324000E-03	-3.33091000E-02	 9.54614000E-03
					 3.94266000E-05	-2.37381000E-02	-1.78385000E-04
					-4.54710000E-04	-3.36560000E-02	 4.43427000E-03
					-3.02282000E-04	-2.40044000E-02	 8.16807000E-03
					 1.02817000E-03	-3.36491000E-02	-9.99194000E-03
					 1.22070000E-03	-3.31130000E-02	-1.00977000E-02
					 3.79477000E-04	-2.38643000E-02	-8.52863000E-03
					 5.39679000E-04	-3.35589000E-02	-4.99653000E-03
					 4.85043000E-05	-5.19086000E-02	-4.59274000E-04
					-2.62178000E-03	-5.21006000E-02	 1.09534000E-02
					 5.93134000E-05	-5.45179000E-02	-5.12159000E-04
					-2.49688000E-03	-5.47124000E-02	 1.09297000E-02
					 4.39795000E-05	-4.08703000E-02	-3.38040000E-04
					-1.28656000E-03	-5.19906000E-02	 5.25080000E-03
					-2.22016000E-03	-4.11014000E-02	 1.04279000E-02
					 5.45605000E-05	-5.32270000E-02	-4.86125000E-04
					-2.55963000E-03	-5.34195000E-02	 1.08852000E-02
					 5.11458000E-05	-4.29915000E-02	-3.79175000E-04
					-1.21937000E-03	-5.46016000E-02	 5.15349000E-03
					-1.94696000E-03	-4.32346000E-02	 1.04177000E-02
					 2.71020000E-03	-5.18334000E-02	-1.18711000E-02
					 2.61010000E-03	-5.44370000E-02	-1.19542000E-02
					 2.29765000E-03	-4.08748000E-02	-1.11081000E-02
					 1.38106000E-03	-5.18591000E-02	-6.16992000E-03
					 2.65968000E-03	-5.31489000E-02	-1.18555000E-02
					 2.03865000E-03	-4.29973000E-02	-1.11813000E-02
					 1.33549000E-03	-5.44660000E-02	-6.17759000E-03
					 6.52277000E-05	-5.70115000E-02	-5.63589000E-04
					-2.37705000E-03	-5.72070000E-02	 1.08493000E-02
					 6.30321000E-05	-5.57778000E-02	-5.37948000E-04
					-2.43621000E-03	-5.59742000E-02	 1.09798000E-02
					 5.39067000E-05	-4.48528000E-02	-4.10752000E-04
					-1.15548000E-03	-5.70931000E-02	 5.00011000E-03
					-1.68706000E-03	-4.51019000E-02	 1.03527000E-02
					 2.50808000E-03	-5.69350000E-02	-1.19779000E-02
					 2.56069000E-03	-5.56958000E-02	-1.20581000E-02
					 1.78568000E-03	-4.48568000E-02	-1.11805000E-02
					 1.28572000E-03	-5.69636000E-02	-6.12620000E-03
					 4.95586000E-05	-7.44800000E-02	-6.97231000E-04
					-3.50823000E-03	-7.46005000E-02	 1.07530000E-02
					 6.10909000E-05	-7.80757000E-02	-7.84330000E-04
					-3.57074000E-03	-7.81934000E-02	 1.06785000E-02
					 5.28000000E-05	-6.32737000E-02	-5.80991000E-04
					-1.73184000E-03	-7.45526000E-02	 5.09222000E-03
					-3.01882000E-03	-6.34348000E-02	 1.09914000E-02
					 5.58707000E-05	-7.62684000E-02	-7.40269000E-04
					-3.53809000E-03	-7.63832000E-02	 1.06339000E-02
					 6.37760000E-05	-6.63483000E-02	-6.49753000E-04
					-1.75447000E-03	-7.81450000E-02	 4.92884000E-03
					-3.01181000E-03	-6.65034000E-02	 1.09445000E-02
					 3.60400000E-03	-7.43055000E-02	-1.21402000E-02
					 3.69129000E-03	-7.78946000E-02	-1.22389000E-02
					 3.12102000E-03	-6.31466000E-02	-1.21486000E-02
					 1.82975000E-03	-7.44013000E-02	-6.48395000E-03
					 3.64746000E-03	-7.60896000E-02	-1.21074000E-02
					 3.13805000E-03	-6.62126000E-02	-1.22392000E-02
					 1.87597000E-03	-7.79957000E-02	-6.49536000E-03
					 7.23553000E-05	-8.17395000E-02	-8.75829000E-04
					-3.63166000E-03	-8.18600000E-02	 1.05785000E-02
					 6.61250000E-05	-7.98976000E-02	-8.29715000E-04
					-3.60239000E-03	-8.00182000E-02	 1.07206000E-02
					 7.15697000E-05	-6.94205000E-02	-7.23709000E-04
					-1.77821000E-03	-8.18078000E-02	 4.74301000E-03
					-3.00098000E-03	-6.95744000E-02	 1.08516000E-02
					 3.77693000E-03	-8.15617000E-02	-1.23215000E-02
					 3.73386000E-03	-7.97149000E-02	-1.23710000E-02
					 3.14760000E-03	-6.92891000E-02	-1.22948000E-02
					 1.92298000E-03	-8.16628000E-02	-6.49292000E-03
					 3.02285000E-05	-9.56990000E-02	-9.09946000E-04
					-4.70821000E-03	-9.57816000E-02	 9.88513000E-03
					 4.97613000E-05	-1.00482000E-01	-1.01708000E-03
					-4.78492000E-03	-1.00575000E-01	 9.77687000E-03
					 3.85721000E-05	-8.52839000E-02	-8.07004000E-04
					-2.33703000E-03	-9.57573000E-02	 4.57500000E-03
					-4.10942000E-03	-8.53864000E-02	 1.03505000E-02
					 4.10271000E-05	-9.80760000E-02	-9.63175000E-04
					-4.74775000E-03	-9.81645000E-02	 9.74800000E-03
					 5.31185000E-05	-8.94775000E-02	-9.06719000E-04
					-2.36774000E-03	-1.00546000E-01	 4.38471000E-03
					-4.19079000E-03	-8.95838000E-02	 1.02556000E-02
					 4.75378000E-03	-9.55006000E-02	-1.17077000E-02
					 4.88078000E-03	-1.00277000E-01	-1.18151000E-02
					 4.17674000E-03	-8.50956000E-02	-1.19605000E-02
					 2.39295000E-03	-9.56118000E-02	-6.39592000E-03
					 4.81845000E-03	-9.78765000E-02	-1.16774000E-02
					 4.29375000E-03	-8.92801000E-02	-1.20644000E-02
					 2.46631000E-03	-1.00393000E-01	-6.42014000E-03
					 7.10608000E-05	-1.05362000E-01	-1.12546000E-03
					-4.87074000E-03	-1.05462000E-01	 9.67111000E-03
					 5.89427000E-05	-1.02909000E-01	-1.07103000E-03
					-4.82776000E-03	-1.03006000E-01	 9.80511000E-03
					 6.96518000E-05	-9.37666000E-02	-1.00813000E-03
					-2.39862000E-03	-1.05427000E-01	 4.19766000E-03
					-4.27200000E-03	-9.38768000E-02	 1.01528000E-02
					 5.02161000E-03	-1.05169000E-01	-1.19274000E-02
					 4.95009000E-03	-1.02705000E-01	-1.19523000E-02
					 4.41459000E-03	-9.35736000E-02	-1.21642000E-02
					 2.54392000E-03	-1.05281000E-01	-6.45004000E-03
					 8.64629000E-07	-1.15661000E-01	-1.10710000E-03
					-5.58864000E-03	-1.15755000E-01	 9.11649000E-03
					 2.98529000E-05	-1.21254000E-01	-1.23245000E-03
					-5.58828000E-03	-1.21365000E-01	 8.98766000E-03
					 1.99546000E-05	-1.05778000E-01	-1.00669000E-03
					-2.79033000E-03	-1.15713000E-01	 4.06247000E-03
					-5.21515000E-03	-1.05861000E-01	 9.45265000E-03
					 1.62982000E-05	-1.18451000E-01	-1.17036000E-03
					-5.59063000E-03	-1.18558000E-01	 9.01076000E-03
					 4.50254000E-05	-1.11039000E-01	-1.12431000E-03
					-2.78051000E-03	-1.21316000E-01	 3.89757000E-03
					-5.25744000E-03	-1.11137000E-01	 9.32886000E-03
					 5.57203000E-03	-1.15500000E-01	-1.13238000E-02
					 5.64688000E-03	-1.21093000E-01	-1.14435000E-02
					 5.24224000E-03	-1.05594000E-01	-1.14706000E-02
					 2.78692000E-03	-1.15587000E-01	-6.27187000E-03
					 5.60932000E-03	-1.18291000E-01	-1.13457000E-02
					 5.34575000E-03	-1.10858000E-01	-1.15840000E-02
					 2.83942000E-03	-1.21180000E-01	-6.35835000E-03
					 5.93620000E-05	-1.26893000E-01	-1.36038000E-03
					-5.60529000E-03	-1.27006000E-01	 8.87124000E-03
					 4.36371000E-05	-1.24069000E-01	-1.29579000E-03
					-5.59584000E-03	-1.24180000E-01	 8.95987000E-03
					 7.06246000E-05	-1.16378000E-01	-1.24169000E-03
					-2.77330000E-03	-1.26953000E-01	 3.74588000E-03
					-5.32026000E-03	-1.16484000E-01	 9.21940000E-03
					 5.73996000E-03	-1.26750000E-01	-1.15810000E-02
					 5.69456000E-03	-1.23911000E-01	-1.15419000E-02
					 5.47125000E-03	-1.16213000E-01	-1.17111000E-02
					 2.89601000E-03	-1.26831000E-01	-6.46069000E-03
					 1.20489000E-05	-1.35523000E-01	-1.32496000E-03
					-5.91281000E-03	-1.35650000E-01	 8.81357000E-03
					 1.57464000E-05	-1.41408000E-01	-1.43102000E-03
					-5.86932000E-03	-1.41584000E-01	 8.71374000E-03
					-6.42721000E-06	-1.25520000E-01	-1.21652000E-03
					-2.94065000E-03	-1.35586000E-01	 3.74847000E-03
					-5.83128000E-03	-1.25628000E-01	 8.92800000E-03
					 1.88134000E-05	-1.38465000E-01	-1.37222000E-03
					-5.89017000E-03	-1.38624000E-01	 8.75979000E-03
					 1.94097000E-05	-1.31322000E-01	-1.33469000E-03
					-2.92380000E-03	-1.41500000E-01	 3.63774000E-03
					-5.79665000E-03	-1.31460000E-01	 8.81401000E-03
					 5.87254000E-03	-1.35366000E-01	-1.14221000E-02
					 5.88542000E-03	-1.41229000E-01	-1.15291000E-02
					 5.77405000E-03	-1.25377000E-01	-1.13325000E-02
					 2.94707000E-03	-1.35442000E-01	-6.38458000E-03
					 5.87892000E-03	-1.38293000E-01	-1.14643000E-02
					 5.82580000E-03	-1.31164000E-01	-1.14470000E-02
					 2.95039000E-03	-1.41310000E-01	-6.48670000E-03
					 1.58838000E-05	-1.47293000E-01	-1.57372000E-03
					-5.84611000E-03	-1.47465000E-01	 8.58669000E-03
					 1.18155000E-05	-1.44353000E-01	-1.49979000E-03
					-5.85888000E-03	-1.44534000E-01	 8.65849000E-03
					 4.26801000E-05	-1.37140000E-01	-1.47360000E-03
					-2.91928000E-03	-1.47381000E-01	 3.49874000E-03
					-5.77132000E-03	-1.37270000E-01	 8.69016000E-03
					 5.91776000E-03	-1.47137000E-01	-1.16816000E-02
					 5.90137000E-03	-1.44179000E-01	-1.16071000E-02
					 5.88776000E-03	-1.37001000E-01	-1.15941000E-02
					 2.96147000E-03	-1.47209000E-01	-6.63134000E-03
					 0.00000000E+00	 0.00000000E+00	 0.00000000E+00
					 0.00000000E+00	 0.00000000E+00	 0.00000000E+00
					 6.04617000E-05	-8.22837000E-03	 1.78802000E-05
					-3.28764000E-03	-8.94915000E-03	 9.89287000E-03
					 0.00000000E+00	 0.00000000E+00	 0.00000000E+00
					 0.00000000E+00	 0.00000000E+00	 0.00000000E+00
					 7.41864000E-05	-1.08939000E-02	 6.94738000E-06
					-1.94438000E-03	-1.16630000E-02	 9.99023000E-03
					 0.00000000E+00	 0.00000000E+00	 0.00000000E+00
					 2.49132000E-05	-1.17698000E-03	 1.93329000E-05
					-1.61535000E-03	-8.36056000E-03	 5.03385000E-03
					-2.45146000E-03	-2.10439000E-03	 4.99014000E-03
					 0.00000000E+00	 0.00000000E+00	 0.00000000E+00
					 0.00000000E+00	 0.00000000E+00	 0.00000000E+00
					 6.93910000E-05	-9.78378000E-03	 1.02726000E-05
					-2.60458000E-03	-1.05249000E-02	 9.76162000E-03
					 0.00000000E+00	 0.00000000E+00	 0.00000000E+00
					 2.76046000E-05	-2.85503000E-03	 1.95296000E-05
					-9.34864000E-04	-1.10388000E-02	 4.89304000E-03
					-9.83778000E-04	-3.75758000E-03	 4.85212000E-03
					 0.00000000E+00	 0.00000000E+00	 0.00000000E+00
					 3.39034000E-03	-8.67704000E-03	-9.89326000E-03
					 0.00000000E+00	 0.00000000E+00	 0.00000000E+00
					 2.09783000E-03	-1.13832000E-02	-1.00161000E-02
					 0.00000000E+00	 0.00000000E+00	 0.00000000E+00
					 2.48743000E-03	-1.98999000E-03	-4.95789000E-03
					 1.73104000E-03	-8.21787000E-03	-5.01254000E-03
					 0.00000000E+00	 0.00000000E+00	 0.00000000E+00
					 2.73782000E-03	-1.02488000E-02	-9.77540000E-03
					 0.00000000E+00	 0.00000000E+00	 0.00000000E+00
					 1.04138000E-03	-3.64039000E-03	-4.81110000E-03
					 1.08409000E-03	-1.08961000E-02	-4.89357000E-03
					 0.00000000E+00	 0.00000000E+00	 0.00000000E+00
					 0.00000000E+00	 0.00000000E+00	 0.00000000E+00
					 8.41625000E-05	-1.22715000E-02	 2.81881000E-05
					-5.96465000E-04	-1.29790000E-02	 9.90702000E-03
					 0.00000000E+00	 0.00000000E+00	 0.00000000E+00
					 0.00000000E+00	 0.00000000E+00	 0.00000000E+00
					 7.80182000E-05	-1.18032000E-02	 1.00210000E-05
					-1.27960000E-03	-1.25443000E-02	 1.01179000E-02
					 0.00000000E+00	 0.00000000E+00	 0.00000000E+00
					 3.13166000E-05	-3.20296000E-03	 4.02046000E-05
					-2.58009000E-04	-1.23899000E-02	 4.69086000E-03
					 5.57517000E-04	-4.05900000E-03	 5.01664000E-03
					 0.00000000E+00	 0.00000000E+00	 0.00000000E+00
					 7.86657000E-04	-1.27153000E-02	-9.88354000E-03
					 0.00000000E+00	 0.00000000E+00	 0.00000000E+00
					 1.44752000E-03	-1.22674000E-02	-1.01384000E-02
					 0.00000000E+00	 0.00000000E+00	 0.00000000E+00
					-4.80862000E-04	-3.94152000E-03	-4.93461000E-03
					 4.34660000E-04	-1.22642000E-02	-4.64311000E-03
					 1.85921000E-04	-3.64188000E-02	-2.68241000E-04
					-4.27208000E-03	-3.72000000E-02	 1.73706000E-02
					 2.22443000E-04	-4.04149000E-02	-3.23677000E-04
					-3.32520000E-03	-4.12051000E-02	 1.73732000E-02
					 1.17460000E-04	-2.01542000E-02	-6.94637000E-05
					-2.04050000E-03	-3.67098000E-02	 8.47319000E-03
					-3.97042000E-03	-2.09643000E-02	 1.40842000E-02
					 2.03705000E-04	-3.85135000E-02	-3.02326000E-04
					-3.79979000E-03	-3.93026000E-02	 1.73361000E-02
					 1.38390000E-04	-2.36342000E-02	-1.04908000E-04
					-1.54924000E-03	-4.07095000E-02	 8.41378000E-03
					-2.75823000E-03	-2.44632000E-02	 1.41054000E-02
					 4.65539000E-03	-3.64655000E-02	-1.79477000E-02
					 3.77850000E-03	-4.04962000E-02	-1.80609000E-02
					 4.19633000E-03	-2.04742000E-02	-1.42657000E-02
					 2.41367000E-03	-3.63444000E-02	-9.01949000E-03
					 4.22104000E-03	-3.85889000E-02	-1.79785000E-02
					 3.04344000E-03	-2.39812000E-02	-1.43620000E-02
					 2.00144000E-03	-4.03629000E-02	-9.06727000E-03
					 2.50780000E-04	-4.35271000E-02	-3.40527000E-04
					-2.39107000E-03	-4.42942000E-02	 1.72977000E-02
					 2.37468000E-04	-4.20691000E-02	-3.35300000E-04
					-2.85656000E-03	-4.28795000E-02	 1.74365000E-02
					 1.56011000E-04	-2.59592000E-02	-9.81143000E-05
					-1.07567000E-03	-4.38030000E-02	 8.26827000E-03
					-1.58760000E-03	-2.67889000E-02	 1.40548000E-02
					 2.93145000E-03	-4.36244000E-02	-1.80188000E-02
					 3.35521000E-03	-4.21536000E-02	-1.81491000E-02
					 1.93385000E-03	-2.63377000E-02	-1.42977000E-02
					 1.58846000E-03	-4.34847000E-02	-8.95474000E-03
					 4.30272000E-04	-7.73794000E-02	-9.91899000E-04
					-4.30589000E-03	-7.80370000E-02	 2.07660000E-02
					 4.74475000E-04	-8.18927000E-02	-1.03251000E-03
					-3.86415000E-03	-8.26602000E-02	 2.07629000E-02
					 2.91803000E-04	-5.58695000E-02	-5.79809000E-04
					-1.93594000E-03	-7.76559000E-02	 9.82919000E-03
					-4.34071000E-03	-5.66271000E-02	 1.95154000E-02
					 4.53207000E-04	-7.96879000E-02	-1.01025000E-03
					-4.08618000E-03	-8.04097000E-02	 2.07376000E-02
					 3.31268000E-04	-6.01872000E-02	-6.38324000E-04
					-1.71794000E-03	-8.22289000E-02	 9.76950000E-03
					-3.67578000E-03	-6.09546000E-02	 1.95213000E-02
					 5.12441000E-03	-7.70670000E-02	-2.27575000E-02
					 4.80072000E-03	-8.15870000E-02	-2.28683000E-02
					 4.92383000E-03	-5.57336000E-02	-2.07144000E-02
					 2.78268000E-03	-7.71811000E-02	-1.18072000E-02
					 4.95945000E-03	-7.93688000E-02	-2.27954000E-02
					 4.34366000E-03	-6.00531000E-02	-2.08324000E-02
					 2.63981000E-03	-8.17030000E-02	-1.18601000E-02
					 5.10786000E-04	-8.60333000E-02	-1.05762000E-03
					-3.52924000E-03	-8.69363000E-02	 2.06959000E-02
					 4.93941000E-04	-8.40241000E-02	-1.04942000E-03
					-3.70108000E-03	-8.47289000E-02	 2.08012000E-02
					 3.74856000E-04	-6.38865000E-02	-6.70090000E-04
					-1.47377000E-03	-8.64406000E-02	 9.64815000E-03
					-3.05760000E-03	-6.46905000E-02	 1.94306000E-02
					 4.49224000E-03	-8.57563000E-02	-2.28775000E-02
					 4.64791000E-03	-8.37100000E-02	-2.29405000E-02
					 3.76956000E-03	-6.37642000E-02	-2.08025000E-02
					 2.49221000E-03	-8.58658000E-02	-1.18126000E-02
					 8.51388000E-04	-1.23082000E-01	-1.96484000E-03
					-4.14742000E-03	-1.23616000E-01	 2.13210000E-02