<?xml version="1.0"?>
<VTKFile type="UnstructuredGrid" version="0.1" byte_order="LittleEndian">
	<UnstructuredGrid>
		<Piece NumberOfPoints="522" NumberOfCells="64">
			<Points>
				<DataArray type="Float64" NumberOfComponents="3" format="ascii">
					 1.00000000E+00	 1.00000000E+00	-5.96046000E-08
					 1.00000000E+00	 5.00000000E-01	-5.96046000E-08
					 1.00000000E+00	 5.00000000E-01	 1.00000000E+00
					 1.00000000E+00	 1.00000000E+00	 1.00000000E+00
					 5.00000000E-01	 1.00000000E+00	-5.96046000E-08
					 5.00000000E-01	 5.00000000E-01	-5.96046000E-08
					 5.00000000E-01	 5.00000000E-01	 1.00000000E+00
					 5.00000000E-01	 1.00000000E+00	 1.00000000E+00
					 1.00000000E+00	 7.50000000E-01	-5.96046000E-08
					 1.00000000E+00	 5.00000000E-01	 5.00000000E-01
					 1.00000000E+00	 7.50000000E-01	 1.00000000E+00
					 1.00000000E+00	 1.00000000E+00	 5.00000000E-01
					 7.50000000E-01	 1.00000000E+00	-5.96046000E-08
					 7.50000000E-01	 5.00000000E-01	-5.96046000E-08
					 7.50000000E-01	 5.00000000E-01	 1.00000000E+00
					 7.50000000E-01	 1.00000000E+00	 1.00000000E+00
					 5.00000000E-01	 7.50000000E-01	-5.96046000E-08
					 5.00000000E-01	 5.00000000E-01	 5.00000000E-01
					 5.00000000E-01	 7.50000000E-01	 1.00000000E+00
					 5.00000000E-01	 1.00000000E+00	 5.00000000E-01
					 1.00000000E+00	-1.49012000E-08	-5.96046000E-08
					 1.00000000E+00	-1.49012000E-08	 1.00000000E+00
					 5.00000000E-01	-1.49012000E-08	-5.96046000E-08
					 5.00000000E-01	-1.49012000E-08	 1.00000000E+00
					 1.00000000E+00	 2.50000000E-01	-5.96046000E-08
					 1.00000000E+00	-1.49012000E-08	 5.00000000E-01
					 1.00000000E+00	 2.50000000E-01	 1.00000000E+00
					 7.50000000E-01	-1.49012000E-08	-5.96046000E-08
					 7.50000000E-01	-1.49012000E-08	 1.00000000E+00
					 5.00000000E-01	 2.50000000E-01	-5.96046000E-08
					 5.00000000E-01	-1.49012000E-08	 5.00000000E-01
					 5.00000000E-01	 2.50000000E-01	 1.00000000E+00
					-7.45058000E-09	 1.00000000E+00	-5.96046000E-08
					-7.45058000E-09	 5.00000000E-01	-5.96046000E-08
					-7.45058000E-09	 5.00000000E-01	 1.00000000E+00
					-7.45058000E-09	 1.00000000E+00	 1.00000000E+00
					 2.50000000E-01	 1.00000000E+00	-5.96046000E-08
					 2.50000000E-01	 5.00000000E-01	-5.96046000E-08
					 2.50000000E-01	 5.00000000E-01	 1.00000000E+00
					 2.50000000E-01	 1.00000000E+00	 1.00000000E+00
					-7.45058000E-09	 7.50000000E-01	-5.96046000E-08
					-7.45058000E-09	 5.00000000E-01	 5.00000000E-01
					-7.45058000E-09	 7.50000000E-01	 1.00000000E+00
					-7.45058000E-09	 1.00000000E+00	 5.00000000E-01
					-7.45058000E-09	-1.49012000E-08	-5.96046000E-08
					-7.45058000E-09	-1.49012000E-08	 1.00000000E+00
					 2.50000000E-01	-1.49012000E-08	-5.96046000E-08
					 2.50000000E-01	-1.49012000E-08	 1.00000000E+00
					-7.45058000E-09	 2.50000000E-01	-5.96046000E-08
					-7.45058000E-09	-1.49012000E-08	 5.00000000E-01
					-7.45058000E-09	 2.50000000E-01	 1.00000000E+00
					 1.00000000E+00	 5.00000000E-01	 2.00000000E+00
					 1.00000000E+00	 1.00000000E+00	 2.00000000E+00
					 5.00000000E-01	 5.00000000E-01	 2.00000000E+00
					 5.00000000E-01	 1.00000000E+00	 2.00000000E+00
					 1.00000000E+00	 5.00000000E-01	 1.50000000E+00
					 1.00000000E+00	 7.50000000E-01	 2.00000000E+00
					 1.00000000E+00	 1.00000000E+00	 1.50000000E+00
					 7.50000000E-01	 5.00000000E-01	 2.00000000E+00
					 7.50000000E-01	 1.00000000E+00	 2.00000000E+00
					 5.00000000E-01	 5.00000000E-01	 1.50000000E+00
					 5.00000000E-01	 7.50000000E-01	 2.00000000E+00
					 5.00000000E-01	 1.00000000E+00	 1.50000000E+00
					 1.00000000E+00	-1.49012000E-08	 2.00000000E+00
					 5.00000000E-01	-1.49012000E-08	 2.00000000E+00
					 1.00000000E+00	-1.49012000E-08	 1.50000000E+00
					 1.00000000E+00	 2.50000000E-01	 2.00000000E+00
					 7.50000000E-01	-1.49012000E-08	 2.00000000E+00
					 5.00000000E-01	-1.49012000E-08	 1.50000000E+00
					 5.00000000E-01	 2.50000000E-01	 2.00000000E+00
					-7.45058000E-09	 5.00000000E-01	 2.00000000E+00
					-7.45058000E-09	 1.00000000E+00	 2.00000000E+00
					 2.50000000E-01	 5.00000000E-01	 2.00000000E+00
					 2.50000000E-01	 1.00000000E+00	 2.00000000E+00
					-7.45058000E-09	 5.00000000E-01	 1.50000000E+00
					-7.45058000E-09	 7.50000000E-01	 2.00000000E+00
					-7.45058000E-09	 1.00000000E+00	 1.50000000E+00
					-7.45058000E-09	-1.49012000E-08	 2.00000000E+00
					 2.50000000E-01	-1.49012000E-08	 2.00000000E+00
					-7.45058000E-09	-1.49012000E-08	 1.50000000E+00
					-7.45058000E-09	 2.50000000E-01	 2.00000000E+00
					 1.00000000E+00	 5.00000000E-01	 3.00000000E+00
					 1.00000000E+00	 1.00000000E+00	 3.00000000E+00
					 5.00000000E-01	 5.00000000E-01	 3.00000000E+00
					 5.00000000E-01	 1.00000000E+00	 3.00000000E+00
					 1.00000000E+00	 5.00000000E-01	 2.50000000E+00
					 1.00000000E+00	 7.50000000E-01	 3.00000000E+00
					 1.00000000E+00	 1.00000000E+00	 2.50000000E+00
					 7.50000000E-01	 5.00000000E-01	 3.00000000E+00
					 7.50000000E-01	 1.00000000E+00	 3.00000000E+00
					 5.00000000E-01	 5.00000000E-01	 2.50000000E+00
					 5.00000000E-01	 7.50000000E-01	 3.00000000E+00
					 5.00000000E-01	 1.00000000E+00	 2.50000000E+00
					 1.00000000E+00	-1.49012000E-08	 3.00000000E+00
					 5.00000000E-01	-1.49012000E-08	 3.00000000E+00
					 1.00000000E+00	-1.49012000E-08	 2.50000000E+00
					 1.00000000E+00	 2.50000000E-01	 3.00000000E+00
					 7.50000000E-01	-1.49012000E-08	 3.00000000E+00
					 5.00000000E-01	-1.49012000E-08	 2.50000000E+00
					 5.00000000E-01	 2.50000000E-01	 3.00000000E+00
					-7.45058000E-09	 5.00000000E-01	 3.00000000E+00
					-7.45058000E-09	 1.00000000E+00	 3.00000000E+00
					 2.50000000E-01	 5.00000000E-01	 3.00000000E+00
					 2.50000000E-01	 1.00000000E+00	 3.00000000E+00
					-7.45058000E-09	 5.00000000E-01	 2.50000000E+00
					-7.45058000E-09	 7.50000000E-01	 3.00000000E+00
					-7.45058000E-09	 1.00000000E+00	 2.50000000E+00
					-7.45058000E-09	-1.49012000E-08	 3.00000000E+00
					 2.50000000E-01	-1.49012000E-08	 3.00000000E+00
					-7.45058000E-09	-1.49012000E-08	 2.50000000E+00
					-7.45058000E-09	 2.50000000E-01	 3.00000000E+00
					 1.00000000E+00	 5.00000000E-01	 4.00000000E+00
					 1.00000000E+00	 1.00000000E+00	 4.00000000E+00
					 5.00000000E-01	 5.00000000E-01	 4.00000000E+00
					 5.00000000E-01	 1.00000000E+00	 4.00000000E+00
					 1.00000000E+00	 5.00000000E-01	 3.50000000E+00
					 1.00000000E+00	 7.50000000E-01	 4.00000000E+00
					 1.00000000E+00	 1.00000000E+00	 3.50000000E+00
					 7.50000000E-01	 5.00000000E-01	 4.00000000E+00
					 7.50000000E-01	 1.00000000E+00	 4.00000000E+00
					 5.00000000E-01	 5.00000000E-01	 3.50000000E+00
					 5.00000000E-01	 7.50000000E-01	 4.00000000E+00
					 5.00000000E-01	 1.00000000E+00	 3.50000000E+00
					 1.00000000E+00	-1.49012000E-08	 4.00000000E+00
					 5.00000000E-01	-1.49012000E-08	 4.00000000E+00
					 1.00000000E+00	-1.49012000E-08	 3.50000000E+00
					 1.00000000E+00	 2.50000000E-01	 4.00000000E+00
					 7.50000000E-01	-1.49012000E-08	 4.00000000E+00
					 5.00000000E-01	-1.49012000E-08	 3.50000000E+00
					 5.00000000E-01	 2.50000000E-01	 4.00000000E+00
					-7.45058000E-09	 5.00000000E-01	 4.00000000E+00
					-7.45058000E-09	 1.00000000E+00	 4.00000000E+00
					 2.50000000E-01	 5.00000000E-01	 4.00000000E+00
					 2.50000000E-01	 1.00000000E+00	 4.00000000E+00
					-7.45058000E-09	 5.00000000E-01	 3.50000000E+00
					-7.45058000E-09	 7.50000000E-01	 4.00000000E+00
					-7.45058000E-09	 1.00000000E+00	 3.50000000E+00
					-7.45058000E-09	-1.49012000E-08	 4.00000000E+00
					 2.50000000E-01	-1.49012000E-08	 4.00000000E+00
					-7.45058000E-09	-1.49012000E-08	 3.50000000E+00
					-7.45058000E-09	 2.50000000E-01	 4.00000000E+00
					 1.00000000E+00	 5.00000000E-01	 5.00000000E+00
					 1.00000000E+00	 1.00000000E+00	 5.00000000E+00
					 5.00000000E-01	 5.00000000E-01	 5.00000000E+00
					 5.00000000E-01	 1.00000000E+00	 5.00000000E+00
					 1.00000000E+00	 5.00000000E-01	 4.50000000E+00
					 1.00000000E+00	 7.50000000E-01	 5.00000000E+00
					 1.00000000E+00	 1.00000000E+00	 4.50000000E+00
					 7.50000000E-01	 5.00000000E-01	 5.00000000E+00
					 7.50000000E-01	 1.00000000E+00	 5.00000000E+00
					 5.00000000E-01	 5.00000000E-01	 4.50000000E+00
					 5.00000000E-01	 7.50000000E-01	 5.00000000E+00
					 5.00000000E-01	 1.00000000E+00	 4.50000000E+00
					 1.00000000E+00	-1.49012000E-08	 5.00000000E+00
					 5.00000000E-01	-1.49012000E-08	 5.00000000E+00
					 1.00000000E+00	-1.49012000E-08	 4.50000000E+00
					 1.00000000E+00	 2.50000000E-01	 5.00000000E+00
					 7.50000000E-01	-1.49012000E-08	 5.00000000E+00
					 5.00000000E-01	-1.49012000E-08	 4.50000000E+00
					 5.00000000E-01	 2.50000000E-01	 5.00000000E+00
					-7.45058000E-09	 5.00000000E-01	 5.00000000E+00
					-7.45058000E-09	 1.00000000E+00	 5.00000000E+00
					 2.50000000E-01	 5.00000000E-01	 5.00000000E+00
					 2.50000000E-01	 1.00000000E+00	 5.00000000E+00
					-7.45058000E-09	 5.00000000E-01	 4.50000000E+00
					-7.45058000E-09	 7.50000000E-01	 5.00000000E+00
					-7.45058000E-09	 1.00000000E+00	 4.50000000E+00
					-7.45058000E-09	-1.49012000E-08	 5.00000000E+00
					 2.50000000E-01	-1.49012000E-08	 5.00000000E+00
					-7.45058000E-09	-1.49012000E-08	 4.50000000E+00
					-7.45058000E-09	 2.50000000E-01	 5.00000000E+00
					 1.00000000E+00	 5.00000000E-01	 6.00000000E+00
					 1.00000000E+00	 1.00000000E+00	 6.00000000E+00
					 5.00000000E-01	 5.00000000E-01	 6.00000000E+00
					 5.00000000E-01	 1.00000000E+00	 6.00000000E+00
					 1.00000000E+00	 5.00000000E-01	 5.50000000E+00
					 1.00000000E+00	 7.50000000E-01	 6.00000000E+00
					 1.00000000E+00	 1.00000000E+00	 5.50000000E+00
					 7.50000000E-01	 5.00000000E-01	 6.00000000E+00
					 7.50000000E-01	 1.00000000E+00	 6.00000000E+00
					 5.00000000E-01	 5.00000000E-01	 5.50000000E+00
					 5.00000000E-01	 7.50000000E-01	 6.00000000E+00
					 5.00000000E-01	 1.00000000E+00	 5.50000000E+00
					 1.00000000E+00	-1.49012000E-08	 6.00000000E+00
[...]
			<PointData>
				<DataArray type="Float32" Name="U" NumberOfComponents="3" ComponentName0="D1" ComponentName1="D2" ComponentName2="D3" format="ascii">
					 0.00000000E+00	 0.00000000E+00	 0.00000000E+00
					 0.00000000E+00	 0.00000000E+00	 0.00000000E+00
					 1.41518000E-05	 7.22722000E-04	-3.29622000E-05
					-3.53405000E-04	 7.56293000E-04	-3.88311000E-04
					 0.00000000E+00	 0.00000000E+00	 0.00000000E+00
					 0.00000000E+00	 0.00000000E+00	 0.00000000E+00
					 9.72967000E-06	 3.32457000E-04	-2.51439000E-05
					-4.11505000E-04	 3.63343000E-04	-3.77594000E-04
					 0.00000000E+00	 0.00000000E+00	 0.00000000E+00
					 8.42187000E-06	 2.82247000E-04	-1.56169000E-05
					-1.68186000E-04	 7.32277000E-04	-1.82605000E-04
					-1.46122000E-04	 3.12195000E-04	-1.87267000E-04
					 0.00000000E+00	 0.00000000E+00	 0.00000000E+00
					 0.00000000E+00	 0.00000000E+00	 0.00000000E+00
					 1.16729000E-05	 5.35269000E-04	-2.92148000E-05
					-3.82562000E-04	 5.66839000E-04	-4.18420000E-04
					 0.00000000E+00	 0.00000000E+00	 0.00000000E+00
					 3.70896000E-06	 9.18508000E-05	-1.05150000E-05
					-2.00306000E-04	 3.41205000E-04	-2.08475000E-04
					-2.12414000E-04	 1.27186000E-04	-1.76493000E-04
					 0.00000000E+00	 0.00000000E+00	 0.00000000E+00
					 3.81213000E-04	 7.47346000E-04	 3.21537000E-04
					 0.00000000E+00	 0.00000000E+00	 0.00000000E+00
					 4.30466000E-04	 3.55203000E-04	 3.26049000E-04
					 0.00000000E+00	 0.00000000E+00	 0.00000000E+00
					 1.62197000E-04	 3.02929000E-04	 1.54185000E-04
					 1.96474000E-04	 7.27872000E-04	 1.16636000E-04
					 0.00000000E+00	 0.00000000E+00	 0.00000000E+00
					 4.05571000E-04	 5.58273000E-04	 3.59012000E-04
					 0.00000000E+00	 0.00000000E+00	 0.00000000E+00
					 2.18847000E-04	 1.20093000E-04	 1.53669000E-04
					 2.19845000E-04	 3.37126000E-04	 1.58000000E-04
					 0.00000000E+00	 0.00000000E+00	 0.00000000E+00
					 0.00000000E+00	 0.00000000E+00	 0.00000000E+00
					 6.18814000E-06	-1.19673000E-04	-1.67951000E-05
					-4.67486000E-04	-8.63714000E-05	-3.72290000E-04
					 0.00000000E+00	 0.00000000E+00	 0.00000000E+00
					 0.00000000E+00	 0.00000000E+00	 0.00000000E+00
					 7.74491000E-06	 1.14557000E-04	-2.07008000E-05
					-4.39439000E-04	 1.44271000E-04	-3.34991000E-04
					 0.00000000E+00	 0.00000000E+00	 0.00000000E+00
					 6.07598000E-07	-1.49090000E-04	-6.80729000E-06
					-2.32796000E-04	-1.09872000E-04	-2.41485000E-04
					-2.61207000E-04	-1.05781000E-04	-1.78135000E-04
					 0.00000000E+00	 0.00000000E+00	 0.00000000E+00
					 4.78957000E-04	-9.22882000E-05	 3.37049000E-04
					 0.00000000E+00	 0.00000000E+00	 0.00000000E+00
					 4.54179000E-04	 1.37141000E-04	 2.92095000E-04
					 0.00000000E+00	 0.00000000E+00	 0.00000000E+00
					 2.61017000E-04	-1.10190000E-04	 1.62829000E-04
					 2.45181000E-04	-1.12823000E-04	 2.07521000E-04
					 3.73881000E-05	 1.78801000E-03	-7.15996000E-05
					-4.61125000E-04	 1.90205000E-03	-1.17151000E-03
					 3.31716000E-05	 1.19180000E-03	-5.90558000E-05
					-6.66833000E-04	 1.30011000E-03	-1.13498000E-03
					 2.31176000E-05	 1.18526000E-03	-5.19940000E-05
					-2.09895000E-04	 1.82060000E-03	-6.79193000E-04
					-4.72719000E-04	 1.26538000E-03	-6.63390000E-04
					 3.50679000E-05	 1.51621000E-03	-6.44662000E-05
					-5.64585000E-04	 1.62440000E-03	-1.14364000E-03
					 1.88922000E-05	 6.46788000E-04	-4.07240000E-05
					-3.17818000E-04	 1.22148000E-03	-6.49139000E-04
					-5.76569000E-04	 7.15311000E-04	-6.35546000E-04
					 5.38003000E-04	 1.89550000E-03	 1.02860000E-03
					 7.34560000E-04	 1.29043000E-03	 1.01649000E-03
					 5.19545000E-04	 1.25537000E-03	 5.58510000E-04
					 2.85175000E-04	 1.81744000E-03	 5.35784000E-04
					 6.36780000E-04	 1.61599000E-03	 1.01500000E-03
					 6.14561000E-04	 7.05211000E-04	 5.52742000E-04
					 3.84602000E-04	 1.21638000E-03	 5.30911000E-04
					 2.88004000E-05	 3.86282000E-04	-4.72196000E-05
					-8.85565000E-04	 4.89136000E-04	-1.14799000E-03
					 3.12554000E-05	 8.13243000E-04	-5.37795000E-05
					-7.76463000E-04	 9.21330000E-04	-1.12046000E-03
					 1.52796000E-05	-6.46837000E-06	-2.92291000E-05
					-4.27033000E-04	 4.12385000E-04	-6.68055000E-04
					-6.93103000E-04	 5.97338000E-05	-6.41096000E-04
					 9.43465000E-04	 4.79092000E-04	 1.05246000E-03
					 8.39632000E-04	 9.11161000E-04	 1.01195000E-03
					 7.23024000E-04	 5.10488000E-05	 5.80738000E-04
					 4.84733000E-04	 4.07214000E-04	 5.73499000E-04
					 5.24376000E-05	 5.18385000E-03	-1.07637000E-04
					-1.25113000E-04	 5.37234000E-03	-3.35610000E-03
					 4.62678000E-05	 4.79630000E-03	-1.11070000E-04
					-5.35926000E-04	 4.99247000E-03	-3.35116000E-03
					 5.08341000E-05	 2.93061000E-03	-8.83714000E-05
					-3.89622000E-05	 5.22422000E-03	-1.77629000E-03
					-3.21915000E-04	 3.08849000E-03	-2.11084000E-03
					 4.96142000E-05	 5.04179000E-03	-1.09513000E-04
					-3.30315000E-04	 5.23624000E-03	-3.32548000E-03
					 4.56261000E-05	 2.39652000E-03	-8.17813000E-05
					-2.45200000E-04	 4.83981000E-03	-1.74804000E-03
					-6.46627000E-04	 2.55432000E-03	-2.08187000E-03
					 2.32051000E-04	 5.38692000E-03	 3.13923000E-03
					 6.30936000E-04	 5.00178000E-03	 3.12768000E-03
					 4.26439000E-04	 3.08964000E-03	 1.93438000E-03
					 1.44166000E-04	 5.23241000E-03	 1.56072000E-03
					 4.32166000E-04	 5.24769000E-03	 3.10498000E-03
					 7.40237000E-04	 2.54991000E-03	 1.91846000E-03
					 3.38427000E-04	 4.84485000E-03	 1.52561000E-03
					 3.82911000E-05	 4.01708000E-03	-1.13051000E-04
					-9.51678000E-04	 4.20689000E-03	-3.36127000E-03
					 4.25269000E-05	 4.45837000E-03	-1.12282000E-04
					-7.43549000E-04	 4.65343000E-03	-3.37485000E-03
					 3.91592000E-05	 1.54370000E-03	-7.56191000E-05
					-4.54481000E-04	 4.05845000E-03	-1.73490000E-03
					-9.86169000E-04	 1.69203000E-03	-2.09848000E-03
					 1.03128000E-03	 4.21246000E-03	 3.13422000E-03
					 8.31031000E-04	 4.66118000E-03	 3.14897000E-03
					 1.06644000E-03	 1.68475000E-03	 1.94717000E-03
					 5.32017000E-04	 4.06140000E-03	 1.50872000E-03
					 2.39069000E-05	 1.43036000E-02	-1.84454000E-04
					 4.32491000E-05	 1.44492000E-02	-6.13654000E-03
					 1.71475000E-05	 1.41288000E-02	-2.02122000E-04
					-3.37467000E-04	 1.42817000E-02	-6.16723000E-03
					 4.16584000E-05	 8.96561000E-03	-1.38645000E-04
					 3.08085000E-05	 1.43276000E-02	-3.13272000E-03
					 6.37066000E-06	 9.13382000E-03	-4.76453000E-03
					 2.07293000E-05	 1.42631000E-02	-1.93878000E-04
					-1.46907000E-04	 1.44150000E-02	-6.15215000E-03
					 3.45380000E-05	 8.71704000E-03	-1.50567000E-04
					-1.60086000E-04	 1.41561000E-02	-3.15506000E-03
					-4.12459000E-04	 8.89635000E-03	-4.78026000E-03
					 4.92253000E-06	 1.45134000E-02	 5.76391000E-03
					 3.74064000E-04	 1.43441000E-02	 5.75915000E-03
					 7.79366000E-05	 9.16921000E-03	 4.48456000E-03
					 1.69956000E-05	 1.43597000E-02	 2.76311000E-03
					 1.89815000E-04	 1.44784000E-02	 5.76050000E-03
					 4.83841000E-04	 8.92864000E-03	 4.47642000E-03
					 1.95171000E-04	 1.41871000E-02	 2.75001000E-03
					 1.01362000E-05	 1.35919000E-02	-2.14693000E-04
					-7.16503000E-04	 1.37427000E-02	-6.16623000E-03
					 1.35133000E-05	 1.39080000E-02	-2.09248000E-04
					-5.26708000E-04	 1.40602000E-02	-6.18352000E-03
					 2.65505000E-05	 8.06948000E-03	-1.58802000E-04
					-3.52128000E-04	 1.36193000E-02	-3.14622000E-03
					-8.25196000E-04	 8.24814000E-03	-4.78437000E-03
					 7.40634000E-04	 1.38009000E-02	 5.73321000E-03
					 5.56894000E-04	 1.41214000E-02	 5.76120000E-03
					 8.81641000E-04	 8.27690000E-03	 4.46430000E-03
					 3.73620000E-04	 1.36474000E-02	 2.71615000E-03
					-2.64769000E-05	 2.88589000E-02	-3.18130000E-04
					-1.02048000E-04	 2.88865000E-02	-8.12450000E-03
					-3.10451000E-05	 2.87077000E-02	-3.42753000E-04
					-2.62326000E-04	 2.87296000E-02	-8.17507000E-03
					 1.68296000E-06	 2.10719000E-02	-2.44807000E-04
					-6.26666000E-05	 2.88542000E-02	-4.16497000E-03
					-1.89168000E-05	 2.11580000E-02	-7.28730000E-03
					-2.86518000E-05	 2.88040000E-02	-3.31437000E-04
					-1.82264000E-04	 2.88266000E-02	-8.15479000E-03
					-4.26222000E-06	 2.09079000E-02	-2.66842000E-04
					-1.47086000E-04	 2.86998000E-02	-4.20354000E-03
					-3.05109000E-04	 2.09968000E-02	-7.33253000E-03
					 4.80119000E-05	 2.90016000E-02	 7.48507000E-03
					 2.00764000E-04	 2.88466000E-02	 7.48713000E-03
					 2.24405000E-05	 2.12512000E-02	 6.79346000E-03
					 9.38732000E-06	 2.89101000E-02	 3.52810000E-03
					 1.24490000E-04	 2.89430000E-02	 7.48889000E-03
					 2.98342000E-04	 2.10893000E-02	 6.79493000E-03
					 8.52298000E-05	 2.87568000E-02	 3.51748000E-03
					-3.53599000E-05	 2.83945000E-02	-3.63222000E-04
					-4.30084000E-04	 2.84147000E-02	-8.16900000E-03
					-3.33928000E-05	 2.85704000E-02	-3.53147000E-04
					-3.46668000E-04	 2.85921000E-02	-8.19958000E-03
					-1.03041000E-05	 2.04675000E-02	-2.83642000E-04
					-2.32199000E-04	 2.83859000E-02	-4.18652000E-03
					-5.93014000E-04	 2.05545000E-02	-7.32517000E-03
					 3.61346000E-04	 2.85290000E-02	 7.44086000E-03
					 2.81422000E-04	 2.87090000E-02	 7.49139000E-03
					 5.75666000E-04	 2.06428000E-02	 6.75456000E-03
					 1.62098000E-04	 2.84405000E-02	 3.45963000E-03
					-7.72756000E-05	 4.52370000E-02	-4.79305000E-04
					 4.40475000E-05	 4.51670000E-02	-8.59857000E-03
					-8.09599000E-05	 4.53862000E-02	-5.01816000E-04
					 7.81886000E-05	 4.53064000E-02	-8.63131000E-03
					-5.50423000E-05	 3.70893000E-02	-3.99701000E-04
					-1.36339000E-05	 4.52083000E-02	-4.56224000E-03
					-1.06110000E-04	 3.70692000E-02	-8.51174000E-03
					-7.90687000E-05	 4.53066000E-02	-4.89964000E-04
					 6.07059000E-05	 4.52293000E-02	-8.57403000E-03
					-5.87440000E-05	 3.70290000E-02	-4.23236000E-04
					-1.92804000E-06	 4.53535000E-02	-4.54886000E-03
					-1.44339000E-04	 3.69949000E-02	-8.55765000E-03
					-2.02614000E-04	 4.52917000E-02	 7.64301000E-03
					-2.41069000E-04	 4.54362000E-02	 7.63091000E-03
					-6.90260000E-06	 3.71921000E-02	 7.71172000E-03
					-1.41801000E-04	 4.52712000E-02	 3.60448000E-03
					-2.21962000E-04	 4.53562000E-02	 7.59710000E-03
					 2.63214000E-05	 3.71223000E-02	 7.71125000E-03
					-1.60226000E-04	 4.54183000E-02	 3.54604000E-03
					-8.39849000E-05	 4.55581000E-02	-5.26671000E-04
					 1.08645000E-04	 4.54824000E-02	-8.64691000E-03
					-8.27549000E-05	 4.54672000E-02	-5.14252000E-04
					 9.32562000E-05	 4.53872000E-02	-8.68899000E-03
					-6.17978000E-05	 3.69178000E-02	-4.45498000E-04
					 1.04306000E-05	 4.55277000E-02	-4.51982000E-03
					-1.97319000E-04	 3.68814000E-02	-8.55818000E-03
					-2.74682000E-04	 4.56108000E-02	 7.59664000E-03
					-2.57673000E-04	 4.55187000E-02	 7.66353000E-03
					 7.52879000E-05	 3.70074000E-02	 7.66765000E-03
					-1.77912000E-04	 4.55895000E-02	 3.46748000E-03
					-1.13159000E-04	 6.06715000E-02	-6.10731000E-04
					 5.72180000E-04	 6.05884000E-02	-8.44377000E-03
					-1.18179000E-04	 6.13749000E-02	-6.43901000E-04
					 5.98961000E-04	 6.12942000E-02	-8.46852000E-03
					-9.40883000E-05	 5.30563000E-02	-5.49104000E-04
					 2.28093000E-04	 6.06326000E-02	-4.57249000E-03
					 3.16882000E-04	 5.29769000E-02	-8.52661000E-03
					-1.14621000E-04	 6.10166000E-02	-6.27109000E-04
					 5.86454000E-04	 6.09370000E-02	-8.42122000E-03
					-9.90177000E-05	 5.34960000E-02	-5.75037000E-04
					 2.39378000E-04	 6.13382000E-02	-4.56523000E-03
					 3.57927000E-04	 5.34134000E-02	-8.55162000E-03
					-8.01446000E-04	 6.07135000E-02	 7.22141000E-03
					-8.35962000E-04	 6.14217000E-02	 7.17944000E-03
					-5.09818000E-04	 5.31018000E-02	 7.43175000E-03
					-4.55377000E-04	 6.06979000E-02	 3.34989000E-03
					-8.17773000E-04	 6.10627000E-02	 7.16642000E-03
					-5.56947000E-04	 5.35431000E-02	 7.40485000E-03
					-4.76039000E-04	 6.14040000E-02	 3.27659000E-03
					-1.23800000E-04	 6.21117000E-02	-6.75194000E-04
					 6.35267000E-04	 6.20377000E-02	-8.49754000E-03
					-1.21815000E-04	 6.17410000E-02	-6.59750000E-04
					 6.16159000E-04	 6.16604000E-02	-8.51157000E-03
					-1.04106000E-04	 5.39769000E-02	-6.04153000E-04
					 2.53153000E-04	 6.20795000E-02	-4.56412000E-03
					 4.04209000E-04	 5.39019000E-02	-8.58023000E-03
					-8.80838000E-04	 6.21631000E-02	 7.14545000E-03
					-8.58959000E-04	 6.17882000E-02	 7.19094000E-03
					-6.09455000E-04	 5.40287000E-02	 7.37498000E-03
					-5.00173000E-04	 6.21433000E-02	 3.21234000E-03
					-1.72232000E-04	 7.59128000E-02	-7.25260000E-04
					 7.75094000E-04	 7.58487000E-02	-8.48837000E-03
					-1.62588000E-04	 7.68215000E-02	-7.70350000E-04
					 7.71078000E-04	 7.67677000E-02	-8.50826000E-03
					-1.39031000E-04	 6.82428000E-02	-6.67459000E-04
					 3.01622000E-04	 7.58800000E-02	-4.61012000E-03
					 7.33246000E-04	 6.81666000E-02	-8.44151000E-03
					-1.68441000E-04	 7.63712000E-02	-7.49692000E-04
					 7.72492000E-04	 7.63143000E-02	-8.50094000E-03
					-1.39695000E-04	 6.91100000E-02	-7.08795000E-04
					 3.09426000E-04	 7.67947000E-02	-4.64018000E-03
					 7.34715000E-04	 6.90420000E-02	-8.46421000E-03
					-1.10934000E-03	 7.59625000E-02	 7.02411000E-03
					-1.09471000E-03	 7.68701000E-02	 6.95350000E-03
					-1.00668000E-03	 6.82921000E-02	 7.09736000E-03
					-6.43457000E-04	 7.59362000E-02	 3.15524000E-03
					-1.10244000E-03	 7.64201000E-02	 6.98831000E-03
					-1.01342000E-03	 6.91621000E-02	 7.03662000E-03
					-6.34076000E-04	 7.68438000E-02	 3.09555000E-03
					-1.52512000E-04	 7.77368000E-02	-7.99658000E-04
					 7.86397000E-04	 7.76818000E-02	-8.51930000E-03
					-1.56639000E-04	 7.72755000E-02	-7.86734000E-04
					 7.79968000E-04	 7.72220000E-02	-8.51220000E-03
					-1.40429000E-04	 6.99928000E-02	-7.38912000E-04
					 3.19815000E-04	 7.77097000E-02	-4.66009000E-03
					 7.56228000E-04	 6.99279000E-02	-8.48348000E-03
					-1.09891000E-03	 7.77901000E-02	 6.90551000E-03
					-1.09705000E-03	 7.73250000E-02	 6.92471000E-03
					-1.04056000E-03	 7.00508000E-02	 6.99488000E-03
					-6.26656000E-04	 7.77624000E-02	 3.05634000E-03
					 0.00000000E+00	 0.00000000E+00	 0.00000000E+00
					 0.00000000E+00	 0.00000000E+00	 0.00000000E+00
					-7.38222000E-05	-4.66344000E-03	 2.43800000E-05
					-1.14009000E-03	-4.84424000E-03	 3.99937000E-03
					 0.00000000E+00	 0.00000000E+00	 0.00000000E+00
					 0.00000000E+00	 0.00000000E+00	 0.00000000E+00
					-7.17705000E-05	-5.55042000E-03	-4.30381000E-05
					-7.67285000E-04	-5.73678000E-03	 4.00734000E-03
					 0.00000000E+00	 0.00000000E+00	 0.00000000E+00
					-1.96345000E-05	-1.16169000E-03	 1.54829000E-05
					-6.10468000E-04	-4.67644000E-03	 1.95628000E-03
					-9.31658000E-04	-1.51317000E-03	 2.22372000E-03
					 0.00000000E+00	 0.00000000E+00	 0.00000000E+00
					 0.00000000E+00	 0.00000000E+00	 0.00000000E+00
					-7.11430000E-05	-5.18110000E-03	-1.17669000E-05
					-9.48325000E-04	-5.36193000E-03	 3.95114000E-03
					 0.00000000E+00	 0.00000000E+00	 0.00000000E+00
					-1.96753000E-05	-1.74290000E-03	-1.73928000E-05
					-4.21029000E-04	-5.56231000E-03	 1.86921000E-03
					-3.38244000E-04	-2.08178000E-03	 2.15132000E-03
					 0.00000000E+00	 0.00000000E+00	 0.00000000E+00
					 9.97620000E-04	-4.79868000E-03	-3.95674000E-03
					 0.00000000E+00	 0.00000000E+00	 0.00000000E+00
					 6.30501000E-04	-5.70204000E-03	-4.09791000E-03
					 0.00000000E+00	 0.00000000E+00	 0.00000000E+00
					 8.99375000E-04	-1.48666000E-03	-2.19592000E-03
					 4.63367000E-04	-4.65460000E-03	-1.90921000E-03
					 0.00000000E+00	 0.00000000E+00	 0.00000000E+00
					 8.11690000E-04	-5.32124000E-03	-3.98029000E-03
					 0.00000000E+00	 0.00000000E+00	 0.00000000E+00
					 3.06868000E-04	-2.07402000E-03	-2.18993000E-03
					 2.77165000E-04	-5.54625000E-03	-1.95719000E-03
					 0.00000000E+00	 0.00000000E+00	 0.00000000E+00
					 0.00000000E+00	 0.00000000E+00	 0.00000000E+00
					-7.61904000E-05	-6.05879000E-03	-1.03045000E-04
					-3.87877000E-04	-6.21666000E-03	 3.87550000E-03
					 0.00000000E+00	 0.00000000E+00	 0.00000000E+00
					 0.00000000E+00	 0.00000000E+00	 0.00000000E+00
					-7.26045000E-05	-5.87744000E-03	-7.27171000E-05
					-5.79481000E-04	-6.04557000E-03	 4.02686000E-03
					 0.00000000E+00	 0.00000000E+00	 0.00000000E+00
					-2.96902000E-05	-1.80556000E-03	-4.72013000E-05
					-2.32820000E-04	-6.05931000E-03	 1.69449000E-03
					 2.71315000E-04	-2.11318000E-03	 2.16020000E-03
					 0.00000000E+00	 0.00000000E+00	 0.00000000E+00
					 2.40781000E-04	-6.19267000E-03	-4.08285000E-03
					 0.00000000E+00	 0.00000000E+00	 0.00000000E+00
					 4.39429000E-04	-6.02088000E-03	-4.17495000E-03
					 0.00000000E+00	 0.00000000E+00	 0.00000000E+00
					-3.24337000E-04	-2.12077000E-03	-2.26020000E-03
					 8.18360000E-05	-6.04990000E-03	-1.90132000E-03
					-2.41779000E-04	-1.45268000E-02	-3.92460000E-07
					-2.05236000E-03	-1.46390000E-02	 5.64128000E-03
					-2.34528000E-04	-1.62773000E-02	-1.00486000E-04
					-1.91673000E-03	-1.63753000E-02	 5.55921000E-03
					-1.52864000E-04	-9.30878000E-03	 1.76391000E-05
					-1.15137000E-03	-1.45753000E-02	 2.86910000E-03
					-1.52874000E-03	-9.49718000E-03	 5.04140000E-03
					-2.39085000E-04	-1.54135000E-02	-5.32188000E-05
					-1.98420000E-03	-1.55114000E-02	 5.52168000E-03
					-1.48879000E-04	-1.05794000E-02	-7.12771000E-05
					-1.06919000E-03	-1.63170000E-02	 2.70426000E-03
					-1.29163000E-03	-1.07486000E-02	 4.98383000E-03
					 1.57387000E-03	-1.45618000E-02	-5.64513000E-03
					 1.44412000E-03	-1.63089000E-02	-5.76036000E-03
					 1.22734000E-03	-9.43484000E-03	-5.01195000E-03
					 6.68939000E-04	-1.45349000E-02	-2.87131000E-03
					 1.50932000E-03	-1.54460000E-02	-5.62786000E-03
					 9.97747000E-04	-1.06965000E-02	-5.13035000E-03
					 6.04146000E-04	-1.62847000E-02	-2.90274000E-03
					-2.32495000E-04	-1.78857000E-02	-1.97178000E-04
					-1.74653000E-03	-1.79599000E-02	 5.44450000E-03
					-2.33375000E-04	-1.70880000E-02	-1.46485000E-04
					-1.83004000E-03	-1.72085000E-02	 5.59266000E-03
					-1.49387000E-04	-1.15981000E-02	-1.54102000E-04
					-9.96557000E-04	-1.79089000E-02	 2.51020000E-03
					-1.04246000E-03	-1.17590000E-02	 4.87142000E-03
					 1.30476000E-03	-1.79111000E-02	-5.83881000E-03
					 1.37392000E-03	-1.71216000E-02	-5.88810000E-03
					 7.56182000E-04	-1.17220000E-02	-5.18052000E-03
					 5.38041000E-04	-1.78868000E-02	-2.90092000E-03
					-3.89272000E-04	-2.56192000E-02	-7.37370000E-05
					-3.57309000E-03	-2.56088000E-02	 6.06386000E-03
					-3.77354000E-04	-2.87637000E-02	-1.54418000E-04
					-3.54859000E-03	-2.88688000E-02	 6.00607000E-03
					-3.22847000E-04	-1.99700000E-02	-3.00047000E-05
					-1.97437000E-03	-2.56121000E-02	 3.05882000E-03
					-2.75628000E-03	-2.00479000E-02	 5.98572000E-03
					-3.82715000E-04	-2.71951000E-02	-1.10655000E-04
					-3.56405000E-03	-2.72558000E-02	 5.91340000E-03
					-3.14872000E-04	-2.23617000E-02	-1.28289000E-04
					-1.98607000E-03	-2.88180000E-02	 2.85539000E-03
					-2.67356000E-03	-2.24439000E-02	 5.90754000E-03
					 2.75154000E-03	-2.55678000E-02	-6.19559000E-03
					 2.78538000E-03	-2.87245000E-02	-6.33220000E-03
					 2.10322000E-03	-1.99697000E-02	-6.04581000E-03
					 1.18168000E-03	-2.55926000E-02	-3.19420000E-03
					 2.76603000E-03	-2.71448000E-02	-6.14764000E-03
					 2.04352000E-03	-2.23486000E-02	-6.16398000E-03
					 1.20579000E-03	-2.87483000E-02	-3.18375000E-03
					-3.67495000E-04	-3.19367000E-02	-2.39297000E-04
					-3.61559000E-03	-3.21603000E-02	 5.89677000E-03
					-3.72306000E-04	-3.03636000E-02	-1.98569000E-04
					-3.58499000E-03	-3.04010000E-02	 6.10751000E-03
					-2.98867000E-04	-2.46792000E-02	-2.26236000E-04
					-1.96130000E-03	-3.20548000E-02	 2.59871000E-03
					-2.59960000E-03	-2.47784000E-02	 5.79378000E-03
					 2.83015000E-03	-3.19135000E-02	-6.41804000E-03
					 2.80724000E-03	-3.03143000E-02	-6.52170000E-03
					 1.95902000E-03	-2.46479000E-02	-6.24760000E-03
					 1.22616000E-03	-3.19389000E-02	-3.12133000E-03
					-3.89343000E-04	-3.64753000E-02	-1.91747000E-04
					-4.89150000E-03	-3.62487000E-02	 4.83248000E-03