<?xml version="1.0"?>
<VTKFile type="UnstructuredGrid" version="0.1" byte_order="LittleEndian">
	<UnstructuredGrid>
		<Piece NumberOfPoints="522" NumberOfCells="64">
			<Points>
				<DataArray type="Float64" NumberOfComponents="3" format="ascii">
					 1.00000000E+00	 1.00000000E+00	-5.96046000E-08
					 1.00000000E+00	 5.00000000E-01	-5.96046000E-08
					 1.00000000E+00	 5.00000000E-01	 1.00000000E+00
					 1.00000000E+00	 1.00000000E+00	 1.00000000E+00
					 5.00000000E-01	 1.00000000E+00	-5.96046000E-08
					 5.00000000E-01	 5.00000000E-01	-5.96046000E-08
					 5.00000000E-01	 5.00000000E-01	 1.00000000E+00
					 5.00000000E-01	 1.00000000E+00	 1.00000000E+00
					 1.00000000E+00	 7.50000000E-01	-5.96046000E-08
					 1.00000000E+00	 5.00000000E-01	 5.00000000E-01
					 1.00000000E+00	 7.50000000E-01	 1.00000000E+00
					 1.00000000E+00	 1.00000000E+00	 5.00000000E-01
					 7.50000000E-01	 1.00000000E+00	-5.96046000E-08
					 7.50000000E-01	 5.00000000E-01	-5.96046000E-08
					 7.50000000E-01	 5.00000000E-01	 1.00000000E+00
					 7.50000000E-01	 1.00000000E+00	 1.00000000E+00
					 5.00000000E-01	 7.50000000E-01	-5.96046000E-08
					 5.00000000E-01	 5.00000000E-01	 5.00000000E-01
					 5.00000000E-01	 7.50000000E-01	 1.00000000E+00
					 5.00000000E-01	 1.00000000E+00	 5.00000000E-01
					 1.00000000E+00	-1.49012000E-08	-5.96046000E-08
					 1.00000000E+00	-1.49012000E-08	 1.00000000E+00
					 5.00000000E-01	-1.49012000E-08	-5.96046000E-08
					 5.00000000E-01	-1.49012000E-08	 1.00000000E+00
					 1.00000000E+00	 2.50000000E-01	-5.96046000E-08
					 1.00000000E+00	-1.49012000E-08	 5.00000000E-01
					 1.00000000E+00	 2.50000000E-01	 1.00000000E+00
					 7.50000000E-01	-1.49012000E-08	-5.96046000E-08
					 7.50000000E-01	-1.49012000E-08	 1.00000000E+00
					 5.00000000E-01	 2.50000000E-01	-5.96046000E-08
					 5.00000000E-01	-1.49012000E-08	 5.00000000E-01
					 5.00000000E-01	 2.50000000E-01	 1.00000000E+00
					-7.45058000E-09	 1.00000000E+00	-5.96046000E-08
					-7.45058000E-09	 5.00000000E-01	-5.96046000E-08
					-7.45058000E-09	 5.00000000E-01	 1.00000000E+00
					-7.45058000E-09	 1.00000000E+00	 1.00000000E+00
					 2.50000000E-01	 1.00000000E+00	-5.96046000E-08
					 2.50000000E-01	 5.00000000E-01	-5.96046000E-08
					 2.50000000E-01	 5.00000000E-01	 1.00000000E+00
					 2.50000000E-01	 1.00000000E+00	 1.00000000E+00
					-7.45058000E-09	 7.50000000E-01	-5.96046000E-08
					-7.45058000E-09	 5.00000000E-01	 5.00000000E-01
					-7.45058000E-09	 7.50000000E-01	 1.00000000E+00
					-7.45058000E-09	 1.00000000E+00	 5.00000000E-01
					-7.45058000E-09	-1.49012000E-08	-5.96046000E-08
					-7.45058000E-09	-1.49012000E-08	 1.00000000E+00
					 2.50000000E-01	-1.49012000E-08	-5.96046000E-08
					 2.50000000E-01	-1.49012000E-08	 1.00000000E+00
					-7.45058000E-09	 2.50000000E-01	-5.96046000E-08
					-7.45058000E-09	-1.49012000E-08	 5.00000000E-01
					-7.45058000E-09	 2.50000000E-01	 1.00000000E+00
					 1.00000000E+00	 5.00000000E-01	 2.00000000E+00
					 1.00000000E+00	 1.00000000E+00	 2.00000000E+00
					 5.00000000E-01	 5.00000000E-01	 2.00000000E+00
					 5.00000000E-01	 1.00000000E+00	 2.00000000E+00
					 1.00000000E+00	 5.00000000E-01	 1.50000000E+00
					 1.00000000E+00	 7.50000000E-01	 2.00000000E+00
					 1.00000000E+00	 1.00000000E+00	 1.50000000E+00
					 7.50000000E-01	 5.00000000E-01	 2.00000000E+00
					 7.50000000E-01	 1.00000000E+00	 2.00000000E+00
					 5.00000000E-01	 5.00000000E-01	 1.50000000E+00
					 5.00000000E-01	 7.50000000E-01	 2.00000000E+00
					 5.00000000E-01	 1.00000000E+00	 1.50000000E+00
					 1.00000000E+00	-1.49012000E-08	 2.00000000E+00
					 5.00000000E-01	-1.49012000E-08	 2.00000000E+00
					 1.00000000E+00	-1.49012000E-08	 1.50000000E+00
					 1.00000000E+00	 2.50000000E-01	 2.00000000E+00
					 7.50000000E-01	-1.49012000E-08	 2.00000000E+00
					 5.00000000E-01	-1.49012000E-08	 1.50000000E+00
					 5.00000000E-01	 2.50000000E-01	 2.00000000E+00
					-7.45058000E-09	 5.00000000E-01	 2.00000000E+00
					-7.45058000E-09	 1.00000000E+00	 2.00000000E+00
					 2.50000000E-01	 5.00000000E-01	 2.00000000E+00
					 2.50000000E-01	 1.00000000E+00	 2.00000000E+00
					-7.45058000E-09	 5.00000000E-01	 1.50000000E+00
					-7.45058000E-09	 7.50000000E-01	 2.00000000E+00
					-7.45058000E-09	 1.00000000E+00	 1.50000000E+00
					-7.45058000E-09	-1.49012000E-08	 2.00000000E+00
					 2.50000000E-01	-1.49012000E-08	 2.00000000E+00
					-7.45058000E-09	-1.49012000E-08	 1.50000000E+00
					-7.45058000E-09	 2.50000000E-01	 2.00000000E+00
					 1.00000000E+00	 5.00000000E-01	 3.00000000E+00
					 1.00000000E+00	 1.00000000E+00	 3.00000000E+00
					 5.00000000E-01	 5.00000000E-01	 3.00000000E+00
					 5.00000000E-01	 1.00000000E+00	 3.00000000E+00
					 1.00000000E+00	 5.00000000E-01	 2.50000000E+00
					 1.00000000E+00	 7.50000000E-01	 3.00000000E+00
					 1.00000000E+00	 1.00000000E+00	 2.50000000E+00
					 7.50000000E-01	 5.00000000E-01	 3.00000000E+00
					 7.50000000E-01	 1.00000000E+00	 3.00000000E+00
					 5.00000000E-01	 5.00000000E-01	 2.50000000E+00
					 5.00000000E-01	 7.50000000E-01	 3.00000000E+00
					 5.00000000E-01	 1.00000000E+00	 2.50000000E+00
					 1.00000000E+00	-1.49012000E-08	 3.00000000E+00
					 5.00000000E-01	-1.49012000E-08	 3.00000000E+00
					 1.00000000E+00	-1.49012000E-08	 2.50000000E+00
					 1.00000000E+00	 2.50000000E-01	 3.00000000E+00
					 7.50000000E-01	-1.49012000E-08	 3.00000000E+00
					 5.00000000E-01	-1.49012000E-08	 2.50000000E+00
					 5.00000000E-01	 2.50000000E-01	 3.00000000E+00
					-7.45058000E-09	 5.00000000E-01	 3.00000000E+00
					-7.45058000E-09	 1.00000000E+00	 3.00000000E+00
					 2.50000000E-01	 5.00000000E-01	 3.00000000E+00
					 2.50000000E-01	 1.00000000E+00	 3.00000000E+00
					-7.45058000E-09	 5.00000000E-01	 2.50000000E+00
					-7.45058000E-09	 7.50000000E-01	 3.00000000E+00
					-7.45058000E-09	 1.00000000E+00	 2.50000000E+00
					-7.45058000E-09	-1.49012000E-08	 3.00000000E+00
					 2.50000000E-01	-1.49012000E-08	 3.00000000E+00
					-7.45058000E-09	-1.49012000E-08	 2.50000000E+00
					-7.45058000E-09	 2.50000000E-01	 3.00000000E+00
					 1.00000000E+00	 5.00000000E-01	 4.00000000E+00
					 1.00000000E+00	 1.00000000E+00	 4.00000000E+00
					 5.00000000E-01	 5.00000000E-01	 4.00000000E+00
					 5.00000000E-01	 1.00000000E+00	 4.00000000E+00
					 1.00000000E+00	 5.00000000E-01	 3.50000000E+00
					 1.00000000E+00	 7.50000000E-01	 4.00000000E+00
					 1.00000000E+00	 1.00000000E+00	 3.50000000E+00
					 7.50000000E-01	 5.00000000E-01	 4.00000000E+00
					 7.50000000E-01	 1.00000000E+00	 4.00000000E+00
					 5.00000000E-01	 5.00000000E-01	 3.50000000E+00
					 5.00000000E-01	 7.50000000E-01	 4.00000000E+00
					 5.00000000E-01	 1.00000000E+00	 3.50000000E+00
					 1.00000000E+00	-1.49012000E-08	 4.00000000E+00
					 5.00000000E-01	-1.49012000E-08	 4.00000000E+00
					 1.00000000E+00	-1.49012000E-08	 3.50000000E+00
					 1.00000000E+00	 2.50000000E-01	 4.00000000E+00
					 7.50000000E-01	-1.49012000E-08	 4.00000000E+00
					 5.00000000E-01	-1.49012000E-08	 3.50000000E+00
					 5.00000000E-01	 2.50000000E-01	 4.00000000E+00
					-7.45058000E-09	 5.00000000E-01	 4.00000000E+00
					-7.45058000E-09	 1.00000000E+00	 4.00000000E+00
					 2.50000000E-01	 5.00000000E-01	 4.00000000E+00
					 2.50000000E-01	 1.00000000E+00	 4.00000000E+00
					-7.45058000E-09	 5.00000000E-01	 3.50000000E+00
					-7.45058000E-09	 7.50000000E-01	 4.00000000E+00
					-7.45058000E-09	 1.00000000E+00	 3.50000000E+00
					-7.45058000E-09	-1.49012000E-08	 4.00000000E+00
					 2.50000000E-01	-1.49012000E-08	 4.00000000E+00
					-7.45058000E-09	-1.49012000E-08	 3.50000000E+00
					-7.45058000E-09	 2.50000000E-01	 4.00000000E+00
					 1.00000000E+00	 5.00000000E-01	 5.00000000E+00
					 1.00000000E+00	 1.00000000E+00	 5.00000000E+00
					 5.00000000E-01	 5.00000000E-01	 5.00000000E+00
					 5.00000000E-01	 1.00000000E+00	 5.00000000E+00
					 1.00000000E+00	 5.00000000E-01	 4.50000000E+00
					 1.00000000E+00	 7.50000000E-01	 5.00000000E+00
					 1.00000000E+00	 1.00000000E+00	 4.50000000E+00
					 7.50000000E-01	 5.00000000E-01	 5.00000000E+00
					 7.50000000E-01	 1.00000000E+00	 5.00000000E+00
					 5.00000000E-01	 5.00000000E-01	 4.50000000E+00
					 5.00000000E-01	 7.50000000E-01	 5.00000000E+00
					 5.00000000E-01	 1.00000000E+00	 4.50000000E+00
					 1.00000000E+00	-1.49012000E-08	 5.00000000E+00
					 5.00000000E-01	-1.49012000E-08	 5.00000000E+00
					 1.00000000E+00	-1.49012000E-08	 4.50000000E+00
					 1.00000000E+00	 2.50000000E-01	 5.00000000E+00
					 7.50000000E-01	-1.49012000E-08	 5.00000000E+00
					 5.00000000E-01	-1.49012000E-08	 4.50000000E+00
					 5.00000000E-01	 2.50000000E-01	 5.00000000E+00
					-7.45058000E-09	 5.00000000E-01	 5.00000000E+00
					-7.45058000E-09	 1.00000000E+00	 5.00000000E+00
					 2.50000000E-01	 5.00000000E-01	 5.00000000E+00
					 2.50000000E-01	 1.00000000E+00	 5.00000000E+00
					-7.45058000E-09	 5.00000000E-01	 4.50000000E+00
					-7.45058000E-09	 7.50000000E-01	 5.00000000E+00
					-7.45058000E-09	 1.00000000E+00	 4.50000000E+00
					-7.45058000E-09	-1.49012000E-08	 5.00000000E+00
					 2.50000000E-01	-1.49012000E-08	 5.00000000E+00
					-7.45058000E-09	-1.49012000E-08	 4.50000000E+00
					-7.45058000E-09	 2.50000000E-01	 5.00000000E+00
					 1.00000000E+00	 5.00000000E-01	 6.00000000E+00
					 1.00000000E+00	 1.00000000E+00	 6.00000000E+00
					 5.00000000E-01	 5.00000000E-01	 6.00000000E+00
					 5.00000000E-01	 1.00000000E+00	 6.00000000E+00
					 1.00000000E+00	 5.00000000E-01	 5.50000000E+00
					 1.00000000E+00	 7.50000000E-01	 6.00000000E+00
					 1.00000000E+00	 1.00000000E+00	 5.50000000E+00
					 7.50000000E-01	 5.00000000E-01	 6.00000000E+00
					 7.50000000E-01	 1.00000000E+00	 6.00000000E+00
					 5.00000000E-01	 5.00000000E-01	 5.50000000E+00
					 5.00000000E-01	 7.50000000E-01	 6.00000000E+00
					 5.00000000E-01	 1.00000000E+00	 5.50000000E+00
					 1.00000000E+00	-1.49012000E-08	 6.00000000E+00
[...]
			<PointData>
				<DataArray type="Float32" Name="U" NumberOfComponents="3" ComponentName0="D1" ComponentName1="D2" ComponentName2="D3" format="ascii">
					 0.00000000E+00	 0.00000000E+00	 0.00000000E+00
					 0.00000000E+00	 0.00000000E+00	 0.00000000E+00
					 9.62984000E-06	-2.08877000E-03	 3.01545000E-05
					-1.79764000E-03	-2.27668000E-03	 3.11288000E-03
					 0.00000000E+00	 0.00000000E+00	 0.00000000E+00
					 0.00000000E+00	 0.00000000E+00	 0.00000000E+00
					 1.80348000E-05	-3.70719000E-03	 2.20445000E-05
					-1.40863000E-03	-3.90216000E-03	 3.14026000E-03
					 0.00000000E+00	 0.00000000E+00	 0.00000000E+00
					 4.55931000E-06	-1.75461000E-04	 1.42646000E-05
					-8.96357000E-04	-2.11435000E-03	 1.65912000E-03
					-1.13568000E-03	-4.71037000E-04	 1.61389000E-03
					 0.00000000E+00	 0.00000000E+00	 0.00000000E+00
					 0.00000000E+00	 0.00000000E+00	 0.00000000E+00
					 1.42369000E-05	-2.96550000E-03	 2.66749000E-05
					-1.59965000E-03	-3.15303000E-03	 2.99787000E-03
					 0.00000000E+00	 0.00000000E+00	 0.00000000E+00
					 1.08009000E-05	-1.08268000E-03	 1.18938000E-05
					-6.93901000E-04	-3.73282000E-03	 1.53688000E-03
					-6.90923000E-04	-1.35392000E-03	 1.57128000E-03
					 0.00000000E+00	 0.00000000E+00	 0.00000000E+00
					 1.81505000E-03	-2.24187000E-03	-3.05772000E-03
					 0.00000000E+00	 0.00000000E+00	 0.00000000E+00
					 1.44338000E-03	-3.86791000E-03	-3.10097000E-03
					 0.00000000E+00	 0.00000000E+00	 0.00000000E+00
					 1.14348000E-03	-4.52035000E-04	-1.58663000E-03
					 9.15098000E-04	-2.09646000E-03	-1.60094000E-03
					 0.00000000E+00	 0.00000000E+00	 0.00000000E+00
					 1.62660000E-03	-3.11908000E-03	-2.94892000E-03
					 0.00000000E+00	 0.00000000E+00	 0.00000000E+00
					 7.11546000E-04	-1.33559000E-03	-1.54714000E-03
					 7.29275000E-04	-3.71592000E-03	-1.49444000E-03
					 0.00000000E+00	 0.00000000E+00	 0.00000000E+00
					 0.00000000E+00	 0.00000000E+00	 0.00000000E+00
					 2.27304000E-05	-4.94099000E-03	 1.51306000E-05
					-1.01074000E-03	-5.11557000E-03	 3.09879000E-03
					 0.00000000E+00	 0.00000000E+00	 0.00000000E+00
					 0.00000000E+00	 0.00000000E+00	 0.00000000E+00
					 2.08896000E-05	-4.38906000E-03	 1.73534000E-05
					-1.21104000E-03	-4.57815000E-03	 3.24906000E-03
					 0.00000000E+00	 0.00000000E+00	 0.00000000E+00
					 1.50056000E-05	-1.57778000E-03	 1.29249000E-05
					-4.95926000E-04	-4.95767000E-03	 1.38405000E-03
					-1.92839000E-04	-1.81803000E-03	 1.61373000E-03
					 0.00000000E+00	 0.00000000E+00	 0.00000000E+00
					 1.05602000E-03	-5.08306000E-03	-3.07190000E-03
					 0.00000000E+00	 0.00000000E+00	 0.00000000E+00
					 1.25148000E-03	-4.54356000E-03	-3.21910000E-03
					 0.00000000E+00	 0.00000000E+00	 0.00000000E+00
					 2.22634000E-04	-1.79959000E-03	-1.58696000E-03
					 5.41577000E-04	-4.94256000E-03	-1.35447000E-03
					 1.35787000E-05	-9.94820000E-03	 3.12184000E-05
					-2.94130000E-03	-1.01245000E-02	 5.49217000E-03
					 2.61131000E-05	-1.27363000E-02	 3.86603000E-06
					-2.61209000E-03	-1.29256000E-02	 5.47858000E-03
					 1.21308000E-05	-5.33510000E-03	 3.65968000E-05
					-1.46098000E-03	-1.00022000E-02	 2.78692000E-03
					-2.46087000E-03	-5.53455000E-03	 4.39515000E-03
					 2.03438000E-05	-1.13750000E-02	 1.72249000E-05
					-2.77803000E-03	-1.15623000E-02	 5.43160000E-03
					 2.15524000E-05	-7.61655000E-03	 1.90272000E-05
					-1.29517000E-03	-1.27979000E-02	 2.71273000E-03
					-2.08043000E-03	-7.82850000E-03	 4.38869000E-03
					 2.96944000E-03	-1.00377000E-02	-5.43209000E-03
					 2.66488000E-03	-1.28433000E-02	-5.47421000E-03
					 2.48320000E-03	-5.47731000E-03	-4.32626000E-03
					 1.48788000E-03	-9.95862000E-03	-2.72533000E-03
					 2.81966000E-03	-1.14791000E-02	-5.39926000E-03
					 2.12242000E-03	-7.77295000E-03	-4.35532000E-03
					 1.34706000E-03	-1.27575000E-02	-2.70567000E-03
					 3.50357000E-05	-1.52241000E-02	-1.97983000E-05
					-2.30855000E-03	-1.54188000E-02	 5.43976000E-03
					 3.11398000E-05	-1.40161000E-02	-8.68518000E-06
					-2.45998000E-03	-1.42045000E-02	 5.52732000E-03
					 2.78318000E-05	-9.53827000E-03	 3.80142000E-06
					-1.13413000E-03	-1.52880000E-02	 2.61300000E-03
					-1.73116000E-03	-9.76455000E-03	 4.36163000E-03
					 2.37954000E-03	-1.53400000E-02	-5.48361000E-03
					 2.52254000E-03	-1.41224000E-02	-5.54909000E-03
					 1.78714000E-03	-9.71003000E-03	-4.35869000E-03
					 1.20426000E-03	-1.52506000E-02	-2.65310000E-03
					 1.17826000E-05	-2.25297000E-02	-2.84227000E-06
					-3.38698000E-03	-2.26501000E-02	 6.92383000E-03
					 2.86785000E-05	-2.58570000E-02	-5.47315000E-05
					-3.23662000E-03	-2.59839000E-02	 6.89514000E-03
					 1.59288000E-05	-1.57778000E-02	 1.82577000E-05
					-1.68645000E-03	-2.25715000E-02	 3.43195000E-03
					-3.23614000E-03	-1.59333000E-02	 6.34949000E-03
					 2.06332000E-05	-2.42102000E-02	-2.96273000E-05
					-3.31146000E-03	-2.43357000E-02	 6.89475000E-03
					 3.14892000E-05	-1.89093000E-02	-2.11585000E-05
					-1.60517000E-03	-2.59018000E-02	 3.37584000E-03
					-2.98895000E-03	-1.90704000E-02	 6.33087000E-03
					 3.41241000E-03	-2.25171000E-02	-6.93172000E-03
					 3.29611000E-03	-2.58560000E-02	-7.00644000E-03
					 3.27131000E-03	-1.58180000E-02	-6.31479000E-03
					 1.71031000E-03	-2.25058000E-02	-3.43767000E-03
					 3.35472000E-03	-2.42054000E-02	-6.95666000E-03
					 3.05442000E-03	-1.89623000E-02	-6.37587000E-03
					 1.66280000E-03	-2.58390000E-02	-3.48573000E-03
					 4.18392000E-05	-2.90602000E-02	-1.05887000E-04
					-3.10595000E-03	-2.91903000E-02	 6.82317000E-03
					 3.57836000E-05	-2.74759000E-02	-7.97554000E-05
					-3.17132000E-03	-2.76040000E-02	 6.89782000E-03
					 4.29554000E-05	-2.18187000E-02	-5.76156000E-05
					-1.53222000E-03	-2.91066000E-02	 3.27894000E-03
					-2.76243000E-03	-2.19841000E-02	 6.27363000E-03
					 3.19240000E-03	-2.90690000E-02	-7.03607000E-03
					 3.24521000E-03	-2.74784000E-02	-7.05867000E-03
					 2.85117000E-03	-2.18832000E-02	-6.39221000E-03
					 1.61654000E-03	-2.90482000E-02	-3.49103000E-03
					-2.48940000E-06	-3.73492000E-02	-7.97171000E-05
					-3.25820000E-03	-3.73738000E-02	 6.99245000E-03
					 1.12386000E-05	-4.06390000E-02	-1.35335000E-04
					-3.31294000E-03	-4.06692000E-02	 6.95317000E-03
					 2.96959000E-06	-2.98521000E-02	-3.78360000E-05
					-1.63011000E-03	-3.73724000E-02	 3.39808000E-03
					-3.39545000E-03	-2.99234000E-02	 7.11782000E-03
					 4.90688000E-06	-3.89828000E-02	-1.06949000E-04
					-3.28670000E-03	-3.90118000E-02	 6.99946000E-03
					 1.84472000E-05	-3.32295000E-02	-9.45756000E-05
					-1.65153000E-03	-4.06673000E-02	 3.37464000E-03
					-3.34764000E-03	-3.33096000E-02	 7.08462000E-03
					 3.24571000E-03	-3.72466000E-02	-7.14875000E-03
					 3.33192000E-03	-4.05336000E-02	-7.22040000E-03
					 3.39745000E-03	-2.97909000E-02	-7.19387000E-03
					 1.62301000E-03	-3.73110000E-02	-3.55648000E-03
					 3.28999000E-03	-3.88784000E-02	-7.21035000E-03
					 3.38331000E-03	-3.31736000E-02	-7.27324000E-03
					 1.67275000E-03	-4.05996000E-02	-3.64444000E-03
					 2.43788000E-05	-4.39931000E-02	-1.93041000E-04
					-3.38297000E-03	-4.40356000E-02	 6.87945000E-03
					 1.73528000E-05	-4.23062000E-02	-1.64334000E-04
					-3.34777000E-03	-4.23387000E-02	 6.91040000E-03
					 3.20925000E-05	-3.65818000E-02	-1.52471000E-04
					-1.67593000E-03	-4.40272000E-02	 3.31708000E-03
					-3.32015000E-03	-3.66713000E-02	 7.00577000E-03
					 3.43307000E-03	-4.39007000E-02	-7.26239000E-03
					 3.38200000E-03	-4.22030000E-02	-7.23551000E-03
					 3.38595000E-03	-3.65376000E-02	-7.30931000E-03
					 1.72509000E-03	-4.39599000E-02	-3.70247000E-03
					-2.20236000E-05	-5.11910000E-02	-1.48530000E-04
					-2.84951000E-03	-5.11930000E-02	 6.12288000E-03
					-1.34026000E-05	-5.40731000E-02	-1.96256000E-04
					-2.94510000E-03	-5.40756000E-02	 6.06252000E-03
					-9.82388000E-06	-4.45484000E-02	-1.16189000E-04
					-1.43666000E-03	-5.12081000E-02	 2.98176000E-03
					-3.06221000E-03	-4.45578000E-02	 6.57882000E-03
					-1.72227000E-05	-5.26175000E-02	-1.72104000E-04
					-2.89766000E-03	-5.26195000E-02	 6.12801000E-03
					 1.83982000E-06	-4.76596000E-02	-1.69573000E-04
					-1.47905000E-03	-5.40929000E-02	 2.96415000E-03
					-3.16649000E-03	-4.76719000E-02	 6.52929000E-03
					 2.79510000E-03	-5.10949000E-02	-6.41966000E-03
					 2.91289000E-03	-5.39652000E-02	-6.45438000E-03
					 3.03418000E-03	-4.44426000E-02	-6.80885000E-03
					 1.38971000E-03	-5.11591000E-02	-3.27875000E-03
					 2.85425000E-03	-5.25128000E-02	-6.47182000E-03
					 3.16593000E-03	-4.75468000E-02	-6.86558000E-03
					 1.45045000E-03	-5.40353000E-02	-3.35657000E-03
					-3.67303000E-06	-5.70479000E-02	-2.47293000E-04
					-3.04163000E-03	-5.70593000E-02	 6.02278000E-03
					-9.25538000E-06	-5.55462000E-02	-2.21110000E-04
					-2.99364000E-03	-5.55504000E-02	 5.99169000E-03
					 1.36956000E-05	-5.08798000E-02	-2.25753000E-04
					-1.52006000E-03	-5.70716000E-02	 2.96801000E-03
					-3.28260000E-03	-5.09061000E-02	 6.46869000E-03
					 3.03483000E-03	-5.69465000E-02	-6.51642000E-03
					 2.97331000E-03	-5.54391000E-02	-6.43320000E-03
					 3.31117000E-03	-5.07807000E-02	-6.91731000E-03
					 1.51284000E-03	-5.70119000E-02	-3.46233000E-03
					-3.78224000E-05	-6.33190000E-02	-2.08700000E-04
					-2.55470000E-03	-6.34181000E-02	 6.00973000E-03
					-3.25216000E-05	-6.57824000E-02	-2.47204000E-04
					-2.45684000E-03	-6.58818000E-02	 5.95378000E-03
					-3.08849000E-05	-5.73100000E-02	-1.79651000E-04
					-1.29619000E-03	-6.33547000E-02	 2.92392000E-03
					-2.67190000E-03	-5.73582000E-02	 5.90920000E-03
					-3.41921000E-05	-6.45655000E-02	-2.28317000E-04
					-2.50416000E-03	-6.46638000E-02	 5.99573000E-03
					-2.52868000E-05	-5.99545000E-02	-2.20196000E-04
					-1.24416000E-03	-6.58173000E-02	 2.89341000E-03
					-2.67735000E-03	-6.00024000E-02	 5.84384000E-03
					 2.47283000E-03	-6.33247000E-02	-6.43170000E-03
					 2.38909000E-03	-6.57830000E-02	-6.45270000E-03
					 2.60069000E-03	-5.72679000E-02	-6.26971000E-03
					 1.21854000E-03	-6.33071000E-02	-3.34313000E-03
					 2.43043000E-03	-6.45662000E-02	-6.45643000E-03
					 2.62242000E-03	-5.99022000E-02	-6.28591000E-03
					 1.17788000E-03	-6.57656000E-02	-3.38906000E-03
					-2.85492000E-05	-6.81605000E-02	-2.81422000E-04
					-2.34474000E-03	-6.82454000E-02	 5.93559000E-03
					-3.11810000E-05	-6.69829000E-02	-2.64861000E-04
					-2.40119000E-03	-6.70798000E-02	 5.90748000E-03
					-1.95552000E-05	-6.26080000E-02	-2.61794000E-04
					-1.19114000E-03	-6.81889000E-02	 2.90122000E-03
					-2.67452000E-03	-6.26528000E-02	 5.82404000E-03
					 2.28940000E-03	-6.81487000E-02	-6.50289000E-03
					 2.33887000E-03	-6.69825000E-02	-6.44147000E-03
					 2.63685000E-03	-6.25518000E-02	-6.34981000E-03
					 1.13443000E-03	-6.81376000E-02	-3.46544000E-03
					-5.20043000E-05	-7.64769000E-02	-2.88182000E-04
					-2.67928000E-03	-7.65914000E-02	 6.86232000E-03
					-4.15626000E-05	-7.90332000E-02	-3.25519000E-04
					-2.54562000E-03	-7.91524000E-02	 6.84104000E-03
					-4.70181000E-05	-6.96449000E-02	-2.41655000E-04
					-1.36562000E-03	-7.65160000E-02	 3.29223000E-03
					-2.55063000E-03	-6.97618000E-02	 6.42101000E-03
					-4.72921000E-05	-7.77736000E-02	-3.07161000E-04
					-2.61310000E-03	-7.78898000E-02	 6.82382000E-03
					-3.87323000E-05	-7.20757000E-02	-2.81022000E-04
					-1.29454000E-03	-7.90737000E-02	 3.23584000E-03
					-2.41025000E-03	-7.21883000E-02	 6.38021000E-03
					 2.56959000E-03	-7.64868000E-02	-7.44427000E-03
					 2.45598000E-03	-7.90417000E-02	-7.49681000E-03
					 2.45283000E-03	-6.96619000E-02	-6.91236000E-03
					 1.25971000E-03	-7.64659000E-02	-3.86935000E-03
					 2.51183000E-03	-7.77823000E-02	-7.44404000E-03
					 2.32892000E-03	-7.20851000E-02	-6.94922000E-03
					 1.20874000E-03	-7.90199000E-02	-3.88784000E-03
					-3.29000000E-05	-8.14717000E-02	-3.62303000E-04
					-2.40716000E-03	-8.15876000E-02	 6.80178000E-03
					-3.61626000E-05	-8.02669000E-02	-3.44204000E-04
					-2.47609000E-03	-8.03878000E-02	 6.86279000E-03
					-3.23021000E-05	-7.43760000E-02	-3.13971000E-04
					-1.22250000E-03	-8.15104000E-02	 3.16034000E-03
					-2.24476000E-03	-7.44689000E-02	 6.35197000E-03
					 2.33578000E-03	-8.14709000E-02	-7.52994000E-03
					 2.39749000E-03	-8.02734000E-02	-7.55516000E-03
					 2.17765000E-03	-7.43641000E-02	-6.98542000E-03
					 1.15483000E-03	-8.14540000E-02	-3.88555000E-03
					-3.34134000E-05	-9.13446000E-02	-4.13312000E-04
					-2.81245000E-03	-9.14074000E-02	 7.10459000E-03
					-3.37294000E-05	-9.41407000E-02	-4.42077000E-04
					-2.79830000E-03	-9.42251000E-02	 7.11344000E-03
					-4.75094000E-05	-8.38107000E-02	-3.49505000E-04
					-1.41562000E-03	-9.13764000E-02	 3.33273000E-03
					-2.80129000E-03	-8.38854000E-02	 7.07985000E-03
					-3.20689000E-05	-9.27359000E-02	-4.25886000E-04
					-2.80662000E-03	-9.28144000E-02	 7.10589000E-03
					-3.92670000E-05	-8.65269000E-02	-3.81694000E-04
					-1.41057000E-03	-9.41857000E-02	 3.31999000E-03
					-2.73116000E-03	-8.66169000E-02	 7.07883000E-03
					 2.72983000E-03	-9.12847000E-02	-7.91751000E-03
					 2.72193000E-03	-9.40829000E-02	-7.98531000E-03
					 2.69422000E-03	-8.37769000E-02	-7.77420000E-03
					 1.34486000E-03	-9.13173000E-02	-4.15526000E-03
					 2.72823000E-03	-9.26792000E-02	-7.94488000E-03
					 2.64442000E-03	-8.64939000E-02	-7.83723000E-03
					 1.33977000E-03	-9.41142000E-02	-4.20104000E-03
					-3.59429000E-05	-9.69112000E-02	-4.84898000E-04
					-2.80125000E-03	-9.70153000E-02	 7.07940000E-03
					-3.58343000E-05	-9.55313000E-02	-4.62027000E-04
					-2.79907000E-03	-9.56232000E-02	 7.11468000E-03
					-3.29615000E-05	-8.91842000E-02	-4.23784000E-04
					-1.41507000E-03	-9.69654000E-02	 3.26999000E-03
					-2.66504000E-03	-8.92828000E-02	 7.03926000E-03
					 2.72970000E-03	-9.68736000E-02	-8.03979000E-03
					 2.72395000E-03	-9.54793000E-02	-8.02832000E-03
					 2.59659000E-03	-8.91565000E-02	-7.88173000E-03
					 1.34260000E-03	-9.68941000E-02	-4.23738000E-03
					 0.00000000E+00	 0.00000000E+00	 0.00000000E+00
					 0.00000000E+00	 0.00000000E+00	 0.00000000E+00
					 5.00557000E-06	-7.84268000E-03	-2.04350000E-04
					-6.14910000E-04	-8.20642000E-03	 6.49721000E-03
					 0.00000000E+00	 0.00000000E+00	 0.00000000E+00
					 0.00000000E+00	 0.00000000E+00	 0.00000000E+00
					-1.99645000E-05	-8.04855000E-03	-2.13864000E-04
					 1.54424000E-04	-8.45242000E-03	 6.58772000E-03
					 0.00000000E+00	 0.00000000E+00	 0.00000000E+00
					 2.06020000E-05	-1.87536000E-03	-8.37663000E-05
					-3.04482000E-04	-7.87507000E-03	 3.00273000E-03
					-9.04964000E-04	-2.41947000E-03	 3.40585000E-03
					 0.00000000E+00	 0.00000000E+00	 0.00000000E+00
					 0.00000000E+00	 0.00000000E+00	 0.00000000E+00
					-7.16512000E-06	-8.08514000E-03	-2.11796000E-04
					-2.23720000E-04	-8.47081000E-03	 6.56735000E-03
					 0.00000000E+00	 0.00000000E+00	 0.00000000E+00
					-9.12846000E-06	-2.22104000E-03	-8.82535000E-05
					 6.65536000E-05	-8.09561000E-03	 3.06319000E-03
					 8.86142000E-05	-2.78185000E-03	 3.31744000E-03
					 0.00000000E+00	 0.00000000E+00	 0.00000000E+00
					 6.10595000E-04	-8.15889000E-03	-6.91763000E-03
					 0.00000000E+00	 0.00000000E+00	 0.00000000E+00
					-2.00436000E-04	-8.39184000E-03	-7.02844000E-03
					 0.00000000E+00	 0.00000000E+00	 0.00000000E+00
					 9.39659000E-04	-2.43506000E-03	-3.58847000E-03
					 3.09372000E-04	-7.85477000E-03	-3.41266000E-03
					 0.00000000E+00	 0.00000000E+00	 0.00000000E+00
					 1.99525000E-04	-8.41335000E-03	-7.00492000E-03
					 0.00000000E+00	 0.00000000E+00	 0.00000000E+00
					-1.09370000E-04	-2.79677000E-03	-3.50668000E-03
					-1.09922000E-04	-8.06651000E-03	-3.49456000E-03
					 0.00000000E+00	 0.00000000E+00	 0.00000000E+00
					 0.00000000E+00	 0.00000000E+00	 0.00000000E+00
					-4.29083000E-05	-7.48652000E-03	-2.05745000E-04
					 9.29678000E-04	-7.85929000E-03	 6.49769000E-03
					 0.00000000E+00	 0.00000000E+00	 0.00000000E+00
					 0.00000000E+00	 0.00000000E+00	 0.00000000E+00
					-3.16974000E-05	-7.90744000E-03	-2.11265000E-04
					 5.34960000E-04	-8.29025000E-03	 6.54285000E-03
					 0.00000000E+00	 0.00000000E+00	 0.00000000E+00
					-3.95170000E-05	-1.67677000E-03	-9.24120000E-05
					 4.44942000E-04	-7.52529000E-03	 3.02752000E-03
					 1.07410000E-03	-2.23125000E-03	 3.39823000E-03
					 0.00000000E+00	 0.00000000E+00	 0.00000000E+00
					-1.01634000E-03	-7.78797000E-03	-6.91856000E-03
					 0.00000000E+00	 0.00000000E+00	 0.00000000E+00
					-6.03611000E-04	-8.22916000E-03	-6.97534000E-03
					 0.00000000E+00	 0.00000000E+00	 0.00000000E+00
					-1.15304000E-03	-2.24088000E-03	-3.59649000E-03
					-5.29755000E-04	-7.49071000E-03	-3.44201000E-03
					-8.04261000E-08	-2.72062000E-02	-5.44966000E-04
					-3.30891000E-04	-2.74731000E-02	 1.00995000E-02
					-1.59368000E-05	-2.73748000E-02	-5.28376000E-04
					-2.34459000E-05	-2.76367000E-02	 1.01630000E-02
					-2.55701000E-06	-1.66016000E-02	-3.60344000E-04
					-1.68792000E-04	-2.73079000E-02	 4.69619000E-03
					-4.09199000E-04	-1.69834000E-02	 8.70953000E-03
					-9.22080000E-06	-2.73237000E-02	-5.40487000E-04
					-1.76650000E-04	-2.75811000E-02	 1.01199000E-02
					-2.49422000E-05	-1.67259000E-02	-3.58759000E-04
					-1.14865000E-05	-2.74735000E-02	 4.72635000E-03
					 1.36834000E-04	-1.70998000E-02	 8.76989000E-03
					 3.24419000E-04	-2.72833000E-02	-1.11972000E-02
					-2.20725000E-05	-2.74388000E-02	-1.12259000E-02
					 3.92099000E-04	-1.68636000E-02	-9.44532000E-03
					 1.66475000E-04	-2.72166000E-02	-5.78920000E-03
					 1.50235000E-04	-2.73918000E-02	-1.12048000E-02
					-1.95456000E-04	-1.69658000E-02	-9.50172000E-03
					-1.95230000E-05	-2.73786000E-02	-5.78205000E-03
					-3.13673000E-05	-2.72100000E-02	-4.98843000E-04
					 3.31966000E-04	-2.74485000E-02	 1.01445000E-02
					-2.42886000E-05	-2.73201000E-02	-5.13043000E-04
					 1.54988000E-04	-2.76072000E-02	 1.02167000E-02
					-4.43421000E-05	-1.62714000E-02	-3.40973000E-04
					 1.42543000E-04	-2.72918000E-02	 4.67333000E-03
					 7.16761000E-04	-1.66331000E-02	 8.72991000E-03
					-3.79269000E-04	-2.72539000E-02	-1.11483000E-02
					-2.02027000E-04	-2.73811000E-02	-1.12521000E-02
					-8.01031000E-04	-1.64967000E-02	-9.42344000E-03
					-2.00937000E-04	-2.71999000E-02	-5.66818000E-03
					 8.72050000E-05	-5.03531000E-02	-9.48666000E-04
					-7.03956000E-04	-5.04164000E-02	 1.06258000E-02
					 7.54662000E-05	-5.11320000E-02	-8.77065000E-04
					-7.33505000E-04	-5.13035000E-02	 1.07268000E-02
					 2.87150000E-05	-3.86677000E-02	-7.42951000E-04
					-3.04896000E-04	-5.03882000E-02	 4.83624000E-03
					-4.40835000E-04	-3.88620000E-02	 1.06623000E-02
					 8.12553000E-05	-5.07431000E-02	-9.09742000E-04
					-7.22826000E-04	-5.08698000E-02	 1.06070000E-02
					 1.49006000E-05	-3.90703000E-02	-7.04861000E-04
					-3.50953000E-04	-5.12251000E-02	 4.84019000E-03
					-3.21454000E-04	-3.92701000E-02	 1.07436000E-02
					 8.29532000E-04	-5.02349000E-02	-1.25066000E-02
					 8.71008000E-04	-5.10071000E-02	-1.24970000E-02
					 4.83537000E-04	-3.86450000E-02	-1.21498000E-02
					 4.63729000E-04	-5.02998000E-02	-6.72153000E-03
					 8.47269000E-04	-5.06121000E-02	-1.24385000E-02
					 3.44230000E-04	-3.90219000E-02	-1.21549000E-02
					 4.75102000E-04	-5.10814000E-02	-6.61368000E-03
					 6.58449000E-05	-5.19471000E-02	-8.10053000E-04
					-8.40016000E-04	-5.22434000E-02	 1.07598000E-02
					 7.02975000E-05	-5.15493000E-02	-8.44572000E-04
					-7.89305000E-04	-5.16547000E-02	 1.08545000E-02
					 1.39337000E-05	-3.93317000E-02	-6.60974000E-04
					-3.53276000E-04	-5.21054000E-02	 4.77684000E-03
					-2.06114000E-04	-3.95591000E-02	 1.07459000E-02
					 9.16839000E-04	-5.18373000E-02	-1.24217000E-02
					 8.92515000E-04	-5.14111000E-02	-1.25599000E-02
					 1.85899000E-04	-3.92671000E-02	-1.20719000E-02
					 4.83674000E-04	-5.19131000E-02	-6.44055000E-03
					 3.93285000E-04	-7.20855000E-02	-1.35576000E-03
					-1.47086000E-03	-7.19356000E-02	 9.03452000E-03