<?xml version="1.0"?>
<VTKFile type="UnstructuredGrid" version="0.1" byte_order="LittleEndian">
	<UnstructuredGrid>
		<Piece NumberOfPoints="522" NumberOfCells="64">
			<Points>
				<DataArray type="Float64" NumberOfComponents="3" format="ascii">
					 1.00000000E+00	 1.00000000E+00	-5.96046000E-08
					 1.00000000E+00	 5.00000000E-01	-5.96046000E-08
					 1.00000000E+00	 5.00000000E-01	 1.00000000E+00
					 1.00000000E+00	 1.00000000E+00	 1.00000000E+00
					 5.00000000E-01	 1.00000000E+00	-5.96046000E-08
					 5.00000000E-01	 5.00000000E-01	-5.96046000E-08
					 5.00000000E-01	 5.00000000E-01	 1.00000000E+00
					 5.00000000E-01	 1.00000000E+00	 1.00000000E+00
					 1.00000000E+00	 7.50000000E-01	-5.96046000E-08
					 1.00000000E+00	 5.00000000E-01	 5.00000000E-01
					 1.00000000E+00	 7.50000000E-01	 1.00000000E+00
					 1.00000000E+00	 1.00000000E+00	 5.00000000E-01
					 7.50000000E-01	 1.00000000E+00	-5.96046000E-08
					 7.50000000E-01	 5.00000000E-01	-5.96046000E-08
					 7.50000000E-01	 5.00000000E-01	 1.00000000E+00
					 7.50000000E-01	 1.00000000E+00	 1.00000000E+00
					 5.00000000E-01	 7.50000000E-01	-5.96046000E-08
					 5.00000000E-01	 5.00000000E-01	 5.00000000E-01
					 5.00000000E-01	 7.50000000E-01	 1.00000000E+00
					 5.00000000E-01	 1.00000000E+00	 5.00000000E-01
					 1.00000000E+00	-1.49012000E-08	-5.96046000E-08
					 1.00000000E+00	-1.49012000E-08	 1.00000000E+00
					 5.00000000E-01	-1.49012000E-08	-5.96046000E-08
					 5.00000000E-01	-1.49012000E-08	 1.00000000E+00
					 1.00000000E+00	 2.50000000E-01	-5.96046000E-08
					 1.00000000E+00	-1.49012000E-08	 5.00000000E-01
					 1.00000000E+00	 2.50000000E-01	 1.00000000E+00
					 7.50000000E-01	-1.49012000E-08	-5.96046000E-08
					 7.50000000E-01	-1.49012000E-08	 1.00000000E+00
					 5.00000000E-01	 2.50000000E-01	-5.96046000E-08
					 5.00000000E-01	-1.49012000E-08	 5.00000000E-01
					 5.00000000E-01	 2.50000000E-01	 1.00000000E+00
					-7.45058000E-09	 1.00000000E+00	-5.96046000E-08
					-7.45058000E-09	 5.00000000E-01	-5.96046000E-08
					-7.45058000E-09	 5.00000000E-01	 1.00000000E+00
					-7.45058000E-09	 1.00000000E+00	 1.00000000E+00
					 2.50000000E-01	 1.00000000E+00	-5.96046000E-08
					 2.50000000E-01	 5.00000000E-01	-5.96046000E-08
					 2.50000000E-01	 5.00000000E-01	 1.00000000E+00
					 2.50000000E-01	 1.00000000E+00	 1.00000000E+00
					-7.45058000E-09	 7.50000000E-01	-5.96046000E-08
					-7.45058000E-09	 5.00000000E-01	 5.00000000E-01
					-7.45058000E-09	 7.50000000E-01	 1.00000000E+00
					-7.45058000E-09	 1.00000000E+00	 5.00000000E-01
					-7.45058000E-09	-1.49012000E-08	-5.96046000E-08
					-7.45058000E-09	-1.49012000E-08	 1.00000000E+00
					 2.50000000E-01	-1.49012000E-08	-5.96046000E-08
					 2.50000000E-01	-1.49012000E-08	 1.00000000E+00
					-7.45058000E-09	 2.50000000E-01	-5.96046000E-08
					-7.45058000E-09	-1.49012000E-08	 5.00000000E-01
					-7.45058000E-09	 2.50000000E-01	 1.00000000E+00
					 1.00000000E+00	 5.00000000E-01	 2.00000000E+00
					 1.00000000E+00	 1.00000000E+00	 2.00000000E+00
					 5.00000000E-01	 5.00000000E-01	 2.00000000E+00
					 5.00000000E-01	 1.00000000E+00	 2.00000000E+00
					 1.00000000E+00	 5.00000000E-01	 1.50000000E+00
					 1.00000000E+00	 7.50000000E-01	 2.00000000E+00
					 1.00000000E+00	 1.00000000E+00	 1.50000000E+00
					 7.50000000E-01	 5.00000000E-01	 2.00000000E+00
					 7.50000000E-01	 1.00000000E+00	 2.00000000E+00
					 5.00000000E-01	 5.00000000E-01	 1.50000000E+00
					 5.00000000E-01	 7.50000000E-01	 2.00000000E+00
					 5.00000000E-01	 1.00000000E+00	 1.50000000E+00
					 1.00000000E+00	-1.49012000E-08	 2.00000000E+00
					 5.00000000E-01	-1.49012000E-08	 2.00000000E+00
					 1.00000000E+00	-1.49012000E-08	 1.50000000E+00
					 1.00000000E+00	 2.50000000E-01	 2.00000000E+00
					 7.50000000E-01	-1.49012000E-08	 2.00000000E+00
					 5.00000000E-01	-1.49012000E-08	 1.50000000E+00
					 5.00000000E-01	 2.50000000E-01	 2.00000000E+00
					-7.45058000E-09	 5.00000000E-01	 2.00000000E+00
					-7.45058000E-09	 1.00000000E+00	 2.00000000E+00
					 2.50000000E-01	 5.00000000E-01	 2.00000000E+00
					 2.50000000E-01	 1.00000000E+00	 2.00000000E+00
					-7.45058000E-09	 5.00000000E-01	 1.50000000E+00
					-7.45058000E-09	 7.50000000E-01	 2.00000000E+00
					-7.45058000E-09	 1.00000000E+00	 1.50000000E+00
					-7.45058000E-09	-1.49012000E-08	 2.00000000E+00
					 2.50000000E-01	-1.49012000E-08	 2.00000000E+00
					-7.45058000E-09	-1.49012000E-08	 1.50000000E+00
					-7.45058000E-09	 2.50000000E-01	 2.00000000E+00
					 1.00000000E+00	 5.00000000E-01	 3.00000000E+00
					 1.00000000E+00	 1.00000000E+00	 3.00000000E+00
					 5.00000000E-01	 5.00000000E-01	 3.00000000E+00
					 5.00000000E-01	 1.00000000E+00	 3.00000000E+00
					 1.00000000E+00	 5.00000000E-01	 2.50000000E+00
					 1.00000000E+00	 7.50000000E-01	 3.00000000E+00
					 1.00000000E+00	 1.00000000E+00	 2.50000000E+00
					 7.50000000E-01	 5.00000000E-01	 3.00000000E+00
					 7.50000000E-01	 1.00000000E+00	 3.00000000E+00
					 5.00000000E-01	 5.00000000E-01	 2.50000000E+00
					 5.00000000E-01	 7.50000000E-01	 3.00000000E+00
					 5.00000000E-01	 1.00000000E+00	 2.50000000E+00
					 1.00000000E+00	-1.49012000E-08	 3.00000000E+00
					 5.00000000E-01	-1.49012000E-08	 3.00000000E+00
					 1.00000000E+00	-1.49012000E-08	 2.50000000E+00
					 1.00000000E+00	 2.50000000E-01	 3.00000000E+00
					 7.50000000E-01	-1.49012000E-08	 3.00000000E+00
					 5.00000000E-01	-1.49012000E-08	 2.50000000E+00
					 5.00000000E-01	 2.50000000E-01	 3.00000000E+00
					-7.45058000E-09	 5.00000000E-01	 3.00000000E+00
					-7.45058000E-09	 1.00000000E+00	 3.00000000E+00
					 2.50000000E-01	 5.00000000E-01	 3.00000000E+00
					 2.50000000E-01	 1.00000000E+00	 3.00000000E+00
					-7.45058000E-09	 5.00000000E-01	 2.50000000E+00
					-7.45058000E-09	 7.50000000E-01	 3.00000000E+00
					-7.45058000E-09	 1.00000000E+00	 2.50000000E+00
					-7.45058000E-09	-1.49012000E-08	 3.00000000E+00
					 2.50000000E-01	-1.49012000E-08	 3.00000000E+00
					-7.45058000E-09	-1.49012000E-08	 2.50000000E+00
					-7.45058000E-09	 2.50000000E-01	 3.00000000E+00
					 1.00000000E+00	 5.00000000E-01	 4.00000000E+00
					 1.00000000E+00	 1.00000000E+00	 4.00000000E+00
					 5.00000000E-01	 5.00000000E-01	 4.00000000E+00
					 5.00000000E-01	 1.00000000E+00	 4.00000000E+00
					 1.00000000E+00	 5.00000000E-01	 3.50000000E+00
					 1.00000000E+00	 7.50000000E-01	 4.00000000E+00
					 1.00000000E+00	 1.00000000E+00	 3.50000000E+00
					 7.50000000E-01	 5.00000000E-01	 4.00000000E+00
					 7.50000000E-01	 1.00000000E+00	 4.00000000E+00
					 5.00000000E-01	 5.00000000E-01	 3.50000000E+00
					 5.00000000E-01	 7.50000000E-01	 4.00000000E+00
					 5.00000000E-01	 1.00000000E+00	 3.50000000E+00
					 1.00000000E+00	-1.49012000E-08	 4.00000000E+00
					 5.00000000E-01	-1.49012000E-08	 4.00000000E+00
					 1.00000000E+00	-1.49012000E-08	 3.50000000E+00
					 1.00000000E+00	 2.50000000E-01	 4.00000000E+00
					 7.50000000E-01	-1.49012000E-08	 4.00000000E+00
					 5.00000000E-01	-1.49012000E-08	 3.50000000E+00
					 5.00000000E-01	 2.50000000E-01	 4.00000000E+00
					-7.45058000E-09	 5.00000000E-01	 4.00000000E+00
					-7.45058000E-09	 1.00000000E+00	 4.00000000E+00
					 2.50000000E-01	 5.00000000E-01	 4.00000000E+00
					 2.50000000E-01	 1.00000000E+00	 4.00000000E+00
					-7.45058000E-09	 5.00000000E-01	 3.50000000E+00
					-7.45058000E-09	 7.50000000E-01	 4.00000000E+00
					-7.45058000E-09	 1.00000000E+00	 3.50000000E+00
					-7.45058000E-09	-1.49012000E-08	 4.00000000E+00
					 2.50000000E-01	-1.49012000E-08	 4.00000000E+00
					-7.45058000E-09	-1.49012000E-08	 3.50000000E+00
					-7.45058000E-09	 2.50000000E-01	 4.00000000E+00
					 1.00000000E+00	 5.00000000E-01	 5.00000000E+00
					 1.00000000E+00	 1.00000000E+00	 5.00000000E+00
					 5.00000000E-01	 5.00000000E-01	 5.00000000E+00
					 5.00000000E-01	 1.00000000E+00	 5.00000000E+00
					 1.00000000E+00	 5.00000000E-01	 4.50000000E+00
					 1.00000000E+00	 7.50000000E-01	 5.00000000E+00
					 1.00000000E+00	 1.00000000E+00	 4.50000000E+00
					 7.50000000E-01	 5.00000000E-01	 5.00000000E+00
					 7.50000000E-01	 1.00000000E+00	 5.00000000E+00
					 5.00000000E-01	 5.00000000E-01	 4.50000000E+00
					 5.00000000E-01	 7.50000000E-01	 5.00000000E+00
					 5.00000000E-01	 1.00000000E+00	 4.50000000E+00
					 1.00000000E+00	-1.49012000E-08	 5.00000000E+00
					 5.00000000E-01	-1.49012000E-08	 5.00000000E+00
					 1.00000000E+00	-1.49012000E-08	 4.50000000E+00
					 1.00000000E+00	 2.50000000E-01	 5.00000000E+00
					 7.50000000E-01	-1.49012000E-08	 5.00000000E+00
					 5.00000000E-01	-1.49012000E-08	 4.50000000E+00
					 5.00000000E-01	 2.50000000E-01	 5.00000000E+00
					-7.45058000E-09	 5.00000000E-01	 5.00000000E+00
					-7.45058000E-09	 1.00000000E+00	 5.00000000E+00
					 2.50000000E-01	 5.00000000E-01	 5.00000000E+00
					 2.50000000E-01	 1.00000000E+00	 5.00000000E+00
					-7.45058000E-09	 5.00000000E-01	 4.50000000E+00
					-7.45058000E-09	 7.50000000E-01	 5.00000000E+00
					-7.45058000E-09	 1.00000000E+00	 4.50000000E+00
					-7.45058000E-09	-1.49012000E-08	 5.00000000E+00
					 2.50000000E-01	-1.49012000E-08	 5.00000000E+00
					-7.45058000E-09	-1.49012000E-08	 4.50000000E+00
					-7.45058000E-09	 2.50000000E-01	 5.00000000E+00
					 1.00000000E+00	 5.00000000E-01	 6.00000000E+00
					 1.00000000E+00	 1.00000000E+00	 6.00000000E+00
					 5.00000000E-01	 5.00000000E-01	 6.00000000E+00
					 5.00000000E-01	 1.00000000E+00	 6.00000000E+00
					 1.00000000E+00	 5.00000000E-01	 5.50000000E+00
					 1.00000000E+00	 7.50000000E-01	 6.00000000E+00
					 1.00000000E+00	 1.00000000E+00	 5.50000000E+00
					 7.50000000E-01	 5.00000000E-01	 6.00000000E+00
					 7.50000000E-01	 1.00000000E+00	 6.00000000E+00
					 5.00000000E-01	 5.00000000E-01	 5.50000000E+00
					 5.00000000E-01	 7.50000000E-01	 6.00000000E+00
					 5.00000000E-01	 1.00000000E+00	 5.50000000E+00
					 1.00000000E+00	-1.49012000E-08	 6.00000000E+00
[...]
			<PointData>
				<DataArray type="Float32" Name="U" NumberOfComponents="3" ComponentName0="D1" ComponentName1="D2" ComponentName2="D3" format="ascii">
					 0.00000000E+00	 0.00000000E+00	 0.00000000E+00
					 0.00000000E+00	 0.00000000E+00	 0.00000000E+00
					 1.35914000E-08	 7.05777000E-04	 2.18843000E-06
					-2.02277000E-04	 7.27853000E-04	-4.47890000E-05
					 0.00000000E+00	 0.00000000E+00	 0.00000000E+00
					 0.00000000E+00	 0.00000000E+00	 0.00000000E+00
					 4.08261000E-06	 5.54200000E-04	 5.03592000E-05
					-6.59693000E-05	 5.53586000E-04	-1.21398000E-04
					 0.00000000E+00	 0.00000000E+00	 0.00000000E+00
					-3.71644000E-05	 3.35119000E-04	 4.39637000E-06
					-6.65064000E-05	 7.10481000E-04	-2.28573000E-05
					-6.54518000E-05	 3.45314000E-04	-1.20082000E-04
					 0.00000000E+00	 0.00000000E+00	 0.00000000E+00
					 0.00000000E+00	 0.00000000E+00	 0.00000000E+00
					 9.41931000E-06	 6.05452000E-04	 3.73895000E-05
					-1.27876000E-04	 6.11801000E-04	-8.64163000E-05
					 0.00000000E+00	 0.00000000E+00	 0.00000000E+00
					-4.93585000E-06	 2.70238000E-04	 2.48143000E-05
					-3.20911000E-05	 5.53781000E-04	-6.60935000E-06
					-7.96156000E-05	 2.74966000E-04	-1.14030000E-04
					 0.00000000E+00	 0.00000000E+00	 0.00000000E+00
					 2.04281000E-04	 6.00220000E-04	 1.87703000E-04
					 0.00000000E+00	 0.00000000E+00	 0.00000000E+00
					 4.75754000E-05	 5.72943000E-04	 1.68135000E-04
					 0.00000000E+00	 0.00000000E+00	 0.00000000E+00
					 4.41211000E-05	 3.49011000E-04	 1.91673000E-04
					 1.02307000E-04	 6.37975000E-04	 5.29572000E-05
					 0.00000000E+00	 0.00000000E+00	 0.00000000E+00
					 1.23690000E-04	 5.85508000E-04	 1.30038000E-04
					 0.00000000E+00	 0.00000000E+00	 0.00000000E+00
					 3.51946000E-05	 2.62265000E-04	 1.93851000E-04
					 2.46771000E-05	 5.66985000E-04	 8.08219000E-05
					 0.00000000E+00	 0.00000000E+00	 0.00000000E+00
					 0.00000000E+00	 0.00000000E+00	 0.00000000E+00
					-2.60033000E-05	 5.67267000E-04	 6.03819000E-05
					-1.46300000E-04	 4.41051000E-04	-1.00047000E-04
					 0.00000000E+00	 0.00000000E+00	 0.00000000E+00
					 0.00000000E+00	 0.00000000E+00	 0.00000000E+00
					-1.27962000E-05	 5.55424000E-04	 2.08936000E-05
					-8.36968000E-05	 5.46945000E-04	-1.51529000E-04
					 0.00000000E+00	 0.00000000E+00	 0.00000000E+00
					-1.04700000E-05	 1.91557000E-04	 3.41094000E-05
					-2.93397000E-05	 5.21351000E-04	 4.55560000E-05
					-1.54054000E-04	 1.23422000E-04	-1.12772000E-04
					 0.00000000E+00	 0.00000000E+00	 0.00000000E+00
					 3.65804000E-05	 3.95115000E-04	 1.22828000E-04
					 0.00000000E+00	 0.00000000E+00	 0.00000000E+00
					 2.30077000E-05	 5.57147000E-04	 1.67433000E-04
					 0.00000000E+00	 0.00000000E+00	 0.00000000E+00
					 1.38534000E-04	 1.55117000E-04	 1.34529000E-04
					-6.63618000E-05	 4.97540000E-04	 4.37713000E-05
					 1.71715000E-05	-2.81309000E-04	 8.44143000E-06
					 7.03495000E-04	-2.40346000E-04	 4.74009000E-04
					-1.24727000E-05	 5.56140000E-04	-6.83506000E-05
					 8.64596000E-04	 5.11352000E-04	 4.75698000E-04
					 2.10669000E-05	 4.24733000E-04	 2.06931000E-05
					 3.72658000E-04	-2.39289000E-04	 1.55635000E-04
					 2.13223000E-04	 4.31158000E-04	 1.67654000E-04
					 2.36923000E-06	 1.22083000E-04	-2.04380000E-05
					 7.85423000E-04	 9.86715000E-05	 5.72775000E-04
					 2.83500000E-06	 7.54404000E-04	-5.97448000E-06
					 4.27586000E-04	 5.42618000E-04	 1.97527000E-04
					 3.75039000E-04	 7.08880000E-04	 1.09865000E-04
					-8.18518000E-04	-3.76233000E-04	-5.84450000E-04
					-9.20085000E-04	 5.08706000E-04	-5.56997000E-04
					-2.50099000E-04	 4.07087000E-04	-8.63920000E-05
					-4.12460000E-04	-3.04742000E-04	-2.08197000E-04
					-8.70886000E-04	 2.24242000E-05	-6.30387000E-04
					-3.60261000E-04	 6.91880000E-04	-1.85845000E-04
					-4.61350000E-04	 5.49264000E-04	-3.14006000E-04
					-1.47674000E-05	 1.51400000E-03	-9.38049000E-05
					 1.09024000E-03	 1.50529000E-03	 4.07788000E-04
					-1.58149000E-05	 9.91757000E-04	-6.46016000E-05
					 9.66027000E-04	 9.52345000E-04	 3.74423000E-04
					-2.39199000E-05	 1.16412000E-03	-2.92037000E-05
					 5.12446000E-04	 1.52493000E-03	 2.67831000E-04
					 4.54775000E-04	 1.11000000E-03	 7.32643000E-05
					-1.03112000E-03	 1.42500000E-03	-6.16035000E-04
					-9.70473000E-04	 9.26005000E-04	-4.85468000E-04
					-4.25229000E-04	 1.03613000E-03	-1.54385000E-04
					-4.88245000E-04	 1.47967000E-03	-4.37577000E-04
					 1.02004000E-06	-2.63163000E-03	-3.14311000E-05
					 1.32117000E-03	-2.83922000E-03	 1.33652000E-03
					 1.83201000E-05	-1.28517000E-03	 8.28815000E-06
					 1.37854000E-03	-1.38938000E-03	 1.33298000E-03
					 1.38512000E-05	-1.29859000E-03	-4.62121000E-05
					 6.34849000E-04	-2.72676000E-03	 6.61698000E-04
					 1.06184000E-03	-1.37791000E-03	 8.93141000E-04
					-1.98915000E-07	-1.97480000E-03	-5.25295000E-05
					 1.34728000E-03	-2.09994000E-03	 1.32382000E-03
					-7.56120000E-06	-1.57975000E-04	-3.44700000E-05
					 6.84086000E-04	-1.31905000E-03	 6.73748000E-04
					 1.18929000E-03	-2.46148000E-04	 8.92761000E-04
					-1.33222000E-03	-2.71650000E-03	-1.35248000E-03
					-1.36052000E-03	-1.37156000E-03	-1.36580000E-03
					-1.09315000E-03	-1.39272000E-03	-9.83286000E-04
					-6.45651000E-04	-2.65552000E-03	-6.95747000E-04
					-1.34024000E-03	-2.00841000E-03	-1.35202000E-03
					-1.19988000E-03	-2.17632000E-04	-9.67342000E-04
					-6.65003000E-04	-1.31870000E-03	-6.75417000E-04
					 5.44124000E-05	 5.37948000E-05	-2.26857000E-05
					 1.49462000E-03	 1.46322000E-05	 1.33545000E-03
					 4.40262000E-05	-6.31428000E-04	-4.80401000E-06
					 1.42940000E-03	-7.16653000E-04	 1.31986000E-03
					 2.02402000E-06	 1.08861000E-03	-7.16807000E-05
					 7.44607000E-04	 3.56458000E-05	 6.12995000E-04
					 1.37088000E-03	 1.07122000E-03	 9.20850000E-04
					-1.55131000E-03	 2.68807000E-04	-1.33951000E-03
					-1.44073000E-03	-6.34362000E-04	-1.34989000E-03
					-1.41300000E-03	 1.12567000E-03	-9.82985000E-04
					-7.01839000E-04	 1.74103000E-04	-6.81817000E-04
					 5.81073000E-05	-5.93069000E-03	-1.94667000E-04
					 1.15734000E-03	-5.80813000E-03	 1.67848000E-03
					-1.39103000E-05	-4.69207000E-03	-1.12564000E-04
					 1.22751000E-03	-4.70831000E-03	 1.76257000E-03
					-5.65664000E-06	-4.20513000E-03	-5.97299000E-05
					 6.50921000E-04	-5.85434000E-03	 7.68749000E-04
					 1.23123000E-03	-4.17983000E-03	 1.53948000E-03
					 3.09018000E-05	-5.30167000E-03	-1.26129000E-04
					 1.18947000E-03	-5.33546000E-03	 1.70670000E-03
					-1.33638000E-05	-2.90148000E-03	-2.27111000E-05
					 6.13360000E-04	-4.70744000E-03	 8.08333000E-04
					 1.33838000E-03	-2.86862000E-03	 1.58941000E-03
					-1.23046000E-03	-6.00648000E-03	-2.04149000E-03
					-1.23953000E-03	-4.79012000E-03	-1.92407000E-03
					-1.27982000E-03	-4.25483000E-03	-1.71600000E-03
					-6.18754000E-04	-5.97329000E-03	-1.09540000E-03
					-1.24139000E-03	-5.42227000E-03	-1.99754000E-03
					-1.39673000E-03	-2.96376000E-03	-1.67192000E-03
					-6.20428000E-04	-4.72211000E-03	-1.00702000E-03
					-6.32650000E-05	-3.43858000E-03	-3.91486000E-06
					 1.31196000E-03	-3.32289000E-03	 1.83791000E-03
					-4.53557000E-05	-4.05983000E-03	-7.24069000E-05
					 1.26782000E-03	-4.06760000E-03	 1.83778000E-03
					-3.65074000E-05	-1.48142000E-03	 1.03486000E-05
					 6.14445000E-04	-3.36165000E-03	 8.91096000E-04
					 1.45179000E-03	-1.53574000E-03	 1.60630000E-03
					-1.25726000E-03	-3.50584000E-03	-1.88190000E-03
					-1.25229000E-03	-4.09957000E-03	-1.92948000E-03
					-1.48872000E-03	-1.49772000E-03	-1.66321000E-03
					-6.54886000E-04	-3.48232000E-03	-9.10121000E-04
					-9.28389000E-06	-9.81795000E-03	-1.32683000E-04
					 1.18503000E-03	-9.93112000E-03	 1.87734000E-03
					-1.10467000E-05	-8.75719000E-03	-1.40484000E-04
					 1.06234000E-03	-8.80000000E-03	 1.89154000E-03
					 1.20286000E-05	-7.84204000E-03	-1.86946000E-04
					 5.38386000E-04	-9.88428000E-03	 8.62431000E-04
					 1.16064000E-03	-7.83622000E-03	 1.79199000E-03
					-2.27385000E-05	-9.27141000E-03	-1.28899000E-04
					 1.13219000E-03	-9.30655000E-03	 1.87692000E-03
					 1.06531000E-05	-6.69559000E-03	-1.64274000E-04
					 5.39546000E-04	-8.76160000E-03	 8.73486000E-04
					 1.17611000E-03	-6.69681000E-03	 1.85519000E-03
					-1.04225000E-03	-9.74234000E-03	-2.15439000E-03
					-1.04517000E-03	-8.73078000E-03	-2.19365000E-03
					-1.08229000E-03	-7.77856000E-03	-2.11669000E-03
					-5.22170000E-04	-9.76537000E-03	-1.16461000E-03
					-1.03455000E-03	-9.23979000E-03	-2.16341000E-03
					-1.12614000E-03	-6.71420000E-03	-2.07913000E-03
					-5.43250000E-04	-8.75504000E-03	-1.15399000E-03
					 3.74681000E-05	-7.69167000E-03	-1.19378000E-04
					 1.00508000E-03	-7.79765000E-03	 1.90935000E-03
					 3.17811000E-05	-8.23127000E-03	-1.04653000E-04
					 1.02072000E-03	-8.25359000E-03	 1.95445000E-03
					-8.72657000E-06	-5.51489000E-03	-8.86633000E-05
					 5.40912000E-04	-7.76409000E-03	 8.52955000E-04
					 1.22523000E-03	-5.53168000E-03	 1.87741000E-03
					-1.17110000E-03	-7.56245000E-03	-2.12772000E-03
					-1.11111000E-03	-8.21763000E-03	-2.18329000E-03
					-1.20212000E-03	-5.51014000E-03	-2.03055000E-03
					-5.26960000E-04	-7.61764000E-03	-1.10423000E-03
					-1.66246000E-05	-1.35028000E-02	-1.67464000E-04
					 6.64898000E-04	-1.34366000E-02	 1.87188000E-03
					 3.56966000E-05	-1.27408000E-02	-1.24345000E-04
					 7.62784000E-04	-1.26678000E-02	 1.93926000E-03
					-4.25714000E-06	-1.16989000E-02	-1.33706000E-04
					 3.72928000E-04	-1.34584000E-02	 8.91325000E-04
					 9.10389000E-04	-1.17150000E-02	 1.89176000E-03
					 1.22625000E-05	-1.31171000E-02	-1.45466000E-04
					 7.15150000E-04	-1.31038000E-02	 1.87621000E-03
					-6.15147000E-06	-1.07792000E-02	-1.21461000E-04
					 3.76270000E-04	-1.27022000E-02	 9.28510000E-04
					 8.97697000E-04	-1.07978000E-02	 1.88969000E-03
					-7.34482000E-04	-1.35525000E-02	-2.13830000E-03
					-7.67426000E-04	-1.27573000E-02	-2.17151000E-03
					-9.64531000E-04	-1.17189000E-02	-2.14784000E-03
					-3.59082000E-04	-1.35250000E-02	-1.18639000E-03
					-7.39286000E-04	-1.31375000E-02	-2.14311000E-03
					-9.29684000E-04	-1.07456000E-02	-2.14097000E-03
					-3.67099000E-04	-1.27548000E-02	-1.15733000E-03
					 2.13704000E-05	-1.20465000E-02	-6.41994000E-05
					 7.51644000E-04	-1.19871000E-02	 1.97887000E-03
					 2.41591000E-05	-1.23697000E-02	-9.64326000E-05
					 7.64019000E-04	-1.23347000E-02	 1.91327000E-03
					-1.37428000E-05	-9.87188000E-03	-8.69481000E-05
					 3.91067000E-04	-1.20054000E-02	 9.65986000E-04
					 8.59924000E-04	-9.92291000E-03	 1.92899000E-03
					-7.70682000E-04	-1.20540000E-02	-2.01243000E-03
					-7.71725000E-04	-1.23619000E-02	-2.11098000E-03
					-9.65821000E-04	-9.85171000E-03	-2.07827000E-03
					-3.85704000E-04	-1.20427000E-02	-1.08254000E-03
					 1.17863000E-06	-1.74403000E-02	-4.56009000E-05
					 6.42927000E-04	-1.76946000E-02	 2.32211000E-03
					 2.03376000E-05	-1.68099000E-02	-1.62643000E-04
					 7.38579000E-04	-1.68342000E-02	 2.31619000E-03
					 4.27980000E-06	-1.53870000E-02	-1.31577000E-04
					 2.82895000E-04	-1.75670000E-02	 1.09854000E-03
					 7.17664000E-04	-1.54197000E-02	 2.04587000E-03
					 1.98246000E-05	-1.71578000E-02	-9.87695000E-05
					 6.79945000E-04	-1.72170000E-02	 2.37808000E-03
					 3.68251000E-05	-1.46676000E-02	-1.41641000E-04
					 3.98879000E-04	-1.68158000E-02	 1.10039000E-03
					 8.14151000E-04	-1.47064000E-02	 2.00962000E-03
					-4.58097000E-04	-1.73467000E-02	-2.47812000E-03
					-7.17306000E-04	-1.68268000E-02	-2.49856000E-03
					-6.62620000E-04	-1.54015000E-02	-2.22051000E-03
					-2.53466000E-04	-1.73788000E-02	-1.29870000E-03
					-5.97453000E-04	-1.71878000E-02	-2.46086000E-03
					-7.25137000E-04	-1.46439000E-02	-2.27026000E-03
					-3.38922000E-04	-1.68176000E-02	-1.33663000E-03
					 4.72467000E-05	-1.59881000E-02	-1.84595000E-04
					 8.17395000E-04	-1.62460000E-02	 2.20545000E-03
					 2.98680000E-05	-1.64791000E-02	-1.45145000E-04
					 7.89677000E-04	-1.65207000E-02	 2.30587000E-03
					 4.52547000E-05	-1.38501000E-02	-1.13994000E-04
					 4.65343000E-04	-1.61052000E-02	 9.86264000E-04
					 8.68057000E-04	-1.39104000E-02	 2.05787000E-03
					-8.96963000E-04	-1.59235000E-02	-2.55560000E-03
					-8.06225000E-04	-1.64480000E-02	-2.48505000E-03
					-7.85313000E-04	-1.39327000E-02	-2.24986000E-03
					-4.27919000E-04	-1.59409000E-02	-1.36997000E-03
					-2.78133000E-04	-2.31714000E-02	 1.04352000E-04
					 7.00481000E-05	-2.31342000E-02	 3.27074000E-03
					 1.23512000E-04	-2.24546000E-02	 2.07674000E-05
					 7.08631000E-04	-2.20335000E-02	 2.46049000E-03
					 4.30981000E-06	-2.02059000E-02	 7.13631000E-05
					-1.03380000E-04	-2.31066000E-02	 1.67306000E-03
					 8.75370000E-04	-2.02946000E-02	 2.69263000E-03
					-1.00249000E-04	-2.28048000E-02	 7.30414000E-06
					 4.12238000E-04	-2.26167000E-02	 2.71487000E-03
					 6.67743000E-05	-1.94698000E-02	-1.32397000E-04
					 3.75271000E-04	-2.22408000E-02	 1.25950000E-03
					 7.60036000E-04	-1.95379000E-02	 2.52664000E-03
					-9.37484000E-04	-2.34409000E-02	-2.66104000E-03
					-6.19726000E-04	-2.29293000E-02	-3.47547000E-03
					-4.14100000E-04	-2.00800000E-02	-2.76063000E-03
					-6.75559000E-04	-2.33233000E-02	-1.21061000E-03
					-7.64951000E-04	-2.31759000E-02	-3.19268000E-03
					-6.93652000E-04	-1.95162000E-02	-2.92824000E-03
					-2.45425000E-04	-2.26753000E-02	-1.58864000E-03
					 5.64375000E-04	-2.17816000E-02	 1.88200000E-04
					 8.89839000E-04	-2.17747000E-02	 2.93343000E-03
					 3.58392000E-04	-2.20652000E-02	-1.39439000E-05
					 7.90908000E-04	-2.18164000E-02	 2.62139000E-03
					 8.44246000E-05	-1.87889000E-02	 1.94390000E-05
					 7.99852000E-04	-2.17530000E-02	 1.56426000E-03
					 6.24869000E-04	-1.89989000E-02	 2.56796000E-03
					-2.77934000E-04	-2.16759000E-02	-2.39981000E-03
					-4.58512000E-04	-2.22984000E-02	-3.07161000E-03
					-9.02076000E-04	-1.86596000E-02	-2.71175000E-03
					 2.12819000E-04	-2.17354000E-02	-1.04293000E-03
					 0.00000000E+00	 0.00000000E+00	 0.00000000E+00
					 0.00000000E+00	 0.00000000E+00	 0.00000000E+00
					 1.93647000E-04	-6.13944000E-04	 4.32261000E-05
					-1.96327000E-03	-7.45091000E-04	 2.40349000E-03
					 0.00000000E+00	 0.00000000E+00	 0.00000000E+00
					 0.00000000E+00	 0.00000000E+00	 0.00000000E+00
					 1.41384000E-04	-2.68694000E-03	 1.59369000E-04
					-1.83766000E-03	-2.94648000E-03	 2.43911000E-03
					 0.00000000E+00	 0.00000000E+00	 0.00000000E+00
					 1.23421000E-05	 2.96375000E-04	 2.71747000E-05
					-9.21217000E-04	-6.01555000E-04	 1.37710000E-03
					-1.20650000E-03	 1.48111000E-05	 1.19492000E-03
					 0.00000000E+00	 0.00000000E+00	 0.00000000E+00
					 0.00000000E+00	 0.00000000E+00	 0.00000000E+00
					 1.82775000E-04	-1.68626000E-03	 1.04544000E-04
					-1.90764000E-03	-1.88088000E-03	 2.22506000E-03
					 0.00000000E+00	 0.00000000E+00	 0.00000000E+00
					 3.44041000E-05	-8.00829000E-04	 7.73670000E-05
					-8.64781000E-04	-2.77100000E-03	 1.27556000E-03
					-8.87780000E-04	-9.86312000E-04	 1.25011000E-03
					 0.00000000E+00	 0.00000000E+00	 0.00000000E+00
					 2.27362000E-03	-9.44535000E-04	-2.25548000E-03
					 0.00000000E+00	 0.00000000E+00	 0.00000000E+00
					 2.14370000E-03	-2.82204000E-03	-2.24872000E-03
					 0.00000000E+00	 0.00000000E+00	 0.00000000E+00
					 1.24041000E-03	 7.46822000E-05	-1.17601000E-03
					 1.28674000E-03	-7.20655000E-04	-1.29333000E-03
					 0.00000000E+00	 0.00000000E+00	 0.00000000E+00
					 2.21409000E-03	-1.86959000E-03	-2.06332000E-03
					 0.00000000E+00	 0.00000000E+00	 0.00000000E+00
					 9.37926000E-04	-9.72803000E-04	-1.07905000E-03
					 1.14011000E-03	-2.68535000E-03	-1.01023000E-03
					 0.00000000E+00	 0.00000000E+00	 0.00000000E+00
					 0.00000000E+00	 0.00000000E+00	 0.00000000E+00
					 2.60894000E-05	-4.62633000E-03	 2.39815000E-04
					-1.46617000E-03	-4.48239000E-03	 2.48440000E-03
					 0.00000000E+00	 0.00000000E+00	 0.00000000E+00
					 0.00000000E+00	 0.00000000E+00	 0.00000000E+00
					 7.43455000E-05	-3.69453000E-03	 1.42201000E-04
					-1.67859000E-03	-3.87252000E-03	 2.70002000E-03
					 0.00000000E+00	 0.00000000E+00	 0.00000000E+00
					 3.42618000E-05	-1.53905000E-03	 1.38953000E-04
					-7.87573000E-04	-4.50995000E-03	 1.11430000E-03
					-3.93913000E-04	-1.66258000E-03	 1.28682000E-03
					 0.00000000E+00	 0.00000000E+00	 0.00000000E+00
					 1.72442000E-03	-4.53435000E-03	-2.14840000E-03
					 0.00000000E+00	 0.00000000E+00	 0.00000000E+00
					 1.96501000E-03	-3.80170000E-03	-2.42337000E-03
					 0.00000000E+00	 0.00000000E+00	 0.00000000E+00
					 4.75388000E-04	-1.56855000E-03	-1.09525000E-03
					 9.80850000E-04	-4.55020000E-03	-6.94861000E-04
					 3.97342000E-04	-4.17543000E-03	 1.78869000E-04
					-5.36871000E-03	-4.34534000E-03	 4.13325000E-03
					 3.40901000E-04	-9.65621000E-03	 1.14024000E-04
					-5.04679000E-03	-9.87336000E-03	 4.29108000E-03
					 2.46044000E-04	-2.01727000E-03	 1.00990000E-04
					-2.45229000E-03	-4.25423000E-03	 2.36564000E-03
					-3.61711000E-03	-2.18705000E-03	 3.42171000E-03
					 3.63400000E-04	-6.97664000E-03	 1.61360000E-04
					-5.19747000E-03	-7.17459000E-03	 3.97557000E-03
					 2.80714000E-04	-5.72810000E-03	 1.36396000E-04
					-2.34494000E-03	-9.73841000E-03	 2.18328000E-03
					-3.30276000E-03	-5.85402000E-03	 3.37905000E-03
					 5.92222000E-03	-4.30253000E-03	-3.91835000E-03
					 5.71204000E-03	-9.71473000E-03	-3.91304000E-03
					 4.02084000E-03	-2.16652000E-03	-3.18313000E-03
					 3.16475000E-03	-4.21828000E-03	-2.09189000E-03
					 5.82234000E-03	-7.02962000E-03	-3.65379000E-03
					 3.87823000E-03	-5.86236000E-03	-3.15949000E-03
					 3.03357000E-03	-9.66675000E-03	-1.87688000E-03
					 4.04895000E-04	-1.48921000E-02	 1.78560000E-04
					-4.75733000E-03	-1.50033000E-02	 4.24648000E-03
					 3.72211000E-04	-1.23030000E-02	 1.67252000E-04
					-4.89100000E-03	-1.24143000E-02	 4.53962000E-03
					 3.12557000E-04	-9.19343000E-03	 2.40132000E-04
					-2.11600000E-03	-1.49093000E-02	 1.89998000E-03
					-3.04571000E-03	-9.35709000E-03	 3.48644000E-03
					 5.60524000E-03	-1.50761000E-02	-3.90896000E-03
					 5.64643000E-03	-1.23562000E-02	-4.17145000E-03
					 3.61203000E-03	-9.25982000E-03	-3.13234000E-03
					 2.95017000E-03	-1.49709000E-02	-1.55537000E-03
					 5.64359000E-04	-1.14233000E-02	 2.76676000E-04
					-7.60545000E-03	-1.14152000E-02	 5.09292000E-03
					 5.66319000E-04	-1.94072000E-02	 3.42023000E-04
					-7.36405000E-03	-1.95479000E-02	 5.01236000E-03
					 3.81958000E-04	-7.56398000E-03	 2.22681000E-04
					-3.49199000E-03	-1.14208000E-02	 2.75587000E-03
					-6.54523000E-03	-7.60635000E-03	 4.74739000E-03
					 5.67350000E-04	-1.53888000E-02	 2.87447000E-04
					-7.48186000E-03	-1.55309000E-02	 4.93590000E-03
					 4.68572000E-04	-1.43504000E-02	 2.20315000E-04
					-3.42399000E-03	-1.94862000E-02	 2.58475000E-03
					-6.32958000E-03	-1.45042000E-02	 4.85715000E-03
					 8.44237000E-03	-1.12484000E-02	-4.36560000E-03
					 8.51211000E-03	-1.91949000E-02	-4.48577000E-03
					 7.22214000E-03	-7.52654000E-03	-4.34425000E-03
					 4.49339000E-03	-1.13265000E-02	-2.14359000E-03
					 8.47663000E-03	-1.52384000E-02	-4.31456000E-03
					 7.19054000E-03	-1.42699000E-02	-4.37292000E-03
					 4.53173000E-03	-1.93077000E-02	-2.01776000E-03
					 6.05847000E-04	-2.72832000E-02	 2.54545000E-04
					-7.56312000E-03	-2.78844000E-02	 5.01439000E-03
					 5.86823000E-04	-2.33267000E-02	 3.20218000E-04
					-7.43365000E-03	-2.35193000E-02	 5.16246000E-03
					 5.60986000E-04	-2.10829000E-02	 1.64888000E-04
					-3.39183000E-03	-2.75788000E-02	 2.44492000E-03
					-6.37525000E-03	-2.14324000E-02	 4.82751000E-03
					 8.58759000E-03	-2.71814000E-02	-4.47183000E-03
					 8.54425000E-03	-2.31953000E-02	-4.65003000E-03
					 7.25918000E-03	-2.10802000E-02	-4.27972000E-03
					 4.55463000E-03	-2.72149000E-02	-1.95707000E-03
					 6.58931000E-04	-1.96632000E-02	 1.85731000E-04
					-8.73968000E-03	-1.94114000E-02	 4.49729000E-03