<?xml version="1.0"?>
<VTKFile type="UnstructuredGrid" version="0.1" byte_order="LittleEndian">
	<UnstructuredGrid>
		<Piece NumberOfPoints="522" NumberOfCells="64">
			<Points>
				<DataArray type="Float64" NumberOfComponents="3" format="ascii">
					 1.00000000E+00	 1.00000000E+00	-5.96046000E-08
					 1.00000000E+00	 5.00000000E-01	-5.96046000E-08
					 1.00000000E+00	 5.00000000E-01	 1.00000000E+00
					 1.00000000E+00	 1.00000000E+00	 1.00000000E+00
					 5.00000000E-01	 1.00000000E+00	-5.96046000E-08
					 5.00000000E-01	 5.00000000E-01	-5.96046000E-08
					 5.00000000E-01	 5.00000000E-01	 1.00000000E+00
					 5.00000000E-01	 1.00000000E+00	 1.00000000E+00
					 1.00000000E+00	 7.50000000E-01	-5.96046000E-08
					 1.00000000E+00	 5.00000000E-01	 5.00000000E-01
					 1.00000000E+00	 7.50000000E-01	 1.00000000E+00
					 1.00000000E+00	 1.00000000E+00	 5.00000000E-01
					 7.50000000E-01	 1.00000000E+00	-5.96046000E-08
					 7.50000000E-01	 5.00000000E-01	-5.96046000E-08
					 7.50000000E-01	 5.00000000E-01	 1.00000000E+00
					 7.50000000E-01	 1.00000000E+00	 1.00000000E+00
					 5.00000000E-01	 7.50000000E-01	-5.96046000E-08
					 5.00000000E-01	 5.00000000E-01	 5.00000000E-01
					 5.00000000E-01	 7.50000000E-01	 1.00000000E+00
					 5.00000000E-01	 1.00000000E+00	 5.00000000E-01
					 1.00000000E+00	-1.49012000E-08	-5.96046000E-08
					 1.00000000E+00	-1.49012000E-08	 1.00000000E+00
					 5.00000000E-01	-1.49012000E-08	-5.96046000E-08
					 5.00000000E-01	-1.49012000E-08	 1.00000000E+00
					 1.00000000E+00	 2.50000000E-01	-5.96046000E-08
					 1.00000000E+00	-1.49012000E-08	 5.00000000E-01
					 1.00000000E+00	 2.50000000E-01	 1.00000000E+00
					 7.50000000E-01	-1.49012000E-08	-5.96046000E-08
					 7.50000000E-01	-1.49012000E-08	 1.00000000E+00
					 5.00000000E-01	 2.50000000E-01	-5.96046000E-08
					 5.00000000E-01	-1.49012000E-08	 5.00000000E-01
					 5.00000000E-01	 2.50000000E-01	 1.00000000E+00
					-7.45058000E-09	 1.00000000E+00	-5.96046000E-08
					-7.45058000E-09	 5.00000000E-01	-5.96046000E-08
					-7.45058000E-09	 5.00000000E-01	 1.00000000E+00
					-7.45058000E-09	 1.00000000E+00	 1.00000000E+00
					 2.50000000E-01	 1.00000000E+00	-5.96046000E-08
					 2.50000000E-01	 5.00000000E-01	-5.96046000E-08
					 2.50000000E-01	 5.00000000E-01	 1.00000000E+00
					 2.50000000E-01	 1.00000000E+00	 1.00000000E+00
					-7.45058000E-09	 7.50000000E-01	-5.96046000E-08
					-7.45058000E-09	 5.00000000E-01	 5.00000000E-01
					-7.45058000E-09	 7.50000000E-01	 1.00000000E+00
					-7.45058000E-09	 1.00000000E+00	 5.00000000E-01
					-7.45058000E-09	-1.49012000E-08	-5.96046000E-08
					-7.45058000E-09	-1.49012000E-08	 1.00000000E+00
					 2.50000000E-01	-1.49012000E-08	-5.96046000E-08
					 2.50000000E-01	-1.49012000E-08	 1.00000000E+00
					-7.45058000E-09	 2.50000000E-01	-5.96046000E-08
					-7.45058000E-09	-1.49012000E-08	 5.00000000E-01
					-7.45058000E-09	 2.50000000E-01	 1.00000000E+00
					 1.00000000E+00	 5.00000000E-01	 2.00000000E+00
					 1.00000000E+00	 1.00000000E+00	 2.00000000E+00
					 5.00000000E-01	 5.00000000E-01	 2.00000000E+00
					 5.00000000E-01	 1.00000000E+00	 2.00000000E+00
					 1.00000000E+00	 5.00000000E-01	 1.50000000E+00
					 1.00000000E+00	 7.50000000E-01	 2.00000000E+00
					 1.00000000E+00	 1.00000000E+00	 1.50000000E+00
					 7.50000000E-01	 5.00000000E-01	 2.00000000E+00
					 7.50000000E-01	 1.00000000E+00	 2.00000000E+00
					 5.00000000E-01	 5.00000000E-01	 1.50000000E+00
					 5.00000000E-01	 7.50000000E-01	 2.00000000E+00
					 5.00000000E-01	 1.00000000E+00	 1.50000000E+00
					 1.00000000E+00	-1.49012000E-08	 2.00000000E+00
					 5.00000000E-01	-1.49012000E-08	 2.00000000E+00
					 1.00000000E+00	-1.49012000E-08	 1.50000000E+00
					 1.00000000E+00	 2.50000000E-01	 2.00000000E+00
					 7.50000000E-01	-1.49012000E-08	 2.00000000E+00
					 5.00000000E-01	-1.49012000E-08	 1.50000000E+00
					 5.00000000E-01	 2.50000000E-01	 2.00000000E+00
					-7.45058000E-09	 5.00000000E-01	 2.00000000E+00
					-7.45058000E-09	 1.00000000E+00	 2.00000000E+00
					 2.50000000E-01	 5.00000000E-01	 2.00000000E+00
					 2.50000000E-01	 1.00000000E+00	 2.00000000E+00
					-7.45058000E-09	 5.00000000E-01	 1.50000000E+00
					-7.45058000E-09	 7.50000000E-01	 2.00000000E+00
					-7.45058000E-09	 1.00000000E+00	 1.50000000E+00
					-7.45058000E-09	-1.49012000E-08	 2.00000000E+00
					 2.50000000E-01	-1.49012000E-08	 2.00000000E+00
					-7.45058000E-09	-1.49012000E-08	 1.50000000E+00
					-7.45058000E-09	 2.50000000E-01	 2.00000000E+00
					 1.00000000E+00	 5.00000000E-01	 3.00000000E+00
					 1.00000000E+00	 1.00000000E+00	 3.00000000E+00
					 5.00000000E-01	 5.00000000E-01	 3.00000000E+00
					 5.00000000E-01	 1.00000000E+00	 3.00000000E+00
					 1.00000000E+00	 5.00000000E-01	 2.50000000E+00
					 1.00000000E+00	 7.50000000E-01	 3.00000000E+00
					 1.00000000E+00	 1.00000000E+00	 2.50000000E+00
					 7.50000000E-01	 5.00000000E-01	 3.00000000E+00
					 7.50000000E-01	 1.00000000E+00	 3.00000000E+00
					 5.00000000E-01	 5.00000000E-01	 2.50000000E+00
					 5.00000000E-01	 7.50000000E-01	 3.00000000E+00
					 5.00000000E-01	 1.00000000E+00	 2.50000000E+00
					 1.00000000E+00	-1.49012000E-08	 3.00000000E+00
					 5.00000000E-01	-1.49012000E-08	 3.00000000E+00
					 1.00000000E+00	-1.49012000E-08	 2.50000000E+00
					 1.00000000E+00	 2.50000000E-01	 3.00000000E+00
					 7.50000000E-01	-1.49012000E-08	 3.00000000E+00
					 5.00000000E-01	-1.49012000E-08	 2.50000000E+00
					 5.00000000E-01	 2.50000000E-01	 3.00000000E+00
					-7.45058000E-09	 5.00000000E-01	 3.00000000E+00
					-7.45058000E-09	 1.00000000E+00	 3.00000000E+00
					 2.50000000E-01	 5.00000000E-01	 3.00000000E+00
					 2.50000000E-01	 1.00000000E+00	 3.00000000E+00
					-7.45058000E-09	 5.00000000E-01	 2.50000000E+00
					-7.45058000E-09	 7.50000000E-01	 3.00000000E+00
					-7.45058000E-09	 1.00000000E+00	 2.50000000E+00
					-7.45058000E-09	-1.49012000E-08	 3.00000000E+00
					 2.50000000E-01	-1.49012000E-08	 3.00000000E+00
					-7.45058000E-09	-1.49012000E-08	 2.50000000E+00
					-7.45058000E-09	 2.50000000E-01	 3.00000000E+00
					 1.00000000E+00	 5.00000000E-01	 4.00000000E+00
					 1.00000000E+00	 1.00000000E+00	 4.00000000E+00
					 5.00000000E-01	 5.00000000E-01	 4.00000000E+00
					 5.00000000E-01	 1.00000000E+00	 4.00000000E+00
					 1.00000000E+00	 5.00000000E-01	 3.50000000E+00
					 1.00000000E+00	 7.50000000E-01	 4.00000000E+00
					 1.00000000E+00	 1.00000000E+00	 3.50000000E+00
					 7.50000000E-01	 5.00000000E-01	 4.00000000E+00
					 7.50000000E-01	 1.00000000E+00	 4.00000000E+00
					 5.00000000E-01	 5.00000000E-01	 3.50000000E+00
					 5.00000000E-01	 7.50000000E-01	 4.00000000E+00
					 5.00000000E-01	 1.00000000E+00	 3.50000000E+00
					 1.00000000E+00	-1.49012000E-08	 4.00000000E+00
					 5.00000000E-01	-1.49012000E-08	 4.00000000E+00
					 1.00000000E+00	-1.49012000E-08	 3.50000000E+00
					 1.00000000E+00	 2.50000000E-01	 4.00000000E+00
					 7.50000000E-01	-1.49012000E-08	 4.00000000E+00
					 5.00000000E-01	-1.49012000E-08	 3.50000000E+00
					 5.00000000E-01	 2.50000000E-01	 4.00000000E+00
					-7.45058000E-09	 5.00000000E-01	 4.00000000E+00
					-7.45058000E-09	 1.00000000E+00	 4.00000000E+00
					 2.50000000E-01	 5.00000000E-01	 4.00000000E+00
					 2.50000000E-01	 1.00000000E+00	 4.00000000E+00
					-7.45058000E-09	 5.00000000E-01	 3.50000000E+00
					-7.45058000E-09	 7.50000000E-01	 4.00000000E+00
					-7.45058000E-09	 1.00000000E+00	 3.50000000E+00
					-7.45058000E-09	-1.49012000E-08	 4.00000000E+00
					 2.50000000E-01	-1.49012000E-08	 4.00000000E+00
					-7.45058000E-09	-1.49012000E-08	 3.50000000E+00
					-7.45058000E-09	 2.50000000E-01	 4.00000000E+00
					 1.00000000E+00	 5.00000000E-01	 5.00000000E+00
					 1.00000000E+00	 1.00000000E+00	 5.00000000E+00
					 5.00000000E-01	 5.00000000E-01	 5.00000000E+00
					 5.00000000E-01	 1.00000000E+00	 5.00000000E+00
					 1.00000000E+00	 5.00000000E-01	 4.50000000E+00
					 1.00000000E+00	 7.50000000E-01	 5.00000000E+00
					 1.00000000E+00	 1.00000000E+00	 4.50000000E+00
					 7.50000000E-01	 5.00000000E-01	 5.00000000E+00
					 7.50000000E-01	 1.00000000E+00	 5.00000000E+00
					 5.00000000E-01	 5.00000000E-01	 4.50000000E+00
					 5.00000000E-01	 7.50000000E-01	 5.00000000E+00
					 5.00000000E-01	 1.00000000E+00	 4.50000000E+00
					 1.00000000E+00	-1.49012000E-08	 5.00000000E+00
					 5.00000000E-01	-1.49012000E-08	 5.00000000E+00
					 1.00000000E+00	-1.49012000E-08	 4.50000000E+00
					 1.00000000E+00	 2.50000000E-01	 5.00000000E+00
					 7.50000000E-01	-1.49012000E-08	 5.00000000E+00
					 5.00000000E-01	-1.49012000E-08	 4.50000000E+00
					 5.00000000E-01	 2.50000000E-01	 5.00000000E+00
					-7.45058000E-09	 5.00000000E-01	 5.00000000E+00
					-7.45058000E-09	 1.00000000E+00	 5.00000000E+00
					 2.50000000E-01	 5.00000000E-01	 5.00000000E+00
					 2.50000000E-01	 1.00000000E+00	 5.00000000E+00
					-7.45058000E-09	 5.00000000E-01	 4.50000000E+00
					-7.45058000E-09	 7.50000000E-01	 5.00000000E+00
					-7.45058000E-09	 1.00000000E+00	 4.50000000E+00
					-7.45058000E-09	-1.49012000E-08	 5.00000000E+00
					 2.50000000E-01	-1.49012000E-08	 5.00000000E+00
					-7.45058000E-09	-1.49012000E-08	 4.50000000E+00
					-7.45058000E-09	 2.50000000E-01	 5.00000000E+00
					 1.00000000E+00	 5.00000000E-01	 6.00000000E+00
					 1.00000000E+00	 1.00000000E+00	 6.00000000E+00
					 5.00000000E-01	 5.00000000E-01	 6.00000000E+00
					 5.00000000E-01	 1.00000000E+00	 6.00000000E+00
					 1.00000000E+00	 5.00000000E-01	 5.50000000E+00
					 1.00000000E+00	 7.50000000E-01	 6.00000000E+00
					 1.00000000E+00	 1.00000000E+00	 5.50000000E+00
					 7.50000000E-01	 5.00000000E-01	 6.00000000E+00
					 7.50000000E-01	 1.00000000E+00	 6.00000000E+00
					 5.00000000E-01	 5.00000000E-01	 5.50000000E+00
					 5.00000000E-01	 7.50000000E-01	 6.00000000E+00
					 5.00000000E-01	 1.00000000E+00	 5.50000000E+00
					 1.00000000E+00	-1.49012000E-08	 6.00000000E+00
[...]
			<PointData>
				<DataArray type="Float32" Name="U" NumberOfComponents="3" ComponentName0="D1" ComponentName1="D2" ComponentName2="D3" format="ascii">
					 0.00000000E+00	 0.00000000E+00	 0.00000000E+00
					 0.00000000E+00	 0.00000000E+00	 0.00000000E+00
					 1.55653000E-05	 5.20031000E-03	 6.40128000E-05
					-2.69342000E-04	 5.41892000E-03	-3.86863000E-03
					 0.00000000E+00	 0.00000000E+00	 0.00000000E+00
					 0.00000000E+00	 0.00000000E+00	 0.00000000E+00
					-1.16443000E-05	 4.71650000E-03	 9.83267000E-05
					-7.74164000E-04	 4.94090000E-03	-3.89720000E-03
					 0.00000000E+00	 0.00000000E+00	 0.00000000E+00
					-1.35691000E-05	 1.46631000E-03	 2.36845000E-05
					-1.49491000E-04	 5.21806000E-03	-1.77285000E-03
					 1.98327000E-04	 1.74618000E-03	-2.01519000E-03
					 0.00000000E+00	 0.00000000E+00	 0.00000000E+00
					 0.00000000E+00	 0.00000000E+00	 0.00000000E+00
					 1.49843000E-05	 5.06174000E-03	 5.42129000E-05
					-5.30036000E-04	 5.26550000E-03	-3.98949000E-03
					 0.00000000E+00	 0.00000000E+00	 0.00000000E+00
					 3.90319000E-06	 1.30541000E-03	 6.18662000E-05
					-3.74466000E-04	 4.74037000E-03	-1.86452000E-03
					-4.10702000E-04	 1.65031000E-03	-1.95178000E-03
					 0.00000000E+00	 0.00000000E+00	 0.00000000E+00
					 2.70679000E-04	 5.50114000E-03	 3.99822000E-03
					 0.00000000E+00	 0.00000000E+00	 0.00000000E+00
					 7.45885000E-04	 4.93167000E-03	 4.03939000E-03
					 0.00000000E+00	 0.00000000E+00	 0.00000000E+00
					-2.69034000E-04	 1.77482000E-03	 2.10277000E-03
					 9.79321000E-05	 5.27294000E-03	 1.89650000E-03
					 0.00000000E+00	 0.00000000E+00	 0.00000000E+00
					 5.02030000E-04	 5.29092000E-03	 4.04446000E-03
					 0.00000000E+00	 0.00000000E+00	 0.00000000E+00
					 3.84697000E-04	 1.68892000E-03	 2.02099000E-03
					 3.48987000E-04	 4.71545000E-03	 2.00190000E-03
					 0.00000000E+00	 0.00000000E+00	 0.00000000E+00
					 0.00000000E+00	 0.00000000E+00	 0.00000000E+00
					-2.24022000E-05	 3.68464000E-03	 1.06627000E-04
					-1.22978000E-03	 3.83532000E-03	-3.83334000E-03
					 0.00000000E+00	 0.00000000E+00	 0.00000000E+00
					 0.00000000E+00	 0.00000000E+00	 0.00000000E+00
					-2.98158000E-05	 4.29110000E-03	 9.84864000E-05
					-9.89837000E-04	 4.47944000E-03	-3.81422000E-03
					 0.00000000E+00	 0.00000000E+00	 0.00000000E+00
					 1.47817000E-05	 6.68630000E-04	 6.24102000E-05
					-5.72579000E-04	 3.67279000E-03	-1.87025000E-03
					-1.00084000E-03	 9.56287000E-04	-1.98002000E-03
					 0.00000000E+00	 0.00000000E+00	 0.00000000E+00
					 1.19865000E-03	 3.94719000E-03	 4.05584000E-03
					 0.00000000E+00	 0.00000000E+00	 0.00000000E+00
					 9.75320000E-04	 4.53224000E-03	 3.95746000E-03
					 0.00000000E+00	 0.00000000E+00	 0.00000000E+00
					 9.79677000E-04	 1.01282000E-03	 2.12373000E-03
					 5.91481000E-04	 3.74567000E-03	 2.04555000E-03
					-4.97949000E-05	 1.67162000E-02	-1.58555000E-04
					-3.65649000E-04	 1.68657000E-02	-6.87487000E-03
					-7.64497000E-05	 1.62239000E-02	-1.08081000E-04
					-6.68623000E-04	 1.63787000E-02	-6.93326000E-03
					-3.71636000E-05	 1.02704000E-02	-8.57511000E-06
					-1.79887000E-04	 1.67587000E-02	-3.49492000E-03
					-3.59218000E-04	 1.05187000E-02	-5.49755000E-03
					-3.59025000E-05	 1.65052000E-02	-1.10644000E-04
					-5.26246000E-04	 1.66368000E-02	-6.85233000E-03
					-3.41254000E-05	 9.73845000E-03	 1.23633000E-06
					-3.71261000E-04	 1.62568000E-02	-3.44278000E-03
					-7.57821000E-04	 9.96656000E-03	-5.55687000E-03
					 2.76051000E-04	 1.68891000E-02	 6.61084000E-03
					 6.11774000E-04	 1.63802000E-02	 6.70026000E-03
					 2.98674000E-04	 1.05204000E-02	 5.47838000E-03
					 7.06995000E-05	 1.67409000E-02	 3.22793000E-03
					 4.19270000E-04	 1.66388000E-02	 6.64066000E-03
					 6.80007000E-04	 9.97613000E-03	 5.54927000E-03
					 2.82979000E-04	 1.63060000E-02	 3.25373000E-03
					-1.94415000E-05	 1.54577000E-02	-5.20272000E-05
					-9.51936000E-04	 1.56082000E-02	-6.79437000E-03
					-7.00028000E-05	 1.58529000E-02	-7.21111000E-05
					-7.97584000E-04	 1.59652000E-02	-6.89662000E-03
					-4.45925000E-05	 8.81874000E-03	 4.73175000E-05
					-5.09348000E-04	 1.55435000E-02	-3.35855000E-03
					-1.20841000E-03	 8.99987000E-03	-5.50187000E-03
					 8.96863000E-04	 1.56419000E-02	 6.70566000E-03
					 7.63966000E-04	 1.60253000E-02	 6.75203000E-03
					 1.12909000E-03	 9.02677000E-03	 5.52385000E-03
					 4.57576000E-04	 1.54597000E-02	 3.24129000E-03
					-4.16600000E-05	 3.23990000E-02	-2.49086000E-04
					-5.47438000E-04	 3.23054000E-02	-8.49628000E-03
					-2.90481000E-05	 3.17365000E-02	-2.49669000E-04
					-7.70733000E-04	 3.17394000E-02	-8.42927000E-03
					-4.30709000E-05	 2.41616000E-02	-1.77040000E-04
					-3.40100000E-04	 3.23471000E-02	-4.32046000E-03
					-4.69236000E-04	 2.42208000E-02	-7.83329000E-03
					-5.15323000E-05	 3.21058000E-02	-2.44104000E-04
					-6.45272000E-04	 3.20922000E-02	-8.52678000E-03
					-4.62570000E-05	 2.36469000E-02	-1.82387000E-04
					-4.26574000E-04	 3.17206000E-02	-4.33606000E-03
					-6.66227000E-04	 2.36813000E-02	-7.78458000E-03
					 5.12217000E-04	 3.25169000E-02	 7.95763000E-03
					 7.17305000E-04	 3.19112000E-02	 8.00103000E-03
					 3.51961000E-04	 2.42986000E-02	 7.41153000E-03
					 2.62786000E-04	 3.24702000E-02	 3.79970000E-03
					 6.50240000E-04	 3.22687000E-02	 8.02652000E-03
					 6.14984000E-04	 2.38007000E-02	 7.46809000E-03
					 3.37497000E-04	 3.17777000E-02	 3.86438000E-03
					-5.43726000E-05	 3.09394000E-02	-1.94661000E-04
					-9.79615000E-04	 3.09290000E-02	-8.45630000E-03
					-4.55487000E-05	 3.13514000E-02	-2.26233000E-04
					-8.78338000E-04	 3.13566000E-02	-8.43476000E-03
					-2.99129000E-05	 2.28707000E-02	-1.53258000E-04
					-5.13430000E-04	 3.08972000E-02	-4.36499000E-03
					-8.60887000E-04	 2.30124000E-02	-7.70627000E-03
					 7.21809000E-04	 3.11228000E-02	 7.98817000E-03
					 7.26777000E-04	 3.15213000E-02	 7.96479000E-03
					 7.95797000E-04	 2.31071000E-02	 7.47550000E-03
					 3.73501000E-04	 3.10169000E-02	 3.93045000E-03
					-7.90234000E-05	 5.11313000E-02	-4.81343000E-04
					-1.76355000E-03	 5.10111000E-02	-9.49426000E-03
					-9.59531000E-05	 4.94389000E-02	-4.04800000E-04
					-1.75901000E-03	 4.94200000E-02	-9.53372000E-03
					-6.48548000E-05	 4.15204000E-02	-3.48394000E-04
					-9.35947000E-04	 5.10822000E-02	-4.83614000E-03
					-1.06130000E-03	 4.14373000E-02	-9.06032000E-03
					-9.47848000E-05	 5.02597000E-02	-4.56062000E-04
					-1.77958000E-03	 5.02433000E-02	-9.61092000E-03
					-6.34278000E-05	 4.03731000E-02	-3.33393000E-04
					-9.33423000E-04	 4.94189000E-02	-4.92845000E-03
					-1.26424000E-03	 4.03522000E-02	-9.06871000E-03
					 1.56562000E-03	 5.11709000E-02	 8.58278000E-03
					 1.54743000E-03	 4.96054000E-02	 8.57518000E-03
					 9.97185000E-04	 4.16069000E-02	 8.40890000E-03
					 7.37153000E-04	 5.11283000E-02	 3.90361000E-03
					 1.56968000E-03	 5.03763000E-02	 8.66957000E-03
					 1.11520000E-03	 4.04837000E-02	 8.38096000E-03
					 7.39207000E-04	 4.95371000E-02	 4.05810000E-03
					-1.08800000E-04	 4.77093000E-02	-4.35037000E-04
					-1.86064000E-03	 4.76779000E-02	-9.44270000E-03
					-9.68903000E-05	 4.86107000E-02	-4.38096000E-04
					-1.80418000E-03	 4.85331000E-02	-9.36677000E-03
					-7.78425000E-05	 3.91177000E-02	-3.21722000E-04
					-9.78184000E-04	 4.76880000E-02	-4.99102000E-03
					-1.38055000E-03	 3.91163000E-02	-9.00971000E-03
					 1.66376000E-03	 4.78296000E-02	 8.61558000E-03
					 1.60445000E-03	 4.87050000E-02	 8.53267000E-03
					 1.19336000E-03	 3.92967000E-02	 8.36450000E-03
					 7.79263000E-04	 4.77732000E-02	 4.10225000E-03
					-9.04624000E-05	 7.02053000E-02	-7.07361000E-04
					-2.57129000E-03	 7.01831000E-02	-9.36484000E-03
					-1.31983000E-04	 6.79111000E-02	-6.76412000E-04
					-2.32516000E-03	 6.77905000E-02	-9.44010000E-03
					-9.70587000E-05	 6.08152000E-02	-6.04242000E-04
					-1.26875000E-03	 7.02160000E-02	-5.00799000E-03
					-2.19903000E-03	 6.07527000E-02	-9.57279000E-03
					-7.71931000E-05	 6.90397000E-02	-7.03797000E-04
					-2.43911000E-03	 6.88949000E-02	-9.42963000E-03
					-8.97819000E-05	 5.87633000E-02	-5.63796000E-04
					-1.21966000E-03	 6.78694000E-02	-4.99964000E-03
					-2.11986000E-03	 5.86751000E-02	-9.58814000E-03
					 2.27122000E-03	 7.01930000E-02	 7.99837000E-03
					 2.13978000E-03	 6.78774000E-02	 8.01000000E-03
					 2.02108000E-03	 6.08611000E-02	 8.41511000E-03
					 1.09320000E-03	 7.01899000E-02	 3.57626000E-03
					 2.15358000E-03	 6.90313000E-02	 8.05917000E-03
					 1.94289000E-03	 5.88006000E-02	 8.43199000E-03
					 9.84411000E-04	 6.79320000E-02	 3.63946000E-03
					-1.02421000E-04	 6.57357000E-02	-7.19301000E-04
					-2.20136000E-03	 6.56184000E-02	-9.33501000E-03
					-1.19862000E-04	 6.68079000E-02	-6.75026000E-04
					-2.29848000E-03	 6.66583000E-02	-9.40834000E-03
					-1.18216000E-04	 5.67491000E-02	-5.23841000E-04
					-1.16542000E-03	 6.56902000E-02	-4.94219000E-03
					-2.10108000E-03	 5.66632000E-02	-9.57207000E-03
					 2.00164000E-03	 6.56881000E-02	 8.04921000E-03
					 2.08165000E-03	 6.67793000E-02	 8.02619000E-03
					 1.89107000E-03	 5.68313000E-02	 8.49173000E-03
					 9.34645000E-04	 6.56957000E-02	 3.62064000E-03
					-9.99073000E-05	 8.66965000E-02	-8.15165000E-04
					-2.57098000E-03	 8.66157000E-02	-8.30794000E-03
					-6.13422000E-05	 8.43784000E-02	-7.36801000E-04
					-2.29558000E-03	 8.41736000E-02	-8.23290000E-03
					-1.21905000E-04	 7.88698000E-02	-7.91218000E-04
					-1.35748000E-03	 8.66577000E-02	-4.64989000E-03
					-2.62016000E-03	 7.87268000E-02	-8.88473000E-03
					-6.61123000E-05	 8.54850000E-02	-7.74716000E-04
					-2.46148000E-03	 8.53707000E-02	-8.26651000E-03
					-1.19994000E-04	 7.65019000E-02	-7.49310000E-04
					-1.18855000E-03	 8.42653000E-02	-4.54508000E-03
					-2.37780000E-03	 7.63466000E-02	-8.89724000E-03
					 2.25082000E-03	 8.66921000E-02	 6.57610000E-03
					 2.06779000E-03	 8.45034000E-02	 6.78082000E-03
					 2.27118000E-03	 7.88208000E-02	 7.29534000E-03
					 1.09497000E-03	 8.67052000E-02	 2.98858000E-03
					 2.14890000E-03	 8.55433000E-02	 6.71220000E-03
					 2.08747000E-03	 7.65072000E-02	 7.43535000E-03
					 1.01923000E-03	 8.44686000E-02	 3.02690000E-03
					-7.04617000E-05	 8.23129000E-02	-6.73914000E-04
					-2.12806000E-03	 8.20473000E-02	-8.17974000E-03
					-7.34560000E-05	 8.32727000E-02	-7.13512000E-04
					-2.15875000E-03	 8.30965000E-02	-8.24861000E-03
					-7.79764000E-05	 7.43756000E-02	-7.00053000E-04
					-1.13319000E-03	 8.22077000E-02	-4.46155000E-03
					-2.12046000E-03	 7.42044000E-02	-8.78865000E-03
					 1.95260000E-03	 8.22751000E-02	 6.72581000E-03
					 2.04265000E-03	 8.32944000E-02	 6.75357000E-03
					 1.93209000E-03	 7.44265000E-02	 7.42735000E-03
					 9.49419000E-04	 8.23165000E-02	 3.07389000E-03
					-1.47735000E-05	 1.00774000E-01	-9.13578000E-04
					-2.48953000E-03	 1.00908000E-01	-7.95111000E-03
					-7.80153000E-05	 9.83779000E-02	-7.96779000E-04
					-2.38557000E-03	 9.82323000E-02	-7.98781000E-03
					-8.57760000E-05	 9.37576000E-02	-8.30944000E-04
					-1.20378000E-03	 1.00889000E-01	-4.36039000E-03
					-2.39482000E-03	 9.36629000E-02	-8.00678000E-03
					-6.17219000E-05	 9.95992000E-02	-8.45115000E-04
					-2.38757000E-03	 9.95895000E-02	-8.06900000E-03
					-6.05127000E-05	 9.14646000E-02	-7.46312000E-04
					-1.24436000E-03	 9.83015000E-02	-4.41704000E-03
					-2.34126000E-03	 9.13339000E-02	-7.92053000E-03
					 2.16757000E-03	 1.00708000E-01	 6.30967000E-03
					 2.23857000E-03	 9.84664000E-02	 6.45203000E-03
					 2.16234000E-03	 9.37501000E-02	 6.39278000E-03
					 1.10875000E-03	 1.00752000E-01	 2.76990000E-03
					 2.22912000E-03	 9.97032000E-02	 6.36369000E-03
					 2.22228000E-03	 9.14703000E-02	 6.46351000E-03
					 1.05868000E-03	 9.84234000E-02	 2.83941000E-03
					-1.57508000E-04	 9.61124000E-02	-8.76074000E-04
					-2.60891000E-03	 9.60265000E-02	-8.01053000E-03
					-1.27389000E-04	 9.72769000E-02	-8.23677000E-04
					-2.49353000E-03	 9.71820000E-02	-8.01768000E-03
					-6.57451000E-05	 8.91930000E-02	-7.84138000E-04
					-1.33078000E-03	 9.60985000E-02	-4.47423000E-03
					-2.27985000E-03	 8.91460000E-02	-7.99155000E-03
					 2.35899000E-03	 9.60928000E-02	 6.30652000E-03
					 2.26527000E-03	 9.73648000E-02	 6.35661000E-03
					 2.18333000E-03	 8.92161000E-02	 6.39436000E-03
					 1.04034000E-03	 9.60903000E-02	 2.81247000E-03
					 1.48993000E-04	 1.15649000E-01	-1.15761000E-03
					-3.21225000E-03	 1.16048000E-01	-7.85312000E-03
					-2.97992000E-05	 1.13227000E-01	-1.21605000E-03
					-2.88297000E-03	 1.12569000E-01	-8.00606000E-03
					-3.63561000E-05	 1.08318000E-01	-1.04115000E-03
					-1.37171000E-03	 1.15842000E-01	-4.51178000E-03
					-2.83455000E-03	 1.08459000E-01	-8.01137000E-03
					 1.64910000E-04	 1.14388000E-01	-1.12022000E-03
					-3.09057000E-03	 1.14105000E-01	-7.91986000E-03
					-1.39233000E-05	 1.05801000E-01	-9.69865000E-04
					-1.49507000E-03	 1.12858000E-01	-4.66780000E-03
					-2.57228000E-03	 1.05732000E-01	-8.18825000E-03
					 3.05846000E-03	 1.15595000E-01	 5.72411000E-03
					 2.86595000E-03	 1.14047000E-01	 6.91310000E-03
					 2.20229000E-03	 1.08062000E-01	 6.10602000E-03
					 1.79835000E-03	 1.15618000E-01	 2.16222000E-03
					 2.89349000E-03	 1.14798000E-01	 6.52922000E-03
					 2.43402000E-03	 1.05906000E-01	 6.55048000E-03
					 1.43661000E-03	 1.13627000E-01	 2.73197000E-03
					-4.38654000E-04	 1.10643000E-01	-1.42623000E-03
					-2.38415000E-03	 1.10911000E-01	-8.52869000E-03
					-2.92807000E-04	 1.11942000E-01	-1.25549000E-03
					-2.62552000E-03	 1.11649000E-01	-8.30221000E-03
					-6.54072000E-05	 1.03191000E-01	-1.05715000E-03
					-1.62092000E-03	 1.10751000E-01	-4.94297000E-03
					-2.46678000E-03	 1.03334000E-01	-8.30426000E-03
					 2.73385000E-03	 1.11009000E-01	 6.90292000E-03
					 2.84748000E-03	 1.12504000E-01	 6.87696000E-03
					 2.65637000E-03	 1.03075000E-01	 6.59227000E-03
					 1.09374000E-03	 1.10824000E-01	 2.57298000E-03
					 0.00000000E+00	 0.00000000E+00	 0.00000000E+00
					 0.00000000E+00	 0.00000000E+00	 0.00000000E+00
					 5.71073000E-05	-1.03554000E-02	-1.66811000E-04
					-1.72205000E-03	-1.12988000E-02	 1.07282000E-02
					 0.00000000E+00	 0.00000000E+00	 0.00000000E+00
					 0.00000000E+00	 0.00000000E+00	 0.00000000E+00
					 6.49547000E-05	-1.15200000E-02	-1.29980000E-04
					-2.53549000E-04	-1.24647000E-02	 1.07777000E-02
					 0.00000000E+00	 0.00000000E+00	 0.00000000E+00
					 4.93013000E-05	-2.01326000E-03	-5.95326000E-05
					-8.95078000E-04	-1.05870000E-02	 5.23408000E-03
					-1.74571000E-03	-3.00918000E-03	 5.31207000E-03
					 0.00000000E+00	 0.00000000E+00	 0.00000000E+00
					 0.00000000E+00	 0.00000000E+00	 0.00000000E+00
					 8.28923000E-05	-1.12164000E-02	-1.74077000E-04
					-9.98362000E-04	-1.20905000E-02	 1.06898000E-02
					 0.00000000E+00	 0.00000000E+00	 0.00000000E+00
					 3.98978000E-05	-2.91613000E-03	-5.08894000E-05
					-1.11660000E-04	-1.17128000E-02	 5.23516000E-03
					-1.27200000E-04	-3.87521000E-03	 5.15275000E-03
					 0.00000000E+00	 0.00000000E+00	 0.00000000E+00
					 2.16884000E-03	-1.08670000E-02	-1.09719000E-02
					 0.00000000E+00	 0.00000000E+00	 0.00000000E+00
					 4.82987000E-04	-1.21883000E-02	-1.11360000E-02
					 0.00000000E+00	 0.00000000E+00	 0.00000000E+00
					 1.92746000E-03	-2.83392000E-03	-5.47067000E-03
					 1.04052000E-03	-1.03679000E-02	-5.52381000E-03
					 0.00000000E+00	 0.00000000E+00	 0.00000000E+00
					 1.29947000E-03	-1.18273000E-02	-1.10375000E-02
					 0.00000000E+00	 0.00000000E+00	 0.00000000E+00
					 2.14312000E-04	-3.82728000E-03	-5.24396000E-03
					 3.06112000E-04	-1.15931000E-02	-5.53224000E-03
					 0.00000000E+00	 0.00000000E+00	 0.00000000E+00
					 0.00000000E+00	 0.00000000E+00	 0.00000000E+00
					 3.18069000E-05	-1.12539000E-02	-7.70950000E-05
					 1.24798000E-03	-1.21023000E-02	 1.08104000E-02
					 0.00000000E+00	 0.00000000E+00	 0.00000000E+00
					 0.00000000E+00	 0.00000000E+00	 0.00000000E+00
					 3.54397000E-05	-1.16628000E-02	-1.03260000E-04
					 4.89431000E-04	-1.25753000E-02	 1.08060000E-02
					 0.00000000E+00	 0.00000000E+00	 0.00000000E+00
					 5.82405000E-05	-2.34501000E-03	 2.97722000E-05
					 5.83467000E-04	-1.14465000E-02	 5.18455000E-03
					 1.54667000E-03	-3.26958000E-03	 5.42431000E-03
					 0.00000000E+00	 0.00000000E+00	 0.00000000E+00
					-9.31652000E-04	-1.17342000E-02	-1.08819000E-02
					 0.00000000E+00	 0.00000000E+00	 0.00000000E+00
					-2.10567000E-04	-1.22269000E-02	-1.10640000E-02
					 0.00000000E+00	 0.00000000E+00	 0.00000000E+00
					-1.48356000E-03	-3.19866000E-03	-5.39285000E-03
					-4.04768000E-04	-1.12408000E-02	-5.35423000E-03
					-5.82653000E-05	-4.17076000E-02	-7.05925000E-04
					-3.24875000E-03	-4.26393000E-02	 1.93558000E-02
					 8.08813000E-06	-4.44239000E-02	-7.78513000E-04
					-2.06081000E-03	-4.52612000E-02	 1.92837000E-02
					 6.71418000E-05	-2.37365000E-02	-3.16445000E-04
					-1.66358000E-03	-4.20218000E-02	 9.37508000E-03
					-2.46187000E-03	-2.47428000E-02	 1.54852000E-02
					-3.79835000E-06	-4.31997000E-02	-7.14926000E-04
					-2.68236000E-03	-4.40959000E-02	 1.91813000E-02
					 6.00796000E-05	-2.56531000E-02	-3.93495000E-04
					-1.01325000E-03	-4.47440000E-02	 9.15096000E-03
					-1.14025000E-03	-2.66178000E-02	 1.54879000E-02
					 3.30721000E-03	-4.19243000E-02	-2.06921000E-02
					 2.17287000E-03	-4.45928000E-02	-2.09644000E-02
					 2.72269000E-03	-2.41158000E-02	-1.61429000E-02
					 1.65306000E-03	-4.16891000E-02	-1.06830000E-02
					 2.73402000E-03	-4.34006000E-02	-2.06921000E-02
					 1.31162000E-03	-2.61086000E-02	-1.63490000E-02
					 1.11774000E-03	-4.43740000E-02	-1.07148000E-02
					 8.07169000E-05	-4.59853000E-02	-8.08059000E-04
					-9.52681000E-04	-4.68794000E-02	 1.91921000E-02
					 2.63654000E-05	-4.53123000E-02	-8.01031000E-04
					-1.49554000E-03	-4.62195000E-02	 1.94347000E-02
					 6.06203000E-05	-2.61897000E-02	-3.27089000E-04
					-4.23760000E-04	-4.62394000E-02	 8.89904000E-03
					 3.27762000E-04	-2.70228000E-02	 1.54145000E-02
					 1.19120000E-03	-4.61601000E-02	-2.08808000E-02
					 1.70015000E-03	-4.54084000E-02	-2.10906000E-02
					-8.35222000E-05	-2.66459000E-02	-1.62554000E-02
					 5.76372000E-04	-4.60012000E-02	-1.05475000E-02
					-8.62677000E-05	-8.81962000E-02	-1.59707000E-03
					-4.25069000E-03	-8.90172000E-02	 2.40618000E-02
					-1.29780000E-05	-9.19398000E-02	-1.82357000E-03
					-3.43427000E-03	-9.30002000E-02	 2.40225000E-02
					-1.43828000E-05	-6.35214000E-02	-1.06113000E-03
					-2.11562000E-03	-8.85561000E-02	 1.12152000E-02
					-3.79434000E-03	-6.44547000E-02	 2.21260000E-02
					-6.68498000E-05	-9.01670000E-02	-1.71988000E-03
					-3.79086000E-03	-9.11721000E-02	 2.40103000E-02
					 1.66995000E-05	-6.67656000E-02	-1.24748000E-03
					-1.76869000E-03	-9.23590000E-02	 1.09962000E-02
					-2.81532000E-03	-6.77487000E-02	 2.20742000E-02
					 4.21899000E-03	-8.76992000E-02	-2.74187000E-02
					 3.50957000E-03	-9.16623000E-02	-2.76165000E-02
					 3.70556000E-03	-6.33339000E-02	-2.44107000E-02
					 1.98604000E-03	-8.78995000E-02	-1.44615000E-02
					 3.86998000E-03	-8.98201000E-02	-2.74825000E-02
					 2.88992000E-03	-6.66578000E-02	-2.45525000E-02
					 1.70969000E-03	-9.17365000E-02	-1.46376000E-02
					-1.06419000E-05	-9.51333000E-02	-2.00844000E-03
					-3.07070000E-03	-9.62651000E-02	 2.37228000E-02
					-1.66759000E-05	-9.36195000E-02	-1.90990000E-03
					-3.24053000E-03	-9.45904000E-02	 2.39453000E-02
					 9.26996000E-05	-6.91792000E-02	-1.35915000E-03
					-1.46477000E-03	-9.56043000E-02	 1.06969000E-02
					-2.04296000E-03	-7.02780000E-02	 2.18616000E-02
					 2.81135000E-03	-9.48911000E-02	-2.78371000E-02
					 3.16746000E-03	-9.33666000E-02	-2.78506000E-02
					 2.08190000E-03	-6.91292000E-02	-2.46000000E-02
					 1.42613000E-03	-9.49404000E-02	-1.47868000E-02
					 2.34777000E-05	-1.44516000E-01	-3.11556000E-03
					-3.89242000E-03	-1.45392000E-01	 2.57186000E-02