# vtk DataFile Version 3.0

ASCII
DATASET UNSTRUCTURED_GRID

POINTS 522 double
	 1.00000000E+00	 1.00000000E+00	-5.96046000E-08
	 1.00000000E+00	 5.00000000E-01	-5.96046000E-08
	 1.00000000E+00	 5.00000000E-01	 1.00000000E+00
	 1.00000000E+00	 1.00000000E+00	 1.00000000E+00
	 5.00000000E-01	 1.00000000E+00	-5.96046000E-08
	 5.00000000E-01	 5.00000000E-01	-5.96046000E-08
	 5.00000000E-01	 5.00000000E-01	 1.00000000E+00
	 5.00000000E-01	 1.00000000E+00	 1.00000000E+00
	 1.00000000E+00	 7.50000000E-01	-5.96046000E-08
	 1.00000000E+00	 5.00000000E-01	 5.00000000E-01
	 1.00000000E+00	 7.50000000E-01	 1.00000000E+00
	 1.00000000E+00	 1.00000000E+00	 5.00000000E-01
	 7.50000000E-01	 1.00000000E+00	-5.96046000E-08
	 7.50000000E-01	 5.00000000E-01	-5.96046000E-08
	 7.50000000E-01	 5.00000000E-01	 1.00000000E+00
	 7.50000000E-01	 1.00000000E+00	 1.00000000E+00
	 5.00000000E-01	 7.50000000E-01	-5.96046000E-08
	 5.00000000E-01	 5.00000000E-01	 5.00000000E-01
	 5.00000000E-01	 7.50000000E-01	 1.00000000E+00
	 5.00000000E-01	 1.00000000E+00	 5.00000000E-01
	 1.00000000E+00	-1.49012000E-08	-5.96046000E-08
	 1.00000000E+00	-1.49012000E-08	 1.00000000E+00
	 5.00000000E-01	-1.49012000E-08	-5.96046000E-08
	 5.00000000E-01	-1.49012000E-08	 1.00000000E+00
	 1.00000000E+00	 2.50000000E-01	-5.96046000E-08
	 1.00000000E+00	-1.49012000E-08	 5.00000000E-01
	 1.00000000E+00	 2.50000000E-01	 1.00000000E+00
	 7.50000000E-01	-1.49012000E-08	-5.96046000E-08
	 7.50000000E-01	-1.49012000E-08	 1.00000000E+00
	 5.00000000E-01	 2.50000000E-01	-5.96046000E-08
	 5.00000000E-01	-1.49012000E-08	 5.00000000E-01
	 5.00000000E-01	 2.50000000E-01	 1.00000000E+00
	-7.45058000E-09	 1.00000000E+00	-5.96046000E-08
	-7.45058000E-09	 5.00000000E-01	-5.96046000E-08
	-7.45058000E-09	 5.00000000E-01	 1.00000000E+00
	-7.45058000E-09	 1.00000000E+00	 1.00000000E+00
	 2.50000000E-01	 1.00000000E+00	-5.96046000E-08
	 2.50000000E-01	 5.00000000E-01	-5.96046000E-08
	 2.50000000E-01	 5.00000000E-01	 1.00000000E+00
	 2.50000000E-01	 1.00000000E+00	 1.00000000E+00
	-7.45058000E-09	 7.50000000E-01	-5.96046000E-08
	-7.45058000E-09	 5.00000000E-01	 5.00000000E-01
	-7.45058000E-09	 7.50000000E-01	 1.00000000E+00
	-7.45058000E-09	 1.00000000E+00	 5.00000000E-01
	-7.45058000E-09	-1.49012000E-08	-5.96046000E-08
	-7.45058000E-09	-1.49012000E-08	 1.00000000E+00
	 2.50000000E-01	-1.49012000E-08	-5.96046000E-08
	 2.50000000E-01	-1.49012000E-08	 1.00000000E+00
	-7.45058000E-09	 2.50000000E-01	-5.96046000E-08
	-7.45058000E-09	-1.49012000E-08	 5.00000000E-01
	-7.45058000E-09	 2.50000000E-01	 1.00000000E+00
	 1.00000000E+00	 5.00000000E-01	 2.00000000E+00
	 1.00000000E+00	 1.00000000E+00	 2.00000000E+00
	 5.00000000E-01	 5.00000000E-01	 2.00000000E+00
	 5.00000000E-01	 1.00000000E+00	 2.00000000E+00
	 1.00000000E+00	 5.00000000E-01	 1.50000000E+00
	 1.00000000E+00	 7.50000000E-01	 2.00000000E+00
	 1.00000000E+00	 1.00000000E+00	 1.50000000E+00
	 7.50000000E-01	 5.00000000E-01	 2.00000000E+00
	 7.50000000E-01	 1.00000000E+00	 2.00000000E+00
	 5.00000000E-01	 5.00000000E-01	 1.50000000E+00
	 5.00000000E-01	 7.50000000E-01	 2.00000000E+00
	 5.00000000E-01	 1.00000000E+00	 1.50000000E+00
	 1.00000000E+00	-1.49012000E-08	 2.00000000E+00
	 5.00000000E-01	-1.49012000E-08	 2.00000000E+00
	 1.00000000E+00	-1.49012000E-08	 1.50000000E+00
	 1.00000000E+00	 2.50000000E-01	 2.00000000E+00
	 7.50000000E-01	-1.49012000E-08	 2.00000000E+00
	 5.00000000E-01	-1.49012000E-08	 1.50000000E+00
	 5.00000000E-01	 2.50000000E-01	 2.00000000E+00
	-7.45058000E-09	 5.00000000E-01	 2.00000000E+00
	-7.45058000E-09	 1.00000000E+00	 2.00000000E+00
	 2.50000000E-01	 5.00000000E-01	 2.00000000E+00
	 2.50000000E-01	 1.00000000E+00	 2.00000000E+00
	-7.45058000E-09	 5.00000000E-01	 1.50000000E+00
	-7.45058000E-09	 7.50000000E-01	 2.00000000E+00
	-7.45058000E-09	 1.00000000E+00	 1.50000000E+00
	-7.45058000E-09	-1.49012000E-08	 2.00000000E+00
	 2.50000000E-01	-1.49012000E-08	 2.00000000E+00
	-7.45058000E-09	-1.49012000E-08	 1.50000000E+00
	-7.45058000E-09	 2.50000000E-01	 2.00000000E+00
	 1.00000000E+00	 5.00000000E-01	 3.00000000E+00
	 1.00000000E+00	 1.00000000E+00	 3.00000000E+00
	 5.00000000E-01	 5.00000000E-01	 3.00000000E+00
	 5.00000000E-01	 1.00000000E+00	 3.00000000E+00
	 1.00000000E+00	 5.00000000E-01	 2.50000000E+00
	 1.00000000E+00	 7.50000000E-01	 3.00000000E+00
	 1.00000000E+00	 1.00000000E+00	 2.50000000E+00
	 7.50000000E-01	 5.00000000E-01	 3.00000000E+00
	 7.50000000E-01	 1.00000000E+00	 3.00000000E+00
	 5.00000000E-01	 5.00000000E-01	 2.50000000E+00
	 5.00000000E-01	 7.50000000E-01	 3.00000000E+00
	 5.00000000E-01	 1.00000000E+00	 2.50000000E+00
	 1.00000000E+00	-1.49012000E-08	 3.00000000E+00
	 5.00000000E-01	-1.49012000E-08	 3.00000000E+00
	 1.00000000E+00	-1.49012000E-08	 2.50000000E+00
	 1.00000000E+00	 2.50000000E-01	 3.00000000E+00
	 7.50000000E-01	-1.49012000E-08	 3.00000000E+00
	 5.00000000E-01	-1.49012000E-08	 2.50000000E+00
	 5.00000000E-01	 2.50000000E-01	 3.00000000E+00
	-7.45058000E-09	 5.00000000E-01	 3.00000000E+00
	-7.45058000E-09	 1.00000000E+00	 3.00000000E+00
	 2.50000000E-01	 5.00000000E-01	 3.00000000E+00
	 2.50000000E-01	 1.00000000E+00	 3.00000000E+00
	-7.45058000E-09	 5.00000000E-01	 2.50000000E+00
	-7.45058000E-09	 7.50000000E-01	 3.00000000E+00
	-7.45058000E-09	 1.00000000E+00	 2.50000000E+00
	-7.45058000E-09	-1.49012000E-08	 3.00000000E+00
	 2.50000000E-01	-1.49012000E-08	 3.00000000E+00
	-7.45058000E-09	-1.49012000E-08	 2.50000000E+00
	-7.45058000E-09	 2.50000000E-01	 3.00000000E+00
	 1.00000000E+00	 5.00000000E-01	 4.00000000E+00
	 1.00000000E+00	 1.00000000E+00	 4.00000000E+00
	 5.00000000E-01	 5.00000000E-01	 4.00000000E+00
	 5.00000000E-01	 1.00000000E+00	 4.00000000E+00
	 1.00000000E+00	 5.00000000E-01	 3.50000000E+00
	 1.00000000E+00	 7.50000000E-01	 4.00000000E+00
	 1.00000000E+00	 1.00000000E+00	 3.50000000E+00
	 7.50000000E-01	 5.00000000E-01	 4.00000000E+00
	 7.50000000E-01	 1.00000000E+00	 4.00000000E+00
	 5.00000000E-01	 5.00000000E-01	 3.50000000E+00
	 5.00000000E-01	 7.50000000E-01	 4.00000000E+00
	 5.00000000E-01	 1.00000000E+00	 3.50000000E+00
	 1.00000000E+00	-1.49012000E-08	 4.00000000E+00
	 5.00000000E-01	-1.49012000E-08	 4.00000000E+00
	 1.00000000E+00	-1.49012000E-08	 3.50000000E+00
	 1.00000000E+00	 2.50000000E-01	 4.00000000E+00
	 7.50000000E-01	-1.49012000E-08	 4.00000000E+00
	 5.00000000E-01	-1.49012000E-08	 3.50000000E+00
	 5.00000000E-01	 2.50000000E-01	 4.00000000E+00
	-7.45058000E-09	 5.00000000E-01	 4.00000000E+00
	-7.45058000E-09	 1.00000000E+00	 4.00000000E+00
	 2.50000000E-01	 5.00000000E-01	 4.00000000E+00
	 2.50000000E-01	 1.00000000E+00	 4.00000000E+00
	-7.45058000E-09	 5.00000000E-01	 3.50000000E+00
	-7.45058000E-09	 7.50000000E-01	 4.00000000E+00
	-7.45058000E-09	 1.00000000E+00	 3.50000000E+00
	-7.45058000E-09	-1.49012000E-08	 4.00000000E+00
	 2.50000000E-01	-1.49012000E-08	 4.00000000E+00
	-7.45058000E-09	-1.49012000E-08	 3.50000000E+00
	-7.45058000E-09	 2.50000000E-01	 4.00000000E+00
	 1.00000000E+00	 5.00000000E-01	 5.00000000E+00
	 1.00000000E+00	 1.00000000E+00	 5.00000000E+00
	 5.00000000E-01	 5.00000000E-01	 5.00000000E+00
	 5.00000000E-01	 1.00000000E+00	 5.00000000E+00
	 1.00000000E+00	 5.00000000E-01	 4.50000000E+00
	 1.00000000E+00	 7.50000000E-01	 5.00000000E+00
	 1.00000000E+00	 1.00000000E+00	 4.50000000E+00
	 7.50000000E-01	 5.00000000E-01	 5.00000000E+00
	 7.50000000E-01	 1.00000000E+00	 5.00000000E+00
	 5.00000000E-01	 5.00000000E-01	 4.50000000E+00
	 5.00000000E-01	 7.50000000E-01	 5.00000000E+00
	 5.00000000E-01	 1.00000000E+00	 4.50000000E+00
	 1.00000000E+00	-1.49012000E-08	 5.00000000E+00
	 5.00000000E-01	-1.49012000E-08	 5.00000000E+00
	 1.00000000E+00	-1.49012000E-08	 4.50000000E+00
	 1.00000000E+00	 2.50000000E-01	 5.00000000E+00
	 7.50000000E-01	-1.49012000E-08	 5.00000000E+00
	 5.00000000E-01	-1.49012000E-08	 4.50000000E+00
	 5.00000000E-01	 2.50000000E-01	 5.00000000E+00
	-7.45058000E-09	 5.00000000E-01	 5.00000000E+00
	-7.45058000E-09	 1.00000000E+00	 5.00000000E+00
	 2.50000000E-01	 5.00000000E-01	 5.00000000E+00
	 2.50000000E-01	 1.00000000E+00	 5.00000000E+00
	-7.45058000E-09	 5.00000000E-01	 4.50000000E+00
	-7.45058000E-09	 7.50000000E-01	 5.00000000E+00
	-7.45058000E-09	 1.00000000E+00	 4.50000000E+00
	-7.45058000E-09	-1.49012000E-08	 5.00000000E+00
	 2.50000000E-01	-1.49012000E-08	 5.00000000E+00
	-7.45058000E-09	-1.49012000E-08	 4.50000000E+00
	-7.45058000E-09	 2.50000000E-01	 5.00000000E+00
	 1.00000000E+00	 5.00000000E-01	 6.00000000E+00
	 1.00000000E+00	 1.00000000E+00	 6.00000000E+00
	 5.00000000E-01	 5.00000000E-01	 6.00000000E+00
	 5.00000000E-01	 1.00000000E+00	 6.00000000E+00
	 1.00000000E+00	 5.00000000E-01	 5.50000000E+00
	 1.00000000E+00	 7.50000000E-01	 6.00000000E+00
	 1.00000000E+00	 1.00000000E+00	 5.50000000E+00
	 7.50000000E-01	 5.00000000E-01	 6.00000000E+00
	 7.50000000E-01	 1.00000000E+00	 6.00000000E+00
	 5.00000000E-01	 5.00000000E-01	 5.50000000E+00
	 5.00000000E-01	 7.50000000E-01	 6.00000000E+00
	 5.00000000E-01	 1.00000000E+00	 5.50000000E+00
	 1.00000000E+00	-1.49012000E-08	 6.00000000E+00
	 5.00000000E-01	-1.49012000E-08	 6.00000000E+00
	 1.00000000E+00	-1.49012000E-08	 5.50000000E+00
	 1.00000000E+00	 2.50000000E-01	 6.00000000E+00
	 7.50000000E-01	-1.49012000E-08	 6.00000000E+00
	 5.00000000E-01	-1.49012000E-08	 5.50000000E+00
	 5.00000000E-01	 2.50000000E-01	 6.00000000E+00
	-7.45058000E-09	 5.00000000E-01	 6.00000000E+00
	-7.45058000E-09	 1.00000000E+00	 6.00000000E+00
	 2.50000000E-01	 5.00000000E-01	 6.00000000E+00
	 2.50000000E-01	 1.00000000E+00	 6.00000000E+00
	-7.45058000E-09	 5.00000000E-01	 5.50000000E+00
	-7.45058000E-09	 7.50000000E-01	 6.00000000E+00
	-7.45058000E-09	 1.00000000E+00	 5.50000000E+00
	-7.45058000E-09	-1.49012000E-08	 6.00000000E+00
	 2.50000000E-01	-1.49012000E-08	 6.00000000E+00
	-7.45058000E-09	-1.49012000E-08	 5.50000000E+00
	-7.45058000E-09	 2.50000000E-01	 6.00000000E+00
	 1.00000000E+00	 5.00000000E-01	 7.00000000E+00
[...]
POINT_DATA 522
FIELD U 1
	U 3 522 double
		 0.00000000E+00	 0.00000000E+00	 0.00000000E+00
		 0.00000000E+00	 0.00000000E+00	 0.00000000E+00
		-7.96230000E-06	-2.29922000E-03	 7.93868000E-05
		 2.80558000E-04	-2.38140000E-03	 1.67651000E-03
		 0.00000000E+00	 0.00000000E+00	 0.00000000E+00
		 0.00000000E+00	 0.00000000E+00	 0.00000000E+00
		 7.90680000E-07	-1.86195000E-03	 8.34435000E-05
		 5.24756000E-04	-1.98340000E-03	 1.68381000E-03
		 0.00000000E+00	 0.00000000E+00	 0.00000000E+00
		-2.94100000E-05	-6.73270000E-04	 4.01746000E-05
		 1.43922000E-04	-2.33090000E-03	 7.72115000E-04
		-1.41136000E-05	-8.05094000E-04	 8.78454000E-04
		 0.00000000E+00	 0.00000000E+00	 0.00000000E+00
		 0.00000000E+00	 0.00000000E+00	 0.00000000E+00
		-1.94081000E-05	-2.09822000E-03	 8.97545000E-05
		 4.24499000E-04	-2.20931000E-03	 1.76552000E-03
		 0.00000000E+00	 0.00000000E+00	 0.00000000E+00
		 1.71745000E-06	-5.32579000E-04	 3.56487000E-05
		 2.59596000E-04	-1.88112000E-03	 8.44216000E-04
		 2.58725000E-04	-6.37369000E-04	 8.10931000E-04
		 0.00000000E+00	 0.00000000E+00	 0.00000000E+00
		-3.68189000E-04	-2.40492000E-03	-1.47206000E-03
		 0.00000000E+00	 0.00000000E+00	 0.00000000E+00
		-5.34485000E-04	-1.95010000E-03	-1.55896000E-03
		 0.00000000E+00	 0.00000000E+00	 0.00000000E+00
		 2.12344000E-05	-7.87144000E-04	-7.56498000E-04
		-1.64609000E-04	-2.28289000E-03	-6.41507000E-04
		 0.00000000E+00	 0.00000000E+00	 0.00000000E+00
		-4.36477000E-04	-2.18638000E-03	-1.60087000E-03
		 0.00000000E+00	 0.00000000E+00	 0.00000000E+00
		-2.57417000E-04	-6.49969000E-04	-7.37696000E-04
		-2.54609000E-04	-1.89097000E-03	-7.14244000E-04
		 0.00000000E+00	 0.00000000E+00	 0.00000000E+00
		 0.00000000E+00	 0.00000000E+00	 0.00000000E+00
		-2.42489000E-05	-1.23443000E-03	 4.41016000E-05
		 7.05777000E-04	-1.40244000E-03	 1.65892000E-03
		 0.00000000E+00	 0.00000000E+00	 0.00000000E+00
		 0.00000000E+00	 0.00000000E+00	 0.00000000E+00
		-1.35926000E-05	-1.56166000E-03	 4.74084000E-05
		 6.21102000E-04	-1.69316000E-03	 1.56602000E-03
		 0.00000000E+00	 0.00000000E+00	 0.00000000E+00
		 3.79164000E-05	-1.74726000E-04	 3.14466000E-05
		 3.63402000E-04	-1.27428000E-03	 9.22100000E-04
		 4.77609000E-04	-3.53329000E-04	 8.85998000E-04
		 0.00000000E+00	 0.00000000E+00	 0.00000000E+00
		-6.92850000E-04	-1.35782000E-03	-1.52538000E-03
		 0.00000000E+00	 0.00000000E+00	 0.00000000E+00
		-6.24979000E-04	-1.68614000E-03	-1.47521000E-03
		 0.00000000E+00	 0.00000000E+00	 0.00000000E+00
		-4.04748000E-04	-3.73393000E-04	-8.07062000E-04
		-3.46784000E-04	-1.23675000E-03	-7.78134000E-04
		 1.94564000E-05	-7.23687000E-03	 7.09815000E-05
		 7.22349000E-04	-7.37504000E-03	 2.96913000E-03
		 1.60143000E-05	-6.46233000E-03	 5.77904000E-05
		 8.67695000E-04	-6.54555000E-03	 2.90488000E-03
		 3.70998000E-06	-4.46221000E-03	 1.05854000E-04
		 3.76083000E-04	-7.26649000E-03	 1.49071000E-03
		 5.50056000E-04	-4.57717000E-03	 2.34092000E-03
		 1.55125000E-05	-6.85961000E-03	 6.30302000E-05
		 7.78051000E-04	-6.95937000E-03	 2.88974000E-03
		 2.13814000E-06	-3.82664000E-03	 6.98998000E-05
		 4.38969000E-04	-6.49750000E-03	 1.47857000E-03
		 7.31118000E-04	-3.96213000E-03	 2.33248000E-03
		-6.97547000E-04	-7.30932000E-03	-2.80682000E-03
		-8.35273000E-04	-6.54742000E-03	-2.83129000E-03
		-5.74762000E-04	-4.56023000E-03	-2.19903000E-03
		-3.48375000E-04	-7.27191000E-03	-1.35324000E-03
		-7.49144000E-04	-6.94186000E-03	-2.78473000E-03
		-7.24880000E-04	-3.91937000E-03	-2.21998000E-03
		-4.27472000E-04	-6.48139000E-03	-1.38134000E-03
		 1.64228000E-05	-5.48790000E-03	 1.17165000E-05
		 1.11860000E-03	-5.58820000E-03	 2.85891000E-03
		 1.79856000E-05	-6.00450000E-03	 2.10883000E-05
		 9.91451000E-04	-6.09919000E-03	 2.92092000E-03
		 1.77646000E-05	-2.99131000E-03	 3.99218000E-05
		 5.22473000E-04	-5.52125000E-03	 1.41037000E-03
		 9.46066000E-04	-3.05121000E-03	 2.30462000E-03
		-1.09009000E-03	-5.55881000E-03	-2.86622000E-03
		-9.52091000E-04	-6.09848000E-03	-2.85479000E-03
		-9.76616000E-04	-3.03169000E-03	-2.20258000E-03
		-5.16682000E-04	-5.53132000E-03	-1.38344000E-03
		 4.71693000E-05	-1.35649000E-02	 1.43112000E-05
		 2.11403000E-04	-1.36602000E-02	 3.64479000E-03
		 3.03728000E-05	-1.33750000E-02	-4.35598000E-05
		 2.65980000E-04	-1.34369000E-02	 3.66794000E-03
		 3.71393000E-05	-1.02612000E-02	 1.62032000E-05
		 9.16189000E-05	-1.36076000E-02	 1.94554000E-03
		 5.59722000E-04	-1.04020000E-02	 3.33489000E-03
		 4.43525000E-05	-1.34635000E-02	-3.17204000E-05
		 2.44839000E-04	-1.35404000E-02	 3.58821000E-03
		 2.72843000E-05	-9.72936000E-03	 6.37691000E-06
		 1.28133000E-04	-1.33807000E-02	 1.80709000E-03
		 6.19405000E-04	-9.80905000E-03	 3.38737000E-03
		-8.67256000E-05	-1.36814000E-02	-3.70240000E-03
		-2.19926000E-04	-1.34331000E-02	-3.70112000E-03
		-4.67222000E-04	-1.03803000E-02	-3.28699000E-03
		 1.74844000E-05	-1.35916000E-02	-1.95910000E-03
		-1.68489000E-04	-1.35319000E-02	-3.63139000E-03
		-5.59342000E-04	-9.78847000E-03	-3.35941000E-03
		-4.99058000E-05	-1.34006000E-02	-1.85147000E-03
		 1.01852000E-05	-1.31332000E-02	-6.45669000E-06
		 3.20596000E-04	-1.31548000E-02	 3.64037000E-03
		 2.25534000E-05	-1.32760000E-02	-3.06572000E-05
		 2.77608000E-04	-1.33221000E-02	 3.79262000E-03
		 8.36664000E-06	-9.09813000E-03	-7.72696000E-06
		 1.66162000E-04	-1.31392000E-02	 1.69659000E-03
		 7.91603000E-04	-9.12829000E-03	 3.33290000E-03
		-2.87701000E-04	-1.31767000E-02	-3.74878000E-03
		-2.59965000E-04	-1.33103000E-02	-3.81388000E-03
		-7.17971000E-04	-9.09125000E-03	-3.36182000E-03
		-1.17454000E-04	-1.31280000E-02	-1.77665000E-03
		 4.85668000E-05	-2.04256000E-02	-1.56874000E-04
		-9.73756000E-04	-2.04612000E-02	 4.30851000E-03
		 3.83674000E-05	-2.13749000E-02	-1.03903000E-04
		-8.87841000E-04	-2.14550000E-02	 4.33825000E-03
		 2.76600000E-05	-1.68222000E-02	-6.59938000E-05
		-4.52472000E-04	-2.04218000E-02	 2.14794000E-03
		-4.29160000E-04	-1.68200000E-02	 3.98002000E-03
		 4.00316000E-05	-2.09331000E-02	-9.95840000E-05
		-9.33312000E-04	-2.10263000E-02	 4.27623000E-03
		 6.85505000E-06	-1.71985000E-02	-7.79491000E-05
		-3.85071000E-04	-2.13965000E-02	 2.13291000E-03
		-3.28697000E-04	-1.72635000E-02	 3.95006000E-03
		 1.03731000E-03	-2.04524000E-02	-4.55595000E-03
		 9.37043000E-04	-2.14251000E-02	-4.52512000E-03
		 4.28040000E-04	-1.68677000E-02	-4.12109000E-03
		 4.88760000E-04	-2.04206000E-02	-2.42259000E-03
		 9.98917000E-04	-2.09935000E-02	-4.48014000E-03
		 3.13497000E-04	-1.72551000E-02	-4.05690000E-03
		 4.55338000E-04	-2.13908000E-02	-2.34560000E-03
		 5.76507000E-05	-2.21862000E-02	-5.83269000E-05
		-6.93417000E-04	-2.22464000E-02	 4.44458000E-03
		 4.01840000E-05	-2.18035000E-02	-5.91032000E-05
		-7.84365000E-04	-2.18816000E-02	 4.39576000E-03
		 1.09526000E-05	-1.74614000E-02	-6.59372000E-05
		-3.00288000E-04	-2.21902000E-02	 2.16545000E-03
		-2.11913000E-04	-1.75595000E-02	 3.99107000E-03
		 8.02791000E-04	-2.22352000E-02	-4.45870000E-03
		 8.61627000E-04	-2.17942000E-02	-4.56229000E-03
		 2.05528000E-04	-1.75272000E-02	-4.08212000E-03
		 3.83976000E-04	-2.21900000E-02	-2.18995000E-03
		-3.66599000E-05	-3.02974000E-02	-9.47922000E-05
		-1.03643000E-03	-3.03882000E-02	 5.16220000E-03
		 4.98558000E-05	-3.12605000E-02	-3.69018000E-05
		-9.14110000E-04	-3.13377000E-02	 5.25541000E-03
		 3.34571000E-05	-2.50521000E-02	-1.21293000E-04
		-5.04604000E-04	-3.03170000E-02	 2.46519000E-03
		-1.09879000E-03	-2.50985000E-02	 4.78395000E-03
		 2.00197000E-05	-3.08008000E-02	-8.93933000E-05
		-9.89998000E-04	-3.08777000E-02	 5.28566000E-03
		 4.00075000E-05	-2.60945000E-02	-7.01573000E-05
		-4.23506000E-04	-3.13188000E-02	 2.56239000E-03
		-8.98191000E-04	-2.61628000E-02	 4.83641000E-03
		 1.03069000E-03	-3.02527000E-02	-5.40004000E-03
		 9.69575000E-04	-3.12889000E-02	-5.39827000E-03
		 1.19978000E-03	-2.50122000E-02	-5.00352000E-03
		 5.07294000E-04	-3.02849000E-02	-2.68780000E-03
		 9.81340000E-04	-3.07809000E-02	-5.42624000E-03
		 1.02118000E-03	-2.61127000E-02	-4.99736000E-03
		 4.85152000E-04	-3.12506000E-02	-2.68528000E-03
		 6.47486000E-05	-3.21429000E-02	-2.60942000E-05
		-8.36808000E-04	-3.22796000E-02	 5.22739000E-03
		 5.25930000E-05	-3.17094000E-02	-6.74982000E-05
		-8.56784000E-04	-3.18364000E-02	 5.21320000E-03
		 5.41725000E-05	-2.69721000E-02	-2.71450000E-05
		-3.81338000E-04	-3.21672000E-02	 2.57510000E-03
		-7.88788000E-04	-2.71266000E-02	 4.83779000E-03
		 7.87474000E-04	-3.20958000E-02	-5.38209000E-03
		 9.20867000E-04	-3.17219000E-02	-5.32691000E-03
		 8.74987000E-04	-2.70258000E-02	-4.92096000E-03
		 4.51203000E-04	-3.21451000E-02	-2.71440000E-03
		 1.38986000E-04	-4.19064000E-02	-5.66113000E-05
		-4.32007000E-04	-4.19767000E-02	 5.20117000E-03
		 5.22460000E-05	-4.25894000E-02	-1.97317000E-04
		-6.44413000E-04	-4.25453000E-02	 5.16337000E-03
		 7.92992000E-05	-3.61265000E-02	-9.06286000E-05
		-1.96703000E-04	-4.19528000E-02	 2.55001000E-03
		-7.25094000E-04	-3.62159000E-02	 5.32307000E-03
		 1.02215000E-04	-4.22065000E-02	-1.37599000E-04
		-5.39341000E-04	-4.21813000E-02	 5.21296000E-03
		 8.14188000E-05	-3.69500000E-02	-7.39749000E-05
		-3.00592000E-04	-4.25706000E-02	 2.48718000E-03
		-7.47732000E-04	-3.69588000E-02	 5.33107000E-03
		 7.19842000E-04	-4.16969000E-02	-5.34551000E-03
		 7.84776000E-04	-4.25769000E-02	-5.40732000E-03
		 8.93946000E-04	-3.60715000E-02	-5.50889000E-03
		 3.55697000E-04	-4.18073000E-02	-2.67253000E-03
		 7.46403000E-04	-4.21551000E-02	-5.40390000E-03
		 8.81832000E-04	-3.69345000E-02	-5.57753000E-03
		 4.20073000E-04	-4.25796000E-02	-2.76832000E-03
		 3.81216000E-05	-4.33053000E-02	-2.53657000E-04
		-8.07969000E-04	-4.33902000E-02	 5.11413000E-03
		 3.34698000E-05	-4.29223000E-02	-2.00858000E-04
		-7.13277000E-04	-4.29569000E-02	 5.12088000E-03
		 2.87462000E-05	-3.77488000E-02	-1.41689000E-04
		-3.77185000E-04	-4.33543000E-02	 2.42537000E-03
		-7.40928000E-04	-3.77910000E-02	 5.28300000E-03
		 9.24542000E-04	-4.32017000E-02	-5.45313000E-03
		 8.40691000E-04	-4.28631000E-02	-5.42956000E-03
		 8.54820000E-04	-3.77669000E-02	-5.55692000E-03
		 5.00298000E-04	-4.32612000E-02	-2.84637000E-03
		 3.82410000E-05	-5.16387000E-02	-2.19827000E-04
		-7.48322000E-04	-5.15508000E-02	 4.56866000E-03
		 6.60006000E-05	-5.23793000E-02	-1.73817000E-04
		-8.08293000E-04	-5.23528000E-02	 4.57792000E-03
		 2.06202000E-05	-4.69959000E-02	-1.25590000E-04
		-3.29699000E-04	-5.16115000E-02	 2.23360000E-03
		-6.08491000E-04	-4.68914000E-02	 4.84936000E-03
		 4.77508000E-05	-5.20143000E-02	-1.99194000E-04
		-7.73255000E-04	-5.20119000E-02	 4.51461000E-03
		 2.13181000E-05	-4.76658000E-02	-1.96306000E-04
		-3.59247000E-04	-5.23740000E-02	 2.19895000E-03
		-6.30946000E-04	-4.76473000E-02	 4.82953000E-03
		 6.61422000E-04	-5.16766000E-02	-4.92795000E-03
		 9.10692000E-04	-5.23892000E-02	-5.04140000E-03
		 7.45682000E-04	-4.68980000E-02	-5.14534000E-03
		 3.73087000E-04	-5.16712000E-02	-2.60993000E-03
		 7.67098000E-04	-5.20347000E-02	-4.97450000E-03
		 7.37741000E-04	-4.76147000E-02	-5.19242000E-03
		 4.81160000E-04	-5.23920000E-02	-2.59409000E-03
		 1.13877000E-04	-5.32661000E-02	 1.07830000E-05
		-6.73079000E-04	-5.32072000E-02	 4.62196000E-03
		 1.02709000E-04	-5.28301000E-02	-1.11929000E-04
		-7.41360000E-04	-5.27957000E-02	 4.54836000E-03
		 6.06479000E-05	-4.83554000E-02	-9.37617000E-05
		-3.47948000E-04	-5.32312000E-02	 2.31849000E-03
		-7.30635000E-04	-4.84020000E-02	 4.82991000E-03
		 1.05023000E-03	-5.33010000E-02	-4.90598000E-03
		 9.99042000E-04	-5.28578000E-02	-4.97805000E-03
		 7.83448000E-04	-4.82351000E-02	-5.09970000E-03
		 5.99220000E-04	-5.33113000E-02	-2.45230000E-03
		 5.18155000E-04	-6.08499000E-02	-5.42578000E-04
		-9.81359000E-05	-6.12987000E-02	 4.17238000E-03
		-2.32839000E-05	-6.18418000E-02	 2.05718000E-05
		-5.90960000E-04	-6.20479000E-02	 4.74116000E-03
		 5.67059000E-05	-5.62743000E-02	-2.57391000E-04
		 2.48900000E-04	-6.10856000E-02	 1.75534000E-03
		-9.51426000E-04	-5.61600000E-02	 4.33110000E-03
		 2.28266000E-04	-6.13547000E-02	-2.27163000E-04
		-3.43666000E-04	-6.16702000E-02	 4.64783000E-03
		 8.80983000E-05	-5.70905000E-02	-1.17102000E-04
		-3.16142000E-04	-6.19337000E-02	 2.33002000E-03
		-7.30159000E-04	-5.71953000E-02	 4.69022000E-03
		 1.28934000E-03	-6.04050000E-02	-4.56935000E-03
		 9.01646000E-04	-6.15739000E-02	-4.86250000E-03
		 1.03102000E-03	-5.61232000E-02	-4.83519000E-03
		 7.96521000E-04	-6.06472000E-02	-2.61575000E-03
		 1.10987000E-03	-6.10250000E-02	-4.66691000E-03
		 9.60727000E-04	-5.70912000E-02	-4.75854000E-03
		 4.46239000E-04	-6.17091000E-02	-2.51293000E-03
		-5.23164000E-04	-6.25095000E-02	-6.47727000E-04
		-1.27301000E-03	-6.26440000E-02	 4.11654000E-03
		-2.62210000E-04	-6.21734000E-02	-1.90650000E-04
		-9.38099000E-04	-6.23567000E-02	 4.61243000E-03
		 1.84425000E-04	-5.79356000E-02	-3.31835000E-04
		-9.69385000E-04	-6.26040000E-02	 1.78768000E-03
		-4.81177000E-04	-5.78557000E-02	 4.41751000E-03
		 7.52186000E-04	-6.23723000E-02	-4.81114000E-03
		 7.94493000E-04	-6.19848000E-02	-4.85416000E-03
		 8.61466000E-04	-5.79497000E-02	-4.88153000E-03
		 1.63234000E-04	-6.24298000E-02	-2.73176000E-03
		 0.00000000E+00	 0.00000000E+00	 0.00000000E+00
		 0.00000000E+00	 0.00000000E+00	 0.00000000E+00
		-7.21278000E-05	-1.65953000E-02	-3.67347000E-04
		-2.59718000E-03	-1.77358000E-02	 1.55118000E-02
		 0.00000000E+00	 0.00000000E+00	 0.00000000E+00
		 0.00000000E+00	 0.00000000E+00	 0.00000000E+00
		-8.49600000E-05	-1.80669000E-02	-4.16301000E-04
		-6.05041000E-04	-1.93386000E-02	 1.55219000E-02
		 0.00000000E+00	 0.00000000E+00	 0.00000000E+00
		 3.76675000E-05	-3.56326000E-03	-1.07538000E-04
		-1.33962000E-03	-1.68325000E-02	 7.45602000E-03
		-2.55871000E-03	-5.00700000E-03	 7.96616000E-03
		 0.00000000E+00	 0.00000000E+00	 0.00000000E+00
		 0.00000000E+00	 0.00000000E+00	 0.00000000E+00
		-8.14640000E-05	-1.76753000E-02	-3.90020000E-04
		-1.57656000E-03	-1.88835000E-02	 1.54521000E-02
		 0.00000000E+00	 0.00000000E+00	 0.00000000E+00
		-3.05852000E-06	-4.89705000E-03	-1.61356000E-04
		-3.34759000E-04	-1.83056000E-02	 7.34409000E-03
		-2.51353000E-04	-6.31834000E-03	 7.71261000E-03
		 0.00000000E+00	 0.00000000E+00	 0.00000000E+00
		 2.47067000E-03	-1.71723000E-02	-1.61909000E-02
		 0.00000000E+00	 0.00000000E+00	 0.00000000E+00
		 5.47034000E-04	-1.87520000E-02	-1.65455000E-02
		 0.00000000E+00	 0.00000000E+00	 0.00000000E+00
		 2.65897000E-03	-4.84030000E-03	-8.19894000E-03
		 1.21390000E-03	-1.64843000E-02	-8.18750000E-03
		 0.00000000E+00	 0.00000000E+00	 0.00000000E+00
		 1.50816000E-03	-1.83391000E-02	-1.62631000E-02
		 0.00000000E+00	 0.00000000E+00	 0.00000000E+00
		 2.53024000E-04	-6.16274000E-03	-8.07602000E-03
		 2.12396000E-04	-1.80199000E-02	-8.27685000E-03
		 0.00000000E+00	 0.00000000E+00	 0.00000000E+00
		 0.00000000E+00	 0.00000000E+00	 0.00000000E+00
		-9.90879000E-05	-1.76219000E-02	-4.66534000E-04
		 1.51420000E-03	-1.86743000E-02	 1.54643000E-02
		 0.00000000E+00	 0.00000000E+00	 0.00000000E+00
		 0.00000000E+00	 0.00000000E+00	 0.00000000E+00
		-1.00256000E-04	-1.81832000E-02	-4.50381000E-04
		 4.18832000E-04	-1.93579000E-02	 1.55553000E-02
		 0.00000000E+00	 0.00000000E+00	 0.00000000E+00
		-6.74067000E-05	-4.06165000E-03	-1.51495000E-04
		 7.13374000E-04	-1.78057000E-02	 7.24956000E-03
		 2.19115000E-03	-5.37288000E-03	 7.91408000E-03
		 0.00000000E+00	 0.00000000E+00	 0.00000000E+00
		-1.49399000E-03	-1.81623000E-02	-1.62561000E-02
		 0.00000000E+00	 0.00000000E+00	 0.00000000E+00
		-4.53751000E-04	-1.88051000E-02	-1.65346000E-02
		 0.00000000E+00	 0.00000000E+00	 0.00000000E+00
		-2.16324000E-03	-5.35680000E-03	-8.18836000E-03
		-8.10412000E-04	-1.75536000E-02	-8.10493000E-03
		-5.23871000E-05	-6.28109000E-02	-1.61597000E-03
		-2.51629000E-03	-6.44050000E-02	 2.64458000E-02
		 4.59178000E-05	-6.46380000E-02	-1.70348000E-03
		-1.02413000E-03	-6.60811000E-02	 2.63498000E-02
		-1.00834000E-05	-3.65635000E-02	-8.25827000E-04
		-1.31068000E-03	-6.34223000E-02	 1.22832000E-02
		-2.67623000E-03	-3.80570000E-02	 2.15334000E-02
		-2.31401000E-05	-6.39217000E-02	-1.68264000E-03
		-1.75106000E-03	-6.54044000E-02	 2.64464000E-02
		-6.99922000E-05	-3.83274000E-02	-9.12371000E-04
		-4.96939000E-04	-6.51752000E-02	 1.22418000E-02
		-8.75376000E-04	-3.97974000E-02	 2.15742000E-02
		 2.65894000E-03	-6.28320000E-02	-2.97142000E-02
		 1.04555000E-03	-6.47388000E-02	-2.99843000E-02
		 2.66788000E-03	-3.70118000E-02	-2.33716000E-02
		 1.33049000E-03	-6.26699000E-02	-1.55025000E-02
		 1.85102000E-03	-6.39191000E-02	-2.99446000E-02
		 8.57770000E-04	-3.87176000E-02	-2.35879000E-02
		 5.52450000E-04	-6.45410000E-02	-1.56890000E-02
		 1.05416000E-04	-6.49881000E-02	-1.65039000E-03
		 4.82563000E-04	-6.64249000E-02	 2.63452000E-02
		 1.05352000E-04	-6.49700000E-02	-1.73067000E-03
		-2.79190000E-04	-6.64702000E-02	 2.64180000E-02
		-7.53352000E-05	-3.82831000E-02	-8.79403000E-04
		 2.31141000E-04	-6.55193000E-02	 1.21934000E-02
		 9.47588000E-04	-3.97053000E-02	 2.15656000E-02
		-4.92919000E-04	-6.48388000E-02	-2.99129000E-02
		 2.61393000E-04	-6.49432000E-02	-2.99474000E-02
		-9.67923000E-04	-3.87655000E-02	-2.34760000E-02
		-2.13113000E-04	-6.47465000E-02	-1.55802000E-02
		 2.28408000E-04	-1.30333000E-01	-4.06917000E-03
		-1.39742000E-03	-1.31861000E-01	 3.23985000E-02
		 2.35006000E-04	-1.31410000E-01	-4.03963000E-03
		-5.09044000E-04	-1.33297000E-01	 3.25870000E-02
		 1.40684000E-04	-9.43625000E-02	-2.73238000E-03
		-5.35634000E-04	-1.30959000E-01	 1.39148000E-02
		-2.10255000E-03	-9.60076000E-02	 3.00354000E-02
		 2.51617000E-04	-1.31015000E-01	-4.06768000E-03
		-9.79407000E-04	-1.32780000E-01	 3.25594000E-02
		 1.26999000E-04	-9.59296000E-02	-2.74452000E-03
		-1.17693000E-04	-1.32211000E-01	 1.41613000E-02
		-7.96682000E-04	-9.76571000E-02	 2.99748000E-02
		 1.96600000E-03	-1.29419000E-01	-4.07111000E-02
		 9.60488000E-04	-1.30656000E-01	-4.06621000E-02
		 2.29873000E-03	-9.39348000E-02	-3.55851000E-02
		 1.06526000E-03	-1.29770000E-01	-2.21021000E-02
		 1.44484000E-03	-1.30170000E-01	-4.07586000E-02
		 1.03562000E-03	-9.55157000E-02	-3.55407000E-02
		 5.70085000E-04	-1.30913000E-01	-2.22298000E-02
		 1.82361000E-04	-1.31542000E-01	-3.94188000E-03
		 4.71232000E-04	-1.33522000E-01	 3.25318000E-02
		 1.99577000E-04	-1.31622000E-01	-4.01720000E-03
		-2.63352000E-05	-1.33382000E-01	 3.24796000E-02
		 1.07202000E-04	-9.61862000E-02	-2.64805000E-03
		 4.41863000E-04	-1.32418000E-01	 1.42177000E-02
		 4.54688000E-04	-9.79676000E-02	 2.99979000E-02
		-1.69313000E-05	-1.30876000E-01	-4.05512000E-02
		 4.61924000E-04	-1.30877000E-01	-4.05320000E-02
		-2.03997000E-04	-9.57870000E-02	-3.55267000E-02
		 7.02440000E-05	-1.31103000E-01	-2.21574000E-02
		 6.49257000E-04	-2.11090000E-01	-7.54564000E-03
		 3.60107000E-04	-2.12862000E-01	 3.33181000E-02
		 6.43143000E-04	-2.11282000E-01	-7.27112000E-03
		 5.40194000E-04	-2.13432000E-01	 3.36437000E-02
		 4.06119000E-04	-1.69629000E-01	-5.71547000E-03
		 4.58518000E-04	-2.11934000E-01	 1.27223000E-02
		-6.48301000E-04	-1.71488000E-01	 3.33222000E-02
		 6.34453000E-04	-2.11148000E-01	-7.38272000E-03
		 4.79310000E-04	-2.13063000E-01	 3.35794000E-02
		 3.45987000E-04	-1.70330000E-01	-5.61047000E-03
		 6.93861000E-04	-2.12283000E-01	 1.30589000E-02
		-6.11591000E-05	-1.72148000E-01	 3.37224000E-02
		 9.79958000E-04	-2.09616000E-01	-4.83841000E-02
		 3.92043000E-04	-2.09752000E-01	-4.81802000E-02
		 1.41684000E-03	-1.68403000E-01	-4.49120000E-02
		 7.16963000E-04	-2.10347000E-01	-2.77899000E-02
		 6.91769000E-04	-2.09744000E-01	-4.83245000E-02
		 6.74967000E-04	-1.69081000E-01	-4.48324000E-02
		 5.80439000E-04	-2.10482000E-01	-2.75853000E-02
		 5.19824000E-04	-2.11154000E-01	-6.94604000E-03
		 1.05200000E-03	-2.13630000E-01	 3.39557000E-02
		 5.68722000E-04	-2.11210000E-01	-7.08492000E-03
		 7.77687000E-04	-2.14189000E-01	 3.37574000E-02
		 3.69812000E-04	-1.70428000E-01	-5.49899000E-03
		 5.10365000E-04	-2.12333000E-01	 1.33970000E-02
		 7.13864000E-04	-1.72073000E-01	 3.38472000E-02
		 1.55132000E-04	-2.09568000E-01	-4.76922000E-02