# vtk DataFile Version 3.0

ASCII
DATASET UNSTRUCTURED_GRID

POINTS 522 double
	 1.00000000E+00	 1.00000000E+00	-5.96046000E-08
	 1.00000000E+00	 5.00000000E-01	-5.96046000E-08
	 1.00000000E+00	 5.00000000E-01	 1.00000000E+00
	 1.00000000E+00	 1.00000000E+00	 1.00000000E+00
	 5.00000000E-01	 1.00000000E+00	-5.96046000E-08
	 5.00000000E-01	 5.00000000E-01	-5.96046000E-08
	 5.00000000E-01	 5.00000000E-01	 1.00000000E+00
	 5.00000000E-01	 1.00000000E+00	 1.00000000E+00
	 1.00000000E+00	 7.50000000E-01	-5.96046000E-08
	 1.00000000E+00	 5.00000000E-01	 5.00000000E-01
	 1.00000000E+00	 7.50000000E-01	 1.00000000E+00
	 1.00000000E+00	 1.00000000E+00	 5.00000000E-01
	 7.50000000E-01	 1.00000000E+00	-5.96046000E-08
	 7.50000000E-01	 5.00000000E-01	-5.96046000E-08
	 7.50000000E-01	 5.00000000E-01	 1.00000000E+00
	 7.50000000E-01	 1.00000000E+00	 1.00000000E+00
	 5.00000000E-01	 7.50000000E-01	-5.96046000E-08
	 5.00000000E-01	 5.00000000E-01	 5.00000000E-01
	 5.00000000E-01	 7.50000000E-01	 1.00000000E+00
	 5.00000000E-01	 1.00000000E+00	 5.00000000E-01
	 1.00000000E+00	-1.49012000E-08	-5.96046000E-08
	 1.00000000E+00	-1.49012000E-08	 1.00000000E+00
	 5.00000000E-01	-1.49012000E-08	-5.96046000E-08
	 5.00000000E-01	-1.49012000E-08	 1.00000000E+00
	 1.00000000E+00	 2.50000000E-01	-5.96046000E-08
	 1.00000000E+00	-1.49012000E-08	 5.00000000E-01
	 1.00000000E+00	 2.50000000E-01	 1.00000000E+00
	 7.50000000E-01	-1.49012000E-08	-5.96046000E-08
	 7.50000000E-01	-1.49012000E-08	 1.00000000E+00
	 5.00000000E-01	 2.50000000E-01	-5.96046000E-08
	 5.00000000E-01	-1.49012000E-08	 5.00000000E-01
	 5.00000000E-01	 2.50000000E-01	 1.00000000E+00
	-7.45058000E-09	 1.00000000E+00	-5.96046000E-08
	-7.45058000E-09	 5.00000000E-01	-5.96046000E-08
	-7.45058000E-09	 5.00000000E-01	 1.00000000E+00
	-7.45058000E-09	 1.00000000E+00	 1.00000000E+00
	 2.50000000E-01	 1.00000000E+00	-5.96046000E-08
	 2.50000000E-01	 5.00000000E-01	-5.96046000E-08
	 2.50000000E-01	 5.00000000E-01	 1.00000000E+00
	 2.50000000E-01	 1.00000000E+00	 1.00000000E+00
	-7.45058000E-09	 7.50000000E-01	-5.96046000E-08
	-7.45058000E-09	 5.00000000E-01	 5.00000000E-01
	-7.45058000E-09	 7.50000000E-01	 1.00000000E+00
	-7.45058000E-09	 1.00000000E+00	 5.00000000E-01
	-7.45058000E-09	-1.49012000E-08	-5.96046000E-08
	-7.45058000E-09	-1.49012000E-08	 1.00000000E+00
	 2.50000000E-01	-1.49012000E-08	-5.96046000E-08
	 2.50000000E-01	-1.49012000E-08	 1.00000000E+00
	-7.45058000E-09	 2.50000000E-01	-5.96046000E-08
	-7.45058000E-09	-1.49012000E-08	 5.00000000E-01
	-7.45058000E-09	 2.50000000E-01	 1.00000000E+00
	 1.00000000E+00	 5.00000000E-01	 2.00000000E+00
	 1.00000000E+00	 1.00000000E+00	 2.00000000E+00
	 5.00000000E-01	 5.00000000E-01	 2.00000000E+00
	 5.00000000E-01	 1.00000000E+00	 2.00000000E+00
	 1.00000000E+00	 5.00000000E-01	 1.50000000E+00
	 1.00000000E+00	 7.50000000E-01	 2.00000000E+00
	 1.00000000E+00	 1.00000000E+00	 1.50000000E+00
	 7.50000000E-01	 5.00000000E-01	 2.00000000E+00
	 7.50000000E-01	 1.00000000E+00	 2.00000000E+00
	 5.00000000E-01	 5.00000000E-01	 1.50000000E+00
	 5.00000000E-01	 7.50000000E-01	 2.00000000E+00
	 5.00000000E-01	 1.00000000E+00	 1.50000000E+00
	 1.00000000E+00	-1.49012000E-08	 2.00000000E+00
	 5.00000000E-01	-1.49012000E-08	 2.00000000E+00
	 1.00000000E+00	-1.49012000E-08	 1.50000000E+00
	 1.00000000E+00	 2.50000000E-01	 2.00000000E+00
	 7.50000000E-01	-1.49012000E-08	 2.00000000E+00
	 5.00000000E-01	-1.49012000E-08	 1.50000000E+00
	 5.00000000E-01	 2.50000000E-01	 2.00000000E+00
	-7.45058000E-09	 5.00000000E-01	 2.00000000E+00
	-7.45058000E-09	 1.00000000E+00	 2.00000000E+00
	 2.50000000E-01	 5.00000000E-01	 2.00000000E+00
	 2.50000000E-01	 1.00000000E+00	 2.00000000E+00
	-7.45058000E-09	 5.00000000E-01	 1.50000000E+00
	-7.45058000E-09	 7.50000000E-01	 2.00000000E+00
	-7.45058000E-09	 1.00000000E+00	 1.50000000E+00
	-7.45058000E-09	-1.49012000E-08	 2.00000000E+00
	 2.50000000E-01	-1.49012000E-08	 2.00000000E+00
	-7.45058000E-09	-1.49012000E-08	 1.50000000E+00
	-7.45058000E-09	 2.50000000E-01	 2.00000000E+00
	 1.00000000E+00	 5.00000000E-01	 3.00000000E+00
	 1.00000000E+00	 1.00000000E+00	 3.00000000E+00
	 5.00000000E-01	 5.00000000E-01	 3.00000000E+00
	 5.00000000E-01	 1.00000000E+00	 3.00000000E+00
	 1.00000000E+00	 5.00000000E-01	 2.50000000E+00
	 1.00000000E+00	 7.50000000E-01	 3.00000000E+00
	 1.00000000E+00	 1.00000000E+00	 2.50000000E+00
	 7.50000000E-01	 5.00000000E-01	 3.00000000E+00
	 7.50000000E-01	 1.00000000E+00	 3.00000000E+00
	 5.00000000E-01	 5.00000000E-01	 2.50000000E+00
	 5.00000000E-01	 7.50000000E-01	 3.00000000E+00
	 5.00000000E-01	 1.00000000E+00	 2.50000000E+00
	 1.00000000E+00	-1.49012000E-08	 3.00000000E+00
	 5.00000000E-01	-1.49012000E-08	 3.00000000E+00
	 1.00000000E+00	-1.49012000E-08	 2.50000000E+00
	 1.00000000E+00	 2.50000000E-01	 3.00000000E+00
	 7.50000000E-01	-1.49012000E-08	 3.00000000E+00
	 5.00000000E-01	-1.49012000E-08	 2.50000000E+00
	 5.00000000E-01	 2.50000000E-01	 3.00000000E+00
	-7.45058000E-09	 5.00000000E-01	 3.00000000E+00
	-7.45058000E-09	 1.00000000E+00	 3.00000000E+00
	 2.50000000E-01	 5.00000000E-01	 3.00000000E+00
	 2.50000000E-01	 1.00000000E+00	 3.00000000E+00
	-7.45058000E-09	 5.00000000E-01	 2.50000000E+00
	-7.45058000E-09	 7.50000000E-01	 3.00000000E+00
	-7.45058000E-09	 1.00000000E+00	 2.50000000E+00
	-7.45058000E-09	-1.49012000E-08	 3.00000000E+00
	 2.50000000E-01	-1.49012000E-08	 3.00000000E+00
	-7.45058000E-09	-1.49012000E-08	 2.50000000E+00
	-7.45058000E-09	 2.50000000E-01	 3.00000000E+00
	 1.00000000E+00	 5.00000000E-01	 4.00000000E+00
	 1.00000000E+00	 1.00000000E+00	 4.00000000E+00
	 5.00000000E-01	 5.00000000E-01	 4.00000000E+00
	 5.00000000E-01	 1.00000000E+00	 4.00000000E+00
	 1.00000000E+00	 5.00000000E-01	 3.50000000E+00
	 1.00000000E+00	 7.50000000E-01	 4.00000000E+00
	 1.00000000E+00	 1.00000000E+00	 3.50000000E+00
	 7.50000000E-01	 5.00000000E-01	 4.00000000E+00
	 7.50000000E-01	 1.00000000E+00	 4.00000000E+00
	 5.00000000E-01	 5.00000000E-01	 3.50000000E+00
	 5.00000000E-01	 7.50000000E-01	 4.00000000E+00
	 5.00000000E-01	 1.00000000E+00	 3.50000000E+00
	 1.00000000E+00	-1.49012000E-08	 4.00000000E+00
	 5.00000000E-01	-1.49012000E-08	 4.00000000E+00
	 1.00000000E+00	-1.49012000E-08	 3.50000000E+00
	 1.00000000E+00	 2.50000000E-01	 4.00000000E+00
	 7.50000000E-01	-1.49012000E-08	 4.00000000E+00
	 5.00000000E-01	-1.49012000E-08	 3.50000000E+00
	 5.00000000E-01	 2.50000000E-01	 4.00000000E+00
	-7.45058000E-09	 5.00000000E-01	 4.00000000E+00
	-7.45058000E-09	 1.00000000E+00	 4.00000000E+00
	 2.50000000E-01	 5.00000000E-01	 4.00000000E+00
	 2.50000000E-01	 1.00000000E+00	 4.00000000E+00
	-7.45058000E-09	 5.00000000E-01	 3.50000000E+00
	-7.45058000E-09	 7.50000000E-01	 4.00000000E+00
	-7.45058000E-09	 1.00000000E+00	 3.50000000E+00
	-7.45058000E-09	-1.49012000E-08	 4.00000000E+00
	 2.50000000E-01	-1.49012000E-08	 4.00000000E+00
	-7.45058000E-09	-1.49012000E-08	 3.50000000E+00
	-7.45058000E-09	 2.50000000E-01	 4.00000000E+00
	 1.00000000E+00	 5.00000000E-01	 5.00000000E+00
	 1.00000000E+00	 1.00000000E+00	 5.00000000E+00
	 5.00000000E-01	 5.00000000E-01	 5.00000000E+00
	 5.00000000E-01	 1.00000000E+00	 5.00000000E+00
	 1.00000000E+00	 5.00000000E-01	 4.50000000E+00
	 1.00000000E+00	 7.50000000E-01	 5.00000000E+00
	 1.00000000E+00	 1.00000000E+00	 4.50000000E+00
	 7.50000000E-01	 5.00000000E-01	 5.00000000E+00
	 7.50000000E-01	 1.00000000E+00	 5.00000000E+00
	 5.00000000E-01	 5.00000000E-01	 4.50000000E+00
	 5.00000000E-01	 7.50000000E-01	 5.00000000E+00
	 5.00000000E-01	 1.00000000E+00	 4.50000000E+00
	 1.00000000E+00	-1.49012000E-08	 5.00000000E+00
	 5.00000000E-01	-1.49012000E-08	 5.00000000E+00
	 1.00000000E+00	-1.49012000E-08	 4.50000000E+00
	 1.00000000E+00	 2.50000000E-01	 5.00000000E+00
	 7.50000000E-01	-1.49012000E-08	 5.00000000E+00
	 5.00000000E-01	-1.49012000E-08	 4.50000000E+00
	 5.00000000E-01	 2.50000000E-01	 5.00000000E+00
	-7.45058000E-09	 5.00000000E-01	 5.00000000E+00
	-7.45058000E-09	 1.00000000E+00	 5.00000000E+00
	 2.50000000E-01	 5.00000000E-01	 5.00000000E+00
	 2.50000000E-01	 1.00000000E+00	 5.00000000E+00
	-7.45058000E-09	 5.00000000E-01	 4.50000000E+00
	-7.45058000E-09	 7.50000000E-01	 5.00000000E+00
	-7.45058000E-09	 1.00000000E+00	 4.50000000E+00
	-7.45058000E-09	-1.49012000E-08	 5.00000000E+00
	 2.50000000E-01	-1.49012000E-08	 5.00000000E+00
	-7.45058000E-09	-1.49012000E-08	 4.50000000E+00
	-7.45058000E-09	 2.50000000E-01	 5.00000000E+00
	 1.00000000E+00	 5.00000000E-01	 6.00000000E+00
	 1.00000000E+00	 1.00000000E+00	 6.00000000E+00
	 5.00000000E-01	 5.00000000E-01	 6.00000000E+00
	 5.00000000E-01	 1.00000000E+00	 6.00000000E+00
	 1.00000000E+00	 5.00000000E-01	 5.50000000E+00
	 1.00000000E+00	 7.50000000E-01	 6.00000000E+00
	 1.00000000E+00	 1.00000000E+00	 5.50000000E+00
	 7.50000000E-01	 5.00000000E-01	 6.00000000E+00
	 7.50000000E-01	 1.00000000E+00	 6.00000000E+00
	 5.00000000E-01	 5.00000000E-01	 5.50000000E+00
	 5.00000000E-01	 7.50000000E-01	 6.00000000E+00
	 5.00000000E-01	 1.00000000E+00	 5.50000000E+00
	 1.00000000E+00	-1.49012000E-08	 6.00000000E+00
	 5.00000000E-01	-1.49012000E-08	 6.00000000E+00
	 1.00000000E+00	-1.49012000E-08	 5.50000000E+00
	 1.00000000E+00	 2.50000000E-01	 6.00000000E+00
	 7.50000000E-01	-1.49012000E-08	 6.00000000E+00
	 5.00000000E-01	-1.49012000E-08	 5.50000000E+00
	 5.00000000E-01	 2.50000000E-01	 6.00000000E+00
	-7.45058000E-09	 5.00000000E-01	 6.00000000E+00
	-7.45058000E-09	 1.00000000E+00	 6.00000000E+00
	 2.50000000E-01	 5.00000000E-01	 6.00000000E+00
	 2.50000000E-01	 1.00000000E+00	 6.00000000E+00
	-7.45058000E-09	 5.00000000E-01	 5.50000000E+00
	-7.45058000E-09	 7.50000000E-01	 6.00000000E+00
	-7.45058000E-09	 1.00000000E+00	 5.50000000E+00
	-7.45058000E-09	-1.49012000E-08	 6.00000000E+00
	 2.50000000E-01	-1.49012000E-08	 6.00000000E+00
	-7.45058000E-09	-1.49012000E-08	 5.50000000E+00
	-7.45058000E-09	 2.50000000E-01	 6.00000000E+00
	 1.00000000E+00	 5.00000000E-01	 7.00000000E+00
[...]
POINT_DATA 522
FIELD U 1
	U 3 522 double
		 0.00000000E+00	 0.00000000E+00	 0.00000000E+00
		 0.00000000E+00	 0.00000000E+00	 0.00000000E+00
		-1.72857000E-05	 4.47501000E-03	 2.46049000E-05
		-5.50271000E-04	 4.65466000E-03	-3.32431000E-03
		 0.00000000E+00	 0.00000000E+00	 0.00000000E+00
		 0.00000000E+00	 0.00000000E+00	 0.00000000E+00
		-1.17865000E-05	 3.71914000E-03	 2.71941000E-05
		-9.90211000E-04	 3.90993000E-03	-3.35383000E-03
		 0.00000000E+00	 0.00000000E+00	 0.00000000E+00
		-1.01112000E-05	 1.31094000E-03	 1.53503000E-05
		-2.82412000E-04	 4.48811000E-03	-1.54791000E-03
		-1.99828000E-05	 1.56959000E-03	-1.67326000E-03
		 0.00000000E+00	 0.00000000E+00	 0.00000000E+00
		 0.00000000E+00	 0.00000000E+00	 0.00000000E+00
		-1.47414000E-05	 4.17076000E-03	 2.47460000E-05
		-7.72804000E-04	 4.35527000E-03	-3.41448000E-03
		 0.00000000E+00	 0.00000000E+00	 0.00000000E+00
		-5.54457000E-06	 1.00692000E-03	 1.32206000E-05
		-5.00489000E-04	 3.73496000E-03	-1.63350000E-03
		-5.35604000E-04	 1.28295000E-03	-1.62774000E-03
		 0.00000000E+00	 0.00000000E+00	 0.00000000E+00
		 5.12260000E-04	 4.69101000E-03	 3.37007000E-03
		 0.00000000E+00	 0.00000000E+00	 0.00000000E+00
		 9.64857000E-04	 3.95115000E-03	 3.40394000E-03
		 0.00000000E+00	 0.00000000E+00	 0.00000000E+00
		-2.48041000E-06	 1.58944000E-03	 1.70551000E-03
		 2.46736000E-04	 4.50543000E-03	 1.59612000E-03
		 0.00000000E+00	 0.00000000E+00	 0.00000000E+00
		 7.40998000E-04	 4.39530000E-03	 3.45951000E-03
		 0.00000000E+00	 0.00000000E+00	 0.00000000E+00
		 5.23513000E-04	 1.30412000E-03	 1.65594000E-03
		 4.76453000E-04	 3.75580000E-03	 1.68611000E-03
		 0.00000000E+00	 0.00000000E+00	 0.00000000E+00
		 0.00000000E+00	 0.00000000E+00	 0.00000000E+00
		-4.13070000E-06	 2.52028000E-03	 3.28580000E-05
		-1.42642000E-03	 2.69788000E-03	-3.31643000E-03
		 0.00000000E+00	 0.00000000E+00	 0.00000000E+00
		 0.00000000E+00	 0.00000000E+00	 0.00000000E+00
		-8.28891000E-06	 3.19427000E-03	 3.00532000E-05
		-1.20587000E-03	 3.37656000E-03	-3.25709000E-03
		 0.00000000E+00	 0.00000000E+00	 0.00000000E+00
		-1.84342000E-07	 2.51972000E-04	 1.51749000E-05
		-7.17600000E-04	 2.53182000E-03	-1.69189000E-03
		-1.01889000E-03	 5.40647000E-04	-1.67393000E-03
		 0.00000000E+00	 0.00000000E+00	 0.00000000E+00
		 1.41829000E-03	 2.74153000E-03	 3.37810000E-03
		 0.00000000E+00	 0.00000000E+00	 0.00000000E+00
		 1.18821000E-03	 3.41872000E-03	 3.31359000E-03
		 0.00000000E+00	 0.00000000E+00	 0.00000000E+00
		 1.01913000E-03	 5.63395000E-04	 1.70513000E-03
		 7.09393000E-04	 2.55469000E-03	 1.75558000E-03
		-2.39412000E-05	 1.47487000E-02	 5.44223000E-06
		-1.01807000E-03	 1.49213000E-02	-6.34178000E-03
		-1.70431000E-05	 1.35348000E-02	 1.74697000E-05
		-1.45257000E-03	 1.37043000E-02	-6.33025000E-03
		-2.11313000E-05	 8.95464000E-03	 2.13649000E-05
		-5.19166000E-04	 1.47848000E-02	-3.16125000E-03
		-8.71557000E-04	 9.17421000E-03	-4.85141000E-03
		-2.07245000E-05	 1.41943000E-02	 1.08528000E-05
		-1.23553000E-03	 1.43626000E-02	-6.34286000E-03
		-1.51073000E-05	 7.90162000E-03	 2.95552000E-05
		-7.35708000E-04	 1.35694000E-02	-3.15695000E-03
		-1.29345000E-03	 8.10181000E-03	-4.84633000E-03
		 9.67493000E-04	 1.50177000E-02	 6.34590000E-03
		 1.41671000E-03	 1.38041000E-02	 6.35868000E-03
		 8.25322000E-04	 9.23631000E-03	 4.88866000E-03
		 4.70423000E-04	 1.48330000E-02	 3.17046000E-03
		 1.19208000E-03	 1.44612000E-02	 6.35802000E-03
		 1.26154000E-03	 8.16811000E-03	 4.89987000E-03
		 7.01185000E-04	 1.36194000E-02	 3.19042000E-03
		-8.28162000E-06	 1.18799000E-02	 3.53130000E-05
		-1.89626000E-03	 1.20380000E-02	-6.31153000E-03
		-1.28936000E-05	 1.27579000E-02	 2.56433000E-05
		-1.67582000E-03	 1.29251000E-02	-6.31446000E-03
		-7.21713000E-06	 6.40009000E-03	 4.21691000E-05
		-9.49993000E-04	 1.19074000E-02	-3.14460000E-03
		-1.74285000E-03	 6.58677000E-03	-4.83058000E-03
		 1.87892000E-03	 1.21417000E-02	 6.37597000E-03
		 1.64851000E-03	 1.30266000E-02	 6.35949000E-03
		 1.72889000E-03	 6.65642000E-03	 4.90941000E-03
		 9.33486000E-04	 1.19596000E-02	 3.21384000E-03
		-3.86588000E-05	 3.08425000E-02	-9.15456000E-05
		-1.31356000E-03	 3.09298000E-02	-9.28953000E-03
		-3.08041000E-05	 2.93688000E-02	-7.02441000E-05
		-1.69155000E-03	 2.94632000E-02	-9.28699000E-03
		-2.94346000E-05	 2.19984000E-02	-2.91394000E-05
		-6.79428000E-04	 3.08355000E-02	-4.62388000E-03
		-1.12576000E-03	 2.21313000E-02	-7.85436000E-03
		-3.52092000E-05	 3.01545000E-02	-8.22239000E-05
		-1.50262000E-03	 3.02489000E-02	-9.32258000E-03
		-2.26212000E-05	 2.06810000E-02	-1.43063000E-05
		-8.59996000E-04	 2.93642000E-02	-4.64305000E-03
		-1.55484000E-03	 2.08184000E-02	-7.84666000E-03
		 1.23265000E-03	 3.11120000E-02	 9.09919000E-03
		 1.62645000E-03	 2.96520000E-02	 9.13892000E-03
		 1.06392000E-03	 2.22678000E-02	 7.78840000E-03
		 6.01124000E-04	 3.09242000E-02	 4.43940000E-03
		 1.42896000E-03	 3.04355000E-02	 9.15028000E-03
		 1.50701000E-03	 2.09593000E-02	 7.81063000E-03
		 7.97520000E-04	 2.94574000E-02	 4.50079000E-03
		-2.00913000E-05	 2.75251000E-02	-4.11236000E-05
		-2.05794000E-03	 2.76145000E-02	-9.23920000E-03
		-2.57332000E-05	 2.84974000E-02	-5.64912000E-05
		-1.87462000E-03	 2.85893000E-02	-9.24993000E-03
		-1.34267000E-05	 1.89370000E-02	 7.79078000E-06
		-1.03768000E-03	 2.75190000E-02	-4.62043000E-03
		-1.97512000E-03	 1.90716000E-02	-7.81696000E-03
		 2.01437000E-03	 2.78103000E-02	 9.14953000E-03
		 1.81935000E-03	 2.87810000E-02	 9.12970000E-03
		 1.94623000E-03	 1.92178000E-02	 7.82563000E-03
		 9.96848000E-04	 2.76164000E-02	 4.53621000E-03
		-5.01090000E-05	 5.26021000E-02	-2.92916000E-04
		-2.07495000E-03	 5.25316000E-02	-1.12582000E-02
		-3.77828000E-05	 5.05126000E-02	-2.49115000E-04
		-2.19190000E-03	 5.04436000E-02	-1.12450000E-02
		-4.55267000E-05	 4.11900000E-02	-1.82856000E-04
		-1.06275000E-03	 5.25544000E-02	-5.64985000E-03
		-1.63914000E-03	 4.11954000E-02	-1.04606000E-02
		-4.42235000E-05	 5.15723000E-02	-2.71150000E-04
		-2.13343000E-03	 5.15017000E-02	-1.13173000E-02
		-3.58107000E-05	 3.94554000E-02	-1.50434000E-04
		-1.11456000E-03	 5.04647000E-02	-5.68353000E-03
		-1.90348000E-03	 3.94671000E-02	-1.04575000E-02
		 1.97499000E-03	 5.27955000E-02	 1.06704000E-02
		 2.11579000E-03	 5.07092000E-02	 1.07440000E-02
		 1.54580000E-03	 4.14226000E-02	 1.00901000E-02
		 9.62582000E-04	 5.26808000E-02	 5.06343000E-03
		 2.04507000E-03	 5.17693000E-02	 1.07729000E-02
		 1.82922000E-03	 3.96999000E-02	 1.01508000E-02
		 1.03889000E-03	 5.05945000E-02	 5.18462000E-03
		-2.46771000E-05	 4.82957000E-02	-2.02275000E-04
		-2.30213000E-03	 4.82300000E-02	-1.11687000E-02
		-3.11614000E-05	 4.94199000E-02	-2.26391000E-04
		-2.24694000E-03	 4.93521000E-02	-1.11783000E-02
		-2.40276000E-05	 3.74581000E-02	-1.11782000E-04
		-1.16418000E-03	 4.82486000E-02	-5.65478000E-03
		-2.15458000E-03	 3.74697000E-02	-1.03906000E-02
		 2.25137000E-03	 4.84967000E-02	 1.07605000E-02
		 2.18344000E-03	 4.96168000E-02	 1.07220000E-02
		 2.10330000E-03	 3.77077000E-02	 1.01605000E-02
		 1.11452000E-03	 4.83806000E-02	 5.24950000E-03
		-6.22180000E-05	 7.61860000E-02	-5.19990000E-04
		-3.02225000E-03	 7.60111000E-02	-1.14644000E-02
		-4.67575000E-05	 7.32833000E-02	-4.59697000E-04
		-2.90825000E-03	 7.31021000E-02	-1.14140000E-02
		-5.52203000E-05	 6.44673000E-02	-4.08160000E-04
		-1.53956000E-03	 7.61153000E-02	-5.91413000E-03
		-2.55729000E-03	 6.43383000E-02	-1.15342000E-02
		-5.44665000E-05	 7.47213000E-02	-4.89452000E-04
		-2.96516000E-03	 7.45394000E-02	-1.14985000E-02
		-4.11575000E-05	 6.19719000E-02	-3.55576000E-04
		-1.47783000E-03	 7.32093000E-02	-5.91776000E-03
		-2.53714000E-03	 6.18398000E-02	-1.15072000E-02
		 2.89962000E-03	 7.62841000E-02	 1.04254000E-02
		 2.81651000E-03	 7.33725000E-02	 1.04962000E-02
		 2.44845000E-03	 6.46150000E-02	 1.07178000E-02
		 1.41552000E-03	 7.62486000E-02	 4.87420000E-03
		 2.85821000E-03	 7.48136000E-02	 1.05210000E-02
		 2.45589000E-03	 6.21153000E-02	 1.07959000E-02
		 1.38482000E-03	 7.33438000E-02	 4.99851000E-03
		-3.18568000E-05	 7.04630000E-02	-4.02541000E-04
		-2.79545000E-03	 7.02906000E-02	-1.13470000E-02
		-3.91629000E-05	 7.18599000E-02	-4.30536000E-04
		-2.85173000E-03	 7.16817000E-02	-1.13305000E-02
		-2.72111000E-05	 5.94759000E-02	-3.03668000E-04
		-1.41680000E-03	 7.03913000E-02	-5.90607000E-03
		-2.51424000E-03	 5.93517000E-02	-1.14304000E-02
		 2.73306000E-03	 7.05582000E-02	 1.05432000E-02
		 2.77495000E-03	 7.19486000E-02	 1.04709000E-02
		 2.46030000E-03	 5.96250000E-02	 1.08223000E-02
		 1.35338000E-03	 7.05265000E-02	 5.10102000E-03
		-6.83659000E-05	 9.80131000E-02	-7.16315000E-04
		-3.68365000E-03	 9.78668000E-02	-1.10482000E-02
		-5.02149000E-05	 9.44271000E-02	-6.45146000E-04
		-3.61252000E-03	 9.42792000E-02	-1.09657000E-02
		-6.64827000E-05	 8.73520000E-02	-6.22562000E-04
		-1.87564000E-03	 9.79467000E-02	-5.86877000E-03
		-3.39140000E-03	 8.71900000E-02	-1.12279000E-02
		-5.91108000E-05	 9.62139000E-02	-6.80415000E-04
		-3.64787000E-03	 9.60653000E-02	-1.10441000E-02
		-4.99837000E-05	 8.40822000E-02	-5.55333000E-04
		-1.83193000E-03	 9.43592000E-02	-5.83128000E-03
		-3.27571000E-03	 8.39147000E-02	-1.11550000E-02
		 3.54941000E-03	 9.81188000E-02	 9.61427000E-03
		 3.51380000E-03	 9.45267000E-02	 9.67410000E-03
		 3.26028000E-03	 8.74509000E-02	 9.98275000E-03
		 1.73946000E-03	 9.80723000E-02	 4.43552000E-03
		 3.53199000E-03	 9.63162000E-02	 9.68218000E-03
		 3.17733000E-03	 8.41721000E-02	 1.00445000E-02
		 1.73198000E-03	 9.44839000E-02	 4.54059000E-03
		-3.32360000E-05	 9.08889000E-02	-5.74821000E-04
		-3.54828000E-03	 9.07401000E-02	-1.09066000E-02
		-4.15657000E-05	 9.26515000E-02	-6.10038000E-04
		-3.58055000E-03	 9.25049000E-02	-1.08815000E-02
		-3.43560000E-05	 8.09008000E-02	-4.91090000E-04
		-1.79066000E-03	 9.08192000E-02	-5.81926000E-03
		-3.16493000E-03	 8.07378000E-02	-1.10965000E-02
		 3.48277000E-03	 9.09858000E-02	 9.75556000E-03
		 3.49854000E-03	 9.27490000E-02	 9.66008000E-03
		 3.09714000E-03	 8.09935000E-02	 1.01143000E-02
		 1.72455000E-03	 9.09453000E-02	 4.66923000E-03
		-8.56762000E-05	 1.18879000E-01	-9.04857000E-04
		-4.13163000E-03	 1.18772000E-01	-1.12638000E-02
		-6.50736000E-05	 1.14819000E-01	-8.28410000E-04
		-4.14027000E-03	 1.14710000E-01	-1.11848000E-02
		-7.43391000E-05	 1.08424000E-01	-8.06730000E-04
		-2.10899000E-03	 1.18821000E-01	-6.05721000E-03
		-3.91891000E-03	 1.08299000E-01	-1.10898000E-02
		-7.58385000E-05	 1.16854000E-01	-8.67223000E-04
		-4.13660000E-03	 1.16746000E-01	-1.12533000E-02
		-5.44251000E-05	 1.04578000E-01	-7.34262000E-04
		-2.10333000E-03	 1.14759000E-01	-6.00732000E-03
		-3.90319000E-03	 1.04452000E-01	-1.10073000E-02
		 3.96062000E-03	 1.19022000E-01	 9.45297000E-03
		 4.01046000E-03	 1.14960000E-01	 9.52725000E-03
		 3.77275000E-03	 1.08548000E-01	 9.47377000E-03
		 1.93779000E-03	 1.18944000E-01	 4.24795000E-03
		 3.98519000E-03	 1.16997000E-01	 9.51755000E-03
		 3.79564000E-03	 1.04698000E-01	 9.53650000E-03
		 1.97340000E-03	 1.14883000E-01	 4.35065000E-03
		-4.37694000E-05	 1.10730000E-01	-7.53743000E-04
		-4.15817000E-03	 1.10613000E-01	-1.11098000E-02
		-5.41002000E-05	 1.12779000E-01	-7.90385000E-04
		-4.14931000E-03	 1.12669000E-01	-1.11182000E-02
		-3.48437000E-05	 1.00728000E-01	-6.61301000E-04
		-2.09916000E-03	 1.10666000E-01	-5.96079000E-03
		-3.89561000E-03	 1.00596000E-01	-1.09433000E-02
		 4.07081000E-03	 1.10864000E-01	 9.60221000E-03
		 4.04152000E-03	 1.12918000E-01	 9.53678000E-03
		 3.82619000E-03	 1.00842000E-01	 9.61895000E-03
		 2.01167000E-03	 1.10791000E-01	 4.45376000E-03
		-9.46550000E-05	 1.40036000E-01	-1.12710000E-03
		-4.39262000E-03	 1.39921000E-01	-1.16086000E-02
		-8.27073000E-05	 1.35748000E-01	-1.03845000E-03
		-4.37240000E-03	 1.35620000E-01	-1.15204000E-02
		-9.40759000E-05	 1.29473000E-01	-1.01486000E-03
		-2.24279000E-03	 1.39979000E-01	-6.35478000E-03
		-4.31102000E-03	 1.29357000E-01	-1.14579000E-02
		-8.80690000E-05	 1.37893000E-01	-1.08141000E-03
		-4.38182000E-03	 1.37770000E-01	-1.15713000E-02
		-7.55141000E-05	 1.25251000E-01	-9.30417000E-04
		-2.22690000E-03	 1.35684000E-01	-6.27318000E-03
		-4.30789000E-03	 1.25129000E-01	-1.13746000E-02
		 4.19736000E-03	 1.40184000E-01	 9.36113000E-03
		 4.20789000E-03	 1.35888000E-01	 9.45055000E-03
		 4.11930000E-03	 1.29610000E-01	 9.43264000E-03
		 2.05219000E-03	 1.40110000E-01	 4.10238000E-03
		 4.20237000E-03	 1.38038000E-01	 9.41529000E-03
		 4.15739000E-03	 1.25387000E-01	 9.51818000E-03
		 2.06190000E-03	 1.35819000E-01	 4.19822000E-03
		-6.98297000E-05	 1.31449000E-01	-9.59819000E-04
		-4.36808000E-03	 1.31316000E-01	-1.14327000E-02
		-7.71922000E-05	 1.33597000E-01	-9.98160000E-04
		-4.37138000E-03	 1.33468000E-01	-1.14735000E-02
		-5.63269000E-05	 1.21009000E-01	-8.53278000E-04
		-2.21760000E-03	 1.31382000E-01	-6.19206000E-03
		-4.31243000E-03	 1.20883000E-01	-1.12905000E-02
		 4.23561000E-03	 1.31577000E-01	 9.52028000E-03
		 4.22199000E-03	 1.33734000E-01	 9.48381000E-03
		 4.20376000E-03	 1.21137000E-01	 9.58842000E-03
		 2.07995000E-03	 1.31513000E-01	 4.27498000E-03
		 0.00000000E+00	 0.00000000E+00	 0.00000000E+00
		 0.00000000E+00	 0.00000000E+00	 0.00000000E+00
		-7.58749000E-05	-6.63107000E-03	 3.83534000E-05
		-1.88423000E-03	-7.04162000E-03	 6.64461000E-03
		 0.00000000E+00	 0.00000000E+00	 0.00000000E+00
		 0.00000000E+00	 0.00000000E+00	 0.00000000E+00
		-6.85404000E-05	-8.05283000E-03	-4.46408000E-05
		-1.09803000E-03	-8.47590000E-03	 6.65098000E-03
		 0.00000000E+00	 0.00000000E+00	 0.00000000E+00
		-2.02490000E-05	-1.42873000E-03	 2.47462000E-05
		-9.85634000E-04	-6.69294000E-03	 3.33760000E-03
		-1.44943000E-03	-2.03283000E-03	 3.48469000E-03
		 0.00000000E+00	 0.00000000E+00	 0.00000000E+00
		 0.00000000E+00	 0.00000000E+00	 0.00000000E+00
		-6.99043000E-05	-7.48145000E-03	-5.84384000E-06
		-1.48219000E-03	-7.89273000E-03	 6.54564000E-03
		 0.00000000E+00	 0.00000000E+00	 0.00000000E+00
		-1.80622000E-05	-2.32003000E-03	-1.45283000E-05
		-5.84092000E-04	-8.11399000E-03	 3.19241000E-03
		-4.66021000E-04	-2.90073000E-03	 3.36263000E-03
		 0.00000000E+00	 0.00000000E+00	 0.00000000E+00
		 1.73435000E-03	-6.91718000E-03	-6.58196000E-03
		 0.00000000E+00	 0.00000000E+00	 0.00000000E+00
		 9.69671000E-04	-8.36403000E-03	-6.75347000E-03
		 0.00000000E+00	 0.00000000E+00	 0.00000000E+00
		 1.41312000E-03	-1.97439000E-03	-3.43949000E-03
		 8.33235000E-04	-6.63028000E-03	-3.26621000E-03
		 0.00000000E+00	 0.00000000E+00	 0.00000000E+00
		 1.34792000E-03	-7.77415000E-03	-6.57010000E-03
		 0.00000000E+00	 0.00000000E+00	 0.00000000E+00
		 4.38983000E-04	-2.86380000E-03	-3.39487000E-03
		 4.47164000E-04	-8.05900000E-03	-3.28674000E-03
		 0.00000000E+00	 0.00000000E+00	 0.00000000E+00
		 0.00000000E+00	 0.00000000E+00	 0.00000000E+00
		-7.06843000E-05	-8.69607000E-03	-1.11783000E-04
		-2.99852000E-04	-9.07089000E-03	 6.49910000E-03
		 0.00000000E+00	 0.00000000E+00	 0.00000000E+00
		 0.00000000E+00	 0.00000000E+00	 0.00000000E+00
		-6.80463000E-05	-8.51111000E-03	-8.02107000E-05
		-7.02700000E-04	-8.90936000E-03	 6.69101000E-03
		 0.00000000E+00	 0.00000000E+00	 0.00000000E+00
		-2.81307000E-05	-2.33237000E-03	-4.44652000E-05
		-1.87374000E-04	-8.73674000E-03	 2.97081000E-03
		 5.49612000E-04	-2.87171000E-03	 3.41554000E-03
		 0.00000000E+00	 0.00000000E+00	 0.00000000E+00
		 1.71049000E-04	-8.97729000E-03	-6.73083000E-03
		 0.00000000E+00	 0.00000000E+00	 0.00000000E+00
		 5.75753000E-04	-8.80868000E-03	-6.86329000E-03
		 0.00000000E+00	 0.00000000E+00	 0.00000000E+00
		-5.94788000E-04	-2.85253000E-03	-3.51016000E-03
		 4.97545000E-05	-8.69403000E-03	-3.19643000E-03
		-2.56063000E-04	-2.41397000E-02	-2.51832000E-05
		-3.40784000E-03	-2.45530000E-02	 1.11031000E-02
		-2.34225000E-04	-2.70160000E-02	-1.87457000E-04
		-2.84217000E-03	-2.74216000E-02	 1.09682000E-02
		-1.55906000E-04	-1.43268000E-02	 2.19982000E-05
		-1.83389000E-03	-2.42910000E-02	 5.60439000E-03
		-2.59007000E-03	-1.47996000E-02	 9.12510000E-03
		-2.44783000E-04	-2.56361000E-02	-1.10116000E-04
		-3.12423000E-03	-2.60410000E-02	 1.09213000E-02
		-1.43650000E-04	-1.64380000E-02	-1.01185000E-04
		-1.53348000E-03	-2.71611000E-02	 5.34620000E-03
		-1.91336000E-03	-1.68903000E-02	 9.03602000E-03
		 2.90465000E-03	-2.42462000E-02	-1.11677000E-02
		 2.37668000E-03	-2.71386000E-02	-1.13551000E-02
		 2.28175000E-03	-1.45893000E-02	-9.09769000E-03
		 1.32325000E-03	-2.41339000E-02	-5.65925000E-03
		 2.64315000E-03	-2.57554000E-02	-1.11517000E-02
		 1.63422000E-03	-1.66976000E-02	-9.25359000E-03
		 1.07037000E-03	-2.70213000E-02	-5.72134000E-03
		-2.25562000E-04	-2.93537000E-02	-3.32681000E-04
		-2.26429000E-03	-2.97293000E-02	 1.07957000E-02
		-2.28992000E-04	-2.82405000E-02	-2.60242000E-04
		-2.55105000E-03	-2.86663000E-02	 1.10182000E-02
		-1.41550000E-04	-1.78733000E-02	-2.06846000E-04
		-1.25237000E-03	-2.94775000E-02	 5.05148000E-03
		-1.22938000E-03	-1.83082000E-02	 8.89832000E-03
		 1.84588000E-03	-2.94802000E-02	-1.14727000E-02
		 2.11149000E-03	-2.83663000E-02	-1.15537000E-02
		 9.68587000E-04	-1.81431000E-02	-9.32419000E-03
		 8.10452000E-04	-2.93603000E-02	-5.71537000E-03
		-4.61399000E-04	-4.89827000E-02	-2.38085000E-04
		-4.94960000E-03	-4.92758000E-02	 1.36382000E-02
		-4.24734000E-04	-5.32881000E-02	-4.43481000E-04
		-4.62455000E-03	-5.37003000E-02	 1.34717000E-02
		-3.60069000E-04	-3.57638000E-02	-1.09595000E-04
		-2.69695000E-03	-4.90910000E-02	 6.69779000E-03
		-4.23730000E-03	-3.61441000E-02	 1.26262000E-02
		-4.41441000E-04	-5.11726000E-02	-3.38336000E-04
		-4.78976000E-03	-5.15414000E-02	 1.34683000E-02
		-3.32012000E-04	-3.94136000E-02	-3.01978000E-04
		-2.55007000E-03	-5.34587000E-02	 6.41298000E-03
		-3.77867000E-03	-3.98076000E-02	 1.24696000E-02
		 3.99202000E-03	-4.88675000E-02	-1.41061000E-02
		 3.77519000E-03	-5.32046000E-02	-1.43853000E-02
		 3.51570000E-03	-3.57615000E-02	-1.28563000E-02
		 1.76202000E-03	-4.88897000E-02	-7.16408000E-03
		 3.88280000E-03	-5.10726000E-02	-1.41660000E-02
		 3.12182000E-03	-3.94226000E-02	-1.30847000E-02
		 1.67711000E-03	-5.32172000E-02	-7.32153000E-03
		-3.99275000E-04	-5.73597000E-02	-6.44050000E-04
		-4.42087000E-03	-5.78889000E-02	 1.32285000E-02
		-4.10481000E-04	-5.53726000E-02	-5.46898000E-04
		-4.52503000E-03	-5.57161000E-02	 1.34868000E-02
		-3.04647000E-04	-4.26516000E-02	-4.80945000E-04
		-2.37997000E-03	-5.75920000E-02	 6.05179000E-03
		-3.36825000E-03	-4.30679000E-02	 1.22587000E-02
		 3.58031000E-03	-5.73093000E-02	-1.45697000E-02
		 3.67928000E-03	-5.52832000E-02	-1.46084000E-02
		 2.72522000E-03	-4.26655000E-02	-1.32332000E-02
		 1.58286000E-03	-5.73175000E-02	-7.38550000E-03
		-5.78054000E-04	-7.79022000E-02	-5.84483000E-04
		-5.59654000E-03	-7.79042000E-02	 1.33494000E-02
		-5.44652000E-04	-8.30795000E-02	-7.74918000E-04
		-5.91144000E-03	-8.35467000E-02	 1.31987000E-02
		-5.64271000E-04	-6.33081000E-02	-4.01617000E-04
		-3.08690000E-03	-7.79314000E-02	 6.30742000E-03
		-5.41081000E-03	-6.35553000E-02	 1.38564000E-02
		-5.60654000E-04	-8.04248000E-02	-6.77995000E-04
		-5.74489000E-03	-8.06068000E-02	 1.32756000E-02
		-5.32300000E-04	-6.81716000E-02	-6.49714000E-04
		-3.10513000E-03	-8.33275000E-02	 6.12969000E-03
		-5.41005000E-03	-6.83780000E-02	 1.37398000E-02
		 4.27204000E-03	-7.75673000E-02	-1.45125000E-02
		 4.52270000E-03	-8.25948000E-02	-1.47391000E-02
		 4.25736000E-03	-6.30658000E-02	-1.46580000E-02
		 1.84548000E-03	-7.77739000E-02	-7.47330000E-03
		 4.40095000E-03	-8.00462000E-02	-1.46258000E-02
		 4.27649000E-03	-6.79029000E-02	-1.49351000E-02
		 1.97776000E-03	-8.28496000E-02	-7.67872000E-03
		-6.49975000E-04	-8.85150000E-02	-9.77527000E-04
		-6.10938000E-03	-8.93553000E-02	 1.29607000E-02
		-5.95196000E-04	-8.57294000E-02	-8.75521000E-04
		-6.00891000E-03	-8.69020000E-02	 1.31265000E-02
		-5.27593000E-04	-7.30359000E-02	-9.27102000E-04
		-3.49337000E-03	-8.89349000E-02	 5.86531000E-03
		-5.27376000E-03	-7.31344000E-02	 1.34702000E-02
		 4.80583000E-03	-8.78830000E-02	-1.49015000E-02