# vtk DataFile Version 3.0

ASCII
DATASET UNSTRUCTURED_GRID

POINTS 522 double
	 1.00000000E+00	 1.00000000E+00	-5.96046000E-08
	 1.00000000E+00	 5.00000000E-01	-5.96046000E-08
	 1.00000000E+00	 5.00000000E-01	 1.00000000E+00
	 1.00000000E+00	 1.00000000E+00	 1.00000000E+00
	 5.00000000E-01	 1.00000000E+00	-5.96046000E-08
	 5.00000000E-01	 5.00000000E-01	-5.96046000E-08
	 5.00000000E-01	 5.00000000E-01	 1.00000000E+00
	 5.00000000E-01	 1.00000000E+00	 1.00000000E+00
	 1.00000000E+00	 7.50000000E-01	-5.96046000E-08
	 1.00000000E+00	 5.00000000E-01	 5.00000000E-01
	 1.00000000E+00	 7.50000000E-01	 1.00000000E+00
	 1.00000000E+00	 1.00000000E+00	 5.00000000E-01
	 7.50000000E-01	 1.00000000E+00	-5.96046000E-08
	 7.50000000E-01	 5.00000000E-01	-5.96046000E-08
	 7.50000000E-01	 5.00000000E-01	 1.00000000E+00
	 7.50000000E-01	 1.00000000E+00	 1.00000000E+00
	 5.00000000E-01	 7.50000000E-01	-5.96046000E-08
	 5.00000000E-01	 5.00000000E-01	 5.00000000E-01
	 5.00000000E-01	 7.50000000E-01	 1.00000000E+00
	 5.00000000E-01	 1.00000000E+00	 5.00000000E-01
	 1.00000000E+00	-1.49012000E-08	-5.96046000E-08
	 1.00000000E+00	-1.49012000E-08	 1.00000000E+00
	 5.00000000E-01	-1.49012000E-08	-5.96046000E-08
	 5.00000000E-01	-1.49012000E-08	 1.00000000E+00
	 1.00000000E+00	 2.50000000E-01	-5.96046000E-08
	 1.00000000E+00	-1.49012000E-08	 5.00000000E-01
	 1.00000000E+00	 2.50000000E-01	 1.00000000E+00
	 7.50000000E-01	-1.49012000E-08	-5.96046000E-08
	 7.50000000E-01	-1.49012000E-08	 1.00000000E+00
	 5.00000000E-01	 2.50000000E-01	-5.96046000E-08
	 5.00000000E-01	-1.49012000E-08	 5.00000000E-01
	 5.00000000E-01	 2.50000000E-01	 1.00000000E+00
	-7.45058000E-09	 1.00000000E+00	-5.96046000E-08
	-7.45058000E-09	 5.00000000E-01	-5.96046000E-08
	-7.45058000E-09	 5.00000000E-01	 1.00000000E+00
	-7.45058000E-09	 1.00000000E+00	 1.00000000E+00
	 2.50000000E-01	 1.00000000E+00	-5.96046000E-08
	 2.50000000E-01	 5.00000000E-01	-5.96046000E-08
	 2.50000000E-01	 5.00000000E-01	 1.00000000E+00
	 2.50000000E-01	 1.00000000E+00	 1.00000000E+00
	-7.45058000E-09	 7.50000000E-01	-5.96046000E-08
	-7.45058000E-09	 5.00000000E-01	 5.00000000E-01
	-7.45058000E-09	 7.50000000E-01	 1.00000000E+00
	-7.45058000E-09	 1.00000000E+00	 5.00000000E-01
	-7.45058000E-09	-1.49012000E-08	-5.96046000E-08
	-7.45058000E-09	-1.49012000E-08	 1.00000000E+00
	 2.50000000E-01	-1.49012000E-08	-5.96046000E-08
	 2.50000000E-01	-1.49012000E-08	 1.00000000E+00
	-7.45058000E-09	 2.50000000E-01	-5.96046000E-08
	-7.45058000E-09	-1.49012000E-08	 5.00000000E-01
	-7.45058000E-09	 2.50000000E-01	 1.00000000E+00
	 1.00000000E+00	 5.00000000E-01	 2.00000000E+00
	 1.00000000E+00	 1.00000000E+00	 2.00000000E+00
	 5.00000000E-01	 5.00000000E-01	 2.00000000E+00
	 5.00000000E-01	 1.00000000E+00	 2.00000000E+00
	 1.00000000E+00	 5.00000000E-01	 1.50000000E+00
	 1.00000000E+00	 7.50000000E-01	 2.00000000E+00
	 1.00000000E+00	 1.00000000E+00	 1.50000000E+00
	 7.50000000E-01	 5.00000000E-01	 2.00000000E+00
	 7.50000000E-01	 1.00000000E+00	 2.00000000E+00
	 5.00000000E-01	 5.00000000E-01	 1.50000000E+00
	 5.00000000E-01	 7.50000000E-01	 2.00000000E+00
	 5.00000000E-01	 1.00000000E+00	 1.50000000E+00
	 1.00000000E+00	-1.49012000E-08	 2.00000000E+00
	 5.00000000E-01	-1.49012000E-08	 2.00000000E+00
	 1.00000000E+00	-1.49012000E-08	 1.50000000E+00
	 1.00000000E+00	 2.50000000E-01	 2.00000000E+00
	 7.50000000E-01	-1.49012000E-08	 2.00000000E+00
	 5.00000000E-01	-1.49012000E-08	 1.50000000E+00
	 5.00000000E-01	 2.50000000E-01	 2.00000000E+00
	-7.45058000E-09	 5.00000000E-01	 2.00000000E+00
	-7.45058000E-09	 1.00000000E+00	 2.00000000E+00
	 2.50000000E-01	 5.00000000E-01	 2.00000000E+00
	 2.50000000E-01	 1.00000000E+00	 2.00000000E+00
	-7.45058000E-09	 5.00000000E-01	 1.50000000E+00
	-7.45058000E-09	 7.50000000E-01	 2.00000000E+00
	-7.45058000E-09	 1.00000000E+00	 1.50000000E+00
	-7.45058000E-09	-1.49012000E-08	 2.00000000E+00
	 2.50000000E-01	-1.49012000E-08	 2.00000000E+00
	-7.45058000E-09	-1.49012000E-08	 1.50000000E+00
	-7.45058000E-09	 2.50000000E-01	 2.00000000E+00
	 1.00000000E+00	 5.00000000E-01	 3.00000000E+00
	 1.00000000E+00	 1.00000000E+00	 3.00000000E+00
	 5.00000000E-01	 5.00000000E-01	 3.00000000E+00
	 5.00000000E-01	 1.00000000E+00	 3.00000000E+00
	 1.00000000E+00	 5.00000000E-01	 2.50000000E+00
	 1.00000000E+00	 7.50000000E-01	 3.00000000E+00
	 1.00000000E+00	 1.00000000E+00	 2.50000000E+00
	 7.50000000E-01	 5.00000000E-01	 3.00000000E+00
	 7.50000000E-01	 1.00000000E+00	 3.00000000E+00
	 5.00000000E-01	 5.00000000E-01	 2.50000000E+00
	 5.00000000E-01	 7.50000000E-01	 3.00000000E+00
	 5.00000000E-01	 1.00000000E+00	 2.50000000E+00
	 1.00000000E+00	-1.49012000E-08	 3.00000000E+00
	 5.00000000E-01	-1.49012000E-08	 3.00000000E+00
	 1.00000000E+00	-1.49012000E-08	 2.50000000E+00
	 1.00000000E+00	 2.50000000E-01	 3.00000000E+00
	 7.50000000E-01	-1.49012000E-08	 3.00000000E+00
	 5.00000000E-01	-1.49012000E-08	 2.50000000E+00
	 5.00000000E-01	 2.50000000E-01	 3.00000000E+00
	-7.45058000E-09	 5.00000000E-01	 3.00000000E+00
	-7.45058000E-09	 1.00000000E+00	 3.00000000E+00
	 2.50000000E-01	 5.00000000E-01	 3.00000000E+00
	 2.50000000E-01	 1.00000000E+00	 3.00000000E+00
	-7.45058000E-09	 5.00000000E-01	 2.50000000E+00
	-7.45058000E-09	 7.50000000E-01	 3.00000000E+00
	-7.45058000E-09	 1.00000000E+00	 2.50000000E+00
	-7.45058000E-09	-1.49012000E-08	 3.00000000E+00
	 2.50000000E-01	-1.49012000E-08	 3.00000000E+00
	-7.45058000E-09	-1.49012000E-08	 2.50000000E+00
	-7.45058000E-09	 2.50000000E-01	 3.00000000E+00
	 1.00000000E+00	 5.00000000E-01	 4.00000000E+00
	 1.00000000E+00	 1.00000000E+00	 4.00000000E+00
	 5.00000000E-01	 5.00000000E-01	 4.00000000E+00
	 5.00000000E-01	 1.00000000E+00	 4.00000000E+00
	 1.00000000E+00	 5.00000000E-01	 3.50000000E+00
	 1.00000000E+00	 7.50000000E-01	 4.00000000E+00
	 1.00000000E+00	 1.00000000E+00	 3.50000000E+00
	 7.50000000E-01	 5.00000000E-01	 4.00000000E+00
	 7.50000000E-01	 1.00000000E+00	 4.00000000E+00
	 5.00000000E-01	 5.00000000E-01	 3.50000000E+00
	 5.00000000E-01	 7.50000000E-01	 4.00000000E+00
	 5.00000000E-01	 1.00000000E+00	 3.50000000E+00
	 1.00000000E+00	-1.49012000E-08	 4.00000000E+00
	 5.00000000E-01	-1.49012000E-08	 4.00000000E+00
	 1.00000000E+00	-1.49012000E-08	 3.50000000E+00
	 1.00000000E+00	 2.50000000E-01	 4.00000000E+00
	 7.50000000E-01	-1.49012000E-08	 4.00000000E+00
	 5.00000000E-01	-1.49012000E-08	 3.50000000E+00
	 5.00000000E-01	 2.50000000E-01	 4.00000000E+00
	-7.45058000E-09	 5.00000000E-01	 4.00000000E+00
	-7.45058000E-09	 1.00000000E+00	 4.00000000E+00
	 2.50000000E-01	 5.00000000E-01	 4.00000000E+00
	 2.50000000E-01	 1.00000000E+00	 4.00000000E+00
	-7.45058000E-09	 5.00000000E-01	 3.50000000E+00
	-7.45058000E-09	 7.50000000E-01	 4.00000000E+00
	-7.45058000E-09	 1.00000000E+00	 3.50000000E+00
	-7.45058000E-09	-1.49012000E-08	 4.00000000E+00
	 2.50000000E-01	-1.49012000E-08	 4.00000000E+00
	-7.45058000E-09	-1.49012000E-08	 3.50000000E+00
	-7.45058000E-09	 2.50000000E-01	 4.00000000E+00
	 1.00000000E+00	 5.00000000E-01	 5.00000000E+00
	 1.00000000E+00	 1.00000000E+00	 5.00000000E+00
	 5.00000000E-01	 5.00000000E-01	 5.00000000E+00
	 5.00000000E-01	 1.00000000E+00	 5.00000000E+00
	 1.00000000E+00	 5.00000000E-01	 4.50000000E+00
	 1.00000000E+00	 7.50000000E-01	 5.00000000E+00
	 1.00000000E+00	 1.00000000E+00	 4.50000000E+00
	 7.50000000E-01	 5.00000000E-01	 5.00000000E+00
	 7.50000000E-01	 1.00000000E+00	 5.00000000E+00
	 5.00000000E-01	 5.00000000E-01	 4.50000000E+00
	 5.00000000E-01	 7.50000000E-01	 5.00000000E+00
	 5.00000000E-01	 1.00000000E+00	 4.50000000E+00
	 1.00000000E+00	-1.49012000E-08	 5.00000000E+00
	 5.00000000E-01	-1.49012000E-08	 5.00000000E+00
	 1.00000000E+00	-1.49012000E-08	 4.50000000E+00
	 1.00000000E+00	 2.50000000E-01	 5.00000000E+00
	 7.50000000E-01	-1.49012000E-08	 5.00000000E+00
	 5.00000000E-01	-1.49012000E-08	 4.50000000E+00
	 5.00000000E-01	 2.50000000E-01	 5.00000000E+00
	-7.45058000E-09	 5.00000000E-01	 5.00000000E+00
	-7.45058000E-09	 1.00000000E+00	 5.00000000E+00
	 2.50000000E-01	 5.00000000E-01	 5.00000000E+00
	 2.50000000E-01	 1.00000000E+00	 5.00000000E+00
	-7.45058000E-09	 5.00000000E-01	 4.50000000E+00
	-7.45058000E-09	 7.50000000E-01	 5.00000000E+00
	-7.45058000E-09	 1.00000000E+00	 4.50000000E+00
	-7.45058000E-09	-1.49012000E-08	 5.00000000E+00
	 2.50000000E-01	-1.49012000E-08	 5.00000000E+00
	-7.45058000E-09	-1.49012000E-08	 4.50000000E+00
	-7.45058000E-09	 2.50000000E-01	 5.00000000E+00
	 1.00000000E+00	 5.00000000E-01	 6.00000000E+00
	 1.00000000E+00	 1.00000000E+00	 6.00000000E+00
	 5.00000000E-01	 5.00000000E-01	 6.00000000E+00
	 5.00000000E-01	 1.00000000E+00	 6.00000000E+00
	 1.00000000E+00	 5.00000000E-01	 5.50000000E+00
	 1.00000000E+00	 7.50000000E-01	 6.00000000E+00
	 1.00000000E+00	 1.00000000E+00	 5.50000000E+00
	 7.50000000E-01	 5.00000000E-01	 6.00000000E+00
	 7.50000000E-01	 1.00000000E+00	 6.00000000E+00
	 5.00000000E-01	 5.00000000E-01	 5.50000000E+00
	 5.00000000E-01	 7.50000000E-01	 6.00000000E+00
	 5.00000000E-01	 1.00000000E+00	 5.50000000E+00
	 1.00000000E+00	-1.49012000E-08	 6.00000000E+00
	 5.00000000E-01	-1.49012000E-08	 6.00000000E+00
	 1.00000000E+00	-1.49012000E-08	 5.50000000E+00
	 1.00000000E+00	 2.50000000E-01	 6.00000000E+00
	 7.50000000E-01	-1.49012000E-08	 6.00000000E+00
	 5.00000000E-01	-1.49012000E-08	 5.50000000E+00
	 5.00000000E-01	 2.50000000E-01	 6.00000000E+00
	-7.45058000E-09	 5.00000000E-01	 6.00000000E+00
	-7.45058000E-09	 1.00000000E+00	 6.00000000E+00
	 2.50000000E-01	 5.00000000E-01	 6.00000000E+00
	 2.50000000E-01	 1.00000000E+00	 6.00000000E+00
	-7.45058000E-09	 5.00000000E-01	 5.50000000E+00
	-7.45058000E-09	 7.50000000E-01	 6.00000000E+00
	-7.45058000E-09	 1.00000000E+00	 5.50000000E+00
	-7.45058000E-09	-1.49012000E-08	 6.00000000E+00
	 2.50000000E-01	-1.49012000E-08	 6.00000000E+00
	-7.45058000E-09	-1.49012000E-08	 5.50000000E+00
	-7.45058000E-09	 2.50000000E-01	 6.00000000E+00
	 1.00000000E+00	 5.00000000E-01	 7.00000000E+00
[...]
POINT_DATA 522
FIELD U 1
	U 3 522 double
		 0.00000000E+00	 0.00000000E+00	 0.00000000E+00
		 0.00000000E+00	 0.00000000E+00	 0.00000000E+00
		 6.53546000E-06	-1.38939000E-03	 2.68480000E-05
		-1.48216000E-03	-1.61069000E-03	 2.87273000E-03
		 0.00000000E+00	 0.00000000E+00	 0.00000000E+00
		 0.00000000E+00	 0.00000000E+00	 0.00000000E+00
		 1.08885000E-05	-2.65591000E-03	 2.41944000E-05
		-1.04319000E-03	-2.88586000E-03	 2.89045000E-03
		 0.00000000E+00	 0.00000000E+00	 0.00000000E+00
		 1.86495000E-06	 1.63184000E-04	 1.18429000E-05
		-7.39879000E-04	-1.42919000E-03	 1.54364000E-03
		-9.24893000E-04	-1.09199000E-04	 1.35850000E-03
		 0.00000000E+00	 0.00000000E+00	 0.00000000E+00
		 0.00000000E+00	 0.00000000E+00	 0.00000000E+00
		 8.97775000E-06	-2.09250000E-03	 2.55784000E-05
		-1.25898000E-03	-2.31527000E-03	 2.78045000E-03
		 0.00000000E+00	 0.00000000E+00	 0.00000000E+00
		 5.27714000E-06	-5.50812000E-04	 1.24115000E-05
		-5.15220000E-04	-2.69612000E-03	 1.44941000E-03
		-5.12975000E-04	-8.03350000E-04	 1.31141000E-03
		 0.00000000E+00	 0.00000000E+00	 0.00000000E+00
		 1.49624000E-03	-1.57425000E-03	-2.82335000E-03
		 0.00000000E+00	 0.00000000E+00	 0.00000000E+00
		 1.06850000E-03	-2.85321000E-03	-2.84604000E-03
		 0.00000000E+00	 0.00000000E+00	 0.00000000E+00
		 9.28769000E-04	-8.98988000E-05	-1.33275000E-03
		 7.53222000E-04	-1.40875000E-03	-1.49214000E-03
		 0.00000000E+00	 0.00000000E+00	 0.00000000E+00
		 1.27959000E-03	-2.28123000E-03	-2.73287000E-03
		 0.00000000E+00	 0.00000000E+00	 0.00000000E+00
		 5.25748000E-04	-7.85629000E-04	-1.28413000E-03
		 5.38181000E-04	-2.67896000E-03	-1.40265000E-03
		 0.00000000E+00	 0.00000000E+00	 0.00000000E+00
		 0.00000000E+00	 0.00000000E+00	 0.00000000E+00
		 1.42038000E-05	-3.50219000E-03	 2.35008000E-05
		-5.95576000E-04	-3.70848000E-03	 2.86875000E-03
		 0.00000000E+00	 0.00000000E+00	 0.00000000E+00
		 0.00000000E+00	 0.00000000E+00	 0.00000000E+00
		 1.23858000E-05	-3.14734000E-03	 2.31309000E-05
		-8.21669000E-04	-3.36894000E-03	 2.96719000E-03
		 0.00000000E+00	 0.00000000E+00	 0.00000000E+00
		 8.88845000E-06	-8.76772000E-04	 1.50153000E-05
		-2.92468000E-04	-3.53198000E-03	 1.34964000E-03
		-6.11399000E-05	-1.10686000E-03	 1.36121000E-03
		 0.00000000E+00	 0.00000000E+00	 0.00000000E+00
		 6.29309000E-04	-3.68240000E-03	-2.82465000E-03
		 0.00000000E+00	 0.00000000E+00	 0.00000000E+00
		 8.50806000E-04	-3.33805000E-03	-2.92502000E-03
		 0.00000000E+00	 0.00000000E+00	 0.00000000E+00
		 8.23075000E-05	-1.09167000E-03	-1.32932000E-03
		 3.22535000E-04	-3.51971000E-03	-1.30327000E-03
		 1.86405000E-05	-9.48959000E-03	 2.71591000E-05
		-2.29024000E-03	-9.68536000E-03	 5.64545000E-03
		 2.78930000E-05	-1.16130000E-02	 7.59107000E-06
		-1.92916000E-03	-1.18209000E-02	 5.64455000E-03
		 1.22617000E-05	-4.62617000E-03	 3.33730000E-05
		-1.13163000E-03	-9.54553000E-03	 2.82889000E-03
		-1.96365000E-03	-4.84452000E-03	 4.35842000E-03
		 2.40316000E-05	-1.05905000E-02	 1.70535000E-05
		-2.11013000E-03	-1.07972000E-02	 5.60896000E-03
		 1.83088000E-05	-6.38076000E-03	 2.30462000E-05
		-9.51846000E-04	-1.16758000E-02	 2.78042000E-03
		-1.53077000E-03	-6.61159000E-03	 4.36070000E-03
		 2.32589000E-03	-9.60229000E-03	-5.59787000E-03
		 1.98422000E-03	-1.17396000E-02	-5.63625000E-03
		 1.98733000E-03	-4.78688000E-03	-4.29855000E-03
		 1.16810000E-03	-9.50478000E-03	-2.77615000E-03
		 2.15670000E-03	-1.07154000E-02	-5.58179000E-03
		 1.56901000E-03	-6.55671000E-03	-4.32058000E-03
		 1.00685000E-03	-1.16358000E-02	-2.76681000E-03
		 3.26882000E-05	-1.34035000E-02	-7.03264000E-06
		-1.58455000E-03	-1.36087000E-02	 5.60828000E-03
		 3.07701000E-05	-1.25498000E-02	-6.04560000E-07
		-1.75654000E-03	-1.27561000E-02	 5.68768000E-03
		 2.19134000E-05	-7.72687000E-03	 1.69179000E-05
		-7.76358000E-04	-1.34650000E-02	 2.69411000E-03
		-1.11894000E-03	-7.95984000E-03	 4.34094000E-03
		 1.65107000E-03	-1.35312000E-02	-5.62882000E-03
		 1.81809000E-03	-1.26751000E-02	-5.69533000E-03
		 1.16722000E-03	-7.91064000E-03	-4.31172000E-03
		 8.41872000E-04	-1.34279000E-02	-2.70976000E-03
		 1.92066000E-05	-2.27039000E-02	-2.36027000E-05
		-2.64226000E-03	-2.28053000E-02	 7.03494000E-03
		 3.26499000E-05	-2.53275000E-02	-6.32496000E-05
		-2.54981000E-03	-2.54261000E-02	 7.02222000E-03
		 2.16708000E-05	-1.56823000E-02	 7.77063000E-06
		-1.31289000E-03	-2.27440000E-02	 3.47146000E-03
		-2.49798000E-03	-1.58370000E-02	 6.54880000E-03
		 2.57716000E-05	-2.40266000E-02	-4.42281000E-05
		-2.59626000E-03	-2.41254000E-02	 7.00858000E-03
		 3.27647000E-05	-1.80876000E-02	-2.26389000E-05
		-1.25925000E-03	-2.53658000E-02	 3.42196000E-03
		-2.26416000E-03	-1.82451000E-02	 6.54577000E-03
		 2.68481000E-03	-2.26821000E-02	-7.08449000E-03
		 2.61606000E-03	-2.53082000E-02	-7.15152000E-03
		 2.54150000E-03	-1.57311000E-02	-6.53840000E-03
		 1.35239000E-03	-2.26838000E-02	-3.51973000E-03
		 2.65089000E-03	-2.40059000E-02	-7.09885000E-03
		 2.32888000E-03	-1.81420000E-02	-6.59687000E-03
		 1.32471000E-03	-2.53094000E-02	-3.54935000E-03
		 4.41906000E-05	-2.78670000E-02	-9.90878000E-05
		-2.46344000E-03	-2.79694000E-02	 6.95573000E-03
		 3.90945000E-05	-2.66075000E-02	-8.13146000E-05
		-2.50618000E-03	-2.67073000E-02	 7.04071000E-03
		 4.02024000E-05	-2.02745000E-02	-4.82654000E-05
		-1.20851000E-03	-2.79066000E-02	 3.32127000E-03
		-2.04092000E-03	-2.04335000E-02	 6.48818000E-03
		 2.54973000E-03	-2.78517000E-02	-7.15744000E-03
		 2.58307000E-03	-2.65889000E-02	-7.20682000E-03
		 2.12002000E-03	-2.03322000E-02	-6.59100000E-03
		 1.29644000E-03	-2.78510000E-02	-3.52062000E-03
		 1.01040000E-05	-3.70199000E-02	-9.84978000E-05
		-2.87281000E-03	-3.70270000E-02	 6.71209000E-03
		 2.46227000E-05	-3.99742000E-02	-1.44606000E-04
		-2.98369000E-03	-3.99710000E-02	 6.67743000E-03
		 1.52224000E-05	-2.99840000E-02	-6.10837000E-05
		-1.43474000E-03	-3.70416000E-02	 3.31071000E-03
		-2.75129000E-03	-3.00371000E-02	 7.02842000E-03
		 1.63960000E-05	-3.84812000E-02	-1.20890000E-04
		-2.92902000E-03	-3.84796000E-02	 6.67268000E-03
		 3.02980000E-05	-3.27752000E-02	-1.05362000E-04
		-1.47962000E-03	-3.99904000E-02	 3.24660000E-03
		-2.77677000E-03	-3.28219000E-02	 7.00597000E-03
		 2.89937000E-03	-3.69089000E-02	-6.90691000E-03
		 3.03654000E-03	-3.98589000E-02	-6.96481000E-03
		 2.78821000E-03	-2.99118000E-02	-7.15081000E-03
		 1.45674000E-03	-3.69823000E-02	-3.50701000E-03
		 2.96762000E-03	-3.83664000E-02	-6.91239000E-03
		 2.84001000E-03	-3.27027000E-02	-7.21734000E-03
		 1.53034000E-03	-3.99361000E-02	-3.53530000E-03
		 4.07911000E-05	-4.30382000E-02	-1.95589000E-04
		-3.09021000E-03	-4.30391000E-02	 6.61475000E-03
		 3.32053000E-05	-4.14895000E-02	-1.69536000E-04
		-3.03616000E-03	-4.14877000E-02	 6.68078000E-03
		 4.53864000E-05	-3.55974000E-02	-1.49320000E-04
		-1.52315000E-03	-4.30549000E-02	 3.15633000E-03
		-2.80518000E-03	-3.56504000E-02	 6.93841000E-03
		 3.17166000E-03	-4.29268000E-02	-7.00453000E-03
		 3.10405000E-03	-4.13748000E-02	-7.01870000E-03
		 2.89444000E-03	-3.55309000E-02	-7.23841000E-03
		 1.60475000E-03	-4.30017000E-02	-3.54677000E-03
		-1.28436000E-05	-4.91825000E-02	-1.54084000E-04
		-3.47470000E-03	-4.91727000E-02	 5.73376000E-03
		-1.14817000E-06	-5.27107000E-02	-2.11995000E-04
		-3.59225000E-03	-5.26988000E-02	 5.67099000E-03
		 2.71986000E-06	-4.34331000E-02	-1.30213000E-04
		-1.74477000E-03	-4.91956000E-02	 2.86199000E-03
		-3.11037000E-03	-4.34338000E-02	 6.22699000E-03
		-6.67669000E-06	-5.09305000E-02	-1.83003000E-04
		-3.53282000E-03	-5.09180000E-02	 5.64296000E-03
		 1.50696000E-05	-4.66281000E-02	-1.80462000E-04
		-1.79676000E-03	-5.27219000E-02	 2.74326000E-03
		-3.24636000E-03	-4.66165000E-02	 6.17822000E-03
		 3.44937000E-03	-4.90697000E-02	-6.03695000E-03
		 3.59315000E-03	-5.25962000E-02	-6.08891000E-03
		 3.11989000E-03	-4.33252000E-02	-6.48282000E-03
		 1.71939000E-03	-4.91414000E-02	-3.16831000E-03
		 3.52111000E-03	-5.08163000E-02	-6.00431000E-03
		 3.28088000E-03	-4.65122000E-02	-6.53441000E-03
		 1.79582000E-03	-5.26696000E-02	-3.16569000E-03
		 1.22627000E-05	-5.63660000E-02	-2.74468000E-04
		-3.70888000E-03	-5.63535000E-02	 5.61361000E-03
		 4.72464000E-06	-5.45217000E-02	-2.42294000E-04
		-3.65128000E-03	-5.45105000E-02	 5.69397000E-03
		 2.93524000E-05	-4.99594000E-02	-2.37895000E-04
		-1.84860000E-03	-5.63756000E-02	 2.63179000E-03
		-3.36928000E-03	-4.99442000E-02	 6.11947000E-03
		 3.73850000E-03	-5.62554000E-02	-6.15572000E-03
		 3.66548000E-03	-5.44081000E-02	-6.17156000E-03
		 3.43192000E-03	-4.98434000E-02	-6.59066000E-03
		 1.87466000E-03	-5.63279000E-02	-3.17919000E-03
		-5.57305000E-05	-5.94636000E-02	-1.96479000E-04
		-4.18947000E-03	-5.94706000E-02	 5.06984000E-03
		-3.90985000E-05	-6.36139000E-02	-2.54674000E-04
		-4.22572000E-03	-6.36330000E-02	 5.00678000E-03
		-3.67270000E-05	-5.44275000E-02	-1.74825000E-04
		-2.12023000E-03	-5.94748000E-02	 2.47612000E-03
		-3.88320000E-03	-5.44239000E-02	 5.35255000E-03
		-4.73682000E-05	-6.15310000E-02	-2.25404000E-04
		-4.20822000E-03	-6.15469000E-02	 5.00746000E-03
		-2.31113000E-05	-5.83104000E-02	-2.36037000E-04
		-2.13380000E-03	-6.36312000E-02	 2.38490000E-03
		-3.95456000E-03	-5.83153000E-02	 5.28319000E-03
		 4.07310000E-03	-5.93774000E-02	-5.46744000E-03
		 4.14516000E-03	-6.35324000E-02	-5.52110000E-03
		 3.80658000E-03	-5.43247000E-02	-5.70148000E-03
		 2.00725000E-03	-5.94263000E-02	-2.87051000E-03
		 4.10979000E-03	-6.14504000E-02	-5.46302000E-03
		 3.90794000E-03	-5.82110000E-02	-5.75319000E-03
		 2.05519000E-03	-6.35793000E-02	-2.89562000E-03
		-1.97330000E-05	-6.78291000E-02	-3.10197000E-04
		-4.27487000E-03	-6.78556000E-02	 4.95541000E-03
		-3.02047000E-05	-6.57142000E-02	-2.83213000E-04
		-4.25149000E-03	-6.57352000E-02	 5.00711000E-03
		-7.17500000E-06	-6.22872000E-02	-2.97680000E-04
		-2.14607000E-03	-6.78506000E-02	 2.30443000E-03
		-4.03640000E-03	-6.22974000E-02	 5.22976000E-03
		 4.23502000E-03	-6.77512000E-02	-5.58078000E-03
		 4.18981000E-03	-6.56321000E-02	-5.57807000E-03
		 4.02339000E-03	-6.21922000E-02	-5.82160000E-03
		 2.10714000E-03	-6.77973000E-02	-2.92656000E-03
		-7.44975000E-05	-6.94931000E-02	-2.47786000E-04
		-4.30490000E-03	-6.95033000E-02	 4.66762000E-03
		-5.34127000E-05	-7.37369000E-02	-2.94994000E-04
		-4.32475000E-03	-7.37534000E-02	 4.62555000E-03
		-6.69844000E-05	-6.44849000E-02	-2.19949000E-04
		-2.18944000E-03	-6.95026000E-02	 2.19561000E-03
		-4.32652000E-03	-6.44891000E-02	 4.85810000E-03
		-6.45097000E-05	-7.16108000E-02	-2.70999000E-04
		-4.31677000E-03	-7.16252000E-02	 4.66028000E-03
		-4.65779000E-05	-6.87529000E-02	-2.73942000E-04
		-2.19161000E-03	-7.37502000E-02	 2.16742000E-03
		-4.34652000E-03	-6.87700000E-02	 4.80377000E-03
		 4.15070000E-03	-6.94277000E-02	-5.15518000E-03
		 4.22002000E-03	-7.36716000E-02	-5.20872000E-03
		 4.18932000E-03	-6.44049000E-02	-5.30254000E-03
		 2.03936000E-03	-6.94684000E-02	-2.68695000E-03
		 4.18443000E-03	-7.15448000E-02	-5.19519000E-03
		 4.25260000E-03	-6.86814000E-02	-5.35739000E-03
		 2.08576000E-03	-7.37110000E-02	-2.75430000E-03
		-3.07437000E-05	-7.80288000E-02	-3.47498000E-04
		-4.34881000E-03	-7.80443000E-02	 4.58243000E-03
		-4.18674000E-05	-7.58750000E-02	-3.21309000E-04
		-4.33636000E-03	-7.58920000E-02	 4.58832000E-03
		-2.42750000E-05	-7.30740000E-02	-3.25000000E-04
		-2.19177000E-03	-7.80402000E-02	 2.13810000E-03
		-4.38519000E-03	-7.31005000E-02	 4.75482000E-03
		 4.29601000E-03	-7.79705000E-02	-5.27184000E-03
		 4.26013000E-03	-7.58124000E-02	-5.22661000E-03
		 4.33781000E-03	-7.30110000E-02	-5.41178000E-03
		 2.13255000E-03	-7.80069000E-02	-2.82893000E-03
		-5.88339000E-05	-7.91510000E-02	-3.00265000E-04
		-4.14519000E-03	-7.92053000E-02	 4.43162000E-03
		-7.01251000E-05	-8.32630000E-02	-3.32976000E-04
		-4.16090000E-03	-8.33251000E-02	 4.42053000E-03
		-7.26450000E-05	-7.43918000E-02	-2.77566000E-04
		-2.09648000E-03	-7.91815000E-02	 2.06009000E-03
		-4.21353000E-03	-7.44181000E-02	 4.51220000E-03
		-6.14124000E-05	-8.11997000E-02	-3.12410000E-04
		-4.15047000E-03	-8.12626000E-02	 4.43321000E-03
		-6.08926000E-05	-7.85410000E-02	-3.14321000E-04
		-2.10982000E-03	-8.32985000E-02	 2.04713000E-03
		-4.22564000E-03	-7.85779000E-02	 4.49040000E-03
		 4.00155000E-03	-7.90904000E-02	-4.99566000E-03
		 4.02955000E-03	-8.31873000E-02	-5.05055000E-03
		 4.05095000E-03	-7.43399000E-02	-5.03761000E-03
		 1.97228000E-03	-7.91187000E-02	-2.64994000E-03
		 4.01522000E-03	-8.11286000E-02	-5.02242000E-03
		 4.11012000E-03	-7.84829000E-02	-5.09126000E-03
		 1.97286000E-03	-8.32211000E-02	-2.70310000E-03
		-7.84824000E-05	-8.73978000E-02	-3.99958000E-04
		-4.14948000E-03	-8.74343000E-02	 4.39259000E-03
		-7.80454000E-05	-8.53356000E-02	-3.62915000E-04
		-4.15807000E-03	-8.53856000E-02	 4.39911000E-03
		-4.72047000E-05	-8.27233000E-02	-3.74856000E-04
		-2.11245000E-03	-8.74180000E-02	 2.01420000E-03
		-4.22909000E-03	-8.27504000E-02	 4.45503000E-03
		 4.03419000E-03	-8.73377000E-02	-5.15561000E-03
		 4.03225000E-03	-8.52599000E-02	-5.08993000E-03
		 4.16266000E-03	-8.26826000E-02	-5.17848000E-03
		 1.96686000E-03	-8.73673000E-02	-2.80243000E-03
		 0.00000000E+00	 0.00000000E+00	 0.00000000E+00
		 0.00000000E+00	 0.00000000E+00	 0.00000000E+00
		 1.26479000E-05	-8.33507000E-03	-2.19873000E-04
		-1.11072000E-03	-8.63752000E-03	 6.49736000E-03
		 0.00000000E+00	 0.00000000E+00	 0.00000000E+00
		 0.00000000E+00	 0.00000000E+00	 0.00000000E+00
		-1.78151000E-05	-9.11497000E-03	-2.39582000E-04
		-4.58804000E-04	-9.44704000E-03	 6.59649000E-03
		 0.00000000E+00	 0.00000000E+00	 0.00000000E+00
		 2.69691000E-05	-2.18316000E-03	-8.97723000E-05
		-5.50023000E-04	-8.34901000E-03	 2.99739000E-03
		-1.19911000E-03	-2.73787000E-03	 3.58681000E-03
		 0.00000000E+00	 0.00000000E+00	 0.00000000E+00
		 0.00000000E+00	 0.00000000E+00	 0.00000000E+00
		-2.11419000E-06	-8.85483000E-03	-2.31940000E-04
		-7.78306000E-04	-9.17182000E-03	 6.52579000E-03
		 0.00000000E+00	 0.00000000E+00	 0.00000000E+00
		-5.71911000E-06	-2.83272000E-03	-9.58055000E-05
		-2.39326000E-04	-9.13721000E-03	 3.00788000E-03
		-2.14029000E-04	-3.39228000E-03	 3.50959000E-03
		 0.00000000E+00	 0.00000000E+00	 0.00000000E+00
		 1.12932000E-03	-8.58985000E-03	-6.95432000E-03
		 0.00000000E+00	 0.00000000E+00	 0.00000000E+00
		 4.24965000E-04	-9.39631000E-03	-7.09309000E-03
		 0.00000000E+00	 0.00000000E+00	 0.00000000E+00
		 1.25183000E-03	-2.74711000E-03	-3.78538000E-03
		 5.72417000E-04	-8.32686000E-03	-3.44016000E-03
		 0.00000000E+00	 0.00000000E+00	 0.00000000E+00
		 7.72314000E-04	-9.12078000E-03	-7.00795000E-03
		 0.00000000E+00	 0.00000000E+00	 0.00000000E+00
		 2.05597000E-04	-3.40724000E-03	-3.71915000E-03
		 2.02852000E-04	-9.11397000E-03	-3.49153000E-03
		 0.00000000E+00	 0.00000000E+00	 0.00000000E+00
		 0.00000000E+00	 0.00000000E+00	 0.00000000E+00
		-4.74906000E-05	-9.21616000E-03	-2.46021000E-04
		 2.01233000E-04	-9.51252000E-03	 6.47600000E-03
		 0.00000000E+00	 0.00000000E+00	 0.00000000E+00
		 0.00000000E+00	 0.00000000E+00	 0.00000000E+00
		-3.27457000E-05	-9.29428000E-03	-2.43478000E-04
		-1.34577000E-04	-9.60580000E-03	 6.60398000E-03
		 0.00000000E+00	 0.00000000E+00	 0.00000000E+00
		-3.93580000E-05	-2.60041000E-03	-1.03632000E-04
		 7.61685000E-05	-9.22558000E-03	 2.88593000E-03
		 7.85899000E-04	-3.13492000E-03	 3.57351000E-03
		 0.00000000E+00	 0.00000000E+00	 0.00000000E+00
		-2.90188000E-04	-9.46288000E-03	-6.98089000E-03
		 0.00000000E+00	 0.00000000E+00	 0.00000000E+00
		 7.16074000E-05	-9.55836000E-03	-7.10584000E-03
		 0.00000000E+00	 0.00000000E+00	 0.00000000E+00
		-8.60601000E-04	-3.15142000E-03	-3.80016000E-03
		-1.68300000E-04	-9.20551000E-03	-3.38064000E-03
		 5.41455000E-06	-2.64250000E-02	-6.05523000E-04
		-1.34398000E-03	-2.66009000E-02	 9.20160000E-03
		-2.55635000E-05	-2.76653000E-02	-6.14681000E-04
		-1.15568000E-03	-2.78380000E-02	 9.23494000E-03
		 3.68325000E-06	-1.67046000E-02	-3.92699000E-04
		-6.73560000E-04	-2.64983000E-02	 4.26270000E-03
		-1.18849000E-03	-1.70182000E-02	 8.26690000E-03
		-1.09990000E-05	-2.70628000E-02	-6.12849000E-04
		-1.25051000E-03	-2.72298000E-02	 9.17964000E-03
		-2.86395000E-05	-1.76797000E-02	-4.10547000E-04
		-5.83435000E-04	-2.77375000E-02	 4.23925000E-03
		-7.72646000E-04	-1.79833000E-02	 8.30950000E-03
		 1.34800000E-03	-2.64814000E-02	-1.04249000E-02
		 1.08957000E-03	-2.77099000E-02	-1.04738000E-02
		 1.18820000E-03	-1.69306000E-02	-9.07459000E-03
		 6.82445000E-04	-2.64412000E-02	-5.47762000E-03
		 1.21919000E-03	-2.71114000E-02	-1.04143000E-02
		 7.11023000E-04	-1.78872000E-02	-9.14948000E-03
		 5.32640000E-04	-2.76770000E-02	-5.46874000E-03
		-5.79653000E-05	-2.86706000E-02	-6.19154000E-04
		-9.33568000E-04	-2.88314000E-02	 9.19064000E-03
		-4.23693000E-05	-2.81815000E-02	-6.14799000E-04
		-1.04358000E-03	-2.83806000E-02	 9.29321000E-03
		-5.92908000E-05	-1.81895000E-02	-4.19455000E-04
		-4.99104000E-04	-2.87312000E-02	 4.13953000E-03
		-3.39169000E-04	-1.84910000E-02	 8.24554000E-03
		 8.31118000E-04	-2.87058000E-02	-1.04376000E-02
		 9.58891000E-04	-2.82236000E-02	-1.05336000E-02
		 2.29557000E-04	-1.84002000E-02	-9.09877000E-03
		 3.86783000E-04	-2.86734000E-02	-5.37694000E-03
		 8.68935000E-05	-4.69295000E-02	-1.09350000E-03
		-1.97244000E-03	-4.69424000E-02	 9.28670000E-03
		 5.75259000E-05	-4.89646000E-02	-1.04961000E-03
		-2.00727000E-03	-4.90928000E-02	 9.35061000E-03
		 3.05447000E-05	-3.66337000E-02	-8.43204000E-04
		-9.37311000E-04	-4.69360000E-02	 4.12168000E-03
		-1.62080000E-03	-3.67511000E-02	 9.45551000E-03
		 7.22254000E-05	-4.79489000E-02	-1.06851000E-03
		-1.99312000E-03	-4.80306000E-02	 9.24284000E-03
		-1.94232000E-06	-3.82397000E-02	-8.32800000E-04
		-9.96856000E-04	-4.90323000E-02	 4.08941000E-03
		-1.57108000E-03	-3.83676000E-02	 9.49910000E-03
		 2.10047000E-03	-4.68537000E-02	-1.14551000E-02
		 2.10831000E-03	-4.88921000E-02	-1.14658000E-02
		 1.66515000E-03	-3.66264000E-02	-1.11451000E-02
		 1.09652000E-03	-4.68939000E-02	-6.29691000E-03
		 2.10125000E-03	-4.78681000E-02	-1.13894000E-02
		 1.55653000E-03	-3.82091000E-02	-1.11685000E-02
		 1.08499000E-03	-4.89364000E-02	-6.20797000E-03
		 3.08383000E-05	-5.10345000E-02	-1.00409000E-03
		-2.12851000E-03	-5.12920000E-02	 9.37526000E-03
		 4.36631000E-05	-5.00115000E-02	-1.02946000E-03
		-2.07171000E-03	-5.00756000E-02	 9.46529000E-03
		-2.22498000E-05	-3.97570000E-02	-8.19896000E-04
		-1.01568000E-03	-5.11711000E-02	 4.01784000E-03
		-1.53585000E-03	-3.99229000E-02	 9.48487000E-03
		 2.13105000E-03	-5.09757000E-02	-1.14268000E-02
		 2.11847000E-03	-4.99265000E-02	-1.15421000E-02
		 1.43733000E-03	-3.97130000E-02	-1.11313000E-02
		 1.07490000E-03	-5.10221000E-02	-6.06987000E-03
		 3.72439000E-04	-6.66085000E-02	-1.56466000E-03
		-2.60196000E-03	-6.64444000E-02	 7.91040000E-03
		 3.50479000E-04	-6.97484000E-02	-1.42539000E-03
		-2.97522000E-03	-7.00538000E-02	 8.06037000E-03
		 1.67505000E-04	-5.69896000E-02	-1.33646000E-03
		-1.11265000E-03	-6.65557000E-02	 3.20012000E-03
		-2.33994000E-03	-5.70100000E-02	 8.73189000E-03
		 3.60239000E-04	-6.81132000E-02	-1.49417000E-03
		-2.78108000E-03	-6.81302000E-02	 7.93606000E-03
		 1.37835000E-04	-5.96062000E-02	-1.29396000E-03
		-1.18814000E-03	-6.99155000E-02	 3.29188000E-03
		-2.56108000E-03	-5.95794000E-02	 8.87338000E-03
		 3.17427000E-03	-6.64404000E-02	-1.10277000E-02
		 3.37340000E-03	-6.94219000E-02	-1.08974000E-02
		 2.64419000E-03	-5.68631000E-02	-1.13948000E-02
		 1.77164000E-03	-6.65595000E-02	-6.32500000E-03
		 3.27520000E-03	-6.78988000E-02	-1.09129000E-02
		 2.75935000E-03	-5.94303000E-02	-1.13497000E-02
		 1.85111000E-03	-6.95941000E-02	-6.14010000E-03
		 2.01782000E-04	-7.31506000E-02	-1.28973000E-03
		-3.20882000E-03	-7.38293000E-02	 8.18764000E-03
		 2.77119000E-04	-7.13824000E-02	-1.35831000E-03
		-3.09221000E-03	-7.23964000E-02	 8.18383000E-03
		 9.41309000E-05	-6.23688000E-02	-1.27509000E-03
		-1.61989000E-03	-7.34883000E-02	 3.36235000E-03
		-2.61108000E-03	-6.22370000E-02	 8.93139000E-03
		 3.60566000E-03	-7.26595000E-02	-1.07503000E-02