# vtk DataFile Version 3.0

ASCII
DATASET UNSTRUCTURED_GRID

POINTS 522 double
	 1.00000000E+00	 1.00000000E+00	-5.96046000E-08
	 1.00000000E+00	 5.00000000E-01	-5.96046000E-08
	 1.00000000E+00	 5.00000000E-01	 1.00000000E+00
	 1.00000000E+00	 1.00000000E+00	 1.00000000E+00
	 5.00000000E-01	 1.00000000E+00	-5.96046000E-08
	 5.00000000E-01	 5.00000000E-01	-5.96046000E-08
	 5.00000000E-01	 5.00000000E-01	 1.00000000E+00
	 5.00000000E-01	 1.00000000E+00	 1.00000000E+00
	 1.00000000E+00	 7.50000000E-01	-5.96046000E-08
	 1.00000000E+00	 5.00000000E-01	 5.00000000E-01
	 1.00000000E+00	 7.50000000E-01	 1.00000000E+00
	 1.00000000E+00	 1.00000000E+00	 5.00000000E-01
	 7.50000000E-01	 1.00000000E+00	-5.96046000E-08
	 7.50000000E-01	 5.00000000E-01	-5.96046000E-08
	 7.50000000E-01	 5.00000000E-01	 1.00000000E+00
	 7.50000000E-01	 1.00000000E+00	 1.00000000E+00
	 5.00000000E-01	 7.50000000E-01	-5.96046000E-08
	 5.00000000E-01	 5.00000000E-01	 5.00000000E-01
	 5.00000000E-01	 7.50000000E-01	 1.00000000E+00
	 5.00000000E-01	 1.00000000E+00	 5.00000000E-01
	 1.00000000E+00	-1.49012000E-08	-5.96046000E-08
	 1.00000000E+00	-1.49012000E-08	 1.00000000E+00
	 5.00000000E-01	-1.49012000E-08	-5.96046000E-08
	 5.00000000E-01	-1.49012000E-08	 1.00000000E+00
	 1.00000000E+00	 2.50000000E-01	-5.96046000E-08
	 1.00000000E+00	-1.49012000E-08	 5.00000000E-01
	 1.00000000E+00	 2.50000000E-01	 1.00000000E+00
	 7.50000000E-01	-1.49012000E-08	-5.96046000E-08
	 7.50000000E-01	-1.49012000E-08	 1.00000000E+00
	 5.00000000E-01	 2.50000000E-01	-5.96046000E-08
	 5.00000000E-01	-1.49012000E-08	 5.00000000E-01
	 5.00000000E-01	 2.50000000E-01	 1.00000000E+00
	-7.45058000E-09	 1.00000000E+00	-5.96046000E-08
	-7.45058000E-09	 5.00000000E-01	-5.96046000E-08
	-7.45058000E-09	 5.00000000E-01	 1.00000000E+00
	-7.45058000E-09	 1.00000000E+00	 1.00000000E+00
	 2.50000000E-01	 1.00000000E+00	-5.96046000E-08
	 2.50000000E-01	 5.00000000E-01	-5.96046000E-08
	 2.50000000E-01	 5.00000000E-01	 1.00000000E+00
	 2.50000000E-01	 1.00000000E+00	 1.00000000E+00
	-7.45058000E-09	 7.50000000E-01	-5.96046000E-08
	-7.45058000E-09	 5.00000000E-01	 5.00000000E-01
	-7.45058000E-09	 7.50000000E-01	 1.00000000E+00
	-7.45058000E-09	 1.00000000E+00	 5.00000000E-01
	-7.45058000E-09	-1.49012000E-08	-5.96046000E-08
	-7.45058000E-09	-1.49012000E-08	 1.00000000E+00
	 2.50000000E-01	-1.49012000E-08	-5.96046000E-08
	 2.50000000E-01	-1.49012000E-08	 1.00000000E+00
	-7.45058000E-09	 2.50000000E-01	-5.96046000E-08
	-7.45058000E-09	-1.49012000E-08	 5.00000000E-01
	-7.45058000E-09	 2.50000000E-01	 1.00000000E+00
	 1.00000000E+00	 5.00000000E-01	 2.00000000E+00
	 1.00000000E+00	 1.00000000E+00	 2.00000000E+00
	 5.00000000E-01	 5.00000000E-01	 2.00000000E+00
	 5.00000000E-01	 1.00000000E+00	 2.00000000E+00
	 1.00000000E+00	 5.00000000E-01	 1.50000000E+00
	 1.00000000E+00	 7.50000000E-01	 2.00000000E+00
	 1.00000000E+00	 1.00000000E+00	 1.50000000E+00
	 7.50000000E-01	 5.00000000E-01	 2.00000000E+00
	 7.50000000E-01	 1.00000000E+00	 2.00000000E+00
	 5.00000000E-01	 5.00000000E-01	 1.50000000E+00
	 5.00000000E-01	 7.50000000E-01	 2.00000000E+00
	 5.00000000E-01	 1.00000000E+00	 1.50000000E+00
	 1.00000000E+00	-1.49012000E-08	 2.00000000E+00
	 5.00000000E-01	-1.49012000E-08	 2.00000000E+00
	 1.00000000E+00	-1.49012000E-08	 1.50000000E+00
	 1.00000000E+00	 2.50000000E-01	 2.00000000E+00
	 7.50000000E-01	-1.49012000E-08	 2.00000000E+00
	 5.00000000E-01	-1.49012000E-08	 1.50000000E+00
	 5.00000000E-01	 2.50000000E-01	 2.00000000E+00
	-7.45058000E-09	 5.00000000E-01	 2.00000000E+00
	-7.45058000E-09	 1.00000000E+00	 2.00000000E+00
	 2.50000000E-01	 5.00000000E-01	 2.00000000E+00
	 2.50000000E-01	 1.00000000E+00	 2.00000000E+00
	-7.45058000E-09	 5.00000000E-01	 1.50000000E+00
	-7.45058000E-09	 7.50000000E-01	 2.00000000E+00
	-7.45058000E-09	 1.00000000E+00	 1.50000000E+00
	-7.45058000E-09	-1.49012000E-08	 2.00000000E+00
	 2.50000000E-01	-1.49012000E-08	 2.00000000E+00
	-7.45058000E-09	-1.49012000E-08	 1.50000000E+00
	-7.45058000E-09	 2.50000000E-01	 2.00000000E+00
	 1.00000000E+00	 5.00000000E-01	 3.00000000E+00
	 1.00000000E+00	 1.00000000E+00	 3.00000000E+00
	 5.00000000E-01	 5.00000000E-01	 3.00000000E+00
	 5.00000000E-01	 1.00000000E+00	 3.00000000E+00
	 1.00000000E+00	 5.00000000E-01	 2.50000000E+00
	 1.00000000E+00	 7.50000000E-01	 3.00000000E+00
	 1.00000000E+00	 1.00000000E+00	 2.50000000E+00
	 7.50000000E-01	 5.00000000E-01	 3.00000000E+00
	 7.50000000E-01	 1.00000000E+00	 3.00000000E+00
	 5.00000000E-01	 5.00000000E-01	 2.50000000E+00
	 5.00000000E-01	 7.50000000E-01	 3.00000000E+00
	 5.00000000E-01	 1.00000000E+00	 2.50000000E+00
	 1.00000000E+00	-1.49012000E-08	 3.00000000E+00
	 5.00000000E-01	-1.49012000E-08	 3.00000000E+00
	 1.00000000E+00	-1.49012000E-08	 2.50000000E+00
	 1.00000000E+00	 2.50000000E-01	 3.00000000E+00
	 7.50000000E-01	-1.49012000E-08	 3.00000000E+00
	 5.00000000E-01	-1.49012000E-08	 2.50000000E+00
	 5.00000000E-01	 2.50000000E-01	 3.00000000E+00
	-7.45058000E-09	 5.00000000E-01	 3.00000000E+00
	-7.45058000E-09	 1.00000000E+00	 3.00000000E+00
	 2.50000000E-01	 5.00000000E-01	 3.00000000E+00
	 2.50000000E-01	 1.00000000E+00	 3.00000000E+00
	-7.45058000E-09	 5.00000000E-01	 2.50000000E+00
	-7.45058000E-09	 7.50000000E-01	 3.00000000E+00
	-7.45058000E-09	 1.00000000E+00	 2.50000000E+00
	-7.45058000E-09	-1.49012000E-08	 3.00000000E+00
	 2.50000000E-01	-1.49012000E-08	 3.00000000E+00
	-7.45058000E-09	-1.49012000E-08	 2.50000000E+00
	-7.45058000E-09	 2.50000000E-01	 3.00000000E+00
	 1.00000000E+00	 5.00000000E-01	 4.00000000E+00
	 1.00000000E+00	 1.00000000E+00	 4.00000000E+00
	 5.00000000E-01	 5.00000000E-01	 4.00000000E+00
	 5.00000000E-01	 1.00000000E+00	 4.00000000E+00
	 1.00000000E+00	 5.00000000E-01	 3.50000000E+00
	 1.00000000E+00	 7.50000000E-01	 4.00000000E+00
	 1.00000000E+00	 1.00000000E+00	 3.50000000E+00
	 7.50000000E-01	 5.00000000E-01	 4.00000000E+00
	 7.50000000E-01	 1.00000000E+00	 4.00000000E+00
	 5.00000000E-01	 5.00000000E-01	 3.50000000E+00
	 5.00000000E-01	 7.50000000E-01	 4.00000000E+00
	 5.00000000E-01	 1.00000000E+00	 3.50000000E+00
	 1.00000000E+00	-1.49012000E-08	 4.00000000E+00
	 5.00000000E-01	-1.49012000E-08	 4.00000000E+00
	 1.00000000E+00	-1.49012000E-08	 3.50000000E+00
	 1.00000000E+00	 2.50000000E-01	 4.00000000E+00
	 7.50000000E-01	-1.49012000E-08	 4.00000000E+00
	 5.00000000E-01	-1.49012000E-08	 3.50000000E+00
	 5.00000000E-01	 2.50000000E-01	 4.00000000E+00
	-7.45058000E-09	 5.00000000E-01	 4.00000000E+00
	-7.45058000E-09	 1.00000000E+00	 4.00000000E+00
	 2.50000000E-01	 5.00000000E-01	 4.00000000E+00
	 2.50000000E-01	 1.00000000E+00	 4.00000000E+00
	-7.45058000E-09	 5.00000000E-01	 3.50000000E+00
	-7.45058000E-09	 7.50000000E-01	 4.00000000E+00
	-7.45058000E-09	 1.00000000E+00	 3.50000000E+00
	-7.45058000E-09	-1.49012000E-08	 4.00000000E+00
	 2.50000000E-01	-1.49012000E-08	 4.00000000E+00
	-7.45058000E-09	-1.49012000E-08	 3.50000000E+00
	-7.45058000E-09	 2.50000000E-01	 4.00000000E+00
	 1.00000000E+00	 5.00000000E-01	 5.00000000E+00
	 1.00000000E+00	 1.00000000E+00	 5.00000000E+00
	 5.00000000E-01	 5.00000000E-01	 5.00000000E+00
	 5.00000000E-01	 1.00000000E+00	 5.00000000E+00
	 1.00000000E+00	 5.00000000E-01	 4.50000000E+00
	 1.00000000E+00	 7.50000000E-01	 5.00000000E+00
	 1.00000000E+00	 1.00000000E+00	 4.50000000E+00
	 7.50000000E-01	 5.00000000E-01	 5.00000000E+00
	 7.50000000E-01	 1.00000000E+00	 5.00000000E+00
	 5.00000000E-01	 5.00000000E-01	 4.50000000E+00
	 5.00000000E-01	 7.50000000E-01	 5.00000000E+00
	 5.00000000E-01	 1.00000000E+00	 4.50000000E+00
	 1.00000000E+00	-1.49012000E-08	 5.00000000E+00
	 5.00000000E-01	-1.49012000E-08	 5.00000000E+00
	 1.00000000E+00	-1.49012000E-08	 4.50000000E+00
	 1.00000000E+00	 2.50000000E-01	 5.00000000E+00
	 7.50000000E-01	-1.49012000E-08	 5.00000000E+00
	 5.00000000E-01	-1.49012000E-08	 4.50000000E+00
	 5.00000000E-01	 2.50000000E-01	 5.00000000E+00
	-7.45058000E-09	 5.00000000E-01	 5.00000000E+00
	-7.45058000E-09	 1.00000000E+00	 5.00000000E+00
	 2.50000000E-01	 5.00000000E-01	 5.00000000E+00
	 2.50000000E-01	 1.00000000E+00	 5.00000000E+00
	-7.45058000E-09	 5.00000000E-01	 4.50000000E+00
	-7.45058000E-09	 7.50000000E-01	 5.00000000E+00
	-7.45058000E-09	 1.00000000E+00	 4.50000000E+00
	-7.45058000E-09	-1.49012000E-08	 5.00000000E+00
	 2.50000000E-01	-1.49012000E-08	 5.00000000E+00
	-7.45058000E-09	-1.49012000E-08	 4.50000000E+00
	-7.45058000E-09	 2.50000000E-01	 5.00000000E+00
	 1.00000000E+00	 5.00000000E-01	 6.00000000E+00
	 1.00000000E+00	 1.00000000E+00	 6.00000000E+00
	 5.00000000E-01	 5.00000000E-01	 6.00000000E+00
	 5.00000000E-01	 1.00000000E+00	 6.00000000E+00
	 1.00000000E+00	 5.00000000E-01	 5.50000000E+00
	 1.00000000E+00	 7.50000000E-01	 6.00000000E+00
	 1.00000000E+00	 1.00000000E+00	 5.50000000E+00
	 7.50000000E-01	 5.00000000E-01	 6.00000000E+00
	 7.50000000E-01	 1.00000000E+00	 6.00000000E+00
	 5.00000000E-01	 5.00000000E-01	 5.50000000E+00
	 5.00000000E-01	 7.50000000E-01	 6.00000000E+00
	 5.00000000E-01	 1.00000000E+00	 5.50000000E+00
	 1.00000000E+00	-1.49012000E-08	 6.00000000E+00
	 5.00000000E-01	-1.49012000E-08	 6.00000000E+00
	 1.00000000E+00	-1.49012000E-08	 5.50000000E+00
	 1.00000000E+00	 2.50000000E-01	 6.00000000E+00
	 7.50000000E-01	-1.49012000E-08	 6.00000000E+00
	 5.00000000E-01	-1.49012000E-08	 5.50000000E+00
	 5.00000000E-01	 2.50000000E-01	 6.00000000E+00
	-7.45058000E-09	 5.00000000E-01	 6.00000000E+00
	-7.45058000E-09	 1.00000000E+00	 6.00000000E+00
	 2.50000000E-01	 5.00000000E-01	 6.00000000E+00
	 2.50000000E-01	 1.00000000E+00	 6.00000000E+00
	-7.45058000E-09	 5.00000000E-01	 5.50000000E+00
	-7.45058000E-09	 7.50000000E-01	 6.00000000E+00
	-7.45058000E-09	 1.00000000E+00	 5.50000000E+00
	-7.45058000E-09	-1.49012000E-08	 6.00000000E+00
	 2.50000000E-01	-1.49012000E-08	 6.00000000E+00
	-7.45058000E-09	-1.49012000E-08	 5.50000000E+00
	-7.45058000E-09	 2.50000000E-01	 6.00000000E+00
	 1.00000000E+00	 5.00000000E-01	 7.00000000E+00
[...]
POINT_DATA 522
FIELD U 1
	U 3 522 double
		 0.00000000E+00	 0.00000000E+00	 0.00000000E+00
		 0.00000000E+00	 0.00000000E+00	 0.00000000E+00
		 8.96093000E-08	-3.28039000E-03	-7.26058000E-06
		 4.96105000E-04	-3.43079000E-03	 2.37102000E-03
		 0.00000000E+00	 0.00000000E+00	 0.00000000E+00
		 0.00000000E+00	 0.00000000E+00	 0.00000000E+00
		 3.06788000E-06	-2.62695000E-03	 6.13542000E-06
		 8.11619000E-04	-2.78830000E-03	 2.41024000E-03
		 0.00000000E+00	 0.00000000E+00	 0.00000000E+00
		-1.05256000E-06	-9.27355000E-04	-4.76107000E-06
		 2.48071000E-04	-3.30141000E-03	 1.08242000E-03
		 3.44724000E-05	-1.11413000E-03	 1.19460000E-03
		 0.00000000E+00	 0.00000000E+00	 0.00000000E+00
		 0.00000000E+00	 0.00000000E+00	 0.00000000E+00
		 5.37454000E-07	-3.00446000E-03	-5.41532000E-07
		 6.55574000E-04	-3.16199000E-03	 2.46146000E-03
		 0.00000000E+00	 0.00000000E+00	 0.00000000E+00
		 8.79482000E-08	-6.76776000E-04	 3.59316000E-07
		 4.06634000E-04	-2.65111000E-03	 1.17886000E-03
		 4.09077000E-04	-8.82463000E-04	 1.16558000E-03
		 0.00000000E+00	 0.00000000E+00	 0.00000000E+00
		-4.90446000E-04	-3.40143000E-03	-2.38634000E-03
		 0.00000000E+00	 0.00000000E+00	 0.00000000E+00
		-7.99496000E-04	-2.76550000E-03	-2.39859000E-03
		 0.00000000E+00	 0.00000000E+00	 0.00000000E+00
		-3.85162000E-05	-1.10941000E-03	-1.19978000E-03
		-2.45889000E-04	-3.28515000E-03	-1.09654000E-03
		 0.00000000E+00	 0.00000000E+00	 0.00000000E+00
		-6.47964000E-04	-3.13567000E-03	-2.46460000E-03
		 0.00000000E+00	 0.00000000E+00	 0.00000000E+00
		-4.08578000E-04	-8.76468000E-04	-1.16300000E-03
		-3.97753000E-04	-2.63906000E-03	-1.16698000E-03
		 0.00000000E+00	 0.00000000E+00	 0.00000000E+00
		 0.00000000E+00	 0.00000000E+00	 0.00000000E+00
		 1.00821000E-05	-1.67317000E-03	 1.77819000E-05
		 1.12510000E-03	-1.82430000E-03	 2.39557000E-03
		 0.00000000E+00	 0.00000000E+00	 0.00000000E+00
		 0.00000000E+00	 0.00000000E+00	 0.00000000E+00
		 6.56554000E-06	-2.20264000E-03	 1.19221000E-05
		 9.65027000E-04	-2.35613000E-03	 2.33293000E-03
		 0.00000000E+00	 0.00000000E+00	 0.00000000E+00
		 4.34427000E-06	-1.11418000E-04	 7.84712000E-06
		 5.69918000E-04	-1.69449000E-03	 1.25036000E-03
		 7.56227000E-04	-3.30632000E-04	 1.20429000E-03
		 0.00000000E+00	 0.00000000E+00	 0.00000000E+00
		-1.09869000E-03	-1.80659000E-03	-2.36018000E-03
		 0.00000000E+00	 0.00000000E+00	 0.00000000E+00
		-9.46026000E-04	-2.33605000E-03	-2.30788000E-03
		 0.00000000E+00	 0.00000000E+00	 0.00000000E+00
		-7.46365000E-04	-3.22420000E-04	-1.18947000E-03
		-5.46832000E-04	-1.68569000E-03	-1.21600000E-03
		 2.12863000E-05	-1.09558000E-02	-2.82276000E-05
		 1.21207000E-03	-1.10925000E-02	 4.24782000E-03
		 2.30210000E-05	-9.63609000E-03	-7.25344000E-06
		 1.46484000E-03	-9.77714000E-03	 4.27540000E-03
		 1.39518000E-05	-6.69964000E-03	-1.01022000E-05
		 6.16173000E-04	-1.09947000E-02	 2.06028000E-03
		 9.07245000E-04	-6.86999000E-03	 3.37885000E-03
		 2.29050000E-05	-1.03263000E-02	-1.97590000E-05
		 1.33827000E-03	-1.04634000E-02	 4.29630000E-03
		 1.52627000E-05	-5.66996000E-03	 7.31059000E-06
		 7.45479000E-04	-9.67909000E-03	 2.11964000E-03
		 1.18198000E-03	-5.83346000E-03	 3.40670000E-03
		-1.18493000E-03	-1.10705000E-02	-4.30710000E-03
		-1.43201000E-03	-9.73619000E-03	-4.29521000E-03
		-8.83717000E-04	-6.84240000E-03	-3.41145000E-03
		-5.79226000E-04	-1.09877000E-02	-2.11797000E-03
		-1.30748000E-03	-1.04305000E-02	-4.33826000E-03
		-1.15581000E-03	-5.80019000E-03	-3.39906000E-03
		-7.04459000E-04	-9.65933000E-03	-2.13546000E-03
		 2.32264000E-05	-8.06136000E-03	 1.82829000E-05
		 1.72935000E-03	-8.19923000E-03	 4.29173000E-03
		 2.27229000E-05	-8.87621000E-03	 6.42687000E-06
		 1.59857000E-03	-9.01921000E-03	 4.25520000E-03
		 1.78711000E-05	-4.35679000E-03	 2.21955000E-05
		 8.74055000E-04	-8.10273000E-03	 2.16826000E-03
		 1.47340000E-03	-4.51661000E-03	 3.41759000E-03
		-1.69361000E-03	-8.14236000E-03	-4.26287000E-03
		-1.56524000E-03	-8.97098000E-03	-4.25065000E-03
		-1.44282000E-03	-4.47542000E-03	-3.37397000E-03
		-8.31466000E-04	-8.07254000E-03	-2.13277000E-03
		 3.21530000E-05	-2.17239000E-02	-7.92786000E-05
		 1.64518000E-03	-2.18244000E-02	 5.51011000E-03
		 3.79293000E-05	-2.00589000E-02	-5.10468000E-05
		 1.76007000E-03	-2.01532000E-02	 5.56290000E-03
		 2.08459000E-05	-1.59953000E-02	-5.54800000E-05
		 8.39513000E-04	-2.17576000E-02	 2.65780000E-03
		 1.45892000E-03	-1.61238000E-02	 4.98982000E-03
		 3.39239000E-05	-2.09074000E-02	-6.34341000E-05
		 1.70205000E-03	-2.10059000E-02	 5.55419000E-03
		 2.60248000E-05	-1.44647000E-02	-2.88426000E-05
		 8.99058000E-04	-2.00874000E-02	 2.71171000E-03
		 1.66131000E-03	-1.45874000E-02	 5.02614000E-03
		-1.56932000E-03	-2.17371000E-02	-5.67029000E-03
		-1.67359000E-03	-2.00798000E-02	-5.66372000E-03
		-1.41232000E-03	-1.60609000E-02	-5.09331000E-03
		-7.70980000E-04	-2.17123000E-02	-2.81606000E-03
		-1.62231000E-03	-2.09252000E-02	-5.68305000E-03
		-1.60443000E-03	-1.45288000E-02	-5.08296000E-03
		-8.19341000E-04	-2.00514000E-02	-2.81332000E-03
		 4.65539000E-05	-1.82867000E-02	-2.47453000E-05
		 1.88876000E-03	-1.83679000E-02	 5.56476000E-03
		 4.21838000E-05	-1.91892000E-02	-3.92740000E-05
		 1.82458000E-03	-1.92795000E-02	 5.57211000E-03
		 3.18557000E-05	-1.27341000E-02	 3.26049000E-06
		 9.64846000E-04	-1.83077000E-02	 2.71725000E-03
		 1.87838000E-03	-1.28436000E-02	 5.03583000E-03
		-1.78940000E-03	-1.83036000E-02	-5.60986000E-03
		-1.73127000E-03	-1.92101000E-02	-5.64630000E-03
		-1.80718000E-03	-1.27927000E-02	-5.03572000E-03
		-8.70309000E-04	-1.82793000E-02	-2.76610000E-03
		 7.13117000E-05	-3.37866000E-02	-1.51309000E-04
		 1.80536000E-03	-3.37578000E-02	 5.35741000E-03
		 7.36457000E-05	-3.21374000E-02	-1.14512000E-04
		 1.64503000E-03	-3.21011000E-02	 5.41784000E-03
		 5.24193000E-05	-2.78119000E-02	-1.11756000E-04
		 9.34452000E-04	-3.37932000E-02	 2.55673000E-03
		 1.75961000E-03	-2.78446000E-02	 5.63466000E-03
		 7.31252000E-05	-3.29423000E-02	-1.32096000E-04
		 1.72696000E-03	-3.29044000E-02	 5.38597000E-03
		 5.32761000E-05	-2.61137000E-02	-8.03150000E-05
		 8.61085000E-04	-3.21404000E-02	 2.59962000E-03
		 1.74406000E-03	-2.61459000E-02	 5.69997000E-03
		-1.66851000E-03	-3.36979000E-02	-5.66164000E-03
		-1.50677000E-03	-3.20329000E-02	-5.64920000E-03
		-1.66142000E-03	-2.77734000E-02	-5.86352000E-03
		-7.94330000E-04	-3.37647000E-02	-2.86114000E-03
		-1.58785000E-03	-3.28419000E-02	-5.65066000E-03
		-1.64085000E-03	-2.60669000E-02	-5.86125000E-03
		-7.16979000E-04	-3.21072000E-02	-2.82981000E-03
		 7.55598000E-05	-3.06365000E-02	-7.65544000E-05
		 1.50043000E-03	-3.06048000E-02	 5.43212000E-03
		 7.44316000E-05	-3.13664000E-02	-9.65883000E-05
		 1.57169000E-03	-3.13322000E-02	 5.45910000E-03
		 5.66935000E-05	-2.44291000E-02	-5.33917000E-05
		 7.90665000E-04	-3.06419000E-02	 2.59559000E-03
		 1.74013000E-03	-2.44598000E-02	 5.69997000E-03
		-1.35847000E-03	-3.05229000E-02	-5.58927000E-03
		-1.43330000E-03	-3.12574000E-02	-5.65592000E-03
		-1.63135000E-03	-2.43752000E-02	-5.80194000E-03
		-6.41569000E-04	-3.05998000E-02	-2.74992000E-03
		 1.02093000E-04	-4.31598000E-02	-1.67347000E-04
		 1.41294000E-03	-4.30727000E-02	 3.82702000E-03
		 1.08633000E-04	-4.19817000E-02	-1.55441000E-04
		 1.18364000E-03	-4.18798000E-02	 3.82872000E-03
		 8.90765000E-05	-3.90596000E-02	-1.70816000E-04
		 7.55910000E-04	-4.31476000E-02	 1.92902000E-03
		 1.72508000E-03	-3.90076000E-02	 4.65138000E-03
		 1.05498000E-04	-4.25406000E-02	-1.62888000E-04
		 1.29671000E-03	-4.24448000E-02	 3.75236000E-03
		 9.62770000E-05	-3.75661000E-02	-1.41464000E-04
		 6.46840000E-04	-4.19652000E-02	 1.86478000E-03
		 1.48470000E-03	-3.74910000E-02	 4.69166000E-03
		-1.20708000E-03	-4.30269000E-02	-4.16492000E-03
		-9.60470000E-04	-4.18445000E-02	-4.14110000E-03
		-1.53920000E-03	-3.89486000E-02	-4.99578000E-03
		-5.49358000E-04	-4.31276000E-02	-2.26656000E-03
		-1.08395000E-03	-4.24014000E-02	-4.08083000E-03
		-1.28847000E-03	-3.74400000E-02	-4.97681000E-03
		-4.27753000E-04	-4.19478000E-02	-2.17716000E-03
		 1.10806000E-04	-4.10153000E-02	-1.43443000E-04
		 9.52438000E-04	-4.09131000E-02	 3.85583000E-03
		 1.10720000E-04	-4.14685000E-02	-1.47415000E-04
		 1.07212000E-03	-4.13672000E-02	 3.89832000E-03
		 9.98057000E-05	-3.62894000E-02	-1.07209000E-04
		 5.31568000E-04	-4.09953000E-02	 1.82741000E-03
		 1.26394000E-03	-3.62106000E-02	 4.71698000E-03
		-7.22374000E-04	-4.08921000E-02	-4.13884000E-03
		-8.40671000E-04	-4.13349000E-02	-4.19373000E-03
		-1.05982000E-03	-3.61667000E-02	-4.93605000E-03
		-3.09931000E-04	-4.09887000E-02	-2.11197000E-03
		 1.02810000E-04	-4.85962000E-02	-1.83032000E-04
		 4.00390000E-04	-4.86089000E-02	 2.96745000E-03
		 1.01561000E-04	-4.82943000E-02	-1.75100000E-04
		 3.84697000E-04	-4.83040000E-02	 2.96647000E-03
		 1.02078000E-04	-4.60558000E-02	-1.79536000E-04
		 2.48697000E-04	-4.86098000E-02	 1.47538000E-03
		 8.40968000E-04	-4.59994000E-02	 3.23752000E-03
		 1.01533000E-04	-4.84443000E-02	-1.74067000E-04
		 3.93835000E-04	-4.84549000E-02	 2.92458000E-03
		 1.03771000E-04	-4.53636000E-02	-1.68909000E-04
		 2.37224000E-04	-4.82996000E-02	 1.43700000E-03
		 7.33866000E-04	-4.53129000E-02	 3.21329000E-03
		-1.64470000E-04	-4.85370000E-02	-3.33669000E-03
		-1.68449000E-04	-4.82676000E-02	-3.30990000E-03
		-6.51291000E-04	-4.59818000E-02	-3.57097000E-03
		-3.64920000E-05	-4.85592000E-02	-1.83769000E-03
		-1.63568000E-04	-4.84082000E-02	-3.27666000E-03
		-5.28718000E-04	-4.52922000E-02	-3.53834000E-03
		-2.99094000E-05	-4.82779000E-02	-1.78277000E-03
		 1.01240000E-04	-4.80130000E-02	-1.80737000E-04
		 3.61792000E-04	-4.80244000E-02	 2.97306000E-03
		 1.02047000E-04	-4.81511000E-02	-1.80665000E-04
		 3.68390000E-04	-4.81560000E-02	 2.99607000E-03
		 1.02588000E-04	-4.47941000E-02	-1.69021000E-04
		 2.34065000E-04	-4.80221000E-02	 1.41023000E-03
		 6.06646000E-04	-4.47481000E-02	 3.23125000E-03
		-1.55582000E-04	-4.79981000E-02	-3.33760000E-03
		-1.62435000E-04	-4.81336000E-02	-3.34734000E-03
		-3.95682000E-04	-4.47316000E-02	-3.55876000E-03
		-2.31627000E-05	-4.80022000E-02	-1.77676000E-03
		 1.11720000E-04	-5.49674000E-02	-2.65870000E-04
		 2.72174000E-04	-5.49091000E-02	 3.23609000E-03
		 9.43636000E-05	-5.46565000E-02	-2.26067000E-04
		 4.28766000E-04	-5.47043000E-02	 3.25409000E-03
		 1.22369000E-04	-5.15708000E-02	-1.72619000E-04
		 2.13094000E-04	-5.49079000E-02	 1.41632000E-03
		 2.88035000E-04	-5.15454000E-02	 3.00336000E-03
		 1.07389000E-04	-5.48293000E-02	-2.53766000E-04
		 3.47485000E-04	-5.48430000E-02	 3.26245000E-03
		 1.13068000E-04	-5.13324000E-02	-1.86265000E-04
		 2.57588000E-04	-5.46661000E-02	 1.48741000E-03
		 3.28111000E-04	-5.13508000E-02	 3.02170000E-03
		-2.54781000E-04	-5.50866000E-02	-3.57128000E-03
		-2.75131000E-04	-5.46777000E-02	-3.61004000E-03
		-6.87164000E-05	-5.15642000E-02	-3.39782000E-03
		-5.53341000E-05	-5.50403000E-02	-1.85324000E-03
		-2.70009000E-04	-5.48868000E-02	-3.61446000E-03
		-1.17106000E-04	-5.13344000E-02	-3.41948000E-03
		-7.82139000E-05	-5.46612000E-02	-1.89566000E-03
		 8.10566000E-05	-5.42539000E-02	-2.40048000E-04
		 5.38225000E-04	-5.42682000E-02	 3.28036000E-03
		 8.51595000E-05	-5.44534000E-02	-2.26661000E-04
		 4.86057000E-04	-5.44955000E-02	 3.23826000E-03
		 1.05837000E-04	-5.10825000E-02	-1.93221000E-04
		 2.98512000E-04	-5.42422000E-02	 1.54602000E-03
		 3.27230000E-04	-5.11232000E-02	 3.04853000E-03
		-2.93360000E-04	-5.43157000E-02	-3.67165000E-03
		-2.73859000E-04	-5.44855000E-02	-3.62489000E-03
		-1.43878000E-04	-5.10831000E-02	-3.44606000E-03
		-1.09834000E-04	-5.42813000E-02	-1.97189000E-03
		 2.61272000E-04	-6.26319000E-02	-3.45069000E-04
		 9.78298000E-04	-6.29442000E-02	 3.32338000E-03
		 6.46172000E-05	-6.20685000E-02	-2.29678000E-04
		 7.69514000E-04	-6.23152000E-02	 3.56246000E-03
		 1.17002000E-04	-5.88532000E-02	-3.66878000E-04
		 5.92214000E-04	-6.28261000E-02	 1.44094000E-03
		 5.87689000E-04	-5.89315000E-02	 3.36128000E-03
		 1.81591000E-04	-6.23410000E-02	-2.67295000E-04
		 8.64387000E-04	-6.25963000E-02	 3.47796000E-03
		 6.42760000E-05	-5.83374000E-02	-2.39762000E-04
		 4.23379000E-04	-6.22302000E-02	 1.62133000E-03
		 6.04782000E-04	-5.84313000E-02	 3.48892000E-03
		-3.90606000E-04	-6.24208000E-02	-3.68570000E-03
		-5.16029000E-04	-6.18242000E-02	-3.70457000E-03
		-3.90659000E-04	-5.88302000E-02	-3.67638000E-03
		-3.84817000E-05	-6.24956000E-02	-2.03586000E-03
		-4.41558000E-04	-6.20812000E-02	-3.64918000E-03
		-3.97306000E-04	-5.82615000E-02	-3.68926000E-03
		-2.64180000E-04	-6.19143000E-02	-1.97555000E-03
		-1.32598000E-04	-6.15586000E-02	-3.47019000E-04
		 7.14336000E-04	-6.16101000E-02	 3.53536000E-03
		-6.66456000E-05	-6.18380000E-02	-2.60411000E-04
		 7.41309000E-04	-6.20318000E-02	 3.58289000E-03
		 1.56586000E-05	-5.78117000E-02	-2.93743000E-04
		 2.53421000E-04	-6.15844000E-02	 1.57122000E-03
		 7.00381000E-04	-5.77923000E-02	 3.48054000E-03
		-6.17050000E-04	-6.15978000E-02	-4.00408000E-03
		-5.84503000E-04	-6.17066000E-02	-3.85089000E-03
		-4.24185000E-04	-5.78747000E-02	-3.88680000E-03
		-4.31717000E-04	-6.15750000E-02	-2.17905000E-03
		 0.00000000E+00	 0.00000000E+00	 0.00000000E+00
		 0.00000000E+00	 0.00000000E+00	 0.00000000E+00
		 5.28287000E-05	-1.51527000E-02	-3.62954000E-04
		-3.56217000E-03	-1.63284000E-02	 1.53149000E-02
		 0.00000000E+00	 0.00000000E+00	 0.00000000E+00
		 0.00000000E+00	 0.00000000E+00	 0.00000000E+00
		 2.09783000E-05	-1.77072000E-02	-4.40898000E-04
		-1.51961000E-03	-1.89452000E-02	 1.54131000E-02
		 0.00000000E+00	 0.00000000E+00	 0.00000000E+00
		 6.23706000E-05	-2.92502000E-03	-1.29580000E-04
		-1.75794000E-03	-1.53830000E-02	 7.44243000E-03
		-3.07692000E-03	-4.35156000E-03	 7.83004000E-03
		 0.00000000E+00	 0.00000000E+00	 0.00000000E+00
		 0.00000000E+00	 0.00000000E+00	 0.00000000E+00
		 3.89678000E-05	-1.67782000E-02	-4.09374000E-04
		-2.52271000E-03	-1.79827000E-02	 1.52229000E-02
		 0.00000000E+00	 0.00000000E+00	 0.00000000E+00
		 1.16159000E-05	-4.76003000E-03	-1.56115000E-04
		-7.51039000E-04	-1.79513000E-02	 7.30655000E-03
		-7.61417000E-04	-6.16494000E-03	 7.58691000E-03
		 0.00000000E+00	 0.00000000E+00	 0.00000000E+00
		 3.63929000E-03	-1.57803000E-02	-1.61257000E-02
		 0.00000000E+00	 0.00000000E+00	 0.00000000E+00
		 1.57982000E-03	-1.84093000E-02	-1.63864000E-02
		 0.00000000E+00	 0.00000000E+00	 0.00000000E+00
		 3.17942000E-03	-4.19984000E-03	-8.12412000E-03
		 1.85219000E-03	-1.50996000E-02	-8.19551000E-03
		 0.00000000E+00	 0.00000000E+00	 0.00000000E+00
		 2.60225000E-03	-1.74373000E-02	-1.61275000E-02
		 0.00000000E+00	 0.00000000E+00	 0.00000000E+00
		 7.94570000E-04	-6.03319000E-03	-7.92390000E-03
		 7.97599000E-04	-1.76804000E-02	-8.21767000E-03
		 0.00000000E+00	 0.00000000E+00	 0.00000000E+00
		 0.00000000E+00	 0.00000000E+00	 0.00000000E+00
		-1.89089000E-05	-1.82454000E-02	-4.48764000E-04
		 5.23726000E-04	-1.93834000E-02	 1.52373000E-02
		 0.00000000E+00	 0.00000000E+00	 0.00000000E+00
		 0.00000000E+00	 0.00000000E+00	 0.00000000E+00
		 1.82220000E-06	-1.83216000E-02	-4.56676000E-04
		-5.11826000E-04	-1.95150000E-02	 1.54537000E-02
		 0.00000000E+00	 0.00000000E+00	 0.00000000E+00
		-4.48902000E-05	-4.47810000E-03	-1.51078000E-04
		 2.49070000E-04	-1.84466000E-02	 7.08249000E-03
		 1.60222000E-03	-5.83349000E-03	 7.80992000E-03
		 0.00000000E+00	 0.00000000E+00	 0.00000000E+00
		-5.02513000E-04	-1.88885000E-02	-1.62092000E-02
		 0.00000000E+00	 0.00000000E+00	 0.00000000E+00
		 5.47059000E-04	-1.89887000E-02	-1.64536000E-02
		 0.00000000E+00	 0.00000000E+00	 0.00000000E+00
		-1.65682000E-03	-5.70897000E-03	-8.14627000E-03
		-2.64443000E-04	-1.82091000E-02	-7.99939000E-03
		 8.35134000E-05	-6.05004000E-02	-1.57507000E-03
		-4.30318000E-03	-6.19863000E-02	 2.63190000E-02
		 6.70686000E-05	-6.41171000E-02	-1.75415000E-03
		-2.83315000E-03	-6.56238000E-02	 2.62085000E-02
		 7.70979000E-05	-3.46072000E-02	-8.18200000E-04
		-2.10801000E-03	-6.10750000E-02	 1.22695000E-02
		-4.04902000E-03	-3.60458000E-02	 2.15056000E-02
		 7.76233000E-05	-6.24691000E-02	-1.67988000E-03
		-3.56628000E-03	-6.39668000E-02	 2.62210000E-02
		 4.13093000E-05	-3.78005000E-02	-9.50325000E-04
		-1.37899000E-03	-6.47048000E-02	 1.20945000E-02
		-2.23693000E-03	-3.92459000E-02	 2.14585000E-02
		 4.45296000E-03	-6.04168000E-02	-2.95730000E-02
		 2.95910000E-03	-6.40573000E-02	-2.98248000E-02
		 4.17560000E-03	-3.50220000E-02	-2.32693000E-02
		 2.26558000E-03	-6.03056000E-02	-1.54446000E-02
		 3.71094000E-03	-6.24053000E-02	-2.96817000E-02
		 2.32633000E-03	-3.82280000E-02	-2.34804000E-02
		 1.51320000E-03	-6.39376000E-02	-1.56255000E-02
		 3.05732000E-05	-6.62853000E-02	-1.83921000E-03
		-1.37443000E-03	-6.77654000E-02	 2.60501000E-02
		 4.98242000E-05	-6.53631000E-02	-1.80569000E-03
		-2.10287000E-03	-6.68927000E-02	 2.62373000E-02
		-6.31620000E-06	-3.91760000E-02	-9.98445000E-04
		-6.76731000E-04	-6.68494000E-02	 1.18612000E-02
		-4.53667000E-04	-4.06118000E-02	 2.13325000E-02
		 1.47207000E-03	-6.62314000E-02	-2.98382000E-02
		 2.21632000E-03	-6.52988000E-02	-2.99622000E-02
		 4.91662000E-04	-3.96351000E-02	-2.34391000E-02
		 7.48022000E-04	-6.61098000E-02	-1.55603000E-02
		 1.78945000E-04	-1.25987000E-01	-3.90670000E-03
		-4.44908000E-03	-1.27642000E-01	 3.16109000E-02
		 1.71356000E-04	-1.30155000E-01	-4.11149000E-03
		-3.56918000E-03	-1.31908000E-01	 3.14594000E-02
		 1.12286000E-04	-9.13577000E-02	-2.61593000E-03
		-2.13396000E-03	-1.26699000E-01	 1.37652000E-02
		-4.42505000E-03	-9.29721000E-02	 2.95740000E-02
		 1.75952000E-04	-1.28185000E-01	-4.01264000E-03
		-4.01157000E-03	-1.29900000E-01	 3.15053000E-02
		 1.00703000E-04	-9.53078000E-02	-2.81824000E-03
		-1.72539000E-03	-1.30918000E-01	 1.35522000E-02
		-3.27732000E-03	-9.69275000E-02	 2.94438000E-02
		 4.78231000E-03	-1.25145000E-01	-3.94773000E-02
		 3.92729000E-03	-1.29333000E-01	-3.97668000E-02
		 4.64687000E-03	-9.08914000E-02	-3.48862000E-02
		 2.48415000E-03	-1.25464000E-01	-2.15850000E-02
		 4.35352000E-03	-1.27344000E-01	-3.96125000E-02
		 3.49526000E-03	-9.48432000E-02	-3.51670000E-02
		 2.05075000E-03	-1.29650000E-01	-2.18115000E-02
		 1.56821000E-04	-1.33467000E-01	-4.26182000E-03
		-2.80877000E-03	-1.35334000E-01	 3.12557000E-02
		 1.64816000E-04	-1.31934000E-01	-4.19578000E-03
		-3.19145000E-03	-1.33617000E-01	 3.14360000E-02
		 8.72142000E-05	-9.81133000E-02	-2.94075000E-03
		-1.29453000E-03	-1.34285000E-01	 1.32931000E-02
		-2.18195000E-03	-9.97552000E-02	 2.92519000E-02
		 3.09481000E-03	-1.32695000E-01	-3.98879000E-02
		 3.51186000E-03	-1.31108000E-01	-3.99114000E-02
		 2.34524000E-03	-9.76794000E-02	-3.52307000E-02
		 1.61259000E-03	-1.33001000E-01	-2.18757000E-02
		 5.03471000E-04	-2.02769000E-01	-7.10210000E-03
		-4.06948000E-03	-2.04439000E-01	 3.25626000E-02
		 4.84576000E-04	-2.07161000E-01	-7.23311000E-03
		-3.74474000E-03	-2.09302000E-01	 3.24591000E-02
		 2.81733000E-04	-1.63371000E-01	-5.41603000E-03
		-1.78071000E-03	-2.03545000E-01	 1.26772000E-02
		-4.35329000E-03	-1.65137000E-01	 3.24716000E-02
		 4.95249000E-04	-2.04986000E-01	-7.17086000E-03
		-3.89860000E-03	-2.06840000E-01	 3.25270000E-02
		 2.59215000E-04	-1.67722000E-01	-5.63833000E-03
		-1.50768000E-03	-2.08160000E-01	 1.25704000E-02
		-3.80032000E-03	-1.69445000E-01	 3.23759000E-02
		 4.90396000E-03	-2.01440000E-01	-4.68043000E-02
		 4.41139000E-03	-2.05677000E-01	-4.69537000E-02
		 4.88082000E-03	-1.62269000E-01	-4.33605000E-02
		 2.70074000E-03	-2.02061000E-01	-2.68871000E-02
		 4.66296000E-03	-2.03611000E-01	-4.69051000E-02
		 4.24582000E-03	-1.66575000E-01	-4.35987000E-02
		 2.43837000E-03	-2.06348000E-01	-2.70480000E-02
		 3.30467000E-04	-2.11116000E-01	-7.32527000E-03
		-3.29816000E-03	-2.13633000E-01	 3.23480000E-02
		 4.08344000E-04	-2.09156000E-01	-7.28777000E-03
		-3.52143000E-03	-2.12004000E-01	 3.23957000E-02
		 2.14522000E-04	-1.71450000E-01	-5.84509000E-03
		-1.59951000E-03	-2.12289000E-01	 1.24619000E-02
		-3.08818000E-03	-1.73069000E-01	 3.21973000E-02
		 3.95585000E-03	-2.09479000E-01	-4.70152000E-02