# vtk DataFile Version 3.0

ASCII
DATASET UNSTRUCTURED_GRID

POINTS 522 double
	 1.00000000E+00	 1.00000000E+00	-5.96046000E-08
	 1.00000000E+00	 5.00000000E-01	-5.96046000E-08
	 1.00000000E+00	 5.00000000E-01	 1.00000000E+00
	 1.00000000E+00	 1.00000000E+00	 1.00000000E+00
	 5.00000000E-01	 1.00000000E+00	-5.96046000E-08
	 5.00000000E-01	 5.00000000E-01	-5.96046000E-08
	 5.00000000E-01	 5.00000000E-01	 1.00000000E+00
	 5.00000000E-01	 1.00000000E+00	 1.00000000E+00
	 1.00000000E+00	 7.50000000E-01	-5.96046000E-08
	 1.00000000E+00	 5.00000000E-01	 5.00000000E-01
	 1.00000000E+00	 7.50000000E-01	 1.00000000E+00
	 1.00000000E+00	 1.00000000E+00	 5.00000000E-01
	 7.50000000E-01	 1.00000000E+00	-5.96046000E-08
	 7.50000000E-01	 5.00000000E-01	-5.96046000E-08
	 7.50000000E-01	 5.00000000E-01	 1.00000000E+00
	 7.50000000E-01	 1.00000000E+00	 1.00000000E+00
	 5.00000000E-01	 7.50000000E-01	-5.96046000E-08
	 5.00000000E-01	 5.00000000E-01	 5.00000000E-01
	 5.00000000E-01	 7.50000000E-01	 1.00000000E+00
	 5.00000000E-01	 1.00000000E+00	 5.00000000E-01
	 1.00000000E+00	-1.49012000E-08	-5.96046000E-08
	 1.00000000E+00	-1.49012000E-08	 1.00000000E+00
	 5.00000000E-01	-1.49012000E-08	-5.96046000E-08
	 5.00000000E-01	-1.49012000E-08	 1.00000000E+00
	 1.00000000E+00	 2.50000000E-01	-5.96046000E-08
	 1.00000000E+00	-1.49012000E-08	 5.00000000E-01
	 1.00000000E+00	 2.50000000E-01	 1.00000000E+00
	 7.50000000E-01	-1.49012000E-08	-5.96046000E-08
	 7.50000000E-01	-1.49012000E-08	 1.00000000E+00
	 5.00000000E-01	 2.50000000E-01	-5.96046000E-08
	 5.00000000E-01	-1.49012000E-08	 5.00000000E-01
	 5.00000000E-01	 2.50000000E-01	 1.00000000E+00
	-7.45058000E-09	 1.00000000E+00	-5.96046000E-08
	-7.45058000E-09	 5.00000000E-01	-5.96046000E-08
	-7.45058000E-09	 5.00000000E-01	 1.00000000E+00
	-7.45058000E-09	 1.00000000E+00	 1.00000000E+00
	 2.50000000E-01	 1.00000000E+00	-5.96046000E-08
	 2.50000000E-01	 5.00000000E-01	-5.96046000E-08
	 2.50000000E-01	 5.00000000E-01	 1.00000000E+00
	 2.50000000E-01	 1.00000000E+00	 1.00000000E+00
	-7.45058000E-09	 7.50000000E-01	-5.96046000E-08
	-7.45058000E-09	 5.00000000E-01	 5.00000000E-01
	-7.45058000E-09	 7.50000000E-01	 1.00000000E+00
	-7.45058000E-09	 1.00000000E+00	 5.00000000E-01
	-7.45058000E-09	-1.49012000E-08	-5.96046000E-08
	-7.45058000E-09	-1.49012000E-08	 1.00000000E+00
	 2.50000000E-01	-1.49012000E-08	-5.96046000E-08
	 2.50000000E-01	-1.49012000E-08	 1.00000000E+00
	-7.45058000E-09	 2.50000000E-01	-5.96046000E-08
	-7.45058000E-09	-1.49012000E-08	 5.00000000E-01
	-7.45058000E-09	 2.50000000E-01	 1.00000000E+00
	 1.00000000E+00	 5.00000000E-01	 2.00000000E+00
	 1.00000000E+00	 1.00000000E+00	 2.00000000E+00
	 5.00000000E-01	 5.00000000E-01	 2.00000000E+00
	 5.00000000E-01	 1.00000000E+00	 2.00000000E+00
	 1.00000000E+00	 5.00000000E-01	 1.50000000E+00
	 1.00000000E+00	 7.50000000E-01	 2.00000000E+00
	 1.00000000E+00	 1.00000000E+00	 1.50000000E+00
	 7.50000000E-01	 5.00000000E-01	 2.00000000E+00
	 7.50000000E-01	 1.00000000E+00	 2.00000000E+00
	 5.00000000E-01	 5.00000000E-01	 1.50000000E+00
	 5.00000000E-01	 7.50000000E-01	 2.00000000E+00
	 5.00000000E-01	 1.00000000E+00	 1.50000000E+00
	 1.00000000E+00	-1.49012000E-08	 2.00000000E+00
	 5.00000000E-01	-1.49012000E-08	 2.00000000E+00
	 1.00000000E+00	-1.49012000E-08	 1.50000000E+00
	 1.00000000E+00	 2.50000000E-01	 2.00000000E+00
	 7.50000000E-01	-1.49012000E-08	 2.00000000E+00
	 5.00000000E-01	-1.49012000E-08	 1.50000000E+00
	 5.00000000E-01	 2.50000000E-01	 2.00000000E+00
	-7.45058000E-09	 5.00000000E-01	 2.00000000E+00
	-7.45058000E-09	 1.00000000E+00	 2.00000000E+00
	 2.50000000E-01	 5.00000000E-01	 2.00000000E+00
	 2.50000000E-01	 1.00000000E+00	 2.00000000E+00
	-7.45058000E-09	 5.00000000E-01	 1.50000000E+00
	-7.45058000E-09	 7.50000000E-01	 2.00000000E+00
	-7.45058000E-09	 1.00000000E+00	 1.50000000E+00
	-7.45058000E-09	-1.49012000E-08	 2.00000000E+00
	 2.50000000E-01	-1.49012000E-08	 2.00000000E+00
	-7.45058000E-09	-1.49012000E-08	 1.50000000E+00
	-7.45058000E-09	 2.50000000E-01	 2.00000000E+00
	 1.00000000E+00	 5.00000000E-01	 3.00000000E+00
	 1.00000000E+00	 1.00000000E+00	 3.00000000E+00
	 5.00000000E-01	 5.00000000E-01	 3.00000000E+00
	 5.00000000E-01	 1.00000000E+00	 3.00000000E+00
	 1.00000000E+00	 5.00000000E-01	 2.50000000E+00
	 1.00000000E+00	 7.50000000E-01	 3.00000000E+00
	 1.00000000E+00	 1.00000000E+00	 2.50000000E+00
	 7.50000000E-01	 5.00000000E-01	 3.00000000E+00
	 7.50000000E-01	 1.00000000E+00	 3.00000000E+00
	 5.00000000E-01	 5.00000000E-01	 2.50000000E+00
	 5.00000000E-01	 7.50000000E-01	 3.00000000E+00
	 5.00000000E-01	 1.00000000E+00	 2.50000000E+00
	 1.00000000E+00	-1.49012000E-08	 3.00000000E+00
	 5.00000000E-01	-1.49012000E-08	 3.00000000E+00
	 1.00000000E+00	-1.49012000E-08	 2.50000000E+00
	 1.00000000E+00	 2.50000000E-01	 3.00000000E+00
	 7.50000000E-01	-1.49012000E-08	 3.00000000E+00
	 5.00000000E-01	-1.49012000E-08	 2.50000000E+00
	 5.00000000E-01	 2.50000000E-01	 3.00000000E+00
	-7.45058000E-09	 5.00000000E-01	 3.00000000E+00
	-7.45058000E-09	 1.00000000E+00	 3.00000000E+00
	 2.50000000E-01	 5.00000000E-01	 3.00000000E+00
	 2.50000000E-01	 1.00000000E+00	 3.00000000E+00
	-7.45058000E-09	 5.00000000E-01	 2.50000000E+00
	-7.45058000E-09	 7.50000000E-01	 3.00000000E+00
	-7.45058000E-09	 1.00000000E+00	 2.50000000E+00
	-7.45058000E-09	-1.49012000E-08	 3.00000000E+00
	 2.50000000E-01	-1.49012000E-08	 3.00000000E+00
	-7.45058000E-09	-1.49012000E-08	 2.50000000E+00
	-7.45058000E-09	 2.50000000E-01	 3.00000000E+00
	 1.00000000E+00	 5.00000000E-01	 4.00000000E+00
	 1.00000000E+00	 1.00000000E+00	 4.00000000E+00
	 5.00000000E-01	 5.00000000E-01	 4.00000000E+00
	 5.00000000E-01	 1.00000000E+00	 4.00000000E+00
	 1.00000000E+00	 5.00000000E-01	 3.50000000E+00
	 1.00000000E+00	 7.50000000E-01	 4.00000000E+00
	 1.00000000E+00	 1.00000000E+00	 3.50000000E+00
	 7.50000000E-01	 5.00000000E-01	 4.00000000E+00
	 7.50000000E-01	 1.00000000E+00	 4.00000000E+00
	 5.00000000E-01	 5.00000000E-01	 3.50000000E+00
	 5.00000000E-01	 7.50000000E-01	 4.00000000E+00
	 5.00000000E-01	 1.00000000E+00	 3.50000000E+00
	 1.00000000E+00	-1.49012000E-08	 4.00000000E+00
	 5.00000000E-01	-1.49012000E-08	 4.00000000E+00
	 1.00000000E+00	-1.49012000E-08	 3.50000000E+00
	 1.00000000E+00	 2.50000000E-01	 4.00000000E+00
	 7.50000000E-01	-1.49012000E-08	 4.00000000E+00
	 5.00000000E-01	-1.49012000E-08	 3.50000000E+00
	 5.00000000E-01	 2.50000000E-01	 4.00000000E+00
	-7.45058000E-09	 5.00000000E-01	 4.00000000E+00
	-7.45058000E-09	 1.00000000E+00	 4.00000000E+00
	 2.50000000E-01	 5.00000000E-01	 4.00000000E+00
	 2.50000000E-01	 1.00000000E+00	 4.00000000E+00
	-7.45058000E-09	 5.00000000E-01	 3.50000000E+00
	-7.45058000E-09	 7.50000000E-01	 4.00000000E+00
	-7.45058000E-09	 1.00000000E+00	 3.50000000E+00
	-7.45058000E-09	-1.49012000E-08	 4.00000000E+00
	 2.50000000E-01	-1.49012000E-08	 4.00000000E+00
	-7.45058000E-09	-1.49012000E-08	 3.50000000E+00
	-7.45058000E-09	 2.50000000E-01	 4.00000000E+00
	 1.00000000E+00	 5.00000000E-01	 5.00000000E+00
	 1.00000000E+00	 1.00000000E+00	 5.00000000E+00
	 5.00000000E-01	 5.00000000E-01	 5.00000000E+00
	 5.00000000E-01	 1.00000000E+00	 5.00000000E+00
	 1.00000000E+00	 5.00000000E-01	 4.50000000E+00
	 1.00000000E+00	 7.50000000E-01	 5.00000000E+00
	 1.00000000E+00	 1.00000000E+00	 4.50000000E+00
	 7.50000000E-01	 5.00000000E-01	 5.00000000E+00
	 7.50000000E-01	 1.00000000E+00	 5.00000000E+00
	 5.00000000E-01	 5.00000000E-01	 4.50000000E+00
	 5.00000000E-01	 7.50000000E-01	 5.00000000E+00
	 5.00000000E-01	 1.00000000E+00	 4.50000000E+00
	 1.00000000E+00	-1.49012000E-08	 5.00000000E+00
	 5.00000000E-01	-1.49012000E-08	 5.00000000E+00
	 1.00000000E+00	-1.49012000E-08	 4.50000000E+00
	 1.00000000E+00	 2.50000000E-01	 5.00000000E+00
	 7.50000000E-01	-1.49012000E-08	 5.00000000E+00
	 5.00000000E-01	-1.49012000E-08	 4.50000000E+00
	 5.00000000E-01	 2.50000000E-01	 5.00000000E+00
	-7.45058000E-09	 5.00000000E-01	 5.00000000E+00
	-7.45058000E-09	 1.00000000E+00	 5.00000000E+00
	 2.50000000E-01	 5.00000000E-01	 5.00000000E+00
	 2.50000000E-01	 1.00000000E+00	 5.00000000E+00
	-7.45058000E-09	 5.00000000E-01	 4.50000000E+00
	-7.45058000E-09	 7.50000000E-01	 5.00000000E+00
	-7.45058000E-09	 1.00000000E+00	 4.50000000E+00
	-7.45058000E-09	-1.49012000E-08	 5.00000000E+00
	 2.50000000E-01	-1.49012000E-08	 5.00000000E+00
	-7.45058000E-09	-1.49012000E-08	 4.50000000E+00
	-7.45058000E-09	 2.50000000E-01	 5.00000000E+00
	 1.00000000E+00	 5.00000000E-01	 6.00000000E+00
	 1.00000000E+00	 1.00000000E+00	 6.00000000E+00
	 5.00000000E-01	 5.00000000E-01	 6.00000000E+00
	 5.00000000E-01	 1.00000000E+00	 6.00000000E+00
	 1.00000000E+00	 5.00000000E-01	 5.50000000E+00
	 1.00000000E+00	 7.50000000E-01	 6.00000000E+00
	 1.00000000E+00	 1.00000000E+00	 5.50000000E+00
	 7.50000000E-01	 5.00000000E-01	 6.00000000E+00
	 7.50000000E-01	 1.00000000E+00	 6.00000000E+00
	 5.00000000E-01	 5.00000000E-01	 5.50000000E+00
	 5.00000000E-01	 7.50000000E-01	 6.00000000E+00
	 5.00000000E-01	 1.00000000E+00	 5.50000000E+00
	 1.00000000E+00	-1.49012000E-08	 6.00000000E+00
	 5.00000000E-01	-1.49012000E-08	 6.00000000E+00
	 1.00000000E+00	-1.49012000E-08	 5.50000000E+00
	 1.00000000E+00	 2.50000000E-01	 6.00000000E+00
	 7.50000000E-01	-1.49012000E-08	 6.00000000E+00
	 5.00000000E-01	-1.49012000E-08	 5.50000000E+00
	 5.00000000E-01	 2.50000000E-01	 6.00000000E+00
	-7.45058000E-09	 5.00000000E-01	 6.00000000E+00
	-7.45058000E-09	 1.00000000E+00	 6.00000000E+00
	 2.50000000E-01	 5.00000000E-01	 6.00000000E+00
	 2.50000000E-01	 1.00000000E+00	 6.00000000E+00
	-7.45058000E-09	 5.00000000E-01	 5.50000000E+00
	-7.45058000E-09	 7.50000000E-01	 6.00000000E+00
	-7.45058000E-09	 1.00000000E+00	 5.50000000E+00
	-7.45058000E-09	-1.49012000E-08	 6.00000000E+00
	 2.50000000E-01	-1.49012000E-08	 6.00000000E+00
	-7.45058000E-09	-1.49012000E-08	 5.50000000E+00
	-7.45058000E-09	 2.50000000E-01	 6.00000000E+00
	 1.00000000E+00	 5.00000000E-01	 7.00000000E+00
[...]
POINT_DATA 522
FIELD U 1
	U 3 522 double
		 0.00000000E+00	 0.00000000E+00	 0.00000000E+00
		 0.00000000E+00	 0.00000000E+00	 0.00000000E+00
		-3.65208000E-06	 2.50615000E-03	 3.16551000E-05
		 1.20891000E-03	 2.68379000E-03	-3.19143000E-03
		 0.00000000E+00	 0.00000000E+00	 0.00000000E+00
		 0.00000000E+00	 0.00000000E+00	 0.00000000E+00
		 2.40225000E-06	 3.49336000E-03	 2.25765000E-05
		 7.75074000E-04	 3.68665000E-03	-3.23160000E-03
		 0.00000000E+00	 0.00000000E+00	 0.00000000E+00
		-4.88716000E-06	 3.05262000E-04	 1.53783000E-05
		 6.03643000E-04	 2.51800000E-03	-1.61920000E-03
		 8.61733000E-04	 5.80385000E-04	-1.59106000E-03
		 0.00000000E+00	 0.00000000E+00	 0.00000000E+00
		 0.00000000E+00	 0.00000000E+00	 0.00000000E+00
		-1.97558000E-07	 3.07361000E-03	 2.71559000E-05
		 9.89681000E-04	 3.25785000E-03	-3.14368000E-03
		 0.00000000E+00	 0.00000000E+00	 0.00000000E+00
		-7.53723000E-08	 9.16921000E-04	 1.21638000E-05
		 3.87860000E-04	 3.51036000E-03	-1.57455000E-03
		 3.95666000E-04	 1.18245000E-03	-1.54621000E-03
		 0.00000000E+00	 0.00000000E+00	 0.00000000E+00
		-1.21366000E-03	 2.72447000E-03	 3.25022000E-03
		 0.00000000E+00	 0.00000000E+00	 0.00000000E+00
		-7.66574000E-04	 3.72104000E-03	 3.27149000E-03
		 0.00000000E+00	 0.00000000E+00	 0.00000000E+00
		-8.71039000E-04	 6.01607000E-04	 1.62255000E-03
		-6.10401000E-04	 2.53942000E-03	 1.68027000E-03
		 0.00000000E+00	 0.00000000E+00	 0.00000000E+00
		-9.86549000E-04	 3.29489000E-03	 3.19392000E-03
		 0.00000000E+00	 0.00000000E+00	 0.00000000E+00
		-3.94049000E-04	 1.20079000E-03	 1.57150000E-03
		-3.82072000E-04	 3.52769000E-03	 1.61782000E-03
		 0.00000000E+00	 0.00000000E+00	 0.00000000E+00
		 0.00000000E+00	 0.00000000E+00	 0.00000000E+00
		 5.74679000E-06	 4.04720000E-03	 1.60755000E-05
		 3.32815000E-04	 4.22572000E-03	-3.20699000E-03
		 0.00000000E+00	 0.00000000E+00	 0.00000000E+00
		 0.00000000E+00	 0.00000000E+00	 0.00000000E+00
		 4.45067000E-06	 3.84282000E-03	 1.83439000E-05
		 5.56511000E-04	 4.02980000E-03	-3.28322000E-03
		 0.00000000E+00	 0.00000000E+00	 0.00000000E+00
		 3.55421000E-06	 1.09484000E-03	 1.22204000E-05
		 1.69412000E-04	 4.05981000E-03	-1.50411000E-03
		-9.89629000E-05	 1.34522000E-03	-1.59420000E-03
		 0.00000000E+00	 0.00000000E+00	 0.00000000E+00
		-3.16603000E-04	 4.25289000E-03	 3.23423000E-03
		 0.00000000E+00	 0.00000000E+00	 0.00000000E+00
		-5.43737000E-04	 4.06159000E-03	 3.31405000E-03
		 0.00000000E+00	 0.00000000E+00	 0.00000000E+00
		 1.08471000E-04	 1.36135000E-03	 1.61882000E-03
		-1.56575000E-04	 4.07262000E-03	 1.53516000E-03
		-2.67849000E-05	 1.16860000E-02	 3.45658000E-05
		 1.66398000E-03	 1.18058000E-02	-5.95419000E-03
		-1.91658000E-05	 1.31946000E-02	 3.43470000E-07
		 1.31873000E-03	 1.33234000E-02	-6.00353000E-03
		-9.16532000E-06	 6.32984000E-03	 4.14579000E-05
		 8.17276000E-04	 1.17071000E-02	-2.94606000E-03
		 1.49982000E-03	 6.49907000E-03	-4.66041000E-03
		-2.28313000E-05	 1.24795000E-02	 1.60841000E-05
		 1.49252000E-03	 1.26058000E-02	-5.96078000E-03
		-2.62595000E-06	 7.62164000E-03	 1.87640000E-05
		 6.49988000E-04	 1.32216000E-02	-2.96737000E-03
		 1.08547000E-03	 7.80325000E-03	-4.69672000E-03
		-1.71432000E-03	 1.18960000E-02	 6.01725000E-03
		-1.35432000E-03	 1.34076000E-02	 5.99875000E-03
		-1.51468000E-03	 6.56417000E-03	 4.73703000E-03
		-8.70193000E-04	 1.17518000E-02	 3.01409000E-03
		-1.53486000E-03	 1.26921000E-02	 5.98690000E-03
		-1.08662000E-03	 7.85971000E-03	 4.72814000E-03
		-6.87625000E-04	 1.32625000E-02	 2.96683000E-03
		-1.38597000E-05	 1.43580000E-02	-2.91626000E-05
		 9.76573000E-04	 1.44883000E-02	-6.01761000E-03
		-1.60315000E-05	 1.38163000E-02	-1.42333000E-05
		 1.14765000E-03	 1.39445000E-02	-6.04924000E-03
		 8.95690000E-07	 8.50096000E-03	 4.59959000E-07
		 4.80539000E-04	 1.43856000E-02	-2.95154000E-03
		 6.82821000E-04	 8.69271000E-03	-4.70119000E-03
		-1.00209000E-03	 1.45681000E-02	 5.95458000E-03
		-1.17754000E-03	 1.40274000E-02	 6.01601000E-03
		-6.75853000E-04	 8.74139000E-03	 4.69650000E-03
		-5.07654000E-04	 1.44235000E-02	 2.89190000E-03
		-5.87400000E-05	 2.56223000E-02	-3.47852000E-05
		 2.00083000E-03	 2.56509000E-02	-7.84215000E-03
		-5.05432000E-05	 2.75719000E-02	-7.73141000E-05
		 1.79720000E-03	 2.76072000E-02	-7.89991000E-03
		-4.51754000E-05	 1.82205000E-02	 6.86245000E-06
		 9.70216000E-04	 2.56087000E-02	-3.94690000E-03
		 1.80893000E-03	 1.83047000E-02	-7.00036000E-03
		-5.46854000E-05	 2.66242000E-02	-5.62825000E-05
		 1.89905000E-03	 2.66573000E-02	-7.83609000E-03
		-3.73829000E-05	 1.99401000E-02	-3.19750000E-05
		 8.73275000E-04	 2.75622000E-02	-3.96082000E-03
		 1.54580000E-03	 2.00220000E-02	-7.05526000E-03
		-2.11616000E-03	 2.57908000E-02	 7.76934000E-03
		-1.89650000E-03	 2.77438000E-02	 7.74187000E-03
		-1.89735000E-03	 1.84187000E-02	 7.00928000E-03
		-1.08710000E-03	 2.56791000E-02	 3.87637000E-03
		-2.00617000E-03	 2.67943000E-02	 7.72042000E-03
		-1.61890000E-03	 2.01329000E-02	 6.98682000E-03
		-9.73792000E-04	 2.76295000E-02	 3.80537000E-03
		-4.32260000E-05	 2.93151000E-02	-1.17284000E-04
		 1.60036000E-03	 2.93544000E-02	-7.92492000E-03
		-4.66882000E-05	 2.84708000E-02	-9.77875000E-05
		 1.69904000E-03	 2.85073000E-02	-7.96161000E-03
		-3.09628000E-05	 2.13844000E-02	-6.71725000E-05
		 7.78594000E-04	 2.93085000E-02	-3.94569000E-03
		 1.27601000E-03	 2.14659000E-02	-7.07446000E-03
		-1.68574000E-03	 2.94886000E-02	 7.68685000E-03
		-1.79115000E-03	 2.86441000E-02	 7.76227000E-03
		-1.33710000E-03	 2.15749000E-02	 6.93593000E-03
		-8.64657000E-04	 2.93730000E-02	 3.71054000E-03
		-8.19136000E-05	 4.26301000E-02	-1.53732000E-04
		 2.06255000E-03	 4.25570000E-02	-8.84925000E-03
		-7.44280000E-05	 4.47427000E-02	-2.00908000E-04
		 2.01774000E-03	 4.46799000E-02	-8.91778000E-03
		-7.02567000E-05	 3.37894000E-02	-8.73363000E-05
		 9.87866000E-04	 4.25892000E-02	-4.43928000E-03
		 2.12902000E-03	 3.37614000E-02	-8.46925000E-03
		-7.82031000E-05	 4.36901000E-02	-1.77763000E-04
		 2.04110000E-03	 4.36257000E-02	-8.90509000E-03
		-6.20848000E-05	 3.59068000E-02	-1.34333000E-04
		 9.73077000E-04	 4.47074000E-02	-4.51571000E-03
		 1.98986000E-03	 3.58926000E-02	-8.53467000E-03
		-2.22633000E-03	 4.27236000E-02	 8.54101000E-03
		-2.16651000E-03	 4.48475000E-02	 8.51528000E-03
		-2.26765000E-03	 3.39204000E-02	 8.29219000E-03
		-1.15173000E-03	 4.26703000E-02	 4.13211000E-03
		-2.19734000E-03	 4.37934000E-02	 8.54831000E-03
		-2.11255000E-03	 3.60491000E-02	 8.26351000E-03
		-1.12186000E-03	 4.47895000E-02	 4.11379000E-03
		-6.63998000E-05	 4.68132000E-02	-2.47849000E-04
		 1.99566000E-03	 4.67617000E-02	-8.94281000E-03
		-7.04813000E-05	 4.57842000E-02	-2.24029000E-04
		 2.00711000E-03	 4.57231000E-02	-8.93381000E-03
		-5.42627000E-05	 3.78909000E-02	-1.79862000E-04
		 9.62050000E-04	 4.67842000E-02	-4.55018000E-03
		 1.87245000E-03	 3.78873000E-02	-8.56160000E-03
		-2.12845000E-03	 4.69291000E-02	 8.44651000E-03
		-2.14805000E-03	 4.58908000E-02	 8.48554000E-03
		-1.97980000E-03	 3.80412000E-02	 8.19947000E-03
		-1.09482000E-03	 4.68662000E-02	 4.05406000E-03
		-9.32926000E-05	 6.08830000E-02	-3.06639000E-04
		 1.37336000E-03	 6.07459000E-02	-8.63742000E-03
		-8.86802000E-05	 6.24126000E-02	-3.34671000E-04
		 1.49870000E-03	 6.22745000E-02	-8.67454000E-03
		-9.02746000E-05	 5.18140000E-02	-2.30619000E-04
		 6.40892000E-04	 6.08329000E-02	-4.38930000E-03
		 1.79164000E-03	 5.17017000E-02	-8.87295000E-03
		-9.11705000E-05	 6.16312000E-02	-3.20356000E-04
		 1.43627000E-03	 6.14926000E-02	-8.72302000E-03
		-8.41722000E-05	 5.37154000E-02	-2.70347000E-04
		 7.06005000E-04	 6.23618000E-02	-4.48850000E-03
		 1.84268000E-03	 5.36099000E-02	-8.93153000E-03
		-1.56243000E-03	 6.08936000E-02	 8.02721000E-03
		-1.67760000E-03	 6.24268000E-02	 8.00827000E-03
		-1.97407000E-03	 5.18623000E-02	 8.41315000E-03
		-8.28046000E-04	 6.09040000E-02	 3.77657000E-03
		-1.62070000E-03	 6.16451000E-02	 8.08554000E-03
		-2.01224000E-03	 5.37745000E-02	 8.39231000E-03
		-8.83631000E-04	 6.24375000E-02	 3.81980000E-03
		-8.20235000E-05	 6.40580000E-02	-3.64552000E-04
		 1.63779000E-03	 6.39287000E-02	-8.69550000E-03
		-8.57443000E-05	 6.32195000E-02	-3.49371000E-04
		 1.56806000E-03	 6.30838000E-02	-8.62691000E-03
		-7.65961000E-05	 5.56675000E-02	-3.11111000E-04
		 7.75638000E-04	 6.40103000E-02	-4.57248000E-03
		 1.91952000E-03	 5.55763000E-02	-8.95308000E-03
		-1.80255000E-03	 6.40837000E-02	 7.96910000E-03
		-1.74056000E-03	 6.32357000E-02	 7.93091000E-03
		-2.07363000E-03	 5.57431000E-02	 8.33203000E-03
		-9.39738000E-04	 6.40892000E-02	 3.84405000E-03
		-8.95330000E-05	 7.75597000E-02	-4.29436000E-04
		 4.71048000E-04	 7.74384000E-02	-7.82811000E-03
		-8.63276000E-05	 7.81952000E-02	-4.33221000E-04
		 6.14410000E-04	 7.80677000E-02	-7.82929000E-03
		-9.28456000E-05	 6.94928000E-02	-3.73139000E-04
		 1.92332000E-04	 7.75178000E-02	-4.07417000E-03
		 9.15224000E-04	 6.93632000E-02	-8.24674000E-03
		-8.81227000E-05	 7.78602000E-02	-4.31286000E-04
		 5.42504000E-04	 7.77334000E-02	-7.89111000E-03
		-8.92557000E-05	 7.05748000E-02	-3.88978000E-04
		 2.63863000E-04	 7.81493000E-02	-4.13967000E-03
		 1.06060000E-03	 7.04405000E-02	-8.26393000E-03
		-6.52248000E-04	 7.75552000E-02	 6.97029000E-03
		-7.88437000E-04	 7.81884000E-02	 6.96420000E-03
		-1.10303000E-03	 6.94957000E-02	 7.50317000E-03
		-3.72031000E-04	 7.75750000E-02	 3.21540000E-03
		-7.20448000E-04	 7.78540000E-02	 7.02986000E-03
		-1.24038000E-03	 7.05768000E-02	 7.48880000E-03
		-4.36756000E-04	 7.82103000E-02	 3.27349000E-03
		-8.08582000E-05	 7.89638000E-02	-4.38106000E-04
		 7.55828000E-04	 7.88348000E-02	-7.83704000E-03
		-8.39704000E-05	 7.85619000E-02	-4.35409000E-04
		 6.84551000E-04	 7.84346000E-02	-7.76585000E-03
		-8.35263000E-05	 7.17931000E-02	-4.06558000E-04
		 3.37174000E-04	 7.89160000E-02	-4.21258000E-03
		 1.20897000E-03	 7.16613000E-02	-8.28078000E-03
		-9.18404000E-04	 7.89587000E-02	 6.96241000E-03
		-8.53592000E-04	 7.85551000E-02	 6.89658000E-03
		-1.37644000E-03	 7.18001000E-02	 7.47040000E-03
		-4.98897000E-04	 7.89803000E-02	 3.33658000E-03
		-6.44747000E-05	 9.21035000E-02	-5.22374000E-04
		-1.88380000E-04	 9.20280000E-02	-7.19872000E-03
		-6.11438000E-05	 9.20244000E-02	-5.02176000E-04
		-1.04945000E-04	 9.19409000E-02	-7.16647000E-03
		-8.07128000E-05	 8.50694000E-02	-4.78243000E-04
		-1.25677000E-04	 9.20752000E-02	-3.83989000E-03
		 9.64754000E-05	 8.49714000E-02	-7.46657000E-03
		-6.32515000E-05	 9.20545000E-02	-5.11819000E-04
		-1.48144000E-04	 9.19730000E-02	-7.22068000E-03
		-7.73125000E-05	 8.53106000E-02	-4.69698000E-04
		-8.44443000E-05	 9.19913000E-02	-3.85183000E-03
		 2.16159000E-04	 8.52048000E-02	-7.45048000E-03
		 5.74422000E-05	 9.21196000E-02	 6.15471000E-03
		-1.79988000E-05	 9.20355000E-02	 6.16240000E-03
		-2.59880000E-04	 8.50735000E-02	 6.50957000E-03
		-3.70682000E-06	 9.21200000E-02	 2.79557000E-03
		 2.00955000E-05	 9.20674000E-02	 6.19774000E-03
		-3.72289000E-04	 8.53105000E-02	 6.51075000E-03
		-3.78401000E-05	 9.20389000E-02	 2.84778000E-03
		-5.61848000E-05	 9.20205000E-02	-4.84911000E-04
		-3.35003000E-05	 9.19286000E-02	-7.15471000E-03
		-5.86666000E-05	 9.20135000E-02	-4.93499000E-04
		-6.93305000E-05	 9.19279000E-02	-7.11220000E-03
		-7.19056000E-05	 8.56616000E-02	-4.62007000E-04
		-4.38849000E-05	 9.19828000E-02	-3.88335000E-03
		 3.27951000E-04	 8.55502000E-02	-7.44916000E-03
		-7.85221000E-05	 9.20246000E-02	 6.18479000E-03
		-4.78057000E-05	 9.20223000E-02	 6.12465000E-03
		-4.73222000E-04	 8.56597000E-02	 6.52498000E-03
		-6.82551000E-05	 9.20318000E-02	 2.91421000E-03
		-1.19355000E-05	 1.05300000E-01	-6.04319000E-04
		-3.82464000E-04	 1.05261000E-01	-7.09337000E-03
		-1.76752000E-05	 1.04922000E-01	-5.73423000E-04
		-3.74309000E-04	 1.04869000E-01	-7.03942000E-03
		-4.03628000E-05	 9.87876000E-02	-5.63564000E-04
		-1.93371000E-04	 1.05279000E-01	-3.85264000E-03
		-3.57087000E-04	 9.87365000E-02	-7.09028000E-03
		-1.41587000E-05	 1.05115000E-01	-5.87784000E-04
		-3.79195000E-04	 1.05065000E-01	-7.06931000E-03
		-3.98759000E-05	 9.84934000E-02	-5.35143000E-04
		-1.93788000E-04	 1.04893000E-01	-3.81285000E-03
		-3.17380000E-04	 9.84325000E-02	-7.04370000E-03
		 3.54925000E-04	 1.05353000E-01	 5.88993000E-03
		 3.42033000E-04	 1.04964000E-01	 5.89789000E-03
		 2.73348000E-04	 9.88240000E-02	 5.96731000E-03
		 1.68679000E-04	 1.05326000E-01	 2.64542000E-03
		 3.49808000E-04	 1.05161000E-01	 5.89920000E-03
		 2.39260000E-04	 9.85229000E-02	 5.97676000E-03
		 1.59515000E-04	 1.04942000E-01	 2.66761000E-03
		-2.24387000E-05	 1.04558000E-01	-5.51913000E-04
		-3.86781000E-04	 1.04493000E-01	-7.01295000E-03
		-2.08727000E-05	 1.04737000E-01	-5.61624000E-04
		-3.80234000E-04	 1.04679000E-01	-7.01489000E-03
		-3.82473000E-05	 9.82330000E-02	-5.13993000E-04
		-2.03246000E-04	 1.04524000E-01	-3.79625000E-03
		-2.88242000E-04	 9.81649000E-02	-7.02234000E-03
		 3.51210000E-04	 1.04577000E-01	 5.91471000E-03
		 3.45826000E-04	 1.04771000E-01	 5.89653000E-03
		 2.17384000E-04	 9.82499000E-02	 5.99699000E-03
		 1.60803000E-04	 1.04567000E-01	 2.69464000E-03
		 0.00000000E+00	 0.00000000E+00	 0.00000000E+00
		 0.00000000E+00	 0.00000000E+00	 0.00000000E+00
		 5.15502000E-05	-1.76871000E-03	-1.83023000E-04
		-1.86921000E-03	-1.99387000E-03	 3.22425000E-03
		 0.00000000E+00	 0.00000000E+00	 0.00000000E+00
		 0.00000000E+00	 0.00000000E+00	 0.00000000E+00
		 2.73378000E-05	-3.43711000E-03	-1.87422000E-04
		-1.39364000E-03	-3.66891000E-03	 3.24512000E-03
		 0.00000000E+00	 0.00000000E+00	 0.00000000E+00
		 3.76283000E-05	 1.02787000E-04	-8.77992000E-05
		-9.11934000E-04	-1.79817000E-03	 1.63845000E-03
		-1.16005000E-03	-1.92236000E-04	 1.56073000E-03
		 0.00000000E+00	 0.00000000E+00	 0.00000000E+00
		 0.00000000E+00	 0.00000000E+00	 0.00000000E+00
		 4.00173000E-05	-2.68540000E-03	-1.83195000E-04
		-1.62738000E-03	-2.91034000E-03	 3.10509000E-03
		 0.00000000E+00	 0.00000000E+00	 0.00000000E+00
		 1.02269000E-05	-8.39830000E-04	-7.95242000E-05
		-6.83793000E-04	-3.46606000E-03	 1.51391000E-03
		-7.00469000E-04	-1.10997000E-03	 1.51440000E-03
		 0.00000000E+00	 0.00000000E+00	 0.00000000E+00
		 1.97312000E-03	-2.00774000E-03	-3.59298000E-03
		 0.00000000E+00	 0.00000000E+00	 0.00000000E+00
		 1.45380000E-03	-3.69174000E-03	-3.62391000E-03
		 0.00000000E+00	 0.00000000E+00	 0.00000000E+00
		 1.23468000E-03	-2.35605000E-04	-1.74661000E-03
		 1.01467000E-03	-1.80338000E-03	-2.00513000E-03
		 0.00000000E+00	 0.00000000E+00	 0.00000000E+00
		 1.71064000E-03	-2.92874000E-03	-3.47351000E-03
		 0.00000000E+00	 0.00000000E+00	 0.00000000E+00
		 7.22750000E-04	-1.15409000E-03	-1.68346000E-03
		 7.38815000E-04	-3.47692000E-03	-1.88938000E-03
		 0.00000000E+00	 0.00000000E+00	 0.00000000E+00
		 0.00000000E+00	 0.00000000E+00	 0.00000000E+00
		-1.19381000E-06	-4.61468000E-03	-1.87301000E-04
		-9.12257000E-04	-4.82299000E-03	 3.21973000E-03
		 0.00000000E+00	 0.00000000E+00	 0.00000000E+00
		 0.00000000E+00	 0.00000000E+00	 0.00000000E+00
		 1.35732000E-05	-4.10655000E-03	-1.89410000E-04
		-1.15500000E-03	-4.32340000E-03	 3.34839000E-03
		 0.00000000E+00	 0.00000000E+00	 0.00000000E+00
		-1.75627000E-05	-1.31969000E-03	-7.94728000E-05
		-4.57272000E-04	-4.63362000E-03	 1.38326000E-03
		-1.91818000E-04	-1.56385000E-03	 1.56881000E-03
		 0.00000000E+00	 0.00000000E+00	 0.00000000E+00
		 9.14880000E-04	-4.84994000E-03	-3.59868000E-03
		 0.00000000E+00	 0.00000000E+00	 0.00000000E+00
		 1.18658000E-03	-4.35265000E-03	-3.73237000E-03
		 0.00000000E+00	 0.00000000E+00	 0.00000000E+00
		 1.56708000E-04	-1.60688000E-03	-1.73843000E-03
		 4.57614000E-04	-4.64867000E-03	-1.75768000E-03
		 4.90821000E-05	-1.11024000E-02	-3.84448000E-04
		-3.05210000E-03	-1.13335000E-02	 6.30316000E-03
		 3.20018000E-05	-1.39871000E-02	-4.41505000E-04
		-2.64376000E-03	-1.42121000E-02	 6.26531000E-03
		 5.94877000E-05	-5.49795000E-03	-2.76124000E-04
		-1.50093000E-03	-1.11689000E-02	 2.98317000E-03
		-2.52462000E-03	-5.74157000E-03	 4.85468000E-03
		 4.11811000E-05	-1.25931000E-02	-4.14806000E-04
		-2.84670000E-03	-1.28206000E-02	 6.22004000E-03
		 3.70575000E-05	-7.82804000E-03	-3.03295000E-04
		-1.30194000E-03	-1.40485000E-02	 2.87302000E-03
		-2.04503000E-03	-8.07305000E-03	 4.83892000E-03
		 3.16132000E-03	-1.12665000E-02	-7.07967000E-03
		 2.71193000E-03	-1.41721000E-02	-7.15536000E-03
		 2.65102000E-03	-5.71894000E-03	-5.41454000E-03
		 1.60109000E-03	-1.11338000E-02	-3.75486000E-03
		 2.93928000E-03	-1.27737000E-02	-7.05439000E-03
		 2.12646000E-03	-8.06892000E-03	-5.45366000E-03
		 1.37158000E-03	-1.40294000E-02	-3.75526000E-03
		 1.09640000E-06	-1.64569000E-02	-4.92135000E-04
		-2.22973000E-03	-1.66539000E-02	 6.19396000E-03
		 1.77630000E-05	-1.52681000E-02	-4.66480000E-04
		-2.43493000E-03	-1.55129000E-02	 6.31575000E-03
		 7.53396000E-06	-9.67054000E-03	-3.25405000E-04
		-1.12372000E-03	-1.65015000E-02	 2.72858000E-03
		-1.58362000E-03	-9.90682000E-03	 4.80468000E-03
		 2.26495000E-03	-1.66482000E-02	-7.18615000E-03
		 2.48956000E-03	-1.54602000E-02	-7.25962000E-03
		 1.61535000E-03	-9.92472000E-03	-5.46268000E-03
		 1.13482000E-03	-1.65011000E-02	-3.71056000E-03
		-1.07186000E-05	-2.64220000E-02	-6.58593000E-04
		-4.10891000E-03	-2.65434000E-02	 8.12987000E-03
		-1.73225000E-05	-3.03729000E-02	-7.63851000E-04
		-3.87744000E-03	-3.06004000E-02	 8.04692000E-03
		 2.59694000E-05	-1.82268000E-02	-5.13172000E-04
		-2.05488000E-03	-2.64543000E-02	 3.76178000E-03
		-3.55280000E-03	-1.84322000E-02	 7.39781000E-03
		-1.15515000E-05	-2.84273000E-02	-7.07744000E-04
		-3.99471000E-03	-2.86156000E-02	 8.00412000E-03
		 1.22616000E-05	-2.16442000E-02	-5.97910000E-04
		-1.97284000E-03	-3.04624000E-02	 3.57165000E-03
		-3.24665000E-03	-2.18500000E-02	 7.34036000E-03
		 4.05955000E-03	-2.64450000E-02	-9.43256000E-03
		 3.84939000E-03	-3.04282000E-02	-9.59475000E-03
		 3.60768000E-03	-1.83314000E-02	-8.42830000E-03
		 2.02318000E-03	-2.64071000E-02	-5.06787000E-03
		 3.95410000E-03	-2.84619000E-02	-9.43366000E-03
		 3.28213000E-03	-2.17537000E-02	-8.54167000E-03
		 1.91648000E-03	-3.03799000E-02	-5.11950000E-03
		-3.99713000E-05	-3.41313000E-02	-8.66414000E-04
		-3.76654000E-03	-3.44716000E-02	 7.91917000E-03
		-2.69070000E-05	-3.22924000E-02	-8.18646000E-04
		-3.82348000E-03	-3.24476000E-02	 8.09974000E-03
		-4.59916000E-06	-2.47478000E-02	-6.76922000E-04
		-1.87338000E-03	-3.42811000E-02	 3.33419000E-03
		-2.97403000E-03	-2.49655000E-02	 7.23714000E-03
		 3.65108000E-03	-3.42265000E-02	-9.69895000E-03
		 3.75166000E-03	-3.23472000E-02	-9.75862000E-03
		 2.93433000E-03	-2.48574000E-02	-8.59935000E-03
		 1.79671000E-03	-3.41679000E-02	-5.11136000E-03
		-7.44857000E-05	-4.48707000E-02	-9.67393000E-04
		-4.68412000E-03	-4.47886000E-02	 8.15928000E-03
		-7.63095000E-05	-4.95729000E-02	-1.09174000E-03
		-4.89799000E-03	-4.99534000E-02	 8.05831000E-03
		-7.62040000E-05	-3.54142000E-02	-8.10794000E-04
		-2.37778000E-03	-4.48411000E-02	 3.53934000E-03
		-4.54531000E-03	-3.55270000E-02	 8.36369000E-03
		-7.34697000E-05	-4.71720000E-02	-1.02922000E-03
		-4.78137000E-03	-4.72717000E-02	 8.12242000E-03
		-8.41895000E-05	-3.98837000E-02	-9.75063000E-04
		-2.36627000E-03	-4.97615000E-02	 3.43541000E-03
		-4.53793000E-03	-3.99484000E-02	 8.30950000E-03
		 4.37503000E-03	-4.47348000E-02	-1.00871000E-02
		 4.45574000E-03	-4.93023000E-02	-1.02326000E-02
		 4.37651000E-03	-3.53453000E-02	-9.98001000E-03
		 2.14570000E-03	-4.48231000E-02	-5.47106000E-03
		 4.42057000E-03	-4.70024000E-02	-1.01743000E-02
		 4.30981000E-03	-3.97984000E-02	-1.01522000E-02
		 2.17826000E-03	-4.94309000E-02	-5.61756000E-03
		-2.24606000E-04	-5.44064000E-02	-1.21610000E-03
		-5.01199000E-03	-5.51540000E-02	 7.91298000E-03
		-1.47595000E-04	-5.19394000E-02	-1.15483000E-03
		-4.95317000E-03	-5.30201000E-02	 7.99848000E-03
		-1.25625000E-04	-4.43110000E-02	-1.16290000E-03
		-2.73312000E-03	-5.47650000E-02	 3.28805000E-03
		-4.40897000E-03	-4.42635000E-02	 8.14820000E-03
		 4.57052000E-03	-5.40000000E-02	-1.03329000E-02