<?xml version="1.0"?>
<VTKFile type="UnstructuredGrid" version="0.1" byte_order="LittleEndian">
	<UnstructuredGrid>
		<Piece NumberOfPoints="522" NumberOfCells="64">
			<Points>
				<DataArray type="Float64" NumberOfComponents="3" format="ascii">
					 1.00000000E+00	 1.00000000E+00	-5.96046000E-08
					 1.00000000E+00	 5.00000000E-01	-5.96046000E-08
					 1.00000000E+00	 5.00000000E-01	 1.00000000E+00
					 1.00000000E+00	 1.00000000E+00	 1.00000000E+00
					 5.00000000E-01	 1.00000000E+00	-5.96046000E-08
					 5.00000000E-01	 5.00000000E-01	-5.96046000E-08
					 5.00000000E-01	 5.00000000E-01	 1.00000000E+00
					 5.00000000E-01	 1.00000000E+00	 1.00000000E+00
					 1.00000000E+00	 7.50000000E-01	-5.96046000E-08
					 1.00000000E+00	 5.00000000E-01	 5.00000000E-01
					 1.00000000E+00	 7.50000000E-01	 1.00000000E+00
					 1.00000000E+00	 1.00000000E+00	 5.00000000E-01
					 7.50000000E-01	 1.00000000E+00	-5.96046000E-08
					 7.50000000E-01	 5.00000000E-01	-5.96046000E-08
					 7.50000000E-01	 5.00000000E-01	 1.00000000E+00
					 7.50000000E-01	 1.00000000E+00	 1.00000000E+00
					 5.00000000E-01	 7.50000000E-01	-5.96046000E-08
					 5.00000000E-01	 5.00000000E-01	 5.00000000E-01
					 5.00000000E-01	 7.50000000E-01	 1.00000000E+00
					 5.00000000E-01	 1.00000000E+00	 5.00000000E-01
					 1.00000000E+00	-1.49012000E-08	-5.96046000E-08
					 1.00000000E+00	-1.49012000E-08	 1.00000000E+00
					 5.00000000E-01	-1.49012000E-08	-5.96046000E-08
					 5.00000000E-01	-1.49012000E-08	 1.00000000E+00
					 1.00000000E+00	 2.50000000E-01	-5.96046000E-08
					 1.00000000E+00	-1.49012000E-08	 5.00000000E-01
					 1.00000000E+00	 2.50000000E-01	 1.00000000E+00
					 7.50000000E-01	-1.49012000E-08	-5.96046000E-08
					 7.50000000E-01	-1.49012000E-08	 1.00000000E+00
					 5.00000000E-01	 2.50000000E-01	-5.96046000E-08
					 5.00000000E-01	-1.49012000E-08	 5.00000000E-01
					 5.00000000E-01	 2.50000000E-01	 1.00000000E+00
					-7.45058000E-09	 1.00000000E+00	-5.96046000E-08
					-7.45058000E-09	 5.00000000E-01	-5.96046000E-08
					-7.45058000E-09	 5.00000000E-01	 1.00000000E+00
					-7.45058000E-09	 1.00000000E+00	 1.00000000E+00
					 2.50000000E-01	 1.00000000E+00	-5.96046000E-08
					 2.50000000E-01	 5.00000000E-01	-5.96046000E-08
					 2.50000000E-01	 5.00000000E-01	 1.00000000E+00
					 2.50000000E-01	 1.00000000E+00	 1.00000000E+00
					-7.45058000E-09	 7.50000000E-01	-5.96046000E-08
					-7.45058000E-09	 5.00000000E-01	 5.00000000E-01
					-7.45058000E-09	 7.50000000E-01	 1.00000000E+00
					-7.45058000E-09	 1.00000000E+00	 5.00000000E-01
					-7.45058000E-09	-1.49012000E-08	-5.96046000E-08
					-7.45058000E-09	-1.49012000E-08	 1.00000000E+00
					 2.50000000E-01	-1.49012000E-08	-5.96046000E-08
					 2.50000000E-01	-1.49012000E-08	 1.00000000E+00
					-7.45058000E-09	 2.50000000E-01	-5.96046000E-08
					-7.45058000E-09	-1.49012000E-08	 5.00000000E-01
					-7.45058000E-09	 2.50000000E-01	 1.00000000E+00
					 1.00000000E+00	 5.00000000E-01	 2.00000000E+00
					 1.00000000E+00	 1.00000000E+00	 2.00000000E+00
					 5.00000000E-01	 5.00000000E-01	 2.00000000E+00
					 5.00000000E-01	 1.00000000E+00	 2.00000000E+00
					 1.00000000E+00	 5.00000000E-01	 1.50000000E+00
					 1.00000000E+00	 7.50000000E-01	 2.00000000E+00
					 1.00000000E+00	 1.00000000E+00	 1.50000000E+00
					 7.50000000E-01	 5.00000000E-01	 2.00000000E+00
					 7.50000000E-01	 1.00000000E+00	 2.00000000E+00
					 5.00000000E-01	 5.00000000E-01	 1.50000000E+00
					 5.00000000E-01	 7.50000000E-01	 2.00000000E+00
					 5.00000000E-01	 1.00000000E+00	 1.50000000E+00
					 1.00000000E+00	-1.49012000E-08	 2.00000000E+00
					 5.00000000E-01	-1.49012000E-08	 2.00000000E+00
					 1.00000000E+00	-1.49012000E-08	 1.50000000E+00
					 1.00000000E+00	 2.50000000E-01	 2.00000000E+00
					 7.50000000E-01	-1.49012000E-08	 2.00000000E+00
					 5.00000000E-01	-1.49012000E-08	 1.50000000E+00
					 5.00000000E-01	 2.50000000E-01	 2.00000000E+00
					-7.45058000E-09	 5.00000000E-01	 2.00000000E+00
					-7.45058000E-09	 1.00000000E+00	 2.00000000E+00
					 2.50000000E-01	 5.00000000E-01	 2.00000000E+00
					 2.50000000E-01	 1.00000000E+00	 2.00000000E+00
					-7.45058000E-09	 5.00000000E-01	 1.50000000E+00
					-7.45058000E-09	 7.50000000E-01	 2.00000000E+00
					-7.45058000E-09	 1.00000000E+00	 1.50000000E+00
					-7.45058000E-09	-1.49012000E-08	 2.00000000E+00
					 2.50000000E-01	-1.49012000E-08	 2.00000000E+00
					-7.45058000E-09	-1.49012000E-08	 1.50000000E+00
					-7.45058000E-09	 2.50000000E-01	 2.00000000E+00
					 1.00000000E+00	 5.00000000E-01	 3.00000000E+00
					 1.00000000E+00	 1.00000000E+00	 3.00000000E+00
					 5.00000000E-01	 5.00000000E-01	 3.00000000E+00
					 5.00000000E-01	 1.00000000E+00	 3.00000000E+00
					 1.00000000E+00	 5.00000000E-01	 2.50000000E+00
					 1.00000000E+00	 7.50000000E-01	 3.00000000E+00
					 1.00000000E+00	 1.00000000E+00	 2.50000000E+00
					 7.50000000E-01	 5.00000000E-01	 3.00000000E+00
					 7.50000000E-01	 1.00000000E+00	 3.00000000E+00
					 5.00000000E-01	 5.00000000E-01	 2.50000000E+00
					 5.00000000E-01	 7.50000000E-01	 3.00000000E+00
					 5.00000000E-01	 1.00000000E+00	 2.50000000E+00
					 1.00000000E+00	-1.49012000E-08	 3.00000000E+00
					 5.00000000E-01	-1.49012000E-08	 3.00000000E+00
					 1.00000000E+00	-1.49012000E-08	 2.50000000E+00
					 1.00000000E+00	 2.50000000E-01	 3.00000000E+00
					 7.50000000E-01	-1.49012000E-08	 3.00000000E+00
					 5.00000000E-01	-1.49012000E-08	 2.50000000E+00
					 5.00000000E-01	 2.50000000E-01	 3.00000000E+00
					-7.45058000E-09	 5.00000000E-01	 3.00000000E+00
					-7.45058000E-09	 1.00000000E+00	 3.00000000E+00
					 2.50000000E-01	 5.00000000E-01	 3.00000000E+00
					 2.50000000E-01	 1.00000000E+00	 3.00000000E+00
					-7.45058000E-09	 5.00000000E-01	 2.50000000E+00
					-7.45058000E-09	 7.50000000E-01	 3.00000000E+00
					-7.45058000E-09	 1.00000000E+00	 2.50000000E+00
					-7.45058000E-09	-1.49012000E-08	 3.00000000E+00
					 2.50000000E-01	-1.49012000E-08	 3.00000000E+00
					-7.45058000E-09	-1.49012000E-08	 2.50000000E+00
					-7.45058000E-09	 2.50000000E-01	 3.00000000E+00
					 1.00000000E+00	 5.00000000E-01	 4.00000000E+00
					 1.00000000E+00	 1.00000000E+00	 4.00000000E+00
					 5.00000000E-01	 5.00000000E-01	 4.00000000E+00
					 5.00000000E-01	 1.00000000E+00	 4.00000000E+00
					 1.00000000E+00	 5.00000000E-01	 3.50000000E+00
					 1.00000000E+00	 7.50000000E-01	 4.00000000E+00
					 1.00000000E+00	 1.00000000E+00	 3.50000000E+00
					 7.50000000E-01	 5.00000000E-01	 4.00000000E+00
					 7.50000000E-01	 1.00000000E+00	 4.00000000E+00
					 5.00000000E-01	 5.00000000E-01	 3.50000000E+00
					 5.00000000E-01	 7.50000000E-01	 4.00000000E+00
					 5.00000000E-01	 1.00000000E+00	 3.50000000E+00
					 1.00000000E+00	-1.49012000E-08	 4.00000000E+00
					 5.00000000E-01	-1.49012000E-08	 4.00000000E+00
					 1.00000000E+00	-1.49012000E-08	 3.50000000E+00
					 1.00000000E+00	 2.50000000E-01	 4.00000000E+00
					 7.50000000E-01	-1.49012000E-08	 4.00000000E+00
					 5.00000000E-01	-1.49012000E-08	 3.50000000E+00
					 5.00000000E-01	 2.50000000E-01	 4.00000000E+00
					-7.45058000E-09	 5.00000000E-01	 4.00000000E+00
					-7.45058000E-09	 1.00000000E+00	 4.00000000E+00
					 2.50000000E-01	 5.00000000E-01	 4.00000000E+00
					 2.50000000E-01	 1.00000000E+00	 4.00000000E+00
					-7.45058000E-09	 5.00000000E-01	 3.50000000E+00
					-7.45058000E-09	 7.50000000E-01	 4.00000000E+00
					-7.45058000E-09	 1.00000000E+00	 3.50000000E+00
					-7.45058000E-09	-1.49012000E-08	 4.00000000E+00
					 2.50000000E-01	-1.49012000E-08	 4.00000000E+00
					-7.45058000E-09	-1.49012000E-08	 3.50000000E+00
					-7.45058000E-09	 2.50000000E-01	 4.00000000E+00
					 1.00000000E+00	 5.00000000E-01	 5.00000000E+00
					 1.00000000E+00	 1.00000000E+00	 5.00000000E+00
					 5.00000000E-01	 5.00000000E-01	 5.00000000E+00
					 5.00000000E-01	 1.00000000E+00	 5.00000000E+00
					 1.00000000E+00	 5.00000000E-01	 4.50000000E+00
					 1.00000000E+00	 7.50000000E-01	 5.00000000E+00
					 1.00000000E+00	 1.00000000E+00	 4.50000000E+00
					 7.50000000E-01	 5.00000000E-01	 5.00000000E+00
					 7.50000000E-01	 1.00000000E+00	 5.00000000E+00
					 5.00000000E-01	 5.00000000E-01	 4.50000000E+00
					 5.00000000E-01	 7.50000000E-01	 5.00000000E+00
					 5.00000000E-01	 1.00000000E+00	 4.50000000E+00
					 1.00000000E+00	-1.49012000E-08	 5.00000000E+00
					 5.00000000E-01	-1.49012000E-08	 5.00000000E+00
					 1.00000000E+00	-1.49012000E-08	 4.50000000E+00
					 1.00000000E+00	 2.50000000E-01	 5.00000000E+00
					 7.50000000E-01	-1.49012000E-08	 5.00000000E+00
					 5.00000000E-01	-1.49012000E-08	 4.50000000E+00
					 5.00000000E-01	 2.50000000E-01	 5.00000000E+00
					-7.45058000E-09	 5.00000000E-01	 5.00000000E+00
					-7.45058000E-09	 1.00000000E+00	 5.00000000E+00
					 2.50000000E-01	 5.00000000E-01	 5.00000000E+00
					 2.50000000E-01	 1.00000000E+00	 5.00000000E+00
					-7.45058000E-09	 5.00000000E-01	 4.50000000E+00
					-7.45058000E-09	 7.50000000E-01	 5.00000000E+00
					-7.45058000E-09	 1.00000000E+00	 4.50000000E+00
					-7.45058000E-09	-1.49012000E-08	 5.00000000E+00
					 2.50000000E-01	-1.49012000E-08	 5.00000000E+00
					-7.45058000E-09	-1.49012000E-08	 4.50000000E+00
					-7.45058000E-09	 2.50000000E-01	 5.00000000E+00
					 1.00000000E+00	 5.00000000E-01	 6.00000000E+00
					 1.00000000E+00	 1.00000000E+00	 6.00000000E+00
					 5.00000000E-01	 5.00000000E-01	 6.00000000E+00
					 5.00000000E-01	 1.00000000E+00	 6.00000000E+00
					 1.00000000E+00	 5.00000000E-01	 5.50000000E+00
					 1.00000000E+00	 7.50000000E-01	 6.00000000E+00
					 1.00000000E+00	 1.00000000E+00	 5.50000000E+00
					 7.50000000E-01	 5.00000000E-01	 6.00000000E+00
					 7.50000000E-01	 1.00000000E+00	 6.00000000E+00
					 5.00000000E-01	 5.00000000E-01	 5.50000000E+00
					 5.00000000E-01	 7.50000000E-01	 6.00000000E+00
					 5.00000000E-01	 1.00000000E+00	 5.50000000E+00
					 1.00000000E+00	-1.49012000E-08	 6.00000000E+00
[...]
			<PointData>
				<DataArray type="Float32" Name="U" NumberOfComponents="3" ComponentName0="D1" ComponentName1="D2" ComponentName2="D3" format="ascii">
					 0.00000000E+00	 0.00000000E+00	 0.00000000E+00
					 0.00000000E+00	 0.00000000E+00	 0.00000000E+00
					-3.33739000E-06	-5.02443000E-03	-1.70942000E-05
					-4.10307000E-05	-5.17263000E-03	 3.51459000E-03
					 0.00000000E+00	 0.00000000E+00	 0.00000000E+00
					 0.00000000E+00	 0.00000000E+00	 0.00000000E+00
					-3.16881000E-06	-4.88933000E-03	-1.79899000E-05
					 3.01401000E-04	-5.05670000E-03	 3.57848000E-03
					 0.00000000E+00	 0.00000000E+00	 0.00000000E+00
					 1.92690000E-06	-1.44129000E-03	-4.92643000E-06
					-2.13928000E-05	-5.02798000E-03	 1.60854000E-03
					-3.98094000E-04	-1.72748000E-03	 1.94945000E-03
					 0.00000000E+00	 0.00000000E+00	 0.00000000E+00
					 0.00000000E+00	 0.00000000E+00	 0.00000000E+00
					-3.18565000E-06	-5.02217000E-03	-1.82541000E-05
					 1.32721000E-04	-5.18178000E-03	 3.59168000E-03
					 0.00000000E+00	 0.00000000E+00	 0.00000000E+00
					-1.38695000E-07	-1.52557000E-03	-6.82439000E-06
					 1.48849000E-04	-4.89992000E-03	 1.67984000E-03
					 1.46352000E-04	-1.82751000E-03	 1.91197000E-03
					 0.00000000E+00	 0.00000000E+00	 0.00000000E+00
					 3.01962000E-05	-5.14555000E-03	-3.55204000E-03
					 0.00000000E+00	 0.00000000E+00	 0.00000000E+00
					-3.10615000E-04	-5.02471000E-03	-3.61837000E-03
					 0.00000000E+00	 0.00000000E+00	 0.00000000E+00
					 4.00013000E-04	-1.71659000E-03	-1.96183000E-03
					 1.32891000E-05	-5.01614000E-03	-1.64362000E-03
					 0.00000000E+00	 0.00000000E+00	 0.00000000E+00
					-1.42270000E-04	-5.15112000E-03	-3.63208000E-03
					 0.00000000E+00	 0.00000000E+00	 0.00000000E+00
					-1.48057000E-04	-1.81605000E-03	-1.92717000E-03
					-1.56255000E-04	-4.88467000E-03	-1.71713000E-03
					 0.00000000E+00	 0.00000000E+00	 0.00000000E+00
					 0.00000000E+00	 0.00000000E+00	 0.00000000E+00
					-2.81424000E-06	-4.41199000E-03	-1.43358000E-05
					 6.42081000E-04	-4.56612000E-03	 3.51752000E-03
					 0.00000000E+00	 0.00000000E+00	 0.00000000E+00
					 0.00000000E+00	 0.00000000E+00	 0.00000000E+00
					-3.04863000E-06	-4.71654000E-03	-1.67839000E-05
					 4.68657000E-04	-4.87657000E-03	 3.53351000E-03
					 0.00000000E+00	 0.00000000E+00	 0.00000000E+00
					-2.53279000E-06	-1.14669000E-03	-5.96404000E-06
					 3.20523000E-04	-4.41975000E-03	 1.67132000E-03
					 6.77893000E-04	-1.44701000E-03	 1.94886000E-03
					 0.00000000E+00	 0.00000000E+00	 0.00000000E+00
					-6.48854000E-04	-4.53153000E-03	-3.54951000E-03
					 0.00000000E+00	 0.00000000E+00	 0.00000000E+00
					-4.77347000E-04	-4.84318000E-03	-3.57067000E-03
					 0.00000000E+00	 0.00000000E+00	 0.00000000E+00
					-6.83159000E-04	-1.43353000E-03	-1.96214000E-03
					-3.26511000E-04	-4.40241000E-03	-1.70095000E-03
					-7.06085000E-06	-1.49024000E-02	-5.15631000E-05
					 4.57736000E-04	-1.50029000E-02	 4.94786000E-03
					-3.84258000E-06	-1.43918000E-02	-5.22078000E-05
					 5.72766000E-04	-1.44798000E-02	 4.95712000E-03
					-4.33776000E-06	-9.71024000E-03	-3.51077000E-05
					 2.19632000E-04	-1.49476000E-02	 2.41654000E-03
					 2.51427000E-04	-9.87327000E-03	 4.42528000E-03
					-5.18741000E-06	-1.46563000E-02	-5.22070000E-05
					 5.15670000E-04	-1.47452000E-02	 4.96783000E-03
					-2.62604000E-06	-9.35891000E-03	-3.32492000E-05
					 2.85383000E-04	-1.44326000E-02	 2.43714000E-03
					 4.60714000E-04	-9.51101000E-03	 4.45614000E-03
					-4.70683000E-04	-1.49443000E-02	-5.05450000E-03
					-5.80861000E-04	-1.44237000E-02	-5.06451000E-03
					-2.62615000E-04	-9.82932000E-03	-4.49849000E-03
					-2.33469000E-04	-1.49191000E-02	-2.52086000E-03
					-5.25623000E-04	-1.46874000E-02	-5.07537000E-03
					-4.67607000E-04	-9.46481000E-03	-4.52656000E-03
					-2.93477000E-04	-1.44051000E-02	-2.54249000E-03
					-2.60093000E-06	-1.37495000E-02	-5.03607000E-05
					 6.98815000E-04	-1.38362000E-02	 4.95028000E-03
					-2.96422000E-06	-1.40784000E-02	-5.13900000E-05
					 6.36686000E-04	-1.41647000E-02	 4.94753000E-03
					-1.78242000E-06	-8.78182000E-03	-2.84286000E-05
					 3.50708000E-04	-1.37874000E-02	 2.44024000E-03
					 6.77582000E-04	-8.93804000E-03	 4.43180000E-03
					-7.05168000E-04	-1.37807000E-02	-5.05359000E-03
					-6.43758000E-04	-1.41095000E-02	-5.05267000E-03
					-6.81348000E-04	-8.89186000E-03	-4.49356000E-03
					-3.56342000E-04	-1.37596000E-02	-2.54200000E-03
					-2.62729000E-05	-2.54967000E-02	-9.69272000E-05
					 2.61100000E-04	-2.56189000E-02	 5.77244000E-03
					-2.30082000E-05	-2.51267000E-02	-9.78257000E-05
					 4.30160000E-04	-2.52484000E-02	 5.76204000E-03
					-1.72202000E-05	-2.01219000E-02	-6.91594000E-05
					 1.16979000E-04	-2.55348000E-02	 2.89463000E-03
					 4.47624000E-04	-2.02382000E-02	 5.32609000E-03
					-2.52602000E-05	-2.53346000E-02	-9.77401000E-05
					 3.45630000E-04	-2.54549000E-02	 5.73028000E-03
					-1.39620000E-05	-1.96077000E-02	-7.28354000E-05
					 2.04646000E-04	-2.51637000E-02	 2.85330000E-03
					 5.65464000E-04	-1.97091000E-02	 5.31725000E-03
					-3.16111000E-04	-2.55555000E-02	-5.97046000E-03
					-4.81065000E-04	-2.51805000E-02	-5.96182000E-03
					-4.82679000E-04	-2.01781000E-02	-5.47047000E-03
					-1.70274000E-04	-2.55029000E-02	-3.08958000E-03
					-3.99506000E-04	-2.53903000E-02	-5.92980000E-03
					-5.96414000E-04	-1.96482000E-02	-5.46699000E-03
					-2.52200000E-04	-2.51300000E-02	-3.05009000E-03
					-1.86451000E-05	-2.45866000E-02	-9.55818000E-05
					 6.07424000E-04	-2.47095000E-02	 5.77307000E-03
					-2.05249000E-05	-2.48793000E-02	-9.69763000E-05
					 5.18761000E-04	-2.50023000E-02	 5.78973000E-03
					-1.12115000E-05	-1.89614000E-02	-7.29449000E-05
					 2.94780000E-04	-2.46247000E-02	 2.83606000E-03
					 7.01611000E-04	-1.90625000E-02	 5.32417000E-03
					-6.51613000E-04	-2.46317000E-02	-5.96837000E-03
					-5.66332000E-04	-2.49297000E-02	-5.98787000E-03
					-7.28892000E-04	-1.89961000E-02	-5.47247000E-03
					-3.33838000E-04	-2.45855000E-02	-3.02849000E-03
					-2.17485000E-05	-3.80490000E-02	-1.81126000E-04
					-1.73796000E-04	-3.82091000E-02	 7.09369000E-03
					-2.03359000E-05	-3.80827000E-02	-1.77378000E-04
					 6.12061000E-05	-3.82464000E-02	 7.09562000E-03
					-2.63592000E-05	-3.13716000E-02	-1.34756000E-04
					-9.56237000E-05	-3.80997000E-02	 3.47801000E-03
					 1.51186000E-05	-3.15094000E-02	 6.39774000E-03
					-2.13922000E-05	-3.80943000E-02	-1.79183000E-04
					-5.71699000E-05	-3.82583000E-02	 7.07397000E-03
					-2.36398000E-05	-3.12201000E-02	-1.31523000E-04
					 1.99166000E-05	-3.81349000E-02	 3.45986000E-03
					 2.32765000E-04	-3.13630000E-02	 6.39292000E-03
					 1.32861000E-04	-3.81028000E-02	-7.45612000E-03
					-1.00260000E-04	-3.81431000E-02	-7.45171000E-03
					-6.78679000E-05	-3.14283000E-02	-6.66843000E-03
					 5.28756000E-05	-3.80462000E-02	-3.84026000E-03
					 1.66733000E-05	-3.81545000E-02	-7.43266000E-03
					-2.82065000E-04	-3.12809000E-02	-6.65894000E-03
					-5.99914000E-05	-3.80840000E-02	-3.81478000E-03
					-1.81107000E-05	-3.78884000E-02	-1.72793000E-04
					 2.91608000E-04	-3.80524000E-02	 7.09969000E-03
					-1.90154000E-05	-3.80151000E-02	-1.75536000E-04
					 1.76699000E-04	-3.81788000E-02	 7.11681000E-03
					-1.98964000E-05	-3.08579000E-02	-1.26619000E-04
					 1.36365000E-04	-3.79405000E-02	 3.44435000E-03
					 4.47332000E-04	-3.10036000E-02	 6.40297000E-03
					-3.27623000E-04	-3.79491000E-02	-7.44757000E-03
					-2.13834000E-04	-3.80751000E-02	-7.47067000E-03
					-4.91245000E-04	-3.09155000E-02	-6.66082000E-03
					-1.72536000E-04	-3.78905000E-02	-3.78971000E-03
					-1.49182000E-05	-5.40654000E-02	-3.05768000E-04
					-2.70693000E-04	-5.42396000E-02	 8.42641000E-03
					-1.75266000E-05	-5.42197000E-02	-3.06795000E-04
					-7.33612000E-05	-5.43964000E-02	 8.43526000E-03
					-1.66413000E-05	-4.56329000E-02	-2.37311000E-04
					-1.41770000E-04	-5.41270000E-02	 4.04141000E-03
					-2.57983000E-04	-4.57985000E-02	 7.79137000E-03
					-1.57876000E-05	-5.41680000E-02	-3.06726000E-04
					-1.72194000E-04	-5.43444000E-02	 8.43240000E-03
					-1.70511000E-05	-4.57584000E-02	-2.35931000E-04
					-4.54983000E-05	-5.42822000E-02	 4.04642000E-03
					-3.03945000E-05	-4.59293000E-02	 7.79545000E-03
					 2.39262000E-04	-5.40818000E-02	-9.03803000E-03
					 4.12503000E-05	-5.42374000E-02	-9.04869000E-03
					 2.25610000E-04	-4.56664000E-02	-8.26523000E-03
					 1.11534000E-04	-5.40478000E-02	-4.65230000E-03
					 1.40852000E-04	-5.41852000E-02	-9.04613000E-03
					-6.44611000E-07	-4.57991000E-02	-8.26691000E-03
					 1.15455000E-05	-5.42021000E-02	-4.65957000E-03
					-1.94954000E-05	-5.41801000E-02	-3.08261000E-04
					 1.25945000E-04	-5.43495000E-02	 8.42440000E-03
					-1.91676000E-05	-5.42251000E-02	-3.07272000E-04
					 2.65890000E-05	-5.44003000E-02	 8.43856000E-03
					-1.68464000E-05	-4.56623000E-02	-2.34467000E-04
					 5.11090000E-05	-5.42385000E-02	 4.03238000E-03
					 1.89885000E-04	-4.58323000E-02	 7.79320000E-03
					-1.58254000E-04	-5.41980000E-02	-9.04031000E-03
					-5.92199000E-05	-5.42435000E-02	-9.05265000E-03
					-2.18775000E-04	-4.57076000E-02	-8.26197000E-03
					-8.82455000E-05	-5.41637000E-02	-4.64842000E-03
					-1.16120000E-05	-7.27784000E-02	-4.77961000E-04
					-3.40053000E-04	-7.29011000E-02	 9.10693000E-03
					-1.49608000E-05	-7.30894000E-02	-4.83734000E-04
					-2.99003000E-04	-7.32093000E-02	 9.11693000E-03
					-1.44017000E-05	-6.32198000E-02	-3.88450000E-04
					-1.76907000E-04	-7.28355000E-02	 4.30461000E-03
					-2.73939000E-04	-6.33751000E-02	 8.88485000E-03
					-1.25479000E-05	-7.29391000E-02	-4.80965000E-04
					-3.18531000E-04	-7.30586000E-02	 9.09378000E-03
					-1.86776000E-05	-6.34186000E-02	-3.90677000E-04
					-1.56074000E-04	-7.31448000E-02	 4.28630000E-03
					-1.50971000E-04	-6.35710000E-02	 8.90074000E-03
					 3.14294000E-04	-7.27113000E-02	-1.00652000E-02
					 2.69974000E-04	-7.30166000E-02	-1.00863000E-02
					 2.43231000E-04	-6.31967000E-02	-9.66338000E-03
					 1.52792000E-04	-7.27399000E-02	-5.26123000E-03
					 2.92518000E-04	-7.28676000E-02	-1.00580000E-02
					 1.15508000E-04	-6.33899000E-02	-9.68322000E-03
					 1.26522000E-04	-7.30486000E-02	-5.25424000E-03
					-1.81975000E-05	-7.33509000E-02	-4.85189000E-04
					-2.53186000E-04	-7.34686000E-02	 9.09877000E-03
					-1.73697000E-05	-7.32257000E-02	-4.85303000E-04
					-2.76634000E-04	-7.33456000E-02	 9.14521000E-03
					-2.22667000E-05	-6.34880000E-02	-3.91943000E-04
					-1.35479000E-04	-7.34039000E-02	 4.23990000E-03
					-1.61814000E-05	-6.36310000E-02	 8.88211000E-03
					 2.20849000E-04	-7.32807000E-02	-1.00708000E-02
					 2.44517000E-04	-7.31533000E-02	-1.01173000E-02
					-2.33971000E-05	-6.34552000E-02	-9.66647000E-03
					 1.00558000E-04	-7.33118000E-02	-5.21072000E-03
					-1.60537000E-05	-9.18138000E-02	-6.53206000E-04
					-6.57123000E-04	-9.18918000E-02	 8.89490000E-03
					-1.51802000E-05	-9.24640000E-02	-6.63568000E-04
					-6.75210000E-04	-9.25475000E-02	 8.87811000E-03
					-1.28642000E-05	-8.23751000E-02	-5.65540000E-04
					-3.35291000E-04	-9.18566000E-02	 4.15668000E-03
					-4.78887000E-04	-8.24755000E-02	 9.05348000E-03
					-1.56862000E-05	-9.21333000E-02	-6.58568000E-04
					-6.66808000E-04	-9.22151000E-02	 8.85988000E-03
					-1.29960000E-05	-8.28501000E-02	-5.76448000E-04
					-3.44106000E-04	-9.25111000E-02	 4.11485000E-03
					-4.88850000E-04	-8.29495000E-02	 9.04901000E-03
					 6.15071000E-04	-9.17130000E-02	-1.01994000E-02
					 6.43765000E-04	-9.23588000E-02	-1.02037000E-02
					 4.48058000E-04	-8.22884000E-02	-1.01870000E-02
					 3.00467000E-04	-9.17672000E-02	-5.46156000E-03
					 6.27912000E-04	-9.20302000E-02	-1.01758000E-02
					 4.62512000E-04	-8.27575000E-02	-1.02036000E-02
					 3.13409000E-04	-9.24153000E-02	-5.44140000E-03
					-1.44862000E-05	-9.31374000E-02	-6.79033000E-04
					-6.99816000E-04	-9.32226000E-02	 8.85717000E-03
					-1.46232000E-05	-9.27986000E-02	-6.70747000E-04
					-6.86535000E-04	-9.28817000E-02	 8.89080000E-03
					-1.33669000E-05	-8.33319000E-02	-5.83300000E-04
					-3.55232000E-04	-9.31843000E-02	 4.07111000E-03
					-4.99498000E-04	-8.34335000E-02	 9.03254000E-03
					 6.78923000E-04	-9.30415000E-02	-1.02145000E-02
					 6.62674000E-04	-9.26937000E-02	-1.02318000E-02
					 4.77459000E-04	-8.32465000E-02	-1.02004000E-02
					 3.28418000E-04	-9.30949000E-02	-5.42831000E-03
					 4.29703000E-06	-1.10540000E-01	-8.35893000E-04
					-8.87993000E-04	-1.10628000E-01	 8.67942000E-03
					-1.58396000E-05	-1.11389000E-01	-8.40690000E-04
					-8.83388000E-04	-1.11493000E-01	 8.65161000E-03
					-1.05532000E-05	-1.01129000E-01	-7.44296000E-04
					-4.41385000E-04	-1.10584000E-01	 3.93233000E-03
					-8.18562000E-04	-1.01212000E-01	 8.77231000E-03
					-2.77173000E-06	-1.10969000E-01	-8.35616000E-04
					-8.84125000E-04	-1.11068000E-01	 8.66397000E-03
					-1.57334000E-05	-1.01928000E-01	-7.49587000E-04
					-4.54572000E-04	-1.11442000E-01	 3.90863000E-03
					-8.17648000E-04	-1.02021000E-01	 8.74840000E-03
					 8.79114000E-04	-1.10432000E-01	-1.03355000E-02
					 8.56231000E-04	-1.11280000E-01	-1.03188000E-02
					 7.81977000E-04	-1.01034000E-01	-1.02498000E-02
					 4.46239000E-04	-1.10483000E-01	-5.60004000E-03
					 8.68878000E-04	-1.10858000E-01	-1.03195000E-02
					 7.88257000E-04	-1.01827000E-01	-1.02388000E-02
					 4.24296000E-04	-1.11331000E-01	-5.58619000E-03
					-3.39549000E-05	-1.12241000E-01	-8.68147000E-04
					-9.00339000E-04	-1.12332000E-01	 8.60399000E-03
					-2.83744000E-05	-1.11812000E-01	-8.52072000E-04
					-8.93588000E-04	-1.11913000E-01	 8.63169000E-03
					-2.05818000E-05	-1.02737000E-01	-7.73709000E-04
					-4.73066000E-04	-1.12285000E-01	 3.86647000E-03
					-8.30361000E-04	-1.02822000E-01	 8.71212000E-03
					 8.56615000E-04	-1.12151000E-01	-1.03295000E-02
					 8.55205000E-04	-1.11711000E-01	-1.03247000E-02
					 8.06623000E-04	-1.02647000E-01	-1.02536000E-02
					 4.11145000E-04	-1.12195000E-01	-5.59916000E-03
					 0.00000000E+00	 0.00000000E+00	 0.00000000E+00
					 0.00000000E+00	 0.00000000E+00	 0.00000000E+00
					-3.84629000E-05	-5.12110000E-03	 9.89087000E-05
					-2.20409000E-03	-5.57602000E-03	 6.44257000E-03
					 0.00000000E+00	 0.00000000E+00	 0.00000000E+00
					 0.00000000E+00	 0.00000000E+00	 0.00000000E+00
					-2.09296000E-05	-6.83818000E-03	 7.89757000E-05
					-1.31635000E-03	-7.32514000E-03	 6.48763000E-03
					 0.00000000E+00	 0.00000000E+00	 0.00000000E+00
					-2.51691000E-05	-7.00787000E-04	 5.68339000E-05
					-1.12365000E-03	-5.19915000E-03	 3.34325000E-03
					-1.58961000E-03	-1.29976000E-03	 3.22080000E-03
					 0.00000000E+00	 0.00000000E+00	 0.00000000E+00
					 0.00000000E+00	 0.00000000E+00	 0.00000000E+00
					-2.91046000E-05	-6.12520000E-03	 8.60637000E-05
					-1.75283000E-03	-6.59226000E-03	 6.33743000E-03
					 0.00000000E+00	 0.00000000E+00	 0.00000000E+00
					-1.00648000E-05	-1.75785000E-03	 4.05904000E-05
					-6.68240000E-04	-6.92519000E-03	 3.22726000E-03
					-6.40152000E-04	-2.33612000E-03	 3.11335000E-03
					 0.00000000E+00	 0.00000000E+00	 0.00000000E+00
					 2.11724000E-03	-5.44767000E-03	-6.26202000E-03
					 0.00000000E+00	 0.00000000E+00	 0.00000000E+00
					 1.27090000E-03	-7.18621000E-03	-6.34584000E-03
					 0.00000000E+00	 0.00000000E+00	 0.00000000E+00
					 1.53488000E-03	-1.22710000E-03	-3.10623000E-03
					 1.04352000E-03	-5.13222000E-03	-3.15223000E-03
					 0.00000000E+00	 0.00000000E+00	 0.00000000E+00
					 1.68839000E-03	-6.45870000E-03	-6.18140000E-03
					 0.00000000E+00	 0.00000000E+00	 0.00000000E+00
					 6.20275000E-04	-2.26667000E-03	-3.02642000E-03
					 6.23654000E-04	-6.85477000E-03	-3.07617000E-03
					 0.00000000E+00	 0.00000000E+00	 0.00000000E+00
					 0.00000000E+00	 0.00000000E+00	 0.00000000E+00
					-2.92006000E-06	-7.70761000E-03	 7.04975000E-05
					-4.17883000E-04	-8.16093000E-03	 6.41797000E-03
					 0.00000000E+00	 0.00000000E+00	 0.00000000E+00
					 0.00000000E+00	 0.00000000E+00	 0.00000000E+00
					-1.18183000E-05	-7.41659000E-03	 7.34053000E-05
					-8.72942000E-04	-7.88502000E-03	 6.56755000E-03
					 0.00000000E+00	 0.00000000E+00	 0.00000000E+00
					 2.52952000E-06	-1.96035000E-03	 3.71203000E-05
					-2.10552000E-04	-7.78220000E-03	 3.07405000E-03
					 3.56039000E-04	-2.50834000E-03	 3.20438000E-03
					 0.00000000E+00	 0.00000000E+00	 0.00000000E+00
					 4.10564000E-04	-8.01610000E-03	-6.28805000E-03
					 0.00000000E+00	 0.00000000E+00	 0.00000000E+00
					 8.44966000E-04	-7.74572000E-03	-6.43490000E-03
					 0.00000000E+00	 0.00000000E+00	 0.00000000E+00
					-3.48240000E-04	-2.43868000E-03	-3.12364000E-03
					 2.04932000E-04	-7.71114000E-03	-2.93757000E-03
					-7.09022000E-07	-2.32058000E-02	 3.37496000E-05
					-3.19624000E-03	-2.36605000E-02	 1.17064000E-02
					 2.62906000E-05	-2.60610000E-02	 1.45943000E-05
					-2.52495000E-03	-2.65350000E-02	 1.17301000E-02
					-3.11251000E-05	-1.26731000E-02	 9.19818000E-05
					-1.59310000E-03	-2.33592000E-02	 5.83205000E-03
					-2.79952000E-03	-1.31715000E-02	 9.33055000E-03
					 1.22006000E-05	-2.47040000E-02	 2.00985000E-05
					-2.86138000E-03	-2.51719000E-02	 1.16682000E-02
					-1.16325000E-05	-1.50262000E-02	 7.15841000E-05
					-1.24475000E-03	-2.62221000E-02	 5.78619000E-03
					-1.97259000E-03	-1.55392000E-02	 9.34110000E-03
					 3.19247000E-03	-2.33250000E-02	-1.16585000E-02
					 2.56877000E-03	-2.62015000E-02	-1.17196000E-02
					 2.72769000E-03	-1.29478000E-02	-9.16622000E-03
					 1.59027000E-03	-2.31918000E-02	-5.76961000E-03
					 2.88314000E-03	-2.48440000E-02	-1.16449000E-02
					 1.94441000E-03	-1.53106000E-02	-9.21819000E-03
					 1.29947000E-03	-2.60590000E-02	-5.75842000E-03
					 4.97070000E-05	-2.83004000E-02	 1.53502000E-05
					-1.85036000E-03	-2.87574000E-02	 1.16856000E-02
					 3.75308000E-05	-2.72510000E-02	 1.41833000E-05
					-2.18778000E-03	-2.77503000E-02	 1.18044000E-02
					 7.92658000E-06	-1.65928000E-02	 6.78664000E-05
					-9.07747000E-04	-2.84496000E-02	 5.67077000E-03
					-1.15632000E-03	-1.71050000E-02	 9.30534000E-03
					 1.97021000E-03	-2.84359000E-02	-1.16734000E-02
					 2.26857000E-03	-2.73907000E-02	-1.17976000E-02
					 1.18133000E-03	-1.68788000E-02	-9.18772000E-03
					 1.01331000E-03	-2.82962000E-02	-5.64002000E-03
					 1.65670000E-04	-5.07902000E-02	-2.47681000E-04
					-3.21823000E-03	-5.10150000E-02	 1.39401000E-02
					 2.03232000E-04	-5.40793000E-02	-2.11592000E-04
					-3.05098000E-03	-5.44266000E-02	 1.40310000E-02
					 6.25142000E-05	-3.62235000E-02	-8.21921000E-05
					-1.51989000E-03	-5.08836000E-02	 6.72200000E-03
					-3.32781000E-03	-3.65929000E-02	 1.32648000E-02
					 1.84150000E-04	-5.24517000E-02	-2.26342000E-04
					-3.13935000E-03	-5.27526000E-02	 1.39876000E-02
					 9.39301000E-05	-3.93966000E-02	-8.61225000E-05
					-1.44748000E-03	-5.42402000E-02	 6.77245000E-03
					-2.89459000E-03	-3.97982000E-02	 1.33241000E-02
					 3.50282000E-03	-5.06094000E-02	-1.44230000E-02
					 3.44325000E-03	-5.39067000E-02	-1.44770000E-02
					 3.43905000E-03	-3.61873000E-02	-1.34436000E-02
					 1.83621000E-03	-5.06918000E-02	-7.20697000E-03
					 3.47047000E-03	-5.22684000E-02	-1.44569000E-02
					 3.07591000E-03	-3.93645000E-02	-1.35108000E-02
					 1.82677000E-03	-5.39898000E-02	-7.21679000E-03
					 2.41206000E-04	-5.72730000E-02	-1.72338000E-04
					-2.98895000E-03	-5.77564000E-02	 1.40102000E-02
					 2.22594000E-04	-5.57034000E-02	-1.95200000E-04
					-3.02290000E-03	-5.59877000E-02	 1.40907000E-02
					 1.35450000E-04	-4.21894000E-02	-7.37547000E-05
					-1.33961000E-03	-5.75063000E-02	 6.71086000E-03
					-2.51055000E-03	-4.26319000E-02	 1.32762000E-02
					 3.41324000E-03	-5.71254000E-02	-1.44056000E-02
					 3.42801000E-03	-5.55215000E-02	-1.45057000E-02
					 2.73282000E-03	-4.21556000E-02	-1.34389000E-02
					 1.81944000E-03	-5.72043000E-02	-7.10142000E-03
					 5.51275000E-04	-7.98678000E-02	-5.83672000E-04
					-2.60241000E-03	-7.97799000E-02	 1.24780000E-02