<?xml version="1.0"?>
<VTKFile type="UnstructuredGrid" version="0.1" byte_order="LittleEndian">
	<UnstructuredGrid>
		<Piece NumberOfPoints="522" NumberOfCells="64">
			<Points>
				<DataArray type="Float64" NumberOfComponents="3" format="ascii">
					 1.00000000E+00	 1.00000000E+00	-5.96046000E-08
					 1.00000000E+00	 5.00000000E-01	-5.96046000E-08
					 1.00000000E+00	 5.00000000E-01	 1.00000000E+00
					 1.00000000E+00	 1.00000000E+00	 1.00000000E+00
					 5.00000000E-01	 1.00000000E+00	-5.96046000E-08
					 5.00000000E-01	 5.00000000E-01	-5.96046000E-08
					 5.00000000E-01	 5.00000000E-01	 1.00000000E+00
					 5.00000000E-01	 1.00000000E+00	 1.00000000E+00
					 1.00000000E+00	 7.50000000E-01	-5.96046000E-08
					 1.00000000E+00	 5.00000000E-01	 5.00000000E-01
					 1.00000000E+00	 7.50000000E-01	 1.00000000E+00
					 1.00000000E+00	 1.00000000E+00	 5.00000000E-01
					 7.50000000E-01	 1.00000000E+00	-5.96046000E-08
					 7.50000000E-01	 5.00000000E-01	-5.96046000E-08
					 7.50000000E-01	 5.00000000E-01	 1.00000000E+00
					 7.50000000E-01	 1.00000000E+00	 1.00000000E+00
					 5.00000000E-01	 7.50000000E-01	-5.96046000E-08
					 5.00000000E-01	 5.00000000E-01	 5.00000000E-01
					 5.00000000E-01	 7.50000000E-01	 1.00000000E+00
					 5.00000000E-01	 1.00000000E+00	 5.00000000E-01
					 1.00000000E+00	-1.49012000E-08	-5.96046000E-08
					 1.00000000E+00	-1.49012000E-08	 1.00000000E+00
					 5.00000000E-01	-1.49012000E-08	-5.96046000E-08
					 5.00000000E-01	-1.49012000E-08	 1.00000000E+00
					 1.00000000E+00	 2.50000000E-01	-5.96046000E-08
					 1.00000000E+00	-1.49012000E-08	 5.00000000E-01
					 1.00000000E+00	 2.50000000E-01	 1.00000000E+00
					 7.50000000E-01	-1.49012000E-08	-5.96046000E-08
					 7.50000000E-01	-1.49012000E-08	 1.00000000E+00
					 5.00000000E-01	 2.50000000E-01	-5.96046000E-08
					 5.00000000E-01	-1.49012000E-08	 5.00000000E-01
					 5.00000000E-01	 2.50000000E-01	 1.00000000E+00
					-7.45058000E-09	 1.00000000E+00	-5.96046000E-08
					-7.45058000E-09	 5.00000000E-01	-5.96046000E-08
					-7.45058000E-09	 5.00000000E-01	 1.00000000E+00
					-7.45058000E-09	 1.00000000E+00	 1.00000000E+00
					 2.50000000E-01	 1.00000000E+00	-5.96046000E-08
					 2.50000000E-01	 5.00000000E-01	-5.96046000E-08
					 2.50000000E-01	 5.00000000E-01	 1.00000000E+00
					 2.50000000E-01	 1.00000000E+00	 1.00000000E+00
					-7.45058000E-09	 7.50000000E-01	-5.96046000E-08
					-7.45058000E-09	 5.00000000E-01	 5.00000000E-01
					-7.45058000E-09	 7.50000000E-01	 1.00000000E+00
					-7.45058000E-09	 1.00000000E+00	 5.00000000E-01
					-7.45058000E-09	-1.49012000E-08	-5.96046000E-08
					-7.45058000E-09	-1.49012000E-08	 1.00000000E+00
					 2.50000000E-01	-1.49012000E-08	-5.96046000E-08
					 2.50000000E-01	-1.49012000E-08	 1.00000000E+00
					-7.45058000E-09	 2.50000000E-01	-5.96046000E-08
					-7.45058000E-09	-1.49012000E-08	 5.00000000E-01
					-7.45058000E-09	 2.50000000E-01	 1.00000000E+00
					 1.00000000E+00	 5.00000000E-01	 2.00000000E+00
					 1.00000000E+00	 1.00000000E+00	 2.00000000E+00
					 5.00000000E-01	 5.00000000E-01	 2.00000000E+00
					 5.00000000E-01	 1.00000000E+00	 2.00000000E+00
					 1.00000000E+00	 5.00000000E-01	 1.50000000E+00
					 1.00000000E+00	 7.50000000E-01	 2.00000000E+00
					 1.00000000E+00	 1.00000000E+00	 1.50000000E+00
					 7.50000000E-01	 5.00000000E-01	 2.00000000E+00
					 7.50000000E-01	 1.00000000E+00	 2.00000000E+00
					 5.00000000E-01	 5.00000000E-01	 1.50000000E+00
					 5.00000000E-01	 7.50000000E-01	 2.00000000E+00
					 5.00000000E-01	 1.00000000E+00	 1.50000000E+00
					 1.00000000E+00	-1.49012000E-08	 2.00000000E+00
					 5.00000000E-01	-1.49012000E-08	 2.00000000E+00
					 1.00000000E+00	-1.49012000E-08	 1.50000000E+00
					 1.00000000E+00	 2.50000000E-01	 2.00000000E+00
					 7.50000000E-01	-1.49012000E-08	 2.00000000E+00
					 5.00000000E-01	-1.49012000E-08	 1.50000000E+00
					 5.00000000E-01	 2.50000000E-01	 2.00000000E+00
					-7.45058000E-09	 5.00000000E-01	 2.00000000E+00
					-7.45058000E-09	 1.00000000E+00	 2.00000000E+00
					 2.50000000E-01	 5.00000000E-01	 2.00000000E+00
					 2.50000000E-01	 1.00000000E+00	 2.00000000E+00
					-7.45058000E-09	 5.00000000E-01	 1.50000000E+00
					-7.45058000E-09	 7.50000000E-01	 2.00000000E+00
					-7.45058000E-09	 1.00000000E+00	 1.50000000E+00
					-7.45058000E-09	-1.49012000E-08	 2.00000000E+00
					 2.50000000E-01	-1.49012000E-08	 2.00000000E+00
					-7.45058000E-09	-1.49012000E-08	 1.50000000E+00
					-7.45058000E-09	 2.50000000E-01	 2.00000000E+00
					 1.00000000E+00	 5.00000000E-01	 3.00000000E+00
					 1.00000000E+00	 1.00000000E+00	 3.00000000E+00
					 5.00000000E-01	 5.00000000E-01	 3.00000000E+00
					 5.00000000E-01	 1.00000000E+00	 3.00000000E+00
					 1.00000000E+00	 5.00000000E-01	 2.50000000E+00
					 1.00000000E+00	 7.50000000E-01	 3.00000000E+00
					 1.00000000E+00	 1.00000000E+00	 2.50000000E+00
					 7.50000000E-01	 5.00000000E-01	 3.00000000E+00
					 7.50000000E-01	 1.00000000E+00	 3.00000000E+00
					 5.00000000E-01	 5.00000000E-01	 2.50000000E+00
					 5.00000000E-01	 7.50000000E-01	 3.00000000E+00
					 5.00000000E-01	 1.00000000E+00	 2.50000000E+00
					 1.00000000E+00	-1.49012000E-08	 3.00000000E+00
					 5.00000000E-01	-1.49012000E-08	 3.00000000E+00
					 1.00000000E+00	-1.49012000E-08	 2.50000000E+00
					 1.00000000E+00	 2.50000000E-01	 3.00000000E+00
					 7.50000000E-01	-1.49012000E-08	 3.00000000E+00
					 5.00000000E-01	-1.49012000E-08	 2.50000000E+00
					 5.00000000E-01	 2.50000000E-01	 3.00000000E+00
					-7.45058000E-09	 5.00000000E-01	 3.00000000E+00
					-7.45058000E-09	 1.00000000E+00	 3.00000000E+00
					 2.50000000E-01	 5.00000000E-01	 3.00000000E+00
					 2.50000000E-01	 1.00000000E+00	 3.00000000E+00
					-7.45058000E-09	 5.00000000E-01	 2.50000000E+00
					-7.45058000E-09	 7.50000000E-01	 3.00000000E+00
					-7.45058000E-09	 1.00000000E+00	 2.50000000E+00
					-7.45058000E-09	-1.49012000E-08	 3.00000000E+00
					 2.50000000E-01	-1.49012000E-08	 3.00000000E+00
					-7.45058000E-09	-1.49012000E-08	 2.50000000E+00
					-7.45058000E-09	 2.50000000E-01	 3.00000000E+00
					 1.00000000E+00	 5.00000000E-01	 4.00000000E+00
					 1.00000000E+00	 1.00000000E+00	 4.00000000E+00
					 5.00000000E-01	 5.00000000E-01	 4.00000000E+00
					 5.00000000E-01	 1.00000000E+00	 4.00000000E+00
					 1.00000000E+00	 5.00000000E-01	 3.50000000E+00
					 1.00000000E+00	 7.50000000E-01	 4.00000000E+00
					 1.00000000E+00	 1.00000000E+00	 3.50000000E+00
					 7.50000000E-01	 5.00000000E-01	 4.00000000E+00
					 7.50000000E-01	 1.00000000E+00	 4.00000000E+00
					 5.00000000E-01	 5.00000000E-01	 3.50000000E+00
					 5.00000000E-01	 7.50000000E-01	 4.00000000E+00
					 5.00000000E-01	 1.00000000E+00	 3.50000000E+00
					 1.00000000E+00	-1.49012000E-08	 4.00000000E+00
					 5.00000000E-01	-1.49012000E-08	 4.00000000E+00
					 1.00000000E+00	-1.49012000E-08	 3.50000000E+00
					 1.00000000E+00	 2.50000000E-01	 4.00000000E+00
					 7.50000000E-01	-1.49012000E-08	 4.00000000E+00
					 5.00000000E-01	-1.49012000E-08	 3.50000000E+00
					 5.00000000E-01	 2.50000000E-01	 4.00000000E+00
					-7.45058000E-09	 5.00000000E-01	 4.00000000E+00
					-7.45058000E-09	 1.00000000E+00	 4.00000000E+00
					 2.50000000E-01	 5.00000000E-01	 4.00000000E+00
					 2.50000000E-01	 1.00000000E+00	 4.00000000E+00
					-7.45058000E-09	 5.00000000E-01	 3.50000000E+00
					-7.45058000E-09	 7.50000000E-01	 4.00000000E+00
					-7.45058000E-09	 1.00000000E+00	 3.50000000E+00
					-7.45058000E-09	-1.49012000E-08	 4.00000000E+00
					 2.50000000E-01	-1.49012000E-08	 4.00000000E+00
					-7.45058000E-09	-1.49012000E-08	 3.50000000E+00
					-7.45058000E-09	 2.50000000E-01	 4.00000000E+00
					 1.00000000E+00	 5.00000000E-01	 5.00000000E+00
					 1.00000000E+00	 1.00000000E+00	 5.00000000E+00
					 5.00000000E-01	 5.00000000E-01	 5.00000000E+00
					 5.00000000E-01	 1.00000000E+00	 5.00000000E+00
					 1.00000000E+00	 5.00000000E-01	 4.50000000E+00
					 1.00000000E+00	 7.50000000E-01	 5.00000000E+00
					 1.00000000E+00	 1.00000000E+00	 4.50000000E+00
					 7.50000000E-01	 5.00000000E-01	 5.00000000E+00
					 7.50000000E-01	 1.00000000E+00	 5.00000000E+00
					 5.00000000E-01	 5.00000000E-01	 4.50000000E+00
					 5.00000000E-01	 7.50000000E-01	 5.00000000E+00
					 5.00000000E-01	 1.00000000E+00	 4.50000000E+00
					 1.00000000E+00	-1.49012000E-08	 5.00000000E+00
					 5.00000000E-01	-1.49012000E-08	 5.00000000E+00
					 1.00000000E+00	-1.49012000E-08	 4.50000000E+00
					 1.00000000E+00	 2.50000000E-01	 5.00000000E+00
					 7.50000000E-01	-1.49012000E-08	 5.00000000E+00
					 5.00000000E-01	-1.49012000E-08	 4.50000000E+00
					 5.00000000E-01	 2.50000000E-01	 5.00000000E+00
					-7.45058000E-09	 5.00000000E-01	 5.00000000E+00
					-7.45058000E-09	 1.00000000E+00	 5.00000000E+00
					 2.50000000E-01	 5.00000000E-01	 5.00000000E+00
					 2.50000000E-01	 1.00000000E+00	 5.00000000E+00
					-7.45058000E-09	 5.00000000E-01	 4.50000000E+00
					-7.45058000E-09	 7.50000000E-01	 5.00000000E+00
					-7.45058000E-09	 1.00000000E+00	 4.50000000E+00
					-7.45058000E-09	-1.49012000E-08	 5.00000000E+00
					 2.50000000E-01	-1.49012000E-08	 5.00000000E+00
					-7.45058000E-09	-1.49012000E-08	 4.50000000E+00
					-7.45058000E-09	 2.50000000E-01	 5.00000000E+00
					 1.00000000E+00	 5.00000000E-01	 6.00000000E+00
					 1.00000000E+00	 1.00000000E+00	 6.00000000E+00
					 5.00000000E-01	 5.00000000E-01	 6.00000000E+00
					 5.00000000E-01	 1.00000000E+00	 6.00000000E+00
					 1.00000000E+00	 5.00000000E-01	 5.50000000E+00
					 1.00000000E+00	 7.50000000E-01	 6.00000000E+00
					 1.00000000E+00	 1.00000000E+00	 5.50000000E+00
					 7.50000000E-01	 5.00000000E-01	 6.00000000E+00
					 7.50000000E-01	 1.00000000E+00	 6.00000000E+00
					 5.00000000E-01	 5.00000000E-01	 5.50000000E+00
					 5.00000000E-01	 7.50000000E-01	 6.00000000E+00
					 5.00000000E-01	 1.00000000E+00	 5.50000000E+00
					 1.00000000E+00	-1.49012000E-08	 6.00000000E+00
[...]
			<PointData>
				<DataArray type="Float32" Name="U" NumberOfComponents="3" ComponentName0="D1" ComponentName1="D2" ComponentName2="D3" format="ascii">
					 0.00000000E+00	 0.00000000E+00	 0.00000000E+00
					 0.00000000E+00	 0.00000000E+00	 0.00000000E+00
					 1.58774000E-05	-3.82076000E-03	-1.84529000E-05
					-8.17688000E-05	-3.87393000E-03	 2.30147000E-03
					 0.00000000E+00	 0.00000000E+00	 0.00000000E+00
					 0.00000000E+00	 0.00000000E+00	 0.00000000E+00
					 1.60383000E-05	-3.84834000E-03	-1.16120000E-05
					 6.78886000E-05	-3.91026000E-03	 2.36230000E-03
					 0.00000000E+00	 0.00000000E+00	 0.00000000E+00
					 7.28994000E-06	-1.24934000E-03	-8.62834000E-06
					-3.30747000E-05	-3.80830000E-03	 1.03239000E-03
					-3.14088000E-04	-1.43506000E-03	 1.38567000E-03
					 0.00000000E+00	 0.00000000E+00	 0.00000000E+00
					 0.00000000E+00	 0.00000000E+00	 0.00000000E+00
					 1.58606000E-05	-3.87020000E-03	-1.49698000E-05
					-4.89194000E-06	-3.92805000E-03	 2.35174000E-03
					 0.00000000E+00	 0.00000000E+00	 0.00000000E+00
					 6.27633000E-06	-1.36147000E-03	-3.38480000E-06
					 4.18862000E-05	-3.83817000E-03	 1.08028000E-03
					 4.03447000E-05	-1.55698000E-03	 1.37633000E-03
					 0.00000000E+00	 0.00000000E+00	 0.00000000E+00
					 1.14535000E-04	-3.86290000E-03	-2.33920000E-03
					 0.00000000E+00	 0.00000000E+00	 0.00000000E+00
					-3.51730000E-05	-3.90102000E-03	-2.38728000E-03
					 0.00000000E+00	 0.00000000E+00	 0.00000000E+00
					 3.28456000E-04	-1.43286000E-03	-1.40520000E-03
					 6.50597000E-05	-3.80372000E-03	-1.06949000E-03
					 0.00000000E+00	 0.00000000E+00	 0.00000000E+00
					 3.77634000E-05	-3.91792000E-03	-2.38290000E-03
					 0.00000000E+00	 0.00000000E+00	 0.00000000E+00
					-2.84108000E-05	-1.55345000E-03	-1.38561000E-03
					-9.54783000E-06	-3.83467000E-03	-1.10391000E-03
					 0.00000000E+00	 0.00000000E+00	 0.00000000E+00
					 0.00000000E+00	 0.00000000E+00	 0.00000000E+00
					 1.53317000E-05	-3.71770000E-03	-4.19696000E-06
					 2.15205000E-04	-3.77066000E-03	 2.31477000E-03
					 0.00000000E+00	 0.00000000E+00	 0.00000000E+00
					 0.00000000E+00	 0.00000000E+00	 0.00000000E+00
					 1.57674000E-05	-3.81876000E-03	-8.24865000E-06
					 1.39467000E-04	-3.87626000E-03	 2.35276000E-03
					 0.00000000E+00	 0.00000000E+00	 0.00000000E+00
					 6.72569000E-06	-1.18074000E-03	 2.89384000E-06
					 1.15480000E-04	-3.70513000E-03	 1.05146000E-03
					 3.95075000E-04	-1.36954000E-03	 1.39675000E-03
					 0.00000000E+00	 0.00000000E+00	 0.00000000E+00
					-1.84193000E-04	-3.76290000E-03	-2.32521000E-03
					 0.00000000E+00	 0.00000000E+00	 0.00000000E+00
					-1.07733000E-04	-3.86771000E-03	-2.37141000E-03
					 0.00000000E+00	 0.00000000E+00	 0.00000000E+00
					-3.82957000E-04	-1.36306000E-03	-1.39387000E-03
					-8.45658000E-05	-3.70234000E-03	-1.06007000E-03
					 2.03631000E-05	-9.68549000E-03	-3.39461000E-05
					 1.31523000E-04	-9.69214000E-03	 2.66319000E-03
					 2.02642000E-05	-9.58041000E-03	-3.34393000E-05
					 1.25649000E-04	-9.58498000E-03	 2.66902000E-03
					 2.09102000E-05	-6.74420000E-03	-2.61630000E-05
					 7.23617000E-05	-9.69722000E-03	 1.30073000E-03
					 3.87844000E-05	-6.80638000E-03	 2.62225000E-03
					 2.06035000E-05	-9.62733000E-03	-3.39688000E-05
					 1.27991000E-04	-9.63053000E-03	 2.67293000E-03
					 2.07411000E-05	-6.70837000E-03	-2.27677000E-05
					 7.24490000E-05	-9.59308000E-03	 1.31210000E-03
					 8.73800000E-05	-6.76230000E-03	 2.64520000E-03
					-9.25036000E-05	-9.67931000E-03	-2.73021000E-03
					-8.56754000E-05	-9.57093000E-03	-2.73471000E-03
					 3.30486000E-06	-6.79292000E-03	-2.67509000E-03
					-3.21022000E-05	-9.69151000E-03	-1.36806000E-03
					-8.84676000E-05	-9.61649000E-03	-2.74018000E-03
					-4.54508000E-05	-6.75023000E-03	-2.69082000E-03
					-3.22828000E-05	-9.58594000E-03	-1.37869000E-03
					 1.88873000E-05	-9.47278000E-03	-3.37301000E-05
					 1.14120000E-04	-9.48324000E-03	 2.66383000E-03
					 1.97143000E-05	-9.52076000E-03	-3.31506000E-05
					 1.20535000E-04	-9.52487000E-03	 2.66173000E-03
					 1.95087000E-05	-6.61070000E-03	-1.92109000E-05
					 7.03946000E-05	-9.48690000E-03	 1.31362000E-03
					 1.33383000E-04	-6.67257000E-03	 2.62909000E-03
					-7.53735000E-05	-9.47103000E-03	-2.72997000E-03
					-8.05651000E-05	-9.51154000E-03	-2.72659000E-03
					-9.31166000E-05	-6.66287000E-03	-2.66731000E-03
					-3.25242000E-05	-9.48073000E-03	-1.38083000E-03
					 1.60580000E-05	-1.51802000E-02	-5.03386000E-05
					 2.79284000E-04	-1.52044000E-02	 2.69043000E-03
					 1.34708000E-05	-1.48934000E-02	-5.26975000E-05
					 3.19965000E-04	-1.49219000E-02	 2.68078000E-03
					 1.88793000E-05	-1.24476000E-02	-4.20950000E-05
					 1.49152000E-04	-1.51859000E-02	 1.31768000E-03
					 1.90042000E-04	-1.24607000E-02	 2.64381000E-03
					 1.52833000E-05	-1.50421000E-02	-5.14976000E-05
					 2.99947000E-04	-1.50706000E-02	 2.70412000E-03
					 1.77571000E-05	-1.22709000E-02	-4.26586000E-05
					 1.66097000E-04	-1.49016000E-02	 1.33128000E-03
					 1.98083000E-04	-1.22849000E-02	 2.63900000E-03
					-2.49430000E-04	-1.51892000E-02	-2.78999000E-03
					-2.92789000E-04	-1.49053000E-02	-2.78544000E-03
					-1.55467000E-04	-1.24484000E-02	-2.72649000E-03
					-1.17743000E-04	-1.51779000E-02	-1.41823000E-03
					-2.70784000E-04	-1.50539000E-02	-2.80579000E-03
					-1.63392000E-04	-1.22699000E-02	-2.72304000E-03
					-1.39194000E-04	-1.48923000E-02	-1.43638000E-03
					 9.90884000E-06	-1.45674000E-02	-5.66723000E-05
					 3.52745000E-04	-1.45974000E-02	 2.68543000E-03
					 1.13681000E-05	-1.47367000E-02	-5.43598000E-05
					 3.35668000E-04	-1.47648000E-02	 2.65376000E-03
					 1.54626000E-05	-1.20847000E-02	-4.52607000E-05
					 1.81628000E-04	-1.45768000E-02	 1.36054000E-03
					 1.96813000E-04	-1.21061000E-02	 2.64167000E-03
					-3.30105000E-04	-1.45842000E-02	-2.79839000E-03
					-3.11054000E-04	-1.47497000E-02	-2.76223000E-03
					-1.64412000E-04	-1.20932000E-02	-2.73124000E-03
					-1.61083000E-04	-1.45693000E-02	-1.47355000E-03
					-6.52867000E-08	-2.13812000E-02	-7.51803000E-05
					 6.52818000E-04	-2.14457000E-02	 3.20627000E-03
					-3.16453000E-06	-2.06726000E-02	-8.04155000E-05
					 7.59634000E-04	-2.07377000E-02	 3.19869000E-03
					 9.50184000E-06	-1.80948000E-02	-6.03326000E-05
					 3.27166000E-04	-2.13990000E-02	 1.52990000E-03
					 4.32508000E-04	-1.81375000E-02	 2.89767000E-03
					-1.42694000E-06	-2.10411000E-02	-7.79846000E-05
					 7.06362000E-04	-2.11065000E-02	 3.24060000E-03
					 6.00175000E-06	-1.76259000E-02	-6.49792000E-05
					 3.78809000E-04	-2.06905000E-02	 1.56209000E-03
					 5.15969000E-04	-1.76738000E-02	 2.88491000E-03
					-6.53887000E-04	-2.14249000E-02	-3.36034000E-03
					-7.65651000E-04	-2.07160000E-02	-3.36280000E-03
					-4.13848000E-04	-1.81180000E-02	-3.01917000E-03
					-3.27542000E-04	-2.13884000E-02	-1.68099000E-03
					-7.09554000E-04	-2.10845000E-02	-3.40053000E-03
					-5.02762000E-04	-1.76546000E-02	-3.01582000E-03
					-3.84996000E-04	-2.06790000E-02	-1.72381000E-03
					-6.05012000E-06	-1.98572000E-02	-8.34625000E-05
					 8.72096000E-04	-1.99163000E-02	 3.19840000E-03
					-4.88672000E-06	-2.02791000E-02	-8.22079000E-05
					 8.16052000E-04	-2.03427000E-02	 3.15719000E-03
					 2.14471000E-06	-1.70772000E-02	-6.91720000E-05
					 4.31460000E-04	-1.98724000E-02	 1.60132000E-03
					 5.92109000E-04	-1.71252000E-02	 2.88984000E-03
					-8.82708000E-04	-1.98961000E-02	-3.36814000E-03
					-8.24859000E-04	-2.03221000E-02	-3.32410000E-03
					-5.84655000E-04	-1.71095000E-02	-3.02927000E-03
					-4.43068000E-04	-1.98613000E-02	-1.76937000E-03
					-2.12296000E-05	-2.90444000E-02	-1.20999000E-04
					 9.40049000E-04	-2.90987000E-02	 3.82957000E-03
					-2.17363000E-05	-2.80516000E-02	-1.25181000E-04
					 1.00819000E-03	-2.81001000E-02	 3.83137000E-03
					-1.02111000E-05	-2.50755000E-02	-9.62571000E-05
					 4.58226000E-04	-2.90620000E-02	 1.83771000E-03
					 8.57006000E-04	-2.51402000E-02	 3.54676000E-03
					-2.13998000E-05	-2.85583000E-02	-1.23277000E-04
					 9.74401000E-04	-2.86076000E-02	 3.83321000E-03
					-1.18741000E-05	-2.41639000E-02	-1.00424000E-04
					 4.94154000E-04	-2.80662000E-02	 1.83838000E-03
					 9.50405000E-04	-2.42226000E-02	 3.54675000E-03
					-9.82906000E-04	-2.90739000E-02	-4.07331000E-03
					-1.05328000E-03	-2.80749000E-02	-4.08370000E-03
					-8.79557000E-04	-2.51192000E-02	-3.74369000E-03
					-5.00846000E-04	-2.90507000E-02	-2.08082000E-03
					-1.01829000E-03	-2.85825000E-02	-4.08109000E-03
					-9.75718000E-04	-2.41991000E-02	-3.75142000E-03
					-5.38341000E-04	-2.80543000E-02	-2.08945000E-03
					-2.33278000E-05	-2.69829000E-02	-1.27499000E-04
					 1.08816000E-03	-2.70258000E-02	 3.82139000E-03
					-2.22438000E-05	-2.75260000E-02	-1.26362000E-04
					 1.04901000E-03	-2.75743000E-02	 3.83206000E-03
					-1.38378000E-05	-2.31503000E-02	-1.02197000E-04
					 5.30611000E-04	-2.69943000E-02	 1.82715000E-03
					 1.06223000E-03	-2.31982000E-02	 3.54046000E-03
					-1.13692000E-03	-2.69987000E-02	-4.07855000E-03
					-1.09557000E-03	-2.75482000E-02	-4.08715000E-03
					-1.09105000E-03	-2.31735000E-02	-3.74797000E-03
					-5.78067000E-04	-2.69811000E-02	-2.08271000E-03
					-5.56495000E-05	-3.73068000E-02	-1.67248000E-04
					 7.90228000E-04	-3.73361000E-02	 4.08133000E-03
					-5.46237000E-05	-3.64486000E-02	-1.77823000E-04
					 8.12912000E-04	-3.64757000E-02	 4.07577000E-03
					-3.62170000E-05	-3.31454000E-02	-1.44601000E-04
					 3.66294000E-04	-3.73189000E-02	 1.96741000E-03
					 9.03595000E-04	-3.31899000E-02	 3.99432000E-03
					-5.56513000E-05	-3.68810000E-02	-1.73333000E-04
					 8.01284000E-04	-3.69085000E-02	 4.05948000E-03
					-3.62990000E-05	-3.21892000E-02	-1.51956000E-04
					 3.78413000E-04	-3.64589000E-02	 1.94099000E-03
					 9.42123000E-04	-3.22267000E-02	 3.99154000E-03
					-8.97564000E-04	-3.73035000E-02	-4.41916000E-03
					-9.22839000E-04	-3.64468000E-02	-4.43381000E-03
					-9.72781000E-04	-3.31580000E-02	-4.28404000E-03
					-4.76659000E-04	-3.73022000E-02	-2.30291000E-03
					-9.10104000E-04	-3.68790000E-02	-4.40931000E-03
					-1.01471000E-03	-3.21986000E-02	-4.29635000E-03
					-4.87942000E-04	-3.64454000E-02	-2.29744000E-03
					-5.33145000E-05	-3.55666000E-02	-1.84318000E-04
					 8.35301000E-04	-3.55969000E-02	 4.06518000E-03
					-5.36581000E-05	-3.60100000E-02	-1.81156000E-04
					 8.23932000E-04	-3.60378000E-02	 4.09360000E-03
					-3.69593000E-05	-3.11870000E-02	-1.56997000E-04
					 3.92009000E-04	-3.55788000E-02	 1.90967000E-03
					 9.88582000E-04	-3.12217000E-02	 3.97986000E-03
					-9.47504000E-04	-3.55623000E-02	-4.43528000E-03
					-9.35218000E-04	-3.60070000E-02	-4.45697000E-03
					-1.06492000E-03	-3.11919000E-02	-4.29515000E-03
					-5.00047000E-04	-3.55622000E-02	-2.27947000E-03
					-8.03967000E-05	-4.58733000E-02	-2.20790000E-04
					 6.63458000E-04	-4.58715000E-02	 4.02401000E-03
					-7.32277000E-05	-4.51399000E-02	-2.23936000E-04
					 6.41234000E-04	-4.51387000E-02	 4.03117000E-03
					-7.27463000E-05	-4.15596000E-02	-1.93926000E-04
					 2.90804000E-04	-4.58744000E-02	 1.89221000E-03
					 6.87048000E-04	-4.15692000E-02	 4.09222000E-03
					-7.79041000E-05	-4.55045000E-02	-2.21153000E-04
					 6.51211000E-04	-4.55026000E-02	 4.02905000E-03
					-6.80318000E-05	-4.07927000E-02	-2.01982000E-04
					 2.82415000E-04	-4.51414000E-02	 1.89689000E-03
					 6.92857000E-04	-4.08061000E-02	 4.09290000E-03
					-8.22942000E-04	-4.58464000E-02	-4.46187000E-03
					-7.92843000E-04	-4.51148000E-02	-4.47595000E-03
					-8.29978000E-04	-4.15422000E-02	-4.48370000E-03
					-4.51227000E-04	-4.58651000E-02	-2.33204000E-03
					-8.08531000E-04	-4.54788000E-02	-4.46816000E-03
					-8.32959000E-04	-4.07803000E-02	-4.49936000E-03
					-4.30866000E-04	-4.51323000E-02	-2.34341000E-03
					-6.85383000E-05	-4.44334000E-02	-2.29244000E-04
					 6.13938000E-04	-4.44404000E-02	 4.02871000E-03
					-6.92133000E-05	-4.47819000E-02	-2.27823000E-04
					 6.27821000E-04	-4.47836000E-02	 4.03271000E-03
					-6.41295000E-05	-4.00265000E-02	-2.06259000E-04
					 2.73477000E-04	-4.44395000E-02	 1.89233000E-03
					 6.88921000E-04	-4.00501000E-02	 4.08470000E-03
					-7.60988000E-04	-4.44065000E-02	-4.48475000E-03
					-7.74958000E-04	-4.47563000E-02	-4.48618000E-03
					-8.27644000E-04	-4.00130000E-02	-4.49860000E-03
					-4.13446000E-04	-4.44235000E-02	-2.34905000E-03
					-9.21203000E-05	-5.41953000E-02	-2.56177000E-04
					 6.87487000E-04	-5.42109000E-02	 3.83719000E-03
					-9.95920000E-05	-5.34426000E-02	-2.60188000E-04
					 6.64988000E-04	-5.34605000E-02	 3.85024000E-03
					-8.52763000E-05	-5.00904000E-02	-2.40762000E-04
					 2.99644000E-04	-5.42054000E-02	 1.79277000E-03
					 6.76677000E-04	-5.00958000E-02	 3.91051000E-03
					-9.48591000E-05	-5.38118000E-02	-2.56785000E-04
					 6.78387000E-04	-5.38300000E-02	 3.84477000E-03
					-8.21579000E-05	-4.93410000E-02	-2.43014000E-04
					 2.87558000E-04	-5.34537000E-02	 1.80197000E-03
					 6.50516000E-04	-4.93504000E-02	 3.92221000E-03
					-8.78054000E-04	-5.41630000E-02	-4.33059000E-03
					-8.64770000E-04	-5.34082000E-02	-4.35332000E-03
					-8.50144000E-04	-5.00668000E-02	-4.37750000E-03
					-4.85741000E-04	-5.41801000E-02	-2.29930000E-03
					-8.71899000E-04	-5.37781000E-02	-4.34006000E-03
					-8.17090000E-04	-4.93193000E-02	-4.39549000E-03
					-4.87404000E-04	-5.34259000E-02	-2.31750000E-03
					-1.08122000E-04	-5.27124000E-02	-2.80649000E-04
					 6.55320000E-04	-5.27275000E-02	 3.86145000E-03
					-1.04356000E-04	-5.30814000E-02	-2.68180000E-04
					 6.58028000E-04	-5.30941000E-02	 3.85033000E-03
					-8.06728000E-05	-4.86202000E-02	-2.57289000E-04
					 2.79427000E-04	-5.27225000E-02	 1.80775000E-03
					 6.24925000E-04	-4.86367000E-02	 3.92709000E-03
					-8.65863000E-04	-5.26824000E-02	-4.40704000E-03
					-8.63944000E-04	-5.30440000E-02	-4.37125000E-03
					-7.87184000E-04	-4.86056000E-02	-4.43075000E-03
					-4.94740000E-04	-5.26985000E-02	-2.36419000E-03
					 0.00000000E+00	 0.00000000E+00	 0.00000000E+00
					 0.00000000E+00	 0.00000000E+00	 0.00000000E+00
					-2.15018000E-05	-1.22904000E-03	 2.16944000E-04
					-1.56619000E-03	-1.51320000E-03	 3.25532000E-03
					 0.00000000E+00	 0.00000000E+00	 0.00000000E+00
					 0.00000000E+00	 0.00000000E+00	 0.00000000E+00
					 1.25673000E-05	-2.51475000E-03	 2.38625000E-04
					-1.03162000E-03	-2.81468000E-03	 3.29355000E-03
					 0.00000000E+00	 0.00000000E+00	 0.00000000E+00
					-3.75415000E-05	 3.06117000E-04	 1.07336000E-04
					-7.95780000E-04	-1.29150000E-03	 1.85014000E-03
					-9.87770000E-04	-1.43820000E-05	 1.49496000E-03
					 0.00000000E+00	 0.00000000E+00	 0.00000000E+00
					 0.00000000E+00	 0.00000000E+00	 0.00000000E+00
					-4.99679000E-06	-1.95112000E-03	 2.26911000E-04
					-1.29652000E-03	-2.23964000E-03	 3.16771000E-03
					 0.00000000E+00	 0.00000000E+00	 0.00000000E+00
					-1.32500000E-06	-4.15865000E-04	 1.08834000E-04
					-5.08910000E-04	-2.58142000E-03	 1.77435000E-03
					-5.13327000E-04	-7.19449000E-04	 1.44180000E-03
					 0.00000000E+00	 0.00000000E+00	 0.00000000E+00
					 1.51969000E-03	-1.42810000E-03	-2.83080000E-03
					 0.00000000E+00	 0.00000000E+00	 0.00000000E+00
					 1.05392000E-03	-2.71796000E-03	-2.82553000E-03
					 0.00000000E+00	 0.00000000E+00	 0.00000000E+00
					 9.09239000E-04	 6.30083000E-05	-1.26947000E-03
					 7.52475000E-04	-1.24702000E-03	-1.42061000E-03
					 0.00000000E+00	 0.00000000E+00	 0.00000000E+00
					 1.28290000E-03	-2.14868000E-03	-2.72326000E-03
					 0.00000000E+00	 0.00000000E+00	 0.00000000E+00
					 5.08827000E-04	-6.36017000E-04	-1.21103000E-03
					 5.32264000E-04	-2.53214000E-03	-1.30218000E-03
					 0.00000000E+00	 0.00000000E+00	 0.00000000E+00
					 0.00000000E+00	 0.00000000E+00	 0.00000000E+00
					 5.03483000E-05	-3.31448000E-03	 2.56262000E-04
					-4.79705000E-04	-3.59513000E-03	 3.29619000E-03
					 0.00000000E+00	 0.00000000E+00	 0.00000000E+00
					 0.00000000E+00	 0.00000000E+00	 0.00000000E+00
					 3.10503000E-05	-2.99237000E-03	 2.47238000E-04
					-7.58041000E-04	-3.27920000E-03	 3.37966000E-03
					 0.00000000E+00	 0.00000000E+00	 0.00000000E+00
					 3.87047000E-05	-7.15701000E-04	 1.23607000E-04
					-2.14416000E-04	-3.37368000E-03	 1.69806000E-03
					 2.77608000E-06	-1.00430000E-03	 1.51294000E-03
					 0.00000000E+00	 0.00000000E+00	 0.00000000E+00
					 5.73039000E-04	-3.49026000E-03	-2.79155000E-03
					 0.00000000E+00	 0.00000000E+00	 0.00000000E+00
					 8.14725000E-04	-3.18356000E-03	-2.89351000E-03
					 0.00000000E+00	 0.00000000E+00	 0.00000000E+00
					 7.12149000E-05	-9.13720000E-04	-1.25228000E-03
					 3.13362000E-04	-3.32142000E-03	-1.19028000E-03
					 7.50609000E-05	-9.92706000E-03	 3.52089000E-04
					-2.57351000E-03	-1.01888000E-02	 6.66451000E-03
					 1.06008000E-04	-1.23651000E-02	 3.90110000E-04
					-2.13855000E-03	-1.26321000E-02	 6.72647000E-03
					 1.58604000E-05	-4.67404000E-03	 2.99078000E-04
					-1.24549000E-03	-1.00084000E-02	 3.53268000E-03
					-2.09420000E-03	-4.95916000E-03	 5.07158000E-03
					 9.01519000E-05	-1.11938000E-02	 3.70371000E-04
					-2.35548000E-03	-1.14582000E-02	 6.62242000E-03
					 4.64976000E-05	-6.53090000E-03	 3.29725000E-04
					-1.00972000E-03	-1.24467000E-02	 3.50893000E-03
					-1.56988000E-03	-6.82377000E-03	 5.11645000E-03
					 2.71844000E-03	-1.00483000E-02	-5.97131000E-03
					 2.34141000E-03	-1.24890000E-02	-5.95571000E-03
					 2.11914000E-03	-4.84892000E-03	-4.48411000E-03
					 1.39371000E-03	-9.93710000E-03	-2.83169000E-03
					 2.53046000E-03	-1.13217000E-02	-5.88941000E-03
					 1.65820000E-03	-6.70783000E-03	-4.46742000E-03
					 1.22389000E-03	-1.23755000E-02	-2.72781000E-03
					 1.33862000E-04	-1.44100000E-02	 4.29354000E-04
					-1.67439000E-03	-1.46506000E-02	 6.73897000E-03
					 1.19267000E-04	-1.34324000E-02	 4.10598000E-04
					-1.90619000E-03	-1.37237000E-02	 6.83645000E-03
					 7.93410000E-05	-7.90598000E-03	 3.59930000E-04
					-7.81135000E-04	-1.44756000E-02	 3.43490000E-03
					-1.03593000E-03	-8.18875000E-03	 5.13241000E-03
					 1.96459000E-03	-1.45212000E-02	-5.89106000E-03
					 2.15247000E-03	-1.35568000E-02	-6.02927000E-03
					 1.20103000E-03	-8.07275000E-03	-4.42047000E-03
					 1.05528000E-03	-1.44134000E-02	-2.57363000E-03
					 2.61789000E-04	-2.42327000E-02	 3.81058000E-04
					-3.55139000E-03	-2.43340000E-02	 8.40850000E-03
					 2.96145000E-04	-2.79629000E-02	 4.34166000E-04
					-3.40135000E-03	-2.81715000E-02	 8.49404000E-03
					 1.60029000E-04	-1.66382000E-02	 3.77559000E-04
					-1.64089000E-03	-2.42711000E-02	 4.41900000E-03
					-3.03569000E-03	-1.68455000E-02	 7.79422000E-03
					 2.80877000E-04	-2.61137000E-02	 4.12068000E-04
					-3.47881000E-03	-2.62792000E-02	 8.34780000E-03
					 1.90414000E-04	-1.96967000E-02	 4.21945000E-04
					-1.57592000E-03	-2.80590000E-02	 4.36996000E-03
					-2.74265000E-03	-1.99167000E-02	 7.87446000E-03
					 4.03257000E-03	-2.41856000E-02	-7.63148000E-03
					 3.98863000E-03	-2.79241000E-02	-7.64559000E-03
					 3.34193000E-03	-1.66819000E-02	-7.04433000E-03
					 2.15038000E-03	-2.41989000E-02	-3.64628000E-03
					 4.00924000E-03	-2.60626000E-02	-7.53671000E-03
					 3.12159000E-03	-1.97300000E-02	-7.03794000E-03
					 2.14328000E-03	-2.79388000E-02	-3.52190000E-03
					 3.23739000E-04	-3.16104000E-02	 4.83777000E-04
					-3.34378000E-03	-3.19335000E-02	 8.50550000E-03
					 3.10015000E-04	-2.98113000E-02	 4.55991000E-04
					-3.37468000E-03	-2.99508000E-02	 8.65279000E-03
					 2.27484000E-04	-2.24999000E-02	 4.65886000E-04
					-1.47985000E-03	-3.17664000E-02	 4.24374000E-03
					-2.46609000E-03	-2.27360000E-02	 7.88256000E-03
					 3.94789000E-03	-3.15962000E-02	-7.58521000E-03
					 3.96742000E-03	-2.97652000E-02	-7.76258000E-03
					 2.88193000E-03	-2.25188000E-02	-6.96144000E-03
					 2.12848000E-03	-3.16081000E-02	-3.32073000E-03
					 5.37626000E-04	-3.93876000E-02	 3.83304000E-04
					-4.64799000E-03	-3.92568000E-02	 7.73049000E-03