<?xml version="1.0"?>
<VTKFile type="UnstructuredGrid" version="0.1" byte_order="LittleEndian">
	<UnstructuredGrid>
		<Piece NumberOfPoints="522" NumberOfCells="64">
			<Points>
				<DataArray type="Float64" NumberOfComponents="3" format="ascii">
					 1.00000000E+00	 1.00000000E+00	-5.96046000E-08
					 1.00000000E+00	 5.00000000E-01	-5.96046000E-08
					 1.00000000E+00	 5.00000000E-01	 1.00000000E+00
					 1.00000000E+00	 1.00000000E+00	 1.00000000E+00
					 5.00000000E-01	 1.00000000E+00	-5.96046000E-08
					 5.00000000E-01	 5.00000000E-01	-5.96046000E-08
					 5.00000000E-01	 5.00000000E-01	 1.00000000E+00
					 5.00000000E-01	 1.00000000E+00	 1.00000000E+00
					 1.00000000E+00	 7.50000000E-01	-5.96046000E-08
					 1.00000000E+00	 5.00000000E-01	 5.00000000E-01
					 1.00000000E+00	 7.50000000E-01	 1.00000000E+00
					 1.00000000E+00	 1.00000000E+00	 5.00000000E-01
					 7.50000000E-01	 1.00000000E+00	-5.96046000E-08
					 7.50000000E-01	 5.00000000E-01	-5.96046000E-08
					 7.50000000E-01	 5.00000000E-01	 1.00000000E+00
					 7.50000000E-01	 1.00000000E+00	 1.00000000E+00
					 5.00000000E-01	 7.50000000E-01	-5.96046000E-08
					 5.00000000E-01	 5.00000000E-01	 5.00000000E-01
					 5.00000000E-01	 7.50000000E-01	 1.00000000E+00
					 5.00000000E-01	 1.00000000E+00	 5.00000000E-01
					 1.00000000E+00	-1.49012000E-08	-5.96046000E-08
					 1.00000000E+00	-1.49012000E-08	 1.00000000E+00
					 5.00000000E-01	-1.49012000E-08	-5.96046000E-08
					 5.00000000E-01	-1.49012000E-08	 1.00000000E+00
					 1.00000000E+00	 2.50000000E-01	-5.96046000E-08
					 1.00000000E+00	-1.49012000E-08	 5.00000000E-01
					 1.00000000E+00	 2.50000000E-01	 1.00000000E+00
					 7.50000000E-01	-1.49012000E-08	-5.96046000E-08
					 7.50000000E-01	-1.49012000E-08	 1.00000000E+00
					 5.00000000E-01	 2.50000000E-01	-5.96046000E-08
					 5.00000000E-01	-1.49012000E-08	 5.00000000E-01
					 5.00000000E-01	 2.50000000E-01	 1.00000000E+00
					-7.45058000E-09	 1.00000000E+00	-5.96046000E-08
					-7.45058000E-09	 5.00000000E-01	-5.96046000E-08
					-7.45058000E-09	 5.00000000E-01	 1.00000000E+00
					-7.45058000E-09	 1.00000000E+00	 1.00000000E+00
					 2.50000000E-01	 1.00000000E+00	-5.96046000E-08
					 2.50000000E-01	 5.00000000E-01	-5.96046000E-08
					 2.50000000E-01	 5.00000000E-01	 1.00000000E+00
					 2.50000000E-01	 1.00000000E+00	 1.00000000E+00
					-7.45058000E-09	 7.50000000E-01	-5.96046000E-08
					-7.45058000E-09	 5.00000000E-01	 5.00000000E-01
					-7.45058000E-09	 7.50000000E-01	 1.00000000E+00
					-7.45058000E-09	 1.00000000E+00	 5.00000000E-01
					-7.45058000E-09	-1.49012000E-08	-5.96046000E-08
					-7.45058000E-09	-1.49012000E-08	 1.00000000E+00
					 2.50000000E-01	-1.49012000E-08	-5.96046000E-08
					 2.50000000E-01	-1.49012000E-08	 1.00000000E+00
					-7.45058000E-09	 2.50000000E-01	-5.96046000E-08
					-7.45058000E-09	-1.49012000E-08	 5.00000000E-01
					-7.45058000E-09	 2.50000000E-01	 1.00000000E+00
					 1.00000000E+00	 5.00000000E-01	 2.00000000E+00
					 1.00000000E+00	 1.00000000E+00	 2.00000000E+00
					 5.00000000E-01	 5.00000000E-01	 2.00000000E+00
					 5.00000000E-01	 1.00000000E+00	 2.00000000E+00
					 1.00000000E+00	 5.00000000E-01	 1.50000000E+00
					 1.00000000E+00	 7.50000000E-01	 2.00000000E+00
					 1.00000000E+00	 1.00000000E+00	 1.50000000E+00
					 7.50000000E-01	 5.00000000E-01	 2.00000000E+00
					 7.50000000E-01	 1.00000000E+00	 2.00000000E+00
					 5.00000000E-01	 5.00000000E-01	 1.50000000E+00
					 5.00000000E-01	 7.50000000E-01	 2.00000000E+00
					 5.00000000E-01	 1.00000000E+00	 1.50000000E+00
					 1.00000000E+00	-1.49012000E-08	 2.00000000E+00
					 5.00000000E-01	-1.49012000E-08	 2.00000000E+00
					 1.00000000E+00	-1.49012000E-08	 1.50000000E+00
					 1.00000000E+00	 2.50000000E-01	 2.00000000E+00
					 7.50000000E-01	-1.49012000E-08	 2.00000000E+00
					 5.00000000E-01	-1.49012000E-08	 1.50000000E+00
					 5.00000000E-01	 2.50000000E-01	 2.00000000E+00
					-7.45058000E-09	 5.00000000E-01	 2.00000000E+00
					-7.45058000E-09	 1.00000000E+00	 2.00000000E+00
					 2.50000000E-01	 5.00000000E-01	 2.00000000E+00
					 2.50000000E-01	 1.00000000E+00	 2.00000000E+00
					-7.45058000E-09	 5.00000000E-01	 1.50000000E+00
					-7.45058000E-09	 7.50000000E-01	 2.00000000E+00
					-7.45058000E-09	 1.00000000E+00	 1.50000000E+00
					-7.45058000E-09	-1.49012000E-08	 2.00000000E+00
					 2.50000000E-01	-1.49012000E-08	 2.00000000E+00
					-7.45058000E-09	-1.49012000E-08	 1.50000000E+00
					-7.45058000E-09	 2.50000000E-01	 2.00000000E+00
					 1.00000000E+00	 5.00000000E-01	 3.00000000E+00
					 1.00000000E+00	 1.00000000E+00	 3.00000000E+00
					 5.00000000E-01	 5.00000000E-01	 3.00000000E+00
					 5.00000000E-01	 1.00000000E+00	 3.00000000E+00
					 1.00000000E+00	 5.00000000E-01	 2.50000000E+00
					 1.00000000E+00	 7.50000000E-01	 3.00000000E+00
					 1.00000000E+00	 1.00000000E+00	 2.50000000E+00
					 7.50000000E-01	 5.00000000E-01	 3.00000000E+00
					 7.50000000E-01	 1.00000000E+00	 3.00000000E+00
					 5.00000000E-01	 5.00000000E-01	 2.50000000E+00
					 5.00000000E-01	 7.50000000E-01	 3.00000000E+00
					 5.00000000E-01	 1.00000000E+00	 2.50000000E+00
					 1.00000000E+00	-1.49012000E-08	 3.00000000E+00
					 5.00000000E-01	-1.49012000E-08	 3.00000000E+00
					 1.00000000E+00	-1.49012000E-08	 2.50000000E+00
					 1.00000000E+00	 2.50000000E-01	 3.00000000E+00
					 7.50000000E-01	-1.49012000E-08	 3.00000000E+00
					 5.00000000E-01	-1.49012000E-08	 2.50000000E+00
					 5.00000000E-01	 2.50000000E-01	 3.00000000E+00
					-7.45058000E-09	 5.00000000E-01	 3.00000000E+00
					-7.45058000E-09	 1.00000000E+00	 3.00000000E+00
					 2.50000000E-01	 5.00000000E-01	 3.00000000E+00
					 2.50000000E-01	 1.00000000E+00	 3.00000000E+00
					-7.45058000E-09	 5.00000000E-01	 2.50000000E+00
					-7.45058000E-09	 7.50000000E-01	 3.00000000E+00
					-7.45058000E-09	 1.00000000E+00	 2.50000000E+00
					-7.45058000E-09	-1.49012000E-08	 3.00000000E+00
					 2.50000000E-01	-1.49012000E-08	 3.00000000E+00
					-7.45058000E-09	-1.49012000E-08	 2.50000000E+00
					-7.45058000E-09	 2.50000000E-01	 3.00000000E+00
					 1.00000000E+00	 5.00000000E-01	 4.00000000E+00
					 1.00000000E+00	 1.00000000E+00	 4.00000000E+00
					 5.00000000E-01	 5.00000000E-01	 4.00000000E+00
					 5.00000000E-01	 1.00000000E+00	 4.00000000E+00
					 1.00000000E+00	 5.00000000E-01	 3.50000000E+00
					 1.00000000E+00	 7.50000000E-01	 4.00000000E+00
					 1.00000000E+00	 1.00000000E+00	 3.50000000E+00
					 7.50000000E-01	 5.00000000E-01	 4.00000000E+00
					 7.50000000E-01	 1.00000000E+00	 4.00000000E+00
					 5.00000000E-01	 5.00000000E-01	 3.50000000E+00
					 5.00000000E-01	 7.50000000E-01	 4.00000000E+00
					 5.00000000E-01	 1.00000000E+00	 3.50000000E+00
					 1.00000000E+00	-1.49012000E-08	 4.00000000E+00
					 5.00000000E-01	-1.49012000E-08	 4.00000000E+00
					 1.00000000E+00	-1.49012000E-08	 3.50000000E+00
					 1.00000000E+00	 2.50000000E-01	 4.00000000E+00
					 7.50000000E-01	-1.49012000E-08	 4.00000000E+00
					 5.00000000E-01	-1.49012000E-08	 3.50000000E+00
					 5.00000000E-01	 2.50000000E-01	 4.00000000E+00
					-7.45058000E-09	 5.00000000E-01	 4.00000000E+00
					-7.45058000E-09	 1.00000000E+00	 4.00000000E+00
					 2.50000000E-01	 5.00000000E-01	 4.00000000E+00
					 2.50000000E-01	 1.00000000E+00	 4.00000000E+00
					-7.45058000E-09	 5.00000000E-01	 3.50000000E+00
					-7.45058000E-09	 7.50000000E-01	 4.00000000E+00
					-7.45058000E-09	 1.00000000E+00	 3.50000000E+00
					-7.45058000E-09	-1.49012000E-08	 4.00000000E+00
					 2.50000000E-01	-1.49012000E-08	 4.00000000E+00
					-7.45058000E-09	-1.49012000E-08	 3.50000000E+00
					-7.45058000E-09	 2.50000000E-01	 4.00000000E+00
					 1.00000000E+00	 5.00000000E-01	 5.00000000E+00
					 1.00000000E+00	 1.00000000E+00	 5.00000000E+00
					 5.00000000E-01	 5.00000000E-01	 5.00000000E+00
					 5.00000000E-01	 1.00000000E+00	 5.00000000E+00
					 1.00000000E+00	 5.00000000E-01	 4.50000000E+00
					 1.00000000E+00	 7.50000000E-01	 5.00000000E+00
					 1.00000000E+00	 1.00000000E+00	 4.50000000E+00
					 7.50000000E-01	 5.00000000E-01	 5.00000000E+00
					 7.50000000E-01	 1.00000000E+00	 5.00000000E+00
					 5.00000000E-01	 5.00000000E-01	 4.50000000E+00
					 5.00000000E-01	 7.50000000E-01	 5.00000000E+00
					 5.00000000E-01	 1.00000000E+00	 4.50000000E+00
					 1.00000000E+00	-1.49012000E-08	 5.00000000E+00
					 5.00000000E-01	-1.49012000E-08	 5.00000000E+00
					 1.00000000E+00	-1.49012000E-08	 4.50000000E+00
					 1.00000000E+00	 2.50000000E-01	 5.00000000E+00
					 7.50000000E-01	-1.49012000E-08	 5.00000000E+00
					 5.00000000E-01	-1.49012000E-08	 4.50000000E+00
					 5.00000000E-01	 2.50000000E-01	 5.00000000E+00
					-7.45058000E-09	 5.00000000E-01	 5.00000000E+00
					-7.45058000E-09	 1.00000000E+00	 5.00000000E+00
					 2.50000000E-01	 5.00000000E-01	 5.00000000E+00
					 2.50000000E-01	 1.00000000E+00	 5.00000000E+00
					-7.45058000E-09	 5.00000000E-01	 4.50000000E+00
					-7.45058000E-09	 7.50000000E-01	 5.00000000E+00
					-7.45058000E-09	 1.00000000E+00	 4.50000000E+00
					-7.45058000E-09	-1.49012000E-08	 5.00000000E+00
					 2.50000000E-01	-1.49012000E-08	 5.00000000E+00
					-7.45058000E-09	-1.49012000E-08	 4.50000000E+00
					-7.45058000E-09	 2.50000000E-01	 5.00000000E+00
					 1.00000000E+00	 5.00000000E-01	 6.00000000E+00
					 1.00000000E+00	 1.00000000E+00	 6.00000000E+00
					 5.00000000E-01	 5.00000000E-01	 6.00000000E+00
					 5.00000000E-01	 1.00000000E+00	 6.00000000E+00
					 1.00000000E+00	 5.00000000E-01	 5.50000000E+00
					 1.00000000E+00	 7.50000000E-01	 6.00000000E+00
					 1.00000000E+00	 1.00000000E+00	 5.50000000E+00
					 7.50000000E-01	 5.00000000E-01	 6.00000000E+00
					 7.50000000E-01	 1.00000000E+00	 6.00000000E+00
					 5.00000000E-01	 5.00000000E-01	 5.50000000E+00
					 5.00000000E-01	 7.50000000E-01	 6.00000000E+00
					 5.00000000E-01	 1.00000000E+00	 5.50000000E+00
					 1.00000000E+00	-1.49012000E-08	 6.00000000E+00
[...]
			<PointData>
				<DataArray type="Float32" Name="U" NumberOfComponents="3" ComponentName0="D1" ComponentName1="D2" ComponentName2="D3" format="ascii">
					 0.00000000E+00	 0.00000000E+00	 0.00000000E+00
					 0.00000000E+00	 0.00000000E+00	 0.00000000E+00
					-8.54520000E-06	-1.20122000E-04	 2.69401000E-05
					-1.14049000E-03	-2.67088000E-04	 1.57213000E-03
					 0.00000000E+00	 0.00000000E+00	 0.00000000E+00
					 0.00000000E+00	 0.00000000E+00	 0.00000000E+00
					-5.22974000E-06	-1.10862000E-03	 2.31014000E-05
					-8.51831000E-04	-1.25786000E-03	 1.56510000E-03
					 0.00000000E+00	 0.00000000E+00	 0.00000000E+00
					-3.34936000E-06	 4.07337000E-04	 1.44224000E-05
					-5.76112000E-04	-1.50031000E-04	 8.97096000E-04
					-6.83011000E-04	 2.55139000E-04	 6.82139000E-04
					 0.00000000E+00	 0.00000000E+00	 0.00000000E+00
					 0.00000000E+00	 0.00000000E+00	 0.00000000E+00
					-6.19405000E-06	-6.57956000E-04	 2.42359000E-05
					-9.94454000E-04	-8.03714000E-04	 1.49106000E-03
					 0.00000000E+00	 0.00000000E+00	 0.00000000E+00
					 9.98336000E-07	-1.60735000E-04	 1.22722000E-05
					-4.27543000E-04	-1.13870000E-03	 8.16128000E-04
					-4.61011000E-04	-3.00183000E-04	 6.48859000E-04
					 0.00000000E+00	 0.00000000E+00	 0.00000000E+00
					 1.12112000E-03	-2.55663000E-04	-1.51972000E-03
					 0.00000000E+00	 0.00000000E+00	 0.00000000E+00
					 8.40116000E-04	-1.24488000E-03	-1.52248000E-03
					 0.00000000E+00	 0.00000000E+00	 0.00000000E+00
					 6.67872000E-04	 2.58862000E-04	-6.53462000E-04
					 5.58767000E-04	-1.44745000E-04	-8.44722000E-04
					 0.00000000E+00	 0.00000000E+00	 0.00000000E+00
					 9.79772000E-04	-7.90944000E-04	-1.44333000E-03
					 0.00000000E+00	 0.00000000E+00	 0.00000000E+00
					 4.55281000E-04	-2.88723000E-04	-6.23611000E-04
					 4.16613000E-04	-1.13174000E-03	-7.71283000E-04
					 0.00000000E+00	 0.00000000E+00	 0.00000000E+00
					 0.00000000E+00	 0.00000000E+00	 0.00000000E+00
					-3.99169000E-06	-1.81338000E-03	 1.97679000E-05
					-5.55051000E-04	-1.95114000E-03	 1.56389000E-03
					 0.00000000E+00	 0.00000000E+00	 0.00000000E+00
					 0.00000000E+00	 0.00000000E+00	 0.00000000E+00
					-4.48147000E-06	-1.50313000E-03	 2.21411000E-05
					-7.03765000E-04	-1.64854000E-03	 1.62075000E-03
					 0.00000000E+00	 0.00000000E+00	 0.00000000E+00
					 2.89911000E-06	-5.07982000E-04	 1.08145000E-05
					-2.80197000E-04	-1.83848000E-03	 7.56505000E-04
					-2.13269000E-04	-6.39063000E-04	 6.79957000E-04
					 0.00000000E+00	 0.00000000E+00	 0.00000000E+00
					 5.47445000E-04	-1.93902000E-03	-1.52963000E-03
					 0.00000000E+00	 0.00000000E+00	 0.00000000E+00
					 6.94259000E-04	-1.63593000E-03	-1.58267000E-03
					 0.00000000E+00	 0.00000000E+00	 0.00000000E+00
					 2.11786000E-04	-6.21363000E-04	-6.57116000E-04
					 2.72583000E-04	-1.83152000E-03	-7.18057000E-04
					-1.57011000E-05	-4.49268000E-03	 3.54540000E-05
					-1.92250000E-03	-4.68841000E-03	 3.81721000E-03
					-1.12674000E-05	-6.22048000E-03	 2.14267000E-05
					-1.55970000E-03	-6.41672000E-03	 3.80141000E-03
					-1.24580000E-05	-1.71842000E-03	 3.40913000E-05
					-9.68676000E-04	-4.54876000E-03	 1.97387000E-03
					-1.54211000E-03	-1.89154000E-03	 2.65474000E-03
					-1.39072000E-05	-5.39878000E-03	 2.83976000E-05
					-1.74165000E-03	-5.59573000E-03	 3.76127000E-03
					-8.71757000E-06	-3.07722000E-03	 2.50180000E-05
					-7.86351000E-04	-6.27605000E-03	 1.91146000E-03
					-1.19740000E-03	-3.25189000E-03	 2.63939000E-03
					 1.89606000E-03	-4.64041000E-03	-3.74875000E-03
					 1.54308000E-03	-6.37676000E-03	-3.75963000E-03
					 1.52148000E-03	-1.86333000E-03	-2.58643000E-03
					 9.38079000E-04	-4.52260000E-03	-1.90352000E-03
					 1.72007000E-03	-5.55305000E-03	-3.70663000E-03
					 1.18557000E-03	-3.23096000E-03	-2.59119000E-03
					 7.65638000E-04	-6.25621000E-03	-1.86881000E-03
					-6.30462000E-06	-7.59509000E-03	 9.51489000E-06
					-1.20159000E-03	-7.78854000E-03	 3.79419000E-03
					-8.73170000E-06	-6.95106000E-03	 1.46005000E-05
					-1.38045000E-03	-7.14597000E-03	 3.84696000E-03
					-6.31812000E-06	-4.10158000E-03	 1.84766000E-05
					-6.04463000E-04	-7.64817000E-03	 1.85275000E-03
					-8.59683000E-04	-4.27382000E-03	 2.63815000E-03
					 1.19453000E-03	-7.75552000E-03	-3.77501000E-03
					 1.36889000E-03	-7.10795000E-03	-3.81795000E-03
					 8.55022000E-04	-4.26139000E-03	-2.60521000E-03
					 5.93001000E-04	-7.63413000E-03	-1.83342000E-03
					-8.32218000E-06	-1.36553000E-02	 8.79454000E-06
					-2.63021000E-03	-1.38969000E-02	 6.23387000E-03
					 1.78831000E-07	-1.60709000E-02	-1.40276000E-05
					-2.21568000E-03	-1.63177000E-02	 6.20079000E-03
					-1.44218000E-05	-8.47351000E-03	 2.69427000E-05
					-1.31894000E-03	-1.37267000E-02	 3.19348000E-03
					-2.28186000E-03	-8.69523000E-03	 4.99467000E-03
					-2.98580000E-06	-1.49129000E-02	-2.81935000E-06
					-2.42172000E-03	-1.51573000E-02	 6.16372000E-03
					-8.42730000E-06	-1.05602000E-02	 9.59837000E-06
					-1.10840000E-03	-1.61456000E-02	 3.11370000E-03
					-1.91090000E-03	-1.07789000E-02	 4.97547000E-03
					 2.60841000E-03	-1.38027000E-02	-6.22114000E-03
					 2.21499000E-03	-1.62220000E-02	-6.23400000E-03
					 2.25346000E-03	-8.62872000E-03	-4.94563000E-03
					 1.30085000E-03	-1.36783000E-02	-3.17635000E-03
					 2.41184000E-03	-1.50625000E-02	-6.17497000E-03
					 1.89643000E-03	-1.07155000E-02	-4.95909000E-03
					 1.10831000E-03	-1.60958000E-02	-3.14286000E-03
					 3.68712000E-06	-1.80864000E-02	-3.45919000E-05
					-1.81751000E-03	-1.83366000E-02	 6.19134000E-03
					 2.18073000E-06	-1.71287000E-02	-2.43369000E-05
					-2.01742000E-03	-1.73758000E-02	 6.23532000E-03
					-3.49480000E-06	-1.22813000E-02	-5.16983000E-06
					-9.05366000E-04	-1.81627000E-02	 3.05838000E-03
					-1.54343000E-03	-1.25009000E-02	 4.96647000E-03
					 1.82966000E-03	-1.82473000E-02	-6.26570000E-03
					 2.02341000E-03	-1.72823000E-02	-6.28804000E-03
					 1.54008000E-03	-1.24416000E-02	-4.97762000E-03
					 9.15302000E-04	-1.81163000E-02	-3.12984000E-03
					 6.66297000E-06	-2.85181000E-02	-9.65744000E-05
					-2.99267000E-03	-2.88273000E-02	 9.12346000E-03
					 1.43330000E-05	-3.12593000E-02	-1.33437000E-04
					-2.48721000E-03	-3.15835000E-02	 9.09242000E-03
					-2.51257000E-06	-2.01928000E-02	-2.61336000E-05
					-1.48792000E-03	-2.86095000E-02	 4.50350000E-03
					-2.91832000E-03	-2.04681000E-02	 7.63758000E-03
					 9.90567000E-06	-2.99487000E-02	-1.17236000E-04
					-2.74259000E-03	-3.02719000E-02	 9.11512000E-03
					 3.16400000E-06	-2.28649000E-02	-5.80380000E-05
					-1.23774000E-03	-3.13581000E-02	 4.47956000E-03
					-2.44507000E-03	-2.31534000E-02	 7.59392000E-03
					 3.00597000E-03	-2.86423000E-02	-9.32474000E-03
					 2.51654000E-03	-3.14045000E-02	-9.36909000E-03
					 2.91059000E-03	-2.03319000E-02	-7.69991000E-03
					 1.49906000E-03	-2.85176000E-02	-4.70053000E-03
					 2.76427000E-03	-3.00905000E-02	-9.35599000E-03
					 2.44877000E-03	-2.30201000E-02	-7.72033000E-03
					 1.26552000E-03	-3.12699000E-02	-4.74902000E-03
					 1.87338000E-05	-3.35246000E-02	-1.55310000E-04
					-2.00703000E-03	-3.38537000E-02	 9.06496000E-03
					 1.75801000E-05	-3.24556000E-02	-1.45670000E-04
					-2.24493000E-03	-3.27811000E-02	 9.06895000E-03
					 4.71325000E-06	-2.50841000E-02	-8.27603000E-05
					-9.95156000E-04	-3.36271000E-02	 4.46395000E-03
					-1.99951000E-03	-2.53842000E-02	 7.58227000E-03
					 2.04458000E-03	-3.36747000E-02	-9.38816000E-03
					 2.27972000E-03	-3.26022000E-02	-9.37499000E-03
					 2.00540000E-03	-2.52469000E-02	-7.75832000E-03
					 1.03161000E-03	-3.35387000E-02	-4.77537000E-03
					 5.57811000E-05	-5.09399000E-02	-3.35029000E-04
					-2.24863000E-03	-5.12341000E-02	 1.15808000E-02
					 5.27936000E-05	-5.30886000E-02	-3.66761000E-04
					-1.96460000E-03	-5.33865000E-02	 1.15824000E-02
					 2.25510000E-05	-3.88691000E-02	-2.02775000E-04
					-1.09462000E-03	-5.10473000E-02	 5.48518000E-03
					-2.74143000E-03	-3.91716000E-02	 1.05161000E-02
					 5.60781000E-05	-5.20504000E-02	-3.48883000E-04
					-2.10449000E-03	-5.23517000E-02	 1.16605000E-02
					 3.24610000E-05	-4.14174000E-02	-2.34874000E-04
					-9.58366000E-04	-5.31992000E-02	 5.54449000E-03
					-2.30198000E-03	-4.17295000E-02	 1.05088000E-02
					 2.36318000E-03	-5.09177000E-02	-1.22607000E-02
					 2.08022000E-03	-5.30772000E-02	-1.23237000E-02
					 2.80030000E-03	-3.89085000E-02	-1.09194000E-02
					 1.20836000E-03	-5.08928000E-02	-6.15481000E-03
					 2.22147000E-03	-5.20331000E-02	-1.23722000E-02
					 2.38339000E-03	-4.14841000E-02	-1.09816000E-02
					 1.06781000E-03	-5.30443000E-02	-6.28001000E-03
					 4.90774000E-05	-5.49748000E-02	-3.97113000E-04
					-1.69621000E-03	-5.52635000E-02	 1.15185000E-02
					 4.96765000E-05	-5.40665000E-02	-3.83759000E-04
					-1.83248000E-03	-5.43600000E-02	 1.15146000E-02
					 4.08317000E-05	-4.35550000E-02	-2.63844000E-04
					-8.26465000E-04	-5.50818000E-02	 5.53541000E-03
					-1.88633000E-03	-4.38562000E-02	 1.04530000E-02
					 1.80932000E-03	-5.49720000E-02	-1.23188000E-02
					 1.94592000E-03	-5.40600000E-02	-1.22831000E-02
					 1.98955000E-03	-4.36388000E-02	-1.09852000E-02
					 9.29588000E-04	-5.49363000E-02	-6.33553000E-03
					 9.62133000E-05	-7.77602000E-02	-6.96661000E-04
					-1.04975000E-03	-7.79111000E-02	 1.19715000E-02
					 1.05457000E-04	-7.89456000E-02	-7.14065000E-04
					-1.11132000E-03	-7.90776000E-02	 1.19672000E-02
					 8.74694000E-05	-6.41882000E-02	-5.04371000E-04
					-4.83205000E-04	-7.78412000E-02	 5.51273000E-03
					-1.64286000E-03	-6.44041000E-02	 1.20399000E-02
					 9.90198000E-05	-7.83461000E-02	-7.08648000E-04
					-1.07782000E-03	-7.84837000E-02	 1.20466000E-02
					 8.56989000E-05	-6.58541000E-02	-5.35807000E-04
					-5.03716000E-04	-7.90185000E-02	 5.57450000E-03
					-1.54121000E-03	-6.60757000E-02	 1.20446000E-02
					 1.26515000E-03	-7.75824000E-02	-1.33603000E-02
					 1.32272000E-03	-7.87688000E-02	-1.34058000E-02
					 1.80234000E-03	-6.40954000E-02	-1.30700000E-02
					 6.84188000E-04	-7.76856000E-02	-6.90777000E-03
					 1.29299000E-03	-7.81639000E-02	-1.34582000E-02
					 1.69743000E-03	-6.57520000E-02	-1.31285000E-02
					 7.15330000E-04	-7.88710000E-02	-7.00634000E-03
					 1.14335000E-04	-8.01856000E-02	-7.19451000E-04
					-1.17621000E-03	-8.03363000E-02	 1.19259000E-02
					 1.12188000E-04	-7.95548000E-02	-7.16335000E-04
					-1.14539000E-03	-7.96900000E-02	 1.18954000E-02
					 8.14146000E-05	-6.74284000E-02	-5.51684000E-04
					-5.24924000E-04	-8.02714000E-02	 5.60073000E-03
					-1.45132000E-03	-6.76587000E-02	 1.19869000E-02
					 1.37590000E-03	-8.00000000E-02	-1.33742000E-02
					 1.35055000E-03	-7.93750000E-02	-1.33449000E-02
					 1.59163000E-03	-6.73149000E-02	-1.31006000E-02
					 7.44829000E-04	-8.01014000E-02	-7.03874000E-03
					 9.26812000E-05	-1.03329000E-01	-1.01999000E-03
					-2.75354000E-04	-1.03452000E-01	 1.09210000E-02
					 1.07722000E-04	-1.03783000E-01	-1.02600000E-03
					-3.75597000E-04	-1.03854000E-01	 1.09201000E-02
					 9.53084000E-05	-9.09053000E-02	-8.71428000E-04
					-1.07080000E-04	-1.03408000E-01	 4.93686000E-03
					-5.83479000E-04	-9.10470000E-02	 1.14888000E-02
					 9.44766000E-05	-1.03550000E-01	-1.02398000E-03
					-3.30759000E-04	-1.03634000E-01	 1.09490000E-02
					 1.05363000E-04	-9.16667000E-02	-8.78897000E-04
					-1.40752000E-04	-1.03830000E-01	 4.96923000E-03
					-7.06684000E-04	-9.17653000E-02	 1.14687000E-02
					 5.31177000E-04	-1.03134000E-01	-1.29530000E-02
					 6.22566000E-04	-1.03608000E-01	-1.29487000E-02
					 8.20364000E-04	-9.07128000E-02	-1.32057000E-02
					 3.11693000E-04	-1.03244000E-01	-6.96915000E-03
					 5.77274000E-04	-1.03365000E-01	-1.29830000E-02
					 9.44679000E-04	-9.14848000E-02	-1.32215000E-02
					 3.69127000E-04	-1.03715000E-01	-7.00797000E-03
					 1.30145000E-04	-1.04307000E-01	-1.02454000E-03
					-4.50243000E-04	-1.04379000E-01	 1.09400000E-02
					 1.22114000E-04	-1.04028000E-01	-1.02417000E-03
					-4.11054000E-04	-1.04100000E-01	 1.08858000E-02
					 1.21104000E-04	-9.25281000E-02	-8.76674000E-04
					-1.62934000E-04	-1.04354000E-01	 5.02716000E-03
					-8.12907000E-04	-9.26296000E-02	 1.14589000E-02
					 7.08602000E-04	-1.04131000E-01	-1.29930000E-02
					 6.66407000E-04	-1.03857000E-01	-1.29219000E-02
					 1.06805000E-03	-9.23575000E-02	-1.32262000E-02
					 4.22755000E-04	-1.04234000E-01	-7.08073000E-03
					 1.32333000E-04	-1.26831000E-01	-1.32497000E-03
					-5.94633000E-05	-1.26948000E-01	 1.03335000E-02
					 1.38775000E-04	-1.27093000E-01	-1.30860000E-03
					-8.99219000E-05	-1.27216000E-01	 1.04005000E-02
					 1.08065000E-04	-1.15190000E-01	-1.16787000E-03
					 4.27713000E-05	-1.26881000E-01	 4.51047000E-03
					-1.28082000E-04	-1.15295000E-01	 1.05435000E-02
					 1.35802000E-04	-1.26950000E-01	-1.31282000E-03
					-7.40454000E-05	-1.27077000E-01	 1.03642000E-02
					 1.24647000E-04	-1.15467000E-01	-1.16514000E-03
					 3.65152000E-05	-1.27148000E-01	 4.55011000E-03
					-1.76311000E-04	-1.15559000E-01	 1.05861000E-02
					 3.20529000E-04	-1.26725000E-01	-1.29583000E-02
					 3.53918000E-04	-1.26966000E-01	-1.29885000E-02
					 3.69513000E-04	-1.15050000E-01	-1.28849000E-02
					 2.30653000E-04	-1.26781000E-01	-7.14552000E-03
					 3.35018000E-04	-1.26830000E-01	-1.29654000E-02
					 4.30173000E-04	-1.15331000E-01	-1.28943000E-02
					 2.35610000E-04	-1.27026000E-01	-7.15749000E-03
					 1.47096000E-04	-1.27381000E-01	-1.30133000E-03
					-8.54151000E-05	-1.27511000E-01	 1.04439000E-02
					 1.43779000E-04	-1.27254000E-01	-1.30623000E-03
					-8.59663000E-05	-1.27368000E-01	 1.04232000E-02
					 1.40312000E-04	-1.15788000E-01	-1.16490000E-03
					 4.65988000E-05	-1.27442000E-01	 4.58640000E-03
					-1.95453000E-04	-1.15894000E-01	 1.06243000E-02
					 3.27953000E-04	-1.27241000E-01	-1.30753000E-02
					 3.44066000E-04	-1.27115000E-01	-1.30326000E-02
					 4.46263000E-04	-1.15629000E-01	-1.29629000E-02
					 2.27326000E-04	-1.27308000E-01	-7.20288000E-03
					 0.00000000E+00	 0.00000000E+00	 0.00000000E+00
					 0.00000000E+00	 0.00000000E+00	 0.00000000E+00
					 1.50764000E-04	-1.33758000E-02	-4.58418000E-04
					-2.41540000E-03	-1.43459000E-02	 1.31099000E-02
					 0.00000000E+00	 0.00000000E+00	 0.00000000E+00
					 0.00000000E+00	 0.00000000E+00	 0.00000000E+00
					 1.04063000E-04	-1.50073000E-02	-4.28434000E-04
					-6.47937000E-04	-1.60485000E-02	 1.32792000E-02
					 0.00000000E+00	 0.00000000E+00	 0.00000000E+00
					 9.90023000E-05	-2.71300000E-03	-1.84820000E-04
					-1.13348000E-03	-1.35475000E-02	 6.27716000E-03
					-2.26953000E-03	-3.89757000E-03	 6.64920000E-03
					 0.00000000E+00	 0.00000000E+00	 0.00000000E+00
					 0.00000000E+00	 0.00000000E+00	 0.00000000E+00
					 1.27886000E-04	-1.44933000E-02	-4.48873000E-04
					-1.51737000E-03	-1.54976000E-02	 1.31089000E-02
					 0.00000000E+00	 0.00000000E+00	 0.00000000E+00
					 3.60776000E-05	-3.93941000E-03	-1.58447000E-04
					-2.70523000E-04	-1.52027000E-02	 6.28683000E-03
					-2.84994000E-04	-5.13423000E-03	 6.48659000E-03
					 0.00000000E+00	 0.00000000E+00	 0.00000000E+00
					 2.67134000E-03	-1.40069000E-02	-1.40835000E-02
					 0.00000000E+00	 0.00000000E+00	 0.00000000E+00
					 8.47838000E-04	-1.56820000E-02	-1.42044000E-02
					 0.00000000E+00	 0.00000000E+00	 0.00000000E+00
					 2.42570000E-03	-3.85602000E-03	-7.05362000E-03
					 1.42084000E-03	-1.33758000E-02	-7.21235000E-03
					 0.00000000E+00	 0.00000000E+00	 0.00000000E+00
					 1.74999000E-03	-1.51391000E-02	-1.40658000E-02
					 0.00000000E+00	 0.00000000E+00	 0.00000000E+00
					 3.38205000E-04	-5.06604000E-03	-6.82699000E-03
					 4.76249000E-04	-1.50170000E-02	-7.16572000E-03
					 0.00000000E+00	 0.00000000E+00	 0.00000000E+00
					 0.00000000E+00	 0.00000000E+00	 0.00000000E+00
					 5.99179000E-05	-1.48743000E-02	-3.37944000E-04
					 1.13030000E-03	-1.58523000E-02	 1.32260000E-02
					 0.00000000E+00	 0.00000000E+00	 0.00000000E+00
					 0.00000000E+00	 0.00000000E+00	 0.00000000E+00
					 8.01594000E-05	-1.52416000E-02	-3.92713000E-04
					 2.25882000E-04	-1.62503000E-02	 1.33222000E-02
					 0.00000000E+00	 0.00000000E+00	 0.00000000E+00
					-1.89451000E-05	-3.33927000E-03	-1.14168000E-04
					 5.98169000E-04	-1.50470000E-02	 6.23389000E-03
					 1.73907000E-03	-4.52226000E-03	 6.72258000E-03
					 0.00000000E+00	 0.00000000E+00	 0.00000000E+00
					-9.86274000E-04	-1.54806000E-02	-1.39639000E-02
					 0.00000000E+00	 0.00000000E+00	 0.00000000E+00
					-6.28023000E-05	-1.58765000E-02	-1.41774000E-02
					 0.00000000E+00	 0.00000000E+00	 0.00000000E+00
					-1.77740000E-03	-4.41815000E-03	-6.97812000E-03
					-4.66287000E-04	-1.48646000E-02	-6.92582000E-03
					 3.73680000E-04	-5.27372000E-02	-1.51078000E-03
					-2.77525000E-03	-5.40242000E-02	 2.30980000E-02
					 3.42409000E-04	-5.51643000E-02	-1.49878000E-03
					-1.37752000E-03	-5.64571000E-02	 2.31545000E-02
					 2.54798000E-04	-3.02376000E-02	-8.82446000E-04
					-1.20048000E-03	-5.32216000E-02	 1.07488000E-02
					-2.65484000E-03	-3.14547000E-02	 1.85906000E-02
					 3.57752000E-04	-5.41104000E-02	-1.51427000E-03
					-2.07629000E-03	-5.53990000E-02	 2.30829000E-02
					 2.08468000E-04	-3.23173000E-02	-8.57208000E-04
					-5.13276000E-04	-5.56511000E-02	 1.07480000E-02
					-1.04351000E-03	-3.35359000E-02	 1.86687000E-02
					 3.51753000E-03	-5.28145000E-02	-2.61990000E-02
					 2.06478000E-03	-5.52602000E-02	-2.62320000E-02
					 3.13773000E-03	-3.07222000E-02	-2.04366000E-02
					 1.94311000E-03	-5.26189000E-02	-1.37896000E-02
					 2.79429000E-03	-5.42030000E-02	-2.61875000E-02
					 1.46337000E-03	-3.27955000E-02	-2.04681000E-02
					 1.20324000E-03	-5.50599000E-02	-1.37612000E-02
					 3.05784000E-04	-5.61892000E-02	-1.41169000E-03
					 3.85132000E-05	-5.74448000E-02	 2.31938000E-02
					 3.24040000E-04	-5.58337000E-02	-1.46551000E-03
					-6.68048000E-04	-5.71467000E-02	 2.32530000E-02
					 1.63291000E-04	-3.27533000E-02	-7.60679000E-04
					 1.62500000E-04	-5.66472000E-02	 1.07229000E-02
					 5.71338000E-04	-3.39620000E-02	 1.87069000E-02
					 6.16806000E-04	-5.62800000E-02	-2.60958000E-02
					 1.33930000E-03	-5.59267000E-02	-2.62665000E-02
					-2.00804000E-04	-3.32467000E-02	-2.03137000E-02
					 4.62203000E-04	-5.60829000E-02	-1.35596000E-02
					 7.04493000E-04	-1.11278000E-01	-3.43213000E-03
					-2.89658000E-03	-1.12735000E-01	 2.90273000E-02
					 6.90534000E-04	-1.14389000E-01	-3.45148000E-03
					-1.97674000E-03	-1.15955000E-01	 2.90680000E-02
					 5.29779000E-04	-7.99876000E-02	-2.35876000E-03
					-1.09025000E-03	-1.11881000E-01	 1.27141000E-02
					-2.84715000E-03	-8.13936000E-02	 2.65728000E-02
					 7.00626000E-04	-1.12955000E-01	-3.44514000E-03
					-2.43776000E-03	-1.14478000E-01	 2.90003000E-02
					 5.02848000E-04	-8.27616000E-02	-2.36245000E-03
					-6.66818000E-04	-1.15048000E-01	 1.26696000E-02
					-1.67538000E-03	-8.41787000E-02	 2.66273000E-02
					 4.26104000E-03	-1.10684000E-01	-3.59395000E-02
					 3.35938000E-03	-1.13807000E-01	-3.60559000E-02
					 3.89388000E-03	-7.97383000E-02	-3.13687000E-02
					 2.48432000E-03	-1.10870000E-01	-1.95828000E-02
					 3.81064000E-03	-1.12360000E-01	-3.59683000E-02
					 2.68784000E-03	-8.25109000E-02	-3.14291000E-02
					 2.02546000E-03	-1.13991000E-01	-1.96078000E-02
					 6.61219000E-04	-1.16612000E-01	-3.41067000E-03
					-1.15654000E-03	-1.18273000E-01	 2.90387000E-02
					 6.77006000E-04	-1.15631000E-01	-3.44220000E-03
					-1.56832000E-03	-1.17124000E-01	 2.91631000E-02
					 4.77906000E-04	-8.43559000E-02	-2.29327000E-03
					-2.19704000E-04	-1.17317000E-01	 1.25585000E-02
					-5.37413000E-04	-8.57881000E-02	 2.66393000E-02
					 2.44902000E-03	-1.16059000E-01	-3.59730000E-02
					 2.90394000E-03	-1.15039000E-01	-3.61360000E-02
					 1.46799000E-03	-8.41071000E-02	-3.13034000E-02
					 1.54835000E-03	-1.16243000E-01	-1.94385000E-02
					 1.13074000E-03	-1.81605000E-01	-6.05703000E-03
					-3.02004000E-03	-1.82971000E-01	 3.02180000E-02