# vtk DataFile Version 3.0

ASCII
DATASET UNSTRUCTURED_GRID

POINTS 522 double
	 1.00000000E+00	 1.00000000E+00	-5.96046000E-08
	 1.00000000E+00	 5.00000000E-01	-5.96046000E-08
	 1.00000000E+00	 5.00000000E-01	 1.00000000E+00
	 1.00000000E+00	 1.00000000E+00	 1.00000000E+00
	 5.00000000E-01	 1.00000000E+00	-5.96046000E-08
	 5.00000000E-01	 5.00000000E-01	-5.96046000E-08
	 5.00000000E-01	 5.00000000E-01	 1.00000000E+00
	 5.00000000E-01	 1.00000000E+00	 1.00000000E+00
	 1.00000000E+00	 7.50000000E-01	-5.96046000E-08
	 1.00000000E+00	 5.00000000E-01	 5.00000000E-01
	 1.00000000E+00	 7.50000000E-01	 1.00000000E+00
	 1.00000000E+00	 1.00000000E+00	 5.00000000E-01
	 7.50000000E-01	 1.00000000E+00	-5.96046000E-08
	 7.50000000E-01	 5.00000000E-01	-5.96046000E-08
	 7.50000000E-01	 5.00000000E-01	 1.00000000E+00
	 7.50000000E-01	 1.00000000E+00	 1.00000000E+00
	 5.00000000E-01	 7.50000000E-01	-5.96046000E-08
	 5.00000000E-01	 5.00000000E-01	 5.00000000E-01
	 5.00000000E-01	 7.50000000E-01	 1.00000000E+00
	 5.00000000E-01	 1.00000000E+00	 5.00000000E-01
	 1.00000000E+00	-1.49012000E-08	-5.96046000E-08
	 1.00000000E+00	-1.49012000E-08	 1.00000000E+00
	 5.00000000E-01	-1.49012000E-08	-5.96046000E-08
	 5.00000000E-01	-1.49012000E-08	 1.00000000E+00
	 1.00000000E+00	 2.50000000E-01	-5.96046000E-08
	 1.00000000E+00	-1.49012000E-08	 5.00000000E-01
	 1.00000000E+00	 2.50000000E-01	 1.00000000E+00
	 7.50000000E-01	-1.49012000E-08	-5.96046000E-08
	 7.50000000E-01	-1.49012000E-08	 1.00000000E+00
	 5.00000000E-01	 2.50000000E-01	-5.96046000E-08
	 5.00000000E-01	-1.49012000E-08	 5.00000000E-01
	 5.00000000E-01	 2.50000000E-01	 1.00000000E+00
	-7.45058000E-09	 1.00000000E+00	-5.96046000E-08
	-7.45058000E-09	 5.00000000E-01	-5.96046000E-08
	-7.45058000E-09	 5.00000000E-01	 1.00000000E+00
	-7.45058000E-09	 1.00000000E+00	 1.00000000E+00
	 2.50000000E-01	 1.00000000E+00	-5.96046000E-08
	 2.50000000E-01	 5.00000000E-01	-5.96046000E-08
	 2.50000000E-01	 5.00000000E-01	 1.00000000E+00
	 2.50000000E-01	 1.00000000E+00	 1.00000000E+00
	-7.45058000E-09	 7.50000000E-01	-5.96046000E-08
	-7.45058000E-09	 5.00000000E-01	 5.00000000E-01
	-7.45058000E-09	 7.50000000E-01	 1.00000000E+00
	-7.45058000E-09	 1.00000000E+00	 5.00000000E-01
	-7.45058000E-09	-1.49012000E-08	-5.96046000E-08
	-7.45058000E-09	-1.49012000E-08	 1.00000000E+00
	 2.50000000E-01	-1.49012000E-08	-5.96046000E-08
	 2.50000000E-01	-1.49012000E-08	 1.00000000E+00
	-7.45058000E-09	 2.50000000E-01	-5.96046000E-08
	-7.45058000E-09	-1.49012000E-08	 5.00000000E-01
	-7.45058000E-09	 2.50000000E-01	 1.00000000E+00
	 1.00000000E+00	 5.00000000E-01	 2.00000000E+00
	 1.00000000E+00	 1.00000000E+00	 2.00000000E+00
	 5.00000000E-01	 5.00000000E-01	 2.00000000E+00
	 5.00000000E-01	 1.00000000E+00	 2.00000000E+00
	 1.00000000E+00	 5.00000000E-01	 1.50000000E+00
	 1.00000000E+00	 7.50000000E-01	 2.00000000E+00
	 1.00000000E+00	 1.00000000E+00	 1.50000000E+00
	 7.50000000E-01	 5.00000000E-01	 2.00000000E+00
	 7.50000000E-01	 1.00000000E+00	 2.00000000E+00
	 5.00000000E-01	 5.00000000E-01	 1.50000000E+00
	 5.00000000E-01	 7.50000000E-01	 2.00000000E+00
	 5.00000000E-01	 1.00000000E+00	 1.50000000E+00
	 1.00000000E+00	-1.49012000E-08	 2.00000000E+00
	 5.00000000E-01	-1.49012000E-08	 2.00000000E+00
	 1.00000000E+00	-1.49012000E-08	 1.50000000E+00
	 1.00000000E+00	 2.50000000E-01	 2.00000000E+00
	 7.50000000E-01	-1.49012000E-08	 2.00000000E+00
	 5.00000000E-01	-1.49012000E-08	 1.50000000E+00
	 5.00000000E-01	 2.50000000E-01	 2.00000000E+00
	-7.45058000E-09	 5.00000000E-01	 2.00000000E+00
	-7.45058000E-09	 1.00000000E+00	 2.00000000E+00
	 2.50000000E-01	 5.00000000E-01	 2.00000000E+00
	 2.50000000E-01	 1.00000000E+00	 2.00000000E+00
	-7.45058000E-09	 5.00000000E-01	 1.50000000E+00
	-7.45058000E-09	 7.50000000E-01	 2.00000000E+00
	-7.45058000E-09	 1.00000000E+00	 1.50000000E+00
	-7.45058000E-09	-1.49012000E-08	 2.00000000E+00
	 2.50000000E-01	-1.49012000E-08	 2.00000000E+00
	-7.45058000E-09	-1.49012000E-08	 1.50000000E+00
	-7.45058000E-09	 2.50000000E-01	 2.00000000E+00
	 1.00000000E+00	 5.00000000E-01	 3.00000000E+00
	 1.00000000E+00	 1.00000000E+00	 3.00000000E+00
	 5.00000000E-01	 5.00000000E-01	 3.00000000E+00
	 5.00000000E-01	 1.00000000E+00	 3.00000000E+00
	 1.00000000E+00	 5.00000000E-01	 2.50000000E+00
	 1.00000000E+00	 7.50000000E-01	 3.00000000E+00
	 1.00000000E+00	 1.00000000E+00	 2.50000000E+00
	 7.50000000E-01	 5.00000000E-01	 3.00000000E+00
	 7.50000000E-01	 1.00000000E+00	 3.00000000E+00
	 5.00000000E-01	 5.00000000E-01	 2.50000000E+00
	 5.00000000E-01	 7.50000000E-01	 3.00000000E+00
	 5.00000000E-01	 1.00000000E+00	 2.50000000E+00
	 1.00000000E+00	-1.49012000E-08	 3.00000000E+00
	 5.00000000E-01	-1.49012000E-08	 3.00000000E+00
	 1.00000000E+00	-1.49012000E-08	 2.50000000E+00
	 1.00000000E+00	 2.50000000E-01	 3.00000000E+00
	 7.50000000E-01	-1.49012000E-08	 3.00000000E+00
	 5.00000000E-01	-1.49012000E-08	 2.50000000E+00
	 5.00000000E-01	 2.50000000E-01	 3.00000000E+00
	-7.45058000E-09	 5.00000000E-01	 3.00000000E+00
	-7.45058000E-09	 1.00000000E+00	 3.00000000E+00
	 2.50000000E-01	 5.00000000E-01	 3.00000000E+00
	 2.50000000E-01	 1.00000000E+00	 3.00000000E+00
	-7.45058000E-09	 5.00000000E-01	 2.50000000E+00
	-7.45058000E-09	 7.50000000E-01	 3.00000000E+00
	-7.45058000E-09	 1.00000000E+00	 2.50000000E+00
	-7.45058000E-09	-1.49012000E-08	 3.00000000E+00
	 2.50000000E-01	-1.49012000E-08	 3.00000000E+00
	-7.45058000E-09	-1.49012000E-08	 2.50000000E+00
	-7.45058000E-09	 2.50000000E-01	 3.00000000E+00
	 1.00000000E+00	 5.00000000E-01	 4.00000000E+00
	 1.00000000E+00	 1.00000000E+00	 4.00000000E+00
	 5.00000000E-01	 5.00000000E-01	 4.00000000E+00
	 5.00000000E-01	 1.00000000E+00	 4.00000000E+00
	 1.00000000E+00	 5.00000000E-01	 3.50000000E+00
	 1.00000000E+00	 7.50000000E-01	 4.00000000E+00
	 1.00000000E+00	 1.00000000E+00	 3.50000000E+00
	 7.50000000E-01	 5.00000000E-01	 4.00000000E+00
	 7.50000000E-01	 1.00000000E+00	 4.00000000E+00
	 5.00000000E-01	 5.00000000E-01	 3.50000000E+00
	 5.00000000E-01	 7.50000000E-01	 4.00000000E+00
	 5.00000000E-01	 1.00000000E+00	 3.50000000E+00
	 1.00000000E+00	-1.49012000E-08	 4.00000000E+00
	 5.00000000E-01	-1.49012000E-08	 4.00000000E+00
	 1.00000000E+00	-1.49012000E-08	 3.50000000E+00
	 1.00000000E+00	 2.50000000E-01	 4.00000000E+00
	 7.50000000E-01	-1.49012000E-08	 4.00000000E+00
	 5.00000000E-01	-1.49012000E-08	 3.50000000E+00
	 5.00000000E-01	 2.50000000E-01	 4.00000000E+00
	-7.45058000E-09	 5.00000000E-01	 4.00000000E+00
	-7.45058000E-09	 1.00000000E+00	 4.00000000E+00
	 2.50000000E-01	 5.00000000E-01	 4.00000000E+00
	 2.50000000E-01	 1.00000000E+00	 4.00000000E+00
	-7.45058000E-09	 5.00000000E-01	 3.50000000E+00
	-7.45058000E-09	 7.50000000E-01	 4.00000000E+00
	-7.45058000E-09	 1.00000000E+00	 3.50000000E+00
	-7.45058000E-09	-1.49012000E-08	 4.00000000E+00
	 2.50000000E-01	-1.49012000E-08	 4.00000000E+00
	-7.45058000E-09	-1.49012000E-08	 3.50000000E+00
	-7.45058000E-09	 2.50000000E-01	 4.00000000E+00
	 1.00000000E+00	 5.00000000E-01	 5.00000000E+00
	 1.00000000E+00	 1.00000000E+00	 5.00000000E+00
	 5.00000000E-01	 5.00000000E-01	 5.00000000E+00
	 5.00000000E-01	 1.00000000E+00	 5.00000000E+00
	 1.00000000E+00	 5.00000000E-01	 4.50000000E+00
	 1.00000000E+00	 7.50000000E-01	 5.00000000E+00
	 1.00000000E+00	 1.00000000E+00	 4.50000000E+00
	 7.50000000E-01	 5.00000000E-01	 5.00000000E+00
	 7.50000000E-01	 1.00000000E+00	 5.00000000E+00
	 5.00000000E-01	 5.00000000E-01	 4.50000000E+00
	 5.00000000E-01	 7.50000000E-01	 5.00000000E+00
	 5.00000000E-01	 1.00000000E+00	 4.50000000E+00
	 1.00000000E+00	-1.49012000E-08	 5.00000000E+00
	 5.00000000E-01	-1.49012000E-08	 5.00000000E+00
	 1.00000000E+00	-1.49012000E-08	 4.50000000E+00
	 1.00000000E+00	 2.50000000E-01	 5.00000000E+00
	 7.50000000E-01	-1.49012000E-08	 5.00000000E+00
	 5.00000000E-01	-1.49012000E-08	 4.50000000E+00
	 5.00000000E-01	 2.50000000E-01	 5.00000000E+00
	-7.45058000E-09	 5.00000000E-01	 5.00000000E+00
	-7.45058000E-09	 1.00000000E+00	 5.00000000E+00
	 2.50000000E-01	 5.00000000E-01	 5.00000000E+00
	 2.50000000E-01	 1.00000000E+00	 5.00000000E+00
	-7.45058000E-09	 5.00000000E-01	 4.50000000E+00
	-7.45058000E-09	 7.50000000E-01	 5.00000000E+00
	-7.45058000E-09	 1.00000000E+00	 4.50000000E+00
	-7.45058000E-09	-1.49012000E-08	 5.00000000E+00
	 2.50000000E-01	-1.49012000E-08	 5.00000000E+00
	-7.45058000E-09	-1.49012000E-08	 4.50000000E+00
	-7.45058000E-09	 2.50000000E-01	 5.00000000E+00
	 1.00000000E+00	 5.00000000E-01	 6.00000000E+00
	 1.00000000E+00	 1.00000000E+00	 6.00000000E+00
	 5.00000000E-01	 5.00000000E-01	 6.00000000E+00
	 5.00000000E-01	 1.00000000E+00	 6.00000000E+00
	 1.00000000E+00	 5.00000000E-01	 5.50000000E+00
	 1.00000000E+00	 7.50000000E-01	 6.00000000E+00
	 1.00000000E+00	 1.00000000E+00	 5.50000000E+00
	 7.50000000E-01	 5.00000000E-01	 6.00000000E+00
	 7.50000000E-01	 1.00000000E+00	 6.00000000E+00
	 5.00000000E-01	 5.00000000E-01	 5.50000000E+00
	 5.00000000E-01	 7.50000000E-01	 6.00000000E+00
	 5.00000000E-01	 1.00000000E+00	 5.50000000E+00
	 1.00000000E+00	-1.49012000E-08	 6.00000000E+00
	 5.00000000E-01	-1.49012000E-08	 6.00000000E+00
	 1.00000000E+00	-1.49012000E-08	 5.50000000E+00
	 1.00000000E+00	 2.50000000E-01	 6.00000000E+00
	 7.50000000E-01	-1.49012000E-08	 6.00000000E+00
	 5.00000000E-01	-1.49012000E-08	 5.50000000E+00
	 5.00000000E-01	 2.50000000E-01	 6.00000000E+00
	-7.45058000E-09	 5.00000000E-01	 6.00000000E+00
	-7.45058000E-09	 1.00000000E+00	 6.00000000E+00
	 2.50000000E-01	 5.00000000E-01	 6.00000000E+00
	 2.50000000E-01	 1.00000000E+00	 6.00000000E+00
	-7.45058000E-09	 5.00000000E-01	 5.50000000E+00
	-7.45058000E-09	 7.50000000E-01	 6.00000000E+00
	-7.45058000E-09	 1.00000000E+00	 5.50000000E+00
	-7.45058000E-09	-1.49012000E-08	 6.00000000E+00
	 2.50000000E-01	-1.49012000E-08	 6.00000000E+00
	-7.45058000E-09	-1.49012000E-08	 5.50000000E+00
	-7.45058000E-09	 2.50000000E-01	 6.00000000E+00
	 1.00000000E+00	 5.00000000E-01	 7.00000000E+00
[...]
POINT_DATA 522
FIELD U 1
	U 3 522 double
		 0.00000000E+00	 0.00000000E+00	 0.00000000E+00
		 0.00000000E+00	 0.00000000E+00	 0.00000000E+00
		-6.22292000E-06	-6.11215000E-04	 9.88894000E-06
		-9.56917000E-04	-7.56218000E-04	 1.75370000E-03
		 0.00000000E+00	 0.00000000E+00	 0.00000000E+00
		 0.00000000E+00	 0.00000000E+00	 0.00000000E+00
		-6.21057000E-06	-1.40764000E-03	 2.84762000E-06
		-6.54089000E-04	-1.55999000E-03	 1.74958000E-03
		 0.00000000E+00	 0.00000000E+00	 0.00000000E+00
		 1.14962000E-06	 1.93254000E-04	 7.15639000E-06
		-4.82990000E-04	-6.37727000E-04	 9.63136000E-04
		-5.66813000E-04	 2.70674000E-05	 7.89390000E-04
		 0.00000000E+00	 0.00000000E+00	 0.00000000E+00
		 0.00000000E+00	 0.00000000E+00	 0.00000000E+00
		-5.71614000E-06	-1.05527000E-03	 6.21447000E-06
		-8.04040000E-04	-1.20220000E-03	 1.68197000E-03
		 0.00000000E+00	 0.00000000E+00	 0.00000000E+00
		 2.80419000E-06	-2.47581000E-04	 3.02991000E-06
		-3.29517000E-04	-1.43683000E-03	 8.89726000E-04
		-3.15953000E-04	-4.00446000E-04	 7.53465000E-04
		 0.00000000E+00	 0.00000000E+00	 0.00000000E+00
		 9.39533000E-04	-7.51384000E-04	-1.73641000E-03
		 0.00000000E+00	 0.00000000E+00	 0.00000000E+00
		 6.38849000E-04	-1.55111000E-03	-1.74726000E-03
		 0.00000000E+00	 0.00000000E+00	 0.00000000E+00
		 5.65332000E-04	 2.98505000E-05	-7.76265000E-04
		 4.68762000E-04	-6.35324000E-04	-9.44415000E-04
		 0.00000000E+00	 0.00000000E+00	 0.00000000E+00
		 7.88605000E-04	-1.19501000E-03	-1.67141000E-03
		 0.00000000E+00	 0.00000000E+00	 0.00000000E+00
		 3.18728000E-04	-3.95225000E-04	-7.47466000E-04
		 3.15825000E-04	-1.43185000E-03	-8.84783000E-04
		 0.00000000E+00	 0.00000000E+00	 0.00000000E+00
		 0.00000000E+00	 0.00000000E+00	 0.00000000E+00
		-7.84488000E-06	-1.90446000E-03	-5.47712000E-06
		-3.50611000E-04	-2.04930000E-03	 1.73919000E-03
		 0.00000000E+00	 0.00000000E+00	 0.00000000E+00
		 0.00000000E+00	 0.00000000E+00	 0.00000000E+00
		-6.89344000E-06	-1.70125000E-03	-7.74384000E-07
		-5.02969000E-04	-1.85022000E-03	 1.79719000E-03
		 0.00000000E+00	 0.00000000E+00	 0.00000000E+00
		 2.00011000E-06	-4.43319000E-04	-1.33080000E-06
		-1.78596000E-04	-1.93084000E-03	 8.28358000E-04
		-4.12322000E-05	-5.86108000E-04	 7.83763000E-04
		 0.00000000E+00	 0.00000000E+00	 0.00000000E+00
		 3.34503000E-04	-2.04060000E-03	-1.75390000E-03
		 0.00000000E+00	 0.00000000E+00	 0.00000000E+00
		 4.87258000E-04	-1.84148000E-03	-1.80293000E-03
		 0.00000000E+00	 0.00000000E+00	 0.00000000E+00
		 4.36870000E-05	-5.80304000E-04	-7.85947000E-04
		 1.63084000E-04	-1.92551000E-03	-8.40143000E-04
		-1.38254000E-05	-5.66035000E-03	-1.12607000E-05
		-1.50491000E-03	-5.85170000E-03	 4.00909000E-03
		-1.43559000E-05	-6.95744000E-03	-2.62745000E-05
		-1.12496000E-03	-7.15631000E-03	 3.98987000E-03
		-9.95538000E-06	-2.50738000E-03	 2.49865000E-06
		-7.56730000E-04	-5.71095000E-03	 2.01815000E-03
		-1.29909000E-03	-2.67615000E-03	 2.84072000E-03
		-1.42190000E-05	-6.35233000E-03	-1.92720000E-05
		-1.31574000E-03	-6.55153000E-03	 3.98682000E-03
		-1.18142000E-05	-3.61616000E-03	-7.30686000E-06
		-5.71390000E-04	-7.01197000E-03	 1.98969000E-03
		-9.48150000E-04	-3.79318000E-03	 2.82553000E-03
		 1.47951000E-03	-5.81429000E-03	-4.03161000E-03
		 1.10126000E-03	-7.12422000E-03	-4.04168000E-03
		 1.28200000E-03	-2.65642000E-03	-2.83668000E-03
		 7.29153000E-04	-5.69114000E-03	-2.04085000E-03
		 1.29078000E-03	-6.51707000E-03	-4.02534000E-03
		 9.28058000E-04	-3.77897000E-03	-2.84355000E-03
		 5.44040000E-04	-6.99611000E-03	-2.04248000E-03
		-1.42795000E-05	-7.88857000E-03	-3.26466000E-05
		-7.60635000E-04	-8.08806000E-03	 3.98995000E-03
		-1.45830000E-05	-7.46873000E-03	-3.05771000E-05
		-9.42987000E-04	-7.66642000E-03	 3.99742000E-03
		-1.37295000E-05	-4.38224000E-03	-1.52001000E-05
		-3.87700000E-04	-7.94266000E-03	 1.97690000E-03
		-6.19143000E-04	-4.56803000E-03	 2.82387000E-03
		 7.38248000E-04	-8.06167000E-03	-4.05452000E-03
		 9.20396000E-04	-7.63557000E-03	-4.05846000E-03
		 5.95127000E-04	-4.55649000E-03	-2.85941000E-03
		 3.59927000E-04	-7.93240000E-03	-2.04147000E-03
		-6.35602000E-06	-1.62423000E-02	-6.58918000E-05
		-1.50643000E-03	-1.64835000E-02	 6.53291000E-03
		-7.51476000E-06	-1.75396000E-02	-7.53234000E-05
		-1.12418000E-03	-1.77872000E-02	 6.52483000E-03
		-1.75206000E-05	-1.02381000E-02	-3.24525000E-05
		-7.56072000E-04	-1.63129000E-02	 3.22006000E-03
		-1.55250000E-03	-1.04573000E-02	 5.26322000E-03
		-6.32750000E-06	-1.69400000E-02	-7.07642000E-05
		-1.31345000E-03	-1.71840000E-02	 6.53522000E-03
		-1.37582000E-05	-1.15733000E-02	-4.57441000E-05
		-5.64905000E-04	-1.76137000E-02	 3.21787000E-03
		-1.15826000E-03	-1.17988000E-02	 5.24951000E-03
		 1.48894000E-03	-1.63889000E-02	-6.67458000E-03
		 1.10255000E-03	-1.76871000E-02	-6.68419000E-03
		 1.51586000E-03	-1.03924000E-02	-5.32996000E-03
		 7.42828000E-04	-1.62664000E-02	-3.35335000E-03
		 1.29522000E-03	-1.70858000E-02	-6.68710000E-03
		 1.13264000E-03	-1.17324000E-02	-5.33893000E-03
		 5.48023000E-04	-1.75623000E-02	-3.36995000E-03
		-1.06203000E-05	-1.84610000E-02	-8.59603000E-05
		-7.42444000E-04	-1.87135000E-02	 6.51733000E-03
		-8.88323000E-06	-1.80491000E-02	-8.09919000E-05
		-9.35127000E-04	-1.82988000E-02	 6.51471000E-03
		-1.07918000E-05	-1.25299000E-02	-5.58319000E-05
		-3.75085000E-04	-1.85395000E-02	 3.21586000E-03
		-7.71985000E-04	-1.27536000E-02	 5.24079000E-03
		 7.15470000E-04	-1.86055000E-02	-6.69475000E-03
		 9.09870000E-04	-1.81959000E-02	-6.68099000E-03
		 7.58463000E-04	-1.26968000E-02	-5.34690000E-03
		 3.53364000E-04	-1.84808000E-02	-3.39063000E-03
		 1.20825000E-06	-3.21041000E-02	-2.08268000E-04
		-1.45514000E-03	-3.23727000E-02	 8.92398000E-03
		 6.70480000E-06	-3.33780000E-02	-2.14239000E-04
		-1.06053000E-03	-3.36393000E-02	 8.91952000E-03
		-2.12121000E-07	-2.35453000E-02	-1.25898000E-04
		-7.26984000E-04	-3.21922000E-02	 4.35438000E-03
		-1.47606000E-03	-2.37943000E-02	 7.75083000E-03
		 3.11306000E-06	-3.27891000E-02	-2.13975000E-04
		-1.26116000E-03	-3.30549000E-02	 8.91997000E-03
		-1.61528000E-06	-2.48302000E-02	-1.34038000E-04
		-5.28257000E-04	-3.34625000E-02	 4.35170000E-03
		-1.09389000E-03	-2.50800000E-02	 7.74237000E-03
		 1.46800000E-03	-3.22001000E-02	-9.34192000E-03
		 1.08388000E-03	-3.34804000E-02	-9.35144000E-03
		 1.46740000E-03	-2.36800000E-02	-8.01166000E-03
		 7.32638000E-04	-3.21059000E-02	-4.77292000E-03
		 1.27833000E-03	-3.28898000E-02	-9.34800000E-03
		 1.08081000E-03	-2.49592000E-02	-8.02475000E-03
		 5.45186000E-04	-3.33851000E-02	-4.78172000E-03
		 1.22821000E-05	-3.42540000E-02	-2.08729000E-04
		-6.73593000E-04	-3.45126000E-02	 8.91842000E-03
		 1.00177000E-05	-3.38637000E-02	-2.10935000E-04
		-8.63568000E-04	-3.41243000E-02	 8.91927000E-03
		-3.35387000E-06	-2.57228000E-02	-1.31570000E-04
		-3.32690000E-04	-3.43355000E-02	 4.35642000E-03
		-7.10266000E-04	-2.59811000E-02	 7.74860000E-03
		 7.07050000E-04	-3.43629000E-02	-9.34655000E-03
		 8.93082000E-04	-3.39695000E-02	-9.35276000E-03
		 6.87750000E-04	-2.58404000E-02	-8.03111000E-03
		 3.59911000E-04	-3.42648000E-02	-4.77422000E-03
		 5.02793000E-05	-5.31515000E-02	-4.29959000E-04
		-1.16249000E-03	-5.34366000E-02	 1.10631000E-02
		 4.62811000E-05	-5.41858000E-02	-4.32643000E-04
		-8.36253000E-04	-5.44854000E-02	 1.10747000E-02
		 2.41301000E-05	-4.19528000E-02	-3.04836000E-04
		-5.52657000E-04	-5.32502000E-02	 5.26537000E-03
		-1.36592000E-03	-4.22344000E-02	 1.00476000E-02
		 5.01037000E-05	-5.37093000E-02	-4.29512000E-04
		-9.97324000E-04	-5.40066000E-02	 1.11059000E-02
		 2.32695000E-05	-4.31529000E-02	-3.10069000E-04
		-3.96176000E-04	-5.42931000E-02	 5.30299000E-03
		-9.97443000E-04	-4.34395000E-02	 1.00523000E-02
		 1.25632000E-03	-5.31703000E-02	-1.19262000E-02
		 9.24683000E-04	-5.42102000E-02	-1.19454000E-02
		 1.41960000E-03	-4.20016000E-02	-1.06587000E-02
		 6.52622000E-04	-5.31191000E-02	-6.12179000E-03
		 1.09032000E-03	-5.37319000E-02	-1.19719000E-02
		 1.05606000E-03	-4.32132000E-02	-1.06702000E-02
		 4.87221000E-04	-5.41534000E-02	-6.16806000E-03
		 4.06374000E-05	-5.49132000E-02	-4.38921000E-04
		-5.27662000E-04	-5.52153000E-02	 1.10561000E-02
		 4.20837000E-05	-5.45899000E-02	-4.38301000E-04
		-6.84529000E-04	-5.48901000E-02	 1.10427000E-02
		 2.08425000E-05	-4.39972000E-02	-3.16590000E-04
		-2.44094000E-04	-5.50235000E-02	 5.30878000E-03
		-6.43163000E-04	-4.42720000E-02	 1.00381000E-02
		 6.05633000E-04	-5.49374000E-02	-1.19334000E-02
		 7.66410000E-04	-5.46126000E-02	-1.19174000E-02
		 7.07813000E-04	-4.40757000E-02	-1.06636000E-02
		 3.22336000E-04	-5.48815000E-02	-6.18862000E-03
		 8.42154000E-05	-7.91680000E-02	-7.68107000E-04
		-2.96221000E-04	-7.94124000E-02	 1.23212000E-02
		 9.51137000E-05	-7.95025000E-02	-7.59054000E-04
		-1.77781000E-04	-7.97352000E-02	 1.23491000E-02
		 7.56448000E-05	-6.56581000E-02	-5.87827000E-04
		-1.10007000E-04	-7.92719000E-02	 5.65569000E-03
		-7.90738000E-04	-6.59192000E-02	 1.18555000E-02
		 8.73914000E-05	-7.93500000E-02	-7.66909000E-04
		-2.34939000E-04	-7.95861000E-02	 1.24077000E-02
		 7.12894000E-05	-6.63972000E-02	-5.87389000E-04
		-4.17166000E-05	-7.95986000E-02	 5.74530000E-03
		-5.58228000E-04	-6.66697000E-02	 1.18748000E-02
		 4.99666000E-04	-7.90548000E-02	-1.38819000E-02
		 3.72420000E-04	-7.94042000E-02	-1.38878000E-02
		 9.41305000E-04	-6.56131000E-02	-1.30428000E-02
		 2.87984000E-04	-7.90966000E-02	-7.20615000E-03
		 4.35925000E-04	-7.92473000E-02	-1.39594000E-02
		 6.93001000E-04	-6.63595000E-02	-1.30609000E-02
		 2.33922000E-04	-7.94402000E-02	-7.27112000E-03
		 1.05448000E-04	-7.97181000E-02	-7.34533000E-04
		-5.66711000E-05	-7.99555000E-02	 1.23501000E-02
		 1.02274000E-04	-7.96260000E-02	-7.48483000E-04
		-1.19917000E-04	-7.98568000E-02	 1.23014000E-02
		 6.66904000E-05	-6.69129000E-02	-5.75326000E-04
		 2.71972000E-05	-7.98214000E-02	 5.80769000E-03
		-3.39744000E-04	-6.71989000E-02	 1.18590000E-02
		 2.47826000E-04	-7.96129000E-02	-1.38392000E-02
		 3.10347000E-04	-7.95280000E-02	-1.38201000E-02
		 4.58541000E-04	-6.68678000E-02	-1.30282000E-02
		 1.79333000E-04	-7.96491000E-02	-7.28105000E-03
		 1.02847000E-04	-1.07059000E-01	-1.13339000E-03
		 6.26534000E-04	-1.07212000E-01	 1.21189000E-02
		 1.23275000E-04	-1.06584000E-01	-1.11473000E-03
		 5.89445000E-04	-1.06714000E-01	 1.21484000E-02
		 9.28100000E-05	-9.31600000E-02	-9.48805000E-04
		 3.60474000E-04	-1.07141000E-01	 5.43091000E-03
		 2.15097000E-04	-9.33731000E-02	 1.23568000E-02
		 1.08857000E-04	-1.06815000E-01	-1.12280000E-03
		 6.05186000E-04	-1.06954000E-01	 1.21819000E-02
		 1.11863000E-04	-9.30568000E-02	-9.35212000E-04
		 3.55288000E-04	-1.06653000E-01	 5.50123000E-03
		 2.37163000E-04	-9.32392000E-02	 1.23874000E-02
		-3.93484000E-04	-1.06870000E-01	-1.44038000E-02
		-3.23685000E-04	-1.06400000E-01	-1.43888000E-02
		 2.83409000E-05	-9.29904000E-02	-1.42911000E-02
		-1.47735000E-04	-1.06978000E-01	-7.70256000E-03
		-3.61739000E-04	-1.06628000E-01	-1.44481000E-02
		 8.73201000E-06	-9.29112000E-02	-1.42906000E-02
		-1.02696000E-04	-1.06507000E-01	-7.73442000E-03
		 1.46199000E-04	-1.06144000E-01	-1.10069000E-03
		 5.58053000E-04	-1.06267000E-01	 1.21527000E-02
		 1.38180000E-04	-1.06355000E-01	-1.10838000E-03
		 5.78497000E-04	-1.06480000E-01	 1.21107000E-02
		 1.33424000E-04	-9.29298000E-02	-9.10080000E-04
		 3.50589000E-04	-1.06207000E-01	 5.54881000E-03
		 2.65880000E-04	-9.31094000E-02	 1.23959000E-02
		-2.64224000E-04	-1.05967000E-01	-1.43568000E-02
		-2.91255000E-04	-1.06179000E-01	-1.43318000E-02
		-1.35941000E-05	-9.27828000E-02	-1.42388000E-02
		-6.01002000E-05	-1.06070000E-01	-7.74932000E-03
		 1.38335000E-04	-1.33517000E-01	-1.49453000E-03
		 9.23902000E-04	-1.33721000E-01	 1.15391000E-02
		 1.22554000E-04	-1.32746000E-01	-1.46190000E-03
		 8.79212000E-04	-1.32926000E-01	 1.15493000E-02
		 1.14616000E-04	-1.20460000E-01	-1.32066000E-03
		 5.23659000E-04	-1.33622000E-01	 5.03299000E-03
		 8.62785000E-04	-1.20628000E-01	 1.17894000E-02
		 1.29894000E-04	-1.33133000E-01	-1.47242000E-03
		 9.08503000E-04	-1.33315000E-01	 1.15442000E-02
		 1.27537000E-04	-1.19761000E-01	-1.29038000E-03
		 4.99277000E-04	-1.32836000E-01	 5.05123000E-03
		 8.09316000E-04	-1.19905000E-01	 1.18153000E-02
		-6.22087000E-04	-1.33326000E-01	-1.44816000E-02
		-6.18868000E-04	-1.32547000E-01	-1.44170000E-02
		-6.15029000E-04	-1.20295000E-01	-1.44076000E-02
		-2.35592000E-04	-1.33422000E-01	-8.01204000E-03
		-6.21374000E-04	-1.32932000E-01	-1.44375000E-02
		-5.44684000E-04	-1.19593000E-01	-1.43619000E-02
		-2.46180000E-04	-1.32648000E-01	-7.95930000E-03
		 9.89709000E-05	-1.32007000E-01	-1.48243000E-03
		 8.41149000E-04	-1.32200000E-01	 1.15589000E-02
		 1.11947000E-04	-1.32372000E-01	-1.46886000E-03
		 8.53882000E-04	-1.32557000E-01	 1.15504000E-02
		 1.37760000E-04	-1.19109000E-01	-1.30150000E-03
		 4.75759000E-04	-1.32107000E-01	 5.04548000E-03
		 7.70165000E-04	-1.19242000E-01	 1.18153000E-02
		-6.24610000E-04	-1.31789000E-01	-1.44179000E-02
		-6.21733000E-04	-1.32156000E-01	-1.43989000E-02
		-4.86848000E-04	-1.18941000E-01	-1.43564000E-02
		-2.69168000E-04	-1.31897000E-01	-7.97981000E-03
		 0.00000000E+00	 0.00000000E+00	 0.00000000E+00
		 0.00000000E+00	 0.00000000E+00	 0.00000000E+00
		 1.52161000E-04	-1.31743000E-02	-4.71807000E-04
		-2.28217000E-03	-1.41406000E-02	 1.29296000E-02
		 0.00000000E+00	 0.00000000E+00	 0.00000000E+00
		 0.00000000E+00	 0.00000000E+00	 0.00000000E+00
		 1.03145000E-04	-1.46718000E-02	-4.38342000E-04
		-5.16435000E-04	-1.57093000E-02	 1.30960000E-02
		 0.00000000E+00	 0.00000000E+00	 0.00000000E+00
		 1.00689000E-04	-2.63302000E-03	-1.91950000E-04
		-1.06588000E-03	-1.33445000E-02	 6.17098000E-03
		-2.22461000E-03	-3.79733000E-03	 6.53026000E-03
		 0.00000000E+00	 0.00000000E+00	 0.00000000E+00
		 0.00000000E+00	 0.00000000E+00	 0.00000000E+00
		 1.27787000E-04	-1.42243000E-02	-4.59680000E-04
		-1.38502000E-03	-1.52255000E-02	 1.29496000E-02
		 0.00000000E+00	 0.00000000E+00	 0.00000000E+00
		 3.55669000E-05	-3.82808000E-03	-1.65575000E-04
		-2.05291000E-04	-1.48661000E-02	 6.20299000E-03
		-2.62629000E-04	-5.00395000E-03	 6.36648000E-03
		 0.00000000E+00	 0.00000000E+00	 0.00000000E+00
		 2.53733000E-03	-1.38174000E-02	-1.39264000E-02
		 0.00000000E+00	 0.00000000E+00	 0.00000000E+00
		 7.12608000E-04	-1.53553000E-02	-1.40365000E-02
		 0.00000000E+00	 0.00000000E+00	 0.00000000E+00
		 2.38990000E-03	-3.76041000E-03	-6.94694000E-03
		 1.35386000E-03	-1.31805000E-02	-7.13039000E-03
		 0.00000000E+00	 0.00000000E+00	 0.00000000E+00
		 1.61516000E-03	-1.48802000E-02	-1.39256000E-02
		 0.00000000E+00	 0.00000000E+00	 0.00000000E+00
		 3.21620000E-04	-4.94621000E-03	-6.71920000E-03
		 4.08091000E-04	-1.46856000E-02	-7.09938000E-03
		 0.00000000E+00	 0.00000000E+00	 0.00000000E+00
		 0.00000000E+00	 0.00000000E+00	 0.00000000E+00
		 5.76544000E-05	-1.44074000E-02	-3.47202000E-04
		 1.26579000E-03	-1.53794000E-02	 1.30498000E-02
		 0.00000000E+00	 0.00000000E+00	 0.00000000E+00
		 0.00000000E+00	 0.00000000E+00	 0.00000000E+00
		 7.84967000E-05	-1.48396000E-02	-4.02305000E-04
		 3.59243000E-04	-1.58433000E-02	 1.31151000E-02
		 0.00000000E+00	 0.00000000E+00	 0.00000000E+00
		-2.03450000E-05	-3.21614000E-03	-1.22650000E-04
		 6.63980000E-04	-1.45788000E-02	 6.17919000E-03
		 1.72951000E-03	-4.38227000E-03	 6.60071000E-03
		 0.00000000E+00	 0.00000000E+00	 0.00000000E+00
		-1.12733000E-03	-1.50186000E-02	-1.38019000E-02
		 0.00000000E+00	 0.00000000E+00	 0.00000000E+00
		-2.01098000E-04	-1.54832000E-02	-1.39825000E-02
		 0.00000000E+00	 0.00000000E+00	 0.00000000E+00
		-1.76212000E-03	-4.29597000E-03	-6.87124000E-03
		-5.36916000E-04	-1.43991000E-02	-6.88919000E-03
		 3.68466000E-04	-5.23668000E-02	-1.51941000E-03
		-2.57840000E-03	-5.36455000E-02	 2.29773000E-02
		 3.37284000E-04	-5.46045000E-02	-1.51211000E-03
		-1.20382000E-03	-5.58833000E-02	 2.30358000E-02
		 2.57810000E-04	-2.99619000E-02	-8.98207000E-04
		-1.10672000E-03	-5.28489000E-02	 1.06854000E-02
		-2.40958000E-03	-3.11785000E-02	 1.84449000E-02
		 3.53263000E-04	-5.36445000E-02	-1.52629000E-03
		-1.89060000E-03	-5.49180000E-02	 2.29434000E-02
		 2.08058000E-04	-3.18023000E-02	-8.66715000E-04
		-4.27664000E-04	-5.50849000E-02	 1.06628000E-02
		-8.03545000E-04	-3.30129000E-02	 1.85300000E-02
		 3.30626000E-03	-5.24550000E-02	-2.60918000E-02
		 1.87768000E-03	-5.47018000E-02	-2.61356000E-02
		 2.89769000E-03	-3.04609000E-02	-2.03225000E-02
		 1.83767000E-03	-5.22573000E-02	-1.37438000E-02
		 2.59472000E-03	-5.37402000E-02	-2.60667000E-02
		 1.21918000E-03	-3.22866000E-02	-2.03484000E-02
		 1.10590000E-03	-5.45037000E-02	-1.37024000E-02
		 2.99137000E-04	-5.54546000E-02	-1.41863000E-03
		 2.04122000E-04	-5.66911000E-02	 2.30746000E-02
		 3.17933000E-04	-5.51837000E-02	-1.47621000E-03
		-4.97634000E-04	-5.64847000E-02	 2.31621000E-02
		 1.59627000E-04	-3.19952000E-02	-7.63957000E-04
		 2.40053000E-04	-5.59015000E-02	 1.06144000E-02
		 8.27566000E-04	-3.31864000E-02	 1.85725000E-02
		 4.36430000E-04	-5.55398000E-02	-2.59863000E-02
		 1.15515000E-03	-5.52758000E-02	-2.61957000E-02
		-4.72532000E-04	-3.24772000E-02	-2.01845000E-02
		 3.69930000E-04	-5.53493000E-02	-1.34626000E-02
		 6.65215000E-04	-1.09892000E-01	-3.33692000E-03
		-3.25546000E-03	-1.11321000E-01	 2.87191000E-02
		 6.58180000E-04	-1.13343000E-01	-3.38550000E-03
		-2.35045000E-03	-1.14877000E-01	 2.87234000E-02
		 5.00527000E-04	-7.92840000E-02	-2.33372000E-03
		-1.28918000E-03	-1.10491000E-01	 1.26829000E-02
		-2.88271000E-03	-8.06759000E-02	 2.63543000E-02
		 6.64413000E-04	-1.11735000E-01	-3.36405000E-03
		-2.80495000E-03	-1.13226000E-01	 2.86217000E-02
		 4.84222000E-04	-8.20945000E-02	-2.35397000E-03
		-8.70166000E-04	-1.13994000E-01	 1.25549000E-02
		-1.74835000E-03	-8.34909000E-02	 2.63975000E-02
		 4.54531000E-03	-1.09292000E-01	-3.54403000E-02
		 3.66522000E-03	-1.12754000E-01	-3.55762000E-02
		 3.86935000E-03	-7.90375000E-02	-3.10910000E-02
		 2.60710000E-03	-1.09481000E-01	-1.93619000E-02
		 4.10677000E-03	-1.11138000E-01	-3.54253000E-02
		 2.72466000E-03	-8.18348000E-02	-3.11699000E-02
		 2.16355000E-03	-1.12946000E-01	-1.93602000E-02
		 6.37712000E-04	-1.15913000E-01	-3.37908000E-03
		-1.55247000E-03	-1.17555000E-01	 2.86690000E-02
		 6.49212000E-04	-1.14754000E-01	-3.39382000E-03
		-1.95275000E-03	-1.16223000E-01	 2.88479000E-02
		 4.68813000E-04	-8.37599000E-02	-2.30018000E-03
		-4.27194000E-04	-1.16615000E-01	 1.23699000E-02
		-6.36123000E-04	-8.51644000E-02	 2.63972000E-02
		 2.78855000E-03	-1.15352000E-01	-3.55325000E-02
		 3.22540000E-03	-1.14152000E-01	-3.57166000E-02
		 1.55732000E-03	-8.35069000E-02	-3.10607000E-02
		 1.70606000E-03	-1.15546000E-01	-1.91857000E-02
		 1.06944000E-03	-1.78958000E-01	-5.82470000E-03
		-3.76024000E-03	-1.80348000E-01	 3.02377000E-02
		 1.08750000E-03	-1.83684000E-01	-5.93185000E-03
		-3.54170000E-03	-1.85518000E-01	 3.01756000E-02
		 8.26864000E-04	-1.43417000E-01	-4.51532000E-03
		-1.34912000E-03	-1.79610000E-01	 1.21819000E-02
		-3.56962000E-03	-1.44926000E-01	 2.99367000E-02
		 1.07918000E-03	-1.81325000E-01	-5.88082000E-03
		-3.63792000E-03	-1.82878000E-01	 3.01526000E-02
		 8.24489000E-04	-1.47546000E-01	-4.63789000E-03
		-1.10577000E-03	-1.84537000E-01	 1.20315000E-02
		-3.03214000E-03	-1.49008000E-01	 2.99514000E-02
		 5.75432000E-03	-1.77827000E-01	-4.19040000E-02
		 5.44095000E-03	-1.82414000E-01	-4.20498000E-02
		 5.19132000E-03	-1.42532000E-01	-3.90125000E-02
		 3.40976000E-03	-1.78360000E-01	-2.38339000E-02
		 5.59766000E-03	-1.80157000E-01	-4.19289000E-02
		 4.60315000E-03	-1.46624000E-01	-3.91749000E-02
		 3.25005000E-03	-1.82994000E-01	-2.39023000E-02
		 9.58975000E-04	-1.88129000E-01	-6.01448000E-03
		-3.19401000E-03	-1.90309000E-01	 3.00557000E-02
		 1.02742000E-03	-1.85907000E-01	-5.97853000E-03
		-3.36788000E-03	-1.88442000E-01	 3.02079000E-02
		 7.88951000E-04	-1.51097000E-01	-4.73647000E-03
		-1.23457000E-03	-1.89132000E-01	 1.18284000E-02
		-2.34086000E-03	-1.52449000E-01	 2.98492000E-02
		 5.13164000E-03	-1.86720000E-01	-4.20898000E-02