# vtk DataFile Version 3.0

ASCII
DATASET UNSTRUCTURED_GRID

POINTS 522 double
	 1.00000000E+00	 1.00000000E+00	-5.96046000E-08
	 1.00000000E+00	 5.00000000E-01	-5.96046000E-08
	 1.00000000E+00	 5.00000000E-01	 1.00000000E+00
	 1.00000000E+00	 1.00000000E+00	 1.00000000E+00
	 5.00000000E-01	 1.00000000E+00	-5.96046000E-08
	 5.00000000E-01	 5.00000000E-01	-5.96046000E-08
	 5.00000000E-01	 5.00000000E-01	 1.00000000E+00
	 5.00000000E-01	 1.00000000E+00	 1.00000000E+00
	 1.00000000E+00	 7.50000000E-01	-5.96046000E-08
	 1.00000000E+00	 5.00000000E-01	 5.00000000E-01
	 1.00000000E+00	 7.50000000E-01	 1.00000000E+00
	 1.00000000E+00	 1.00000000E+00	 5.00000000E-01
	 7.50000000E-01	 1.00000000E+00	-5.96046000E-08
	 7.50000000E-01	 5.00000000E-01	-5.96046000E-08
	 7.50000000E-01	 5.00000000E-01	 1.00000000E+00
	 7.50000000E-01	 1.00000000E+00	 1.00000000E+00
	 5.00000000E-01	 7.50000000E-01	-5.96046000E-08
	 5.00000000E-01	 5.00000000E-01	 5.00000000E-01
	 5.00000000E-01	 7.50000000E-01	 1.00000000E+00
	 5.00000000E-01	 1.00000000E+00	 5.00000000E-01
	 1.00000000E+00	-1.49012000E-08	-5.96046000E-08
	 1.00000000E+00	-1.49012000E-08	 1.00000000E+00
	 5.00000000E-01	-1.49012000E-08	-5.96046000E-08
	 5.00000000E-01	-1.49012000E-08	 1.00000000E+00
	 1.00000000E+00	 2.50000000E-01	-5.96046000E-08
	 1.00000000E+00	-1.49012000E-08	 5.00000000E-01
	 1.00000000E+00	 2.50000000E-01	 1.00000000E+00
	 7.50000000E-01	-1.49012000E-08	-5.96046000E-08
	 7.50000000E-01	-1.49012000E-08	 1.00000000E+00
	 5.00000000E-01	 2.50000000E-01	-5.96046000E-08
	 5.00000000E-01	-1.49012000E-08	 5.00000000E-01
	 5.00000000E-01	 2.50000000E-01	 1.00000000E+00
	-7.45058000E-09	 1.00000000E+00	-5.96046000E-08
	-7.45058000E-09	 5.00000000E-01	-5.96046000E-08
	-7.45058000E-09	 5.00000000E-01	 1.00000000E+00
	-7.45058000E-09	 1.00000000E+00	 1.00000000E+00
	 2.50000000E-01	 1.00000000E+00	-5.96046000E-08
	 2.50000000E-01	 5.00000000E-01	-5.96046000E-08
	 2.50000000E-01	 5.00000000E-01	 1.00000000E+00
	 2.50000000E-01	 1.00000000E+00	 1.00000000E+00
	-7.45058000E-09	 7.50000000E-01	-5.96046000E-08
	-7.45058000E-09	 5.00000000E-01	 5.00000000E-01
	-7.45058000E-09	 7.50000000E-01	 1.00000000E+00
	-7.45058000E-09	 1.00000000E+00	 5.00000000E-01
	-7.45058000E-09	-1.49012000E-08	-5.96046000E-08
	-7.45058000E-09	-1.49012000E-08	 1.00000000E+00
	 2.50000000E-01	-1.49012000E-08	-5.96046000E-08
	 2.50000000E-01	-1.49012000E-08	 1.00000000E+00
	-7.45058000E-09	 2.50000000E-01	-5.96046000E-08
	-7.45058000E-09	-1.49012000E-08	 5.00000000E-01
	-7.45058000E-09	 2.50000000E-01	 1.00000000E+00
	 1.00000000E+00	 5.00000000E-01	 2.00000000E+00
	 1.00000000E+00	 1.00000000E+00	 2.00000000E+00
	 5.00000000E-01	 5.00000000E-01	 2.00000000E+00
	 5.00000000E-01	 1.00000000E+00	 2.00000000E+00
	 1.00000000E+00	 5.00000000E-01	 1.50000000E+00
	 1.00000000E+00	 7.50000000E-01	 2.00000000E+00
	 1.00000000E+00	 1.00000000E+00	 1.50000000E+00
	 7.50000000E-01	 5.00000000E-01	 2.00000000E+00
	 7.50000000E-01	 1.00000000E+00	 2.00000000E+00
	 5.00000000E-01	 5.00000000E-01	 1.50000000E+00
	 5.00000000E-01	 7.50000000E-01	 2.00000000E+00
	 5.00000000E-01	 1.00000000E+00	 1.50000000E+00
	 1.00000000E+00	-1.49012000E-08	 2.00000000E+00
	 5.00000000E-01	-1.49012000E-08	 2.00000000E+00
	 1.00000000E+00	-1.49012000E-08	 1.50000000E+00
	 1.00000000E+00	 2.50000000E-01	 2.00000000E+00
	 7.50000000E-01	-1.49012000E-08	 2.00000000E+00
	 5.00000000E-01	-1.49012000E-08	 1.50000000E+00
	 5.00000000E-01	 2.50000000E-01	 2.00000000E+00
	-7.45058000E-09	 5.00000000E-01	 2.00000000E+00
	-7.45058000E-09	 1.00000000E+00	 2.00000000E+00
	 2.50000000E-01	 5.00000000E-01	 2.00000000E+00
	 2.50000000E-01	 1.00000000E+00	 2.00000000E+00
	-7.45058000E-09	 5.00000000E-01	 1.50000000E+00
	-7.45058000E-09	 7.50000000E-01	 2.00000000E+00
	-7.45058000E-09	 1.00000000E+00	 1.50000000E+00
	-7.45058000E-09	-1.49012000E-08	 2.00000000E+00
	 2.50000000E-01	-1.49012000E-08	 2.00000000E+00
	-7.45058000E-09	-1.49012000E-08	 1.50000000E+00
	-7.45058000E-09	 2.50000000E-01	 2.00000000E+00
	 1.00000000E+00	 5.00000000E-01	 3.00000000E+00
	 1.00000000E+00	 1.00000000E+00	 3.00000000E+00
	 5.00000000E-01	 5.00000000E-01	 3.00000000E+00
	 5.00000000E-01	 1.00000000E+00	 3.00000000E+00
	 1.00000000E+00	 5.00000000E-01	 2.50000000E+00
	 1.00000000E+00	 7.50000000E-01	 3.00000000E+00
	 1.00000000E+00	 1.00000000E+00	 2.50000000E+00
	 7.50000000E-01	 5.00000000E-01	 3.00000000E+00
	 7.50000000E-01	 1.00000000E+00	 3.00000000E+00
	 5.00000000E-01	 5.00000000E-01	 2.50000000E+00
	 5.00000000E-01	 7.50000000E-01	 3.00000000E+00
	 5.00000000E-01	 1.00000000E+00	 2.50000000E+00
	 1.00000000E+00	-1.49012000E-08	 3.00000000E+00
	 5.00000000E-01	-1.49012000E-08	 3.00000000E+00
	 1.00000000E+00	-1.49012000E-08	 2.50000000E+00
	 1.00000000E+00	 2.50000000E-01	 3.00000000E+00
	 7.50000000E-01	-1.49012000E-08	 3.00000000E+00
	 5.00000000E-01	-1.49012000E-08	 2.50000000E+00
	 5.00000000E-01	 2.50000000E-01	 3.00000000E+00
	-7.45058000E-09	 5.00000000E-01	 3.00000000E+00
	-7.45058000E-09	 1.00000000E+00	 3.00000000E+00
	 2.50000000E-01	 5.00000000E-01	 3.00000000E+00
	 2.50000000E-01	 1.00000000E+00	 3.00000000E+00
	-7.45058000E-09	 5.00000000E-01	 2.50000000E+00
	-7.45058000E-09	 7.50000000E-01	 3.00000000E+00
	-7.45058000E-09	 1.00000000E+00	 2.50000000E+00
	-7.45058000E-09	-1.49012000E-08	 3.00000000E+00
	 2.50000000E-01	-1.49012000E-08	 3.00000000E+00
	-7.45058000E-09	-1.49012000E-08	 2.50000000E+00
	-7.45058000E-09	 2.50000000E-01	 3.00000000E+00
	 1.00000000E+00	 5.00000000E-01	 4.00000000E+00
	 1.00000000E+00	 1.00000000E+00	 4.00000000E+00
	 5.00000000E-01	 5.00000000E-01	 4.00000000E+00
	 5.00000000E-01	 1.00000000E+00	 4.00000000E+00
	 1.00000000E+00	 5.00000000E-01	 3.50000000E+00
	 1.00000000E+00	 7.50000000E-01	 4.00000000E+00
	 1.00000000E+00	 1.00000000E+00	 3.50000000E+00
	 7.50000000E-01	 5.00000000E-01	 4.00000000E+00
	 7.50000000E-01	 1.00000000E+00	 4.00000000E+00
	 5.00000000E-01	 5.00000000E-01	 3.50000000E+00
	 5.00000000E-01	 7.50000000E-01	 4.00000000E+00
	 5.00000000E-01	 1.00000000E+00	 3.50000000E+00
	 1.00000000E+00	-1.49012000E-08	 4.00000000E+00
	 5.00000000E-01	-1.49012000E-08	 4.00000000E+00
	 1.00000000E+00	-1.49012000E-08	 3.50000000E+00
	 1.00000000E+00	 2.50000000E-01	 4.00000000E+00
	 7.50000000E-01	-1.49012000E-08	 4.00000000E+00
	 5.00000000E-01	-1.49012000E-08	 3.50000000E+00
	 5.00000000E-01	 2.50000000E-01	 4.00000000E+00
	-7.45058000E-09	 5.00000000E-01	 4.00000000E+00
	-7.45058000E-09	 1.00000000E+00	 4.00000000E+00
	 2.50000000E-01	 5.00000000E-01	 4.00000000E+00
	 2.50000000E-01	 1.00000000E+00	 4.00000000E+00
	-7.45058000E-09	 5.00000000E-01	 3.50000000E+00
	-7.45058000E-09	 7.50000000E-01	 4.00000000E+00
	-7.45058000E-09	 1.00000000E+00	 3.50000000E+00
	-7.45058000E-09	-1.49012000E-08	 4.00000000E+00
	 2.50000000E-01	-1.49012000E-08	 4.00000000E+00
	-7.45058000E-09	-1.49012000E-08	 3.50000000E+00
	-7.45058000E-09	 2.50000000E-01	 4.00000000E+00
	 1.00000000E+00	 5.00000000E-01	 5.00000000E+00
	 1.00000000E+00	 1.00000000E+00	 5.00000000E+00
	 5.00000000E-01	 5.00000000E-01	 5.00000000E+00
	 5.00000000E-01	 1.00000000E+00	 5.00000000E+00
	 1.00000000E+00	 5.00000000E-01	 4.50000000E+00
	 1.00000000E+00	 7.50000000E-01	 5.00000000E+00
	 1.00000000E+00	 1.00000000E+00	 4.50000000E+00
	 7.50000000E-01	 5.00000000E-01	 5.00000000E+00
	 7.50000000E-01	 1.00000000E+00	 5.00000000E+00
	 5.00000000E-01	 5.00000000E-01	 4.50000000E+00
	 5.00000000E-01	 7.50000000E-01	 5.00000000E+00
	 5.00000000E-01	 1.00000000E+00	 4.50000000E+00
	 1.00000000E+00	-1.49012000E-08	 5.00000000E+00
	 5.00000000E-01	-1.49012000E-08	 5.00000000E+00
	 1.00000000E+00	-1.49012000E-08	 4.50000000E+00
	 1.00000000E+00	 2.50000000E-01	 5.00000000E+00
	 7.50000000E-01	-1.49012000E-08	 5.00000000E+00
	 5.00000000E-01	-1.49012000E-08	 4.50000000E+00
	 5.00000000E-01	 2.50000000E-01	 5.00000000E+00
	-7.45058000E-09	 5.00000000E-01	 5.00000000E+00
	-7.45058000E-09	 1.00000000E+00	 5.00000000E+00
	 2.50000000E-01	 5.00000000E-01	 5.00000000E+00
	 2.50000000E-01	 1.00000000E+00	 5.00000000E+00
	-7.45058000E-09	 5.00000000E-01	 4.50000000E+00
	-7.45058000E-09	 7.50000000E-01	 5.00000000E+00
	-7.45058000E-09	 1.00000000E+00	 4.50000000E+00
	-7.45058000E-09	-1.49012000E-08	 5.00000000E+00
	 2.50000000E-01	-1.49012000E-08	 5.00000000E+00
	-7.45058000E-09	-1.49012000E-08	 4.50000000E+00
	-7.45058000E-09	 2.50000000E-01	 5.00000000E+00
	 1.00000000E+00	 5.00000000E-01	 6.00000000E+00
	 1.00000000E+00	 1.00000000E+00	 6.00000000E+00
	 5.00000000E-01	 5.00000000E-01	 6.00000000E+00
	 5.00000000E-01	 1.00000000E+00	 6.00000000E+00
	 1.00000000E+00	 5.00000000E-01	 5.50000000E+00
	 1.00000000E+00	 7.50000000E-01	 6.00000000E+00
	 1.00000000E+00	 1.00000000E+00	 5.50000000E+00
	 7.50000000E-01	 5.00000000E-01	 6.00000000E+00
	 7.50000000E-01	 1.00000000E+00	 6.00000000E+00
	 5.00000000E-01	 5.00000000E-01	 5.50000000E+00
	 5.00000000E-01	 7.50000000E-01	 6.00000000E+00
	 5.00000000E-01	 1.00000000E+00	 5.50000000E+00
	 1.00000000E+00	-1.49012000E-08	 6.00000000E+00
	 5.00000000E-01	-1.49012000E-08	 6.00000000E+00
	 1.00000000E+00	-1.49012000E-08	 5.50000000E+00
	 1.00000000E+00	 2.50000000E-01	 6.00000000E+00
	 7.50000000E-01	-1.49012000E-08	 6.00000000E+00
	 5.00000000E-01	-1.49012000E-08	 5.50000000E+00
	 5.00000000E-01	 2.50000000E-01	 6.00000000E+00
	-7.45058000E-09	 5.00000000E-01	 6.00000000E+00
	-7.45058000E-09	 1.00000000E+00	 6.00000000E+00
	 2.50000000E-01	 5.00000000E-01	 6.00000000E+00
	 2.50000000E-01	 1.00000000E+00	 6.00000000E+00
	-7.45058000E-09	 5.00000000E-01	 5.50000000E+00
	-7.45058000E-09	 7.50000000E-01	 6.00000000E+00
	-7.45058000E-09	 1.00000000E+00	 5.50000000E+00
	-7.45058000E-09	-1.49012000E-08	 6.00000000E+00
	 2.50000000E-01	-1.49012000E-08	 6.00000000E+00
	-7.45058000E-09	-1.49012000E-08	 5.50000000E+00
	-7.45058000E-09	 2.50000000E-01	 6.00000000E+00
	 1.00000000E+00	 5.00000000E-01	 7.00000000E+00
[...]
POINT_DATA 522
FIELD U 1
	U 3 522 double
		 0.00000000E+00	 0.00000000E+00	 0.00000000E+00
		 0.00000000E+00	 0.00000000E+00	 0.00000000E+00
		-1.04041000E-05	-4.87295000E-04	 1.67376000E-05
		-1.58985000E-03	-7.92317000E-04	 3.07025000E-03
		 0.00000000E+00	 0.00000000E+00	 0.00000000E+00
		 0.00000000E+00	 0.00000000E+00	 0.00000000E+00
		-5.30268000E-06	-1.74798000E-03	 1.12489000E-05
		-9.77078000E-04	-2.06905000E-03	 3.06227000E-03
		 0.00000000E+00	 0.00000000E+00	 0.00000000E+00
		-5.52356000E-06	 7.30563000E-04	 8.38313000E-06
		-8.01163000E-04	-5.49882000E-04	 1.68832000E-03
		-9.69084000E-04	 4.39957000E-04	 1.25784000E-03
		 0.00000000E+00	 0.00000000E+00	 0.00000000E+00
		 0.00000000E+00	 0.00000000E+00	 0.00000000E+00
		-8.10487000E-06	-1.20532000E-03	 1.32413000E-05
		-1.28022000E-03	-1.51739000E-03	 2.96961000E-03
		 0.00000000E+00	 0.00000000E+00	 0.00000000E+00
		-2.26703000E-06	-9.75304000E-06	 5.37462000E-06
		-4.90843000E-04	-1.81472000E-03	 1.58860000E-03
		-5.26674000E-04	-2.79693000E-04	 1.18819000E-03
		 0.00000000E+00	 0.00000000E+00	 0.00000000E+00
		 1.57059000E-03	-7.57679000E-04	-3.03979000E-03
		 0.00000000E+00	 0.00000000E+00	 0.00000000E+00
		 9.67681000E-04	-2.03978000E-03	-3.04148000E-03
		 0.00000000E+00	 0.00000000E+00	 0.00000000E+00
		 9.57087000E-04	 4.51764000E-04	-1.23932000E-03
		 7.80284000E-04	-5.30205000E-04	-1.65683000E-03
		 0.00000000E+00	 0.00000000E+00	 0.00000000E+00
		 1.26661000E-03	-1.48654000E-03	-2.94461000E-03
		 0.00000000E+00	 0.00000000E+00	 0.00000000E+00
		 5.22075000E-04	-2.70046000E-04	-1.17420000E-03
		 4.80398000E-04	-1.79937000E-03	-1.56679000E-03
		 0.00000000E+00	 0.00000000E+00	 0.00000000E+00
		 0.00000000E+00	 0.00000000E+00	 0.00000000E+00
		-1.83498000E-06	-2.43350000E-03	 7.85426000E-06
		-3.65564000E-04	-2.73641000E-03	 3.06294000E-03
		 0.00000000E+00	 0.00000000E+00	 0.00000000E+00
		 0.00000000E+00	 0.00000000E+00	 0.00000000E+00
		-2.85592000E-06	-2.17870000E-03	 9.57671000E-06
		-6.73846000E-04	-2.49115000E-03	 3.11562000E-03
		 0.00000000E+00	 0.00000000E+00	 0.00000000E+00
		-2.21232000E-08	-3.18011000E-04	 5.09395000E-06
		-1.83199000E-04	-2.49400000E-03	 1.53037000E-03
		-5.43065000E-05	-5.77095000E-04	 1.25533000E-03
		 0.00000000E+00	 0.00000000E+00	 0.00000000E+00
		 3.62571000E-04	-2.70694000E-03	-3.04758000E-03
		 0.00000000E+00	 0.00000000E+00	 0.00000000E+00
		 6.67731000E-04	-2.46172000E-03	-3.09735000E-03
		 0.00000000E+00	 0.00000000E+00	 0.00000000E+00
		 5.49630000E-05	-5.66898000E-04	-1.24191000E-03
		 1.80127000E-04	-2.47860000E-03	-1.51481000E-03
		 5.44306000E-06	-1.06780000E-02	-2.32497000E-05
		-1.93550000E-03	-1.10013000E-02	 7.27251000E-03
		 1.01631000E-05	-1.23172000E-02	-3.77916000E-05
		-1.35284000E-03	-1.26553000E-02	 7.27921000E-03
		-5.28448000E-06	-4.27101000E-03	 1.04838000E-05
		-9.58358000E-04	-1.07656000E-02	 3.55201000E-03
		-1.91207000E-03	-4.57890000E-03	 5.23112000E-03
		 8.16747000E-06	-1.15663000E-02	-3.11421000E-05
		-1.64420000E-03	-1.19041000E-02	 7.29462000E-03
		-6.98921000E-07	-5.83362000E-03	 7.07680000E-07
		-6.71849000E-04	-1.24126000E-02	 3.56419000E-03
		-1.24980000E-03	-6.16611000E-03	 5.22809000E-03
		 1.94498000E-03	-1.08809000E-02	-7.32676000E-03
		 1.37013000E-03	-1.25371000E-02	-7.36406000E-03
		 1.90339000E-03	-4.50691000E-03	-5.21677000E-03
		 9.68273000E-04	-1.07079000E-02	-3.59901000E-03
		 1.65941000E-03	-1.17846000E-02	-7.36618000E-03
		 1.24757000E-03	-6.10032000E-03	-5.23258000E-03
		 6.90730000E-04	-1.23553000E-02	-3.64148000E-03
		 1.07456000E-05	-1.34023000E-02	-4.36765000E-05
		-7.82551000E-04	-1.37361000E-02	 7.24868000E-03
		 1.12172000E-05	-1.29311000E-02	-4.23488000E-05
		-1.06783000E-03	-1.32683000E-02	 7.27916000E-03
		 5.23804000E-07	-6.77183000E-03	-4.61049000E-06
		-3.88187000E-04	-1.34975000E-02	 3.53234000E-03
		-6.22372000E-04	-7.11113000E-03	 5.21602000E-03
		 8.00204000E-04	-1.36143000E-02	-7.34569000E-03
		 1.08505000E-03	-1.31488000E-02	-7.37396000E-03
		 6.20670000E-04	-7.04191000E-03	-5.22950000E-03
		 4.08956000E-04	-1.34366000E-02	-3.62119000E-03
		 2.75913000E-05	-2.91582000E-02	-1.74648000E-04
		-1.79243000E-03	-2.94071000E-02	 9.86082000E-03
		 3.10321000E-05	-3.08668000E-02	-1.98250000E-04
		-1.54724000E-03	-3.11018000E-02	 9.86650000E-03
		 1.77059000E-05	-1.92494000E-02	-8.79649000E-05
		-8.87623000E-04	-2.92539000E-02	 4.79941000E-03
		-1.82038000E-03	-1.95470000E-02	 8.82160000E-03
		 2.96135000E-05	-3.00444000E-02	-1.87444000E-04
		-1.66890000E-03	-3.02810000E-02	 9.84936000E-03
		 2.15676000E-05	-2.08852000E-02	-1.06450000E-04
		-7.58212000E-04	-3.09550000E-02	 4.77327000E-03
		-1.41000000E-03	-2.11769000E-02	 8.83797000E-03
		 1.85077000E-03	-2.91832000E-02	-1.02138000E-02
		 1.61875000E-03	-3.08829000E-02	-1.02676000E-02
		 1.85333000E-03	-1.93754000E-02	-9.00260000E-03
		 9.43938000E-04	-2.91421000E-02	-5.15066000E-03
		 1.73371000E-03	-3.00594000E-02	-1.02266000E-02
		 1.45460000E-03	-2.10054000E-02	-9.05860000E-03
		 8.23686000E-04	-3.08466000E-02	-5.17107000E-03
		 3.52117000E-05	-3.23223000E-02	-2.17402000E-04
		-1.29062000E-03	-3.25472000E-02	 9.81666000E-03
		 3.25896000E-05	-3.16236000E-02	-2.07896000E-04
		-1.41861000E-03	-3.18561000E-02	 9.88873000E-03
		 2.35956000E-05	-2.21126000E-02	-1.16411000E-04
		-6.28650000E-04	-3.24021000E-02	 4.69474000E-03
		-9.88476000E-04	-2.23935000E-02	 8.78889000E-03
		 1.37482000E-03	-3.23456000E-02	-1.02574000E-02
		 1.49714000E-03	-3.16419000E-02	-1.03116000E-02
		 1.03986000E-03	-2.22285000E-02	-9.03200000E-03
		 7.02857000E-04	-3.23070000E-02	-5.13012000E-03
		 4.41942000E-05	-5.02994000E-02	-3.74259000E-04
		-2.23659000E-03	-5.04832000E-02	 1.06207000E-02
		 4.83312000E-05	-5.25461000E-02	-4.20415000E-04
		-2.14320000E-03	-5.27184000E-02	 1.05810000E-02
		 3.72850000E-05	-3.96306000E-02	-2.71232000E-04
		-1.09816000E-03	-5.03838000E-02	 5.17234000E-03
		-1.94196000E-03	-3.98504000E-02	 1.03686000E-02
		 4.66129000E-05	-5.14336000E-02	-3.97635000E-04
		-2.19011000E-03	-5.16089000E-02	 1.05456000E-02
		 3.99745000E-05	-4.15553000E-02	-3.03635000E-04
		-1.04790000E-03	-5.26238000E-02	 5.07443000E-03
		-1.80356000E-03	-4.17578000E-02	 1.03532000E-02
		 2.33179000E-03	-5.02185000E-02	-1.13768000E-02
		 2.24911000E-03	-5.24632000E-02	-1.14279000E-02
		 2.02456000E-03	-3.95971000E-02	-1.09177000E-02
		 1.18851000E-03	-5.02478000E-02	-5.92267000E-03
		 2.29162000E-03	-5.13518000E-02	-1.13486000E-02
		 1.89570000E-03	-4.15142000E-02	-1.09664000E-02
		 1.14796000E-03	-5.24960000E-02	-5.91696000E-03
		 5.25953000E-05	-5.46914000E-02	-4.62434000E-04
		-2.04558000E-03	-5.48585000E-02	 1.05328000E-02
		 4.99763000E-05	-5.36293000E-02	-4.41901000E-04
		-2.09363000E-03	-5.38004000E-02	 1.06136000E-02
		 4.36433000E-05	-4.33286000E-02	-3.33908000E-04
		-9.96897000E-04	-5.47636000E-02	 4.97174000E-03
		-1.65356000E-03	-4.35222000E-02	 1.03066000E-02
		 2.16084000E-03	-5.46158000E-02	-1.14623000E-02
		 2.20393000E-03	-5.35479000E-02	-1.15010000E-02
		 1.75639000E-03	-4.32972000E-02	-1.09800000E-02
		 1.10518000E-03	-5.46462000E-02	-5.89912000E-03
		 3.64647000E-05	-7.21834000E-02	-6.04049000E-04
		-3.00097000E-03	-7.23563000E-02	 1.09090000E-02
		 5.07582000E-05	-7.51932000E-02	-6.74488000E-04
		-2.92921000E-03	-7.53608000E-02	 1.08446000E-02
		 4.19208000E-05	-6.11139000E-02	-4.84676000E-04
		-1.48319000E-03	-7.22628000E-02	 5.19727000E-03
		-2.61830000E-03	-6.12889000E-02	 1.07954000E-02
		 4.23345000E-05	-7.36969000E-02	-6.40085000E-04
		-2.96593000E-03	-7.38651000E-02	 1.08229000E-02
		 5.06747000E-05	-6.37372000E-02	-5.44991000E-04
		-1.43982000E-03	-7.52676000E-02	 5.07546000E-03
		-2.52903000E-03	-6.39068000E-02	 1.07377000E-02
		 3.08563000E-03	-7.20675000E-02	-1.21210000E-02
		 3.03364000E-03	-7.50840000E-02	-1.21980000E-02
		 2.70905000E-03	-6.10147000E-02	-1.17715000E-02
		 1.55937000E-03	-7.21163000E-02	-6.40748000E-03
		 3.06018000E-03	-7.35872000E-02	-1.21059000E-02
		 2.63470000E-03	-6.36411000E-02	-1.18326000E-02
		 1.54252000E-03	-7.51316000E-02	-6.42569000E-03
		 6.44743000E-05	-7.81415000E-02	-7.40054000E-04
		-2.85964000E-03	-7.83111000E-02	 1.07694000E-02
		 5.89075000E-05	-7.66751000E-02	-7.07463000E-04
		-2.89340000E-03	-7.68447000E-02	 1.08688000E-02
		 5.90876000E-05	-6.62753000E-02	-5.98834000E-04
		-1.39756000E-03	-7.82166000E-02	 4.94290000E-03
		-2.44064000E-03	-6.64444000E-02	 1.06804000E-02
		 2.98193000E-03	-7.80282000E-02	-1.22546000E-02
		 3.00748000E-03	-7.65638000E-02	-1.22892000E-02
		 2.55823000E-03	-6.61790000E-02	-1.18812000E-02
		 1.52491000E-03	-7.80785000E-02	-6.42409000E-03
		 3.14210000E-05	-9.48696000E-02	-8.54335000E-04
		-3.70006000E-03	-9.50154000E-02	 1.07974000E-02
		 5.05716000E-05	-9.86127000E-02	-9.49137000E-04
		-3.70458000E-03	-9.87489000E-02	 1.07048000E-02
		 3.40196000E-05	-8.34883000E-02	-7.28769000E-04
		-1.83765000E-03	-9.49463000E-02	 5.01623000E-03
		-3.35601000E-03	-8.36504000E-02	 1.09118000E-02
		 3.99440000E-05	-9.67391000E-02	-9.00570000E-04
		-3.70110000E-03	-9.68767000E-02	 1.07014000E-02
		 5.13921000E-05	-8.68739000E-02	-8.09248000E-04
		-1.82902000E-03	-9.86819000E-02	 4.87028000E-03
		-3.32417000E-03	-8.70264000E-02	 1.08387000E-02
		 3.78047000E-03	-9.47095000E-02	-1.25065000E-02
		 3.81339000E-03	-9.84633000E-02	-1.26024000E-02
		 3.44166000E-03	-8.33482000E-02	-1.23705000E-02
		 1.90546000E-03	-9.47911000E-02	-6.72418000E-03
		 3.79575000E-03	-9.65860000E-02	-1.25037000E-02
		 3.43400000E-03	-8.67431000E-02	-1.24606000E-02
		 1.93276000E-03	-9.85425000E-02	-6.76819000E-03
		 6.97090000E-05	-1.02378000E-01	-1.04370000E-03
		-3.71604000E-03	-1.02518000E-01	 1.06033000E-02
		 6.13185000E-05	-1.00491000E-01	-9.97244000E-04
		-3.71145000E-03	-1.00629000E-01	 1.07097000E-02
		 6.83442000E-05	-9.02428000E-02	-8.88354000E-04
		-1.82193000E-03	-1.02448000E-01	 4.71520000E-03
		-3.29649000E-03	-9.03962000E-02	 1.07449000E-02
		 3.85224000E-03	-1.02233000E-01	-1.26888000E-02
		 3.83461000E-03	-1.00342000E-01	-1.27016000E-02
		 3.42983000E-03	-9.01122000E-02	-1.25274000E-02
		 1.96060000E-03	-1.02311000E-01	-6.80269000E-03
		 2.55208000E-06	-1.17405000E-01	-1.11185000E-03
		-4.36955000E-03	-1.17548000E-01	 1.04220000E-02
		 2.63381000E-05	-1.21768000E-01	-1.22311000E-03
		-4.35060000E-03	-1.21914000E-01	 1.03177000E-02
		 2.19636000E-05	-1.06162000E-01	-9.79324000E-04
		-2.18622000E-03	-1.17478000E-01	 4.69574000E-03
		-4.05517000E-03	-1.06304000E-01	 1.06063000E-02
		 1.24207000E-05	-1.19589000E-01	-1.16860000E-03
		-4.36186000E-03	-1.19731000E-01	 1.03300000E-02
		 4.38117000E-05	-1.10240000E-01	-1.08803000E-03
		-2.16551000E-03	-1.21841000E-01	 4.55333000E-03
		-4.05691000E-03	-1.10379000E-01	 1.04965000E-02
		 4.38322000E-03	-1.17252000E-01	-1.26474000E-02
		 4.39749000E-03	-1.21623000E-01	-1.27667000E-02
		 4.10902000E-03	-1.06005000E-01	-1.25667000E-02
		 2.19375000E-03	-1.17329000E-01	-6.92063000E-03
		 4.39078000E-03	-1.19442000E-01	-1.26686000E-02
		 4.14310000E-03	-1.10091000E-01	-1.26700000E-02
		 2.21654000E-03	-1.21697000E-01	-7.00102000E-03
		 5.08432000E-05	-1.26137000E-01	-1.33763000E-03
		-4.34117000E-03	-1.26301000E-01	 1.02165000E-02
		 4.05878000E-05	-1.23949000E-01	-1.27914000E-03
		-4.34670000E-03	-1.24103000E-01	 1.03014000E-02
		 6.55700000E-05	-1.14342000E-01	-1.19668000E-03
		-2.14314000E-03	-1.26219000E-01	 4.41573000E-03
		-4.06762000E-03	-1.14495000E-01	 1.03931000E-02
		 4.42385000E-03	-1.25986000E-01	-1.28961000E-02
		 4.41237000E-03	-1.23802000E-01	-1.28637000E-02
		 4.18533000E-03	-1.14192000E-01	-1.27800000E-02
		 2.23981000E-03	-1.26060000E-01	-7.09297000E-03
		-1.42733000E-05	-1.40244000E-01	-1.39414000E-03
		-4.60201000E-03	-1.40387000E-01	 1.01355000E-02
		 5.51156000E-06	-1.44882000E-01	-1.50129000E-03
		-4.58159000E-03	-1.45031000E-01	 1.00756000E-02
		-1.19912000E-05	-1.28754000E-01	-1.25435000E-03
		-2.30207000E-03	-1.40314000E-01	 4.36539000E-03
		-4.56519000E-03	-1.28895000E-01	 1.02736000E-02
		-5.28291000E-06	-1.42554000E-01	-1.44734000E-03
		-4.59240000E-03	-1.42703000E-01	 1.01020000E-02
		 1.06213000E-05	-1.33307000E-01	-1.35986000E-03
		-2.28027000E-03	-1.44953000E-01	 4.28397000E-03
		-4.53983000E-03	-1.33454000E-01	 1.01957000E-02
		 4.60305000E-03	-1.40075000E-01	-1.29341000E-02
		 4.61141000E-03	-1.44742000E-01	-1.30868000E-02
		 4.56084000E-03	-1.28587000E-01	-1.27864000E-02
		 2.28344000E-03	-1.40157000E-01	-7.15888000E-03
		 4.60816000E-03	-1.42407000E-01	-1.30041000E-02
		 4.56891000E-03	-1.33160000E-01	-1.29253000E-02
		 2.29855000E-03	-1.44813000E-01	-7.28942000E-03
		 3.01667000E-05	-1.49516000E-01	-1.61517000E-03
		-4.56240000E-03	-1.49674000E-01	 1.00027000E-02
		 1.69182000E-05	-1.47210000E-01	-1.55759000E-03
		-4.57275000E-03	-1.47359000E-01	 1.00472000E-02
		 3.67296000E-05	-1.37854000E-01	-1.47326000E-03
		-2.26107000E-03	-1.49590000E-01	 4.19061000E-03
		-4.51453000E-03	-1.38015000E-01	 1.01098000E-02
		 4.62932000E-03	-1.49396000E-01	-1.32428000E-02
		 4.61929000E-03	-1.47076000E-01	-1.31743000E-02
		 4.58177000E-03	-1.37715000E-01	-1.30721000E-02
		 2.32327000E-03	-1.49458000E-01	-7.42164000E-03
		 0.00000000E+00	 0.00000000E+00	 0.00000000E+00
		 0.00000000E+00	 0.00000000E+00	 0.00000000E+00
		 8.46230000E-05	-1.07187000E-02	 1.51605000E-08
		-2.03819000E-03	-1.13078000E-02	 9.61754000E-03
		 0.00000000E+00	 0.00000000E+00	 0.00000000E+00
		 0.00000000E+00	 0.00000000E+00	 0.00000000E+00
		 1.10661000E-04	-1.23084000E-02	 4.33317000E-05
		-9.42201000E-04	-1.29334000E-02	 9.79733000E-03
		 0.00000000E+00	 0.00000000E+00	 0.00000000E+00
		 2.56272000E-05	-2.60722000E-03	 1.28809000E-05
		-9.81084000E-04	-1.08099000E-02	 4.72453000E-03
		-1.88542000E-03	-3.48362000E-03	 5.15322000E-03
		 0.00000000E+00	 0.00000000E+00	 0.00000000E+00
		 0.00000000E+00	 0.00000000E+00	 0.00000000E+00
		 9.64267000E-05	-1.17099000E-02	 2.02784000E-05
		-1.48160000E-03	-1.23103000E-02	 9.61591000E-03
		 0.00000000E+00	 0.00000000E+00	 0.00000000E+00
		 3.75521000E-05	-3.70917000E-03	 3.40542000E-05
		-4.13923000E-04	-1.24072000E-02	 4.73455000E-03
		-4.30915000E-04	-4.58660000E-03	 5.06350000E-03
		 0.00000000E+00	 0.00000000E+00	 0.00000000E+00
		 2.19355000E-03	-1.10623000E-02	-9.64802000E-03
		 0.00000000E+00	 0.00000000E+00	 0.00000000E+00
		 1.15732000E-03	-1.26725000E-02	-9.74583000E-03
		 0.00000000E+00	 0.00000000E+00	 0.00000000E+00
		 1.92004000E-03	-3.37858000E-03	-5.13962000E-03
		 1.14687000E-03	-1.06884000E-02	-4.73561000E-03
		 0.00000000E+00	 0.00000000E+00	 0.00000000E+00
		 1.66698000E-03	-1.20570000E-02	-9.60654000E-03
		 0.00000000E+00	 0.00000000E+00	 0.00000000E+00
		 4.95474000E-04	-4.46630000E-03	-5.00070000E-03
		 6.33156000E-04	-1.22812000E-02	-4.66004000E-03
		 0.00000000E+00	 0.00000000E+00	 0.00000000E+00
		 0.00000000E+00	 0.00000000E+00	 0.00000000E+00
		 1.37571000E-04	-1.28195000E-02	 1.09359000E-04
		 1.77334000E-04	-1.33973000E-02	 9.72649000E-03
		 0.00000000E+00	 0.00000000E+00	 0.00000000E+00
		 0.00000000E+00	 0.00000000E+00	 0.00000000E+00
		 1.24096000E-04	-1.27566000E-02	 6.91933000E-05
		-3.90736000E-04	-1.33584000E-02	 9.88626000E-03
		 0.00000000E+00	 0.00000000E+00	 0.00000000E+00
		 5.86842000E-05	-3.53496000E-03	 8.36167000E-05
		 1.58560000E-04	-1.29003000E-02	 4.61175000E-03
		 1.07802000E-03	-4.38723000E-03	 5.22676000E-03
		 0.00000000E+00	 0.00000000E+00	 0.00000000E+00
		 9.46799000E-05	-1.31285000E-02	-9.53855000E-03
		 0.00000000E+00	 0.00000000E+00	 0.00000000E+00
		 6.30511000E-04	-1.30940000E-02	-9.78288000E-03
		 0.00000000E+00	 0.00000000E+00	 0.00000000E+00
		-9.68889000E-04	-4.23809000E-03	-5.06560000E-03
		 1.18230000E-04	-1.27740000E-02	-4.40153000E-03
		 2.86790000E-04	-3.62374000E-02	-1.91703000E-04
		-3.17517000E-03	-3.68819000E-02	 1.54953000E-02
		 3.17847000E-04	-3.93349000E-02	-1.84761000E-04
		-2.41359000E-03	-3.99730000E-02	 1.55284000E-02
		 1.82988000E-04	-2.21301000E-02	-6.27347000E-05
		-1.44976000E-03	-3.64892000E-02	 7.73633000E-03
		-2.52993000E-03	-2.28432000E-02	 1.29198000E-02
		 3.02848000E-04	-3.78628000E-02	-1.90855000E-04
		-2.79324000E-03	-3.84949000E-02	 1.53860000E-02
		 2.08114000E-04	-2.44134000E-02	-2.85307000E-05
		-1.04308000E-03	-3.95817000E-02	 7.63483000E-03
		-1.62055000E-03	-2.51039000E-02	 1.30033000E-02
		 3.75140000E-03	-3.63144000E-02	-1.59071000E-02
		 3.04117000E-03	-3.94183000E-02	-1.59253000E-02
		 2.88859000E-03	-2.24423000E-02	-1.30824000E-02
		 2.02235000E-03	-3.62017000E-02	-8.12742000E-03
		 3.39940000E-03	-3.79464000E-02	-1.57916000E-02
		 2.03221000E-03	-2.47039000E-02	-1.30960000E-02
		 1.67989000E-03	-3.93084000E-02	-8.00811000E-03
		 3.37277000E-04	-4.16952000E-02	-1.55625000E-04
		-1.63936000E-03	-4.23178000E-02	 1.55313000E-02
		 3.28774000E-04	-4.05884000E-02	-1.71992000E-04
		-2.02503000E-03	-4.12517000E-02	 1.56741000E-02
		 2.30169000E-04	-2.57855000E-02	 2.56096000E-05
		-6.53479000E-04	-4.19261000E-02	 7.50405000E-03
		-6.91505000E-04	-2.64762000E-02	 1.30099000E-02
		 2.33237000E-03	-4.17778000E-02	-1.58716000E-02
		 2.68635000E-03	-4.06685000E-02	-1.60508000E-02
		 1.16214000E-03	-2.60809000E-02	-1.29911000E-02
		 1.33284000E-03	-4.16663000E-02	-7.81710000E-03
		 5.27946000E-04	-7.12266000E-02	-6.87041000E-04
		-4.45561000E-03	-7.19004000E-02	 1.93509000E-02
		 5.65639000E-04	-7.58730000E-02	-7.21534000E-04
		-3.79840000E-03	-7.66656000E-02	 1.93351000E-02
		 4.00392000E-04	-5.25883000E-02	-3.94760000E-04
		-1.95397000E-03	-7.14865000E-02	 9.37494000E-03
		-3.88961000E-03	-5.32640000E-02	 1.76032000E-02
		 5.48764000E-04	-7.36279000E-02	-7.04090000E-04
		-4.13023000E-03	-7.43775000E-02	 1.92477000E-02
		 4.32556000E-04	-5.65358000E-02	-4.15877000E-04
		-1.64202000E-03	-7.61935000E-02	 9.24733000E-03
		-3.18326000E-03	-5.72266000E-02	 1.76006000E-02
		 5.47701000E-03	-7.10495000E-02	-2.07290000E-02
		 4.94051000E-03	-7.57304000E-02	-2.08195000E-02
		 4.68235000E-03	-5.25438000E-02	-1.84136000E-02
		 2.99823000E-03	-7.10578000E-02	-1.07431000E-02
		 5.20864000E-03	-7.34693000E-02	-2.06886000E-02
		 4.05349000E-03	-5.64974000E-02	-1.84569000E-02
		 2.75425000E-03	-7.57292000E-02	-1.07154000E-02
		 5.95993000E-04	-7.99582000E-02	-7.36002000E-04
		-3.26330000E-03	-8.08611000E-02	 1.92957000E-02
		 5.80784000E-04	-7.80066000E-02	-7.33448000E-04
		-3.53320000E-03	-7.87291000E-02	 1.94327000E-02
		 4.66779000E-04	-5.98248000E-02	-4.13127000E-04
		-1.30523000E-03	-8.03342000E-02	 9.09679000E-03
		-2.53040000E-03	-6.05484000E-02	 1.75858000E-02
		 4.43063000E-03	-7.98579000E-02	-2.08376000E-02
		 4.68613000E-03	-7.78597000E-02	-2.09461000E-02
		 3.43164000E-03	-5.97991000E-02	-1.84425000E-02
		 2.50353000E-03	-7.98511000E-02	-1.06166000E-02
		 9.26326000E-04	-1.14641000E-01	-1.53637000E-03
		-4.66425000E-03	-1.15219000E-01	 2.12829000E-02
		 9.66826000E-04	-1.20160000E-01	-1.55368000E-03
		-4.49611000E-03	-1.21201000E-01	 2.12976000E-02
		 6.70489000E-04	-9.20746000E-02	-1.07146000E-03
		-1.86877000E-03	-1.14898000E-01	 9.81934000E-03
		-4.71797000E-03	-9.28035000E-02	 2.05923000E-02
		 9.47802000E-04	-1.17394000E-01	-1.54493000E-03
		-4.56983000E-03	-1.18151000E-01	 2.12873000E-02
		 7.04644000E-04	-9.72818000E-02	-1.14723000E-03
		-1.64277000E-03	-1.20633000E-01	 9.80785000E-03
		-4.30114000E-03	-9.79692000E-02	 2.06333000E-02
		 6.35572000E-03	-1.14197000E-01	-2.43707000E-02
		 6.14301000E-03	-1.19575000E-01	-2.44138000E-02
		 6.04014000E-03	-9.17481000E-02	-2.27527000E-02
		 3.63832000E-03	-1.14398000E-01	-1.28928000E-02
		 6.25256000E-03	-1.16911000E-01	-2.43931000E-02
		 5.65429000E-03	-9.69368000E-02	-2.28426000E-02
		 3.54284000E-03	-1.19819000E-01	-1.29197000E-02
		 8.68249000E-04	-1.25474000E-01	-1.56006000E-03
		-4.21095000E-03	-1.26874000E-01	 2.12685000E-02
		 9.19105000E-04	-1.22808000E-01	-1.56108000E-03
		-4.35269000E-03	-1.24550000E-01	 2.13189000E-02
		 7.13409000E-04	-1.02084000E-01	-1.23189000E-03
		-1.78780000E-03	-1.26111000E-01	 9.75039000E-03
		-3.74307000E-03	-1.02651000E-01	 2.05754000E-02
		 5.95953000E-03	-1.24748000E-01	-2.43878000E-02