# vtk DataFile Version 3.0

ASCII
DATASET UNSTRUCTURED_GRID

POINTS 522 double
	 1.00000000E+00	 1.00000000E+00	-5.96046000E-08
	 1.00000000E+00	 5.00000000E-01	-5.96046000E-08
	 1.00000000E+00	 5.00000000E-01	 1.00000000E+00
	 1.00000000E+00	 1.00000000E+00	 1.00000000E+00
	 5.00000000E-01	 1.00000000E+00	-5.96046000E-08
	 5.00000000E-01	 5.00000000E-01	-5.96046000E-08
	 5.00000000E-01	 5.00000000E-01	 1.00000000E+00
	 5.00000000E-01	 1.00000000E+00	 1.00000000E+00
	 1.00000000E+00	 7.50000000E-01	-5.96046000E-08
	 1.00000000E+00	 5.00000000E-01	 5.00000000E-01
	 1.00000000E+00	 7.50000000E-01	 1.00000000E+00
	 1.00000000E+00	 1.00000000E+00	 5.00000000E-01
	 7.50000000E-01	 1.00000000E+00	-5.96046000E-08
	 7.50000000E-01	 5.00000000E-01	-5.96046000E-08
	 7.50000000E-01	 5.00000000E-01	 1.00000000E+00
	 7.50000000E-01	 1.00000000E+00	 1.00000000E+00
	 5.00000000E-01	 7.50000000E-01	-5.96046000E-08
	 5.00000000E-01	 5.00000000E-01	 5.00000000E-01
	 5.00000000E-01	 7.50000000E-01	 1.00000000E+00
	 5.00000000E-01	 1.00000000E+00	 5.00000000E-01
	 1.00000000E+00	-1.49012000E-08	-5.96046000E-08
	 1.00000000E+00	-1.49012000E-08	 1.00000000E+00
	 5.00000000E-01	-1.49012000E-08	-5.96046000E-08
	 5.00000000E-01	-1.49012000E-08	 1.00000000E+00
	 1.00000000E+00	 2.50000000E-01	-5.96046000E-08
	 1.00000000E+00	-1.49012000E-08	 5.00000000E-01
	 1.00000000E+00	 2.50000000E-01	 1.00000000E+00
	 7.50000000E-01	-1.49012000E-08	-5.96046000E-08
	 7.50000000E-01	-1.49012000E-08	 1.00000000E+00
	 5.00000000E-01	 2.50000000E-01	-5.96046000E-08
	 5.00000000E-01	-1.49012000E-08	 5.00000000E-01
	 5.00000000E-01	 2.50000000E-01	 1.00000000E+00
	-7.45058000E-09	 1.00000000E+00	-5.96046000E-08
	-7.45058000E-09	 5.00000000E-01	-5.96046000E-08
	-7.45058000E-09	 5.00000000E-01	 1.00000000E+00
	-7.45058000E-09	 1.00000000E+00	 1.00000000E+00
	 2.50000000E-01	 1.00000000E+00	-5.96046000E-08
	 2.50000000E-01	 5.00000000E-01	-5.96046000E-08
	 2.50000000E-01	 5.00000000E-01	 1.00000000E+00
	 2.50000000E-01	 1.00000000E+00	 1.00000000E+00
	-7.45058000E-09	 7.50000000E-01	-5.96046000E-08
	-7.45058000E-09	 5.00000000E-01	 5.00000000E-01
	-7.45058000E-09	 7.50000000E-01	 1.00000000E+00
	-7.45058000E-09	 1.00000000E+00	 5.00000000E-01
	-7.45058000E-09	-1.49012000E-08	-5.96046000E-08
	-7.45058000E-09	-1.49012000E-08	 1.00000000E+00
	 2.50000000E-01	-1.49012000E-08	-5.96046000E-08
	 2.50000000E-01	-1.49012000E-08	 1.00000000E+00
	-7.45058000E-09	 2.50000000E-01	-5.96046000E-08
	-7.45058000E-09	-1.49012000E-08	 5.00000000E-01
	-7.45058000E-09	 2.50000000E-01	 1.00000000E+00
	 1.00000000E+00	 5.00000000E-01	 2.00000000E+00
	 1.00000000E+00	 1.00000000E+00	 2.00000000E+00
	 5.00000000E-01	 5.00000000E-01	 2.00000000E+00
	 5.00000000E-01	 1.00000000E+00	 2.00000000E+00
	 1.00000000E+00	 5.00000000E-01	 1.50000000E+00
	 1.00000000E+00	 7.50000000E-01	 2.00000000E+00
	 1.00000000E+00	 1.00000000E+00	 1.50000000E+00
	 7.50000000E-01	 5.00000000E-01	 2.00000000E+00
	 7.50000000E-01	 1.00000000E+00	 2.00000000E+00
	 5.00000000E-01	 5.00000000E-01	 1.50000000E+00
	 5.00000000E-01	 7.50000000E-01	 2.00000000E+00
	 5.00000000E-01	 1.00000000E+00	 1.50000000E+00
	 1.00000000E+00	-1.49012000E-08	 2.00000000E+00
	 5.00000000E-01	-1.49012000E-08	 2.00000000E+00
	 1.00000000E+00	-1.49012000E-08	 1.50000000E+00
	 1.00000000E+00	 2.50000000E-01	 2.00000000E+00
	 7.50000000E-01	-1.49012000E-08	 2.00000000E+00
	 5.00000000E-01	-1.49012000E-08	 1.50000000E+00
	 5.00000000E-01	 2.50000000E-01	 2.00000000E+00
	-7.45058000E-09	 5.00000000E-01	 2.00000000E+00
	-7.45058000E-09	 1.00000000E+00	 2.00000000E+00
	 2.50000000E-01	 5.00000000E-01	 2.00000000E+00
	 2.50000000E-01	 1.00000000E+00	 2.00000000E+00
	-7.45058000E-09	 5.00000000E-01	 1.50000000E+00
	-7.45058000E-09	 7.50000000E-01	 2.00000000E+00
	-7.45058000E-09	 1.00000000E+00	 1.50000000E+00
	-7.45058000E-09	-1.49012000E-08	 2.00000000E+00
	 2.50000000E-01	-1.49012000E-08	 2.00000000E+00
	-7.45058000E-09	-1.49012000E-08	 1.50000000E+00
	-7.45058000E-09	 2.50000000E-01	 2.00000000E+00
	 1.00000000E+00	 5.00000000E-01	 3.00000000E+00
	 1.00000000E+00	 1.00000000E+00	 3.00000000E+00
	 5.00000000E-01	 5.00000000E-01	 3.00000000E+00
	 5.00000000E-01	 1.00000000E+00	 3.00000000E+00
	 1.00000000E+00	 5.00000000E-01	 2.50000000E+00
	 1.00000000E+00	 7.50000000E-01	 3.00000000E+00
	 1.00000000E+00	 1.00000000E+00	 2.50000000E+00
	 7.50000000E-01	 5.00000000E-01	 3.00000000E+00
	 7.50000000E-01	 1.00000000E+00	 3.00000000E+00
	 5.00000000E-01	 5.00000000E-01	 2.50000000E+00
	 5.00000000E-01	 7.50000000E-01	 3.00000000E+00
	 5.00000000E-01	 1.00000000E+00	 2.50000000E+00
	 1.00000000E+00	-1.49012000E-08	 3.00000000E+00
	 5.00000000E-01	-1.49012000E-08	 3.00000000E+00
	 1.00000000E+00	-1.49012000E-08	 2.50000000E+00
	 1.00000000E+00	 2.50000000E-01	 3.00000000E+00
	 7.50000000E-01	-1.49012000E-08	 3.00000000E+00
	 5.00000000E-01	-1.49012000E-08	 2.50000000E+00
	 5.00000000E-01	 2.50000000E-01	 3.00000000E+00
	-7.45058000E-09	 5.00000000E-01	 3.00000000E+00
	-7.45058000E-09	 1.00000000E+00	 3.00000000E+00
	 2.50000000E-01	 5.00000000E-01	 3.00000000E+00
	 2.50000000E-01	 1.00000000E+00	 3.00000000E+00
	-7.45058000E-09	 5.00000000E-01	 2.50000000E+00
	-7.45058000E-09	 7.50000000E-01	 3.00000000E+00
	-7.45058000E-09	 1.00000000E+00	 2.50000000E+00
	-7.45058000E-09	-1.49012000E-08	 3.00000000E+00
	 2.50000000E-01	-1.49012000E-08	 3.00000000E+00
	-7.45058000E-09	-1.49012000E-08	 2.50000000E+00
	-7.45058000E-09	 2.50000000E-01	 3.00000000E+00
	 1.00000000E+00	 5.00000000E-01	 4.00000000E+00
	 1.00000000E+00	 1.00000000E+00	 4.00000000E+00
	 5.00000000E-01	 5.00000000E-01	 4.00000000E+00
	 5.00000000E-01	 1.00000000E+00	 4.00000000E+00
	 1.00000000E+00	 5.00000000E-01	 3.50000000E+00
	 1.00000000E+00	 7.50000000E-01	 4.00000000E+00
	 1.00000000E+00	 1.00000000E+00	 3.50000000E+00
	 7.50000000E-01	 5.00000000E-01	 4.00000000E+00
	 7.50000000E-01	 1.00000000E+00	 4.00000000E+00
	 5.00000000E-01	 5.00000000E-01	 3.50000000E+00
	 5.00000000E-01	 7.50000000E-01	 4.00000000E+00
	 5.00000000E-01	 1.00000000E+00	 3.50000000E+00
	 1.00000000E+00	-1.49012000E-08	 4.00000000E+00
	 5.00000000E-01	-1.49012000E-08	 4.00000000E+00
	 1.00000000E+00	-1.49012000E-08	 3.50000000E+00
	 1.00000000E+00	 2.50000000E-01	 4.00000000E+00
	 7.50000000E-01	-1.49012000E-08	 4.00000000E+00
	 5.00000000E-01	-1.49012000E-08	 3.50000000E+00
	 5.00000000E-01	 2.50000000E-01	 4.00000000E+00
	-7.45058000E-09	 5.00000000E-01	 4.00000000E+00
	-7.45058000E-09	 1.00000000E+00	 4.00000000E+00
	 2.50000000E-01	 5.00000000E-01	 4.00000000E+00
	 2.50000000E-01	 1.00000000E+00	 4.00000000E+00
	-7.45058000E-09	 5.00000000E-01	 3.50000000E+00
	-7.45058000E-09	 7.50000000E-01	 4.00000000E+00
	-7.45058000E-09	 1.00000000E+00	 3.50000000E+00
	-7.45058000E-09	-1.49012000E-08	 4.00000000E+00
	 2.50000000E-01	-1.49012000E-08	 4.00000000E+00
	-7.45058000E-09	-1.49012000E-08	 3.50000000E+00
	-7.45058000E-09	 2.50000000E-01	 4.00000000E+00
	 1.00000000E+00	 5.00000000E-01	 5.00000000E+00
	 1.00000000E+00	 1.00000000E+00	 5.00000000E+00
	 5.00000000E-01	 5.00000000E-01	 5.00000000E+00
	 5.00000000E-01	 1.00000000E+00	 5.00000000E+00
	 1.00000000E+00	 5.00000000E-01	 4.50000000E+00
	 1.00000000E+00	 7.50000000E-01	 5.00000000E+00
	 1.00000000E+00	 1.00000000E+00	 4.50000000E+00
	 7.50000000E-01	 5.00000000E-01	 5.00000000E+00
	 7.50000000E-01	 1.00000000E+00	 5.00000000E+00
	 5.00000000E-01	 5.00000000E-01	 4.50000000E+00
	 5.00000000E-01	 7.50000000E-01	 5.00000000E+00
	 5.00000000E-01	 1.00000000E+00	 4.50000000E+00
	 1.00000000E+00	-1.49012000E-08	 5.00000000E+00
	 5.00000000E-01	-1.49012000E-08	 5.00000000E+00
	 1.00000000E+00	-1.49012000E-08	 4.50000000E+00
	 1.00000000E+00	 2.50000000E-01	 5.00000000E+00
	 7.50000000E-01	-1.49012000E-08	 5.00000000E+00
	 5.00000000E-01	-1.49012000E-08	 4.50000000E+00
	 5.00000000E-01	 2.50000000E-01	 5.00000000E+00
	-7.45058000E-09	 5.00000000E-01	 5.00000000E+00
	-7.45058000E-09	 1.00000000E+00	 5.00000000E+00
	 2.50000000E-01	 5.00000000E-01	 5.00000000E+00
	 2.50000000E-01	 1.00000000E+00	 5.00000000E+00
	-7.45058000E-09	 5.00000000E-01	 4.50000000E+00
	-7.45058000E-09	 7.50000000E-01	 5.00000000E+00
	-7.45058000E-09	 1.00000000E+00	 4.50000000E+00
	-7.45058000E-09	-1.49012000E-08	 5.00000000E+00
	 2.50000000E-01	-1.49012000E-08	 5.00000000E+00
	-7.45058000E-09	-1.49012000E-08	 4.50000000E+00
	-7.45058000E-09	 2.50000000E-01	 5.00000000E+00
	 1.00000000E+00	 5.00000000E-01	 6.00000000E+00
	 1.00000000E+00	 1.00000000E+00	 6.00000000E+00
	 5.00000000E-01	 5.00000000E-01	 6.00000000E+00
	 5.00000000E-01	 1.00000000E+00	 6.00000000E+00
	 1.00000000E+00	 5.00000000E-01	 5.50000000E+00
	 1.00000000E+00	 7.50000000E-01	 6.00000000E+00
	 1.00000000E+00	 1.00000000E+00	 5.50000000E+00
	 7.50000000E-01	 5.00000000E-01	 6.00000000E+00
	 7.50000000E-01	 1.00000000E+00	 6.00000000E+00
	 5.00000000E-01	 5.00000000E-01	 5.50000000E+00
	 5.00000000E-01	 7.50000000E-01	 6.00000000E+00
	 5.00000000E-01	 1.00000000E+00	 5.50000000E+00
	 1.00000000E+00	-1.49012000E-08	 6.00000000E+00
	 5.00000000E-01	-1.49012000E-08	 6.00000000E+00
	 1.00000000E+00	-1.49012000E-08	 5.50000000E+00
	 1.00000000E+00	 2.50000000E-01	 6.00000000E+00
	 7.50000000E-01	-1.49012000E-08	 6.00000000E+00
	 5.00000000E-01	-1.49012000E-08	 5.50000000E+00
	 5.00000000E-01	 2.50000000E-01	 6.00000000E+00
	-7.45058000E-09	 5.00000000E-01	 6.00000000E+00
	-7.45058000E-09	 1.00000000E+00	 6.00000000E+00
	 2.50000000E-01	 5.00000000E-01	 6.00000000E+00
	 2.50000000E-01	 1.00000000E+00	 6.00000000E+00
	-7.45058000E-09	 5.00000000E-01	 5.50000000E+00
	-7.45058000E-09	 7.50000000E-01	 6.00000000E+00
	-7.45058000E-09	 1.00000000E+00	 5.50000000E+00
	-7.45058000E-09	-1.49012000E-08	 6.00000000E+00
	 2.50000000E-01	-1.49012000E-08	 6.00000000E+00
	-7.45058000E-09	-1.49012000E-08	 5.50000000E+00
	-7.45058000E-09	 2.50000000E-01	 6.00000000E+00
	 1.00000000E+00	 5.00000000E-01	 7.00000000E+00
[...]
POINT_DATA 522
FIELD U 1
	U 3 522 double
		 0.00000000E+00	 0.00000000E+00	 0.00000000E+00
		 0.00000000E+00	 0.00000000E+00	 0.00000000E+00
		 3.14859000E-06	-5.13415000E-03	-5.64412000E-05
		 6.93395000E-04	-5.27986000E-03	 3.26778000E-03
		 0.00000000E+00	 0.00000000E+00	 0.00000000E+00
		 0.00000000E+00	 0.00000000E+00	 0.00000000E+00
		-2.05561000E-07	-4.24875000E-03	-4.43282000E-05
		 1.04435000E-03	-4.42637000E-03	 3.32838000E-03
		 0.00000000E+00	 0.00000000E+00	 0.00000000E+00
		 3.85550000E-06	-1.55417000E-03	-2.06862000E-05
		 3.50637000E-04	-5.13550000E-03	 1.43028000E-03
		-4.67995000E-06	-1.79410000E-03	 1.75885000E-03
		 0.00000000E+00	 0.00000000E+00	 0.00000000E+00
		 0.00000000E+00	 0.00000000E+00	 0.00000000E+00
		 2.28562000E-06	-4.75489000E-03	-5.11564000E-05
		 8.72090000E-04	-4.92053000E-03	 3.40475000E-03
		 0.00000000E+00	 0.00000000E+00	 0.00000000E+00
		-2.70328000E-07	-1.24202000E-03	-1.86760000E-05
		 5.22283000E-04	-4.26636000E-03	 1.56779000E-03
		 5.20196000E-04	-1.52330000E-03	 1.72517000E-03
		 0.00000000E+00	 0.00000000E+00	 0.00000000E+00
		-7.11598000E-04	-5.28233000E-03	-3.37852000E-03
		 0.00000000E+00	 0.00000000E+00	 0.00000000E+00
		-1.06707000E-03	-4.40169000E-03	-3.42278000E-03
		 0.00000000E+00	 0.00000000E+00	 0.00000000E+00
		-1.52570000E-05	-1.82023000E-03	-1.80722000E-03
		-3.51826000E-04	-5.14263000E-03	-1.54348000E-03
		 0.00000000E+00	 0.00000000E+00	 0.00000000E+00
		-8.91776000E-04	-4.90523000E-03	-3.50562000E-03
		 0.00000000E+00	 0.00000000E+00	 0.00000000E+00
		-5.49711000E-04	-1.52071000E-03	-1.76567000E-03
		-5.30985000E-04	-4.25427000E-03	-1.65824000E-03
		 0.00000000E+00	 0.00000000E+00	 0.00000000E+00
		 0.00000000E+00	 0.00000000E+00	 0.00000000E+00
		-6.90039000E-06	-3.02004000E-03	-2.61388000E-05
		 1.38257000E-03	-3.19955000E-03	 3.28794000E-03
		 0.00000000E+00	 0.00000000E+00	 0.00000000E+00
		 0.00000000E+00	 0.00000000E+00	 0.00000000E+00
		-2.94409000E-06	-3.69941000E-03	-3.56530000E-05
		 1.20927000E-03	-3.87280000E-03	 3.22422000E-03
		 0.00000000E+00	 0.00000000E+00	 0.00000000E+00
		-9.56741000E-06	-4.85444000E-04	-1.59179000E-05
		 6.93177000E-04	-3.04515000E-03	 1.64319000E-03
		 1.00033000E-03	-7.94312000E-04	 1.76548000E-03
		 0.00000000E+00	 0.00000000E+00	 0.00000000E+00
		-1.41387000E-03	-3.15369000E-03	-3.35189000E-03
		 0.00000000E+00	 0.00000000E+00	 0.00000000E+00
		-1.23703000E-03	-3.84061000E-03	-3.30681000E-03
		 0.00000000E+00	 0.00000000E+00	 0.00000000E+00
		-1.04817000E-03	-7.59796000E-04	-1.79658000E-03
		-7.11570000E-04	-3.01675000E-03	-1.69839000E-03
		 9.37517000E-06	-1.51136000E-02	-1.30463000E-04
		 1.74913000E-03	-1.52763000E-02	 5.04687000E-03
		 6.17168000E-06	-1.32798000E-02	-1.10910000E-04
		 1.96900000E-03	-1.34222000E-02	 5.06160000E-03
		 4.66582000E-06	-9.81377000E-03	-9.20800000E-05
		 8.71103000E-04	-1.51770000E-02	 2.42371000E-03
		 1.30007000E-03	-1.00138000E-02	 4.27602000E-03
		 6.32816000E-06	-1.42206000E-02	-1.20785000E-04
		 1.85954000E-03	-1.43656000E-02	 5.10121000E-03
		 3.44810000E-06	-8.40781000E-03	-7.27762000E-05
		 9.88376000E-04	-1.33318000E-02	 2.48835000E-03
		 1.54850000E-03	-8.58501000E-03	 4.30541000E-03
		-1.71134000E-03	-1.52054000E-02	-5.31275000E-03
		-1.94724000E-03	-1.33714000E-02	-5.28790000E-03
		-1.28023000E-03	-9.96872000E-03	-4.45758000E-03
		-8.47935000E-04	-1.51384000E-02	-2.68572000E-03
		-1.82923000E-03	-1.43076000E-02	-5.34804000E-03
		-1.53661000E-03	-8.54930000E-03	-4.45669000E-03
		-9.73017000E-04	-1.33082000E-02	-2.71168000E-03
		 7.75448000E-06	-1.11984000E-02	-9.10273000E-05
		 2.20650000E-03	-1.13421000E-02	 5.08296000E-03
		 6.85622000E-06	-1.22618000E-02	-1.01181000E-04
		 2.08780000E-03	-1.24041000E-02	 5.01886000E-03
		 3.28091000E-06	-6.73144000E-03	-5.30473000E-05
		 1.10885000E-03	-1.12484000E-02	 2.55958000E-03
		 1.81810000E-03	-6.90691000E-03	 4.30277000E-03
		-2.19379000E-03	-1.12872000E-02	-5.26943000E-03
		-2.07218000E-03	-1.23524000E-02	-5.22626000E-03
		-1.80783000E-03	-6.87525000E-03	-4.42249000E-03
		-1.09598000E-03	-1.12229000E-02	-2.74269000E-03
		 2.17571000E-07	-2.74847000E-02	-2.42234000E-04
		 2.18459000E-03	-2.77144000E-02	 6.88576000E-03
		 1.38515000E-06	-2.51085000E-02	-2.11410000E-04
		 2.55442000E-03	-2.53479000E-02	 6.90866000E-03
		 5.94473000E-06	-2.08771000E-02	-1.80178000E-04
		 1.09618000E-03	-2.75501000E-02	 3.32562000E-03
		 2.00744000E-03	-2.10702000E-02	 5.87184000E-03
		 9.67085000E-07	-2.63438000E-02	-2.27483000E-04
		 2.36887000E-03	-2.65817000E-02	 6.91983000E-03
		 4.02222000E-06	-1.87351000E-02	-1.57596000E-04
		 1.27855000E-03	-2.51801000E-02	 3.37950000E-03
		 2.29460000E-03	-1.89226000E-02	 5.88237000E-03
		-2.19616000E-03	-2.76163000E-02	-7.37727000E-03
		-2.55266000E-03	-2.52373000E-02	-7.33561000E-03
		-1.99694000E-03	-2.09949000E-02	-6.23982000E-03
		-1.09748000E-03	-2.75020000E-02	-3.81136000E-03
		-2.37644000E-03	-2.64731000E-02	-7.38296000E-03
		-2.28159000E-03	-1.88469000E-02	-6.20208000E-03
		-1.27516000E-03	-2.51212000E-02	-3.80391000E-03
		 6.76415000E-06	-2.23795000E-02	-1.77830000E-04
		 2.93073000E-03	-2.26110000E-02	 6.95797000E-03
		 3.08052000E-06	-2.37914000E-02	-1.95565000E-04
		 2.74235000E-03	-2.40285000E-02	 6.89163000E-03
		 7.02923000E-06	-1.62992000E-02	-1.30177000E-04
		 1.46684000E-03	-2.24472000E-02	 3.46196000E-03
		 2.59562000E-03	-1.64836000E-02	 5.92681000E-03
		-2.90834000E-03	-2.25039000E-02	-7.31315000E-03
		-2.72934000E-03	-2.39189000E-02	-7.28171000E-03
		-2.57226000E-03	-1.64145000E-02	-6.18812000E-03
		-1.44955000E-03	-2.23918000E-02	-3.81915000E-03
		-5.68035000E-06	-4.48121000E-02	-4.33090000E-04
		 2.62423000E-03	-4.50952000E-02	 9.35613000E-03
		-1.98810000E-06	-4.19760000E-02	-3.72215000E-04
		 3.01610000E-03	-4.22719000E-02	 9.42506000E-03
		-2.67562000E-06	-3.53866000E-02	-3.23363000E-04
		 1.31212000E-03	-4.49022000E-02	 4.39731000E-03
		 2.37256000E-03	-3.56391000E-02	 8.12201000E-03
		-4.95181000E-06	-4.34434000E-02	-4.04602000E-04
		 2.82003000E-03	-4.37357000E-02	 9.43026000E-03
		-3.73659000E-07	-3.27962000E-02	-2.80278000E-04
		 1.50761000E-03	-4.20721000E-02	 4.50246000E-03
		 2.78053000E-03	-3.30654000E-02	 8.16384000E-03
		-2.64298000E-03	-4.48968000E-02	-1.02294000E-02
		-3.03154000E-03	-4.20617000E-02	-1.01820000E-02
		-2.39479000E-03	-3.55020000E-02	-8.77752000E-03
		-1.32688000E-03	-4.48046000E-02	-5.26657000E-03
		-2.83696000E-03	-4.35311000E-02	-1.02465000E-02
		-2.79425000E-03	-3.29078000E-02	-8.73228000E-03
		-1.51520000E-03	-4.19684000E-02	-5.25075000E-03
		 7.66112000E-06	-3.87636000E-02	-3.00928000E-04
		 3.41137000E-03	-3.90669000E-02	 9.48473000E-03
		 2.46159000E-06	-4.04189000E-02	-3.36546000E-04
		 3.21194000E-03	-4.07188000E-02	 9.42701000E-03
		 6.66185000E-06	-2.98133000E-02	-2.31654000E-04
		 1.70919000E-03	-3.88661000E-02	 4.59679000E-03
		 3.19031000E-03	-3.00863000E-02	 8.21571000E-03
		-3.41084000E-03	-3.88332000E-02	-1.01028000E-02
		-3.22295000E-03	-4.04997000E-02	-1.01164000E-02
		-3.18951000E-03	-2.99064000E-02	-8.68628000E-03
		-1.69704000E-03	-3.87466000E-02	-5.20346000E-03
		-1.04375000E-07	-6.77910000E-02	-7.29741000E-04
		 3.39214000E-03	-6.80371000E-02	 1.10574000E-02
		 1.43780000E-05	-6.43024000E-02	-6.35992000E-04
		 3.60024000E-03	-6.45505000E-02	 1.11741000E-02
		-4.12699000E-06	-5.57383000E-02	-5.70495000E-04
		 1.69536000E-03	-6.78872000E-02	 5.05961000E-03
		 2.97535000E-03	-5.60068000E-02	 1.03643000E-02
		 5.86947000E-06	-6.60709000E-02	-6.83477000E-04
		 3.49450000E-03	-6.63186000E-02	 1.11766000E-02
		 2.69888000E-06	-5.26025000E-02	-4.93623000E-04
		 1.80750000E-03	-6.44016000E-02	 5.22406000E-03
		 3.28738000E-03	-5.28772000E-02	 1.04610000E-02
		-3.39578000E-03	-6.77476000E-02	-1.25255000E-02
		-3.57749000E-03	-6.42504000E-02	-1.24529000E-02
		-2.98008000E-03	-5.57499000E-02	-1.15114000E-02
		-1.69634000E-03	-6.77483000E-02	-6.51892000E-03
		-3.48803000E-03	-6.60212000E-02	-1.25535000E-02
		-3.28441000E-03	-5.26196000E-02	-1.14589000E-02
		-1.78050000E-03	-6.42541000E-02	-6.49739000E-03
		 3.13408000E-05	-6.06154000E-02	-5.31725000E-04
		 3.81342000E-03	-6.08697000E-02	 1.12578000E-02
		 2.34046000E-05	-6.24833000E-02	-5.85787000E-04
		 3.70733000E-03	-6.27323000E-02	 1.11776000E-02
		 1.38290000E-05	-4.91666000E-02	-4.02759000E-04
		 1.92426000E-03	-6.07183000E-02	 5.35815000E-03
		 3.59818000E-03	-4.94484000E-02	 1.05308000E-02
		-3.75627000E-03	-6.05594000E-02	-1.23299000E-02
		-3.66629000E-03	-6.24286000E-02	-1.23561000E-02
		-3.57439000E-03	-4.91798000E-02	-1.13508000E-02
		-1.86335000E-03	-6.05642000E-02	-6.42420000E-03
		 5.04551000E-05	-9.33553000E-02	-1.09246000E-03
		 4.16104000E-03	-9.35606000E-02	 1.14788000E-02
		 5.87624000E-05	-8.92135000E-02	-9.52705000E-04
		 4.23522000E-03	-8.94223000E-02	 1.16240000E-02
		 1.77600000E-05	-8.04656000E-02	-9.06555000E-04
		 2.10654000E-03	-9.34485000E-02	 5.14407000E-03
		 3.81357000E-03	-8.06869000E-02	 1.13741000E-02
		 5.60147000E-05	-9.12936000E-02	-1.02047000E-03
		 4.19726000E-03	-9.15006000E-02	 1.15860000E-02
		 3.49635000E-05	-7.66130000E-02	-7.87862000E-04
		 2.14860000E-03	-8.93121000E-02	 5.31913000E-03
		 3.94234000E-03	-7.68394000E-02	 1.15087000E-02
		-4.08592000E-03	-9.32329000E-02	-1.36445000E-02
		-4.12632000E-03	-8.90664000E-02	-1.35107000E-02
		-3.80077000E-03	-8.03882000E-02	-1.31888000E-02
		-2.01142000E-03	-9.32916000E-02	-7.32261000E-03
		-4.10684000E-03	-9.11514000E-02	-1.36085000E-02
		-3.88546000E-03	-7.65118000E-02	-1.30836000E-02
		-2.03400000E-03	-8.91336000E-02	-7.21868000E-03
		 6.77528000E-05	-8.49987000E-02	-8.34755000E-04
		 4.32319000E-03	-8.51991000E-02	 1.17355000E-02
		 6.18886000E-05	-8.71123000E-02	-8.91740000E-04
		 4.28075000E-03	-8.73203000E-02	 1.16529000E-02
		 5.27134000E-05	-7.26418000E-02	-6.75974000E-04
		 2.19287000E-03	-8.50914000E-02	 5.46309000E-03
		 4.08058000E-03	-7.28699000E-02	 1.16075000E-02
		-4.17807000E-03	-8.48511000E-02	-1.33843000E-02
		-4.15298000E-03	-8.69659000E-02	-1.34186000E-02
		-3.97743000E-03	-7.25383000E-02	-1.29573000E-02
		-2.05550000E-03	-8.49180000E-02	-7.12369000E-03
		 1.21346000E-04	-1.18995000E-01	-1.42621000E-03
		 4.29410000E-03	-1.19208000E-01	 1.14058000E-02
		 1.10192000E-04	-1.14804000E-01	-1.28853000E-03
		 4.30960000E-03	-1.15027000E-01	 1.15398000E-02
		 8.54440000E-05	-1.06204000E-01	-1.27099000E-03
		 2.21085000E-03	-1.19106000E-01	 5.00024000E-03
		 4.31798000E-03	-1.06420000E-01	 1.14730000E-02
		 1.22021000E-04	-1.16901000E-01	-1.35761000E-03
		 4.30747000E-03	-1.17122000E-01	 1.14560000E-02
		 8.03191000E-05	-1.01949000E-01	-1.12356000E-03
		 2.21133000E-03	-1.14920000E-01	 5.11508000E-03
		 4.35838000E-03	-1.02169000E-01	 1.16219000E-02
		-4.08339000E-03	-1.18811000E-01	-1.42660000E-02
		-4.09853000E-03	-1.14600000E-01	-1.41241000E-02
		-4.17932000E-03	-1.06053000E-01	-1.39890000E-02
		-1.97876000E-03	-1.18894000E-01	-7.85962000E-03
		-4.08659000E-03	-1.16704000E-01	-1.41774000E-02
		-4.20548000E-03	-1.01769000E-01	-1.38445000E-02
		-1.99529000E-03	-1.14693000E-01	-7.69680000E-03
		 9.88094000E-05	-1.10594000E-01	-1.14497000E-03
		 4.32870000E-03	-1.10804000E-01	 1.16668000E-02
		 9.83738000E-05	-1.12702000E-01	-1.21656000E-03
		 4.31483000E-03	-1.12921000E-01	 1.16279000E-02
		 7.66130000E-05	-9.76466000E-02	-9.96106000E-04
		 2.21214000E-03	-1.10702000E-01	 5.22205000E-03
		 4.42184000E-03	-9.78464000E-02	 1.17417000E-02
		-4.11840000E-03	-1.10392000E-01	-1.39647000E-02
		-4.11452000E-03	-1.12497000E-01	-1.40662000E-02
		-4.25086000E-03	-9.74644000E-02	-1.37087000E-02
		-2.01126000E-03	-1.10486000E-01	-7.51917000E-03
		 1.09179000E-04	-1.44647000E-01	-1.70666000E-03
		 4.17259000E-03	-1.44798000E-01	 1.11198000E-02
		 1.69231000E-04	-1.40562000E-01	-1.61939000E-03
		 4.21670000E-03	-1.40697000E-01	 1.11772000E-02
		 1.37564000E-04	-1.31799000E-01	-1.55854000E-03
		 2.13103000E-03	-1.44720000E-01	 4.72008000E-03
		 4.22778000E-03	-1.32000000E-01	 1.12798000E-02
		 1.36972000E-04	-1.42611000E-01	-1.67360000E-03
		 4.19309000E-03	-1.42748000E-01	 1.11435000E-02
		 1.42927000E-04	-1.27704000E-01	-1.45189000E-03
		 2.18355000E-03	-1.40627000E-01	 4.78917000E-03
		 4.23776000E-03	-1.27899000E-01	 1.13682000E-02
		-3.91743000E-03	-1.44500000E-01	-1.46379000E-02
		-3.88179000E-03	-1.40421000E-01	-1.45008000E-02
		-3.95240000E-03	-1.31607000E-01	-1.44699000E-02
		-1.90141000E-03	-1.44578000E-01	-8.16731000E-03
		-3.90061000E-03	-1.42469000E-01	-1.45804000E-02
		-3.95949000E-03	-1.27511000E-01	-1.43334000E-02
		-1.84668000E-03	-1.40498000E-01	-8.05034000E-03
		 2.25013000E-04	-1.36477000E-01	-1.44199000E-03
		 4.23493000E-03	-1.36627000E-01	 1.13091000E-02
		 2.00474000E-04	-1.38510000E-01	-1.53862000E-03
		 4.22752000E-03	-1.38647000E-01	 1.12336000E-02
		 1.47001000E-04	-1.23606000E-01	-1.28641000E-03
		 2.23152000E-03	-1.36552000E-01	 4.94085000E-03
		 4.22546000E-03	-1.23809000E-01	 1.15010000E-02
		-3.83268000E-03	-1.36321000E-01	-1.42920000E-02
		-3.85464000E-03	-1.38368000E-01	-1.43987000E-02
		-3.94998000E-03	-1.23408000E-01	-1.41416000E-02
		-1.79508000E-03	-1.36404000E-01	-7.85598000E-03
		 0.00000000E+00	 0.00000000E+00	 0.00000000E+00
		 0.00000000E+00	 0.00000000E+00	 0.00000000E+00
		 1.17271000E-05	-1.16831000E-02	-2.89201000E-06
		-3.43524000E-03	-1.26940000E-02	 1.30692000E-02
		 0.00000000E+00	 0.00000000E+00	 0.00000000E+00
		 0.00000000E+00	 0.00000000E+00	 0.00000000E+00
		 2.65313000E-05	-1.41921000E-02	-4.32609000E-05
		-1.60523000E-03	-1.52765000E-02	 1.31523000E-02
		 0.00000000E+00	 0.00000000E+00	 0.00000000E+00
		 6.09463000E-06	-2.01223000E-03	 3.01821000E-05
		-1.71091000E-03	-1.18802000E-02	 6.58026000E-03
		-2.76841000E-03	-3.22715000E-03	 6.55934000E-03
		 0.00000000E+00	 0.00000000E+00	 0.00000000E+00
		 0.00000000E+00	 0.00000000E+00	 0.00000000E+00
		 2.24065000E-05	-1.32365000E-02	-3.00517000E-05
		-2.50491000E-03	-1.42822000E-02	 1.29508000E-02
		 0.00000000E+00	 0.00000000E+00	 0.00000000E+00
		 1.05461000E-05	-3.70114000E-03	 7.35101000E-06
		-7.87521000E-04	-1.44142000E-02	 6.44154000E-03
		-8.12736000E-04	-4.90748000E-03	 6.35002000E-03
		 0.00000000E+00	 0.00000000E+00	 0.00000000E+00
		 3.40439000E-03	-1.22694000E-02	-1.31288000E-02
		 0.00000000E+00	 0.00000000E+00	 0.00000000E+00
		 1.63822000E-03	-1.48159000E-02	-1.33041000E-02
		 0.00000000E+00	 0.00000000E+00	 0.00000000E+00
		 2.73275000E-03	-3.07712000E-03	-6.51461000E-03
		 1.71688000E-03	-1.16639000E-02	-6.60837000E-03
		 0.00000000E+00	 0.00000000E+00	 0.00000000E+00
		 2.51519000E-03	-1.38351000E-02	-1.30629000E-02
		 0.00000000E+00	 0.00000000E+00	 0.00000000E+00
		 8.05900000E-04	-4.73468000E-03	-6.33476000E-03
		 8.31276000E-04	-1.41801000E-02	-6.55174000E-03
		 0.00000000E+00	 0.00000000E+00	 0.00000000E+00
		 0.00000000E+00	 0.00000000E+00	 0.00000000E+00
		 3.16266000E-05	-1.49308000E-02	-2.79064000E-05
		 2.30380000E-04	-1.59481000E-02	 1.30454000E-02
		 0.00000000E+00	 0.00000000E+00	 0.00000000E+00
		 0.00000000E+00	 0.00000000E+00	 0.00000000E+00
		 2.95145000E-05	-1.48586000E-02	-4.42470000E-05
		-6.99359000E-04	-1.59113000E-02	 1.32238000E-02
		 0.00000000E+00	 0.00000000E+00	 0.00000000E+00
		 4.75430000E-06	-3.62902000E-03	 1.90267000E-05
		 1.31220000E-04	-1.51285000E-02	 6.26822000E-03
		 1.19293000E-03	-4.81237000E-03	 6.55900000E-03
		 0.00000000E+00	 0.00000000E+00	 0.00000000E+00
		-1.56901000E-04	-1.54835000E-02	-1.31602000E-02
		 0.00000000E+00	 0.00000000E+00	 0.00000000E+00
		 7.46783000E-04	-1.54455000E-02	-1.33815000E-02
		 0.00000000E+00	 0.00000000E+00	 0.00000000E+00
		-1.19455000E-03	-4.60770000E-03	-6.51902000E-03
		-6.19549000E-05	-1.48956000E-02	-6.34078000E-03
		 1.20323000E-04	-4.98032000E-02	-6.11819000E-04
		-4.42396000E-03	-5.11200000E-02	 2.35949000E-02
		 1.53062000E-04	-5.36359000E-02	-7.12488000E-04
		-2.99057000E-03	-5.49566000E-02	 2.35637000E-02
		 5.28645000E-05	-2.77354000E-02	-1.98541000E-04
		-2.15017000E-03	-5.03031000E-02	 1.14098000E-02
		-4.05516000E-03	-2.89856000E-02	 1.88456000E-02
		 1.35523000E-04	-5.18769000E-02	-6.72514000E-04
		-3.70707000E-03	-5.31961000E-02	 2.35196000E-02
		 6.99801000E-05	-3.09912000E-02	-2.67423000E-04
		-1.41656000E-03	-5.41332000E-02	 1.12924000E-02
		-2.34363000E-03	-3.22478000E-02	 1.88333000E-02
		 4.68302000E-03	-4.97970000E-02	-2.49043000E-02
		 3.30892000E-03	-5.36718000E-02	-2.50755000E-02
		 4.15139000E-03	-2.81372000E-02	-1.93154000E-02
		 2.39224000E-03	-4.96423000E-02	-1.26530000E-02
		 4.00085000E-03	-5.19053000E-02	-2.49482000E-02
		 2.49460000E-03	-3.14142000E-02	-1.94513000E-02
		 1.73077000E-03	-5.35036000E-02	-1.27343000E-02
		 1.78405000E-04	-5.61046000E-02	-7.38622000E-04
		-1.55542000E-03	-5.73881000E-02	 2.34713000E-02
		 1.66472000E-04	-5.50260000E-02	-7.34962000E-04
		-2.27177000E-03	-5.63692000E-02	 2.36417000E-02
		 8.13499000E-05	-3.25748000E-02	-2.66439000E-04
		-7.00015000E-04	-5.65728000E-02	 1.11047000E-02
		-6.47836000E-04	-3.38150000E-02	 1.87755000E-02
		 1.95085000E-03	-5.61359000E-02	-2.50347000E-02
		 2.62791000E-03	-5.50571000E-02	-2.52034000E-02
		 8.55969000E-04	-3.30151000E-02	-1.93954000E-02
		 1.06683000E-03	-5.59740000E-02	-1.25960000E-02
		 3.80581000E-04	-1.07288000E-01	-2.12185000E-03
		-4.64966000E-03	-1.08579000E-01	 2.88828000E-02
		 4.30514000E-04	-1.11958000E-01	-2.24230000E-03
		-3.91936000E-03	-1.13359000E-01	 2.88329000E-02
		 2.33025000E-04	-7.67847000E-02	-1.26241000E-03
		-2.12992000E-03	-1.07841000E-01	 1.32677000E-02
		-4.59610000E-03	-7.81336000E-02	 2.69177000E-02
		 4.07807000E-04	-1.09711000E-01	-2.18315000E-03
		-4.28838000E-03	-1.11068000E-01	 2.88119000E-02
		 2.72486000E-04	-8.10864000E-02	-1.38125000E-03
		-1.76927000E-03	-1.12571000E-01	 1.31237000E-02
		-3.51208000E-03	-8.24470000E-02	 2.68851000E-02
		 5.36536000E-03	-1.06599000E-01	-3.31621000E-02
		 4.78486000E-03	-1.11277000E-01	-3.33861000E-02
		 5.05067000E-03	-7.64382000E-02	-2.95232000E-02
		 2.87838000E-03	-1.06871000E-01	-1.75140000E-02
		 5.07347000E-03	-1.09016000E-01	-3.32431000E-02
		 4.07121000E-03	-8.07395000E-02	-2.97258000E-02
		 2.60953000E-03	-1.11550000E-01	-1.76412000E-02
		 4.71519000E-04	-1.15979000E-01	-2.32919000E-03
		-3.30033000E-03	-1.17491000E-01	 2.86666000E-02
		 4.51576000E-04	-1.14065000E-01	-2.29350000E-03
		-3.61064000E-03	-1.15399000E-01	 2.88770000E-02
		 3.15442000E-04	-8.43670000E-02	-1.43790000E-03
		-1.38294000E-03	-1.16643000E-01	 1.28669000E-02
		-2.47402000E-03	-8.57411000E-02	 2.67455000E-02
		 4.21714000E-03	-1.15346000E-01	-3.34180000E-02
		 4.50257000E-03	-1.13378000E-01	-3.35314000E-02
		 3.09187000E-03	-8.40381000E-02	-2.96979000E-02
		 2.33245000E-03	-1.15612000E-01	-1.75811000E-02
		 8.37888000E-04	-1.73094000E-01	-4.17130000E-03
		-4.52752000E-03	-1.74162000E-01	 2.88714000E-02
		 8.79272000E-04	-1.78502000E-01	-4.27094000E-03
		-4.56541000E-03	-1.80023000E-01	 2.88049000E-02
		 5.56376000E-04	-1.39796000E-01	-3.11179000E-03
		-1.84917000E-03	-1.73625000E-01	 1.23161000E-02
		-4.62889000E-03	-1.41087000E-01	 2.93502000E-02
		 8.59394000E-04	-1.75766000E-01	-4.21918000E-03
		-4.53592000E-03	-1.77001000E-01	 2.88214000E-02
		 5.98365000E-04	-1.44870000E-01	-3.26831000E-03
		-1.71923000E-03	-1.79244000E-01	 1.22042000E-02
		-4.33805000E-03	-1.46112000E-01	 2.93406000E-02
		 6.03417000E-03	-1.72005000E-01	-3.72222000E-02
		 6.02087000E-03	-1.77249000E-01	-3.73509000E-02
		 5.70286000E-03	-1.38877000E-01	-3.56037000E-02
		 3.43801000E-03	-1.72558000E-01	-2.06601000E-02
		 6.03169000E-03	-1.74623000E-01	-3.72660000E-02
		 5.45555000E-03	-1.43896000E-01	-3.58008000E-02
		 3.43813000E-03	-1.77859000E-01	-2.07524000E-02
		 7.82411000E-04	-1.83877000E-01	-4.37038000E-03
		-4.47111000E-03	-1.85773000E-01	 2.86758000E-02
		 8.32786000E-04	-1.81155000E-01	-4.32266000E-03
		-4.51757000E-03	-1.83383000E-01	 2.87912000E-02
		 6.13641000E-04	-1.49635000E-01	-3.43778000E-03
		-1.95539000E-03	-1.84790000E-01	 1.20343000E-02
		-3.88605000E-03	-1.50778000E-01	 2.91710000E-02
		 6.02612000E-03	-1.82473000E-01	-3.74140000E-02