# vtk DataFile Version 3.0

ASCII
DATASET UNSTRUCTURED_GRID

POINTS 522 double
	 1.00000000E+00	 1.00000000E+00	-5.96046000E-08
	 1.00000000E+00	 5.00000000E-01	-5.96046000E-08
	 1.00000000E+00	 5.00000000E-01	 1.00000000E+00
	 1.00000000E+00	 1.00000000E+00	 1.00000000E+00
	 5.00000000E-01	 1.00000000E+00	-5.96046000E-08
	 5.00000000E-01	 5.00000000E-01	-5.96046000E-08
	 5.00000000E-01	 5.00000000E-01	 1.00000000E+00
	 5.00000000E-01	 1.00000000E+00	 1.00000000E+00
	 1.00000000E+00	 7.50000000E-01	-5.96046000E-08
	 1.00000000E+00	 5.00000000E-01	 5.00000000E-01
	 1.00000000E+00	 7.50000000E-01	 1.00000000E+00
	 1.00000000E+00	 1.00000000E+00	 5.00000000E-01
	 7.50000000E-01	 1.00000000E+00	-5.96046000E-08
	 7.50000000E-01	 5.00000000E-01	-5.96046000E-08
	 7.50000000E-01	 5.00000000E-01	 1.00000000E+00
	 7.50000000E-01	 1.00000000E+00	 1.00000000E+00
	 5.00000000E-01	 7.50000000E-01	-5.96046000E-08
	 5.00000000E-01	 5.00000000E-01	 5.00000000E-01
	 5.00000000E-01	 7.50000000E-01	 1.00000000E+00
	 5.00000000E-01	 1.00000000E+00	 5.00000000E-01
	 1.00000000E+00	-1.49012000E-08	-5.96046000E-08
	 1.00000000E+00	-1.49012000E-08	 1.00000000E+00
	 5.00000000E-01	-1.49012000E-08	-5.96046000E-08
	 5.00000000E-01	-1.49012000E-08	 1.00000000E+00
	 1.00000000E+00	 2.50000000E-01	-5.96046000E-08
	 1.00000000E+00	-1.49012000E-08	 5.00000000E-01
	 1.00000000E+00	 2.50000000E-01	 1.00000000E+00
	 7.50000000E-01	-1.49012000E-08	-5.96046000E-08
	 7.50000000E-01	-1.49012000E-08	 1.00000000E+00
	 5.00000000E-01	 2.50000000E-01	-5.96046000E-08
	 5.00000000E-01	-1.49012000E-08	 5.00000000E-01
	 5.00000000E-01	 2.50000000E-01	 1.00000000E+00
	-7.45058000E-09	 1.00000000E+00	-5.96046000E-08
	-7.45058000E-09	 5.00000000E-01	-5.96046000E-08
	-7.45058000E-09	 5.00000000E-01	 1.00000000E+00
	-7.45058000E-09	 1.00000000E+00	 1.00000000E+00
	 2.50000000E-01	 1.00000000E+00	-5.96046000E-08
	 2.50000000E-01	 5.00000000E-01	-5.96046000E-08
	 2.50000000E-01	 5.00000000E-01	 1.00000000E+00
	 2.50000000E-01	 1.00000000E+00	 1.00000000E+00
	-7.45058000E-09	 7.50000000E-01	-5.96046000E-08
	-7.45058000E-09	 5.00000000E-01	 5.00000000E-01
	-7.45058000E-09	 7.50000000E-01	 1.00000000E+00
	-7.45058000E-09	 1.00000000E+00	 5.00000000E-01
	-7.45058000E-09	-1.49012000E-08	-5.96046000E-08
	-7.45058000E-09	-1.49012000E-08	 1.00000000E+00
	 2.50000000E-01	-1.49012000E-08	-5.96046000E-08
	 2.50000000E-01	-1.49012000E-08	 1.00000000E+00
	-7.45058000E-09	 2.50000000E-01	-5.96046000E-08
	-7.45058000E-09	-1.49012000E-08	 5.00000000E-01
	-7.45058000E-09	 2.50000000E-01	 1.00000000E+00
	 1.00000000E+00	 5.00000000E-01	 2.00000000E+00
	 1.00000000E+00	 1.00000000E+00	 2.00000000E+00
	 5.00000000E-01	 5.00000000E-01	 2.00000000E+00
	 5.00000000E-01	 1.00000000E+00	 2.00000000E+00
	 1.00000000E+00	 5.00000000E-01	 1.50000000E+00
	 1.00000000E+00	 7.50000000E-01	 2.00000000E+00
	 1.00000000E+00	 1.00000000E+00	 1.50000000E+00
	 7.50000000E-01	 5.00000000E-01	 2.00000000E+00
	 7.50000000E-01	 1.00000000E+00	 2.00000000E+00
	 5.00000000E-01	 5.00000000E-01	 1.50000000E+00
	 5.00000000E-01	 7.50000000E-01	 2.00000000E+00
	 5.00000000E-01	 1.00000000E+00	 1.50000000E+00
	 1.00000000E+00	-1.49012000E-08	 2.00000000E+00
	 5.00000000E-01	-1.49012000E-08	 2.00000000E+00
	 1.00000000E+00	-1.49012000E-08	 1.50000000E+00
	 1.00000000E+00	 2.50000000E-01	 2.00000000E+00
	 7.50000000E-01	-1.49012000E-08	 2.00000000E+00
	 5.00000000E-01	-1.49012000E-08	 1.50000000E+00
	 5.00000000E-01	 2.50000000E-01	 2.00000000E+00
	-7.45058000E-09	 5.00000000E-01	 2.00000000E+00
	-7.45058000E-09	 1.00000000E+00	 2.00000000E+00
	 2.50000000E-01	 5.00000000E-01	 2.00000000E+00
	 2.50000000E-01	 1.00000000E+00	 2.00000000E+00
	-7.45058000E-09	 5.00000000E-01	 1.50000000E+00
	-7.45058000E-09	 7.50000000E-01	 2.00000000E+00
	-7.45058000E-09	 1.00000000E+00	 1.50000000E+00
	-7.45058000E-09	-1.49012000E-08	 2.00000000E+00
	 2.50000000E-01	-1.49012000E-08	 2.00000000E+00
	-7.45058000E-09	-1.49012000E-08	 1.50000000E+00
	-7.45058000E-09	 2.50000000E-01	 2.00000000E+00
	 1.00000000E+00	 5.00000000E-01	 3.00000000E+00
	 1.00000000E+00	 1.00000000E+00	 3.00000000E+00
	 5.00000000E-01	 5.00000000E-01	 3.00000000E+00
	 5.00000000E-01	 1.00000000E+00	 3.00000000E+00
	 1.00000000E+00	 5.00000000E-01	 2.50000000E+00
	 1.00000000E+00	 7.50000000E-01	 3.00000000E+00
	 1.00000000E+00	 1.00000000E+00	 2.50000000E+00
	 7.50000000E-01	 5.00000000E-01	 3.00000000E+00
	 7.50000000E-01	 1.00000000E+00	 3.00000000E+00
	 5.00000000E-01	 5.00000000E-01	 2.50000000E+00
	 5.00000000E-01	 7.50000000E-01	 3.00000000E+00
	 5.00000000E-01	 1.00000000E+00	 2.50000000E+00
	 1.00000000E+00	-1.49012000E-08	 3.00000000E+00
	 5.00000000E-01	-1.49012000E-08	 3.00000000E+00
	 1.00000000E+00	-1.49012000E-08	 2.50000000E+00
	 1.00000000E+00	 2.50000000E-01	 3.00000000E+00
	 7.50000000E-01	-1.49012000E-08	 3.00000000E+00
	 5.00000000E-01	-1.49012000E-08	 2.50000000E+00
	 5.00000000E-01	 2.50000000E-01	 3.00000000E+00
	-7.45058000E-09	 5.00000000E-01	 3.00000000E+00
	-7.45058000E-09	 1.00000000E+00	 3.00000000E+00
	 2.50000000E-01	 5.00000000E-01	 3.00000000E+00
	 2.50000000E-01	 1.00000000E+00	 3.00000000E+00
	-7.45058000E-09	 5.00000000E-01	 2.50000000E+00
	-7.45058000E-09	 7.50000000E-01	 3.00000000E+00
	-7.45058000E-09	 1.00000000E+00	 2.50000000E+00
	-7.45058000E-09	-1.49012000E-08	 3.00000000E+00
	 2.50000000E-01	-1.49012000E-08	 3.00000000E+00
	-7.45058000E-09	-1.49012000E-08	 2.50000000E+00
	-7.45058000E-09	 2.50000000E-01	 3.00000000E+00
	 1.00000000E+00	 5.00000000E-01	 4.00000000E+00
	 1.00000000E+00	 1.00000000E+00	 4.00000000E+00
	 5.00000000E-01	 5.00000000E-01	 4.00000000E+00
	 5.00000000E-01	 1.00000000E+00	 4.00000000E+00
	 1.00000000E+00	 5.00000000E-01	 3.50000000E+00
	 1.00000000E+00	 7.50000000E-01	 4.00000000E+00
	 1.00000000E+00	 1.00000000E+00	 3.50000000E+00
	 7.50000000E-01	 5.00000000E-01	 4.00000000E+00
	 7.50000000E-01	 1.00000000E+00	 4.00000000E+00
	 5.00000000E-01	 5.00000000E-01	 3.50000000E+00
	 5.00000000E-01	 7.50000000E-01	 4.00000000E+00
	 5.00000000E-01	 1.00000000E+00	 3.50000000E+00
	 1.00000000E+00	-1.49012000E-08	 4.00000000E+00
	 5.00000000E-01	-1.49012000E-08	 4.00000000E+00
	 1.00000000E+00	-1.49012000E-08	 3.50000000E+00
	 1.00000000E+00	 2.50000000E-01	 4.00000000E+00
	 7.50000000E-01	-1.49012000E-08	 4.00000000E+00
	 5.00000000E-01	-1.49012000E-08	 3.50000000E+00
	 5.00000000E-01	 2.50000000E-01	 4.00000000E+00
	-7.45058000E-09	 5.00000000E-01	 4.00000000E+00
	-7.45058000E-09	 1.00000000E+00	 4.00000000E+00
	 2.50000000E-01	 5.00000000E-01	 4.00000000E+00
	 2.50000000E-01	 1.00000000E+00	 4.00000000E+00
	-7.45058000E-09	 5.00000000E-01	 3.50000000E+00
	-7.45058000E-09	 7.50000000E-01	 4.00000000E+00
	-7.45058000E-09	 1.00000000E+00	 3.50000000E+00
	-7.45058000E-09	-1.49012000E-08	 4.00000000E+00
	 2.50000000E-01	-1.49012000E-08	 4.00000000E+00
	-7.45058000E-09	-1.49012000E-08	 3.50000000E+00
	-7.45058000E-09	 2.50000000E-01	 4.00000000E+00
	 1.00000000E+00	 5.00000000E-01	 5.00000000E+00
	 1.00000000E+00	 1.00000000E+00	 5.00000000E+00
	 5.00000000E-01	 5.00000000E-01	 5.00000000E+00
	 5.00000000E-01	 1.00000000E+00	 5.00000000E+00
	 1.00000000E+00	 5.00000000E-01	 4.50000000E+00
	 1.00000000E+00	 7.50000000E-01	 5.00000000E+00
	 1.00000000E+00	 1.00000000E+00	 4.50000000E+00
	 7.50000000E-01	 5.00000000E-01	 5.00000000E+00
	 7.50000000E-01	 1.00000000E+00	 5.00000000E+00
	 5.00000000E-01	 5.00000000E-01	 4.50000000E+00
	 5.00000000E-01	 7.50000000E-01	 5.00000000E+00
	 5.00000000E-01	 1.00000000E+00	 4.50000000E+00
	 1.00000000E+00	-1.49012000E-08	 5.00000000E+00
	 5.00000000E-01	-1.49012000E-08	 5.00000000E+00
	 1.00000000E+00	-1.49012000E-08	 4.50000000E+00
	 1.00000000E+00	 2.50000000E-01	 5.00000000E+00
	 7.50000000E-01	-1.49012000E-08	 5.00000000E+00
	 5.00000000E-01	-1.49012000E-08	 4.50000000E+00
	 5.00000000E-01	 2.50000000E-01	 5.00000000E+00
	-7.45058000E-09	 5.00000000E-01	 5.00000000E+00
	-7.45058000E-09	 1.00000000E+00	 5.00000000E+00
	 2.50000000E-01	 5.00000000E-01	 5.00000000E+00
	 2.50000000E-01	 1.00000000E+00	 5.00000000E+00
	-7.45058000E-09	 5.00000000E-01	 4.50000000E+00
	-7.45058000E-09	 7.50000000E-01	 5.00000000E+00
	-7.45058000E-09	 1.00000000E+00	 4.50000000E+00
	-7.45058000E-09	-1.49012000E-08	 5.00000000E+00
	 2.50000000E-01	-1.49012000E-08	 5.00000000E+00
	-7.45058000E-09	-1.49012000E-08	 4.50000000E+00
	-7.45058000E-09	 2.50000000E-01	 5.00000000E+00
	 1.00000000E+00	 5.00000000E-01	 6.00000000E+00
	 1.00000000E+00	 1.00000000E+00	 6.00000000E+00
	 5.00000000E-01	 5.00000000E-01	 6.00000000E+00
	 5.00000000E-01	 1.00000000E+00	 6.00000000E+00
	 1.00000000E+00	 5.00000000E-01	 5.50000000E+00
	 1.00000000E+00	 7.50000000E-01	 6.00000000E+00
	 1.00000000E+00	 1.00000000E+00	 5.50000000E+00
	 7.50000000E-01	 5.00000000E-01	 6.00000000E+00
	 7.50000000E-01	 1.00000000E+00	 6.00000000E+00
	 5.00000000E-01	 5.00000000E-01	 5.50000000E+00
	 5.00000000E-01	 7.50000000E-01	 6.00000000E+00
	 5.00000000E-01	 1.00000000E+00	 5.50000000E+00
	 1.00000000E+00	-1.49012000E-08	 6.00000000E+00
	 5.00000000E-01	-1.49012000E-08	 6.00000000E+00
	 1.00000000E+00	-1.49012000E-08	 5.50000000E+00
	 1.00000000E+00	 2.50000000E-01	 6.00000000E+00
	 7.50000000E-01	-1.49012000E-08	 6.00000000E+00
	 5.00000000E-01	-1.49012000E-08	 5.50000000E+00
	 5.00000000E-01	 2.50000000E-01	 6.00000000E+00
	-7.45058000E-09	 5.00000000E-01	 6.00000000E+00
	-7.45058000E-09	 1.00000000E+00	 6.00000000E+00
	 2.50000000E-01	 5.00000000E-01	 6.00000000E+00
	 2.50000000E-01	 1.00000000E+00	 6.00000000E+00
	-7.45058000E-09	 5.00000000E-01	 5.50000000E+00
	-7.45058000E-09	 7.50000000E-01	 6.00000000E+00
	-7.45058000E-09	 1.00000000E+00	 5.50000000E+00
	-7.45058000E-09	-1.49012000E-08	 6.00000000E+00
	 2.50000000E-01	-1.49012000E-08	 6.00000000E+00
	-7.45058000E-09	-1.49012000E-08	 5.50000000E+00
	-7.45058000E-09	 2.50000000E-01	 6.00000000E+00
	 1.00000000E+00	 5.00000000E-01	 7.00000000E+00
[...]
POINT_DATA 522
FIELD U 1
	U 3 522 double
		 0.00000000E+00	 0.00000000E+00	 0.00000000E+00
		 0.00000000E+00	 0.00000000E+00	 0.00000000E+00
		-3.79265000E-06	 5.61946000E-04	 2.33492000E-05
		-1.08369000E-03	 4.20408000E-04	 1.11302000E-03
		 0.00000000E+00	 0.00000000E+00	 0.00000000E+00
		 0.00000000E+00	 0.00000000E+00	 0.00000000E+00
		-9.40338000E-07	-3.82496000E-04	 1.72806000E-05
		-8.11161000E-04	-5.23386000E-04	 1.08582000E-03
		 0.00000000E+00	 0.00000000E+00	 0.00000000E+00
		-6.95437000E-07	 5.58356000E-04	 1.09736000E-05
		-5.46303000E-04	 5.26821000E-04	 6.98824000E-04
		-5.90706000E-04	 4.32405000E-04	 4.10113000E-04
		 0.00000000E+00	 0.00000000E+00	 0.00000000E+00
		 0.00000000E+00	 0.00000000E+00	 0.00000000E+00
		-3.00062000E-06	 5.28892000E-05	 2.11269000E-05
		-9.46479000E-04	-8.62706000E-05	 1.02292000E-03
		 0.00000000E+00	 0.00000000E+00	 0.00000000E+00
		 3.25818000E-06	 2.78594000E-05	 7.12965000E-06
		-4.06475000E-04	-4.16101000E-04	 6.08718000E-04
		-4.42715000E-04	-7.42814000E-05	 3.77405000E-04
		 0.00000000E+00	 0.00000000E+00	 0.00000000E+00
		 1.08110000E-03	 4.35944000E-04	-1.06920000E-03
		 0.00000000E+00	 0.00000000E+00	 0.00000000E+00
		 8.14030000E-04	-5.13360000E-04	-1.05036000E-03
		 0.00000000E+00	 0.00000000E+00	 0.00000000E+00
		 5.99560000E-04	 4.49246000E-04	-3.85215000E-04
		 5.40041000E-04	 5.36655000E-04	-6.52347000E-04
		 0.00000000E+00	 0.00000000E+00	 0.00000000E+00
		 9.46077000E-04	-7.43789000E-05	-9.83329000E-04
		 0.00000000E+00	 0.00000000E+00	 0.00000000E+00
		 4.59658000E-04	-6.97572000E-05	-3.60592000E-04
		 4.06293000E-04	-4.10757000E-04	-5.73984000E-04
		 0.00000000E+00	 0.00000000E+00	 0.00000000E+00
		 0.00000000E+00	 0.00000000E+00	 0.00000000E+00
		 3.41678000E-06	-1.06136000E-03	 7.82320000E-06
		-5.39265000E-04	-1.19853000E-03	 1.09978000E-03
		 0.00000000E+00	 0.00000000E+00	 0.00000000E+00
		 0.00000000E+00	 0.00000000E+00	 0.00000000E+00
		 1.31858000E-06	-7.58345000E-04	 1.23724000E-05
		-6.76246000E-04	-8.96269000E-04	 1.13211000E-03
		 0.00000000E+00	 0.00000000E+00	 0.00000000E+00
		 7.74027000E-06	-3.47150000E-04	 4.30638000E-06
		-2.66570000E-04	-1.09280000E-03	 5.68649000E-04
		-2.70819000E-04	-4.37669000E-04	 4.03809000E-04
		 0.00000000E+00	 0.00000000E+00	 0.00000000E+00
		 5.49377000E-04	-1.19193000E-03	-1.07987000E-03
		 0.00000000E+00	 0.00000000E+00	 0.00000000E+00
		 6.82866000E-04	-8.87472000E-04	-1.10293000E-03
		 0.00000000E+00	 0.00000000E+00	 0.00000000E+00
		 2.97081000E-04	-4.44823000E-04	-3.93571000E-04
		 2.74321000E-04	-1.09033000E-03	-5.52689000E-04
		 1.05660000E-05	-3.17885000E-03	 9.86024000E-06
		-1.52268000E-03	-3.42148000E-03	 3.76109000E-03
		 1.13658000E-05	-4.45484000E-03	 1.15268000E-05
		-1.03252000E-03	-4.71000000E-03	 3.75287000E-03
		-1.39803000E-06	-4.87554000E-04	 2.14306000E-05
		-7.50692000E-04	-3.23551000E-03	 1.89857000E-03
		-1.41810000E-03	-6.67386000E-04	 2.28252000E-03
		 1.20794000E-05	-3.87781000E-03	 1.05751000E-05
		-1.27716000E-03	-4.13188000E-03	 3.75864000E-03
		-1.28350000E-06	-1.68046000E-03	 2.08440000E-05
		-5.10810000E-04	-4.51826000E-03	 1.89698000E-03
		-1.00068000E-03	-1.88223000E-03	 2.25847000E-03
		 1.53705000E-03	-3.39352000E-03	-3.74355000E-03
		 1.05019000E-03	-4.67762000E-03	-3.73398000E-03
		 1.40723000E-03	-6.58282000E-04	-2.24476000E-03
		 7.70164000E-04	-3.22311000E-03	-1.87996000E-03
		 1.29488000E-03	-4.10061000E-03	-3.73974000E-03
		 9.91689000E-04	-1.86499000E-03	-2.21909000E-03
		 5.31753000E-04	-4.50137000E-03	-1.87498000E-03
		 8.61479000E-06	-5.26310000E-03	 1.76696000E-05
		-5.48306000E-04	-5.51194000E-03	 3.76470000E-03
		 9.85860000E-06	-4.92080000E-03	 1.37852000E-05
		-7.90924000E-04	-5.17441000E-03	 3.74708000E-03
		-1.04403000E-06	-2.47884000E-03	 1.79706000E-05
		-2.72275000E-04	-5.32543000E-03	 1.91477000E-03
		-6.11290000E-04	-2.69322000E-03	 2.28041000E-03
		 5.63528000E-04	-5.47611000E-03	-3.73520000E-03
		 8.06624000E-04	-5.14082000E-03	-3.72576000E-03
		 6.02702000E-04	-2.66682000E-03	-2.24380000E-03
		 2.89468000E-04	-5.30515000E-03	-1.88017000E-03
		 2.41835000E-05	-1.38213000E-02	-3.16063000E-05
		-1.72272000E-03	-1.40845000E-02	 6.83393000E-03
		 2.91072000E-05	-1.53724000E-02	-4.44785000E-05
		-1.32054000E-03	-1.56268000E-02	 6.84119000E-03
		 2.03605000E-05	-7.68623000E-03	-5.01131000E-06
		-8.51086000E-04	-1.39023000E-02	 3.39097000E-03
		-1.56988000E-03	-7.94863000E-03	 5.36495000E-03
		 2.59352000E-05	-1.46489000E-02	-3.90744000E-05
		-1.52147000E-03	-1.49047000E-02	 6.80643000E-03
		 2.31452000E-05	-9.04484000E-03	-1.12386000E-05
		-6.44782000E-04	-1.54466000E-02	 3.35475000E-03
		-1.10210000E-03	-9.30120000E-03	 5.36454000E-03
		 1.77723000E-03	-1.39675000E-02	-6.90222000E-03
		 1.38508000E-03	-1.55193000E-02	-6.93473000E-03
		 1.61176000E-03	-7.87880000E-03	-5.37480000E-03
		 9.00413000E-04	-1.38425000E-02	-3.45627000E-03
		 1.58054000E-03	-1.47939000E-02	-6.88824000E-03
		 1.15115000E-03	-9.23644000E-03	-5.39013000E-03
		 7.04974000E-04	-1.53941000E-02	-3.44477000E-03
		 3.48715000E-05	-1.65260000E-02	-4.95872000E-05
		-9.00097000E-04	-1.67650000E-02	 6.81510000E-03
		 3.25726000E-05	-1.59994000E-02	-4.86437000E-05
		-1.10884000E-03	-1.62518000E-02	 6.88337000E-03
		 2.30067000E-05	-9.93923000E-03	-7.86231000E-06
		-4.36848000E-04	-1.65910000E-02	 3.28434000E-03
		-6.14927000E-04	-1.01749000E-02	 5.35642000E-03
		 9.75927000E-04	-1.66643000E-02	-6.91780000E-03
		 1.18014000E-03	-1.61453000E-02	-6.98564000E-03
		 6.66663000E-04	-1.01169000E-02	-5.37810000E-03
		 5.07859000E-04	-1.65447000E-02	-3.38349000E-03
		 4.99089000E-05	-2.96203000E-02	-1.24679000E-04
		-2.29248000E-03	-2.98146000E-02	 8.67701000E-03
		 6.02191000E-05	-3.18773000E-02	-1.54150000E-04
		-2.10079000E-03	-3.20632000E-02	 8.66224000E-03
		 3.89046000E-05	-2.13135000E-02	-7.51596000E-05
		-1.12395000E-03	-2.96967000E-02	 4.30777000E-03
		-1.94050000E-03	-2.15429000E-02	 7.92301000E-03
		 5.63966000E-05	-3.07715000E-02	-1.38995000E-04
		-2.19373000E-03	-3.09582000E-02	 8.60352000E-03
		 4.67792000E-05	-2.31593000E-02	-9.31244000E-05
		-1.02102000E-03	-3.19487000E-02	 4.21819000E-03
		-1.65380000E-03	-2.33781000E-02	 7.93174000E-03
		 2.39468000E-03	-2.96318000E-02	-8.93008000E-03
		 2.22507000E-03	-3.18840000E-02	-8.97380000E-03
		 2.02282000E-03	-2.13932000E-02	-8.07850000E-03
		 1.22541000E-03	-2.96035000E-02	-4.55563000E-03
		 2.30902000E-03	-3.07788000E-02	-8.88775000E-03
		 1.75261000E-03	-2.32350000E-02	-8.12170000E-03
		 1.14291000E-03	-3.18590000E-02	-4.52710000E-03
		 6.79615000E-05	-3.39447000E-02	-1.84916000E-04
		-1.90509000E-03	-3.41238000E-02	 8.61651000E-03
		 6.37547000E-05	-3.29320000E-02	-1.69012000E-04
		-2.00506000E-03	-3.31149000E-02	 8.72422000E-03
		 5.40516000E-05	-2.47213000E-02	-1.07166000E-04
		-9.17460000E-04	-3.40109000E-02	 4.09726000E-03
		-1.35405000E-03	-2.49291000E-02	 7.89064000E-03
		 2.04740000E-03	-3.39571000E-02	-8.98745000E-03
		 2.13769000E-03	-3.29394000E-02	-9.06249000E-03
		 1.46797000E-03	-2.47945000E-02	-8.10803000E-03
		 1.05654000E-03	-3.39302000E-02	-4.46849000E-03
		 5.01950000E-05	-4.74704000E-02	-2.55457000E-04
		-3.31562000E-03	-4.76336000E-02	 9.53070000E-03
		 6.86440000E-05	-5.07694000E-02	-3.17541000E-04
		-3.15467000E-03	-5.09382000E-02	 9.46860000E-03
		 5.56125000E-05	-3.83593000E-02	-1.79316000E-04
		-1.63265000E-03	-4.75358000E-02	 4.71808000E-03
		-2.77750000E-03	-3.85421000E-02	 9.15499000E-03
		 5.81866000E-05	-4.91363000E-02	-2.90717000E-04
		-3.23836000E-03	-4.93004000E-02	 9.41803000E-03
		 6.31992000E-05	-4.11188000E-02	-2.27939000E-04
		-1.54140000E-03	-5.08373000E-02	 4.57661000E-03
		-2.63005000E-03	-4.12982000E-02	 9.11042000E-03
		 3.39864000E-03	-4.74441000E-02	-1.00434000E-02
		 3.28111000E-03	-5.07325000E-02	-1.01039000E-02
		 2.88047000E-03	-3.83508000E-02	-9.52723000E-03
		 1.72408000E-03	-4.74418000E-02	-5.23347000E-03
		 3.34134000E-03	-4.91065000E-02	-9.99454000E-03
		 2.74860000E-03	-4.11007000E-02	-9.57734000E-03
		 1.67395000E-03	-5.07374000E-02	-5.21053000E-03
		 8.29498000E-05	-5.39165000E-02	-3.63979000E-04
		-2.99526000E-03	-5.40935000E-02	 9.42227000E-03
		 7.73479000E-05	-5.23620000E-02	-3.40632000E-04
		-3.07152000E-03	-5.25351000E-02	 9.51868000E-03
		 6.76534000E-05	-4.37330000E-02	-2.69070000E-04
		-1.45404000E-03	-5.39870000E-02	 4.45662000E-03
		-2.48482000E-03	-4.39233000E-02	 9.06999000E-03
		 3.15749000E-03	-5.38814000E-02	-1.01593000E-02
		 3.21821000E-03	-5.23235000E-02	-1.02079000E-02
		 2.61072000E-03	-4.37144000E-02	-9.61587000E-03
		 1.61876000E-03	-5.38854000E-02	-5.18457000E-03
		 6.71630000E-05	-6.69120000E-02	-4.24432000E-04
		-4.31055000E-03	-6.71178000E-02	 1.02541000E-02
		 7.83251000E-05	-7.12254000E-02	-4.91349000E-04
		-4.16084000E-03	-7.14328000E-02	 1.02020000E-02
		 3.54395000E-05	-5.69326000E-02	-3.42889000E-04
		-2.11830000E-03	-6.70019000E-02	 4.98156000E-03
		-3.84914000E-03	-5.71240000E-02	 9.89958000E-03
		 7.43412000E-05	-6.90839000E-02	-4.53159000E-04
		-4.23689000E-03	-6.92922000E-02	 1.01595000E-02
		 6.31815000E-05	-6.07633000E-02	-4.00725000E-04
		-2.04075000E-03	-7.13144000E-02	 4.85414000E-03
		-3.67600000E-03	-6.09473000E-02	 9.84664000E-03
		 4.44546000E-03	-6.68234000E-02	-1.10962000E-02
		 4.32832000E-03	-7.11443000E-02	-1.11794000E-02
		 3.94964000E-03	-5.68566000E-02	-1.05657000E-02
		 2.25198000E-03	-6.68471000E-02	-5.81934000E-03
		 4.38871000E-03	-6.90031000E-02	-1.10678000E-02
		 3.82260000E-03	-6.07072000E-02	-1.06371000E-02
		 2.20047000E-03	-7.11668000E-02	-5.83527000E-03
		 8.75576000E-05	-7.54016000E-02	-5.83521000E-04
		-4.01581000E-03	-7.56018000E-02	 1.01227000E-02
		 8.13824000E-05	-7.33329000E-02	-5.37071000E-04
		-4.08740000E-03	-7.35398000E-02	 1.02408000E-02
		 9.18206000E-05	-6.44314000E-02	-4.70741000E-04
		-1.96652000E-03	-7.54829000E-02	 4.69485000E-03
		-3.49731000E-03	-6.46085000E-02	 9.77660000E-03
		 4.21732000E-03	-7.53431000E-02	-1.12737000E-02
		 4.27170000E-03	-7.32604000E-02	-1.13024000E-02
		 3.69644000E-03	-6.43907000E-02	-1.07120000E-02
		 2.15029000E-03	-7.53576000E-02	-5.85804000E-03
		 1.08487000E-04	-8.83885000E-02	-6.38382000E-04
		-5.02157000E-03	-8.85339000E-02	 1.06786000E-02
		 1.21370000E-04	-9.34519000E-02	-7.33470000E-04
		-4.93406000E-03	-9.36529000E-02	 1.05875000E-02
		 1.00651000E-04	-7.74299000E-02	-5.13029000E-04
		-2.44204000E-03	-8.84460000E-02	 5.04311000E-03
		-4.71619000E-03	-7.75869000E-02	 1.05242000E-02
		 1.23108000E-04	-9.09185000E-02	-6.85942000E-04
		-4.97390000E-03	-9.11031000E-02	 1.05953000E-02
		 1.12266000E-04	-8.21758000E-02	-6.06604000E-04
		-2.39873000E-03	-9.35483000E-02	 4.91061000E-03
		-4.58820000E-03	-8.23764000E-02	 1.04571000E-02
		 5.15490000E-03	-8.82958000E-02	-1.19618000E-02
		 5.14112000E-03	-9.33148000E-02	-1.20548000E-02
		 4.85075000E-03	-7.73446000E-02	-1.15793000E-02
		 2.63960000E-03	-8.83401000E-02	-6.32814000E-03
		 5.14578000E-03	-9.08002000E-02	-1.19752000E-02
		 4.77692000E-03	-8.20613000E-02	-1.16705000E-02
		 2.63038000E-03	-9.33722000E-02	-6.37887000E-03
		 1.23938000E-04	-9.84868000E-02	-8.44354000E-04
		-4.86795000E-03	-9.86855000E-02	 1.04565000E-02
		 1.18296000E-04	-9.59812000E-02	-7.90380000E-04
		-4.90234000E-03	-9.61818000E-02	 1.05674000E-02
		 1.12830000E-04	-8.68284000E-02	-7.09147000E-04
		-2.37028000E-03	-9.85820000E-02	 4.74565000E-03
		-4.47756000E-03	-8.70285000E-02	 1.03599000E-02
		 5.13319000E-03	-9.83582000E-02	-1.21296000E-02
		 5.13827000E-03	-9.58370000E-02	-1.21384000E-02
		 4.70770000E-03	-8.67179000E-02	-1.17681000E-02
		 2.62084000E-03	-9.84177000E-02	-6.42256000E-03
		 1.66044000E-04	-1.11114000E-01	-8.97976000E-04
		-5.21398000E-03	-1.11328000E-01	 1.06192000E-02
		 1.36723000E-04	-1.16415000E-01	-9.83102000E-04
		-5.18194000E-03	-1.16634000E-01	 1.04823000E-02
		 1.25040000E-04	-9.96583000E-02	-7.76375000E-04
		-2.52268000E-03	-1.11233000E-01	 4.86240000E-03
		-5.18607000E-03	-9.98312000E-02	 1.07056000E-02
		 1.55320000E-04	-1.13778000E-01	-9.36480000E-04
		-5.19552000E-03	-1.13998000E-01	 1.05591000E-02
		 1.24874000E-04	-1.04922000E-01	-8.58470000E-04
		-2.53584000E-03	-1.16537000E-01	 4.74172000E-03
		-5.12153000E-03	-1.05129000E-01	 1.05804000E-02
		 5.56512000E-03	-1.10865000E-01	-1.23801000E-02
		 5.51441000E-03	-1.16193000E-01	-1.24154000E-02
		 5.39006000E-03	-9.94888000E-02	-1.22209000E-02
		 2.86374000E-03	-1.10982000E-01	-6.65815000E-03
		 5.53886000E-03	-1.13539000E-01	-1.23906000E-02
		 5.38190000E-03	-1.04746000E-01	-1.22808000E-02
		 2.82979000E-03	-1.16295000E-01	-6.70171000E-03
		 1.07938000E-04	-1.21705000E-01	-1.11068000E-03
		-5.17874000E-03	-1.21888000E-01	 1.03347000E-02
		 1.13544000E-04	-1.19048000E-01	-1.04195000E-03
		-5.18310000E-03	-1.19268000E-01	 1.04097000E-02
		 1.22606000E-04	-1.10162000E-01	-9.78815000E-04
		-2.55593000E-03	-1.21797000E-01	 4.60510000E-03
		-5.08831000E-03	-1.10336000E-01	 1.04353000E-02
		 5.52487000E-03	-1.21516000E-01	-1.24610000E-02
		 5.51730000E-03	-1.18833000E-01	-1.24236000E-02
		 5.42166000E-03	-1.10030000E-01	-1.23387000E-02
		 2.81189000E-03	-1.21612000E-01	-6.79381000E-03
		 0.00000000E+00	 0.00000000E+00	 0.00000000E+00
		 0.00000000E+00	 0.00000000E+00	 0.00000000E+00
		 1.35155000E-04	-1.40223000E-02	-2.78864000E-04
		-2.91589000E-03	-1.50728000E-02	 1.40098000E-02
		 0.00000000E+00	 0.00000000E+00	 0.00000000E+00
		 0.00000000E+00	 0.00000000E+00	 0.00000000E+00
		 1.21422000E-04	-1.61294000E-02	-2.70113000E-04
		-1.07935000E-03	-1.72431000E-02	 1.41885000E-02
		 0.00000000E+00	 0.00000000E+00	 0.00000000E+00
		 7.54627000E-05	-2.75563000E-03	-1.02240000E-04
		-1.39386000E-03	-1.42241000E-02	 6.81098000E-03
		-2.60980000E-03	-4.05208000E-03	 7.15981000E-03
		 0.00000000E+00	 0.00000000E+00	 0.00000000E+00
		 0.00000000E+00	 0.00000000E+00	 0.00000000E+00
		 1.28365000E-04	-1.53901000E-02	-2.78799000E-04
		-1.98250000E-03	-1.64670000E-02	 1.39769000E-02
		 0.00000000E+00	 0.00000000E+00	 0.00000000E+00
		 4.04436000E-05	-4.24864000E-03	-8.75441000E-05
		-4.77274000E-04	-1.63468000E-02	 6.77446000E-03
		-4.88779000E-04	-5.53557000E-03	 6.97986000E-03
		 0.00000000E+00	 0.00000000E+00	 0.00000000E+00
		 3.15170000E-03	-1.46108000E-02	-1.46358000E-02
		 0.00000000E+00	 0.00000000E+00	 0.00000000E+00
		 1.32309000E-03	-1.67661000E-02	-1.48033000E-02
		 0.00000000E+00	 0.00000000E+00	 0.00000000E+00
		 2.74051000E-03	-3.91152000E-03	-7.38938000E-03
		 1.65292000E-03	-1.39880000E-02	-7.39062000E-03
		 0.00000000E+00	 0.00000000E+00	 0.00000000E+00
		 2.22791000E-03	-1.59946000E-02	-1.46048000E-02
		 0.00000000E+00	 0.00000000E+00	 0.00000000E+00
		 5.73281000E-04	-5.39575000E-03	-7.16820000E-03
		 7.20580000E-04	-1.61078000E-02	-7.33930000E-03
		 0.00000000E+00	 0.00000000E+00	 0.00000000E+00
		 0.00000000E+00	 0.00000000E+00	 0.00000000E+00
		 1.08287000E-04	-1.64294000E-02	-1.97788000E-04
		 7.81833000E-04	-1.74599000E-02	 1.40965000E-02
		 0.00000000E+00	 0.00000000E+00	 0.00000000E+00
		 0.00000000E+00	 0.00000000E+00	 0.00000000E+00
		 1.13512000E-04	-1.65898000E-02	-2.47790000E-04
		-1.63053000E-04	-1.76677000E-02	 1.42661000E-02
		 0.00000000E+00	 0.00000000E+00	 0.00000000E+00
		 1.42050000E-05	-3.81350000E-03	-3.95553000E-05
		 4.43575000E-04	-1.66122000E-02	 6.63686000E-03
		 1.69353000E-03	-5.06225000E-03	 7.22365000E-03
		 0.00000000E+00	 0.00000000E+00	 0.00000000E+00
		-5.35382000E-04	-1.69916000E-02	-1.45526000E-02
		 0.00000000E+00	 0.00000000E+00	 0.00000000E+00
		 3.99669000E-04	-1.71867000E-02	-1.48320000E-02
		 0.00000000E+00	 0.00000000E+00	 0.00000000E+00
		-1.64188000E-03	-4.90986000E-03	-7.32126000E-03
		-2.13924000E-04	-1.63877000E-02	-7.04887000E-03
		 3.53057000E-04	-5.43523000E-02	-1.13237000E-03
		-3.99094000E-03	-5.56314000E-02	 2.38164000E-02
		 3.68680000E-04	-5.80480000E-02	-1.19656000E-03
		-2.68578000E-03	-5.93270000E-02	 2.38038000E-02
		 2.41079000E-04	-3.16003000E-02	-6.12425000E-04
		-1.82121000E-03	-5.48558000E-02	 1.13510000E-02
		-3.42393000E-03	-3.28642000E-02	 1.95273000E-02
		 3.62869000E-04	-5.63387000E-02	-1.17307000E-03
		-3.33736000E-03	-5.76113000E-02	 2.36962000E-02
		 2.33215000E-04	-3.44726000E-02	-6.28950000E-04
		-1.15434000E-03	-5.85509000E-02	 1.12059000E-02
		-1.84343000E-03	-3.57300000E-02	 1.95908000E-02
		 4.69144000E-03	-5.43128000E-02	-2.61586000E-02
		 3.42084000E-03	-5.80241000E-02	-2.62764000E-02
		 3.87050000E-03	-3.20117000E-02	-2.08462000E-02
		 2.52337000E-03	-5.41984000E-02	-1.36370000E-02
		 4.06076000E-03	-5.63137000E-02	-2.61135000E-02
		 2.30339000E-03	-3.48631000E-02	-2.09410000E-02
		 1.89429000E-03	-5.79097000E-02	-1.36153000E-02
		 3.65497000E-04	-6.04629000E-02	-1.18851000E-03
		-1.38019000E-03	-6.17145000E-02	 2.37593000E-02
		 3.68742000E-04	-5.93926000E-02	-1.20188000E-03
		-2.03001000E-03	-6.06961000E-02	 2.39459000E-02
		 2.19311000E-04	-3.57557000E-02	-5.73929000E-04
		-5.11691000E-04	-6.09383000E-02	 1.10178000E-02
		-2.51587000E-04	-3.70028000E-02	 1.95702000E-02
		 2.14969000E-03	-6.04484000E-02	-2.62178000E-02
		 2.78525000E-03	-5.93649000E-02	-2.64365000E-02
		 7.22328000E-04	-3.61561000E-02	-2.08042000E-02
		 1.25451000E-03	-6.03314000E-02	-1.34078000E-02
		 6.33105000E-04	-1.11680000E-01	-2.74512000E-03
		-4.93219000E-03	-1.13156000E-01	 2.93379000E-02
		 6.62121000E-04	-1.16752000E-01	-2.91176000E-03
		-3.95707000E-03	-1.18330000E-01	 2.91990000E-02
		 4.89966000E-04	-8.12164000E-02	-1.83414000E-03
		-2.14566000E-03	-1.12301000E-01	 1.33175000E-02
		-4.53487000E-03	-8.26209000E-02	 2.69790000E-02
		 6.49794000E-04	-1.14336000E-01	-2.83148000E-03
		-4.44577000E-03	-1.15875000E-01	 2.91823000E-02
		 5.11702000E-04	-8.56934000E-02	-1.95667000E-03
		-1.67537000E-03	-1.17423000E-01	 1.30759000E-02
		-3.42050000E-03	-8.71026000E-02	 2.69011000E-02
		 6.17462000E-03	-1.11047000E-01	-3.48741000E-02
		 5.30034000E-03	-1.16157000E-01	-3.51060000E-02
		 5.51289000E-03	-8.08855000E-02	-3.07152000E-02
		 3.40209000E-03	-1.11245000E-01	-1.88136000E-02
		 5.73776000E-03	-1.13722000E-01	-3.49195000E-02
		 4.46002000E-03	-8.53740000E-02	-3.08863000E-02
		 2.98252000E-03	-1.16346000E-01	-1.89352000E-02
		 6.74344000E-04	-1.20925000E-01	-3.02577000E-03
		-3.11864000E-03	-1.22615000E-01	 2.90517000E-02
		 6.70479000E-04	-1.18969000E-01	-2.97874000E-03
		-3.54025000E-03	-1.20478000E-01	 2.92301000E-02
		 5.25810000E-04	-8.90944000E-02	-2.01450000E-03
		-1.19148000E-03	-1.21650000E-01	 1.28316000E-02
		-2.37615000E-03	-9.05330000E-02	 2.68000000E-02
		 4.44898000E-03	-1.20388000E-01	-3.52162000E-02
		 4.87782000E-03	-1.18372000E-01	-3.52764000E-02
		 3.41350000E-03	-8.88100000E-02	-3.09090000E-02
		 2.54737000E-03	-1.20565000E-01	-1.89413000E-02
		 1.03692000E-03	-1.81495000E-01	-5.18103000E-03
		-5.03994000E-03	-1.83105000E-01	 3.19254000E-02
		 1.06352000E-03	-1.87313000E-01	-5.39439000E-03
		-4.51101000E-03	-1.89377000E-01	 3.17459000E-02
		 7.90146000E-04	-1.45202000E-01	-3.86345000E-03
		-1.99933000E-03	-1.82221000E-01	 1.33297000E-02
		-5.13844000E-03	-1.46841000E-01	 3.09459000E-02
		 1.05424000E-03	-1.84444000E-01	-5.28955000E-03
		-4.76516000E-03	-1.86232000E-01	 3.18382000E-02
		 8.13194000E-04	-1.50779000E-01	-4.10278000E-03
		-1.60275000E-03	-1.88252000E-01	 1.31281000E-02
		-4.39409000E-03	-1.52366000E-01	 3.08196000E-02
		 6.96154000E-03	-1.80373000E-01	-4.23308000E-02
		 6.36297000E-03	-1.86064000E-01	-4.25693000E-02
		 6.70556000E-03	-1.44313000E-01	-3.87244000E-02
		 3.99259000E-03	-1.80867000E-01	-2.36944000E-02
		 6.67104000E-03	-1.83291000E-01	-4.24648000E-02
		 5.96848000E-03	-1.49880000E-01	-3.89736000E-02
		 3.69884000E-03	-1.86594000E-01	-2.39282000E-02
		 9.37403000E-04	-1.92556000E-01	-5.57283000E-03
		-3.87905000E-03	-1.94961000E-01	 3.15504000E-02
		 1.00332000E-03	-1.89974000E-01	-5.49229000E-03
		-4.19048000E-03	-1.92731000E-01	 3.16633000E-02
		 7.98345000E-04	-1.55602000E-01	-4.32072000E-03
		-1.58975000E-03	-1.93650000E-01	 1.29144000E-02
		-3.51598000E-03	-1.57067000E-01	 3.06414000E-02
		 5.78137000E-03	-1.91180000E-01	-4.27162000E-02