# vtk DataFile Version 3.0

ASCII
DATASET UNSTRUCTURED_GRID

POINTS 522 double
	 1.00000000E+00	 1.00000000E+00	-5.96046000E-08
	 1.00000000E+00	 5.00000000E-01	-5.96046000E-08
	 1.00000000E+00	 5.00000000E-01	 1.00000000E+00
	 1.00000000E+00	 1.00000000E+00	 1.00000000E+00
	 5.00000000E-01	 1.00000000E+00	-5.96046000E-08
	 5.00000000E-01	 5.00000000E-01	-5.96046000E-08
	 5.00000000E-01	 5.00000000E-01	 1.00000000E+00
	 5.00000000E-01	 1.00000000E+00	 1.00000000E+00
	 1.00000000E+00	 7.50000000E-01	-5.96046000E-08
	 1.00000000E+00	 5.00000000E-01	 5.00000000E-01
	 1.00000000E+00	 7.50000000E-01	 1.00000000E+00
	 1.00000000E+00	 1.00000000E+00	 5.00000000E-01
	 7.50000000E-01	 1.00000000E+00	-5.96046000E-08
	 7.50000000E-01	 5.00000000E-01	-5.96046000E-08
	 7.50000000E-01	 5.00000000E-01	 1.00000000E+00
	 7.50000000E-01	 1.00000000E+00	 1.00000000E+00
	 5.00000000E-01	 7.50000000E-01	-5.96046000E-08
	 5.00000000E-01	 5.00000000E-01	 5.00000000E-01
	 5.00000000E-01	 7.50000000E-01	 1.00000000E+00
	 5.00000000E-01	 1.00000000E+00	 5.00000000E-01
	 1.00000000E+00	-1.49012000E-08	-5.96046000E-08
	 1.00000000E+00	-1.49012000E-08	 1.00000000E+00
	 5.00000000E-01	-1.49012000E-08	-5.96046000E-08
	 5.00000000E-01	-1.49012000E-08	 1.00000000E+00
	 1.00000000E+00	 2.50000000E-01	-5.96046000E-08
	 1.00000000E+00	-1.49012000E-08	 5.00000000E-01
	 1.00000000E+00	 2.50000000E-01	 1.00000000E+00
	 7.50000000E-01	-1.49012000E-08	-5.96046000E-08
	 7.50000000E-01	-1.49012000E-08	 1.00000000E+00
	 5.00000000E-01	 2.50000000E-01	-5.96046000E-08
	 5.00000000E-01	-1.49012000E-08	 5.00000000E-01
	 5.00000000E-01	 2.50000000E-01	 1.00000000E+00
	-7.45058000E-09	 1.00000000E+00	-5.96046000E-08
	-7.45058000E-09	 5.00000000E-01	-5.96046000E-08
	-7.45058000E-09	 5.00000000E-01	 1.00000000E+00
	-7.45058000E-09	 1.00000000E+00	 1.00000000E+00
	 2.50000000E-01	 1.00000000E+00	-5.96046000E-08
	 2.50000000E-01	 5.00000000E-01	-5.96046000E-08
	 2.50000000E-01	 5.00000000E-01	 1.00000000E+00
	 2.50000000E-01	 1.00000000E+00	 1.00000000E+00
	-7.45058000E-09	 7.50000000E-01	-5.96046000E-08
	-7.45058000E-09	 5.00000000E-01	 5.00000000E-01
	-7.45058000E-09	 7.50000000E-01	 1.00000000E+00
	-7.45058000E-09	 1.00000000E+00	 5.00000000E-01
	-7.45058000E-09	-1.49012000E-08	-5.96046000E-08
	-7.45058000E-09	-1.49012000E-08	 1.00000000E+00
	 2.50000000E-01	-1.49012000E-08	-5.96046000E-08
	 2.50000000E-01	-1.49012000E-08	 1.00000000E+00
	-7.45058000E-09	 2.50000000E-01	-5.96046000E-08
	-7.45058000E-09	-1.49012000E-08	 5.00000000E-01
	-7.45058000E-09	 2.50000000E-01	 1.00000000E+00
	 1.00000000E+00	 5.00000000E-01	 2.00000000E+00
	 1.00000000E+00	 1.00000000E+00	 2.00000000E+00
	 5.00000000E-01	 5.00000000E-01	 2.00000000E+00
	 5.00000000E-01	 1.00000000E+00	 2.00000000E+00
	 1.00000000E+00	 5.00000000E-01	 1.50000000E+00
	 1.00000000E+00	 7.50000000E-01	 2.00000000E+00
	 1.00000000E+00	 1.00000000E+00	 1.50000000E+00
	 7.50000000E-01	 5.00000000E-01	 2.00000000E+00
	 7.50000000E-01	 1.00000000E+00	 2.00000000E+00
	 5.00000000E-01	 5.00000000E-01	 1.50000000E+00
	 5.00000000E-01	 7.50000000E-01	 2.00000000E+00
	 5.00000000E-01	 1.00000000E+00	 1.50000000E+00
	 1.00000000E+00	-1.49012000E-08	 2.00000000E+00
	 5.00000000E-01	-1.49012000E-08	 2.00000000E+00
	 1.00000000E+00	-1.49012000E-08	 1.50000000E+00
	 1.00000000E+00	 2.50000000E-01	 2.00000000E+00
	 7.50000000E-01	-1.49012000E-08	 2.00000000E+00
	 5.00000000E-01	-1.49012000E-08	 1.50000000E+00
	 5.00000000E-01	 2.50000000E-01	 2.00000000E+00
	-7.45058000E-09	 5.00000000E-01	 2.00000000E+00
	-7.45058000E-09	 1.00000000E+00	 2.00000000E+00
	 2.50000000E-01	 5.00000000E-01	 2.00000000E+00
	 2.50000000E-01	 1.00000000E+00	 2.00000000E+00
	-7.45058000E-09	 5.00000000E-01	 1.50000000E+00
	-7.45058000E-09	 7.50000000E-01	 2.00000000E+00
	-7.45058000E-09	 1.00000000E+00	 1.50000000E+00
	-7.45058000E-09	-1.49012000E-08	 2.00000000E+00
	 2.50000000E-01	-1.49012000E-08	 2.00000000E+00
	-7.45058000E-09	-1.49012000E-08	 1.50000000E+00
	-7.45058000E-09	 2.50000000E-01	 2.00000000E+00
	 1.00000000E+00	 5.00000000E-01	 3.00000000E+00
	 1.00000000E+00	 1.00000000E+00	 3.00000000E+00
	 5.00000000E-01	 5.00000000E-01	 3.00000000E+00
	 5.00000000E-01	 1.00000000E+00	 3.00000000E+00
	 1.00000000E+00	 5.00000000E-01	 2.50000000E+00
	 1.00000000E+00	 7.50000000E-01	 3.00000000E+00
	 1.00000000E+00	 1.00000000E+00	 2.50000000E+00
	 7.50000000E-01	 5.00000000E-01	 3.00000000E+00
	 7.50000000E-01	 1.00000000E+00	 3.00000000E+00
	 5.00000000E-01	 5.00000000E-01	 2.50000000E+00
	 5.00000000E-01	 7.50000000E-01	 3.00000000E+00
	 5.00000000E-01	 1.00000000E+00	 2.50000000E+00
	 1.00000000E+00	-1.49012000E-08	 3.00000000E+00
	 5.00000000E-01	-1.49012000E-08	 3.00000000E+00
	 1.00000000E+00	-1.49012000E-08	 2.50000000E+00
	 1.00000000E+00	 2.50000000E-01	 3.00000000E+00
	 7.50000000E-01	-1.49012000E-08	 3.00000000E+00
	 5.00000000E-01	-1.49012000E-08	 2.50000000E+00
	 5.00000000E-01	 2.50000000E-01	 3.00000000E+00
	-7.45058000E-09	 5.00000000E-01	 3.00000000E+00
	-7.45058000E-09	 1.00000000E+00	 3.00000000E+00
	 2.50000000E-01	 5.00000000E-01	 3.00000000E+00
	 2.50000000E-01	 1.00000000E+00	 3.00000000E+00
	-7.45058000E-09	 5.00000000E-01	 2.50000000E+00
	-7.45058000E-09	 7.50000000E-01	 3.00000000E+00
	-7.45058000E-09	 1.00000000E+00	 2.50000000E+00
	-7.45058000E-09	-1.49012000E-08	 3.00000000E+00
	 2.50000000E-01	-1.49012000E-08	 3.00000000E+00
	-7.45058000E-09	-1.49012000E-08	 2.50000000E+00
	-7.45058000E-09	 2.50000000E-01	 3.00000000E+00
	 1.00000000E+00	 5.00000000E-01	 4.00000000E+00
	 1.00000000E+00	 1.00000000E+00	 4.00000000E+00
	 5.00000000E-01	 5.00000000E-01	 4.00000000E+00
	 5.00000000E-01	 1.00000000E+00	 4.00000000E+00
	 1.00000000E+00	 5.00000000E-01	 3.50000000E+00
	 1.00000000E+00	 7.50000000E-01	 4.00000000E+00
	 1.00000000E+00	 1.00000000E+00	 3.50000000E+00
	 7.50000000E-01	 5.00000000E-01	 4.00000000E+00
	 7.50000000E-01	 1.00000000E+00	 4.00000000E+00
	 5.00000000E-01	 5.00000000E-01	 3.50000000E+00
	 5.00000000E-01	 7.50000000E-01	 4.00000000E+00
	 5.00000000E-01	 1.00000000E+00	 3.50000000E+00
	 1.00000000E+00	-1.49012000E-08	 4.00000000E+00
	 5.00000000E-01	-1.49012000E-08	 4.00000000E+00
	 1.00000000E+00	-1.49012000E-08	 3.50000000E+00
	 1.00000000E+00	 2.50000000E-01	 4.00000000E+00
	 7.50000000E-01	-1.49012000E-08	 4.00000000E+00
	 5.00000000E-01	-1.49012000E-08	 3.50000000E+00
	 5.00000000E-01	 2.50000000E-01	 4.00000000E+00
	-7.45058000E-09	 5.00000000E-01	 4.00000000E+00
	-7.45058000E-09	 1.00000000E+00	 4.00000000E+00
	 2.50000000E-01	 5.00000000E-01	 4.00000000E+00
	 2.50000000E-01	 1.00000000E+00	 4.00000000E+00
	-7.45058000E-09	 5.00000000E-01	 3.50000000E+00
	-7.45058000E-09	 7.50000000E-01	 4.00000000E+00
	-7.45058000E-09	 1.00000000E+00	 3.50000000E+00
	-7.45058000E-09	-1.49012000E-08	 4.00000000E+00
	 2.50000000E-01	-1.49012000E-08	 4.00000000E+00
	-7.45058000E-09	-1.49012000E-08	 3.50000000E+00
	-7.45058000E-09	 2.50000000E-01	 4.00000000E+00
	 1.00000000E+00	 5.00000000E-01	 5.00000000E+00
	 1.00000000E+00	 1.00000000E+00	 5.00000000E+00
	 5.00000000E-01	 5.00000000E-01	 5.00000000E+00
	 5.00000000E-01	 1.00000000E+00	 5.00000000E+00
	 1.00000000E+00	 5.00000000E-01	 4.50000000E+00
	 1.00000000E+00	 7.50000000E-01	 5.00000000E+00
	 1.00000000E+00	 1.00000000E+00	 4.50000000E+00
	 7.50000000E-01	 5.00000000E-01	 5.00000000E+00
	 7.50000000E-01	 1.00000000E+00	 5.00000000E+00
	 5.00000000E-01	 5.00000000E-01	 4.50000000E+00
	 5.00000000E-01	 7.50000000E-01	 5.00000000E+00
	 5.00000000E-01	 1.00000000E+00	 4.50000000E+00
	 1.00000000E+00	-1.49012000E-08	 5.00000000E+00
	 5.00000000E-01	-1.49012000E-08	 5.00000000E+00
	 1.00000000E+00	-1.49012000E-08	 4.50000000E+00
	 1.00000000E+00	 2.50000000E-01	 5.00000000E+00
	 7.50000000E-01	-1.49012000E-08	 5.00000000E+00
	 5.00000000E-01	-1.49012000E-08	 4.50000000E+00
	 5.00000000E-01	 2.50000000E-01	 5.00000000E+00
	-7.45058000E-09	 5.00000000E-01	 5.00000000E+00
	-7.45058000E-09	 1.00000000E+00	 5.00000000E+00
	 2.50000000E-01	 5.00000000E-01	 5.00000000E+00
	 2.50000000E-01	 1.00000000E+00	 5.00000000E+00
	-7.45058000E-09	 5.00000000E-01	 4.50000000E+00
	-7.45058000E-09	 7.50000000E-01	 5.00000000E+00
	-7.45058000E-09	 1.00000000E+00	 4.50000000E+00
	-7.45058000E-09	-1.49012000E-08	 5.00000000E+00
	 2.50000000E-01	-1.49012000E-08	 5.00000000E+00
	-7.45058000E-09	-1.49012000E-08	 4.50000000E+00
	-7.45058000E-09	 2.50000000E-01	 5.00000000E+00
	 1.00000000E+00	 5.00000000E-01	 6.00000000E+00
	 1.00000000E+00	 1.00000000E+00	 6.00000000E+00
	 5.00000000E-01	 5.00000000E-01	 6.00000000E+00
	 5.00000000E-01	 1.00000000E+00	 6.00000000E+00
	 1.00000000E+00	 5.00000000E-01	 5.50000000E+00
	 1.00000000E+00	 7.50000000E-01	 6.00000000E+00
	 1.00000000E+00	 1.00000000E+00	 5.50000000E+00
	 7.50000000E-01	 5.00000000E-01	 6.00000000E+00
	 7.50000000E-01	 1.00000000E+00	 6.00000000E+00
	 5.00000000E-01	 5.00000000E-01	 5.50000000E+00
	 5.00000000E-01	 7.50000000E-01	 6.00000000E+00
	 5.00000000E-01	 1.00000000E+00	 5.50000000E+00
	 1.00000000E+00	-1.49012000E-08	 6.00000000E+00
	 5.00000000E-01	-1.49012000E-08	 6.00000000E+00
	 1.00000000E+00	-1.49012000E-08	 5.50000000E+00
	 1.00000000E+00	 2.50000000E-01	 6.00000000E+00
	 7.50000000E-01	-1.49012000E-08	 6.00000000E+00
	 5.00000000E-01	-1.49012000E-08	 5.50000000E+00
	 5.00000000E-01	 2.50000000E-01	 6.00000000E+00
	-7.45058000E-09	 5.00000000E-01	 6.00000000E+00
	-7.45058000E-09	 1.00000000E+00	 6.00000000E+00
	 2.50000000E-01	 5.00000000E-01	 6.00000000E+00
	 2.50000000E-01	 1.00000000E+00	 6.00000000E+00
	-7.45058000E-09	 5.00000000E-01	 5.50000000E+00
	-7.45058000E-09	 7.50000000E-01	 6.00000000E+00
	-7.45058000E-09	 1.00000000E+00	 5.50000000E+00
	-7.45058000E-09	-1.49012000E-08	 6.00000000E+00
	 2.50000000E-01	-1.49012000E-08	 6.00000000E+00
	-7.45058000E-09	-1.49012000E-08	 5.50000000E+00
	-7.45058000E-09	 2.50000000E-01	 6.00000000E+00
	 1.00000000E+00	 5.00000000E-01	 7.00000000E+00
[...]
POINT_DATA 522
FIELD U 1
	U 3 522 double
		 0.00000000E+00	 0.00000000E+00	 0.00000000E+00
		 0.00000000E+00	 0.00000000E+00	 0.00000000E+00
		-1.25582000E-06	 3.07028000E-04	-3.66098000E-05
		 2.00875000E-04	 3.76092000E-04	-7.53143000E-04
		 0.00000000E+00	 0.00000000E+00	 0.00000000E+00
		 0.00000000E+00	 0.00000000E+00	 0.00000000E+00
		-7.86537000E-06	 4.34769000E-04	-4.14334000E-05
		 5.40974000E-05	 5.09365000E-04	-7.59599000E-04
		 0.00000000E+00	 0.00000000E+00	 0.00000000E+00
		 2.47757000E-06	-6.41958000E-05	-1.67194000E-05
		 9.97073000E-05	 3.20198000E-04	-4.17245000E-04
		 1.31521000E-04	 6.12910000E-06	-3.15379000E-04
		 0.00000000E+00	 0.00000000E+00	 0.00000000E+00
		 0.00000000E+00	 0.00000000E+00	 0.00000000E+00
		-4.26894000E-06	 3.91433000E-04	-3.88252000E-05
		 1.27175000E-04	 4.63181000E-04	-7.43374000E-04
		 0.00000000E+00	 0.00000000E+00	 0.00000000E+00
		-3.71260000E-06	 1.05087000E-05	-1.81299000E-05
		 2.28437000E-05	 4.49823000E-04	-4.10946000E-04
		 1.98984000E-05	 7.85838000E-05	-3.01290000E-04
		 0.00000000E+00	 0.00000000E+00	 0.00000000E+00
		-2.04471000E-04	 3.66347000E-04	 6.81210000E-04
		 0.00000000E+00	 0.00000000E+00	 0.00000000E+00
		-6.96957000E-05	 4.99335000E-04	 6.77990000E-04
		 0.00000000E+00	 0.00000000E+00	 0.00000000E+00
		-1.27050000E-04	-5.53887000E-06	 2.80243000E-04
		-1.02746000E-04	 3.15327000E-04	 3.44527000E-04
		 0.00000000E+00	 0.00000000E+00	 0.00000000E+00
		-1.36249000E-04	 4.53532000E-04	 6.67081000E-04
		 0.00000000E+00	 0.00000000E+00	 0.00000000E+00
		-2.71931000E-05	 6.65889000E-05	 2.63292000E-04
		-3.86872000E-05	 4.44988000E-04	 3.28681000E-04
		 0.00000000E+00	 0.00000000E+00	 0.00000000E+00
		 0.00000000E+00	 0.00000000E+00	 0.00000000E+00
		-1.50218000E-05	 4.31182000E-04	-4.55925000E-05
		-9.30739000E-05	 5.01154000E-04	-7.62448000E-04
		 0.00000000E+00	 0.00000000E+00	 0.00000000E+00
		 0.00000000E+00	 0.00000000E+00	 0.00000000E+00
		-1.14827000E-05	 4.53469000E-04	-4.35852000E-05
		-1.90694000E-05	 5.26226000E-04	-7.64809000E-04
		 0.00000000E+00	 0.00000000E+00	 0.00000000E+00
		-1.08929000E-05	-1.69894000E-05	-2.21726000E-05
		-5.38278000E-05	 4.44658000E-04	-4.09981000E-04
		-9.64375000E-05	 5.07372000E-05	-3.21138000E-04
		 0.00000000E+00	 0.00000000E+00	 0.00000000E+00
		 6.44170000E-05	 4.90214000E-04	 6.72522000E-04
		 0.00000000E+00	 0.00000000E+00	 0.00000000E+00
		-3.12776000E-06	 5.15885000E-04	 6.78775000E-04
		 0.00000000E+00	 0.00000000E+00	 0.00000000E+00
		 7.53840000E-05	 3.73006000E-05	 2.75078000E-04
		 2.41820000E-05	 4.39282000E-04	 3.19555000E-04
		-1.44977000E-05	 2.79714000E-03	-6.83483000E-05
		 2.00980000E-04	 2.83326000E-03	-1.66554000E-03
		-1.91218000E-05	 2.95909000E-03	-8.16000000E-05
		 1.02155000E-04	 3.00404000E-03	-1.69261000E-03
		-5.46855000E-06	 1.25196000E-03	-5.35802000E-05
		 9.04438000E-05	 2.80241000E-03	-8.29666000E-04
		 2.37021000E-04	 1.30775000E-03	-1.25304000E-03
		-1.64665000E-05	 2.88895000E-03	-7.48621000E-05
		 1.51850000E-04	 2.93230000E-03	-1.68842000E-03
		-1.10718000E-05	 1.42201000E-03	-6.20152000E-05
		 4.17569000E-05	 2.96828000E-03	-8.57704000E-04
		 9.52770000E-05	 1.48455000E-03	-1.26803000E-03
		-2.31161000E-04	 2.83088000E-03	 1.52826000E-03
		-1.40264000E-04	 3.00130000E-03	 1.52897000E-03
		-2.48309000E-04	 1.30242000E-03	 1.14667000E-03
		-1.19842000E-04	 2.80104000E-03	 6.92968000E-04
		-1.85700000E-04	 2.93026000E-03	 1.53796000E-03
		-1.16911000E-04	 1.47829000E-03	 1.14470000E-03
		-8.01710000E-05	 2.96726000E-03	 6.94381000E-04
		-2.57509000E-05	 3.03994000E-03	-9.41453000E-05
		 9.09007000E-06	 3.08545000E-03	-1.69068000E-03
		-2.22655000E-05	 3.01139000E-03	-8.82219000E-05
		 5.61730000E-05	 3.05699000E-03	-1.70045000E-03
		-1.83200000E-05	 1.46470000E-03	-6.91815000E-05
		-7.42219000E-06	 3.05018000E-03	-8.56045000E-04
		-4.42488000E-05	 1.52624000E-03	-1.26884000E-03
		-5.86346000E-05	 3.07933000E-03	 1.50229000E-03
		-9.94739000E-05	 3.05283000E-03	 1.52385000E-03
		 9.39303000E-06	 1.51685000E-03	 1.13106000E-03
		-4.36084000E-05	 3.04739000E-03	 6.67681000E-04
		-4.42366000E-05	 6.99170000E-03	-1.08304000E-04
		-2.17723000E-04	 6.94630000E-03	-1.70871000E-03
		-5.07104000E-05	 6.86803000E-03	-1.24390000E-04
		-1.26175000E-04	 6.82237000E-03	-1.74302000E-03
		-2.86860000E-05	 4.82921000E-03	-8.61416000E-05
		-1.30074000E-04	 6.98290000E-03	-8.31541000E-04
		 4.40005000E-05	 4.82288000E-03	-1.82969000E-03
		-4.72504000E-05	 6.91651000E-03	-1.16203000E-04
		-1.71750000E-04	 6.87068000E-03	-1.76555000E-03
		-3.41462000E-05	 4.89437000E-03	-1.01958000E-04
		-8.77750000E-05	 6.85939000E-03	-8.94127000E-04
		 3.19489000E-05	 4.89467000E-03	-1.86654000E-03
		 1.28298000E-04	 6.93993000E-03	 1.49193000E-03
		 2.45554000E-05	 6.81714000E-03	 1.49398000E-03
		-1.03261000E-04	 4.81848000E-03	 1.65630000E-03
		 4.13430000E-05	 6.97908000E-03	 6.14790000E-04
		 7.65224000E-05	 6.86535000E-03	 1.53316000E-03
		-1.00738000E-04	 4.89184000E-03	 1.66171000E-03
		-1.37140000E-05	 6.85663000E-03	 6.45255000E-04
		-5.71900000E-05	 6.84003000E-03	-1.40992000E-04
		-2.74168000E-05	 6.80120000E-03	-1.74085000E-03
		-5.41437000E-05	 6.84133000E-03	-1.32596000E-04
		-7.64367000E-05	 6.79627000E-03	-1.72501000E-03
		-4.04677000E-05	 4.96166000E-03	-1.18387000E-04
		-4.48373000E-05	 6.83473000E-03	-9.20584000E-04
		 3.18352000E-05	 4.96798000E-03	-1.86091000E-03
		-8.62721000E-05	 6.79532000E-03	 1.45845000E-03
		-3.14915000E-05	 6.79079000E-03	 1.45947000E-03
		-1.11798000E-04	 4.96345000E-03	 1.62338000E-03
		-6.93716000E-05	 6.83169000E-03	 6.38327000E-04
		-7.70721000E-05	 9.92972000E-03	-1.54018000E-04
		-7.73116000E-04	 9.85366000E-03	-6.92108000E-04
		-8.23582000E-05	 9.32813000E-03	-1.65593000E-04
		-5.98419000E-04	 9.24526000E-03	-7.00961000E-04
		-6.09195000E-05	 8.80567000E-03	-1.31460000E-04
		-4.23034000E-04	 9.91541000E-03	-3.99788000E-04
		-5.12407000E-04	 8.74221000E-03	-1.26179000E-03
		-8.01039000E-05	 9.60677000E-03	-1.59980000E-04
		-6.86266000E-04	 9.52509000E-03	-7.27036000E-04
		-6.73295000E-05	 8.43926000E-03	-1.46569000E-04
		-3.40512000E-04	 9.31099000E-03	-4.41406000E-04
		-3.54250000E-04	 8.37164000E-03	-1.28554000E-03
		 6.19861000E-04	 9.84348000E-03	 3.83509000E-04
		 4.33743000E-04	 9.23538000E-03	 3.69511000E-04
		 3.91046000E-04	 8.73410000E-03	 9.98910000E-04
		 2.69179000E-04	 9.91062000E-03	 9.13028000E-05
		 5.26964000E-04	 9.51469000E-03	 4.06788000E-04
		 2.19875000E-04	 8.36351000E-03	 9.92529000E-04
		 1.76031000E-04	 9.30585000E-03	 1.09989000E-04
		-8.56371000E-05	 8.89665000E-03	-1.74967000E-04
		-4.28057000E-04	 8.81241000E-03	-7.12912000E-04
		-8.41658000E-05	 9.08894000E-03	-1.70561000E-04
		-5.13589000E-04	 9.00579000E-03	-6.69259000E-04
		-7.28781000E-05	 8.23036000E-03	-1.60620000E-04
		-2.56857000E-04	 8.87798000E-03	-4.89018000E-04
		-1.92535000E-04	 8.16895000E-03	-1.29068000E-03
		 2.55376000E-04	 8.80546000E-03	 3.63021000E-04
		 3.44385000E-04	 8.99713000E-03	 3.28131000E-04
		 4.68181000E-05	 8.16140000E-03	 9.69585000E-04
		 8.53168000E-05	 8.87435000E-03	 1.38858000E-04
		-8.82310000E-05	 1.00989000E-02	-1.89383000E-04
		-9.55174000E-04	 1.00413000E-02	 2.26417000E-04
		-8.85372000E-05	 9.29129000E-03	-1.92844000E-04
		-8.32526000E-04	 9.23502000E-03	 2.21882000E-04
		-8.58217000E-05	 1.02889000E-02	-1.74597000E-04
		-5.22649000E-04	 1.00838000E-02	 2.05114000E-05
		-9.19775000E-04	 1.02267000E-02	-1.95729000E-04
		-8.88330000E-05	 9.68138000E-03	-1.91220000E-04
		-8.93952000E-04	 9.62477000E-03	 2.25956000E-04
		-8.86217000E-05	 9.53156000E-03	-1.80831000E-04
		-4.61102000E-04	 9.27621000E-03	 1.87178000E-05
		-7.74396000E-04	 9.46269000E-03	-1.94931000E-04
		 7.82325000E-04	 1.00358000E-02	-6.05508000E-04
		 6.55090000E-04	 9.22599000E-03	-6.07920000E-04
		 7.50339000E-04	 1.02180000E-02	-1.54026000E-04
		 3.47120000E-04	 1.00806000E-02	-3.99450000E-04
		 7.18586000E-04	 9.61660000E-03	-6.08715000E-04
		 5.96885000E-04	 9.45281000E-03	-1.67323000E-04
		 2.83893000E-04	 9.27063000E-03	-4.04476000E-04
		-8.89345000E-05	 8.61140000E-03	-1.94049000E-04
		-7.17784000E-04	 8.54531000E-03	 2.22092000E-04
		-8.82391000E-05	 8.93666000E-03	-1.93904000E-04
		-7.75660000E-04	 8.87884000E-03	 2.18401000E-04
		-9.01617000E-05	 8.91726000E-03	-1.84713000E-04
		-4.00369000E-04	 8.59149000E-03	 2.14090000E-05
		-6.44250000E-04	 8.83682000E-03	-2.06165000E-04
		 5.35890000E-04	 8.54045000E-03	-6.10524000E-04
		 5.96234000E-04	 8.87102000E-03	-6.06415000E-04
		 4.60898000E-04	 8.83112000E-03	-1.63829000E-04
		 2.21431000E-04	 8.58872000E-03	-4.09630000E-04
		-9.15063000E-05	 8.48718000E-03	-2.12965000E-04
		-9.63100000E-04	 8.38713000E-03	 1.25216000E-03
		-9.09090000E-05	 7.72126000E-03	-2.08393000E-04
		-7.57210000E-04	 7.61775000E-03	 1.25116000E-03
		-9.16532000E-05	 9.53482000E-03	-2.00367000E-04
		-5.26140000E-04	 8.46514000E-03	 5.36397000E-04
		-9.55621000E-04	 9.45598000E-03	 6.74815000E-04
		-9.19731000E-05	 8.07759000E-03	-2.10647000E-04
		-8.60460000E-04	 7.97545000E-03	 1.25055000E-03
		-9.08431000E-05	 8.74638000E-03	-2.01960000E-04
		-4.23117000E-04	 7.69850000E-03	 5.38696000E-04
		-8.02032000E-04	 8.66883000E-03	 6.63726000E-04
		 7.79923000E-04	 8.38481000E-03	-1.67444000E-03
		 5.73355000E-04	 7.61703000E-03	-1.66400000E-03
		 7.74432000E-04	 9.45050000E-03	-1.07481000E-03
		 3.43335000E-04	 8.46335000E-03	-9.60823000E-04
		 6.75743000E-04	 7.97379000E-03	-1.66852000E-03
		 6.19252000E-04	 8.66160000E-03	-1.06644000E-03
		 2.40757000E-04	 7.69733000E-03	-9.54342000E-04
		-8.86652000E-05	 7.15393000E-03	-2.05729000E-04
		-5.46411000E-04	 7.05286000E-03	 1.26126000E-03
		-8.94775000E-05	 7.41089000E-03	-2.06831000E-04
		-6.51613000E-04	 7.30675000E-03	 1.24581000E-03
		-8.94239000E-05	 8.11352000E-03	-2.02373000E-04
		-3.18986000E-04	 7.13161000E-03	 5.54385000E-04
		-6.48371000E-04	 8.03168000E-03	 6.74862000E-04
		 3.64897000E-04	 7.05838000E-03	-1.66855000E-03
		 4.69209000E-04	 7.30871000E-03	-1.65549000E-03
		 4.65415000E-04	 8.02939000E-03	-1.07799000E-03
		 1.40390000E-04	 7.13398000E-03	-9.64526000E-04
		-5.70367000E-05	 4.02549000E-03	-2.31635000E-04
		-9.43960000E-04	 3.94023000E-03	 2.59160000E-03
		-5.81122000E-05	 3.20840000E-03	-2.21044000E-04
		-8.00253000E-04	 3.12332000E-03	 2.61369000E-03
		-7.76479000E-05	 6.67190000E-03	-2.25577000E-04
		-4.99166000E-04	 4.00209000E-03	 1.14780000E-03
		-9.59966000E-04	 6.57596000E-03	 1.96609000E-03
		-5.68570000E-05	 3.59941000E-03	-2.25619000E-04
		-8.70471000E-04	 3.51331000E-03	 2.60309000E-03
		-7.86744000E-05	 5.89303000E-03	-2.14052000E-04
		-4.27440000E-04	 3.18544000E-03	 1.15926000E-03
		-7.55973000E-04	 5.79400000E-03	 1.98416000E-03
		 8.32552000E-04	 3.96676000E-03	-3.05687000E-03
		 6.83217000E-04	 3.14696000E-03	-3.05865000E-03
		 8.03466000E-04	 6.58610000E-03	-2.41275000E-03
		 3.85713000E-04	 4.01694000E-03	-1.61310000E-03
		 7.58663000E-04	 3.53763000E-03	-3.05568000E-03
		 5.96588000E-04	 5.80648000E-03	-2.40810000E-03
		 3.10879000E-04	 3.19803000E-03	-1.60266000E-03
		-6.00803000E-05	 2.53550000E-03	-2.06580000E-04
		-6.56720000E-04	 2.45116000E-03	 2.60543000E-03
		-5.96184000E-05	 2.85141000E-03	-2.14758000E-04
		-7.29103000E-04	 2.76646000E-03	 2.63202000E-03
		-7.92896000E-05	 5.31267000E-03	-2.05371000E-04
		-3.58009000E-04	 2.51171000E-03	 1.13944000E-03
		-5.43268000E-04	 5.22165000E-03	 1.98513000E-03
		 5.32671000E-04	 2.47825000E-03	-3.02213000E-03
		 6.06367000E-04	 2.79114000E-03	-3.06458000E-03
		 3.81656000E-04	 5.23836000E-03	-2.39192000E-03
		 2.36898000E-04	 2.52712000E-03	-1.55443000E-03
		-4.60500000E-05	-2.49670000E-03	-2.34214000E-04
		-8.74571000E-04	-2.51950000E-03	 2.97590000E-03
		-2.76509000E-05	-3.32514000E-03	-2.39245000E-04
		-8.64197000E-04	-3.33046000E-03	 2.96488000E-03
		-4.42021000E-05	 8.13189000E-04	-2.30798000E-04
		-4.65800000E-04	-2.51069000E-03	 1.35925000E-03
		-9.04769000E-04	 7.63975000E-04	 2.89957000E-03
		-3.91829000E-05	-2.91295000E-03	-2.39765000E-04
		-8.71522000E-04	-2.92330000E-03	 2.97453000E-03
		-4.04946000E-05	-2.39467000E-05	-2.29757000E-04
		-4.50985000E-04	-3.32977000E-03	 1.35388000E-03
		-8.44832000E-04	-6.42312000E-05	 2.90325000E-03
		 8.04769000E-04	-2.50631000E-03	-3.46666000E-03
		 8.11605000E-04	-3.34133000E-03	-3.46613000E-03
		 8.30724000E-04	 7.96701000E-04	-3.37608000E-03
		 3.79168000E-04	-2.50530000E-03	-1.83440000E-03
		 8.08703000E-04	-2.92725000E-03	-3.47574000E-03
		 7.65309000E-04	-4.70906000E-05	-3.37873000E-03
		 3.96560000E-04	-3.33967000E-03	-1.83862000E-03
		-9.31871000E-06	-4.13292000E-03	-2.20578000E-04
		-8.65867000E-04	-4.15145000E-03	 2.94649000E-03
		-1.60774000E-05	-3.72306000E-03	-2.32058000E-04
		-8.62983000E-04	-3.73214000E-03	 2.95809000E-03
		-3.68813000E-05	-8.00159000E-04	-2.11535000E-04
		-4.37121000E-04	-4.14471000E-03	 1.34713000E-03
		-7.95683000E-04	-8.47576000E-04	 2.88838000E-03
		 8.30269000E-04	-4.14622000E-03	-3.41055000E-03
		 8.20962000E-04	-3.73946000E-03	-3.44466000E-03
		 7.10501000E-04	-8.20015000E-04	-3.32837000E-03
		 4.14276000E-04	-4.14441000E-03	-1.79519000E-03
		 0.00000000E+00	 0.00000000E+00	 0.00000000E+00
		 0.00000000E+00	 0.00000000E+00	 0.00000000E+00
		-2.64620000E-05	-2.02677000E-03	 1.99788000E-04
		-1.57657000E-03	-2.25157000E-03	 3.26758000E-03
		 0.00000000E+00	 0.00000000E+00	 0.00000000E+00
		 0.00000000E+00	 0.00000000E+00	 0.00000000E+00
		 4.40819000E-06	-3.36761000E-03	 2.09124000E-04
		-1.13860000E-03	-3.60996000E-03	 3.31364000E-03
		 0.00000000E+00	 0.00000000E+00	 0.00000000E+00
		-3.49932000E-05	-1.05349000E-04	 9.88637000E-05
		-8.02827000E-04	-2.06816000E-03	 1.80746000E-03
		-1.03049000E-03	-4.22338000E-04	 1.64528000E-03
		 0.00000000E+00	 0.00000000E+00	 0.00000000E+00
		 0.00000000E+00	 0.00000000E+00	 0.00000000E+00
		-1.10019000E-05	-2.76713000E-03	 2.04102000E-04
		-1.35477000E-03	-2.99788000E-03	 3.18304000E-03
		 0.00000000E+00	 0.00000000E+00	 0.00000000E+00
		-2.58817000E-06	-8.63457000E-04	 9.53383000E-05
		-5.66697000E-04	-3.41423000E-03	 1.72559000E-03
		-5.54667000E-04	-1.16426000E-03	 1.59859000E-03
		 0.00000000E+00	 0.00000000E+00	 0.00000000E+00
		 1.51988000E-03	-2.17055000E-03	-2.87634000E-03
		 0.00000000E+00	 0.00000000E+00	 0.00000000E+00
		 1.14524000E-03	-3.51798000E-03	-2.90379000E-03
		 0.00000000E+00	 0.00000000E+00	 0.00000000E+00
		 9.56929000E-04	-3.49280000E-04	-1.43837000E-03
		 7.49513000E-04	-2.02625000E-03	-1.41182000E-03
		 0.00000000E+00	 0.00000000E+00	 0.00000000E+00
		 1.32906000E-03	-2.91101000E-03	-2.78315000E-03
		 0.00000000E+00	 0.00000000E+00	 0.00000000E+00
		 5.48100000E-04	-1.08676000E-03	-1.39668000E-03
		 5.73729000E-04	-3.36760000E-03	-1.31194000E-03
		 0.00000000E+00	 0.00000000E+00	 0.00000000E+00
		 0.00000000E+00	 0.00000000E+00	 0.00000000E+00
		 3.74481000E-05	-4.31022000E-03	 2.15734000E-04
		-6.89863000E-04	-4.53469000E-03	 3.28551000E-03
		 0.00000000E+00	 0.00000000E+00	 0.00000000E+00
		 0.00000000E+00	 0.00000000E+00	 0.00000000E+00
		 2.05248000E-05	-3.90749000E-03	 2.11525000E-04
		-9.16558000E-04	-4.13783000E-03	 3.40651000E-03
		 0.00000000E+00	 0.00000000E+00	 0.00000000E+00
		 3.11986000E-05	-1.20751000E-03	 1.03739000E-04
		-3.26523000E-04	-4.34996000E-03	 1.60833000E-03
		-3.42470000E-05	-1.48501000E-03	 1.65206000E-03
		 0.00000000E+00	 0.00000000E+00	 0.00000000E+00
		 7.59056000E-04	-4.43777000E-03	-2.86110000E-03
		 0.00000000E+00	 0.00000000E+00	 0.00000000E+00
		 9.53547000E-04	-4.04813000E-03	-2.99122000E-03
		 0.00000000E+00	 0.00000000E+00	 0.00000000E+00
		 9.42894000E-05	-1.40363000E-03	-1.43304000E-03
		 4.00033000E-04	-4.30226000E-03	-1.18094000E-03
		 3.67097000E-05	-1.02524000E-02	 3.43027000E-04
		-2.47357000E-03	-1.04110000E-02	 5.71693000E-03
		 6.84679000E-05	-1.26331000E-02	 3.54582000E-04
		-2.20485000E-03	-1.28021000E-02	 5.75690000E-03
		-1.14814000E-06	-5.46196000E-03	 2.80170000E-04
		-1.21476000E-03	-1.03047000E-02	 3.02542000E-03
		-2.09444000E-03	-5.67487000E-03	 4.66125000E-03
		 5.24296000E-05	-1.14668000E-02	 3.48709000E-04
		-2.33892000E-03	-1.16328000E-02	 5.68792000E-03
		 2.86679000E-05	-7.37229000E-03	 2.92077000E-04
		-1.06331000E-03	-1.26892000E-02	 3.00159000E-03
		-1.71163000E-03	-7.59543000E-03	 4.69584000E-03
		 2.54636000E-03	-1.02889000E-02	-5.03808000E-03
		 2.33554000E-03	-1.26841000E-02	-5.05400000E-03
		 2.08769000E-03	-5.57204000E-03	-4.10916000E-03
		 1.28755000E-03	-1.02433000E-02	-2.34181000E-03
		 2.44232000E-03	-1.15177000E-02	-4.99484000E-03
		 1.76639000E-03	-7.49030000E-03	-4.12053000E-03
		 1.20313000E-03	-1.26309000E-02	-2.29098000E-03
		 9.46049000E-05	-1.47945000E-02	 3.66889000E-04
		-1.93031000E-03	-1.49468000E-02	 5.73778000E-03
		 8.12671000E-05	-1.37370000E-02	 3.61185000E-04
		-2.06765000E-03	-1.39302000E-02	 5.82929000E-03
		 5.86461000E-05	-8.94338000E-03	 3.04075000E-04
		-9.25503000E-04	-1.48401000E-02	 2.91964000E-03
		-1.33651000E-03	-9.16481000E-03	 4.68466000E-03
		 2.14336000E-03	-1.48470000E-02	-5.01205000E-03
		 2.23993000E-03	-1.37916000E-02	-5.11747000E-03
		 1.46214000E-03	-9.06443000E-03	-4.08386000E-03
		 1.12119000E-03	-1.47923000E-02	-2.18312000E-03
		 1.39822000E-04	-2.22874000E-02	 4.20076000E-04
		-2.76259000E-03	-2.22514000E-02	 6.27382000E-03
		 1.71229000E-04	-2.51974000E-02	 4.42593000E-04
		-2.80357000E-03	-2.52743000E-02	 6.32838000E-03
		 8.55178000E-05	-1.60502000E-02	 3.89097000E-04
		-1.30656000E-03	-2.22806000E-02	 3.28310000E-03
		-2.69076000E-03	-1.61324000E-02	 6.26565000E-03
		 1.57180000E-04	-2.37322000E-02	 4.36319000E-04
		-2.78579000E-03	-2.37673000E-02	 6.28596000E-03
		 1.16096000E-04	-1.87689000E-02	 4.01780000E-04
		-1.34104000E-03	-2.52534000E-02	 3.29060000E-03
		-2.57125000E-03	-1.88740000E-02	 6.31739000E-03
		 3.00299000E-03	-2.21706000E-02	-5.41666000E-03
		 3.14240000E-03	-2.50989000E-02	-5.46090000E-03
		 2.85213000E-03	-1.60088000E-02	-5.48903000E-03
		 1.57304000E-03	-2.22445000E-02	-2.43146000E-03
		 3.07140000E-03	-2.36179000E-02	-5.42480000E-03
		 2.80386000E-03	-1.87332000E-02	-5.51770000E-03
		 1.65905000E-03	-2.51686000E-02	-2.42539000E-03
		 1.95044000E-04	-2.82177000E-02	 4.59421000E-04
		-2.95775000E-03	-2.84216000E-02	 6.30919000E-03
		 1.83641000E-04	-2.67084000E-02	 4.48244000E-04
		-2.88349000E-03	-2.67156000E-02	 6.38475000E-03
		 1.51896000E-04	-2.14200000E-02	 4.12746000E-04
		-1.34739000E-03	-2.83426000E-02	 3.22028000E-03
		-2.49927000E-03	-2.15562000E-02	 6.29009000E-03
		 3.30434000E-03	-2.81564000E-02	-5.43554000E-03
		 3.22402000E-03	-2.66061000E-02	-5.50731000E-03
		 2.76461000E-03	-2.13872000E-02	-5.47164000E-03
		 1.73897000E-03	-2.82154000E-02	-2.34643000E-03
		 2.98438000E-04	-3.30982000E-02	 4.84696000E-04
		-2.60007000E-03	-3.28613000E-02	 4.55609000E-03
		 3.22480000E-04	-3.62357000E-02	 5.40060000E-04
		-3.06049000E-03	-3.64498000E-02	 4.61334000E-03
		 1.80692000E-04	-2.81960000E-02	 4.50871000E-04
		-1.15302000E-03	-3.30273000E-02	 2.50526000E-03
		-2.71873000E-03	-2.81502000E-02	 5.59366000E-03
		 3.11462000E-04	-3.45860000E-02	 5.13342000E-04
		-2.82030000E-03	-3.45186000E-02	 4.60080000E-03
		 2.03462000E-04	-3.12737000E-02	 4.42769000E-04
		-1.24589000E-03	-3.63772000E-02	 2.57667000E-03
		-3.01718000E-03	-3.11698000E-02	 5.68918000E-03
		 3.03129000E-03	-3.28920000E-02	-3.58592000E-03
		 3.41158000E-03	-3.58715000E-02	-3.53134000E-03
		 3.05581000E-03	-2.80258000E-02	-4.68706000E-03
		 1.66551000E-03	-3.30489000E-02	-1.53568000E-03
		 3.22442000E-03	-3.43285000E-02	-3.57299000E-03
		 3.35748000E-03	-3.10615000E-02	-4.69737000E-03
		 1.85479000E-03	-3.60803000E-02	-1.49671000E-03
		 2.07634000E-04	-3.97561000E-02	 5.92685000E-04
		-3.38549000E-03	-4.03329000E-02	 4.66568000E-03
		 2.66917000E-04	-3.79106000E-02	 5.66032000E-04
		-3.22216000E-03	-3.88273000E-02	 4.62043000E-03
		 2.01242000E-04	-3.46247000E-02	 4.04883000E-04
		-1.70640000E-03	-4.00631000E-02	 2.64662000E-03
		-3.16858000E-03	-3.44146000E-02	 5.68107000E-03
		 3.80582000E-03	-3.92389000E-02	-3.47696000E-03