# vtk DataFile Version 3.0

ASCII
DATASET UNSTRUCTURED_GRID

POINTS 522 double
	 1.00000000E+00	 1.00000000E+00	-5.96046000E-08
	 1.00000000E+00	 5.00000000E-01	-5.96046000E-08
	 1.00000000E+00	 5.00000000E-01	 1.00000000E+00
	 1.00000000E+00	 1.00000000E+00	 1.00000000E+00
	 5.00000000E-01	 1.00000000E+00	-5.96046000E-08
	 5.00000000E-01	 5.00000000E-01	-5.96046000E-08
	 5.00000000E-01	 5.00000000E-01	 1.00000000E+00
	 5.00000000E-01	 1.00000000E+00	 1.00000000E+00
	 1.00000000E+00	 7.50000000E-01	-5.96046000E-08
	 1.00000000E+00	 5.00000000E-01	 5.00000000E-01
	 1.00000000E+00	 7.50000000E-01	 1.00000000E+00
	 1.00000000E+00	 1.00000000E+00	 5.00000000E-01
	 7.50000000E-01	 1.00000000E+00	-5.96046000E-08
	 7.50000000E-01	 5.00000000E-01	-5.96046000E-08
	 7.50000000E-01	 5.00000000E-01	 1.00000000E+00
	 7.50000000E-01	 1.00000000E+00	 1.00000000E+00
	 5.00000000E-01	 7.50000000E-01	-5.96046000E-08
	 5.00000000E-01	 5.00000000E-01	 5.00000000E-01
	 5.00000000E-01	 7.50000000E-01	 1.00000000E+00
	 5.00000000E-01	 1.00000000E+00	 5.00000000E-01
	 1.00000000E+00	-1.49012000E-08	-5.96046000E-08
	 1.00000000E+00	-1.49012000E-08	 1.00000000E+00
	 5.00000000E-01	-1.49012000E-08	-5.96046000E-08
	 5.00000000E-01	-1.49012000E-08	 1.00000000E+00
	 1.00000000E+00	 2.50000000E-01	-5.96046000E-08
	 1.00000000E+00	-1.49012000E-08	 5.00000000E-01
	 1.00000000E+00	 2.50000000E-01	 1.00000000E+00
	 7.50000000E-01	-1.49012000E-08	-5.96046000E-08
	 7.50000000E-01	-1.49012000E-08	 1.00000000E+00
	 5.00000000E-01	 2.50000000E-01	-5.96046000E-08
	 5.00000000E-01	-1.49012000E-08	 5.00000000E-01
	 5.00000000E-01	 2.50000000E-01	 1.00000000E+00
	-7.45058000E-09	 1.00000000E+00	-5.96046000E-08
	-7.45058000E-09	 5.00000000E-01	-5.96046000E-08
	-7.45058000E-09	 5.00000000E-01	 1.00000000E+00
	-7.45058000E-09	 1.00000000E+00	 1.00000000E+00
	 2.50000000E-01	 1.00000000E+00	-5.96046000E-08
	 2.50000000E-01	 5.00000000E-01	-5.96046000E-08
	 2.50000000E-01	 5.00000000E-01	 1.00000000E+00
	 2.50000000E-01	 1.00000000E+00	 1.00000000E+00
	-7.45058000E-09	 7.50000000E-01	-5.96046000E-08
	-7.45058000E-09	 5.00000000E-01	 5.00000000E-01
	-7.45058000E-09	 7.50000000E-01	 1.00000000E+00
	-7.45058000E-09	 1.00000000E+00	 5.00000000E-01
	-7.45058000E-09	-1.49012000E-08	-5.96046000E-08
	-7.45058000E-09	-1.49012000E-08	 1.00000000E+00
	 2.50000000E-01	-1.49012000E-08	-5.96046000E-08
	 2.50000000E-01	-1.49012000E-08	 1.00000000E+00
	-7.45058000E-09	 2.50000000E-01	-5.96046000E-08
	-7.45058000E-09	-1.49012000E-08	 5.00000000E-01
	-7.45058000E-09	 2.50000000E-01	 1.00000000E+00
	 1.00000000E+00	 5.00000000E-01	 2.00000000E+00
	 1.00000000E+00	 1.00000000E+00	 2.00000000E+00
	 5.00000000E-01	 5.00000000E-01	 2.00000000E+00
	 5.00000000E-01	 1.00000000E+00	 2.00000000E+00
	 1.00000000E+00	 5.00000000E-01	 1.50000000E+00
	 1.00000000E+00	 7.50000000E-01	 2.00000000E+00
	 1.00000000E+00	 1.00000000E+00	 1.50000000E+00
	 7.50000000E-01	 5.00000000E-01	 2.00000000E+00
	 7.50000000E-01	 1.00000000E+00	 2.00000000E+00
	 5.00000000E-01	 5.00000000E-01	 1.50000000E+00
	 5.00000000E-01	 7.50000000E-01	 2.00000000E+00
	 5.00000000E-01	 1.00000000E+00	 1.50000000E+00
	 1.00000000E+00	-1.49012000E-08	 2.00000000E+00
	 5.00000000E-01	-1.49012000E-08	 2.00000000E+00
	 1.00000000E+00	-1.49012000E-08	 1.50000000E+00
	 1.00000000E+00	 2.50000000E-01	 2.00000000E+00
	 7.50000000E-01	-1.49012000E-08	 2.00000000E+00
	 5.00000000E-01	-1.49012000E-08	 1.50000000E+00
	 5.00000000E-01	 2.50000000E-01	 2.00000000E+00
	-7.45058000E-09	 5.00000000E-01	 2.00000000E+00
	-7.45058000E-09	 1.00000000E+00	 2.00000000E+00
	 2.50000000E-01	 5.00000000E-01	 2.00000000E+00
	 2.50000000E-01	 1.00000000E+00	 2.00000000E+00
	-7.45058000E-09	 5.00000000E-01	 1.50000000E+00
	-7.45058000E-09	 7.50000000E-01	 2.00000000E+00
	-7.45058000E-09	 1.00000000E+00	 1.50000000E+00
	-7.45058000E-09	-1.49012000E-08	 2.00000000E+00
	 2.50000000E-01	-1.49012000E-08	 2.00000000E+00
	-7.45058000E-09	-1.49012000E-08	 1.50000000E+00
	-7.45058000E-09	 2.50000000E-01	 2.00000000E+00
	 1.00000000E+00	 5.00000000E-01	 3.00000000E+00
	 1.00000000E+00	 1.00000000E+00	 3.00000000E+00
	 5.00000000E-01	 5.00000000E-01	 3.00000000E+00
	 5.00000000E-01	 1.00000000E+00	 3.00000000E+00
	 1.00000000E+00	 5.00000000E-01	 2.50000000E+00
	 1.00000000E+00	 7.50000000E-01	 3.00000000E+00
	 1.00000000E+00	 1.00000000E+00	 2.50000000E+00
	 7.50000000E-01	 5.00000000E-01	 3.00000000E+00
	 7.50000000E-01	 1.00000000E+00	 3.00000000E+00
	 5.00000000E-01	 5.00000000E-01	 2.50000000E+00
	 5.00000000E-01	 7.50000000E-01	 3.00000000E+00
	 5.00000000E-01	 1.00000000E+00	 2.50000000E+00
	 1.00000000E+00	-1.49012000E-08	 3.00000000E+00
	 5.00000000E-01	-1.49012000E-08	 3.00000000E+00
	 1.00000000E+00	-1.49012000E-08	 2.50000000E+00
	 1.00000000E+00	 2.50000000E-01	 3.00000000E+00
	 7.50000000E-01	-1.49012000E-08	 3.00000000E+00
	 5.00000000E-01	-1.49012000E-08	 2.50000000E+00
	 5.00000000E-01	 2.50000000E-01	 3.00000000E+00
	-7.45058000E-09	 5.00000000E-01	 3.00000000E+00
	-7.45058000E-09	 1.00000000E+00	 3.00000000E+00
	 2.50000000E-01	 5.00000000E-01	 3.00000000E+00
	 2.50000000E-01	 1.00000000E+00	 3.00000000E+00
	-7.45058000E-09	 5.00000000E-01	 2.50000000E+00
	-7.45058000E-09	 7.50000000E-01	 3.00000000E+00
	-7.45058000E-09	 1.00000000E+00	 2.50000000E+00
	-7.45058000E-09	-1.49012000E-08	 3.00000000E+00
	 2.50000000E-01	-1.49012000E-08	 3.00000000E+00
	-7.45058000E-09	-1.49012000E-08	 2.50000000E+00
	-7.45058000E-09	 2.50000000E-01	 3.00000000E+00
	 1.00000000E+00	 5.00000000E-01	 4.00000000E+00
	 1.00000000E+00	 1.00000000E+00	 4.00000000E+00
	 5.00000000E-01	 5.00000000E-01	 4.00000000E+00
	 5.00000000E-01	 1.00000000E+00	 4.00000000E+00
	 1.00000000E+00	 5.00000000E-01	 3.50000000E+00
	 1.00000000E+00	 7.50000000E-01	 4.00000000E+00
	 1.00000000E+00	 1.00000000E+00	 3.50000000E+00
	 7.50000000E-01	 5.00000000E-01	 4.00000000E+00
	 7.50000000E-01	 1.00000000E+00	 4.00000000E+00
	 5.00000000E-01	 5.00000000E-01	 3.50000000E+00
	 5.00000000E-01	 7.50000000E-01	 4.00000000E+00
	 5.00000000E-01	 1.00000000E+00	 3.50000000E+00
	 1.00000000E+00	-1.49012000E-08	 4.00000000E+00
	 5.00000000E-01	-1.49012000E-08	 4.00000000E+00
	 1.00000000E+00	-1.49012000E-08	 3.50000000E+00
	 1.00000000E+00	 2.50000000E-01	 4.00000000E+00
	 7.50000000E-01	-1.49012000E-08	 4.00000000E+00
	 5.00000000E-01	-1.49012000E-08	 3.50000000E+00
	 5.00000000E-01	 2.50000000E-01	 4.00000000E+00
	-7.45058000E-09	 5.00000000E-01	 4.00000000E+00
	-7.45058000E-09	 1.00000000E+00	 4.00000000E+00
	 2.50000000E-01	 5.00000000E-01	 4.00000000E+00
	 2.50000000E-01	 1.00000000E+00	 4.00000000E+00
	-7.45058000E-09	 5.00000000E-01	 3.50000000E+00
	-7.45058000E-09	 7.50000000E-01	 4.00000000E+00
	-7.45058000E-09	 1.00000000E+00	 3.50000000E+00
	-7.45058000E-09	-1.49012000E-08	 4.00000000E+00
	 2.50000000E-01	-1.49012000E-08	 4.00000000E+00
	-7.45058000E-09	-1.49012000E-08	 3.50000000E+00
	-7.45058000E-09	 2.50000000E-01	 4.00000000E+00
	 1.00000000E+00	 5.00000000E-01	 5.00000000E+00
	 1.00000000E+00	 1.00000000E+00	 5.00000000E+00
	 5.00000000E-01	 5.00000000E-01	 5.00000000E+00
	 5.00000000E-01	 1.00000000E+00	 5.00000000E+00
	 1.00000000E+00	 5.00000000E-01	 4.50000000E+00
	 1.00000000E+00	 7.50000000E-01	 5.00000000E+00
	 1.00000000E+00	 1.00000000E+00	 4.50000000E+00
	 7.50000000E-01	 5.00000000E-01	 5.00000000E+00
	 7.50000000E-01	 1.00000000E+00	 5.00000000E+00
	 5.00000000E-01	 5.00000000E-01	 4.50000000E+00
	 5.00000000E-01	 7.50000000E-01	 5.00000000E+00
	 5.00000000E-01	 1.00000000E+00	 4.50000000E+00
	 1.00000000E+00	-1.49012000E-08	 5.00000000E+00
	 5.00000000E-01	-1.49012000E-08	 5.00000000E+00
	 1.00000000E+00	-1.49012000E-08	 4.50000000E+00
	 1.00000000E+00	 2.50000000E-01	 5.00000000E+00
	 7.50000000E-01	-1.49012000E-08	 5.00000000E+00
	 5.00000000E-01	-1.49012000E-08	 4.50000000E+00
	 5.00000000E-01	 2.50000000E-01	 5.00000000E+00
	-7.45058000E-09	 5.00000000E-01	 5.00000000E+00
	-7.45058000E-09	 1.00000000E+00	 5.00000000E+00
	 2.50000000E-01	 5.00000000E-01	 5.00000000E+00
	 2.50000000E-01	 1.00000000E+00	 5.00000000E+00
	-7.45058000E-09	 5.00000000E-01	 4.50000000E+00
	-7.45058000E-09	 7.50000000E-01	 5.00000000E+00
	-7.45058000E-09	 1.00000000E+00	 4.50000000E+00
	-7.45058000E-09	-1.49012000E-08	 5.00000000E+00
	 2.50000000E-01	-1.49012000E-08	 5.00000000E+00
	-7.45058000E-09	-1.49012000E-08	 4.50000000E+00
	-7.45058000E-09	 2.50000000E-01	 5.00000000E+00
	 1.00000000E+00	 5.00000000E-01	 6.00000000E+00
	 1.00000000E+00	 1.00000000E+00	 6.00000000E+00
	 5.00000000E-01	 5.00000000E-01	 6.00000000E+00
	 5.00000000E-01	 1.00000000E+00	 6.00000000E+00
	 1.00000000E+00	 5.00000000E-01	 5.50000000E+00
	 1.00000000E+00	 7.50000000E-01	 6.00000000E+00
	 1.00000000E+00	 1.00000000E+00	 5.50000000E+00
	 7.50000000E-01	 5.00000000E-01	 6.00000000E+00
	 7.50000000E-01	 1.00000000E+00	 6.00000000E+00
	 5.00000000E-01	 5.00000000E-01	 5.50000000E+00
	 5.00000000E-01	 7.50000000E-01	 6.00000000E+00
	 5.00000000E-01	 1.00000000E+00	 5.50000000E+00
	 1.00000000E+00	-1.49012000E-08	 6.00000000E+00
	 5.00000000E-01	-1.49012000E-08	 6.00000000E+00
	 1.00000000E+00	-1.49012000E-08	 5.50000000E+00
	 1.00000000E+00	 2.50000000E-01	 6.00000000E+00
	 7.50000000E-01	-1.49012000E-08	 6.00000000E+00
	 5.00000000E-01	-1.49012000E-08	 5.50000000E+00
	 5.00000000E-01	 2.50000000E-01	 6.00000000E+00
	-7.45058000E-09	 5.00000000E-01	 6.00000000E+00
	-7.45058000E-09	 1.00000000E+00	 6.00000000E+00
	 2.50000000E-01	 5.00000000E-01	 6.00000000E+00
	 2.50000000E-01	 1.00000000E+00	 6.00000000E+00
	-7.45058000E-09	 5.00000000E-01	 5.50000000E+00
	-7.45058000E-09	 7.50000000E-01	 6.00000000E+00
	-7.45058000E-09	 1.00000000E+00	 5.50000000E+00
	-7.45058000E-09	-1.49012000E-08	 6.00000000E+00
	 2.50000000E-01	-1.49012000E-08	 6.00000000E+00
	-7.45058000E-09	-1.49012000E-08	 5.50000000E+00
	-7.45058000E-09	 2.50000000E-01	 6.00000000E+00
	 1.00000000E+00	 5.00000000E-01	 7.00000000E+00
[...]
POINT_DATA 522
FIELD U 1
	U 3 522 double
		 0.00000000E+00	 0.00000000E+00	 0.00000000E+00
		 0.00000000E+00	 0.00000000E+00	 0.00000000E+00
		-1.06632000E-06	-3.44191000E-03	-4.01511000E-06
		 1.13167000E-04	-3.62008000E-03	 2.84449000E-03
		 0.00000000E+00	 0.00000000E+00	 0.00000000E+00
		 0.00000000E+00	 0.00000000E+00	 0.00000000E+00
		-3.04501000E-07	-3.12487000E-03	-3.43038000E-06
		 5.04246000E-04	-3.32046000E-03	 2.87076000E-03
		 0.00000000E+00	 0.00000000E+00	 0.00000000E+00
		 1.32122000E-06	-8.78526000E-04	-1.19404000E-06
		 5.66753000E-05	-3.46289000E-03	 1.34866000E-03
		-2.02905000E-04	-1.11314000E-03	 1.42699000E-03
		 0.00000000E+00	 0.00000000E+00	 0.00000000E+00
		 0.00000000E+00	 0.00000000E+00	 0.00000000E+00
		-6.41882000E-07	-3.34697000E-03	-4.80377000E-06
		 3.11379000E-04	-3.53599000E-03	 2.90359000E-03
		 0.00000000E+00	 0.00000000E+00	 0.00000000E+00
		 8.59887000E-07	-8.33824000E-04	-3.86286000E-07
		 2.50997000E-04	-3.15256000E-03	 1.40783000E-03
		 2.34505000E-04	-1.08158000E-03	 1.38614000E-03
		 0.00000000E+00	 0.00000000E+00	 0.00000000E+00
		-1.17482000E-04	-3.59986000E-03	-2.85495000E-03
		 0.00000000E+00	 0.00000000E+00	 0.00000000E+00
		-5.04049000E-04	-3.29931000E-03	-2.88006000E-03
		 0.00000000E+00	 0.00000000E+00	 0.00000000E+00
		 2.04546000E-04	-1.10598000E-03	-1.42926000E-03
		-5.93997000E-05	-3.45323000E-03	-1.35702000E-03
		 0.00000000E+00	 0.00000000E+00	 0.00000000E+00
		-3.13560000E-04	-3.51413000E-03	-2.91646000E-03
		 0.00000000E+00	 0.00000000E+00	 0.00000000E+00
		-2.32097000E-04	-1.07430000E-03	-1.38712000E-03
		-2.51307000E-04	-3.14169000E-03	-1.41558000E-03
		 0.00000000E+00	 0.00000000E+00	 0.00000000E+00
		 0.00000000E+00	 0.00000000E+00	 0.00000000E+00
		 3.02450000E-07	-2.43220000E-03	-1.20856000E-06
		 8.87793000E-04	-2.61609000E-03	 2.84710000E-03
		 0.00000000E+00	 0.00000000E+00	 0.00000000E+00
		 0.00000000E+00	 0.00000000E+00	 0.00000000E+00
		-2.62071000E-07	-2.84291000E-03	-1.75095000E-06
		 6.92409000E-04	-3.03082000E-03	 2.80751000E-03
		 0.00000000E+00	 0.00000000E+00	 0.00000000E+00
		 1.49953000E-06	-4.11791000E-04	 2.19189000E-06
		 4.45343000E-04	-2.45687000E-03	 1.45036000E-03
		 6.51364000E-04	-6.66865000E-04	 1.42875000E-03
		 0.00000000E+00	 0.00000000E+00	 0.00000000E+00
		-8.83526000E-04	-2.59844000E-03	-2.85120000E-03
		 0.00000000E+00	 0.00000000E+00	 0.00000000E+00
		-6.90388000E-04	-3.01123000E-03	-2.81246000E-03
		 0.00000000E+00	 0.00000000E+00	 0.00000000E+00
		-6.46122000E-04	-6.60581000E-04	-1.42560000E-03
		-4.43613000E-04	-2.44810000E-03	-1.45370000E-03
		-7.12916000E-06	-1.25519000E-02	-4.48878000E-05
		 7.18822000E-04	-1.27498000E-02	 5.31289000E-03
		-6.12947000E-06	-1.16594000E-02	-3.53191000E-05
		 1.05202000E-03	-1.18588000E-02	 5.32938000E-03
		-6.38211000E-06	-7.35737000E-03	-1.79149000E-05
		 3.54726000E-04	-1.26133000E-02	 2.57124000E-03
		 4.14491000E-04	-7.56983000E-03	 4.14352000E-03
		-6.34610000E-06	-1.21442000E-02	-3.98690000E-05
		 8.85382000E-04	-1.23416000E-02	 5.36258000E-03
		-6.43439000E-06	-6.74879000E-03	-1.44127000E-05
		 5.23972000E-04	-1.17230000E-02	 2.62466000E-03
		 7.85809000E-04	-6.96151000E-03	 4.15585000E-03
		-7.38353000E-04	-1.26907000E-02	-5.40656000E-03
		-1.06798000E-03	-1.17926000E-02	-5.40426000E-03
		-4.32696000E-04	-7.53467000E-03	-4.18374000E-03
		-3.70437000E-04	-1.25855000E-02	-2.66216000E-03
		-9.02915000E-04	-1.22774000E-02	-5.44616000E-03
		-8.00851000E-04	-6.92022000E-03	-4.18765000E-03
		-5.37404000E-04	-1.16898000E-02	-2.69631000E-03
		-4.20390000E-06	-1.04330000E-02	-2.04068000E-05
		 1.39269000E-03	-1.06304000E-02	 5.33801000E-03
		-5.65458000E-06	-1.10839000E-02	-2.93632000E-05
		 1.22270000E-03	-1.12830000E-02	 5.30288000E-03
		-6.07228000E-06	-5.76958000E-03	-8.27581000E-06
		 6.94366000E-04	-1.04950000E-02	 2.66671000E-03
		 1.16320000E-03	-5.98026000E-03	 4.15532000E-03
		-1.40310000E-03	-1.05599000E-02	-5.38345000E-03
		-1.23672000E-03	-1.12152000E-02	-5.36591000E-03
		-1.17460000E-03	-5.93739000E-03	-4.17333000E-03
		-7.03265000E-04	-1.04587000E-02	-2.70869000E-03
		-9.17455000E-06	-2.58615000E-02	-1.22951000E-04
		 1.14457000E-03	-2.60750000E-02	 7.26375000E-03
		-5.14249000E-06	-2.45643000E-02	-1.09656000E-04
		 1.45320000E-03	-2.47713000E-02	 7.27286000E-03
		-4.18133000E-06	-1.87830000E-02	-7.81051000E-05
		 5.66464000E-04	-2.59309000E-02	 3.56312000E-03
		 9.78699000E-04	-1.89919000E-02	 6.31816000E-03
		-7.82944000E-06	-2.52516000E-02	-1.17063000E-04
		 1.29755000E-03	-2.54606000E-02	 7.28429000E-03
		-1.39640000E-06	-1.76568000E-02	-6.63023000E-05
		 7.24477000E-04	-2.46309000E-02	 3.59159000E-03
		 1.28250000E-03	-1.78579000E-02	 6.33243000E-03
		-1.16046000E-03	-2.59597000E-02	-7.51692000E-03
		-1.46275000E-03	-2.46583000E-02	-7.49900000E-03
		-9.87710000E-04	-1.89037000E-02	-6.47969000E-03
		-5.84318000E-04	-2.58733000E-02	-3.81105000E-03
		-1.31098000E-03	-2.53467000E-02	-7.52532000E-03
		-1.28629000E-03	-1.77688000E-02	-6.47148000E-03
		-7.34458000E-04	-2.45750000E-02	-3.81268000E-03
		 6.31950000E-07	-2.29467000E-02	-9.11675000E-05
		 1.76822000E-03	-2.31569000E-02	 7.29660000E-03
		-1.91485000E-06	-2.37946000E-02	-1.00748000E-04
		 1.61198000E-03	-2.40023000E-02	 7.26063000E-03
		 2.30039000E-06	-1.62160000E-02	-4.76897000E-05
		 8.85207000E-04	-2.30144000E-02	 3.63589000E-03
		 1.59474000E-03	-1.64193000E-02	 6.34781000E-03
		-1.76793000E-03	-2.30415000E-02	-7.48532000E-03
		-1.61637000E-03	-2.38889000E-02	-7.46851000E-03
		-1.59118000E-03	-1.63286000E-02	-6.45100000E-03
		-8.84299000E-04	-2.29567000E-02	-3.82015000E-03
		-1.85188000E-05	-4.28453000E-02	-2.82308000E-04
		 1.28814000E-03	-4.31297000E-02	 9.40002000E-03
		-1.75330000E-05	-4.13452000E-02	-2.53542000E-04
		 1.67384000E-03	-4.16330000E-02	 9.42495000E-03
		-1.57438000E-05	-3.37918000E-02	-1.89759000E-04
		 6.36396000E-04	-4.29382000E-02	 4.55904000E-03
		 1.22308000E-03	-3.40367000E-02	 8.28177000E-03
		-1.90523000E-05	-4.21435000E-02	-2.68788000E-04
		 1.48034000E-03	-4.24306000E-02	 9.42412000E-03
		-1.33604000E-05	-3.23842000E-02	-1.70290000E-04
		 8.29341000E-04	-4.14393000E-02	 4.59989000E-03
		 1.57192000E-03	-3.26281000E-02	 8.29334000E-03
		-1.32579000E-03	-4.29433000E-02	-9.97196000E-03
		-1.71432000E-03	-4.14427000E-02	-9.93893000E-03
		-1.25278000E-03	-3.38923000E-02	-8.66835000E-03
		-6.73655000E-04	-4.28448000E-02	-5.12509000E-03
		-1.51991000E-03	-4.22429000E-02	-9.96952000E-03
		-1.60024000E-03	-3.24837000E-02	-8.63963000E-03
		-8.65800000E-04	-4.13445000E-02	-5.10875000E-03
		-1.24385000E-05	-3.94609000E-02	-2.18424000E-04
		 2.06702000E-03	-3.97531000E-02	 9.46434000E-03
		-1.50141000E-05	-4.04526000E-02	-2.36687000E-04
		 1.87001000E-03	-4.07420000E-02	 9.42463000E-03
		-7.65663000E-06	-3.06221000E-02	-1.46839000E-04
		 1.02812000E-03	-3.95588000E-02	 4.65558000E-03
		 1.92613000E-03	-3.08710000E-02	 8.32701000E-03
		-2.10220000E-03	-3.95468000E-02	-9.90775000E-03
		-1.90958000E-03	-4.05460000E-02	-9.90391000E-03
		-1.94631000E-03	-3.07174000E-02	-8.62503000E-03
		-1.05527000E-03	-3.94535000E-02	-5.09465000E-03
		-1.04800000E-05	-6.50971000E-02	-5.58141000E-04
		 1.51618000E-03	-6.54323000E-02	 1.17227000E-02
		-9.18123000E-06	-6.33891000E-02	-5.08236000E-04
		 1.87494000E-03	-6.37240000E-02	 1.17812000E-02
		-1.63577000E-05	-5.32793000E-02	-4.04213000E-04
		 7.52518000E-04	-6.52170000E-02	 5.55343000E-03
		 1.39683000E-03	-5.35869000E-02	 1.05930000E-02
		-1.04618000E-05	-6.42895000E-02	-5.34472000E-04
		 1.69623000E-03	-6.46234000E-02	 1.17647000E-02
		-1.52138000E-05	-5.16678000E-02	-3.64445000E-04
		 9.34159000E-04	-6.35085000E-02	 5.62052000E-03
		 1.78629000E-03	-5.19809000E-02	 1.06358000E-02
		-1.54140000E-03	-6.51362000E-02	-1.28485000E-02
		-1.89678000E-03	-6.34207000E-02	-1.28082000E-02
		-1.43292000E-03	-5.33487000E-02	-1.14109000E-02
		-7.74569000E-04	-6.50713000E-02	-6.67190000E-03
		-1.72114000E-03	-6.43228000E-02	-1.28433000E-02
		-1.82304000E-03	-5.17357000E-02	-1.13748000E-02
		-9.53339000E-04	-6.33581000E-02	-6.63946000E-03
		-4.74546000E-06	-6.13271000E-02	-4.50101000E-04
		 2.25034000E-03	-6.16555000E-02	 1.18292000E-02
		-7.21777000E-06	-6.24031000E-02	-4.80079000E-04
		 2.06190000E-03	-6.27374000E-02	 1.18005000E-02
		-1.05691000E-05	-4.96726000E-02	-3.15836000E-04
		 1.12126000E-03	-6.14434000E-02	 5.67826000E-03
		 2.18285000E-03	-4.99877000E-02	 1.06801000E-02
		-2.26257000E-03	-6.13455000E-02	-1.27404000E-02
		-2.07932000E-03	-6.24309000E-02	-1.27731000E-02
		-2.21387000E-03	-4.97280000E-02	-1.13223000E-02
		-1.13125000E-03	-6.12896000E-02	-6.57992000E-03
		 1.39486000E-05	-9.19461000E-02	-9.46755000E-04
		 1.36049000E-03	-9.22879000E-02	 1.34361000E-02
		 1.14530000E-05	-9.04726000E-02	-8.90852000E-04
		 1.61546000E-03	-9.08139000E-02	 1.35030000E-02
		-1.31691000E-06	-7.80778000E-02	-7.42135000E-04
		 6.87031000E-04	-9.20851000E-02	 6.26372000E-03
		 1.53369000E-03	-7.84238000E-02	 1.26732000E-02
		 1.29497000E-05	-9.12425000E-02	-9.18526000E-04
		 1.48820000E-03	-9.15817000E-02	 1.34282000E-02
		-1.54295000E-06	-7.63965000E-02	-6.85995000E-04
		 8.14472000E-04	-9.06099000E-02	 6.28120000E-03
		 1.83499000E-03	-7.67346000E-02	 1.27395000E-02
		-1.33903000E-03	-9.18730000E-02	-1.53305000E-02
		-1.59053000E-03	-9.03912000E-02	-1.52854000E-02
		-1.54151000E-03	-7.80688000E-02	-1.41621000E-02
		-6.60777000E-04	-9.18761000E-02	-8.15688000E-03
		-1.46598000E-03	-9.11638000E-02	-1.52661000E-02
		-1.83774000E-03	-7.63725000E-02	-1.41168000E-02
		-7.90552000E-04	-9.03985000E-02	-8.06266000E-03
		 1.21772000E-05	-8.87442000E-02	-8.32206000E-04
		 1.88520000E-03	-8.90734000E-02	 1.35471000E-02
		 1.08328000E-05	-8.96402000E-02	-8.63085000E-04
		 1.75050000E-03	-8.99808000E-02	 1.35783000E-02
		 1.38938000E-06	-7.44089000E-02	-6.23986000E-04
		 9.45722000E-04	-8.88725000E-02	 6.27798000E-03
		 2.16466000E-03	-7.47311000E-02	 1.27890000E-02
		-1.85136000E-03	-8.86593000E-02	-1.52122000E-02
		-1.72120000E-03	-8.95572000E-02	-1.53052000E-02
		-2.15617000E-03	-7.43715000E-02	-1.40428000E-02
		-9.18627000E-04	-8.86711000E-02	-7.94208000E-03
		 4.06625000E-05	-1.21948000E-01	-1.40357000E-03
		 8.33420000E-04	-1.22244000E-01	 1.42312000E-02
		 3.15519000E-05	-1.21099000E-01	-1.36533000E-03
		 9.38055000E-04	-1.21404000E-01	 1.42830000E-02
		 3.06894000E-05	-1.06614000E-01	-1.16579000E-03
		 4.39190000E-04	-1.22084000E-01	 6.42146000E-03
		 1.09448000E-03	-1.06937000E-01	 1.39637000E-02
		 3.75601000E-05	-1.21536000E-01	-1.38558000E-03
		 8.85972000E-04	-1.21837000E-01	 1.42162000E-02
		 2.48979000E-05	-1.05453000E-01	-1.11780000E-03
		 4.84765000E-04	-1.21240000E-01	 6.42331000E-03
		 1.28195000E-03	-1.05781000E-01	 1.40273000E-02
		-7.59791000E-04	-1.21749000E-01	-1.70382000E-02
		-8.71396000E-04	-1.20899000E-01	-1.70164000E-02
		-1.04057000E-03	-1.06474000E-01	-1.62970000E-02
		-3.59820000E-04	-1.21835000E-01	-9.22804000E-03
		-8.14224000E-04	-1.21338000E-01	-1.69879000E-02
		-1.23056000E-03	-1.05308000E-01	-1.62640000E-02
		-4.19831000E-04	-1.20987000E-01	-9.15446000E-03
		 2.46860000E-05	-1.20142000E-01	-1.32616000E-03
		 1.03410000E-03	-1.20447000E-01	 1.43013000E-02
		 2.62172000E-05	-1.20635000E-01	-1.34489000E-03
		 9.85186000E-04	-1.20941000E-01	 1.43522000E-02
		 2.16285000E-05	-1.04104000E-01	-1.06990000E-03
		 5.30022000E-04	-1.20280000E-01	 6.39314000E-03
		 1.47311000E-03	-1.04426000E-01	 1.40564000E-02
		-9.71099000E-04	-1.19955000E-01	-1.69591000E-02
		-9.22199000E-04	-1.20436000E-01	-1.70476000E-02
		-1.42030000E-03	-1.03963000E-01	-1.61963000E-02
		-4.76416000E-04	-1.20039000E-01	-9.04636000E-03
		 5.41759000E-05	-1.53513000E-01	-1.90362000E-03
		 5.56232000E-04	-1.53772000E-01	 1.39710000E-02
		 4.46506000E-05	-1.53002000E-01	-1.88062000E-03
		 5.65016000E-04	-1.53268000E-01	 1.39966000E-02
		 4.77414000E-05	-1.37657000E-01	-1.65414000E-03
		 3.04607000E-04	-1.53648000E-01	 6.03463000E-03
		 6.29181000E-04	-1.37932000E-01	 1.41851000E-02
		 5.04736000E-05	-1.53256000E-01	-1.89306000E-03
		 5.60036000E-04	-1.53520000E-01	 1.39777000E-02
		 3.65959000E-05	-1.37053000E-01	-1.62404000E-03
		 3.01358000E-04	-1.53139000E-01	 6.05201000E-03
		 6.69544000E-04	-1.37333000E-01	 1.42201000E-02
		-4.46153000E-04	-1.53245000E-01	-1.77760000E-02
		-4.52475000E-04	-1.52748000E-01	-1.77574000E-02
		-5.36901000E-04	-1.37417000E-01	-1.74888000E-02
		-1.94838000E-04	-1.53379000E-01	-9.84289000E-03
		-4.48970000E-04	-1.52994000E-01	-1.77605000E-02
		-5.81336000E-04	-1.36816000E-01	-1.74701000E-02
		-2.03743000E-04	-1.52876000E-01	-9.81358000E-03
		 4.13779000E-05	-1.52483000E-01	-1.85232000E-03
		 5.42332000E-04	-1.52745000E-01	 1.40039000E-02
		 4.00037000E-05	-1.52739000E-01	-1.86630000E-03
		 5.53644000E-04	-1.53004000E-01	 1.40116000E-02
		 2.99860000E-05	-1.36410000E-01	-1.58979000E-03
		 2.88779000E-04	-1.52614000E-01	 6.05811000E-03
		 6.93773000E-04	-1.36686000E-01	 1.42320000E-02
		-4.21988000E-04	-1.52271000E-01	-1.77113000E-02
		-4.37666000E-04	-1.52502000E-01	-1.77478000E-02
		-6.07056000E-04	-1.36198000E-01	-1.74208000E-02
		-1.95122000E-04	-1.52384000E-01	-9.76228000E-03
		 0.00000000E+00	 0.00000000E+00	 0.00000000E+00
		 0.00000000E+00	 0.00000000E+00	 0.00000000E+00
		 1.40042000E-04	-5.38296000E-03	-2.31961000E-04
		-2.32966000E-03	-5.89063000E-03	 6.92358000E-03
		 0.00000000E+00	 0.00000000E+00	 0.00000000E+00
		 0.00000000E+00	 0.00000000E+00	 0.00000000E+00
		 1.20299000E-04	-7.33344000E-03	-1.74917000E-04
		-1.32845000E-03	-7.87013000E-03	 7.04439000E-03
		 0.00000000E+00	 0.00000000E+00	 0.00000000E+00
		 6.76685000E-05	-5.97871000E-04	-1.09600000E-04
		-1.09817000E-03	-5.46754000E-03	 3.45145000E-03
		-1.67990000E-03	-1.22506000E-03	 3.39167000E-03
		 0.00000000E+00	 0.00000000E+00	 0.00000000E+00
		 0.00000000E+00	 0.00000000E+00	 0.00000000E+00
		 1.29562000E-04	-6.52597000E-03	-2.02724000E-04
		-1.82372000E-03	-7.04220000E-03	 6.83914000E-03
		 0.00000000E+00	 0.00000000E+00	 0.00000000E+00
		 3.76425000E-05	-1.77315000E-03	-7.01310000E-05
		-6.02385000E-04	-7.42509000E-03	 3.39143000E-03
		-6.50744000E-04	-2.38484000E-03	 3.32247000E-03
		 0.00000000E+00	 0.00000000E+00	 0.00000000E+00
		 2.59262000E-03	-5.81226000E-03	-7.40023000E-03
		 0.00000000E+00	 0.00000000E+00	 0.00000000E+00
		 1.56608000E-03	-7.77951000E-03	-7.40960000E-03
		 0.00000000E+00	 0.00000000E+00	 0.00000000E+00
		 1.79999000E-03	-1.24548000E-03	-3.62325000E-03
		 1.37372000E-03	-5.42451000E-03	-3.92016000E-03
		 0.00000000E+00	 0.00000000E+00	 0.00000000E+00
		 2.07339000E-03	-6.95742000E-03	-7.25692000E-03
		 0.00000000E+00	 0.00000000E+00	 0.00000000E+00
		 7.19136000E-04	-2.38598000E-03	-3.46993000E-03
		 8.42188000E-04	-7.37822000E-03	-3.74660000E-03
		 0.00000000E+00	 0.00000000E+00	 0.00000000E+00
		 0.00000000E+00	 0.00000000E+00	 0.00000000E+00
		 1.03019000E-04	-8.27936000E-03	-9.97784000E-05
		-3.07746000E-04	-8.77929000E-03	 7.05690000E-03
		 0.00000000E+00	 0.00000000E+00	 0.00000000E+00
		 0.00000000E+00	 0.00000000E+00	 0.00000000E+00
		 1.10258000E-04	-7.97166000E-03	-1.42089000E-04
		-8.23849000E-04	-8.48912000E-03	 7.17646000E-03
		 0.00000000E+00	 0.00000000E+00	 0.00000000E+00
		 1.92718000E-05	-1.96731000E-03	-2.83707000E-05
		-1.01250000E-04	-8.35524000E-03	 3.30721000E-03
		 4.46071000E-04	-2.55819000E-03	 3.47638000E-03
		 0.00000000E+00	 0.00000000E+00	 0.00000000E+00
		 5.18477000E-04	-8.68151000E-03	-7.26997000E-03
		 0.00000000E+00	 0.00000000E+00	 0.00000000E+00
		 1.04405000E-03	-8.39555000E-03	-7.47702000E-03
		 0.00000000E+00	 0.00000000E+00	 0.00000000E+00
		-4.10819000E-04	-2.53753000E-03	-3.53991000E-03
		 3.11509000E-04	-8.31013000E-03	-3.50966000E-03
		 3.75879000E-04	-2.54265000E-02	-5.69474000E-04
		-3.57393000E-03	-2.60345000E-02	 1.30919000E-02
		 3.73488000E-04	-2.89263000E-02	-5.27613000E-04
		-2.69531000E-03	-2.95414000E-02	 1.31558000E-02
		 2.47547000E-04	-1.37269000E-02	-3.76095000E-04
		-1.59574000E-03	-2.56312000E-02	 6.31827000E-03
		-2.99674000E-03	-1.43222000E-02	 1.01921000E-02
		 3.75614000E-04	-2.72762000E-02	-5.51572000E-04
		-3.13352000E-03	-2.78877000E-02	 1.30270000E-02
		 2.31699000E-04	-1.64795000E-02	-3.20395000E-04
		-1.15642000E-03	-2.91325000E-02	 6.27804000E-03
		-2.03210000E-03	-1.70799000E-02	 1.02725000E-02
		 4.32242000E-03	-2.56463000E-02	-1.42546000E-02
		 3.43850000E-03	-2.91634000E-02	-1.42353000E-02
		 3.47938000E-03	-1.41096000E-02	-1.09668000E-02
		 2.34471000E-03	-2.54328000E-02	-7.46462000E-03
		 3.88343000E-03	-2.75136000E-02	-1.41499000E-02
		 2.49307000E-03	-1.68631000E-02	-1.09354000E-02
		 1.90631000E-03	-2.89437000E-02	-7.33638000E-03
		 3.61191000E-04	-3.15661000E-02	-4.55777000E-04
		-1.80763000E-03	-3.21537000E-02	 1.32018000E-02
		 3.67562000E-04	-3.03444000E-02	-4.96166000E-04
		-2.25055000E-03	-3.09823000E-02	 1.32963000E-02
		 2.15001000E-04	-1.82596000E-02	-2.41349000E-04
		-7.32641000E-04	-3.17528000E-02	 6.21572000E-03
		-1.07024000E-03	-1.88557000E-02	 1.03272000E-02
		 2.56144000E-03	-3.18005000E-02	-1.41389000E-02
		 2.99995000E-03	-3.05815000E-02	-1.43182000E-02
		 1.51747000E-03	-1.86492000E-02	-1.08295000E-02
		 1.46393000E-03	-3.15826000E-02	-7.12835000E-03
		 7.02860000E-04	-5.76257000E-02	-1.15655000E-03
		-4.43761000E-03	-5.82235000E-02	 1.74208000E-02
		 7.23721000E-04	-6.24444000E-02	-1.15167000E-03
		-3.83187000E-03	-6.31493000E-02	 1.74674000E-02
		 5.32508000E-04	-4.01712000E-02	-8.23668000E-04
		-1.86304000E-03	-5.78486000E-02	 8.11984000E-03
		-4.05365000E-03	-4.08035000E-02	 1.55399000E-02
		 7.14748000E-04	-6.01111000E-02	-1.15257000E-03
		-4.13537000E-03	-6.07740000E-02	 1.73607000E-02
		 5.39751000E-04	-4.43719000E-02	-8.02945000E-04
		-1.57993000E-03	-6.27212000E-02	 8.05074000E-03
		-3.29431000E-03	-4.50178000E-02	 1.55973000E-02
		 5.81544000E-03	-5.75324000E-02	-1.97424000E-02
		 5.28632000E-03	-6.23817000E-02	-1.98154000E-02
		 5.11545000E-03	-4.02412000E-02	-1.72123000E-02
		 3.25828000E-03	-5.75062000E-02	-1.04283000E-02
		 5.54852000E-03	-6.00298000E-02	-1.97027000E-02
		 4.38143000E-03	-4.44528000E-02	-1.72312000E-02
		 3.00610000E-03	-6.23467000E-02	-1.03799000E-02
		 7.31413000E-04	-6.67349000E-02	-1.12570000E-03
		-3.33909000E-03	-6.75451000E-02	 1.74456000E-02
		 7.29749000E-04	-6.46744000E-02	-1.14512000E-03
		-3.58847000E-03	-6.53078000E-02	 1.75919000E-02
		 5.46591000E-04	-4.78462000E-02	-7.51251000E-04
		-1.27509000E-03	-6.70659000E-02	 7.91229000E-03
		-2.57740000E-03	-4.85072000E-02	 1.56119000E-02
		 4.76577000E-03	-6.67033000E-02	-1.97686000E-02
		 5.02911000E-03	-6.46045000E-02	-1.99297000E-02
		 3.63962000E-03	-4.79269000E-02	-1.71465000E-02
		 2.74070000E-03	-6.66666000E-02	-1.02127000E-02
		 1.14482000E-03	-9.76898000E-02	-2.00996000E-03
		-4.78833000E-03	-9.80733000E-02	 1.85859000E-02
		 1.17171000E-03	-1.03651000E-01	-2.02254000E-03
		-4.82230000E-03	-1.04484000E-01	 1.86088000E-02
		 8.78640000E-04	-7.71349000E-02	-1.56138000E-03
		-1.82516000E-03	-9.78751000E-02	 8.26885000E-03
		-4.66840000E-03	-7.77304000E-02	 1.83876000E-02
		 1.15929000E-03	-1.00642000E-01	-2.01473000E-03
		-4.79434000E-03	-1.01193000E-01	 1.85528000E-02
		 8.98638000E-04	-8.25753000E-02	-1.61041000E-03
		-1.70301000E-03	-1.04044000E-01	 8.21962000E-03
		-4.40617000E-03	-8.31121000E-02	 1.84721000E-02
		 6.92096000E-03	-9.72849000E-02	-2.26079000E-02
		 6.87073000E-03	-1.03097000E-01	-2.26500000E-02
		 6.41115000E-03	-7.68701000E-02	-2.15229000E-02
		 4.03253000E-03	-9.74895000E-02	-1.22871000E-02
		 6.89970000E-03	-1.00194000E-01	-2.25841000E-02
		 6.14054000E-03	-8.22800000E-02	-2.16014000E-02
		 4.00931000E-03	-1.03352000E-01	-1.22662000E-02
		 1.05384000E-03	-1.09573000E-01	-2.03618000E-03
		-4.73436000E-03	-1.10771000E-01	 1.85664000E-02
		 1.11615000E-03	-1.06579000E-01	-2.03168000E-03
		-4.77620000E-03	-1.08117000E-01	 1.86696000E-02
		 8.87372000E-04	-8.77331000E-02	-1.67678000E-03
		-1.95493000E-03	-1.10132000E-01	 8.10767000E-03
		-3.99100000E-03	-8.81497000E-02	 1.84151000E-02
		 6.83590000E-03	-1.08869000E-01	-2.26276000E-02