<?xml version="1.0"?>
<VTKFile type="UnstructuredGrid" version="0.1" byte_order="LittleEndian">
	<UnstructuredGrid>
		<Piece NumberOfPoints="522" NumberOfCells="64">
			<Points>
				<DataArray type="Float64" NumberOfComponents="3" format="ascii">
					 1.00000000E+00	 1.00000000E+00	-5.96046000E-08
					 1.00000000E+00	 5.00000000E-01	-5.96046000E-08
					 1.00000000E+00	 5.00000000E-01	 1.00000000E+00
					 1.00000000E+00	 1.00000000E+00	 1.00000000E+00
					 5.00000000E-01	 1.00000000E+00	-5.96046000E-08
					 5.00000000E-01	 5.00000000E-01	-5.96046000E-08
					 5.00000000E-01	 5.00000000E-01	 1.00000000E+00
					 5.00000000E-01	 1.00000000E+00	 1.00000000E+00
					 1.00000000E+00	 7.50000000E-01	-5.96046000E-08
					 1.00000000E+00	 5.00000000E-01	 5.00000000E-01
					 1.00000000E+00	 7.50000000E-01	 1.00000000E+00
					 1.00000000E+00	 1.00000000E+00	 5.00000000E-01
					 7.50000000E-01	 1.00000000E+00	-5.96046000E-08
					 7.50000000E-01	 5.00000000E-01	-5.96046000E-08
					 7.50000000E-01	 5.00000000E-01	 1.00000000E+00
					 7.50000000E-01	 1.00000000E+00	 1.00000000E+00
					 5.00000000E-01	 7.50000000E-01	-5.96046000E-08
					 5.00000000E-01	 5.00000000E-01	 5.00000000E-01
					 5.00000000E-01	 7.50000000E-01	 1.00000000E+00
					 5.00000000E-01	 1.00000000E+00	 5.00000000E-01
					 1.00000000E+00	-1.49012000E-08	-5.96046000E-08
					 1.00000000E+00	-1.49012000E-08	 1.00000000E+00
					 5.00000000E-01	-1.49012000E-08	-5.96046000E-08
					 5.00000000E-01	-1.49012000E-08	 1.00000000E+00
					 1.00000000E+00	 2.50000000E-01	-5.96046000E-08
					 1.00000000E+00	-1.49012000E-08	 5.00000000E-01
					 1.00000000E+00	 2.50000000E-01	 1.00000000E+00
					 7.50000000E-01	-1.49012000E-08	-5.96046000E-08
					 7.50000000E-01	-1.49012000E-08	 1.00000000E+00
					 5.00000000E-01	 2.50000000E-01	-5.96046000E-08
					 5.00000000E-01	-1.49012000E-08	 5.00000000E-01
					 5.00000000E-01	 2.50000000E-01	 1.00000000E+00
					-7.45058000E-09	 1.00000000E+00	-5.96046000E-08
					-7.45058000E-09	 5.00000000E-01	-5.96046000E-08
					-7.45058000E-09	 5.00000000E-01	 1.00000000E+00
					-7.45058000E-09	 1.00000000E+00	 1.00000000E+00
					 2.50000000E-01	 1.00000000E+00	-5.96046000E-08
					 2.50000000E-01	 5.00000000E-01	-5.96046000E-08
					 2.50000000E-01	 5.00000000E-01	 1.00000000E+00
					 2.50000000E-01	 1.00000000E+00	 1.00000000E+00
					-7.45058000E-09	 7.50000000E-01	-5.96046000E-08
					-7.45058000E-09	 5.00000000E-01	 5.00000000E-01
					-7.45058000E-09	 7.50000000E-01	 1.00000000E+00
					-7.45058000E-09	 1.00000000E+00	 5.00000000E-01
					-7.45058000E-09	-1.49012000E-08	-5.96046000E-08
					-7.45058000E-09	-1.49012000E-08	 1.00000000E+00
					 2.50000000E-01	-1.49012000E-08	-5.96046000E-08
					 2.50000000E-01	-1.49012000E-08	 1.00000000E+00
					-7.45058000E-09	 2.50000000E-01	-5.96046000E-08
					-7.45058000E-09	-1.49012000E-08	 5.00000000E-01
					-7.45058000E-09	 2.50000000E-01	 1.00000000E+00
					 1.00000000E+00	 5.00000000E-01	 2.00000000E+00
					 1.00000000E+00	 1.00000000E+00	 2.00000000E+00
					 5.00000000E-01	 5.00000000E-01	 2.00000000E+00
					 5.00000000E-01	 1.00000000E+00	 2.00000000E+00
					 1.00000000E+00	 5.00000000E-01	 1.50000000E+00
					 1.00000000E+00	 7.50000000E-01	 2.00000000E+00
					 1.00000000E+00	 1.00000000E+00	 1.50000000E+00
					 7.50000000E-01	 5.00000000E-01	 2.00000000E+00
					 7.50000000E-01	 1.00000000E+00	 2.00000000E+00
					 5.00000000E-01	 5.00000000E-01	 1.50000000E+00
					 5.00000000E-01	 7.50000000E-01	 2.00000000E+00
					 5.00000000E-01	 1.00000000E+00	 1.50000000E+00
					 1.00000000E+00	-1.49012000E-08	 2.00000000E+00
					 5.00000000E-01	-1.49012000E-08	 2.00000000E+00
					 1.00000000E+00	-1.49012000E-08	 1.50000000E+00
					 1.00000000E+00	 2.50000000E-01	 2.00000000E+00
					 7.50000000E-01	-1.49012000E-08	 2.00000000E+00
					 5.00000000E-01	-1.49012000E-08	 1.50000000E+00
					 5.00000000E-01	 2.50000000E-01	 2.00000000E+00
					-7.45058000E-09	 5.00000000E-01	 2.00000000E+00
					-7.45058000E-09	 1.00000000E+00	 2.00000000E+00
					 2.50000000E-01	 5.00000000E-01	 2.00000000E+00
					 2.50000000E-01	 1.00000000E+00	 2.00000000E+00
					-7.45058000E-09	 5.00000000E-01	 1.50000000E+00
					-7.45058000E-09	 7.50000000E-01	 2.00000000E+00
					-7.45058000E-09	 1.00000000E+00	 1.50000000E+00
					-7.45058000E-09	-1.49012000E-08	 2.00000000E+00
					 2.50000000E-01	-1.49012000E-08	 2.00000000E+00
					-7.45058000E-09	-1.49012000E-08	 1.50000000E+00
					-7.45058000E-09	 2.50000000E-01	 2.00000000E+00
					 1.00000000E+00	 5.00000000E-01	 3.00000000E+00
					 1.00000000E+00	 1.00000000E+00	 3.00000000E+00
					 5.00000000E-01	 5.00000000E-01	 3.00000000E+00
					 5.00000000E-01	 1.00000000E+00	 3.00000000E+00
					 1.00000000E+00	 5.00000000E-01	 2.50000000E+00
					 1.00000000E+00	 7.50000000E-01	 3.00000000E+00
					 1.00000000E+00	 1.00000000E+00	 2.50000000E+00
					 7.50000000E-01	 5.00000000E-01	 3.00000000E+00
					 7.50000000E-01	 1.00000000E+00	 3.00000000E+00
					 5.00000000E-01	 5.00000000E-01	 2.50000000E+00
					 5.00000000E-01	 7.50000000E-01	 3.00000000E+00
					 5.00000000E-01	 1.00000000E+00	 2.50000000E+00
					 1.00000000E+00	-1.49012000E-08	 3.00000000E+00
					 5.00000000E-01	-1.49012000E-08	 3.00000000E+00
					 1.00000000E+00	-1.49012000E-08	 2.50000000E+00
					 1.00000000E+00	 2.50000000E-01	 3.00000000E+00
					 7.50000000E-01	-1.49012000E-08	 3.00000000E+00
					 5.00000000E-01	-1.49012000E-08	 2.50000000E+00
					 5.00000000E-01	 2.50000000E-01	 3.00000000E+00
					-7.45058000E-09	 5.00000000E-01	 3.00000000E+00
					-7.45058000E-09	 1.00000000E+00	 3.00000000E+00
					 2.50000000E-01	 5.00000000E-01	 3.00000000E+00
					 2.50000000E-01	 1.00000000E+00	 3.00000000E+00
					-7.45058000E-09	 5.00000000E-01	 2.50000000E+00
					-7.45058000E-09	 7.50000000E-01	 3.00000000E+00
					-7.45058000E-09	 1.00000000E+00	 2.50000000E+00
					-7.45058000E-09	-1.49012000E-08	 3.00000000E+00
					 2.50000000E-01	-1.49012000E-08	 3.00000000E+00
					-7.45058000E-09	-1.49012000E-08	 2.50000000E+00
					-7.45058000E-09	 2.50000000E-01	 3.00000000E+00
					 1.00000000E+00	 5.00000000E-01	 4.00000000E+00
					 1.00000000E+00	 1.00000000E+00	 4.00000000E+00
					 5.00000000E-01	 5.00000000E-01	 4.00000000E+00
					 5.00000000E-01	 1.00000000E+00	 4.00000000E+00
					 1.00000000E+00	 5.00000000E-01	 3.50000000E+00
					 1.00000000E+00	 7.50000000E-01	 4.00000000E+00
					 1.00000000E+00	 1.00000000E+00	 3.50000000E+00
					 7.50000000E-01	 5.00000000E-01	 4.00000000E+00
					 7.50000000E-01	 1.00000000E+00	 4.00000000E+00
					 5.00000000E-01	 5.00000000E-01	 3.50000000E+00
					 5.00000000E-01	 7.50000000E-01	 4.00000000E+00
					 5.00000000E-01	 1.00000000E+00	 3.50000000E+00
					 1.00000000E+00	-1.49012000E-08	 4.00000000E+00
					 5.00000000E-01	-1.49012000E-08	 4.00000000E+00
					 1.00000000E+00	-1.49012000E-08	 3.50000000E+00
					 1.00000000E+00	 2.50000000E-01	 4.00000000E+00
					 7.50000000E-01	-1.49012000E-08	 4.00000000E+00
					 5.00000000E-01	-1.49012000E-08	 3.50000000E+00
					 5.00000000E-01	 2.50000000E-01	 4.00000000E+00
					-7.45058000E-09	 5.00000000E-01	 4.00000000E+00
					-7.45058000E-09	 1.00000000E+00	 4.00000000E+00
					 2.50000000E-01	 5.00000000E-01	 4.00000000E+00
					 2.50000000E-01	 1.00000000E+00	 4.00000000E+00
					-7.45058000E-09	 5.00000000E-01	 3.50000000E+00
					-7.45058000E-09	 7.50000000E-01	 4.00000000E+00
					-7.45058000E-09	 1.00000000E+00	 3.50000000E+00
					-7.45058000E-09	-1.49012000E-08	 4.00000000E+00
					 2.50000000E-01	-1.49012000E-08	 4.00000000E+00
					-7.45058000E-09	-1.49012000E-08	 3.50000000E+00
					-7.45058000E-09	 2.50000000E-01	 4.00000000E+00
					 1.00000000E+00	 5.00000000E-01	 5.00000000E+00
					 1.00000000E+00	 1.00000000E+00	 5.00000000E+00
					 5.00000000E-01	 5.00000000E-01	 5.00000000E+00
					 5.00000000E-01	 1.00000000E+00	 5.00000000E+00
					 1.00000000E+00	 5.00000000E-01	 4.50000000E+00
					 1.00000000E+00	 7.50000000E-01	 5.00000000E+00
					 1.00000000E+00	 1.00000000E+00	 4.50000000E+00
					 7.50000000E-01	 5.00000000E-01	 5.00000000E+00
					 7.50000000E-01	 1.00000000E+00	 5.00000000E+00
					 5.00000000E-01	 5.00000000E-01	 4.50000000E+00
					 5.00000000E-01	 7.50000000E-01	 5.00000000E+00
					 5.00000000E-01	 1.00000000E+00	 4.50000000E+00
					 1.00000000E+00	-1.49012000E-08	 5.00000000E+00
					 5.00000000E-01	-1.49012000E-08	 5.00000000E+00
					 1.00000000E+00	-1.49012000E-08	 4.50000000E+00
					 1.00000000E+00	 2.50000000E-01	 5.00000000E+00
					 7.50000000E-01	-1.49012000E-08	 5.00000000E+00
					 5.00000000E-01	-1.49012000E-08	 4.50000000E+00
					 5.00000000E-01	 2.50000000E-01	 5.00000000E+00
					-7.45058000E-09	 5.00000000E-01	 5.00000000E+00
					-7.45058000E-09	 1.00000000E+00	 5.00000000E+00
					 2.50000000E-01	 5.00000000E-01	 5.00000000E+00
					 2.50000000E-01	 1.00000000E+00	 5.00000000E+00
					-7.45058000E-09	 5.00000000E-01	 4.50000000E+00
					-7.45058000E-09	 7.50000000E-01	 5.00000000E+00
					-7.45058000E-09	 1.00000000E+00	 4.50000000E+00
					-7.45058000E-09	-1.49012000E-08	 5.00000000E+00
					 2.50000000E-01	-1.49012000E-08	 5.00000000E+00
					-7.45058000E-09	-1.49012000E-08	 4.50000000E+00
					-7.45058000E-09	 2.50000000E-01	 5.00000000E+00
					 1.00000000E+00	 5.00000000E-01	 6.00000000E+00
					 1.00000000E+00	 1.00000000E+00	 6.00000000E+00
					 5.00000000E-01	 5.00000000E-01	 6.00000000E+00
					 5.00000000E-01	 1.00000000E+00	 6.00000000E+00
					 1.00000000E+00	 5.00000000E-01	 5.50000000E+00
					 1.00000000E+00	 7.50000000E-01	 6.00000000E+00
					 1.00000000E+00	 1.00000000E+00	 5.50000000E+00
					 7.50000000E-01	 5.00000000E-01	 6.00000000E+00
					 7.50000000E-01	 1.00000000E+00	 6.00000000E+00
					 5.00000000E-01	 5.00000000E-01	 5.50000000E+00
					 5.00000000E-01	 7.50000000E-01	 6.00000000E+00
					 5.00000000E-01	 1.00000000E+00	 5.50000000E+00
					 1.00000000E+00	-1.49012000E-08	 6.00000000E+00
[...]
			<PointData>
				<DataArray type="Float32" Name="U" NumberOfComponents="3" ComponentName0="D1" ComponentName1="D2" ComponentName2="D3" format="ascii">
					 0.00000000E+00	 0.00000000E+00	 0.00000000E+00
					 0.00000000E+00	 0.00000000E+00	 0.00000000E+00
					 3.85872000E-18	 2.87211000E-17	-1.83811000E-18
					-1.09822000E-18	 3.75788000E-17	 2.98267000E-18
					 0.00000000E+00	 0.00000000E+00	 0.00000000E+00
					 0.00000000E+00	 0.00000000E+00	 0.00000000E+00
					 6.72796000E-19	 3.45493000E-17	-2.79640000E-18
					-5.17158000E-18	 4.63612000E-17	 2.31005000E-18
					 0.00000000E+00	 0.00000000E+00	 0.00000000E+00
					 4.79738000E-21	 2.49566000E-22	-1.64997000E-21
					-1.50716000E-18	-2.40974000E-17	 5.85335000E-19
					-1.87792000E-20	 5.71940000E-21	 1.16356000E-20
					 0.00000000E+00	 0.00000000E+00	 0.00000000E+00
					 0.00000000E+00	 0.00000000E+00	 0.00000000E+00
					-2.03980000E-18	-2.76350000E-18	 1.89048000E-18
					 2.17530000E-18	-6.02283000E-18	-6.21632000E-18
					 0.00000000E+00	 0.00000000E+00	 0.00000000E+00
					 1.19681000E-21	 1.98766000E-21	-3.60988000E-21
					-2.70492000E-19	-3.01904000E-17	 1.56292000E-18
					-3.36845000E-21	 9.56884000E-21	 1.21927000E-20
					 0.00000000E+00	 0.00000000E+00	 0.00000000E+00
					 5.63331000E-18	 2.16333000E-17	-2.94201000E-18
					 0.00000000E+00	 0.00000000E+00	 0.00000000E+00
					 3.50329000E-18	 2.54008000E-17	-3.92526000E-18
					 0.00000000E+00	 0.00000000E+00	 0.00000000E+00
					 1.54298000E-20	 2.73624000E-21	-7.00279000E-21
					-7.69739000E-19	-1.52676000E-17	-3.43150000E-19
					 0.00000000E+00	 0.00000000E+00	 0.00000000E+00
					-3.62232000E-18	-1.86914000E-18	 4.38821000E-18
					 0.00000000E+00	 0.00000000E+00	 0.00000000E+00
					 2.56022000E-21	 6.67334000E-22	-9.80858000E-21
					-3.66921000E-19	-1.81774000E-17	 8.56165000E-19
					 0.00000000E+00	 0.00000000E+00	 0.00000000E+00
					 0.00000000E+00	 0.00000000E+00	 0.00000000E+00
					-4.22657000E-18	 4.14998000E-17	-2.65916000E-18
					-1.17518000E-17	 5.62436000E-17	 2.86937000E-18
					 0.00000000E+00	 0.00000000E+00	 0.00000000E+00
					 0.00000000E+00	 0.00000000E+00	 0.00000000E+00
					 1.39979000E-18	-3.26638000E-18	 2.76023000E-18
					 7.01100000E-18	-8.50036000E-18	-7.73755000E-18
					 0.00000000E+00	 0.00000000E+00	 0.00000000E+00
					-5.88192000E-21	 5.39464000E-21	-2.39705000E-21
					 3.45180000E-18	-3.73599000E-17	 7.56595000E-20
					 1.78078000E-20	 8.29564000E-21	 1.68009000E-20
					 0.00000000E+00	 0.00000000E+00	 0.00000000E+00
					 5.81270000E-19	 3.02547000E-17	-3.97410000E-18
					 0.00000000E+00	 0.00000000E+00	 0.00000000E+00
					-1.47553000E-18	-2.24178000E-18	 5.59155000E-18
					 0.00000000E+00	 0.00000000E+00	 0.00000000E+00
					-1.62800000E-20	 2.93385000E-21	-1.03018000E-20
					 6.26352000E-19	-2.20251000E-17	 5.94639000E-19
					-1.60803000E-15	-8.88028000E-15	 7.80923000E-16
					 4.32309000E-16	-1.26014000E-14	-9.48431000E-16
					-5.00607000E-16	-1.13952000E-14	 1.25154000E-15
					 1.94574000E-15	-1.68044000E-14	-5.70882000E-16
					-5.16676000E-18	 2.33589000E-19	 1.80911000E-18
					 5.54727000E-16	 7.92354000E-15	-2.13671000E-16
					 1.63089000E-17	-4.88523000E-18	-9.93908000E-18
					 8.89144000E-16	 8.39779000E-16	-8.01562000E-16
					-8.65256000E-16	 2.15716000E-15	 2.09036000E-15
					-1.74264000E-18	-1.29992000E-18	 4.01179000E-18
					 2.41434000E-16	 1.07606000E-14	-6.99989000E-16
					 3.62069000E-18	-9.40437000E-18	-1.05672000E-17
					-1.98726000E-15	-5.90409000E-15	 8.60079000E-16
					-1.31283000E-15	-7.30535000E-15	 1.25204000E-15
					-1.20005000E-17	-1.87648000E-18	 4.90998000E-18
					 2.99017000E-16	 4.23218000E-15	 1.19844000E-16
					 1.25696000E-15	 4.22643000E-16	-1.25168000E-15
					-2.60698000E-18	 3.10972000E-19	 7.60499000E-18
					 1.70409000E-16	 5.32082000E-15	-3.25534000E-16
					 1.63781000E-15	-1.44686000E-14	 1.30087000E-15
					 4.99706000E-15	-2.16049000E-14	-6.70375000E-16
					-3.90217000E-16	 9.98099000E-16	-1.31035000E-15
					-2.88771000E-15	 3.49222000E-15	 2.75088000E-15
					 6.71722000E-18	-4.87615000E-18	 3.08759000E-18
					-1.56194000E-15	 1.41758000E-14	-1.76933000E-16
					-1.50596000E-17	-8.78212000E-18	-1.54303000E-17
					-1.97858000E-16	-9.19390000E-15	 1.31171000E-15
					 5.85490000E-16	 5.21802000E-16	-1.74389000E-15
					 1.32459000E-17	-1.76639000E-18	 8.19753000E-18
					-3.08333000E-16	 6.83404000E-15	-2.66013000E-16
					 3.25241000E-13	 1.32004000E-12	-1.63103000E-13
					-8.61685000E-14	 2.10623000E-12	 1.46559000E-13
					 1.62349000E-13	 1.87122000E-12	-2.82786000E-13
					-3.42607000E-13	 3.15893000E-12	 3.85007000E-14
					 2.18137000E-15	-2.63517000E-16	-7.83349000E-16
					-1.01733000E-13	-1.28317000E-12	 3.86638000E-14
					-5.71796000E-15	 1.64171000E-15	 3.37883000E-15
					-1.88389000E-13	-1.15917000E-13	 1.67073000E-13
					 1.74703000E-13	-3.97080000E-13	-3.51996000E-13
					 1.01524000E-15	 1.85220000E-16	-1.77804000E-15
					-9.47788000E-14	-1.96608000E-12	 1.64285000E-13
					-1.52948000E-15	 3.82983000E-15	 3.66839000E-15
					 3.12843000E-13	 7.21736000E-13	-1.11729000E-13
					 2.29312000E-13	 9.74760000E-13	-1.82910000E-13
					 3.50776000E-15	 4.65157000E-16	-1.24118000E-15
					-4.91665000E-14	-5.29417000E-13	-1.99467000E-14
					-1.95257000E-13	-3.62414000E-14	 1.60363000E-13
					 1.03457000E-15	-4.10167000E-16	-2.20870000E-15
					-3.81342000E-14	-7.27187000E-13	 5.55436000E-14
					-3.18900000E-13	 2.56265000E-12	-3.23669000E-13
					-1.09379000E-12	 4.38036000E-12	 1.79756000E-14
					 3.01363000E-14	-1.24034000E-13	 3.19844000E-13
					 5.93053000E-13	-7.85721000E-13	-4.96497000E-13
					-3.11197000E-15	 1.65991000E-15	-1.58859000E-15
					 3.86137000E-13	-2.81078000E-12	 8.51763000E-14
					 5.00655000E-15	 3.98948000E-15	 5.71771000E-15
					 3.31881000E-14	 1.33072000E-12	-2.00455000E-13
					-1.10555000E-13	-4.46944000E-14	 2.56676000E-13
					-4.20355000E-15	 2.95921000E-16	-2.48088000E-15
					 6.72022000E-14	-1.01526000E-12	 5.36448000E-14
					-3.20830000E-11	-9.30757000E-11	 1.67894000E-11
					 9.28028000E-12	-1.79781000E-10	-1.10043000E-11
					-2.54917000E-11	-1.56790000E-10	 3.28878000E-11
					 2.63827000E-11	-3.25311000E-10	 4.32317000E-12
					-4.54797000E-13	 8.87599000E-14	 1.67590000E-13
					 1.01610000E-11	 1.02742000E-10	-3.91062000E-12
					 1.02809000E-12	-2.77406000E-13	-5.74661000E-13
					 1.92083000E-11	 5.92723000E-12	-1.73362000E-11
					-1.90845000E-11	 4.02426000E-11	 3.04087000E-11
					-3.01199000E-13	 5.70712000E-14	 3.96438000E-13
					 1.83789000E-11	 1.91468000E-10	-2.10932000E-11
					 3.17244000E-13	-8.37504000E-13	-6.48515000E-13
					-2.03398000E-11	-3.57889000E-11	 5.73473000E-12
					-1.80276000E-11	-5.82478000E-11	 1.09168000E-11
					-4.62193000E-13	-5.03028000E-14	 1.29461000E-13
					 3.09060000E-12	 2.72668000E-11	 1.56001000E-12
					 1.25810000E-11	 5.26493000E-13	-8.37935000E-12
					-1.98452000E-13	 1.10958000E-13	 2.84978000E-13
					 3.98587000E-12	 4.49000000E-11	-3.80997000E-12
					 3.28402000E-11	-2.39846000E-10	 4.15866000E-11
					 1.28310000E-10	-4.97989000E-10	 1.26667000E-11
					 4.19829000E-12	 7.96060000E-13	-4.19385000E-11
					-6.17743000E-11	 1.05551000E-10	 4.78062000E-11
					 7.50459000E-13	-2.36766000E-13	 4.13475000E-13
					-5.50927000E-11	 3.05943000E-10	-1.77934000E-11
					-8.06800000E-13	-1.00593000E-12	-1.08631000E-12
					-2.93091000E-12	-9.09691000E-11	 1.22267000E-11
					 9.84365000E-12	 1.32515000E-13	-1.70843000E-11
					 6.45429000E-13	 3.83425000E-15	 3.41334000E-13
					-6.47440000E-12	 7.14743000E-11	-4.35370000E-12
					 1.27980000E-09	 2.43375000E-09	-6.95176000E-10
					-5.44023000E-10	 6.99987000E-09	 3.44651000E-10
					 1.78774000E-09	 6.02662000E-09	-1.69401000E-09
					-5.16872000E-10	 1.77022000E-08	-4.94733000E-10
					 4.84546000E-11	-1.45495000E-11	-1.78122000E-11
					-6.01543000E-10	-3.34208000E-09	 2.62212000E-10
					-9.78304000E-11	 2.63981000E-11	 4.96971000E-11
					-7.42332000E-10	 9.23856000E-11	 7.73604000E-10
					 1.08995000E-09	-2.22537000E-09	-1.18376000E-09
					 4.75389000E-11	-2.20509000E-11	-4.55338000E-11
					-1.63665000E-09	-9.12363000E-09	 1.36234000E-09
					-3.36805000E-11	 1.06234000E-10	 6.20889000E-11
					 3.29201000E-10	 3.20806000E-10	-6.13985000E-11
					 4.53436000E-10	 1.12562000E-09	-1.02156000E-10
					 2.48531000E-11	 2.23705000E-12	-4.06356000E-12
					-4.13099000E-11	-2.81276000E-10	-3.90632000E-11
					-1.99941000E-10	 5.72615000E-11	 1.03483000E-10
					 1.80578000E-11	-1.04738000E-11	-1.38689000E-11
					-1.42032000E-10	-9.10826000E-10	 3.82284000E-11
					-1.65559000E-09	 1.12032000E-08	-2.33284000E-09
					-7.34408000E-09	 3.10500000E-08	-1.22132000E-09
					-7.63857000E-10	 1.02916000E-09	 2.75868000E-09
					 2.89126000E-09	-8.57801000E-09	-2.45831000E-09
					-1.00044000E-10	 4.93961000E-12	-5.61199000E-11
					 4.11521000E-09	-1.73515000E-08	 1.65556000E-09
					 6.17716000E-11	 1.50727000E-10	 1.12374000E-10
					 1.26552000E-10	 2.39495000E-09	-5.79776000E-13
					-3.34801000E-10	 1.71013000E-10	 3.89647000E-10
					-4.70629000E-11	-3.66411000E-12	-1.82028000E-11
					 2.16793000E-10	-1.90334000E-09	 3.73246000E-11
					-5.95761000E-09	 1.32610000E-09	 3.36192000E-09
					 1.61854000E-08	-7.33276000E-08	-4.46416000E-09
					-3.47492000E-08	-7.64686000E-08	 1.55942000E-08
					-2.96990000E-09	-4.42663000E-07	-5.52560000E-09
					-2.45010000E-09	 1.19735000E-09	 7.76969000E-10
					 1.77970000E-08	 8.48726000E-09	-1.06798000E-08
					 4.30967000E-09	-1.65900000E-09	-1.87971000E-09
					 1.48932000E-09	-1.05671000E-08	-9.30618000E-09
					-2.22070000E-08	 5.08885000E-08	 9.44359000E-09
					-3.74956000E-09	 2.63881000E-09	 2.37361000E-09
					 4.45371000E-08	 1.46503000E-07	-2.98672000E-08
					 2.02094000E-09	-7.71963000E-09	-3.24135000E-09
					 2.60465000E-09	 6.88626000E-09	-3.45671000E-10
					 1.84249000E-09	 6.99340000E-09	-2.03093000E-09
					-2.94868000E-10	 5.44771000E-12	-4.62122000E-11
					 1.02587000E-09	-5.07679000E-09	-1.23647000E-09
					-2.08561000E-09	-2.12715000E-09	-1.64750000E-10
					-5.85271000E-10	 2.37916000E-10	-2.13249000E-12
					-3.28372000E-10	-4.82977000E-09	 2.22692000E-10
					 2.22816000E-08	-2.45572000E-07	 9.35230000E-09
					 1.23018000E-07	-9.49284000E-07	-6.92286000E-09
					 2.95626000E-08	-5.82062000E-08	-7.17597000E-08
					-4.75861000E-08	 4.03310000E-07	 6.57121000E-08
					 7.08830000E-09	 2.02819000E-09	 3.55872000E-09
					-1.06330000E-07	 4.28344000E-07	-4.63338000E-08
					-2.12661000E-09	-1.32356000E-08	-6.41103000E-09
					-8.39795000E-10	 4.71805000E-09	-4.72581000E-09
					 9.58633000E-10	-5.66687000E-09	-2.13125000E-09
					 1.22069000E-09	 5.96258000E-11	-7.06736000E-11
					-5.38475000E-10	-4.06519000E-09	 1.53325000E-10
					-1.44334000E-07	-1.27077000E-07	 5.70465000E-08
					-5.80143000E-09	-1.10608000E-06	 2.19544000E-08
					-3.49093000E-07	-1.59480000E-07	 3.34747000E-07
					-9.47561000E-07	 3.77007000E-06	 6.54387000E-07
					 4.52716000E-08	-3.72420000E-08	-8.01576000E-09
					 2.20175000E-07	 2.98381000E-07	-9.12980000E-08
					-3.15347000E-08	 6.85207000E-08	 1.24827000E-08
					 7.98269000E-08	-1.13069000E-07	-8.98002000E-08
					-2.41555000E-07	 6.44285000E-07	 6.16824000E-08
					 1.17109000E-07	-1.12140000E-07	-2.99958000E-08
					 6.79061000E-07	 8.70852000E-07	-4.79212000E-07
					-1.12522000E-07	 2.87039000E-07	 8.90845000E-08
					 6.82253000E-09	 2.87363000E-08	-1.72427000E-09
					 4.35729000E-09	 4.11600000E-09	-7.46286000E-09
					 2.61703000E-09	-6.80672000E-09	-1.31269000E-09
					 5.52099000E-09	-2.06545000E-08	-3.24916000E-09
					-6.01853000E-09	-1.30038000E-08	-1.45810000E-09
					 2.49906000E-09	-5.97466000E-09	-1.34529000E-09
					 4.36078000E-10	 4.61201000E-09	-2.70746000E-10
					 5.19734000E-07	 8.76580000E-07	 8.89509000E-07
					 1.60351000E-06	 1.97939000E-05	 1.43102000E-06
					-1.92576000E-09	-8.08223000E-07	-4.54015000E-07
					 2.90659000E-07	-3.67698000E-06	-3.90392000E-07
					-2.19003000E-07	-1.37053000E-07	-4.94544000E-08
					-1.34645000E-06	-1.82511000E-07	-1.14460000E-06
					 1.28241000E-07	 5.96672000E-07	 2.10920000E-07
					-1.37821000E-08	-4.54821000E-08	-1.93542000E-08
					 1.05034000E-08	-3.15289000E-08	-1.09127000E-08
					-4.06265000E-09	-1.13294000E-08	-1.69916000E-09
					-7.80593000E-09	 4.51627000E-08	 3.72271000E-10
					-1.20902000E-07	-6.02642000E-07	-5.09541000E-08
					 7.73119000E-09	-2.61301000E-06	-2.28302000E-07
					-8.66511000E-07	-2.31701000E-08	 2.22986000E-07
					-2.77292000E-06	 2.84648000E-05	-4.59525000E-07
					 4.65847000E-07	-3.94760000E-07	-4.52940000E-08
					 3.32169000E-07	 1.01605000E-06	 1.96485000E-07
					-2.46971000E-07	 5.93592000E-07	 7.77818000E-08
					 1.14668000E-07	-1.05914000E-07	 1.71537000E-07
					-6.43622000E-07	 1.34473000E-06	-5.07994000E-08
					 7.44903000E-07	-1.43088000E-06	-3.01163000E-07
					 2.58498000E-06	 7.50298000E-07	 5.21443000E-07
					 7.47060000E-07	-8.43830000E-06	-1.83362000E-07
					 1.21058000E-08	 4.51878000E-08	-6.73507000E-09
					 2.06621000E-08	-1.84031000E-08	-1.17371000E-08
					 1.89033000E-08	-3.35465000E-08	-9.38779000E-10
					 5.10511000E-09	-3.31478000E-08	 9.29950000E-09
					-1.09033000E-08	-1.93417000E-08	 4.98458000E-09
					 2.40174000E-08	-4.71887000E-08	-2.69107000E-09
					-9.50710000E-10	 2.61964000E-08	 1.27682000E-08
					 3.98794000E-07	 3.20314000E-06	 5.44747000E-07
					-8.94687000E-07	-1.31443000E-04	 2.24528000E-06
					 2.21098000E-07	-2.90121000E-06	 4.18776000E-07
					 2.24922000E-06	-1.66493000E-04	 2.15801000E-06
					-1.67336000E-06	-3.55434000E-06	-7.18051000E-07
					-3.69290000E-06	-6.67205000E-06	 6.43538000E-07
					-1.90775000E-06	-5.43006000E-05	-1.29120000E-06
					-1.37420000E-08	-1.21057000E-07	-1.72360000E-08
					 4.91604000E-09	-4.29713000E-08	 2.09152000E-08
					-3.03712000E-08	-7.69463000E-08	-3.65294000E-11
					-2.14652000E-08	 1.21792000E-07	 3.45095000E-08
					 0.00000000E+00	 0.00000000E+00	 0.00000000E+00
					 0.00000000E+00	 0.00000000E+00	 0.00000000E+00
					 1.45080000E-04	-1.13205000E-02	-1.84906000E-04
					-2.52850000E-03	-1.21540000E-02	 1.18592000E-02
					 0.00000000E+00	 0.00000000E+00	 0.00000000E+00
					 0.00000000E+00	 0.00000000E+00	 0.00000000E+00
					 9.88715000E-05	-1.29467000E-02	-2.01109000E-04
					-8.36404000E-04	-1.40115000E-02	 1.19522000E-02
					 0.00000000E+00	 0.00000000E+00	 0.00000000E+00
					 6.18480000E-05	-2.10888000E-03	-8.19096000E-05
					-1.11315000E-03	-1.14711000E-02	 5.79870000E-03
					-2.23548000E-03	-3.08633000E-03	 5.95844000E-03
					 0.00000000E+00	 0.00000000E+00	 0.00000000E+00
					 0.00000000E+00	 0.00000000E+00	 0.00000000E+00
					 1.36093000E-04	-1.23686000E-02	-2.06986000E-04
					-1.66204000E-03	-1.34068000E-02	 1.18165000E-02
					 0.00000000E+00	 0.00000000E+00	 0.00000000E+00
					 3.53363000E-05	-3.28919000E-03	-8.79611000E-05
					-4.12474000E-04	-1.31966000E-02	 5.77693000E-03
					-3.54389000E-04	-4.41956000E-03	 5.78604000E-03
					 0.00000000E+00	 0.00000000E+00	 0.00000000E+00
					 2.57325000E-03	-1.17914000E-02	-1.22795000E-02
					 0.00000000E+00	 0.00000000E+00	 0.00000000E+00
					 9.11632000E-04	-1.33983000E-02	-1.24271000E-02
					 0.00000000E+00	 0.00000000E+00	 0.00000000E+00
					 2.32161000E-03	-3.01022000E-03	-6.11521000E-03
					 1.32763000E-03	-1.12794000E-02	-6.19350000E-03
					 0.00000000E+00	 0.00000000E+00	 0.00000000E+00
					 1.72467000E-03	-1.29095000E-02	-1.22698000E-02
					 0.00000000E+00	 0.00000000E+00	 0.00000000E+00
					 4.32921000E-04	-4.28400000E-03	-5.89768000E-03
					 5.12210000E-04	-1.28734000E-02	-6.21395000E-03
					 0.00000000E+00	 0.00000000E+00	 0.00000000E+00
					 0.00000000E+00	 0.00000000E+00	 0.00000000E+00
					-2.66220000E-05	-1.29264000E-02	-1.91239000E-04
					 8.09834000E-04	-1.39010000E-02	 1.18959000E-02
					 0.00000000E+00	 0.00000000E+00	 0.00000000E+00
					 0.00000000E+00	 0.00000000E+00	 0.00000000E+00
					 3.31304000E-05	-1.32514000E-02	-2.08198000E-04
					-2.33047000E-05	-1.41149000E-02	 1.19772000E-02
					 0.00000000E+00	 0.00000000E+00	 0.00000000E+00
					 1.29343000E-05	-2.86003000E-03	-4.09429000E-05
					 4.42464000E-04	-1.31345000E-02	 5.68515000E-03
					 1.36883000E-03	-4.03629000E-03	 5.91426000E-03
					 0.00000000E+00	 0.00000000E+00	 0.00000000E+00
					-7.87425000E-04	-1.34551000E-02	-1.22370000E-02
					 0.00000000E+00	 0.00000000E+00	 0.00000000E+00
					 6.39008000E-05	-1.36703000E-02	-1.24098000E-02
					 0.00000000E+00	 0.00000000E+00	 0.00000000E+00
					-1.38823000E-03	-3.86054000E-03	-6.05007000E-03
					-4.58909000E-04	-1.29027000E-02	-6.02788000E-03
					 1.56330000E-04	-4.63694000E-02	-9.18857000E-04
					-2.86247000E-03	-4.76517000E-02	 2.13608000E-02
					 1.49611000E-04	-4.87827000E-02	-9.76992000E-04
					-1.53872000E-03	-5.00250000E-02	 2.14566000E-02
					 1.07779000E-04	-2.62066000E-02	-4.30452000E-04
					-1.37635000E-03	-4.68551000E-02	 1.01920000E-02
					-2.79418000E-03	-2.72785000E-02	 1.69698000E-02
					 1.54437000E-04	-4.77499000E-02	-9.73838000E-04
					-2.20404000E-03	-4.89539000E-02	 2.14141000E-02
					 6.81462000E-05	-2.82926000E-02	-4.77772000E-04
					-6.72614000E-04	-4.92481000E-02	 1.01710000E-02
					-1.17349000E-03	-2.94124000E-02	 1.70198000E-02
					 3.34125000E-03	-4.64495000E-02	-2.33870000E-02
					 1.81034000E-03	-4.89701000E-02	-2.34256000E-02
					 3.04248000E-03	-2.65909000E-02	-1.80211000E-02
					 1.70983000E-03	-4.62723000E-02	-1.20965000E-02
					 2.55774000E-03	-4.79165000E-02	-2.33838000E-02
					 1.38965000E-03	-2.87315000E-02	-1.80900000E-02
					 1.00095000E-03	-4.87154000E-02	-1.21086000E-02
					 1.08529000E-04	-4.99323000E-02	-9.47647000E-04
					-2.08099000E-04	-5.10193000E-02	 2.14241000E-02
					 1.20040000E-04	-4.94855000E-02	-9.62227000E-04
					-8.66299000E-04	-5.07811000E-02	 2.14767000E-02
					 4.49949000E-05	-2.87737000E-02	-4.70715000E-04
					-8.58132000E-05	-5.02999000E-02	 1.01351000E-02
					 3.24897000E-04	-2.99089000E-02	 1.71006000E-02
					 6.15838000E-04	-5.00972000E-02	-2.34102000E-02
					 1.20492000E-03	-4.96366000E-02	-2.34777000E-02
					-7.94530000E-05	-2.93777000E-02	-1.80733000E-02
					 3.40428000E-04	-4.98583000E-02	-1.20458000E-02
					 4.04738000E-04	-1.00149000E-01	-2.45594000E-03
					-2.96187000E-03	-1.01743000E-01	 2.80021000E-02
					 3.62364000E-04	-1.02940000E-01	-2.55220000E-03
					-1.80645000E-03	-1.04554000E-01	 2.79892000E-02
					 2.73327000E-04	-7.12208000E-02	-1.61536000E-03
					-1.27940000E-03	-1.00826000E-01	 1.27242000E-02
					-2.88726000E-03	-7.26021000E-02	 2.50519000E-02
					 3.76898000E-04	-1.01691000E-01	-2.50589000E-03
					-2.38626000E-03	-1.03297000E-01	 2.79527000E-02
					 2.24898000E-04	-7.38379000E-02	-1.65293000E-03
					-7.49111000E-04	-1.03601000E-01	 1.26580000E-02
					-1.70984000E-03	-7.51876000E-02	 2.50235000E-02
					 3.82800000E-03	-9.95904000E-02	-3.30042000E-02
					 2.63439000E-03	-1.02524000E-01	-3.31188000E-02
					 3.60534000E-03	-7.10027000E-02	-2.83458000E-02
					 2.06653000E-03	-9.97328000E-02	-1.76921000E-02
					 3.23183000E-03	-1.01226000E-01	-3.30392000E-02
					 2.28277000E-03	-7.37497000E-02	-2.84095000E-02
					 1.49763000E-03	-1.02619000E-01	-1.77642000E-02
					 3.43163000E-04	-1.04654000E-01	-2.49982000E-03
					-7.75355000E-04	-1.06319000E-01	 2.79362000E-02
					 3.66781000E-04	-1.03973000E-01	-2.54897000E-03
					-1.32177000E-03	-1.05474000E-01	 2.80541000E-02
					 2.18788000E-04	-7.52279000E-02	-1.63473000E-03
					-2.09120000E-04	-1.05375000E-01	 1.25568000E-02
					-4.67677000E-04	-7.64595000E-02	 2.50127000E-02
					 1.55687000E-03	-1.04236000E-01	-3.31582000E-02
					 2.09008000E-03	-1.03527000E-01	-3.32457000E-02
					 1.03258000E-03	-7.51712000E-02	-2.83666000E-02
					 9.44280000E-04	-1.04324000E-01	-1.76529000E-02
					 7.62718000E-04	-1.68316000E-01	-4.88194000E-03
					-2.85708000E-03	-1.69977000E-01	 3.14542000E-02