<?xml version="1.0"?>
<VTKFile type="UnstructuredGrid" version="0.1" byte_order="LittleEndian">
	<UnstructuredGrid>
		<Piece NumberOfPoints="522" NumberOfCells="64">
			<Points>
				<DataArray type="Float64" NumberOfComponents="3" format="ascii">
					 1.00000000E+00	 1.00000000E+00	-5.96046000E-08
					 1.00000000E+00	 5.00000000E-01	-5.96046000E-08
					 1.00000000E+00	 5.00000000E-01	 1.00000000E+00
					 1.00000000E+00	 1.00000000E+00	 1.00000000E+00
					 5.00000000E-01	 1.00000000E+00	-5.96046000E-08
					 5.00000000E-01	 5.00000000E-01	-5.96046000E-08
					 5.00000000E-01	 5.00000000E-01	 1.00000000E+00
					 5.00000000E-01	 1.00000000E+00	 1.00000000E+00
					 1.00000000E+00	 7.50000000E-01	-5.96046000E-08
					 1.00000000E+00	 5.00000000E-01	 5.00000000E-01
					 1.00000000E+00	 7.50000000E-01	 1.00000000E+00
					 1.00000000E+00	 1.00000000E+00	 5.00000000E-01
					 7.50000000E-01	 1.00000000E+00	-5.96046000E-08
					 7.50000000E-01	 5.00000000E-01	-5.96046000E-08
					 7.50000000E-01	 5.00000000E-01	 1.00000000E+00
					 7.50000000E-01	 1.00000000E+00	 1.00000000E+00
					 5.00000000E-01	 7.50000000E-01	-5.96046000E-08
					 5.00000000E-01	 5.00000000E-01	 5.00000000E-01
					 5.00000000E-01	 7.50000000E-01	 1.00000000E+00
					 5.00000000E-01	 1.00000000E+00	 5.00000000E-01
					 1.00000000E+00	-1.49012000E-08	-5.96046000E-08
					 1.00000000E+00	-1.49012000E-08	 1.00000000E+00
					 5.00000000E-01	-1.49012000E-08	-5.96046000E-08
					 5.00000000E-01	-1.49012000E-08	 1.00000000E+00
					 1.00000000E+00	 2.50000000E-01	-5.96046000E-08
					 1.00000000E+00	-1.49012000E-08	 5.00000000E-01
					 1.00000000E+00	 2.50000000E-01	 1.00000000E+00
					 7.50000000E-01	-1.49012000E-08	-5.96046000E-08
					 7.50000000E-01	-1.49012000E-08	 1.00000000E+00
					 5.00000000E-01	 2.50000000E-01	-5.96046000E-08
					 5.00000000E-01	-1.49012000E-08	 5.00000000E-01
					 5.00000000E-01	 2.50000000E-01	 1.00000000E+00
					-7.45058000E-09	 1.00000000E+00	-5.96046000E-08
					-7.45058000E-09	 5.00000000E-01	-5.96046000E-08
					-7.45058000E-09	 5.00000000E-01	 1.00000000E+00
					-7.45058000E-09	 1.00000000E+00	 1.00000000E+00
					 2.50000000E-01	 1.00000000E+00	-5.96046000E-08
					 2.50000000E-01	 5.00000000E-01	-5.96046000E-08
					 2.50000000E-01	 5.00000000E-01	 1.00000000E+00
					 2.50000000E-01	 1.00000000E+00	 1.00000000E+00
					-7.45058000E-09	 7.50000000E-01	-5.96046000E-08
					-7.45058000E-09	 5.00000000E-01	 5.00000000E-01
					-7.45058000E-09	 7.50000000E-01	 1.00000000E+00
					-7.45058000E-09	 1.00000000E+00	 5.00000000E-01
					-7.45058000E-09	-1.49012000E-08	-5.96046000E-08
					-7.45058000E-09	-1.49012000E-08	 1.00000000E+00
					 2.50000000E-01	-1.49012000E-08	-5.96046000E-08
					 2.50000000E-01	-1.49012000E-08	 1.00000000E+00
					-7.45058000E-09	 2.50000000E-01	-5.96046000E-08
					-7.45058000E-09	-1.49012000E-08	 5.00000000E-01
					-7.45058000E-09	 2.50000000E-01	 1.00000000E+00
					 1.00000000E+00	 5.00000000E-01	 2.00000000E+00
					 1.00000000E+00	 1.00000000E+00	 2.00000000E+00
					 5.00000000E-01	 5.00000000E-01	 2.00000000E+00
					 5.00000000E-01	 1.00000000E+00	 2.00000000E+00
					 1.00000000E+00	 5.00000000E-01	 1.50000000E+00
					 1.00000000E+00	 7.50000000E-01	 2.00000000E+00
					 1.00000000E+00	 1.00000000E+00	 1.50000000E+00
					 7.50000000E-01	 5.00000000E-01	 2.00000000E+00
					 7.50000000E-01	 1.00000000E+00	 2.00000000E+00
					 5.00000000E-01	 5.00000000E-01	 1.50000000E+00
					 5.00000000E-01	 7.50000000E-01	 2.00000000E+00
					 5.00000000E-01	 1.00000000E+00	 1.50000000E+00
					 1.00000000E+00	-1.49012000E-08	 2.00000000E+00
					 5.00000000E-01	-1.49012000E-08	 2.00000000E+00
					 1.00000000E+00	-1.49012000E-08	 1.50000000E+00
					 1.00000000E+00	 2.50000000E-01	 2.00000000E+00
					 7.50000000E-01	-1.49012000E-08	 2.00000000E+00
					 5.00000000E-01	-1.49012000E-08	 1.50000000E+00
					 5.00000000E-01	 2.50000000E-01	 2.00000000E+00
					-7.45058000E-09	 5.00000000E-01	 2.00000000E+00
					-7.45058000E-09	 1.00000000E+00	 2.00000000E+00
					 2.50000000E-01	 5.00000000E-01	 2.00000000E+00
					 2.50000000E-01	 1.00000000E+00	 2.00000000E+00
					-7.45058000E-09	 5.00000000E-01	 1.50000000E+00
					-7.45058000E-09	 7.50000000E-01	 2.00000000E+00
					-7.45058000E-09	 1.00000000E+00	 1.50000000E+00
					-7.45058000E-09	-1.49012000E-08	 2.00000000E+00
					 2.50000000E-01	-1.49012000E-08	 2.00000000E+00
					-7.45058000E-09	-1.49012000E-08	 1.50000000E+00
					-7.45058000E-09	 2.50000000E-01	 2.00000000E+00
					 1.00000000E+00	 5.00000000E-01	 3.00000000E+00
					 1.00000000E+00	 1.00000000E+00	 3.00000000E+00
					 5.00000000E-01	 5.00000000E-01	 3.00000000E+00
					 5.00000000E-01	 1.00000000E+00	 3.00000000E+00
					 1.00000000E+00	 5.00000000E-01	 2.50000000E+00
					 1.00000000E+00	 7.50000000E-01	 3.00000000E+00
					 1.00000000E+00	 1.00000000E+00	 2.50000000E+00
					 7.50000000E-01	 5.00000000E-01	 3.00000000E+00
					 7.50000000E-01	 1.00000000E+00	 3.00000000E+00
					 5.00000000E-01	 5.00000000E-01	 2.50000000E+00
					 5.00000000E-01	 7.50000000E-01	 3.00000000E+00
					 5.00000000E-01	 1.00000000E+00	 2.50000000E+00
					 1.00000000E+00	-1.49012000E-08	 3.00000000E+00
					 5.00000000E-01	-1.49012000E-08	 3.00000000E+00
					 1.00000000E+00	-1.49012000E-08	 2.50000000E+00
					 1.00000000E+00	 2.50000000E-01	 3.00000000E+00
					 7.50000000E-01	-1.49012000E-08	 3.00000000E+00
					 5.00000000E-01	-1.49012000E-08	 2.50000000E+00
					 5.00000000E-01	 2.50000000E-01	 3.00000000E+00
					-7.45058000E-09	 5.00000000E-01	 3.00000000E+00
					-7.45058000E-09	 1.00000000E+00	 3.00000000E+00
					 2.50000000E-01	 5.00000000E-01	 3.00000000E+00
					 2.50000000E-01	 1.00000000E+00	 3.00000000E+00
					-7.45058000E-09	 5.00000000E-01	 2.50000000E+00
					-7.45058000E-09	 7.50000000E-01	 3.00000000E+00
					-7.45058000E-09	 1.00000000E+00	 2.50000000E+00
					-7.45058000E-09	-1.49012000E-08	 3.00000000E+00
					 2.50000000E-01	-1.49012000E-08	 3.00000000E+00
					-7.45058000E-09	-1.49012000E-08	 2.50000000E+00
					-7.45058000E-09	 2.50000000E-01	 3.00000000E+00
					 1.00000000E+00	 5.00000000E-01	 4.00000000E+00
					 1.00000000E+00	 1.00000000E+00	 4.00000000E+00
					 5.00000000E-01	 5.00000000E-01	 4.00000000E+00
					 5.00000000E-01	 1.00000000E+00	 4.00000000E+00
					 1.00000000E+00	 5.00000000E-01	 3.50000000E+00
					 1.00000000E+00	 7.50000000E-01	 4.00000000E+00
					 1.00000000E+00	 1.00000000E+00	 3.50000000E+00
					 7.50000000E-01	 5.00000000E-01	 4.00000000E+00
					 7.50000000E-01	 1.00000000E+00	 4.00000000E+00
					 5.00000000E-01	 5.00000000E-01	 3.50000000E+00
					 5.00000000E-01	 7.50000000E-01	 4.00000000E+00
					 5.00000000E-01	 1.00000000E+00	 3.50000000E+00
					 1.00000000E+00	-1.49012000E-08	 4.00000000E+00
					 5.00000000E-01	-1.49012000E-08	 4.00000000E+00
					 1.00000000E+00	-1.49012000E-08	 3.50000000E+00
					 1.00000000E+00	 2.50000000E-01	 4.00000000E+00
					 7.50000000E-01	-1.49012000E-08	 4.00000000E+00
					 5.00000000E-01	-1.49012000E-08	 3.50000000E+00
					 5.00000000E-01	 2.50000000E-01	 4.00000000E+00
					-7.45058000E-09	 5.00000000E-01	 4.00000000E+00
					-7.45058000E-09	 1.00000000E+00	 4.00000000E+00
					 2.50000000E-01	 5.00000000E-01	 4.00000000E+00
					 2.50000000E-01	 1.00000000E+00	 4.00000000E+00
					-7.45058000E-09	 5.00000000E-01	 3.50000000E+00
					-7.45058000E-09	 7.50000000E-01	 4.00000000E+00
					-7.45058000E-09	 1.00000000E+00	 3.50000000E+00
					-7.45058000E-09	-1.49012000E-08	 4.00000000E+00
					 2.50000000E-01	-1.49012000E-08	 4.00000000E+00
					-7.45058000E-09	-1.49012000E-08	 3.50000000E+00
					-7.45058000E-09	 2.50000000E-01	 4.00000000E+00
					 1.00000000E+00	 5.00000000E-01	 5.00000000E+00
					 1.00000000E+00	 1.00000000E+00	 5.00000000E+00
					 5.00000000E-01	 5.00000000E-01	 5.00000000E+00
					 5.00000000E-01	 1.00000000E+00	 5.00000000E+00
					 1.00000000E+00	 5.00000000E-01	 4.50000000E+00
					 1.00000000E+00	 7.50000000E-01	 5.00000000E+00
					 1.00000000E+00	 1.00000000E+00	 4.50000000E+00
					 7.50000000E-01	 5.00000000E-01	 5.00000000E+00
					 7.50000000E-01	 1.00000000E+00	 5.00000000E+00
					 5.00000000E-01	 5.00000000E-01	 4.50000000E+00
					 5.00000000E-01	 7.50000000E-01	 5.00000000E+00
					 5.00000000E-01	 1.00000000E+00	 4.50000000E+00
					 1.00000000E+00	-1.49012000E-08	 5.00000000E+00
					 5.00000000E-01	-1.49012000E-08	 5.00000000E+00
					 1.00000000E+00	-1.49012000E-08	 4.50000000E+00
					 1.00000000E+00	 2.50000000E-01	 5.00000000E+00
					 7.50000000E-01	-1.49012000E-08	 5.00000000E+00
					 5.00000000E-01	-1.49012000E-08	 4.50000000E+00
					 5.00000000E-01	 2.50000000E-01	 5.00000000E+00
					-7.45058000E-09	 5.00000000E-01	 5.00000000E+00
					-7.45058000E-09	 1.00000000E+00	 5.00000000E+00
					 2.50000000E-01	 5.00000000E-01	 5.00000000E+00
					 2.50000000E-01	 1.00000000E+00	 5.00000000E+00
					-7.45058000E-09	 5.00000000E-01	 4.50000000E+00
					-7.45058000E-09	 7.50000000E-01	 5.00000000E+00
					-7.45058000E-09	 1.00000000E+00	 4.50000000E+00
					-7.45058000E-09	-1.49012000E-08	 5.00000000E+00
					 2.50000000E-01	-1.49012000E-08	 5.00000000E+00
					-7.45058000E-09	-1.49012000E-08	 4.50000000E+00
					-7.45058000E-09	 2.50000000E-01	 5.00000000E+00
					 1.00000000E+00	 5.00000000E-01	 6.00000000E+00
					 1.00000000E+00	 1.00000000E+00	 6.00000000E+00
					 5.00000000E-01	 5.00000000E-01	 6.00000000E+00
					 5.00000000E-01	 1.00000000E+00	 6.00000000E+00
					 1.00000000E+00	 5.00000000E-01	 5.50000000E+00
					 1.00000000E+00	 7.50000000E-01	 6.00000000E+00
					 1.00000000E+00	 1.00000000E+00	 5.50000000E+00
					 7.50000000E-01	 5.00000000E-01	 6.00000000E+00
					 7.50000000E-01	 1.00000000E+00	 6.00000000E+00
					 5.00000000E-01	 5.00000000E-01	 5.50000000E+00
					 5.00000000E-01	 7.50000000E-01	 6.00000000E+00
					 5.00000000E-01	 1.00000000E+00	 5.50000000E+00
					 1.00000000E+00	-1.49012000E-08	 6.00000000E+00
[...]
			<PointData>
				<DataArray type="Float32" Name="U" NumberOfComponents="3" ComponentName0="D1" ComponentName1="D2" ComponentName2="D3" format="ascii">
					 0.00000000E+00	 0.00000000E+00	 0.00000000E+00
					 0.00000000E+00	 0.00000000E+00	 0.00000000E+00
					-5.69028000E-06	 3.36380000E-03	 1.66368000E-05
					 9.27593000E-04	 3.55478000E-03	-3.65054000E-03
					 0.00000000E+00	 0.00000000E+00	 0.00000000E+00
					 0.00000000E+00	 0.00000000E+00	 0.00000000E+00
					-2.47322000E-06	 4.04804000E-03	 1.07232000E-05
					 4.47720000E-04	 4.25812000E-03	-3.70003000E-03
					 0.00000000E+00	 0.00000000E+00	 0.00000000E+00
					-3.42689000E-06	 5.58706000E-04	 1.09054000E-05
					 4.61563000E-04	 3.37369000E-03	-1.80882000E-03
					 7.80614000E-04	 8.63391000E-04	-1.83469000E-03
					 0.00000000E+00	 0.00000000E+00	 0.00000000E+00
					 0.00000000E+00	 0.00000000E+00	 0.00000000E+00
					-3.94930000E-06	 3.78720000E-03	 1.30087000E-05
					 6.84753000E-04	 3.98746000E-03	-3.64031000E-03
					 0.00000000E+00	 0.00000000E+00	 0.00000000E+00
					-7.94958000E-07	 1.04279000E-03	 7.13331000E-06
					 2.22354000E-04	 4.06405000E-03	-1.79840000E-03
					 2.37443000E-04	 1.34519000E-03	-1.78572000E-03
					 0.00000000E+00	 0.00000000E+00	 0.00000000E+00
					-9.40646000E-04	 3.59365000E-03	 3.67822000E-03
					 0.00000000E+00	 0.00000000E+00	 0.00000000E+00
					-4.52095000E-04	 4.29742000E-03	 3.71560000E-03
					 0.00000000E+00	 0.00000000E+00	 0.00000000E+00
					-7.88281000E-04	 8.83114000E-04	 1.85612000E-03
					-4.73503000E-04	 3.39365000E-03	 1.84014000E-03
					 0.00000000E+00	 0.00000000E+00	 0.00000000E+00
					-6.92853000E-04	 4.02666000E-03	 3.66076000E-03
					 0.00000000E+00	 0.00000000E+00	 0.00000000E+00
					-2.38261000E-04	 1.36320000E-03	 1.80050000E-03
					-2.27147000E-04	 4.08383000E-03	 1.81780000E-03
					 0.00000000E+00	 0.00000000E+00	 0.00000000E+00
					 0.00000000E+00	 0.00000000E+00	 0.00000000E+00
					 4.04797000E-07	 4.26357000E-03	 8.24401000E-06
					-3.23171000E-05	 4.45568000E-03	-3.65848000E-03
					 0.00000000E+00	 0.00000000E+00	 0.00000000E+00
					 0.00000000E+00	 0.00000000E+00	 0.00000000E+00
					-1.03919000E-06	 4.23666000E-03	 8.94368000E-06
					 2.10515000E-04	 4.43817000E-03	-3.71847000E-03
					 0.00000000E+00	 0.00000000E+00	 0.00000000E+00
					 1.17719000E-06	 1.03439000E-03	 6.78480000E-06
					-1.59351000E-05	 4.27432000E-03	-1.74282000E-03
					-3.21972000E-04	 1.32498000E-03	-1.83851000E-03
					 0.00000000E+00	 0.00000000E+00	 0.00000000E+00
					 3.56448000E-05	 4.49290000E-03	 3.67024000E-03
					 0.00000000E+00	 0.00000000E+00	 0.00000000E+00
					-2.11363000E-04	 4.47738000E-03	 3.73078000E-03
					 0.00000000E+00	 0.00000000E+00	 0.00000000E+00
					 3.26558000E-04	 1.34182000E-03	 1.85228000E-03
					 1.76046000E-05	 4.29239000E-03	 1.75790000E-03
					-1.91655000E-06	 1.41693000E-02	-2.07945000E-05
					 9.55074000E-04	 1.42553000E-02	-6.41250000E-03
					 1.88262000E-06	 1.49688000E-02	-2.86204000E-05
					 6.57897000E-04	 1.50661000E-02	-6.44546000E-03
					-4.91047000E-06	 7.99728000E-03	 6.15736000E-06
					 4.74357000E-04	 1.41811000E-02	-3.14949000E-03
					 1.00684000E-03	 8.16237000E-03	-5.19687000E-03
					 1.69457000E-07	 1.46004000E-02	-2.49500000E-05
					 8.07579000E-04	 1.46951000E-02	-6.44529000E-03
					-1.85121000E-06	 8.79749000E-03	-9.49309000E-07
					 3.30685000E-04	 1.49874000E-02	-3.18400000E-03
					 5.96868000E-04	 8.97180000E-03	-5.22936000E-03
					-9.58507000E-04	 1.43478000E-02	 6.36606000E-03
					-6.53226000E-04	 1.51577000E-02	 6.38280000E-03
					-1.01825000E-03	 8.22682000E-03	 5.20283000E-03
					-4.78142000E-04	 1.42256000E-02	 3.10688000E-03
					-8.06586000E-04	 1.47875000E-02	 6.39030000E-03
					-6.00089000E-04	 9.03664000E-03	 5.22070000E-03
					-3.26691000E-04	 1.50317000E-02	 3.12563000E-03
					 4.87456000E-06	 1.54803000E-02	-3.25897000E-05
					 3.72888000E-04	 1.55810000E-02	-6.42472000E-03
					 3.40103000E-06	 1.52577000E-02	-3.13850000E-05
					 5.15453000E-04	 1.53546000E-02	-6.45022000E-03
					 7.22179000E-07	 9.19416000E-03	-3.88526000E-06
					 1.87653000E-04	 1.55004000E-02	-3.16308000E-03
					 2.02401000E-04	 9.37608000E-03	-5.20709000E-03
					-3.61744000E-04	 1.56699000E-02	 6.35380000E-03
					-5.07501000E-04	 1.54454000E-02	 6.38186000E-03
					-1.98639000E-04	 9.43902000E-03	 5.19253000E-03
					-1.77523000E-04	 1.55430000E-02	 3.09674000E-03
					 6.58764000E-07	 2.93395000E-02	-1.09662000E-04
					 5.40037000E-04	 2.93030000E-02	-7.62645000E-03
					 4.07723000E-06	 2.98541000E-02	-1.18904000E-04
					 4.92889000E-04	 2.98192000E-02	-7.66026000E-03
					 1.33530000E-06	 2.14342000E-02	-6.01310000E-05
					 2.70709000E-04	 2.93160000E-02	-3.78437000E-03
					 7.92304000E-04	 2.14595000E-02	-7.20339000E-03
					 2.49989000E-06	 2.96034000E-02	-1.14689000E-04
					 5.16724000E-04	 2.95670000E-02	-7.68166000E-03
					 4.97572000E-06	 2.21348000E-02	-6.93096000E-05
					 2.48689000E-04	 2.98309000E-02	-3.84122000E-03
					 6.20515000E-04	 2.21648000E-02	-7.24011000E-03
					-5.38117000E-04	 2.94237000E-02	 7.40596000E-03
					-4.84121000E-04	 2.99395000E-02	 7.42147000E-03
					-7.88777000E-04	 2.15707000E-02	 7.07967000E-03
					-2.69257000E-04	 2.93737000E-02	 3.56479000E-03
					-5.11109000E-04	 2.96887000E-02	 7.45108000E-03
					-6.09541000E-04	 2.22749000E-02	 7.09792000E-03
					-2.40394000E-04	 2.98895000E-02	 3.60308000E-03
					 6.89105000E-06	 3.03163000E-02	-1.27267000E-04
					 4.51750000E-04	 3.02876000E-02	-7.64397000E-03
					 5.53248000E-06	 3.00924000E-02	-1.22888000E-04
					 4.72526000E-04	 3.00590000E-02	-7.64021000E-03
					 7.80485000E-06	 2.26640000E-02	-7.60133000E-05
					 2.27697000E-04	 3.02961000E-02	-3.85154000E-03
					 4.59173000E-04	 2.27026000E-02	-7.21944000E-03
					-4.37158000E-04	 3.04057000E-02	 7.38854000E-03
					-4.60745000E-04	 3.01779000E-02	 7.39365000E-03
					-4.42142000E-04	 2.28095000E-02	 7.06368000E-03
					-2.13755000E-04	 3.03541000E-02	 3.59657000E-03
					-4.91967000E-06	 4.52261000E-02	-2.16659000E-04
					-4.00970000E-05	 4.51164000E-02	-7.41868000E-03
					-2.24506000E-06	 4.52565000E-02	-2.17686000E-04
					 8.46407000E-05	 4.51420000E-02	-7.43063000E-03
					-2.44833000E-06	 3.74011000E-02	-1.64221000E-04
					-2.10618000E-05	 4.51888000E-02	-3.75956000E-03
					 2.48910000E-04	 3.73246000E-02	-7.65598000E-03
					-3.61647000E-06	 4.52257000E-02	-2.17157000E-04
					 2.22751000E-05	 4.51117000E-02	-7.46248000E-03
					 5.20643000E-07	 3.76789000E-02	-1.70304000E-04
					 4.11434000E-05	 4.52167000E-02	-3.80319000E-03
					 3.00356000E-04	 3.76001000E-02	-7.68106000E-03
					 2.94627000E-05	 4.52253000E-02	 6.98705000E-03
					-8.96947000E-05	 4.52526000E-02	 6.99741000E-03
					-2.54001000E-04	 3.74427000E-02	 7.32823000E-03
					 1.10197000E-05	 4.52416000E-02	 3.32668000E-03
					-3.02510000E-05	 4.52226000E-02	 7.02998000E-03
					-2.99359000E-04	 3.77191000E-02	 7.34136000E-03
					-4.57853000E-05	 4.52714000E-02	 3.36830000E-03
					 1.12637000E-06	 4.54003000E-02	-2.20312000E-04
					 2.08761000E-04	 4.52881000E-02	-7.42189000E-03
					-6.37852000E-07	 4.53125000E-02	-2.18532000E-04
					 1.46399000E-04	 4.51989000E-02	-7.39867000E-03
					 3.62813000E-06	 3.80007000E-02	-1.76957000E-04
					 1.04113000E-04	 4.53608000E-02	-3.82802000E-03
					 3.55045000E-04	 3.79271000E-02	-7.66858000E-03
					-2.06925000E-04	 4.53995000E-02	 6.98362000E-03
					-1.48187000E-04	 4.53092000E-02	 6.96400000E-03
					-3.47754000E-04	 3.80456000E-02	 7.31561000E-03
					-1.02003000E-04	 4.54166000E-02	 3.38787000E-03
					-3.40232000E-06	 5.91966000E-02	-3.02665000E-04
					-4.32934000E-04	 5.90794000E-02	-6.50292000E-03
					-1.53741000E-06	 5.88566000E-02	-2.89638000E-04
					-2.62542000E-04	 5.87329000E-02	-6.49090000E-03
					-5.75490000E-06	 5.25215000E-02	-2.62427000E-04
					-2.16375000E-04	 5.91603000E-02	-3.38419000E-03
					-2.69376000E-04	 5.24080000E-02	-7.00005000E-03
					-2.86235000E-06	 5.90059000E-02	-2.96543000E-04
					-3.47950000E-04	 5.88836000E-02	-6.51439000E-03
					-3.51254000E-06	 5.23402000E-02	-2.57608000E-04
					-1.31849000E-04	 5.88166000E-02	-3.38860000E-03
					-1.12019000E-04	 5.22190000E-02	-6.99962000E-03
					 4.23281000E-04	 5.91584000E-02	 5.89920000E-03
					 2.56612000E-04	 5.88170000E-02	 5.91358000E-03
					 2.56204000E-04	 5.25029000E-02	 6.47639000E-03
					 2.08717000E-04	 5.91991000E-02	 2.77899000E-03
					 3.39580000E-04	 5.89656000E-02	 5.92331000E-03
					 1.03355000E-04	 5.23167000E-02	 6.48666000E-03
					 1.28097000E-04	 5.88588000E-02	 2.80972000E-03
					 2.59752000E-06	 5.86778000E-02	-2.78412000E-04
					-9.22634000E-05	 5.85525000E-02	-6.47864000E-03
					 2.09073000E-07	 5.87459000E-02	-2.83177000E-04
					-1.78002000E-04	 5.86215000E-02	-6.46794000E-03
					 9.54445000E-08	 5.23060000E-02	-2.54638000E-04
					-4.48606000E-05	 5.86363000E-02	-3.39317000E-03
					 3.97905000E-05	 5.21826000E-02	-6.99130000E-03
					 9.52063000E-05	 5.86420000E-02	 5.92421000E-03
					 1.75836000E-04	 5.87079000E-02	 5.90372000E-03
					-4.08008000E-05	 5.22830000E-02	 6.48509000E-03
					 4.98093000E-05	 5.86819000E-02	 2.83678000E-03
					 3.58746000E-05	 7.06215000E-02	-3.67885000E-04
					-5.78580000E-04	 7.05292000E-02	-5.53167000E-03
					 3.81777000E-05	 7.00729000E-02	-3.31900000E-04
					-4.49902000E-04	 6.99792000E-02	-5.48600000E-03
					 9.05122000E-06	 6.52089000E-02	-3.39600000E-04
					-2.70832000E-04	 7.05909000E-02	-2.95480000E-03
					-5.23087000E-04	 6.51041000E-02	-5.99068000E-03
					 3.68273000E-05	 7.03301000E-02	-3.48915000E-04
					-5.14609000E-04	 7.02372000E-02	-5.52200000E-03
					 1.08706000E-05	 6.47597000E-02	-3.14113000E-04
					-2.05786000E-04	 7.00428000E-02	-2.92940000E-03
					-3.63031000E-04	 6.46499000E-02	-5.96235000E-03
					 6.49072000E-04	 7.05875000E-02	 4.79699000E-03
					 5.25772000E-04	 7.00400000E-02	 4.82287000E-03
					 5.37773000E-04	 6.51692000E-02	 5.31487000E-03
					 3.43197000E-04	 7.06211000E-02	 2.22042000E-03
					 5.87004000E-04	 7.02979000E-02	 4.82403000E-03
					 3.82693000E-04	 6.47209000E-02	 5.33583000E-03
					 2.82096000E-04	 7.00736000E-02	 2.26584000E-03
					 4.30234000E-05	 6.96470000E-02	-2.98087000E-04
					-3.16379000E-04	 6.95567000E-02	-5.46251000E-03
					 4.01848000E-05	 6.98446000E-02	-3.15478000E-04
					-3.83310000E-04	 6.97509000E-02	-5.44896000E-03
					 1.55799000E-05	 6.44639000E-02	-2.90717000E-04
					-1.38681000E-04	 6.96190000E-02	-2.92466000E-03
					-2.00059000E-04	 6.43549000E-02	-5.94408000E-03
					 4.00069000E-04	 6.96205000E-02	 4.86657000E-03
					 4.62465000E-04	 6.98125000E-02	 4.81894000E-03
					 2.28577000E-04	 6.44315000E-02	 5.36289000E-03
					 2.23326000E-04	 6.96505000E-02	 2.32876000E-03
					 1.08134000E-04	 8.04258000E-02	-4.12442000E-04
					-8.17007000E-04	 8.04001000E-02	-5.11635000E-03
					 1.10876000E-04	 7.95020000E-02	-3.60885000E-04
					-8.08339000E-04	 7.94737000E-02	-5.06833000E-03
					 7.15064000E-05	 7.56001000E-02	-3.86372000E-04
					-3.56436000E-04	 8.04164000E-02	-2.75215000E-03
					-6.60913000E-04	 7.55378000E-02	-5.23899000E-03
					 1.09277000E-04	 7.99649000E-02	-3.87347000E-04
					-8.12082000E-04	 7.99396000E-02	-5.12331000E-03
					 7.35584000E-05	 7.48979000E-02	-3.46181000E-04
					-3.46778000E-04	 7.94873000E-02	-2.73419000E-03
					-5.97569000E-04	 7.48382000E-02	-5.18138000E-03
					 1.03249000E-03	 8.04405000E-02	 4.30615000E-03
					 1.02494000E-03	 7.95229000E-02	 4.34748000E-03
					 8.00819000E-04	 7.55853000E-02	 4.46040000E-03
					 5.70356000E-04	 8.04329000E-02	 1.93062000E-03
					 1.02850000E-03	 7.99818000E-02	 4.36043000E-03
					 7.40526000E-04	 7.48905000E-02	 4.48899000E-03
					 5.67606000E-04	 7.95129000E-02	 2.01265000E-03
					 1.12124000E-04	 7.85886000E-02	-3.12365000E-04
					-8.05790000E-04	 7.85519000E-02	-5.03857000E-03
					 1.12059000E-04	 7.90433000E-02	-3.35815000E-04
					-8.06603000E-04	 7.90122000E-02	-5.00968000E-03
					 7.57811000E-05	 7.42625000E-02	-3.06399000E-04
					-3.43216000E-04	 7.85668000E-02	-2.74033000E-03
					-5.22081000E-04	 7.42055000E-02	-5.15334000E-03
					 1.02477000E-03	 7.86106000E-02	 4.40780000E-03
					 1.02435000E-03	 7.90668000E-02	 4.33343000E-03
					 6.73430000E-04	 7.42616000E-02	 4.54423000E-03
					 5.67588000E-04	 7.86026000E-02	 2.11175000E-03
					 1.67435000E-04	 9.00558000E-02	-4.31442000E-04
					-1.01080000E-03	 9.00868000E-02	-5.20503000E-03
					 1.67087000E-04	 8.89236000E-02	-3.99971000E-04
					-9.73595000E-04	 8.89252000E-02	-5.19751000E-03
					 1.43648000E-04	 8.52599000E-02	-4.27164000E-04
					-4.24898000E-04	 9.00572000E-02	-2.79423000E-03
					-9.48842000E-04	 8.52171000E-02	-5.13520000E-03
					 1.66123000E-04	 8.94812000E-02	-4.18003000E-04
					-9.89019000E-04	 8.94946000E-02	-5.19807000E-03
					 1.42900000E-04	 8.41632000E-02	-3.76368000E-04
					-4.21180000E-04	 8.89233000E-02	-2.78658000E-03
					-9.41798000E-04	 8.41374000E-02	-5.12136000E-03
					 1.39035000E-03	 9.01161000E-02	 4.30858000E-03
					 1.38423000E-03	 8.89395000E-02	 4.37432000E-03
					 1.26823000E-03	 8.53013000E-02	 4.29632000E-03
					 7.79893000E-04	 9.00895000E-02	 1.92365000E-03
					 1.38516000E-03	 8.95211000E-02	 4.34529000E-03
					 1.27053000E-03	 8.41840000E-02	 4.35475000E-03
					 7.81476000E-04	 8.89277000E-02	 1.98147000E-03
					 1.92710000E-04	 8.77881000E-02	-3.54554000E-04
					-9.78771000E-04	 8.78771000E-02	-5.22749000E-03
					 1.75297000E-04	 8.83679000E-02	-3.77154000E-04
					-9.77922000E-04	 8.84190000E-02	-5.22908000E-03
					 1.54171000E-04	 8.30513000E-02	-3.18880000E-04
					-4.03275000E-04	 8.78381000E-02	-2.76182000E-03
					-9.78439000E-04	 8.30317000E-02	-5.11374000E-03
					 1.42153000E-03	 8.77481000E-02	 4.44056000E-03
					 1.40571000E-03	 8.83543000E-02	 4.40743000E-03
					 1.29994000E-03	 8.30546000E-02	 4.42035000E-03
					 8.05094000E-04	 8.77535000E-02	 2.04095000E-03
					 0.00000000E+00	 0.00000000E+00	 0.00000000E+00
					 0.00000000E+00	 0.00000000E+00	 0.00000000E+00
					-2.23265000E-05	-1.30428000E-02	-2.23641000E-04
					-3.13096000E-03	-1.40184000E-02	 1.32751000E-02
					 0.00000000E+00	 0.00000000E+00	 0.00000000E+00
					 0.00000000E+00	 0.00000000E+00	 0.00000000E+00
					-4.39695000E-05	-1.52454000E-02	-3.42225000E-04
					-1.38468000E-03	-1.62740000E-02	 1.33139000E-02
					 0.00000000E+00	 0.00000000E+00	 0.00000000E+00
					 2.92919000E-05	-2.48540000E-03	-7.28475000E-05
					-1.58039000E-03	-1.32217000E-02	 6.48447000E-03
					-2.66344000E-03	-3.70801000E-03	 6.78009000E-03
					 0.00000000E+00	 0.00000000E+00	 0.00000000E+00
					 0.00000000E+00	 0.00000000E+00	 0.00000000E+00
					-2.95948000E-05	-1.44420000E-02	-2.89917000E-04
					-2.24026000E-03	-1.54421000E-02	 1.31728000E-02
					 0.00000000E+00	 0.00000000E+00	 0.00000000E+00
					-6.93428000E-06	-4.05905000E-03	-1.21217000E-04
					-7.16385000E-04	-1.54367000E-02	 6.31925000E-03
					-6.67713000E-04	-5.25803000E-03	 6.54673000E-03
					 0.00000000E+00	 0.00000000E+00	 0.00000000E+00
					 3.06631000E-03	-1.36116000E-02	-1.37848000E-02
					 0.00000000E+00	 0.00000000E+00	 0.00000000E+00
					 1.31045000E-03	-1.58813000E-02	-1.40655000E-02
					 0.00000000E+00	 0.00000000E+00	 0.00000000E+00
					 2.71275000E-03	-3.58277000E-03	-6.95327000E-03
					 1.52660000E-03	-1.30144000E-02	-6.95195000E-03
					 0.00000000E+00	 0.00000000E+00	 0.00000000E+00
					 2.18213000E-03	-1.50391000E-02	-1.38150000E-02
					 0.00000000E+00	 0.00000000E+00	 0.00000000E+00
					 6.66473000E-04	-5.16282000E-03	-6.80835000E-03
					 6.29913000E-04	-1.52394000E-02	-7.02516000E-03
					 0.00000000E+00	 0.00000000E+00	 0.00000000E+00
					 0.00000000E+00	 0.00000000E+00	 0.00000000E+00
					-8.01635000E-05	-1.57327000E-02	-4.02705000E-04
					 3.57897000E-04	-1.66726000E-02	 1.31027000E-02
					 0.00000000E+00	 0.00000000E+00	 0.00000000E+00
					 0.00000000E+00	 0.00000000E+00	 0.00000000E+00
					-6.03762000E-05	-1.57848000E-02	-3.81109000E-04
					-5.24900000E-04	-1.67718000E-02	 1.33253000E-02
					 0.00000000E+00	 0.00000000E+00	 0.00000000E+00
					-5.79355000E-05	-3.81739000E-03	-1.46405000E-04
					 1.35860000E-04	-1.58875000E-02	 6.06617000E-03
					 1.36145000E-03	-4.96533000E-03	 6.70812000E-03
					 0.00000000E+00	 0.00000000E+00	 0.00000000E+00
					-4.74974000E-04	-1.63158000E-02	-1.39616000E-02
					 0.00000000E+00	 0.00000000E+00	 0.00000000E+00
					 4.27255000E-04	-1.63906000E-02	-1.41516000E-02
					 0.00000000E+00	 0.00000000E+00	 0.00000000E+00
					-1.44691000E-03	-4.88986000E-03	-7.02665000E-03
					-2.81270000E-04	-1.57166000E-02	-6.88457000E-03
					-1.73832000E-04	-5.19969000E-02	-1.06163000E-03
					-3.98025000E-03	-5.31476000E-02	 2.26557000E-02
					-1.76468000E-04	-5.51851000E-02	-1.29378000E-03
					-2.77854000E-03	-5.63394000E-02	 2.24932000E-02
					-8.53990000E-05	-2.98507000E-02	-5.41611000E-04
					-2.07667000E-03	-5.24385000E-02	 1.07004000E-02
					-3.62748000E-03	-3.10100000E-02	 1.85890000E-02
					-1.73806000E-04	-5.37212000E-02	-1.18838000E-03
					-3.37874000E-03	-5.48737000E-02	 2.25315000E-02
					-1.04384000E-04	-3.26145000E-02	-7.20697000E-04
					-1.47426000E-03	-5.56289000E-02	 1.04674000E-02
					-2.10546000E-03	-3.37713000E-02	 1.84873000E-02
					 3.63735000E-03	-5.19771000E-02	-2.48485000E-02
					 2.43254000E-03	-5.51946000E-02	-2.51507000E-02
					 3.44350000E-03	-3.02447000E-02	-1.97544000E-02
					 1.72816000E-03	-5.18623000E-02	-1.28398000E-02
					 3.03959000E-03	-5.37232000E-02	-2.49750000E-02
					 1.90922000E-03	-3.30227000E-02	-2.00111000E-02
					 1.12747000E-03	-5.50694000E-02	-1.30682000E-02
					-1.96787000E-04	-5.71950000E-02	-1.46034000E-03
					-1.57955000E-03	-5.83096000E-02	 2.22580000E-02
					-1.85393000E-04	-5.63193000E-02	-1.38344000E-03
					-2.17639000E-03	-5.74911000E-02	 2.24856000E-02
					-1.38199000E-04	-3.38591000E-02	-8.33134000E-04
					-8.96166000E-04	-5.76089000E-02	 1.01545000E-02
					-6.07660000E-04	-3.49972000E-02	 1.83007000E-02
					 1.23079000E-03	-5.72139000E-02	-2.52469000E-02
					 1.83173000E-03	-5.63302000E-02	-2.53243000E-02
					 3.79443000E-04	-3.42971000E-02	-2.00450000E-02
					 5.15886000E-04	-5.70850000E-02	-1.30867000E-02
					-3.20457000E-04	-1.07262000E-01	-2.64686000E-03
					-4.47713000E-03	-1.08360000E-01	 2.67821000E-02
					-3.10720000E-04	-1.11109000E-01	-2.92670000E-03
					-3.91167000E-03	-1.12315000E-01	 2.65671000E-02
					-2.51617000E-04	-7.81807000E-02	-1.77197000E-03
					-2.39514000E-03	-1.07734000E-01	 1.19656000E-02
					-4.25464000E-03	-7.93519000E-02	 2.53182000E-02
					-3.13767000E-04	-1.09258000E-01	-2.78824000E-03
					-4.19640000E-03	-1.10422000E-01	 2.66355000E-02
					-2.49637000E-04	-8.17357000E-02	-2.03860000E-03
					-2.13602000E-03	-1.11638000E-01	 1.16692000E-02
					-3.38113000E-03	-8.29138000E-02	 2.51304000E-02
					 3.80074000E-03	-1.06648000E-01	-3.20945000E-02
					 3.29348000E-03	-1.10509000E-01	-3.24745000E-02
					 3.74699000E-03	-7.78605000E-02	-2.89193000E-02
					 1.74233000E-03	-1.06893000E-01	-1.72574000E-02
					 3.54628000E-03	-1.08644000E-01	-3.22595000E-02
					 2.89192000E-03	-8.14161000E-02	-2.92634000E-02
					 1.49263000E-03	-1.10753000E-01	-1.75512000E-02
					-3.12336000E-04	-1.14434000E-01	-3.17455000E-03
					-3.45810000E-03	-1.15753000E-01	 2.62480000E-02
					-3.10373000E-04	-1.12854000E-01	-3.05644000E-03
					-3.68716000E-03	-1.13992000E-01	 2.65177000E-02
					-2.50853000E-04	-8.44312000E-02	-2.25310000E-03
					-1.85363000E-03	-1.15019000E-01	 1.12744000E-02
					-2.55465000E-03	-8.56290000E-02	 2.48420000E-02
					 2.79610000E-03	-1.13874000E-01	-3.26790000E-02
					 3.04574000E-03	-1.12247000E-01	-3.26875000E-02
					 2.02706000E-03	-8.41275000E-02	-2.94055000E-02
					 1.23145000E-03	-1.14112000E-01	-1.76754000E-02
					-3.50298000E-04	-1.69360000E-01	-4.63829000E-03
					-4.70314000E-03	-1.70203000E-01	 2.62142000E-02