<?xml version="1.0"?>
<VTKFile type="UnstructuredGrid" version="0.1" byte_order="LittleEndian">
	<UnstructuredGrid>
		<Piece NumberOfPoints="522" NumberOfCells="64">
			<Points>
				<DataArray type="Float64" NumberOfComponents="3" format="ascii">
					 1.00000000E+00	 1.00000000E+00	-5.96046000E-08
					 1.00000000E+00	 5.00000000E-01	-5.96046000E-08
					 1.00000000E+00	 5.00000000E-01	 1.00000000E+00
					 1.00000000E+00	 1.00000000E+00	 1.00000000E+00
					 5.00000000E-01	 1.00000000E+00	-5.96046000E-08
					 5.00000000E-01	 5.00000000E-01	-5.96046000E-08
					 5.00000000E-01	 5.00000000E-01	 1.00000000E+00
					 5.00000000E-01	 1.00000000E+00	 1.00000000E+00
					 1.00000000E+00	 7.50000000E-01	-5.96046000E-08
					 1.00000000E+00	 5.00000000E-01	 5.00000000E-01
					 1.00000000E+00	 7.50000000E-01	 1.00000000E+00
					 1.00000000E+00	 1.00000000E+00	 5.00000000E-01
					 7.50000000E-01	 1.00000000E+00	-5.96046000E-08
					 7.50000000E-01	 5.00000000E-01	-5.96046000E-08
					 7.50000000E-01	 5.00000000E-01	 1.00000000E+00
					 7.50000000E-01	 1.00000000E+00	 1.00000000E+00
					 5.00000000E-01	 7.50000000E-01	-5.96046000E-08
					 5.00000000E-01	 5.00000000E-01	 5.00000000E-01
					 5.00000000E-01	 7.50000000E-01	 1.00000000E+00
					 5.00000000E-01	 1.00000000E+00	 5.00000000E-01
					 1.00000000E+00	-1.49012000E-08	-5.96046000E-08
					 1.00000000E+00	-1.49012000E-08	 1.00000000E+00
					 5.00000000E-01	-1.49012000E-08	-5.96046000E-08
					 5.00000000E-01	-1.49012000E-08	 1.00000000E+00
					 1.00000000E+00	 2.50000000E-01	-5.96046000E-08
					 1.00000000E+00	-1.49012000E-08	 5.00000000E-01
					 1.00000000E+00	 2.50000000E-01	 1.00000000E+00
					 7.50000000E-01	-1.49012000E-08	-5.96046000E-08
					 7.50000000E-01	-1.49012000E-08	 1.00000000E+00
					 5.00000000E-01	 2.50000000E-01	-5.96046000E-08
					 5.00000000E-01	-1.49012000E-08	 5.00000000E-01
					 5.00000000E-01	 2.50000000E-01	 1.00000000E+00
					-7.45058000E-09	 1.00000000E+00	-5.96046000E-08
					-7.45058000E-09	 5.00000000E-01	-5.96046000E-08
					-7.45058000E-09	 5.00000000E-01	 1.00000000E+00
					-7.45058000E-09	 1.00000000E+00	 1.00000000E+00
					 2.50000000E-01	 1.00000000E+00	-5.96046000E-08
					 2.50000000E-01	 5.00000000E-01	-5.96046000E-08
					 2.50000000E-01	 5.00000000E-01	 1.00000000E+00
					 2.50000000E-01	 1.00000000E+00	 1.00000000E+00
					-7.45058000E-09	 7.50000000E-01	-5.96046000E-08
					-7.45058000E-09	 5.00000000E-01	 5.00000000E-01
					-7.45058000E-09	 7.50000000E-01	 1.00000000E+00
					-7.45058000E-09	 1.00000000E+00	 5.00000000E-01
					-7.45058000E-09	-1.49012000E-08	-5.96046000E-08
					-7.45058000E-09	-1.49012000E-08	 1.00000000E+00
					 2.50000000E-01	-1.49012000E-08	-5.96046000E-08
					 2.50000000E-01	-1.49012000E-08	 1.00000000E+00
					-7.45058000E-09	 2.50000000E-01	-5.96046000E-08
					-7.45058000E-09	-1.49012000E-08	 5.00000000E-01
					-7.45058000E-09	 2.50000000E-01	 1.00000000E+00
					 1.00000000E+00	 5.00000000E-01	 2.00000000E+00
					 1.00000000E+00	 1.00000000E+00	 2.00000000E+00
					 5.00000000E-01	 5.00000000E-01	 2.00000000E+00
					 5.00000000E-01	 1.00000000E+00	 2.00000000E+00
					 1.00000000E+00	 5.00000000E-01	 1.50000000E+00
					 1.00000000E+00	 7.50000000E-01	 2.00000000E+00
					 1.00000000E+00	 1.00000000E+00	 1.50000000E+00
					 7.50000000E-01	 5.00000000E-01	 2.00000000E+00
					 7.50000000E-01	 1.00000000E+00	 2.00000000E+00
					 5.00000000E-01	 5.00000000E-01	 1.50000000E+00
					 5.00000000E-01	 7.50000000E-01	 2.00000000E+00
					 5.00000000E-01	 1.00000000E+00	 1.50000000E+00
					 1.00000000E+00	-1.49012000E-08	 2.00000000E+00
					 5.00000000E-01	-1.49012000E-08	 2.00000000E+00
					 1.00000000E+00	-1.49012000E-08	 1.50000000E+00
					 1.00000000E+00	 2.50000000E-01	 2.00000000E+00
					 7.50000000E-01	-1.49012000E-08	 2.00000000E+00
					 5.00000000E-01	-1.49012000E-08	 1.50000000E+00
					 5.00000000E-01	 2.50000000E-01	 2.00000000E+00
					-7.45058000E-09	 5.00000000E-01	 2.00000000E+00
					-7.45058000E-09	 1.00000000E+00	 2.00000000E+00
					 2.50000000E-01	 5.00000000E-01	 2.00000000E+00
					 2.50000000E-01	 1.00000000E+00	 2.00000000E+00
					-7.45058000E-09	 5.00000000E-01	 1.50000000E+00
					-7.45058000E-09	 7.50000000E-01	 2.00000000E+00
					-7.45058000E-09	 1.00000000E+00	 1.50000000E+00
					-7.45058000E-09	-1.49012000E-08	 2.00000000E+00
					 2.50000000E-01	-1.49012000E-08	 2.00000000E+00
					-7.45058000E-09	-1.49012000E-08	 1.50000000E+00
					-7.45058000E-09	 2.50000000E-01	 2.00000000E+00
					 1.00000000E+00	 5.00000000E-01	 3.00000000E+00
					 1.00000000E+00	 1.00000000E+00	 3.00000000E+00
					 5.00000000E-01	 5.00000000E-01	 3.00000000E+00
					 5.00000000E-01	 1.00000000E+00	 3.00000000E+00
					 1.00000000E+00	 5.00000000E-01	 2.50000000E+00
					 1.00000000E+00	 7.50000000E-01	 3.00000000E+00
					 1.00000000E+00	 1.00000000E+00	 2.50000000E+00
					 7.50000000E-01	 5.00000000E-01	 3.00000000E+00
					 7.50000000E-01	 1.00000000E+00	 3.00000000E+00
					 5.00000000E-01	 5.00000000E-01	 2.50000000E+00
					 5.00000000E-01	 7.50000000E-01	 3.00000000E+00
					 5.00000000E-01	 1.00000000E+00	 2.50000000E+00
					 1.00000000E+00	-1.49012000E-08	 3.00000000E+00
					 5.00000000E-01	-1.49012000E-08	 3.00000000E+00
					 1.00000000E+00	-1.49012000E-08	 2.50000000E+00
					 1.00000000E+00	 2.50000000E-01	 3.00000000E+00
					 7.50000000E-01	-1.49012000E-08	 3.00000000E+00
					 5.00000000E-01	-1.49012000E-08	 2.50000000E+00
					 5.00000000E-01	 2.50000000E-01	 3.00000000E+00
					-7.45058000E-09	 5.00000000E-01	 3.00000000E+00
					-7.45058000E-09	 1.00000000E+00	 3.00000000E+00
					 2.50000000E-01	 5.00000000E-01	 3.00000000E+00
					 2.50000000E-01	 1.00000000E+00	 3.00000000E+00
					-7.45058000E-09	 5.00000000E-01	 2.50000000E+00
					-7.45058000E-09	 7.50000000E-01	 3.00000000E+00
					-7.45058000E-09	 1.00000000E+00	 2.50000000E+00
					-7.45058000E-09	-1.49012000E-08	 3.00000000E+00
					 2.50000000E-01	-1.49012000E-08	 3.00000000E+00
					-7.45058000E-09	-1.49012000E-08	 2.50000000E+00
					-7.45058000E-09	 2.50000000E-01	 3.00000000E+00
					 1.00000000E+00	 5.00000000E-01	 4.00000000E+00
					 1.00000000E+00	 1.00000000E+00	 4.00000000E+00
					 5.00000000E-01	 5.00000000E-01	 4.00000000E+00
					 5.00000000E-01	 1.00000000E+00	 4.00000000E+00
					 1.00000000E+00	 5.00000000E-01	 3.50000000E+00
					 1.00000000E+00	 7.50000000E-01	 4.00000000E+00
					 1.00000000E+00	 1.00000000E+00	 3.50000000E+00
					 7.50000000E-01	 5.00000000E-01	 4.00000000E+00
					 7.50000000E-01	 1.00000000E+00	 4.00000000E+00
					 5.00000000E-01	 5.00000000E-01	 3.50000000E+00
					 5.00000000E-01	 7.50000000E-01	 4.00000000E+00
					 5.00000000E-01	 1.00000000E+00	 3.50000000E+00
					 1.00000000E+00	-1.49012000E-08	 4.00000000E+00
					 5.00000000E-01	-1.49012000E-08	 4.00000000E+00
					 1.00000000E+00	-1.49012000E-08	 3.50000000E+00
					 1.00000000E+00	 2.50000000E-01	 4.00000000E+00
					 7.50000000E-01	-1.49012000E-08	 4.00000000E+00
					 5.00000000E-01	-1.49012000E-08	 3.50000000E+00
					 5.00000000E-01	 2.50000000E-01	 4.00000000E+00
					-7.45058000E-09	 5.00000000E-01	 4.00000000E+00
					-7.45058000E-09	 1.00000000E+00	 4.00000000E+00
					 2.50000000E-01	 5.00000000E-01	 4.00000000E+00
					 2.50000000E-01	 1.00000000E+00	 4.00000000E+00
					-7.45058000E-09	 5.00000000E-01	 3.50000000E+00
					-7.45058000E-09	 7.50000000E-01	 4.00000000E+00
					-7.45058000E-09	 1.00000000E+00	 3.50000000E+00
					-7.45058000E-09	-1.49012000E-08	 4.00000000E+00
					 2.50000000E-01	-1.49012000E-08	 4.00000000E+00
					-7.45058000E-09	-1.49012000E-08	 3.50000000E+00
					-7.45058000E-09	 2.50000000E-01	 4.00000000E+00
					 1.00000000E+00	 5.00000000E-01	 5.00000000E+00
					 1.00000000E+00	 1.00000000E+00	 5.00000000E+00
					 5.00000000E-01	 5.00000000E-01	 5.00000000E+00
					 5.00000000E-01	 1.00000000E+00	 5.00000000E+00
					 1.00000000E+00	 5.00000000E-01	 4.50000000E+00
					 1.00000000E+00	 7.50000000E-01	 5.00000000E+00
					 1.00000000E+00	 1.00000000E+00	 4.50000000E+00
					 7.50000000E-01	 5.00000000E-01	 5.00000000E+00
					 7.50000000E-01	 1.00000000E+00	 5.00000000E+00
					 5.00000000E-01	 5.00000000E-01	 4.50000000E+00
					 5.00000000E-01	 7.50000000E-01	 5.00000000E+00
					 5.00000000E-01	 1.00000000E+00	 4.50000000E+00
					 1.00000000E+00	-1.49012000E-08	 5.00000000E+00
					 5.00000000E-01	-1.49012000E-08	 5.00000000E+00
					 1.00000000E+00	-1.49012000E-08	 4.50000000E+00
					 1.00000000E+00	 2.50000000E-01	 5.00000000E+00
					 7.50000000E-01	-1.49012000E-08	 5.00000000E+00
					 5.00000000E-01	-1.49012000E-08	 4.50000000E+00
					 5.00000000E-01	 2.50000000E-01	 5.00000000E+00
					-7.45058000E-09	 5.00000000E-01	 5.00000000E+00
					-7.45058000E-09	 1.00000000E+00	 5.00000000E+00
					 2.50000000E-01	 5.00000000E-01	 5.00000000E+00
					 2.50000000E-01	 1.00000000E+00	 5.00000000E+00
					-7.45058000E-09	 5.00000000E-01	 4.50000000E+00
					-7.45058000E-09	 7.50000000E-01	 5.00000000E+00
					-7.45058000E-09	 1.00000000E+00	 4.50000000E+00
					-7.45058000E-09	-1.49012000E-08	 5.00000000E+00
					 2.50000000E-01	-1.49012000E-08	 5.00000000E+00
					-7.45058000E-09	-1.49012000E-08	 4.50000000E+00
					-7.45058000E-09	 2.50000000E-01	 5.00000000E+00
					 1.00000000E+00	 5.00000000E-01	 6.00000000E+00
					 1.00000000E+00	 1.00000000E+00	 6.00000000E+00
					 5.00000000E-01	 5.00000000E-01	 6.00000000E+00
					 5.00000000E-01	 1.00000000E+00	 6.00000000E+00
					 1.00000000E+00	 5.00000000E-01	 5.50000000E+00
					 1.00000000E+00	 7.50000000E-01	 6.00000000E+00
					 1.00000000E+00	 1.00000000E+00	 5.50000000E+00
					 7.50000000E-01	 5.00000000E-01	 6.00000000E+00
					 7.50000000E-01	 1.00000000E+00	 6.00000000E+00
					 5.00000000E-01	 5.00000000E-01	 5.50000000E+00
					 5.00000000E-01	 7.50000000E-01	 6.00000000E+00
					 5.00000000E-01	 1.00000000E+00	 5.50000000E+00
					 1.00000000E+00	-1.49012000E-08	 6.00000000E+00
[...]
			<PointData>
				<DataArray type="Float32" Name="U" NumberOfComponents="3" ComponentName0="D1" ComponentName1="D2" ComponentName2="D3" format="ascii">
					 0.00000000E+00	 0.00000000E+00	 0.00000000E+00
					 0.00000000E+00	 0.00000000E+00	 0.00000000E+00
					 1.87793000E-05	-3.56372000E-03	-6.83209000E-05
					-9.54764000E-04	-3.75903000E-03	 3.97149000E-03
					 0.00000000E+00	 0.00000000E+00	 0.00000000E+00
					 0.00000000E+00	 0.00000000E+00	 0.00000000E+00
					 2.09128000E-05	-4.22715000E-03	-1.11164000E-05
					-3.11237000E-04	-4.50181000E-03	 4.02991000E-03
					 0.00000000E+00	 0.00000000E+00	 0.00000000E+00
					 2.20844000E-05	-5.32670000E-04	-1.31227000E-05
					-4.16360000E-04	-3.56515000E-03	 1.92075000E-03
					-8.45419000E-04	-8.49262000E-04	 1.96050000E-03
					 0.00000000E+00	 0.00000000E+00	 0.00000000E+00
					 0.00000000E+00	 0.00000000E+00	 0.00000000E+00
					 3.12705000E-05	-4.01546000E-03	-5.91680000E-05
					-6.39044000E-04	-4.28080000E-03	 3.98292000E-03
					 0.00000000E+00	 0.00000000E+00	 0.00000000E+00
					 8.16084000E-06	-1.02476000E-03	-7.31812000E-06
					-1.45041000E-04	-4.27990000E-03	 1.95176000E-03
					-2.01503000E-04	-1.38133000E-03	 1.91732000E-03
					 0.00000000E+00	 0.00000000E+00	 0.00000000E+00
					 9.26475000E-04	-3.83939000E-03	-4.14153000E-03
					 0.00000000E+00	 0.00000000E+00	 0.00000000E+00
					 3.65724000E-04	-4.50028000E-03	-4.14870000E-03
					 0.00000000E+00	 0.00000000E+00	 0.00000000E+00
					 8.38513000E-04	-8.72084000E-04	-1.99128000E-03
					 4.56455000E-04	-3.62968000E-03	-2.07957000E-03
					 0.00000000E+00	 0.00000000E+00	 0.00000000E+00
					 6.33986000E-04	-4.28243000E-03	-4.15747000E-03
					 0.00000000E+00	 0.00000000E+00	 0.00000000E+00
					 2.11722000E-04	-1.35134000E-03	-1.96249000E-03
					 1.69860000E-04	-4.26017000E-03	-2.02633000E-03
					 0.00000000E+00	 0.00000000E+00	 0.00000000E+00
					 0.00000000E+00	 0.00000000E+00	 0.00000000E+00
					 6.70857000E-06	-4.19535000E-03	-6.00772000E-05
					 2.41484000E-04	-4.48803000E-03	 4.01794000E-03
					 0.00000000E+00	 0.00000000E+00	 0.00000000E+00
					 0.00000000E+00	 0.00000000E+00	 0.00000000E+00
					-2.01484000E-06	-4.32889000E-03	-4.11630000E-05
					-2.05618000E-05	-4.60709000E-03	 4.03420000E-03
					 0.00000000E+00	 0.00000000E+00	 0.00000000E+00
					 8.57860000E-06	-9.65481000E-04	 2.62508000E-05
					 1.04225000E-04	-4.22939000E-03	 1.89227000E-03
					 4.25384000E-04	-1.28796000E-03	 1.97688000E-03
					 0.00000000E+00	 0.00000000E+00	 0.00000000E+00
					-2.47412000E-04	-4.59384000E-03	-4.09851000E-03
					 0.00000000E+00	 0.00000000E+00	 0.00000000E+00
					 7.06786000E-05	-4.65007000E-03	-4.18078000E-03
					 0.00000000E+00	 0.00000000E+00	 0.00000000E+00
					-4.22596000E-04	-1.31029000E-03	-2.01359000E-03
					-1.25499000E-04	-4.32568000E-03	-1.99992000E-03
					-1.24017000E-06	-1.57925000E-02	-2.97515000E-04
					-7.08902000E-04	-1.61407000E-02	 6.73088000E-03
					 1.13750000E-05	-1.65879000E-02	-3.08646000E-04
					-5.97363000E-04	-1.67712000E-02	 6.76704000E-03
					 7.16375000E-06	-8.95970000E-03	-1.94553000E-04
					-4.07870000E-04	-1.59254000E-02	 3.21583000E-03
					-8.62052000E-04	-9.23018000E-03	 5.58907000E-03
					 1.08589000E-05	-1.61901000E-02	-2.88116000E-04
					-6.66217000E-04	-1.64024000E-02	 6.72655000E-03
					 2.03825000E-06	-9.65372000E-03	-1.72462000E-04
					-3.03106000E-04	-1.66441000E-02	 3.19843000E-03
					-4.37117000E-04	-9.88538000E-03	 5.66449000E-03
					 9.21653000E-04	-1.58548000E-02	-7.24236000E-03
					 6.63275000E-04	-1.66322000E-02	-7.30859000E-03
					 9.39995000E-04	-9.19505000E-03	-5.91307000E-03
					 4.85231000E-04	-1.57784000E-02	-3.72029000E-03
					 8.00312000E-04	-1.62419000E-02	-7.24505000E-03
					 4.66283000E-04	-9.85067000E-03	-5.95996000E-03
					 3.66927000E-04	-1.65910000E-02	-3.71931000E-03
					 2.98029000E-05	-1.70855000E-02	-2.16228000E-04
					-4.24032000E-04	-1.73521000E-02	 6.79908000E-03
					 2.52314000E-05	-1.68323000E-02	-2.40222000E-04
					-5.09360000E-04	-1.70180000E-02	 6.83416000E-03
					 2.16753000E-05	-9.87685000E-03	-1.60492000E-04
					-1.64258000E-04	-1.71932000E-02	 3.17771000E-03
					-2.69971000E-05	-1.01340000E-02	 5.69427000E-03
					 4.24978000E-04	-1.70878000E-02	-7.18700000E-03
					 5.36064000E-04	-1.68845000E-02	-7.25073000E-03
					 2.39855000E-05	-1.00703000E-02	-5.90729000E-03
					 2.03956000E-04	-1.70380000E-02	-3.59945000E-03
					 7.18112000E-05	-3.09398000E-02	-2.27356000E-04
					-1.34090000E-03	-3.10083000E-02	 8.05876000E-03
					 1.90597000E-05	-3.20884000E-02	-1.91767000E-04
					-1.04645000E-03	-3.22813000E-02	 8.11091000E-03
					-1.35308000E-05	-2.31065000E-02	-2.27104000E-04
					-6.24641000E-04	-3.09497000E-02	 3.97836000E-03
					-1.01876000E-03	-2.33350000E-02	 7.45242000E-03
					 5.51743000E-05	-3.15125000E-02	-2.26223000E-04
					-1.19161000E-03	-3.16889000E-02	 8.05568000E-03
					 2.65707000E-05	-2.40494000E-02	-2.37209000E-04
					-5.29580000E-04	-3.21643000E-02	 3.95450000E-03
					-8.41189000E-04	-2.42531000E-02	 7.45458000E-03
					 1.23691000E-03	-3.09442000E-02	-8.58512000E-03
					 1.14080000E-03	-3.21444000E-02	-8.56435000E-03
					 1.06503000E-03	-2.31925000E-02	-7.91694000E-03
					 6.71307000E-04	-3.09163000E-02	-4.49130000E-03
					 1.16718000E-03	-3.15526000E-02	-8.54297000E-03
					 9.22762000E-04	-2.40371000E-02	-7.98691000E-03
					 5.71537000E-04	-3.20710000E-02	-4.43410000E-03
					 3.25284000E-05	-3.31058000E-02	-2.14069000E-04
					-7.66842000E-04	-3.31741000E-02	 8.05371000E-03
					 1.95670000E-05	-3.26288000E-02	-2.09465000E-04
					-9.02320000E-04	-3.27748000E-02	 8.09451000E-03
					 5.71165000E-05	-2.48542000E-02	-2.23209000E-04
					-3.77825000E-04	-3.31000000E-02	 3.92934000E-03
					-6.79443000E-04	-2.50563000E-02	 7.47454000E-03
					 1.07513000E-03	-3.31989000E-02	-8.58822000E-03
					 1.11262000E-03	-3.26832000E-02	-8.62843000E-03
					 8.22247000E-04	-2.49328000E-02	-7.97906000E-03
					 5.06556000E-04	-3.31230000E-02	-4.39579000E-03
					 7.15074000E-05	-4.84988000E-02	-4.37001000E-04
					-1.82064000E-03	-4.87209000E-02	 9.70681000E-03
					 4.63390000E-05	-5.01700000E-02	-5.22204000E-04
					-1.48916000E-03	-5.04482000E-02	 9.70646000E-03
					 8.81774000E-05	-3.91529000E-02	-3.36743000E-04
					-8.21527000E-04	-4.85811000E-02	 4.61905000E-03
					-1.62553000E-03	-3.93090000E-02	 8.83207000E-03
					 5.29032000E-05	-4.94169000E-02	-4.70652000E-04
					-1.64708000E-03	-4.96753000E-02	 9.70806000E-03
					 6.85107000E-05	-4.06830000E-02	-3.38808000E-04
					-7.01727000E-04	-5.02652000E-02	 4.60424000E-03
					-1.28315000E-03	-4.08775000E-02	 8.83057000E-03
					 2.01354000E-03	-4.85106000E-02	-1.07323000E-02
					 1.60681000E-03	-5.02727000E-02	-1.06845000E-02
					 1.73642000E-03	-3.92025000E-02	-9.55964000E-03
					 9.91707000E-04	-4.84826000E-02	-5.57960000E-03
					 1.81933000E-03	-4.94666000E-02	-1.07156000E-02
					 1.37145000E-03	-4.07294000E-02	-9.48560000E-03
					 8.26773000E-04	-5.01897000E-02	-5.60928000E-03
					 4.71035000E-05	-5.16306000E-02	-5.01763000E-04
					-1.11298000E-03	-5.17569000E-02	 9.71032000E-03
					 4.67812000E-05	-5.09315000E-02	-5.05710000E-04
					-1.30068000E-03	-5.11825000E-02	 9.73005000E-03
					 3.81527000E-05	-4.18428000E-02	-3.53320000E-04
					-5.63125000E-04	-5.16583000E-02	 4.59307000E-03
					-9.90219000E-04	-4.20416000E-02	 8.81720000E-03
					 1.20463000E-03	-5.16205000E-02	-1.07280000E-02
					 1.41492000E-03	-5.10020000E-02	-1.07045000E-02
					 1.08471000E-03	-4.19221000E-02	-9.54046000E-03
					 6.52705000E-04	-5.15984000E-02	-5.60579000E-03
					 1.07452000E-04	-7.15923000E-02	-7.68520000E-04
					-1.33653000E-03	-7.18816000E-02	 1.14352000E-02
					 9.21691000E-05	-7.30064000E-02	-8.08467000E-04
					-1.22790000E-03	-7.33065000E-02	 1.13802000E-02
					 9.93183000E-05	-5.95024000E-02	-6.12261000E-04
					-6.62947000E-04	-7.17119000E-02	 5.30256000E-03
					-1.64833000E-03	-5.97994000E-02	 1.06875000E-02
					 8.33015000E-05	-7.23232000E-02	-7.98359000E-04
					-1.26983000E-03	-7.25903000E-02	 1.14116000E-02
					 8.99011000E-05	-6.11008000E-02	-6.59076000E-04
					-5.76486000E-04	-7.31165000E-02	 5.27121000E-03
					-1.32897000E-03	-6.13637000E-02	 1.06481000E-02
					 1.69679000E-03	-7.14204000E-02	-1.28272000E-02
					 1.48668000E-03	-7.29861000E-02	-1.29564000E-02
					 1.87697000E-03	-5.94659000E-02	-1.18811000E-02
					 8.69250000E-04	-7.14546000E-02	-6.75654000E-03
					 1.59909000E-03	-7.22715000E-02	-1.29110000E-02
					 1.52030000E-03	-6.11391000E-02	-1.18978000E-02
					 7.85845000E-04	-7.29733000E-02	-6.84460000E-03
					 1.58840000E-04	-7.41837000E-02	-8.20071000E-04
					-1.06604000E-03	-7.45401000E-02	 1.13358000E-02
					 1.33701000E-04	-7.36389000E-02	-8.23680000E-04
					-1.15401000E-03	-7.39066000E-02	 1.13383000E-02
					 7.53395000E-05	-6.23967000E-02	-6.63778000E-04
					-4.02397000E-04	-7.43266000E-02	 5.24374000E-03
					-1.08980000E-03	-6.26923000E-02	 1.05891000E-02
					 1.12985000E-03	-7.41508000E-02	-1.29524000E-02
					 1.29702000E-03	-7.35863000E-02	-1.29211000E-02
					 1.19449000E-03	-6.23979000E-02	-1.19054000E-02
					 6.50253000E-04	-7.41282000E-02	-6.88532000E-03
					 1.28997000E-04	-9.78679000E-02	-1.18747000E-03
					-9.96316000E-04	-9.79933000E-02	 1.23221000E-02
					 1.30507000E-04	-9.88280000E-02	-1.10803000E-03
					-8.60502000E-04	-9.92124000E-02	 1.23266000E-02
					 9.28120000E-05	-8.43768000E-02	-9.36090000E-04
					-4.11661000E-04	-9.79010000E-02	 5.49638000E-03
					-1.20074000E-03	-8.46463000E-02	 1.19141000E-02
					 1.39734000E-04	-9.83980000E-02	-1.13304000E-03
					-9.31309000E-04	-9.86380000E-02	 1.24035000E-02
					 1.01214000E-04	-8.55841000E-02	-9.51002000E-04
					-3.33666000E-04	-9.90032000E-02	 5.57205000E-03
					-1.02767000E-03	-8.58590000E-02	 1.18945000E-02
					 1.16239000E-03	-9.78172000E-02	-1.46853000E-02
					 1.10867000E-03	-9.87605000E-02	-1.45788000E-02
					 1.39939000E-03	-8.43452000E-02	-1.38137000E-02
					 6.90501000E-04	-9.78214000E-02	-7.86455000E-03
					 1.13464000E-03	-9.82518000E-02	-1.46626000E-02
					 1.21976000E-03	-8.55680000E-02	-1.38225000E-02
					 6.03985000E-04	-9.87692000E-02	-7.85412000E-03
					 1.21248000E-04	-9.97490000E-02	-1.13458000E-03
					-5.24347000E-04	-9.99372000E-02	 1.24025000E-02
					 1.37333000E-04	-9.93206000E-02	-1.11185000E-03
					-7.14422000E-04	-9.96337000E-02	 1.23464000E-02
					 8.31848000E-05	-8.66167000E-02	-9.41981000E-04
					-2.64651000E-04	-9.98475000E-02	 5.65498000E-03
					-7.78453000E-04	-8.69170000E-02	 1.19000000E-02
					 8.60714000E-04	-9.96847000E-02	-1.45989000E-02
					 9.88335000E-04	-9.92411000E-02	-1.45835000E-02
					 1.04180000E-03	-8.65366000E-02	-1.38260000E-02
					 5.05804000E-04	-9.97039000E-02	-7.86340000E-03
					 2.29949000E-04	-1.26297000E-01	-1.41994000E-03
					-5.74562000E-04	-1.26573000E-01	 1.27275000E-02
					 1.96526000E-04	-1.27068000E-01	-1.53624000E-03
					-5.86759000E-04	-1.27285000E-01	 1.26365000E-02
					 2.02756000E-04	-1.11917000E-01	-1.29615000E-03
					-2.54506000E-04	-1.26413000E-01	 5.64296000E-03
					-6.50888000E-04	-1.12313000E-01	 1.26001000E-02
					 1.98094000E-04	-1.26682000E-01	-1.52933000E-03
					-5.90792000E-04	-1.26840000E-01	 1.26719000E-02
					 1.90989000E-04	-1.12797000E-01	-1.29820000E-03
					-1.90807000E-04	-1.27165000E-01	 5.54216000E-03
					-6.18017000E-04	-1.13020000E-01	 1.25992000E-02
					 1.04085000E-03	-1.26073000E-01	-1.56856000E-02
					 8.89909000E-04	-1.26904000E-01	-1.57860000E-02
					 1.07893000E-03	-1.11845000E-01	-1.52390000E-02
					 6.55615000E-04	-1.26177000E-01	-8.53403000E-03
					 9.72047000E-04	-1.26466000E-01	-1.57860000E-02
					 1.00029000E-03	-1.12658000E-01	-1.52494000E-02
					 5.79664000E-04	-1.26986000E-01	-8.59854000E-03
					 1.80706000E-04	-1.27836000E-01	-1.57170000E-03
					-5.39781000E-04	-1.27999000E-01	 1.25732000E-02
					 1.85155000E-04	-1.27438000E-01	-1.56137000E-03
					-5.44910000E-04	-1.27681000E-01	 1.26011000E-02
					 1.93168000E-04	-1.13541000E-01	-1.36686000E-03
					-1.97387000E-04	-1.27891000E-01	 5.50094000E-03
					-5.02886000E-04	-1.13790000E-01	 1.25836000E-02
					 7.57868000E-04	-1.27553000E-01	-1.58174000E-02
					 8.26720000E-04	-1.27259000E-01	-1.58272000E-02
					 8.64018000E-04	-1.13352000E-01	-1.52940000E-02
					 5.08939000E-04	-1.27703000E-01	-8.63010000E-03
					 7.48838000E-04	-1.54728000E-01	-2.45969000E-03
					-1.29020000E-03	-1.54956000E-01	 1.26127000E-02
					 2.79239000E-04	-1.55622000E-01	-2.18834000E-03
					-1.03426000E-03	-1.56378000E-01	 1.26954000E-02
					 2.28382000E-04	-1.40374000E-01	-1.93043000E-03
					-1.27590000E-04	-1.54839000E-01	 5.04841000E-03
					-8.93093000E-04	-1.40446000E-01	 1.26787000E-02
					 5.43096000E-04	-1.55176000E-01	-2.17286000E-03
					-1.15432000E-03	-1.55848000E-01	 1.25765000E-02
					 1.77284000E-04	-1.41371000E-01	-1.83144000E-03
					-3.85251000E-04	-1.56027000E-01	 5.19009000E-03
					-7.60396000E-04	-1.41554000E-01	 1.25722000E-02
					 1.51724000E-03	-1.54331000E-01	-1.65347000E-02
					 1.44250000E-03	-1.54669000E-01	-1.57082000E-02
					 9.04897000E-04	-1.40431000E-01	-1.61693000E-02
					 1.23095000E-03	-1.54525000E-01	-9.55155000E-03
					 1.47263000E-03	-1.54460000E-01	-1.59620000E-02
					 1.08067000E-03	-1.41137000E-01	-1.59531000E-02
					 8.30190000E-04	-1.55140000E-01	-9.09527000E-03
					-6.63016000E-05	-1.56926000E-01	-2.21305000E-03
					-1.16041000E-03	-1.57380000E-01	 1.22871000E-02
					 7.14067000E-05	-1.56264000E-01	-2.12371000E-03
					-1.08346000E-03	-1.56833000E-01	 1.25563000E-02
					 1.29097000E-04	-1.42316000E-01	-1.94128000E-03
					-5.53480000E-04	-1.57135000E-01	 4.92552000E-03
					-7.35997000E-04	-1.42500000E-01	 1.24996000E-02
					 1.28355000E-03	-1.56546000E-01	-1.62994000E-02
					 1.37956000E-03	-1.55564000E-01	-1.60144000E-02
					 1.24163000E-03	-1.42255000E-01	-1.59916000E-02
					 4.65506000E-04	-1.56706000E-01	-9.29249000E-03
					 0.00000000E+00	 0.00000000E+00	 0.00000000E+00
					 0.00000000E+00	 0.00000000E+00	 0.00000000E+00
					 5.69379000E-05	-1.03120000E-02	 3.22587000E-05
					-1.19518000E-03	-1.09217000E-02	 9.33249000E-03
					 0.00000000E+00	 0.00000000E+00	 0.00000000E+00
					 0.00000000E+00	 0.00000000E+00	 0.00000000E+00
					 2.59021000E-05	-1.09714000E-02	 1.92938000E-04
					 1.46945000E-05	-1.15718000E-02	 9.43356000E-03
					 0.00000000E+00	 0.00000000E+00	 0.00000000E+00
					-1.84495000E-05	-2.51984000E-03	 7.23359000E-05
					-6.06709000E-04	-1.03890000E-02	 4.60378000E-03
					-1.39277000E-03	-3.36671000E-03	 4.85129000E-03
					 0.00000000E+00	 0.00000000E+00	 0.00000000E+00
					 0.00000000E+00	 0.00000000E+00	 0.00000000E+00
					 5.63081000E-05	-1.08032000E-02	 8.48953000E-05
					-5.91522000E-04	-1.14044000E-02	 9.32404000E-03
					 0.00000000E+00	 0.00000000E+00	 0.00000000E+00
					-2.88067000E-05	-3.11084000E-03	 9.31815000E-05
					-1.35638000E-05	-1.10644000E-02	 4.71797000E-03
					 1.97561000E-05	-4.01075000E-03	 4.75344000E-03
					 0.00000000E+00	 0.00000000E+00	 0.00000000E+00
					 1.17892000E-03	-1.07101000E-02	-9.10356000E-03
					 0.00000000E+00	 0.00000000E+00	 0.00000000E+00
					 1.34816000E-04	-1.12995000E-02	-9.22231000E-03
					 0.00000000E+00	 0.00000000E+00	 0.00000000E+00
					 1.25858000E-03	-3.29019000E-03	-4.73720000E-03
					 6.63082000E-04	-1.03059000E-02	-4.45568000E-03
					 0.00000000E+00	 0.00000000E+00	 0.00000000E+00
					 6.37549000E-04	-1.11023000E-02	-9.13266000E-03
					 0.00000000E+00	 0.00000000E+00	 0.00000000E+00
					-5.37413000E-05	-3.85000000E-03	-4.58390000E-03
					 7.91849000E-05	-1.08898000E-02	-4.41529000E-03
					 0.00000000E+00	 0.00000000E+00	 0.00000000E+00
					 0.00000000E+00	 0.00000000E+00	 0.00000000E+00
					-2.85718000E-05	-1.05857000E-02	 1.68779000E-04
					 9.93260000E-04	-1.09749000E-02	 9.45044000E-03
					 0.00000000E+00	 0.00000000E+00	 0.00000000E+00
					 0.00000000E+00	 0.00000000E+00	 0.00000000E+00
					-2.36951000E-05	-1.09475000E-02	 1.68774000E-04
					 4.99123000E-04	-1.13989000E-02	 9.40193000E-03
					 0.00000000E+00	 0.00000000E+00	 0.00000000E+00
					-1.38791000E-05	-2.45713000E-03	 1.69798000E-04
					 5.66186000E-04	-1.05232000E-02	 4.69584000E-03
					 1.38541000E-03	-3.33732000E-03	 4.92376000E-03
					 0.00000000E+00	 0.00000000E+00	 0.00000000E+00
					-9.58560000E-04	-1.09502000E-02	-9.05375000E-03
					 0.00000000E+00	 0.00000000E+00	 0.00000000E+00
					-3.90776000E-04	-1.12790000E-02	-9.15173000E-03
					 0.00000000E+00	 0.00000000E+00	 0.00000000E+00
					-1.41896000E-03	-3.14772000E-03	-4.71476000E-03
					-5.00601000E-04	-1.05853000E-02	-4.31849000E-03
					 1.55936000E-04	-3.67776000E-02	-2.10956000E-04
					-9.02851000E-04	-3.76071000E-02	 1.65284000E-02
					 1.39134000E-04	-3.73922000E-02	-9.35767000E-05
					 1.54131000E-04	-3.83522000E-02	 1.66232000E-02
					 7.61127000E-05	-2.16359000E-02	-5.23592000E-06
					-3.88017000E-04	-3.70844000E-02	 8.12195000E-03
					-1.13913000E-03	-2.24483000E-02	 1.30882000E-02
					 1.56448000E-04	-3.72228000E-02	-1.36245000E-04
					-3.70078000E-04	-3.81112000E-02	 1.66197000E-02
					 4.70244000E-05	-2.22918000E-02	 4.97748000E-05
					 1.82353000E-04	-3.77544000E-02	 8.25968000E-03
					-7.65976000E-05	-2.31183000E-02	 1.31698000E-02
					 1.51270000E-03	-3.68250000E-02	-1.69603000E-02
					 2.74215000E-04	-3.75350000E-02	-1.69007000E-02
					 1.35616000E-03	-2.19392000E-02	-1.31689000E-02
					 7.18597000E-04	-3.67038000E-02	-8.48725000E-03
					 8.69884000E-04	-3.74207000E-02	-1.69480000E-02
					 2.10561000E-04	-2.27138000E-02	-1.30352000E-02
					 2.15074000E-04	-3.73536000E-02	-8.44080000E-03
					 1.44797000E-04	-3.70564000E-02	 8.27297000E-05
					 1.29042000E-03	-3.78147000E-02	 1.68398000E-02
					 1.51286000E-04	-3.73492000E-02	 2.42276000E-05
					 7.02653000E-04	-3.82934000E-02	 1.67815000E-02
					 7.49360000E-05	-2.19556000E-02	 1.04001000E-04
					 6.35241000E-04	-3.73422000E-02	 8.45476000E-03
					 1.07973000E-03	-2.27697000E-02	 1.32906000E-02
					-8.66631000E-04	-3.70072000E-02	-1.64960000E-02
					-2.95411000E-04	-3.74643000E-02	-1.67420000E-02
					-8.74855000E-04	-2.22983000E-02	-1.28484000E-02
					-3.12588000E-04	-3.69003000E-02	-8.18328000E-03
					 6.45487000E-04	-7.82835000E-02	-6.79799000E-04
					-4.12211000E-04	-7.91995000E-02	 2.22295000E-02
					 5.41061000E-04	-7.87635000E-02	-4.71689000E-04
					 3.69439000E-04	-7.97954000E-02	 2.24635000E-02
					 2.94754000E-04	-5.59408000E-02	-3.55961000E-04
					 1.19437000E-04	-7.86171000E-02	 1.05995000E-02
					-7.02514000E-04	-5.68470000E-02	 1.97880000E-02
					 6.12464000E-04	-7.86535000E-02	-6.11754000E-04
					-5.75210000E-05	-7.96502000E-02	 2.23542000E-02
					 3.12632000E-04	-5.65054000E-02	-2.29382000E-04
					 4.46406000E-04	-7.92129000E-02	 1.08423000E-02
					 3.01817000E-04	-5.74260000E-02	 1.98939000E-02
					 1.21529000E-03	-7.82623000E-02	-2.36830000E-02
					 5.25291000E-04	-7.84390000E-02	-2.34513000E-02
					 1.46747000E-03	-5.57465000E-02	-2.05550000E-02
					 8.59983000E-04	-7.82009000E-02	-1.20020000E-02
					 8.75607000E-04	-7.84921000E-02	-2.36351000E-02
					 3.59458000E-04	-5.64609000E-02	-2.04013000E-02
					 5.57675000E-04	-7.85052000E-02	-1.18417000E-02
					 4.96663000E-04	-7.84023000E-02	-2.95891000E-04
					 1.14653000E-03	-7.95108000E-02	 2.26329000E-02
					 4.98563000E-04	-7.86855000E-02	-4.07593000E-04
					 7.56712000E-04	-7.96556000E-02	 2.25663000E-02
					 3.67412000E-04	-5.60391000E-02	-9.22051000E-06
					 8.34773000E-04	-7.88625000E-02	 1.09508000E-02
					 1.41360000E-03	-5.69044000E-02	 1.99890000E-02
					-1.33718000E-04	-7.82876000E-02	-2.32996000E-02
					 2.03181000E-04	-7.84293000E-02	-2.34343000E-02
					-5.45945000E-04	-5.59698000E-02	-2.01476000E-02
					 1.84199000E-04	-7.82994000E-02	-1.15970000E-02
					 9.17276000E-04	-1.29561000E-01	-1.76506000E-03
					 9.34232000E-04	-1.30142000E-01	 2.35139000E-02