# vtk DataFile Version 3.0

ASCII
DATASET UNSTRUCTURED_GRID

POINTS 522 double
	 1.00000000E+00	 1.00000000E+00	-5.96046000E-08
	 1.00000000E+00	 5.00000000E-01	-5.96046000E-08
	 1.00000000E+00	 5.00000000E-01	 1.00000000E+00
	 1.00000000E+00	 1.00000000E+00	 1.00000000E+00
	 5.00000000E-01	 1.00000000E+00	-5.96046000E-08
	 5.00000000E-01	 5.00000000E-01	-5.96046000E-08
	 5.00000000E-01	 5.00000000E-01	 1.00000000E+00
	 5.00000000E-01	 1.00000000E+00	 1.00000000E+00
	 1.00000000E+00	 7.50000000E-01	-5.96046000E-08
	 1.00000000E+00	 5.00000000E-01	 5.00000000E-01
	 1.00000000E+00	 7.50000000E-01	 1.00000000E+00
	 1.00000000E+00	 1.00000000E+00	 5.00000000E-01
	 7.50000000E-01	 1.00000000E+00	-5.96046000E-08
	 7.50000000E-01	 5.00000000E-01	-5.96046000E-08
	 7.50000000E-01	 5.00000000E-01	 1.00000000E+00
	 7.50000000E-01	 1.00000000E+00	 1.00000000E+00
	 5.00000000E-01	 7.50000000E-01	-5.96046000E-08
	 5.00000000E-01	 5.00000000E-01	 5.00000000E-01
	 5.00000000E-01	 7.50000000E-01	 1.00000000E+00
	 5.00000000E-01	 1.00000000E+00	 5.00000000E-01
	 1.00000000E+00	-1.49012000E-08	-5.96046000E-08
	 1.00000000E+00	-1.49012000E-08	 1.00000000E+00
	 5.00000000E-01	-1.49012000E-08	-5.96046000E-08
	 5.00000000E-01	-1.49012000E-08	 1.00000000E+00
	 1.00000000E+00	 2.50000000E-01	-5.96046000E-08
	 1.00000000E+00	-1.49012000E-08	 5.00000000E-01
	 1.00000000E+00	 2.50000000E-01	 1.00000000E+00
	 7.50000000E-01	-1.49012000E-08	-5.96046000E-08
	 7.50000000E-01	-1.49012000E-08	 1.00000000E+00
	 5.00000000E-01	 2.50000000E-01	-5.96046000E-08
	 5.00000000E-01	-1.49012000E-08	 5.00000000E-01
	 5.00000000E-01	 2.50000000E-01	 1.00000000E+00
	-7.45058000E-09	 1.00000000E+00	-5.96046000E-08
	-7.45058000E-09	 5.00000000E-01	-5.96046000E-08
	-7.45058000E-09	 5.00000000E-01	 1.00000000E+00
	-7.45058000E-09	 1.00000000E+00	 1.00000000E+00
	 2.50000000E-01	 1.00000000E+00	-5.96046000E-08
	 2.50000000E-01	 5.00000000E-01	-5.96046000E-08
	 2.50000000E-01	 5.00000000E-01	 1.00000000E+00
	 2.50000000E-01	 1.00000000E+00	 1.00000000E+00
	-7.45058000E-09	 7.50000000E-01	-5.96046000E-08
	-7.45058000E-09	 5.00000000E-01	 5.00000000E-01
	-7.45058000E-09	 7.50000000E-01	 1.00000000E+00
	-7.45058000E-09	 1.00000000E+00	 5.00000000E-01
	-7.45058000E-09	-1.49012000E-08	-5.96046000E-08
	-7.45058000E-09	-1.49012000E-08	 1.00000000E+00
	 2.50000000E-01	-1.49012000E-08	-5.96046000E-08
	 2.50000000E-01	-1.49012000E-08	 1.00000000E+00
	-7.45058000E-09	 2.50000000E-01	-5.96046000E-08
	-7.45058000E-09	-1.49012000E-08	 5.00000000E-01
	-7.45058000E-09	 2.50000000E-01	 1.00000000E+00
	 1.00000000E+00	 5.00000000E-01	 2.00000000E+00
	 1.00000000E+00	 1.00000000E+00	 2.00000000E+00
	 5.00000000E-01	 5.00000000E-01	 2.00000000E+00
	 5.00000000E-01	 1.00000000E+00	 2.00000000E+00
	 1.00000000E+00	 5.00000000E-01	 1.50000000E+00
	 1.00000000E+00	 7.50000000E-01	 2.00000000E+00
	 1.00000000E+00	 1.00000000E+00	 1.50000000E+00
	 7.50000000E-01	 5.00000000E-01	 2.00000000E+00
	 7.50000000E-01	 1.00000000E+00	 2.00000000E+00
	 5.00000000E-01	 5.00000000E-01	 1.50000000E+00
	 5.00000000E-01	 7.50000000E-01	 2.00000000E+00
	 5.00000000E-01	 1.00000000E+00	 1.50000000E+00
	 1.00000000E+00	-1.49012000E-08	 2.00000000E+00
	 5.00000000E-01	-1.49012000E-08	 2.00000000E+00
	 1.00000000E+00	-1.49012000E-08	 1.50000000E+00
	 1.00000000E+00	 2.50000000E-01	 2.00000000E+00
	 7.50000000E-01	-1.49012000E-08	 2.00000000E+00
	 5.00000000E-01	-1.49012000E-08	 1.50000000E+00
	 5.00000000E-01	 2.50000000E-01	 2.00000000E+00
	-7.45058000E-09	 5.00000000E-01	 2.00000000E+00
	-7.45058000E-09	 1.00000000E+00	 2.00000000E+00
	 2.50000000E-01	 5.00000000E-01	 2.00000000E+00
	 2.50000000E-01	 1.00000000E+00	 2.00000000E+00
	-7.45058000E-09	 5.00000000E-01	 1.50000000E+00
	-7.45058000E-09	 7.50000000E-01	 2.00000000E+00
	-7.45058000E-09	 1.00000000E+00	 1.50000000E+00
	-7.45058000E-09	-1.49012000E-08	 2.00000000E+00
	 2.50000000E-01	-1.49012000E-08	 2.00000000E+00
	-7.45058000E-09	-1.49012000E-08	 1.50000000E+00
	-7.45058000E-09	 2.50000000E-01	 2.00000000E+00
	 1.00000000E+00	 5.00000000E-01	 3.00000000E+00
	 1.00000000E+00	 1.00000000E+00	 3.00000000E+00
	 5.00000000E-01	 5.00000000E-01	 3.00000000E+00
	 5.00000000E-01	 1.00000000E+00	 3.00000000E+00
	 1.00000000E+00	 5.00000000E-01	 2.50000000E+00
	 1.00000000E+00	 7.50000000E-01	 3.00000000E+00
	 1.00000000E+00	 1.00000000E+00	 2.50000000E+00
	 7.50000000E-01	 5.00000000E-01	 3.00000000E+00
	 7.50000000E-01	 1.00000000E+00	 3.00000000E+00
	 5.00000000E-01	 5.00000000E-01	 2.50000000E+00
	 5.00000000E-01	 7.50000000E-01	 3.00000000E+00
	 5.00000000E-01	 1.00000000E+00	 2.50000000E+00
	 1.00000000E+00	-1.49012000E-08	 3.00000000E+00
	 5.00000000E-01	-1.49012000E-08	 3.00000000E+00
	 1.00000000E+00	-1.49012000E-08	 2.50000000E+00
	 1.00000000E+00	 2.50000000E-01	 3.00000000E+00
	 7.50000000E-01	-1.49012000E-08	 3.00000000E+00
	 5.00000000E-01	-1.49012000E-08	 2.50000000E+00
	 5.00000000E-01	 2.50000000E-01	 3.00000000E+00
	-7.45058000E-09	 5.00000000E-01	 3.00000000E+00
	-7.45058000E-09	 1.00000000E+00	 3.00000000E+00
	 2.50000000E-01	 5.00000000E-01	 3.00000000E+00
	 2.50000000E-01	 1.00000000E+00	 3.00000000E+00
	-7.45058000E-09	 5.00000000E-01	 2.50000000E+00
	-7.45058000E-09	 7.50000000E-01	 3.00000000E+00
	-7.45058000E-09	 1.00000000E+00	 2.50000000E+00
	-7.45058000E-09	-1.49012000E-08	 3.00000000E+00
	 2.50000000E-01	-1.49012000E-08	 3.00000000E+00
	-7.45058000E-09	-1.49012000E-08	 2.50000000E+00
	-7.45058000E-09	 2.50000000E-01	 3.00000000E+00
	 1.00000000E+00	 5.00000000E-01	 4.00000000E+00
	 1.00000000E+00	 1.00000000E+00	 4.00000000E+00
	 5.00000000E-01	 5.00000000E-01	 4.00000000E+00
	 5.00000000E-01	 1.00000000E+00	 4.00000000E+00
	 1.00000000E+00	 5.00000000E-01	 3.50000000E+00
	 1.00000000E+00	 7.50000000E-01	 4.00000000E+00
	 1.00000000E+00	 1.00000000E+00	 3.50000000E+00
	 7.50000000E-01	 5.00000000E-01	 4.00000000E+00
	 7.50000000E-01	 1.00000000E+00	 4.00000000E+00
	 5.00000000E-01	 5.00000000E-01	 3.50000000E+00
	 5.00000000E-01	 7.50000000E-01	 4.00000000E+00
	 5.00000000E-01	 1.00000000E+00	 3.50000000E+00
	 1.00000000E+00	-1.49012000E-08	 4.00000000E+00
	 5.00000000E-01	-1.49012000E-08	 4.00000000E+00
	 1.00000000E+00	-1.49012000E-08	 3.50000000E+00
	 1.00000000E+00	 2.50000000E-01	 4.00000000E+00
	 7.50000000E-01	-1.49012000E-08	 4.00000000E+00
	 5.00000000E-01	-1.49012000E-08	 3.50000000E+00
	 5.00000000E-01	 2.50000000E-01	 4.00000000E+00
	-7.45058000E-09	 5.00000000E-01	 4.00000000E+00
	-7.45058000E-09	 1.00000000E+00	 4.00000000E+00
	 2.50000000E-01	 5.00000000E-01	 4.00000000E+00
	 2.50000000E-01	 1.00000000E+00	 4.00000000E+00
	-7.45058000E-09	 5.00000000E-01	 3.50000000E+00
	-7.45058000E-09	 7.50000000E-01	 4.00000000E+00
	-7.45058000E-09	 1.00000000E+00	 3.50000000E+00
	-7.45058000E-09	-1.49012000E-08	 4.00000000E+00
	 2.50000000E-01	-1.49012000E-08	 4.00000000E+00
	-7.45058000E-09	-1.49012000E-08	 3.50000000E+00
	-7.45058000E-09	 2.50000000E-01	 4.00000000E+00
	 1.00000000E+00	 5.00000000E-01	 5.00000000E+00
	 1.00000000E+00	 1.00000000E+00	 5.00000000E+00
	 5.00000000E-01	 5.00000000E-01	 5.00000000E+00
	 5.00000000E-01	 1.00000000E+00	 5.00000000E+00
	 1.00000000E+00	 5.00000000E-01	 4.50000000E+00
	 1.00000000E+00	 7.50000000E-01	 5.00000000E+00
	 1.00000000E+00	 1.00000000E+00	 4.50000000E+00
	 7.50000000E-01	 5.00000000E-01	 5.00000000E+00
	 7.50000000E-01	 1.00000000E+00	 5.00000000E+00
	 5.00000000E-01	 5.00000000E-01	 4.50000000E+00
	 5.00000000E-01	 7.50000000E-01	 5.00000000E+00
	 5.00000000E-01	 1.00000000E+00	 4.50000000E+00
	 1.00000000E+00	-1.49012000E-08	 5.00000000E+00
	 5.00000000E-01	-1.49012000E-08	 5.00000000E+00
	 1.00000000E+00	-1.49012000E-08	 4.50000000E+00
	 1.00000000E+00	 2.50000000E-01	 5.00000000E+00
	 7.50000000E-01	-1.49012000E-08	 5.00000000E+00
	 5.00000000E-01	-1.49012000E-08	 4.50000000E+00
	 5.00000000E-01	 2.50000000E-01	 5.00000000E+00
	-7.45058000E-09	 5.00000000E-01	 5.00000000E+00
	-7.45058000E-09	 1.00000000E+00	 5.00000000E+00
	 2.50000000E-01	 5.00000000E-01	 5.00000000E+00
	 2.50000000E-01	 1.00000000E+00	 5.00000000E+00
	-7.45058000E-09	 5.00000000E-01	 4.50000000E+00
	-7.45058000E-09	 7.50000000E-01	 5.00000000E+00
	-7.45058000E-09	 1.00000000E+00	 4.50000000E+00
	-7.45058000E-09	-1.49012000E-08	 5.00000000E+00
	 2.50000000E-01	-1.49012000E-08	 5.00000000E+00
	-7.45058000E-09	-1.49012000E-08	 4.50000000E+00
	-7.45058000E-09	 2.50000000E-01	 5.00000000E+00
	 1.00000000E+00	 5.00000000E-01	 6.00000000E+00
	 1.00000000E+00	 1.00000000E+00	 6.00000000E+00
	 5.00000000E-01	 5.00000000E-01	 6.00000000E+00
	 5.00000000E-01	 1.00000000E+00	 6.00000000E+00
	 1.00000000E+00	 5.00000000E-01	 5.50000000E+00
	 1.00000000E+00	 7.50000000E-01	 6.00000000E+00
	 1.00000000E+00	 1.00000000E+00	 5.50000000E+00
	 7.50000000E-01	 5.00000000E-01	 6.00000000E+00
	 7.50000000E-01	 1.00000000E+00	 6.00000000E+00
	 5.00000000E-01	 5.00000000E-01	 5.50000000E+00
	 5.00000000E-01	 7.50000000E-01	 6.00000000E+00
	 5.00000000E-01	 1.00000000E+00	 5.50000000E+00
	 1.00000000E+00	-1.49012000E-08	 6.00000000E+00
	 5.00000000E-01	-1.49012000E-08	 6.00000000E+00
	 1.00000000E+00	-1.49012000E-08	 5.50000000E+00
	 1.00000000E+00	 2.50000000E-01	 6.00000000E+00
	 7.50000000E-01	-1.49012000E-08	 6.00000000E+00
	 5.00000000E-01	-1.49012000E-08	 5.50000000E+00
	 5.00000000E-01	 2.50000000E-01	 6.00000000E+00
	-7.45058000E-09	 5.00000000E-01	 6.00000000E+00
	-7.45058000E-09	 1.00000000E+00	 6.00000000E+00
	 2.50000000E-01	 5.00000000E-01	 6.00000000E+00
	 2.50000000E-01	 1.00000000E+00	 6.00000000E+00
	-7.45058000E-09	 5.00000000E-01	 5.50000000E+00
	-7.45058000E-09	 7.50000000E-01	 6.00000000E+00
	-7.45058000E-09	 1.00000000E+00	 5.50000000E+00
	-7.45058000E-09	-1.49012000E-08	 6.00000000E+00
	 2.50000000E-01	-1.49012000E-08	 6.00000000E+00
	-7.45058000E-09	-1.49012000E-08	 5.50000000E+00
	-7.45058000E-09	 2.50000000E-01	 6.00000000E+00
	 1.00000000E+00	 5.00000000E-01	 7.00000000E+00
[...]
POINT_DATA 522
FIELD U 1
	U 3 522 double
		 0.00000000E+00	 0.00000000E+00	 0.00000000E+00
		 0.00000000E+00	 0.00000000E+00	 0.00000000E+00
		 4.65183000E-06	 1.73838000E-03	-7.97157000E-05
		 7.93297000E-04	 1.90838000E-03	-2.39270000E-03
		 0.00000000E+00	 0.00000000E+00	 0.00000000E+00
		 0.00000000E+00	 0.00000000E+00	 0.00000000E+00
		-7.47974000E-06	 2.36113000E-03	-8.30167000E-05
		 4.40401000E-04	 2.53248000E-03	-2.40418000E-03
		 0.00000000E+00	 0.00000000E+00	 0.00000000E+00
		 7.18653000E-06	 2.63634000E-04	-3.53353000E-05
		 4.02288000E-04	 1.76725000E-03	-1.29045000E-03
		 5.60414000E-04	 4.84414000E-04	-1.16457000E-03
		 0.00000000E+00	 0.00000000E+00	 0.00000000E+00
		 0.00000000E+00	 0.00000000E+00	 0.00000000E+00
		-1.39089000E-06	 2.10551000E-03	-8.14506000E-05
		 6.14777000E-04	 2.27285000E-03	-2.34833000E-03
		 0.00000000E+00	 0.00000000E+00	 0.00000000E+00
		-5.06741000E-06	 6.37662000E-04	-3.58600000E-05
		 2.15834000E-04	 2.38916000E-03	-1.24782000E-03
		 2.11610000E-04	 8.48681000E-04	-1.12796000E-03
		 0.00000000E+00	 0.00000000E+00	 0.00000000E+00
		-7.86300000E-04	 1.89718000E-03	 2.23290000E-03
		 0.00000000E+00	 0.00000000E+00	 0.00000000E+00
		-4.55681000E-04	 2.52173000E-03	 2.23799000E-03
		 0.00000000E+00	 0.00000000E+00	 0.00000000E+00
		-5.46635000E-04	 4.64442000E-04	 1.08908000E-03
		-3.93922000E-04	 1.76194000E-03	 1.13125000E-03
		 0.00000000E+00	 0.00000000E+00	 0.00000000E+00
		-6.18656000E-04	 2.26186000E-03	 2.18534000E-03
		 0.00000000E+00	 0.00000000E+00	 0.00000000E+00
		-2.21681000E-04	 8.28096000E-04	 1.05197000E-03
		-2.30892000E-04	 2.38390000E-03	 1.08215000E-03
		 0.00000000E+00	 0.00000000E+00	 0.00000000E+00
		 0.00000000E+00	 0.00000000E+00	 0.00000000E+00
		-1.92001000E-05	 2.63448000E-03	-8.37921000E-05
		 7.84312000E-05	 2.79418000E-03	-2.39655000E-03
		 0.00000000E+00	 0.00000000E+00	 0.00000000E+00
		 0.00000000E+00	 0.00000000E+00	 0.00000000E+00
		-1.33627000E-05	 2.55226000E-03	-8.33342000E-05
		 2.60787000E-04	 2.71786000E-03	-2.43341000E-03
		 0.00000000E+00	 0.00000000E+00	 0.00000000E+00
		-1.77791000E-05	 6.96879000E-04	-3.97390000E-05
		 2.87462000E-05	 2.65779000E-03	-1.21127000E-03
		-1.55287000E-04	 9.00503000E-04	-1.16862000E-03
		 0.00000000E+00	 0.00000000E+00	 0.00000000E+00
		-1.15339000E-04	 2.78482000E-03	 2.22927000E-03
		 0.00000000E+00	 0.00000000E+00	 0.00000000E+00
		-2.87164000E-04	 2.70828000E-03	 2.26663000E-03
		 0.00000000E+00	 0.00000000E+00	 0.00000000E+00
		 1.20479000E-04	 8.79615000E-04	 1.08516000E-03
		-6.64096000E-05	 2.65284000E-03	 1.04435000E-03
		 1.23973000E-05	 8.11150000E-03	-1.79673000E-04
		 1.50590000E-03	 8.32942000E-03	-5.30102000E-03
		 2.18982000E-06	 9.36001000E-03	-1.86408000E-04
		 1.01257000E-03	 9.58169000E-03	-5.29722000E-03
		 7.19292000E-06	 4.24717000E-03	-1.27166000E-04
		 7.58278000E-04	 8.16110000E-03	-2.81261000E-03
		 1.13109000E-03	 4.46260000E-03	-3.75380000E-03
		 7.50515000E-06	 8.79413000E-03	-1.83253000E-04
		 1.25981000E-03	 9.01509000E-03	-5.24709000E-03
		-4.38863000E-06	 5.16533000E-03	-1.30614000E-04
		 5.07151000E-04	 9.41200000E-03	-2.76393000E-03
		 7.03841000E-04	 5.37816000E-03	-3.74339000E-03
		-1.48224000E-03	 8.36825000E-03	 4.93903000E-03
		-1.00693000E-03	 9.61846000E-03	 4.92159000E-03
		-1.11833000E-03	 4.46904000E-03	 3.49839000E-03
		-7.34029000E-04	 8.18230000E-03	 2.45229000E-03
		-1.24461000E-03	 9.05222000E-03	 4.87833000E-03
		-7.12340000E-04	 5.38461000E-03	 3.48113000E-03
		-5.02421000E-04	 9.43135000E-03	 2.39040000E-03
		-9.22623000E-06	 1.01312000E-02	-1.87798000E-04
		 5.13274000E-04	 1.03468000E-02	-5.30924000E-03
		-3.53132000E-06	 9.80391000E-03	-1.88269000E-04
		 7.62512000E-04	 1.00233000E-02	-5.34296000E-03
		-1.65978000E-05	 5.66348000E-03	-1.30748000E-04
		 2.52905000E-04	 1.01805000E-02	-2.73013000E-03
		 2.73637000E-04	 5.87721000E-03	-3.75759000E-03
		-5.28237000E-04	 1.03810000E-02	 4.93092000E-03
		-7.67301000E-04	 1.00598000E-02	 4.96319000E-03
		-3.04845000E-04	 5.88267000E-03	 3.49484000E-03
		-2.70124000E-04	 1.01976000E-02	 2.35421000E-03
		 3.00266000E-05	 2.09534000E-02	-3.21299000E-04
		 2.29462000E-03	 2.11248000E-02	-8.82969000E-03
		 2.56192000E-05	 2.29677000E-02	-3.48169000E-04
		 1.79873000E-03	 2.31441000E-02	-8.86665000E-03
		 2.07793000E-05	 1.36352000E-02	-2.42705000E-04
		 1.16058000E-03	 2.09734000E-02	-4.61093000E-03
		 1.89345000E-03	 1.38379000E-02	-7.05003000E-03
		 2.85058000E-05	 2.20245000E-02	-3.35288000E-04
		 2.04722000E-03	 2.21998000E-02	-8.79153000E-03
		 1.26155000E-05	 1.52511000E-02	-2.56923000E-04
		 9.11234000E-04	 2.29901000E-02	-4.58432000E-03
		 1.37685000E-03	 1.54568000E-02	-7.06323000E-03
		-2.23327000E-03	 2.12710000E-02	 8.17958000E-03
		-1.74361000E-03	 2.32833000E-02	 8.16248000E-03
		-1.85189000E-03	 1.39235000E-02	 6.55975000E-03
		-1.10066000E-03	 2.10482000E-02	 3.96609000E-03
		-1.98747000E-03	 2.23410000E-02	 8.11392000E-03
		-1.34914000E-03	 1.55380000E-02	 6.54432000E-03
		-8.59105000E-04	 2.30597000E-02	 3.88618000E-03
		 1.71644000E-05	 2.44956000E-02	-3.65087000E-04
		 1.29160000E-03	 2.46679000E-02	-8.87371000E-03
		 2.18204000E-05	 2.37948000E-02	-3.58697000E-04
		 1.54530000E-03	 2.39706000E-02	-8.94214000E-03
		 1.85570000E-06	 1.63613000E-02	-2.63068000E-04
		 6.56497000E-04	 2.45177000E-02	-4.52792000E-03
		 8.49997000E-04	 1.65614000E-02	-7.07055000E-03
		-1.25060000E-03	 2.47977000E-02	 8.13581000E-03
		-1.49653000E-03	 2.41080000E-02	 8.21614000E-03
		-8.41459000E-04	 1.66371000E-02	 6.53928000E-03
		-6.20228000E-04	 2.45801000E-02	 3.79657000E-03
		 3.55648000E-05	 4.04632000E-02	-5.37791000E-04
		 3.12086000E-03	 4.04992000E-02	-1.18439000E-02
		 3.97018000E-05	 4.33857000E-02	-6.06884000E-04
		 2.79701000E-03	 4.34208000E-02	-1.19293000E-02
		 3.69690000E-05	 3.00084000E-02	-4.18895000E-04
		 1.57956000E-03	 4.04408000E-02	-6.22574000E-03
		 2.69175000E-03	 3.01134000E-02	-1.04507000E-02
		 3.83622000E-05	 4.19654000E-02	-5.73528000E-04
		 2.95947000E-03	 4.20003000E-02	-1.18185000E-02
		 3.62725000E-05	 3.24530000E-02	-4.64976000E-04
		 1.41736000E-03	 4.33646000E-02	-6.23182000E-03
		 2.27414000E-03	 3.25603000E-02	-1.05157000E-02
		-3.04627000E-03	 4.07705000E-02	 1.07602000E-02
		-2.71287000E-03	 4.36833000E-02	 1.07081000E-02
		-2.61487000E-03	 3.03231000E-02	 9.60417000E-03
		-1.50774000E-03	 4.05780000E-02	 5.14790000E-03
		-2.87867000E-03	 4.22644000E-02	 1.06641000E-02
		-2.19679000E-03	 3.27612000E-02	 9.57705000E-03
		-1.33682000E-03	 4.34944000E-02	 5.01613000E-03
		 3.84695000E-05	 4.59718000E-02	-6.66664000E-04
		 2.46276000E-03	 4.60128000E-02	-1.19726000E-02
		 3.97154000E-05	 4.47191000E-02	-6.37925000E-04
		 2.63030000E-03	 4.47549000E-02	-1.20421000E-02
		 3.06085000E-05	 3.44786000E-02	-5.00852000E-04
		 1.24932000E-03	 4.59551000E-02	-6.19556000E-03
		 1.84421000E-03	 3.45865000E-02	-1.05328000E-02
		-2.37952000E-03	 4.62638000E-02	 1.06322000E-02
		-2.54542000E-03	 4.50160000E-02	 1.07588000E-02
		-1.77591000E-03	 3.47755000E-02	 9.52270000E-03
		-1.17062000E-03	 4.60750000E-02	 4.86058000E-03
		 1.59104000E-05	 6.40755000E-02	-8.28162000E-04
		 4.20597000E-03	 6.40154000E-02	-1.39888000E-02
		 3.00902000E-05	 6.81298000E-02	-9.45577000E-04
		 3.95519000E-03	 6.80759000E-02	-1.41056000E-02
		 2.76516000E-05	 5.18929000E-02	-6.75659000E-04
		 2.11077000E-03	 6.40110000E-02	-7.50505000E-03
		 3.62665000E-03	 5.18834000E-02	-1.29637000E-02
		 2.36730000E-05	 6.61347000E-02	-8.87177000E-04
		 4.08131000E-03	 6.60800000E-02	-1.39552000E-02
		 3.63255000E-05	 5.53587000E-02	-7.68019000E-04
		 1.99217000E-03	 6.80712000E-02	-7.53076000E-03
		 3.36507000E-03	 5.53465000E-02	-1.30636000E-02
		-4.16984000E-03	 6.43971000E-02	 1.23266000E-02
		-3.88962000E-03	 6.84472000E-02	 1.22084000E-02
		-3.56791000E-03	 5.22081000E-02	 1.16051000E-02
		-2.07799000E-03	 6.42069000E-02	 5.84673000E-03
		-4.02906000E-03	 6.64518000E-02	 1.21755000E-02
		-3.28775000E-03	 5.56629000E-02	 1.15210000E-02
		-1.93060000E-03	 6.82573000E-02	 5.63798000E-03
		 3.87571000E-05	 7.19174000E-02	-1.05529000E-03
		 3.70546000E-03	 7.18747000E-02	-1.42163000E-02
		 3.50593000E-05	 7.00563000E-02	-1.00197000E-03
		 3.83114000E-03	 7.00040000E-02	-1.42493000E-02
		 3.97654000E-05	 5.85438000E-02	-8.52315000E-04
		 1.86995000E-03	 7.18665000E-02	-7.55318000E-03
		 3.09371000E-03	 5.85390000E-02	-1.31401000E-02
		-3.62154000E-03	 7.22348000E-02	 1.20991000E-02
		-3.75518000E-03	 7.03745000E-02	 1.22386000E-02
		-3.00832000E-03	 5.88452000E-02	 1.14291000E-02
		-1.79061000E-03	 7.20423000E-02	 5.44124000E-03
		-2.29498000E-05	 9.12688000E-02	-1.18867000E-03
		 5.16129000E-03	 9.11368000E-02	-1.62085000E-02
		 1.90613000E-06	 9.62922000E-02	-1.36485000E-03
		 4.89768000E-03	 9.61826000E-02	-1.63919000E-02
		 4.91886000E-07	 7.71065000E-02	-9.95676000E-04
		 2.56403000E-03	 9.11641000E-02	-8.73033000E-03
		 4.76794000E-03	 7.70085000E-02	-1.50774000E-02
		-9.39262000E-06	 9.38150000E-02	-1.27785000E-03
		 5.03137000E-03	 9.37006000E-02	-1.62569000E-02
		 2.03520000E-05	 8.17170000E-02	-1.14218000E-03
		 2.45000000E-03	 9.62000000E-02	-8.86498000E-03
		 4.49785000E-03	 8.16376000E-02	-1.52221000E-02
		-5.20019000E-03	 9.16486000E-02	 1.38236000E-02
		-4.88574000E-03	 9.66784000E-02	 1.36539000E-02
		-4.76090000E-03	 7.74547000E-02	 1.30801000E-02
		-2.60858000E-03	 9.14223000E-02	 6.35140000E-03
		-5.04250000E-03	 9.42018000E-02	 1.36931000E-02
		-4.45004000E-03	 8.20692000E-02	 1.29306000E-02
		-2.44432000E-03	 9.64475000E-02	 6.13342000E-03
		 1.87449000E-05	 1.01046000E-01	-1.53266000E-03
		 4.64616000E-03	 1.00950000E-01	-1.65529000E-02
		 1.14112000E-05	 9.87056000E-02	-1.44990000E-03
		 4.77351000E-03	 9.85996000E-02	-1.65243000E-02
		 3.33022000E-05	 8.60500000E-02	-1.28052000E-03
		 2.33090000E-03	 1.00963000E-01	-8.97907000E-03
		 4.23961000E-03	 8.59851000E-02	-1.53630000E-02
		-4.59922000E-03	 1.01429000E-01	 1.34793000E-02
		-4.74199000E-03	 9.90901000E-02	 1.36162000E-02
		-4.16468000E-03	 8.64022000E-02	 1.27941000E-02
		-2.29105000E-03	 1.01199000E-01	 5.91189000E-03
		-9.38855000E-05	 1.23106000E-01	-1.68316000E-03
		 5.20660000E-03	 1.22869000E-01	-1.81481000E-02
		-6.75436000E-05	 1.28331000E-01	-1.89460000E-03
		 5.09616000E-03	 1.28100000E-01	-1.83800000E-02
		-5.50430000E-05	 1.06689000E-01	-1.41807000E-03
		 2.55560000E-03	 1.22973000E-01	-9.85959000E-03
		 5.29520000E-03	 1.06496000E-01	-1.72734000E-02
		-8.01731000E-05	 1.25735000E-01	-1.79042000E-03
		 5.15242000E-03	 1.25501000E-01	-1.82833000E-02
		-2.86496000E-05	 1.11907000E-01	-1.61734000E-03
		 2.51489000E-03	 1.28201000E-01	-1.00974000E-02
		 5.08912000E-03	 1.11735000E-01	-1.74900000E-02
		-5.39141000E-03	 1.23468000E-01	 1.47766000E-02
		-5.22794000E-03	 1.28694000E-01	 1.45862000E-02
		-5.39979000E-03	 1.07061000E-01	 1.44302000E-02
		-2.74270000E-03	 1.23268000E-01	 6.49239000E-03
		-5.30962000E-03	 1.26099000E-01	 1.46969000E-02
		-5.14016000E-03	 1.12288000E-01	 1.42482000E-02
		-2.64919000E-03	 1.28495000E-01	 6.30699000E-03
		-4.49410000E-05	 1.33420000E-01	-2.10074000E-03
		 4.99201000E-03	 1.33200000E-01	-1.85692000E-02
		-5.58585000E-05	 1.30892000E-01	-1.99745000E-03
		 5.04475000E-03	 1.30665000E-01	-1.84795000E-02
		-8.33383000E-06	 1.16909000E-01	-1.80948000E-03
		 2.47216000E-03	 1.33295000E-01	-1.02930000E-02
		 4.90122000E-03	 1.16753000E-01	-1.76655000E-02
		-5.07814000E-03	 1.33785000E-01	 1.43637000E-02
		-5.15297000E-03	 1.31255000E-01	 1.44810000E-02
		-4.91053000E-03	 1.17292000E-01	 1.40399000E-02
		-2.56108000E-03	 1.33585000E-01	 6.08989000E-03
		-1.75382000E-04	 1.56965000E-01	-2.25929000E-03
		 4.91135000E-03	 1.56674000E-01	-1.90468000E-02
		-1.48674000E-04	 1.62074000E-01	-2.47124000E-03
		 4.94601000E-03	 1.61774000E-01	-1.92809000E-02
		-1.34742000E-04	 1.40034000E-01	-1.97082000E-03
		 2.36791000E-03	 1.56824000E-01	-1.06372000E-02
		 5.03878000E-03	 1.39760000E-01	-1.87005000E-02
		-1.62143000E-04	 1.59517000E-01	-2.36539000E-03
		 4.92976000E-03	 1.59220000E-01	-1.91717000E-02
		-1.08672000E-04	 1.45182000E-01	-2.18380000E-03
		 2.39694000E-03	 1.61928000E-01	-1.08682000E-02
		 5.01592000E-03	 1.44905000E-01	-1.89344000E-02
		-5.26225000E-03	 1.57287000E-01	 1.45274000E-02
		-5.24416000E-03	 1.62390000E-01	 1.43384000E-02
		-5.30759000E-03	 1.40371000E-01	 1.47562000E-02
		-2.71838000E-03	 1.57129000E-01	 6.11785000E-03
		-5.25455000E-03	 1.59835000E-01	 1.44405000E-02
		-5.23278000E-03	 1.45517000E-01	 1.45650000E-02
		-2.69439000E-03	 1.62235000E-01	 5.92527000E-03
		-1.22479000E-04	 1.67162000E-01	-2.68069000E-03
		 4.97119000E-03	 1.66865000E-01	-1.94834000E-02
		-1.35605000E-04	 1.64618000E-01	-2.57618000E-03
		 4.95721000E-03	 1.64319000E-01	-1.93833000E-02
		-8.43594000E-05	 1.50274000E-01	-2.39346000E-03
		 2.42320000E-03	 1.67016000E-01	-1.10754000E-02
		 4.98878000E-03	 1.50002000E-01	-1.91333000E-02
		-5.21763000E-03	 1.67482000E-01	 1.41219000E-02
		-5.22968000E-03	 1.64935000E-01	 1.42309000E-02
		-5.15726000E-03	 1.50611000E-01	 1.43450000E-02
		-2.66833000E-03	 1.67325000E-01	 5.71350000E-03
		 0.00000000E+00	 0.00000000E+00	 0.00000000E+00
		 0.00000000E+00	 0.00000000E+00	 0.00000000E+00
		-1.29414000E-04	-8.89236000E-03	 1.68109000E-04
		-2.10192000E-03	-9.47127000E-03	 8.75797000E-03
		 0.00000000E+00	 0.00000000E+00	 0.00000000E+00
		 0.00000000E+00	 0.00000000E+00	 0.00000000E+00
		-1.02103000E-04	-1.03370000E-02	 5.05543000E-05
		-1.02105000E-03	-1.09395000E-02	 8.74752000E-03
		 0.00000000E+00	 0.00000000E+00	 0.00000000E+00
		-4.93934000E-05	-1.96471000E-03	 9.33494000E-05
		-1.12045000E-03	-8.99092000E-03	 4.42199000E-03
		-1.77760000E-03	-2.76909000E-03	 4.56630000E-03
		 0.00000000E+00	 0.00000000E+00	 0.00000000E+00
		 0.00000000E+00	 0.00000000E+00	 0.00000000E+00
		-1.12622000E-04	-9.79842000E-03	 1.04974000E-04
		-1.55005000E-03	-1.03861000E-02	 8.66984000E-03
		 0.00000000E+00	 0.00000000E+00	 0.00000000E+00
		-2.77066000E-05	-2.98424000E-03	 3.21313000E-05
		-5.63891000E-04	-1.04392000E-02	 4.27137000E-03
		-4.69062000E-04	-3.76662000E-03	 4.39431000E-03
		 0.00000000E+00	 0.00000000E+00	 0.00000000E+00
		 1.84533000E-03	-9.23350000E-03	-8.44745000E-03
		 0.00000000E+00	 0.00000000E+00	 0.00000000E+00
		 8.29662000E-04	-1.07190000E-02	-8.67199000E-03
		 0.00000000E+00	 0.00000000E+00	 0.00000000E+00
		 1.68438000E-03	-2.63795000E-03	-4.38048000E-03
		 8.60576000E-04	-8.87174000E-03	-4.09544000E-03
		 0.00000000E+00	 0.00000000E+00	 0.00000000E+00
		 1.33317000E-03	-1.01555000E-02	-8.48484000E-03
		 0.00000000E+00	 0.00000000E+00	 0.00000000E+00
		 4.27329000E-04	-3.66767000E-03	-4.32904000E-03
		 3.60428000E-04	-1.03299000E-02	-4.18014000E-03
		 0.00000000E+00	 0.00000000E+00	 0.00000000E+00
		 0.00000000E+00	 0.00000000E+00	 0.00000000E+00
		-8.80778000E-05	-1.07385000E-02	-4.47155000E-05
		 5.93025000E-05	-1.12822000E-02	 8.55108000E-03
		 0.00000000E+00	 0.00000000E+00	 0.00000000E+00
		 0.00000000E+00	 0.00000000E+00	 0.00000000E+00
		-9.28175000E-05	-1.07199000E-02	-3.46053000E-07
		-4.86382000E-04	-1.12908000E-02	 8.73795000E-03
		 0.00000000E+00	 0.00000000E+00	 0.00000000E+00
		-2.37201000E-05	-2.85901000E-03	-7.63674000E-06
		-1.62083000E-05	-1.08168000E-02	 4.04015000E-03
		 8.55572000E-04	-3.59921000E-03	 4.46505000E-03
		 0.00000000E+00	 0.00000000E+00	 0.00000000E+00
		-2.14823000E-04	-1.10914000E-02	-8.65860000E-03
		 0.00000000E+00	 0.00000000E+00	 0.00000000E+00
		 3.15286000E-04	-1.10863000E-02	-8.76171000E-03
		 0.00000000E+00	 0.00000000E+00	 0.00000000E+00
		-8.84066000E-04	-3.52720000E-03	-4.48369000E-03
		-1.54378000E-04	-1.07257000E-02	-4.13530000E-03
		-3.88162000E-04	-3.29324000E-02	 1.10552000E-04
		-3.16188000E-03	-3.35740000E-02	 1.49885000E-02
		-3.51018000E-04	-3.53119000E-02	-1.05269000E-04
		-2.35362000E-03	-3.59471000E-02	 1.48125000E-02
		-2.42770000E-04	-1.93361000E-02	 1.76536000E-04
		-1.77661000E-03	-3.31698000E-02	 7.54012000E-03
		-2.61847000E-03	-2.00215000E-02	 1.21915000E-02
		-3.68780000E-04	-3.42070000E-02	-3.18189000E-06
		-2.75678000E-03	-3.48420000E-02	 1.48356000E-02
		-2.13319000E-04	-2.12464000E-02	 6.71952000E-06
		-1.34762000E-03	-3.55446000E-02	 7.28509000E-03
		-1.65126000E-03	-2.19157000E-02	 1.20621000E-02
		 2.39351000E-03	-3.30314000E-02	-1.47957000E-02
		 1.65588000E-03	-3.54292000E-02	-1.50488000E-02
		 2.13417000E-03	-1.96405000E-02	-1.18691000E-02
		 1.00130000E-03	-3.28982000E-02	-7.32605000E-03
		 2.02775000E-03	-3.43193000E-02	-1.48664000E-02
		 1.23562000E-03	-2.15564000E-02	-1.20779000E-02
		 6.51255000E-04	-3.52891000E-02	-7.49868000E-03
		-3.28973000E-04	-3.69319000E-02	-2.93676000E-04
		-1.53008000E-03	-3.75277000E-02	 1.45857000E-02
		-3.39041000E-04	-3.62038000E-02	-2.00283000E-04
		-1.93923000E-03	-3.68560000E-02	 1.47974000E-02
		-1.97383000E-04	-2.22184000E-02	-1.36306000E-04
		-9.38436000E-04	-3.71384000E-02	 6.97965000E-03
		-6.89734000E-04	-2.28692000E-02	 1.18818000E-02
		 9.09027000E-04	-3.70495000E-02	-1.51976000E-02
		 1.28232000E-03	-3.63236000E-02	-1.52260000E-02
		 3.25415000E-04	-2.25459000E-02	-1.21799000E-02
		 2.91053000E-04	-3.69084000E-02	-7.56848000E-03
		-6.91038000E-04	-6.72926000E-02	-2.69001000E-04
		-4.32275000E-03	-6.78056000E-02	 1.83950000E-02
		-6.46871000E-04	-7.07088000E-02	-5.25445000E-04
		-3.91643000E-03	-7.13322000E-02	 1.81897000E-02
		-5.41176000E-04	-4.91267000E-02	-3.83684000E-05
		-2.50091000E-03	-6.75001000E-02	 9.02405000E-03
		-3.73253000E-03	-4.97380000E-02	 1.70750000E-02
		-6.67513000E-04	-6.90498000E-02	-3.96447000E-04
		-4.12216000E-03	-6.96298000E-02	 1.82146000E-02
		-5.02143000E-04	-5.20175000E-02	-2.84919000E-04
		-2.30557000E-03	-7.09734000E-02	 8.70330000E-03
		-3.11453000E-03	-5.26349000E-02	 1.68815000E-02
		 2.90181000E-03	-6.70687000E-02	-1.89339000E-02
		 2.62088000E-03	-7.04987000E-02	-1.92749000E-02
		 2.64594000E-03	-4.90665000E-02	-1.71757000E-02
		 1.10580000E-03	-6.71371000E-02	-9.55464000E-03
		 2.75989000E-03	-6.88281000E-02	-1.90369000E-02
		 2.11714000E-03	-5.19567000E-02	-1.74740000E-02
		 9.88116000E-04	-7.05666000E-02	-9.77766000E-03
		-6.10669000E-04	-7.38012000E-02	-7.71688000E-04
		-3.60830000E-03	-7.45345000E-02	 1.78892000E-02
		-6.27904000E-04	-7.23132000E-02	-6.51382000E-04
		-3.76436000E-03	-7.28687000E-02	 1.81818000E-02
		-4.63291000E-04	-5.43397000E-02	-5.09505000E-04
		-2.08045000E-03	-7.41214000E-02	 8.28726000E-03
		-2.52599000E-03	-5.49693000E-02	 1.66094000E-02
		 2.34443000E-03	-7.36157000E-02	-1.94923000E-02
		 2.48295000E-03	-7.20937000E-02	-1.95198000E-02
		 1.56766000E-03	-5.42764000E-02	-1.76512000E-02
		 8.60413000E-04	-7.36841000E-02	-9.87754000E-03
		-8.69650000E-04	-1.05928000E-01	-8.69107000E-04
		-5.34762000E-03	-1.06139000E-01	 1.81606000E-02
		-8.30364000E-04	-1.10555000E-01	-1.09945000E-03
		-5.62390000E-03	-1.11222000E-01	 1.79643000E-02
		-8.33293000E-04	-8.65664000E-02	-5.57374000E-04
		-3.11161000E-03	-1.06062000E-01	 8.64304000E-03
		-4.86797000E-03	-8.70325000E-02	 1.86738000E-02
		-8.49849000E-04	-1.08180000E-01	-9.82040000E-04
		-5.47712000E-03	-1.08560000E-01	 1.80066000E-02
		-7.95648000E-04	-9.06074000E-02	-8.50156000E-04
		-3.10267000E-03	-1.10902000E-01	 8.36428000E-03
		-4.83081000E-03	-9.10216000E-02	 1.85189000E-02
		 3.43362000E-03	-1.05458000E-01	-1.98958000E-02
		 3.65955000E-03	-1.09914000E-01	-2.01536000E-02
		 3.17062000E-03	-8.62007000E-02	-1.97929000E-02
		 1.28574000E-03	-1.05729000E-01	-1.03788000E-02
		 3.54905000E-03	-1.07653000E-01	-1.99668000E-02
		 3.16595000E-03	-9.01917000E-02	-2.01189000E-02
		 1.40311000E-03	-1.10246000E-01	-1.05632000E-02
		-9.24509000E-04	-1.15385000E-01	-1.34347000E-03
		-5.75961000E-03	-1.16427000E-01	 1.76926000E-02
		-8.76319000E-04	-1.12905000E-01	-1.22101000E-03
		-5.69061000E-03	-1.14282000E-01	 1.79249000E-02
		-7.80968000E-04	-9.45961000E-02	-1.17072000E-03
		-3.45503000E-03	-1.15900000E-01	 8.01087000E-03
		-4.62598000E-03	-9.48982000E-02	 1.82037000E-02
		 3.90471000E-03	-1.14590000E-01	-2.03629000E-02