<?xml version="1.0"?>
<VTKFile type="UnstructuredGrid" version="0.1" byte_order="LittleEndian">
	<UnstructuredGrid>
		<Piece NumberOfPoints="522" NumberOfCells="64">
			<Points>
				<DataArray type="Float64" NumberOfComponents="3" format="ascii">
					 1.00000000E+00	 1.00000000E+00	-5.96046000E-08
					 1.00000000E+00	 5.00000000E-01	-5.96046000E-08
					 1.00000000E+00	 5.00000000E-01	 1.00000000E+00
					 1.00000000E+00	 1.00000000E+00	 1.00000000E+00
					 5.00000000E-01	 1.00000000E+00	-5.96046000E-08
					 5.00000000E-01	 5.00000000E-01	-5.96046000E-08
					 5.00000000E-01	 5.00000000E-01	 1.00000000E+00
					 5.00000000E-01	 1.00000000E+00	 1.00000000E+00
					 1.00000000E+00	 7.50000000E-01	-5.96046000E-08
					 1.00000000E+00	 5.00000000E-01	 5.00000000E-01
					 1.00000000E+00	 7.50000000E-01	 1.00000000E+00
					 1.00000000E+00	 1.00000000E+00	 5.00000000E-01
					 7.50000000E-01	 1.00000000E+00	-5.96046000E-08
					 7.50000000E-01	 5.00000000E-01	-5.96046000E-08
					 7.50000000E-01	 5.00000000E-01	 1.00000000E+00
					 7.50000000E-01	 1.00000000E+00	 1.00000000E+00
					 5.00000000E-01	 7.50000000E-01	-5.96046000E-08
					 5.00000000E-01	 5.00000000E-01	 5.00000000E-01
					 5.00000000E-01	 7.50000000E-01	 1.00000000E+00
					 5.00000000E-01	 1.00000000E+00	 5.00000000E-01
					 1.00000000E+00	-1.49012000E-08	-5.96046000E-08
					 1.00000000E+00	-1.49012000E-08	 1.00000000E+00
					 5.00000000E-01	-1.49012000E-08	-5.96046000E-08
					 5.00000000E-01	-1.49012000E-08	 1.00000000E+00
					 1.00000000E+00	 2.50000000E-01	-5.96046000E-08
					 1.00000000E+00	-1.49012000E-08	 5.00000000E-01
					 1.00000000E+00	 2.50000000E-01	 1.00000000E+00
					 7.50000000E-01	-1.49012000E-08	-5.96046000E-08
					 7.50000000E-01	-1.49012000E-08	 1.00000000E+00
					 5.00000000E-01	 2.50000000E-01	-5.96046000E-08
					 5.00000000E-01	-1.49012000E-08	 5.00000000E-01
					 5.00000000E-01	 2.50000000E-01	 1.00000000E+00
					-7.45058000E-09	 1.00000000E+00	-5.96046000E-08
					-7.45058000E-09	 5.00000000E-01	-5.96046000E-08
					-7.45058000E-09	 5.00000000E-01	 1.00000000E+00
					-7.45058000E-09	 1.00000000E+00	 1.00000000E+00
					 2.50000000E-01	 1.00000000E+00	-5.96046000E-08
					 2.50000000E-01	 5.00000000E-01	-5.96046000E-08
					 2.50000000E-01	 5.00000000E-01	 1.00000000E+00
					 2.50000000E-01	 1.00000000E+00	 1.00000000E+00
					-7.45058000E-09	 7.50000000E-01	-5.96046000E-08
					-7.45058000E-09	 5.00000000E-01	 5.00000000E-01
					-7.45058000E-09	 7.50000000E-01	 1.00000000E+00
					-7.45058000E-09	 1.00000000E+00	 5.00000000E-01
					-7.45058000E-09	-1.49012000E-08	-5.96046000E-08
					-7.45058000E-09	-1.49012000E-08	 1.00000000E+00
					 2.50000000E-01	-1.49012000E-08	-5.96046000E-08
					 2.50000000E-01	-1.49012000E-08	 1.00000000E+00
					-7.45058000E-09	 2.50000000E-01	-5.96046000E-08
					-7.45058000E-09	-1.49012000E-08	 5.00000000E-01
					-7.45058000E-09	 2.50000000E-01	 1.00000000E+00
					 1.00000000E+00	 5.00000000E-01	 2.00000000E+00
					 1.00000000E+00	 1.00000000E+00	 2.00000000E+00
					 5.00000000E-01	 5.00000000E-01	 2.00000000E+00
					 5.00000000E-01	 1.00000000E+00	 2.00000000E+00
					 1.00000000E+00	 5.00000000E-01	 1.50000000E+00
					 1.00000000E+00	 7.50000000E-01	 2.00000000E+00
					 1.00000000E+00	 1.00000000E+00	 1.50000000E+00
					 7.50000000E-01	 5.00000000E-01	 2.00000000E+00
					 7.50000000E-01	 1.00000000E+00	 2.00000000E+00
					 5.00000000E-01	 5.00000000E-01	 1.50000000E+00
					 5.00000000E-01	 7.50000000E-01	 2.00000000E+00
					 5.00000000E-01	 1.00000000E+00	 1.50000000E+00
					 1.00000000E+00	-1.49012000E-08	 2.00000000E+00
					 5.00000000E-01	-1.49012000E-08	 2.00000000E+00
					 1.00000000E+00	-1.49012000E-08	 1.50000000E+00
					 1.00000000E+00	 2.50000000E-01	 2.00000000E+00
					 7.50000000E-01	-1.49012000E-08	 2.00000000E+00
					 5.00000000E-01	-1.49012000E-08	 1.50000000E+00
					 5.00000000E-01	 2.50000000E-01	 2.00000000E+00
					-7.45058000E-09	 5.00000000E-01	 2.00000000E+00
					-7.45058000E-09	 1.00000000E+00	 2.00000000E+00
					 2.50000000E-01	 5.00000000E-01	 2.00000000E+00
					 2.50000000E-01	 1.00000000E+00	 2.00000000E+00
					-7.45058000E-09	 5.00000000E-01	 1.50000000E+00
					-7.45058000E-09	 7.50000000E-01	 2.00000000E+00
					-7.45058000E-09	 1.00000000E+00	 1.50000000E+00
					-7.45058000E-09	-1.49012000E-08	 2.00000000E+00
					 2.50000000E-01	-1.49012000E-08	 2.00000000E+00
					-7.45058000E-09	-1.49012000E-08	 1.50000000E+00
					-7.45058000E-09	 2.50000000E-01	 2.00000000E+00
					 1.00000000E+00	 5.00000000E-01	 3.00000000E+00
					 1.00000000E+00	 1.00000000E+00	 3.00000000E+00
					 5.00000000E-01	 5.00000000E-01	 3.00000000E+00
					 5.00000000E-01	 1.00000000E+00	 3.00000000E+00
					 1.00000000E+00	 5.00000000E-01	 2.50000000E+00
					 1.00000000E+00	 7.50000000E-01	 3.00000000E+00
					 1.00000000E+00	 1.00000000E+00	 2.50000000E+00
					 7.50000000E-01	 5.00000000E-01	 3.00000000E+00
					 7.50000000E-01	 1.00000000E+00	 3.00000000E+00
					 5.00000000E-01	 5.00000000E-01	 2.50000000E+00
					 5.00000000E-01	 7.50000000E-01	 3.00000000E+00
					 5.00000000E-01	 1.00000000E+00	 2.50000000E+00
					 1.00000000E+00	-1.49012000E-08	 3.00000000E+00
					 5.00000000E-01	-1.49012000E-08	 3.00000000E+00
					 1.00000000E+00	-1.49012000E-08	 2.50000000E+00
					 1.00000000E+00	 2.50000000E-01	 3.00000000E+00
					 7.50000000E-01	-1.49012000E-08	 3.00000000E+00
					 5.00000000E-01	-1.49012000E-08	 2.50000000E+00
					 5.00000000E-01	 2.50000000E-01	 3.00000000E+00
					-7.45058000E-09	 5.00000000E-01	 3.00000000E+00
					-7.45058000E-09	 1.00000000E+00	 3.00000000E+00
					 2.50000000E-01	 5.00000000E-01	 3.00000000E+00
					 2.50000000E-01	 1.00000000E+00	 3.00000000E+00
					-7.45058000E-09	 5.00000000E-01	 2.50000000E+00
					-7.45058000E-09	 7.50000000E-01	 3.00000000E+00
					-7.45058000E-09	 1.00000000E+00	 2.50000000E+00
					-7.45058000E-09	-1.49012000E-08	 3.00000000E+00
					 2.50000000E-01	-1.49012000E-08	 3.00000000E+00
					-7.45058000E-09	-1.49012000E-08	 2.50000000E+00
					-7.45058000E-09	 2.50000000E-01	 3.00000000E+00
					 1.00000000E+00	 5.00000000E-01	 4.00000000E+00
					 1.00000000E+00	 1.00000000E+00	 4.00000000E+00
					 5.00000000E-01	 5.00000000E-01	 4.00000000E+00
					 5.00000000E-01	 1.00000000E+00	 4.00000000E+00
					 1.00000000E+00	 5.00000000E-01	 3.50000000E+00
					 1.00000000E+00	 7.50000000E-01	 4.00000000E+00
					 1.00000000E+00	 1.00000000E+00	 3.50000000E+00
					 7.50000000E-01	 5.00000000E-01	 4.00000000E+00
					 7.50000000E-01	 1.00000000E+00	 4.00000000E+00
					 5.00000000E-01	 5.00000000E-01	 3.50000000E+00
					 5.00000000E-01	 7.50000000E-01	 4.00000000E+00
					 5.00000000E-01	 1.00000000E+00	 3.50000000E+00
					 1.00000000E+00	-1.49012000E-08	 4.00000000E+00
					 5.00000000E-01	-1.49012000E-08	 4.00000000E+00
					 1.00000000E+00	-1.49012000E-08	 3.50000000E+00
					 1.00000000E+00	 2.50000000E-01	 4.00000000E+00
					 7.50000000E-01	-1.49012000E-08	 4.00000000E+00
					 5.00000000E-01	-1.49012000E-08	 3.50000000E+00
					 5.00000000E-01	 2.50000000E-01	 4.00000000E+00
					-7.45058000E-09	 5.00000000E-01	 4.00000000E+00
					-7.45058000E-09	 1.00000000E+00	 4.00000000E+00
					 2.50000000E-01	 5.00000000E-01	 4.00000000E+00
					 2.50000000E-01	 1.00000000E+00	 4.00000000E+00
					-7.45058000E-09	 5.00000000E-01	 3.50000000E+00
					-7.45058000E-09	 7.50000000E-01	 4.00000000E+00
					-7.45058000E-09	 1.00000000E+00	 3.50000000E+00
					-7.45058000E-09	-1.49012000E-08	 4.00000000E+00
					 2.50000000E-01	-1.49012000E-08	 4.00000000E+00
					-7.45058000E-09	-1.49012000E-08	 3.50000000E+00
					-7.45058000E-09	 2.50000000E-01	 4.00000000E+00
					 1.00000000E+00	 5.00000000E-01	 5.00000000E+00
					 1.00000000E+00	 1.00000000E+00	 5.00000000E+00
					 5.00000000E-01	 5.00000000E-01	 5.00000000E+00
					 5.00000000E-01	 1.00000000E+00	 5.00000000E+00
					 1.00000000E+00	 5.00000000E-01	 4.50000000E+00
					 1.00000000E+00	 7.50000000E-01	 5.00000000E+00
					 1.00000000E+00	 1.00000000E+00	 4.50000000E+00
					 7.50000000E-01	 5.00000000E-01	 5.00000000E+00
					 7.50000000E-01	 1.00000000E+00	 5.00000000E+00
					 5.00000000E-01	 5.00000000E-01	 4.50000000E+00
					 5.00000000E-01	 7.50000000E-01	 5.00000000E+00
					 5.00000000E-01	 1.00000000E+00	 4.50000000E+00
					 1.00000000E+00	-1.49012000E-08	 5.00000000E+00
					 5.00000000E-01	-1.49012000E-08	 5.00000000E+00
					 1.00000000E+00	-1.49012000E-08	 4.50000000E+00
					 1.00000000E+00	 2.50000000E-01	 5.00000000E+00
					 7.50000000E-01	-1.49012000E-08	 5.00000000E+00
					 5.00000000E-01	-1.49012000E-08	 4.50000000E+00
					 5.00000000E-01	 2.50000000E-01	 5.00000000E+00
					-7.45058000E-09	 5.00000000E-01	 5.00000000E+00
					-7.45058000E-09	 1.00000000E+00	 5.00000000E+00
					 2.50000000E-01	 5.00000000E-01	 5.00000000E+00
					 2.50000000E-01	 1.00000000E+00	 5.00000000E+00
					-7.45058000E-09	 5.00000000E-01	 4.50000000E+00
					-7.45058000E-09	 7.50000000E-01	 5.00000000E+00
					-7.45058000E-09	 1.00000000E+00	 4.50000000E+00
					-7.45058000E-09	-1.49012000E-08	 5.00000000E+00
					 2.50000000E-01	-1.49012000E-08	 5.00000000E+00
					-7.45058000E-09	-1.49012000E-08	 4.50000000E+00
					-7.45058000E-09	 2.50000000E-01	 5.00000000E+00
					 1.00000000E+00	 5.00000000E-01	 6.00000000E+00
					 1.00000000E+00	 1.00000000E+00	 6.00000000E+00
					 5.00000000E-01	 5.00000000E-01	 6.00000000E+00
					 5.00000000E-01	 1.00000000E+00	 6.00000000E+00
					 1.00000000E+00	 5.00000000E-01	 5.50000000E+00
					 1.00000000E+00	 7.50000000E-01	 6.00000000E+00
					 1.00000000E+00	 1.00000000E+00	 5.50000000E+00
					 7.50000000E-01	 5.00000000E-01	 6.00000000E+00
					 7.50000000E-01	 1.00000000E+00	 6.00000000E+00
					 5.00000000E-01	 5.00000000E-01	 5.50000000E+00
					 5.00000000E-01	 7.50000000E-01	 6.00000000E+00
					 5.00000000E-01	 1.00000000E+00	 5.50000000E+00
					 1.00000000E+00	-1.49012000E-08	 6.00000000E+00
[...]
			<PointData>
				<DataArray type="Float32" Name="U" NumberOfComponents="3" ComponentName0="D1" ComponentName1="D2" ComponentName2="D3" format="ascii">
					 0.00000000E+00	 0.00000000E+00	 0.00000000E+00
					 0.00000000E+00	 0.00000000E+00	 0.00000000E+00
					-7.33620000E-06	-2.10990000E-04	 4.88398000E-06
					-1.38573000E-05	-1.98944000E-04	 5.16334000E-05
					 0.00000000E+00	 0.00000000E+00	 0.00000000E+00
					 0.00000000E+00	 0.00000000E+00	 0.00000000E+00
					-1.98745000E-06	-2.17570000E-04	-6.22912000E-06
					-1.39883000E-06	-2.10014000E-04	 7.24064000E-05
					 0.00000000E+00	 0.00000000E+00	 0.00000000E+00
					-4.46020000E-06	-9.33045000E-05	-1.08068000E-05
					-1.79501000E-06	-2.10944000E-04	-3.14707000E-05
					-2.37323000E-05	-7.03444000E-05	 7.34260000E-05
					 0.00000000E+00	 0.00000000E+00	 0.00000000E+00
					 0.00000000E+00	 0.00000000E+00	 0.00000000E+00
					 3.39457000E-06	-2.29135000E-04	-2.12343000E-05
					-5.56451000E-06	-2.05114000E-04	 1.10980000E-04
					 0.00000000E+00	 0.00000000E+00	 0.00000000E+00
					 7.46468000E-06	-7.43550000E-05	-7.13941000E-06
					-1.16514000E-05	-2.14221000E-04	 1.29893000E-05
					-8.74383000E-07	-9.87102000E-05	 5.97752000E-05
					 0.00000000E+00	 0.00000000E+00	 0.00000000E+00
					 8.12735000E-06	-2.14673000E-04	-7.87796000E-05
					 0.00000000E+00	 0.00000000E+00	 0.00000000E+00
					 1.34212000E-05	-2.22543000E-04	-8.57195000E-05
					 0.00000000E+00	 0.00000000E+00	 0.00000000E+00
					 4.58191000E-05	-5.89722000E-05	-4.53129000E-05
					 2.27336000E-07	-2.20601000E-04	-7.11528000E-06
					 0.00000000E+00	 0.00000000E+00	 0.00000000E+00
					-6.47983000E-06	-2.00068000E-04	-1.01204000E-04
					 0.00000000E+00	 0.00000000E+00	 0.00000000E+00
					-6.34704000E-06	-7.91709000E-05	-7.42675000E-05
					-3.73876000E-06	-2.15266000E-04	-1.25882000E-05
					 0.00000000E+00	 0.00000000E+00	 0.00000000E+00
					 0.00000000E+00	 0.00000000E+00	 0.00000000E+00
					-4.91490000E-07	-2.31781000E-04	-2.12866000E-05
					-2.32036000E-05	-2.10063000E-04	 6.62184000E-05
					 0.00000000E+00	 0.00000000E+00	 0.00000000E+00
					 0.00000000E+00	 0.00000000E+00	 0.00000000E+00
					-5.20660000E-06	-2.41523000E-04	-1.27445000E-05
					-1.88831000E-05	-2.28342000E-04	 4.71644000E-05
					 0.00000000E+00	 0.00000000E+00	 0.00000000E+00
					-2.28275000E-05	-8.64559000E-05	 3.27550000E-06
					-1.00480000E-06	-2.23571000E-04	 3.05038000E-05
					 1.40175000E-05	-9.45065000E-05	 2.90283000E-05
					 0.00000000E+00	 0.00000000E+00	 0.00000000E+00
					-5.47078000E-06	-2.01507000E-04	-7.07962000E-05
					 0.00000000E+00	 0.00000000E+00	 0.00000000E+00
					 2.08474000E-05	-2.33968000E-04	-7.50242000E-05
					 0.00000000E+00	 0.00000000E+00	 0.00000000E+00
					-3.05774000E-05	-5.75574000E-05	-7.50821000E-05
					-5.05065000E-06	-2.25605000E-04	-2.93756000E-05
					-1.04592000E-05	-2.38724000E-04	-1.11880000E-05
					 6.62141000E-05	-2.10191000E-04	-3.87752000E-04
					 8.83282000E-06	-2.61078000E-04	-6.81069000E-06
					-8.92666000E-05	-2.15116000E-04	-3.95043000E-04
					 1.43097000E-05	-3.63937000E-04	-4.69606000E-06
					 2.38837000E-05	-2.28671000E-04	-1.95782000E-04
					 3.24152000E-05	-3.63050000E-04	-9.75796000E-05
					-6.22421000E-06	-2.15900000E-04	 2.13557000E-05
					-1.26565000E-05	-1.96345000E-04	-4.11348000E-04
					-5.56583000E-06	-3.71315000E-04	-5.00968000E-06
					-2.26946000E-05	-2.51206000E-04	-2.26076000E-04
					-4.87364000E-05	-3.41391000E-04	-8.37328000E-05
					-7.61452000E-05	-2.03070000E-04	 4.12991000E-04
					 9.09361000E-05	-1.97702000E-04	 3.97898000E-04
					-4.06820000E-05	-3.42485000E-04	 6.89820000E-05
					-6.32306000E-06	-2.43010000E-04	 2.12882000E-04
					 9.19799000E-06	-1.34976000E-04	 4.21418000E-04
					 2.81671000E-05	-3.27804000E-04	 6.73195000E-05
					 4.11282000E-05	-2.49105000E-04	 2.00162000E-04
					 4.06680000E-07	-4.11347000E-04	 1.06728000E-05
					-2.06558000E-04	-3.65542000E-04	-4.05970000E-04
					 6.12867000E-06	-2.96598000E-04	 1.54776000E-05
					-1.53476000E-04	-2.27888000E-04	-3.74765000E-04
					 7.06174000E-06	-4.42462000E-04	 7.71186000E-06
					-9.16987000E-05	-4.16713000E-04	-2.32416000E-04
					-9.67276000E-05	-3.94135000E-04	-6.61670000E-05
					 2.33283000E-04	-3.51102000E-04	 4.07741000E-04
					 1.65365000E-04	-2.55151000E-04	 4.13192000E-04
					 1.11919000E-04	-4.35448000E-04	 9.13954000E-05
					 1.02573000E-04	-3.82139000E-04	 2.06316000E-04
					-1.26132000E-05	 1.96266000E-03	 4.81767000E-05
					-3.50893000E-04	 1.92593000E-03	-8.85000000E-04
					-8.03488000E-06	 1.58059000E-03	 6.09692000E-05
					-3.81936000E-04	 1.57845000E-03	-9.00500000E-04
					-8.18290000E-06	 6.67074000E-04	 2.45251000E-05
					-2.09157000E-04	 1.98833000E-03	-2.98526000E-04
					-8.77442000E-05	 6.53624000E-04	-7.41962000E-04
					 5.21014000E-06	 1.78502000E-03	 4.27282000E-05
					-3.96488000E-04	 1.77204000E-03	-9.45365000E-04
					-9.05201000E-07	 4.94037000E-04	 3.19255000E-05
					-1.95414000E-04	 1.56650000E-03	-3.43204000E-04
					-2.14336000E-04	 5.16658000E-04	-7.46799000E-04
					 3.64210000E-04	 1.95644000E-03	 9.58385000E-04
					 3.91234000E-04	 1.55477000E-03	 1.00730000E-03
					 8.82529000E-05	 6.86003000E-04	 7.83762000E-04
					 1.99008000E-04	 1.95526000E-03	 3.71018000E-04
					 3.71013000E-04	 1.78485000E-03	 1.04192000E-03
					 2.06856000E-04	 5.15649000E-04	 8.18640000E-04
					 1.79241000E-04	 1.58745000E-03	 4.57472000E-04
					 2.05220000E-05	 1.18897000E-03	 5.81797000E-05
					-3.98476000E-04	 1.17242000E-03	-8.52702000E-04
					 9.10372000E-06	 1.41949000E-03	 4.15143000E-05
					-3.91260000E-04	 1.38509000E-03	-8.81560000E-04
					 8.77274000E-06	 2.32234000E-04	 1.80263000E-05
					-1.70076000E-04	 1.19181000E-03	-3.70547000E-04
					-3.16863000E-04	 2.57721000E-04	-7.38499000E-04
					 4.14322000E-04	 1.18703000E-03	 9.71014000E-04
					 4.06232000E-04	 1.41019000E-03	 9.37632000E-04
					 3.24549000E-04	 2.83706000E-04	 8.00923000E-04
					 1.71539000E-04	 1.17854000E-03	 4.75879000E-04
					 1.12730000E-05	 4.53780000E-03	 3.71154000E-05
					-1.31825000E-03	 4.42852000E-03	 2.53705000E-04
					-6.11587000E-06	 3.46241000E-03	-7.70078000E-06
					-9.11009000E-04	 3.31827000E-03	 2.26659000E-04
					-1.56680000E-07	 3.57241000E-03	 3.51011000E-05
					-6.01074000E-04	 4.49269000E-03	 2.12958000E-04
					-8.26444000E-04	 3.51031000E-03	-5.31316000E-04
					-2.40693000E-06	 3.94102000E-03	 1.01340000E-05
					-1.08751000E-03	 3.79811000E-03	 2.12320000E-04
					 9.28327000E-06	 2.82584000E-03	 3.48362000E-05
					-4.70255000E-04	 3.43115000E-03	 1.47765000E-04
					-6.53036000E-04	 2.75185000E-03	-5.75493000E-04
					 1.31661000E-03	 4.42380000E-03	-2.01371000E-04
					 8.96985000E-04	 3.29694000E-03	-2.18170000E-04
					 8.57407000E-04	 3.48822000E-03	 6.11188000E-04
					 6.10737000E-04	 4.51045000E-03	-1.55084000E-04
					 1.10374000E-03	 3.76912000E-03	-1.87324000E-04
					 6.90236000E-04	 2.75349000E-03	 6.18651000E-04
					 4.45965000E-04	 3.40599000E-03	-1.28807000E-04
					-3.25533000E-05	 2.72747000E-03	-4.10608000E-05
					-5.79521000E-04	 2.57496000E-03	 2.12645000E-04
					-1.64960000E-05	 3.01108000E-03	-1.64945000E-05
					-7.52530000E-04	 2.86146000E-03	 2.38651000E-04
					-4.01191000E-06	 2.24503000E-03	 4.09355000E-05
					-3.29441000E-04	 2.68628000E-03	 1.33276000E-04
					-4.52776000E-04	 2.18430000E-03	-5.66634000E-04
					 5.44387000E-04	 2.54608000E-03	-2.63411000E-04
					 7.22717000E-04	 2.87191000E-03	-2.68474000E-04
					 4.58477000E-04	 2.17165000E-03	 5.83791000E-04
					 2.80799000E-04	 2.65934000E-03	-1.28514000E-04
					-1.34921000E-06	 2.03111000E-03	-1.72636000E-05
					-1.46501000E-03	 1.87893000E-03	 2.27192000E-03
					 1.86423000E-05	 7.53175000E-04	-2.79740000E-06
					-1.12250000E-03	 5.87383000E-04	 2.30848000E-03
					 1.08514000E-06	 3.85131000E-03	 4.22382000E-06
					-7.17414000E-04	 1.96461000E-03	 1.10047000E-03
					-1.43721000E-03	 3.73437000E-03	 1.31373000E-03
					-1.59757000E-05	 1.36644000E-03	-6.96227000E-07
					-1.27170000E-03	 1.19252000E-03	 2.28367000E-03
					-1.96108000E-05	 2.65827000E-03	-1.62471000E-05
					-5.46396000E-04	 7.19592000E-04	 1.10062000E-03
					-1.06823000E-03	 2.50955000E-03	 1.28530000E-03
					 1.38191000E-03	 1.89390000E-03	-2.29331000E-03
					 1.10551000E-03	 6.66079000E-04	-2.29654000E-03
					 1.36136000E-03	 3.73869000E-03	-1.27985000E-03
					 6.74174000E-04	 2.00259000E-03	-1.12644000E-03
					 1.27193000E-03	 1.22563000E-03	-2.30624000E-03
					 1.01137000E-03	 2.52595000E-03	-1.29219000E-03
					 5.63504000E-04	 7.33651000E-04	-1.12758000E-03
					 2.95379000E-06	-2.38040000E-04	 2.32223000E-05
					-8.74305000E-04	-3.88630000E-04	 2.30337000E-03
					 1.59607000E-05	 2.31044000E-04	 1.26117000E-05
					-9.93801000E-04	 8.24488000E-05	 2.31012000E-03
					-1.04202000E-05	 1.80503000E-03	-2.07573000E-05
					-4.18067000E-04	-2.87583000E-04	 1.09508000E-03
					-7.57810000E-04	 1.63457000E-03	 1.28662000E-03
					 9.22487000E-04	-3.80106000E-04	-2.28467000E-03
					 9.98041000E-04	 1.22004000E-04	-2.27359000E-03
					 6.65935000E-04	 1.64593000E-03	-1.30623000E-03
					 4.49018000E-04	-2.66571000E-04	-1.09191000E-03
					 1.85946000E-05	-4.57703000E-03	 1.52952000E-05
					-1.05365000E-03	-4.65719000E-03	 3.53721000E-03
					-6.06483000E-06	-5.62067000E-03	-1.84060000E-05
					-1.01019000E-03	-5.69311000E-03	 3.48061000E-03
					-3.89699000E-06	-9.63139000E-04	 1.52463000E-05
					-5.27926000E-04	-4.59933000E-03	 1.73394000E-03
					-1.25020000E-03	-1.05859000E-03	 2.99798000E-03
					 9.54224000E-06	-5.13795000E-03	-1.02272000E-05
					-1.03755000E-03	-5.15943000E-03	 3.54028000E-03
					 1.90318000E-05	-2.13657000E-03	 2.22428000E-06
					-4.90152000E-04	-5.65011000E-03	 1.73454000E-03
					-1.04672000E-03	-2.25435000E-03	 3.04002000E-03
					 1.07775000E-03	-4.60641000E-03	-3.45969000E-03
					 1.04342000E-03	-5.67190000E-03	-3.49078000E-03
					 1.28738000E-03	-1.01809000E-03	-2.98331000E-03
					 5.70573000E-04	-4.55518000E-03	-1.68015000E-03
					 1.04755000E-03	-5.15559000E-03	-3.51291000E-03
					 1.12328000E-03	-2.22356000E-03	-3.02338000E-03
					 5.14485000E-04	-5.62981000E-03	-1.71108000E-03
					-2.10138000E-05	-6.56734000E-03	-3.47908000E-05
					-8.23506000E-04	-6.56833000E-03	 3.46640000E-03
					-1.31494000E-05	-6.10602000E-03	-3.14228000E-05
					-9.40059000E-04	-6.16119000E-03	 3.49459000E-03
					 3.39753000E-05	-3.13894000E-03	-8.72522000E-06
					-4.19418000E-04	-6.56176000E-03	 1.64736000E-03
					-8.80144000E-04	-3.23943000E-03	 3.00609000E-03
					 8.90572000E-04	-6.64806000E-03	-3.52297000E-03
					 9.71392000E-04	-6.17324000E-03	-3.51401000E-03
					 9.72208000E-04	-3.22519000E-03	-2.98788000E-03
					 4.26022000E-04	-6.58429000E-03	-1.76641000E-03
					 1.74113000E-05	-1.23043000E-02	-1.04940000E-04
					-9.75558000E-04	-1.23655000E-02	 3.79386000E-03
					 3.89627000E-05	-1.34186000E-02	-9.21649000E-05
					-1.07246000E-03	-1.34034000E-02	 3.85188000E-03
					 2.86896000E-06	-8.37672000E-03	-5.82261000E-05
					-4.98095000E-04	-1.23345000E-02	 1.88285000E-03
					-1.05683000E-03	-8.41688000E-03	 3.69141000E-03
					 7.22485000E-06	-1.28472000E-02	-8.95473000E-05
					-1.00605000E-03	-1.28929000E-02	 3.84918000E-03
					 1.16408000E-06	-9.42417000E-03	-4.15375000E-05
					-5.19033000E-04	-1.33776000E-02	 1.85610000E-03
					-1.02751000E-03	-9.44885000E-03	 3.68807000E-03
					 1.08386000E-03	-1.22954000E-02	-4.12044000E-03
					 1.11079000E-03	-1.34074000E-02	-3.97095000E-03
					 1.08273000E-03	-8.42106000E-03	-3.85630000E-03
					 5.83636000E-04	-1.22995000E-02	-2.08764000E-03
					 1.11545000E-03	-1.28267000E-02	-4.02959000E-03
					 1.02412000E-03	-9.45372000E-03	-3.79531000E-03
					 5.65864000E-04	-1.34202000E-02	-2.03893000E-03
					 6.18293000E-05	-1.44173000E-02	-5.98230000E-05
					-1.00731000E-03	-1.43921000E-02	 3.90482000E-03
					 6.07743000E-05	-1.39204000E-02	-7.60402000E-05
					-1.04120000E-03	-1.39285000E-02	 3.87183000E-03
					-1.14442000E-06	-1.04158000E-02	-5.25317000E-06
					-4.65689000E-04	-1.43959000E-02	 1.91545000E-03
					-9.59452000E-04	-1.04806000E-02	 3.74584000E-03
					 1.11440000E-03	-1.44477000E-02	-3.98421000E-03
					 1.09700000E-03	-1.38926000E-02	-3.99451000E-03
					 1.00510000E-03	-1.05006000E-02	-3.80944000E-03
					 5.24212000E-04	-1.44356000E-02	-1.98928000E-03
					 1.59968000E-04	-2.05434000E-02	-2.93804000E-04
					-1.05075000E-03	-2.06559000E-02	 4.09257000E-03
					 6.10894000E-05	-2.14802000E-02	-7.57707000E-05
					-1.17159000E-03	-2.16784000E-02	 4.15127000E-03
					-3.03885000E-05	-1.64074000E-02	-1.47163000E-04
					-4.36663000E-04	-2.05757000E-02	 1.85433000E-03
					-1.03381000E-03	-1.64188000E-02	 3.95902000E-03
					 9.94793000E-05	-2.09543000E-02	-1.69204000E-04
					-1.11947000E-03	-2.11342000E-02	 4.07182000E-03
					 9.14620000E-06	-1.74160000E-02	-8.14315000E-05
					-5.63626000E-04	-2.15961000E-02	 1.98803000E-03
					-1.02103000E-03	-1.73925000E-02	 4.00509000E-03
					 9.57625000E-04	-2.02821000E-02	-3.97747000E-03
					 1.07491000E-03	-2.14529000E-02	-4.15137000E-03
					 1.05552000E-03	-1.62768000E-02	-4.06680000E-03
					 5.20552000E-04	-2.04133000E-02	-2.14637000E-03
					 1.00887000E-03	-2.09463000E-02	-4.11889000E-03
					 1.04197000E-03	-1.74349000E-02	-4.07615000E-03
					 5.52790000E-04	-2.14630000E-02	-2.11351000E-03
					 2.04445000E-05	-2.25515000E-02	-2.65748000E-06
					-1.17767000E-03	-2.25891000E-02	 3.91174000E-03
					 5.19258000E-05	-2.19750000E-02	-2.86054000E-05
					-1.16378000E-03	-2.21086000E-02	 4.05636000E-03
					 4.46607000E-05	-1.84713000E-02	-9.01983000E-05
					-5.97362000E-04	-2.25836000E-02	 1.94313000E-03
					-1.04993000E-03	-1.85455000E-02	 3.93272000E-03
					 9.92880000E-04	-2.22349000E-02	-3.96823000E-03
					 1.04407000E-03	-2.18776000E-02	-4.04687000E-03
					 1.01719000E-03	-1.84083000E-02	-4.03760000E-03
					 5.95281000E-04	-2.23748000E-02	-2.02955000E-03
					 0.00000000E+00	 0.00000000E+00	 0.00000000E+00
					 0.00000000E+00	 0.00000000E+00	 0.00000000E+00
					 3.86957000E-05	-1.29098000E-02	-2.19055000E-04
					-3.19820000E-03	-1.39685000E-02	 1.38113000E-02
					 0.00000000E+00	 0.00000000E+00	 0.00000000E+00
					 0.00000000E+00	 0.00000000E+00	 0.00000000E+00
					 1.03926000E-04	-1.50727000E-02	-2.13247000E-04
					-1.20340000E-03	-1.62874000E-02	 1.38741000E-02
					 0.00000000E+00	 0.00000000E+00	 0.00000000E+00
					 4.56776000E-05	-2.34795000E-03	-1.00763000E-04
					-1.53489000E-03	-1.31041000E-02	 6.85205000E-03
					-2.65722000E-03	-3.64958000E-03	 6.96112000E-03
					 0.00000000E+00	 0.00000000E+00	 0.00000000E+00
					 0.00000000E+00	 0.00000000E+00	 0.00000000E+00
					 9.58252000E-05	-1.42929000E-02	-2.41380000E-04
					-2.20671000E-03	-1.54999000E-02	 1.36557000E-02
					 0.00000000E+00	 0.00000000E+00	 0.00000000E+00
					 3.66353000E-07	-3.91925000E-03	-7.20094000E-05
					-6.06711000E-04	-1.53520000E-02	 6.73719000E-03
					-5.50260000E-04	-5.20317000E-03	 6.66593000E-03
					 0.00000000E+00	 0.00000000E+00	 0.00000000E+00
					 3.29354000E-03	-1.36273000E-02	-1.43014000E-02
					 0.00000000E+00	 0.00000000E+00	 0.00000000E+00
					 1.35457000E-03	-1.58073000E-02	-1.44895000E-02
					 0.00000000E+00	 0.00000000E+00	 0.00000000E+00
					 2.72376000E-03	-3.51387000E-03	-7.06974000E-03
					 1.64545000E-03	-1.29295000E-02	-7.31454000E-03
					 0.00000000E+00	 0.00000000E+00	 0.00000000E+00
					 2.31859000E-03	-1.50638000E-02	-1.42173000E-02
					 0.00000000E+00	 0.00000000E+00	 0.00000000E+00
					 5.82228000E-04	-4.99505000E-03	-6.88089000E-03
					 7.53053000E-04	-1.50938000E-02	-7.22104000E-03
					 0.00000000E+00	 0.00000000E+00	 0.00000000E+00
					 0.00000000E+00	 0.00000000E+00	 0.00000000E+00
					 3.21023000E-05	-1.53924000E-02	-2.21453000E-04
					 6.95031000E-04	-1.64368000E-02	 1.37718000E-02
					 0.00000000E+00	 0.00000000E+00	 0.00000000E+00
					 0.00000000E+00	 0.00000000E+00	 0.00000000E+00
					 5.52337000E-05	-1.55390000E-02	-2.43345000E-04
					-2.39403000E-04	-1.65929000E-02	 1.39597000E-02
					 0.00000000E+00	 0.00000000E+00	 0.00000000E+00
					-6.54818000E-05	-3.47370000E-03	-2.93129000E-05
					 4.03191000E-04	-1.55763000E-02	 6.53302000E-03
					 1.51637000E-03	-4.76527000E-03	 6.92296000E-03
					 0.00000000E+00	 0.00000000E+00	 0.00000000E+00
					-5.00550000E-04	-1.60435000E-02	-1.43799000E-02
					 0.00000000E+00	 0.00000000E+00	 0.00000000E+00
					 4.18840000E-04	-1.61766000E-02	-1.45738000E-02
					 0.00000000E+00	 0.00000000E+00	 0.00000000E+00
					-1.53768000E-03	-4.63858000E-03	-7.12639000E-03
					-2.44960000E-04	-1.53886000E-02	-7.03538000E-03
					 2.07292000E-05	-5.36909000E-02	-1.02300000E-03
					-4.20588000E-03	-5.50924000E-02	 2.51397000E-02
					 1.78946000E-04	-5.71162000E-02	-1.26672000E-03
					-2.43154000E-03	-5.86474000E-02	 2.51286000E-02
					 1.36356000E-04	-3.01603000E-02	-5.13818000E-04
					-2.04567000E-03	-5.42114000E-02	 1.20499000E-02
					-3.76107000E-03	-3.14709000E-02	 1.99069000E-02
					 8.39634000E-05	-5.55976000E-02	-1.13749000E-03
					-3.30719000E-03	-5.71118000E-02	 2.50870000E-02
					 1.00163000E-04	-3.29834000E-02	-6.32621000E-04
					-1.12891000E-03	-5.76836000E-02	 1.18661000E-02
					-1.83439000E-03	-3.43579000E-02	 1.99168000E-02
					 4.42191000E-03	-5.37792000E-02	-2.75247000E-02
					 2.77700000E-03	-5.72066000E-02	-2.77216000E-02
					 3.87646000E-03	-3.05929000E-02	-2.11048000E-02
					 2.24604000E-03	-5.35543000E-02	-1.42555000E-02
					 3.60205000E-03	-5.56765000E-02	-2.75326000E-02
					 2.01048000E-03	-3.34809000E-02	-2.13105000E-02
					 1.48953000E-03	-5.69912000E-02	-1.43979000E-02
					 2.21159000E-04	-5.89428000E-02	-1.23789000E-03
					-7.35466000E-04	-6.04937000E-02	 2.50829000E-02
					 2.15688000E-04	-5.82610000E-02	-1.25427000E-03
					-1.57819000E-03	-5.98069000E-02	 2.51848000E-02
					 9.31803000E-05	-3.39840000E-02	-6.06516000E-04
					-2.88342000E-04	-5.95240000E-02	 1.17185000E-02
					-8.09507000E-05	-3.54253000E-02	 1.98871000E-02
					 1.21151000E-03	-5.89719000E-02	-2.76860000E-02
					 1.98729000E-03	-5.83184000E-02	-2.78350000E-02
					 2.18689000E-04	-3.45702000E-02	-2.11621000E-02
					 7.17554000E-04	-5.87572000E-02	-1.42507000E-02
					 3.31471000E-04	-1.17090000E-01	-3.16367000E-03
					-4.59106000E-03	-1.18801000E-01	 3.21950000E-02
					 3.88363000E-04	-1.21468000E-01	-3.33671000E-03
					-3.52380000E-03	-1.23334000E-01	 3.21976000E-02
					 2.34107000E-04	-8.30330000E-02	-1.98348000E-03
					-2.12684000E-03	-1.17783000E-01	 1.43583000E-02
					-4.40394000E-03	-8.47078000E-02	 2.93290000E-02
					 3.84992000E-04	-1.19450000E-01	-3.24854000E-03
					-4.07225000E-03	-1.21233000E-01	 3.21697000E-02
					 2.38290000E-04	-8.70102000E-02	-2.12153000E-03
					-1.58571000E-03	-1.22280000E-01	 1.42020000E-02
					-2.99054000E-03	-8.86346000E-02	 2.92834000E-02
					 5.32939000E-03	-1.16187000E-01	-3.85548000E-02
					 4.13157000E-03	-1.20765000E-01	-3.88430000E-02
					 5.05616000E-03	-8.25853000E-02	-3.33558000E-02
					 2.72780000E-03	-1.16600000E-01	-2.06845000E-02
					 4.67994000E-03	-1.18695000E-01	-3.87482000E-02
					 3.57553000E-03	-8.66914000E-02	-3.36215000E-02
					 2.26959000E-03	-1.20978000E-01	-2.08837000E-02
					 3.68272000E-04	-1.24853000E-01	-3.45178000E-03
					-2.38007000E-03	-1.26740000E-01	 3.19499000E-02
					 3.83781000E-04	-1.23339000E-01	-3.40122000E-03
					-2.96126000E-03	-1.25184000E-01	 3.21839000E-02
					 2.60944000E-04	-8.95664000E-02	-2.22415000E-03
					-1.05826000E-03	-1.25655000E-01	 1.39113000E-02
					-1.53105000E-03	-9.12132000E-02	 2.91847000E-02
					 3.23709000E-03	-1.24033000E-01	-3.89355000E-02
					 3.69223000E-03	-1.22519000E-01	-3.90730000E-02
					 2.15206000E-03	-8.92646000E-02	-3.36783000E-02
					 1.82465000E-03	-1.24373000E-01	-2.08855000E-02
					 6.65646000E-04	-1.94580000E-01	-6.14459000E-03
					-4.25453000E-03	-1.96400000E-01	 3.28865000E-02