<?xml version="1.0"?>
<VTKFile type="UnstructuredGrid" version="0.1" byte_order="LittleEndian">
	<UnstructuredGrid>
		<Piece NumberOfPoints="522" NumberOfCells="64">
			<Points>
				<DataArray type="Float64" NumberOfComponents="3" format="ascii">
					 1.00000000E+00	 1.00000000E+00	-5.96046000E-08
					 1.00000000E+00	 5.00000000E-01	-5.96046000E-08
					 1.00000000E+00	 5.00000000E-01	 1.00000000E+00
					 1.00000000E+00	 1.00000000E+00	 1.00000000E+00
					 5.00000000E-01	 1.00000000E+00	-5.96046000E-08
					 5.00000000E-01	 5.00000000E-01	-5.96046000E-08
					 5.00000000E-01	 5.00000000E-01	 1.00000000E+00
					 5.00000000E-01	 1.00000000E+00	 1.00000000E+00
					 1.00000000E+00	 7.50000000E-01	-5.96046000E-08
					 1.00000000E+00	 5.00000000E-01	 5.00000000E-01
					 1.00000000E+00	 7.50000000E-01	 1.00000000E+00
					 1.00000000E+00	 1.00000000E+00	 5.00000000E-01
					 7.50000000E-01	 1.00000000E+00	-5.96046000E-08
					 7.50000000E-01	 5.00000000E-01	-5.96046000E-08
					 7.50000000E-01	 5.00000000E-01	 1.00000000E+00
					 7.50000000E-01	 1.00000000E+00	 1.00000000E+00
					 5.00000000E-01	 7.50000000E-01	-5.96046000E-08
					 5.00000000E-01	 5.00000000E-01	 5.00000000E-01
					 5.00000000E-01	 7.50000000E-01	 1.00000000E+00
					 5.00000000E-01	 1.00000000E+00	 5.00000000E-01
					 1.00000000E+00	-1.49012000E-08	-5.96046000E-08
					 1.00000000E+00	-1.49012000E-08	 1.00000000E+00
					 5.00000000E-01	-1.49012000E-08	-5.96046000E-08
					 5.00000000E-01	-1.49012000E-08	 1.00000000E+00
					 1.00000000E+00	 2.50000000E-01	-5.96046000E-08
					 1.00000000E+00	-1.49012000E-08	 5.00000000E-01
					 1.00000000E+00	 2.50000000E-01	 1.00000000E+00
					 7.50000000E-01	-1.49012000E-08	-5.96046000E-08
					 7.50000000E-01	-1.49012000E-08	 1.00000000E+00
					 5.00000000E-01	 2.50000000E-01	-5.96046000E-08
					 5.00000000E-01	-1.49012000E-08	 5.00000000E-01
					 5.00000000E-01	 2.50000000E-01	 1.00000000E+00
					-7.45058000E-09	 1.00000000E+00	-5.96046000E-08
					-7.45058000E-09	 5.00000000E-01	-5.96046000E-08
					-7.45058000E-09	 5.00000000E-01	 1.00000000E+00
					-7.45058000E-09	 1.00000000E+00	 1.00000000E+00
					 2.50000000E-01	 1.00000000E+00	-5.96046000E-08
					 2.50000000E-01	 5.00000000E-01	-5.96046000E-08
					 2.50000000E-01	 5.00000000E-01	 1.00000000E+00
					 2.50000000E-01	 1.00000000E+00	 1.00000000E+00
					-7.45058000E-09	 7.50000000E-01	-5.96046000E-08
					-7.45058000E-09	 5.00000000E-01	 5.00000000E-01
					-7.45058000E-09	 7.50000000E-01	 1.00000000E+00
					-7.45058000E-09	 1.00000000E+00	 5.00000000E-01
					-7.45058000E-09	-1.49012000E-08	-5.96046000E-08
					-7.45058000E-09	-1.49012000E-08	 1.00000000E+00
					 2.50000000E-01	-1.49012000E-08	-5.96046000E-08
					 2.50000000E-01	-1.49012000E-08	 1.00000000E+00
					-7.45058000E-09	 2.50000000E-01	-5.96046000E-08
					-7.45058000E-09	-1.49012000E-08	 5.00000000E-01
					-7.45058000E-09	 2.50000000E-01	 1.00000000E+00
					 1.00000000E+00	 5.00000000E-01	 2.00000000E+00
					 1.00000000E+00	 1.00000000E+00	 2.00000000E+00
					 5.00000000E-01	 5.00000000E-01	 2.00000000E+00
					 5.00000000E-01	 1.00000000E+00	 2.00000000E+00
					 1.00000000E+00	 5.00000000E-01	 1.50000000E+00
					 1.00000000E+00	 7.50000000E-01	 2.00000000E+00
					 1.00000000E+00	 1.00000000E+00	 1.50000000E+00
					 7.50000000E-01	 5.00000000E-01	 2.00000000E+00
					 7.50000000E-01	 1.00000000E+00	 2.00000000E+00
					 5.00000000E-01	 5.00000000E-01	 1.50000000E+00
					 5.00000000E-01	 7.50000000E-01	 2.00000000E+00
					 5.00000000E-01	 1.00000000E+00	 1.50000000E+00
					 1.00000000E+00	-1.49012000E-08	 2.00000000E+00
					 5.00000000E-01	-1.49012000E-08	 2.00000000E+00
					 1.00000000E+00	-1.49012000E-08	 1.50000000E+00
					 1.00000000E+00	 2.50000000E-01	 2.00000000E+00
					 7.50000000E-01	-1.49012000E-08	 2.00000000E+00
					 5.00000000E-01	-1.49012000E-08	 1.50000000E+00
					 5.00000000E-01	 2.50000000E-01	 2.00000000E+00
					-7.45058000E-09	 5.00000000E-01	 2.00000000E+00
					-7.45058000E-09	 1.00000000E+00	 2.00000000E+00
					 2.50000000E-01	 5.00000000E-01	 2.00000000E+00
					 2.50000000E-01	 1.00000000E+00	 2.00000000E+00
					-7.45058000E-09	 5.00000000E-01	 1.50000000E+00
					-7.45058000E-09	 7.50000000E-01	 2.00000000E+00
					-7.45058000E-09	 1.00000000E+00	 1.50000000E+00
					-7.45058000E-09	-1.49012000E-08	 2.00000000E+00
					 2.50000000E-01	-1.49012000E-08	 2.00000000E+00
					-7.45058000E-09	-1.49012000E-08	 1.50000000E+00
					-7.45058000E-09	 2.50000000E-01	 2.00000000E+00
					 1.00000000E+00	 5.00000000E-01	 3.00000000E+00
					 1.00000000E+00	 1.00000000E+00	 3.00000000E+00
					 5.00000000E-01	 5.00000000E-01	 3.00000000E+00
					 5.00000000E-01	 1.00000000E+00	 3.00000000E+00
					 1.00000000E+00	 5.00000000E-01	 2.50000000E+00
					 1.00000000E+00	 7.50000000E-01	 3.00000000E+00
					 1.00000000E+00	 1.00000000E+00	 2.50000000E+00
					 7.50000000E-01	 5.00000000E-01	 3.00000000E+00
					 7.50000000E-01	 1.00000000E+00	 3.00000000E+00
					 5.00000000E-01	 5.00000000E-01	 2.50000000E+00
					 5.00000000E-01	 7.50000000E-01	 3.00000000E+00
					 5.00000000E-01	 1.00000000E+00	 2.50000000E+00
					 1.00000000E+00	-1.49012000E-08	 3.00000000E+00
					 5.00000000E-01	-1.49012000E-08	 3.00000000E+00
					 1.00000000E+00	-1.49012000E-08	 2.50000000E+00
					 1.00000000E+00	 2.50000000E-01	 3.00000000E+00
					 7.50000000E-01	-1.49012000E-08	 3.00000000E+00
					 5.00000000E-01	-1.49012000E-08	 2.50000000E+00
					 5.00000000E-01	 2.50000000E-01	 3.00000000E+00
					-7.45058000E-09	 5.00000000E-01	 3.00000000E+00
					-7.45058000E-09	 1.00000000E+00	 3.00000000E+00
					 2.50000000E-01	 5.00000000E-01	 3.00000000E+00
					 2.50000000E-01	 1.00000000E+00	 3.00000000E+00
					-7.45058000E-09	 5.00000000E-01	 2.50000000E+00
					-7.45058000E-09	 7.50000000E-01	 3.00000000E+00
					-7.45058000E-09	 1.00000000E+00	 2.50000000E+00
					-7.45058000E-09	-1.49012000E-08	 3.00000000E+00
					 2.50000000E-01	-1.49012000E-08	 3.00000000E+00
					-7.45058000E-09	-1.49012000E-08	 2.50000000E+00
					-7.45058000E-09	 2.50000000E-01	 3.00000000E+00
					 1.00000000E+00	 5.00000000E-01	 4.00000000E+00
					 1.00000000E+00	 1.00000000E+00	 4.00000000E+00
					 5.00000000E-01	 5.00000000E-01	 4.00000000E+00
					 5.00000000E-01	 1.00000000E+00	 4.00000000E+00
					 1.00000000E+00	 5.00000000E-01	 3.50000000E+00
					 1.00000000E+00	 7.50000000E-01	 4.00000000E+00
					 1.00000000E+00	 1.00000000E+00	 3.50000000E+00
					 7.50000000E-01	 5.00000000E-01	 4.00000000E+00
					 7.50000000E-01	 1.00000000E+00	 4.00000000E+00
					 5.00000000E-01	 5.00000000E-01	 3.50000000E+00
					 5.00000000E-01	 7.50000000E-01	 4.00000000E+00
					 5.00000000E-01	 1.00000000E+00	 3.50000000E+00
					 1.00000000E+00	-1.49012000E-08	 4.00000000E+00
					 5.00000000E-01	-1.49012000E-08	 4.00000000E+00
					 1.00000000E+00	-1.49012000E-08	 3.50000000E+00
					 1.00000000E+00	 2.50000000E-01	 4.00000000E+00
					 7.50000000E-01	-1.49012000E-08	 4.00000000E+00
					 5.00000000E-01	-1.49012000E-08	 3.50000000E+00
					 5.00000000E-01	 2.50000000E-01	 4.00000000E+00
					-7.45058000E-09	 5.00000000E-01	 4.00000000E+00
					-7.45058000E-09	 1.00000000E+00	 4.00000000E+00
					 2.50000000E-01	 5.00000000E-01	 4.00000000E+00
					 2.50000000E-01	 1.00000000E+00	 4.00000000E+00
					-7.45058000E-09	 5.00000000E-01	 3.50000000E+00
					-7.45058000E-09	 7.50000000E-01	 4.00000000E+00
					-7.45058000E-09	 1.00000000E+00	 3.50000000E+00
					-7.45058000E-09	-1.49012000E-08	 4.00000000E+00
					 2.50000000E-01	-1.49012000E-08	 4.00000000E+00
					-7.45058000E-09	-1.49012000E-08	 3.50000000E+00
					-7.45058000E-09	 2.50000000E-01	 4.00000000E+00
					 1.00000000E+00	 5.00000000E-01	 5.00000000E+00
					 1.00000000E+00	 1.00000000E+00	 5.00000000E+00
					 5.00000000E-01	 5.00000000E-01	 5.00000000E+00
					 5.00000000E-01	 1.00000000E+00	 5.00000000E+00
					 1.00000000E+00	 5.00000000E-01	 4.50000000E+00
					 1.00000000E+00	 7.50000000E-01	 5.00000000E+00
					 1.00000000E+00	 1.00000000E+00	 4.50000000E+00
					 7.50000000E-01	 5.00000000E-01	 5.00000000E+00
					 7.50000000E-01	 1.00000000E+00	 5.00000000E+00
					 5.00000000E-01	 5.00000000E-01	 4.50000000E+00
					 5.00000000E-01	 7.50000000E-01	 5.00000000E+00
					 5.00000000E-01	 1.00000000E+00	 4.50000000E+00
					 1.00000000E+00	-1.49012000E-08	 5.00000000E+00
					 5.00000000E-01	-1.49012000E-08	 5.00000000E+00
					 1.00000000E+00	-1.49012000E-08	 4.50000000E+00
					 1.00000000E+00	 2.50000000E-01	 5.00000000E+00
					 7.50000000E-01	-1.49012000E-08	 5.00000000E+00
					 5.00000000E-01	-1.49012000E-08	 4.50000000E+00
					 5.00000000E-01	 2.50000000E-01	 5.00000000E+00
					-7.45058000E-09	 5.00000000E-01	 5.00000000E+00
					-7.45058000E-09	 1.00000000E+00	 5.00000000E+00
					 2.50000000E-01	 5.00000000E-01	 5.00000000E+00
					 2.50000000E-01	 1.00000000E+00	 5.00000000E+00
					-7.45058000E-09	 5.00000000E-01	 4.50000000E+00
					-7.45058000E-09	 7.50000000E-01	 5.00000000E+00
					-7.45058000E-09	 1.00000000E+00	 4.50000000E+00
					-7.45058000E-09	-1.49012000E-08	 5.00000000E+00
					 2.50000000E-01	-1.49012000E-08	 5.00000000E+00
					-7.45058000E-09	-1.49012000E-08	 4.50000000E+00
					-7.45058000E-09	 2.50000000E-01	 5.00000000E+00
					 1.00000000E+00	 5.00000000E-01	 6.00000000E+00
					 1.00000000E+00	 1.00000000E+00	 6.00000000E+00
					 5.00000000E-01	 5.00000000E-01	 6.00000000E+00
					 5.00000000E-01	 1.00000000E+00	 6.00000000E+00
					 1.00000000E+00	 5.00000000E-01	 5.50000000E+00
					 1.00000000E+00	 7.50000000E-01	 6.00000000E+00
					 1.00000000E+00	 1.00000000E+00	 5.50000000E+00
					 7.50000000E-01	 5.00000000E-01	 6.00000000E+00
					 7.50000000E-01	 1.00000000E+00	 6.00000000E+00
					 5.00000000E-01	 5.00000000E-01	 5.50000000E+00
					 5.00000000E-01	 7.50000000E-01	 6.00000000E+00
					 5.00000000E-01	 1.00000000E+00	 5.50000000E+00
					 1.00000000E+00	-1.49012000E-08	 6.00000000E+00
[...]
			<PointData>
				<DataArray type="Float32" Name="U" NumberOfComponents="3" ComponentName0="D1" ComponentName1="D2" ComponentName2="D3" format="ascii">
					 0.00000000E+00	 0.00000000E+00	 0.00000000E+00
					 0.00000000E+00	 0.00000000E+00	 0.00000000E+00
					-3.14499000E-05	 3.78024000E-03	 5.46099000E-05
					 6.59561000E-04	 4.11610000E-03	-3.52364000E-03
					 0.00000000E+00	 0.00000000E+00	 0.00000000E+00
					 0.00000000E+00	 0.00000000E+00	 0.00000000E+00
					-1.10457000E-06	 4.42418000E-03	-3.95316000E-05
					 3.71001000E-04	 4.56584000E-03	-3.70408000E-03
					 0.00000000E+00	 0.00000000E+00	 0.00000000E+00
					 1.79534000E-05	 9.06268000E-04	 2.53848000E-05
					 4.20873000E-04	 3.82177000E-03	-1.77947000E-03
					 6.20437000E-04	 1.28206000E-03	-1.86025000E-03
					 0.00000000E+00	 0.00000000E+00	 0.00000000E+00
					 0.00000000E+00	 0.00000000E+00	 0.00000000E+00
					-1.90715000E-05	 4.15837000E-03	 4.11877000E-05
					 5.30759000E-04	 4.33638000E-03	-3.53466000E-03
					 0.00000000E+00	 0.00000000E+00	 0.00000000E+00
					 9.16653000E-06	 1.27524000E-03	-6.50931000E-06
					 1.87524000E-04	 4.40548000E-03	-1.81015000E-03
					 1.41086000E-04	 1.57630000E-03	-1.85351000E-03
					 0.00000000E+00	 0.00000000E+00	 0.00000000E+00
					-6.75383000E-04	 4.07986000E-03	 3.62291000E-03
					 0.00000000E+00	 0.00000000E+00	 0.00000000E+00
					-3.62120000E-04	 4.67671000E-03	 3.67938000E-03
					 0.00000000E+00	 0.00000000E+00	 0.00000000E+00
					-5.94443000E-04	 1.32577000E-03	 1.91014000E-03
					-3.88153000E-04	 3.86537000E-03	 1.89846000E-03
					 0.00000000E+00	 0.00000000E+00	 0.00000000E+00
					-5.35704000E-04	 4.37664000E-03	 3.54515000E-03
					 0.00000000E+00	 0.00000000E+00	 0.00000000E+00
					-1.20079000E-04	 1.58341000E-03	 1.86782000E-03
					-1.97476000E-04	 4.44072000E-03	 1.77794000E-03
					 0.00000000E+00	 0.00000000E+00	 0.00000000E+00
					 0.00000000E+00	 0.00000000E+00	 0.00000000E+00
					 3.00189000E-06	 4.55034000E-03	-6.04385000E-05
					-2.85638000E-05	 4.68126000E-03	-3.60277000E-03
					 0.00000000E+00	 0.00000000E+00	 0.00000000E+00
					 0.00000000E+00	 0.00000000E+00	 0.00000000E+00
					 1.26823000E-05	 4.54762000E-03	-2.40034000E-05
					 1.61070000E-04	 4.70038000E-03	-3.72841000E-03
					 0.00000000E+00	 0.00000000E+00	 0.00000000E+00
					 2.07126000E-05	 1.18647000E-03	-6.62149000E-06
					-4.20019000E-05	 4.54951000E-03	-1.70833000E-03
					-4.08228000E-04	 1.48179000E-03	-1.92820000E-03
					 0.00000000E+00	 0.00000000E+00	 0.00000000E+00
					 4.74174000E-05	 4.67294000E-03	 3.55386000E-03
					 0.00000000E+00	 0.00000000E+00	 0.00000000E+00
					-1.47975000E-04	 4.73995000E-03	 3.69416000E-03
					 0.00000000E+00	 0.00000000E+00	 0.00000000E+00
					 4.28049000E-04	 1.44816000E-03	 1.88339000E-03
					-7.79585000E-06	 4.54803000E-03	 1.64304000E-03
					-3.98402000E-05	 1.30704000E-02	-1.84557000E-05
					 1.98619000E-03	 1.30275000E-02	-6.55345000E-03
					-1.68297000E-05	 1.46766000E-02	-2.41670000E-05
					 1.42389000E-03	 1.48732000E-02	-6.55580000E-03
					-2.73525000E-05	 7.70350000E-03	-2.24381000E-06
					 9.04546000E-04	 1.30411000E-02	-3.34745000E-03
					 1.31512000E-03	 7.89867000E-03	-5.07834000E-03
					 5.89133000E-07	 1.39515000E-02	-5.04457000E-05
					 1.66576000E-03	 1.41141000E-02	-6.49936000E-03
					-3.63917000E-05	 8.84397000E-03	-2.37864000E-06
					 7.06403000E-04	 1.47394000E-02	-3.29759000E-03
					 8.79567000E-04	 9.00526000E-03	-5.15602000E-03
					-1.93435000E-03	 1.32918000E-02	 6.51403000E-03
					-1.44939000E-03	 1.49310000E-02	 6.46253000E-03
					-1.33073000E-03	 7.96654000E-03	 5.14433000E-03
					-9.42267000E-04	 1.30915000E-02	 3.28442000E-03
					-1.71701000E-03	 1.41888000E-02	 6.43105000E-03
					-9.11698000E-04	 9.09270000E-03	 5.08444000E-03
					-7.13322000E-04	 1.47894000E-02	 3.21048000E-03
					 1.26614000E-05	 1.59904000E-02	-4.41121000E-05
					 9.40213000E-04	 1.60123000E-02	-6.60764000E-03
					-1.41215000E-05	 1.53841000E-02	-5.18712000E-05
					 1.18516000E-03	 1.55466000E-02	-6.65006000E-03
					-1.39983000E-05	 9.49403000E-03	-3.50236000E-05
					 5.06961000E-04	 1.59122000E-02	-3.27221000E-03
					 4.30780000E-04	 9.65901000E-03	-5.13746000E-03
					-1.11743000E-03	 1.62899000E-02	 6.46939000E-03
					-1.28414000E-03	 1.56318000E-02	 6.51156000E-03
					-4.87993000E-04	 9.78200000E-03	 5.06664000E-03
					-5.39717000E-04	 1.60844000E-02	 3.12211000E-03
					-4.10848000E-05	 2.90537000E-02	-1.98202000E-04
					 1.93685000E-03	 2.91013000E-02	-9.19431000E-03
					-4.11879000E-05	 3.08502000E-02	-2.19159000E-04
					 1.60086000E-03	 3.09777000E-02	-9.28423000E-03
					-4.91067000E-05	 2.03048000E-02	-7.66282000E-05
					 8.90144000E-04	 2.90543000E-02	-4.60480000E-03
					 2.07338000E-03	 2.03644000E-02	-7.97217000E-03
					-4.17615000E-05	 2.99781000E-02	-2.27538000E-04
					 1.74884000E-03	 3.00718000E-02	-9.27873000E-03
					-3.35868000E-05	 2.21443000E-02	-1.16824000E-04
					 7.67979000E-04	 3.08757000E-02	-4.68834000E-03
					 1.57456000E-03	 2.22674000E-02	-8.05296000E-03
					-2.08793000E-03	 2.91390000E-02	 8.84129000E-03
					-1.75060000E-03	 3.10323000E-02	 8.75499000E-03
					-2.13522000E-03	 2.04760000E-02	 7.78859000E-03
					-1.01016000E-03	 2.90738000E-02	 4.19112000E-03
					-1.88290000E-03	 3.01783000E-02	 8.80911000E-03
					-1.65403000E-03	 2.23667000E-02	 7.73787000E-03
					-9.03802000E-04	 3.09029000E-02	 4.20490000E-03
					-1.18062000E-04	 3.24172000E-02	-3.50082000E-04
					 1.43716000E-03	 3.25329000E-02	-9.25904000E-03
					-8.96117000E-05	 3.16676000E-02	-2.72481000E-04
					 1.51771000E-03	 3.17195000E-02	-9.26450000E-03
					-4.62367000E-05	 2.35748000E-02	-1.53314000E-04
					 6.20837000E-04	 3.24570000E-02	-4.76122000E-03
					 1.19833000E-03	 2.37765000E-02	-8.03066000E-03
					-1.52499000E-03	 3.25924000E-02	 8.74177000E-03
					-1.61354000E-03	 3.18627000E-02	 8.70910000E-03
					-1.29098000E-03	 2.38148000E-02	 7.67166000E-03
					-7.84031000E-04	 3.24564000E-02	 4.16922000E-03
					-7.60277000E-05	 4.96818000E-02	-4.96869000E-04
					 8.31540000E-04	 4.96496000E-02	-1.05937000E-02
					-7.76174000E-05	 5.06319000E-02	-6.01033000E-04
					 8.38866000E-04	 5.05757000E-02	-1.06652000E-02
					-3.20498000E-05	 3.90720000E-02	-3.61134000E-04
					 4.02457000E-04	 4.96356000E-02	-5.47493000E-03
					 1.47588000E-03	 3.90572000E-02	-1.00327000E-02
					-8.92008000E-05	 5.01574000E-02	-4.96539000E-04
					 8.68249000E-04	 5.00934000E-02	-1.06953000E-02
					-4.55181000E-05	 4.04727000E-02	-4.44812000E-04
					 3.70149000E-04	 5.05977000E-02	-5.59674000E-03
					 1.29698000E-03	 4.04953000E-02	-1.00643000E-02
					-1.03392000E-03	 4.98397000E-02	 9.65983000E-03
					-1.02828000E-03	 5.08663000E-02	 9.57239000E-03
					-1.61305000E-03	 3.91692000E-02	 9.37495000E-03
					-5.81229000E-04	 4.97658000E-02	 4.51229000E-03
					-1.01608000E-03	 5.03425000E-02	 9.69928000E-03
					-1.41988000E-03	 4.06557000E-02	 9.27981000E-03
					-5.38956000E-04	 5.07148000E-02	 4.48675000E-03
					-9.10196000E-05	 5.14664000E-02	-6.06447000E-04
					 7.08078000E-04	 5.14260000E-02	-1.07657000E-02
					-7.65055000E-05	 5.10719000E-02	-5.87695000E-04
					 7.61449000E-04	 5.10580000E-02	-1.06726000E-02
					-6.53520000E-05	 4.17535000E-02	-4.78797000E-04
					 3.54560000E-04	 5.14067000E-02	-5.67757000E-03
					 1.12709000E-03	 4.17673000E-02	-1.01186000E-02
					-8.66608000E-04	 5.16617000E-02	 9.48257000E-03
					-9.63495000E-04	 5.12807000E-02	 9.51417000E-03
					-1.26272000E-03	 4.19254000E-02	 9.26151000E-03
					-4.85948000E-04	 5.15658000E-02	 4.49675000E-03
					-1.11683000E-04	 7.12375000E-02	-6.07089000E-04
					 5.53697000E-04	 7.10697000E-02	-1.12650000E-02
					-8.77528000E-05	 7.17712000E-02	-5.78411000E-04
					 3.62528000E-04	 7.16015000E-02	-1.12624000E-02
					-1.31966000E-04	 6.03759000E-02	-5.55764000E-04
					 1.69648000E-04	 7.11479000E-02	-5.86965000E-03
					 6.12971000E-04	 6.02364000E-02	-1.09669000E-02
					-1.08451000E-04	 7.15092000E-02	-6.40446000E-04
					 4.54336000E-04	 7.13939000E-02	-1.12954000E-02
					-1.28821000E-04	 6.10793000E-02	-5.94087000E-04
					 1.47021000E-04	 7.16914000E-02	-5.89399000E-03
					 5.52748000E-04	 6.09683000E-02	-1.10458000E-02
					-5.95214000E-04	 7.13953000E-02	 9.89306000E-03
					-5.75593000E-04	 7.18774000E-02	 1.00028000E-02
					-8.69754000E-04	 6.05376000E-02	 9.84261000E-03
					-3.65497000E-04	 7.13246000E-02	 4.58107000E-03
					-5.65222000E-04	 7.16316000E-02	 9.96771000E-03
					-7.87942000E-04	 6.12378000E-02	 9.87788000E-03
					-3.22629000E-04	 7.18150000E-02	 4.66319000E-03
					-5.56260000E-05	 7.21918000E-02	-5.76570000E-04
					 4.32917000E-04	 7.20999000E-02	-1.12481000E-02
					-7.48810000E-05	 7.19792000E-02	-6.19793000E-04
					 3.98024000E-04	 7.18449000E-02	-1.12143000E-02
					-8.58654000E-05	 6.16800000E-02	-6.19637000E-04
					 1.68668000E-04	 7.21859000E-02	-5.93646000E-03
					 4.41267000E-04	 6.15425000E-02	-1.10536000E-02
					-5.87500000E-04	 7.24255000E-02	 9.90168000E-03
					-5.82192000E-04	 7.21603000E-02	 9.93740000E-03
					-6.60037000E-04	 6.18498000E-02	 9.77602000E-03
					-3.21222000E-04	 7.23247000E-02	 4.59506000E-03
					-1.93134000E-04	 9.33499000E-02	-8.88369000E-04
					-4.01130000E-04	 9.31740000E-02	-1.07730000E-02
					-1.63557000E-04	 9.30886000E-02	-8.87475000E-04
					-2.66387000E-04	 9.29794000E-02	-1.08983000E-02
					-8.53237000E-05	 8.24082000E-02	-7.08248000E-04
					-2.74604000E-04	 9.32905000E-02	-5.72101000E-03
					 1.07002000E-04	 8.22381000E-02	-1.11900000E-02
					-1.88167000E-04	 9.32103000E-02	-8.68231000E-04
					-3.37709000E-04	 9.30289000E-02	-1.09133000E-02
					-8.50652000E-05	 8.25991000E-02	-7.29307000E-04
					-1.95787000E-04	 9.30825000E-02	-5.82679000E-03
					 1.41883000E-04	 8.24495000E-02	-1.12164000E-02
					 1.70206000E-04	 9.33259000E-02	 9.13100000E-03
					 3.77252000E-05	 9.31007000E-02	 9.09155000E-03
					-2.77463000E-04	 8.24189000E-02	 9.65561000E-03
					-5.58116000E-06	 9.33964000E-02	 4.00091000E-03
					 1.16806000E-04	 9.32105000E-02	 9.18022000E-03
					-3.17810000E-04	 8.26485000E-02	 9.69547000E-03
					-8.45311000E-05	 9.31016000E-02	 4.05545000E-03
					-7.99012000E-05	 9.31215000E-02	-9.31914000E-04
					 6.96335000E-06	 9.30586000E-02	-1.08073000E-02
					-1.00227000E-04	 9.30899000E-02	-9.04207000E-04
					-1.53169000E-04	 9.29207000E-02	-1.07657000E-02
					-9.50700000E-05	 8.28875000E-02	-7.43957000E-04
					-8.48902000E-05	 9.30540000E-02	-5.88183000E-03
					 2.98426000E-04	 8.27565000E-02	-1.12172000E-02
					-2.61597000E-04	 9.31343000E-02	 9.05332000E-03
					-1.18381000E-04	 9.30569000E-02	 8.98474000E-03
					-4.33278000E-04	 8.29703000E-02	 9.71476000E-03
					-1.75694000E-04	 9.31451000E-02	 4.13238000E-03
					-1.64999000E-04	 1.12983000E-01	-1.09411000E-03
					-1.61296000E-03	 1.12587000E-01	-9.48660000E-03
					-1.22850000E-04	 1.11333000E-01	-1.03588000E-03
					-1.59916000E-03	 1.11267000E-01	-9.29976000E-03
					-1.07678000E-04	 1.03599000E-01	-1.00641000E-03
					-1.01747000E-03	 1.12809000E-01	-5.19550000E-03
					-1.11665000E-03	 1.03263000E-01	-1.01737000E-02
					-1.73350000E-04	 1.12067000E-01	-1.06489000E-03
					-1.57906000E-03	 1.11955000E-01	-9.46715000E-03
					-1.41252000E-04	 1.02664000E-01	-9.71856000E-04
					-8.73117000E-04	 1.11328000E-01	-5.28653000E-03
					-9.30538000E-04	 1.02508000E-01	-1.00797000E-02
					 1.51482000E-03	 1.12869000E-01	 7.22079000E-03
					 1.35104000E-03	 1.11294000E-01	 7.14813000E-03
					 8.86109000E-04	 1.03543000E-01	 8.14847000E-03
					 6.88206000E-04	 1.12968000E-01	 2.94344000E-03
					 1.46231000E-03	 1.12039000E-01	 7.33637000E-03
					 6.69463000E-04	 1.02627000E-01	 8.06705000E-03
					 5.92900000E-04	 1.11345000E-01	 3.13842000E-03
					-6.41077000E-05	 1.10062000E-01	-9.12441000E-04
					-1.51237000E-03	 1.09838000E-01	-9.38201000E-03
					-9.18751000E-05	 1.10640000E-01	-9.95497000E-04
					-1.57057000E-03	 1.10421000E-01	-9.18734000E-03
					-1.69203000E-04	 1.02022000E-01	-9.46526000E-04
					-7.76899000E-04	 1.09992000E-01	-5.29232000E-03
					-5.56724000E-04	 1.01898000E-01	-1.01580000E-02
					 1.10496000E-03	 1.09882000E-01	 7.27536000E-03
					 1.21579000E-03	 1.10499000E-01	 7.17114000E-03
					 3.40259000E-04	 1.02113000E-01	 8.20348000E-03
					 6.21795000E-04	 1.09984000E-01	 3.21401000E-03
					-7.95387000E-04	 1.28738000E-01	-7.58119000E-04
					-2.06719000E-03	 1.28949000E-01	-9.18355000E-03
					-1.31228000E-04	 1.26266000E-01	-1.25158000E-03
					-2.27492000E-03	 1.26622000E-01	-8.90203000E-03
					-1.43132000E-04	 1.21007000E-01	-1.03997000E-03
					-1.32743000E-03	 1.28797000E-01	-4.96395000E-03
					-2.15105000E-03	 1.20772000E-01	-9.03606000E-03
					-4.80567000E-04	 1.27571000E-01	-1.11318000E-03
					-2.17844000E-03	 1.27818000E-01	-9.08183000E-03
					-1.34728000E-04	 1.19022000E-01	-1.06158000E-03
					-1.14368000E-03	 1.26510000E-01	-4.97464000E-03
					-2.14269000E-03	 1.18891000E-01	-8.93499000E-03
					 1.97339000E-03	 1.28692000E-01	 6.38133000E-03
					 2.03435000E-03	 1.26000000E-01	 6.14431000E-03
					 2.09711000E-03	 1.21270000E-01	 6.63375000E-03
					 4.44161000E-04	 1.28719000E-01	 2.96379000E-03
					 2.03462000E-03	 1.27236000E-01	 6.21075000E-03
					 1.78286000E-03	 1.18989000E-01	 6.44560000E-03
					 9.29497000E-04	 1.26054000E-01	 2.52222000E-03
					 6.65556000E-04	 1.24347000E-01	-2.84209000E-04
					-3.21501000E-03	 1.22983000E-01	-8.94464000E-03
					 3.03345000E-04	 1.25318000E-01	-9.15856000E-04
					-2.66768000E-03	 1.25219000E-01	-8.87896000E-03
					-1.23431000E-04	 1.17042000E-01	-8.94170000E-04
					-9.52242000E-04	 1.23722000E-01	-4.79293000E-03
					-2.39033000E-03	 1.16475000E-01	-8.80594000E-03
					 2.33956000E-03	 1.23958000E-01	 6.27484000E-03
					 2.18656000E-03	 1.24876000E-01	 6.13915000E-03
					 1.37690000E-03	 1.17457000E-01	 6.74871000E-03
					 1.49388000E-03	 1.24263000E-01	 3.24710000E-03
					 0.00000000E+00	 0.00000000E+00	 0.00000000E+00
					 0.00000000E+00	 0.00000000E+00	 0.00000000E+00
					-3.50808000E-05	-8.19087000E-03	 1.41088000E-04
					-3.14472000E-03	-8.93418000E-03	 9.68456000E-03
					 0.00000000E+00	 0.00000000E+00	 0.00000000E+00
					 0.00000000E+00	 0.00000000E+00	 0.00000000E+00
					 4.57335000E-05	-1.08903000E-02	 2.47755000E-05
					-1.87379000E-03	-1.15679000E-02	 9.70901000E-03
					 0.00000000E+00	 0.00000000E+00	 0.00000000E+00
					 1.45719000E-05	-1.47370000E-03	 1.02145000E-04
					-1.58940000E-03	-8.35094000E-03	 5.08778000E-03
					-2.20965000E-03	-2.41822000E-03	 4.89531000E-03
					 0.00000000E+00	 0.00000000E+00	 0.00000000E+00
					 0.00000000E+00	 0.00000000E+00	 0.00000000E+00
					 3.19127000E-06	-9.71581000E-03	 1.24519000E-04
					-2.51163000E-03	-1.04138000E-02	 9.40356000E-03
					 0.00000000E+00	 0.00000000E+00	 0.00000000E+00
					 4.56650000E-05	-2.94377000E-03	 1.86228000E-05
					-9.36604000E-04	-1.09753000E-02	 4.77460000E-03
					-8.58693000E-04	-3.81434000E-03	 4.78663000E-03
					 0.00000000E+00	 0.00000000E+00	 0.00000000E+00
					 2.98005000E-03	-8.96112000E-03	-9.44403000E-03
					 0.00000000E+00	 0.00000000E+00	 0.00000000E+00
					 2.00193000E-03	-1.13912000E-02	-9.70824000E-03
					 0.00000000E+00	 0.00000000E+00	 0.00000000E+00
					 2.17997000E-03	-2.35604000E-03	-4.80017000E-03
					 1.58956000E-03	-8.30483000E-03	-4.82504000E-03
					 0.00000000E+00	 0.00000000E+00	 0.00000000E+00
					 2.51738000E-03	-1.02437000E-02	-9.29867000E-03
					 0.00000000E+00	 0.00000000E+00	 0.00000000E+00
					 8.70684000E-04	-3.73732000E-03	-4.72815000E-03
					 1.02838000E-03	-1.09188000E-02	-4.74617000E-03
					 0.00000000E+00	 0.00000000E+00	 0.00000000E+00
					 0.00000000E+00	 0.00000000E+00	 0.00000000E+00
					 1.38740000E-04	-1.22386000E-02	-6.98045000E-05
					-6.76389000E-04	-1.28657000E-02	 9.49722000E-03
					 0.00000000E+00	 0.00000000E+00	 0.00000000E+00
					 0.00000000E+00	 0.00000000E+00	 0.00000000E+00
					 1.11179000E-04	-1.17747000E-02	-2.69520000E-05
					-1.26186000E-03	-1.23569000E-02	 9.85312000E-03
					 0.00000000E+00	 0.00000000E+00	 0.00000000E+00
					 4.44152000E-05	-3.22503000E-03	 5.70028000E-05
					-2.36702000E-04	-1.23425000E-02	 4.38799000E-03
					 5.79291000E-04	-4.07080000E-03	 4.88036000E-03
					 0.00000000E+00	 0.00000000E+00	 0.00000000E+00
					 7.00165000E-04	-1.25801000E-02	-9.58957000E-03
					 0.00000000E+00	 0.00000000E+00	 0.00000000E+00
					 1.34984000E-03	-1.21826000E-02	-9.85682000E-03
					 0.00000000E+00	 0.00000000E+00	 0.00000000E+00
					-5.51602000E-04	-3.96503000E-03	-4.92712000E-03
					 4.00669000E-04	-1.22012000E-02	-4.49031000E-03
					 7.72589000E-06	-3.31859000E-02	-1.92619000E-05
					-6.30595000E-03	-3.40774000E-02	 1.75401000E-02
					 6.78671000E-05	-3.87955000E-02	-2.29965000E-04
					-4.97886000E-03	-3.96683000E-02	 1.73703000E-02
					 5.37789000E-05	-1.87231000E-02	 6.99237000E-05
					-3.08413000E-03	-3.34723000E-02	 8.93077000E-03
					-4.79287000E-03	-1.94462000E-02	 1.38579000E-02
					 6.44432000E-05	-3.61329000E-02	-1.64506000E-04
					-5.65299000E-03	-3.70730000E-02	 1.72841000E-02
					 8.83400000E-05	-2.28502000E-02	-5.89895000E-05
					-2.46650000E-03	-3.91414000E-02	 8.53766000E-03
					-3.47918000E-03	-2.36734000E-02	 1.37312000E-02
					 6.38311000E-03	-3.31031000E-02	-1.76510000E-02
					 5.21549000E-03	-3.89110000E-02	-1.78585000E-02
					 4.64707000E-03	-1.91552000E-02	-1.36993000E-02
					 3.16049000E-03	-3.30472000E-02	-9.02282000E-03
					 5.76959000E-03	-3.62725000E-02	-1.75517000E-02
					 3.51203000E-03	-2.31909000E-02	-1.38670000E-02
					 2.65314000E-03	-3.87353000E-02	-8.99848000E-03
					 1.77262000E-04	-4.33598000E-02	-3.87930000E-04
					-4.07620000E-03	-4.43737000E-02	 1.72184000E-02
					 1.07945000E-04	-4.11934000E-02	-2.88068000E-04
					-4.51137000E-03	-4.21461000E-02	 1.74580000E-02
					 7.77326000E-05	-2.57156000E-02	-1.61065000E-04
					-1.90658000E-03	-4.37079000E-02	 8.19024000E-03
					-2.35941000E-03	-2.67323000E-02	 1.35559000E-02
					 4.09802000E-03	-4.33883000E-02	-1.79334000E-02
					 4.64822000E-03	-4.13038000E-02	-1.81643000E-02
					 2.38201000E-03	-2.60876000E-02	-1.38593000E-02
					 2.13874000E-03	-4.31918000E-02	-8.94995000E-03
					 3.59782000E-05	-7.44960000E-02	-6.56955000E-04
					-8.24862000E-03	-7.54081000E-02	 2.37919000E-02
					 9.37459000E-05	-8.20563000E-02	-9.39476000E-04
					-7.16402000E-03	-8.32139000E-02	 2.33618000E-02
					 1.65521000E-05	-5.19624000E-02	-2.56409000E-04
					-4.04102000E-03	-7.48586000E-02	 1.14885000E-02
					-7.38695000E-03	-5.28987000E-02	 2.09530000E-02
					 7.59397000E-05	-7.83992000E-02	-7.94277000E-04
					-7.65557000E-03	-7.95063000E-02	 2.34470000E-02
					 1.02023000E-04	-5.87235000E-02	-5.32335000E-04
					-3.56163000E-03	-8.25297000E-02	 1.10878000E-02
					-6.12126000E-03	-5.97509000E-02	 2.06699000E-02
					 8.15401000E-03	-7.40109000E-02	-2.49425000E-02
					 7.31916000E-03	-8.17881000E-02	-2.54128000E-02
					 7.41730000E-03	-5.18272000E-02	-2.15027000E-02
					 3.98771000E-03	-7.41756000E-02	-1.27155000E-02
					 7.70890000E-03	-7.80270000E-02	-2.51391000E-02
					 6.34246000E-03	-5.86732000E-02	-2.18403000E-02
					 3.68290000E-03	-8.18247000E-02	-1.30620000E-02
					 7.91236000E-05	-8.88326000E-02	-1.42599000E-03
					-6.44315000E-03	-9.01312000E-02	 2.30245000E-02
					 8.27377000E-05	-8.55695000E-02	-1.17970000E-03
					-6.77709000E-03	-8.66604000E-02	 2.33119000E-02
					 1.11909000E-04	-6.44339000E-02	-7.96468000E-04
					-3.10667000E-03	-8.93756000E-02	 1.05179000E-02
					-5.09248000E-03	-6.54595000E-02	 2.04071000E-02
					 6.59293000E-03	-8.85141000E-02	-2.57553000E-02
					 6.96854000E-03	-8.52180000E-02	-2.57082000E-02
					 5.37861000E-03	-6.44901000E-02	-2.19699000E-02
					 3.32631000E-03	-8.86163000E-02	-1.33289000E-02
					 6.04176000E-05	-1.28262000E-01	-1.74178000E-03
					-8.42993000E-03	-1.29197000E-01	 2.62166000E-02