# vtk DataFile Version 3.0

ASCII
DATASET UNSTRUCTURED_GRID

POINTS 522 double
	 1.00000000E+00	 1.00000000E+00	-5.96046000E-08
	 1.00000000E+00	 5.00000000E-01	-5.96046000E-08
	 1.00000000E+00	 5.00000000E-01	 1.00000000E+00
	 1.00000000E+00	 1.00000000E+00	 1.00000000E+00
	 5.00000000E-01	 1.00000000E+00	-5.96046000E-08
	 5.00000000E-01	 5.00000000E-01	-5.96046000E-08
	 5.00000000E-01	 5.00000000E-01	 1.00000000E+00
	 5.00000000E-01	 1.00000000E+00	 1.00000000E+00
	 1.00000000E+00	 7.50000000E-01	-5.96046000E-08
	 1.00000000E+00	 5.00000000E-01	 5.00000000E-01
	 1.00000000E+00	 7.50000000E-01	 1.00000000E+00
	 1.00000000E+00	 1.00000000E+00	 5.00000000E-01
	 7.50000000E-01	 1.00000000E+00	-5.96046000E-08
	 7.50000000E-01	 5.00000000E-01	-5.96046000E-08
	 7.50000000E-01	 5.00000000E-01	 1.00000000E+00
	 7.50000000E-01	 1.00000000E+00	 1.00000000E+00
	 5.00000000E-01	 7.50000000E-01	-5.96046000E-08
	 5.00000000E-01	 5.00000000E-01	 5.00000000E-01
	 5.00000000E-01	 7.50000000E-01	 1.00000000E+00
	 5.00000000E-01	 1.00000000E+00	 5.00000000E-01
	 1.00000000E+00	-1.49012000E-08	-5.96046000E-08
	 1.00000000E+00	-1.49012000E-08	 1.00000000E+00
	 5.00000000E-01	-1.49012000E-08	-5.96046000E-08
	 5.00000000E-01	-1.49012000E-08	 1.00000000E+00
	 1.00000000E+00	 2.50000000E-01	-5.96046000E-08
	 1.00000000E+00	-1.49012000E-08	 5.00000000E-01
	 1.00000000E+00	 2.50000000E-01	 1.00000000E+00
	 7.50000000E-01	-1.49012000E-08	-5.96046000E-08
	 7.50000000E-01	-1.49012000E-08	 1.00000000E+00
	 5.00000000E-01	 2.50000000E-01	-5.96046000E-08
	 5.00000000E-01	-1.49012000E-08	 5.00000000E-01
	 5.00000000E-01	 2.50000000E-01	 1.00000000E+00
	-7.45058000E-09	 1.00000000E+00	-5.96046000E-08
	-7.45058000E-09	 5.00000000E-01	-5.96046000E-08
	-7.45058000E-09	 5.00000000E-01	 1.00000000E+00
	-7.45058000E-09	 1.00000000E+00	 1.00000000E+00
	 2.50000000E-01	 1.00000000E+00	-5.96046000E-08
	 2.50000000E-01	 5.00000000E-01	-5.96046000E-08
	 2.50000000E-01	 5.00000000E-01	 1.00000000E+00
	 2.50000000E-01	 1.00000000E+00	 1.00000000E+00
	-7.45058000E-09	 7.50000000E-01	-5.96046000E-08
	-7.45058000E-09	 5.00000000E-01	 5.00000000E-01
	-7.45058000E-09	 7.50000000E-01	 1.00000000E+00
	-7.45058000E-09	 1.00000000E+00	 5.00000000E-01
	-7.45058000E-09	-1.49012000E-08	-5.96046000E-08
	-7.45058000E-09	-1.49012000E-08	 1.00000000E+00
	 2.50000000E-01	-1.49012000E-08	-5.96046000E-08
	 2.50000000E-01	-1.49012000E-08	 1.00000000E+00
	-7.45058000E-09	 2.50000000E-01	-5.96046000E-08
	-7.45058000E-09	-1.49012000E-08	 5.00000000E-01
	-7.45058000E-09	 2.50000000E-01	 1.00000000E+00
	 1.00000000E+00	 5.00000000E-01	 2.00000000E+00
	 1.00000000E+00	 1.00000000E+00	 2.00000000E+00
	 5.00000000E-01	 5.00000000E-01	 2.00000000E+00
	 5.00000000E-01	 1.00000000E+00	 2.00000000E+00
	 1.00000000E+00	 5.00000000E-01	 1.50000000E+00
	 1.00000000E+00	 7.50000000E-01	 2.00000000E+00
	 1.00000000E+00	 1.00000000E+00	 1.50000000E+00
	 7.50000000E-01	 5.00000000E-01	 2.00000000E+00
	 7.50000000E-01	 1.00000000E+00	 2.00000000E+00
	 5.00000000E-01	 5.00000000E-01	 1.50000000E+00
	 5.00000000E-01	 7.50000000E-01	 2.00000000E+00
	 5.00000000E-01	 1.00000000E+00	 1.50000000E+00
	 1.00000000E+00	-1.49012000E-08	 2.00000000E+00
	 5.00000000E-01	-1.49012000E-08	 2.00000000E+00
	 1.00000000E+00	-1.49012000E-08	 1.50000000E+00
	 1.00000000E+00	 2.50000000E-01	 2.00000000E+00
	 7.50000000E-01	-1.49012000E-08	 2.00000000E+00
	 5.00000000E-01	-1.49012000E-08	 1.50000000E+00
	 5.00000000E-01	 2.50000000E-01	 2.00000000E+00
	-7.45058000E-09	 5.00000000E-01	 2.00000000E+00
	-7.45058000E-09	 1.00000000E+00	 2.00000000E+00
	 2.50000000E-01	 5.00000000E-01	 2.00000000E+00
	 2.50000000E-01	 1.00000000E+00	 2.00000000E+00
	-7.45058000E-09	 5.00000000E-01	 1.50000000E+00
	-7.45058000E-09	 7.50000000E-01	 2.00000000E+00
	-7.45058000E-09	 1.00000000E+00	 1.50000000E+00
	-7.45058000E-09	-1.49012000E-08	 2.00000000E+00
	 2.50000000E-01	-1.49012000E-08	 2.00000000E+00
	-7.45058000E-09	-1.49012000E-08	 1.50000000E+00
	-7.45058000E-09	 2.50000000E-01	 2.00000000E+00
	 1.00000000E+00	 5.00000000E-01	 3.00000000E+00
	 1.00000000E+00	 1.00000000E+00	 3.00000000E+00
	 5.00000000E-01	 5.00000000E-01	 3.00000000E+00
	 5.00000000E-01	 1.00000000E+00	 3.00000000E+00
	 1.00000000E+00	 5.00000000E-01	 2.50000000E+00
	 1.00000000E+00	 7.50000000E-01	 3.00000000E+00
	 1.00000000E+00	 1.00000000E+00	 2.50000000E+00
	 7.50000000E-01	 5.00000000E-01	 3.00000000E+00
	 7.50000000E-01	 1.00000000E+00	 3.00000000E+00
	 5.00000000E-01	 5.00000000E-01	 2.50000000E+00
	 5.00000000E-01	 7.50000000E-01	 3.00000000E+00
	 5.00000000E-01	 1.00000000E+00	 2.50000000E+00
	 1.00000000E+00	-1.49012000E-08	 3.00000000E+00
	 5.00000000E-01	-1.49012000E-08	 3.00000000E+00
	 1.00000000E+00	-1.49012000E-08	 2.50000000E+00
	 1.00000000E+00	 2.50000000E-01	 3.00000000E+00
	 7.50000000E-01	-1.49012000E-08	 3.00000000E+00
	 5.00000000E-01	-1.49012000E-08	 2.50000000E+00
	 5.00000000E-01	 2.50000000E-01	 3.00000000E+00
	-7.45058000E-09	 5.00000000E-01	 3.00000000E+00
	-7.45058000E-09	 1.00000000E+00	 3.00000000E+00
	 2.50000000E-01	 5.00000000E-01	 3.00000000E+00
	 2.50000000E-01	 1.00000000E+00	 3.00000000E+00
	-7.45058000E-09	 5.00000000E-01	 2.50000000E+00
	-7.45058000E-09	 7.50000000E-01	 3.00000000E+00
	-7.45058000E-09	 1.00000000E+00	 2.50000000E+00
	-7.45058000E-09	-1.49012000E-08	 3.00000000E+00
	 2.50000000E-01	-1.49012000E-08	 3.00000000E+00
	-7.45058000E-09	-1.49012000E-08	 2.50000000E+00
	-7.45058000E-09	 2.50000000E-01	 3.00000000E+00
	 1.00000000E+00	 5.00000000E-01	 4.00000000E+00
	 1.00000000E+00	 1.00000000E+00	 4.00000000E+00
	 5.00000000E-01	 5.00000000E-01	 4.00000000E+00
	 5.00000000E-01	 1.00000000E+00	 4.00000000E+00
	 1.00000000E+00	 5.00000000E-01	 3.50000000E+00
	 1.00000000E+00	 7.50000000E-01	 4.00000000E+00
	 1.00000000E+00	 1.00000000E+00	 3.50000000E+00
	 7.50000000E-01	 5.00000000E-01	 4.00000000E+00
	 7.50000000E-01	 1.00000000E+00	 4.00000000E+00
	 5.00000000E-01	 5.00000000E-01	 3.50000000E+00
	 5.00000000E-01	 7.50000000E-01	 4.00000000E+00
	 5.00000000E-01	 1.00000000E+00	 3.50000000E+00
	 1.00000000E+00	-1.49012000E-08	 4.00000000E+00
	 5.00000000E-01	-1.49012000E-08	 4.00000000E+00
	 1.00000000E+00	-1.49012000E-08	 3.50000000E+00
	 1.00000000E+00	 2.50000000E-01	 4.00000000E+00
	 7.50000000E-01	-1.49012000E-08	 4.00000000E+00
	 5.00000000E-01	-1.49012000E-08	 3.50000000E+00
	 5.00000000E-01	 2.50000000E-01	 4.00000000E+00
	-7.45058000E-09	 5.00000000E-01	 4.00000000E+00
	-7.45058000E-09	 1.00000000E+00	 4.00000000E+00
	 2.50000000E-01	 5.00000000E-01	 4.00000000E+00
	 2.50000000E-01	 1.00000000E+00	 4.00000000E+00
	-7.45058000E-09	 5.00000000E-01	 3.50000000E+00
	-7.45058000E-09	 7.50000000E-01	 4.00000000E+00
	-7.45058000E-09	 1.00000000E+00	 3.50000000E+00
	-7.45058000E-09	-1.49012000E-08	 4.00000000E+00
	 2.50000000E-01	-1.49012000E-08	 4.00000000E+00
	-7.45058000E-09	-1.49012000E-08	 3.50000000E+00
	-7.45058000E-09	 2.50000000E-01	 4.00000000E+00
	 1.00000000E+00	 5.00000000E-01	 5.00000000E+00
	 1.00000000E+00	 1.00000000E+00	 5.00000000E+00
	 5.00000000E-01	 5.00000000E-01	 5.00000000E+00
	 5.00000000E-01	 1.00000000E+00	 5.00000000E+00
	 1.00000000E+00	 5.00000000E-01	 4.50000000E+00
	 1.00000000E+00	 7.50000000E-01	 5.00000000E+00
	 1.00000000E+00	 1.00000000E+00	 4.50000000E+00
	 7.50000000E-01	 5.00000000E-01	 5.00000000E+00
	 7.50000000E-01	 1.00000000E+00	 5.00000000E+00
	 5.00000000E-01	 5.00000000E-01	 4.50000000E+00
	 5.00000000E-01	 7.50000000E-01	 5.00000000E+00
	 5.00000000E-01	 1.00000000E+00	 4.50000000E+00
	 1.00000000E+00	-1.49012000E-08	 5.00000000E+00
	 5.00000000E-01	-1.49012000E-08	 5.00000000E+00
	 1.00000000E+00	-1.49012000E-08	 4.50000000E+00
	 1.00000000E+00	 2.50000000E-01	 5.00000000E+00
	 7.50000000E-01	-1.49012000E-08	 5.00000000E+00
	 5.00000000E-01	-1.49012000E-08	 4.50000000E+00
	 5.00000000E-01	 2.50000000E-01	 5.00000000E+00
	-7.45058000E-09	 5.00000000E-01	 5.00000000E+00
	-7.45058000E-09	 1.00000000E+00	 5.00000000E+00
	 2.50000000E-01	 5.00000000E-01	 5.00000000E+00
	 2.50000000E-01	 1.00000000E+00	 5.00000000E+00
	-7.45058000E-09	 5.00000000E-01	 4.50000000E+00
	-7.45058000E-09	 7.50000000E-01	 5.00000000E+00
	-7.45058000E-09	 1.00000000E+00	 4.50000000E+00
	-7.45058000E-09	-1.49012000E-08	 5.00000000E+00
	 2.50000000E-01	-1.49012000E-08	 5.00000000E+00
	-7.45058000E-09	-1.49012000E-08	 4.50000000E+00
	-7.45058000E-09	 2.50000000E-01	 5.00000000E+00
	 1.00000000E+00	 5.00000000E-01	 6.00000000E+00
	 1.00000000E+00	 1.00000000E+00	 6.00000000E+00
	 5.00000000E-01	 5.00000000E-01	 6.00000000E+00
	 5.00000000E-01	 1.00000000E+00	 6.00000000E+00
	 1.00000000E+00	 5.00000000E-01	 5.50000000E+00
	 1.00000000E+00	 7.50000000E-01	 6.00000000E+00
	 1.00000000E+00	 1.00000000E+00	 5.50000000E+00
	 7.50000000E-01	 5.00000000E-01	 6.00000000E+00
	 7.50000000E-01	 1.00000000E+00	 6.00000000E+00
	 5.00000000E-01	 5.00000000E-01	 5.50000000E+00
	 5.00000000E-01	 7.50000000E-01	 6.00000000E+00
	 5.00000000E-01	 1.00000000E+00	 5.50000000E+00
	 1.00000000E+00	-1.49012000E-08	 6.00000000E+00
	 5.00000000E-01	-1.49012000E-08	 6.00000000E+00
	 1.00000000E+00	-1.49012000E-08	 5.50000000E+00
	 1.00000000E+00	 2.50000000E-01	 6.00000000E+00
	 7.50000000E-01	-1.49012000E-08	 6.00000000E+00
	 5.00000000E-01	-1.49012000E-08	 5.50000000E+00
	 5.00000000E-01	 2.50000000E-01	 6.00000000E+00
	-7.45058000E-09	 5.00000000E-01	 6.00000000E+00
	-7.45058000E-09	 1.00000000E+00	 6.00000000E+00
	 2.50000000E-01	 5.00000000E-01	 6.00000000E+00
	 2.50000000E-01	 1.00000000E+00	 6.00000000E+00
	-7.45058000E-09	 5.00000000E-01	 5.50000000E+00
	-7.45058000E-09	 7.50000000E-01	 6.00000000E+00
	-7.45058000E-09	 1.00000000E+00	 5.50000000E+00
	-7.45058000E-09	-1.49012000E-08	 6.00000000E+00
	 2.50000000E-01	-1.49012000E-08	 6.00000000E+00
	-7.45058000E-09	-1.49012000E-08	 5.50000000E+00
	-7.45058000E-09	 2.50000000E-01	 6.00000000E+00
	 1.00000000E+00	 5.00000000E-01	 7.00000000E+00
[...]
POINT_DATA 522
FIELD U 1
	U 3 522 double
		 0.00000000E+00	 0.00000000E+00	 0.00000000E+00
		 0.00000000E+00	 0.00000000E+00	 0.00000000E+00
		 7.89696000E-06	-4.63114000E-03	-3.61778000E-06
		-1.16328000E-03	-4.89979000E-03	 4.03619000E-03
		 0.00000000E+00	 0.00000000E+00	 0.00000000E+00
		 0.00000000E+00	 0.00000000E+00	 0.00000000E+00
		-3.02050000E-06	-5.54767000E-03	 2.57346000E-05
		-7.00089000E-04	-5.71790000E-03	 4.05490000E-03
		 0.00000000E+00	 0.00000000E+00	 0.00000000E+00
		 1.67653000E-05	-1.07836000E-03	-3.48347000E-05
		-5.46561000E-04	-4.68019000E-03	 1.96135000E-03
		-1.02664000E-03	-1.36279000E-03	 2.20019000E-03
		 0.00000000E+00	 0.00000000E+00	 0.00000000E+00
		 0.00000000E+00	 0.00000000E+00	 0.00000000E+00
		 1.12791000E-05	-5.14362000E-03	 1.14632000E-05
		-9.33844000E-04	-5.40625000E-03	 4.03032000E-03
		 0.00000000E+00	 0.00000000E+00	 0.00000000E+00
		 8.10979000E-06	-1.76805000E-03	 5.76500000E-06
		-3.40613000E-04	-5.55218000E-03	 1.94370000E-03
		-3.81689000E-04	-2.09629000E-03	 2.16027000E-03
		 0.00000000E+00	 0.00000000E+00	 0.00000000E+00
		 1.15362000E-03	-4.75186000E-03	-3.96011000E-03
		 0.00000000E+00	 0.00000000E+00	 0.00000000E+00
		 7.27609000E-04	-5.72793000E-03	-4.10044000E-03
		 0.00000000E+00	 0.00000000E+00	 0.00000000E+00
		 1.04068000E-03	-1.38800000E-03	-2.14336000E-03
		 5.30862000E-04	-4.61894000E-03	-1.92991000E-03
		 0.00000000E+00	 0.00000000E+00	 0.00000000E+00
		 9.20186000E-04	-5.31665000E-03	-4.04215000E-03
		 0.00000000E+00	 0.00000000E+00	 0.00000000E+00
		 4.19355000E-04	-2.12248000E-03	-2.16127000E-03
		 3.46424000E-04	-5.53236000E-03	-1.95497000E-03
		 0.00000000E+00	 0.00000000E+00	 0.00000000E+00
		 0.00000000E+00	 0.00000000E+00	 0.00000000E+00
		 6.22003000E-06	-6.08715000E-03	-3.69047000E-05
		-3.30547000E-04	-6.36532000E-03	 3.99678000E-03
		 0.00000000E+00	 0.00000000E+00	 0.00000000E+00
		 0.00000000E+00	 0.00000000E+00	 0.00000000E+00
		 1.16332000E-05	-5.86787000E-03	 2.34971000E-06
		-4.94017000E-04	-6.07385000E-03	 4.04363000E-03
		 0.00000000E+00	 0.00000000E+00	 0.00000000E+00
		 1.41449000E-05	-1.89730000E-03	-1.78393000E-05
		-1.24187000E-04	-6.11430000E-03	 1.87553000E-03
		 1.65229000E-04	-2.31674000E-03	 2.23506000E-03
		 0.00000000E+00	 0.00000000E+00	 0.00000000E+00
		 4.17518000E-04	-6.23478000E-03	-3.99917000E-03
		 0.00000000E+00	 0.00000000E+00	 0.00000000E+00
		 5.62837000E-04	-5.98049000E-03	-4.10015000E-03
		 0.00000000E+00	 0.00000000E+00	 0.00000000E+00
		-1.45092000E-04	-2.25249000E-03	-2.20613000E-03
		 1.42082000E-04	-6.05661000E-03	-1.91900000E-03
		 4.98938000E-05	-1.63618000E-02	-6.86703000E-05
		-3.83604000E-04	-1.65395000E-02	 6.45274000E-03
		 1.10256000E-05	-1.65566000E-02	-1.45187000E-04
		 1.60947000E-05	-1.67318000E-02	 6.37020000E-03
		 6.56283000E-05	-9.78734000E-03	-2.15650000E-05
		-1.71737000E-04	-1.64123000E-02	 3.05620000E-03
		-8.27158000E-04	-9.99471000E-03	 5.33244000E-03
		 3.46804000E-05	-1.65066000E-02	-1.10470000E-04
		-1.93317000E-04	-1.66747000E-02	 6.51709000E-03
		 2.77100000E-05	-1.04384000E-02	-4.85036000E-05
		 8.81234000E-06	-1.66275000E-02	 3.09980000E-03
		-4.37039000E-04	-1.06558000E-02	 5.33218000E-03
		 4.88705000E-04	-1.64707000E-02	-6.64274000E-03
		 3.15695000E-05	-1.67026000E-02	-6.64994000E-03
		 9.41592000E-04	-9.90565000E-03	-5.40526000E-03
		 2.16749000E-04	-1.64052000E-02	-3.22595000E-03
		 2.50499000E-04	-1.66356000E-02	-6.73502000E-03
		 4.87925000E-04	-1.06423000E-02	-5.43903000E-03
		 4.42924000E-05	-1.65940000E-02	-3.38071000E-03
		-6.25307000E-06	-1.64881000E-02	-2.01091000E-04
		 2.31210000E-04	-1.66630000E-02	 6.38411000E-03
		-1.85826000E-05	-1.65396000E-02	-1.63715000E-04
		 1.37255000E-04	-1.67176000E-02	 6.27580000E-03
		-3.46891000E-05	-1.07018000E-02	-5.63718000E-05
		 1.42209000E-04	-1.65282000E-02	 3.17708000E-03
		-1.40390000E-04	-1.09794000E-02	 5.26479000E-03
		-2.38320000E-04	-1.65905000E-02	-6.69710000E-03
		-8.55781000E-05	-1.66603000E-02	-6.59692000E-03
		 1.74163000E-04	-1.09632000E-02	-5.45574000E-03
		-8.02240000E-05	-1.65348000E-02	-3.51749000E-03
		 3.54465000E-05	-3.22712000E-02	-2.66845000E-04
		 7.61641000E-04	-3.24374000E-02	 7.82528000E-03
		 5.79182000E-05	-3.16058000E-02	-2.89160000E-04
		 8.56638000E-04	-3.17565000E-02	 7.89925000E-03
		 3.58625000E-05	-2.39780000E-02	-1.68079000E-04
		 4.10144000E-04	-3.23318000E-02	 3.68587000E-03
		 2.27327000E-04	-2.41790000E-02	 7.22460000E-03
		 3.80046000E-05	-3.19591000E-02	-2.88204000E-04
		 8.10478000E-04	-3.21230000E-02	 7.91409000E-03
		 1.80596000E-05	-2.36781000E-02	-2.16037000E-04
		 4.56354000E-04	-3.16477000E-02	 3.79498000E-03
		 4.68584000E-04	-2.38336000E-02	 7.22518000E-03
		-6.77491000E-04	-3.24075000E-02	-8.41853000E-03
		-7.39203000E-04	-3.16051000E-02	-8.39711000E-03
		-1.67884000E-04	-2.40545000E-02	-7.60776000E-03
		-2.69434000E-04	-3.23079000E-02	-4.29666000E-03
		-6.96572000E-04	-3.19921000E-02	-8.41393000E-03
		-4.03920000E-04	-2.37805000E-02	-7.62278000E-03
		-3.54822000E-04	-3.15820000E-02	-4.31514000E-03
		 6.04610000E-05	-3.06954000E-02	-2.09105000E-04
		 1.08265000E-03	-3.07167000E-02	 7.82539000E-03
		 7.43305000E-05	-3.11421000E-02	-2.70839000E-04
		 9.42878000E-04	-3.13186000E-02	 7.83899000E-03
		 2.67331000E-05	-2.31531000E-02	-1.75868000E-04
		 5.07752000E-04	-3.07037000E-02	 3.81238000E-03
		 7.49734000E-04	-2.32575000E-02	 7.18624000E-03
		-8.74066000E-04	-3.07312000E-02	-8.41624000E-03
		-8.06899000E-04	-3.11840000E-02	-8.33969000E-03
		-6.84612000E-04	-2.31330000E-02	-7.58238000E-03
		-4.37935000E-04	-3.06855000E-02	-4.33712000E-03
		 7.55426000E-05	-5.00493000E-02	-5.43617000E-04
		 1.31801000E-03	-5.03254000E-02	 8.54894000E-03
		 8.10193000E-05	-4.88790000E-02	-4.10755000E-04
		 1.31535000E-03	-4.90344000E-02	 8.61803000E-03
		 4.45021000E-05	-4.09935000E-02	-4.07846000E-04
		 6.52706000E-04	-5.01635000E-02	 4.05805000E-03
		 9.43915000E-04	-4.10996000E-02	 8.22443000E-03
		 9.34769000E-05	-4.94673000E-02	-4.71814000E-04
		 1.31218000E-03	-4.96481000E-02	 8.56347000E-03
		 6.54606000E-05	-4.00249000E-02	-3.35723000E-04
		 6.90059000E-04	-4.89370000E-02	 4.12114000E-03
		 1.09139000E-03	-4.02049000E-02	 8.28648000E-03
		-1.00348000E-03	-5.00353000E-02	-9.54736000E-03
		-1.18164000E-03	-4.88749000E-02	-9.52092000E-03
		-8.46669000E-04	-4.10418000E-02	-9.00753000E-03
		-4.85030000E-04	-5.00325000E-02	-5.04359000E-03
		-1.10538000E-03	-4.94781000E-02	-9.58484000E-03
		-1.02164000E-03	-4.00233000E-02	-8.97269000E-03
		-5.22911000E-04	-4.88536000E-02	-4.98940000E-03
		 5.80768000E-05	-4.75497000E-02	-3.88362000E-04
		 1.36040000E-03	-4.77777000E-02	 8.75313000E-03
		 5.00106000E-05	-4.82383000E-02	-3.90252000E-04
		 1.34448000E-03	-4.83800000E-02	 8.64123000E-03
		 7.68362000E-05	-3.89142000E-02	-3.06753000E-04
		 7.41990000E-04	-4.76350000E-02	 4.20452000E-03
		 1.26398000E-03	-3.89990000E-02	 8.30464000E-03
		-1.43179000E-03	-4.74790000E-02	-9.40633000E-03
		-1.30065000E-03	-4.82326000E-02	-9.46665000E-03
		-1.14065000E-03	-3.88731000E-02	-8.94207000E-03
		-6.34455000E-04	-4.75036000E-02	-4.92364000E-03
		 8.61773000E-05	-6.93986000E-02	-7.51859000E-04
		 1.12475000E-03	-6.94487000E-02	 9.65022000E-03
		 1.06579000E-04	-6.80526000E-02	-6.89547000E-04
		 1.57395000E-03	-6.83445000E-02	 9.70511000E-03
		 7.16299000E-05	-5.93955000E-02	-6.18047000E-04
		 6.68817000E-04	-6.93994000E-02	 4.42198000E-03
		 1.25166000E-03	-5.95956000E-02	 9.06106000E-03
		 9.99964000E-05	-6.87802000E-02	-7.32788000E-04
		 1.34365000E-03	-6.89855000E-02	 9.71563000E-03
		 6.33404000E-05	-5.81343000E-02	-5.62619000E-04
		 8.12962000E-04	-6.81791000E-02	 4.50532000E-03
		 1.49069000E-03	-5.83085000E-02	 9.06189000E-03
		-1.22098000E-03	-6.94946000E-02	-1.11925000E-02
		-1.42600000E-03	-6.80430000E-02	-1.10828000E-02
		-1.05867000E-03	-5.94006000E-02	-1.03139000E-02
		-4.93710000E-04	-6.94213000E-02	-5.89904000E-03
		-1.33143000E-03	-6.88203000E-02	-1.11442000E-02
		-1.29238000E-03	-5.80731000E-02	-1.02141000E-02
		-6.39130000E-04	-6.80248000E-02	-5.87288000E-03
		 8.28587000E-05	-6.64678000E-02	-6.37411000E-04
		 1.94928000E-03	-6.65947000E-02	 9.80076000E-03
		 9.08399000E-05	-6.73092000E-02	-6.54858000E-04
		 1.77820000E-03	-6.75748000E-02	 9.78392000E-03
		 7.84341000E-05	-5.66043000E-02	-4.92173000E-04
		 9.47550000E-04	-6.65005000E-02	 4.56485000E-03
		 1.68156000E-03	-5.67758000E-02	 9.19575000E-03
		-1.51448000E-03	-6.65169000E-02	-1.10203000E-02
		-1.47162000E-03	-6.73077000E-02	-1.10767000E-02
		-1.56627000E-03	-5.66209000E-02	-1.01481000E-02
		-7.36743000E-04	-6.64745000E-02	-5.82649000E-03
		 1.80480000E-04	-9.19335000E-02	-9.88755000E-04
		 1.33784000E-03	-9.20748000E-02	 1.04387000E-02
		 1.38205000E-04	-9.05832000E-02	-9.49901000E-04
		 1.46087000E-03	-9.07342000E-02	 1.04763000E-02
		 9.22008000E-05	-8.04008000E-02	-8.85622000E-04
		 7.35739000E-04	-9.19796000E-02	 4.68311000E-03
		 1.37748000E-03	-8.05990000E-02	 1.01795000E-02
		 1.66598000E-04	-9.12300000E-02	-9.63031000E-04
		 1.39879000E-03	-9.13692000E-02	 1.04542000E-02
		 1.27506000E-04	-7.90529000E-02	-7.96803000E-04
		 8.04630000E-04	-9.06663000E-02	 4.73238000E-03
		 1.51925000E-03	-7.92336000E-02	 1.02394000E-02
		-1.17611000E-03	-9.17849000E-02	-1.23838000E-02
		-1.25485000E-03	-9.04661000E-02	-1.23385000E-02
		-1.19232000E-03	-8.03862000E-02	-1.19140000E-02
		-5.38712000E-04	-9.18531000E-02	-6.70306000E-03
		-1.21899000E-03	-9.11248000E-02	-1.23354000E-02
		-1.28979000E-03	-7.90050000E-02	-1.18690000E-02
		-5.58005000E-04	-9.05061000E-02	-6.60053000E-03
		 1.02050000E-04	-8.92172000E-02	-8.03673000E-04
		 1.53949000E-03	-8.93769000E-02	 1.05280000E-02
		 1.16905000E-04	-8.98905000E-02	-8.82580000E-04
		 1.49346000E-03	-9.00061000E-02	 1.05735000E-02
		 1.52223000E-04	-7.75906000E-02	-7.27048000E-04
		 8.29174000E-04	-8.92845000E-02	 4.77086000E-03
		 1.68955000E-03	-7.77948000E-02	 1.02845000E-02
		-1.19736000E-03	-8.91212000E-02	-1.22848000E-02
		-1.20190000E-03	-8.97843000E-02	-1.23305000E-02
		-1.46567000E-03	-7.74688000E-02	-1.17112000E-02
		-5.81346000E-04	-8.91593000E-02	-6.49405000E-03
		 1.68550000E-04	-1.14805000E-01	-1.27426000E-03
		 9.19182000E-04	-1.14964000E-01	 1.03876000E-02
		 1.39903000E-04	-1.13872000E-01	-1.23202000E-03
		 1.05046000E-03	-1.13971000E-01	 1.03514000E-02
		 1.27188000E-04	-1.03315000E-01	-1.11129000E-03
		 5.80305000E-04	-1.14882000E-01	 4.57991000E-03
		 1.24530000E-03	-1.03504000E-01	 1.04896000E-02
		 1.54319000E-04	-1.14358000E-01	-1.21802000E-03
		 9.77821000E-04	-1.14471000E-01	 1.03736000E-02
		 1.22444000E-04	-1.02173000E-01	-1.08359000E-03
		 6.15685000E-04	-1.13915000E-01	 4.53343000E-03
		 1.22585000E-03	-1.02351000E-01	 1.04526000E-02
		-8.69329000E-04	-1.14757000E-01	-1.28156000E-02
		-7.69182000E-04	-1.13723000E-01	-1.26869000E-02
		-9.72907000E-04	-1.03239000E-01	-1.26516000E-02
		-3.10889000E-04	-1.14762000E-01	-6.99891000E-03
		-8.10899000E-04	-1.14186000E-01	-1.28518000E-02
		-9.71313000E-04	-1.02084000E-01	-1.25465000E-02
		-3.36114000E-04	-1.13821000E-01	-6.98245000E-03
		 5.65967000E-05	-1.12949000E-01	-1.22692000E-03
		 1.08125000E-03	-1.13134000E-01	 1.04259000E-02
		 8.93007000E-05	-1.13437000E-01	-1.21542000E-03
		 1.09365000E-03	-1.13535000E-01	 1.03487000E-02
		 1.21705000E-04	-1.01110000E-01	-1.07144000E-03
		 6.31353000E-04	-1.13014000E-01	 4.63041000E-03
		 1.17365000E-03	-1.01320000E-01	 1.05186000E-02
		-7.88189000E-04	-1.12776000E-01	-1.27281000E-02
		-7.94241000E-04	-1.13165000E-01	-1.27657000E-02
		-9.54447000E-04	-1.01104000E-01	-1.26114000E-02
		-3.72822000E-04	-1.12861000E-01	-6.86602000E-03
		 5.99408000E-04	-1.38323000E-01	-1.65030000E-03
		 8.45469000E-04	-1.38867000E-01	 1.11929000E-02
		 2.04321000E-04	-1.36920000E-01	-1.54107000E-03
		 1.12134000E-03	-1.37300000E-01	 1.00259000E-02
		 2.07616000E-04	-1.26424000E-01	-1.44268000E-03
		 6.01611000E-04	-1.38551000E-01	 4.63123000E-03
		 1.32481000E-03	-1.26598000E-01	 1.05687000E-02
		 4.19824000E-04	-1.37638000E-01	-1.52385000E-03
		 1.01684000E-03	-1.38067000E-01	 1.04373000E-02
		 1.84315000E-04	-1.25438000E-01	-1.40949000E-03
		 6.38321000E-04	-1.37153000E-01	 4.29279000E-03
		 1.25521000E-03	-1.25606000E-01	 1.02537000E-02
		-6.30609000E-04	-1.38035000E-01	-1.30624000E-02
		-6.37267000E-04	-1.36404000E-01	-1.27757000E-02
		-9.71891000E-04	-1.26455000E-01	-1.29983000E-02
		 5.86137000E-05	-1.38176000E-01	-7.44175000E-03
		-6.45246000E-04	-1.37183000E-01	-1.28510000E-02
		-7.73829000E-04	-1.25294000E-01	-1.27407000E-02
		-1.86941000E-04	-1.36616000E-01	-7.16395000E-03
		-3.42542000E-04	-1.35763000E-01	-1.89520000E-03
		 1.42132000E-03	-1.35738000E-01	 1.00245000E-02
		-6.45946000E-05	-1.36302000E-01	-1.63798000E-03
		 1.22857000E-03	-1.36665000E-01	 1.00503000E-02
		 1.95613000E-04	-1.24496000E-01	-1.38945000E-03
		 3.76568000E-04	-1.35761000E-01	 3.99578000E-03
		 1.32011000E-03	-1.24408000E-01	 1.01087000E-02
		-3.86170000E-04	-1.35372000E-01	-1.22576000E-02
		-5.18966000E-04	-1.35857000E-01	-1.25175000E-02
		-6.73924000E-04	-1.24539000E-01	-1.26252000E-02
		-4.38099000E-04	-1.35598000E-01	-7.26595000E-03
		 0.00000000E+00	 0.00000000E+00	 0.00000000E+00
		 0.00000000E+00	 0.00000000E+00	 0.00000000E+00
		-1.25174000E-04	-1.34225000E-02	 8.70633000E-05
		-2.61783000E-03	-1.45073000E-02	 1.39661000E-02
		 0.00000000E+00	 0.00000000E+00	 0.00000000E+00
		 0.00000000E+00	 0.00000000E+00	 0.00000000E+00
		-4.05904000E-05	-1.49653000E-02	 1.14821000E-04
		-8.40202000E-04	-1.60019000E-02	 1.39360000E-02
		 0.00000000E+00	 0.00000000E+00	 0.00000000E+00
		-6.22374000E-05	-2.64883000E-03	 5.30111000E-05
		-1.43726000E-03	-1.36312000E-02	 6.96997000E-03
		-2.31640000E-03	-3.96253000E-03	 7.10152000E-03
		 0.00000000E+00	 0.00000000E+00	 0.00000000E+00
		 0.00000000E+00	 0.00000000E+00	 0.00000000E+00
		-7.34875000E-05	-1.45130000E-02	 9.95786000E-05
		-1.73305000E-03	-1.55568000E-02	 1.37743000E-02
		 0.00000000E+00	 0.00000000E+00	 0.00000000E+00
		-2.38818000E-05	-3.82696000E-03	 7.57431000E-05
		-4.46402000E-04	-1.51581000E-02	 6.87844000E-03
		-2.88702000E-04	-5.09399000E-03	 6.76190000E-03
		 0.00000000E+00	 0.00000000E+00	 0.00000000E+00
		 2.50068000E-03	-1.36604000E-02	-1.36407000E-02
		 0.00000000E+00	 0.00000000E+00	 0.00000000E+00
		 7.12603000E-04	-1.57086000E-02	-1.39550000E-02
		 0.00000000E+00	 0.00000000E+00	 0.00000000E+00
		 2.30083000E-03	-3.74688000E-03	-6.81981000E-03
		 1.22802000E-03	-1.32210000E-02	-6.71427000E-03
		 0.00000000E+00	 0.00000000E+00	 0.00000000E+00
		 1.57752000E-03	-1.50121000E-02	-1.37194000E-02
		 0.00000000E+00	 0.00000000E+00	 0.00000000E+00
		 2.94181000E-04	-4.89111000E-03	-6.65050000E-03
		 3.46985000E-04	-1.49961000E-02	-6.74347000E-03
		 0.00000000E+00	 0.00000000E+00	 0.00000000E+00
		 0.00000000E+00	 0.00000000E+00	 0.00000000E+00
		 2.07352000E-05	-1.47834000E-02	 7.21227000E-05
		 1.22275000E-03	-1.57394000E-02	 1.38393000E-02
		 0.00000000E+00	 0.00000000E+00	 0.00000000E+00
		 0.00000000E+00	 0.00000000E+00	 0.00000000E+00
		-4.90886000E-06	-1.52078000E-02	 6.57290000E-05
		 1.58041000E-04	-1.62899000E-02	 1.40065000E-02
		 0.00000000E+00	 0.00000000E+00	 0.00000000E+00
		 4.63084000E-06	-3.21971000E-03	 9.88934000E-05
		 5.50441000E-04	-1.49552000E-02	 6.63150000E-03
		 1.91054000E-03	-4.37622000E-03	 6.97142000E-03
		 0.00000000E+00	 0.00000000E+00	 0.00000000E+00
		-1.17587000E-03	-1.52724000E-02	-1.38054000E-02
		 0.00000000E+00	 0.00000000E+00	 0.00000000E+00
		-1.91102000E-04	-1.58620000E-02	-1.40111000E-02
		 0.00000000E+00	 0.00000000E+00	 0.00000000E+00
		-1.83679000E-03	-4.17271000E-03	-6.83444000E-03
		-5.24885000E-04	-1.47403000E-02	-6.57423000E-03
		-6.55192000E-05	-5.23238000E-02	-3.41513000E-04
		-4.49447000E-03	-5.34980000E-02	 2.37853000E-02
		 5.72633000E-05	-5.60915000E-02	-6.54029000E-04
		-3.30158000E-03	-5.72662000E-02	 2.37690000E-02
		-5.22916000E-05	-3.02103000E-02	 1.15414000E-05
		-2.28601000E-03	-5.27682000E-02	 1.17509000E-02
		-3.49366000E-03	-3.14953000E-02	 1.95409000E-02
		 1.25459000E-06	-5.43241000E-02	-5.38524000E-04
		-3.91018000E-03	-5.55153000E-02	 2.36278000E-02
		-2.87671000E-05	-3.28885000E-02	-1.92524000E-04
		-1.61682000E-03	-5.65532000E-02	 1.14072000E-02
		-1.90819000E-03	-3.40816000E-02	 1.95279000E-02
		 4.24761000E-03	-5.21841000E-02	-2.47615000E-02
		 3.21922000E-03	-5.60327000E-02	-2.51343000E-02
		 3.33031000E-03	-3.06430000E-02	-1.97394000E-02
		 2.11197000E-03	-5.21160000E-02	-1.26499000E-02
		 3.73504000E-03	-5.42297000E-02	-2.47177000E-02
		 1.85397000E-03	-3.32443000E-02	-1.99913000E-02
		 1.62224000E-03	-5.59366000E-02	-1.27191000E-02
		 6.21035000E-05	-5.86469000E-02	-8.25191000E-04
		-1.88280000E-03	-5.98708000E-02	 2.35452000E-02
		 4.26544000E-05	-5.74891000E-02	-7.22260000E-04
		-2.56179000E-03	-5.87447000E-02	 2.38404000E-02
		-1.58468000E-05	-3.39837000E-02	-2.20892000E-04
		-9.09038000E-04	-5.90853000E-02	 1.09988000E-02
		-2.76476000E-04	-3.51462000E-02	 1.93965000E-02
		 2.09048000E-03	-5.86361000E-02	-2.51280000E-02
		 2.64835000E-03	-5.74196000E-02	-2.54134000E-02
		 2.91695000E-04	-3.43663000E-02	-1.99914000E-02
		 1.04508000E-03	-5.85353000E-02	-1.25428000E-02
		 4.04686000E-05	-1.07671000E-01	-1.87207000E-03
		-5.97679000E-03	-1.08756000E-01	 2.84725000E-02
		 3.17775000E-04	-1.13311000E-01	-2.08506000E-03
		-5.22253000E-03	-1.14686000E-01	 2.83819000E-02
		-1.41931000E-05	-7.83906000E-02	-1.01098000E-03
		-2.96080000E-03	-1.08118000E-01	 1.33091000E-02
		-5.28734000E-03	-7.97038000E-02	 2.66604000E-02
		 1.70923000E-04	-1.10555000E-01	-1.97974000E-03
		-5.60077000E-03	-1.11754000E-01	 2.83756000E-02
		 4.35204000E-05	-8.32507000E-02	-1.26613000E-03
		-2.46927000E-03	-1.13894000E-01	 1.30385000E-02
		-4.28474000E-03	-8.45131000E-02	 2.65780000E-02
		 6.12366000E-03	-1.06981000E-01	-3.22810000E-02
		 5.51100000E-03	-1.12790000E-01	-3.24537000E-02
		 5.33107000E-03	-7.80356000E-02	-2.88880000E-02
		 3.12039000E-03	-1.07257000E-01	-1.70324000E-02
		 5.79977000E-03	-1.09958000E-01	-3.22908000E-02
		 4.49324000E-03	-8.28631000E-02	-2.91881000E-02
		 2.93107000E-03	-1.12977000E-01	-1.71701000E-02
		 4.34755000E-04	-1.18460000E-01	-2.12454000E-03
		-4.40654000E-03	-1.19978000E-01	 2.81276000E-02
		 3.99982000E-04	-1.16007000E-01	-2.12898000E-03
		-4.82169000E-03	-1.17360000E-01	 2.84813000E-02
		 1.62654000E-04	-8.71038000E-02	-1.40004000E-03
		-2.03602000E-03	-1.19137000E-01	 1.26978000E-02
		-3.29782000E-03	-8.84457000E-02	 2.64521000E-02
		 5.18982000E-03	-1.17923000E-01	-3.27180000E-02
		 5.33179000E-03	-1.15368000E-01	-3.27202000E-02
		 3.73977000E-03	-8.68620000E-02	-2.92951000E-02
		 2.73296000E-03	-1.18100000E-01	-1.71690000E-02
		 6.76466000E-04	-1.71417000E-01	-3.81169000E-03
		-7.00354000E-03	-1.72542000E-01	 2.95293000E-02
		 8.04250000E-04	-1.78942000E-01	-3.86254000E-03
		-6.76410000E-03	-1.80571000E-01	 2.93126000E-02
		 3.13087000E-04	-1.38779000E-01	-2.85864000E-03
		-3.16256000E-03	-1.71952000E-01	 1.28332000E-02
		-6.47325000E-03	-1.40146000E-01	 2.93991000E-02
		 7.53598000E-04	-1.75233000E-01	-3.80490000E-03
		-6.88609000E-03	-1.76545000E-01	 2.92918000E-02
		 4.07833000E-04	-1.45483000E-01	-2.95608000E-03
		-2.84648000E-03	-1.79735000E-01	 1.25908000E-02
		-6.06473000E-03	-1.46772000E-01	 2.92861000E-02
		 8.09000000E-03	-1.70243000E-01	-3.68928000E-02
		 7.88808000E-03	-1.77683000E-01	-3.71262000E-02
		 7.05873000E-03	-1.37975000E-01	-3.49122000E-02
		 4.35496000E-03	-1.70828000E-01	-2.02735000E-02
		 8.00851000E-03	-1.74010000E-01	-3.69942000E-02
		 6.76535000E-03	-1.44515000E-01	-3.50898000E-02
		 4.29620000E-03	-1.78278000E-01	-2.03966000E-02
		 6.54239000E-04	-1.86319000E-01	-4.13007000E-03
		-6.51819000E-03	-1.88309000E-01	 2.91343000E-02
		 7.08715000E-04	-1.82619000E-01	-3.99991000E-03
		-6.63234000E-03	-1.84915000E-01	 2.93392000E-02
		 4.52785000E-04	-1.51693000E-01	-3.17974000E-03
		-2.95431000E-03	-1.87246000E-01	 1.22963000E-02
		-5.43148000E-03	-1.52899000E-01	 2.90103000E-02
		 7.65624000E-03	-1.84805000E-01	-3.72207000E-02