# vtk DataFile Version 3.0

ASCII
DATASET UNSTRUCTURED_GRID

POINTS 522 double
	 1.00000000E+00	 1.00000000E+00	-5.96046000E-08
	 1.00000000E+00	 5.00000000E-01	-5.96046000E-08
	 1.00000000E+00	 5.00000000E-01	 1.00000000E+00
	 1.00000000E+00	 1.00000000E+00	 1.00000000E+00
	 5.00000000E-01	 1.00000000E+00	-5.96046000E-08
	 5.00000000E-01	 5.00000000E-01	-5.96046000E-08
	 5.00000000E-01	 5.00000000E-01	 1.00000000E+00
	 5.00000000E-01	 1.00000000E+00	 1.00000000E+00
	 1.00000000E+00	 7.50000000E-01	-5.96046000E-08
	 1.00000000E+00	 5.00000000E-01	 5.00000000E-01
	 1.00000000E+00	 7.50000000E-01	 1.00000000E+00
	 1.00000000E+00	 1.00000000E+00	 5.00000000E-01
	 7.50000000E-01	 1.00000000E+00	-5.96046000E-08
	 7.50000000E-01	 5.00000000E-01	-5.96046000E-08
	 7.50000000E-01	 5.00000000E-01	 1.00000000E+00
	 7.50000000E-01	 1.00000000E+00	 1.00000000E+00
	 5.00000000E-01	 7.50000000E-01	-5.96046000E-08
	 5.00000000E-01	 5.00000000E-01	 5.00000000E-01
	 5.00000000E-01	 7.50000000E-01	 1.00000000E+00
	 5.00000000E-01	 1.00000000E+00	 5.00000000E-01
	 1.00000000E+00	-1.49012000E-08	-5.96046000E-08
	 1.00000000E+00	-1.49012000E-08	 1.00000000E+00
	 5.00000000E-01	-1.49012000E-08	-5.96046000E-08
	 5.00000000E-01	-1.49012000E-08	 1.00000000E+00
	 1.00000000E+00	 2.50000000E-01	-5.96046000E-08
	 1.00000000E+00	-1.49012000E-08	 5.00000000E-01
	 1.00000000E+00	 2.50000000E-01	 1.00000000E+00
	 7.50000000E-01	-1.49012000E-08	-5.96046000E-08
	 7.50000000E-01	-1.49012000E-08	 1.00000000E+00
	 5.00000000E-01	 2.50000000E-01	-5.96046000E-08
	 5.00000000E-01	-1.49012000E-08	 5.00000000E-01
	 5.00000000E-01	 2.50000000E-01	 1.00000000E+00
	-7.45058000E-09	 1.00000000E+00	-5.96046000E-08
	-7.45058000E-09	 5.00000000E-01	-5.96046000E-08
	-7.45058000E-09	 5.00000000E-01	 1.00000000E+00
	-7.45058000E-09	 1.00000000E+00	 1.00000000E+00
	 2.50000000E-01	 1.00000000E+00	-5.96046000E-08
	 2.50000000E-01	 5.00000000E-01	-5.96046000E-08
	 2.50000000E-01	 5.00000000E-01	 1.00000000E+00
	 2.50000000E-01	 1.00000000E+00	 1.00000000E+00
	-7.45058000E-09	 7.50000000E-01	-5.96046000E-08
	-7.45058000E-09	 5.00000000E-01	 5.00000000E-01
	-7.45058000E-09	 7.50000000E-01	 1.00000000E+00
	-7.45058000E-09	 1.00000000E+00	 5.00000000E-01
	-7.45058000E-09	-1.49012000E-08	-5.96046000E-08
	-7.45058000E-09	-1.49012000E-08	 1.00000000E+00
	 2.50000000E-01	-1.49012000E-08	-5.96046000E-08
	 2.50000000E-01	-1.49012000E-08	 1.00000000E+00
	-7.45058000E-09	 2.50000000E-01	-5.96046000E-08
	-7.45058000E-09	-1.49012000E-08	 5.00000000E-01
	-7.45058000E-09	 2.50000000E-01	 1.00000000E+00
	 1.00000000E+00	 5.00000000E-01	 2.00000000E+00
	 1.00000000E+00	 1.00000000E+00	 2.00000000E+00
	 5.00000000E-01	 5.00000000E-01	 2.00000000E+00
	 5.00000000E-01	 1.00000000E+00	 2.00000000E+00
	 1.00000000E+00	 5.00000000E-01	 1.50000000E+00
	 1.00000000E+00	 7.50000000E-01	 2.00000000E+00
	 1.00000000E+00	 1.00000000E+00	 1.50000000E+00
	 7.50000000E-01	 5.00000000E-01	 2.00000000E+00
	 7.50000000E-01	 1.00000000E+00	 2.00000000E+00
	 5.00000000E-01	 5.00000000E-01	 1.50000000E+00
	 5.00000000E-01	 7.50000000E-01	 2.00000000E+00
	 5.00000000E-01	 1.00000000E+00	 1.50000000E+00
	 1.00000000E+00	-1.49012000E-08	 2.00000000E+00
	 5.00000000E-01	-1.49012000E-08	 2.00000000E+00
	 1.00000000E+00	-1.49012000E-08	 1.50000000E+00
	 1.00000000E+00	 2.50000000E-01	 2.00000000E+00
	 7.50000000E-01	-1.49012000E-08	 2.00000000E+00
	 5.00000000E-01	-1.49012000E-08	 1.50000000E+00
	 5.00000000E-01	 2.50000000E-01	 2.00000000E+00
	-7.45058000E-09	 5.00000000E-01	 2.00000000E+00
	-7.45058000E-09	 1.00000000E+00	 2.00000000E+00
	 2.50000000E-01	 5.00000000E-01	 2.00000000E+00
	 2.50000000E-01	 1.00000000E+00	 2.00000000E+00
	-7.45058000E-09	 5.00000000E-01	 1.50000000E+00
	-7.45058000E-09	 7.50000000E-01	 2.00000000E+00
	-7.45058000E-09	 1.00000000E+00	 1.50000000E+00
	-7.45058000E-09	-1.49012000E-08	 2.00000000E+00
	 2.50000000E-01	-1.49012000E-08	 2.00000000E+00
	-7.45058000E-09	-1.49012000E-08	 1.50000000E+00
	-7.45058000E-09	 2.50000000E-01	 2.00000000E+00
	 1.00000000E+00	 5.00000000E-01	 3.00000000E+00
	 1.00000000E+00	 1.00000000E+00	 3.00000000E+00
	 5.00000000E-01	 5.00000000E-01	 3.00000000E+00
	 5.00000000E-01	 1.00000000E+00	 3.00000000E+00
	 1.00000000E+00	 5.00000000E-01	 2.50000000E+00
	 1.00000000E+00	 7.50000000E-01	 3.00000000E+00
	 1.00000000E+00	 1.00000000E+00	 2.50000000E+00
	 7.50000000E-01	 5.00000000E-01	 3.00000000E+00
	 7.50000000E-01	 1.00000000E+00	 3.00000000E+00
	 5.00000000E-01	 5.00000000E-01	 2.50000000E+00
	 5.00000000E-01	 7.50000000E-01	 3.00000000E+00
	 5.00000000E-01	 1.00000000E+00	 2.50000000E+00
	 1.00000000E+00	-1.49012000E-08	 3.00000000E+00
	 5.00000000E-01	-1.49012000E-08	 3.00000000E+00
	 1.00000000E+00	-1.49012000E-08	 2.50000000E+00
	 1.00000000E+00	 2.50000000E-01	 3.00000000E+00
	 7.50000000E-01	-1.49012000E-08	 3.00000000E+00
	 5.00000000E-01	-1.49012000E-08	 2.50000000E+00
	 5.00000000E-01	 2.50000000E-01	 3.00000000E+00
	-7.45058000E-09	 5.00000000E-01	 3.00000000E+00
	-7.45058000E-09	 1.00000000E+00	 3.00000000E+00
	 2.50000000E-01	 5.00000000E-01	 3.00000000E+00
	 2.50000000E-01	 1.00000000E+00	 3.00000000E+00
	-7.45058000E-09	 5.00000000E-01	 2.50000000E+00
	-7.45058000E-09	 7.50000000E-01	 3.00000000E+00
	-7.45058000E-09	 1.00000000E+00	 2.50000000E+00
	-7.45058000E-09	-1.49012000E-08	 3.00000000E+00
	 2.50000000E-01	-1.49012000E-08	 3.00000000E+00
	-7.45058000E-09	-1.49012000E-08	 2.50000000E+00
	-7.45058000E-09	 2.50000000E-01	 3.00000000E+00
	 1.00000000E+00	 5.00000000E-01	 4.00000000E+00
	 1.00000000E+00	 1.00000000E+00	 4.00000000E+00
	 5.00000000E-01	 5.00000000E-01	 4.00000000E+00
	 5.00000000E-01	 1.00000000E+00	 4.00000000E+00
	 1.00000000E+00	 5.00000000E-01	 3.50000000E+00
	 1.00000000E+00	 7.50000000E-01	 4.00000000E+00
	 1.00000000E+00	 1.00000000E+00	 3.50000000E+00
	 7.50000000E-01	 5.00000000E-01	 4.00000000E+00
	 7.50000000E-01	 1.00000000E+00	 4.00000000E+00
	 5.00000000E-01	 5.00000000E-01	 3.50000000E+00
	 5.00000000E-01	 7.50000000E-01	 4.00000000E+00
	 5.00000000E-01	 1.00000000E+00	 3.50000000E+00
	 1.00000000E+00	-1.49012000E-08	 4.00000000E+00
	 5.00000000E-01	-1.49012000E-08	 4.00000000E+00
	 1.00000000E+00	-1.49012000E-08	 3.50000000E+00
	 1.00000000E+00	 2.50000000E-01	 4.00000000E+00
	 7.50000000E-01	-1.49012000E-08	 4.00000000E+00
	 5.00000000E-01	-1.49012000E-08	 3.50000000E+00
	 5.00000000E-01	 2.50000000E-01	 4.00000000E+00
	-7.45058000E-09	 5.00000000E-01	 4.00000000E+00
	-7.45058000E-09	 1.00000000E+00	 4.00000000E+00
	 2.50000000E-01	 5.00000000E-01	 4.00000000E+00
	 2.50000000E-01	 1.00000000E+00	 4.00000000E+00
	-7.45058000E-09	 5.00000000E-01	 3.50000000E+00
	-7.45058000E-09	 7.50000000E-01	 4.00000000E+00
	-7.45058000E-09	 1.00000000E+00	 3.50000000E+00
	-7.45058000E-09	-1.49012000E-08	 4.00000000E+00
	 2.50000000E-01	-1.49012000E-08	 4.00000000E+00
	-7.45058000E-09	-1.49012000E-08	 3.50000000E+00
	-7.45058000E-09	 2.50000000E-01	 4.00000000E+00
	 1.00000000E+00	 5.00000000E-01	 5.00000000E+00
	 1.00000000E+00	 1.00000000E+00	 5.00000000E+00
	 5.00000000E-01	 5.00000000E-01	 5.00000000E+00
	 5.00000000E-01	 1.00000000E+00	 5.00000000E+00
	 1.00000000E+00	 5.00000000E-01	 4.50000000E+00
	 1.00000000E+00	 7.50000000E-01	 5.00000000E+00
	 1.00000000E+00	 1.00000000E+00	 4.50000000E+00
	 7.50000000E-01	 5.00000000E-01	 5.00000000E+00
	 7.50000000E-01	 1.00000000E+00	 5.00000000E+00
	 5.00000000E-01	 5.00000000E-01	 4.50000000E+00
	 5.00000000E-01	 7.50000000E-01	 5.00000000E+00
	 5.00000000E-01	 1.00000000E+00	 4.50000000E+00
	 1.00000000E+00	-1.49012000E-08	 5.00000000E+00
	 5.00000000E-01	-1.49012000E-08	 5.00000000E+00
	 1.00000000E+00	-1.49012000E-08	 4.50000000E+00
	 1.00000000E+00	 2.50000000E-01	 5.00000000E+00
	 7.50000000E-01	-1.49012000E-08	 5.00000000E+00
	 5.00000000E-01	-1.49012000E-08	 4.50000000E+00
	 5.00000000E-01	 2.50000000E-01	 5.00000000E+00
	-7.45058000E-09	 5.00000000E-01	 5.00000000E+00
	-7.45058000E-09	 1.00000000E+00	 5.00000000E+00
	 2.50000000E-01	 5.00000000E-01	 5.00000000E+00
	 2.50000000E-01	 1.00000000E+00	 5.00000000E+00
	-7.45058000E-09	 5.00000000E-01	 4.50000000E+00
	-7.45058000E-09	 7.50000000E-01	 5.00000000E+00
	-7.45058000E-09	 1.00000000E+00	 4.50000000E+00
	-7.45058000E-09	-1.49012000E-08	 5.00000000E+00
	 2.50000000E-01	-1.49012000E-08	 5.00000000E+00
	-7.45058000E-09	-1.49012000E-08	 4.50000000E+00
	-7.45058000E-09	 2.50000000E-01	 5.00000000E+00
	 1.00000000E+00	 5.00000000E-01	 6.00000000E+00
	 1.00000000E+00	 1.00000000E+00	 6.00000000E+00
	 5.00000000E-01	 5.00000000E-01	 6.00000000E+00
	 5.00000000E-01	 1.00000000E+00	 6.00000000E+00
	 1.00000000E+00	 5.00000000E-01	 5.50000000E+00
	 1.00000000E+00	 7.50000000E-01	 6.00000000E+00
	 1.00000000E+00	 1.00000000E+00	 5.50000000E+00
	 7.50000000E-01	 5.00000000E-01	 6.00000000E+00
	 7.50000000E-01	 1.00000000E+00	 6.00000000E+00
	 5.00000000E-01	 5.00000000E-01	 5.50000000E+00
	 5.00000000E-01	 7.50000000E-01	 6.00000000E+00
	 5.00000000E-01	 1.00000000E+00	 5.50000000E+00
	 1.00000000E+00	-1.49012000E-08	 6.00000000E+00
	 5.00000000E-01	-1.49012000E-08	 6.00000000E+00
	 1.00000000E+00	-1.49012000E-08	 5.50000000E+00
	 1.00000000E+00	 2.50000000E-01	 6.00000000E+00
	 7.50000000E-01	-1.49012000E-08	 6.00000000E+00
	 5.00000000E-01	-1.49012000E-08	 5.50000000E+00
	 5.00000000E-01	 2.50000000E-01	 6.00000000E+00
	-7.45058000E-09	 5.00000000E-01	 6.00000000E+00
	-7.45058000E-09	 1.00000000E+00	 6.00000000E+00
	 2.50000000E-01	 5.00000000E-01	 6.00000000E+00
	 2.50000000E-01	 1.00000000E+00	 6.00000000E+00
	-7.45058000E-09	 5.00000000E-01	 5.50000000E+00
	-7.45058000E-09	 7.50000000E-01	 6.00000000E+00
	-7.45058000E-09	 1.00000000E+00	 5.50000000E+00
	-7.45058000E-09	-1.49012000E-08	 6.00000000E+00
	 2.50000000E-01	-1.49012000E-08	 6.00000000E+00
	-7.45058000E-09	-1.49012000E-08	 5.50000000E+00
	-7.45058000E-09	 2.50000000E-01	 6.00000000E+00
	 1.00000000E+00	 5.00000000E-01	 7.00000000E+00
[...]
POINT_DATA 522
FIELD U 1
	U 3 522 double
		 0.00000000E+00	 0.00000000E+00	 0.00000000E+00
		 0.00000000E+00	 0.00000000E+00	 0.00000000E+00
		 7.61958000E-06	-3.55600000E-03	 9.82132000E-07
		 6.60761000E-04	-3.68473000E-03	 2.36372000E-03
		 0.00000000E+00	 0.00000000E+00	 0.00000000E+00
		 0.00000000E+00	 0.00000000E+00	 0.00000000E+00
		 6.49199000E-06	-2.74266000E-03	 9.49075000E-06
		 9.65072000E-04	-2.89006000E-03	 2.40033000E-03
		 0.00000000E+00	 0.00000000E+00	 0.00000000E+00
		-1.32018000E-06	-1.06785000E-03	 6.10759000E-06
		 3.36182000E-04	-3.56509000E-03	 1.06464000E-03
		 9.18090000E-05	-1.25136000E-03	 1.21915000E-03
		 0.00000000E+00	 0.00000000E+00	 0.00000000E+00
		 0.00000000E+00	 0.00000000E+00	 0.00000000E+00
		 7.29297000E-06	-3.20001000E-03	 5.08112000E-06
		 8.14055000E-04	-3.34123000E-03	 2.46981000E-03
		 0.00000000E+00	 0.00000000E+00	 0.00000000E+00
		-3.96727000E-07	-7.56976000E-04	 9.20718000E-06
		 4.85155000E-04	-2.76056000E-03	 1.17369000E-03
		 4.69615000E-04	-9.63131000E-04	 1.19051000E-03
		 0.00000000E+00	 0.00000000E+00	 0.00000000E+00
		-6.50308000E-04	-3.67691000E-03	-2.36427000E-03
		 0.00000000E+00	 0.00000000E+00	 0.00000000E+00
		-9.56840000E-04	-2.87468000E-03	-2.38476000E-03
		 0.00000000E+00	 0.00000000E+00	 0.00000000E+00
		-9.53805000E-05	-1.24388000E-03	-1.20985000E-03
		-3.22072000E-04	-3.56352000E-03	-1.06319000E-03
		 0.00000000E+00	 0.00000000E+00	 0.00000000E+00
		-8.04301000E-04	-3.32851000E-03	-2.46305000E-03
		 0.00000000E+00	 0.00000000E+00	 0.00000000E+00
		-4.72409000E-04	-9.52543000E-04	-1.17353000E-03
		-4.73540000E-04	-2.75339000E-03	-1.15591000E-03
		 0.00000000E+00	 0.00000000E+00	 0.00000000E+00
		 0.00000000E+00	 0.00000000E+00	 0.00000000E+00
		 6.83294000E-06	-1.63116000E-03	 2.13846000E-05
		 1.26278000E-03	-1.77603000E-03	 2.38455000E-03
		 0.00000000E+00	 0.00000000E+00	 0.00000000E+00
		 0.00000000E+00	 0.00000000E+00	 0.00000000E+00
		 6.00640000E-06	-2.23898000E-03	 1.46728000E-05
		 1.11130000E-03	-2.38256000E-03	 2.30614000E-03
		 0.00000000E+00	 0.00000000E+00	 0.00000000E+00
		 1.47261000E-06	-1.26512000E-04	 1.15725000E-05
		 6.36751000E-04	-1.65100000E-03	 1.25922000E-03
		 8.12443000E-04	-3.49805000E-04	 1.22583000E-03
		 0.00000000E+00	 0.00000000E+00	 0.00000000E+00
		-1.25302000E-03	-1.75274000E-03	-2.34498000E-03
		 0.00000000E+00	 0.00000000E+00	 0.00000000E+00
		-1.10375000E-03	-2.36367000E-03	-2.28015000E-03
		 0.00000000E+00	 0.00000000E+00	 0.00000000E+00
		-8.10856000E-04	-3.36248000E-04	-1.20294000E-03
		-6.24283000E-04	-1.63834000E-03	-1.21737000E-03
		 1.43084000E-05	-1.13358000E-02	-2.53581000E-05
		 1.58174000E-03	-1.14764000E-02	 4.13237000E-03
		 1.99863000E-05	-9.66909000E-03	-1.77488000E-06
		 1.79578000E-03	-9.80281000E-03	 4.16566000E-03
		 9.96233000E-06	-7.02116000E-03	-1.26973000E-05
		 7.95324000E-04	-1.13835000E-02	 1.98428000E-03
		 1.15704000E-03	-7.18208000E-03	 3.32782000E-03
		 1.63458000E-05	-1.05270000E-02	-1.29817000E-05
		 1.68952000E-03	-1.06611000E-02	 4.19799000E-03
		 1.38491000E-05	-5.74845000E-03	 2.88664000E-06
		 9.09196000E-04	-9.71251000E-03	 2.06042000E-03
		 1.41940000E-03	-5.90281000E-03	 3.35416000E-03
		-1.54850000E-03	-1.14214000E-02	-4.18374000E-03
		-1.75003000E-03	-9.75314000E-03	-4.16994000E-03
		-1.14201000E-03	-7.15754000E-03	-3.34931000E-03
		-7.65066000E-04	-1.13549000E-02	-2.03485000E-03
		-1.65132000E-03	-1.06080000E-02	-4.22494000E-03
		-1.39366000E-03	-5.87215000E-03	-3.34867000E-03
		-8.66858000E-04	-9.68750000E-03	-2.06405000E-03
		 2.89303000E-05	-7.79432000E-03	 2.06715000E-05
		 2.02921000E-03	-7.91461000E-03	 4.17614000E-03
		 2.45023000E-05	-8.75472000E-03	 8.87544000E-06
		 1.91237000E-03	-8.88438000E-03	 4.13425000E-03
		 1.95592000E-05	-4.21019000E-03	 2.43872000E-05
		 1.02750000E-03	-7.82954000E-03	 2.11287000E-03
		 1.70065000E-03	-4.35615000E-03	 3.36082000E-03
		-1.96480000E-03	-7.87198000E-03	-4.13495000E-03
		-1.85710000E-03	-8.83868000E-03	-4.11586000E-03
		-1.66154000E-03	-4.32383000E-03	-3.31606000E-03
		-9.66967000E-04	-7.80909000E-03	-2.07236000E-03
		 3.78819000E-05	-2.17090000E-02	-7.27787000E-05
		 2.10289000E-03	-2.17912000E-02	 5.21139000E-03
		 4.32138000E-05	-1.95811000E-02	-3.75553000E-05
		 2.22242000E-03	-1.96708000E-02	 5.26392000E-03
		 2.76181000E-05	-1.62837000E-02	-4.07443000E-05
		 1.07196000E-03	-2.17316000E-02	 2.51679000E-03
		 1.89996000E-03	-1.64010000E-02	 4.75681000E-03
		 4.09909000E-05	-2.06617000E-02	-5.65534000E-05
		 2.16281000E-03	-2.07478000E-02	 5.25784000E-03
		 3.14603000E-05	-1.43293000E-02	-1.33578000E-05
		 1.13394000E-03	-1.96085000E-02	 2.58291000E-03
		 2.06285000E-03	-1.44438000E-02	 4.79920000E-03
		-2.04115000E-03	-2.17454000E-02	-5.36007000E-03
		-2.15168000E-03	-1.96039000E-02	-5.34291000E-03
		-1.84596000E-03	-1.63441000E-02	-4.84994000E-03
		-1.00107000E-03	-2.17130000E-02	-2.66330000E-03
		-2.09601000E-03	-2.06910000E-02	-5.37414000E-03
		-2.00404000E-03	-1.43830000E-02	-4.83016000E-03
		-1.05315000E-03	-1.95761000E-02	-2.65899000E-03
		 4.83118000E-05	-1.73364000E-02	 2.30032000E-06
		 2.35278000E-03	-1.74275000E-02	 5.29122000E-03
		 4.54213000E-05	-1.84739000E-02	-1.72217000E-05
		 2.28744000E-03	-1.85664000E-02	 5.26880000E-03
		 3.75975000E-05	-1.22111000E-02	 1.22756000E-05
		 1.19936000E-03	-1.73663000E-02	 2.62913000E-03
		 2.24300000E-03	-1.23246000E-02	 4.82032000E-03
		-2.27183000E-03	-1.73381000E-02	-5.29176000E-03
		-2.21292000E-03	-1.84889000E-02	-5.30888000E-03
		-2.17357000E-03	-1.22543000E-02	-4.79296000E-03
		-1.10810000E-03	-1.73195000E-02	-2.62487000E-03
		 5.39309000E-05	-3.34046000E-02	-1.33017000E-04
		 2.36114000E-03	-3.34152000E-02	 5.33904000E-03
		 6.28543000E-05	-3.11487000E-02	-9.26381000E-05
		 2.28297000E-03	-3.11430000E-02	 5.40295000E-03
		 4.42441000E-05	-2.75196000E-02	-1.09261000E-04
		 1.20561000E-03	-3.34210000E-02	 2.54708000E-03
		 2.26531000E-03	-2.75690000E-02	 5.42912000E-03
		 5.79029000E-05	-3.22682000E-02	-1.12595000E-04
		 2.32053000E-03	-3.22693000E-02	 5.37509000E-03
		 5.19955000E-05	-2.52870000E-02	-6.59801000E-05
		 1.17201000E-03	-3.11559000E-02	 2.59865000E-03
		 2.30362000E-03	-2.53319000E-02	 5.49008000E-03
		-2.24333000E-03	-3.33278000E-02	-5.60185000E-03
		-2.14676000E-03	-3.10710000E-02	-5.58412000E-03
		-2.17854000E-03	-2.74967000E-02	-5.63776000E-03
		-1.09357000E-03	-3.33767000E-02	-2.81201000E-03
		-2.19491000E-03	-3.21886000E-02	-5.59672000E-03
		-2.19801000E-03	-2.52578000E-02	-5.62142000E-03
		-1.04282000E-03	-3.11210000E-02	-2.78286000E-03
		 7.12736000E-05	-2.89704000E-02	-5.64727000E-05
		 2.21575000E-03	-2.89506000E-02	 5.41298000E-03
		 6.71095000E-05	-3.00484000E-02	-7.34808000E-05
		 2.25165000E-03	-3.00387000E-02	 5.43761000E-03
		 6.03402000E-05	-2.30211000E-02	-1.90744000E-05
		 1.14033000E-03	-2.89680000E-02	 2.59501000E-03
		 2.35257000E-03	-2.30527000E-02	 5.51032000E-03
		-2.06316000E-03	-2.88941000E-02	-5.52076000E-03
		-2.10584000E-03	-2.99730000E-02	-5.58003000E-03
		-2.22629000E-03	-2.29858000E-02	-5.55680000E-03
		-9.95375000E-04	-2.89451000E-02	-2.70668000E-03
		 1.02942000E-04	-4.34074000E-02	-1.68709000E-04
		 2.18425000E-03	-4.33114000E-02	 3.96898000E-03
		 1.05041000E-04	-4.14832000E-02	-1.39841000E-04
		 1.89120000E-03	-4.13710000E-02	 4.00071000E-03
		 7.60584000E-05	-3.88779000E-02	-1.54007000E-04
		 1.13599000E-03	-4.34015000E-02	 1.93854000E-03
		 2.34727000E-03	-3.88326000E-02	 4.79886000E-03
		 1.05086000E-04	-4.24085000E-02	-1.51933000E-04
		 2.04122000E-03	-4.22970000E-02	 3.94329000E-03
		 8.00670000E-05	-3.67195000E-02	-1.19307000E-04
		 9.98108000E-04	-4.14691000E-02	 1.92461000E-03
		 2.14193000E-03	-3.66605000E-02	 4.86102000E-03
		-1.98337000E-03	-4.32624000E-02	-4.30222000E-03
		-1.68337000E-03	-4.13208000E-02	-4.27829000E-03
		-2.19608000E-03	-3.87675000E-02	-5.10843000E-03
		-9.34754000E-04	-4.33744000E-02	-2.27639000E-03
		-1.83291000E-03	-4.22490000E-02	-4.24254000E-03
		-1.97948000E-03	-3.65961000E-02	-5.09435000E-03
		-7.89759000E-04	-4.14432000E-02	-2.20339000E-03
		 1.04150000E-04	-3.98315000E-02	-1.09989000E-04
		 1.60385000E-03	-3.97245000E-02	 4.02595000E-03
		 1.05017000E-04	-4.06181000E-02	-1.27745000E-04
		 1.74583000E-03	-4.05058000E-02	 4.06136000E-03
		 8.14561000E-05	-3.47538000E-02	-8.97502000E-05
		 8.58191000E-04	-3.98191000E-02	 1.90107000E-03
		 1.94724000E-03	-3.46915000E-02	 4.86661000E-03
		-1.39895000E-03	-3.96746000E-02	-4.24559000E-03
		-1.54089000E-03	-4.04571000E-02	-4.31425000E-03
		-1.78307000E-03	-3.46286000E-02	-5.03464000E-03
		-6.49895000E-04	-3.97913000E-02	-2.12160000E-03
		 9.38016000E-05	-4.86001000E-02	-1.45073000E-04
		 1.18913000E-03	-4.85667000E-02	 2.53901000E-03
		 1.02119000E-04	-4.75545000E-02	-1.46315000E-04
		 1.11825000E-03	-4.75204000E-02	 2.50267000E-03
		 1.09520000E-04	-4.65520000E-02	-1.58175000E-04
		 6.45893000E-04	-4.85894000E-02	 1.35334000E-03
		 1.78107000E-03	-4.64927000E-02	 3.09878000E-03
		 9.75620000E-05	-4.80653000E-02	-1.49345000E-04
		 1.15080000E-03	-4.80341000E-02	 2.42852000E-03
		 1.15522000E-04	-4.50162000E-02	-1.47317000E-04
		 6.12193000E-04	-4.75459000E-02	 1.24664000E-03
		 1.54759000E-03	-4.49328000E-02	 3.08330000E-03
		-9.86363000E-04	-4.85413000E-02	-2.82409000E-03
		-9.06578000E-04	-4.75062000E-02	-2.79543000E-03
		-1.54520000E-03	-4.64434000E-02	-3.41296000E-03
		-4.47499000E-04	-4.85825000E-02	-1.63592000E-03
		-9.46736000E-04	-4.80148000E-02	-2.72645000E-03
		-1.30847000E-03	-4.49052000E-02	-3.37962000E-03
		-4.03817000E-04	-4.75410000E-02	-1.53970000E-03
		 1.09552000E-04	-4.65850000E-02	-1.47864000E-04
		 1.04370000E-03	-4.65512000E-02	 2.52974000E-03
		 1.05853000E-04	-4.70637000E-02	-1.42216000E-04
		 1.08405000E-03	-4.70317000E-02	 2.56243000E-03
		 1.20059000E-04	-4.36986000E-02	-1.31824000E-04
		 5.74754000E-04	-4.65765000E-02	 1.21287000E-03
		 1.32579000E-03	-4.36168000E-02	 3.12345000E-03
		-8.17420000E-04	-4.65456000E-02	-2.82971000E-03
		-8.61248000E-04	-4.70150000E-02	-2.85493000E-03
		-1.08073000E-03	-4.35978000E-02	-3.39242000E-03
		-3.57880000E-04	-4.65777000E-02	-1.50735000E-03
		 9.92178000E-05	-5.30207000E-02	-1.36497000E-04
		 6.18310000E-04	-5.30701000E-02	 2.67750000E-03
		 9.85105000E-05	-5.25064000E-02	-1.53327000E-04
		 6.56984000E-04	-5.25324000E-02	 2.64693000E-03
		 9.51107000E-05	-5.05004000E-02	-1.56571000E-04
		 3.56037000E-04	-5.30520000E-02	 1.25648000E-03
		 6.95415000E-04	-5.04784000E-02	 2.51812000E-03
		 9.71806000E-05	-5.27672000E-02	-1.40547000E-04
		 6.41636000E-04	-5.28137000E-02	 2.68920000E-03
		 9.18464000E-05	-4.98632000E-02	-1.50520000E-04
		 3.74463000E-04	-5.25147000E-02	 1.24703000E-03
		 7.62759000E-04	-4.98684000E-02	 2.49088000E-03
		-3.59831000E-04	-5.29823000E-02	-2.99411000E-03
		-4.31041000E-04	-5.25135000E-02	-2.99186000E-03
		-5.20576000E-04	-5.04701000E-02	-2.80620000E-03
		-1.44768000E-04	-5.29754000E-02	-1.56769000E-03
		-3.89724000E-04	-5.27593000E-02	-2.99989000E-03
		-5.70841000E-04	-4.98527000E-02	-2.78397000E-03
		-1.71956000E-04	-5.24970000E-02	-1.57097000E-03
		 1.01078000E-04	-5.19496000E-02	-1.55556000E-04
		 6.57180000E-04	-5.19949000E-02	 2.63377000E-03
		 1.00528000E-04	-5.22389000E-02	-1.61318000E-04
		 6.54046000E-04	-5.22539000E-02	 2.64048000E-03
		 9.14513000E-05	-4.91942000E-02	-1.46043000E-04
		 3.95093000E-04	-5.19669000E-02	 1.22159000E-03
		 7.79874000E-04	-4.92039000E-02	 2.49298000E-03
		-4.88794000E-04	-5.19646000E-02	-2.95052000E-03
		-4.66574000E-04	-5.22555000E-02	-2.96967000E-03
		-5.94411000E-04	-4.91960000E-02	-2.79570000E-03
		-1.93851000E-04	-5.19463000E-02	-1.54683000E-03
		-1.30292000E-04	-5.87166000E-02	-5.67618000E-05
		 5.16762000E-04	-5.82830000E-02	 2.49124000E-03
		 1.25985000E-04	-5.81466000E-02	-1.88329000E-04
		 5.81903000E-04	-5.79189000E-02	 2.48948000E-03
		 3.19780000E-05	-5.59197000E-02	-4.38115000E-05
		 1.58360000E-04	-5.84644000E-02	 1.34887000E-03
		 7.24088000E-04	-5.59553000E-02	 2.65853000E-03
		-8.96447000E-06	-5.84247000E-02	-1.42324000E-04
		 5.45837000E-04	-5.80014000E-02	 2.43551000E-03
		 1.14352000E-04	-5.53447000E-02	-1.54578000E-04
		 3.87066000E-04	-5.80023000E-02	 1.20246000E-03
		 6.30520000E-04	-5.53048000E-02	 2.59609000E-03
		-6.25229000E-04	-5.89890000E-02	-3.13066000E-03
		-5.43755000E-04	-5.83576000E-02	-3.14549000E-03
		-4.66839000E-04	-5.59228000E-02	-3.09185000E-03
		-3.82736000E-04	-5.89044000E-02	-1.57936000E-03
		-5.97841000E-04	-5.87067000E-02	-3.17889000E-03
		-5.03905000E-04	-5.54052000E-02	-3.11512000E-03
		-1.92055000E-04	-5.82925000E-02	-1.65664000E-03
		 2.72707000E-04	-5.75737000E-02	-1.00447000E-04
		 7.28335000E-04	-5.74222000E-02	 2.54925000E-03
		 2.24812000E-04	-5.78576000E-02	-1.72829000E-04
		 6.52376000E-04	-5.76988000E-02	 2.51070000E-03
		 1.52748000E-04	-5.47961000E-02	-1.30140000E-04
		 4.89123000E-04	-5.75162000E-02	 1.27551000E-03
		 6.24005000E-04	-5.48423000E-02	 2.63201000E-03
		-4.94739000E-04	-5.75583000E-02	-3.00421000E-03
		-5.05384000E-04	-5.79789000E-02	-3.06947000E-03
		-5.26775000E-04	-5.47380000E-02	-3.01131000E-03
		-6.68784000E-05	-5.75680000E-02	-1.55959000E-03
		 0.00000000E+00	 0.00000000E+00	 0.00000000E+00
		 0.00000000E+00	 0.00000000E+00	 0.00000000E+00
		 6.09317000E-05	-1.51730000E-02	-4.10731000E-04
		-3.62685000E-03	-1.63507000E-02	 1.54167000E-02
		 0.00000000E+00	 0.00000000E+00	 0.00000000E+00
		 0.00000000E+00	 0.00000000E+00	 0.00000000E+00
		 1.68314000E-05	-1.77860000E-02	-5.04835000E-04
		-1.57839000E-03	-1.90338000E-02	 1.54983000E-02
		 0.00000000E+00	 0.00000000E+00	 0.00000000E+00
		 6.98649000E-05	-2.89178000E-03	-1.45627000E-04
		-1.78591000E-03	-1.53987000E-02	 7.47133000E-03
		-3.09430000E-03	-4.32503000E-03	 7.86747000E-03
		 0.00000000E+00	 0.00000000E+00	 0.00000000E+00
		 0.00000000E+00	 0.00000000E+00	 0.00000000E+00
		 4.23862000E-05	-1.68297000E-02	-4.66246000E-04
		-2.58177000E-03	-1.80398000E-02	 1.53106000E-02
		 0.00000000E+00	 0.00000000E+00	 0.00000000E+00
		 8.67908000E-06	-4.74073000E-03	-1.77682000E-04
		-7.81290000E-04	-1.80304000E-02	 7.31413000E-03
		-7.74263000E-04	-6.15225000E-03	 7.61962000E-03
		 0.00000000E+00	 0.00000000E+00	 0.00000000E+00
		 3.70901000E-03	-1.58273000E-02	-1.63230000E-02
		 0.00000000E+00	 0.00000000E+00	 0.00000000E+00
		 1.61879000E-03	-1.85090000E-02	-1.66003000E-02
		 0.00000000E+00	 0.00000000E+00	 0.00000000E+00
		 3.21245000E-03	-4.18591000E-03	-8.20239000E-03
		 1.89315000E-03	-1.51321000E-02	-8.32002000E-03
		 0.00000000E+00	 0.00000000E+00	 0.00000000E+00
		 2.65597000E-03	-1.75115000E-02	-1.63280000E-02
		 0.00000000E+00	 0.00000000E+00	 0.00000000E+00
		 7.98645000E-04	-6.03321000E-03	-8.00351000E-03
		 8.15269000E-04	-1.77665000E-02	-8.35296000E-03
		 0.00000000E+00	 0.00000000E+00	 0.00000000E+00
		 0.00000000E+00	 0.00000000E+00	 0.00000000E+00
		-3.85196000E-05	-1.83715000E-02	-5.16960000E-04
		 4.69498000E-04	-1.95258000E-02	 1.53157000E-02
		 0.00000000E+00	 0.00000000E+00	 0.00000000E+00
		 0.00000000E+00	 0.00000000E+00	 0.00000000E+00
		-1.04317000E-05	-1.84269000E-02	-5.23688000E-04
		-5.70496000E-04	-1.96326000E-02	 1.55390000E-02
		 0.00000000E+00	 0.00000000E+00	 0.00000000E+00
		-6.20995000E-05	-4.46234000E-03	-1.82845000E-04
		 2.14083000E-04	-1.85779000E-02	 7.08113000E-03
		 1.59457000E-03	-5.82336000E-03	 7.83629000E-03
		 0.00000000E+00	 0.00000000E+00	 0.00000000E+00
		-4.97649000E-04	-1.90270000E-02	-1.64246000E-02
		 0.00000000E+00	 0.00000000E+00	 0.00000000E+00
		 5.70180000E-04	-1.91095000E-02	-1.66758000E-02
		 0.00000000E+00	 0.00000000E+00	 0.00000000E+00
		-1.68590000E-03	-5.71043000E-03	-8.23525000E-03
		-2.72626000E-04	-1.83375000E-02	-8.13255000E-03
		 6.14486000E-05	-6.08909000E-02	-1.67959000E-03
		-4.45020000E-03	-6.24219000E-02	 2.64810000E-02
		 4.37302000E-05	-6.46259000E-02	-1.86993000E-03
		-2.94087000E-03	-6.61600000E-02	 2.63614000E-02
		 6.38361000E-05	-3.48267000E-02	-9.06784000E-04
		-2.19372000E-03	-6.14888000E-02	 1.23072000E-02
		-4.14994000E-03	-3.62785000E-02	 2.16383000E-02
		 5.34240000E-05	-6.29248000E-02	-1.78784000E-03
		-3.69697000E-03	-6.44587000E-02	 2.63754000E-02
		 2.62570000E-05	-3.80935000E-02	-1.05138000E-03
		-1.44712000E-03	-6.52258000E-02	 1.21174000E-02
		-2.31889000E-03	-3.95519000E-02	 2.15695000E-02
		 4.57962000E-03	-6.07839000E-02	-2.99388000E-02
		 3.04535000E-03	-6.45567000E-02	-3.02021000E-02
		 4.24617000E-03	-3.52499000E-02	-2.35583000E-02
		 2.31565000E-03	-6.06770000E-02	-1.56889000E-02
		 3.81900000E-03	-6.28457000E-02	-3.00474000E-02
		 2.38079000E-03	-3.85270000E-02	-2.37846000E-02
		 1.54428000E-03	-6.44380000E-02	-1.58774000E-02
		 1.14042000E-05	-6.68648000E-02	-1.96938000E-03
		-1.44080000E-03	-6.83547000E-02	 2.61963000E-02
		 2.88186000E-05	-6.59106000E-02	-1.93042000E-03
		-2.18672000E-03	-6.74609000E-02	 2.63871000E-02
		-2.32361000E-05	-3.95216000E-02	-1.09936000E-03
		-7.23440000E-04	-6.74290000E-02	 1.18709000E-02
		-5.17971000E-04	-4.09677000E-02	 2.14425000E-02
		 1.52519000E-03	-6.68149000E-02	-3.02345000E-02
		 2.28375000E-03	-6.58449000E-02	-3.03499000E-02
		 5.29992000E-04	-3.99929000E-02	-2.37548000E-02
		 7.65851000E-04	-6.66895000E-02	-1.58291000E-02
		 1.64428000E-04	-1.27162000E-01	-4.06820000E-03
		-4.60109000E-03	-1.28814000E-01	 3.18375000E-02
		 1.58717000E-04	-1.31460000E-01	-4.28672000E-03
		-3.74578000E-03	-1.33235000E-01	 3.16765000E-02
		 1.02779000E-04	-9.20486000E-02	-2.73245000E-03
		-2.21401000E-03	-1.27870000E-01	 1.37832000E-02
		-4.58628000E-03	-9.36911000E-02	 2.98099000E-02
		 1.63804000E-04	-1.29422000E-01	-4.18478000E-03
		-4.17453000E-03	-1.31147000E-01	 3.17258000E-02
		 8.59062000E-05	-9.61389000E-02	-2.95467000E-03
		-1.81681000E-03	-1.32234000E-01	 1.35565000E-02
		-3.41687000E-03	-9.77899000E-02	 2.96724000E-02
		 4.87440000E-03	-1.26300000E-01	-4.00284000E-02
		 4.04803000E-03	-1.30601000E-01	-4.03401000E-02
		 4.78444000E-03	-9.15603000E-02	-3.53783000E-02
		 2.52378000E-03	-1.26635000E-01	-2.19270000E-02
		 4.46034000E-03	-1.28553000E-01	-4.01793000E-02
		 3.59685000E-03	-9.56505000E-02	-3.56743000E-02
		 2.10579000E-03	-1.30938000E-01	-2.21679000E-02
		 1.41826000E-04	-1.34935000E-01	-4.43888000E-03
		-3.00740000E-03	-1.36841000E-01	 3.14495000E-02
		 1.50970000E-04	-1.33319000E-01	-4.37132000E-03
		-3.38054000E-03	-1.35034000E-01	 3.16556000E-02
		 6.83555000E-05	-9.90557000E-02	-3.09710000E-03
		-1.39831000E-03	-1.35774000E-01	 1.32684000E-02
		-2.30031000E-03	-1.00732000E-01	 2.94563000E-02
		 3.23863000E-03	-1.34109000E-01	-4.04465000E-02
		 3.64404000E-03	-1.32447000E-01	-4.04929000E-02
		 2.41177000E-03	-9.85850000E-02	-3.57355000E-02
		 1.67884000E-03	-1.34442000E-01	-2.22065000E-02
		 4.67854000E-04	-2.04388000E-01	-7.27355000E-03
		-4.26070000E-03	-2.06024000E-01	 3.23213000E-02
		 4.59284000E-04	-2.09003000E-01	-7.42208000E-03
		-4.03807000E-03	-2.11097000E-01	 3.22029000E-02
		 2.49658000E-04	-1.64919000E-01	-5.60623000E-03
		-1.89696000E-03	-2.05163000E-01	 1.24755000E-02
		-4.51842000E-03	-1.66676000E-01	 3.25051000E-02
		 4.63701000E-04	-2.06699000E-01	-7.34845000E-03
		-4.14033000E-03	-2.08512000E-01	 3.22769000E-02
		 2.39679000E-04	-1.69444000E-01	-5.83659000E-03
		-1.66659000E-03	-2.09995000E-01	 1.23497000E-02
		-4.03229000E-03	-1.71159000E-01	 3.24053000E-02
		 5.03490000E-03	-2.03007000E-01	-4.68941000E-02
		 4.66845000E-03	-2.07474000E-01	-4.70617000E-02
		 4.98415000E-03	-1.63768000E-01	-4.37533000E-02
		 2.75136000E-03	-2.03669000E-01	-2.70244000E-02
		 4.85281000E-03	-2.05272000E-01	-4.69991000E-02
		 4.44121000E-03	-1.68249000E-01	-4.40192000E-02
		 2.55100000E-03	-2.08183000E-01	-2.72021000E-02
		 3.14837000E-04	-2.13292000E-01	-7.55335000E-03
		-3.69247000E-03	-2.15754000E-01	 3.20593000E-02
		 3.88557000E-04	-2.11151000E-01	-7.49290000E-03
		-3.86502000E-03	-2.13947000E-01	 3.21303000E-02
		 2.05000000E-04	-1.73426000E-01	-6.04936000E-03
		-1.80230000E-03	-2.14450000E-01	 1.22051000E-02
		-3.38329000E-03	-1.75035000E-01	 3.22032000E-02
		 4.33209000E-03	-2.11627000E-01	-4.71661000E-02