<?xml version="1.0"?>
<VTKFile type="UnstructuredGrid" version="0.1" byte_order="LittleEndian">
	<UnstructuredGrid>
		<Piece NumberOfPoints="522" NumberOfCells="64">
			<Points>
				<DataArray type="Float64" NumberOfComponents="3" format="ascii">
					 1.00000000E+00	 1.00000000E+00	-5.96046000E-08
					 1.00000000E+00	 5.00000000E-01	-5.96046000E-08
					 1.00000000E+00	 5.00000000E-01	 1.00000000E+00
					 1.00000000E+00	 1.00000000E+00	 1.00000000E+00
					 5.00000000E-01	 1.00000000E+00	-5.96046000E-08
					 5.00000000E-01	 5.00000000E-01	-5.96046000E-08
					 5.00000000E-01	 5.00000000E-01	 1.00000000E+00
					 5.00000000E-01	 1.00000000E+00	 1.00000000E+00
					 1.00000000E+00	 7.50000000E-01	-5.96046000E-08
					 1.00000000E+00	 5.00000000E-01	 5.00000000E-01
					 1.00000000E+00	 7.50000000E-01	 1.00000000E+00
					 1.00000000E+00	 1.00000000E+00	 5.00000000E-01
					 7.50000000E-01	 1.00000000E+00	-5.96046000E-08
					 7.50000000E-01	 5.00000000E-01	-5.96046000E-08
					 7.50000000E-01	 5.00000000E-01	 1.00000000E+00
					 7.50000000E-01	 1.00000000E+00	 1.00000000E+00
					 5.00000000E-01	 7.50000000E-01	-5.96046000E-08
					 5.00000000E-01	 5.00000000E-01	 5.00000000E-01
					 5.00000000E-01	 7.50000000E-01	 1.00000000E+00
					 5.00000000E-01	 1.00000000E+00	 5.00000000E-01
					 1.00000000E+00	-1.49012000E-08	-5.96046000E-08
					 1.00000000E+00	-1.49012000E-08	 1.00000000E+00
					 5.00000000E-01	-1.49012000E-08	-5.96046000E-08
					 5.00000000E-01	-1.49012000E-08	 1.00000000E+00
					 1.00000000E+00	 2.50000000E-01	-5.96046000E-08
					 1.00000000E+00	-1.49012000E-08	 5.00000000E-01
					 1.00000000E+00	 2.50000000E-01	 1.00000000E+00
					 7.50000000E-01	-1.49012000E-08	-5.96046000E-08
					 7.50000000E-01	-1.49012000E-08	 1.00000000E+00
					 5.00000000E-01	 2.50000000E-01	-5.96046000E-08
					 5.00000000E-01	-1.49012000E-08	 5.00000000E-01
					 5.00000000E-01	 2.50000000E-01	 1.00000000E+00
					-7.45058000E-09	 1.00000000E+00	-5.96046000E-08
					-7.45058000E-09	 5.00000000E-01	-5.96046000E-08
					-7.45058000E-09	 5.00000000E-01	 1.00000000E+00
					-7.45058000E-09	 1.00000000E+00	 1.00000000E+00
					 2.50000000E-01	 1.00000000E+00	-5.96046000E-08
					 2.50000000E-01	 5.00000000E-01	-5.96046000E-08
					 2.50000000E-01	 5.00000000E-01	 1.00000000E+00
					 2.50000000E-01	 1.00000000E+00	 1.00000000E+00
					-7.45058000E-09	 7.50000000E-01	-5.96046000E-08
					-7.45058000E-09	 5.00000000E-01	 5.00000000E-01
					-7.45058000E-09	 7.50000000E-01	 1.00000000E+00
					-7.45058000E-09	 1.00000000E+00	 5.00000000E-01
					-7.45058000E-09	-1.49012000E-08	-5.96046000E-08
					-7.45058000E-09	-1.49012000E-08	 1.00000000E+00
					 2.50000000E-01	-1.49012000E-08	-5.96046000E-08
					 2.50000000E-01	-1.49012000E-08	 1.00000000E+00
					-7.45058000E-09	 2.50000000E-01	-5.96046000E-08
					-7.45058000E-09	-1.49012000E-08	 5.00000000E-01
					-7.45058000E-09	 2.50000000E-01	 1.00000000E+00
					 1.00000000E+00	 5.00000000E-01	 2.00000000E+00
					 1.00000000E+00	 1.00000000E+00	 2.00000000E+00
					 5.00000000E-01	 5.00000000E-01	 2.00000000E+00
					 5.00000000E-01	 1.00000000E+00	 2.00000000E+00
					 1.00000000E+00	 5.00000000E-01	 1.50000000E+00
					 1.00000000E+00	 7.50000000E-01	 2.00000000E+00
					 1.00000000E+00	 1.00000000E+00	 1.50000000E+00
					 7.50000000E-01	 5.00000000E-01	 2.00000000E+00
					 7.50000000E-01	 1.00000000E+00	 2.00000000E+00
					 5.00000000E-01	 5.00000000E-01	 1.50000000E+00
					 5.00000000E-01	 7.50000000E-01	 2.00000000E+00
					 5.00000000E-01	 1.00000000E+00	 1.50000000E+00
					 1.00000000E+00	-1.49012000E-08	 2.00000000E+00
					 5.00000000E-01	-1.49012000E-08	 2.00000000E+00
					 1.00000000E+00	-1.49012000E-08	 1.50000000E+00
					 1.00000000E+00	 2.50000000E-01	 2.00000000E+00
					 7.50000000E-01	-1.49012000E-08	 2.00000000E+00
					 5.00000000E-01	-1.49012000E-08	 1.50000000E+00
					 5.00000000E-01	 2.50000000E-01	 2.00000000E+00
					-7.45058000E-09	 5.00000000E-01	 2.00000000E+00
					-7.45058000E-09	 1.00000000E+00	 2.00000000E+00
					 2.50000000E-01	 5.00000000E-01	 2.00000000E+00
					 2.50000000E-01	 1.00000000E+00	 2.00000000E+00
					-7.45058000E-09	 5.00000000E-01	 1.50000000E+00
					-7.45058000E-09	 7.50000000E-01	 2.00000000E+00
					-7.45058000E-09	 1.00000000E+00	 1.50000000E+00
					-7.45058000E-09	-1.49012000E-08	 2.00000000E+00
					 2.50000000E-01	-1.49012000E-08	 2.00000000E+00
					-7.45058000E-09	-1.49012000E-08	 1.50000000E+00
					-7.45058000E-09	 2.50000000E-01	 2.00000000E+00
					 1.00000000E+00	 5.00000000E-01	 3.00000000E+00
					 1.00000000E+00	 1.00000000E+00	 3.00000000E+00
					 5.00000000E-01	 5.00000000E-01	 3.00000000E+00
					 5.00000000E-01	 1.00000000E+00	 3.00000000E+00
					 1.00000000E+00	 5.00000000E-01	 2.50000000E+00
					 1.00000000E+00	 7.50000000E-01	 3.00000000E+00
					 1.00000000E+00	 1.00000000E+00	 2.50000000E+00
					 7.50000000E-01	 5.00000000E-01	 3.00000000E+00
					 7.50000000E-01	 1.00000000E+00	 3.00000000E+00
					 5.00000000E-01	 5.00000000E-01	 2.50000000E+00
					 5.00000000E-01	 7.50000000E-01	 3.00000000E+00
					 5.00000000E-01	 1.00000000E+00	 2.50000000E+00
					 1.00000000E+00	-1.49012000E-08	 3.00000000E+00
					 5.00000000E-01	-1.49012000E-08	 3.00000000E+00
					 1.00000000E+00	-1.49012000E-08	 2.50000000E+00
					 1.00000000E+00	 2.50000000E-01	 3.00000000E+00
					 7.50000000E-01	-1.49012000E-08	 3.00000000E+00
					 5.00000000E-01	-1.49012000E-08	 2.50000000E+00
					 5.00000000E-01	 2.50000000E-01	 3.00000000E+00
					-7.45058000E-09	 5.00000000E-01	 3.00000000E+00
					-7.45058000E-09	 1.00000000E+00	 3.00000000E+00
					 2.50000000E-01	 5.00000000E-01	 3.00000000E+00
					 2.50000000E-01	 1.00000000E+00	 3.00000000E+00
					-7.45058000E-09	 5.00000000E-01	 2.50000000E+00
					-7.45058000E-09	 7.50000000E-01	 3.00000000E+00
					-7.45058000E-09	 1.00000000E+00	 2.50000000E+00
					-7.45058000E-09	-1.49012000E-08	 3.00000000E+00
					 2.50000000E-01	-1.49012000E-08	 3.00000000E+00
					-7.45058000E-09	-1.49012000E-08	 2.50000000E+00
					-7.45058000E-09	 2.50000000E-01	 3.00000000E+00
					 1.00000000E+00	 5.00000000E-01	 4.00000000E+00
					 1.00000000E+00	 1.00000000E+00	 4.00000000E+00
					 5.00000000E-01	 5.00000000E-01	 4.00000000E+00
					 5.00000000E-01	 1.00000000E+00	 4.00000000E+00
					 1.00000000E+00	 5.00000000E-01	 3.50000000E+00
					 1.00000000E+00	 7.50000000E-01	 4.00000000E+00
					 1.00000000E+00	 1.00000000E+00	 3.50000000E+00
					 7.50000000E-01	 5.00000000E-01	 4.00000000E+00
					 7.50000000E-01	 1.00000000E+00	 4.00000000E+00
					 5.00000000E-01	 5.00000000E-01	 3.50000000E+00
					 5.00000000E-01	 7.50000000E-01	 4.00000000E+00
					 5.00000000E-01	 1.00000000E+00	 3.50000000E+00
					 1.00000000E+00	-1.49012000E-08	 4.00000000E+00
					 5.00000000E-01	-1.49012000E-08	 4.00000000E+00
					 1.00000000E+00	-1.49012000E-08	 3.50000000E+00
					 1.00000000E+00	 2.50000000E-01	 4.00000000E+00
					 7.50000000E-01	-1.49012000E-08	 4.00000000E+00
					 5.00000000E-01	-1.49012000E-08	 3.50000000E+00
					 5.00000000E-01	 2.50000000E-01	 4.00000000E+00
					-7.45058000E-09	 5.00000000E-01	 4.00000000E+00
					-7.45058000E-09	 1.00000000E+00	 4.00000000E+00
					 2.50000000E-01	 5.00000000E-01	 4.00000000E+00
					 2.50000000E-01	 1.00000000E+00	 4.00000000E+00
					-7.45058000E-09	 5.00000000E-01	 3.50000000E+00
					-7.45058000E-09	 7.50000000E-01	 4.00000000E+00
					-7.45058000E-09	 1.00000000E+00	 3.50000000E+00
					-7.45058000E-09	-1.49012000E-08	 4.00000000E+00
					 2.50000000E-01	-1.49012000E-08	 4.00000000E+00
					-7.45058000E-09	-1.49012000E-08	 3.50000000E+00
					-7.45058000E-09	 2.50000000E-01	 4.00000000E+00
					 1.00000000E+00	 5.00000000E-01	 5.00000000E+00
					 1.00000000E+00	 1.00000000E+00	 5.00000000E+00
					 5.00000000E-01	 5.00000000E-01	 5.00000000E+00
					 5.00000000E-01	 1.00000000E+00	 5.00000000E+00
					 1.00000000E+00	 5.00000000E-01	 4.50000000E+00
					 1.00000000E+00	 7.50000000E-01	 5.00000000E+00
					 1.00000000E+00	 1.00000000E+00	 4.50000000E+00
					 7.50000000E-01	 5.00000000E-01	 5.00000000E+00
					 7.50000000E-01	 1.00000000E+00	 5.00000000E+00
					 5.00000000E-01	 5.00000000E-01	 4.50000000E+00
					 5.00000000E-01	 7.50000000E-01	 5.00000000E+00
					 5.00000000E-01	 1.00000000E+00	 4.50000000E+00
					 1.00000000E+00	-1.49012000E-08	 5.00000000E+00
					 5.00000000E-01	-1.49012000E-08	 5.00000000E+00
					 1.00000000E+00	-1.49012000E-08	 4.50000000E+00
					 1.00000000E+00	 2.50000000E-01	 5.00000000E+00
					 7.50000000E-01	-1.49012000E-08	 5.00000000E+00
					 5.00000000E-01	-1.49012000E-08	 4.50000000E+00
					 5.00000000E-01	 2.50000000E-01	 5.00000000E+00
					-7.45058000E-09	 5.00000000E-01	 5.00000000E+00
					-7.45058000E-09	 1.00000000E+00	 5.00000000E+00
					 2.50000000E-01	 5.00000000E-01	 5.00000000E+00
					 2.50000000E-01	 1.00000000E+00	 5.00000000E+00
					-7.45058000E-09	 5.00000000E-01	 4.50000000E+00
					-7.45058000E-09	 7.50000000E-01	 5.00000000E+00
					-7.45058000E-09	 1.00000000E+00	 4.50000000E+00
					-7.45058000E-09	-1.49012000E-08	 5.00000000E+00
					 2.50000000E-01	-1.49012000E-08	 5.00000000E+00
					-7.45058000E-09	-1.49012000E-08	 4.50000000E+00
					-7.45058000E-09	 2.50000000E-01	 5.00000000E+00
					 1.00000000E+00	 5.00000000E-01	 6.00000000E+00
					 1.00000000E+00	 1.00000000E+00	 6.00000000E+00
					 5.00000000E-01	 5.00000000E-01	 6.00000000E+00
					 5.00000000E-01	 1.00000000E+00	 6.00000000E+00
					 1.00000000E+00	 5.00000000E-01	 5.50000000E+00
					 1.00000000E+00	 7.50000000E-01	 6.00000000E+00
					 1.00000000E+00	 1.00000000E+00	 5.50000000E+00
					 7.50000000E-01	 5.00000000E-01	 6.00000000E+00
					 7.50000000E-01	 1.00000000E+00	 6.00000000E+00
					 5.00000000E-01	 5.00000000E-01	 5.50000000E+00
					 5.00000000E-01	 7.50000000E-01	 6.00000000E+00
					 5.00000000E-01	 1.00000000E+00	 5.50000000E+00
					 1.00000000E+00	-1.49012000E-08	 6.00000000E+00
[...]
			<PointData>
				<DataArray type="Float32" Name="U" NumberOfComponents="3" ComponentName0="D1" ComponentName1="D2" ComponentName2="D3" format="ascii">
					 0.00000000E+00	 0.00000000E+00	 0.00000000E+00
					 0.00000000E+00	 0.00000000E+00	 0.00000000E+00
					-5.51852000E-06	-2.46206000E-03	 3.44278000E-06
					-1.10237000E-03	-2.67616000E-03	 3.11831000E-03
					 0.00000000E+00	 0.00000000E+00	 0.00000000E+00
					 0.00000000E+00	 0.00000000E+00	 0.00000000E+00
					-6.14013000E-06	-3.35092000E-03	-6.10235000E-06
					-6.81787000E-04	-3.56873000E-03	 3.13535000E-03
					 0.00000000E+00	 0.00000000E+00	 0.00000000E+00
					-9.95891000E-07	-4.12159000E-04	 3.34662000E-06
					-5.58058000E-04	-2.49767000E-03	 1.62890000E-03
					-7.18546000E-04	-7.00601000E-04	 1.55923000E-03
					 0.00000000E+00	 0.00000000E+00	 0.00000000E+00
					 0.00000000E+00	 0.00000000E+00	 0.00000000E+00
					-5.15810000E-06	-2.97832000E-03	-1.64113000E-06
					-8.88341000E-04	-3.18909000E-03	 3.04239000E-03
					 0.00000000E+00	 0.00000000E+00	 0.00000000E+00
					-1.32518000E-06	-8.86150000E-04	-1.20452000E-06
					-3.42762000E-04	-3.38526000E-03	 1.54727000E-03
					-2.64290000E-04	-1.15931000E-03	 1.50959000E-03
					 0.00000000E+00	 0.00000000E+00	 0.00000000E+00
					 1.08862000E-03	-2.64969000E-03	-3.11278000E-03
					 0.00000000E+00	 0.00000000E+00	 0.00000000E+00
					 6.71567000E-04	-3.54106000E-03	-3.14898000E-03
					 0.00000000E+00	 0.00000000E+00	 0.00000000E+00
					 7.12494000E-04	-6.92280000E-04	-1.55240000E-03
					 5.46346000E-04	-2.48352000E-03	-1.62304000E-03
					 0.00000000E+00	 0.00000000E+00	 0.00000000E+00
					 8.77286000E-04	-3.16184000E-03	-3.04605000E-03
					 0.00000000E+00	 0.00000000E+00	 0.00000000E+00
					 2.61057000E-04	-1.14963000E-03	-1.51125000E-03
					 3.31276000E-04	-3.37068000E-03	-1.56003000E-03
					 0.00000000E+00	 0.00000000E+00	 0.00000000E+00
					 0.00000000E+00	 0.00000000E+00	 0.00000000E+00
					-6.85632000E-06	-3.81501000E-03	-1.24748000E-05
					-2.44805000E-04	-4.00971000E-03	 3.10322000E-03
					 0.00000000E+00	 0.00000000E+00	 0.00000000E+00
					 0.00000000E+00	 0.00000000E+00	 0.00000000E+00
					-6.93885000E-06	-3.65161000E-03	-9.79263000E-06
					-4.65272000E-04	-3.86183000E-03	 3.19584000E-03
					 0.00000000E+00	 0.00000000E+00	 0.00000000E+00
					-3.40274000E-06	-9.37818000E-04	-4.63462000E-06
					-1.27345000E-04	-3.83835000E-03	 1.45268000E-03
					 2.23080000E-04	-1.19063000E-03	 1.55193000E-03
					 0.00000000E+00	 0.00000000E+00	 0.00000000E+00
					 2.37896000E-04	-3.98844000E-03	-3.12885000E-03
					 0.00000000E+00	 0.00000000E+00	 0.00000000E+00
					 4.56316000E-04	-3.83533000E-03	-3.21757000E-03
					 0.00000000E+00	 0.00000000E+00	 0.00000000E+00
					-2.27482000E-04	-1.18373000E-03	-1.56069000E-03
					 1.15779000E-04	-3.82875000E-03	-1.47731000E-03
					-1.35629000E-05	-1.04999000E-02	-2.07264000E-05
					-2.28835000E-03	-1.07594000E-02	 6.05921000E-03
					-8.67431000E-06	-1.25355000E-02	-4.20956000E-05
					-1.81791000E-03	-1.28039000E-02	 6.03807000E-03
					-9.93330000E-06	-5.76511000E-03	-3.51080000E-06
					-1.14916000E-03	-1.05781000E-02	 3.11062000E-03
					-1.68296000E-03	-6.02621000E-03	 4.59592000E-03
					-1.10091000E-05	-1.15702000E-02	-3.25676000E-05
					-2.05408000E-03	-1.18364000E-02	 5.96220000E-03
					-9.26178000E-06	-7.22004000E-03	-1.89840000E-05
					-9.14862000E-04	-1.26183000E-02	 3.00596000E-03
					-1.24116000E-03	-7.47644000E-03	 4.58105000E-03
					 2.26059000E-03	-1.06673000E-02	-6.10747000E-03
					 1.80429000E-03	-1.27145000E-02	-6.12878000E-03
					 1.66329000E-03	-5.97017000E-03	-4.60619000E-03
					 1.12125000E-03	-1.05288000E-02	-3.15409000E-03
					 2.03342000E-03	-1.17475000E-02	-6.03378000E-03
					 1.22747000E-03	-7.42292000E-03	-4.62198000E-03
					 8.98601000E-04	-1.25722000E-02	-3.09178000E-03
					-4.16604000E-06	-1.41206000E-02	-5.62337000E-05
					-1.36049000E-03	-1.43866000E-02	 6.02742000E-03
					-6.52404000E-06	-1.33818000E-02	-4.96420000E-05
					-1.58896000E-03	-1.36490000E-02	 6.11454000E-03
					-8.17572000E-06	-8.23089000E-03	-2.82084000E-05
					-6.82510000E-04	-1.42002000E-02	 2.91041000E-03
					-7.96845000E-04	-8.48422000E-03	 4.57332000E-03
					 1.35932000E-03	-1.43042000E-02	-6.14585000E-03
					 1.58207000E-03	-1.35598000E-02	-6.22039000E-03
					 7.89753000E-04	-8.43893000E-03	-4.63249000E-03
					 6.76061000E-04	-1.41612000E-02	-3.02387000E-03
					-3.42357000E-07	-2.51069000E-02	-1.12000000E-04
					-2.99795000E-03	-2.53824000E-02	 8.92203000E-03
					 1.03479000E-05	-2.78888000E-02	-1.51505000E-04
					-2.57542000E-03	-2.81786000E-02	 8.89917000E-03
					-9.25515000E-06	-1.69044000E-02	-5.46459000E-05
					-1.49455000E-03	-2.51897000E-02	 4.39433000E-03
					-2.75878000E-03	-1.71710000E-02	 7.54416000E-03
					 5.84697000E-06	-2.65481000E-02	-1.32824000E-04
					-2.78652000E-03	-2.68362000E-02	 8.89204000E-03
					-1.09714000E-06	-1.94134000E-02	-8.33669000E-05
					-1.28345000E-03	-2.79789000E-02	 4.34373000E-03
					-2.28746000E-03	-1.96947000E-02	 7.52300000E-03
					 2.99452000E-03	-2.51989000E-02	-9.15584000E-03
					 2.59616000E-03	-2.79977000E-02	-9.21141000E-03
					 2.73855000E-03	-1.70352000E-02	-7.66283000E-03
					 1.49300000E-03	-2.50996000E-02	-4.62044000E-03
					 2.79609000E-03	-2.66532000E-02	-9.16782000E-03
					 2.28759000E-03	-1.95622000E-02	-7.69912000E-03
					 1.30358000E-03	-2.78894000E-02	-4.64871000E-03
					 1.54117000E-05	-3.02811000E-02	-1.84280000E-04
					-2.17876000E-03	-3.05732000E-02	 8.85051000E-03
					 1.34731000E-05	-2.91386000E-02	-1.68898000E-04
					-2.37717000E-03	-2.94281000E-02	 8.90957000E-03
					 3.76434000E-06	-2.14816000E-02	-1.05571000E-04
					-1.08128000E-03	-3.03733000E-02	 4.26885000E-03
					-1.84566000E-03	-2.17677000E-02	 7.49589000E-03
					 2.21302000E-03	-3.03990000E-02	-9.22703000E-03
					 2.40597000E-03	-2.92494000E-02	-9.25482000E-03
					 1.85987000E-03	-2.16440000E-02	-7.71586000E-03
					 1.11332000E-03	-3.02884000E-02	-4.63971000E-03
					 2.72617000E-05	-4.60606000E-02	-3.14284000E-04
					-2.78357000E-03	-4.62849000E-02	 1.07330000E-02
					 3.97599000E-05	-4.87752000E-02	-3.63380000E-04
					-2.58051000E-03	-4.90022000E-02	 1.07053000E-02
					 1.13275000E-05	-3.49814000E-02	-2.00760000E-04
					-1.37850000E-03	-4.61482000E-02	 5.13540000E-03
					-2.97943000E-03	-3.52298000E-02	 1.00013000E-02
					 3.35997000E-05	-4.74395000E-02	-3.38764000E-04
					-2.68128000E-03	-4.76661000E-02	 1.07506000E-02
					 2.35891000E-05	-3.78091000E-02	-2.47190000E-04
					-1.27031000E-03	-4.88651000E-02	 5.12580000E-03
					-2.65655000E-03	-3.80697000E-02	 9.97880000E-03
					 2.83931000E-03	-4.60203000E-02	-1.13617000E-02
					 2.65677000E-03	-4.87412000E-02	-1.14336000E-02
					 2.99896000E-03	-3.50058000E-02	-1.04089000E-02
					 1.43256000E-03	-4.60199000E-02	-5.76409000E-03
					 2.74839000E-03	-4.74026000E-02	-1.14282000E-02
					 2.69948000E-03	-3.78460000E-02	-1.04790000E-02
					 1.34799000E-03	-4.87376000E-02	-5.85282000E-03
					 4.66204000E-05	-5.12993000E-02	-4.09775000E-04
					-2.39233000E-03	-5.15362000E-02	 1.06371000E-02
					 4.45318000E-05	-5.00611000E-02	-3.87383000E-04
					-2.48667000E-03	-5.02896000E-02	 1.06656000E-02
					 3.01466000E-05	-4.03384000E-02	-2.87613000E-04
					-1.16975000E-03	-5.13955000E-02	 5.07570000E-03
					-2.35771000E-03	-4.06087000E-02	 9.91391000E-03
					 2.47985000E-03	-5.12725000E-02	-1.14597000E-02
					 2.56950000E-03	-5.00288000E-02	-1.14438000E-02
					 2.41275000E-03	-4.03823000E-02	-1.04945000E-02
					 1.26120000E-03	-5.12640000E-02	-5.89530000E-03
					 4.03361000E-05	-6.97409000E-02	-5.65873000E-04
					-2.36378000E-03	-6.99281000E-02	 1.12409000E-02
					 4.46095000E-05	-7.21072000E-02	-6.22316000E-04
					-2.28177000E-03	-7.22970000E-02	 1.11859000E-02
					 3.83233000E-05	-5.77688000E-02	-4.36204000E-04
					-1.16179000E-03	-6.98260000E-02	 5.30779000E-03
					-2.56001000E-03	-5.79796000E-02	 1.10809000E-02
					 4.39210000E-05	-7.09316000E-02	-5.94279000E-04
					-2.32204000E-03	-7.11209000E-02	 1.12390000E-02
					 4.67165000E-05	-6.03169000E-02	-4.90128000E-04
					-1.11802000E-03	-7.21962000E-02	 5.27854000E-03
					-2.44435000E-03	-6.05247000E-02	 1.10404000E-02
					 2.43359000E-03	-6.96357000E-02	-1.23730000E-02
					 2.36867000E-03	-7.19946000E-02	-1.24298000E-02
					 2.63650000E-03	-5.76917000E-02	-1.19527000E-02
					 1.23929000E-03	-6.96816000E-02	-6.43816000E-03
					 2.40103000E-03	-7.08200000E-02	-1.24292000E-02
					 2.53812000E-03	-6.02384000E-02	-1.20208000E-02
					 1.20620000E-03	-7.20430000E-02	-6.52301000E-03
					 4.71014000E-05	-7.43926000E-02	-6.77835000E-04
					-2.20315000E-03	-7.45845000E-02	 1.11296000E-02
					 4.49828000E-05	-7.32589000E-02	-6.50053000E-04
					-2.24290000E-03	-7.34480000E-02	 1.11292000E-02
					 5.14525000E-05	-6.27544000E-02	-5.44146000E-04
					-1.07658000E-03	-7.44821000E-02	 5.25165000E-03
					-2.33417000E-03	-6.29663000E-02	 1.09734000E-02
					 2.30521000E-03	-7.42901000E-02	-1.24838000E-02
					 2.33727000E-03	-7.31491000E-02	-1.24274000E-02
					 2.44143000E-03	-6.26870000E-02	-1.20629000E-02
					 1.17291000E-03	-7.43331000E-02	-6.60735000E-03
					 4.11537000E-05	-9.42781000E-02	-8.45049000E-04
					-1.98863000E-03	-9.44980000E-02	 1.15923000E-02
					 4.41916000E-05	-9.62355000E-02	-8.93674000E-04
					-1.85698000E-03	-9.64633000E-02	 1.15417000E-02
					 4.16475000E-05	-8.18635000E-02	-7.03282000E-04
					-9.71221000E-04	-9.43708000E-02	 5.34817000E-03
					-2.18058000E-03	-8.20615000E-02	 1.13874000E-02
					 4.42935000E-05	-9.52736000E-02	-8.70086000E-04
					-1.92368000E-03	-9.55004000E-02	 1.15956000E-02
					 4.56020000E-05	-8.40285000E-02	-7.56200000E-04
					-9.06610000E-04	-9.63347000E-02	 5.32870000E-03
					-2.07411000E-03	-8.42350000E-02	 1.13272000E-02
					 2.05462000E-03	-9.41758000E-02	-1.32803000E-02
					 1.94086000E-03	-9.61261000E-02	-1.33281000E-02
					 2.24474000E-03	-8.17624000E-02	-1.27935000E-02
					 1.04933000E-03	-9.42119000E-02	-7.03810000E-03
					 1.99884000E-03	-9.51655000E-02	-1.33327000E-02
					 2.15832000E-03	-8.39180000E-02	-1.28382000E-02
					 9.93058000E-04	-9.61627000E-02	-7.11539000E-03
					 4.30776000E-05	-9.80705000E-02	-9.43856000E-04
					-1.72539000E-03	-9.82898000E-02	 1.14939000E-02
					 4.29941000E-05	-9.71685000E-02	-9.18141000E-04
					-1.78966000E-03	-9.73943000E-02	 1.14847000E-02
					 4.65799000E-05	-8.60944000E-02	-8.07368000E-04
					-8.44180000E-04	-9.81657000E-02	 5.31327000E-03
					-1.97141000E-03	-8.63001000E-02	 1.12831000E-02
					 1.82101000E-03	-9.79631000E-02	-1.33822000E-02
					 1.88043000E-03	-9.70611000E-02	-1.33225000E-02
					 2.07012000E-03	-8.59882000E-02	-1.28959000E-02
					 9.32371000E-04	-9.79986000E-02	-7.19974000E-03
					 3.18840000E-05	-1.20399000E-01	-1.15477000E-03
					-1.63003000E-03	-1.20620000E-01	 1.19754000E-02
					 2.65524000E-05	-1.22029000E-01	-1.21036000E-03
					-1.57002000E-03	-1.22246000E-01	 1.19406000E-02
					 3.73055000E-05	-1.07137000E-01	-9.95351000E-04
					-8.00736000E-04	-1.20503000E-01	 5.36701000E-03
					-1.79829000E-03	-1.07363000E-01	 1.18347000E-02
					 3.15042000E-05	-1.21225000E-01	-1.18235000E-03
					-1.59812000E-03	-1.21443000E-01	 1.19771000E-02
					 3.48772000E-05	-1.08912000E-01	-1.04348000E-03
					-7.73639000E-04	-1.22130000E-01	 5.34387000E-03
					-1.68667000E-03	-1.09139000E-01	 1.17957000E-02
					 1.69379000E-03	-1.20248000E-01	-1.42942000E-02
					 1.62652000E-03	-1.21875000E-01	-1.43684000E-02
					 1.86587000E-03	-1.07010000E-01	-1.38242000E-02
					 8.64016000E-04	-1.20315000E-01	-7.68057000E-03
					 1.66332000E-03	-1.21070000E-01	-1.43500000E-02
					 1.75937000E-03	-1.08780000E-01	-1.38838000E-02
					 8.27429000E-04	-1.21943000E-01	-7.76696000E-03
					 2.05479000E-05	-1.23589000E-01	-1.25829000E-03
					-1.50314000E-03	-1.23799000E-01	 1.18933000E-02
					 2.13113000E-05	-1.22815000E-01	-1.23487000E-03
					-1.53894000E-03	-1.23031000E-01	 1.19123000E-02
					 3.03094000E-05	-1.10575000E-01	-1.09468000E-03
					-7.44217000E-04	-1.23685000E-01	 5.30601000E-03
					-1.56857000E-03	-1.10787000E-01	 1.17400000E-02
					 1.55037000E-03	-1.23437000E-01	-1.44142000E-02
					 1.58610000E-03	-1.22665000E-01	-1.43854000E-02
					 1.64351000E-03	-1.10446000E-01	-1.39325000E-02
					 7.86718000E-04	-1.23503000E-01	-7.82569000E-03
					-1.59747000E-05	-1.47210000E-01	-1.49017000E-03
					-1.46211000E-03	-1.47374000E-01	 1.17513000E-02
					 1.32379000E-05	-1.48705000E-01	-1.56099000E-03
					-1.45754000E-03	-1.48867000E-01	 1.17219000E-02
					 1.74848000E-05	-1.33843000E-01	-1.31797000E-03
					-7.37240000E-04	-1.47291000E-01	 5.12501000E-03
					-1.50860000E-03	-1.34038000E-01	 1.19142000E-02
					-3.63629000E-06	-1.47950000E-01	-1.52891000E-03
					-1.46190000E-03	-1.48111000E-01	 1.17345000E-02
					 2.12877000E-05	-1.35365000E-01	-1.38622000E-03
					-7.13992000E-04	-1.48787000E-01	 5.08178000E-03
					-1.49601000E-03	-1.35559000E-01	 1.18810000E-02
					 1.43588000E-03	-1.47056000E-01	-1.47663000E-02
					 1.46586000E-03	-1.48547000E-01	-1.48755000E-02
					 1.54852000E-03	-1.33674000E-01	-1.45790000E-02
					 7.05244000E-04	-1.47138000E-01	-8.11448000E-03
					 1.45022000E-03	-1.47797000E-01	-1.48276000E-02
					 1.52898000E-03	-1.35199000E-01	-1.46750000E-02
					 7.34376000E-04	-1.48631000E-01	-8.21277000E-03
					 3.69988000E-05	-1.50194000E-01	-1.58996000E-03
					-1.43539000E-03	-1.50382000E-01	 1.17224000E-02
					 2.89811000E-05	-1.49455000E-01	-1.58077000E-03
					-1.44453000E-03	-1.49623000E-01	 1.17190000E-02
					 2.15968000E-05	-1.36862000E-01	-1.42362000E-03
					-6.88883000E-04	-1.50291000E-01	 5.07130000E-03
					-1.47255000E-03	-1.37071000E-01	 1.18624000E-02
					 1.47381000E-03	-1.50014000E-01	-1.49286000E-02
					 1.47100000E-03	-1.49285000E-01	-1.49060000E-02
					 1.49703000E-03	-1.36690000E-01	-1.47232000E-02
					 7.54213000E-04	-1.50104000E-01	-8.26068000E-03
					 0.00000000E+00	 0.00000000E+00	 0.00000000E+00
					 0.00000000E+00	 0.00000000E+00	 0.00000000E+00
					 8.44333000E-05	-7.81586000E-03	-6.66756000E-06
					-2.20436000E-03	-8.42390000E-03	 8.61584000E-03
					 0.00000000E+00	 0.00000000E+00	 0.00000000E+00
					 0.00000000E+00	 0.00000000E+00	 0.00000000E+00
					 9.38772000E-05	-9.50579000E-03	 4.03040000E-05
					-1.03426000E-03	-1.01654000E-02	 8.75494000E-03
					 0.00000000E+00	 0.00000000E+00	 0.00000000E+00
					 2.46675000E-05	-1.27194000E-03	 8.03272000E-06
					-1.05933000E-03	-7.91952000E-03	 4.29503000E-03
					-1.89423000E-03	-2.05242000E-03	 4.34493000E-03
					 0.00000000E+00	 0.00000000E+00	 0.00000000E+00
					 0.00000000E+00	 0.00000000E+00	 0.00000000E+00
					 8.92720000E-05	-8.85403000E-03	 1.55048000E-05
					-1.61171000E-03	-9.48775000E-03	 8.60122000E-03
					 0.00000000E+00	 0.00000000E+00	 0.00000000E+00
					 2.85367000E-05	-2.47356000E-03	 3.03775000E-05
					-4.69944000E-04	-9.62695000E-03	 4.29863000E-03
					-5.96331000E-04	-3.25648000E-03	 4.24501000E-03
					 0.00000000E+00	 0.00000000E+00	 0.00000000E+00
					 2.35168000E-03	-8.22575000E-03	-8.65262000E-03
					 0.00000000E+00	 0.00000000E+00	 0.00000000E+00
					 1.21974000E-03	-9.94505000E-03	-8.70288000E-03
					 0.00000000E+00	 0.00000000E+00	 0.00000000E+00
					 1.92255000E-03	-1.97584000E-03	-4.33080000E-03
					 1.22280000E-03	-7.81737000E-03	-4.31687000E-03
					 0.00000000E+00	 0.00000000E+00	 0.00000000E+00
					 1.77877000E-03	-9.27589000E-03	-8.59470000E-03
					 0.00000000E+00	 0.00000000E+00	 0.00000000E+00
					 6.46242000E-04	-3.15962000E-03	-4.18003000E-03
					 6.57123000E-04	-9.51465000E-03	-4.22848000E-03
					 0.00000000E+00	 0.00000000E+00	 0.00000000E+00
					 0.00000000E+00	 0.00000000E+00	 0.00000000E+00
					 1.09178000E-04	-1.00709000E-02	 1.08057000E-04
					 1.43758000E-04	-1.06876000E-02	 8.72915000E-03
					 0.00000000E+00	 0.00000000E+00	 0.00000000E+00
					 0.00000000E+00	 0.00000000E+00	 0.00000000E+00
					 9.91696000E-05	-9.98126000E-03	 6.85476000E-05
					-4.54658000E-04	-1.06168000E-02	 8.82004000E-03
					 0.00000000E+00	 0.00000000E+00	 0.00000000E+00
					 4.17842000E-05	-2.51397000E-03	 6.94755000E-05
					 1.27701000E-04	-1.01761000E-02	 4.24003000E-03
					 7.42088000E-04	-3.27981000E-03	 4.40820000E-03
					 0.00000000E+00	 0.00000000E+00	 0.00000000E+00
					 8.41707000E-05	-1.04659000E-02	-8.53886000E-03
					 0.00000000E+00	 0.00000000E+00	 0.00000000E+00
					 6.55945000E-04	-1.03955000E-02	-8.71196000E-03
					 0.00000000E+00	 0.00000000E+00	 0.00000000E+00
					-6.57028000E-04	-3.16595000E-03	-4.26553000E-03
					 9.56513000E-05	-1.00684000E-02	-4.03203000E-03
					 3.03777000E-04	-3.30087000E-02	-2.48292000E-04
					-2.32972000E-03	-3.36667000E-02	 1.51802000E-02
					 3.25452000E-04	-3.52385000E-02	-1.83909000E-04
					-1.50350000E-03	-3.58991000E-02	 1.52842000E-02
					 1.83854000E-04	-1.86173000E-02	-8.62905000E-05
					-1.01328000E-03	-3.32484000E-02	 7.39108000E-03
					-2.34607000E-03	-1.93081000E-02	 1.22617000E-02
					 3.14223000E-04	-3.42121000E-02	-2.20834000E-04
					-1.91687000E-03	-3.48695000E-02	 1.52186000E-02
					 1.94167000E-04	-2.06283000E-02	-2.94243000E-05
					-5.83100000E-04	-3.54800000E-02	 7.46401000E-03
					-1.30604000E-03	-2.13309000E-02	 1.23649000E-02
					 2.93240000E-03	-3.31324000E-02	-1.57092000E-02
					 2.15001000E-03	-3.53654000E-02	-1.56842000E-02
					 2.69993000E-03	-1.89489000E-02	-1.24690000E-02
					 1.61798000E-03	-3.29848000E-02	-7.89603000E-03
					 2.54252000E-03	-3.43400000E-02	-1.56900000E-02
					 1.69473000E-03	-2.09628000E-02	-1.24602000E-02
					 1.23751000E-03	-3.52175000E-02	-7.83665000E-03
					 3.44644000E-04	-3.66710000E-02	-8.79883000E-05
					-6.50741000E-04	-3.73053000E-02	 1.53347000E-02
					 3.34439000E-04	-3.60411000E-02	-1.38712000E-04
					-1.07587000E-03	-3.67239000E-02	 1.53694000E-02
					 2.09863000E-04	-2.16272000E-02	 5.76948000E-05
					-1.60654000E-04	-3.68928000E-02	 7.47787000E-03
					-2.71050000E-04	-2.23285000E-02	 1.24027000E-02
					 1.37067000E-03	-3.67933000E-02	-1.55441000E-02
					 1.75945000E-03	-3.61675000E-02	-1.56828000E-02
					 7.14463000E-04	-2.19730000E-02	-1.23224000E-02
					 8.58473000E-04	-3.66463000E-02	-7.65722000E-03
					 6.25927000E-04	-6.86795000E-02	-7.64562000E-04
					-2.61394000E-03	-6.92914000E-02	 1.87764000E-02
					 6.60647000E-04	-7.16616000E-02	-7.00572000E-04
					-2.09588000E-03	-7.23701000E-02	 1.88651000E-02
					 4.55692000E-04	-4.99488000E-02	-4.78949000E-04
					-9.92781000E-04	-6.89263000E-02	 9.03133000E-03
					-2.37749000E-03	-5.06174000E-02	 1.72734000E-02
					 6.45385000E-04	-7.02354000E-02	-7.30500000E-04
					-2.35688000E-03	-7.09020000E-02	 1.87331000E-02
					 4.82520000E-04	-5.24812000E-02	-4.11162000E-04
					-7.41223000E-04	-7.19592000E-02	 9.01050000E-03
					-1.73778000E-03	-5.31463000E-02	 1.73806000E-02
					 3.82391000E-03	-6.85120000E-02	-2.03095000E-02
					 3.41337000E-03	-7.14961000E-02	-2.03034000E-02
					 3.27573000E-03	-4.99381000E-02	-1.82583000E-02
					 2.23108000E-03	-6.85391000E-02	-1.05553000E-02
					 3.61686000E-03	-7.00584000E-02	-2.02252000E-02
					 2.70431000E-03	-5.24478000E-02	-1.82294000E-02
					 2.03794000E-03	-7.15284000E-02	-1.04359000E-02
					 6.83144000E-04	-7.41806000E-02	-6.19838000E-04
					-1.66820000E-03	-7.49991000E-02	 1.89169000E-02
					 6.73088000E-04	-7.29919000E-02	-6.65948000E-04
					-1.88325000E-03	-7.36315000E-02	 1.90083000E-02
					 5.13357000E-04	-5.43914000E-02	-3.18648000E-04
					-4.62303000E-04	-7.45332000E-02	 8.95339000E-03
					-1.10634000E-03	-5.50721000E-02	 1.74340000E-02
					 2.99240000E-03	-7.40402000E-02	-2.02200000E-02
					 3.20328000E-03	-7.28180000E-02	-2.03786000E-02
					 2.09997000E-03	-5.43515000E-02	-1.80997000E-02
					 1.83025000E-03	-7.40707000E-02	-1.02408000E-02
					 1.05020000E-03	-1.09610000E-01	-1.46232000E-03
					-3.43066000E-03	-1.10142000E-01	 2.03280000E-02