<?xml version="1.0"?>
<VTKFile type="UnstructuredGrid" version="0.1" byte_order="LittleEndian">
	<UnstructuredGrid>
		<Piece NumberOfPoints="522" NumberOfCells="64">
			<Points>
				<DataArray type="Float64" NumberOfComponents="3" format="ascii">
					 1.00000000E+00	 1.00000000E+00	-5.96046000E-08
					 1.00000000E+00	 5.00000000E-01	-5.96046000E-08
					 1.00000000E+00	 5.00000000E-01	 1.00000000E+00
					 1.00000000E+00	 1.00000000E+00	 1.00000000E+00
					 5.00000000E-01	 1.00000000E+00	-5.96046000E-08
					 5.00000000E-01	 5.00000000E-01	-5.96046000E-08
					 5.00000000E-01	 5.00000000E-01	 1.00000000E+00
					 5.00000000E-01	 1.00000000E+00	 1.00000000E+00
					 1.00000000E+00	 7.50000000E-01	-5.96046000E-08
					 1.00000000E+00	 5.00000000E-01	 5.00000000E-01
					 1.00000000E+00	 7.50000000E-01	 1.00000000E+00
					 1.00000000E+00	 1.00000000E+00	 5.00000000E-01
					 7.50000000E-01	 1.00000000E+00	-5.96046000E-08
					 7.50000000E-01	 5.00000000E-01	-5.96046000E-08
					 7.50000000E-01	 5.00000000E-01	 1.00000000E+00
					 7.50000000E-01	 1.00000000E+00	 1.00000000E+00
					 5.00000000E-01	 7.50000000E-01	-5.96046000E-08
					 5.00000000E-01	 5.00000000E-01	 5.00000000E-01
					 5.00000000E-01	 7.50000000E-01	 1.00000000E+00
					 5.00000000E-01	 1.00000000E+00	 5.00000000E-01
					 1.00000000E+00	-1.49012000E-08	-5.96046000E-08
					 1.00000000E+00	-1.49012000E-08	 1.00000000E+00
					 5.00000000E-01	-1.49012000E-08	-5.96046000E-08
					 5.00000000E-01	-1.49012000E-08	 1.00000000E+00
					 1.00000000E+00	 2.50000000E-01	-5.96046000E-08
					 1.00000000E+00	-1.49012000E-08	 5.00000000E-01
					 1.00000000E+00	 2.50000000E-01	 1.00000000E+00
					 7.50000000E-01	-1.49012000E-08	-5.96046000E-08
					 7.50000000E-01	-1.49012000E-08	 1.00000000E+00
					 5.00000000E-01	 2.50000000E-01	-5.96046000E-08
					 5.00000000E-01	-1.49012000E-08	 5.00000000E-01
					 5.00000000E-01	 2.50000000E-01	 1.00000000E+00
					-7.45058000E-09	 1.00000000E+00	-5.96046000E-08
					-7.45058000E-09	 5.00000000E-01	-5.96046000E-08
					-7.45058000E-09	 5.00000000E-01	 1.00000000E+00
					-7.45058000E-09	 1.00000000E+00	 1.00000000E+00
					 2.50000000E-01	 1.00000000E+00	-5.96046000E-08
					 2.50000000E-01	 5.00000000E-01	-5.96046000E-08
					 2.50000000E-01	 5.00000000E-01	 1.00000000E+00
					 2.50000000E-01	 1.00000000E+00	 1.00000000E+00
					-7.45058000E-09	 7.50000000E-01	-5.96046000E-08
					-7.45058000E-09	 5.00000000E-01	 5.00000000E-01
					-7.45058000E-09	 7.50000000E-01	 1.00000000E+00
					-7.45058000E-09	 1.00000000E+00	 5.00000000E-01
					-7.45058000E-09	-1.49012000E-08	-5.96046000E-08
					-7.45058000E-09	-1.49012000E-08	 1.00000000E+00
					 2.50000000E-01	-1.49012000E-08	-5.96046000E-08
					 2.50000000E-01	-1.49012000E-08	 1.00000000E+00
					-7.45058000E-09	 2.50000000E-01	-5.96046000E-08
					-7.45058000E-09	-1.49012000E-08	 5.00000000E-01
					-7.45058000E-09	 2.50000000E-01	 1.00000000E+00
					 1.00000000E+00	 5.00000000E-01	 2.00000000E+00
					 1.00000000E+00	 1.00000000E+00	 2.00000000E+00
					 5.00000000E-01	 5.00000000E-01	 2.00000000E+00
					 5.00000000E-01	 1.00000000E+00	 2.00000000E+00
					 1.00000000E+00	 5.00000000E-01	 1.50000000E+00
					 1.00000000E+00	 7.50000000E-01	 2.00000000E+00
					 1.00000000E+00	 1.00000000E+00	 1.50000000E+00
					 7.50000000E-01	 5.00000000E-01	 2.00000000E+00
					 7.50000000E-01	 1.00000000E+00	 2.00000000E+00
					 5.00000000E-01	 5.00000000E-01	 1.50000000E+00
					 5.00000000E-01	 7.50000000E-01	 2.00000000E+00
					 5.00000000E-01	 1.00000000E+00	 1.50000000E+00
					 1.00000000E+00	-1.49012000E-08	 2.00000000E+00
					 5.00000000E-01	-1.49012000E-08	 2.00000000E+00
					 1.00000000E+00	-1.49012000E-08	 1.50000000E+00
					 1.00000000E+00	 2.50000000E-01	 2.00000000E+00
					 7.50000000E-01	-1.49012000E-08	 2.00000000E+00
					 5.00000000E-01	-1.49012000E-08	 1.50000000E+00
					 5.00000000E-01	 2.50000000E-01	 2.00000000E+00
					-7.45058000E-09	 5.00000000E-01	 2.00000000E+00
					-7.45058000E-09	 1.00000000E+00	 2.00000000E+00
					 2.50000000E-01	 5.00000000E-01	 2.00000000E+00
					 2.50000000E-01	 1.00000000E+00	 2.00000000E+00
					-7.45058000E-09	 5.00000000E-01	 1.50000000E+00
					-7.45058000E-09	 7.50000000E-01	 2.00000000E+00
					-7.45058000E-09	 1.00000000E+00	 1.50000000E+00
					-7.45058000E-09	-1.49012000E-08	 2.00000000E+00
					 2.50000000E-01	-1.49012000E-08	 2.00000000E+00
					-7.45058000E-09	-1.49012000E-08	 1.50000000E+00
					-7.45058000E-09	 2.50000000E-01	 2.00000000E+00
					 1.00000000E+00	 5.00000000E-01	 3.00000000E+00
					 1.00000000E+00	 1.00000000E+00	 3.00000000E+00
					 5.00000000E-01	 5.00000000E-01	 3.00000000E+00
					 5.00000000E-01	 1.00000000E+00	 3.00000000E+00
					 1.00000000E+00	 5.00000000E-01	 2.50000000E+00
					 1.00000000E+00	 7.50000000E-01	 3.00000000E+00
					 1.00000000E+00	 1.00000000E+00	 2.50000000E+00
					 7.50000000E-01	 5.00000000E-01	 3.00000000E+00
					 7.50000000E-01	 1.00000000E+00	 3.00000000E+00
					 5.00000000E-01	 5.00000000E-01	 2.50000000E+00
					 5.00000000E-01	 7.50000000E-01	 3.00000000E+00
					 5.00000000E-01	 1.00000000E+00	 2.50000000E+00
					 1.00000000E+00	-1.49012000E-08	 3.00000000E+00
					 5.00000000E-01	-1.49012000E-08	 3.00000000E+00
					 1.00000000E+00	-1.49012000E-08	 2.50000000E+00
					 1.00000000E+00	 2.50000000E-01	 3.00000000E+00
					 7.50000000E-01	-1.49012000E-08	 3.00000000E+00
					 5.00000000E-01	-1.49012000E-08	 2.50000000E+00
					 5.00000000E-01	 2.50000000E-01	 3.00000000E+00
					-7.45058000E-09	 5.00000000E-01	 3.00000000E+00
					-7.45058000E-09	 1.00000000E+00	 3.00000000E+00
					 2.50000000E-01	 5.00000000E-01	 3.00000000E+00
					 2.50000000E-01	 1.00000000E+00	 3.00000000E+00
					-7.45058000E-09	 5.00000000E-01	 2.50000000E+00
					-7.45058000E-09	 7.50000000E-01	 3.00000000E+00
					-7.45058000E-09	 1.00000000E+00	 2.50000000E+00
					-7.45058000E-09	-1.49012000E-08	 3.00000000E+00
					 2.50000000E-01	-1.49012000E-08	 3.00000000E+00
					-7.45058000E-09	-1.49012000E-08	 2.50000000E+00
					-7.45058000E-09	 2.50000000E-01	 3.00000000E+00
					 1.00000000E+00	 5.00000000E-01	 4.00000000E+00
					 1.00000000E+00	 1.00000000E+00	 4.00000000E+00
					 5.00000000E-01	 5.00000000E-01	 4.00000000E+00
					 5.00000000E-01	 1.00000000E+00	 4.00000000E+00
					 1.00000000E+00	 5.00000000E-01	 3.50000000E+00
					 1.00000000E+00	 7.50000000E-01	 4.00000000E+00
					 1.00000000E+00	 1.00000000E+00	 3.50000000E+00
					 7.50000000E-01	 5.00000000E-01	 4.00000000E+00
					 7.50000000E-01	 1.00000000E+00	 4.00000000E+00
					 5.00000000E-01	 5.00000000E-01	 3.50000000E+00
					 5.00000000E-01	 7.50000000E-01	 4.00000000E+00
					 5.00000000E-01	 1.00000000E+00	 3.50000000E+00
					 1.00000000E+00	-1.49012000E-08	 4.00000000E+00
					 5.00000000E-01	-1.49012000E-08	 4.00000000E+00
					 1.00000000E+00	-1.49012000E-08	 3.50000000E+00
					 1.00000000E+00	 2.50000000E-01	 4.00000000E+00
					 7.50000000E-01	-1.49012000E-08	 4.00000000E+00
					 5.00000000E-01	-1.49012000E-08	 3.50000000E+00
					 5.00000000E-01	 2.50000000E-01	 4.00000000E+00
					-7.45058000E-09	 5.00000000E-01	 4.00000000E+00
					-7.45058000E-09	 1.00000000E+00	 4.00000000E+00
					 2.50000000E-01	 5.00000000E-01	 4.00000000E+00
					 2.50000000E-01	 1.00000000E+00	 4.00000000E+00
					-7.45058000E-09	 5.00000000E-01	 3.50000000E+00
					-7.45058000E-09	 7.50000000E-01	 4.00000000E+00
					-7.45058000E-09	 1.00000000E+00	 3.50000000E+00
					-7.45058000E-09	-1.49012000E-08	 4.00000000E+00
					 2.50000000E-01	-1.49012000E-08	 4.00000000E+00
					-7.45058000E-09	-1.49012000E-08	 3.50000000E+00
					-7.45058000E-09	 2.50000000E-01	 4.00000000E+00
					 1.00000000E+00	 5.00000000E-01	 5.00000000E+00
					 1.00000000E+00	 1.00000000E+00	 5.00000000E+00
					 5.00000000E-01	 5.00000000E-01	 5.00000000E+00
					 5.00000000E-01	 1.00000000E+00	 5.00000000E+00
					 1.00000000E+00	 5.00000000E-01	 4.50000000E+00
					 1.00000000E+00	 7.50000000E-01	 5.00000000E+00
					 1.00000000E+00	 1.00000000E+00	 4.50000000E+00
					 7.50000000E-01	 5.00000000E-01	 5.00000000E+00
					 7.50000000E-01	 1.00000000E+00	 5.00000000E+00
					 5.00000000E-01	 5.00000000E-01	 4.50000000E+00
					 5.00000000E-01	 7.50000000E-01	 5.00000000E+00
					 5.00000000E-01	 1.00000000E+00	 4.50000000E+00
					 1.00000000E+00	-1.49012000E-08	 5.00000000E+00
					 5.00000000E-01	-1.49012000E-08	 5.00000000E+00
					 1.00000000E+00	-1.49012000E-08	 4.50000000E+00
					 1.00000000E+00	 2.50000000E-01	 5.00000000E+00
					 7.50000000E-01	-1.49012000E-08	 5.00000000E+00
					 5.00000000E-01	-1.49012000E-08	 4.50000000E+00
					 5.00000000E-01	 2.50000000E-01	 5.00000000E+00
					-7.45058000E-09	 5.00000000E-01	 5.00000000E+00
					-7.45058000E-09	 1.00000000E+00	 5.00000000E+00
					 2.50000000E-01	 5.00000000E-01	 5.00000000E+00
					 2.50000000E-01	 1.00000000E+00	 5.00000000E+00
					-7.45058000E-09	 5.00000000E-01	 4.50000000E+00
					-7.45058000E-09	 7.50000000E-01	 5.00000000E+00
					-7.45058000E-09	 1.00000000E+00	 4.50000000E+00
					-7.45058000E-09	-1.49012000E-08	 5.00000000E+00
					 2.50000000E-01	-1.49012000E-08	 5.00000000E+00
					-7.45058000E-09	-1.49012000E-08	 4.50000000E+00
					-7.45058000E-09	 2.50000000E-01	 5.00000000E+00
					 1.00000000E+00	 5.00000000E-01	 6.00000000E+00
					 1.00000000E+00	 1.00000000E+00	 6.00000000E+00
					 5.00000000E-01	 5.00000000E-01	 6.00000000E+00
					 5.00000000E-01	 1.00000000E+00	 6.00000000E+00
					 1.00000000E+00	 5.00000000E-01	 5.50000000E+00
					 1.00000000E+00	 7.50000000E-01	 6.00000000E+00
					 1.00000000E+00	 1.00000000E+00	 5.50000000E+00
					 7.50000000E-01	 5.00000000E-01	 6.00000000E+00
					 7.50000000E-01	 1.00000000E+00	 6.00000000E+00
					 5.00000000E-01	 5.00000000E-01	 5.50000000E+00
					 5.00000000E-01	 7.50000000E-01	 6.00000000E+00
					 5.00000000E-01	 1.00000000E+00	 5.50000000E+00
					 1.00000000E+00	-1.49012000E-08	 6.00000000E+00
[...]
			<PointData>
				<DataArray type="Float32" Name="U" NumberOfComponents="3" ComponentName0="D1" ComponentName1="D2" ComponentName2="D3" format="ascii">
					 0.00000000E+00	 0.00000000E+00	 0.00000000E+00
					 0.00000000E+00	 0.00000000E+00	 0.00000000E+00
					 4.03717000E-06	 2.87131000E-04	-3.34098000E-05
					-1.41926000E-06	 3.67706000E-04	-7.37225000E-04
					 0.00000000E+00	 0.00000000E+00	 0.00000000E+00
					 0.00000000E+00	 0.00000000E+00	 0.00000000E+00
					 1.65204000E-07	 1.87569000E-04	-3.67013000E-05
					-1.76623000E-04	 2.77945000E-04	-7.36791000E-04
					 0.00000000E+00	 0.00000000E+00	 0.00000000E+00
					 4.44309000E-06	-8.07439000E-05	-1.70253000E-05
					 2.00139000E-08	 3.02591000E-04	-3.97018000E-04
					 2.59516000E-05	-1.66055000E-05	-2.66400000E-04
					 0.00000000E+00	 0.00000000E+00	 0.00000000E+00
					 0.00000000E+00	 0.00000000E+00	 0.00000000E+00
					 2.05412000E-06	 2.60668000E-04	-3.47586000E-05
					-8.92906000E-05	 3.47439000E-04	-7.45087000E-04
					 0.00000000E+00	 0.00000000E+00	 0.00000000E+00
					-9.58114000E-07	-1.15970000E-04	-1.69599000E-05
					-8.82329000E-05	 2.07244000E-04	-4.08320000E-04
					-8.73783000E-05	-4.89691000E-05	-2.47198000E-04
					 0.00000000E+00	 0.00000000E+00	 0.00000000E+00
					 1.12217000E-05	 3.62019000E-04	 6.70543000E-04
					 0.00000000E+00	 0.00000000E+00	 0.00000000E+00
					 1.78556000E-04	 2.68379000E-04	 6.63663000E-04
					 0.00000000E+00	 0.00000000E+00	 0.00000000E+00
					-1.54388000E-05	-2.58585000E-05	 2.31057000E-04
					 8.31965000E-06	 2.99951000E-04	 3.30421000E-04
					 0.00000000E+00	 0.00000000E+00	 0.00000000E+00
					 9.52550000E-05	 3.39624000E-04	 6.75685000E-04
					 0.00000000E+00	 0.00000000E+00	 0.00000000E+00
					 8.69036000E-05	-6.06098000E-05	 2.11511000E-04
					 8.90133000E-05	 2.02487000E-04	 3.35221000E-04
					 0.00000000E+00	 0.00000000E+00	 0.00000000E+00
					 0.00000000E+00	 0.00000000E+00	 0.00000000E+00
					-4.50705000E-06	-6.78656000E-05	-3.82578000E-05
					-3.49893000E-04	 1.82890000E-05	-7.41804000E-04
					 0.00000000E+00	 0.00000000E+00	 0.00000000E+00
					 0.00000000E+00	 0.00000000E+00	 0.00000000E+00
					-1.90590000E-06	 8.36089000E-05	-3.79565000E-05
					-2.62531000E-04	 1.72000000E-04	-7.16241000E-04
					 0.00000000E+00	 0.00000000E+00	 0.00000000E+00
					-6.56897000E-06	-2.54838000E-04	-1.78668000E-05
					-1.77048000E-04	-4.92578000E-05	-4.33284000E-04
					-1.94277000E-04	-1.82379000E-04	-2.67544000E-04
					 0.00000000E+00	 0.00000000E+00	 0.00000000E+00
					 3.42441000E-04	 6.95665000E-06	 6.65484000E-04
					 0.00000000E+00	 0.00000000E+00	 0.00000000E+00
					 2.60175000E-04	 1.61482000E-04	 6.40763000E-04
					 0.00000000E+00	 0.00000000E+00	 0.00000000E+00
					 1.82265000E-04	-1.95032000E-04	 2.29584000E-04
					 1.68591000E-04	-5.50098000E-05	 3.57006000E-04
					-1.29532000E-05	 3.24556000E-03	-6.19321000E-05
					-2.68634000E-04	 3.28959000E-03	-1.83399000E-03
					-1.65185000E-05	 2.93411000E-03	-7.26969000E-05
					-3.74253000E-04	 2.98419000E-03	-1.86389000E-03
					-7.69557000E-07	 1.39472000E-03	-4.61626000E-05
					-1.43133000E-04	 3.25407000E-03	-8.83765000E-04
					-1.00850000E-04	 1.46045000E-03	-1.34129000E-03
					-1.46484000E-05	 3.10245000E-03	-6.78132000E-05
					-3.21405000E-04	 3.15133000E-03	-1.87525000E-03
					-4.00583000E-06	 1.20621000E-03	-5.36080000E-05
					-1.95607000E-04	 2.94492000E-03	-9.27201000E-04
					-2.70059000E-04	 1.27916000E-03	-1.35707000E-03
					 2.42626000E-04	 3.28600000E-03	 1.71040000E-03
					 3.40599000E-04	 2.98004000E-03	 1.71875000E-03
					 1.00384000E-04	 1.45538000E-03	 1.24775000E-03
					 1.17096000E-04	 3.25121000E-03	 7.60229000E-04
					 2.91686000E-04	 3.14765000E-03	 1.73975000E-03
					 2.62374000E-04	 1.27186000E-03	 1.24928000E-03
					 1.62207000E-04	 2.94226000E-03	 7.81987000E-04
					-2.13844000E-05	 2.53129000E-03	-8.45590000E-05
					-4.79653000E-04	 2.57729000E-03	-1.85640000E-03
					-1.86096000E-05	 2.74557000E-03	-7.80110000E-05
					-4.26733000E-04	 2.79567000E-03	-1.85979000E-03
					-8.43137000E-06	 8.62533000E-04	-6.08014000E-05
					-2.48294000E-04	 2.54028000E-03	-9.31641000E-04
					-4.41692000E-04	 9.28928000E-04	-1.35512000E-03
					 4.36277000E-04	 2.57321000E-03	 1.68782000E-03
					 3.88752000E-04	 2.79138000E-03	 1.70408000E-03
					 4.24662000E-04	 9.20429000E-04	 1.23362000E-03
					 2.05282000E-04	 2.53812000E-03	 7.62842000E-04
					-4.42810000E-05	 7.86553000E-03	-1.02630000E-04
					-7.69018000E-04	 7.81386000E-03	-1.81338000E-03
					-5.02903000E-05	 7.19941000E-03	-1.15269000E-04
					-6.63377000E-04	 7.14594000E-03	-1.84225000E-03
					-2.80777000E-05	 5.56586000E-03	-8.20492000E-05
					-4.05460000E-04	 7.85501000E-03	-8.92278000E-04
					-5.06162000E-04	 5.56154000E-03	-1.98260000E-03
					-4.69844000E-05	 7.51723000E-03	-1.08828000E-04
					-7.16212000E-04	 7.46385000E-03	-1.86131000E-03
					-3.28552000E-05	 5.09187000E-03	-9.40081000E-05
					-3.56652000E-04	 7.18842000E-03	-9.44790000E-04
					-5.01696000E-04	 5.08960000E-03	-2.01869000E-03
					 6.78595000E-04	 7.81215000E-03	 1.60974000E-03
					 5.63099000E-04	 7.14572000E-03	 1.61379000E-03
					 4.49390000E-04	 5.55980000E-03	 1.82066000E-03
					 3.16313000E-04	 7.85414000E-03	 6.87596000E-04
					 6.21187000E-04	 7.46367000E-03	 1.64530000E-03
					 4.36093000E-04	 5.08807000E-03	 1.83248000E-03
					 2.56087000E-04	 7.18866000E-03	 7.14817000E-04
					-5.65997000E-05	 6.63966000E-03	-1.29807000E-04
					-5.53318000E-04	 6.59405000E-03	-1.83961000E-03
					-5.37660000E-05	 6.90549000E-03	-1.22219000E-04
					-6.07910000E-04	 6.85287000E-03	-1.82665000E-03
					-3.85488000E-05	 4.62906000E-03	-1.07860000E-04
					-3.08041000E-04	 6.63264000E-03	-9.66417000E-04
					-4.93346000E-04	 4.63062000E-03	-2.00847000E-03
					 4.42391000E-04	 6.59096000E-03	 1.58237000E-03
					 5.01987000E-04	 6.85146000E-03	 1.58449000E-03
					 4.17295000E-04	 4.62737000E-03	 1.79413000E-03
					 1.95436000E-04	 6.63108000E-03	 7.07519000E-04
					-7.09943000E-05	 1.09656000E-02	-1.42339000E-04
					-1.29030000E-03	 1.08857000E-02	-7.78520000E-04
					-7.67020000E-05	 9.84661000E-03	-1.52547000E-04
					-1.10960000E-03	 9.75777000E-03	-7.87803000E-04
					-5.91999000E-05	 9.73159000E-03	-1.23062000E-04
					-6.78420000E-04	 1.09501000E-02	-4.26859000E-04
					-1.02740000E-03	 9.66104000E-03	-1.35341000E-03
					-7.32314000E-05	 1.03830000E-02	-1.47272000E-04
					-1.19981000E-03	 1.02965000E-02	-8.18859000E-04
					-6.55910000E-05	 8.84881000E-03	-1.34887000E-04
					-5.93090000E-04	 9.82635000E-03	-4.73077000E-04
					-8.68844000E-04	 8.77501000E-03	-1.37229000E-03
					 1.14196000E-03	 1.08770000E-02	 4.93795000E-04
					 9.53082000E-04	 9.75569000E-03	 4.83067000E-04
					 9.04836000E-04	 9.65559000E-03	 1.10746000E-03
					 5.34640000E-04	 1.09453000E-02	 1.42296000E-04
					 1.04786000E-03	 1.02922000E-02	 5.24241000E-04
					 7.36242000E-04	 8.77385000E-03	 1.10366000E-03
					 4.38546000E-04	 9.82621000E-03	 1.68082000E-04
					-8.31052000E-05	 8.90250000E-03	-1.62022000E-04
					-9.34025000E-04	 8.81487000E-03	-7.98316000E-04
					-8.03349000E-05	 9.35099000E-03	-1.57664000E-04
					-1.02211000E-03	 9.26207000E-03	-7.53461000E-04
					-7.23955000E-05	 8.12638000E-03	-1.47671000E-04
					-5.09467000E-04	 8.88220000E-03	-5.22779000E-04
					-7.04288000E-04	 8.06119000E-03	-1.37674000E-03
					 7.68749000E-04	 8.81260000E-03	 4.75083000E-04
					 8.60717000E-04	 9.26035000E-03	 4.38880000E-04
					 5.61107000E-04	 8.05857000E-03	 1.08346000E-03
					 3.43521000E-04	 8.88204000E-03	 1.98884000E-04
					-8.93948000E-05	 1.13058000E-02	-1.74205000E-04
					-1.55094000E-03	 1.12521000E-02	 2.18926000E-04
					-9.19081000E-05	 9.91423000E-03	-1.78355000E-04
					-1.42236000E-03	 9.85183000E-03	 2.17591000E-04
					-8.19376000E-05	 1.14633000E-02	-1.59302000E-04
					-8.18645000E-04	 1.12939000E-02	 1.47545000E-05
					-1.48590000E-03	 1.13993000E-02	-2.37871000E-04
					-9.03872000E-05	 1.05963000E-02	-1.76541000E-04
					-1.48686000E-03	 1.05357000E-02	 2.19916000E-04
					-8.60870000E-05	 1.01489000E-02	-1.67354000E-04
					-7.57983000E-04	 9.89672000E-03	 1.27734000E-05
					-1.32597000E-03	 1.00724000E-02	-2.39431000E-04
					 1.36701000E-03	 1.12475000E-02	-5.66359000E-04
					 1.23617000E-03	 9.85330000E-03	-5.73780000E-04
					 1.31526000E-03	 1.13911000E-02	-8.02965000E-05
					 6.38408000E-04	 1.12914000E-02	-3.63262000E-04
					 1.30168000E-03	 1.05350000E-02	-5.71821000E-04
					 1.15037000E-03	 1.00715000E-02	-9.50081000E-05
					 5.73326000E-04	 9.89806000E-03	-3.69469000E-04
					-9.39424000E-05	 8.64741000E-03	-1.80947000E-04
					-1.30835000E-03	 8.57562000E-03	 2.09581000E-04
					-9.32284000E-05	 9.26513000E-03	-1.79709000E-04
					-1.36632000E-03	 9.20141000E-03	 2.17092000E-04
					-9.03104000E-05	 8.98665000E-03	-1.73516000E-04
					-6.98532000E-04	 8.62517000E-03	 4.05440000E-06
					-1.18256000E-03	 8.90234000E-03	-2.53680000E-04
					 1.12127000E-03	 8.57739000E-03	-5.71422000E-04
					 1.17950000E-03	 9.20365000E-03	-5.76517000E-04
					 1.00232000E-03	 8.90208000E-03	-9.32078000E-05
					 5.10776000E-04	 8.62631000E-03	-3.65947000E-04
					-8.73392000E-05	 9.50999000E-03	-1.93170000E-04
					-1.30285000E-03	 9.44164000E-03	 1.01682000E-03
					-8.82626000E-05	 8.37032000E-03	-1.91610000E-04
					-1.16193000E-03	 8.29807000E-03	 1.01483000E-03
					-8.98299000E-05	 1.06377000E-02	-1.85384000E-04
					-6.94523000E-04	 9.49391000E-03	 3.88166000E-04
					-1.47605000E-03	 1.05799000E-02	 6.05338000E-04
					-8.76863000E-05	 8.92193000E-03	-1.92803000E-04
					-1.23231000E-03	 8.85102000E-03	 1.04707000E-03
					-9.15792000E-05	 9.32014000E-03	-1.86064000E-04
					-6.25600000E-04	 8.35252000E-03	 4.20199000E-04
					-1.34949000E-03	 9.25434000E-03	 6.00572000E-04
					 1.12635000E-03	 9.44437000E-03	-1.40456000E-03
					 9.84455000E-04	 8.30311000E-03	-1.39925000E-03
					 1.29368000E-03	 1.05803000E-02	-9.75556000E-04
					 5.19185000E-04	 9.49552000E-03	-7.74984000E-04
					 1.05550000E-03	 8.85520000E-03	-1.43401000E-03
					 1.16534000E-03	 9.25789000E-03	-9.72541000E-04
					 4.48772000E-04	 8.35546000E-03	-8.03813000E-04
					-8.85043000E-05	 7.36708000E-03	-1.86752000E-04
					-1.02300000E-03	 7.29513000E-03	 1.02166000E-03
					-8.87557000E-05	 7.85146000E-03	-1.89442000E-04
					-1.09289000E-03	 7.77878000E-03	 9.80431000E-04
					-9.28868000E-05	 8.12404000E-03	-1.85220000E-04
					-5.56617000E-04	 7.34915000E-03	 4.62426000E-04
					-1.23865000E-03	 8.04925000E-03	 6.02336000E-04
					 8.45827000E-04	 7.30112000E-03	-1.39614000E-03
					 9.14921000E-04	 7.78414000E-03	-1.36003000E-03
					 1.05408000E-03	 8.05231000E-03	-9.73042000E-04
					 3.79673000E-04	 7.35254000E-03	-8.36591000E-04
					-6.51384000E-05	 5.69605000E-03	-2.12378000E-04
					-9.31121000E-04	 5.64314000E-03	 1.89256000E-03
					-6.20543000E-05	 4.87966000E-03	-1.98833000E-04
					-8.33854000E-04	 4.82743000E-03	 1.92253000E-03
					-8.08040000E-05	 7.85566000E-03	-2.02122000E-04
					-4.98995000E-04	 5.68279000E-03	 7.98443000E-04
					-1.10165000E-03	 7.79042000E-03	 1.48928000E-03
					-6.41852000E-05	 5.27319000E-03	-2.05122000E-04
					-8.83541000E-04	 5.22172000E-03	 1.92411000E-03
					-7.95164000E-05	 6.90626000E-03	-1.95607000E-04
					-4.48690000E-04	 4.86717000E-03	 8.36575000E-04
					-9.66348000E-04	 6.84171000E-03	 1.50128000E-03
					 7.98172000E-04	 5.64713000E-03	-2.31761000E-03
					 7.07201000E-04	 4.83483000E-03	-2.32027000E-03
					 9.38289000E-04	 7.79313000E-03	-1.89582000E-03
					 3.67989000E-04	 5.68328000E-03	-1.22289000E-03
					 7.52153000E-04	 5.22792000E-03	-2.33491000E-03
					 8.05397000E-04	 6.84719000E-03	-1.89452000E-03
					 3.23670000E-04	 4.87009000E-03	-1.23405000E-03
					-5.89705000E-05	 4.16049000E-03	-1.86111000E-04
					-7.28835000E-04	 4.11150000E-03	 1.92861000E-03
					-5.99503000E-05	 4.50925000E-03	-1.93235000E-04
					-7.80635000E-04	 4.45603000E-03	 1.92306000E-03
					-7.76172000E-05	 6.09028000E-03	-1.85212000E-04
					-3.96139000E-04	 4.15001000E-03	 8.51355000E-04
					-8.19507000E-04	 6.03318000E-03	 1.50762000E-03
					 6.09135000E-04	 4.12134000E-03	-2.30076000E-03
					 6.58721000E-04	 4.46456000E-03	-2.30966000E-03
					 6.62153000E-04	 6.04201000E-03	-1.87973000E-03
					 2.77683000E-04	 4.15423000E-03	-1.22300000E-03
					-1.74854000E-05	 7.86014000E-04	-2.30077000E-04
					-7.18603000E-04	 7.70470000E-04	 2.11588000E-03
					-2.38571000E-05	 5.79842000E-05	-2.09610000E-04
					-7.29162000E-04	 3.83026000E-05	 2.16616000E-03
					-4.29085000E-05	 3.23242000E-03	-2.21838000E-04
					-3.64519000E-04	 7.76155000E-04	 9.30002000E-04
					-8.03969000E-04	 3.20834000E-03	 2.07816000E-03
					-1.93896000E-05	 4.27157000E-04	-2.18589000E-04
					-7.24107000E-04	 4.08025000E-04	 2.14350000E-03
					-4.21157000E-05	 2.48907000E-03	-2.03178000E-04
					-3.72199000E-04	 4.47637000E-05	 9.68778000E-04
					-7.67668000E-04	 2.46224000E-03	 2.12230000E-03
					 6.73133000E-04	 7.81908000E-04	-2.56746000E-03
					 6.76455000E-04	 6.24323000E-05	-2.57670000E-03
					 7.11115000E-04	 3.21254000E-03	-2.51737000E-03
					 3.26754000E-04	 7.81171000E-04	-1.38736000E-03
					 6.76329000E-04	 4.27705000E-04	-2.57250000E-03
					 6.79610000E-04	 2.47460000E-03	-2.52354000E-03
					 3.22534000E-04	 5.77979000E-05	-1.38568000E-03
					-3.18174000E-05	-6.54972000E-04	-2.01387000E-04
					-7.32250000E-04	-6.78233000E-04	 2.18222000E-03
					-2.85765000E-05	-3.00976000E-04	-2.03999000E-04
					-7.30230000E-04	-3.21764000E-04	 2.18195000E-03
					-4.20539000E-05	 1.78757000E-03	-1.93632000E-04
					-3.80062000E-04	-6.69422000E-04	 9.78456000E-04
					-7.21933000E-04	 1.76054000E-03	 2.13317000E-03
					 6.70588000E-04	-6.56441000E-04	-2.57705000E-03
					 6.72154000E-04	-2.97281000E-04	-2.58157000E-03
					 6.38660000E-04	 1.77194000E-03	-2.51488000E-03
					 3.16268000E-04	-6.57355000E-04	-1.37925000E-03
					 0.00000000E+00	 0.00000000E+00	 0.00000000E+00
					 0.00000000E+00	 0.00000000E+00	 0.00000000E+00
					-3.41066000E-05	-2.08163000E-03	 2.01177000E-04
					-1.43335000E-03	-2.32246000E-03	 3.33330000E-03
					 0.00000000E+00	 0.00000000E+00	 0.00000000E+00
					 0.00000000E+00	 0.00000000E+00	 0.00000000E+00
					-1.98681000E-06	-3.25200000E-03	 2.06891000E-04
					-9.59174000E-04	-3.51152000E-03	 3.37284000E-03
					 0.00000000E+00	 0.00000000E+00	 0.00000000E+00
					-3.88259000E-05	-1.02506000E-04	 9.91747000E-05
					-7.34438000E-04	-2.12620000E-03	 1.83087000E-03
					-9.63171000E-04	-4.22147000E-04	 1.64345000E-03
					 0.00000000E+00	 0.00000000E+00	 0.00000000E+00
					 0.00000000E+00	 0.00000000E+00	 0.00000000E+00
					-1.82914000E-05	-2.74094000E-03	 2.03326000E-04
					-1.19379000E-03	-2.98927000E-03	 3.26211000E-03
					 0.00000000E+00	 0.00000000E+00	 0.00000000E+00
					-6.39561000E-06	-7.83555000E-04	 9.33009000E-05
					-4.80633000E-04	-3.30214000E-03	 1.76136000E-03
					-4.74644000E-04	-1.08855000E-03	 1.58972000E-03
					 0.00000000E+00	 0.00000000E+00	 0.00000000E+00
					 1.36387000E-03	-2.23972000E-03	-2.93988000E-03
					 0.00000000E+00	 0.00000000E+00	 0.00000000E+00
					 9.54292000E-04	-3.42094000E-03	-2.96753000E-03
					 0.00000000E+00	 0.00000000E+00	 0.00000000E+00
					 8.84899000E-04	-3.47666000E-04	-1.43581000E-03
					 6.66422000E-04	-2.08348000E-03	-1.43237000E-03
					 0.00000000E+00	 0.00000000E+00	 0.00000000E+00
					 1.15565000E-03	-2.90257000E-03	-2.86448000E-03
					 0.00000000E+00	 0.00000000E+00	 0.00000000E+00
					 4.62515000E-04	-1.01346000E-03	-1.39215000E-03
					 4.75265000E-04	-3.25648000E-03	-1.35215000E-03
					 0.00000000E+00	 0.00000000E+00	 0.00000000E+00
					 0.00000000E+00	 0.00000000E+00	 0.00000000E+00
					 3.25522000E-05	-3.99435000E-03	 2.11885000E-04
					-4.75772000E-04	-4.23496000E-03	 3.34577000E-03
					 0.00000000E+00	 0.00000000E+00	 0.00000000E+00
					 0.00000000E+00	 0.00000000E+00	 0.00000000E+00
					 1.51565000E-05	-3.69625000E-03	 2.08337000E-04
					-7.19667000E-04	-3.94290000E-03	 3.44456000E-03
					 0.00000000E+00	 0.00000000E+00	 0.00000000E+00
					 2.73567000E-05	-1.03918000E-03	 1.00700000E-04
					-2.22108000E-04	-4.03755000E-03	 1.66456000E-03
					 4.99253000E-05	-1.32491000E-03	 1.64592000E-03
					 0.00000000E+00	 0.00000000E+00	 0.00000000E+00
					 5.35241000E-04	-4.13945000E-03	-2.92876000E-03
					 0.00000000E+00	 0.00000000E+00	 0.00000000E+00
					 7.46439000E-04	-3.85499000E-03	-3.03500000E-03
					 0.00000000E+00	 0.00000000E+00	 0.00000000E+00
					 3.67452000E-06	-1.24718000E-03	-1.43362000E-03
					 2.85837000E-04	-3.99065000E-03	-1.24506000E-03
					 1.59268000E-05	-1.09434000E-02	 3.45004000E-04
					-2.11614000E-03	-1.11049000E-02	 5.95452000E-03
					 4.90097000E-05	-1.29516000E-02	 3.57145000E-04
					-1.85325000E-03	-1.31205000E-02	 6.00251000E-03
					-1.51867000E-05	-5.76516000E-03	 2.82567000E-04
					-1.04720000E-03	-1.09973000E-02	 3.11644000E-03
					-1.84268000E-03	-5.98715000E-03	 4.84146000E-03
					 3.20173000E-05	-1.19715000E-02	 3.50221000E-04
					-1.98450000E-03	-1.21376000E-02	 5.94278000E-03
					 1.63339000E-05	-7.39557000E-03	 2.91894000E-04
					-8.96484000E-04	-1.30077000E-02	 3.10958000E-03
					-1.43194000E-03	-7.62786000E-03	 4.87814000E-03
					 2.14767000E-03	-1.09795000E-02	-5.26905000E-03
					 1.94360000E-03	-1.29980000E-02	-5.29202000E-03
					 1.80844000E-03	-5.88324000E-03	-4.28491000E-03
					 1.07858000E-03	-1.09355000E-02	-2.42822000E-03
					 2.04678000E-03	-1.20186000E-02	-5.24394000E-03
					 1.46115000E-03	-7.52161000E-03	-4.30281000E-03
					 9.97052000E-04	-1.29483000E-02	-2.39313000E-03
					 7.75340000E-05	-1.47421000E-02	 3.70082000E-04
					-1.57672000E-03	-1.48937000E-02	 5.97706000E-03
					 6.30627000E-05	-1.38692000E-02	 3.64663000E-04
					-1.71474000E-03	-1.40633000E-02	 6.06894000E-03
					 4.86386000E-05	-8.66103000E-03	 3.02049000E-04
					-7.57757000E-04	-1.47874000E-02	 3.02938000E-03
					-1.02370000E-03	-8.88862000E-03	 4.86102000E-03
					 1.75256000E-03	-1.47853000E-02	-5.24257000E-03
					 1.84805000E-03	-1.39185000E-02	-5.34806000E-03
					 1.12657000E-03	-8.78414000E-03	-4.26307000E-03
					 9.18516000E-04	-1.47359000E-02	-2.28557000E-03
					 1.11650000E-04	-2.33558000E-02	 4.41636000E-04
					-2.39706000E-03	-2.33100000E-02	 6.33353000E-03
					 1.46039000E-04	-2.58914000E-02	 4.67265000E-04
					-2.46963000E-03	-2.59574000E-02	 6.38955000E-03
					 6.09666000E-05	-1.70531000E-02	 3.95609000E-04
					-1.13809000E-03	-2.33491000E-02	 3.34229000E-03
					-2.28096000E-03	-1.71344000E-02	 6.43204000E-03
					 1.30461000E-04	-2.46088000E-02	 4.59416000E-04
					-2.43583000E-03	-2.46330000E-02	 6.33275000E-03
					 9.35420000E-05	-1.93618000E-02	 4.11228000E-04
					-1.18619000E-03	-2.59468000E-02	 3.33927000E-03
					-2.19730000E-03	-1.94595000E-02	 6.49057000E-03
					 2.57959000E-03	-2.32202000E-02	-5.43043000E-03
					 2.75797000E-03	-2.57715000E-02	-5.46927000E-03
					 2.39404000E-03	-1.70032000E-02	-5.63769000E-03
					 1.34768000E-03	-2.33074000E-02	-2.44653000E-03
					 2.66706000E-03	-2.44738000E-02	-5.42278000E-03
					 2.38493000E-03	-1.93112000E-02	-5.66771000E-03
					 1.45370000E-03	-2.58562000E-02	-2.42381000E-03
					 1.72981000E-04	-2.85697000E-02	 4.86517000E-04
					-2.65261000E-03	-2.87620000E-02	 6.37493000E-03
					 1.59907000E-04	-2.72272000E-02	 4.74205000E-04
					-2.56407000E-03	-2.72232000E-02	 6.45763000E-03
					 1.31765000E-04	-2.16316000E-02	 4.25271000E-04
					-1.20556000E-03	-2.86932000E-02	 3.26250000E-03
					-2.15130000E-03	-2.17585000E-02	 6.46271000E-03
					 2.95610000E-03	-2.84875000E-02	-5.44312000E-03
					 2.85779000E-03	-2.71036000E-02	-5.52434000E-03
					 2.37609000E-03	-2.15813000E-02	-5.61559000E-03
					 1.55331000E-03	-2.85614000E-02	-2.33331000E-03
					 2.73498000E-04	-3.39575000E-02	 5.45772000E-04
					-2.35590000E-03	-3.37078000E-02	 4.50432000E-03