# vtk DataFile Version 3.0

ASCII
DATASET UNSTRUCTURED_GRID

POINTS 522 double
	 1.00000000E+00	 1.00000000E+00	-5.96046000E-08
	 1.00000000E+00	 5.00000000E-01	-5.96046000E-08
	 1.00000000E+00	 5.00000000E-01	 1.00000000E+00
	 1.00000000E+00	 1.00000000E+00	 1.00000000E+00
	 5.00000000E-01	 1.00000000E+00	-5.96046000E-08
	 5.00000000E-01	 5.00000000E-01	-5.96046000E-08
	 5.00000000E-01	 5.00000000E-01	 1.00000000E+00
	 5.00000000E-01	 1.00000000E+00	 1.00000000E+00
	 1.00000000E+00	 7.50000000E-01	-5.96046000E-08
	 1.00000000E+00	 5.00000000E-01	 5.00000000E-01
	 1.00000000E+00	 7.50000000E-01	 1.00000000E+00
	 1.00000000E+00	 1.00000000E+00	 5.00000000E-01
	 7.50000000E-01	 1.00000000E+00	-5.96046000E-08
	 7.50000000E-01	 5.00000000E-01	-5.96046000E-08
	 7.50000000E-01	 5.00000000E-01	 1.00000000E+00
	 7.50000000E-01	 1.00000000E+00	 1.00000000E+00
	 5.00000000E-01	 7.50000000E-01	-5.96046000E-08
	 5.00000000E-01	 5.00000000E-01	 5.00000000E-01
	 5.00000000E-01	 7.50000000E-01	 1.00000000E+00
	 5.00000000E-01	 1.00000000E+00	 5.00000000E-01
	 1.00000000E+00	-1.49012000E-08	-5.96046000E-08
	 1.00000000E+00	-1.49012000E-08	 1.00000000E+00
	 5.00000000E-01	-1.49012000E-08	-5.96046000E-08
	 5.00000000E-01	-1.49012000E-08	 1.00000000E+00
	 1.00000000E+00	 2.50000000E-01	-5.96046000E-08
	 1.00000000E+00	-1.49012000E-08	 5.00000000E-01
	 1.00000000E+00	 2.50000000E-01	 1.00000000E+00
	 7.50000000E-01	-1.49012000E-08	-5.96046000E-08
	 7.50000000E-01	-1.49012000E-08	 1.00000000E+00
	 5.00000000E-01	 2.50000000E-01	-5.96046000E-08
	 5.00000000E-01	-1.49012000E-08	 5.00000000E-01
	 5.00000000E-01	 2.50000000E-01	 1.00000000E+00
	-7.45058000E-09	 1.00000000E+00	-5.96046000E-08
	-7.45058000E-09	 5.00000000E-01	-5.96046000E-08
	-7.45058000E-09	 5.00000000E-01	 1.00000000E+00
	-7.45058000E-09	 1.00000000E+00	 1.00000000E+00
	 2.50000000E-01	 1.00000000E+00	-5.96046000E-08
	 2.50000000E-01	 5.00000000E-01	-5.96046000E-08
	 2.50000000E-01	 5.00000000E-01	 1.00000000E+00
	 2.50000000E-01	 1.00000000E+00	 1.00000000E+00
	-7.45058000E-09	 7.50000000E-01	-5.96046000E-08
	-7.45058000E-09	 5.00000000E-01	 5.00000000E-01
	-7.45058000E-09	 7.50000000E-01	 1.00000000E+00
	-7.45058000E-09	 1.00000000E+00	 5.00000000E-01
	-7.45058000E-09	-1.49012000E-08	-5.96046000E-08
	-7.45058000E-09	-1.49012000E-08	 1.00000000E+00
	 2.50000000E-01	-1.49012000E-08	-5.96046000E-08
	 2.50000000E-01	-1.49012000E-08	 1.00000000E+00
	-7.45058000E-09	 2.50000000E-01	-5.96046000E-08
	-7.45058000E-09	-1.49012000E-08	 5.00000000E-01
	-7.45058000E-09	 2.50000000E-01	 1.00000000E+00
	 1.00000000E+00	 5.00000000E-01	 2.00000000E+00
	 1.00000000E+00	 1.00000000E+00	 2.00000000E+00
	 5.00000000E-01	 5.00000000E-01	 2.00000000E+00
	 5.00000000E-01	 1.00000000E+00	 2.00000000E+00
	 1.00000000E+00	 5.00000000E-01	 1.50000000E+00
	 1.00000000E+00	 7.50000000E-01	 2.00000000E+00
	 1.00000000E+00	 1.00000000E+00	 1.50000000E+00
	 7.50000000E-01	 5.00000000E-01	 2.00000000E+00
	 7.50000000E-01	 1.00000000E+00	 2.00000000E+00
	 5.00000000E-01	 5.00000000E-01	 1.50000000E+00
	 5.00000000E-01	 7.50000000E-01	 2.00000000E+00
	 5.00000000E-01	 1.00000000E+00	 1.50000000E+00
	 1.00000000E+00	-1.49012000E-08	 2.00000000E+00
	 5.00000000E-01	-1.49012000E-08	 2.00000000E+00
	 1.00000000E+00	-1.49012000E-08	 1.50000000E+00
	 1.00000000E+00	 2.50000000E-01	 2.00000000E+00
	 7.50000000E-01	-1.49012000E-08	 2.00000000E+00
	 5.00000000E-01	-1.49012000E-08	 1.50000000E+00
	 5.00000000E-01	 2.50000000E-01	 2.00000000E+00
	-7.45058000E-09	 5.00000000E-01	 2.00000000E+00
	-7.45058000E-09	 1.00000000E+00	 2.00000000E+00
	 2.50000000E-01	 5.00000000E-01	 2.00000000E+00
	 2.50000000E-01	 1.00000000E+00	 2.00000000E+00
	-7.45058000E-09	 5.00000000E-01	 1.50000000E+00
	-7.45058000E-09	 7.50000000E-01	 2.00000000E+00
	-7.45058000E-09	 1.00000000E+00	 1.50000000E+00
	-7.45058000E-09	-1.49012000E-08	 2.00000000E+00
	 2.50000000E-01	-1.49012000E-08	 2.00000000E+00
	-7.45058000E-09	-1.49012000E-08	 1.50000000E+00
	-7.45058000E-09	 2.50000000E-01	 2.00000000E+00
	 1.00000000E+00	 5.00000000E-01	 3.00000000E+00
	 1.00000000E+00	 1.00000000E+00	 3.00000000E+00
	 5.00000000E-01	 5.00000000E-01	 3.00000000E+00
	 5.00000000E-01	 1.00000000E+00	 3.00000000E+00
	 1.00000000E+00	 5.00000000E-01	 2.50000000E+00
	 1.00000000E+00	 7.50000000E-01	 3.00000000E+00
	 1.00000000E+00	 1.00000000E+00	 2.50000000E+00
	 7.50000000E-01	 5.00000000E-01	 3.00000000E+00
	 7.50000000E-01	 1.00000000E+00	 3.00000000E+00
	 5.00000000E-01	 5.00000000E-01	 2.50000000E+00
	 5.00000000E-01	 7.50000000E-01	 3.00000000E+00
	 5.00000000E-01	 1.00000000E+00	 2.50000000E+00
	 1.00000000E+00	-1.49012000E-08	 3.00000000E+00
	 5.00000000E-01	-1.49012000E-08	 3.00000000E+00
	 1.00000000E+00	-1.49012000E-08	 2.50000000E+00
	 1.00000000E+00	 2.50000000E-01	 3.00000000E+00
	 7.50000000E-01	-1.49012000E-08	 3.00000000E+00
	 5.00000000E-01	-1.49012000E-08	 2.50000000E+00
	 5.00000000E-01	 2.50000000E-01	 3.00000000E+00
	-7.45058000E-09	 5.00000000E-01	 3.00000000E+00
	-7.45058000E-09	 1.00000000E+00	 3.00000000E+00
	 2.50000000E-01	 5.00000000E-01	 3.00000000E+00
	 2.50000000E-01	 1.00000000E+00	 3.00000000E+00
	-7.45058000E-09	 5.00000000E-01	 2.50000000E+00
	-7.45058000E-09	 7.50000000E-01	 3.00000000E+00
	-7.45058000E-09	 1.00000000E+00	 2.50000000E+00
	-7.45058000E-09	-1.49012000E-08	 3.00000000E+00
	 2.50000000E-01	-1.49012000E-08	 3.00000000E+00
	-7.45058000E-09	-1.49012000E-08	 2.50000000E+00
	-7.45058000E-09	 2.50000000E-01	 3.00000000E+00
	 1.00000000E+00	 5.00000000E-01	 4.00000000E+00
	 1.00000000E+00	 1.00000000E+00	 4.00000000E+00
	 5.00000000E-01	 5.00000000E-01	 4.00000000E+00
	 5.00000000E-01	 1.00000000E+00	 4.00000000E+00
	 1.00000000E+00	 5.00000000E-01	 3.50000000E+00
	 1.00000000E+00	 7.50000000E-01	 4.00000000E+00
	 1.00000000E+00	 1.00000000E+00	 3.50000000E+00
	 7.50000000E-01	 5.00000000E-01	 4.00000000E+00
	 7.50000000E-01	 1.00000000E+00	 4.00000000E+00
	 5.00000000E-01	 5.00000000E-01	 3.50000000E+00
	 5.00000000E-01	 7.50000000E-01	 4.00000000E+00
	 5.00000000E-01	 1.00000000E+00	 3.50000000E+00
	 1.00000000E+00	-1.49012000E-08	 4.00000000E+00
	 5.00000000E-01	-1.49012000E-08	 4.00000000E+00
	 1.00000000E+00	-1.49012000E-08	 3.50000000E+00
	 1.00000000E+00	 2.50000000E-01	 4.00000000E+00
	 7.50000000E-01	-1.49012000E-08	 4.00000000E+00
	 5.00000000E-01	-1.49012000E-08	 3.50000000E+00
	 5.00000000E-01	 2.50000000E-01	 4.00000000E+00
	-7.45058000E-09	 5.00000000E-01	 4.00000000E+00
	-7.45058000E-09	 1.00000000E+00	 4.00000000E+00
	 2.50000000E-01	 5.00000000E-01	 4.00000000E+00
	 2.50000000E-01	 1.00000000E+00	 4.00000000E+00
	-7.45058000E-09	 5.00000000E-01	 3.50000000E+00
	-7.45058000E-09	 7.50000000E-01	 4.00000000E+00
	-7.45058000E-09	 1.00000000E+00	 3.50000000E+00
	-7.45058000E-09	-1.49012000E-08	 4.00000000E+00
	 2.50000000E-01	-1.49012000E-08	 4.00000000E+00
	-7.45058000E-09	-1.49012000E-08	 3.50000000E+00
	-7.45058000E-09	 2.50000000E-01	 4.00000000E+00
	 1.00000000E+00	 5.00000000E-01	 5.00000000E+00
	 1.00000000E+00	 1.00000000E+00	 5.00000000E+00
	 5.00000000E-01	 5.00000000E-01	 5.00000000E+00
	 5.00000000E-01	 1.00000000E+00	 5.00000000E+00
	 1.00000000E+00	 5.00000000E-01	 4.50000000E+00
	 1.00000000E+00	 7.50000000E-01	 5.00000000E+00
	 1.00000000E+00	 1.00000000E+00	 4.50000000E+00
	 7.50000000E-01	 5.00000000E-01	 5.00000000E+00
	 7.50000000E-01	 1.00000000E+00	 5.00000000E+00
	 5.00000000E-01	 5.00000000E-01	 4.50000000E+00
	 5.00000000E-01	 7.50000000E-01	 5.00000000E+00
	 5.00000000E-01	 1.00000000E+00	 4.50000000E+00
	 1.00000000E+00	-1.49012000E-08	 5.00000000E+00
	 5.00000000E-01	-1.49012000E-08	 5.00000000E+00
	 1.00000000E+00	-1.49012000E-08	 4.50000000E+00
	 1.00000000E+00	 2.50000000E-01	 5.00000000E+00
	 7.50000000E-01	-1.49012000E-08	 5.00000000E+00
	 5.00000000E-01	-1.49012000E-08	 4.50000000E+00
	 5.00000000E-01	 2.50000000E-01	 5.00000000E+00
	-7.45058000E-09	 5.00000000E-01	 5.00000000E+00
	-7.45058000E-09	 1.00000000E+00	 5.00000000E+00
	 2.50000000E-01	 5.00000000E-01	 5.00000000E+00
	 2.50000000E-01	 1.00000000E+00	 5.00000000E+00
	-7.45058000E-09	 5.00000000E-01	 4.50000000E+00
	-7.45058000E-09	 7.50000000E-01	 5.00000000E+00
	-7.45058000E-09	 1.00000000E+00	 4.50000000E+00
	-7.45058000E-09	-1.49012000E-08	 5.00000000E+00
	 2.50000000E-01	-1.49012000E-08	 5.00000000E+00
	-7.45058000E-09	-1.49012000E-08	 4.50000000E+00
	-7.45058000E-09	 2.50000000E-01	 5.00000000E+00
	 1.00000000E+00	 5.00000000E-01	 6.00000000E+00
	 1.00000000E+00	 1.00000000E+00	 6.00000000E+00
	 5.00000000E-01	 5.00000000E-01	 6.00000000E+00
	 5.00000000E-01	 1.00000000E+00	 6.00000000E+00
	 1.00000000E+00	 5.00000000E-01	 5.50000000E+00
	 1.00000000E+00	 7.50000000E-01	 6.00000000E+00
	 1.00000000E+00	 1.00000000E+00	 5.50000000E+00
	 7.50000000E-01	 5.00000000E-01	 6.00000000E+00
	 7.50000000E-01	 1.00000000E+00	 6.00000000E+00
	 5.00000000E-01	 5.00000000E-01	 5.50000000E+00
	 5.00000000E-01	 7.50000000E-01	 6.00000000E+00
	 5.00000000E-01	 1.00000000E+00	 5.50000000E+00
	 1.00000000E+00	-1.49012000E-08	 6.00000000E+00
	 5.00000000E-01	-1.49012000E-08	 6.00000000E+00
	 1.00000000E+00	-1.49012000E-08	 5.50000000E+00
	 1.00000000E+00	 2.50000000E-01	 6.00000000E+00
	 7.50000000E-01	-1.49012000E-08	 6.00000000E+00
	 5.00000000E-01	-1.49012000E-08	 5.50000000E+00
	 5.00000000E-01	 2.50000000E-01	 6.00000000E+00
	-7.45058000E-09	 5.00000000E-01	 6.00000000E+00
	-7.45058000E-09	 1.00000000E+00	 6.00000000E+00
	 2.50000000E-01	 5.00000000E-01	 6.00000000E+00
	 2.50000000E-01	 1.00000000E+00	 6.00000000E+00
	-7.45058000E-09	 5.00000000E-01	 5.50000000E+00
	-7.45058000E-09	 7.50000000E-01	 6.00000000E+00
	-7.45058000E-09	 1.00000000E+00	 5.50000000E+00
	-7.45058000E-09	-1.49012000E-08	 6.00000000E+00
	 2.50000000E-01	-1.49012000E-08	 6.00000000E+00
	-7.45058000E-09	-1.49012000E-08	 5.50000000E+00
	-7.45058000E-09	 2.50000000E-01	 6.00000000E+00
	 1.00000000E+00	 5.00000000E-01	 7.00000000E+00
[...]
POINT_DATA 522
FIELD U 1
	U 3 522 double
		 0.00000000E+00	 0.00000000E+00	 0.00000000E+00
		 0.00000000E+00	 0.00000000E+00	 0.00000000E+00
		-1.67670000E-05	 4.55123000E-03	 1.97750000E-06
		 6.29986000E-04	 4.73548000E-03	-4.12319000E-03
		 0.00000000E+00	 0.00000000E+00	 0.00000000E+00
		 0.00000000E+00	 0.00000000E+00	 0.00000000E+00
		-1.55388000E-05	 4.93851000E-03	-1.49378000E-05
		 1.28468000E-04	 5.15024000E-03	-4.19593000E-03
		 0.00000000E+00	 0.00000000E+00	 0.00000000E+00
		-2.70076000E-06	 1.01671000E-03	 4.89150000E-06
		 3.05553000E-04	 4.55182000E-03	-1.99474000E-03
		 7.19471000E-04	 1.35086000E-03	-2.14029000E-03
		 0.00000000E+00	 0.00000000E+00	 0.00000000E+00
		 0.00000000E+00	 0.00000000E+00	 0.00000000E+00
		-1.58589000E-05	 4.83074000E-03	-7.94154000E-06
		 3.76669000E-04	 5.03054000E-03	-4.16081000E-03
		 0.00000000E+00	 0.00000000E+00	 0.00000000E+00
		-2.80666000E-06	 1.38934000E-03	-4.00420000E-06
		 5.66992000E-05	 4.94940000E-03	-2.03530000E-03
		 9.64684000E-05	 1.73166000E-03	-2.09592000E-03
		 0.00000000E+00	 0.00000000E+00	 0.00000000E+00
		-6.63745000E-04	 4.77904000E-03	 4.12069000E-03
		 0.00000000E+00	 0.00000000E+00	 0.00000000E+00
		-1.57736000E-04	 5.19132000E-03	 4.15924000E-03
		 0.00000000E+00	 0.00000000E+00	 0.00000000E+00
		-7.24351000E-04	 1.37056000E-03	 2.14816000E-03
		-3.39566000E-04	 4.57335000E-03	 1.99675000E-03
		 0.00000000E+00	 0.00000000E+00	 0.00000000E+00
		-4.07053000E-04	 5.07325000E-03	 4.13825000E-03
		 0.00000000E+00	 0.00000000E+00	 0.00000000E+00
		-1.00145000E-04	 1.74616000E-03	 2.08641000E-03
		-8.74627000E-05	 4.96962000E-03	 2.00323000E-03
		 0.00000000E+00	 0.00000000E+00	 0.00000000E+00
		 0.00000000E+00	 0.00000000E+00	 0.00000000E+00
		-1.56001000E-05	 4.83759000E-03	-2.63530000E-05
		-3.61455000E-04	 5.03815000E-03	-4.15132000E-03
		 0.00000000E+00	 0.00000000E+00	 0.00000000E+00
		 0.00000000E+00	 0.00000000E+00	 0.00000000E+00
		-1.52652000E-05	 4.97530000E-03	-2.08111000E-05
		-1.12728000E-04	 5.17951000E-03	-4.18634000E-03
		 0.00000000E+00	 0.00000000E+00	 0.00000000E+00
		-5.09186000E-06	 1.21332000E-03	-9.26343000E-06
		-1.90477000E-04	 4.84714000E-03	-2.01035000E-03
		-5.30989000E-04	 1.54970000E-03	-2.15493000E-03
		 0.00000000E+00	 0.00000000E+00	 0.00000000E+00
		 3.34189000E-04	 5.07515000E-03	 4.09316000E-03
		 0.00000000E+00	 0.00000000E+00	 0.00000000E+00
		 8.45269000E-05	 5.21928000E-03	 4.13851000E-03
		 0.00000000E+00	 0.00000000E+00	 0.00000000E+00
		 5.24164000E-04	 1.56075000E-03	 2.13404000E-03
		 1.60411000E-04	 4.86504000E-03	 1.95601000E-03
		-5.20079000E-05	 1.69174000E-02	-7.01509000E-05
		-6.55999000E-07	 1.70081000E-02	-6.93555000E-03
		-5.11897000E-05	 1.68075000E-02	-8.07367000E-05
		-3.14359000E-04	 1.69083000E-02	-6.96413000E-03
		-3.46465000E-05	 9.95579000E-03	-2.23508000E-05
		-2.70908000E-05	 1.69339000E-02	-3.39101000E-03
		 4.29481000E-04	 1.01238000E-02	-5.69674000E-03
		-5.20820000E-05	 1.68931000E-02	-7.65305000E-05
		-1.56371000E-04	 1.69905000E-02	-7.02557000E-03
		-3.40352000E-05	 1.02045000E-02	-3.98897000E-05
		-1.81435000E-04	 1.68305000E-02	-3.48417000E-03
		 1.01307000E-05	 1.03854000E-02	-5.74017000E-03
		-1.02825000E-04	 1.71046000E-02	 6.78937000E-03
		 2.12153000E-04	 1.70057000E-02	 6.79677000E-03
		-4.99044000E-04	 1.01932000E-02	 5.64443000E-03
		-7.66746000E-05	 1.69791000E-02	 3.24986000E-03
		 5.29189000E-05	 1.70892000E-02	 6.86598000E-03
		-7.70013000E-05	 1.04541000E-02	 5.65267000E-03
		 7.93930000E-05	 1.68776000E-02	 3.32134000E-03
		-4.85040000E-05	 1.63909000E-02	-8.67278000E-05
		-6.06184000E-04	 1.65007000E-02	-6.95214000E-03
		-4.99914000E-05	 1.66326000E-02	-8.37607000E-05
		-4.60569000E-04	 1.67337000E-02	-6.90637000E-03
		-3.30164000E-05	 1.00431000E-02	-5.19319000E-05
		-3.31229000E-04	 1.64169000E-02	-3.53388000E-03
		-3.78543000E-04	 1.02427000E-02	-5.72650000E-03
		 5.08289000E-04	 1.66002000E-02	 6.77276000E-03
		 3.60128000E-04	 1.68307000E-02	 6.73380000E-03
		 3.14848000E-04	 1.03101000E-02	 5.61490000E-03
		 2.34226000E-04	 1.64664000E-02	 3.35847000E-03
		-6.78726000E-05	 3.37984000E-02	-2.22921000E-04
		-1.21502000E-03	 3.38259000E-02	-8.65738000E-03
		-6.65342000E-05	 3.25572000E-02	-2.00894000E-04
		-1.40910000E-03	 3.25817000E-02	-8.64140000E-03
		-6.35921000E-05	 2.49714000E-02	-1.38556000E-04
		-6.40237000E-04	 3.37889000E-02	-4.34104000E-03
		-5.78147000E-04	 2.50336000E-02	-7.87368000E-03
		-6.76646000E-05	 3.32031000E-02	-2.12131000E-04
		-1.31261000E-03	 3.32266000E-02	-8.74177000E-03
		-6.28678000E-05	 2.43381000E-02	-1.34857000E-04
		-7.37497000E-04	 3.25447000E-02	-4.41395000E-03
		-8.17588000E-04	 2.43998000E-02	-7.88244000E-03
		 1.07644000E-03	 3.39668000E-02	 8.20875000E-03
		 1.27287000E-03	 3.27283000E-02	 8.23666000E-03
		 4.49452000E-04	 2.51513000E-02	 7.59165000E-03
		 5.03737000E-04	 3.38558000E-02	 3.89461000E-03
		 1.17453000E-03	 3.33735000E-02	 8.31435000E-03
		 6.90009000E-04	 2.45215000E-02	 7.60835000E-03
		 6.03641000E-04	 3.26176000E-02	 4.01134000E-03
		-6.24072000E-05	 3.11170000E-02	-1.76201000E-04
		-1.59716000E-03	 3.11417000E-02	-8.61103000E-03
		-6.47453000E-05	 3.18624000E-02	-1.88977000E-04
		-1.50337000E-03	 3.18878000E-02	-8.53695000E-03
		-5.97005000E-05	 2.34639000E-02	-1.27778000E-04
		-8.30044000E-04	 3.11028000E-02	-4.47629000E-03
		-1.04238000E-03	 2.35342000E-02	-7.86259000E-03
		 1.46870000E-03	 3.12952000E-02	 8.25535000E-03
		 1.37022000E-03	 3.20348000E-02	 8.15611000E-03
		 9.20244000E-04	 2.36611000E-02	 7.60280000E-03
		 7.04430000E-04	 3.11825000E-02	 4.12286000E-03
		-6.04329000E-05	 5.32118000E-02	-4.19408000E-04
		-2.39233000E-03	 5.31992000E-02	-1.01155000E-02
		-5.47804000E-05	 5.07877000E-02	-3.66108000E-04
		-2.56710000E-03	 5.07764000E-02	-1.00697000E-02
		-6.50152000E-05	 4.31985000E-02	-3.16571000E-04
		-1.22720000E-03	 5.31837000E-02	-5.17527000E-03
		-1.82177000E-03	 4.32104000E-02	-9.39605000E-03
		-5.77937000E-05	 5.20226000E-02	-3.93126000E-04
		-2.47996000E-03	 5.20097000E-02	-1.01735000E-02
		-6.19611000E-05	 4.13516000E-02	-2.77405000E-04
		-1.31099000E-03	 5.07581000E-02	-5.20615000E-03
		-2.00484000E-03	 4.13589000E-02	-9.35843000E-03
		 2.26992000E-03	 5.33982000E-02	 9.27360000E-03
		 2.45618000E-03	 5.09783000E-02	 9.33365000E-03
		 1.68915000E-03	 4.33792000E-02	 8.76056000E-03
		 1.10590000E-03	 5.32798000E-02	 4.33586000E-03
		 2.36298000E-03	 5.22134000E-02	 9.38389000E-03
		 1.87825000E-03	 4.15323000E-02	 8.80056000E-03
		 1.20113000E-03	 5.08589000E-02	 4.47312000E-03
		-4.77783000E-05	 4.81901000E-02	-3.09826000E-04
		-2.74232000E-03	 4.81730000E-02	-1.00066000E-02
		-5.14521000E-05	 4.95116000E-02	-3.38457000E-04
		-2.65504000E-03	 4.95004000E-02	-9.96278000E-03
		-5.67754000E-05	 3.93165000E-02	-2.35424000E-04
		-1.39330000E-03	 4.81566000E-02	-5.22248000E-03
		-2.19179000E-03	 3.93176000E-02	-9.31575000E-03
		 2.64566000E-03	 4.83776000E-02	 9.38271000E-03
		 2.55079000E-03	 4.97008000E-02	 9.28169000E-03
		 2.07543000E-03	 3.94964000E-02	 8.84120000E-03
		 1.29763000E-03	 4.82615000E-02	 4.60197000E-03
		-5.93975000E-05	 7.51637000E-02	-6.63057000E-04
		-3.62503000E-03	 7.50565000E-02	-1.11856000E-02
		-4.72831000E-05	 7.15775000E-02	-5.85194000E-04
		-3.65126000E-03	 7.14725000E-02	-1.11296000E-02
		-5.83769000E-05	 6.39169000E-02	-5.35079000E-04
		-1.84369000E-03	 7.51068000E-02	-5.78733000E-03
		-2.98557000E-03	 6.38555000E-02	-1.07562000E-02
		-5.33648000E-05	 7.33757000E-02	-6.23737000E-04
		-3.63816000E-03	 7.32690000E-02	-1.12513000E-02
		-4.98011000E-05	 6.09227000E-02	-4.69369000E-04
		-1.84926000E-03	 7.15196000E-02	-5.81187000E-03
		-3.10541000E-03	 6.08652000E-02	-1.07071000E-02
		 3.50716000E-03	 7.53038000E-02	 9.85882000E-03
		 3.55809000E-03	 7.17195000E-02	 9.95790000E-03
		 2.86850000E-03	 6.40818000E-02	 9.68337000E-03
		 1.72520000E-03	 7.52247000E-02	 4.46108000E-03
		 3.53266000E-03	 7.35202000E-02	 1.00029000E-02
		 3.00580000E-03	 6.10933000E-02	 9.76513000E-03
		 1.75525000E-03	 7.16411000E-02	 4.64126000E-03
		-3.51890000E-05	 6.79565000E-02	-5.07465000E-04
		-3.67772000E-03	 6.78509000E-02	-1.10305000E-02
		-4.12784000E-05	 6.97726000E-02	-5.46704000E-04
		-3.66432000E-03	 6.96691000E-02	-1.10119000E-02
		-4.04443000E-05	 5.78075000E-02	-4.01694000E-04
		-1.85591000E-03	 6.78972000E-02	-5.79439000E-03
		-3.22318000E-03	 5.77466000E-02	-1.06233000E-02
		 3.60887000E-03	 6.80953000E-02	 1.00139000E-02
		 3.58330000E-03	 6.99120000E-02	 9.91688000E-03
		 3.14251000E-03	 5.79749000E-02	 9.81640000E-03
		 1.78603000E-03	 6.80203000E-02	 4.77924000E-03
		-7.11028000E-05	 9.77649000E-02	-9.14400000E-04
		-4.97145000E-03	 9.75667000E-02	-1.09883000E-02
		-4.85874000E-05	 9.29556000E-02	-8.22765000E-04
		-4.77893000E-03	 9.27525000E-02	-1.09113000E-02
		-6.28076000E-05	 8.66055000E-02	-7.93605000E-04
		-2.51894000E-03	 9.76913000E-02	-5.83140000E-03
		-4.30526000E-03	 8.64472000E-02	-1.12451000E-02
		-5.91639000E-05	 9.53390000E-02	-8.68025000E-04
		-4.87463000E-03	 9.51335000E-02	-1.10378000E-02
		-4.60702000E-05	 8.23986000E-02	-7.06299000E-04
		-2.41497000E-03	 9.28783000E-02	-5.83386000E-03
		-4.21908000E-03	 8.22407000E-02	-1.11808000E-02
		 4.83433000E-03	 9.78229000E-02	 9.16228000E-03
		 4.68722000E-03	 9.29992000E-02	 9.26893000E-03
		 4.18257000E-03	 8.67042000E-02	 9.65988000E-03
		 2.37773000E-03	 9.78149000E-02	 4.00270000E-03
		 4.76182000E-03	 9.53883000E-02	 9.30528000E-03
		 4.13036000E-03	 8.24932000E-02	 9.76965000E-03
		 2.31922000E-03	 9.30004000E-02	 4.18889000E-03
		-2.99419000E-05	 8.83014000E-02	-7.33360000E-04
		-4.59953000E-03	 8.81041000E-02	-1.08068000E-02
		-3.88480000E-05	 9.06066000E-02	-7.77913000E-04
		-4.68906000E-03	 9.04070000E-02	-1.07886000E-02
		-3.12431000E-05	 7.82584000E-02	-6.21000000E-04
		-2.31705000E-03	 8.82248000E-02	-5.80889000E-03
		-4.13566000E-03	 7.81052000E-02	-1.10731000E-02
		 4.54534000E-03	 8.83403000E-02	 9.34315000E-03
		 4.61687000E-03	 9.06457000E-02	 9.23574000E-03
		 4.07672000E-03	 7.83510000E-02	 9.83187000E-03
		 2.25867000E-03	 8.83444000E-02	 4.34287000E-03
		-9.93197000E-05	 1.17563000E-01	-1.10390000E-03
		-5.85003000E-03	 1.17374000E-01	-9.86924000E-03
		-6.68730000E-05	 1.11915000E-01	-1.00946000E-03
		-5.62454000E-03	 1.11717000E-01	-9.76077000E-03
		-8.56417000E-05	 1.08158000E-01	-1.01726000E-03
		-2.97261000E-03	 1.17493000E-01	-5.47383000E-03
		-5.50728000E-03	 1.07963000E-01	-1.04529000E-02
		-8.31067000E-05	 1.14716000E-01	-1.05693000E-03
		-5.73826000E-03	 1.14518000E-01	-9.84801000E-03
		-5.74275000E-05	 1.02851000E-01	-9.25063000E-04
		-2.84738000E-03	 1.11841000E-01	-5.40619000E-03
		-5.26597000E-03	 1.02647000E-01	-1.03621000E-02
		 5.65379000E-03	 1.17594000E-01	 7.66433000E-03
		 5.49474000E-03	 1.11931000E-01	 7.74573000E-03
		 5.34100000E-03	 1.08204000E-01	 8.42028000E-03
		 2.77446000E-03	 1.17602000E-01	 3.26725000E-03
		 5.57522000E-03	 1.14736000E-01	 7.73715000E-03
		 5.15640000E-03	 1.02877000E-01	 8.51499000E-03
		 2.71478000E-03	 1.11948000E-01	 3.38836000E-03
		-3.64513000E-05	 1.06446000E-01	-9.18544000E-04
		-5.41839000E-03	 1.06246000E-01	-9.67897000E-03
		-5.11045000E-05	 1.09156000E-01	-9.63119000E-04
		-5.52097000E-03	 1.08960000E-01	-9.67107000E-03
		-3.25360000E-05	 9.77389000E-02	-8.34704000E-04
		-2.72751000E-03	 1.06369000E-01	-5.36524000E-03
		-5.04560000E-03	 9.75365000E-02	-1.02683000E-02
		 5.35026000E-03	 1.06453000E-01	 7.84664000E-03
		 5.42339000E-03	 1.09169000E-01	 7.74913000E-03
		 4.98583000E-03	 9.77576000E-02	 8.60264000E-03
		 2.65594000E-03	 1.06474000E-01	 3.52955000E-03
		-9.30311000E-05	 1.34191000E-01	-1.24811000E-03
		-5.95955000E-03	 1.34074000E-01	-9.43069000E-03
		-6.41575000E-05	 1.28318000E-01	-1.14514000E-03
		-5.90469000E-03	 1.28192000E-01	-9.29578000E-03
		-1.01066000E-04	 1.26053000E-01	-1.17928000E-03
		-3.02034000E-03	 1.34132000E-01	-5.36561000E-03
		-5.97741000E-03	 1.25919000E-01	-9.51662000E-03
		-7.80256000E-05	 1.31256000E-01	-1.19553000E-03
		-5.93503000E-03	 1.31130000E-01	-9.35599000E-03
		-6.80506000E-05	 1.20233000E-01	-1.07933000E-03
		-2.98324000E-03	 1.28252000E-01	-5.24207000E-03
		-5.83880000E-03	 1.20089000E-01	-9.39018000E-03
		 5.76847000E-03	 1.34281000E-01	 6.94139000E-03
		 5.77745000E-03	 1.28403000E-01	 7.01283000E-03
		 5.77261000E-03	 1.26125000E-01	 7.16301000E-03
		 2.83338000E-03	 1.34236000E-01	 2.87140000E-03
		 5.77631000E-03	 1.31341000E-01	 6.97206000E-03
		 5.70444000E-03	 1.20295000E-01	 7.23711000E-03
		 2.85553000E-03	 1.28360000E-01	 2.95401000E-03
		-3.51925000E-05	 1.22496000E-01	-1.05043000E-03
		-5.86918000E-03	 1.22356000E-01	-9.21759000E-03
		-5.04640000E-05	 1.25404000E-01	-1.09721000E-03
		-5.88462000E-03	 1.25271000E-01	-9.24116000E-03
		-3.60524000E-05	 1.14512000E-01	-9.86243000E-04
		-2.95410000E-03	 1.22425000E-01	-5.16664000E-03
		-5.71463000E-03	 1.14364000E-01	-9.31273000E-03
		 5.80568000E-03	 1.22562000E-01	 7.12462000E-03
		 5.78854000E-03	 1.25480000E-01	 7.05415000E-03
		 5.64792000E-03	 1.14564000E-01	 7.34638000E-03
		 2.88584000E-03	 1.22529000E-01	 3.06858000E-03
		 0.00000000E+00	 0.00000000E+00	 0.00000000E+00
		 0.00000000E+00	 0.00000000E+00	 0.00000000E+00
		-5.97059000E-05	-5.43623000E-03	 2.08612000E-04
		-2.81836000E-03	-5.85952000E-03	 6.65946000E-03
		 0.00000000E+00	 0.00000000E+00	 0.00000000E+00
		 0.00000000E+00	 0.00000000E+00	 0.00000000E+00
		-2.20470000E-05	-7.80810000E-03	 1.41131000E-04
		-2.01186000E-03	-8.25140000E-03	 6.68276000E-03
		 0.00000000E+00	 0.00000000E+00	 0.00000000E+00
		-3.17885000E-05	-7.83654000E-04	 1.02563000E-04
		-1.44270000E-03	-5.50723000E-03	 3.49464000E-03
		-1.96663000E-03	-1.41411000E-03	 3.47592000E-03
		 0.00000000E+00	 0.00000000E+00	 0.00000000E+00
		 0.00000000E+00	 0.00000000E+00	 0.00000000E+00
		-3.88870000E-05	-6.75885000E-03	 1.73726000E-04
		-2.40661000E-03	-7.18795000E-03	 6.50294000E-03
		 0.00000000E+00	 0.00000000E+00	 0.00000000E+00
		-4.37901000E-07	-2.20683000E-03	 6.90811000E-05
		-1.01812000E-03	-7.88092000E-03	 3.29815000E-03
		-9.90743000E-04	-2.80223000E-03	 3.36143000E-03
		 0.00000000E+00	 0.00000000E+00	 0.00000000E+00
		 2.70446000E-03	-5.68033000E-03	-6.26158000E-03
		 0.00000000E+00	 0.00000000E+00	 0.00000000E+00
		 1.97814000E-03	-8.08673000E-03	-6.42010000E-03
		 0.00000000E+00	 0.00000000E+00	 0.00000000E+00
		 1.90677000E-03	-1.30118000E-03	-3.26727000E-03
		 1.32436000E-03	-5.41490000E-03	-3.08615000E-03
		 0.00000000E+00	 0.00000000E+00	 0.00000000E+00
		 2.33718000E-03	-7.01719000E-03	-6.17284000E-03
		 0.00000000E+00	 0.00000000E+00	 0.00000000E+00
		 9.98180000E-04	-2.70764000E-03	-3.21729000E-03
		 9.74913000E-04	-7.79923000E-03	-3.02384000E-03
		 0.00000000E+00	 0.00000000E+00	 0.00000000E+00
		 0.00000000E+00	 0.00000000E+00	 0.00000000E+00
		 4.45683000E-06	-9.42410000E-03	 8.30594000E-05
		-1.20729000E-03	-9.82045000E-03	 6.53759000E-03
		 0.00000000E+00	 0.00000000E+00	 0.00000000E+00
		 0.00000000E+00	 0.00000000E+00	 0.00000000E+00
		-6.90513000E-06	-8.75057000E-03	 1.08624000E-04
		-1.61309000E-03	-9.17035000E-03	 6.79499000E-03
		 0.00000000E+00	 0.00000000E+00	 0.00000000E+00
		 2.05773000E-05	-2.77145000E-03	 5.38160000E-05
		-6.03839000E-04	-9.47682000E-03	 3.01382000E-03
		 4.70367000E-05	-3.31226000E-03	 3.42808000E-03
		 0.00000000E+00	 0.00000000E+00	 0.00000000E+00
		 1.22693000E-03	-9.67751000E-03	-6.38659000E-03
		 0.00000000E+00	 0.00000000E+00	 0.00000000E+00
		 1.60834000E-03	-9.01747000E-03	-6.59752000E-03
		 0.00000000E+00	 0.00000000E+00	 0.00000000E+00
		 2.93794000E-06	-3.23179000E-03	-3.31631000E-03
		 6.16090000E-04	-9.41071000E-03	-2.85206000E-03
		-1.72888000E-04	-2.27084000E-02	 2.98412000E-04
		-4.14660000E-03	-2.30609000E-02	 1.08714000E-02
		-1.27258000E-04	-2.64630000E-02	 1.44335000E-04
		-3.67149000E-03	-2.68151000E-02	 1.07561000E-02
		-1.05253000E-04	-1.29147000E-02	 2.76421000E-04
		-2.15938000E-03	-2.28426000E-02	 5.55710000E-03
		-3.61870000E-03	-1.33468000E-02	 9.10636000E-03
		-1.49382000E-04	-2.46261000E-02	 2.18868000E-04
		-3.90913000E-03	-2.49801000E-02	 1.07667000E-02
		-6.49822000E-05	-1.61067000E-02	 1.64225000E-04
		-1.89723000E-03	-2.65970000E-02	 5.37666000E-03
		-2.94432000E-03	-1.65445000E-02	 9.03951000E-03
		 3.81583000E-03	-2.27296000E-02	-1.02904000E-02
		 3.42420000E-03	-2.65151000E-02	-1.04823000E-02
		 3.41597000E-03	-1.30877000E-02	-8.57344000E-03
		 1.81676000E-03	-2.26773000E-02	-4.96428000E-03
		 3.62411000E-03	-2.46716000E-02	-1.03422000E-02
		 2.82570000E-03	-1.63102000E-02	-8.73213000E-03
		 1.64925000E-03	-2.64505000E-02	-5.08877000E-03
		-9.73702000E-05	-2.98000000E-02	-1.96004000E-06
		-3.21435000E-03	-3.01349000E-02	 1.05698000E-02
		-1.10908000E-04	-2.81733000E-02	 7.22720000E-05
		-3.44123000E-03	-2.85446000E-02	 1.07537000E-02
		-3.63794000E-05	-1.86843000E-02	 6.19366000E-05
		-1.65927000E-03	-2.99209000E-02	 5.12393000E-03
		-2.31883000E-03	-1.91272000E-02	 8.89194000E-03
		 3.05473000E-03	-2.98760000E-02	-1.05900000E-02
		 3.24116000E-03	-2.82332000E-02	-1.06272000E-02
		 2.27051000E-03	-1.89252000E-02	-8.78753000E-03
		 1.47398000E-03	-2.97988000E-02	-5.12794000E-03
		-3.43752000E-04	-4.62340000E-02	 2.09347000E-04
		-4.79408000E-03	-4.64330000E-02	 1.24521000E-02
		-2.99757000E-04	-5.05896000E-02	 1.68595000E-05
		-4.61366000E-03	-5.08940000E-02	 1.22841000E-02
		-2.52906000E-04	-3.40360000E-02	 2.74557000E-04
		-2.56540000E-03	-4.63170000E-02	 6.30605000E-03
		-4.50747000E-03	-3.43404000E-02	 1.19285000E-02
		-3.19827000E-04	-4.84300000E-02	 1.16324000E-04
		-4.70582000E-03	-4.86940000E-02	 1.23346000E-02
		-2.08786000E-04	-3.81546000E-02	 9.17810000E-05
		-2.48131000E-03	-5.07304000E-02	 6.08086000E-03
		-4.20081000E-03	-3.84647000E-02	 1.17846000E-02
		 4.07417000E-03	-4.60947000E-02	-1.20233000E-02
		 4.01610000E-03	-5.04717000E-02	-1.22738000E-02
		 4.00416000E-03	-3.39789000E-02	-1.13903000E-02
		 1.86673000E-03	-4.61521000E-02	-5.87723000E-03
		 4.04396000E-03	-4.82938000E-02	-1.21206000E-02
		 3.79353000E-03	-3.81055000E-02	-1.16117000E-02
		 1.85898000E-03	-5.05237000E-02	-6.06831000E-03
		-2.67965000E-04	-5.48420000E-02	-1.78919000E-04
		-4.54759000E-03	-5.52668000E-02	 1.20613000E-02
		-2.82514000E-04	-5.27439000E-02	-8.26513000E-05
		-4.58253000E-03	-5.29785000E-02	 1.22399000E-02
		-1.66902000E-04	-4.20184000E-02	-8.80730000E-05
		-2.37622000E-03	-5.50469000E-02	 5.80125000E-03
		-3.94693000E-03	-4.23573000E-02	 1.15702000E-02
		 3.97129000E-03	-5.47629000E-02	-1.24689000E-02
		 3.99471000E-03	-5.26248000E-02	-1.24293000E-02
		 3.58193000E-03	-4.19854000E-02	-1.17586000E-02
		 1.84217000E-03	-5.48038000E-02	-6.20463000E-03
		-4.81506000E-04	-7.11719000E-02	 1.66484000E-05
		-5.17454000E-03	-7.11890000E-02	 1.21566000E-02
		-4.47376000E-04	-7.59635000E-02	-1.59904000E-04
		-5.36934000E-03	-7.64424000E-02	 1.19937000E-02
		-4.52780000E-04	-5.87181000E-02	 1.20313000E-04
		-2.82712000E-03	-7.11933000E-02	 6.06457000E-03
		-5.03347000E-03	-5.89239000E-02	 1.24619000E-02
		-4.63091000E-04	-7.35181000E-02	-7.08892000E-05
		-5.26212000E-03	-7.37137000E-02	 1.20778000E-02
		-4.18300000E-04	-6.33439000E-02	-1.12931000E-04
		-2.78548000E-03	-7.62016000E-02	 5.89386000E-03
		-5.06668000E-03	-6.34932000E-02	 1.23293000E-02
		 4.04607000E-03	-7.09403000E-02	-1.21210000E-02
		 4.17948000E-03	-7.55857000E-02	-1.23081000E-02
		 4.10551000E-03	-5.85278000E-02	-1.22204000E-02
		 1.77977000E-03	-7.10770000E-02	-6.02915000E-03
		 4.11658000E-03	-7.32445000E-02	-1.22174000E-02
		 4.16395000E-03	-6.31165000E-02	-1.24512000E-02
		 1.85392000E-03	-7.57677000E-02	-6.21341000E-03
		-5.54425000E-04	-8.09003000E-02	-3.42477000E-04
		-5.44068000E-03	-8.17396000E-02	 1.18020000E-02
		-4.98858000E-04	-7.83795000E-02	-2.51182000E-04
		-5.40334000E-03	-7.95597000E-02	 1.19067000E-02
		-4.12523000E-04	-6.79926000E-02	-3.76765000E-04
		-3.11484000E-03	-8.13048000E-02	 5.69668000E-03
		-4.94730000E-03	-6.80259000E-02	 1.21034000E-02
		 4.33371000E-03	-8.03693000E-02	-1.24765000E-02