# vtk DataFile Version 3.0

ASCII
DATASET UNSTRUCTURED_GRID

POINTS 522 double
	 1.00000000E+00	 1.00000000E+00	-5.96046000E-08
	 1.00000000E+00	 5.00000000E-01	-5.96046000E-08
	 1.00000000E+00	 5.00000000E-01	 1.00000000E+00
	 1.00000000E+00	 1.00000000E+00	 1.00000000E+00
	 5.00000000E-01	 1.00000000E+00	-5.96046000E-08
	 5.00000000E-01	 5.00000000E-01	-5.96046000E-08
	 5.00000000E-01	 5.00000000E-01	 1.00000000E+00
	 5.00000000E-01	 1.00000000E+00	 1.00000000E+00
	 1.00000000E+00	 7.50000000E-01	-5.96046000E-08
	 1.00000000E+00	 5.00000000E-01	 5.00000000E-01
	 1.00000000E+00	 7.50000000E-01	 1.00000000E+00
	 1.00000000E+00	 1.00000000E+00	 5.00000000E-01
	 7.50000000E-01	 1.00000000E+00	-5.96046000E-08
	 7.50000000E-01	 5.00000000E-01	-5.96046000E-08
	 7.50000000E-01	 5.00000000E-01	 1.00000000E+00
	 7.50000000E-01	 1.00000000E+00	 1.00000000E+00
	 5.00000000E-01	 7.50000000E-01	-5.96046000E-08
	 5.00000000E-01	 5.00000000E-01	 5.00000000E-01
	 5.00000000E-01	 7.50000000E-01	 1.00000000E+00
	 5.00000000E-01	 1.00000000E+00	 5.00000000E-01
	 1.00000000E+00	-1.49012000E-08	-5.96046000E-08
	 1.00000000E+00	-1.49012000E-08	 1.00000000E+00
	 5.00000000E-01	-1.49012000E-08	-5.96046000E-08
	 5.00000000E-01	-1.49012000E-08	 1.00000000E+00
	 1.00000000E+00	 2.50000000E-01	-5.96046000E-08
	 1.00000000E+00	-1.49012000E-08	 5.00000000E-01
	 1.00000000E+00	 2.50000000E-01	 1.00000000E+00
	 7.50000000E-01	-1.49012000E-08	-5.96046000E-08
	 7.50000000E-01	-1.49012000E-08	 1.00000000E+00
	 5.00000000E-01	 2.50000000E-01	-5.96046000E-08
	 5.00000000E-01	-1.49012000E-08	 5.00000000E-01
	 5.00000000E-01	 2.50000000E-01	 1.00000000E+00
	-7.45058000E-09	 1.00000000E+00	-5.96046000E-08
	-7.45058000E-09	 5.00000000E-01	-5.96046000E-08
	-7.45058000E-09	 5.00000000E-01	 1.00000000E+00
	-7.45058000E-09	 1.00000000E+00	 1.00000000E+00
	 2.50000000E-01	 1.00000000E+00	-5.96046000E-08
	 2.50000000E-01	 5.00000000E-01	-5.96046000E-08
	 2.50000000E-01	 5.00000000E-01	 1.00000000E+00
	 2.50000000E-01	 1.00000000E+00	 1.00000000E+00
	-7.45058000E-09	 7.50000000E-01	-5.96046000E-08
	-7.45058000E-09	 5.00000000E-01	 5.00000000E-01
	-7.45058000E-09	 7.50000000E-01	 1.00000000E+00
	-7.45058000E-09	 1.00000000E+00	 5.00000000E-01
	-7.45058000E-09	-1.49012000E-08	-5.96046000E-08
	-7.45058000E-09	-1.49012000E-08	 1.00000000E+00
	 2.50000000E-01	-1.49012000E-08	-5.96046000E-08
	 2.50000000E-01	-1.49012000E-08	 1.00000000E+00
	-7.45058000E-09	 2.50000000E-01	-5.96046000E-08
	-7.45058000E-09	-1.49012000E-08	 5.00000000E-01
	-7.45058000E-09	 2.50000000E-01	 1.00000000E+00
	 1.00000000E+00	 5.00000000E-01	 2.00000000E+00
	 1.00000000E+00	 1.00000000E+00	 2.00000000E+00
	 5.00000000E-01	 5.00000000E-01	 2.00000000E+00
	 5.00000000E-01	 1.00000000E+00	 2.00000000E+00
	 1.00000000E+00	 5.00000000E-01	 1.50000000E+00
	 1.00000000E+00	 7.50000000E-01	 2.00000000E+00
	 1.00000000E+00	 1.00000000E+00	 1.50000000E+00
	 7.50000000E-01	 5.00000000E-01	 2.00000000E+00
	 7.50000000E-01	 1.00000000E+00	 2.00000000E+00
	 5.00000000E-01	 5.00000000E-01	 1.50000000E+00
	 5.00000000E-01	 7.50000000E-01	 2.00000000E+00
	 5.00000000E-01	 1.00000000E+00	 1.50000000E+00
	 1.00000000E+00	-1.49012000E-08	 2.00000000E+00
	 5.00000000E-01	-1.49012000E-08	 2.00000000E+00
	 1.00000000E+00	-1.49012000E-08	 1.50000000E+00
	 1.00000000E+00	 2.50000000E-01	 2.00000000E+00
	 7.50000000E-01	-1.49012000E-08	 2.00000000E+00
	 5.00000000E-01	-1.49012000E-08	 1.50000000E+00
	 5.00000000E-01	 2.50000000E-01	 2.00000000E+00
	-7.45058000E-09	 5.00000000E-01	 2.00000000E+00
	-7.45058000E-09	 1.00000000E+00	 2.00000000E+00
	 2.50000000E-01	 5.00000000E-01	 2.00000000E+00
	 2.50000000E-01	 1.00000000E+00	 2.00000000E+00
	-7.45058000E-09	 5.00000000E-01	 1.50000000E+00
	-7.45058000E-09	 7.50000000E-01	 2.00000000E+00
	-7.45058000E-09	 1.00000000E+00	 1.50000000E+00
	-7.45058000E-09	-1.49012000E-08	 2.00000000E+00
	 2.50000000E-01	-1.49012000E-08	 2.00000000E+00
	-7.45058000E-09	-1.49012000E-08	 1.50000000E+00
	-7.45058000E-09	 2.50000000E-01	 2.00000000E+00
	 1.00000000E+00	 5.00000000E-01	 3.00000000E+00
	 1.00000000E+00	 1.00000000E+00	 3.00000000E+00
	 5.00000000E-01	 5.00000000E-01	 3.00000000E+00
	 5.00000000E-01	 1.00000000E+00	 3.00000000E+00
	 1.00000000E+00	 5.00000000E-01	 2.50000000E+00
	 1.00000000E+00	 7.50000000E-01	 3.00000000E+00
	 1.00000000E+00	 1.00000000E+00	 2.50000000E+00
	 7.50000000E-01	 5.00000000E-01	 3.00000000E+00
	 7.50000000E-01	 1.00000000E+00	 3.00000000E+00
	 5.00000000E-01	 5.00000000E-01	 2.50000000E+00
	 5.00000000E-01	 7.50000000E-01	 3.00000000E+00
	 5.00000000E-01	 1.00000000E+00	 2.50000000E+00
	 1.00000000E+00	-1.49012000E-08	 3.00000000E+00
	 5.00000000E-01	-1.49012000E-08	 3.00000000E+00
	 1.00000000E+00	-1.49012000E-08	 2.50000000E+00
	 1.00000000E+00	 2.50000000E-01	 3.00000000E+00
	 7.50000000E-01	-1.49012000E-08	 3.00000000E+00
	 5.00000000E-01	-1.49012000E-08	 2.50000000E+00
	 5.00000000E-01	 2.50000000E-01	 3.00000000E+00
	-7.45058000E-09	 5.00000000E-01	 3.00000000E+00
	-7.45058000E-09	 1.00000000E+00	 3.00000000E+00
	 2.50000000E-01	 5.00000000E-01	 3.00000000E+00
	 2.50000000E-01	 1.00000000E+00	 3.00000000E+00
	-7.45058000E-09	 5.00000000E-01	 2.50000000E+00
	-7.45058000E-09	 7.50000000E-01	 3.00000000E+00
	-7.45058000E-09	 1.00000000E+00	 2.50000000E+00
	-7.45058000E-09	-1.49012000E-08	 3.00000000E+00
	 2.50000000E-01	-1.49012000E-08	 3.00000000E+00
	-7.45058000E-09	-1.49012000E-08	 2.50000000E+00
	-7.45058000E-09	 2.50000000E-01	 3.00000000E+00
	 1.00000000E+00	 5.00000000E-01	 4.00000000E+00
	 1.00000000E+00	 1.00000000E+00	 4.00000000E+00
	 5.00000000E-01	 5.00000000E-01	 4.00000000E+00
	 5.00000000E-01	 1.00000000E+00	 4.00000000E+00
	 1.00000000E+00	 5.00000000E-01	 3.50000000E+00
	 1.00000000E+00	 7.50000000E-01	 4.00000000E+00
	 1.00000000E+00	 1.00000000E+00	 3.50000000E+00
	 7.50000000E-01	 5.00000000E-01	 4.00000000E+00
	 7.50000000E-01	 1.00000000E+00	 4.00000000E+00
	 5.00000000E-01	 5.00000000E-01	 3.50000000E+00
	 5.00000000E-01	 7.50000000E-01	 4.00000000E+00
	 5.00000000E-01	 1.00000000E+00	 3.50000000E+00
	 1.00000000E+00	-1.49012000E-08	 4.00000000E+00
	 5.00000000E-01	-1.49012000E-08	 4.00000000E+00
	 1.00000000E+00	-1.49012000E-08	 3.50000000E+00
	 1.00000000E+00	 2.50000000E-01	 4.00000000E+00
	 7.50000000E-01	-1.49012000E-08	 4.00000000E+00
	 5.00000000E-01	-1.49012000E-08	 3.50000000E+00
	 5.00000000E-01	 2.50000000E-01	 4.00000000E+00
	-7.45058000E-09	 5.00000000E-01	 4.00000000E+00
	-7.45058000E-09	 1.00000000E+00	 4.00000000E+00
	 2.50000000E-01	 5.00000000E-01	 4.00000000E+00
	 2.50000000E-01	 1.00000000E+00	 4.00000000E+00
	-7.45058000E-09	 5.00000000E-01	 3.50000000E+00
	-7.45058000E-09	 7.50000000E-01	 4.00000000E+00
	-7.45058000E-09	 1.00000000E+00	 3.50000000E+00
	-7.45058000E-09	-1.49012000E-08	 4.00000000E+00
	 2.50000000E-01	-1.49012000E-08	 4.00000000E+00
	-7.45058000E-09	-1.49012000E-08	 3.50000000E+00
	-7.45058000E-09	 2.50000000E-01	 4.00000000E+00
	 1.00000000E+00	 5.00000000E-01	 5.00000000E+00
	 1.00000000E+00	 1.00000000E+00	 5.00000000E+00
	 5.00000000E-01	 5.00000000E-01	 5.00000000E+00
	 5.00000000E-01	 1.00000000E+00	 5.00000000E+00
	 1.00000000E+00	 5.00000000E-01	 4.50000000E+00
	 1.00000000E+00	 7.50000000E-01	 5.00000000E+00
	 1.00000000E+00	 1.00000000E+00	 4.50000000E+00
	 7.50000000E-01	 5.00000000E-01	 5.00000000E+00
	 7.50000000E-01	 1.00000000E+00	 5.00000000E+00
	 5.00000000E-01	 5.00000000E-01	 4.50000000E+00
	 5.00000000E-01	 7.50000000E-01	 5.00000000E+00
	 5.00000000E-01	 1.00000000E+00	 4.50000000E+00
	 1.00000000E+00	-1.49012000E-08	 5.00000000E+00
	 5.00000000E-01	-1.49012000E-08	 5.00000000E+00
	 1.00000000E+00	-1.49012000E-08	 4.50000000E+00
	 1.00000000E+00	 2.50000000E-01	 5.00000000E+00
	 7.50000000E-01	-1.49012000E-08	 5.00000000E+00
	 5.00000000E-01	-1.49012000E-08	 4.50000000E+00
	 5.00000000E-01	 2.50000000E-01	 5.00000000E+00
	-7.45058000E-09	 5.00000000E-01	 5.00000000E+00
	-7.45058000E-09	 1.00000000E+00	 5.00000000E+00
	 2.50000000E-01	 5.00000000E-01	 5.00000000E+00
	 2.50000000E-01	 1.00000000E+00	 5.00000000E+00
	-7.45058000E-09	 5.00000000E-01	 4.50000000E+00
	-7.45058000E-09	 7.50000000E-01	 5.00000000E+00
	-7.45058000E-09	 1.00000000E+00	 4.50000000E+00
	-7.45058000E-09	-1.49012000E-08	 5.00000000E+00
	 2.50000000E-01	-1.49012000E-08	 5.00000000E+00
	-7.45058000E-09	-1.49012000E-08	 4.50000000E+00
	-7.45058000E-09	 2.50000000E-01	 5.00000000E+00
	 1.00000000E+00	 5.00000000E-01	 6.00000000E+00
	 1.00000000E+00	 1.00000000E+00	 6.00000000E+00
	 5.00000000E-01	 5.00000000E-01	 6.00000000E+00
	 5.00000000E-01	 1.00000000E+00	 6.00000000E+00
	 1.00000000E+00	 5.00000000E-01	 5.50000000E+00
	 1.00000000E+00	 7.50000000E-01	 6.00000000E+00
	 1.00000000E+00	 1.00000000E+00	 5.50000000E+00
	 7.50000000E-01	 5.00000000E-01	 6.00000000E+00
	 7.50000000E-01	 1.00000000E+00	 6.00000000E+00
	 5.00000000E-01	 5.00000000E-01	 5.50000000E+00
	 5.00000000E-01	 7.50000000E-01	 6.00000000E+00
	 5.00000000E-01	 1.00000000E+00	 5.50000000E+00
	 1.00000000E+00	-1.49012000E-08	 6.00000000E+00
	 5.00000000E-01	-1.49012000E-08	 6.00000000E+00
	 1.00000000E+00	-1.49012000E-08	 5.50000000E+00
	 1.00000000E+00	 2.50000000E-01	 6.00000000E+00
	 7.50000000E-01	-1.49012000E-08	 6.00000000E+00
	 5.00000000E-01	-1.49012000E-08	 5.50000000E+00
	 5.00000000E-01	 2.50000000E-01	 6.00000000E+00
	-7.45058000E-09	 5.00000000E-01	 6.00000000E+00
	-7.45058000E-09	 1.00000000E+00	 6.00000000E+00
	 2.50000000E-01	 5.00000000E-01	 6.00000000E+00
	 2.50000000E-01	 1.00000000E+00	 6.00000000E+00
	-7.45058000E-09	 5.00000000E-01	 5.50000000E+00
	-7.45058000E-09	 7.50000000E-01	 6.00000000E+00
	-7.45058000E-09	 1.00000000E+00	 5.50000000E+00
	-7.45058000E-09	-1.49012000E-08	 6.00000000E+00
	 2.50000000E-01	-1.49012000E-08	 6.00000000E+00
	-7.45058000E-09	-1.49012000E-08	 5.50000000E+00
	-7.45058000E-09	 2.50000000E-01	 6.00000000E+00
	 1.00000000E+00	 5.00000000E-01	 7.00000000E+00
[...]
POINT_DATA 522
FIELD U 1
	U 3 522 double
		 0.00000000E+00	 0.00000000E+00	 0.00000000E+00
		 0.00000000E+00	 0.00000000E+00	 0.00000000E+00
		-6.85751000E-06	-2.79427000E-03	-1.66039000E-06
		-1.11723000E-03	-2.99662000E-03	 3.20072000E-03
		 0.00000000E+00	 0.00000000E+00	 0.00000000E+00
		 0.00000000E+00	 0.00000000E+00	 0.00000000E+00
		-4.89995000E-06	-3.70999000E-03	-9.26347000E-06
		-7.20079000E-04	-3.91333000E-03	 3.22665000E-03
		 0.00000000E+00	 0.00000000E+00	 0.00000000E+00
		-1.17836000E-06	-5.03464000E-04	 6.03696000E-07
		-5.67284000E-04	-2.82500000E-03	 1.63694000E-03
		-7.96224000E-04	-7.97066000E-04	 1.64591000E-03
		 0.00000000E+00	 0.00000000E+00	 0.00000000E+00
		 0.00000000E+00	 0.00000000E+00	 0.00000000E+00
		-6.22810000E-06	-3.32244000E-03	-6.62856000E-06
		-9.14692000E-04	-3.51962000E-03	 3.14183000E-03
		 0.00000000E+00	 0.00000000E+00	 0.00000000E+00
		-7.49985000E-07	-1.04559000E-03	-2.29090000E-06
		-3.61920000E-04	-3.73693000E-03	 1.57224000E-03
		-3.29051000E-04	-1.32314000E-03	 1.59948000E-03
		 0.00000000E+00	 0.00000000E+00	 0.00000000E+00
		 1.10746000E-03	-2.96751000E-03	-3.20731000E-03
		 0.00000000E+00	 0.00000000E+00	 0.00000000E+00
		 7.12988000E-04	-3.89051000E-03	-3.24810000E-03
		 0.00000000E+00	 0.00000000E+00	 0.00000000E+00
		 7.98676000E-04	-7.84309000E-04	-1.64660000E-03
		 5.54402000E-04	-2.80945000E-03	-1.64183000E-03
		 0.00000000E+00	 0.00000000E+00	 0.00000000E+00
		 9.06875000E-04	-3.49495000E-03	-3.15790000E-03
		 0.00000000E+00	 0.00000000E+00	 0.00000000E+00
		 3.31489000E-04	-1.31710000E-03	-1.60559000E-03
		 3.53019000E-04	-3.72651000E-03	-1.59193000E-03
		 0.00000000E+00	 0.00000000E+00	 0.00000000E+00
		 0.00000000E+00	 0.00000000E+00	 0.00000000E+00
		-3.71970000E-06	-4.22493000E-03	-1.53232000E-05
		-3.09380000E-04	-4.40808000E-03	 3.18666000E-03
		 0.00000000E+00	 0.00000000E+00	 0.00000000E+00
		 0.00000000E+00	 0.00000000E+00	 0.00000000E+00
		-3.84896000E-06	-4.03441000E-03	-1.17645000E-05
		-5.17170000E-04	-4.23023000E-03	 3.27970000E-03
		 0.00000000E+00	 0.00000000E+00	 0.00000000E+00
		 3.21871000E-08	-1.16262000E-03	-3.19793000E-06
		-1.56975000E-04	-4.24346000E-03	 1.47867000E-03
		 1.68634000E-04	-1.42006000E-03	 1.64028000E-03
		 0.00000000E+00	 0.00000000E+00	 0.00000000E+00
		 3.02801000E-04	-4.38647000E-03	-3.21889000E-03
		 0.00000000E+00	 0.00000000E+00	 0.00000000E+00
		 5.10246000E-04	-4.20750000E-03	-3.30571000E-03
		 0.00000000E+00	 0.00000000E+00	 0.00000000E+00
		-1.65897000E-04	-1.41625000E-03	-1.64871000E-03
		 1.50027000E-04	-4.23412000E-03	-1.50973000E-03
		-1.05097000E-05	-1.10302000E-02	-2.68270000E-05
		-2.10062000E-03	-1.12650000E-02	 5.84144000E-03
		-5.89631000E-06	-1.29186000E-02	-4.97628000E-05
		-1.69427000E-03	-1.31547000E-02	 5.81466000E-03
		-1.02238000E-05	-6.31074000E-03	-1.15875000E-05
		-1.05561000E-03	-1.11047000E-02	 2.99458000E-03
		-1.58119000E-03	-6.55507000E-03	 4.55440000E-03
		-7.83381000E-06	-1.20191000E-02	-3.81728000E-05
		-1.89750000E-03	-1.22548000E-02	 5.75052000E-03
		-7.66842000E-06	-7.69083000E-03	-2.46067000E-05
		-8.51035000E-04	-1.29940000E-02	 2.89310000E-03
		-1.18843000E-03	-7.92657000E-03	 4.54487000E-03
		 2.08372000E-03	-1.11760000E-02	-5.90059000E-03
		 1.68527000E-03	-1.30738000E-02	-5.91935000E-03
		 1.56291000E-03	-6.50151000E-03	-4.58094000E-03
		 1.03569000E-03	-1.10577000E-02	-3.04978000E-03
		 1.88613000E-03	-1.21719000E-02	-5.83178000E-03
		 1.17429000E-03	-7.87841000E-03	-4.59699000E-03
		 8.39972000E-04	-1.29534000E-02	-2.99389000E-03
		-4.55735000E-06	-1.44090000E-02	-6.69758000E-05
		-1.29891000E-03	-1.46458000E-02	 5.80069000E-03
		-4.84264000E-06	-1.37095000E-02	-5.98630000E-05
		-1.49651000E-03	-1.39447000E-02	 5.87790000E-03
		-7.57833000E-06	-8.67265000E-03	-3.50922000E-05
		-6.50113000E-04	-1.44835000E-02	 2.80407000E-03
		-7.96184000E-04	-8.91130000E-03	 4.53040000E-03
		 1.29121000E-03	-1.45684000E-02	-5.93959000E-03
		 1.48792000E-03	-1.38645000E-02	-6.00294000E-03
		 7.80542000E-04	-8.86339000E-03	-4.60314000E-03
		 6.41782000E-04	-1.44455000E-02	-2.93906000E-03
		-6.68238000E-06	-2.47032000E-02	-1.10477000E-04
		-2.91832000E-03	-2.49785000E-02	 8.51856000E-03
		 2.08020000E-06	-2.73934000E-02	-1.49781000E-04
		-2.48124000E-03	-2.76802000E-02	 8.48715000E-03
		-1.00538000E-05	-1.70684000E-02	-5.51918000E-05
		-1.45897000E-03	-2.47856000E-02	 4.22600000E-03
		-2.59152000E-03	-1.73227000E-02	 7.18111000E-03
		-2.48729000E-06	-2.61016000E-02	-1.30568000E-04
		-2.70064000E-03	-2.63864000E-02	 8.46916000E-03
		-3.29472000E-06	-1.94317000E-02	-8.92836000E-05
		-1.24100000E-03	-2.74803000E-02	 4.15702000E-03
		-2.15584000E-03	-1.96927000E-02	 7.14411000E-03
		 2.90898000E-03	-2.48083000E-02	-8.74611000E-03
		 2.48870000E-03	-2.75166000E-02	-8.79426000E-03
		 2.57524000E-03	-1.71982000E-02	-7.29933000E-03
		 1.44627000E-03	-2.46993000E-02	-4.44881000E-03
		 2.70029000E-03	-2.62217000E-02	-8.73700000E-03
		 2.15206000E-03	-1.95754000E-02	-7.33012000E-03
		 1.24617000E-03	-2.73992000E-02	-4.45857000E-03
		 9.91081000E-06	-2.96722000E-02	-1.81159000E-04
		-2.06486000E-03	-2.99620000E-02	 8.44753000E-03
		 6.41139000E-06	-2.85879000E-02	-1.66725000E-04
		-2.27276000E-03	-2.88761000E-02	 8.50643000E-03
		 1.36343000E-06	-2.13747000E-02	-1.15185000E-04
		-1.02830000E-03	-2.97611000E-02	 4.08172000E-03
		-1.73976000E-03	-2.16416000E-02	 7.12147000E-03
		 2.08665000E-03	-2.98010000E-02	-8.81790000E-03
		 2.28770000E-03	-2.87122000E-02	-8.84868000E-03
		 1.74378000E-03	-2.15269000E-02	-7.35888000E-03
		 1.04850000E-03	-2.96828000E-02	-4.44552000E-03
		 2.05493000E-05	-4.48798000E-02	-2.95110000E-04
		-2.84374000E-03	-4.51304000E-02	 1.06548000E-02
		 3.16932000E-05	-4.76095000E-02	-3.44292000E-04
		-2.57381000E-03	-4.78661000E-02	 1.06266000E-02
		 6.50884000E-06	-3.40579000E-02	-1.92242000E-04
		-1.41037000E-03	-4.49715000E-02	 5.10475000E-03
		-2.99067000E-03	-3.43227000E-02	 9.72249000E-03
		 2.69559000E-05	-4.62747000E-02	-3.21138000E-04
		-2.70795000E-03	-4.65317000E-02	 1.06701000E-02
		 1.55409000E-05	-3.68662000E-02	-2.35311000E-04
		-1.27273000E-03	-4.77055000E-02	 5.09432000E-03
		-2.61830000E-03	-3.71426000E-02	 9.69895000E-03
		 2.88724000E-03	-4.48642000E-02	-1.12522000E-02
		 2.64179000E-03	-4.76058000E-02	-1.13224000E-02
		 3.00890000E-03	-3.40983000E-02	-1.01127000E-02
		 1.45231000E-03	-4.48421000E-02	-5.69632000E-03
		 2.76449000E-03	-4.62665000E-02	-1.13205000E-02
		 2.65525000E-03	-3.69264000E-02	-1.01770000E-02
		 1.33742000E-03	-4.75771000E-02	-5.78468000E-03
		 3.94492000E-05	-5.00936000E-02	-3.84921000E-04
		-2.32495000E-03	-5.03523000E-02	 1.05642000E-02
		 3.57583000E-05	-4.88829000E-02	-3.65625000E-04
		-2.45021000E-03	-4.91383000E-02	 1.05902000E-02
		 2.28746000E-05	-3.93310000E-02	-2.70753000E-04
		-1.14197000E-03	-5.01909000E-02	 5.04951000E-03
		-2.27209000E-03	-3.96103000E-02	 9.64241000E-03
		 2.41080000E-03	-5.01036000E-02	-1.13411000E-02
		 2.52824000E-03	-4.88834000E-02	-1.13272000E-02
		 2.32520000E-03	-3.94044000E-02	-1.01924000E-02
		 1.22286000E-03	-5.00689000E-02	-5.82192000E-03
		 2.90749000E-05	-6.89905000E-02	-5.51914000E-04
		-2.23918000E-03	-6.91997000E-02	 1.14808000E-02
		 4.26182000E-05	-7.12153000E-02	-5.99937000E-04
		-2.12784000E-03	-7.14173000E-02	 1.14404000E-02
		 2.74752000E-05	-5.66779000E-02	-4.16613000E-04
		-1.10787000E-03	-6.90830000E-02	 5.39801000E-03
		-2.57021000E-03	-5.69058000E-02	 1.11911000E-02
		 3.46871000E-05	-7.01144000E-02	-5.76965000E-04
		-2.18392000E-03	-7.03192000E-02	 1.15094000E-02
		 4.13823000E-05	-5.91929000E-02	-4.68314000E-04
		-1.04324000E-03	-7.13050000E-02	 5.40276000E-03
		-2.39470000E-03	-5.94213000E-02	 1.11556000E-02
		 2.30816000E-03	-6.88872000E-02	-1.25858000E-02
		 2.21585000E-03	-7.11171000E-02	-1.26426000E-02
		 2.62731000E-03	-5.66172000E-02	-1.20299000E-02
		 1.16901000E-03	-6.89299000E-02	-6.50317000E-03
		 2.26227000E-03	-7.00123000E-02	-1.26633000E-02
		 2.47769000E-03	-5.91373000E-02	-1.20972000E-02
		 1.12929000E-03	-7.11578000E-02	-6.60331000E-03
		 5.42908000E-05	-7.33329000E-02	-6.48536000E-04
		-2.02520000E-03	-7.35448000E-02	 1.13846000E-02
		 4.99439000E-05	-7.22861000E-02	-6.23037000E-04
		-2.07603000E-03	-7.24884000E-02	 1.13711000E-02
		 5.22593000E-05	-6.15475000E-02	-5.14119000E-04
		-9.82123000E-04	-7.34292000E-02	 5.39373000E-03
		-2.23535000E-03	-6.17854000E-02	 1.10938000E-02
		 2.12728000E-03	-7.32407000E-02	-1.26856000E-02
		 2.17216000E-03	-7.21903000E-02	-1.26213000E-02
		 2.33625000E-03	-6.15013000E-02	-1.21267000E-02
		 1.08885000E-03	-7.32759000E-02	-6.69144000E-03
		 3.66753000E-05	-9.43833000E-02	-8.45333000E-04
		-1.56700000E-03	-9.46063000E-02	 1.17953000E-02
		 4.09469000E-05	-9.59484000E-02	-8.91023000E-04
		-1.46552000E-03	-9.61615000E-02	 1.17480000E-02
		 3.31858000E-05	-8.15718000E-02	-6.95407000E-04
		-7.66536000E-04	-9.44818000E-02	 5.43799000E-03
		-1.89550000E-03	-8.17898000E-02	 1.16432000E-02
		 3.90018000E-05	-9.51779000E-02	-8.67927000E-04
		-1.51505000E-03	-9.53959000E-02	 1.18163000E-02
		 4.08812000E-05	-8.34672000E-02	-7.39527000E-04
		-7.11779000E-04	-9.60417000E-02	 5.43701000E-03
		-1.80214000E-03	-8.36735000E-02	 1.16001000E-02
		 1.65356000E-03	-9.42664000E-02	-1.34912000E-02
		 1.55739000E-03	-9.58381000E-02	-1.35348000E-02
		 1.97951000E-03	-8.14578000E-02	-1.30356000E-02
		 8.42987000E-04	-9.43120000E-02	-7.12909000E-03
		 1.60628000E-03	-9.50642000E-02	-1.35585000E-02
		 1.89391000E-03	-8.33613000E-02	-1.30826000E-02
		 7.97185000E-04	-9.58806000E-02	-7.22032000E-03
		 4.54712000E-05	-9.74114000E-02	-9.30105000E-04
		-1.36043000E-03	-9.76195000E-02	 1.17130000E-02
		 4.29924000E-05	-9.66935000E-02	-9.12161000E-04
		-1.41342000E-03	-9.69027000E-02	 1.16780000E-02
		 4.79352000E-05	-8.52687000E-02	-7.85288000E-04
		-6.57519000E-04	-9.75032000E-02	 5.45026000E-03
		-1.70984000E-03	-8.54765000E-02	 1.15549000E-02
		 1.45596000E-03	-9.73035000E-02	-1.35772000E-02
		 1.50591000E-03	-9.65866000E-02	-1.35056000E-02
		 1.80784000E-03	-8.51688000E-02	-1.31310000E-02
		 7.50488000E-04	-9.73437000E-02	-7.31234000E-03
		 1.44649000E-05	-1.20918000E-01	-1.18760000E-03
		-1.09044000E-03	-1.21155000E-01	 1.22355000E-02
		 2.12530000E-05	-1.21973000E-01	-1.21449000E-03
		-9.70832000E-04	-1.22209000E-01	 1.22049000E-02
		 2.82278000E-05	-1.07461000E-01	-1.00496000E-03
		-5.35849000E-04	-1.21019000E-01	 5.48884000E-03
		-1.30171000E-03	-1.07691000E-01	 1.20154000E-02
		 1.55992000E-05	-1.21458000E-01	-1.20269000E-03
		-1.03351000E-03	-1.21696000E-01	 1.22502000E-02
		 3.58112000E-05	-1.08742000E-01	-1.05008000E-03
		-4.71657000E-04	-1.22076000E-01	 5.48688000E-03
		-1.18032000E-03	-1.08966000E-01	 1.19680000E-02
		 1.11330000E-03	-1.20801000E-01	-1.46044000E-02
		 1.01785000E-03	-1.21848000E-01	-1.46293000E-02
		 1.36149000E-03	-1.07347000E-01	-1.40310000E-02
		 5.63823000E-04	-1.20847000E-01	-7.85944000E-03
		 1.06181000E-03	-1.21335000E-01	-1.46506000E-02
		 1.25562000E-03	-1.08628000E-01	-1.40716000E-02
		 5.16620000E-04	-1.21896000E-01	-7.91345000E-03
		 3.15619000E-05	-1.22915000E-01	-1.25259000E-03
		-8.38632000E-04	-1.23139000E-01	 1.21510000E-02
		 2.79280000E-05	-1.22460000E-01	-1.23204000E-03
		-9.00399000E-04	-1.22693000E-01	 1.21524000E-02
		 4.47556000E-05	-1.09907000E-01	-1.08584000E-03
		-4.04771000E-04	-1.23012000E-01	 5.46494000E-03
		-1.04915000E-03	-1.10124000E-01	 1.19335000E-02
		 9.15031000E-04	-1.22789000E-01	-1.46540000E-02
		 9.68130000E-04	-1.22335000E-01	-1.46164000E-02
		 1.13991000E-03	-1.09787000E-01	-1.41060000E-02
		 4.72101000E-04	-1.22839000E-01	-7.96623000E-03
		 6.56373000E-05	-1.48688000E-01	-1.60058000E-03
		-7.69568000E-04	-1.48934000E-01	 1.22420000E-02
		 1.22437000E-05	-1.49490000E-01	-1.58754000E-03
		-7.85507000E-04	-1.49735000E-01	 1.22389000E-02
		 2.29104000E-05	-1.34764000E-01	-1.39709000E-03
		-3.49143000E-04	-1.48815000E-01	 5.29559000E-03
		-8.99642000E-04	-1.34985000E-01	 1.23265000E-02
		 4.51116000E-05	-1.49098000E-01	-1.58733000E-03
		-7.76698000E-04	-1.49348000E-01	 1.22610000E-02
		 1.13037000E-05	-1.35649000E-01	-1.39313000E-03
		-3.94713000E-04	-1.49618000E-01	 5.30701000E-03
		-8.27635000E-04	-1.35874000E-01	 1.23167000E-02
		 8.74019000E-04	-1.48499000E-01	-1.54032000E-02
		 8.36361000E-04	-1.49273000E-01	-1.53714000E-02
		 9.25829000E-04	-1.34607000E-01	-1.50876000E-02
		 4.76037000E-04	-1.48589000E-01	-8.48704000E-03
		 8.60505000E-04	-1.48887000E-01	-1.53934000E-02
		 8.67834000E-04	-1.35475000E-01	-1.50756000E-02
		 4.28934000E-04	-1.49377000E-01	-8.47083000E-03
		-3.33018000E-05	-1.50249000E-01	-1.63903000E-03
		-7.91025000E-04	-1.50440000E-01	 1.21377000E-02
		-1.92665000E-05	-1.49864000E-01	-1.60568000E-03
		-7.89393000E-04	-1.50094000E-01	 1.21947000E-02
		 5.88061000E-06	-1.36464000E-01	-1.43925000E-03
		-4.29002000E-04	-1.50342000E-01	 5.22855000E-03
		-7.51008000E-04	-1.36652000E-01	 1.22322000E-02
		 7.96497000E-04	-1.50064000E-01	-1.53752000E-02
		 8.09879000E-04	-1.49661000E-01	-1.53682000E-02
		 8.10981000E-04	-1.36306000E-01	-1.50904000E-02
		 3.80895000E-04	-1.50158000E-01	-8.49260000E-03
		 0.00000000E+00	 0.00000000E+00	 0.00000000E+00
		 0.00000000E+00	 0.00000000E+00	 0.00000000E+00
		 7.60815000E-05	-7.35241000E-03	-2.13091000E-05
		-2.06607000E-03	-7.95365000E-03	 8.30792000E-03
		 0.00000000E+00	 0.00000000E+00	 0.00000000E+00
		 0.00000000E+00	 0.00000000E+00	 0.00000000E+00
		 8.77514000E-05	-8.90342000E-03	 3.13834000E-05
		-8.99621000E-04	-9.55021000E-03	 8.44377000E-03
		 0.00000000E+00	 0.00000000E+00	 0.00000000E+00
		 1.97734000E-05	-1.18083000E-03	-4.49010000E-08
		-9.94926000E-04	-7.45663000E-03	 4.16057000E-03
		-1.72855000E-03	-1.93571000E-03	 4.13918000E-03
		 0.00000000E+00	 0.00000000E+00	 0.00000000E+00
		 0.00000000E+00	 0.00000000E+00	 0.00000000E+00
		 8.02085000E-05	-8.31805000E-03	 2.90962000E-06
		-1.47660000E-03	-8.94065000E-03	 8.28446000E-03
		 0.00000000E+00	 0.00000000E+00	 0.00000000E+00
		 2.35825000E-05	-2.24752000E-03	 2.49432000E-05
		-4.04951000E-04	-9.02139000E-03	 4.16156000E-03
		-4.77569000E-04	-2.99827000E-03	 4.04304000E-03
		 0.00000000E+00	 0.00000000E+00	 0.00000000E+00
		 2.20555000E-03	-7.77230000E-03	-8.37343000E-03
		 0.00000000E+00	 0.00000000E+00	 0.00000000E+00
		 1.07137000E-03	-9.35556000E-03	-8.40756000E-03
		 0.00000000E+00	 0.00000000E+00	 0.00000000E+00
		 1.75848000E-03	-1.86671000E-03	-4.14316000E-03
		 1.14360000E-03	-7.36231000E-03	-4.21178000E-03
		 0.00000000E+00	 0.00000000E+00	 0.00000000E+00
		 1.63173000E-03	-8.75298000E-03	-8.30261000E-03
		 0.00000000E+00	 0.00000000E+00	 0.00000000E+00
		 5.21367000E-04	-2.91844000E-03	-3.99113000E-03
		 5.79381000E-04	-8.92408000E-03	-4.10904000E-03
		 0.00000000E+00	 0.00000000E+00	 0.00000000E+00
		 0.00000000E+00	 0.00000000E+00	 0.00000000E+00
		 1.05754000E-04	-9.32762000E-03	 1.02744000E-04
		 2.76157000E-04	-9.93955000E-03	 8.43369000E-03
		 0.00000000E+00	 0.00000000E+00	 0.00000000E+00
		 0.00000000E+00	 0.00000000E+00	 0.00000000E+00
		 9.57792000E-05	-9.30615000E-03	 6.27958000E-05
		-3.20007000E-04	-9.93189000E-03	 8.51491000E-03
		 0.00000000E+00	 0.00000000E+00	 0.00000000E+00
		 3.95364000E-05	-2.18103000E-03	 6.71153000E-05
		 1.93266000E-04	-9.43418000E-03	 4.11593000E-03
		 8.18578000E-04	-2.91935000E-03	 4.21098000E-03
		 0.00000000E+00	 0.00000000E+00	 0.00000000E+00
		-6.68999000E-05	-9.73037000E-03	-8.25145000E-03
		 0.00000000E+00	 0.00000000E+00	 0.00000000E+00
		 5.05475000E-04	-9.73240000E-03	-8.41488000E-03
		 0.00000000E+00	 0.00000000E+00	 0.00000000E+00
		-7.41087000E-04	-2.81797000E-03	-4.07544000E-03
		 2.00222000E-05	-9.33236000E-03	-3.91866000E-03
		 3.07125000E-04	-3.18175000E-02	-2.58788000E-04
		-2.31557000E-03	-3.24966000E-02	 1.50675000E-02
		 3.27644000E-04	-3.40069000E-02	-1.89719000E-04
		-1.43874000E-03	-3.46897000E-02	 1.51778000E-02
		 1.78199000E-04	-1.77072000E-02	-1.02083000E-04
		-1.00342000E-03	-3.20593000E-02	 7.33337000E-03
		-2.29084000E-03	-1.83969000E-02	 1.20044000E-02
		 3.17236000E-04	-3.30083000E-02	-2.27714000E-04
		-1.87629000E-03	-3.36885000E-02	 1.51070000E-02
		 1.90158000E-04	-1.96418000E-02	-3.67656000E-05
		-5.49979000E-04	-3.42498000E-02	 7.40945000E-03
		-1.22189000E-03	-2.03435000E-02	 1.21106000E-02
		 2.92985000E-03	-3.19632000E-02	-1.56168000E-02
		 2.08777000E-03	-3.41631000E-02	-1.55894000E-02
		 2.63605000E-03	-1.80548000E-02	-1.22395000E-02
		 1.61663000E-03	-3.17956000E-02	-7.85893000E-03
		 2.51124000E-03	-3.31638000E-02	-1.55915000E-02
		 1.59673000E-03	-1.99960000E-02	-1.22166000E-02
		 1.20809000E-03	-3.39915000E-02	-7.79353000E-03
		 3.42725000E-04	-3.53519000E-02	-8.93951000E-05
		-5.40875000E-04	-3.60099000E-02	 1.52343000E-02
		 3.35160000E-04	-3.47731000E-02	-1.43909000E-04
		-9.89513000E-04	-3.54783000E-02	 1.52685000E-02
		 2.04795000E-04	-2.05339000E-02	 5.40260000E-05
		-1.06553000E-04	-3.55782000E-02	 7.42472000E-03
		-1.59807000E-04	-2.12391000E-02	 1.21600000E-02
		 1.24933000E-03	-3.54979000E-02	-1.54468000E-02
		 1.66720000E-03	-3.49278000E-02	-1.55929000E-02
		 5.78262000E-04	-2.08894000E-02	-1.20826000E-02
		 7.99236000E-04	-3.53293000E-02	-7.60683000E-03
		 6.38911000E-04	-6.78081000E-02	-7.94856000E-04
		-2.44826000E-03	-6.84214000E-02	 1.88547000E-02
		 6.71974000E-04	-7.06476000E-02	-7.21333000E-04
		-1.94689000E-03	-7.13557000E-02	 1.89593000E-02
		 4.64531000E-04	-4.88144000E-02	-4.91155000E-04
		-9.04595000E-04	-6.80559000E-02	 9.02119000E-03
		-2.31388000E-03	-4.94940000E-02	 1.73072000E-02
		 6.56274000E-04	-6.92906000E-02	-7.55416000E-04
		-2.19878000E-03	-6.99571000E-02	 1.88382000E-02
		 4.89602000E-04	-5.12744000E-02	-4.22083000E-04
		-6.60714000E-04	-7.09446000E-02	 9.02946000E-03
		-1.64645000E-03	-5.19539000E-02	 1.74251000E-02
		 3.69229000E-03	-6.76347000E-02	-2.04481000E-02
		 3.29086000E-03	-7.04787000E-02	-2.04411000E-02
		 3.23625000E-03	-4.88089000E-02	-1.83190000E-02
		 2.17065000E-03	-6.76662000E-02	-1.06063000E-02
		 3.48840000E-03	-6.91097000E-02	-2.03801000E-02
		 2.62733000E-03	-5.12542000E-02	-1.82992000E-02
		 1.98177000E-03	-7.05149000E-02	-1.04975000E-02
		 6.97487000E-04	-7.30416000E-02	-6.30433000E-04
		-1.53166000E-03	-7.38615000E-02	 1.90129000E-02
		 6.85982000E-04	-7.19146000E-02	-6.81792000E-04
		-1.74184000E-03	-7.25536000E-02	 1.90938000E-02
		 5.19804000E-04	-5.30920000E-02	-3.24139000E-04
		-3.85889000E-04	-7.33951000E-02	 8.98849000E-03
		-9.94145000E-04	-5.37916000E-02	 1.74762000E-02
		 2.88266000E-03	-7.28968000E-02	-2.03413000E-02
		 3.08794000E-03	-7.17361000E-02	-2.05012000E-02
		 1.99367000E-03	-5.30625000E-02	-1.81571000E-02
		 1.78143000E-03	-7.29315000E-02	-1.02972000E-02
		 1.07908000E-03	-1.08966000E-01	-1.50930000E-03
		-3.11629000E-03	-1.09470000E-01	 2.01432000E-02
		 1.11203000E-03	-1.13130000E-01	-1.45946000E-03
		-3.00792000E-03	-1.14079000E-01	 2.02083000E-02
		 8.17524000E-04	-8.80060000E-02	-1.13740000E-03
		-1.01983000E-03	-1.09198000E-01	 9.39200000E-03
		-2.73772000E-03	-8.86658000E-02	 1.96987000E-02
		 1.09804000E-03	-1.11037000E-01	-1.48385000E-03
		-3.05277000E-03	-1.11706000E-01	 2.00882000E-02
		 8.45140000E-04	-9.14712000E-02	-1.11314000E-03
		-8.24949000E-04	-1.13567000E-01	 9.35722000E-03
		-2.47278000E-03	-9.20607000E-02	 1.98277000E-02
		 5.11290000E-03	-1.08575000E-01	-2.31760000E-02
		 4.94458000E-03	-1.12585000E-01	-2.31339000E-02
		 4.35411000E-03	-8.77124000E-02	-2.19854000E-02
		 3.09496000E-03	-1.08751000E-01	-1.24118000E-02
		 5.03368000E-03	-1.10601000E-01	-2.30695000E-02
		 4.10062000E-03	-9.11309000E-02	-2.19632000E-02
		 3.01432000E-03	-1.12813000E-01	-1.22799000E-02
		 9.98893000E-04	-1.17117000E-01	-1.40526000E-03
		-2.76131000E-03	-1.18412000E-01	 2.02577000E-02
		 1.05804000E-03	-1.15109000E-01	-1.43545000E-03
		-2.88047000E-03	-1.16759000E-01	 2.03267000E-02
		 8.43710000E-04	-9.46363000E-02	-1.10525000E-03
		-1.00130000E-03	-1.17707000E-01	 9.30954000E-03
		-2.02898000E-03	-9.50986000E-02	 1.98749000E-02
		 4.77403000E-03	-1.16423000E-01	-2.30654000E-02