# vtk DataFile Version 3.0

ASCII
DATASET UNSTRUCTURED_GRID

POINTS 522 double
	 1.00000000E+00	 1.00000000E+00	-5.96046000E-08
	 1.00000000E+00	 5.00000000E-01	-5.96046000E-08
	 1.00000000E+00	 5.00000000E-01	 1.00000000E+00
	 1.00000000E+00	 1.00000000E+00	 1.00000000E+00
	 5.00000000E-01	 1.00000000E+00	-5.96046000E-08
	 5.00000000E-01	 5.00000000E-01	-5.96046000E-08
	 5.00000000E-01	 5.00000000E-01	 1.00000000E+00
	 5.00000000E-01	 1.00000000E+00	 1.00000000E+00
	 1.00000000E+00	 7.50000000E-01	-5.96046000E-08
	 1.00000000E+00	 5.00000000E-01	 5.00000000E-01
	 1.00000000E+00	 7.50000000E-01	 1.00000000E+00
	 1.00000000E+00	 1.00000000E+00	 5.00000000E-01
	 7.50000000E-01	 1.00000000E+00	-5.96046000E-08
	 7.50000000E-01	 5.00000000E-01	-5.96046000E-08
	 7.50000000E-01	 5.00000000E-01	 1.00000000E+00
	 7.50000000E-01	 1.00000000E+00	 1.00000000E+00
	 5.00000000E-01	 7.50000000E-01	-5.96046000E-08
	 5.00000000E-01	 5.00000000E-01	 5.00000000E-01
	 5.00000000E-01	 7.50000000E-01	 1.00000000E+00
	 5.00000000E-01	 1.00000000E+00	 5.00000000E-01
	 1.00000000E+00	-1.49012000E-08	-5.96046000E-08
	 1.00000000E+00	-1.49012000E-08	 1.00000000E+00
	 5.00000000E-01	-1.49012000E-08	-5.96046000E-08
	 5.00000000E-01	-1.49012000E-08	 1.00000000E+00
	 1.00000000E+00	 2.50000000E-01	-5.96046000E-08
	 1.00000000E+00	-1.49012000E-08	 5.00000000E-01
	 1.00000000E+00	 2.50000000E-01	 1.00000000E+00
	 7.50000000E-01	-1.49012000E-08	-5.96046000E-08
	 7.50000000E-01	-1.49012000E-08	 1.00000000E+00
	 5.00000000E-01	 2.50000000E-01	-5.96046000E-08
	 5.00000000E-01	-1.49012000E-08	 5.00000000E-01
	 5.00000000E-01	 2.50000000E-01	 1.00000000E+00
	-7.45058000E-09	 1.00000000E+00	-5.96046000E-08
	-7.45058000E-09	 5.00000000E-01	-5.96046000E-08
	-7.45058000E-09	 5.00000000E-01	 1.00000000E+00
	-7.45058000E-09	 1.00000000E+00	 1.00000000E+00
	 2.50000000E-01	 1.00000000E+00	-5.96046000E-08
	 2.50000000E-01	 5.00000000E-01	-5.96046000E-08
	 2.50000000E-01	 5.00000000E-01	 1.00000000E+00
	 2.50000000E-01	 1.00000000E+00	 1.00000000E+00
	-7.45058000E-09	 7.50000000E-01	-5.96046000E-08
	-7.45058000E-09	 5.00000000E-01	 5.00000000E-01
	-7.45058000E-09	 7.50000000E-01	 1.00000000E+00
	-7.45058000E-09	 1.00000000E+00	 5.00000000E-01
	-7.45058000E-09	-1.49012000E-08	-5.96046000E-08
	-7.45058000E-09	-1.49012000E-08	 1.00000000E+00
	 2.50000000E-01	-1.49012000E-08	-5.96046000E-08
	 2.50000000E-01	-1.49012000E-08	 1.00000000E+00
	-7.45058000E-09	 2.50000000E-01	-5.96046000E-08
	-7.45058000E-09	-1.49012000E-08	 5.00000000E-01
	-7.45058000E-09	 2.50000000E-01	 1.00000000E+00
	 1.00000000E+00	 5.00000000E-01	 2.00000000E+00
	 1.00000000E+00	 1.00000000E+00	 2.00000000E+00
	 5.00000000E-01	 5.00000000E-01	 2.00000000E+00
	 5.00000000E-01	 1.00000000E+00	 2.00000000E+00
	 1.00000000E+00	 5.00000000E-01	 1.50000000E+00
	 1.00000000E+00	 7.50000000E-01	 2.00000000E+00
	 1.00000000E+00	 1.00000000E+00	 1.50000000E+00
	 7.50000000E-01	 5.00000000E-01	 2.00000000E+00
	 7.50000000E-01	 1.00000000E+00	 2.00000000E+00
	 5.00000000E-01	 5.00000000E-01	 1.50000000E+00
	 5.00000000E-01	 7.50000000E-01	 2.00000000E+00
	 5.00000000E-01	 1.00000000E+00	 1.50000000E+00
	 1.00000000E+00	-1.49012000E-08	 2.00000000E+00
	 5.00000000E-01	-1.49012000E-08	 2.00000000E+00
	 1.00000000E+00	-1.49012000E-08	 1.50000000E+00
	 1.00000000E+00	 2.50000000E-01	 2.00000000E+00
	 7.50000000E-01	-1.49012000E-08	 2.00000000E+00
	 5.00000000E-01	-1.49012000E-08	 1.50000000E+00
	 5.00000000E-01	 2.50000000E-01	 2.00000000E+00
	-7.45058000E-09	 5.00000000E-01	 2.00000000E+00
	-7.45058000E-09	 1.00000000E+00	 2.00000000E+00
	 2.50000000E-01	 5.00000000E-01	 2.00000000E+00
	 2.50000000E-01	 1.00000000E+00	 2.00000000E+00
	-7.45058000E-09	 5.00000000E-01	 1.50000000E+00
	-7.45058000E-09	 7.50000000E-01	 2.00000000E+00
	-7.45058000E-09	 1.00000000E+00	 1.50000000E+00
	-7.45058000E-09	-1.49012000E-08	 2.00000000E+00
	 2.50000000E-01	-1.49012000E-08	 2.00000000E+00
	-7.45058000E-09	-1.49012000E-08	 1.50000000E+00
	-7.45058000E-09	 2.50000000E-01	 2.00000000E+00
	 1.00000000E+00	 5.00000000E-01	 3.00000000E+00
	 1.00000000E+00	 1.00000000E+00	 3.00000000E+00
	 5.00000000E-01	 5.00000000E-01	 3.00000000E+00
	 5.00000000E-01	 1.00000000E+00	 3.00000000E+00
	 1.00000000E+00	 5.00000000E-01	 2.50000000E+00
	 1.00000000E+00	 7.50000000E-01	 3.00000000E+00
	 1.00000000E+00	 1.00000000E+00	 2.50000000E+00
	 7.50000000E-01	 5.00000000E-01	 3.00000000E+00
	 7.50000000E-01	 1.00000000E+00	 3.00000000E+00
	 5.00000000E-01	 5.00000000E-01	 2.50000000E+00
	 5.00000000E-01	 7.50000000E-01	 3.00000000E+00
	 5.00000000E-01	 1.00000000E+00	 2.50000000E+00
	 1.00000000E+00	-1.49012000E-08	 3.00000000E+00
	 5.00000000E-01	-1.49012000E-08	 3.00000000E+00
	 1.00000000E+00	-1.49012000E-08	 2.50000000E+00
	 1.00000000E+00	 2.50000000E-01	 3.00000000E+00
	 7.50000000E-01	-1.49012000E-08	 3.00000000E+00
	 5.00000000E-01	-1.49012000E-08	 2.50000000E+00
	 5.00000000E-01	 2.50000000E-01	 3.00000000E+00
	-7.45058000E-09	 5.00000000E-01	 3.00000000E+00
	-7.45058000E-09	 1.00000000E+00	 3.00000000E+00
	 2.50000000E-01	 5.00000000E-01	 3.00000000E+00
	 2.50000000E-01	 1.00000000E+00	 3.00000000E+00
	-7.45058000E-09	 5.00000000E-01	 2.50000000E+00
	-7.45058000E-09	 7.50000000E-01	 3.00000000E+00
	-7.45058000E-09	 1.00000000E+00	 2.50000000E+00
	-7.45058000E-09	-1.49012000E-08	 3.00000000E+00
	 2.50000000E-01	-1.49012000E-08	 3.00000000E+00
	-7.45058000E-09	-1.49012000E-08	 2.50000000E+00
	-7.45058000E-09	 2.50000000E-01	 3.00000000E+00
	 1.00000000E+00	 5.00000000E-01	 4.00000000E+00
	 1.00000000E+00	 1.00000000E+00	 4.00000000E+00
	 5.00000000E-01	 5.00000000E-01	 4.00000000E+00
	 5.00000000E-01	 1.00000000E+00	 4.00000000E+00
	 1.00000000E+00	 5.00000000E-01	 3.50000000E+00
	 1.00000000E+00	 7.50000000E-01	 4.00000000E+00
	 1.00000000E+00	 1.00000000E+00	 3.50000000E+00
	 7.50000000E-01	 5.00000000E-01	 4.00000000E+00
	 7.50000000E-01	 1.00000000E+00	 4.00000000E+00
	 5.00000000E-01	 5.00000000E-01	 3.50000000E+00
	 5.00000000E-01	 7.50000000E-01	 4.00000000E+00
	 5.00000000E-01	 1.00000000E+00	 3.50000000E+00
	 1.00000000E+00	-1.49012000E-08	 4.00000000E+00
	 5.00000000E-01	-1.49012000E-08	 4.00000000E+00
	 1.00000000E+00	-1.49012000E-08	 3.50000000E+00
	 1.00000000E+00	 2.50000000E-01	 4.00000000E+00
	 7.50000000E-01	-1.49012000E-08	 4.00000000E+00
	 5.00000000E-01	-1.49012000E-08	 3.50000000E+00
	 5.00000000E-01	 2.50000000E-01	 4.00000000E+00
	-7.45058000E-09	 5.00000000E-01	 4.00000000E+00
	-7.45058000E-09	 1.00000000E+00	 4.00000000E+00
	 2.50000000E-01	 5.00000000E-01	 4.00000000E+00
	 2.50000000E-01	 1.00000000E+00	 4.00000000E+00
	-7.45058000E-09	 5.00000000E-01	 3.50000000E+00
	-7.45058000E-09	 7.50000000E-01	 4.00000000E+00
	-7.45058000E-09	 1.00000000E+00	 3.50000000E+00
	-7.45058000E-09	-1.49012000E-08	 4.00000000E+00
	 2.50000000E-01	-1.49012000E-08	 4.00000000E+00
	-7.45058000E-09	-1.49012000E-08	 3.50000000E+00
	-7.45058000E-09	 2.50000000E-01	 4.00000000E+00
	 1.00000000E+00	 5.00000000E-01	 5.00000000E+00
	 1.00000000E+00	 1.00000000E+00	 5.00000000E+00
	 5.00000000E-01	 5.00000000E-01	 5.00000000E+00
	 5.00000000E-01	 1.00000000E+00	 5.00000000E+00
	 1.00000000E+00	 5.00000000E-01	 4.50000000E+00
	 1.00000000E+00	 7.50000000E-01	 5.00000000E+00
	 1.00000000E+00	 1.00000000E+00	 4.50000000E+00
	 7.50000000E-01	 5.00000000E-01	 5.00000000E+00
	 7.50000000E-01	 1.00000000E+00	 5.00000000E+00
	 5.00000000E-01	 5.00000000E-01	 4.50000000E+00
	 5.00000000E-01	 7.50000000E-01	 5.00000000E+00
	 5.00000000E-01	 1.00000000E+00	 4.50000000E+00
	 1.00000000E+00	-1.49012000E-08	 5.00000000E+00
	 5.00000000E-01	-1.49012000E-08	 5.00000000E+00
	 1.00000000E+00	-1.49012000E-08	 4.50000000E+00
	 1.00000000E+00	 2.50000000E-01	 5.00000000E+00
	 7.50000000E-01	-1.49012000E-08	 5.00000000E+00
	 5.00000000E-01	-1.49012000E-08	 4.50000000E+00
	 5.00000000E-01	 2.50000000E-01	 5.00000000E+00
	-7.45058000E-09	 5.00000000E-01	 5.00000000E+00
	-7.45058000E-09	 1.00000000E+00	 5.00000000E+00
	 2.50000000E-01	 5.00000000E-01	 5.00000000E+00
	 2.50000000E-01	 1.00000000E+00	 5.00000000E+00
	-7.45058000E-09	 5.00000000E-01	 4.50000000E+00
	-7.45058000E-09	 7.50000000E-01	 5.00000000E+00
	-7.45058000E-09	 1.00000000E+00	 4.50000000E+00
	-7.45058000E-09	-1.49012000E-08	 5.00000000E+00
	 2.50000000E-01	-1.49012000E-08	 5.00000000E+00
	-7.45058000E-09	-1.49012000E-08	 4.50000000E+00
	-7.45058000E-09	 2.50000000E-01	 5.00000000E+00
	 1.00000000E+00	 5.00000000E-01	 6.00000000E+00
	 1.00000000E+00	 1.00000000E+00	 6.00000000E+00
	 5.00000000E-01	 5.00000000E-01	 6.00000000E+00
	 5.00000000E-01	 1.00000000E+00	 6.00000000E+00
	 1.00000000E+00	 5.00000000E-01	 5.50000000E+00
	 1.00000000E+00	 7.50000000E-01	 6.00000000E+00
	 1.00000000E+00	 1.00000000E+00	 5.50000000E+00
	 7.50000000E-01	 5.00000000E-01	 6.00000000E+00
	 7.50000000E-01	 1.00000000E+00	 6.00000000E+00
	 5.00000000E-01	 5.00000000E-01	 5.50000000E+00
	 5.00000000E-01	 7.50000000E-01	 6.00000000E+00
	 5.00000000E-01	 1.00000000E+00	 5.50000000E+00
	 1.00000000E+00	-1.49012000E-08	 6.00000000E+00
	 5.00000000E-01	-1.49012000E-08	 6.00000000E+00
	 1.00000000E+00	-1.49012000E-08	 5.50000000E+00
	 1.00000000E+00	 2.50000000E-01	 6.00000000E+00
	 7.50000000E-01	-1.49012000E-08	 6.00000000E+00
	 5.00000000E-01	-1.49012000E-08	 5.50000000E+00
	 5.00000000E-01	 2.50000000E-01	 6.00000000E+00
	-7.45058000E-09	 5.00000000E-01	 6.00000000E+00
	-7.45058000E-09	 1.00000000E+00	 6.00000000E+00
	 2.50000000E-01	 5.00000000E-01	 6.00000000E+00
	 2.50000000E-01	 1.00000000E+00	 6.00000000E+00
	-7.45058000E-09	 5.00000000E-01	 5.50000000E+00
	-7.45058000E-09	 7.50000000E-01	 6.00000000E+00
	-7.45058000E-09	 1.00000000E+00	 5.50000000E+00
	-7.45058000E-09	-1.49012000E-08	 6.00000000E+00
	 2.50000000E-01	-1.49012000E-08	 6.00000000E+00
	-7.45058000E-09	-1.49012000E-08	 5.50000000E+00
	-7.45058000E-09	 2.50000000E-01	 6.00000000E+00
	 1.00000000E+00	 5.00000000E-01	 7.00000000E+00
[...]
POINT_DATA 522
FIELD U 1
	U 3 522 double
		 0.00000000E+00	 0.00000000E+00	 0.00000000E+00
		 0.00000000E+00	 0.00000000E+00	 0.00000000E+00
		 2.34041000E-06	-2.51234000E-03	-7.22031000E-06
		-5.74915000E-04	-2.71919000E-03	 2.93518000E-03
		 0.00000000E+00	 0.00000000E+00	 0.00000000E+00
		 0.00000000E+00	 0.00000000E+00	 0.00000000E+00
		 2.45423000E-06	-2.86927000E-03	-1.48123000E-06
		-1.53093000E-04	-3.09108000E-03	 2.97028000E-03
		 0.00000000E+00	 0.00000000E+00	 0.00000000E+00
		-6.60627000E-07	-3.43505000E-04	-2.19631000E-06
		-2.86590000E-04	-2.54343000E-03	 1.45902000E-03
		-5.00773000E-04	-5.96831000E-04	 1.41347000E-03
		 0.00000000E+00	 0.00000000E+00	 0.00000000E+00
		 0.00000000E+00	 0.00000000E+00	 0.00000000E+00
		 2.38943000E-06	-2.75939000E-03	-4.91048000E-06
		-3.60452000E-04	-2.97316000E-03	 2.93375000E-03
		 0.00000000E+00	 0.00000000E+00	 0.00000000E+00
		-1.63520000E-06	-6.00912000E-04	-2.02280000E-07
		-7.43760000E-05	-2.90450000E-03	 1.45969000E-03
		-6.15472000E-05	-8.55809000E-04	 1.37000000E-03
		 0.00000000E+00	 0.00000000E+00	 0.00000000E+00
		 5.75959000E-04	-2.69703000E-03	-2.95111000E-03
		 0.00000000E+00	 0.00000000E+00	 0.00000000E+00
		 1.57025000E-04	-3.06529000E-03	-2.97604000E-03
		 0.00000000E+00	 0.00000000E+00	 0.00000000E+00
		 4.95407000E-04	-5.91612000E-04	-1.41735000E-03
		 2.90248000E-04	-2.53192000E-03	-1.47440000E-03
		 0.00000000E+00	 0.00000000E+00	 0.00000000E+00
		 3.63020000E-04	-2.94874000E-03	-2.94505000E-03
		 0.00000000E+00	 0.00000000E+00	 0.00000000E+00
		 5.63791000E-05	-8.46885000E-04	-1.36894000E-03
		 7.91394000E-05	-2.89085000E-03	-1.46367000E-03
		 0.00000000E+00	 0.00000000E+00	 0.00000000E+00
		 0.00000000E+00	 0.00000000E+00	 0.00000000E+00
		 3.40872000E-06	-2.82429000E-03	 6.80933000E-06
		 2.78677000E-04	-3.02444000E-03	 2.94818000E-03
		 0.00000000E+00	 0.00000000E+00	 0.00000000E+00
		 0.00000000E+00	 0.00000000E+00	 0.00000000E+00
		 2.71835000E-06	-2.91512000E-03	 2.42037000E-06
		 5.95763000E-05	-3.12796000E-03	 2.97454000E-03
		 0.00000000E+00	 0.00000000E+00	 0.00000000E+00
		-1.54351000E-06	-4.62080000E-04	 3.49189000E-06
		 1.40466000E-04	-2.85168000E-03	 1.43835000E-03
		 3.86320000E-04	-7.11560000E-04	 1.42035000E-03
		 0.00000000E+00	 0.00000000E+00	 0.00000000E+00
		-2.70459000E-04	-2.99789000E-03	-2.93797000E-03
		 0.00000000E+00	 0.00000000E+00	 0.00000000E+00
		-5.40092000E-05	-3.10105000E-03	-2.97347000E-03
		 0.00000000E+00	 0.00000000E+00	 0.00000000E+00
		-3.89299000E-04	-6.99819000E-04	-1.41177000E-03
		-1.33056000E-04	-2.83791000E-03	-1.42549000E-03
		 2.04556000E-05	-1.12503000E-02	-3.06418000E-05
		-7.83422000E-04	-1.14135000E-02	 5.31518000E-03
		 2.21180000E-05	-1.19357000E-02	-3.29144000E-05
		-5.34786000E-04	-1.20906000E-02	 5.33273000E-03
		 1.25197000E-05	-6.27643000E-03	-1.60776000E-05
		-3.82759000E-04	-1.13049000E-02	 2.62151000E-03
		-6.49513000E-04	-6.48071000E-03	 4.28220000E-03
		 2.14285000E-05	-1.16219000E-02	-3.20687000E-05
		-6.58860000E-04	-1.17790000E-02	 5.29557000E-03
		 1.32021000E-05	-6.76397000E-03	-1.12304000E-05
		-2.55906000E-04	-1.19857000E-02	 2.59809000E-03
		-2.96547000E-04	-6.96395000E-03	 4.30760000E-03
		 8.28993000E-04	-1.13430000E-02	-5.38125000E-03
		 5.84147000E-04	-1.20269000E-02	-5.40300000E-03
		 6.75638000E-04	-6.43322000E-03	-4.31781000E-03
		 4.24907000E-04	-1.12692000E-02	-2.68407000E-03
		 7.07094000E-04	-1.17128000E-02	-5.36408000E-03
		 3.25760000E-04	-6.91918000E-03	-4.33522000E-03
		 3.01861000E-04	-1.19551000E-02	-2.66491000E-03
		 2.33657000E-05	-1.23695000E-02	-3.09416000E-05
		-2.71588000E-04	-1.25106000E-02	 5.31294000E-03
		 2.25978000E-05	-1.21801000E-02	-3.26809000E-05
		-4.02369000E-04	-1.23317000E-02	 5.37944000E-03
		 1.35009000E-05	-6.90068000E-03	-3.36974000E-06
		-1.26645000E-04	-1.24105000E-02	 2.53386000E-03
		 6.74539000E-05	-7.08964000E-03	 4.29186000E-03
		 3.22968000E-04	-1.24537000E-02	-5.37874000E-03
		 4.52439000E-04	-1.22700000E-02	-5.44906000E-03
		-3.61606000E-05	-7.04975000E-03	-4.30515000E-03
		 1.74798000E-04	-1.23852000E-02	-2.59661000E-03
		 2.79415000E-05	-2.28431000E-02	-7.74768000E-05
		-1.52761000E-03	-2.29351000E-02	 6.26832000E-03
		 3.51605000E-05	-2.43768000E-02	-9.51214000E-05
		-1.45907000E-03	-2.44555000E-02	 6.26460000E-03
		 2.40547000E-05	-1.69100000E-02	-5.26350000E-05
		-7.53866000E-04	-2.28827000E-02	 3.15643000E-03
		-1.06406000E-03	-1.70449000E-02	 5.93491000E-03
		 3.13424000E-05	-2.36202000E-02	-8.61570000E-05
		-1.49349000E-03	-2.37000000E-02	 6.18178000E-03
		 2.76826000E-05	-1.79383000E-02	-6.25785000E-05
		-7.11604000E-04	-2.44086000E-02	 3.05948000E-03
		-9.19948000E-04	-1.80564000E-02	 5.94485000E-03
		 1.58756000E-03	-2.28411000E-02	-6.42574000E-03
		 1.53116000E-03	-2.43663000E-02	-6.45716000E-03
		 1.11632000E-03	-1.69620000E-02	-6.04479000E-03
		 8.10804000E-04	-2.28343000E-02	-3.31264000E-03
		 1.55959000E-03	-2.36113000E-02	-6.35617000E-03
		 9.78600000E-04	-1.79782000E-02	-6.07296000E-03
		 7.82554000E-04	-2.43650000E-02	-3.25060000E-03
		 4.14910000E-05	-2.58316000E-02	-1.09524000E-04
		-1.37829000E-03	-2.59068000E-02	 6.23431000E-03
		 3.88826000E-05	-2.51120000E-02	-1.03057000E-04
		-1.41732000E-03	-2.51912000E-02	 6.34685000E-03
		 3.11878000E-05	-1.88075000E-02	-6.76528000E-05
		-6.68510000E-04	-2.58596000E-02	 2.93979000E-03
		-7.54665000E-04	-1.89166000E-02	 5.91895000E-03
		 1.46093000E-03	-2.58186000E-02	-6.45591000E-03
		 1.49538000E-03	-2.51002000E-02	-6.55550000E-03
		 8.18769000E-04	-1.88413000E-02	-6.05586000E-03
		 7.51446000E-04	-2.58185000E-02	-3.15961000E-03
		 1.16191000E-05	-3.46766000E-02	-1.18445000E-04
		-2.86874000E-03	-3.47254000E-02	 6.40781000E-03
		 2.45325000E-05	-3.75529000E-02	-1.65355000E-04
		-2.85470000E-03	-3.76035000E-02	 6.36963000E-03
		 2.61248000E-05	-2.87689000E-02	-9.73445000E-05
		-1.42764000E-03	-3.47009000E-02	 3.23933000E-03
		-2.15669000E-03	-2.88417000E-02	 6.39473000E-03
		 1.76614000E-05	-3.61147000E-02	-1.43049000E-04
		-2.86182000E-03	-3.61649000E-02	 6.28290000E-03
		 3.62529000E-05	-3.09454000E-02	-1.28817000E-04
		-1.41620000E-03	-3.75761000E-02	 3.09184000E-03
		-2.12543000E-03	-3.10089000E-02	 6.37074000E-03
		 2.89812000E-03	-3.46172000E-02	-6.64607000E-03
		 2.90714000E-03	-3.75028000E-02	-6.70136000E-03
		 2.21492000E-03	-2.87387000E-02	-6.59127000E-03
		 1.45255000E-03	-3.46445000E-02	-3.47613000E-03
		 2.90251000E-03	-3.60639000E-02	-6.57045000E-03
		 2.20110000E-03	-3.09138000E-02	-6.63077000E-03
		 1.46635000E-03	-3.75271000E-02	-3.42262000E-03
		 3.71593000E-05	-4.04357000E-02	-2.13069000E-04
		-2.84807000E-03	-4.04862000E-02	 6.31332000E-03
		 3.13655000E-05	-3.89945000E-02	-1.87915000E-04
		-2.85159000E-03	-3.90460000E-02	 6.45273000E-03
		 4.53632000E-05	-3.30926000E-02	-1.59490000E-04
		-1.40576000E-03	-4.04579000E-02	 2.92943000E-03
		-2.08862000E-03	-3.31527000E-02	 6.33078000E-03
		 2.92225000E-03	-4.03868000E-02	-6.73992000E-03
		 2.91561000E-03	-3.89436000E-02	-6.82909000E-03
		 2.17984000E-03	-3.30605000E-02	-6.65284000E-03
		 1.48006000E-03	-4.04126000E-02	-3.35575000E-03
		-1.31739000E-05	-4.68014000E-02	-1.87266000E-04
		-3.93094000E-03	-4.67782000E-02	 5.97114000E-03
		 4.90492000E-06	-5.07856000E-02	-2.44471000E-04
		-4.05254000E-03	-5.07689000E-02	 5.93412000E-03
		-4.56731000E-06	-4.07003000E-02	-1.50325000E-04
		-1.97086000E-03	-4.68073000E-02	 2.89718000E-03
		-3.50269000E-03	-4.07079000E-02	 6.30351000E-03
		-4.85399000E-06	-4.87748000E-02	-2.14725000E-04
		-3.99240000E-03	-4.87561000E-02	 5.90699000E-03
		 1.14401000E-05	-4.42113000E-02	-2.04846000E-04
		-2.02447000E-03	-5.07939000E-02	 2.80021000E-03
		-3.52966000E-03	-4.42313000E-02	 6.26494000E-03
		 3.90708000E-03	-4.66692000E-02	-6.34088000E-03
		 4.06199000E-03	-5.06604000E-02	-6.41883000E-03
		 3.49705000E-03	-4.05985000E-02	-6.60273000E-03
		 1.94530000E-03	-4.67526000E-02	-3.27044000E-03
		 3.98474000E-03	-4.86494000E-02	-6.33197000E-03
		 3.55364000E-03	-4.41249000E-02	-6.67288000E-03
		 2.03450000E-03	-5.07416000E-02	-3.28811000E-03
		 2.51392000E-05	-5.49147000E-02	-3.05845000E-04
		-4.18604000E-03	-5.49077000E-02	 5.85140000E-03
		 1.50893000E-05	-5.28331000E-02	-2.75265000E-04
		-4.12001000E-03	-5.28193000E-02	 5.96686000E-03
		 2.81870000E-05	-4.77821000E-02	-2.61751000E-04
		-2.07818000E-03	-5.49279000E-02	 2.65692000E-03
		-3.57769000E-03	-4.78105000E-02	 6.19240000E-03
		 4.23246000E-03	-5.47937000E-02	-6.45937000E-03
		 4.14736000E-03	-5.27069000E-02	-6.51328000E-03
		 3.63168000E-03	-4.77011000E-02	-6.71350000E-03
		 2.12769000E-03	-5.48740000E-02	-3.26782000E-03
		-4.10777000E-05	-5.74378000E-02	-2.39375000E-04
		-4.49343000E-03	-5.73467000E-02	 4.34898000E-03
		-1.99170000E-05	-6.20392000E-02	-3.02587000E-04
		-4.75715000E-03	-6.19423000E-02	 4.28506000E-03
		-2.19797000E-05	-5.25676000E-02	-2.18130000E-04
		-2.27081000E-03	-5.74327000E-02	 2.09993000E-03
		-4.21404000E-03	-5.25106000E-02	 5.26405000E-03
		-3.13915000E-05	-5.97019000E-02	-2.71295000E-04
		-4.62572000E-03	-5.96041000E-02	 4.27393000E-03
		-3.23085000E-06	-5.68813000E-02	-2.78786000E-04
		-2.38876000E-03	-6.20312000E-02	 1.99402000E-03
		-4.43358000E-03	-5.68220000E-02	 5.21918000E-03
		 4.41489000E-03	-5.72575000E-02	-4.82791000E-03
		 4.71834000E-03	-6.18535000E-02	-4.89043000E-03
		 4.17390000E-03	-5.24078000E-02	-5.69584000E-03
		 2.18970000E-03	-5.73856000E-02	-2.57873000E-03
		 4.56651000E-03	-5.95174000E-02	-4.81672000E-03
		 4.42754000E-03	-5.67205000E-02	-5.77295000E-03
		 2.35004000E-03	-6.19868000E-02	-2.59941000E-03
		 6.71263000E-06	-6.69093000E-02	-3.65388000E-04
		-5.02131000E-03	-6.68265000E-02	 4.22350000E-03
		-7.12624000E-06	-6.44368000E-02	-3.33660000E-04
		-4.89010000E-03	-6.43446000E-02	 4.29591000E-03
		 1.95408000E-05	-6.14263000E-02	-3.42821000E-04
		-2.50388000E-03	-6.69067000E-02	 1.89074000E-03
		-4.65772000E-03	-6.13800000E-02	 5.13795000E-03
		 5.03222000E-03	-6.67305000E-02	-4.95477000E-03
		 4.87432000E-03	-6.42520000E-02	-4.96332000E-03
		 4.69331000E-03	-6.12719000E-02	-5.82075000E-03
		 2.51737000E-03	-6.68595000E-02	-2.62214000E-03
		-9.70074000E-05	-6.39079000E-02	-2.72601000E-04
		-5.27600000E-03	-6.38675000E-02	 2.78827000E-03
		-6.72928000E-05	-6.91479000E-02	-3.22594000E-04
		-5.37766000E-03	-6.91135000E-02	 2.72246000E-03
		-7.01954000E-05	-6.11170000E-02	-2.56026000E-04
		-2.68615000E-03	-6.39049000E-02	 1.34853000E-03
		-4.87384000E-03	-6.10499000E-02	 3.45622000E-03
		-8.37511000E-05	-6.65116000E-02	-2.96811000E-04
		-5.32919000E-03	-6.64745000E-02	 2.70473000E-03
		-4.36604000E-05	-6.60393000E-02	-3.15634000E-04
		-2.72394000E-03	-6.91473000E-02	 1.24378000E-03
		-5.07924000E-03	-6.59681000E-02	 3.38057000E-03
		 5.08245000E-03	-6.37990000E-02	-3.32709000E-03
		 5.24583000E-03	-6.90431000E-02	-3.36222000E-03
		 4.73649000E-03	-6.09764000E-02	-3.97018000E-03
		 2.49272000E-03	-6.38709000E-02	-1.89046000E-03
		 5.16333000E-03	-6.64058000E-02	-3.29303000E-03
		 4.99338000E-03	-6.58939000E-02	-4.01366000E-03
		 2.59102000E-03	-6.91132000E-02	-1.88669000E-03
		-3.25149000E-05	-7.45262000E-02	-3.79424000E-04
		-5.48479000E-03	-7.44963000E-02	 2.68888000E-03
		-4.97135000E-05	-7.18190000E-02	-3.51076000E-04
		-5.43075000E-03	-7.17869000E-02	 2.73073000E-03
		-1.14561000E-05	-7.11842000E-02	-3.74289000E-04
		-2.75911000E-03	-7.45270000E-02	 1.17260000E-03
		-5.28168000E-03	-7.11220000E-02	 3.34068000E-03
		 5.42267000E-03	-7.44251000E-02	-3.44315000E-03
		 5.33501000E-03	-7.17149000E-02	-3.42890000E-03
		 5.25703000E-03	-7.10409000E-02	-4.09105000E-03
		 2.69516000E-03	-7.44942000E-02	-1.92853000E-03
		-1.17302000E-04	-6.88615000E-02	-2.93517000E-04
		-5.69668000E-03	-6.88879000E-02	 2.42651000E-03
		-1.06993000E-04	-7.44265000E-02	-3.34253000E-04
		-5.66300000E-03	-7.44758000E-02	 2.38759000E-03
		-1.11707000E-04	-6.63305000E-02	-2.86219000E-04
		-2.90051000E-03	-6.88729000E-02	 1.07602000E-03
		-5.57452000E-03	-6.63257000E-02	 2.49700000E-03
		-1.09626000E-04	-7.16419000E-02	-3.10668000E-04
		-5.67754000E-03	-7.16865000E-02	 2.40249000E-03
		-8.65305000E-05	-7.18038000E-02	-3.27729000E-04
		-2.88344000E-03	-7.44498000E-02	 1.03169000E-03
		-5.58602000E-03	-7.18151000E-02	 2.44952000E-03
		 5.44808000E-03	-6.87853000E-02	-2.99171000E-03
		 5.45764000E-03	-7.43611000E-02	-3.03358000E-03
		 5.34315000E-03	-6.62491000E-02	-3.05030000E-03
		 2.66256000E-03	-6.88177000E-02	-1.65689000E-03
		 5.45327000E-03	-7.15733000E-02	-3.00207000E-03
		 5.41911000E-03	-7.17308000E-02	-3.08728000E-03
		 2.67253000E-03	-7.43872000E-02	-1.69407000E-03
		-9.37974000E-05	-8.00105000E-02	-3.98659000E-04
		-5.64233000E-03	-8.00500000E-02	 2.35332000E-03
		-1.03309000E-04	-7.72238000E-02	-3.64263000E-04
		-5.65569000E-03	-7.72692000E-02	 2.37186000E-03
		-5.83463000E-05	-7.73322000E-02	-3.88618000E-04
		-2.86934000E-03	-8.00277000E-02	 9.84726000E-04
		-5.60773000E-03	-7.73409000E-02	 2.41475000E-03
		 5.48404000E-03	-7.99660000E-02	-3.12746000E-03
		 5.47133000E-03	-7.71641000E-02	-3.07879000E-03
		 5.50885000E-03	-7.72737000E-02	-3.17562000E-03
		 2.68963000E-03	-7.99847000E-02	-1.77428000E-03
		 0.00000000E+00	 0.00000000E+00	 0.00000000E+00
		 0.00000000E+00	 0.00000000E+00	 0.00000000E+00
		 5.61496000E-06	-6.70608000E-03	-2.57368000E-04
		-2.16685000E-03	-6.97947000E-03	 5.98707000E-03
		 0.00000000E+00	 0.00000000E+00	 0.00000000E+00
		 0.00000000E+00	 0.00000000E+00	 0.00000000E+00
		-2.63088000E-05	-8.56362000E-03	-2.93885000E-04
		-1.56468000E-03	-8.85972000E-03	 6.05678000E-03
		 0.00000000E+00	 0.00000000E+00	 0.00000000E+00
		 2.94485000E-05	-1.55126000E-03	-1.12732000E-04
		-1.08316000E-03	-6.71671000E-03	 2.84062000E-03
		-1.65550000E-03	-2.07719000E-03	 3.31499000E-03
		 0.00000000E+00	 0.00000000E+00	 0.00000000E+00
		 0.00000000E+00	 0.00000000E+00	 0.00000000E+00
		-9.40149000E-06	-7.75681000E-03	-2.78324000E-04
		-1.85951000E-03	-8.03771000E-03	 5.89985000E-03
		 0.00000000E+00	 0.00000000E+00	 0.00000000E+00
		-9.52146000E-06	-2.72247000E-03	-1.25625000E-04
		-7.95623000E-04	-8.57908000E-03	 2.72803000E-03
		-7.70108000E-04	-3.22976000E-03	 3.23664000E-03
		 0.00000000E+00	 0.00000000E+00	 0.00000000E+00
		 2.16975000E-03	-6.95390000E-03	-6.50951000E-03
		 0.00000000E+00	 0.00000000E+00	 0.00000000E+00
		 1.51217000E-03	-8.83121000E-03	-6.65171000E-03
		 0.00000000E+00	 0.00000000E+00	 0.00000000E+00
		 1.71178000E-03	-2.11130000E-03	-3.56169000E-03
		 1.09104000E-03	-6.70443000E-03	-3.35643000E-03
		 0.00000000E+00	 0.00000000E+00	 0.00000000E+00
		 1.83703000E-03	-8.01067000E-03	-6.46309000E-03
		 0.00000000E+00	 0.00000000E+00	 0.00000000E+00
		 7.52649000E-04	-3.27032000E-03	-3.50610000E-03
		 7.41494000E-04	-8.56698000E-03	-3.31700000E-03
		 0.00000000E+00	 0.00000000E+00	 0.00000000E+00
		 0.00000000E+00	 0.00000000E+00	 0.00000000E+00
		-5.94843000E-05	-9.77989000E-03	-3.13947000E-04
		-9.52118000E-04	-1.00440000E-02	 5.93428000E-03
		 0.00000000E+00	 0.00000000E+00	 0.00000000E+00
		 0.00000000E+00	 0.00000000E+00	 0.00000000E+00
		-4.25372000E-05	-9.29086000E-03	-3.04420000E-04
		-1.26235000E-03	-9.57086000E-03	 6.15518000E-03
		 0.00000000E+00	 0.00000000E+00	 0.00000000E+00
		-5.23988000E-05	-3.07221000E-03	-1.42429000E-04
		-5.07326000E-04	-9.78215000E-03	 2.50491000E-03
		 1.68062000E-04	-3.53582000E-03	 3.28727000E-03
		 0.00000000E+00	 0.00000000E+00	 0.00000000E+00
		 8.37207000E-04	-1.00138000E-02	-6.56530000E-03
		 0.00000000E+00	 0.00000000E+00	 0.00000000E+00
		 1.17781000E-03	-9.54297000E-03	-6.77034000E-03
		 0.00000000E+00	 0.00000000E+00	 0.00000000E+00
		-2.70062000E-04	-3.57906000E-03	-3.58954000E-03
		 3.91059000E-04	-9.77328000E-03	-3.13169000E-03
		-1.12678000E-05	-2.26998000E-02	-5.99939000E-04
		-3.25884000E-03	-2.28974000E-02	 8.75769000E-03
		-2.89928000E-05	-2.57970000E-02	-6.43281000E-04
		-2.98806000E-03	-2.60021000E-02	 8.75272000E-03
		-8.94092000E-06	-1.39175000E-02	-4.20149000E-04
		-1.63571000E-03	-2.27760000E-02	 4.08279000E-03
		-2.77375000E-03	-1.42157000E-02	 7.69938000E-03
		-2.13263000E-05	-2.42722000E-02	-6.25065000E-04
		-3.12472000E-03	-2.44718000E-02	 8.68831000E-03
		-3.55451000E-05	-1.64484000E-02	-4.62436000E-04
		-1.50419000E-03	-2.58758000E-02	 3.99639000E-03
		-2.32947000E-03	-1.67486000E-02	 7.70359000E-03
		 3.23988000E-03	-2.27512000E-02	-9.96251000E-03
		 2.92624000E-03	-2.58626000E-02	-1.00428000E-02
		 2.75407000E-03	-1.41282000E-02	-8.54910000E-03
		 1.61384000E-03	-2.27010000E-02	-5.28466000E-03
		 3.08472000E-03	-2.43367000E-02	-9.94056000E-03
		 2.25887000E-03	-1.66612000E-02	-8.63809000E-03
		 1.45040000E-03	-2.58087000E-02	-5.28161000E-03
		-4.76641000E-05	-2.86140000E-02	-6.74978000E-04
		-2.71326000E-03	-2.88116000E-02	 8.68426000E-03
		-3.89805000E-05	-2.72290000E-02	-6.58413000E-04
		-2.85079000E-03	-2.74590000E-02	 8.81786000E-03
		-6.19518000E-05	-1.85060000E-02	-4.91380000E-04
		-1.38257000E-03	-2.86841000E-02	 3.84941000E-03
		-1.90000000E-03	-1.88159000E-02	 7.62950000E-03
		 2.64108000E-03	-2.86867000E-02	-1.00375000E-02
		 2.78329000E-03	-2.72953000E-02	-1.01403000E-02
		 1.78778000E-03	-1.87383000E-02	-8.62083000E-03
		 1.29386000E-03	-2.86281000E-02	-5.19686000E-03
		 7.29540000E-05	-4.28971000E-02	-1.00708000E-03
		-3.74457000E-03	-4.29176000E-02	 9.20764000E-03
		 6.78636000E-05	-4.66786000E-02	-9.94763000E-04
		-3.74786000E-03	-4.68278000E-02	 9.25228000E-03
		 1.22612000E-05	-3.24982000E-02	-7.96531000E-04
		-1.82700000E-03	-4.29047000E-02	 4.04649000E-03
		-3.60254000E-03	-3.26312000E-02	 9.23748000E-03
		 7.00181000E-05	-4.47883000E-02	-9.97580000E-04
		-3.75008000E-03	-4.48898000E-02	 9.20498000E-03
		 2.21988000E-07	-3.60282000E-02	-8.23862000E-04
		-1.86328000E-03	-4.67554000E-02	 4.03717000E-03
		-3.47133000E-03	-3.61874000E-02	 9.25068000E-03
		 3.84523000E-03	-4.27839000E-02	-1.12040000E-02
		 3.87137000E-03	-4.65821000E-02	-1.12584000E-02
		 3.61768000E-03	-3.24643000E-02	-1.08318000E-02
		 1.95842000E-03	-4.28427000E-02	-6.04845000E-03
		 3.85492000E-03	-4.46802000E-02	-1.12117000E-02
		 3.46919000E-03	-3.59958000E-02	-1.08987000E-02
		 1.97281000E-03	-4.66373000E-02	-6.04623000E-03
		 6.59690000E-05	-5.05048000E-02	-9.82278000E-04
		-3.85850000E-03	-5.07903000E-02	 9.23119000E-03
		 6.66973000E-05	-4.86046000E-02	-9.90920000E-04
		-3.80769000E-03	-4.86905000E-02	 9.31193000E-03
		 1.61304000E-06	-3.94343000E-02	-8.43174000E-04
		-1.86251000E-03	-5.06556000E-02	 3.96046000E-03
		-3.38464000E-03	-3.96374000E-02	 9.19795000E-03
		 3.93436000E-03	-5.04318000E-02	-1.12389000E-02
		 3.90315000E-03	-4.84984000E-02	-1.13108000E-02
		 3.34185000E-03	-3.94034000E-02	-1.08853000E-02
		 1.99273000E-03	-5.04846000E-02	-5.96928000E-03
		 3.68187000E-04	-6.31337000E-02	-1.41396000E-03
		-3.34329000E-03	-6.29144000E-02	 7.37697000E-03
		 3.58546000E-04	-6.70895000E-02	-1.29234000E-03
		-3.84344000E-03	-6.73301000E-02	 7.51284000E-03
		 1.61778000E-04	-5.33409000E-02	-1.21565000E-03
		-1.48926000E-03	-6.30729000E-02	 2.91583000E-03
		-3.65146000E-03	-5.33332000E-02	 8.52751000E-03
		 3.62379000E-04	-6.50286000E-02	-1.35206000E-03
		-3.58602000E-03	-6.49831000E-02	 7.48029000E-03
		 1.50879000E-04	-5.72951000E-02	-1.19621000E-03
		-1.61723000E-03	-6.72461000E-02	 3.07534000E-03
		-3.92294000E-03	-5.72474000E-02	 8.66012000E-03
		 3.90467000E-03	-6.29098000E-02	-1.01980000E-02
		 4.25464000E-03	-6.66951000E-02	-1.00879000E-02
		 3.94150000E-03	-5.31592000E-02	-1.09510000E-02
		 2.13917000E-03	-6.30795000E-02	-5.74136000E-03
		 4.08159000E-03	-6.47462000E-02	-1.01767000E-02
		 4.14666000E-03	-5.70685000E-02	-1.09432000E-02
		 2.29528000E-03	-6.69232000E-02	-5.65855000E-03
		 2.21576000E-04	-7.14251000E-02	-1.17860000E-03
		-4.19897000E-03	-7.20465000E-02	 7.61550000E-03
		 2.90880000E-04	-6.91715000E-02	-1.23493000E-03
		-4.02033000E-03	-7.01211000E-02	 7.54819000E-03
		 1.26007000E-04	-6.14688000E-02	-1.20677000E-03
		-2.10174000E-03	-7.17567000E-02	 3.20121000E-03
		-4.04021000E-03	-6.13269000E-02	 8.67305000E-03
		 4.63156000E-03	-7.08700000E-02	-9.96011000E-03