<?xml version="1.0"?>
<VTKFile type="UnstructuredGrid" version="0.1" byte_order="LittleEndian">
	<UnstructuredGrid>
		<Piece NumberOfPoints="522" NumberOfCells="64">
			<Points>
				<DataArray type="Float64" NumberOfComponents="3" format="ascii">
					 1.00000000E+00	 1.00000000E+00	-5.96046000E-08
					 1.00000000E+00	 5.00000000E-01	-5.96046000E-08
					 1.00000000E+00	 5.00000000E-01	 1.00000000E+00
					 1.00000000E+00	 1.00000000E+00	 1.00000000E+00
					 5.00000000E-01	 1.00000000E+00	-5.96046000E-08
					 5.00000000E-01	 5.00000000E-01	-5.96046000E-08
					 5.00000000E-01	 5.00000000E-01	 1.00000000E+00
					 5.00000000E-01	 1.00000000E+00	 1.00000000E+00
					 1.00000000E+00	 7.50000000E-01	-5.96046000E-08
					 1.00000000E+00	 5.00000000E-01	 5.00000000E-01
					 1.00000000E+00	 7.50000000E-01	 1.00000000E+00
					 1.00000000E+00	 1.00000000E+00	 5.00000000E-01
					 7.50000000E-01	 1.00000000E+00	-5.96046000E-08
					 7.50000000E-01	 5.00000000E-01	-5.96046000E-08
					 7.50000000E-01	 5.00000000E-01	 1.00000000E+00
					 7.50000000E-01	 1.00000000E+00	 1.00000000E+00
					 5.00000000E-01	 7.50000000E-01	-5.96046000E-08
					 5.00000000E-01	 5.00000000E-01	 5.00000000E-01
					 5.00000000E-01	 7.50000000E-01	 1.00000000E+00
					 5.00000000E-01	 1.00000000E+00	 5.00000000E-01
					 1.00000000E+00	-1.49012000E-08	-5.96046000E-08
					 1.00000000E+00	-1.49012000E-08	 1.00000000E+00
					 5.00000000E-01	-1.49012000E-08	-5.96046000E-08
					 5.00000000E-01	-1.49012000E-08	 1.00000000E+00
					 1.00000000E+00	 2.50000000E-01	-5.96046000E-08
					 1.00000000E+00	-1.49012000E-08	 5.00000000E-01
					 1.00000000E+00	 2.50000000E-01	 1.00000000E+00
					 7.50000000E-01	-1.49012000E-08	-5.96046000E-08
					 7.50000000E-01	-1.49012000E-08	 1.00000000E+00
					 5.00000000E-01	 2.50000000E-01	-5.96046000E-08
					 5.00000000E-01	-1.49012000E-08	 5.00000000E-01
					 5.00000000E-01	 2.50000000E-01	 1.00000000E+00
					-7.45058000E-09	 1.00000000E+00	-5.96046000E-08
					-7.45058000E-09	 5.00000000E-01	-5.96046000E-08
					-7.45058000E-09	 5.00000000E-01	 1.00000000E+00
					-7.45058000E-09	 1.00000000E+00	 1.00000000E+00
					 2.50000000E-01	 1.00000000E+00	-5.96046000E-08
					 2.50000000E-01	 5.00000000E-01	-5.96046000E-08
					 2.50000000E-01	 5.00000000E-01	 1.00000000E+00
					 2.50000000E-01	 1.00000000E+00	 1.00000000E+00
					-7.45058000E-09	 7.50000000E-01	-5.96046000E-08
					-7.45058000E-09	 5.00000000E-01	 5.00000000E-01
					-7.45058000E-09	 7.50000000E-01	 1.00000000E+00
					-7.45058000E-09	 1.00000000E+00	 5.00000000E-01
					-7.45058000E-09	-1.49012000E-08	-5.96046000E-08
					-7.45058000E-09	-1.49012000E-08	 1.00000000E+00
					 2.50000000E-01	-1.49012000E-08	-5.96046000E-08
					 2.50000000E-01	-1.49012000E-08	 1.00000000E+00
					-7.45058000E-09	 2.50000000E-01	-5.96046000E-08
					-7.45058000E-09	-1.49012000E-08	 5.00000000E-01
					-7.45058000E-09	 2.50000000E-01	 1.00000000E+00
					 1.00000000E+00	 5.00000000E-01	 2.00000000E+00
					 1.00000000E+00	 1.00000000E+00	 2.00000000E+00
					 5.00000000E-01	 5.00000000E-01	 2.00000000E+00
					 5.00000000E-01	 1.00000000E+00	 2.00000000E+00
					 1.00000000E+00	 5.00000000E-01	 1.50000000E+00
					 1.00000000E+00	 7.50000000E-01	 2.00000000E+00
					 1.00000000E+00	 1.00000000E+00	 1.50000000E+00
					 7.50000000E-01	 5.00000000E-01	 2.00000000E+00
					 7.50000000E-01	 1.00000000E+00	 2.00000000E+00
					 5.00000000E-01	 5.00000000E-01	 1.50000000E+00
					 5.00000000E-01	 7.50000000E-01	 2.00000000E+00
					 5.00000000E-01	 1.00000000E+00	 1.50000000E+00
					 1.00000000E+00	-1.49012000E-08	 2.00000000E+00
					 5.00000000E-01	-1.49012000E-08	 2.00000000E+00
					 1.00000000E+00	-1.49012000E-08	 1.50000000E+00
					 1.00000000E+00	 2.50000000E-01	 2.00000000E+00
					 7.50000000E-01	-1.49012000E-08	 2.00000000E+00
					 5.00000000E-01	-1.49012000E-08	 1.50000000E+00
					 5.00000000E-01	 2.50000000E-01	 2.00000000E+00
					-7.45058000E-09	 5.00000000E-01	 2.00000000E+00
					-7.45058000E-09	 1.00000000E+00	 2.00000000E+00
					 2.50000000E-01	 5.00000000E-01	 2.00000000E+00
					 2.50000000E-01	 1.00000000E+00	 2.00000000E+00
					-7.45058000E-09	 5.00000000E-01	 1.50000000E+00
					-7.45058000E-09	 7.50000000E-01	 2.00000000E+00
					-7.45058000E-09	 1.00000000E+00	 1.50000000E+00
					-7.45058000E-09	-1.49012000E-08	 2.00000000E+00
					 2.50000000E-01	-1.49012000E-08	 2.00000000E+00
					-7.45058000E-09	-1.49012000E-08	 1.50000000E+00
					-7.45058000E-09	 2.50000000E-01	 2.00000000E+00
					 1.00000000E+00	 5.00000000E-01	 3.00000000E+00
					 1.00000000E+00	 1.00000000E+00	 3.00000000E+00
					 5.00000000E-01	 5.00000000E-01	 3.00000000E+00
					 5.00000000E-01	 1.00000000E+00	 3.00000000E+00
					 1.00000000E+00	 5.00000000E-01	 2.50000000E+00
					 1.00000000E+00	 7.50000000E-01	 3.00000000E+00
					 1.00000000E+00	 1.00000000E+00	 2.50000000E+00
					 7.50000000E-01	 5.00000000E-01	 3.00000000E+00
					 7.50000000E-01	 1.00000000E+00	 3.00000000E+00
					 5.00000000E-01	 5.00000000E-01	 2.50000000E+00
					 5.00000000E-01	 7.50000000E-01	 3.00000000E+00
					 5.00000000E-01	 1.00000000E+00	 2.50000000E+00
					 1.00000000E+00	-1.49012000E-08	 3.00000000E+00
					 5.00000000E-01	-1.49012000E-08	 3.00000000E+00
					 1.00000000E+00	-1.49012000E-08	 2.50000000E+00
					 1.00000000E+00	 2.50000000E-01	 3.00000000E+00
					 7.50000000E-01	-1.49012000E-08	 3.00000000E+00
					 5.00000000E-01	-1.49012000E-08	 2.50000000E+00
					 5.00000000E-01	 2.50000000E-01	 3.00000000E+00
					-7.45058000E-09	 5.00000000E-01	 3.00000000E+00
					-7.45058000E-09	 1.00000000E+00	 3.00000000E+00
					 2.50000000E-01	 5.00000000E-01	 3.00000000E+00
					 2.50000000E-01	 1.00000000E+00	 3.00000000E+00
					-7.45058000E-09	 5.00000000E-01	 2.50000000E+00
					-7.45058000E-09	 7.50000000E-01	 3.00000000E+00
					-7.45058000E-09	 1.00000000E+00	 2.50000000E+00
					-7.45058000E-09	-1.49012000E-08	 3.00000000E+00
					 2.50000000E-01	-1.49012000E-08	 3.00000000E+00
					-7.45058000E-09	-1.49012000E-08	 2.50000000E+00
					-7.45058000E-09	 2.50000000E-01	 3.00000000E+00
					 1.00000000E+00	 5.00000000E-01	 4.00000000E+00
					 1.00000000E+00	 1.00000000E+00	 4.00000000E+00
					 5.00000000E-01	 5.00000000E-01	 4.00000000E+00
					 5.00000000E-01	 1.00000000E+00	 4.00000000E+00
					 1.00000000E+00	 5.00000000E-01	 3.50000000E+00
					 1.00000000E+00	 7.50000000E-01	 4.00000000E+00
					 1.00000000E+00	 1.00000000E+00	 3.50000000E+00
					 7.50000000E-01	 5.00000000E-01	 4.00000000E+00
					 7.50000000E-01	 1.00000000E+00	 4.00000000E+00
					 5.00000000E-01	 5.00000000E-01	 3.50000000E+00
					 5.00000000E-01	 7.50000000E-01	 4.00000000E+00
					 5.00000000E-01	 1.00000000E+00	 3.50000000E+00
					 1.00000000E+00	-1.49012000E-08	 4.00000000E+00
					 5.00000000E-01	-1.49012000E-08	 4.00000000E+00
					 1.00000000E+00	-1.49012000E-08	 3.50000000E+00
					 1.00000000E+00	 2.50000000E-01	 4.00000000E+00
					 7.50000000E-01	-1.49012000E-08	 4.00000000E+00
					 5.00000000E-01	-1.49012000E-08	 3.50000000E+00
					 5.00000000E-01	 2.50000000E-01	 4.00000000E+00
					-7.45058000E-09	 5.00000000E-01	 4.00000000E+00
					-7.45058000E-09	 1.00000000E+00	 4.00000000E+00
					 2.50000000E-01	 5.00000000E-01	 4.00000000E+00
					 2.50000000E-01	 1.00000000E+00	 4.00000000E+00
					-7.45058000E-09	 5.00000000E-01	 3.50000000E+00
					-7.45058000E-09	 7.50000000E-01	 4.00000000E+00
					-7.45058000E-09	 1.00000000E+00	 3.50000000E+00
					-7.45058000E-09	-1.49012000E-08	 4.00000000E+00
					 2.50000000E-01	-1.49012000E-08	 4.00000000E+00
					-7.45058000E-09	-1.49012000E-08	 3.50000000E+00
					-7.45058000E-09	 2.50000000E-01	 4.00000000E+00
					 1.00000000E+00	 5.00000000E-01	 5.00000000E+00
					 1.00000000E+00	 1.00000000E+00	 5.00000000E+00
					 5.00000000E-01	 5.00000000E-01	 5.00000000E+00
					 5.00000000E-01	 1.00000000E+00	 5.00000000E+00
					 1.00000000E+00	 5.00000000E-01	 4.50000000E+00
					 1.00000000E+00	 7.50000000E-01	 5.00000000E+00
					 1.00000000E+00	 1.00000000E+00	 4.50000000E+00
					 7.50000000E-01	 5.00000000E-01	 5.00000000E+00
					 7.50000000E-01	 1.00000000E+00	 5.00000000E+00
					 5.00000000E-01	 5.00000000E-01	 4.50000000E+00
					 5.00000000E-01	 7.50000000E-01	 5.00000000E+00
					 5.00000000E-01	 1.00000000E+00	 4.50000000E+00
					 1.00000000E+00	-1.49012000E-08	 5.00000000E+00
					 5.00000000E-01	-1.49012000E-08	 5.00000000E+00
					 1.00000000E+00	-1.49012000E-08	 4.50000000E+00
					 1.00000000E+00	 2.50000000E-01	 5.00000000E+00
					 7.50000000E-01	-1.49012000E-08	 5.00000000E+00
					 5.00000000E-01	-1.49012000E-08	 4.50000000E+00
					 5.00000000E-01	 2.50000000E-01	 5.00000000E+00
					-7.45058000E-09	 5.00000000E-01	 5.00000000E+00
					-7.45058000E-09	 1.00000000E+00	 5.00000000E+00
					 2.50000000E-01	 5.00000000E-01	 5.00000000E+00
					 2.50000000E-01	 1.00000000E+00	 5.00000000E+00
					-7.45058000E-09	 5.00000000E-01	 4.50000000E+00
					-7.45058000E-09	 7.50000000E-01	 5.00000000E+00
					-7.45058000E-09	 1.00000000E+00	 4.50000000E+00
					-7.45058000E-09	-1.49012000E-08	 5.00000000E+00
					 2.50000000E-01	-1.49012000E-08	 5.00000000E+00
					-7.45058000E-09	-1.49012000E-08	 4.50000000E+00
					-7.45058000E-09	 2.50000000E-01	 5.00000000E+00
					 1.00000000E+00	 5.00000000E-01	 6.00000000E+00
					 1.00000000E+00	 1.00000000E+00	 6.00000000E+00
					 5.00000000E-01	 5.00000000E-01	 6.00000000E+00
					 5.00000000E-01	 1.00000000E+00	 6.00000000E+00
					 1.00000000E+00	 5.00000000E-01	 5.50000000E+00
					 1.00000000E+00	 7.50000000E-01	 6.00000000E+00
					 1.00000000E+00	 1.00000000E+00	 5.50000000E+00
					 7.50000000E-01	 5.00000000E-01	 6.00000000E+00
					 7.50000000E-01	 1.00000000E+00	 6.00000000E+00
					 5.00000000E-01	 5.00000000E-01	 5.50000000E+00
					 5.00000000E-01	 7.50000000E-01	 6.00000000E+00
					 5.00000000E-01	 1.00000000E+00	 5.50000000E+00
					 1.00000000E+00	-1.49012000E-08	 6.00000000E+00
[...]
			<PointData>
				<DataArray type="Float32" Name="U" NumberOfComponents="3" ComponentName0="D1" ComponentName1="D2" ComponentName2="D3" format="ascii">
					 0.00000000E+00	 0.00000000E+00	 0.00000000E+00
					 0.00000000E+00	 0.00000000E+00	 0.00000000E+00
					-1.75522000E-07	-9.59005000E-07	 2.92622000E-07
					-5.04081000E-05	 7.14441000E-07	 1.11626000E-05
					 0.00000000E+00	 0.00000000E+00	 0.00000000E+00
					 0.00000000E+00	 0.00000000E+00	 0.00000000E+00
					-1.20890000E-07	-5.40812000E-05	 1.49194000E-07
					-5.56887000E-05	-5.16911000E-05	 1.30128000E-05
					 0.00000000E+00	 0.00000000E+00	 0.00000000E+00
					-3.96744000E-08	 2.92816000E-06	 8.50496000E-08
					-2.53661000E-05	-3.34767000E-07	 7.10061000E-06
					-2.48357000E-05	 1.50368000E-06	 1.29370000E-05
					 0.00000000E+00	 0.00000000E+00	 0.00000000E+00
					 0.00000000E+00	 0.00000000E+00	 0.00000000E+00
					-1.48956000E-07	-2.73874000E-05	 1.97853000E-07
					-5.29466000E-05	-2.51132000E-05	 7.28886000E-06
					 0.00000000E+00	 0.00000000E+00	 0.00000000E+00
					-2.11665000E-08	-2.14921000E-05	 1.23671000E-08
					-2.77787000E-05	-5.29271000E-05	 2.99130000E-06
					-2.40808000E-05	-2.21264000E-05	 1.33068000E-05
					 0.00000000E+00	 0.00000000E+00	 0.00000000E+00
					 5.00384000E-05	 8.75398000E-07	-1.05513000E-05
					 0.00000000E+00	 0.00000000E+00	 0.00000000E+00
					 5.54364000E-05	-5.15120000E-05	-1.26562000E-05
					 0.00000000E+00	 0.00000000E+00	 0.00000000E+00
					 2.47141000E-05	 1.53840000E-06	-1.27386000E-05
					 2.49735000E-05	-2.19922000E-07	-6.55893000E-06
					 0.00000000E+00	 0.00000000E+00	 0.00000000E+00
					 5.26531000E-05	-2.49834000E-05	-6.78830000E-06
					 0.00000000E+00	 0.00000000E+00	 0.00000000E+00
					 2.40369000E-05	-2.20765000E-05	-1.32530000E-05
					 2.75326000E-05	-5.28381000E-05	-2.67045000E-06
					 0.00000000E+00	 0.00000000E+00	 0.00000000E+00
					 0.00000000E+00	 0.00000000E+00	 0.00000000E+00
					-6.41518000E-08	-1.12089000E-04	 8.75452000E-08
					-5.83952000E-05	-1.07840000E-04	 1.09682000E-05
					 0.00000000E+00	 0.00000000E+00	 0.00000000E+00
					 0.00000000E+00	 0.00000000E+00	 0.00000000E+00
					-1.00551000E-07	-8.26918000E-05	 1.15205000E-07
					-5.70094000E-05	-7.98679000E-05	 1.85464000E-05
					 0.00000000E+00	 0.00000000E+00	 0.00000000E+00
					-1.55297000E-08	-4.51934000E-05	-2.96008000E-08
					-2.96336000E-05	-1.10031000E-04	-4.44826000E-06
					-2.09476000E-05	-4.41995000E-05	 1.28295000E-05
					 0.00000000E+00	 0.00000000E+00	 0.00000000E+00
					 5.82857000E-05	-1.07684000E-04	-1.07332000E-05
					 0.00000000E+00	 0.00000000E+00	 0.00000000E+00
					 5.68054000E-05	-7.97107000E-05	-1.82465000E-05
					 0.00000000E+00	 0.00000000E+00	 0.00000000E+00
					 2.09440000E-05	-4.41891000E-05	-1.28501000E-05
					 2.95155000E-05	-1.09942000E-04	 4.63809000E-06
					-8.08713000E-07	 8.25468000E-05	 1.46110000E-06
					-1.39975000E-04	 9.48656000E-05	-8.83753000E-05
					-4.27672000E-07	-7.41871000E-05	 1.46423000E-06
					-1.71965000E-04	-5.96472000E-05	-8.52736000E-05
					-5.15900000E-07	 1.02002000E-05	 7.06950000E-07
					-7.03869000E-05	 8.51966000E-05	-4.03906000E-05
					-8.61384000E-05	 1.72529000E-05	-1.88584000E-05
					-5.94465000E-07	 7.65129000E-06	 1.43316000E-06
					-1.55946000E-04	 2.12401000E-05	-9.65705000E-05
					-3.22264000E-07	-8.36946000E-05	 5.96328000E-07
					-8.60097000E-05	-7.04021000E-05	-4.88718000E-05
					-1.01815000E-04	-7.58107000E-05	-1.60860000E-05
					 1.38354000E-04	 9.54575000E-05	 9.16541000E-05
					 1.71048000E-04	-5.90111000E-05	 8.85020000E-05
					 8.52437000E-05	 1.76927000E-05	 2.03721000E-05
					 6.88847000E-05	 8.53261000E-05	 4.35846000E-05
					 1.54660000E-04	 2.19806000E-05	 9.95306000E-05
					 1.01163000E-04	-7.54370000E-05	 1.73879000E-05
					 8.51336000E-05	-7.01274000E-05	 5.18485000E-05
					 3.37803000E-12	-2.60436000E-04	 1.69461000E-06
					-1.99022000E-04	-2.43425000E-04	-8.81407000E-05
					-2.10517000E-07	-1.63507000E-04	 1.57357000E-06
					-1.85342000E-04	-1.48525000E-04	-7.31402000E-05
					-9.06559000E-08	-1.92761000E-04	 6.17084000E-07
					-1.00125000E-04	-2.55307000E-04	-6.33906000E-05
					-1.14844000E-04	-1.83179000E-04	-1.89719000E-05
					 1.98919000E-04	-2.42579000E-04	 9.18631000E-05
					 1.84862000E-04	-1.47748000E-04	 7.66075000E-05
					 1.14588000E-04	-1.82711000E-04	 2.02834000E-05
					 1.00073000E-04	-2.54959000E-04	 6.68381000E-05
					-3.15949000E-07	 7.59858000E-04	 4.74360000E-06
					-3.83092000E-04	 7.75679000E-04	-3.91612000E-04
					 6.44308000E-07	 3.38002000E-04	 5.50247000E-06
					-4.45537000E-04	 3.63089000E-04	-3.93698000E-04
					-7.20030000E-07	 2.95962000E-04	 2.67220000E-06
					-1.94568000E-04	 7.58343000E-04	-1.65660000E-04
					-2.31320000E-04	 3.12661000E-04	-2.21958000E-04
					 3.86361000E-08	 5.56107000E-04	 5.08958000E-06
					-4.14368000E-04	 5.79697000E-04	-4.19032000E-04
					-1.29813000E-07	 3.77763000E-05	 2.92970000E-06
					-2.21954000E-04	 3.41156000E-04	-1.93288000E-04
					-2.80236000E-04	 5.91900000E-05	-2.18791000E-04
					 3.82047000E-04	 7.78287000E-04	 4.01092000E-04
					 4.46659000E-04	 3.66246000E-04	 4.04670000E-04
					 2.29174000E-04	 3.13557000E-04	 2.27811000E-04
					 1.93506000E-04	 7.60131000E-04	 1.74638000E-04
					 4.14372000E-04	 5.82275000E-04	 4.29880000E-04
					 2.79812000E-04	 6.08121000E-05	 2.25138000E-04
					 2.23220000E-04	 3.42854000E-04	 2.04337000E-04
					 1.66749000E-06	-1.32510000E-04	 6.46002000E-06
					-4.98213000E-04	-1.07096000E-04	-3.90100000E-04
					 1.05646000E-06	 1.10926000E-04	 5.87920000E-06
					-4.71448000E-04	 1.36457000E-04	-3.63406000E-04
					 5.87080000E-07	-2.64168000E-04	 3.55055000E-06
					-2.47225000E-04	-1.28610000E-04	-2.19204000E-04
					-3.22224000E-04	-2.40796000E-04	-2.20987000E-04
					 5.01691000E-04	-1.03936000E-04	 4.02949000E-04
					 4.73473000E-04	 1.39456000E-04	 3.75084000E-04
					 3.23392000E-04	-2.39028000E-04	 2.28659000E-04
					 2.50755000E-04	-1.26805000E-04	 2.32164000E-04
					-1.08966000E-06	 2.82593000E-03	 1.22516000E-05
					-1.09100000E-03	 2.78021000E-03	-5.17482000E-04
					 2.82124000E-06	 1.75392000E-03	 1.23535000E-05
					-1.03223000E-03	 1.72066000E-03	-5.44856000E-04
					-3.65089000E-07	 1.61534000E-03	 7.79791000E-06
					-5.49249000E-04	 2.80875000E-03	-1.21916000E-04
					-6.58108000E-04	 1.59946000E-03	-5.49192000E-04
					 1.27605000E-06	 2.28281000E-03	 1.27169000E-05
					-1.06075000E-03	 2.24655000E-03	-6.07999000E-04
					 1.57024000E-06	 9.31203000E-04	 8.78754000E-06
					-5.14112000E-04	 1.74161000E-03	-2.08940000E-04
					-6.90283000E-04	 9.29822000E-04	-5.60441000E-04
					 1.09139000E-03	 2.78857000E-03	 5.45024000E-04
					 1.03958000E-03	 1.72562000E-03	 5.70096000E-04
					 6.59684000E-04	 1.60526000E-03	 5.64749000E-04
					 5.48799000E-04	 2.81100000E-03	 1.48832000E-04
					 1.06489000E-03	 2.25446000E-03	 6.33322000E-04
					 6.94244000E-04	 9.33483000E-04	 5.77992000E-04
					 5.20285000E-04	 1.74358000E-03	 2.33418000E-04
					 4.87346000E-06	 7.53512000E-04	 1.21664000E-05
					-9.65264000E-04	 7.21254000E-04	-5.19304000E-04
					 4.19860000E-06	 1.24800000E-03	 1.18273000E-05
					-9.98347000E-04	 1.21494000E-03	-4.90077000E-04
					 3.21245000E-06	 2.31218000E-04	 1.02160000E-05
					-4.79772000E-04	 7.43156000E-04	-2.41529000E-04
					-7.07979000E-04	 2.30528000E-04	-5.47241000E-04
					 9.75880000E-04	 7.23438000E-04	 5.43523000E-04
					 1.00826000E-03	 1.21871000E-03	 5.14023000E-04
					 7.14487000E-04	 2.33933000E-04	 5.66949000E-04
					 4.89468000E-04	 7.43725000E-04	 2.65448000E-04
					-1.69412000E-05	 4.70930000E-03	 2.02694000E-05
					-2.42035000E-03	 4.52407000E-03	 1.00837000E-03
					-1.43204000E-05	 2.52486000E-03	 1.53770000E-05
					-2.01114000E-03	 2.31972000E-03	 9.83484000E-04
					-3.98344000E-06	 4.12120000E-03	 2.00187000E-05
					-1.21517000E-03	 4.66787000E-03	 6.47010000E-04
					-1.71450000E-03	 4.00303000E-03	-4.36190000E-06
					-1.62260000E-05	 3.56680000E-03	 1.75543000E-05
					-2.21569000E-03	 3.36814000E-03	 9.08859000E-04
					-7.85581000E-07	 2.52392000E-03	 1.32282000E-05
					-1.01371000E-03	 2.47700000E-03	 5.46230000E-04
					-1.48528000E-03	 2.40825000E-03	-4.93802000E-05
					 2.38057000E-03	 4.53318000E-03	-9.70282000E-04
					 1.98301000E-03	 2.33842000E-03	-9.53737000E-04
					 1.70218000E-03	 4.01048000E-03	 4.61902000E-05
					 1.17522000E-03	 4.67811000E-03	-6.10556000E-04
					 2.18219000E-03	 3.37937000E-03	-8.69648000E-04
					 1.48532000E-03	 2.41528000E-03	 7.92006000E-05
					 9.84388000E-04	 2.48807000E-03	-5.14558000E-04
					-1.02460000E-05	 7.11822000E-04	 5.42274000E-06
					-1.61347000E-03	 5.16124000E-04	 9.94044000E-04
					-1.23162000E-05	 1.56693000E-03	 1.17013000E-05
					-1.81297000E-03	 1.36439000E-03	 1.05150000E-03
					 8.10777000E-07	 1.15055000E-03	 6.71775000E-06
					-8.15145000E-04	 6.66647000E-04	 4.80180000E-04
					-1.25129000E-03	 1.04360000E-03	-1.47170000E-05
					 1.59412000E-03	 5.33871000E-04	-9.84459000E-04
					 1.78825000E-03	 1.38256000E-03	-1.03085000E-03
					 1.25761000E-03	 1.04500000E-03	 3.33064000E-05
					 7.94738000E-04	 6.76853000E-04	-4.68181000E-04
					 5.65372000E-06	 3.17867000E-04	-9.19047000E-07
					-2.96007000E-03	 1.52673000E-04	 3.69489000E-03
					 1.30748000E-05	-2.46567000E-03	-2.02839000E-05
					-2.62866000E-03	-2.63813000E-03	 3.71217000E-03
					-1.59391000E-05	 3.51122000E-03	 1.20177000E-05
					-1.47016000E-03	 2.85622000E-04	 1.78853000E-03
					-2.85877000E-03	 3.33049000E-03	 2.41090000E-03
					 1.14565000E-05	-1.11539000E-03	-1.07344000E-05
					-2.79305000E-03	-1.29159000E-03	 3.69144000E-03
					-1.32750000E-05	 8.90516000E-04	 1.04619000E-05
					-1.30907000E-03	-2.50612000E-03	 1.77915000E-03
					-2.43777000E-03	 6.96093000E-04	 2.41707000E-03
					 2.98612000E-03	 1.89229000E-04	-3.70273000E-03
					 2.66652000E-03	-2.62181000E-03	-3.74966000E-03
					 2.84965000E-03	 3.37486000E-03	-2.40210000E-03
					 1.49538000E-03	 2.90920000E-04	-1.78575000E-03
					 2.82651000E-03	-1.26030000E-03	-3.72674000E-03
					 2.41657000E-03	 7.13998000E-04	-2.40859000E-03
					 1.34274000E-03	-2.50145000E-03	-1.81949000E-03
					 1.89390000E-05	-4.95294000E-03	-1.67013000E-05
					-2.31421000E-03	-5.12368000E-03	 3.69949000E-03
					 1.62227000E-05	-3.75061000E-03	-2.10341000E-05
					-2.47238000E-03	-3.92241000E-03	 3.74532000E-03
					-1.25821000E-05	-1.33721000E-03	 7.88362000E-06
					-1.14879000E-03	-4.99345000E-03	 1.74202000E-03
					-2.03457000E-03	-1.53185000E-03	 2.40102000E-03
					 2.35784000E-03	-5.11355000E-03	-3.72343000E-03
					 2.51510000E-03	-3.90700000E-03	-3.77666000E-03
					 2.01228000E-03	-1.51606000E-03	-2.39788000E-03
					 1.18926000E-03	-4.99155000E-03	-1.77373000E-03
					-6.76356000E-06	-9.16175000E-03	-1.16602000E-05
					-2.90728000E-03	-9.29912000E-03	 4.93802000E-03
					 9.81067000E-06	-1.20693000E-02	-4.07411000E-05
					-2.84357000E-03	-1.21483000E-02	 4.90767000E-03
					 1.45592000E-05	-4.11348000E-03	-2.70816000E-05
					-1.47109000E-03	-9.23736000E-03	 2.43414000E-03
					-2.98507000E-03	-4.23437000E-03	 4.51661000E-03
					-1.45346000E-06	-1.06257000E-02	-3.03888000E-05
					-2.87677000E-03	-1.07237000E-02	 4.94505000E-03
					 2.92596000E-05	-6.99991000E-03	-3.77209000E-05
					-1.41824000E-03	-1.21074000E-02	 2.40477000E-03
					-2.75002000E-03	-7.13751000E-03	 4.50852000E-03
					 3.00188000E-03	-9.11443000E-03	-5.05522000E-03
					 2.89595000E-03	-1.20732000E-02	-5.03425000E-03
					 2.95405000E-03	-4.21642000E-03	-4.53455000E-03
					 1.49576000E-03	-9.11521000E-03	-2.52287000E-03
					 2.94851000E-03	-1.06043000E-02	-5.04620000E-03
					 2.78431000E-03	-7.05733000E-03	-4.57791000E-03
					 1.44910000E-03	-1.20600000E-02	-2.50734000E-03
					 2.61460000E-05	-1.48945000E-02	-4.67623000E-05
					-2.77017000E-03	-1.49809000E-02	 4.84270000E-03
					 1.91049000E-05	-1.34902000E-02	-3.93172000E-05
					-2.80447000E-03	-1.35701000E-02	 4.88282000E-03
					 3.76071000E-05	-9.67724000E-03	-4.37899000E-05
					-1.36983000E-03	-1.49367000E-02	 2.35150000E-03
					-2.55393000E-03	-9.82143000E-03	 4.47131000E-03
					 2.82234000E-03	-1.48906000E-02	-4.99597000E-03
					 2.85470000E-03	-1.34926000E-02	-5.02462000E-03
					 2.61619000E-03	-9.73083000E-03	-4.56136000E-03
					 1.42410000E-03	-1.48828000E-02	-2.47033000E-03
					-8.36471000E-05	-1.95376000E-02	 2.60344000E-05
					-2.88854000E-03	-1.94561000E-02	 5.01670000E-03
					 3.99968000E-05	-2.24003000E-02	-1.16644000E-04
					-2.82792000E-03	-2.22693000E-02	 4.91084000E-03
					-1.44953000E-05	-1.43639000E-02	 3.62948000E-05
					-1.51041000E-03	-1.94834000E-02	 2.55580000E-03
					-2.80548000E-03	-1.44851000E-02	 5.03584000E-03
					-3.65783000E-05	-2.09740000E-02	-4.98539000E-05
					-2.85928000E-03	-2.08415000E-02	 4.95271000E-03
					 2.59372000E-05	-1.72361000E-02	-6.01402000E-05
					-1.41739000E-03	-2.23147000E-02	 2.43520000E-03
					-2.81364000E-03	-1.72487000E-02	 4.97133000E-03
					 2.92820000E-03	-1.96100000E-02	-5.37724000E-03
					 2.95011000E-03	-2.25330000E-02	-5.33409000E-03
					 2.99165000E-03	-1.42892000E-02	-5.28645000E-03
					 1.37484000E-03	-1.95874000E-02	-2.63989000E-03
					 2.93916000E-03	-2.11464000E-02	-5.41235000E-03
					 2.90751000E-03	-1.72671000E-02	-5.25557000E-03
					 1.53475000E-03	-2.24970000E-02	-2.71710000E-03
					 1.50538000E-04	-2.51932000E-02	-9.88918000E-05
					-2.76156000E-03	-2.51339000E-02	 4.91528000E-03
					 1.11294000E-04	-2.37868000E-02	-1.29125000E-04
					-2.80179000E-03	-2.36883000E-02	 4.89338000E-03
					 6.11465000E-05	-2.00674000E-02	-5.69621000E-05
					-1.30357000E-03	-2.51569000E-02	 2.42370000E-03
					-2.79742000E-03	-2.00883000E-02	 4.93301000E-03
					 2.97270000E-03	-2.51769000E-02	-5.17076000E-03
					 2.96372000E-03	-2.38327000E-02	-5.22444000E-03
					 2.90333000E-03	-2.00644000E-02	-5.14348000E-03
					 1.58581000E-03	-2.51985000E-02	-2.63744000E-03
					 0.00000000E+00	 0.00000000E+00	 0.00000000E+00
					 0.00000000E+00	 0.00000000E+00	 0.00000000E+00
					 7.33625000E-05	-1.13309000E-02	-1.99120000E-04
					-3.52392000E-03	-1.23322000E-02	 1.28223000E-02
					 0.00000000E+00	 0.00000000E+00	 0.00000000E+00
					 0.00000000E+00	 0.00000000E+00	 0.00000000E+00
					 5.98182000E-05	-1.40113000E-02	-2.40012000E-04
					-1.73826000E-03	-1.50605000E-02	 1.29039000E-02
					 0.00000000E+00	 0.00000000E+00	 0.00000000E+00
					 5.03807000E-05	-1.83813000E-03	-6.80969000E-05
					-1.73083000E-03	-1.15290000E-02	 6.38312000E-03
					-2.77835000E-03	-3.03607000E-03	 6.42024000E-03
					 0.00000000E+00	 0.00000000E+00	 0.00000000E+00
					 0.00000000E+00	 0.00000000E+00	 0.00000000E+00
					 6.85044000E-05	-1.29686000E-02	-2.23072000E-04
					-2.61580000E-03	-1.39873000E-02	 1.26890000E-02
					 0.00000000E+00	 0.00000000E+00	 0.00000000E+00
					 2.19013000E-05	-3.60497000E-03	-7.70737000E-05
					-8.39652000E-04	-1.42190000E-02	 6.22530000E-03
					-8.61049000E-04	-4.77421000E-03	 6.22267000E-03
					 0.00000000E+00	 0.00000000E+00	 0.00000000E+00
					 3.64495000E-03	-1.19435000E-02	-1.32780000E-02
					 0.00000000E+00	 0.00000000E+00	 0.00000000E+00
					 1.86846000E-03	-1.46739000E-02	-1.34463000E-02
					 0.00000000E+00	 0.00000000E+00	 0.00000000E+00
					 2.86150000E-03	-2.92003000E-03	-6.57883000E-03
					 1.86856000E-03	-1.13258000E-02	-6.80219000E-03
					 0.00000000E+00	 0.00000000E+00	 0.00000000E+00
					 2.74919000E-03	-1.35984000E-02	-1.31911000E-02
					 0.00000000E+00	 0.00000000E+00	 0.00000000E+00
					 9.09721000E-04	-4.66666000E-03	-6.38855000E-03
					 9.61825000E-04	-1.40223000E-02	-6.72655000E-03
					 0.00000000E+00	 0.00000000E+00	 0.00000000E+00
					 0.00000000E+00	 0.00000000E+00	 0.00000000E+00
					 3.85621000E-05	-1.49344000E-02	-2.29504000E-04
					 5.53426000E-05	-1.59044000E-02	 1.27958000E-02
					 0.00000000E+00	 0.00000000E+00	 0.00000000E+00
					 0.00000000E+00	 0.00000000E+00	 0.00000000E+00
					 4.93655000E-05	-1.47665000E-02	-2.44998000E-04
					-8.53150000E-04	-1.57791000E-02	 1.29932000E-02
					 0.00000000E+00	 0.00000000E+00	 0.00000000E+00
					-8.98467000E-06	-3.60926000E-03	-6.22828000E-05
					 4.61876000E-05	-1.51078000E-02	 6.02851000E-03
					 1.11935000E-03	-4.73496000E-03	 6.42849000E-03
					 0.00000000E+00	 0.00000000E+00	 0.00000000E+00
					 6.19828000E-05	-1.55434000E-02	-1.33063000E-02
					 0.00000000E+00	 0.00000000E+00	 0.00000000E+00
					 9.72531000E-04	-1.53978000E-02	-1.35446000E-02
					 0.00000000E+00	 0.00000000E+00	 0.00000000E+00
					-1.11552000E-03	-4.62788000E-03	-6.56912000E-03
					 4.68664000E-05	-1.49342000E-02	-6.50089000E-03
					 1.81521000E-04	-4.86335000E-02	-9.70584000E-04
					-4.89210000E-03	-5.00064000E-02	 2.34306000E-02
					 1.85113000E-04	-5.29224000E-02	-1.11503000E-03
					-3.33811000E-03	-5.42951000E-02	 2.33184000E-02
					 1.27973000E-04	-2.70542000E-02	-4.80806000E-04
					-2.35434000E-03	-4.91492000E-02	 1.12556000E-02
					-4.28896000E-03	-2.83074000E-02	 1.85133000E-02
					 1.85565000E-04	-5.09510000E-02	-1.05281000E-03
					-4.11322000E-03	-5.23227000E-02	 2.32823000E-02
					 1.15352000E-04	-3.06047000E-02	-5.68065000E-04
					-1.57398000E-03	-5.34366000E-02	 1.10440000E-02
					-2.58086000E-03	-3.18573000E-02	 1.84681000E-02
					 5.25631000E-03	-4.87292000E-02	-2.54576000E-02
					 3.71963000E-03	-5.30528000E-02	-2.56352000E-02
					 4.52306000E-03	-2.75318000E-02	-1.95550000E-02
					 2.71439000E-03	-4.85063000E-02	-1.32188000E-02
					 4.49408000E-03	-5.10744000E-02	-2.54689000E-02
					 2.81950000E-03	-3.10938000E-02	-1.96843000E-02
					 1.95144000E-03	-5.28190000E-02	-1.32919000E-02
					 1.68259000E-04	-5.56918000E-02	-1.18085000E-03
					-1.79434000E-03	-5.70251000E-02	 2.32179000E-02
					 1.78066000E-04	-5.44800000E-02	-1.15782000E-03
					-2.56386000E-03	-5.58706000E-02	 2.33845000E-02
					 9.03661000E-05	-3.24564000E-02	-5.89519000E-04
					-8.21282000E-04	-5.61755000E-02	 1.08345000E-02
					-8.99248000E-04	-3.36990000E-02	 1.84064000E-02
					 2.18714000E-03	-5.58372000E-02	-2.56668000E-02
					 2.95325000E-03	-5.46120000E-02	-2.57924000E-02
					 1.12718000E-03	-3.29745000E-02	-1.96619000E-02
					 1.17491000E-03	-5.55985000E-02	-1.32111000E-02
					 3.65729000E-04	-1.06870000E-01	-2.71140000E-03
					-5.77931000E-03	-1.08572000E-01	 3.07714000E-02
					 3.87830000E-04	-1.12364000E-01	-2.96399000E-03
					-4.52565000E-03	-1.14172000E-01	 3.05569000E-02
					 2.64720000E-04	-7.53915000E-02	-1.70359000E-03
					-2.70108000E-03	-1.07564000E-01	 1.40228000E-02
					-5.38747000E-03	-7.69556000E-02	 2.75080000E-02
					 3.80588000E-04	-1.09774000E-01	-2.84426000E-03
					-5.15143000E-03	-1.11541000E-01	 3.05802000E-02
					 2.73852000E-04	-8.03436000E-02	-1.90621000E-03
					-2.09602000E-03	-1.13110000E-01	 1.37042000E-02
					-3.98989000E-03	-8.19086000E-02	 2.73447000E-02
					 6.47933000E-03	-1.06280000E-01	-3.62623000E-02
					 5.31853000E-03	-1.11816000E-01	-3.65934000E-02
					 5.91523000E-03	-7.51705000E-02	-3.10049000E-02
					 3.41948000E-03	-1.06421000E-01	-1.94560000E-02
					 5.90022000E-03	-1.09203000E-01	-3.63668000E-02
					 4.56140000E-03	-8.01396000E-02	-3.12486000E-02
					 2.85293000E-03	-1.11944000E-01	-1.96737000E-02
					 3.85894000E-04	-1.16693000E-01	-3.13905000E-03
					-3.40646000E-03	-1.18594000E-01	 3.03319000E-02
					 3.89216000E-04	-1.14695000E-01	-3.06476000E-03
					-3.96841000E-03	-1.16429000E-01	 3.05555000E-02
					 2.72486000E-04	-8.39330000E-02	-2.02649000E-03
					-1.48482000E-03	-1.17483000E-01	 1.33810000E-02
					-2.65040000E-03	-8.55050000E-02	 2.71840000E-02
					 4.16204000E-03	-1.16193000E-01	-3.67486000E-02
					 4.74297000E-03	-1.14144000E-01	-3.67992000E-02
					 3.19282000E-03	-8.37535000E-02	-3.13332000E-02
					 2.26439000E-03	-1.16315000E-01	-1.97241000E-02
					 6.84101000E-04	-1.81727000E-01	-5.54068000E-03
					-5.78683000E-03	-1.83536000E-01	 3.40930000E-02