# vtk DataFile Version 3.0

ASCII
DATASET UNSTRUCTURED_GRID

POINTS 522 double
	 1.00000000E+00	 1.00000000E+00	-5.96046000E-08
	 1.00000000E+00	 5.00000000E-01	-5.96046000E-08
	 1.00000000E+00	 5.00000000E-01	 1.00000000E+00
	 1.00000000E+00	 1.00000000E+00	 1.00000000E+00
	 5.00000000E-01	 1.00000000E+00	-5.96046000E-08
	 5.00000000E-01	 5.00000000E-01	-5.96046000E-08
	 5.00000000E-01	 5.00000000E-01	 1.00000000E+00
	 5.00000000E-01	 1.00000000E+00	 1.00000000E+00
	 1.00000000E+00	 7.50000000E-01	-5.96046000E-08
	 1.00000000E+00	 5.00000000E-01	 5.00000000E-01
	 1.00000000E+00	 7.50000000E-01	 1.00000000E+00
	 1.00000000E+00	 1.00000000E+00	 5.00000000E-01
	 7.50000000E-01	 1.00000000E+00	-5.96046000E-08
	 7.50000000E-01	 5.00000000E-01	-5.96046000E-08
	 7.50000000E-01	 5.00000000E-01	 1.00000000E+00
	 7.50000000E-01	 1.00000000E+00	 1.00000000E+00
	 5.00000000E-01	 7.50000000E-01	-5.96046000E-08
	 5.00000000E-01	 5.00000000E-01	 5.00000000E-01
	 5.00000000E-01	 7.50000000E-01	 1.00000000E+00
	 5.00000000E-01	 1.00000000E+00	 5.00000000E-01
	 1.00000000E+00	-1.49012000E-08	-5.96046000E-08
	 1.00000000E+00	-1.49012000E-08	 1.00000000E+00
	 5.00000000E-01	-1.49012000E-08	-5.96046000E-08
	 5.00000000E-01	-1.49012000E-08	 1.00000000E+00
	 1.00000000E+00	 2.50000000E-01	-5.96046000E-08
	 1.00000000E+00	-1.49012000E-08	 5.00000000E-01
	 1.00000000E+00	 2.50000000E-01	 1.00000000E+00
	 7.50000000E-01	-1.49012000E-08	-5.96046000E-08
	 7.50000000E-01	-1.49012000E-08	 1.00000000E+00
	 5.00000000E-01	 2.50000000E-01	-5.96046000E-08
	 5.00000000E-01	-1.49012000E-08	 5.00000000E-01
	 5.00000000E-01	 2.50000000E-01	 1.00000000E+00
	-7.45058000E-09	 1.00000000E+00	-5.96046000E-08
	-7.45058000E-09	 5.00000000E-01	-5.96046000E-08
	-7.45058000E-09	 5.00000000E-01	 1.00000000E+00
	-7.45058000E-09	 1.00000000E+00	 1.00000000E+00
	 2.50000000E-01	 1.00000000E+00	-5.96046000E-08
	 2.50000000E-01	 5.00000000E-01	-5.96046000E-08
	 2.50000000E-01	 5.00000000E-01	 1.00000000E+00
	 2.50000000E-01	 1.00000000E+00	 1.00000000E+00
	-7.45058000E-09	 7.50000000E-01	-5.96046000E-08
	-7.45058000E-09	 5.00000000E-01	 5.00000000E-01
	-7.45058000E-09	 7.50000000E-01	 1.00000000E+00
	-7.45058000E-09	 1.00000000E+00	 5.00000000E-01
	-7.45058000E-09	-1.49012000E-08	-5.96046000E-08
	-7.45058000E-09	-1.49012000E-08	 1.00000000E+00
	 2.50000000E-01	-1.49012000E-08	-5.96046000E-08
	 2.50000000E-01	-1.49012000E-08	 1.00000000E+00
	-7.45058000E-09	 2.50000000E-01	-5.96046000E-08
	-7.45058000E-09	-1.49012000E-08	 5.00000000E-01
	-7.45058000E-09	 2.50000000E-01	 1.00000000E+00
	 1.00000000E+00	 5.00000000E-01	 2.00000000E+00
	 1.00000000E+00	 1.00000000E+00	 2.00000000E+00
	 5.00000000E-01	 5.00000000E-01	 2.00000000E+00
	 5.00000000E-01	 1.00000000E+00	 2.00000000E+00
	 1.00000000E+00	 5.00000000E-01	 1.50000000E+00
	 1.00000000E+00	 7.50000000E-01	 2.00000000E+00
	 1.00000000E+00	 1.00000000E+00	 1.50000000E+00
	 7.50000000E-01	 5.00000000E-01	 2.00000000E+00
	 7.50000000E-01	 1.00000000E+00	 2.00000000E+00
	 5.00000000E-01	 5.00000000E-01	 1.50000000E+00
	 5.00000000E-01	 7.50000000E-01	 2.00000000E+00
	 5.00000000E-01	 1.00000000E+00	 1.50000000E+00
	 1.00000000E+00	-1.49012000E-08	 2.00000000E+00
	 5.00000000E-01	-1.49012000E-08	 2.00000000E+00
	 1.00000000E+00	-1.49012000E-08	 1.50000000E+00
	 1.00000000E+00	 2.50000000E-01	 2.00000000E+00
	 7.50000000E-01	-1.49012000E-08	 2.00000000E+00
	 5.00000000E-01	-1.49012000E-08	 1.50000000E+00
	 5.00000000E-01	 2.50000000E-01	 2.00000000E+00
	-7.45058000E-09	 5.00000000E-01	 2.00000000E+00
	-7.45058000E-09	 1.00000000E+00	 2.00000000E+00
	 2.50000000E-01	 5.00000000E-01	 2.00000000E+00
	 2.50000000E-01	 1.00000000E+00	 2.00000000E+00
	-7.45058000E-09	 5.00000000E-01	 1.50000000E+00
	-7.45058000E-09	 7.50000000E-01	 2.00000000E+00
	-7.45058000E-09	 1.00000000E+00	 1.50000000E+00
	-7.45058000E-09	-1.49012000E-08	 2.00000000E+00
	 2.50000000E-01	-1.49012000E-08	 2.00000000E+00
	-7.45058000E-09	-1.49012000E-08	 1.50000000E+00
	-7.45058000E-09	 2.50000000E-01	 2.00000000E+00
	 1.00000000E+00	 5.00000000E-01	 3.00000000E+00
	 1.00000000E+00	 1.00000000E+00	 3.00000000E+00
	 5.00000000E-01	 5.00000000E-01	 3.00000000E+00
	 5.00000000E-01	 1.00000000E+00	 3.00000000E+00
	 1.00000000E+00	 5.00000000E-01	 2.50000000E+00
	 1.00000000E+00	 7.50000000E-01	 3.00000000E+00
	 1.00000000E+00	 1.00000000E+00	 2.50000000E+00
	 7.50000000E-01	 5.00000000E-01	 3.00000000E+00
	 7.50000000E-01	 1.00000000E+00	 3.00000000E+00
	 5.00000000E-01	 5.00000000E-01	 2.50000000E+00
	 5.00000000E-01	 7.50000000E-01	 3.00000000E+00
	 5.00000000E-01	 1.00000000E+00	 2.50000000E+00
	 1.00000000E+00	-1.49012000E-08	 3.00000000E+00
	 5.00000000E-01	-1.49012000E-08	 3.00000000E+00
	 1.00000000E+00	-1.49012000E-08	 2.50000000E+00
	 1.00000000E+00	 2.50000000E-01	 3.00000000E+00
	 7.50000000E-01	-1.49012000E-08	 3.00000000E+00
	 5.00000000E-01	-1.49012000E-08	 2.50000000E+00
	 5.00000000E-01	 2.50000000E-01	 3.00000000E+00
	-7.45058000E-09	 5.00000000E-01	 3.00000000E+00
	-7.45058000E-09	 1.00000000E+00	 3.00000000E+00
	 2.50000000E-01	 5.00000000E-01	 3.00000000E+00
	 2.50000000E-01	 1.00000000E+00	 3.00000000E+00
	-7.45058000E-09	 5.00000000E-01	 2.50000000E+00
	-7.45058000E-09	 7.50000000E-01	 3.00000000E+00
	-7.45058000E-09	 1.00000000E+00	 2.50000000E+00
	-7.45058000E-09	-1.49012000E-08	 3.00000000E+00
	 2.50000000E-01	-1.49012000E-08	 3.00000000E+00
	-7.45058000E-09	-1.49012000E-08	 2.50000000E+00
	-7.45058000E-09	 2.50000000E-01	 3.00000000E+00
	 1.00000000E+00	 5.00000000E-01	 4.00000000E+00
	 1.00000000E+00	 1.00000000E+00	 4.00000000E+00
	 5.00000000E-01	 5.00000000E-01	 4.00000000E+00
	 5.00000000E-01	 1.00000000E+00	 4.00000000E+00
	 1.00000000E+00	 5.00000000E-01	 3.50000000E+00
	 1.00000000E+00	 7.50000000E-01	 4.00000000E+00
	 1.00000000E+00	 1.00000000E+00	 3.50000000E+00
	 7.50000000E-01	 5.00000000E-01	 4.00000000E+00
	 7.50000000E-01	 1.00000000E+00	 4.00000000E+00
	 5.00000000E-01	 5.00000000E-01	 3.50000000E+00
	 5.00000000E-01	 7.50000000E-01	 4.00000000E+00
	 5.00000000E-01	 1.00000000E+00	 3.50000000E+00
	 1.00000000E+00	-1.49012000E-08	 4.00000000E+00
	 5.00000000E-01	-1.49012000E-08	 4.00000000E+00
	 1.00000000E+00	-1.49012000E-08	 3.50000000E+00
	 1.00000000E+00	 2.50000000E-01	 4.00000000E+00
	 7.50000000E-01	-1.49012000E-08	 4.00000000E+00
	 5.00000000E-01	-1.49012000E-08	 3.50000000E+00
	 5.00000000E-01	 2.50000000E-01	 4.00000000E+00
	-7.45058000E-09	 5.00000000E-01	 4.00000000E+00
	-7.45058000E-09	 1.00000000E+00	 4.00000000E+00
	 2.50000000E-01	 5.00000000E-01	 4.00000000E+00
	 2.50000000E-01	 1.00000000E+00	 4.00000000E+00
	-7.45058000E-09	 5.00000000E-01	 3.50000000E+00
	-7.45058000E-09	 7.50000000E-01	 4.00000000E+00
	-7.45058000E-09	 1.00000000E+00	 3.50000000E+00
	-7.45058000E-09	-1.49012000E-08	 4.00000000E+00
	 2.50000000E-01	-1.49012000E-08	 4.00000000E+00
	-7.45058000E-09	-1.49012000E-08	 3.50000000E+00
	-7.45058000E-09	 2.50000000E-01	 4.00000000E+00
	 1.00000000E+00	 5.00000000E-01	 5.00000000E+00
	 1.00000000E+00	 1.00000000E+00	 5.00000000E+00
	 5.00000000E-01	 5.00000000E-01	 5.00000000E+00
	 5.00000000E-01	 1.00000000E+00	 5.00000000E+00
	 1.00000000E+00	 5.00000000E-01	 4.50000000E+00
	 1.00000000E+00	 7.50000000E-01	 5.00000000E+00
	 1.00000000E+00	 1.00000000E+00	 4.50000000E+00
	 7.50000000E-01	 5.00000000E-01	 5.00000000E+00
	 7.50000000E-01	 1.00000000E+00	 5.00000000E+00
	 5.00000000E-01	 5.00000000E-01	 4.50000000E+00
	 5.00000000E-01	 7.50000000E-01	 5.00000000E+00
	 5.00000000E-01	 1.00000000E+00	 4.50000000E+00
	 1.00000000E+00	-1.49012000E-08	 5.00000000E+00
	 5.00000000E-01	-1.49012000E-08	 5.00000000E+00
	 1.00000000E+00	-1.49012000E-08	 4.50000000E+00
	 1.00000000E+00	 2.50000000E-01	 5.00000000E+00
	 7.50000000E-01	-1.49012000E-08	 5.00000000E+00
	 5.00000000E-01	-1.49012000E-08	 4.50000000E+00
	 5.00000000E-01	 2.50000000E-01	 5.00000000E+00
	-7.45058000E-09	 5.00000000E-01	 5.00000000E+00
	-7.45058000E-09	 1.00000000E+00	 5.00000000E+00
	 2.50000000E-01	 5.00000000E-01	 5.00000000E+00
	 2.50000000E-01	 1.00000000E+00	 5.00000000E+00
	-7.45058000E-09	 5.00000000E-01	 4.50000000E+00
	-7.45058000E-09	 7.50000000E-01	 5.00000000E+00
	-7.45058000E-09	 1.00000000E+00	 4.50000000E+00
	-7.45058000E-09	-1.49012000E-08	 5.00000000E+00
	 2.50000000E-01	-1.49012000E-08	 5.00000000E+00
	-7.45058000E-09	-1.49012000E-08	 4.50000000E+00
	-7.45058000E-09	 2.50000000E-01	 5.00000000E+00
	 1.00000000E+00	 5.00000000E-01	 6.00000000E+00
	 1.00000000E+00	 1.00000000E+00	 6.00000000E+00
	 5.00000000E-01	 5.00000000E-01	 6.00000000E+00
	 5.00000000E-01	 1.00000000E+00	 6.00000000E+00
	 1.00000000E+00	 5.00000000E-01	 5.50000000E+00
	 1.00000000E+00	 7.50000000E-01	 6.00000000E+00
	 1.00000000E+00	 1.00000000E+00	 5.50000000E+00
	 7.50000000E-01	 5.00000000E-01	 6.00000000E+00
	 7.50000000E-01	 1.00000000E+00	 6.00000000E+00
	 5.00000000E-01	 5.00000000E-01	 5.50000000E+00
	 5.00000000E-01	 7.50000000E-01	 6.00000000E+00
	 5.00000000E-01	 1.00000000E+00	 5.50000000E+00
	 1.00000000E+00	-1.49012000E-08	 6.00000000E+00
	 5.00000000E-01	-1.49012000E-08	 6.00000000E+00
	 1.00000000E+00	-1.49012000E-08	 5.50000000E+00
	 1.00000000E+00	 2.50000000E-01	 6.00000000E+00
	 7.50000000E-01	-1.49012000E-08	 6.00000000E+00
	 5.00000000E-01	-1.49012000E-08	 5.50000000E+00
	 5.00000000E-01	 2.50000000E-01	 6.00000000E+00
	-7.45058000E-09	 5.00000000E-01	 6.00000000E+00
	-7.45058000E-09	 1.00000000E+00	 6.00000000E+00
	 2.50000000E-01	 5.00000000E-01	 6.00000000E+00
	 2.50000000E-01	 1.00000000E+00	 6.00000000E+00
	-7.45058000E-09	 5.00000000E-01	 5.50000000E+00
	-7.45058000E-09	 7.50000000E-01	 6.00000000E+00
	-7.45058000E-09	 1.00000000E+00	 5.50000000E+00
	-7.45058000E-09	-1.49012000E-08	 6.00000000E+00
	 2.50000000E-01	-1.49012000E-08	 6.00000000E+00
	-7.45058000E-09	-1.49012000E-08	 5.50000000E+00
	-7.45058000E-09	 2.50000000E-01	 6.00000000E+00
	 1.00000000E+00	 5.00000000E-01	 7.00000000E+00
[...]
POINT_DATA 522
FIELD U 1
	U 3 522 double
		 0.00000000E+00	 0.00000000E+00	 0.00000000E+00
		 0.00000000E+00	 0.00000000E+00	 0.00000000E+00
		 8.15132000E-06	-1.88263000E-03	-2.38831000E-05
		-1.45759000E-03	-2.04568000E-03	 2.74660000E-03
		 0.00000000E+00	 0.00000000E+00	 0.00000000E+00
		 0.00000000E+00	 0.00000000E+00	 0.00000000E+00
		 5.83606000E-06	-3.15966000E-03	-3.43857000E-05
		-1.09360000E-03	-3.33616000E-03	 2.76932000E-03
		 0.00000000E+00	 0.00000000E+00	 0.00000000E+00
		 1.02695000E-05	-7.11516000E-05	-1.13121000E-05
		-7.24692000E-04	-1.89953000E-03	 1.40706000E-03
		-1.00170000E-03	-3.20736000E-04	 1.39662000E-03
		 0.00000000E+00	 0.00000000E+00	 0.00000000E+00
		 0.00000000E+00	 0.00000000E+00	 0.00000000E+00
		 7.44610000E-06	-2.58351000E-03	-2.94786000E-05
		-1.27304000E-03	-2.75318000E-03	 2.67752000E-03
		 0.00000000E+00	 0.00000000E+00	 0.00000000E+00
		 6.27956000E-06	-8.66650000E-04	-1.35788000E-05
		-5.43954000E-04	-3.18025000E-03	 1.33122000E-03
		-6.02381000E-04	-1.10142000E-03	 1.35480000E-03
		 0.00000000E+00	 0.00000000E+00	 0.00000000E+00
		 1.47207000E-03	-2.03184000E-03	-2.79876000E-03
		 0.00000000E+00	 0.00000000E+00	 0.00000000E+00
		 1.10533000E-03	-3.32385000E-03	-2.84137000E-03
		 0.00000000E+00	 0.00000000E+00	 0.00000000E+00
		 1.02277000E-03	-3.18574000E-04	-1.42215000E-03
		 7.40195000E-04	-1.89204000E-03	-1.45600000E-03
		 0.00000000E+00	 0.00000000E+00	 0.00000000E+00
		 1.28709000E-03	-2.74012000E-03	-2.74049000E-03
		 0.00000000E+00	 0.00000000E+00	 0.00000000E+00
		 6.16637000E-04	-1.10214000E-03	-1.38413000E-03
		 5.55311000E-04	-3.17395000E-03	-1.40080000E-03
		 0.00000000E+00	 0.00000000E+00	 0.00000000E+00
		 0.00000000E+00	 0.00000000E+00	 0.00000000E+00
		 1.11642000E-06	-4.08046000E-03	-4.17713000E-05
		-7.30824000E-04	-4.23996000E-03	 2.73044000E-03
		 0.00000000E+00	 0.00000000E+00	 0.00000000E+00
		 0.00000000E+00	 0.00000000E+00	 0.00000000E+00
		 3.62643000E-06	-3.68126000E-03	-3.84423000E-05
		-9.13931000E-04	-3.85156000E-03	 2.83090000E-03
		 0.00000000E+00	 0.00000000E+00	 0.00000000E+00
		 9.52984000E-07	-1.28919000E-03	-1.61541000E-05
		-3.66374000E-04	-4.09441000E-03	 1.22833000E-03
		-1.71240000E-04	-1.50202000E-03	 1.39172000E-03
		 0.00000000E+00	 0.00000000E+00	 0.00000000E+00
		 7.35154000E-04	-4.23025000E-03	-2.81523000E-03
		 0.00000000E+00	 0.00000000E+00	 0.00000000E+00
		 9.22022000E-04	-3.83963000E-03	-2.90975000E-03
		 0.00000000E+00	 0.00000000E+00	 0.00000000E+00
		 1.76208000E-04	-1.50637000E-03	-1.42609000E-03
		 3.69315000E-04	-4.09044000E-03	-1.31210000E-03
		 5.40111000E-06	-9.83161000E-03	-8.33939000E-05
		-1.74383000E-03	-9.93999000E-03	 4.70901000E-03
		 6.85215000E-06	-1.14745000E-02	-9.48923000E-05
		-1.54166000E-03	-1.15925000E-02	 4.72163000E-03
		 3.73918000E-06	-5.21465000E-03	-4.77664000E-05
		-8.67330000E-04	-9.86396000E-03	 2.25535000E-03
		-1.71692000E-03	-5.36132000E-03	 3.88123000E-03
		 6.04019000E-06	-1.06729000E-02	-8.92856000E-05
		-1.64379000E-03	-1.07889000E-02	 4.72466000E-03
		 3.02887000E-06	-6.76345000E-03	-6.11388000E-05
		-7.67867000E-04	-1.15133000E-02	 2.26314000E-03
		-1.39666000E-03	-6.92940000E-03	 3.89067000E-03
		 1.75126000E-03	-9.89969000E-03	-4.87741000E-03
		 1.54944000E-03	-1.15482000E-02	-4.91363000E-03
		 1.72047000E-03	-5.33644000E-03	-3.98168000E-03
		 8.77034000E-04	-9.84617000E-03	-2.42243000E-03
		 1.65132000E-03	-1.07465000E-02	-4.90514000E-03
		 1.39856000E-03	-6.90143000E-03	-4.01666000E-03
		 7.79331000E-04	-1.14927000E-02	-2.45344000E-03
		 6.26553000E-06	-1.29233000E-02	-1.03889000E-04
		-1.35109000E-03	-1.30480000E-02	 4.68851000E-03
		 7.21497000E-06	-1.22211000E-02	-9.99872000E-05
		-1.44622000E-03	-1.23393000E-02	 4.72589000E-03
		 4.48079000E-07	-8.00955000E-03	-7.04868000E-05
		-6.69519000E-04	-1.29660000E-02	 2.22296000E-03
		-1.10933000E-03	-8.19126000E-03	 3.86051000E-03
		 1.35681000E-03	-1.29966000E-02	-4.89886000E-03
		 1.45334000E-03	-1.22920000E-02	-4.92827000E-03
		 1.10649000E-03	-8.15908000E-03	-4.00370000E-03
		 6.80192000E-04	-1.29405000E-02	-2.43131000E-03
		 1.81584000E-05	-2.05470000E-02	-1.59525000E-04
		-1.82567000E-03	-2.05889000E-02	 5.23283000E-03
		 1.81651000E-05	-2.23909000E-02	-1.74497000E-04
		-1.81748000E-03	-2.24283000E-02	 5.22844000E-03
		 1.30357000E-05	-1.51222000E-02	-1.21646000E-04
		-9.05789000E-04	-2.05668000E-02	 2.54157000E-03
		-1.73345000E-03	-1.52062000E-02	 5.11186000E-03
		 1.85027000E-05	-2.14711000E-02	-1.67334000E-04
		-1.82053000E-03	-2.15079000E-02	 5.20513000E-03
		 1.41989000E-05	-1.68331000E-02	-1.33208000E-04
		-8.98714000E-04	-2.24083000E-02	 2.50557000E-03
		-1.65251000E-03	-1.69099000E-02	 5.12107000E-03
		 1.85941000E-03	-2.05315000E-02	-5.55066000E-03
		 1.85275000E-03	-2.23687000E-02	-5.57683000E-03
		 1.75658000E-03	-1.51552000E-02	-5.35482000E-03
		 9.41241000E-04	-2.05382000E-02	-2.86037000E-03
		 1.85520000E-03	-2.14493000E-02	-5.53836000E-03
		 1.67701000E-03	-1.68557000E-02	-5.38828000E-03
		 9.34468000E-04	-2.23787000E-02	-2.85441000E-03
		 1.71273000E-05	-2.42186000E-02	-1.90988000E-04
		-1.80342000E-03	-2.42546000E-02	 5.19965000E-03
		 1.75863000E-05	-2.33061000E-02	-1.82027000E-04
		-1.81051000E-03	-2.33440000E-02	 5.24907000E-03
		 1.36189000E-05	-1.84533000E-02	-1.45033000E-04
		-8.93207000E-04	-2.42342000E-02	 2.44903000E-03
		-1.56282000E-03	-1.85307000E-02	 5.08708000E-03
		 1.83859000E-03	-2.41966000E-02	-5.58170000E-03
		 1.84591000E-03	-2.32842000E-02	-5.61373000E-03
		 1.58641000E-03	-1.84737000E-02	-5.37926000E-03
		 9.27546000E-04	-2.42064000E-02	-2.83057000E-03
		 2.42928000E-05	-3.10919000E-02	-2.36914000E-04
		-2.20634000E-03	-3.10957000E-02	 5.02339000E-03
		 2.40529000E-05	-3.33491000E-02	-2.58187000E-04
		-2.25712000E-03	-3.33536000E-02	 5.01042000E-03
		 2.05889000E-05	-2.58673000E-02	-1.98468000E-04
		-1.09016000E-03	-3.11008000E-02	 2.40657000E-03
		-2.00826000E-03	-2.58897000E-02	 5.18276000E-03
		 2.45373000E-05	-3.22140000E-02	-2.46927000E-04
		-2.23256000E-03	-3.22188000E-02	 4.98670000E-03
		 2.00931000E-05	-2.79074000E-02	-2.16556000E-04
		-1.11658000E-03	-3.33583000E-02	 2.35751000E-03
		-2.02822000E-03	-2.79286000E-02	 5.16969000E-03
		 2.25228000E-03	-3.10356000E-02	-5.49560000E-03
		 2.30623000E-03	-3.32911000E-02	-5.52524000E-03
		 2.04748000E-03	-2.58297000E-02	-5.57791000E-03
		 1.13809000E-03	-3.10700000E-02	-2.87968000E-03
		 2.28022000E-03	-3.21573000E-02	-5.47928000E-03
		 2.06920000E-03	-2.78668000E-02	-5.60143000E-03
		 1.16503000E-03	-3.33266000E-02	-2.87340000E-03
		 2.38056000E-05	-3.56556000E-02	-2.81010000E-04
		-2.30671000E-03	-3.56571000E-02	 4.97834000E-03
		 2.34434000E-05	-3.44962000E-02	-2.69919000E-04
		-2.28124000E-03	-3.45001000E-02	 5.03379000E-03
		 1.92303000E-05	-2.99653000E-02	-2.36130000E-04
		-1.14205000E-03	-3.56624000E-02	 2.29107000E-03
		-2.04530000E-03	-2.99840000E-02	 5.14327000E-03
		 2.35856000E-03	-3.55996000E-02	-5.53892000E-03
		 2.33151000E-03	-3.44385000E-02	-5.57193000E-03
		 2.08749000E-03	-2.99262000E-02	-5.61462000E-03
		 1.19083000E-03	-3.56350000E-02	-2.85275000E-03
		 2.35041000E-05	-4.07927000E-02	-2.99890000E-04
		-2.63218000E-03	-4.07523000E-02	 4.28710000E-03
		 2.60637000E-05	-4.35223000E-02	-3.34121000E-04
		-2.76989000E-03	-4.34796000E-02	 4.25757000E-03
		 2.72593000E-05	-3.61355000E-02	-2.71364000E-04
		-1.30527000E-03	-4.07920000E-02	 2.01959000E-03
		-2.40922000E-03	-3.61157000E-02	 4.71983000E-03
		 2.55927000E-05	-4.21393000E-02	-3.16664000E-04
		-2.70096000E-03	-4.20966000E-02	 4.23859000E-03
		 2.80854000E-05	-3.86222000E-02	-2.98079000E-04
		-1.37166000E-03	-4.35213000E-02	 1.95293000E-03
		-2.50504000E-03	-3.86024000E-02	 4.70375000E-03
		 2.67427000E-03	-4.07005000E-02	-4.88475000E-03
		 2.82130000E-03	-4.34237000E-02	-4.92371000E-03
		 2.45938000E-03	-3.60594000E-02	-5.26129000E-03
		 1.35069000E-03	-4.07657000E-02	-2.61901000E-03
		 2.74849000E-03	-4.20424000E-02	-4.86959000E-03
		 2.56098000E-03	-3.85421000E-02	-5.29829000E-03
		 1.42337000E-03	-4.34925000E-02	-2.62057000E-03
		 2.71745000E-05	-4.63839000E-02	-3.69072000E-04
		-2.90730000E-03	-4.63423000E-02	 4.21739000E-03
		 2.62463000E-05	-4.49350000E-02	-3.51861000E-04
		-2.83820000E-03	-4.48929000E-02	 4.27877000E-03
		 2.82053000E-05	-4.12018000E-02	-3.26321000E-04
		-1.43941000E-03	-4.63821000E-02	 1.87443000E-03
		-2.60035000E-03	-4.11810000E-02	 4.66467000E-03
		 2.96586000E-03	-4.62912000E-02	-4.95361000E-03
		 2.89305000E-03	-4.48377000E-02	-4.98059000E-03
		 2.66049000E-03	-4.11252000E-02	-5.31542000E-03
		 1.49491000E-03	-4.63570000E-02	-2.61186000E-03
		-1.91260000E-05	-4.83349000E-02	-3.34444000E-04
		-3.24605000E-03	-4.83086000E-02	 3.34160000E-03
		-1.20252000E-05	-5.16094000E-02	-3.85419000E-04
		-3.33943000E-03	-5.15852000E-02	 3.28058000E-03
		 7.83579000E-06	-4.48552000E-02	-3.20074000E-04
		-1.63273000E-03	-4.83357000E-02	 1.57611000E-03
		-2.91209000E-03	-4.48219000E-02	 3.78054000E-03
		-1.50269000E-05	-4.99590000E-02	-3.59796000E-04
		-3.29232000E-03	-4.99336000E-02	 3.26292000E-03
		 1.28255000E-05	-4.78472000E-02	-3.63372000E-04
		-1.67611000E-03	-5.16116000E-02	 1.47367000E-03
		-3.04665000E-03	-4.78107000E-02	 3.73300000E-03
		 3.20186000E-03	-4.82628000E-02	-4.00868000E-03
		 3.31424000E-03	-5.15348000E-02	-4.04861000E-03
		 2.92365000E-03	-4.47731000E-02	-4.41819000E-03
		 1.59288000E-03	-4.83117000E-02	-2.24390000E-03
		 3.25763000E-03	-4.98845000E-02	-3.98115000E-03
		 3.07234000E-03	-4.77589000E-02	-4.45739000E-03
		 1.65136000E-03	-5.15849000E-02	-2.24373000E-03
		-6.51609000E-06	-5.49860000E-02	-4.39430000E-04
		-3.43674000E-03	-5.49623000E-02	 3.23742000E-03
		-9.38196000E-06	-5.32843000E-02	-4.11944000E-04
		-3.38832000E-03	-5.32602000E-02	 3.29283000E-03
		 1.64271000E-05	-5.09739000E-02	-4.07209000E-04
		-1.72134000E-03	-5.49877000E-02	 1.39033000E-03
		-3.18087000E-03	-5.09378000E-02	 3.69255000E-03
		 3.42814000E-03	-5.49170000E-02	-4.11254000E-03
		 3.37197000E-03	-5.32107000E-02	-4.11296000E-03
		 3.21903000E-03	-5.08921000E-02	-4.50488000E-03
		 1.70911000E-03	-5.49649000E-02	-2.26825000E-03
		-8.74753000E-05	-5.44503000E-02	-3.59930000E-04
		-3.90532000E-03	-5.44706000E-02	 3.02316000E-03
		-7.96670000E-05	-5.82503000E-02	-4.22401000E-04
		-3.88684000E-03	-5.82828000E-02	 2.96133000E-03
		-5.13322000E-05	-5.14216000E-02	-3.47651000E-04
		-1.99494000E-03	-5.44594000E-02	 1.37384000E-03
		-3.60660000E-03	-5.14167000E-02	 3.10252000E-03
		-8.18030000E-05	-5.63527000E-02	-3.91281000E-04
		-3.89506000E-03	-5.63807000E-02	 2.96194000E-03
		-4.45400000E-05	-5.49848000E-02	-4.03899000E-04
		-1.98487000E-03	-5.82652000E-02	 1.28492000E-03
		-3.63695000E-03	-5.49895000E-02	 3.03563000E-03
		 3.72212000E-03	-5.44217000E-02	-3.74677000E-03
		 3.71953000E-03	-5.82247000E-02	-3.80965000E-03
		 3.49382000E-03	-5.13721000E-02	-3.79739000E-03
		 1.81746000E-03	-5.44338000E-02	-2.09616000E-03
		 3.72305000E-03	-5.63268000E-02	-3.74750000E-03
		 3.54277000E-03	-5.49350000E-02	-3.84124000E-03
		 1.82247000E-03	-5.82340000E-02	-2.13139000E-03
		-7.39589000E-05	-6.20501000E-02	-4.79285000E-04
		-3.87713000E-03	-6.20878000E-02	 2.91841000E-03
		-7.79944000E-05	-6.01502000E-02	-4.50982000E-04
		-3.88429000E-03	-6.01854000E-02	 2.96361000E-03
		-3.97917000E-05	-5.85945000E-02	-4.63775000E-04
		-1.97598000E-03	-6.20686000E-02	 1.21356000E-03
		-3.67501000E-03	-5.86008000E-02	 2.99089000E-03
		 3.72356000E-03	-6.20231000E-02	-3.88000000E-03
		 3.72080000E-03	-6.01242000E-02	-3.86766000E-03
		 3.59655000E-03	-5.85473000E-02	-3.91446000E-03
		 1.82637000E-03	-6.20326000E-02	-2.17479000E-03
		-1.80861000E-04	-6.11118000E-02	-3.79056000E-04
		-4.11789000E-03	-6.11260000E-02	 3.05959000E-03
		-1.44834000E-04	-6.50793000E-02	-4.52159000E-04
		-4.08265000E-03	-6.50935000E-02	 3.01501000E-03
		-1.29886000E-04	-5.76936000E-02	-3.69133000E-04
		-2.14444000E-03	-6.11159000E-02	 1.33083000E-03
		-4.06579000E-03	-5.77104000E-02	 3.04084000E-03
		-1.65382000E-04	-6.30901000E-02	-4.19066000E-04
		-4.10260000E-03	-6.31075000E-02	 3.03717000E-03
		-1.13615000E-04	-6.16176000E-02	-4.39439000E-04
		-2.10831000E-03	-6.50830000E-02	 1.27897000E-03
		-4.03559000E-03	-6.16446000E-02	 2.98873000E-03
		 3.77117000E-03	-6.10892000E-02	-3.83905000E-03
		 3.78791000E-03	-6.50740000E-02	-3.94400000E-03
		 3.81103000E-03	-5.76558000E-02	-3.79395000E-03
		 1.78579000E-03	-6.11000000E-02	-2.09568000E-03
		 3.77952000E-03	-6.30838000E-02	-3.89682000E-03
		 3.80188000E-03	-6.15947000E-02	-3.88422000E-03
		 1.81648000E-03	-6.50776000E-02	-2.19015000E-03
		-1.09411000E-04	-6.90340000E-02	-4.93643000E-04
		-4.04694000E-03	-6.90681000E-02	 2.99781000E-03
		-1.24364000E-04	-6.70645000E-02	-4.76380000E-04
		-4.06333000E-03	-6.70830000E-02	 3.00528000E-03
		-9.88268000E-05	-6.55281000E-02	-4.86336000E-04
		-2.07159000E-03	-6.90493000E-02	 1.25229000E-03
		-4.01271000E-03	-6.55721000E-02	 2.96037000E-03
		 3.80381000E-03	-6.90238000E-02	-4.01211000E-03
		 3.79679000E-03	-6.70569000E-02	-3.98399000E-03
		 3.79772000E-03	-6.55032000E-02	-3.95102000E-03
		 1.84673000E-03	-6.90282000E-02	-2.24771000E-03
		 0.00000000E+00	 0.00000000E+00	 0.00000000E+00
		 0.00000000E+00	 0.00000000E+00	 0.00000000E+00
		 1.03302000E-05	-4.98092000E-03	-2.64995000E-05
		-1.45016000E-03	-5.26201000E-03	 4.95732000E-03
		 0.00000000E+00	 0.00000000E+00	 0.00000000E+00
		 0.00000000E+00	 0.00000000E+00	 0.00000000E+00
		 1.03529000E-05	-6.15924000E-03	-3.21743000E-05
		-8.90926000E-04	-6.45699000E-03	 5.02724000E-03
		 0.00000000E+00	 0.00000000E+00	 0.00000000E+00
		 7.21646000E-06	-1.05926000E-03	-8.80822000E-06
		-7.23533000E-04	-5.01554000E-03	 2.46772000E-03
		-1.09120000E-03	-1.50459000E-03	 2.61948000E-03
		 0.00000000E+00	 0.00000000E+00	 0.00000000E+00
		 0.00000000E+00	 0.00000000E+00	 0.00000000E+00
		 1.09230000E-05	-5.67293000E-03	-3.01459000E-05
		-1.16441000E-03	-5.95703000E-03	 4.89814000E-03
		 0.00000000E+00	 0.00000000E+00	 0.00000000E+00
		 3.73474000E-06	-1.75073000E-03	-9.79195000E-06
		-4.39225000E-04	-6.19653000E-03	 2.40012000E-03
		-3.58530000E-04	-2.18455000E-03	 2.55951000E-03
		 0.00000000E+00	 0.00000000E+00	 0.00000000E+00
		 1.46342000E-03	-5.20775000E-03	-5.02069000E-03
		 0.00000000E+00	 0.00000000E+00	 0.00000000E+00
		 9.08890000E-04	-6.39547000E-03	-5.10131000E-03
		 0.00000000E+00	 0.00000000E+00	 0.00000000E+00
		 1.10191000E-03	-1.48477000E-03	-2.64207000E-03
		 7.41952000E-04	-4.98825000E-03	-2.52396000E-03
		 0.00000000E+00	 0.00000000E+00	 0.00000000E+00
		 1.18076000E-03	-5.89857000E-03	-4.96862000E-03
		 0.00000000E+00	 0.00000000E+00	 0.00000000E+00
		 3.65366000E-04	-2.16337000E-03	-2.58208000E-03
		 4.57664000E-04	-6.16629000E-03	-2.46808000E-03
		 0.00000000E+00	 0.00000000E+00	 0.00000000E+00
		 0.00000000E+00	 0.00000000E+00	 0.00000000E+00
		 9.49537000E-06	-6.78057000E-03	-2.94069000E-05
		-3.10624000E-04	-7.04614000E-03	 4.95708000E-03
		 0.00000000E+00	 0.00000000E+00	 0.00000000E+00
		 0.00000000E+00	 0.00000000E+00	 0.00000000E+00
		 9.81368000E-06	-6.57015000E-03	-3.25866000E-05
		-6.05039000E-04	-6.85079000E-03	 5.10673000E-03
		 0.00000000E+00	 0.00000000E+00	 0.00000000E+00
		 3.42966000E-07	-1.78327000E-03	-6.35087000E-06
		-1.51292000E-04	-6.80481000E-03	 2.25547000E-03
		 4.17404000E-04	-2.18734000E-03	 2.62354000E-03
		 0.00000000E+00	 0.00000000E+00	 0.00000000E+00
		 3.28001000E-04	-6.98125000E-03	-5.02237000E-03
		 0.00000000E+00	 0.00000000E+00	 0.00000000E+00
		 6.21632000E-04	-6.79095000E-03	-5.17985000E-03
		 0.00000000E+00	 0.00000000E+00	 0.00000000E+00
		-4.16755000E-04	-2.16349000E-03	-2.63931000E-03
		 1.70631000E-04	-6.77525000E-03	-2.31658000E-03
		 2.94960000E-05	-1.76751000E-02	-1.09175000E-04
		-2.79481000E-03	-1.78921000E-02	 7.86581000E-03
		 4.12490000E-05	-2.03375000E-02	-1.28287000E-04
		-2.47449000E-03	-2.05575000E-02	 7.87243000E-03
		 1.72098000E-05	-1.06639000E-02	-5.99002000E-05
		-1.38267000E-03	-1.77530000E-02	 3.94479000E-03
		-2.06707000E-03	-1.09599000E-02	 6.65579000E-03
		 3.49072000E-05	-1.90378000E-02	-1.21301000E-04
		-2.63447000E-03	-1.92528000E-02	 7.75277000E-03
		 2.09519000E-05	-1.25369000E-02	-7.26935000E-05
		-1.21073000E-03	-2.04152000E-02	 3.82527000E-03
		-1.63351000E-03	-1.28234000E-02	 6.67696000E-03
		 2.85051000E-03	-1.77504000E-02	-8.09013000E-03
		 2.54384000E-03	-2.04163000E-02	-8.13307000E-03
		 2.09431000E-03	-1.08649000E-02	-6.78747000E-03
		 1.43988000E-03	-1.76811000E-02	-4.16550000E-03
		 2.69837000E-03	-1.91194000E-02	-7.99774000E-03
		 1.66864000E-03	-1.27236000E-02	-6.83205000E-03
		 1.29345000E-03	-2.03468000E-02	-4.08012000E-03
		 4.69101000E-05	-2.26935000E-02	-1.39462000E-04
		-2.13456000E-03	-2.28981000E-02	 7.83360000E-03
		 4.45267000E-05	-2.15440000E-02	-1.33023000E-04
		-2.30366000E-03	-2.17904000E-02	 7.99294000E-03
		 2.30695000E-05	-1.39685000E-02	-7.63014000E-05
		-1.05002000E-03	-2.27594000E-02	 3.66240000E-03
		-1.18068000E-03	-1.42478000E-02	 6.64057000E-03
		 2.24316000E-03	-2.27639000E-02	-8.11687000E-03
		 2.39330000E-03	-2.16215000E-02	-8.26644000E-03
		 1.23119000E-03	-1.41496000E-02	-6.79927000E-03
		 1.14774000E-03	-2.26966000E-02	-3.93801000E-03
		 1.04193000E-04	-3.46589000E-02	-2.56462000E-04
		-4.00574000E-03	-3.47157000E-02	 8.92234000E-03
		 1.26029000E-04	-3.87045000E-02	-2.54219000E-04
		-3.92594000E-03	-3.88866000E-02	 8.95941000E-03
		 5.69699000E-05	-2.57542000E-02	-1.73724000E-04
		-1.94273000E-03	-3.46806000E-02	 4.32896000E-03
		-3.48352000E-03	-2.59126000E-02	 8.63438000E-03
		 1.15927000E-04	-3.66891000E-02	-2.53121000E-04
		-3.97054000E-03	-3.68243000E-02	 8.86040000E-03
		 7.28385000E-05	-2.91780000E-02	-1.91126000E-04
		-1.92422000E-03	-3.87937000E-02	 4.25532000E-03
		-3.26637000E-03	-2.93630000E-02	 8.65046000E-03
		 4.16491000E-03	-3.45643000E-02	-9.41592000E-03
		 4.16605000E-03	-3.86235000E-02	-9.48298000E-03
		 3.58291000E-03	-2.57415000E-02	-8.98088000E-03
		 2.13520000E-03	-3.46079000E-02	-4.82901000E-03
		 4.16414000E-03	-3.65977000E-02	-9.37635000E-03
		 3.40511000E-03	-2.91662000E-02	-9.03356000E-03
		 2.14949000E-03	-3.86659000E-02	-4.78286000E-03
		 1.46788000E-04	-4.27358000E-02	-2.53733000E-04
		-3.95499000E-03	-4.30491000E-02	 8.92205000E-03
		 1.36083000E-04	-4.07387000E-02	-2.55072000E-04
		-3.94344000E-03	-4.08565000E-02	 9.07228000E-03
		 9.65367000E-05	-3.24190000E-02	-2.04040000E-04
		-1.87124000E-03	-4.28943000E-02	 4.10442000E-03
		-3.09235000E-03	-3.26404000E-02	 8.60561000E-03
		 4.19809000E-03	-4.26825000E-02	-9.47128000E-03
		 4.18127000E-03	-4.06488000E-02	-9.59870000E-03
		 3.23834000E-03	-3.24034000E-02	-9.01753000E-03
		 2.16427000E-03	-4.27214000E-02	-4.65550000E-03
		 3.54745000E-04	-5.22263000E-02	-4.39971000E-04
		-4.48869000E-03	-5.20499000E-02	 7.58079000E-03
		 3.76099000E-04	-5.72727000E-02	-3.46550000E-04
		-4.90015000E-03	-5.75685000E-02	 7.68508000E-03
		 1.69298000E-04	-4.37459000E-02	-3.49262000E-04
		-2.06685000E-03	-5.21811000E-02	 3.58417000E-03
		-4.33487000E-03	-4.37801000E-02	 8.48855000E-03
		 3.64888000E-04	-5.46728000E-02	-3.91703000E-04
		-4.68595000E-03	-5.46776000E-02	 7.60364000E-03
		 1.86618000E-04	-4.83693000E-02	-3.52766000E-04
		-2.13744000E-03	-5.74502000E-02	 3.65025000E-03
		-4.53864000E-03	-4.83634000E-02	 8.60085000E-03
		 5.01346000E-03	-5.20017000E-02	-8.45564000E-03
		 5.34192000E-03	-5.68789000E-02	-8.37069000E-03
		 4.63401000E-03	-4.35757000E-02	-9.17857000E-03
		 2.68710000E-03	-5.21622000E-02	-4.46170000E-03
		 5.17865000E-03	-5.43921000E-02	-8.38216000E-03
		 4.83304000E-03	-4.81484000E-02	-9.19501000E-03
		 2.84913000E-03	-5.70976000E-02	-4.34240000E-03
		 2.70839000E-04	-6.26571000E-02	-2.61326000E-04
		-5.17821000E-03	-6.33369000E-02	 7.76255000E-03
		 3.23411000E-04	-5.98852000E-02	-3.03901000E-04
		-5.03997000E-03	-6.08915000E-02	 7.76491000E-03
		 1.88470000E-04	-5.31716000E-02	-3.86879000E-04
		-2.56577000E-03	-6.30111000E-02	 3.69016000E-03
		-4.58964000E-03	-5.30697000E-02	 8.58783000E-03
		 5.70963000E-03	-6.21059000E-02	-8.27503000E-03