<?xml version="1.0"?>
<VTKFile type="UnstructuredGrid" version="0.1" byte_order="LittleEndian">
	<UnstructuredGrid>
		<Piece NumberOfPoints="522" NumberOfCells="64">
			<Points>
				<DataArray type="Float64" NumberOfComponents="3" format="ascii">
					 1.00000000E+00	 1.00000000E+00	-5.96046000E-08
					 1.00000000E+00	 5.00000000E-01	-5.96046000E-08
					 1.00000000E+00	 5.00000000E-01	 1.00000000E+00
					 1.00000000E+00	 1.00000000E+00	 1.00000000E+00
					 5.00000000E-01	 1.00000000E+00	-5.96046000E-08
					 5.00000000E-01	 5.00000000E-01	-5.96046000E-08
					 5.00000000E-01	 5.00000000E-01	 1.00000000E+00
					 5.00000000E-01	 1.00000000E+00	 1.00000000E+00
					 1.00000000E+00	 7.50000000E-01	-5.96046000E-08
					 1.00000000E+00	 5.00000000E-01	 5.00000000E-01
					 1.00000000E+00	 7.50000000E-01	 1.00000000E+00
					 1.00000000E+00	 1.00000000E+00	 5.00000000E-01
					 7.50000000E-01	 1.00000000E+00	-5.96046000E-08
					 7.50000000E-01	 5.00000000E-01	-5.96046000E-08
					 7.50000000E-01	 5.00000000E-01	 1.00000000E+00
					 7.50000000E-01	 1.00000000E+00	 1.00000000E+00
					 5.00000000E-01	 7.50000000E-01	-5.96046000E-08
					 5.00000000E-01	 5.00000000E-01	 5.00000000E-01
					 5.00000000E-01	 7.50000000E-01	 1.00000000E+00
					 5.00000000E-01	 1.00000000E+00	 5.00000000E-01
					 1.00000000E+00	-1.49012000E-08	-5.96046000E-08
					 1.00000000E+00	-1.49012000E-08	 1.00000000E+00
					 5.00000000E-01	-1.49012000E-08	-5.96046000E-08
					 5.00000000E-01	-1.49012000E-08	 1.00000000E+00
					 1.00000000E+00	 2.50000000E-01	-5.96046000E-08
					 1.00000000E+00	-1.49012000E-08	 5.00000000E-01
					 1.00000000E+00	 2.50000000E-01	 1.00000000E+00
					 7.50000000E-01	-1.49012000E-08	-5.96046000E-08
					 7.50000000E-01	-1.49012000E-08	 1.00000000E+00
					 5.00000000E-01	 2.50000000E-01	-5.96046000E-08
					 5.00000000E-01	-1.49012000E-08	 5.00000000E-01
					 5.00000000E-01	 2.50000000E-01	 1.00000000E+00
					-7.45058000E-09	 1.00000000E+00	-5.96046000E-08
					-7.45058000E-09	 5.00000000E-01	-5.96046000E-08
					-7.45058000E-09	 5.00000000E-01	 1.00000000E+00
					-7.45058000E-09	 1.00000000E+00	 1.00000000E+00
					 2.50000000E-01	 1.00000000E+00	-5.96046000E-08
					 2.50000000E-01	 5.00000000E-01	-5.96046000E-08
					 2.50000000E-01	 5.00000000E-01	 1.00000000E+00
					 2.50000000E-01	 1.00000000E+00	 1.00000000E+00
					-7.45058000E-09	 7.50000000E-01	-5.96046000E-08
					-7.45058000E-09	 5.00000000E-01	 5.00000000E-01
					-7.45058000E-09	 7.50000000E-01	 1.00000000E+00
					-7.45058000E-09	 1.00000000E+00	 5.00000000E-01
					-7.45058000E-09	-1.49012000E-08	-5.96046000E-08
					-7.45058000E-09	-1.49012000E-08	 1.00000000E+00
					 2.50000000E-01	-1.49012000E-08	-5.96046000E-08
					 2.50000000E-01	-1.49012000E-08	 1.00000000E+00
					-7.45058000E-09	 2.50000000E-01	-5.96046000E-08
					-7.45058000E-09	-1.49012000E-08	 5.00000000E-01
					-7.45058000E-09	 2.50000000E-01	 1.00000000E+00
					 1.00000000E+00	 5.00000000E-01	 2.00000000E+00
					 1.00000000E+00	 1.00000000E+00	 2.00000000E+00
					 5.00000000E-01	 5.00000000E-01	 2.00000000E+00
					 5.00000000E-01	 1.00000000E+00	 2.00000000E+00
					 1.00000000E+00	 5.00000000E-01	 1.50000000E+00
					 1.00000000E+00	 7.50000000E-01	 2.00000000E+00
					 1.00000000E+00	 1.00000000E+00	 1.50000000E+00
					 7.50000000E-01	 5.00000000E-01	 2.00000000E+00
					 7.50000000E-01	 1.00000000E+00	 2.00000000E+00
					 5.00000000E-01	 5.00000000E-01	 1.50000000E+00
					 5.00000000E-01	 7.50000000E-01	 2.00000000E+00
					 5.00000000E-01	 1.00000000E+00	 1.50000000E+00
					 1.00000000E+00	-1.49012000E-08	 2.00000000E+00
					 5.00000000E-01	-1.49012000E-08	 2.00000000E+00
					 1.00000000E+00	-1.49012000E-08	 1.50000000E+00
					 1.00000000E+00	 2.50000000E-01	 2.00000000E+00
					 7.50000000E-01	-1.49012000E-08	 2.00000000E+00
					 5.00000000E-01	-1.49012000E-08	 1.50000000E+00
					 5.00000000E-01	 2.50000000E-01	 2.00000000E+00
					-7.45058000E-09	 5.00000000E-01	 2.00000000E+00
					-7.45058000E-09	 1.00000000E+00	 2.00000000E+00
					 2.50000000E-01	 5.00000000E-01	 2.00000000E+00
					 2.50000000E-01	 1.00000000E+00	 2.00000000E+00
					-7.45058000E-09	 5.00000000E-01	 1.50000000E+00
					-7.45058000E-09	 7.50000000E-01	 2.00000000E+00
					-7.45058000E-09	 1.00000000E+00	 1.50000000E+00
					-7.45058000E-09	-1.49012000E-08	 2.00000000E+00
					 2.50000000E-01	-1.49012000E-08	 2.00000000E+00
					-7.45058000E-09	-1.49012000E-08	 1.50000000E+00
					-7.45058000E-09	 2.50000000E-01	 2.00000000E+00
					 1.00000000E+00	 5.00000000E-01	 3.00000000E+00
					 1.00000000E+00	 1.00000000E+00	 3.00000000E+00
					 5.00000000E-01	 5.00000000E-01	 3.00000000E+00
					 5.00000000E-01	 1.00000000E+00	 3.00000000E+00
					 1.00000000E+00	 5.00000000E-01	 2.50000000E+00
					 1.00000000E+00	 7.50000000E-01	 3.00000000E+00
					 1.00000000E+00	 1.00000000E+00	 2.50000000E+00
					 7.50000000E-01	 5.00000000E-01	 3.00000000E+00
					 7.50000000E-01	 1.00000000E+00	 3.00000000E+00
					 5.00000000E-01	 5.00000000E-01	 2.50000000E+00
					 5.00000000E-01	 7.50000000E-01	 3.00000000E+00
					 5.00000000E-01	 1.00000000E+00	 2.50000000E+00
					 1.00000000E+00	-1.49012000E-08	 3.00000000E+00
					 5.00000000E-01	-1.49012000E-08	 3.00000000E+00
					 1.00000000E+00	-1.49012000E-08	 2.50000000E+00
					 1.00000000E+00	 2.50000000E-01	 3.00000000E+00
					 7.50000000E-01	-1.49012000E-08	 3.00000000E+00
					 5.00000000E-01	-1.49012000E-08	 2.50000000E+00
					 5.00000000E-01	 2.50000000E-01	 3.00000000E+00
					-7.45058000E-09	 5.00000000E-01	 3.00000000E+00
					-7.45058000E-09	 1.00000000E+00	 3.00000000E+00
					 2.50000000E-01	 5.00000000E-01	 3.00000000E+00
					 2.50000000E-01	 1.00000000E+00	 3.00000000E+00
					-7.45058000E-09	 5.00000000E-01	 2.50000000E+00
					-7.45058000E-09	 7.50000000E-01	 3.00000000E+00
					-7.45058000E-09	 1.00000000E+00	 2.50000000E+00
					-7.45058000E-09	-1.49012000E-08	 3.00000000E+00
					 2.50000000E-01	-1.49012000E-08	 3.00000000E+00
					-7.45058000E-09	-1.49012000E-08	 2.50000000E+00
					-7.45058000E-09	 2.50000000E-01	 3.00000000E+00
					 1.00000000E+00	 5.00000000E-01	 4.00000000E+00
					 1.00000000E+00	 1.00000000E+00	 4.00000000E+00
					 5.00000000E-01	 5.00000000E-01	 4.00000000E+00
					 5.00000000E-01	 1.00000000E+00	 4.00000000E+00
					 1.00000000E+00	 5.00000000E-01	 3.50000000E+00
					 1.00000000E+00	 7.50000000E-01	 4.00000000E+00
					 1.00000000E+00	 1.00000000E+00	 3.50000000E+00
					 7.50000000E-01	 5.00000000E-01	 4.00000000E+00
					 7.50000000E-01	 1.00000000E+00	 4.00000000E+00
					 5.00000000E-01	 5.00000000E-01	 3.50000000E+00
					 5.00000000E-01	 7.50000000E-01	 4.00000000E+00
					 5.00000000E-01	 1.00000000E+00	 3.50000000E+00
					 1.00000000E+00	-1.49012000E-08	 4.00000000E+00
					 5.00000000E-01	-1.49012000E-08	 4.00000000E+00
					 1.00000000E+00	-1.49012000E-08	 3.50000000E+00
					 1.00000000E+00	 2.50000000E-01	 4.00000000E+00
					 7.50000000E-01	-1.49012000E-08	 4.00000000E+00
					 5.00000000E-01	-1.49012000E-08	 3.50000000E+00
					 5.00000000E-01	 2.50000000E-01	 4.00000000E+00
					-7.45058000E-09	 5.00000000E-01	 4.00000000E+00
					-7.45058000E-09	 1.00000000E+00	 4.00000000E+00
					 2.50000000E-01	 5.00000000E-01	 4.00000000E+00
					 2.50000000E-01	 1.00000000E+00	 4.00000000E+00
					-7.45058000E-09	 5.00000000E-01	 3.50000000E+00
					-7.45058000E-09	 7.50000000E-01	 4.00000000E+00
					-7.45058000E-09	 1.00000000E+00	 3.50000000E+00
					-7.45058000E-09	-1.49012000E-08	 4.00000000E+00
					 2.50000000E-01	-1.49012000E-08	 4.00000000E+00
					-7.45058000E-09	-1.49012000E-08	 3.50000000E+00
					-7.45058000E-09	 2.50000000E-01	 4.00000000E+00
					 1.00000000E+00	 5.00000000E-01	 5.00000000E+00
					 1.00000000E+00	 1.00000000E+00	 5.00000000E+00
					 5.00000000E-01	 5.00000000E-01	 5.00000000E+00
					 5.00000000E-01	 1.00000000E+00	 5.00000000E+00
					 1.00000000E+00	 5.00000000E-01	 4.50000000E+00
					 1.00000000E+00	 7.50000000E-01	 5.00000000E+00
					 1.00000000E+00	 1.00000000E+00	 4.50000000E+00
					 7.50000000E-01	 5.00000000E-01	 5.00000000E+00
					 7.50000000E-01	 1.00000000E+00	 5.00000000E+00
					 5.00000000E-01	 5.00000000E-01	 4.50000000E+00
					 5.00000000E-01	 7.50000000E-01	 5.00000000E+00
					 5.00000000E-01	 1.00000000E+00	 4.50000000E+00
					 1.00000000E+00	-1.49012000E-08	 5.00000000E+00
					 5.00000000E-01	-1.49012000E-08	 5.00000000E+00
					 1.00000000E+00	-1.49012000E-08	 4.50000000E+00
					 1.00000000E+00	 2.50000000E-01	 5.00000000E+00
					 7.50000000E-01	-1.49012000E-08	 5.00000000E+00
					 5.00000000E-01	-1.49012000E-08	 4.50000000E+00
					 5.00000000E-01	 2.50000000E-01	 5.00000000E+00
					-7.45058000E-09	 5.00000000E-01	 5.00000000E+00
					-7.45058000E-09	 1.00000000E+00	 5.00000000E+00
					 2.50000000E-01	 5.00000000E-01	 5.00000000E+00
					 2.50000000E-01	 1.00000000E+00	 5.00000000E+00
					-7.45058000E-09	 5.00000000E-01	 4.50000000E+00
					-7.45058000E-09	 7.50000000E-01	 5.00000000E+00
					-7.45058000E-09	 1.00000000E+00	 4.50000000E+00
					-7.45058000E-09	-1.49012000E-08	 5.00000000E+00
					 2.50000000E-01	-1.49012000E-08	 5.00000000E+00
					-7.45058000E-09	-1.49012000E-08	 4.50000000E+00
					-7.45058000E-09	 2.50000000E-01	 5.00000000E+00
					 1.00000000E+00	 5.00000000E-01	 6.00000000E+00
					 1.00000000E+00	 1.00000000E+00	 6.00000000E+00
					 5.00000000E-01	 5.00000000E-01	 6.00000000E+00
					 5.00000000E-01	 1.00000000E+00	 6.00000000E+00
					 1.00000000E+00	 5.00000000E-01	 5.50000000E+00
					 1.00000000E+00	 7.50000000E-01	 6.00000000E+00
					 1.00000000E+00	 1.00000000E+00	 5.50000000E+00
					 7.50000000E-01	 5.00000000E-01	 6.00000000E+00
					 7.50000000E-01	 1.00000000E+00	 6.00000000E+00
					 5.00000000E-01	 5.00000000E-01	 5.50000000E+00
					 5.00000000E-01	 7.50000000E-01	 6.00000000E+00
					 5.00000000E-01	 1.00000000E+00	 5.50000000E+00
					 1.00000000E+00	-1.49012000E-08	 6.00000000E+00
[...]
			<PointData>
				<DataArray type="Float32" Name="U" NumberOfComponents="3" ComponentName0="D1" ComponentName1="D2" ComponentName2="D3" format="ascii">
					 0.00000000E+00	 0.00000000E+00	 0.00000000E+00
					 0.00000000E+00	 0.00000000E+00	 0.00000000E+00
					-1.84032000E-05	 3.57474000E-04	 7.66079000E-05
					 1.30512000E-03	 5.74001000E-04	-2.37266000E-03
					 0.00000000E+00	 0.00000000E+00	 0.00000000E+00
					 0.00000000E+00	 0.00000000E+00	 0.00000000E+00
					-6.68032000E-06	 1.42951000E-03	 6.32570000E-05
					 8.33740000E-04	 1.65584000E-03	-2.38148000E-03
					 0.00000000E+00	 0.00000000E+00	 0.00000000E+00
					-1.19612000E-05	-5.08683000E-04	 3.58383000E-05
					 6.45746000E-04	 3.92280000E-04	-1.29589000E-03
					 7.07420000E-04	-2.87489000E-04	-9.66474000E-04
					 0.00000000E+00	 0.00000000E+00	 0.00000000E+00
					 0.00000000E+00	 0.00000000E+00	 0.00000000E+00
					-1.21193000E-05	 9.65626000E-04	 6.97393000E-05
					 1.06730000E-03	 1.18382000E-03	-2.27076000E-03
					 0.00000000E+00	 0.00000000E+00	 0.00000000E+00
					-8.42806000E-07	 3.87919000E-05	 2.84947000E-05
					 4.12028000E-04	 1.46660000E-03	-1.20366000E-03
					 3.73594000E-04	 2.39202000E-04	-9.19001000E-04
					 0.00000000E+00	 0.00000000E+00	 0.00000000E+00
					-1.34101000E-03	 6.14955000E-04	 2.52277000E-03
					 0.00000000E+00	 0.00000000E+00	 0.00000000E+00
					-8.45410000E-04	 1.69297000E-03	 2.50548000E-03
					 0.00000000E+00	 0.00000000E+00	 0.00000000E+00
					-7.30820000E-04	-2.59059000E-04	 1.04242000E-03
					-6.82541000E-04	 4.14267000E-04	 1.44697000E-03
					 0.00000000E+00	 0.00000000E+00	 0.00000000E+00
					-1.09000000E-03	 1.22238000E-03	 2.40818000E-03
					 0.00000000E+00	 0.00000000E+00	 0.00000000E+00
					-3.73678000E-04	 2.63879000E-04	 9.81043000E-04
					-4.25180000E-04	 1.48611000E-03	 1.32873000E-03
					 0.00000000E+00	 0.00000000E+00	 0.00000000E+00
					 0.00000000E+00	 0.00000000E+00	 0.00000000E+00
					 2.25449000E-06	 2.03625000E-03	 5.13034000E-05
					 3.46836000E-04	 2.24390000E-03	-2.39687000E-03
					 0.00000000E+00	 0.00000000E+00	 0.00000000E+00
					 0.00000000E+00	 0.00000000E+00	 0.00000000E+00
					-1.75526000E-06	 1.80241000E-03	 5.67048000E-05
					 5.91887000E-04	 2.02256000E-03	-2.45913000E-03
					 0.00000000E+00	 0.00000000E+00	 0.00000000E+00
					 7.73655000E-06	 2.38600000E-04	 2.55551000E-05
					 1.76119000E-04	 2.06577000E-03	-1.14491000E-03
					-1.56390000E-07	 4.25762000E-04	-9.76177000E-04
					 0.00000000E+00	 0.00000000E+00	 0.00000000E+00
					-3.39519000E-04	 2.27646000E-03	 2.49774000E-03
					 0.00000000E+00	 0.00000000E+00	 0.00000000E+00
					-5.93548000E-04	 2.05807000E-03	 2.56989000E-03
					 0.00000000E+00	 0.00000000E+00	 0.00000000E+00
					 1.84291000E-05	 4.46895000E-04	 1.03210000E-03
					-1.70896000E-04	 2.08260000E-03	 1.24671000E-03
					-4.08851000E-05	 7.86701000E-03	 1.22843000E-04
					 2.30084000E-03	 8.02493000E-03	-5.81004000E-03
					-2.62998000E-05	 9.95309000E-03	 8.82943000E-05
					 1.83534000E-03	 1.01322000E-02	-5.86642000E-03
					-2.86155000E-05	 3.06456000E-03	 1.07869000E-04
					 1.12296000E-03	 7.88469000E-03	-2.84274000E-03
					 1.87384000E-03	 3.26102000E-03	-4.11166000E-03
					-3.31982000E-05	 8.96699000E-03	 1.04810000E-04
					 2.06950000E-03	 9.14333000E-03	-5.78980000E-03
					-1.61215000E-05	 4.68915000E-03	 8.41132000E-05
					 9.05293000E-04	 9.98193000E-03	-2.83596000E-03
					 1.35407000E-03	 4.90281000E-03	-4.13997000E-03
					-2.38147000E-03	 8.13239000E-03	 6.04986000E-03
					-1.88466000E-03	 1.02340000E-02	 6.03668000E-03
					-1.93065000E-03	 3.32962000E-03	 4.32331000E-03
					-1.20488000E-03	 7.93899000E-03	 3.08718000E-03
					-2.13341000E-03	 9.24682000E-03	 5.99362000E-03
					-1.38403000E-03	 4.96581000E-03	 4.30373000E-03
					-9.57120000E-04	 1.00321000E-02	 3.01139000E-03
					-1.47053000E-05	 1.15863000E-02	 5.88770000E-05
					 1.38189000E-03	 1.17659000E-02	-5.87400000E-03
					-2.00860000E-05	 1.08289000E-02	 7.28425000E-05
					 1.60930000E-03	 1.10078000E-02	-5.95199000E-03
					-6.70291000E-06	 5.80201000E-03	 6.44921000E-05
					 6.85601000E-04	 1.16178000E-02	-2.77643000E-03
					 8.40084000E-04	 6.01264000E-03	-4.15480000E-03
					-1.40605000E-03	 1.18600000E-02	 5.98567000E-03
					-1.64540000E-03	 1.11081000E-02	 6.09067000E-03
					-8.49412000E-04	 6.07041000E-03	 4.27960000E-03
					-7.13407000E-04	 1.16620000E-02	 2.89360000E-03
					-6.01121000E-05	 2.26194000E-02	 9.02530000E-05
					 2.53393000E-03	 2.26080000E-02	-7.94629000E-03
					-4.45668000E-05	 2.51352000E-02	 3.90611000E-05
					 2.39480000E-03	 2.51282000E-02	-8.02969000E-03
					-5.01072000E-05	 1.46006000E-02	 1.16347000E-04
					 1.23741000E-03	 2.25968000E-02	-3.86159000E-03
					 2.50876000E-03	 1.46717000E-02	-7.11202000E-03
					-5.19137000E-05	 2.38951000E-02	 6.39000000E-05
					 2.46504000E-03	 2.38860000E-02	-7.99109000E-03
					-3.48238000E-05	 1.69864000E-02	 7.23075000E-05
					 1.17557000E-03	 2.51155000E-02	-3.92744000E-03
					 2.19542000E-03	 1.70728000E-02	-7.19240000E-03
					-2.65391000E-03	 2.27748000E-02	 8.12285000E-03
					-2.48169000E-03	 2.52935000E-02	 8.10425000E-03
					-2.60779000E-03	 1.48146000E-02	 7.33928000E-03
					-1.35764000E-03	 2.26785000E-02	 4.04137000E-03
					-2.56784000E-03	 2.40525000E-02	 8.11477000E-03
					-2.26172000E-03	 1.72114000E-02	 7.33121000E-03
					-1.26408000E-03	 2.51966000E-02	 4.00458000E-03
					-3.06997000E-05	 2.74950000E-02	-1.06821000E-05
					 2.26885000E-03	 2.75026000E-02	-8.04667000E-03
					-3.76530000E-05	 2.63344000E-02	 1.45122000E-05
					 2.33230000E-03	 2.63299000E-02	-8.07380000E-03
					-2.19689000E-05	 1.90570000E-02	 3.18369000E-05
					 1.11523000E-03	 2.74834000E-02	-3.92846000E-03
					 1.90178000E-03	 1.91566000E-02	-7.19657000E-03
					-2.32598000E-03	 2.76611000E-02	 8.02193000E-03
					-2.40410000E-03	 2.64936000E-02	 8.09980000E-03
					-1.94003000E-03	 1.92864000E-02	 7.25448000E-03
					-1.17544000E-03	 2.75594000E-02	 3.90585000E-03
					-7.90776000E-05	 3.96978000E-02	-1.76999000E-06
					 2.35964000E-03	 3.95985000E-02	-8.21087000E-03
					-6.74620000E-05	 4.21674000E-02	-4.74612000E-05
					 2.42053000E-03	 4.20617000E-02	-8.26423000E-03
					-7.15179000E-05	 3.11743000E-02	 4.86903000E-05
					 1.14266000E-03	 3.96574000E-02	-4.08508000E-03
					 2.45867000E-03	 3.11143000E-02	-8.22988000E-03
					-7.33959000E-05	 4.09250000E-02	-2.42941000E-05
					 2.39008000E-03	 4.08208000E-02	-8.24732000E-03
					-5.79030000E-05	 3.36954000E-02	-2.81213000E-06
					 1.17710000E-03	 4.21244000E-02	-4.14454000E-03
					 2.44780000E-03	 3.36322000E-02	-8.30320000E-03
					-2.52179000E-03	 3.97564000E-02	 8.20572000E-03
					-2.55729000E-03	 4.22260000E-02	 8.16796000E-03
					-2.60392000E-03	 3.12814000E-02	 8.32378000E-03
					-1.30175000E-03	 3.97357000E-02	 4.08102000E-03
					-2.54013000E-03	 4.09827000E-02	 8.19725000E-03
					-2.56372000E-03	 3.38028000E-02	 8.29505000E-03
					-1.31235000E-03	 4.22067000E-02	 4.04915000E-03
					-5.37427000E-05	 4.46745000E-02	-9.48707000E-05
					 2.48939000E-03	 4.45769000E-02	-8.30359000E-03
					-6.11112000E-05	 4.34137000E-02	-7.09376000E-05
					 2.45460000E-03	 4.33094000E-02	-8.27848000E-03
					-4.38654000E-05	 3.61848000E-02	-5.48277000E-05
					 1.21532000E-03	 4.46349000E-02	-4.19317000E-03
					 2.44797000E-03	 3.61345000E-02	-8.33221000E-03
					-2.59684000E-03	 4.47433000E-02	 8.11234000E-03
					-2.57734000E-03	 4.34750000E-02	 8.13532000E-03
					-2.53397000E-03	 3.63036000E-02	 8.22057000E-03
					-1.32261000E-03	 4.47180000E-02	 4.00289000E-03
					-7.65484000E-05	 5.58717000E-02	-1.01662000E-04
					 2.26967000E-03	 5.57845000E-02	-7.99651000E-03
					-6.77667000E-05	 5.82320000E-02	-1.38236000E-04
					 2.30835000E-03	 5.81452000E-02	-8.03166000E-03
					-7.90818000E-05	 4.78952000E-02	-5.22497000E-05
					 1.09634000E-03	 5.58310000E-02	-4.04798000E-03
					 2.31051000E-03	 4.78017000E-02	-8.09166000E-03
					-7.19649000E-05	 5.70487000E-02	-1.19525000E-04
					 2.28919000E-03	 5.69619000E-02	-8.02144000E-03
					-6.87082000E-05	 5.03118000E-02	-9.17997000E-05
					 1.12046000E-03	 5.81908000E-02	-4.09242000E-03
					 2.36992000E-03	 5.02139000E-02	-8.12865000E-03
					-2.42492000E-03	 5.59277000E-02	 7.79238000E-03
					-2.44474000E-03	 5.82908000E-02	 7.75428000E-03
					-2.47196000E-03	 4.79512000E-02	 7.98627000E-03
					-1.25003000E-03	 5.59025000E-02	 3.84431000E-03
					-2.43493000E-03	 5.71069000E-02	 7.78161000E-03
					-2.50877000E-03	 5.03680000E-02	 7.94382000E-03
					-1.25631000E-03	 5.82641000E-02	 3.81570000E-03
					-5.88180000E-05	 6.06238000E-02	-1.77255000E-04
					 2.34826000E-03	 6.05365000E-02	-8.07305000E-03
					-6.34818000E-05	 5.94246000E-02	-1.57518000E-04
					 2.32813000E-03	 5.93380000E-02	-8.03957000E-03
					-5.71583000E-05	 5.27726000E-02	-1.33744000E-04
					 1.14513000E-03	 6.05826000E-02	-4.14466000E-03
					 2.43158000E-03	 5.26774000E-02	-8.17369000E-03
					-2.46516000E-03	 6.06817000E-02	 7.71762000E-03
					-2.45495000E-03	 5.94834000E-02	 7.72358000E-03
					-2.54541000E-03	 5.28324000E-02	 7.90448000E-03
					-1.26263000E-03	 6.06559000E-02	 3.78994000E-03
					-7.46174000E-05	 7.16935000E-02	-2.09440000E-04
					 2.09331000E-03	 7.16037000E-02	-7.89482000E-03
					-6.89264000E-05	 7.38912000E-02	-2.43014000E-04
					 2.15294000E-03	 7.37989000E-02	-7.93358000E-03
					-7.53938000E-05	 6.38012000E-02	-1.53603000E-04
					 1.00955000E-03	 7.16558000E-02	-4.02780000E-03
					 2.19511000E-03	 6.37117000E-02	-7.96140000E-03
					-7.16673000E-05	 7.27853000E-02	-2.26330000E-04
					 2.12306000E-03	 7.26939000E-02	-7.92863000E-03
					-6.86568000E-05	 6.60854000E-02	-1.88859000E-04
					 1.04166000E-03	 7.38520000E-02	-4.07745000E-03
					 2.23144000E-03	 6.59967000E-02	-8.00051000E-03
					-2.24418000E-03	 7.17330000E-02	 7.47373000E-03
					-2.29243000E-03	 7.39309000E-02	 7.44547000E-03
					-2.34770000E-03	 6.38492000E-02	 7.65298000E-03
					-1.15938000E-03	 7.17198000E-02	 3.60812000E-03
					-2.26804000E-03	 7.28249000E-02	 7.47394000E-03
					-2.36994000E-03	 6.61365000E-02	 7.62175000E-03
					-1.18007000E-03	 7.39179000E-02	 3.59078000E-03
					-6.27367000E-05	 7.61410000E-02	-2.76289000E-04
					 2.21136000E-03	 7.60475000E-02	-7.96286000E-03
					-6.60604000E-05	 7.50097000E-02	-2.59515000E-04
					 2.18193000E-03	 7.49170000E-02	-7.94111000E-03
					-6.15730000E-05	 6.84024000E-02	-2.25581000E-04
					 1.07429000E-03	 7.61008000E-02	-4.11682000E-03
					 2.26805000E-03	 6.83117000E-02	-8.03488000E-03
					-2.33825000E-03	 7.61815000E-02	 7.40825000E-03
					-2.31565000E-03	 7.50495000E-02	 7.42019000E-03
					-2.39156000E-03	 6.84522000E-02	 7.58295000E-03
					-1.20008000E-03	 7.61681000E-02	 3.56348000E-03
					-7.29251000E-05	 8.67084000E-02	-3.20381000E-04
					 2.01063000E-03	 8.66310000E-02	-7.58463000E-03
					-6.61248000E-05	 8.88232000E-02	-3.49419000E-04
					 2.07042000E-03	 8.87423000E-02	-7.60350000E-03
					-7.40178000E-05	 7.93651000E-02	-2.65730000E-04
					 9.69174000E-04	 8.66773000E-02	-3.96619000E-03
					 2.02272000E-03	 7.92820000E-02	-7.73890000E-03
					-6.99241000E-05	 8.77577000E-02	-3.34682000E-04
					 2.03945000E-03	 8.76779000E-02	-7.59354000E-03
					-6.73905000E-05	 8.15024000E-02	-2.97270000E-04
					 1.00081000E-03	 8.87905000E-02	-3.98896000E-03
					 2.09797000E-03	 8.14143000E-02	-7.76960000E-03
					-2.15855000E-03	 8.67394000E-02	 6.94521000E-03
					-2.20472000E-03	 8.88528000E-02	 6.90636000E-03
					-2.17158000E-03	 7.94005000E-02	 7.20525000E-03
					-1.11557000E-03	 8.67304000E-02	 3.32639000E-03
					-2.18178000E-03	 8.77877000E-02	 6.92526000E-03
					-2.23445000E-03	 8.15344000E-02	 7.17296000E-03
					-1.13386000E-03	 8.88452000E-02	 3.29087000E-03
					-5.96566000E-05	 9.09882000E-02	-3.81299000E-04
					 2.12812000E-03	 9.09063000E-02	-7.63624000E-03
					-6.24036000E-05	 8.99000000E-02	-3.65264000E-04
					 2.09948000E-03	 8.98179000E-02	-7.61300000E-03
					-6.06790000E-05	 8.37027000E-02	-3.28209000E-04
					 1.03318000E-03	 9.09551000E-02	-4.02535000E-03
					 2.16969000E-03	 8.36139000E-02	-7.80027000E-03
					-2.24886000E-03	 9.10185000E-02	 6.87564000E-03
					-2.22589000E-03	 8.99291000E-02	 6.88418000E-03
					-2.29317000E-03	 8.37365000E-02	 7.14169000E-03
					-1.15303000E-03	 9.10106000E-02	 3.26389000E-03
					-6.23595000E-05	 1.00922000E-01	-4.27571000E-04
					 2.05934000E-03	 1.00863000E-01	-7.56488000E-03
					-6.58843000E-05	 1.03027000E-01	-4.50731000E-04
					 2.05681000E-03	 1.02960000E-01	-7.56502000E-03
					-7.00704000E-05	 9.38246000E-02	-3.74536000E-04
					 1.00207000E-03	 1.00891000E-01	-4.00422000E-03
					 2.03011000E-03	 9.37635000E-02	-7.53619000E-03
					-6.28663000E-05	 1.01979000E-01	-4.37989000E-04
					 2.05824000E-03	 1.01914000E-01	-7.56426000E-03
					-6.62117000E-05	 9.59374000E-02	-4.00023000E-04
					 9.99443000E-04	 1.02990000E-01	-4.01399000E-03
					 2.05482000E-03	 9.58704000E-02	-7.54273000E-03
					-2.19611000E-03	 1.00977000E-01	 6.72181000E-03
					-2.19257000E-03	 1.03086000E-01	 6.67534000E-03
					-2.17802000E-03	 9.38679000E-02	 6.79495000E-03
					-1.13000000E-03	 1.00948000E-01	 3.15301000E-03
					-2.19334000E-03	 1.02036000E-01	 6.69975000E-03
					-2.19039000E-03	 9.59828000E-02	 6.75109000E-03
					-1.13274000E-03	 1.03056000E-01	 3.11583000E-03
					-7.03656000E-05	 1.05138000E-01	-4.85576000E-04
					 2.05667000E-03	 1.05068000E-01	-7.58779000E-03
					-6.91102000E-05	 1.04080000E-01	-4.66734000E-04
					 2.05663000E-03	 1.04012000E-01	-7.57063000E-03
					-6.29383000E-05	 9.80717000E-02	-4.34570000E-04
					 9.94823000E-04	 1.05101000E-01	-4.04399000E-03
					 2.08326000E-03	 9.80034000E-02	-7.57115000E-03
					-2.19258000E-03	 1.05189000E-01	 6.62799000E-03
					-2.19351000E-03	 1.04137000E-01	 6.64854000E-03
					-2.20680000E-03	 9.81134000E-02	 6.71096000E-03
					-1.13468000E-03	 1.05164000E-01	 3.07611000E-03
					 0.00000000E+00	 0.00000000E+00	 0.00000000E+00
					 0.00000000E+00	 0.00000000E+00	 0.00000000E+00
					 2.53585000E-05	-4.39770000E-04	-1.73047000E-04
					-1.59322000E-03	-6.95449000E-04	 2.67229000E-03
					 0.00000000E+00	 0.00000000E+00	 0.00000000E+00
					 0.00000000E+00	 0.00000000E+00	 0.00000000E+00
					-3.75080000E-07	-1.77290000E-03	-1.84068000E-04
					-1.06866000E-03	-2.03626000E-03	 2.65970000E-03
					 0.00000000E+00	 0.00000000E+00	 0.00000000E+00
					 2.69165000E-05	 5.74116000E-04	-8.13080000E-05
					-7.87211000E-04	-4.85159000E-04	 1.42291000E-03
					-8.52353000E-04	 3.23353000E-04	 1.10145000E-03
					 0.00000000E+00	 0.00000000E+00	 0.00000000E+00
					 0.00000000E+00	 0.00000000E+00	 0.00000000E+00
					 1.30307000E-05	-1.18907000E-03	-1.77538000E-04
					-1.32730000E-03	-1.44446000E-03	 2.53685000E-03
					 0.00000000E+00	 0.00000000E+00	 0.00000000E+00
					-2.36331000E-07	-1.05331000E-04	-7.97757000E-05
					-5.34587000E-04	-1.81894000E-03	 1.28342000E-03
					-4.78044000E-04	-3.28215000E-04	 1.04178000E-03
					 0.00000000E+00	 0.00000000E+00	 0.00000000E+00
					 1.64135000E-03	-7.22044000E-04	-3.01880000E-03
					 0.00000000E+00	 0.00000000E+00	 0.00000000E+00
					 1.07006000E-03	-2.06668000E-03	-3.02794000E-03
					 0.00000000E+00	 0.00000000E+00	 0.00000000E+00
					 9.05461000E-04	 2.76258000E-04	-1.27267000E-03
					 8.36345000E-04	-4.96906000E-04	-1.76871000E-03
					 0.00000000E+00	 0.00000000E+00	 0.00000000E+00
					 1.35306000E-03	-1.47265000E-03	-2.89140000E-03
					 0.00000000E+00	 0.00000000E+00	 0.00000000E+00
					 4.79084000E-04	-3.77304000E-04	-1.20919000E-03
					 5.32967000E-04	-1.83294000E-03	-1.65121000E-03
					 0.00000000E+00	 0.00000000E+00	 0.00000000E+00
					 0.00000000E+00	 0.00000000E+00	 0.00000000E+00
					-2.87971000E-05	-2.57728000E-03	-1.90235000E-04
					-5.33074000E-04	-2.81835000E-03	 2.65598000E-03
					 0.00000000E+00	 0.00000000E+00	 0.00000000E+00
					 0.00000000E+00	 0.00000000E+00	 0.00000000E+00
					-1.41938000E-05	-2.25557000E-03	-1.88116000E-04
					-8.02480000E-04	-2.50511000E-03	 2.74694000E-03
					 0.00000000E+00	 0.00000000E+00	 0.00000000E+00
					-2.93063000E-05	-3.82367000E-04	-8.70953000E-05
					-2.81882000E-04	-2.61388000E-03	 1.18457000E-03
					-6.11269000E-05	-5.86362000E-04	 1.09609000E-03
					 0.00000000E+00	 0.00000000E+00	 0.00000000E+00
					 4.77850000E-04	-2.84722000E-03	-3.03625000E-03
					 0.00000000E+00	 0.00000000E+00	 0.00000000E+00
					 7.75453000E-04	-2.53980000E-03	-3.12343000E-03
					 0.00000000E+00	 0.00000000E+00	 0.00000000E+00
					 3.12665000E-06	-6.36063000E-04	-1.27816000E-03
					 2.26127000E-04	-2.62827000E-03	-1.56425000E-03
					 1.65180000E-05	-8.95116000E-03	-3.72044000E-04
					-2.92414000E-03	-9.22197000E-03	 6.38690000E-03
					 9.41869000E-08	-1.16156000E-02	-4.18589000E-04
					-2.41475000E-03	-1.18921000E-02	 6.36707000E-03
					 2.32484000E-05	-3.52495000E-03	-2.66627000E-04
					-1.44803000E-03	-9.01998000E-03	 3.01969000E-03
					-2.32168000E-03	-3.79320000E-03	 4.57932000E-03
					 8.83009000E-06	-1.03460000E-02	-3.96937000E-04
					-2.66819000E-03	-1.06235000E-02	 6.30471000E-03
					-3.53867000E-09	-5.56243000E-03	-2.91513000E-04
					-1.20329000E-03	-1.16841000E-02	 2.91372000E-03
					-1.74761000E-03	-5.83770000E-03	 4.56025000E-03
					 2.96341000E-03	-9.14980000E-03	-7.13661000E-03
					 2.41708000E-03	-1.18411000E-02	-7.21026000E-03
					 2.37055000E-03	-3.77976000E-03	-5.11680000E-03
					 1.48176000E-03	-8.98207000E-03	-3.76623000E-03
					 2.69253000E-03	-1.05682000E-02	-7.10135000E-03
					 1.75114000E-03	-5.83539000E-03	-5.14830000E-03
					 1.20863000E-03	-1.16592000E-02	-3.74959000E-03
					-2.82699000E-05	-1.37826000E-02	-4.56104000E-04
					-1.90175000E-03	-1.40273000E-02	 6.30023000E-03
					-1.33603000E-05	-1.27602000E-02	-4.38171000E-04
					-2.15727000E-03	-1.30576000E-02	 6.44027000E-03
					-2.86845000E-05	-7.02533000E-03	-3.09596000E-04
					-9.77752000E-04	-1.38334000E-02	 2.75803000E-03
					-1.17770000E-03	-7.28055000E-03	 4.53520000E-03
					 1.87859000E-03	-1.40084000E-02	-7.21959000E-03
					 2.14899000E-03	-1.29918000E-02	-7.32767000E-03
					 1.13383000E-03	-7.29395000E-03	-5.15852000E-03
					 9.30537000E-04	-1.38271000E-02	-3.66671000E-03
					-1.49779000E-05	-2.53937000E-02	-6.26965000E-04
					-3.60764000E-03	-2.54820000E-02	 8.31295000E-03
					-1.86219000E-05	-2.88885000E-02	-7.15214000E-04
					-3.46454000E-03	-2.90810000E-02	 8.26474000E-03
					 7.08501000E-06	-1.65036000E-02	-4.93139000E-04
					-1.80770000E-03	-2.54223000E-02	 3.78307000E-03
					-3.32943000E-03	-1.67068000E-02	 7.66960000E-03
					-1.40375000E-05	-2.71578000E-02	-6.67519000E-04
					-3.53797000E-03	-2.73122000E-02	 8.25221000E-03
					-4.17493000E-06	-1.96565000E-02	-5.63655000E-04
					-1.76734000E-03	-2.89752000E-02	 3.66345000E-03
					-2.99368000E-03	-1.98762000E-02	 7.64652000E-03
					 3.54661000E-03	-2.53689000E-02	-9.55021000E-03
					 3.43292000E-03	-2.88894000E-02	-9.71315000E-03
					 3.34309000E-03	-1.65888000E-02	-8.65803000E-03
					 1.76654000E-03	-2.53704000E-02	-5.02529000E-03
					 3.48980000E-03	-2.71393000E-02	-9.59939000E-03
					 2.99550000E-03	-1.97587000E-02	-8.77835000E-03
					 1.70804000E-03	-2.88839000E-02	-5.11372000E-03
					-3.81099000E-05	-3.22740000E-02	-8.01656000E-04
					-3.44295000E-03	-3.25841000E-02	 8.13468000E-03
					-2.68908000E-05	-3.06092000E-02	-7.61762000E-04
					-3.45531000E-03	-3.07285000E-02	 8.29443000E-03
					-1.77027000E-05	-2.24857000E-02	-6.26918000E-04
					-1.70767000E-03	-3.24233000E-02	 3.45783000E-03
					-2.71262000E-03	-2.27245000E-02	 7.53751000E-03
					 3.33310000E-03	-3.23219000E-02	-9.78320000E-03
					 3.38442000E-03	-3.06100000E-02	-9.83708000E-03
					 2.64901000E-03	-2.25974000E-02	-8.79932000E-03
					 1.63528000E-03	-3.23018000E-02	-5.10567000E-03
					-6.40383000E-05	-4.35499000E-02	-8.83844000E-04
					-3.90898000E-03	-4.34088000E-02	 7.45039000E-03