<?xml version="1.0"?>
<VTKFile type="UnstructuredGrid" version="0.1" byte_order="LittleEndian">
	<UnstructuredGrid>
		<Piece NumberOfPoints="522" NumberOfCells="64">
			<Points>
				<DataArray type="Float64" NumberOfComponents="3" format="ascii">
					 1.00000000E+00	 1.00000000E+00	-5.96046000E-08
					 1.00000000E+00	 5.00000000E-01	-5.96046000E-08
					 1.00000000E+00	 5.00000000E-01	 1.00000000E+00
					 1.00000000E+00	 1.00000000E+00	 1.00000000E+00
					 5.00000000E-01	 1.00000000E+00	-5.96046000E-08
					 5.00000000E-01	 5.00000000E-01	-5.96046000E-08
					 5.00000000E-01	 5.00000000E-01	 1.00000000E+00
					 5.00000000E-01	 1.00000000E+00	 1.00000000E+00
					 1.00000000E+00	 7.50000000E-01	-5.96046000E-08
					 1.00000000E+00	 5.00000000E-01	 5.00000000E-01
					 1.00000000E+00	 7.50000000E-01	 1.00000000E+00
					 1.00000000E+00	 1.00000000E+00	 5.00000000E-01
					 7.50000000E-01	 1.00000000E+00	-5.96046000E-08
					 7.50000000E-01	 5.00000000E-01	-5.96046000E-08
					 7.50000000E-01	 5.00000000E-01	 1.00000000E+00
					 7.50000000E-01	 1.00000000E+00	 1.00000000E+00
					 5.00000000E-01	 7.50000000E-01	-5.96046000E-08
					 5.00000000E-01	 5.00000000E-01	 5.00000000E-01
					 5.00000000E-01	 7.50000000E-01	 1.00000000E+00
					 5.00000000E-01	 1.00000000E+00	 5.00000000E-01
					 1.00000000E+00	-1.49012000E-08	-5.96046000E-08
					 1.00000000E+00	-1.49012000E-08	 1.00000000E+00
					 5.00000000E-01	-1.49012000E-08	-5.96046000E-08
					 5.00000000E-01	-1.49012000E-08	 1.00000000E+00
					 1.00000000E+00	 2.50000000E-01	-5.96046000E-08
					 1.00000000E+00	-1.49012000E-08	 5.00000000E-01
					 1.00000000E+00	 2.50000000E-01	 1.00000000E+00
					 7.50000000E-01	-1.49012000E-08	-5.96046000E-08
					 7.50000000E-01	-1.49012000E-08	 1.00000000E+00
					 5.00000000E-01	 2.50000000E-01	-5.96046000E-08
					 5.00000000E-01	-1.49012000E-08	 5.00000000E-01
					 5.00000000E-01	 2.50000000E-01	 1.00000000E+00
					-7.45058000E-09	 1.00000000E+00	-5.96046000E-08
					-7.45058000E-09	 5.00000000E-01	-5.96046000E-08
					-7.45058000E-09	 5.00000000E-01	 1.00000000E+00
					-7.45058000E-09	 1.00000000E+00	 1.00000000E+00
					 2.50000000E-01	 1.00000000E+00	-5.96046000E-08
					 2.50000000E-01	 5.00000000E-01	-5.96046000E-08
					 2.50000000E-01	 5.00000000E-01	 1.00000000E+00
					 2.50000000E-01	 1.00000000E+00	 1.00000000E+00
					-7.45058000E-09	 7.50000000E-01	-5.96046000E-08
					-7.45058000E-09	 5.00000000E-01	 5.00000000E-01
					-7.45058000E-09	 7.50000000E-01	 1.00000000E+00
					-7.45058000E-09	 1.00000000E+00	 5.00000000E-01
					-7.45058000E-09	-1.49012000E-08	-5.96046000E-08
					-7.45058000E-09	-1.49012000E-08	 1.00000000E+00
					 2.50000000E-01	-1.49012000E-08	-5.96046000E-08
					 2.50000000E-01	-1.49012000E-08	 1.00000000E+00
					-7.45058000E-09	 2.50000000E-01	-5.96046000E-08
					-7.45058000E-09	-1.49012000E-08	 5.00000000E-01
					-7.45058000E-09	 2.50000000E-01	 1.00000000E+00
					 1.00000000E+00	 5.00000000E-01	 2.00000000E+00
					 1.00000000E+00	 1.00000000E+00	 2.00000000E+00
					 5.00000000E-01	 5.00000000E-01	 2.00000000E+00
					 5.00000000E-01	 1.00000000E+00	 2.00000000E+00
					 1.00000000E+00	 5.00000000E-01	 1.50000000E+00
					 1.00000000E+00	 7.50000000E-01	 2.00000000E+00
					 1.00000000E+00	 1.00000000E+00	 1.50000000E+00
					 7.50000000E-01	 5.00000000E-01	 2.00000000E+00
					 7.50000000E-01	 1.00000000E+00	 2.00000000E+00
					 5.00000000E-01	 5.00000000E-01	 1.50000000E+00
					 5.00000000E-01	 7.50000000E-01	 2.00000000E+00
					 5.00000000E-01	 1.00000000E+00	 1.50000000E+00
					 1.00000000E+00	-1.49012000E-08	 2.00000000E+00
					 5.00000000E-01	-1.49012000E-08	 2.00000000E+00
					 1.00000000E+00	-1.49012000E-08	 1.50000000E+00
					 1.00000000E+00	 2.50000000E-01	 2.00000000E+00
					 7.50000000E-01	-1.49012000E-08	 2.00000000E+00
					 5.00000000E-01	-1.49012000E-08	 1.50000000E+00
					 5.00000000E-01	 2.50000000E-01	 2.00000000E+00
					-7.45058000E-09	 5.00000000E-01	 2.00000000E+00
					-7.45058000E-09	 1.00000000E+00	 2.00000000E+00
					 2.50000000E-01	 5.00000000E-01	 2.00000000E+00
					 2.50000000E-01	 1.00000000E+00	 2.00000000E+00
					-7.45058000E-09	 5.00000000E-01	 1.50000000E+00
					-7.45058000E-09	 7.50000000E-01	 2.00000000E+00
					-7.45058000E-09	 1.00000000E+00	 1.50000000E+00
					-7.45058000E-09	-1.49012000E-08	 2.00000000E+00
					 2.50000000E-01	-1.49012000E-08	 2.00000000E+00
					-7.45058000E-09	-1.49012000E-08	 1.50000000E+00
					-7.45058000E-09	 2.50000000E-01	 2.00000000E+00
					 1.00000000E+00	 5.00000000E-01	 3.00000000E+00
					 1.00000000E+00	 1.00000000E+00	 3.00000000E+00
					 5.00000000E-01	 5.00000000E-01	 3.00000000E+00
					 5.00000000E-01	 1.00000000E+00	 3.00000000E+00
					 1.00000000E+00	 5.00000000E-01	 2.50000000E+00
					 1.00000000E+00	 7.50000000E-01	 3.00000000E+00
					 1.00000000E+00	 1.00000000E+00	 2.50000000E+00
					 7.50000000E-01	 5.00000000E-01	 3.00000000E+00
					 7.50000000E-01	 1.00000000E+00	 3.00000000E+00
					 5.00000000E-01	 5.00000000E-01	 2.50000000E+00
					 5.00000000E-01	 7.50000000E-01	 3.00000000E+00
					 5.00000000E-01	 1.00000000E+00	 2.50000000E+00
					 1.00000000E+00	-1.49012000E-08	 3.00000000E+00
					 5.00000000E-01	-1.49012000E-08	 3.00000000E+00
					 1.00000000E+00	-1.49012000E-08	 2.50000000E+00
					 1.00000000E+00	 2.50000000E-01	 3.00000000E+00
					 7.50000000E-01	-1.49012000E-08	 3.00000000E+00
					 5.00000000E-01	-1.49012000E-08	 2.50000000E+00
					 5.00000000E-01	 2.50000000E-01	 3.00000000E+00
					-7.45058000E-09	 5.00000000E-01	 3.00000000E+00
					-7.45058000E-09	 1.00000000E+00	 3.00000000E+00
					 2.50000000E-01	 5.00000000E-01	 3.00000000E+00
					 2.50000000E-01	 1.00000000E+00	 3.00000000E+00
					-7.45058000E-09	 5.00000000E-01	 2.50000000E+00
					-7.45058000E-09	 7.50000000E-01	 3.00000000E+00
					-7.45058000E-09	 1.00000000E+00	 2.50000000E+00
					-7.45058000E-09	-1.49012000E-08	 3.00000000E+00
					 2.50000000E-01	-1.49012000E-08	 3.00000000E+00
					-7.45058000E-09	-1.49012000E-08	 2.50000000E+00
					-7.45058000E-09	 2.50000000E-01	 3.00000000E+00
					 1.00000000E+00	 5.00000000E-01	 4.00000000E+00
					 1.00000000E+00	 1.00000000E+00	 4.00000000E+00
					 5.00000000E-01	 5.00000000E-01	 4.00000000E+00
					 5.00000000E-01	 1.00000000E+00	 4.00000000E+00
					 1.00000000E+00	 5.00000000E-01	 3.50000000E+00
					 1.00000000E+00	 7.50000000E-01	 4.00000000E+00
					 1.00000000E+00	 1.00000000E+00	 3.50000000E+00
					 7.50000000E-01	 5.00000000E-01	 4.00000000E+00
					 7.50000000E-01	 1.00000000E+00	 4.00000000E+00
					 5.00000000E-01	 5.00000000E-01	 3.50000000E+00
					 5.00000000E-01	 7.50000000E-01	 4.00000000E+00
					 5.00000000E-01	 1.00000000E+00	 3.50000000E+00
					 1.00000000E+00	-1.49012000E-08	 4.00000000E+00
					 5.00000000E-01	-1.49012000E-08	 4.00000000E+00
					 1.00000000E+00	-1.49012000E-08	 3.50000000E+00
					 1.00000000E+00	 2.50000000E-01	 4.00000000E+00
					 7.50000000E-01	-1.49012000E-08	 4.00000000E+00
					 5.00000000E-01	-1.49012000E-08	 3.50000000E+00
					 5.00000000E-01	 2.50000000E-01	 4.00000000E+00
					-7.45058000E-09	 5.00000000E-01	 4.00000000E+00
					-7.45058000E-09	 1.00000000E+00	 4.00000000E+00
					 2.50000000E-01	 5.00000000E-01	 4.00000000E+00
					 2.50000000E-01	 1.00000000E+00	 4.00000000E+00
					-7.45058000E-09	 5.00000000E-01	 3.50000000E+00
					-7.45058000E-09	 7.50000000E-01	 4.00000000E+00
					-7.45058000E-09	 1.00000000E+00	 3.50000000E+00
					-7.45058000E-09	-1.49012000E-08	 4.00000000E+00
					 2.50000000E-01	-1.49012000E-08	 4.00000000E+00
					-7.45058000E-09	-1.49012000E-08	 3.50000000E+00
					-7.45058000E-09	 2.50000000E-01	 4.00000000E+00
					 1.00000000E+00	 5.00000000E-01	 5.00000000E+00
					 1.00000000E+00	 1.00000000E+00	 5.00000000E+00
					 5.00000000E-01	 5.00000000E-01	 5.00000000E+00
					 5.00000000E-01	 1.00000000E+00	 5.00000000E+00
					 1.00000000E+00	 5.00000000E-01	 4.50000000E+00
					 1.00000000E+00	 7.50000000E-01	 5.00000000E+00
					 1.00000000E+00	 1.00000000E+00	 4.50000000E+00
					 7.50000000E-01	 5.00000000E-01	 5.00000000E+00
					 7.50000000E-01	 1.00000000E+00	 5.00000000E+00
					 5.00000000E-01	 5.00000000E-01	 4.50000000E+00
					 5.00000000E-01	 7.50000000E-01	 5.00000000E+00
					 5.00000000E-01	 1.00000000E+00	 4.50000000E+00
					 1.00000000E+00	-1.49012000E-08	 5.00000000E+00
					 5.00000000E-01	-1.49012000E-08	 5.00000000E+00
					 1.00000000E+00	-1.49012000E-08	 4.50000000E+00
					 1.00000000E+00	 2.50000000E-01	 5.00000000E+00
					 7.50000000E-01	-1.49012000E-08	 5.00000000E+00
					 5.00000000E-01	-1.49012000E-08	 4.50000000E+00
					 5.00000000E-01	 2.50000000E-01	 5.00000000E+00
					-7.45058000E-09	 5.00000000E-01	 5.00000000E+00
					-7.45058000E-09	 1.00000000E+00	 5.00000000E+00
					 2.50000000E-01	 5.00000000E-01	 5.00000000E+00
					 2.50000000E-01	 1.00000000E+00	 5.00000000E+00
					-7.45058000E-09	 5.00000000E-01	 4.50000000E+00
					-7.45058000E-09	 7.50000000E-01	 5.00000000E+00
					-7.45058000E-09	 1.00000000E+00	 4.50000000E+00
					-7.45058000E-09	-1.49012000E-08	 5.00000000E+00
					 2.50000000E-01	-1.49012000E-08	 5.00000000E+00
					-7.45058000E-09	-1.49012000E-08	 4.50000000E+00
					-7.45058000E-09	 2.50000000E-01	 5.00000000E+00
					 1.00000000E+00	 5.00000000E-01	 6.00000000E+00
					 1.00000000E+00	 1.00000000E+00	 6.00000000E+00
					 5.00000000E-01	 5.00000000E-01	 6.00000000E+00
					 5.00000000E-01	 1.00000000E+00	 6.00000000E+00
					 1.00000000E+00	 5.00000000E-01	 5.50000000E+00
					 1.00000000E+00	 7.50000000E-01	 6.00000000E+00
					 1.00000000E+00	 1.00000000E+00	 5.50000000E+00
					 7.50000000E-01	 5.00000000E-01	 6.00000000E+00
					 7.50000000E-01	 1.00000000E+00	 6.00000000E+00
					 5.00000000E-01	 5.00000000E-01	 5.50000000E+00
					 5.00000000E-01	 7.50000000E-01	 6.00000000E+00
					 5.00000000E-01	 1.00000000E+00	 5.50000000E+00
					 1.00000000E+00	-1.49012000E-08	 6.00000000E+00
[...]
			<PointData>
				<DataArray type="Float32" Name="U" NumberOfComponents="3" ComponentName0="D1" ComponentName1="D2" ComponentName2="D3" format="ascii">
					 0.00000000E+00	 0.00000000E+00	 0.00000000E+00
					 0.00000000E+00	 0.00000000E+00	 0.00000000E+00
					 3.39013000E-05	 4.71702000E-04	 1.49860000E-05
					-1.52417000E-04	 3.58000000E-04	-2.40607000E-04
					 0.00000000E+00	 0.00000000E+00	 0.00000000E+00
					 0.00000000E+00	 0.00000000E+00	 0.00000000E+00
					-2.82724000E-05	 1.46293000E-04	-4.01605000E-05
					-3.69414000E-04	 1.79152000E-04	-2.65186000E-04
					 0.00000000E+00	 0.00000000E+00	 0.00000000E+00
					 4.38576000E-05	 2.02525000E-04	 2.17735000E-06
					-1.25994000E-04	 4.16631000E-04	-8.25763000E-05
					-8.85998000E-05	 2.03071000E-04	-1.02109000E-04
					 0.00000000E+00	 0.00000000E+00	 0.00000000E+00
					 0.00000000E+00	 0.00000000E+00	 0.00000000E+00
					 8.35411000E-06	 3.28863000E-04	-1.58186000E-05
					-2.66139000E-04	 3.16833000E-04	-3.14231000E-04
					 0.00000000E+00	 0.00000000E+00	 0.00000000E+00
					 6.06034000E-06	 1.21032000E-05	 9.64886000E-06
					-1.81205000E-04	 1.57487000E-04	-1.43152000E-04
					-2.06793000E-04	 3.02815000E-06	-9.82772000E-05
					 0.00000000E+00	 0.00000000E+00	 0.00000000E+00
					 3.56635000E-04	 5.65216000E-04	 2.25060000E-04
					 0.00000000E+00	 0.00000000E+00	 0.00000000E+00
					 3.90807000E-04	 8.60542000E-05	 2.82863000E-04
					 0.00000000E+00	 0.00000000E+00	 0.00000000E+00
					 1.94028000E-04	 2.45253000E-04	 9.52590000E-05
					 1.46047000E-04	 5.08121000E-04	 4.70018000E-05
					 0.00000000E+00	 0.00000000E+00	 0.00000000E+00
					 3.68937000E-04	 3.37521000E-04	 3.34228000E-04
					 0.00000000E+00	 0.00000000E+00	 0.00000000E+00
					 2.33734000E-04	 3.10876000E-05	 7.36441000E-05
					 1.69762000E-04	 1.11251000E-04	 1.14946000E-04
					 0.00000000E+00	 0.00000000E+00	 0.00000000E+00
					 0.00000000E+00	 0.00000000E+00	 0.00000000E+00
					-6.78231000E-05	-2.91734000E-04	 1.15901000E-05
					-4.74890000E-04	-2.81614000E-04	-2.80724000E-04
					 0.00000000E+00	 0.00000000E+00	 0.00000000E+00
					 0.00000000E+00	 0.00000000E+00	 0.00000000E+00
					-4.43320000E-05	-6.20996000E-05	-3.95735000E-05
					-4.33804000E-04	-2.39982000E-05	-2.20171000E-04
					 0.00000000E+00	 0.00000000E+00	 0.00000000E+00
					-1.02859000E-05	-2.23428000E-04	 2.11389000E-06
					-2.49995000E-04	-2.94916000E-04	-1.99978000E-04
					-2.36701000E-04	-1.74538000E-04	-1.04700000E-04
					 0.00000000E+00	 0.00000000E+00	 0.00000000E+00
					 3.40432000E-04	-1.13525000E-04	 1.69455000E-04
					 0.00000000E+00	 0.00000000E+00	 0.00000000E+00
					 3.80805000E-04	-4.54536000E-05	 1.80390000E-04
					 0.00000000E+00	 0.00000000E+00	 0.00000000E+00
					 2.00313000E-04	-1.54377000E-04	 8.22705000E-05
					 1.90080000E-04	-2.20676000E-04	 1.65159000E-04
					-5.32996000E-05	 1.96314000E-03	-3.64767000E-05
					-1.02586000E-03	 2.08890000E-03	-4.98150000E-04
					 4.97552000E-06	 1.16341000E-03	-7.77405000E-05
					-7.40902000E-04	 1.16661000E-03	-5.42873000E-04
					-1.02586000E-06	 1.15678000E-03	 2.35909000E-05
					-4.42339000E-04	 2.01065000E-03	-2.25443000E-04
					-5.88905000E-04	 1.20574000E-03	-4.49428000E-04
					-3.04497000E-05	 1.55066000E-03	-4.82860000E-05
					-8.69587000E-04	 1.54880000E-03	-5.13747000E-04
					-7.31466000E-07	 5.73962000E-04	-7.45081000E-05
					-3.86052000E-04	 1.16800000E-03	-2.63434000E-04
					-6.03993000E-04	 5.94396000E-04	-4.97692000E-04
					 6.87275000E-04	 1.88019000E-03	 5.04565000E-04
					 7.31440000E-04	 1.21965000E-03	 4.24508000E-04
					 6.03549000E-04	 1.19039000E-03	 4.18573000E-04
					 3.66550000E-04	 1.92183000E-03	 2.01519000E-04
					 7.02034000E-04	 1.53104000E-03	 4.42127000E-04
					 6.15099000E-04	 5.97974000E-04	 4.00082000E-04
					 3.65685000E-04	 1.19557000E-03	 1.56541000E-04
					-2.48205000E-05	 4.23971000E-04	-1.22534000E-04
					-6.26381000E-04	 5.20608000E-04	-5.79448000E-04
					-1.80161000E-05	 7.93061000E-04	-7.38627000E-05
					-6.58395000E-04	 8.21713000E-04	-5.90000000E-04
					-1.09871000E-05	-4.67610000E-05	-5.37341000E-05
					-3.23736000E-04	 4.88037000E-04	-2.66878000E-04
					-6.77279000E-04	-5.95713000E-05	-4.86430000E-04
					 1.02139000E-03	 1.40711000E-04	 4.14560000E-04
					 8.48057000E-04	 8.07567000E-04	 4.21318000E-04
					 7.02583000E-04	-1.50310000E-04	 3.37736000E-04
					 3.71087000E-04	 3.11255000E-04	 1.14528000E-04
					-5.67643000E-08	 1.71821000E-03	 7.90449000E-05
					 2.02300000E-04	 1.61881000E-03	 3.66546000E-05
					-3.88257000E-05	 1.94301000E-03	 4.50079000E-05
					 2.53420000E-04	 1.83153000E-03	 1.31188000E-04
					-5.16657000E-05	 2.07343000E-03	-1.55635000E-05
					 9.18694000E-05	 1.67498000E-03	-9.47403000E-05
					-5.29359000E-04	 2.08924000E-03	-2.65522000E-04
					-8.35118000E-06	 1.80559000E-03	 6.15319000E-05
					 2.15550000E-04	 1.72037000E-03	 1.89584000E-04
					-1.12456000E-05	 1.68532000E-03	-1.89988000E-05
					 1.17181000E-04	 1.88756000E-03	 5.64922000E-05
					-3.20460000E-04	 1.67975000E-03	-2.55082000E-04
					-5.60140000E-06	 1.80022000E-03	-4.24525000E-05
					-2.14282000E-04	 1.96628000E-03	 6.78840000E-05
					 4.33603000E-04	 2.13804000E-03	 2.63811000E-04
					-8.79529000E-05	 1.75510000E-03	 1.79166000E-04
					-1.17218000E-04	 1.77658000E-03	-1.10021000E-04
					 2.91673000E-04	 1.69797000E-03	 3.29489000E-04
					-1.20188000E-04	 1.96875000E-03	 5.00272000E-05
					 2.40208000E-05	 2.19827000E-03	 9.42819000E-05
					 3.74298000E-04	 2.21917000E-03	 6.18507000E-05
					-1.50862000E-05	 2.05951000E-03	 6.08183000E-05
					 3.07050000E-04	 2.03185000E-03	-3.11289000E-05
					 3.55125000E-05	 1.46563000E-03	-3.07208000E-05
					 1.93272000E-04	 2.21510000E-03	 1.75128000E-04
					-2.43466000E-04	 1.37766000E-03	-3.02570000E-04
					-3.98914000E-04	 2.27508000E-03	-1.76927000E-06
					-2.97927000E-04	 2.02084000E-03	 1.71246000E-04
					 3.22956000E-04	 1.35380000E-03	 2.68365000E-04
					-1.48551000E-04	 2.22779000E-03	-7.36548000E-05
					 3.72377000E-05	-1.68381000E-04	 8.84893000E-06
					 1.50189000E-03	-1.65795000E-04	 1.19128000E-04
					-1.15860000E-05	 1.26276000E-03	 6.38333000E-05
					 1.37813000E-03	 1.29012000E-03	 1.11668000E-04
					-2.18553000E-05	 7.45047000E-04	 6.37650000E-05
					 7.57197000E-04	-1.61739000E-04	 9.29621000E-06
					 9.31955000E-04	 7.15864000E-04	 1.96237000E-04
					 1.42123000E-05	 5.89586000E-04	 2.82019000E-05
					 1.43105000E-03	 6.03901000E-04	 1.79499000E-04
					-1.44279000E-05	 1.60745000E-03	 8.57626000E-05
					 6.74529000E-04	 1.27322000E-03	 6.99309000E-05
					 8.89072000E-04	 1.56997000E-03	 2.29801000E-04
					-1.58921000E-03	-3.03037000E-04	-7.49669000E-05
					-1.38424000E-03	 1.27848000E-03	-6.47373000E-05
					-8.83011000E-04	 7.22078000E-04	-1.30941000E-04
					-6.92036000E-04	-2.27965000E-04	 3.74915000E-05
					-1.47749000E-03	 6.04429000E-04	-1.19388000E-04
					-9.03841000E-04	 1.63359000E-03	-1.32812000E-04
					-6.98696000E-04	 1.26087000E-03	 2.26158000E-05
					-2.90697000E-05	 2.61273000E-03	 1.00034000E-04
					 1.40317000E-03	 2.72376000E-03	 2.01815000E-04
					-2.57326000E-05	 1.93509000E-03	 8.27209000E-05
					 1.38373000E-03	 1.97881000E-03	 1.45720000E-04
					 1.04261000E-06	 2.50108000E-03	 7.10079000E-05
					 6.39848000E-04	 2.65981000E-03	 1.41776000E-04
					 9.52071000E-04	 2.54606000E-03	 2.41112000E-04
					-1.32261000E-03	 2.61032000E-03	-4.95982000E-05
					-1.34511000E-03	 1.97791000E-03	-2.77510000E-05
					-9.76586000E-04	 2.54662000E-03	-9.53539000E-05
					-6.87380000E-04	 2.60694000E-03	 1.21475000E-05
					-1.24860000E-05	 1.47214000E-04	-1.96656000E-05
					 1.40059000E-03	 1.76235000E-04	-2.68449000E-04
					-1.33222000E-05	 1.46621000E-03	 5.63692000E-05
					 1.33486000E-03	 1.47374000E-03	-2.60622000E-04
					-1.16701000E-05	-2.33828000E-04	-1.16565000E-05
					 6.71327000E-04	 1.63981000E-04	-7.04865000E-05
					 1.53234000E-03	-2.07581000E-04	-9.44247000E-05
					-6.46286000E-06	 8.07229000E-04	 2.92465000E-05
					 1.36575000E-03	 8.28167000E-04	-3.28179000E-04
					-6.48748000E-06	 1.26865000E-03	 4.61430000E-05
					 6.74441000E-04	 1.46790000E-03	-8.55212000E-05
					 1.42343000E-03	 1.27765000E-03	-7.45886000E-05
					-1.44241000E-03	 1.43565000E-04	 2.84430000E-04
					-1.35296000E-03	 1.49188000E-03	 2.93642000E-04
					-1.58955000E-03	-2.72050000E-04	 8.59562000E-05
					-7.25376000E-04	 1.40030000E-04	 8.65105000E-05
					-1.39858000E-03	 8.19513000E-04	 3.48849000E-04
					-1.43709000E-03	 1.26734000E-03	 1.36313000E-04
					-6.75613000E-04	 1.48413000E-03	 1.59138000E-04
					-2.66743000E-06	 2.79734000E-03	 5.46884000E-05
					 1.32340000E-03	 2.92766000E-03	-1.84804000E-04
					-1.07306000E-05	 2.14742000E-03	 5.44524000E-05
					 1.31863000E-03	 2.19294000E-03	-1.73963000E-04
					 1.28054000E-05	 2.65768000E-03	 7.14588000E-05
					 6.37766000E-04	 2.85091000E-03	-6.23009000E-05
					 1.42165000E-03	 2.71862000E-03	-2.33066000E-05
					-1.30436000E-03	 2.85514000E-03	 3.92920000E-04
					-1.32506000E-03	 2.15977000E-03	 3.00778000E-04
					-1.38603000E-03	 2.67279000E-03	 1.74630000E-04
					-6.29141000E-04	 2.80930000E-03	 2.54215000E-04
					-2.17318000E-05	 1.37319000E-03	 9.91259000E-05
					 8.80723000E-04	 1.41768000E-03	-3.83070000E-04
					 1.04262000E-05	 2.39472000E-03	 1.22406000E-04
					 9.36184000E-04	 2.31522000E-03	-2.51761000E-04
					-3.25229000E-05	 7.60282000E-04	 5.03218000E-05
					 4.85472000E-04	 1.38241000E-03	-1.83949000E-04
					 1.09122000E-03	 8.19875000E-04	-2.90215000E-04
					-2.51930000E-06	 1.87897000E-03	 8.66883000E-05
					 9.07895000E-04	 1.83185000E-03	-3.15723000E-04
					-1.54173000E-05	 1.88518000E-03	 8.23609000E-05
					 4.58576000E-04	 2.34217000E-03	-9.62160000E-05
					 1.12744000E-03	 1.89746000E-03	-2.95680000E-04
					-9.18224000E-04	 1.48214000E-03	 5.04746000E-04
					-9.27389000E-04	 2.34756000E-03	 4.97768000E-04
					-1.13881000E-03	 8.59814000E-04	 4.06604000E-04
					-4.96012000E-04	 1.40539000E-03	 3.09869000E-04
					-9.39723000E-04	 1.87604000E-03	 5.14093000E-04
					-1.12979000E-03	 1.88736000E-03	 4.42818000E-04
					-4.84089000E-04	 2.37601000E-03	 3.13580000E-04
					-2.06781000E-05	 3.23268000E-03	 1.72783000E-04
					 8.74674000E-04	 3.27131000E-03	-2.90088000E-04
					-3.30628000E-06	 2.80597000E-03	 1.31576000E-04
					 9.16805000E-04	 2.80557000E-03	-2.85270000E-04
					-2.01715000E-05	 3.00146000E-03	 1.16466000E-04
					 4.60886000E-04	 3.25279000E-03	-1.20048000E-04
					 1.12982000E-03	 3.02365000E-03	-2.63470000E-04
					-9.52115000E-04	 3.30123000E-03	 5.54878000E-04
					-9.30297000E-04	 2.82351000E-03	 5.57771000E-04
					-1.10411000E-03	 3.05057000E-03	 4.78896000E-04
					-4.79062000E-04	 3.25932000E-03	 3.44957000E-04
					-1.00493000E-05	 1.95973000E-03	 7.53570000E-06
					 1.41092000E-03	 2.15558000E-03	-8.56991000E-04
					-5.13206000E-05	 3.35300000E-03	 2.66581000E-06
					 1.24742000E-03	 3.35271000E-03	-8.00458000E-04
					 2.18072000E-05	 1.58322000E-03	 5.99986000E-05
					 6.76280000E-04	 2.05026000E-03	-3.93905000E-04
					 1.14197000E-03	 1.63855000E-03	-5.33647000E-04
					-3.24333000E-05	 2.68960000E-03	 2.24310000E-05
					 1.34447000E-03	 2.73479000E-03	-8.32484000E-04
					-1.03923000E-05	 2.71460000E-03	 8.00605000E-05
					 6.05243000E-04	 3.35553000E-03	-3.93389000E-04
					 1.09656000E-03	 2.77869000E-03	-4.42095000E-04
					-1.35105000E-03	 2.01890000E-03	 9.20487000E-04
					-1.31905000E-03	 3.35182000E-03	 7.89288000E-04
					-1.14789000E-03	 1.62789000E-03	 6.31098000E-04
					-6.89280000E-04	 1.99196000E-03	 5.16079000E-04
					-1.32689000E-03	 2.71187000E-03	 8.47659000E-04
					-1.09464000E-03	 2.74768000E-03	 6.01328000E-04
					-6.50399000E-04	 3.33786000E-03	 4.01692000E-04
					-4.91443000E-05	 4.51272000E-03	-5.85065000E-05
					 1.14560000E-03	 4.73625000E-03	-9.11876000E-04
					-4.56012000E-05	 3.98599000E-03	-3.99256000E-06
					 1.18097000E-03	 4.01578000E-03	-8.93245000E-04
					-4.51322000E-05	 3.82275000E-03	 6.28578000E-05
					 4.85632000E-04	 4.61253000E-03	-3.76116000E-04
					 1.02242000E-03	 3.85048000E-03	-5.51167000E-04
					-1.21977000E-03	 4.55963000E-03	 7.97914000E-04
					-1.26950000E-03	 3.97463000E-03	 7.88873000E-04
					-1.10126000E-03	 3.85006000E-03	 6.06059000E-04
					-5.92055000E-04	 4.51832000E-03	 3.55413000E-04
					 1.82378000E-04	 4.35344000E-03	 1.14153000E-04
					 1.59272000E-03	 4.53275000E-03	-1.42175000E-03
					 5.70731000E-05	 5.50594000E-03	-9.11676000E-05
					 1.66398000E-03	 5.04250000E-03	-8.65043000E-04
					 8.42418000E-05	 2.89465000E-03	 4.13629000E-05
					 9.94724000E-04	 4.41450000E-03	-7.03107000E-04
					 1.36936000E-03	 3.06541000E-03	-1.17864000E-03
					 1.42361000E-04	 4.99861000E-03	 3.09993000E-05
					 1.60838000E-03	 4.75303000E-03	-1.09728000E-03
					 3.92951000E-05	 4.33583000E-03	-5.90987000E-05
					 8.70387000E-04	 5.24802000E-03	-5.23213000E-04
					 1.41552000E-03	 4.40319000E-03	-9.51966000E-04
					-1.64055000E-03	 4.47093000E-03	 1.79632000E-03
					-1.57926000E-03	 6.01449000E-03	 1.50034000E-03
					-1.56021000E-03	 2.94557000E-03	 1.29424000E-03
					-7.10952000E-04	 4.36874000E-03	 8.51376000E-04
					-1.58975000E-03	 5.27671000E-03	 1.62686000E-03
					-1.33869000E-03	 4.36067000E-03	 1.14827000E-03
					-8.17118000E-04	 5.78056000E-03	 6.29041000E-04
					-7.09881000E-05	 6.82750000E-03	-1.03949000E-04
					 1.57663000E-03	 6.65246000E-03	-6.75539000E-04
					-3.33960000E-05	 6.07572000E-03	-8.54487000E-05
					 1.61353000E-03	 5.83084000E-03	-7.72685000E-04
					-1.22396000E-06	 5.77515000E-03	-7.17773000E-05
					 7.86692000E-04	 6.76625000E-03	-4.44366000E-04
					 1.51822000E-03	 5.80248000E-03	-8.71971000E-04
					-1.68215000E-03	 6.56864000E-03	 6.44179000E-04
					-1.61807000E-03	 6.31764000E-03	 1.12265000E-03
					-1.15272000E-03	 5.67050000E-03	 8.56876000E-04
					-1.03526000E-03	 6.71341000E-03	 2.47143000E-04
					 0.00000000E+00	 0.00000000E+00	 0.00000000E+00
					 0.00000000E+00	 0.00000000E+00	 0.00000000E+00
					-2.54867000E-05	-2.47874000E-03	 2.43888000E-04
					-1.56040000E-03	-2.65824000E-03	 3.51790000E-03
					 0.00000000E+00	 0.00000000E+00	 0.00000000E+00
					 0.00000000E+00	 0.00000000E+00	 0.00000000E+00
					 1.96773000E-05	-3.85117000E-03	 1.62791000E-04
					-1.03156000E-03	-3.89565000E-03	 3.69188000E-03
					 0.00000000E+00	 0.00000000E+00	 0.00000000E+00
					 2.73961000E-05	-3.51211000E-04	 1.07004000E-04
					-8.08219000E-04	-2.49825000E-03	 1.86560000E-03
					-9.79898000E-04	-6.64338000E-04	 1.80884000E-03
					 0.00000000E+00	 0.00000000E+00	 0.00000000E+00
					 0.00000000E+00	 0.00000000E+00	 0.00000000E+00
					-9.16991000E-07	-3.26450000E-03	 2.05869000E-04
					-1.29291000E-03	-3.38202000E-03	 3.57824000E-03
					 0.00000000E+00	 0.00000000E+00	 0.00000000E+00
					 7.06589000E-05	-1.02566000E-03	 1.19910000E-04
					-5.24809000E-04	-3.78806000E-03	 1.85115000E-03
					-4.02895000E-04	-1.34424000E-03	 1.75753000E-03
					 0.00000000E+00	 0.00000000E+00	 0.00000000E+00
					 1.68724000E-03	-2.56598000E-03	-3.19354000E-03
					 0.00000000E+00	 0.00000000E+00	 0.00000000E+00
					 1.20637000E-03	-4.03971000E-03	-3.16216000E-03
					 0.00000000E+00	 0.00000000E+00	 0.00000000E+00
					 9.98027000E-04	-6.20717000E-04	-1.63682000E-03
					 8.08146000E-04	-2.45932000E-03	-1.48245000E-03
					 0.00000000E+00	 0.00000000E+00	 0.00000000E+00
					 1.44074000E-03	-3.40533000E-03	-3.13913000E-03
					 0.00000000E+00	 0.00000000E+00	 0.00000000E+00
					 4.91228000E-04	-1.25854000E-03	-1.55207000E-03
					 6.09061000E-04	-3.87460000E-03	-1.46533000E-03
					 0.00000000E+00	 0.00000000E+00	 0.00000000E+00
					 0.00000000E+00	 0.00000000E+00	 0.00000000E+00
					 6.96902000E-05	-4.59741000E-03	 2.11942000E-04
					-6.68410000E-04	-5.14042000E-03	 3.47036000E-03
					 0.00000000E+00	 0.00000000E+00	 0.00000000E+00
					 0.00000000E+00	 0.00000000E+00	 0.00000000E+00
					 5.18493000E-05	-4.32979000E-03	 1.75712000E-04
					-8.29392000E-04	-4.54004000E-03	 3.63616000E-03
					 0.00000000E+00	 0.00000000E+00	 0.00000000E+00
					 9.95662000E-05	-1.23166000E-03	 7.10118000E-05
					-2.30679000E-04	-4.78350000E-03	 1.75598000E-03
					 8.46902000E-05	-1.59878000E-03	 1.79432000E-03
					 0.00000000E+00	 0.00000000E+00	 0.00000000E+00
					 6.91311000E-04	-4.72978000E-03	-3.22870000E-03
					 0.00000000E+00	 0.00000000E+00	 0.00000000E+00
					 9.37728000E-04	-4.49498000E-03	-3.27850000E-03
					 0.00000000E+00	 0.00000000E+00	 0.00000000E+00
					-7.95713000E-06	-1.48434000E-03	-1.58923000E-03
					 3.99281000E-04	-4.58916000E-03	-1.36927000E-03
					 1.10588000E-04	-1.21066000E-02	 3.33337000E-04
					-2.25293000E-03	-1.19881000E-02	 5.84440000E-03
					 9.63148000E-05	-1.41347000E-02	 2.65518000E-04
					-1.98596000E-03	-1.42935000E-02	 5.80530000E-03
					 3.60120000E-05	-6.67936000E-03	 2.94733000E-04
					-9.94671000E-04	-1.20282000E-02	 3.06873000E-03
					-1.82808000E-03	-6.87255000E-03	 4.98676000E-03
					 1.03673000E-04	-1.31112000E-02	 3.00773000E-04
					-2.12591000E-03	-1.31828000E-02	 5.73320000E-03
					 8.01491000E-05	-8.41287000E-03	 2.28514000E-04
					-9.34353000E-04	-1.42111000E-02	 2.95298000E-03
					-1.44333000E-03	-8.62219000E-03	 4.99663000E-03
					 1.96040000E-03	-1.22107000E-02	-5.13931000E-03
					 2.14325000E-03	-1.41303000E-02	-5.27422000E-03
					 1.93041000E-03	-6.81981000E-03	-4.44994000E-03
					 1.09186000E-03	-1.21377000E-02	-2.38259000E-03
					 2.05597000E-03	-1.31145000E-02	-5.13415000E-03
					 1.63060000E-03	-8.53430000E-03	-4.50261000E-03
					 1.12613000E-03	-1.41158000E-02	-2.37771000E-03
					 3.42390000E-05	-1.61501000E-02	 2.38136000E-04
					-1.54182000E-03	-1.59354000E-02	 5.73740000E-03
					 5.08987000E-05	-1.51281000E-02	 2.77574000E-04
					-1.78943000E-03	-1.53153000E-02	 5.90345000E-03
					 1.30099000E-04	-9.78828000E-03	 2.32350000E-04
					-9.14720000E-04	-1.60574000E-02	 2.76182000E-03
					-1.01938000E-03	-9.83165000E-03	 4.93812000E-03
					 2.30026000E-03	-1.62963000E-02	-5.14216000E-03
					 2.24949000E-03	-1.51619000E-02	-5.36449000E-03
					 1.30162000E-03	-9.88843000E-03	-4.48360000E-03
					 1.14313000E-03	-1.62280000E-02	-2.21241000E-03
					 1.91722000E-04	-2.13712000E-02	 4.79683000E-04
					-4.18722000E-03	-2.15422000E-02	 5.36394000E-03
					 9.82522000E-05	-2.59390000E-02	 4.89972000E-04
					-4.41541000E-03	-2.60683000E-02	 5.43929000E-03
					 2.23087000E-05	-1.70722000E-02	 3.63372000E-04
					-2.09924000E-03	-2.14681000E-02	 3.14312000E-03
					-3.05790000E-03	-1.71513000E-02	 5.81818000E-03
					 1.54525000E-04	-2.35992000E-02	 5.01418000E-04
					-4.31215000E-03	-2.36878000E-02	 5.14394000E-03
					 1.05753000E-04	-2.02071000E-02	 3.52734000E-04
					-2.20486000E-03	-2.60405000E-02	 2.89284000E-03
					-3.17204000E-03	-2.02542000E-02	 5.91728000E-03
					 4.53891000E-03	-2.12824000E-02	-4.44869000E-03
					 4.87503000E-03	-2.55845000E-02	-4.32972000E-03
					 3.02817000E-03	-1.70776000E-02	-5.03124000E-03
					 2.42215000E-03	-2.13306000E-02	-2.22012000E-03
					 4.72068000E-03	-2.33439000E-02	-4.15342000E-03
					 3.32817000E-03	-2.01493000E-02	-5.03597000E-03
					 2.49231000E-03	-2.57808000E-02	-1.90928000E-03
					 1.66879000E-04	-3.05429000E-02	 5.07950000E-04
					-4.88925000E-03	-3.09007000E-02	 5.27835000E-03
					 1.25472000E-04	-2.82238000E-02	 4.80829000E-04
					-4.64122000E-03	-2.82279000E-02	 5.63951000E-03
					 1.80734000E-04	-2.35540000E-02	 3.43838000E-04
					-2.24887000E-03	-3.07274000E-02	 2.56278000E-03
					-3.16925000E-03	-2.35276000E-02	 5.76602000E-03
					 4.99432000E-03	-3.04493000E-02	-4.49069000E-03
					 4.92706000E-03	-2.80261000E-02	-4.67549000E-03
					 3.49099000E-03	-2.33646000E-02	-5.04848000E-03
					 2.60852000E-03	-3.05404000E-02	-1.67560000E-03
					 2.22238000E-04	-2.68473000E-02	 5.26445000E-04
					-7.04826000E-03	-2.66020000E-02	 3.83599000E-03