# vtk DataFile Version 3.0

ASCII
DATASET UNSTRUCTURED_GRID

POINTS 522 double
	 1.00000000E+00	 1.00000000E+00	-5.96046000E-08
	 1.00000000E+00	 5.00000000E-01	-5.96046000E-08
	 1.00000000E+00	 5.00000000E-01	 1.00000000E+00
	 1.00000000E+00	 1.00000000E+00	 1.00000000E+00
	 5.00000000E-01	 1.00000000E+00	-5.96046000E-08
	 5.00000000E-01	 5.00000000E-01	-5.96046000E-08
	 5.00000000E-01	 5.00000000E-01	 1.00000000E+00
	 5.00000000E-01	 1.00000000E+00	 1.00000000E+00
	 1.00000000E+00	 7.50000000E-01	-5.96046000E-08
	 1.00000000E+00	 5.00000000E-01	 5.00000000E-01
	 1.00000000E+00	 7.50000000E-01	 1.00000000E+00
	 1.00000000E+00	 1.00000000E+00	 5.00000000E-01
	 7.50000000E-01	 1.00000000E+00	-5.96046000E-08
	 7.50000000E-01	 5.00000000E-01	-5.96046000E-08
	 7.50000000E-01	 5.00000000E-01	 1.00000000E+00
	 7.50000000E-01	 1.00000000E+00	 1.00000000E+00
	 5.00000000E-01	 7.50000000E-01	-5.96046000E-08
	 5.00000000E-01	 5.00000000E-01	 5.00000000E-01
	 5.00000000E-01	 7.50000000E-01	 1.00000000E+00
	 5.00000000E-01	 1.00000000E+00	 5.00000000E-01
	 1.00000000E+00	-1.49012000E-08	-5.96046000E-08
	 1.00000000E+00	-1.49012000E-08	 1.00000000E+00
	 5.00000000E-01	-1.49012000E-08	-5.96046000E-08
	 5.00000000E-01	-1.49012000E-08	 1.00000000E+00
	 1.00000000E+00	 2.50000000E-01	-5.96046000E-08
	 1.00000000E+00	-1.49012000E-08	 5.00000000E-01
	 1.00000000E+00	 2.50000000E-01	 1.00000000E+00
	 7.50000000E-01	-1.49012000E-08	-5.96046000E-08
	 7.50000000E-01	-1.49012000E-08	 1.00000000E+00
	 5.00000000E-01	 2.50000000E-01	-5.96046000E-08
	 5.00000000E-01	-1.49012000E-08	 5.00000000E-01
	 5.00000000E-01	 2.50000000E-01	 1.00000000E+00
	-7.45058000E-09	 1.00000000E+00	-5.96046000E-08
	-7.45058000E-09	 5.00000000E-01	-5.96046000E-08
	-7.45058000E-09	 5.00000000E-01	 1.00000000E+00
	-7.45058000E-09	 1.00000000E+00	 1.00000000E+00
	 2.50000000E-01	 1.00000000E+00	-5.96046000E-08
	 2.50000000E-01	 5.00000000E-01	-5.96046000E-08
	 2.50000000E-01	 5.00000000E-01	 1.00000000E+00
	 2.50000000E-01	 1.00000000E+00	 1.00000000E+00
	-7.45058000E-09	 7.50000000E-01	-5.96046000E-08
	-7.45058000E-09	 5.00000000E-01	 5.00000000E-01
	-7.45058000E-09	 7.50000000E-01	 1.00000000E+00
	-7.45058000E-09	 1.00000000E+00	 5.00000000E-01
	-7.45058000E-09	-1.49012000E-08	-5.96046000E-08
	-7.45058000E-09	-1.49012000E-08	 1.00000000E+00
	 2.50000000E-01	-1.49012000E-08	-5.96046000E-08
	 2.50000000E-01	-1.49012000E-08	 1.00000000E+00
	-7.45058000E-09	 2.50000000E-01	-5.96046000E-08
	-7.45058000E-09	-1.49012000E-08	 5.00000000E-01
	-7.45058000E-09	 2.50000000E-01	 1.00000000E+00
	 1.00000000E+00	 5.00000000E-01	 2.00000000E+00
	 1.00000000E+00	 1.00000000E+00	 2.00000000E+00
	 5.00000000E-01	 5.00000000E-01	 2.00000000E+00
	 5.00000000E-01	 1.00000000E+00	 2.00000000E+00
	 1.00000000E+00	 5.00000000E-01	 1.50000000E+00
	 1.00000000E+00	 7.50000000E-01	 2.00000000E+00
	 1.00000000E+00	 1.00000000E+00	 1.50000000E+00
	 7.50000000E-01	 5.00000000E-01	 2.00000000E+00
	 7.50000000E-01	 1.00000000E+00	 2.00000000E+00
	 5.00000000E-01	 5.00000000E-01	 1.50000000E+00
	 5.00000000E-01	 7.50000000E-01	 2.00000000E+00
	 5.00000000E-01	 1.00000000E+00	 1.50000000E+00
	 1.00000000E+00	-1.49012000E-08	 2.00000000E+00
	 5.00000000E-01	-1.49012000E-08	 2.00000000E+00
	 1.00000000E+00	-1.49012000E-08	 1.50000000E+00
	 1.00000000E+00	 2.50000000E-01	 2.00000000E+00
	 7.50000000E-01	-1.49012000E-08	 2.00000000E+00
	 5.00000000E-01	-1.49012000E-08	 1.50000000E+00
	 5.00000000E-01	 2.50000000E-01	 2.00000000E+00
	-7.45058000E-09	 5.00000000E-01	 2.00000000E+00
	-7.45058000E-09	 1.00000000E+00	 2.00000000E+00
	 2.50000000E-01	 5.00000000E-01	 2.00000000E+00
	 2.50000000E-01	 1.00000000E+00	 2.00000000E+00
	-7.45058000E-09	 5.00000000E-01	 1.50000000E+00
	-7.45058000E-09	 7.50000000E-01	 2.00000000E+00
	-7.45058000E-09	 1.00000000E+00	 1.50000000E+00
	-7.45058000E-09	-1.49012000E-08	 2.00000000E+00
	 2.50000000E-01	-1.49012000E-08	 2.00000000E+00
	-7.45058000E-09	-1.49012000E-08	 1.50000000E+00
	-7.45058000E-09	 2.50000000E-01	 2.00000000E+00
	 1.00000000E+00	 5.00000000E-01	 3.00000000E+00
	 1.00000000E+00	 1.00000000E+00	 3.00000000E+00
	 5.00000000E-01	 5.00000000E-01	 3.00000000E+00
	 5.00000000E-01	 1.00000000E+00	 3.00000000E+00
	 1.00000000E+00	 5.00000000E-01	 2.50000000E+00
	 1.00000000E+00	 7.50000000E-01	 3.00000000E+00
	 1.00000000E+00	 1.00000000E+00	 2.50000000E+00
	 7.50000000E-01	 5.00000000E-01	 3.00000000E+00
	 7.50000000E-01	 1.00000000E+00	 3.00000000E+00
	 5.00000000E-01	 5.00000000E-01	 2.50000000E+00
	 5.00000000E-01	 7.50000000E-01	 3.00000000E+00
	 5.00000000E-01	 1.00000000E+00	 2.50000000E+00
	 1.00000000E+00	-1.49012000E-08	 3.00000000E+00
	 5.00000000E-01	-1.49012000E-08	 3.00000000E+00
	 1.00000000E+00	-1.49012000E-08	 2.50000000E+00
	 1.00000000E+00	 2.50000000E-01	 3.00000000E+00
	 7.50000000E-01	-1.49012000E-08	 3.00000000E+00
	 5.00000000E-01	-1.49012000E-08	 2.50000000E+00
	 5.00000000E-01	 2.50000000E-01	 3.00000000E+00
	-7.45058000E-09	 5.00000000E-01	 3.00000000E+00
	-7.45058000E-09	 1.00000000E+00	 3.00000000E+00
	 2.50000000E-01	 5.00000000E-01	 3.00000000E+00
	 2.50000000E-01	 1.00000000E+00	 3.00000000E+00
	-7.45058000E-09	 5.00000000E-01	 2.50000000E+00
	-7.45058000E-09	 7.50000000E-01	 3.00000000E+00
	-7.45058000E-09	 1.00000000E+00	 2.50000000E+00
	-7.45058000E-09	-1.49012000E-08	 3.00000000E+00
	 2.50000000E-01	-1.49012000E-08	 3.00000000E+00
	-7.45058000E-09	-1.49012000E-08	 2.50000000E+00
	-7.45058000E-09	 2.50000000E-01	 3.00000000E+00
	 1.00000000E+00	 5.00000000E-01	 4.00000000E+00
	 1.00000000E+00	 1.00000000E+00	 4.00000000E+00
	 5.00000000E-01	 5.00000000E-01	 4.00000000E+00
	 5.00000000E-01	 1.00000000E+00	 4.00000000E+00
	 1.00000000E+00	 5.00000000E-01	 3.50000000E+00
	 1.00000000E+00	 7.50000000E-01	 4.00000000E+00
	 1.00000000E+00	 1.00000000E+00	 3.50000000E+00
	 7.50000000E-01	 5.00000000E-01	 4.00000000E+00
	 7.50000000E-01	 1.00000000E+00	 4.00000000E+00
	 5.00000000E-01	 5.00000000E-01	 3.50000000E+00
	 5.00000000E-01	 7.50000000E-01	 4.00000000E+00
	 5.00000000E-01	 1.00000000E+00	 3.50000000E+00
	 1.00000000E+00	-1.49012000E-08	 4.00000000E+00
	 5.00000000E-01	-1.49012000E-08	 4.00000000E+00
	 1.00000000E+00	-1.49012000E-08	 3.50000000E+00
	 1.00000000E+00	 2.50000000E-01	 4.00000000E+00
	 7.50000000E-01	-1.49012000E-08	 4.00000000E+00
	 5.00000000E-01	-1.49012000E-08	 3.50000000E+00
	 5.00000000E-01	 2.50000000E-01	 4.00000000E+00
	-7.45058000E-09	 5.00000000E-01	 4.00000000E+00
	-7.45058000E-09	 1.00000000E+00	 4.00000000E+00
	 2.50000000E-01	 5.00000000E-01	 4.00000000E+00
	 2.50000000E-01	 1.00000000E+00	 4.00000000E+00
	-7.45058000E-09	 5.00000000E-01	 3.50000000E+00
	-7.45058000E-09	 7.50000000E-01	 4.00000000E+00
	-7.45058000E-09	 1.00000000E+00	 3.50000000E+00
	-7.45058000E-09	-1.49012000E-08	 4.00000000E+00
	 2.50000000E-01	-1.49012000E-08	 4.00000000E+00
	-7.45058000E-09	-1.49012000E-08	 3.50000000E+00
	-7.45058000E-09	 2.50000000E-01	 4.00000000E+00
	 1.00000000E+00	 5.00000000E-01	 5.00000000E+00
	 1.00000000E+00	 1.00000000E+00	 5.00000000E+00
	 5.00000000E-01	 5.00000000E-01	 5.00000000E+00
	 5.00000000E-01	 1.00000000E+00	 5.00000000E+00
	 1.00000000E+00	 5.00000000E-01	 4.50000000E+00
	 1.00000000E+00	 7.50000000E-01	 5.00000000E+00
	 1.00000000E+00	 1.00000000E+00	 4.50000000E+00
	 7.50000000E-01	 5.00000000E-01	 5.00000000E+00
	 7.50000000E-01	 1.00000000E+00	 5.00000000E+00
	 5.00000000E-01	 5.00000000E-01	 4.50000000E+00
	 5.00000000E-01	 7.50000000E-01	 5.00000000E+00
	 5.00000000E-01	 1.00000000E+00	 4.50000000E+00
	 1.00000000E+00	-1.49012000E-08	 5.00000000E+00
	 5.00000000E-01	-1.49012000E-08	 5.00000000E+00
	 1.00000000E+00	-1.49012000E-08	 4.50000000E+00
	 1.00000000E+00	 2.50000000E-01	 5.00000000E+00
	 7.50000000E-01	-1.49012000E-08	 5.00000000E+00
	 5.00000000E-01	-1.49012000E-08	 4.50000000E+00
	 5.00000000E-01	 2.50000000E-01	 5.00000000E+00
	-7.45058000E-09	 5.00000000E-01	 5.00000000E+00
	-7.45058000E-09	 1.00000000E+00	 5.00000000E+00
	 2.50000000E-01	 5.00000000E-01	 5.00000000E+00
	 2.50000000E-01	 1.00000000E+00	 5.00000000E+00
	-7.45058000E-09	 5.00000000E-01	 4.50000000E+00
	-7.45058000E-09	 7.50000000E-01	 5.00000000E+00
	-7.45058000E-09	 1.00000000E+00	 4.50000000E+00
	-7.45058000E-09	-1.49012000E-08	 5.00000000E+00
	 2.50000000E-01	-1.49012000E-08	 5.00000000E+00
	-7.45058000E-09	-1.49012000E-08	 4.50000000E+00
	-7.45058000E-09	 2.50000000E-01	 5.00000000E+00
	 1.00000000E+00	 5.00000000E-01	 6.00000000E+00
	 1.00000000E+00	 1.00000000E+00	 6.00000000E+00
	 5.00000000E-01	 5.00000000E-01	 6.00000000E+00
	 5.00000000E-01	 1.00000000E+00	 6.00000000E+00
	 1.00000000E+00	 5.00000000E-01	 5.50000000E+00
	 1.00000000E+00	 7.50000000E-01	 6.00000000E+00
	 1.00000000E+00	 1.00000000E+00	 5.50000000E+00
	 7.50000000E-01	 5.00000000E-01	 6.00000000E+00
	 7.50000000E-01	 1.00000000E+00	 6.00000000E+00
	 5.00000000E-01	 5.00000000E-01	 5.50000000E+00
	 5.00000000E-01	 7.50000000E-01	 6.00000000E+00
	 5.00000000E-01	 1.00000000E+00	 5.50000000E+00
	 1.00000000E+00	-1.49012000E-08	 6.00000000E+00
	 5.00000000E-01	-1.49012000E-08	 6.00000000E+00
	 1.00000000E+00	-1.49012000E-08	 5.50000000E+00
	 1.00000000E+00	 2.50000000E-01	 6.00000000E+00
	 7.50000000E-01	-1.49012000E-08	 6.00000000E+00
	 5.00000000E-01	-1.49012000E-08	 5.50000000E+00
	 5.00000000E-01	 2.50000000E-01	 6.00000000E+00
	-7.45058000E-09	 5.00000000E-01	 6.00000000E+00
	-7.45058000E-09	 1.00000000E+00	 6.00000000E+00
	 2.50000000E-01	 5.00000000E-01	 6.00000000E+00
	 2.50000000E-01	 1.00000000E+00	 6.00000000E+00
	-7.45058000E-09	 5.00000000E-01	 5.50000000E+00
	-7.45058000E-09	 7.50000000E-01	 6.00000000E+00
	-7.45058000E-09	 1.00000000E+00	 5.50000000E+00
	-7.45058000E-09	-1.49012000E-08	 6.00000000E+00
	 2.50000000E-01	-1.49012000E-08	 6.00000000E+00
	-7.45058000E-09	-1.49012000E-08	 5.50000000E+00
	-7.45058000E-09	 2.50000000E-01	 6.00000000E+00
	 1.00000000E+00	 5.00000000E-01	 7.00000000E+00
[...]
POINT_DATA 522
FIELD U 1
	U 3 522 double
		 0.00000000E+00	 0.00000000E+00	 0.00000000E+00
		 0.00000000E+00	 0.00000000E+00	 0.00000000E+00
		-8.27269000E-06	-2.53266000E-04	 3.76867000E-05
		-9.53988000E-04	-3.93810000E-04	 1.48111000E-03
		 0.00000000E+00	 0.00000000E+00	 0.00000000E+00
		 0.00000000E+00	 0.00000000E+00	 0.00000000E+00
		-3.66765000E-06	-1.07078000E-03	 2.72676000E-05
		-6.91857000E-04	-1.21000000E-03	 1.46827000E-03
		 0.00000000E+00	 0.00000000E+00	 0.00000000E+00
		-1.16722000E-06	 1.91517000E-04	 1.91990000E-05
		-4.84879000E-04	-2.84336000E-04	 8.68780000E-04
		-4.65607000E-04	 3.62051000E-05	 6.53007000E-04
		 0.00000000E+00	 0.00000000E+00	 0.00000000E+00
		 0.00000000E+00	 0.00000000E+00	 0.00000000E+00
		-6.13405000E-06	-7.02943000E-04	 3.27214000E-05
		-8.21184000E-04	-8.37864000E-04	 1.38582000E-03
		 0.00000000E+00	 0.00000000E+00	 0.00000000E+00
		 4.00792000E-06	-1.79793000E-04	 1.22892000E-05
		-3.46403000E-04	-1.09917000E-03	 7.68432000E-04
		-2.63539000E-04	-3.10702000E-04	 6.16129000E-04
		 0.00000000E+00	 0.00000000E+00	 0.00000000E+00
		 9.35283000E-04	-3.81897000E-04	-1.40904000E-03
		 0.00000000E+00	 0.00000000E+00	 0.00000000E+00
		 6.82545000E-04	-1.19526000E-03	-1.41432000E-03
		 0.00000000E+00	 0.00000000E+00	 0.00000000E+00
		 4.70286000E-04	 5.55000000E-05	-6.13928000E-04
		 4.67083000E-04	-2.77603000E-04	-7.94231000E-04
		 0.00000000E+00	 0.00000000E+00	 0.00000000E+00
		 8.07140000E-04	-8.25094000E-04	-1.32325000E-03
		 0.00000000E+00	 0.00000000E+00	 0.00000000E+00
		 2.78280000E-04	-3.00438000E-04	-5.89571000E-04
		 3.38092000E-04	-1.09148000E-03	-7.14249000E-04
		 0.00000000E+00	 0.00000000E+00	 0.00000000E+00
		 0.00000000E+00	 0.00000000E+00	 0.00000000E+00
		 8.98616000E-07	-1.62663000E-03	 1.58156000E-05
		-4.13129000E-04	-1.75376000E-03	 1.46032000E-03
		 0.00000000E+00	 0.00000000E+00	 0.00000000E+00
		 0.00000000E+00	 0.00000000E+00	 0.00000000E+00
		-1.23969000E-06	-1.38670000E-03	 2.13229000E-05
		-5.52720000E-04	-1.52338000E-03	 1.53448000E-03
		 0.00000000E+00	 0.00000000E+00	 0.00000000E+00
		 8.01661000E-06	-3.49953000E-04	 7.10742000E-06
		-2.07641000E-04	-1.64918000E-03	 6.86427000E-04
		-2.78762000E-05	-4.61461000E-04	 6.39612000E-04
		 0.00000000E+00	 0.00000000E+00	 0.00000000E+00
		 4.13121000E-04	-1.73622000E-03	-1.42670000E-03
		 0.00000000E+00	 0.00000000E+00	 0.00000000E+00
		 5.48130000E-04	-1.50671000E-03	-1.49011000E-03
		 0.00000000E+00	 0.00000000E+00	 0.00000000E+00
		 5.17939000E-05	-4.59906000E-04	-6.22448000E-04
		 2.08498000E-04	-1.64026000E-03	-6.54731000E-04
		-8.81228000E-06	-3.81754000E-03	 4.59538000E-05
		-2.14112000E-03	-4.00403000E-03	 3.59063000E-03
		-2.47715000E-06	-5.77359000E-03	 3.42504000E-05
		-1.78541000E-03	-5.96277000E-03	 3.56892000E-03
		-1.31891000E-05	-1.49409000E-03	 4.26072000E-05
		-1.07369000E-03	-3.86972000E-03	 1.91577000E-03
		-1.55586000E-03	-1.66160000E-03	 2.48372000E-03
		-4.95742000E-06	-4.83619000E-03	 4.04024000E-05
		-1.96309000E-03	-5.02576000E-03	 3.49595000E-03
		-8.97860000E-06	-2.87826000E-03	 3.53918000E-05
		-8.94835000E-04	-5.82762000E-03	 1.81484000E-03
		-1.23761000E-03	-3.04688000E-03	 2.46845000E-03
		 2.12535000E-03	-3.96157000E-03	-3.50057000E-03
		 1.78306000E-03	-5.92573000E-03	-3.50414000E-03
		 1.52557000E-03	-1.64205000E-03	-2.40006000E-03
		 1.05690000E-03	-3.84759000E-03	-1.82506000E-03
		 1.95542000E-03	-4.98683000E-03	-3.41631000E-03
		 1.21656000E-03	-3.02363000E-03	-2.39998000E-03
		 8.90826000E-04	-5.80896000E-03	-1.74712000E-03
		 3.26432000E-07	-7.38550000E-03	 2.54055000E-05
		-1.44307000E-03	-7.57704000E-03	 3.56699000E-03
		-9.60286000E-07	-6.62189000E-03	 2.90663000E-05
		-1.61466000E-03	-6.81040000E-03	 3.64587000E-03
		-5.33713000E-06	-3.94909000E-03	 2.81028000E-05
		-7.19762000E-04	-7.44027000E-03	 1.72988000E-03
		-9.18400000E-04	-4.11874000E-03	 2.46684000E-03
		 1.44774000E-03	-7.54619000E-03	-3.52147000E-03
		 1.61568000E-03	-6.77554000E-03	-3.59370000E-03
		 9.03750000E-04	-4.09060000E-03	-2.41349000E-03
		 7.22341000E-04	-7.42547000E-03	-1.67962000E-03
		-1.20998000E-05	-1.22289000E-02	 3.37774000E-05
		-3.07339000E-03	-1.24961000E-02	 6.19322000E-03
		-1.83486000E-06	-1.50502000E-02	 3.02111000E-06
		-2.59561000E-03	-1.53255000E-02	 6.15278000E-03
		-9.64569000E-06	-7.30487000E-03	 4.73738000E-05
		-1.54051000E-03	-1.23053000E-02	 3.17836000E-03
		-2.68508000E-03	-7.52796000E-03	 4.81165000E-03
		-7.34472000E-06	-1.36957000E-02	 1.79074000E-05
		-2.83481000E-03	-1.39701000E-02	 6.13269000E-03
		-1.54900000E-06	-9.77619000E-03	 2.35559000E-05
		-1.30033000E-03	-1.51296000E-02	 3.10520000E-03
		-2.27402000E-03	-1.00056000E-02	 4.77438000E-03
		 3.05464000E-03	-1.23892000E-02	-6.12972000E-03
		 2.59796000E-03	-1.52293000E-02	-6.14947000E-03
		 2.66981000E-03	-7.45793000E-03	-4.71939000E-03
		 1.51713000E-03	-1.22490000E-02	-3.11225000E-03
		 2.82668000E-03	-1.38701000E-02	-6.10055000E-03
		 2.27568000E-03	-9.94511000E-03	-4.72998000E-03
		 1.29819000E-03	-1.50810000E-02	-3.10042000E-03
		 7.67049000E-06	-1.74232000E-02	-2.13796000E-05
		-2.13952000E-03	-1.77028000E-02	 6.13861000E-03
		 3.49900000E-06	-1.62954000E-02	-1.00298000E-05
		-2.36768000E-03	-1.65711000E-02	 6.16743000E-03
		 3.87412000E-06	-1.18543000E-02	 4.92992000E-06
		-1.06579000E-03	-1.75048000E-02	 3.06134000E-03
		-1.88829000E-03	-1.20925000E-02	 4.76858000E-03
		 2.15933000E-03	-1.76118000E-02	-6.18366000E-03
		 2.37997000E-03	-1.64760000E-02	-6.19049000E-03
		 1.90192000E-03	-1.20397000E-02	-4.76162000E-03
		 1.08130000E-03	-1.74607000E-02	-3.10448000E-03
		 1.73889000E-05	-2.77084000E-02	-6.73620000E-05
		-3.15785000E-03	-2.80364000E-02	 9.35893000E-03
		 2.30547000E-05	-3.06244000E-02	-1.01143000E-04
		-2.66960000E-03	-3.09674000E-02	 9.33942000E-03
		-2.58031000E-06	-1.89793000E-02	-2.51669000E-06
		-1.56580000E-03	-2.78069000E-02	 4.59064000E-03
		-3.21940000E-03	-1.92737000E-02	 7.77762000E-03
		 2.22570000E-05	-2.92268000E-02	-8.54686000E-05
		-2.91112000E-03	-2.95675000E-02	 9.37049000E-03
		 7.94260000E-06	-2.19332000E-02	-3.37433000E-05
		-1.32427000E-03	-3.07308000E-02	 4.58440000E-03
		-2.70375000E-03	-2.22426000E-02	 7.74526000E-03
		 3.19125000E-03	-2.78281000E-02	-9.50774000E-03
		 2.71697000E-03	-3.07603000E-02	-9.55695000E-03
		 3.21588000E-03	-1.91205000E-02	-7.78803000E-03
		 1.60153000E-03	-2.77053000E-02	-4.72744000E-03
		 2.95434000E-03	-2.93576000E-02	-9.55716000E-03
		 2.72569000E-03	-2.20941000E-02	-7.81741000E-03
		 1.37122000E-03	-3.06263000E-02	-4.78960000E-03
		 2.47553000E-05	-3.30891000E-02	-1.30270000E-04
		-2.19746000E-03	-3.34262000E-02	 9.29789000E-03
		 2.33528000E-05	-3.19175000E-02	-1.16776000E-04
		-2.43590000E-03	-3.22587000E-02	 9.31209000E-03
		 1.62084000E-05	-2.44086000E-02	-6.26973000E-05
		-1.08845000E-03	-3.31950000E-02	 4.55580000E-03
		-2.21018000E-03	-2.47131000E-02	 7.71780000E-03
		 2.25248000E-03	-3.32257000E-02	-9.57252000E-03
		 2.48622000E-03	-3.20547000E-02	-9.55782000E-03
		 2.25451000E-03	-2.45793000E-02	-7.84645000E-03
		 1.14050000E-03	-3.30926000E-02	-4.82111000E-03
		 4.88116000E-05	-5.05149000E-02	-3.21070000E-04
		-2.51091000E-03	-5.07475000E-02	 1.14272000E-02
		 6.83480000E-05	-5.29990000E-02	-3.58123000E-04
		-2.30332000E-03	-5.32220000E-02	 1.14286000E-02
		 4.17592000E-05	-3.84242000E-02	-1.76343000E-04
		-1.23239000E-03	-5.06075000E-02	 5.43029000E-03
		-2.88376000E-03	-3.87059000E-02	 1.06430000E-02
		 5.62488000E-05	-5.17794000E-02	-3.41930000E-04
		-2.41039000E-03	-5.20076000E-02	 1.14779000E-02
		 4.95996000E-05	-4.11637000E-02	-2.16739000E-04
		-1.11771000E-03	-5.30867000E-02	 5.46243000E-03
		-2.51866000E-03	-4.14543000E-02	 1.06323000E-02
		 2.62957000E-03	-5.04487000E-02	-1.20694000E-02
		 2.45027000E-03	-5.29463000E-02	-1.21473000E-02
		 2.96261000E-03	-3.84625000E-02	-1.10108000E-02
		 1.33539000E-03	-5.04632000E-02	-6.07404000E-03
		 2.54184000E-03	-5.17208000E-02	-1.21606000E-02
		 2.61198000E-03	-4.12112000E-02	-1.10830000E-02
		 1.25723000E-03	-5.29562000E-02	-6.18004000E-03
		 8.55125000E-05	-5.52746000E-02	-3.92771000E-04
		-2.09979000E-03	-5.54997000E-02	 1.13616000E-02
		 7.94173000E-05	-5.41614000E-02	-3.74067000E-04
		-2.19782000E-03	-5.43835000E-02	 1.13853000E-02
		 5.26721000E-05	-4.35572000E-02	-2.38927000E-04
		-1.00628000E-03	-5.53627000E-02	 5.42948000E-03
		-2.16604000E-03	-4.38518000E-02	 1.05804000E-02
		 2.26963000E-03	-5.52328000E-02	-1.21485000E-02
		 2.35920000E-03	-5.41142000E-02	-1.21404000E-02
		 2.26075000E-03	-4.36005000E-02	-1.10802000E-02
		 1.17609000E-03	-5.52356000E-02	-6.21169000E-03
		 1.04245000E-04	-7.57067000E-02	-6.12449000E-04
		-1.79370000E-03	-7.58259000E-02	 1.13942000E-02
		 1.00070000E-04	-7.76246000E-02	-6.55464000E-04
		-1.83398000E-03	-7.77572000E-02	 1.13767000E-02
		 7.25489000E-05	-6.31391000E-02	-4.68718000E-04
		-8.43941000E-04	-7.57724000E-02	 5.33950000E-03
		-2.12214000E-03	-6.33330000E-02	 1.15826000E-02
		 1.06692000E-04	-7.66576000E-02	-6.31109000E-04
		-1.81366000E-03	-7.67844000E-02	 1.14206000E-02
		 7.77494000E-05	-6.53289000E-02	-5.02371000E-04
		-8.64960000E-04	-7.77032000E-02	 5.34636000E-03
		-2.07690000E-03	-6.55101000E-02	 1.15869000E-02
		 1.95882000E-03	-7.55601000E-02	-1.26358000E-02
		 2.01698000E-03	-7.74474000E-02	-1.26872000E-02
		 2.27859000E-03	-6.30145000E-02	-1.25198000E-02
		 1.03730000E-03	-7.56449000E-02	-6.56820000E-03
		 1.98900000E-03	-7.64902000E-02	-1.26985000E-02
		 2.24629000E-03	-6.52025000E-02	-1.25891000E-02
		 1.05846000E-03	-7.75433000E-02	-6.65678000E-03
		 8.96690000E-05	-7.95700000E-02	-6.92839000E-04
		-1.87086000E-03	-7.96973000E-02	 1.13383000E-02
		 9.17810000E-05	-7.85916000E-02	-6.77020000E-04
		-1.85215000E-03	-7.87215000E-02	 1.13328000E-02
		 8.01879000E-05	-6.74563000E-02	-5.50156000E-04
		-8.90083000E-04	-7.96442000E-02	 5.33559000E-03
		-2.02726000E-03	-6.76343000E-02	 1.15235000E-02
		 2.06887000E-03	-7.94040000E-02	-1.27259000E-02
		 2.04171000E-03	-7.84167000E-02	-1.26788000E-02
		 2.21302000E-03	-6.73536000E-02	-1.26140000E-02
		 1.07584000E-03	-7.94946000E-02	-6.72732000E-03
		 1.18850000E-04	-9.97461000E-02	-9.30145000E-04
		-1.44039000E-03	-9.98475000E-02	 1.07203000E-02
		 1.13031000E-04	-1.01318000E-01	-9.36251000E-04
		-1.49168000E-03	-1.01445000E-01	 1.06949000E-02
		 1.08283000E-04	-8.78877000E-02	-7.65302000E-04
		-6.50868000E-04	-9.98009000E-02	 4.89173000E-03
		-1.58062000E-03	-8.79909000E-02	 1.10570000E-02
		 1.14741000E-04	-1.00520000E-01	-9.33621000E-04
		-1.46614000E-03	-1.00643000E-01	 1.07234000E-02
		 1.11309000E-04	-8.96000000E-02	-8.02382000E-04
		-6.83765000E-04	-1.01391000E-01	 4.88705000E-03
		-1.63464000E-03	-8.97220000E-02	 1.10313000E-02
		 1.62481000E-03	-9.95961000E-02	-1.25589000E-02
		 1.71553000E-03	-1.01148000E-01	-1.25695000E-02
		 1.75543000E-03	-8.77458000E-02	-1.26016000E-02
		 8.73909000E-04	-9.96787000E-02	-6.74711000E-03
		 1.66247000E-03	-1.00354000E-01	-1.25759000E-02
		 1.83583000E-03	-8.94315000E-02	-1.26442000E-02
		 9.07845000E-04	-1.01236000E-01	-6.76514000E-03
		 1.12966000E-04	-1.02969000E-01	-9.75691000E-04
		-1.54225000E-03	-1.03077000E-01	 1.06450000E-02
		 1.13416000E-04	-1.02139000E-01	-9.52526000E-04
		-1.51380000E-03	-1.02257000E-01	 1.06491000E-02
		 1.13234000E-04	-9.13829000E-02	-8.35200000E-04
		-7.14014000E-04	-1.03029000E-01	 4.86013000E-03
		-1.68921000E-03	-9.15063000E-02	 1.09966000E-02
		 1.79996000E-03	-1.02810000E-01	-1.25834000E-02
		 1.76237000E-03	-1.01972000E-01	-1.25602000E-02
		 1.90189000E-03	-9.12047000E-02	-1.26666000E-02
		 9.50555000E-04	-1.02898000E-01	-6.79964000E-03
		 2.21516000E-04	-1.22781000E-01	-1.21554000E-03
		-1.33878000E-03	-1.22946000E-01	 1.02994000E-02
		 1.35501000E-04	-1.24246000E-01	-1.19727000E-03
		-1.35824000E-03	-1.24446000E-01	 1.02676000E-02
		 1.55771000E-04	-1.11302000E-01	-1.08731000E-03
		-5.55218000E-04	-1.22874000E-01	 4.54586000E-03
		-1.36943000E-03	-1.11447000E-01	 1.04715000E-02
		 1.91494000E-04	-1.23525000E-01	-1.19843000E-03
		-1.34221000E-03	-1.23711000E-01	 1.02902000E-02
		 1.20063000E-04	-1.12816000E-01	-1.06482000E-03
		-6.22733000E-04	-1.24358000E-01	 4.53668000E-03
		-1.39090000E-03	-1.12978000E-01	 1.04450000E-02
		 1.69628000E-03	-1.22603000E-01	-1.26970000E-02
		 1.65780000E-03	-1.24032000E-01	-1.26207000E-02
		 1.62347000E-03	-1.11149000E-01	-1.25906000E-02
		 9.67372000E-04	-1.22682000E-01	-6.96941000E-03
		 1.68294000E-03	-1.23319000E-01	-1.26553000E-02
		 1.65337000E-03	-1.12633000E-01	-1.25429000E-02
		 9.04571000E-04	-1.24128000E-01	-6.92172000E-03
		 5.46681000E-05	-1.25708000E-01	-1.27063000E-03
		-1.38507000E-03	-1.25818000E-01	 1.01714000E-02
		 7.94722000E-05	-1.24962000E-01	-1.22281000E-03
		-1.37965000E-03	-1.25143000E-01	 1.02200000E-02
		 9.50309000E-05	-1.14357000E-01	-1.12247000E-03
		-6.96374000E-04	-1.25764000E-01	 4.44898000E-03
		-1.41101000E-03	-1.14449000E-01	 1.03655000E-02
		 1.64561000E-03	-1.25550000E-01	-1.26225000E-02
		 1.64424000E-03	-1.24774000E-01	-1.26049000E-02
		 1.70487000E-03	-1.14226000E-01	-1.25597000E-02
		 8.48151000E-04	-1.25628000E-01	-6.95837000E-03
		 0.00000000E+00	 0.00000000E+00	 0.00000000E+00
		 0.00000000E+00	 0.00000000E+00	 0.00000000E+00
		 1.40473000E-04	-1.31314000E-02	-3.96013000E-04
		-2.81920000E-03	-1.41204000E-02	 1.32953000E-02
		 0.00000000E+00	 0.00000000E+00	 0.00000000E+00
		 0.00000000E+00	 0.00000000E+00	 0.00000000E+00
		 1.01259000E-04	-1.51459000E-02	-3.80103000E-04
		-1.02185000E-03	-1.62071000E-02	 1.34568000E-02
		 0.00000000E+00	 0.00000000E+00	 0.00000000E+00
		 8.64917000E-05	-2.42680000E-03	-1.51344000E-04
		-1.34054000E-03	-1.33103000E-02	 6.40320000E-03
		-2.59674000E-03	-3.64307000E-03	 6.74259000E-03
		 0.00000000E+00	 0.00000000E+00	 0.00000000E+00
		 0.00000000E+00	 0.00000000E+00	 0.00000000E+00
		 1.20723000E-04	-1.44434000E-02	-3.92716000E-04
		-1.90665000E-03	-1.54677000E-02	 1.32844000E-02
		 0.00000000E+00	 0.00000000E+00	 0.00000000E+00
		 3.24916000E-05	-3.96806000E-03	-1.35941000E-04
		-4.60107000E-04	-1.53481000E-02	 6.39667000E-03
		-5.82212000E-04	-5.18158000E-03	 6.56918000E-03
		 0.00000000E+00	 0.00000000E+00	 0.00000000E+00
		 3.05791000E-03	-1.37532000E-02	-1.41492000E-02
		 0.00000000E+00	 0.00000000E+00	 0.00000000E+00
		 1.21993000E-03	-1.58164000E-02	-1.42858000E-02
		 0.00000000E+00	 0.00000000E+00	 0.00000000E+00
		 2.75046000E-03	-3.55774000E-03	-7.07796000E-03
		 1.60685000E-03	-1.31222000E-02	-7.21371000E-03
		 0.00000000E+00	 0.00000000E+00	 0.00000000E+00
		 2.12986000E-03	-1.50843000E-02	-1.41350000E-02
		 0.00000000E+00	 0.00000000E+00	 0.00000000E+00
		 6.50722000E-04	-5.09542000E-03	-6.86129000E-03
		 6.60725000E-04	-1.51504000E-02	-7.17908000E-03
		 0.00000000E+00	 0.00000000E+00	 0.00000000E+00
		 0.00000000E+00	 0.00000000E+00	 0.00000000E+00
		 6.54413000E-05	-1.53765000E-02	-3.07164000E-04
		 7.80751000E-04	-1.63751000E-02	 1.33883000E-02
		 0.00000000E+00	 0.00000000E+00	 0.00000000E+00
		 0.00000000E+00	 0.00000000E+00	 0.00000000E+00
		 8.17033000E-05	-1.55654000E-02	-3.53758000E-04
		-1.35736000E-04	-1.65940000E-02	 1.34977000E-02
		 0.00000000E+00	 0.00000000E+00	 0.00000000E+00
		-1.27629000E-05	-3.65996000E-03	-1.00177000E-04
		 4.25809000E-04	-1.55558000E-02	 6.32252000E-03
		 1.47450000E-03	-4.84902000E-03	 6.80075000E-03
		 0.00000000E+00	 0.00000000E+00	 0.00000000E+00
		-6.24547000E-04	-1.59813000E-02	-1.40600000E-02
		 0.00000000E+00	 0.00000000E+00	 0.00000000E+00
		 3.04270000E-04	-1.61965000E-02	-1.42695000E-02
		 0.00000000E+00	 0.00000000E+00	 0.00000000E+00
		-1.47737000E-03	-4.75164000E-03	-7.02402000E-03
		-2.83588000E-04	-1.53636000E-02	-6.95297000E-03
		 3.78560000E-04	-5.31474000E-02	-1.44836000E-03
		-2.92325000E-03	-5.44503000E-02	 2.33790000E-02
		 3.51931000E-04	-5.57227000E-02	-1.43652000E-03
		-1.51468000E-03	-5.70331000E-02	 2.34391000E-02
		 2.48207000E-04	-3.02943000E-02	-8.15579000E-04
		-1.27093000E-03	-5.36363000E-02	 1.08830000E-02
		-2.94807000E-03	-3.15202000E-02	 1.88371000E-02
		 3.66217000E-04	-5.45953000E-02	-1.45209000E-03
		-2.21827000E-03	-5.59024000E-02	 2.33931000E-02
		 2.06868000E-04	-3.26425000E-02	-7.95207000E-04
		-5.76281000E-04	-5.62171000E-02	 1.09120000E-02
		-1.31024000E-03	-3.38808000E-02	 1.89134000E-02
		 3.67172000E-03	-5.32166000E-02	-2.63590000E-02
		 2.21688000E-03	-5.58087000E-02	-2.63996000E-02
		 3.40950000E-03	-3.07675000E-02	-2.05540000E-02
		 2.02357000E-03	-5.30274000E-02	-1.37998000E-02
		 2.94825000E-03	-5.46769000E-02	-2.63779000E-02
		 1.71873000E-03	-3.31116000E-02	-2.05926000E-02
		 1.28423000E-03	-5.56128000E-02	-1.38022000E-02
		 3.14685000E-04	-5.68894000E-02	-1.34802000E-03
		-8.87880000E-05	-5.81597000E-02	 2.34758000E-02
		 3.33501000E-04	-5.64636000E-02	-1.40206000E-03
		-7.99975000E-04	-5.77919000E-02	 2.35154000E-02
		 1.65814000E-04	-3.33318000E-02	-7.05423000E-04
		 1.03575000E-04	-5.73561000E-02	 1.09089000E-02
		 3.16598000E-04	-3.45715000E-02	 1.89463000E-02
		 7.59546000E-04	-5.69672000E-02	-2.62612000E-02
		 1.48634000E-03	-5.65475000E-02	-2.64122000E-02
		 4.73939000E-05	-3.38153000E-02	-2.04452000E-02
		 5.39560000E-04	-5.67739000E-02	-1.36208000E-02
		 7.12253000E-04	-1.12271000E-01	-3.38733000E-03
		-2.92542000E-03	-1.13721000E-01	 2.91481000E-02
		 6.98117000E-04	-1.15455000E-01	-3.41494000E-03
		-2.05707000E-03	-1.17000000E-01	 2.91802000E-02
		 5.39953000E-04	-8.07943000E-02	-2.30551000E-03
		-1.10562000E-03	-1.12878000E-01	 1.28112000E-02
		-2.86551000E-03	-8.22138000E-02	 2.68127000E-02
		 7.06975000E-04	-1.13980000E-01	-3.40417000E-03
		-2.49206000E-03	-1.15484000E-01	 2.90985000E-02
		 5.15748000E-04	-8.36209000E-02	-2.31232000E-03
		-7.03958000E-04	-1.16109000E-01	 1.27390000E-02
		-1.72594000E-03	-8.50386000E-02	 2.68726000E-02
		 4.31726000E-03	-1.11656000E-01	-3.59678000E-02
		 3.46054000E-03	-1.14850000E-01	-3.60900000E-02
		 3.93546000E-03	-8.05343000E-02	-3.15047000E-02
		 2.51806000E-03	-1.11857000E-01	-1.95923000E-02
		 3.88780000E-03	-1.13362000E-01	-3.59787000E-02
		 2.76506000E-03	-8.33492000E-02	-3.15782000E-02
		 2.07912000E-03	-1.15055000E-01	-1.96042000E-02
		 6.72261000E-04	-1.17786000E-01	-3.38227000E-03
		-1.28111000E-03	-1.19429000E-01	 2.91469000E-02
		 6.86581000E-04	-1.16744000E-01	-3.41011000E-03
		-1.67066000E-03	-1.18221000E-01	 2.92913000E-02
		 4.90808000E-04	-8.52911000E-02	-2.24688000E-03
		-2.77280000E-04	-1.18484000E-01	 1.26047000E-02
		-6.03320000E-04	-8.67134000E-02	 2.68745000E-02
		 2.59194000E-03	-1.17208000E-01	-3.60185000E-02
		 3.02684000E-03	-1.16127000E-01	-3.61973000E-02
		 1.56014000E-03	-8.50150000E-02	-3.14511000E-02
		 1.62386000E-03	-1.17415000E-01	-1.94245000E-02
		 1.13569000E-03	-1.82067000E-01	-5.95453000E-03
		-3.35862000E-03	-1.83450000E-01	 3.02605000E-02
		 1.13047000E-03	-1.86486000E-01	-6.05518000E-03
		-3.17778000E-03	-1.88307000E-01	 3.01948000E-02
		 8.83294000E-04	-1.46375000E-01	-4.62541000E-03
		-1.11441000E-03	-1.82728000E-01	 1.21853000E-02
		-3.11916000E-03	-1.47907000E-01	 3.01634000E-02
		 1.13737000E-03	-1.84277000E-01	-6.00531000E-03
		-3.25821000E-03	-1.85818000E-01	 3.01521000E-02
		 8.71766000E-04	-1.50158000E-01	-4.72626000E-03
		-9.00783000E-04	-1.87350000E-01	 1.20182000E-02
		-2.63771000E-03	-1.51623000E-01	 3.02055000E-02
		 5.47352000E-03	-1.80918000E-01	-4.21946000E-02
		 5.15443000E-03	-1.85179000E-01	-4.23189000E-02
		 4.86520000E-03	-1.45469000E-01	-3.94493000E-02
		 3.30631000E-03	-1.81466000E-01	-2.40969000E-02
		 5.32136000E-03	-1.83080000E-01	-4.21867000E-02
		 4.32220000E-03	-1.49204000E-01	-3.95875000E-02
		 3.12865000E-03	-1.85784000E-01	-2.41361000E-02
		 9.75648000E-04	-1.90600000E-01	-6.13657000E-03
		-2.86756000E-03	-1.92774000E-01	 3.00914000E-02
		 1.05516000E-03	-1.88540000E-01	-6.10301000E-03
		-3.01854000E-03	-1.91066000E-01	 3.02446000E-02
		 8.26353000E-04	-1.53383000E-01	-4.81525000E-03
		-1.06167000E-03	-1.91615000E-01	 1.18148000E-02
		-1.98013000E-03	-1.54717000E-01	 3.01272000E-02
		 4.83557000E-03	-1.89159000E-01	-4.23637000E-02