<?xml version="1.0"?>
<VTKFile type="UnstructuredGrid" version="0.1" byte_order="LittleEndian">
	<UnstructuredGrid>
		<Piece NumberOfPoints="522" NumberOfCells="64">
			<Points>
				<DataArray type="Float64" NumberOfComponents="3" format="ascii">
					 1.00000000E+00	 1.00000000E+00	-5.96046000E-08
					 1.00000000E+00	 5.00000000E-01	-5.96046000E-08
					 1.00000000E+00	 5.00000000E-01	 1.00000000E+00
					 1.00000000E+00	 1.00000000E+00	 1.00000000E+00
					 5.00000000E-01	 1.00000000E+00	-5.96046000E-08
					 5.00000000E-01	 5.00000000E-01	-5.96046000E-08
					 5.00000000E-01	 5.00000000E-01	 1.00000000E+00
					 5.00000000E-01	 1.00000000E+00	 1.00000000E+00
					 1.00000000E+00	 7.50000000E-01	-5.96046000E-08
					 1.00000000E+00	 5.00000000E-01	 5.00000000E-01
					 1.00000000E+00	 7.50000000E-01	 1.00000000E+00
					 1.00000000E+00	 1.00000000E+00	 5.00000000E-01
					 7.50000000E-01	 1.00000000E+00	-5.96046000E-08
					 7.50000000E-01	 5.00000000E-01	-5.96046000E-08
					 7.50000000E-01	 5.00000000E-01	 1.00000000E+00
					 7.50000000E-01	 1.00000000E+00	 1.00000000E+00
					 5.00000000E-01	 7.50000000E-01	-5.96046000E-08
					 5.00000000E-01	 5.00000000E-01	 5.00000000E-01
					 5.00000000E-01	 7.50000000E-01	 1.00000000E+00
					 5.00000000E-01	 1.00000000E+00	 5.00000000E-01
					 1.00000000E+00	-1.49012000E-08	-5.96046000E-08
					 1.00000000E+00	-1.49012000E-08	 1.00000000E+00
					 5.00000000E-01	-1.49012000E-08	-5.96046000E-08
					 5.00000000E-01	-1.49012000E-08	 1.00000000E+00
					 1.00000000E+00	 2.50000000E-01	-5.96046000E-08
					 1.00000000E+00	-1.49012000E-08	 5.00000000E-01
					 1.00000000E+00	 2.50000000E-01	 1.00000000E+00
					 7.50000000E-01	-1.49012000E-08	-5.96046000E-08
					 7.50000000E-01	-1.49012000E-08	 1.00000000E+00
					 5.00000000E-01	 2.50000000E-01	-5.96046000E-08
					 5.00000000E-01	-1.49012000E-08	 5.00000000E-01
					 5.00000000E-01	 2.50000000E-01	 1.00000000E+00
					-7.45058000E-09	 1.00000000E+00	-5.96046000E-08
					-7.45058000E-09	 5.00000000E-01	-5.96046000E-08
					-7.45058000E-09	 5.00000000E-01	 1.00000000E+00
					-7.45058000E-09	 1.00000000E+00	 1.00000000E+00
					 2.50000000E-01	 1.00000000E+00	-5.96046000E-08
					 2.50000000E-01	 5.00000000E-01	-5.96046000E-08
					 2.50000000E-01	 5.00000000E-01	 1.00000000E+00
					 2.50000000E-01	 1.00000000E+00	 1.00000000E+00
					-7.45058000E-09	 7.50000000E-01	-5.96046000E-08
					-7.45058000E-09	 5.00000000E-01	 5.00000000E-01
					-7.45058000E-09	 7.50000000E-01	 1.00000000E+00
					-7.45058000E-09	 1.00000000E+00	 5.00000000E-01
					-7.45058000E-09	-1.49012000E-08	-5.96046000E-08
					-7.45058000E-09	-1.49012000E-08	 1.00000000E+00
					 2.50000000E-01	-1.49012000E-08	-5.96046000E-08
					 2.50000000E-01	-1.49012000E-08	 1.00000000E+00
					-7.45058000E-09	 2.50000000E-01	-5.96046000E-08
					-7.45058000E-09	-1.49012000E-08	 5.00000000E-01
					-7.45058000E-09	 2.50000000E-01	 1.00000000E+00
					 1.00000000E+00	 5.00000000E-01	 2.00000000E+00
					 1.00000000E+00	 1.00000000E+00	 2.00000000E+00
					 5.00000000E-01	 5.00000000E-01	 2.00000000E+00
					 5.00000000E-01	 1.00000000E+00	 2.00000000E+00
					 1.00000000E+00	 5.00000000E-01	 1.50000000E+00
					 1.00000000E+00	 7.50000000E-01	 2.00000000E+00
					 1.00000000E+00	 1.00000000E+00	 1.50000000E+00
					 7.50000000E-01	 5.00000000E-01	 2.00000000E+00
					 7.50000000E-01	 1.00000000E+00	 2.00000000E+00
					 5.00000000E-01	 5.00000000E-01	 1.50000000E+00
					 5.00000000E-01	 7.50000000E-01	 2.00000000E+00
					 5.00000000E-01	 1.00000000E+00	 1.50000000E+00
					 1.00000000E+00	-1.49012000E-08	 2.00000000E+00
					 5.00000000E-01	-1.49012000E-08	 2.00000000E+00
					 1.00000000E+00	-1.49012000E-08	 1.50000000E+00
					 1.00000000E+00	 2.50000000E-01	 2.00000000E+00
					 7.50000000E-01	-1.49012000E-08	 2.00000000E+00
					 5.00000000E-01	-1.49012000E-08	 1.50000000E+00
					 5.00000000E-01	 2.50000000E-01	 2.00000000E+00
					-7.45058000E-09	 5.00000000E-01	 2.00000000E+00
					-7.45058000E-09	 1.00000000E+00	 2.00000000E+00
					 2.50000000E-01	 5.00000000E-01	 2.00000000E+00
					 2.50000000E-01	 1.00000000E+00	 2.00000000E+00
					-7.45058000E-09	 5.00000000E-01	 1.50000000E+00
					-7.45058000E-09	 7.50000000E-01	 2.00000000E+00
					-7.45058000E-09	 1.00000000E+00	 1.50000000E+00
					-7.45058000E-09	-1.49012000E-08	 2.00000000E+00
					 2.50000000E-01	-1.49012000E-08	 2.00000000E+00
					-7.45058000E-09	-1.49012000E-08	 1.50000000E+00
					-7.45058000E-09	 2.50000000E-01	 2.00000000E+00
					 1.00000000E+00	 5.00000000E-01	 3.00000000E+00
					 1.00000000E+00	 1.00000000E+00	 3.00000000E+00
					 5.00000000E-01	 5.00000000E-01	 3.00000000E+00
					 5.00000000E-01	 1.00000000E+00	 3.00000000E+00
					 1.00000000E+00	 5.00000000E-01	 2.50000000E+00
					 1.00000000E+00	 7.50000000E-01	 3.00000000E+00
					 1.00000000E+00	 1.00000000E+00	 2.50000000E+00
					 7.50000000E-01	 5.00000000E-01	 3.00000000E+00
					 7.50000000E-01	 1.00000000E+00	 3.00000000E+00
					 5.00000000E-01	 5.00000000E-01	 2.50000000E+00
					 5.00000000E-01	 7.50000000E-01	 3.00000000E+00
					 5.00000000E-01	 1.00000000E+00	 2.50000000E+00
					 1.00000000E+00	-1.49012000E-08	 3.00000000E+00
					 5.00000000E-01	-1.49012000E-08	 3.00000000E+00
					 1.00000000E+00	-1.49012000E-08	 2.50000000E+00
					 1.00000000E+00	 2.50000000E-01	 3.00000000E+00
					 7.50000000E-01	-1.49012000E-08	 3.00000000E+00
					 5.00000000E-01	-1.49012000E-08	 2.50000000E+00
					 5.00000000E-01	 2.50000000E-01	 3.00000000E+00
					-7.45058000E-09	 5.00000000E-01	 3.00000000E+00
					-7.45058000E-09	 1.00000000E+00	 3.00000000E+00
					 2.50000000E-01	 5.00000000E-01	 3.00000000E+00
					 2.50000000E-01	 1.00000000E+00	 3.00000000E+00
					-7.45058000E-09	 5.00000000E-01	 2.50000000E+00
					-7.45058000E-09	 7.50000000E-01	 3.00000000E+00
					-7.45058000E-09	 1.00000000E+00	 2.50000000E+00
					-7.45058000E-09	-1.49012000E-08	 3.00000000E+00
					 2.50000000E-01	-1.49012000E-08	 3.00000000E+00
					-7.45058000E-09	-1.49012000E-08	 2.50000000E+00
					-7.45058000E-09	 2.50000000E-01	 3.00000000E+00
					 1.00000000E+00	 5.00000000E-01	 4.00000000E+00
					 1.00000000E+00	 1.00000000E+00	 4.00000000E+00
					 5.00000000E-01	 5.00000000E-01	 4.00000000E+00
					 5.00000000E-01	 1.00000000E+00	 4.00000000E+00
					 1.00000000E+00	 5.00000000E-01	 3.50000000E+00
					 1.00000000E+00	 7.50000000E-01	 4.00000000E+00
					 1.00000000E+00	 1.00000000E+00	 3.50000000E+00
					 7.50000000E-01	 5.00000000E-01	 4.00000000E+00
					 7.50000000E-01	 1.00000000E+00	 4.00000000E+00
					 5.00000000E-01	 5.00000000E-01	 3.50000000E+00
					 5.00000000E-01	 7.50000000E-01	 4.00000000E+00
					 5.00000000E-01	 1.00000000E+00	 3.50000000E+00
					 1.00000000E+00	-1.49012000E-08	 4.00000000E+00
					 5.00000000E-01	-1.49012000E-08	 4.00000000E+00
					 1.00000000E+00	-1.49012000E-08	 3.50000000E+00
					 1.00000000E+00	 2.50000000E-01	 4.00000000E+00
					 7.50000000E-01	-1.49012000E-08	 4.00000000E+00
					 5.00000000E-01	-1.49012000E-08	 3.50000000E+00
					 5.00000000E-01	 2.50000000E-01	 4.00000000E+00
					-7.45058000E-09	 5.00000000E-01	 4.00000000E+00
					-7.45058000E-09	 1.00000000E+00	 4.00000000E+00
					 2.50000000E-01	 5.00000000E-01	 4.00000000E+00
					 2.50000000E-01	 1.00000000E+00	 4.00000000E+00
					-7.45058000E-09	 5.00000000E-01	 3.50000000E+00
					-7.45058000E-09	 7.50000000E-01	 4.00000000E+00
					-7.45058000E-09	 1.00000000E+00	 3.50000000E+00
					-7.45058000E-09	-1.49012000E-08	 4.00000000E+00
					 2.50000000E-01	-1.49012000E-08	 4.00000000E+00
					-7.45058000E-09	-1.49012000E-08	 3.50000000E+00
					-7.45058000E-09	 2.50000000E-01	 4.00000000E+00
					 1.00000000E+00	 5.00000000E-01	 5.00000000E+00
					 1.00000000E+00	 1.00000000E+00	 5.00000000E+00
					 5.00000000E-01	 5.00000000E-01	 5.00000000E+00
					 5.00000000E-01	 1.00000000E+00	 5.00000000E+00
					 1.00000000E+00	 5.00000000E-01	 4.50000000E+00
					 1.00000000E+00	 7.50000000E-01	 5.00000000E+00
					 1.00000000E+00	 1.00000000E+00	 4.50000000E+00
					 7.50000000E-01	 5.00000000E-01	 5.00000000E+00
					 7.50000000E-01	 1.00000000E+00	 5.00000000E+00
					 5.00000000E-01	 5.00000000E-01	 4.50000000E+00
					 5.00000000E-01	 7.50000000E-01	 5.00000000E+00
					 5.00000000E-01	 1.00000000E+00	 4.50000000E+00
					 1.00000000E+00	-1.49012000E-08	 5.00000000E+00
					 5.00000000E-01	-1.49012000E-08	 5.00000000E+00
					 1.00000000E+00	-1.49012000E-08	 4.50000000E+00
					 1.00000000E+00	 2.50000000E-01	 5.00000000E+00
					 7.50000000E-01	-1.49012000E-08	 5.00000000E+00
					 5.00000000E-01	-1.49012000E-08	 4.50000000E+00
					 5.00000000E-01	 2.50000000E-01	 5.00000000E+00
					-7.45058000E-09	 5.00000000E-01	 5.00000000E+00
					-7.45058000E-09	 1.00000000E+00	 5.00000000E+00
					 2.50000000E-01	 5.00000000E-01	 5.00000000E+00
					 2.50000000E-01	 1.00000000E+00	 5.00000000E+00
					-7.45058000E-09	 5.00000000E-01	 4.50000000E+00
					-7.45058000E-09	 7.50000000E-01	 5.00000000E+00
					-7.45058000E-09	 1.00000000E+00	 4.50000000E+00
					-7.45058000E-09	-1.49012000E-08	 5.00000000E+00
					 2.50000000E-01	-1.49012000E-08	 5.00000000E+00
					-7.45058000E-09	-1.49012000E-08	 4.50000000E+00
					-7.45058000E-09	 2.50000000E-01	 5.00000000E+00
					 1.00000000E+00	 5.00000000E-01	 6.00000000E+00
					 1.00000000E+00	 1.00000000E+00	 6.00000000E+00
					 5.00000000E-01	 5.00000000E-01	 6.00000000E+00
					 5.00000000E-01	 1.00000000E+00	 6.00000000E+00
					 1.00000000E+00	 5.00000000E-01	 5.50000000E+00
					 1.00000000E+00	 7.50000000E-01	 6.00000000E+00
					 1.00000000E+00	 1.00000000E+00	 5.50000000E+00
					 7.50000000E-01	 5.00000000E-01	 6.00000000E+00
					 7.50000000E-01	 1.00000000E+00	 6.00000000E+00
					 5.00000000E-01	 5.00000000E-01	 5.50000000E+00
					 5.00000000E-01	 7.50000000E-01	 6.00000000E+00
					 5.00000000E-01	 1.00000000E+00	 5.50000000E+00
					 1.00000000E+00	-1.49012000E-08	 6.00000000E+00
[...]
			<PointData>
				<DataArray type="Float32" Name="U" NumberOfComponents="3" ComponentName0="D1" ComponentName1="D2" ComponentName2="D3" format="ascii">
					 0.00000000E+00	 0.00000000E+00	 0.00000000E+00
					 0.00000000E+00	 0.00000000E+00	 0.00000000E+00
					-6.01862000E-05	 5.33961000E-03	-1.18802000E-04
					-7.45900000E-04	 5.62037000E-03	-3.95579000E-03
					 0.00000000E+00	 0.00000000E+00	 0.00000000E+00
					 0.00000000E+00	 0.00000000E+00	 0.00000000E+00
					-2.34433000E-05	 4.57626000E-03	-1.49556000E-04
					-1.14535000E-03	 4.76369000E-03	-4.10512000E-03
					 0.00000000E+00	 0.00000000E+00	 0.00000000E+00
					 1.91534000E-05	 1.59078000E-03	-4.92465000E-05
					-3.27743000E-04	 5.36772000E-03	-1.87209000E-03
					-2.61781000E-05	 1.92010000E-03	-2.04646000E-03
					 0.00000000E+00	 0.00000000E+00	 0.00000000E+00
					 0.00000000E+00	 0.00000000E+00	 0.00000000E+00
					-4.24776000E-05	 5.01514000E-03	-1.09664000E-04
					-9.38255000E-04	 5.21825000E-03	-4.10009000E-03
					 0.00000000E+00	 0.00000000E+00	 0.00000000E+00
					-4.80221000E-06	 1.24254000E-03	-7.41587000E-05
					-5.67616000E-04	 4.55946000E-03	-2.05166000E-03
					-6.23048000E-04	 1.57334000E-03	-2.02298000E-03
					 0.00000000E+00	 0.00000000E+00	 0.00000000E+00
					 5.98669000E-04	 5.69460000E-03	 3.78489000E-03
					 0.00000000E+00	 0.00000000E+00	 0.00000000E+00
					 1.06543000E-03	 4.84355000E-03	 3.81961000E-03
					 0.00000000E+00	 0.00000000E+00	 0.00000000E+00
					 3.03254000E-05	 1.89452000E-03	 1.94718000E-03
					 2.46179000E-04	 5.43710000E-03	 1.74579000E-03
					 0.00000000E+00	 0.00000000E+00	 0.00000000E+00
					 8.19463000E-04	 5.24780000E-03	 3.88954000E-03
					 0.00000000E+00	 0.00000000E+00	 0.00000000E+00
					 5.67902000E-04	 1.57136000E-03	 1.86744000E-03
					 4.77917000E-04	 4.60967000E-03	 1.82240000E-03
					 0.00000000E+00	 0.00000000E+00	 0.00000000E+00
					 0.00000000E+00	 0.00000000E+00	 0.00000000E+00
					-2.15955000E-05	 3.22892000E-03	-1.69841000E-04
					-1.51252000E-03	 3.40650000E-03	-3.95382000E-03
					 0.00000000E+00	 0.00000000E+00	 0.00000000E+00
					 0.00000000E+00	 0.00000000E+00	 0.00000000E+00
					-1.95202000E-05	 3.98046000E-03	-1.40612000E-04
					-1.31876000E-03	 4.17447000E-03	-3.95136000E-03
					 0.00000000E+00	 0.00000000E+00	 0.00000000E+00
					-2.88128000E-05	 4.08428000E-04	-8.60745000E-05
					-7.71223000E-04	 3.24163000E-03	-2.08525000E-03
					-1.19428000E-03	 7.46664000E-04	-2.07204000E-03
					 0.00000000E+00	 0.00000000E+00	 0.00000000E+00
					 1.56857000E-03	 3.45668000E-03	 3.77577000E-03
					 0.00000000E+00	 0.00000000E+00	 0.00000000E+00
					 1.33617000E-03	 4.24020000E-03	 3.71397000E-03
					 0.00000000E+00	 0.00000000E+00	 0.00000000E+00
					 1.11360000E-03	 7.23570000E-04	 1.96529000E-03
					 7.41019000E-04	 3.26982000E-03	 1.84782000E-03
					 2.69572000E-05	 1.69230000E-02	-2.61493000E-05
					-8.32277000E-04	 1.69290000E-02	-6.84367000E-03
					-4.64578000E-05	 1.57724000E-02	-7.16297000E-05
					-1.34112000E-03	 1.59480000E-02	-6.86911000E-03
					-6.20322000E-05	 1.04926000E-02	-1.06800000E-04
					-4.75247000E-04	 1.69094000E-02	-3.46011000E-03
					-9.00493000E-04	 1.07400000E-02	-5.51188000E-03
					 1.09324000E-05	 1.64127000E-02	-7.55770000E-05
					-1.09238000E-03	 1.65730000E-02	-6.84026000E-03
					-3.79993000E-05	 9.45798000E-03	-8.97533000E-05
					-6.96431000E-04	 1.58172000E-02	-3.45178000E-03
					-1.25887000E-03	 9.61763000E-03	-5.56960000E-03
					 8.53804000E-04	 1.71346000E-02	 6.75107000E-03
					 1.25335000E-03	 1.60495000E-02	 6.70281000E-03
					 8.15352000E-04	 1.07535000E-02	 5.38617000E-03
					 4.35847000E-04	 1.69841000E-02	 3.30583000E-03
					 1.05521000E-03	 1.66468000E-02	 6.72522000E-03
					 1.22930000E-03	 9.72399000E-03	 5.37116000E-03
					 6.48276000E-04	 1.58932000E-02	 3.24710000E-03
					-4.08634000E-05	 1.43543000E-02	-1.32183000E-04
					-1.73304000E-03	 1.43480000E-02	-6.93879000E-03
					-4.35972000E-05	 1.50957000E-02	-1.19408000E-04
					-1.53877000E-03	 1.52195000E-02	-6.96437000E-03
					 8.86951000E-06	 7.98926000E-03	-1.13317000E-04
					-8.80177000E-04	 1.43217000E-02	-3.46359000E-03
					-1.70069000E-03	 8.15453000E-03	-5.55782000E-03
					 1.63302000E-03	 1.46084000E-02	 6.64555000E-03
					 1.41294000E-03	 1.53491000E-02	 6.70543000E-03
					 1.69960000E-03	 8.22198000E-03	 5.32890000E-03
					 8.00844000E-04	 1.44278000E-02	 3.18468000E-03
					-5.90044000E-05	 3.41574000E-02	-2.22951000E-04
					-1.85026000E-03	 3.40718000E-02	-8.74943000E-03
					-2.65472000E-05	 3.22866000E-02	-2.88433000E-04
					-1.89255000E-03	 3.23081000E-02	-8.76661000E-03
					-4.63357000E-05	 2.49485000E-02	-1.18653000E-04
					-9.61362000E-04	 3.41148000E-02	-4.31209000E-03
					-1.15245000E-03	 2.49456000E-02	-7.99899000E-03
					-4.53026000E-05	 3.32183000E-02	-2.62629000E-04
					-1.90171000E-03	 3.32007000E-02	-8.85889000E-03
					-3.57133000E-05	 2.36247000E-02	-1.91040000E-04
					-9.78219000E-04	 3.22768000E-02	-4.43240000E-03
					-1.51144000E-03	 2.36715000E-02	-8.07955000E-03
					 1.63384000E-03	 3.41476000E-02	 8.20049000E-03
					 1.83245000E-03	 3.24544000E-02	 8.21305000E-03
					 1.07812000E-03	 2.50369000E-02	 7.69929000E-03
					 8.26296000E-04	 3.41508000E-02	 3.77291000E-03
					 1.75159000E-03	 3.33478000E-02	 8.34175000E-03
					 1.45019000E-03	 2.37921000E-02	 7.72484000E-03
					 8.67979000E-04	 3.23613000E-02	 3.89906000E-03
					-2.30508000E-05	 3.04271000E-02	-3.12720000E-04
					-1.90876000E-03	 3.04715000E-02	-8.73221000E-03
					-5.03328000E-05	 3.13529000E-02	-2.79386000E-04
					-1.87586000E-03	 3.13364000E-02	-8.69003000E-03
					-6.15059000E-05	 2.19700000E-02	-1.90359000E-04
					-9.73220000E-04	 3.04482000E-02	-4.50519000E-03
					-1.78067000E-03	 2.20649000E-02	-8.03432000E-03
					 1.86385000E-03	 3.04511000E-02	 8.21475000E-03
					 1.88149000E-03	 3.14838000E-02	 8.12514000E-03
					 1.73374000E-03	 2.21890000E-02	 7.64589000E-03
					 8.89690000E-04	 3.04213000E-02	 4.00191000E-03
					-1.24231000E-04	 5.30791000E-02	-4.88256000E-04
					-3.47350000E-03	 5.29021000E-02	-8.65644000E-03
					-1.04687000E-04	 4.97820000E-02	-4.26743000E-04
					-3.26818000E-03	 4.97418000E-02	-8.64832000E-03
					-9.42574000E-05	 4.37256000E-02	-3.66587000E-04
					-1.81150000E-03	 5.30299000E-02	-4.50380000E-03
					-2.70721000E-03	 4.36366000E-02	-8.86597000E-03
					-9.88937000E-05	 5.13859000E-02	-4.60207000E-04
					-3.35188000E-03	 5.12729000E-02	-8.73720000E-03
					-7.76212000E-05	 4.11550000E-02	-3.51299000E-04
					-1.66852000E-03	 4.97508000E-02	-4.52427000E-03
					-2.64798000E-03	 4.10875000E-02	-8.85304000E-03
					 3.31849000E-03	 5.30789000E-02	 7.80960000E-03
					 3.04643000E-03	 4.98236000E-02	 7.77700000E-03
					 2.50707000E-03	 4.38325000E-02	 8.16823000E-03
					 1.53970000E-03	 5.30644000E-02	 3.58582000E-03
					 3.17181000E-03	 5.13835000E-02	 7.83846000E-03
					 2.48042000E-03	 4.11973000E-02	 8.14159000E-03
					 1.48001000E-03	 4.98111000E-02	 3.70084000E-03
					-1.00895000E-04	 4.66922000E-02	-3.65237000E-04
					-3.21515000E-03	 4.64955000E-02	-8.62306000E-03
					-1.13777000E-04	 4.82021000E-02	-4.05238000E-04
					-3.22083000E-03	 4.81270000E-02	-8.56599000E-03
					-6.40576000E-05	 3.85978000E-02	-3.21586000E-04
					-1.61897000E-03	 4.66459000E-02	-4.56447000E-03
					-2.59141000E-03	 3.85107000E-02	-8.82643000E-03
					 3.00384000E-03	 4.66765000E-02	 7.85340000E-03
					 3.00430000E-03	 4.82176000E-02	 7.77545000E-03
					 2.46848000E-03	 3.86792000E-02	 8.19545000E-03
					 1.46925000E-03	 4.66862000E-02	 3.75872000E-03
					-1.18286000E-04	 6.87811000E-02	-6.41073000E-04
					-3.36523000E-03	 6.85918000E-02	-8.22744000E-03
					-1.14615000E-04	 6.54706000E-02	-5.03257000E-04
					-3.31912000E-03	 6.53600000E-02	-8.11796000E-03
					-1.12781000E-04	 6.11336000E-02	-5.52457000E-04
					-1.72489000E-03	 6.86672000E-02	-4.48162000E-03
					-3.53779000E-03	 6.10606000E-02	-8.39252000E-03
					-1.52327000E-04	 6.71142000E-02	-5.67841000E-04
					-3.33852000E-03	 6.69245000E-02	-8.12236000E-03
					-1.19018000E-04	 5.78164000E-02	-5.07570000E-04
					-1.72486000E-03	 6.54290000E-02	-4.35313000E-03
					-3.38779000E-03	 5.77021000E-02	-8.34528000E-03
					 3.20733000E-03	 6.88174000E-02	 6.94664000E-03
					 3.18878000E-03	 6.55425000E-02	 7.02970000E-03
					 3.31671000E-03	 6.12428000E-02	 7.34437000E-03
					 1.54661000E-03	 6.88119000E-02	 3.23893000E-03
					 3.21697000E-03	 6.71581000E-02	 6.95953000E-03
					 3.18363000E-03	 5.78619000E-02	 7.37716000E-03
					 1.50501000E-03	 6.55241000E-02	 3.27647000E-03
					-2.38611000E-05	 6.22872000E-02	-4.61290000E-04
					-3.24235000E-03	 6.21686000E-02	-8.05593000E-03
					-5.44395000E-05	 6.38866000E-02	-4.81583000E-04
					-3.29716000E-03	 6.37354000E-02	-8.14884000E-03
					-8.63831000E-05	 5.45856000E-02	-4.31835000E-04
					-1.69418000E-03	 6.22260000E-02	-4.24461000E-03
					-3.25340000E-03	 5.44655000E-02	-8.35080000E-03
					 3.01568000E-03	 6.23685000E-02	 7.12535000E-03
					 3.11377000E-03	 6.39298000E-02	 7.12403000E-03
					 3.04232000E-03	 5.45947000E-02	 7.47150000E-03
					 1.51827000E-03	 6.23390000E-02	 3.28107000E-03
					-1.19145000E-04	 8.25163000E-02	-7.37705000E-04
					-2.48751000E-03	 8.23343000E-02	-8.17472000E-03
					-9.67218000E-05	 8.00346000E-02	-7.87514000E-04
					-2.49515000E-03	 8.01144000E-02	-8.17707000E-03
					-5.91645000E-05	 7.56627000E-02	-6.91766000E-04
					-1.33233000E-03	 8.24232000E-02	-4.53956000E-03
					-2.92658000E-03	 7.56500000E-02	-8.13153000E-03
					-1.00392000E-04	 8.12807000E-02	-7.51630000E-04
					-2.48267000E-03	 8.12349000E-02	-8.08231000E-03
					-6.81051000E-05	 7.28015000E-02	-6.11200000E-04
					-1.29766000E-03	 8.00927000E-02	-4.47088000E-03
					-2.90560000E-03	 7.27199000E-02	-8.07422000E-03
					 2.47441000E-03	 8.25466000E-02	 6.70140000E-03
					 2.36356000E-03	 8.01196000E-02	 6.75299000E-03
					 2.84950000E-03	 7.57993000E-02	 6.73018000E-03
					 1.15689000E-03	 8.25568000E-02	 3.04285000E-03
					 2.43344000E-03	 8.13330000E-02	 6.66093000E-03
					 2.76359000E-03	 7.28197000E-02	 6.83919000E-03
					 1.15579000E-03	 8.00349000E-02	 2.99502000E-03
					-1.13752000E-04	 7.76719000E-02	-7.22539000E-04
					-2.56244000E-03	 7.74717000E-02	-8.09975000E-03
					-1.05107000E-04	 7.88274000E-02	-7.29879000E-04
					-2.52955000E-03	 7.88449000E-02	-8.13705000E-03
					-9.29744000E-05	 6.99936000E-02	-5.74192000E-04
					-1.27647000E-03	 7.75785000E-02	-4.37379000E-03
					-2.83374000E-03	 6.99532000E-02	-7.99807000E-03
					 2.37032000E-03	 7.75471000E-02	 6.77811000E-03
					 2.33619000E-03	 7.88531000E-02	 6.76139000E-03
					 2.69958000E-03	 7.00956000E-02	 6.88456000E-03
					 1.10326000E-03	 7.76303000E-02	 3.06393000E-03
					-1.05606000E-04	 9.69828000E-02	-8.52174000E-04
					-2.26320000E-03	 9.66557000E-02	-8.28620000E-03
					-8.99765000E-05	 9.47467000E-02	-7.96927000E-04
					-2.28863000E-03	 9.48139000E-02	-8.19517000E-03
					-1.35671000E-04	 8.97196000E-02	-8.41712000E-04
					-1.26250000E-03	 9.68183000E-02	-4.54786000E-03
					-2.26498000E-03	 8.95549000E-02	-8.17232000E-03
					-1.22502000E-04	 9.58148000E-02	-8.49317000E-04
					-2.28044000E-03	 9.57690000E-02	-8.22763000E-03
					-1.05192000E-04	 8.74336000E-02	-7.79969000E-04
					-1.19930000E-03	 9.47926000E-02	-4.52046000E-03
					-2.39952000E-03	 8.73061000E-02	-8.23508000E-03
					 2.02493000E-03	 9.70873000E-02	 6.62113000E-03
					 2.18294000E-03	 9.47613000E-02	 6.50741000E-03
					 2.19090000E-03	 8.97510000E-02	 6.64977000E-03
					 1.05926000E-03	 9.70454000E-02	 2.88583000E-03
					 2.12666000E-03	 9.59409000E-02	 6.59087000E-03
					 2.20886000E-03	 8.74890000E-02	 6.62157000E-03
					 1.01675000E-03	 9.47656000E-02	 2.86260000E-03
					 8.01885000E-06	 9.25108000E-02	-5.48403000E-04
					-2.28023000E-03	 9.24084000E-02	-8.13024000E-03
					-4.23839000E-05	 9.36618000E-02	-6.94476000E-04
					-2.28829000E-03	 9.35804000E-02	-8.14789000E-03
					-5.83153000E-05	 8.51276000E-02	-6.97020000E-04
					-1.14951000E-03	 9.24496000E-02	-4.37848000E-03
					-2.42758000E-03	 8.50687000E-02	-8.12166000E-03
					 2.21990000E-03	 9.25310000E-02	 6.68493000E-03
					 2.22094000E-03	 9.36489000E-02	 6.63811000E-03
					 2.22685000E-03	 8.52180000E-02	 6.68304000E-03
					 1.12486000E-03	 9.25181000E-02	 2.96274000E-03
					-2.67076000E-04	 1.11724000E-01	-6.79718000E-04
					-1.70705000E-03	 1.11720000E-01	-8.56318000E-03
					-9.51288000E-05	 1.09521000E-01	-7.43866000E-04
					-1.96604000E-03	 1.09848000E-01	-8.78103000E-03
					-9.37975000E-05	 1.04197000E-01	-7.14041000E-04
					-1.02948000E-03	 1.11730000E-01	-4.63800000E-03
					-2.05301000E-03	 1.04082000E-01	-8.44130000E-03
					-1.90805000E-04	 1.10736000E-01	-7.70371000E-04
					-1.81052000E-03	 1.10844000E-01	-8.59008000E-03
					 9.97398000E-06	 1.02111000E-01	-7.44843000E-04
					-1.05954000E-03	 1.09712000E-01	-4.69768000E-03
					-2.25871000E-03	 1.02040000E-01	-8.29811000E-03
					 2.06773000E-03	 1.12256000E-01	 7.17777000E-03
					 2.01693000E-03	 1.09171000E-01	 6.28311000E-03
					 2.10076000E-03	 1.04345000E-01	 6.74439000E-03
					 7.68210000E-04	 1.11977000E-01	 3.18034000E-03
					 2.06276000E-03	 1.10699000E-01	 6.72946000E-03
					 2.20837000E-03	 1.02236000E-01	 6.50999000E-03
					 9.03907000E-04	 1.09313000E-01	 2.89094000E-03
					 1.77702000E-04	 1.07226000E-01	-5.32063000E-04
					-2.56686000E-03	 1.06700000E-01	-8.06379000E-03
					 5.95729000E-05	 1.08353000E-01	-6.99166000E-04
					-2.29213000E-03	 1.08471000E-01	-8.38921000E-03
					 2.80963000E-05	 9.98086000E-02	-6.05975000E-04
					-9.75425000E-04	 1.06994000E-01	-4.33916000E-03
					-2.51802000E-03	 9.95953000E-02	-8.15640000E-03
					 1.98329000E-03	 1.07148000E-01	 6.42296000E-03
					 2.01207000E-03	 1.07979000E-01	 6.28591000E-03
					 1.96591000E-03	 1.00104000E-01	 6.56898000E-03
					 1.22261000E-03	 1.07205000E-01	 3.08620000E-03
					 0.00000000E+00	 0.00000000E+00	 0.00000000E+00
					 0.00000000E+00	 0.00000000E+00	 0.00000000E+00
					 9.42051000E-05	-1.19351000E-02	-2.37248000E-04
					-1.48874000E-03	-1.28438000E-02	 1.10318000E-02
					 0.00000000E+00	 0.00000000E+00	 0.00000000E+00
					 0.00000000E+00	 0.00000000E+00	 0.00000000E+00
					 1.59920000E-05	-1.26425000E-02	-2.45309000E-04
					 7.76995000E-05	-1.35707000E-02	 1.11066000E-02
					 0.00000000E+00	 0.00000000E+00	 0.00000000E+00
					 6.67313000E-05	-2.71166000E-03	-3.50634000E-05
					-7.40502000E-04	-1.21191000E-02	 5.34720000E-03
					-1.43487000E-03	-3.73689000E-03	 5.58754000E-03
					 0.00000000E+00	 0.00000000E+00	 0.00000000E+00
					 0.00000000E+00	 0.00000000E+00	 0.00000000E+00
					 5.73347000E-05	-1.25462000E-02	-2.54835000E-04
					-7.15309000E-04	-1.33491000E-02	 1.10763000E-02
					 0.00000000E+00	 0.00000000E+00	 0.00000000E+00
					 4.73311000E-05	-3.31705000E-03	-1.10749000E-04
					 4.60723000E-06	-1.28302000E-02	 5.35518000E-03
					 1.36991000E-04	-4.31048000E-03	 5.40628000E-03
					 0.00000000E+00	 0.00000000E+00	 0.00000000E+00
					 1.27700000E-03	-1.27523000E-02	-1.15845000E-02
					 0.00000000E+00	 0.00000000E+00	 0.00000000E+00
					-1.05264000E-04	-1.32308000E-02	-1.18366000E-02
					 0.00000000E+00	 0.00000000E+00	 0.00000000E+00
					 1.46692000E-03	-3.76092000E-03	-5.85732000E-03
					 8.37235000E-04	-1.20514000E-02	-5.79589000E-03
					 0.00000000E+00	 0.00000000E+00	 0.00000000E+00
					 6.07761000E-04	-1.30829000E-02	-1.16384000E-02
					 0.00000000E+00	 0.00000000E+00	 0.00000000E+00
					-1.54334000E-04	-4.27002000E-03	-5.67984000E-03
					-4.36567000E-05	-1.26378000E-02	-5.89987000E-03
					 0.00000000E+00	 0.00000000E+00	 0.00000000E+00
					 0.00000000E+00	 0.00000000E+00	 0.00000000E+00
					-3.18710000E-05	-1.17222000E-02	-3.67553000E-04
					 1.55183000E-03	-1.26047000E-02	 1.10586000E-02
					 0.00000000E+00	 0.00000000E+00	 0.00000000E+00
					 0.00000000E+00	 0.00000000E+00	 0.00000000E+00
					-9.65876000E-06	-1.24357000E-02	-3.08272000E-04
					 8.35242000E-04	-1.33247000E-02	 1.10803000E-02
					 0.00000000E+00	 0.00000000E+00	 0.00000000E+00
					 4.29665000E-07	-2.43940000E-03	-1.16585000E-04
					 7.41235000E-04	-1.19118000E-02	 5.24979000E-03
					 1.77001000E-03	-3.45965000E-03	 5.61953000E-03
					 0.00000000E+00	 0.00000000E+00	 0.00000000E+00
					-1.55091000E-03	-1.23042000E-02	-1.15936000E-02
					 0.00000000E+00	 0.00000000E+00	 0.00000000E+00
					-8.13146000E-04	-1.30297000E-02	-1.17214000E-02
					 0.00000000E+00	 0.00000000E+00	 0.00000000E+00
					-1.90918000E-03	-3.31067000E-03	-5.86801000E-03
					-7.40982000E-04	-1.17707000E-02	-5.84243000E-03
					 1.13052000E-04	-4.42279000E-02	-6.77627000E-04
					-2.37167000E-03	-4.52654000E-02	 1.98764000E-02
					-4.42857000E-06	-4.59700000E-02	-8.61747000E-04
					-1.06730000E-03	-4.70287000E-02	 1.96764000E-02
					 8.94963000E-06	-2.58508000E-02	-4.45232000E-04
					-1.11485000E-03	-4.46048000E-02	 9.58737000E-03
					-1.75627000E-03	-2.68760000E-02	 1.57818000E-02
					 7.53184000E-05	-4.52521000E-02	-7.74503000E-04
					-1.71714000E-03	-4.63328000E-02	 1.96500000E-02
					 1.54369000E-05	-2.70060000E-02	-5.06094000E-04
					-5.00070000E-04	-4.63961000E-02	 9.30181000E-03
					-4.34749000E-04	-2.79576000E-02	 1.57801000E-02
					 2.53095000E-03	-4.42290000E-02	-2.12294000E-02
					 1.07137000E-03	-4.60980000E-02	-2.14936000E-02
					 1.76424000E-03	-2.63833000E-02	-1.66349000E-02
					 1.21646000E-03	-4.41314000E-02	-1.10160000E-02
					 1.79510000E-03	-4.54539000E-02	-2.12778000E-02
					 4.74102000E-04	-2.74201000E-02	-1.68380000E-02
					 5.55185000E-04	-4.58976000E-02	-1.10912000E-02
					-2.39253000E-05	-4.65756000E-02	-9.61207000E-04
					 5.18302000E-05	-4.76165000E-02	 1.95665000E-02
					-1.29474000E-05	-4.64089000E-02	-9.26740000E-04
					-5.37194000E-04	-4.75030000E-02	 1.97834000E-02
					-1.01547000E-05	-2.67358000E-02	-5.36659000E-04
					 2.40432000E-05	-4.69326000E-02	 9.04147000E-03
					 9.81255000E-04	-2.76865000E-02	 1.57018000E-02
					-6.79866000E-05	-4.65950000E-02	-2.15615000E-02
					 4.99628000E-04	-4.64891000E-02	-2.17468000E-02
					-9.59995000E-04	-2.71320000E-02	-1.68225000E-02
					-8.03698000E-05	-4.64610000E-02	-1.09849000E-02
					-2.75310000E-05	-9.36245000E-02	-1.97548000E-03
					-2.79717000E-03	-9.43845000E-02	 2.47018000E-02
					-1.49760000E-05	-9.58757000E-02	-2.19197000E-03
					-1.93730000E-03	-9.70500000E-02	 2.45690000E-02
					 1.21353000E-05	-6.72070000E-02	-1.25158000E-03
					-1.32180000E-03	-9.39259000E-02	 1.11380000E-02
					-2.79153000E-03	-6.80617000E-02	 2.28363000E-02
					-9.06886000E-06	-9.48055000E-02	-2.10165000E-03
					-2.35360000E-03	-9.58939000E-02	 2.46932000E-02
					 1.91946000E-05	-6.93685000E-02	-1.49047000E-03
					-1.02445000E-03	-9.63927000E-02	 1.10396000E-02
					-1.71420000E-03	-7.03811000E-02	 2.27384000E-02
					 2.51798000E-03	-9.31261000E-02	-2.87404000E-02
					 2.06824000E-03	-9.54603000E-02	-2.89712000E-02
					 2.75842000E-03	-6.69627000E-02	-2.54308000E-02
					 1.24018000E-03	-9.33139000E-02	-1.51734000E-02
					 2.25634000E-03	-9.43558000E-02	-2.88746000E-02
					 1.70838000E-03	-6.92286000E-02	-2.56874000E-02
					 1.00481000E-03	-9.55918000E-02	-1.53931000E-02
					 2.31601000E-05	-9.76350000E-02	-2.36240000E-03
					-1.61343000E-03	-9.88480000E-02	 2.44066000E-02
					-2.92645000E-05	-9.68222000E-02	-2.24562000E-03
					-1.72763000E-03	-9.78865000E-02	 2.44924000E-02
					-1.35763000E-05	-7.05916000E-02	-1.56463000E-03
					-7.82208000E-04	-9.81462000E-02	 1.08676000E-02
					-8.05704000E-04	-7.17409000E-02	 2.25256000E-02
					 1.46483000E-03	-9.72842000E-02	-2.90689000E-02
					 1.79802000E-03	-9.64073000E-02	-2.90757000E-02
					 7.74281000E-04	-7.04861000E-02	-2.56827000E-02
					 7.72187000E-04	-9.74277000E-02	-1.55219000E-02
					-1.44456000E-04	-1.51355000E-01	-3.63247000E-03
					-1.87395000E-03	-1.51969000E-01	 2.49768000E-02