<?xml version="1.0"?>
<VTKFile type="UnstructuredGrid" version="0.1" byte_order="LittleEndian">
	<UnstructuredGrid>
		<Piece NumberOfPoints="522" NumberOfCells="64">
			<Points>
				<DataArray type="Float64" NumberOfComponents="3" format="ascii">
					 1.00000000E+00	 1.00000000E+00	-5.96046000E-08
					 1.00000000E+00	 5.00000000E-01	-5.96046000E-08
					 1.00000000E+00	 5.00000000E-01	 1.00000000E+00
					 1.00000000E+00	 1.00000000E+00	 1.00000000E+00
					 5.00000000E-01	 1.00000000E+00	-5.96046000E-08
					 5.00000000E-01	 5.00000000E-01	-5.96046000E-08
					 5.00000000E-01	 5.00000000E-01	 1.00000000E+00
					 5.00000000E-01	 1.00000000E+00	 1.00000000E+00
					 1.00000000E+00	 7.50000000E-01	-5.96046000E-08
					 1.00000000E+00	 5.00000000E-01	 5.00000000E-01
					 1.00000000E+00	 7.50000000E-01	 1.00000000E+00
					 1.00000000E+00	 1.00000000E+00	 5.00000000E-01
					 7.50000000E-01	 1.00000000E+00	-5.96046000E-08
					 7.50000000E-01	 5.00000000E-01	-5.96046000E-08
					 7.50000000E-01	 5.00000000E-01	 1.00000000E+00
					 7.50000000E-01	 1.00000000E+00	 1.00000000E+00
					 5.00000000E-01	 7.50000000E-01	-5.96046000E-08
					 5.00000000E-01	 5.00000000E-01	 5.00000000E-01
					 5.00000000E-01	 7.50000000E-01	 1.00000000E+00
					 5.00000000E-01	 1.00000000E+00	 5.00000000E-01
					 1.00000000E+00	-1.49012000E-08	-5.96046000E-08
					 1.00000000E+00	-1.49012000E-08	 1.00000000E+00
					 5.00000000E-01	-1.49012000E-08	-5.96046000E-08
					 5.00000000E-01	-1.49012000E-08	 1.00000000E+00
					 1.00000000E+00	 2.50000000E-01	-5.96046000E-08
					 1.00000000E+00	-1.49012000E-08	 5.00000000E-01
					 1.00000000E+00	 2.50000000E-01	 1.00000000E+00
					 7.50000000E-01	-1.49012000E-08	-5.96046000E-08
					 7.50000000E-01	-1.49012000E-08	 1.00000000E+00
					 5.00000000E-01	 2.50000000E-01	-5.96046000E-08
					 5.00000000E-01	-1.49012000E-08	 5.00000000E-01
					 5.00000000E-01	 2.50000000E-01	 1.00000000E+00
					-7.45058000E-09	 1.00000000E+00	-5.96046000E-08
					-7.45058000E-09	 5.00000000E-01	-5.96046000E-08
					-7.45058000E-09	 5.00000000E-01	 1.00000000E+00
					-7.45058000E-09	 1.00000000E+00	 1.00000000E+00
					 2.50000000E-01	 1.00000000E+00	-5.96046000E-08
					 2.50000000E-01	 5.00000000E-01	-5.96046000E-08
					 2.50000000E-01	 5.00000000E-01	 1.00000000E+00
					 2.50000000E-01	 1.00000000E+00	 1.00000000E+00
					-7.45058000E-09	 7.50000000E-01	-5.96046000E-08
					-7.45058000E-09	 5.00000000E-01	 5.00000000E-01
					-7.45058000E-09	 7.50000000E-01	 1.00000000E+00
					-7.45058000E-09	 1.00000000E+00	 5.00000000E-01
					-7.45058000E-09	-1.49012000E-08	-5.96046000E-08
					-7.45058000E-09	-1.49012000E-08	 1.00000000E+00
					 2.50000000E-01	-1.49012000E-08	-5.96046000E-08
					 2.50000000E-01	-1.49012000E-08	 1.00000000E+00
					-7.45058000E-09	 2.50000000E-01	-5.96046000E-08
					-7.45058000E-09	-1.49012000E-08	 5.00000000E-01
					-7.45058000E-09	 2.50000000E-01	 1.00000000E+00
					 1.00000000E+00	 5.00000000E-01	 2.00000000E+00
					 1.00000000E+00	 1.00000000E+00	 2.00000000E+00
					 5.00000000E-01	 5.00000000E-01	 2.00000000E+00
					 5.00000000E-01	 1.00000000E+00	 2.00000000E+00
					 1.00000000E+00	 5.00000000E-01	 1.50000000E+00
					 1.00000000E+00	 7.50000000E-01	 2.00000000E+00
					 1.00000000E+00	 1.00000000E+00	 1.50000000E+00
					 7.50000000E-01	 5.00000000E-01	 2.00000000E+00
					 7.50000000E-01	 1.00000000E+00	 2.00000000E+00
					 5.00000000E-01	 5.00000000E-01	 1.50000000E+00
					 5.00000000E-01	 7.50000000E-01	 2.00000000E+00
					 5.00000000E-01	 1.00000000E+00	 1.50000000E+00
					 1.00000000E+00	-1.49012000E-08	 2.00000000E+00
					 5.00000000E-01	-1.49012000E-08	 2.00000000E+00
					 1.00000000E+00	-1.49012000E-08	 1.50000000E+00
					 1.00000000E+00	 2.50000000E-01	 2.00000000E+00
					 7.50000000E-01	-1.49012000E-08	 2.00000000E+00
					 5.00000000E-01	-1.49012000E-08	 1.50000000E+00
					 5.00000000E-01	 2.50000000E-01	 2.00000000E+00
					-7.45058000E-09	 5.00000000E-01	 2.00000000E+00
					-7.45058000E-09	 1.00000000E+00	 2.00000000E+00
					 2.50000000E-01	 5.00000000E-01	 2.00000000E+00
					 2.50000000E-01	 1.00000000E+00	 2.00000000E+00
					-7.45058000E-09	 5.00000000E-01	 1.50000000E+00
					-7.45058000E-09	 7.50000000E-01	 2.00000000E+00
					-7.45058000E-09	 1.00000000E+00	 1.50000000E+00
					-7.45058000E-09	-1.49012000E-08	 2.00000000E+00
					 2.50000000E-01	-1.49012000E-08	 2.00000000E+00
					-7.45058000E-09	-1.49012000E-08	 1.50000000E+00
					-7.45058000E-09	 2.50000000E-01	 2.00000000E+00
					 1.00000000E+00	 5.00000000E-01	 3.00000000E+00
					 1.00000000E+00	 1.00000000E+00	 3.00000000E+00
					 5.00000000E-01	 5.00000000E-01	 3.00000000E+00
					 5.00000000E-01	 1.00000000E+00	 3.00000000E+00
					 1.00000000E+00	 5.00000000E-01	 2.50000000E+00
					 1.00000000E+00	 7.50000000E-01	 3.00000000E+00
					 1.00000000E+00	 1.00000000E+00	 2.50000000E+00
					 7.50000000E-01	 5.00000000E-01	 3.00000000E+00
					 7.50000000E-01	 1.00000000E+00	 3.00000000E+00
					 5.00000000E-01	 5.00000000E-01	 2.50000000E+00
					 5.00000000E-01	 7.50000000E-01	 3.00000000E+00
					 5.00000000E-01	 1.00000000E+00	 2.50000000E+00
					 1.00000000E+00	-1.49012000E-08	 3.00000000E+00
					 5.00000000E-01	-1.49012000E-08	 3.00000000E+00
					 1.00000000E+00	-1.49012000E-08	 2.50000000E+00
					 1.00000000E+00	 2.50000000E-01	 3.00000000E+00
					 7.50000000E-01	-1.49012000E-08	 3.00000000E+00
					 5.00000000E-01	-1.49012000E-08	 2.50000000E+00
					 5.00000000E-01	 2.50000000E-01	 3.00000000E+00
					-7.45058000E-09	 5.00000000E-01	 3.00000000E+00
					-7.45058000E-09	 1.00000000E+00	 3.00000000E+00
					 2.50000000E-01	 5.00000000E-01	 3.00000000E+00
					 2.50000000E-01	 1.00000000E+00	 3.00000000E+00
					-7.45058000E-09	 5.00000000E-01	 2.50000000E+00
					-7.45058000E-09	 7.50000000E-01	 3.00000000E+00
					-7.45058000E-09	 1.00000000E+00	 2.50000000E+00
					-7.45058000E-09	-1.49012000E-08	 3.00000000E+00
					 2.50000000E-01	-1.49012000E-08	 3.00000000E+00
					-7.45058000E-09	-1.49012000E-08	 2.50000000E+00
					-7.45058000E-09	 2.50000000E-01	 3.00000000E+00
					 1.00000000E+00	 5.00000000E-01	 4.00000000E+00
					 1.00000000E+00	 1.00000000E+00	 4.00000000E+00
					 5.00000000E-01	 5.00000000E-01	 4.00000000E+00
					 5.00000000E-01	 1.00000000E+00	 4.00000000E+00
					 1.00000000E+00	 5.00000000E-01	 3.50000000E+00
					 1.00000000E+00	 7.50000000E-01	 4.00000000E+00
					 1.00000000E+00	 1.00000000E+00	 3.50000000E+00
					 7.50000000E-01	 5.00000000E-01	 4.00000000E+00
					 7.50000000E-01	 1.00000000E+00	 4.00000000E+00
					 5.00000000E-01	 5.00000000E-01	 3.50000000E+00
					 5.00000000E-01	 7.50000000E-01	 4.00000000E+00
					 5.00000000E-01	 1.00000000E+00	 3.50000000E+00
					 1.00000000E+00	-1.49012000E-08	 4.00000000E+00
					 5.00000000E-01	-1.49012000E-08	 4.00000000E+00
					 1.00000000E+00	-1.49012000E-08	 3.50000000E+00
					 1.00000000E+00	 2.50000000E-01	 4.00000000E+00
					 7.50000000E-01	-1.49012000E-08	 4.00000000E+00
					 5.00000000E-01	-1.49012000E-08	 3.50000000E+00
					 5.00000000E-01	 2.50000000E-01	 4.00000000E+00
					-7.45058000E-09	 5.00000000E-01	 4.00000000E+00
					-7.45058000E-09	 1.00000000E+00	 4.00000000E+00
					 2.50000000E-01	 5.00000000E-01	 4.00000000E+00
					 2.50000000E-01	 1.00000000E+00	 4.00000000E+00
					-7.45058000E-09	 5.00000000E-01	 3.50000000E+00
					-7.45058000E-09	 7.50000000E-01	 4.00000000E+00
					-7.45058000E-09	 1.00000000E+00	 3.50000000E+00
					-7.45058000E-09	-1.49012000E-08	 4.00000000E+00
					 2.50000000E-01	-1.49012000E-08	 4.00000000E+00
					-7.45058000E-09	-1.49012000E-08	 3.50000000E+00
					-7.45058000E-09	 2.50000000E-01	 4.00000000E+00
					 1.00000000E+00	 5.00000000E-01	 5.00000000E+00
					 1.00000000E+00	 1.00000000E+00	 5.00000000E+00
					 5.00000000E-01	 5.00000000E-01	 5.00000000E+00
					 5.00000000E-01	 1.00000000E+00	 5.00000000E+00
					 1.00000000E+00	 5.00000000E-01	 4.50000000E+00
					 1.00000000E+00	 7.50000000E-01	 5.00000000E+00
					 1.00000000E+00	 1.00000000E+00	 4.50000000E+00
					 7.50000000E-01	 5.00000000E-01	 5.00000000E+00
					 7.50000000E-01	 1.00000000E+00	 5.00000000E+00
					 5.00000000E-01	 5.00000000E-01	 4.50000000E+00
					 5.00000000E-01	 7.50000000E-01	 5.00000000E+00
					 5.00000000E-01	 1.00000000E+00	 4.50000000E+00
					 1.00000000E+00	-1.49012000E-08	 5.00000000E+00
					 5.00000000E-01	-1.49012000E-08	 5.00000000E+00
					 1.00000000E+00	-1.49012000E-08	 4.50000000E+00
					 1.00000000E+00	 2.50000000E-01	 5.00000000E+00
					 7.50000000E-01	-1.49012000E-08	 5.00000000E+00
					 5.00000000E-01	-1.49012000E-08	 4.50000000E+00
					 5.00000000E-01	 2.50000000E-01	 5.00000000E+00
					-7.45058000E-09	 5.00000000E-01	 5.00000000E+00
					-7.45058000E-09	 1.00000000E+00	 5.00000000E+00
					 2.50000000E-01	 5.00000000E-01	 5.00000000E+00
					 2.50000000E-01	 1.00000000E+00	 5.00000000E+00
					-7.45058000E-09	 5.00000000E-01	 4.50000000E+00
					-7.45058000E-09	 7.50000000E-01	 5.00000000E+00
					-7.45058000E-09	 1.00000000E+00	 4.50000000E+00
					-7.45058000E-09	-1.49012000E-08	 5.00000000E+00
					 2.50000000E-01	-1.49012000E-08	 5.00000000E+00
					-7.45058000E-09	-1.49012000E-08	 4.50000000E+00
					-7.45058000E-09	 2.50000000E-01	 5.00000000E+00
					 1.00000000E+00	 5.00000000E-01	 6.00000000E+00
					 1.00000000E+00	 1.00000000E+00	 6.00000000E+00
					 5.00000000E-01	 5.00000000E-01	 6.00000000E+00
					 5.00000000E-01	 1.00000000E+00	 6.00000000E+00
					 1.00000000E+00	 5.00000000E-01	 5.50000000E+00
					 1.00000000E+00	 7.50000000E-01	 6.00000000E+00
					 1.00000000E+00	 1.00000000E+00	 5.50000000E+00
					 7.50000000E-01	 5.00000000E-01	 6.00000000E+00
					 7.50000000E-01	 1.00000000E+00	 6.00000000E+00
					 5.00000000E-01	 5.00000000E-01	 5.50000000E+00
					 5.00000000E-01	 7.50000000E-01	 6.00000000E+00
					 5.00000000E-01	 1.00000000E+00	 5.50000000E+00
					 1.00000000E+00	-1.49012000E-08	 6.00000000E+00
[...]
			<PointData>
				<DataArray type="Float32" Name="U" NumberOfComponents="3" ComponentName0="D1" ComponentName1="D2" ComponentName2="D3" format="ascii">
					 0.00000000E+00	 0.00000000E+00	 0.00000000E+00
					 0.00000000E+00	 0.00000000E+00	 0.00000000E+00
					-1.50732000E-05	 7.91941000E-04	 7.06832000E-05
					 1.17753000E-03	 1.00685000E-03	-2.51591000E-03
					 0.00000000E+00	 0.00000000E+00	 0.00000000E+00
					 0.00000000E+00	 0.00000000E+00	 0.00000000E+00
					-5.03871000E-06	 1.73789000E-03	 5.75034000E-05
					 7.11455000E-04	 1.96116000E-03	-2.53039000E-03
					 0.00000000E+00	 0.00000000E+00	 0.00000000E+00
					-9.09806000E-06	-3.35773000E-04	 3.30114000E-05
					 5.84359000E-04	 8.25456000E-04	-1.34880000E-03
					 6.68651000E-04	-1.05842000E-04	-1.06772000E-03
					 0.00000000E+00	 0.00000000E+00	 0.00000000E+00
					 0.00000000E+00	 0.00000000E+00	 0.00000000E+00
					-9.68742000E-06	 1.33774000E-03	 6.38182000E-05
					 9.42022000E-04	 1.55267000E-03	-2.42886000E-03
					 0.00000000E+00	 0.00000000E+00	 0.00000000E+00
					 7.81722000E-07	 1.54240000E-04	 2.65683000E-05
					 3.51513000E-04	 1.77295000E-03	-1.27050000E-03
					 3.10260000E-04	 3.66406000E-04	-1.02044000E-03
					 0.00000000E+00	 0.00000000E+00	 0.00000000E+00
					-1.20575000E-03	 1.04808000E-03	 2.65358000E-03
					 0.00000000E+00	 0.00000000E+00	 0.00000000E+00
					-7.18643000E-04	 1.99746000E-03	 2.64221000E-03
					 0.00000000E+00	 0.00000000E+00	 0.00000000E+00
					-6.85830000E-04	-7.77519000E-05	 1.13778000E-03
					-6.14068000E-04	 8.47755000E-04	 1.48787000E-03
					 0.00000000E+00	 0.00000000E+00	 0.00000000E+00
					-9.58651000E-04	 1.59097000E-03	 2.55379000E-03
					 0.00000000E+00	 0.00000000E+00	 0.00000000E+00
					-3.06361000E-04	 3.90327000E-04	 1.07803000E-03
					-3.60837000E-04	 1.79195000E-03	 1.38386000E-03
					 0.00000000E+00	 0.00000000E+00	 0.00000000E+00
					 0.00000000E+00	 0.00000000E+00	 0.00000000E+00
					 2.62248000E-06	 2.22143000E-03	 4.59306000E-05
					 2.26434000E-04	 2.42492000E-03	-2.53979000E-03
					 0.00000000E+00	 0.00000000E+00	 0.00000000E+00
					 0.00000000E+00	 0.00000000E+00	 0.00000000E+00
					-9.57687000E-07	 2.04940000E-03	 5.12587000E-05
					 4.70540000E-04	 2.26624000E-03	-2.59801000E-03
					 0.00000000E+00	 0.00000000E+00	 0.00000000E+00
					 8.59565000E-06	 2.80703000E-04	 2.40179000E-05
					 1.16088000E-04	 2.24841000E-03	-1.21634000E-03
					-8.41055000E-05	 4.80841000E-04	-1.07654000E-03
					 0.00000000E+00	 0.00000000E+00	 0.00000000E+00
					-2.17357000E-04	 2.45549000E-03	 2.62934000E-03
					 0.00000000E+00	 0.00000000E+00	 0.00000000E+00
					-4.69386000E-04	 2.30038000E-03	 2.69727000E-03
					 0.00000000E+00	 0.00000000E+00	 0.00000000E+00
					 1.04698000E-04	 5.00507000E-04	 1.12842000E-03
					-1.09759000E-04	 2.26394000E-03	 1.30721000E-03
					-3.62560000E-05	 8.43233000E-03	 1.09577000E-04
					 2.25617000E-03	 8.59069000E-03	-5.89622000E-03
					-2.19023000E-05	 1.04694000E-02	 7.39410000E-05
					 1.79156000E-03	 1.06492000E-02	-5.95101000E-03
					-2.55562000E-05	 3.65153000E-03	 9.73184000E-05
					 1.10313000E-03	 8.45033000E-03	-2.91943000E-03
					 1.73235000E-03	 3.85433000E-03	-4.22626000E-03
					-2.87178000E-05	 9.50782000E-03	 9.14545000E-05
					 2.02527000E-03	 9.68446000E-03	-5.85380000E-03
					-1.45257000E-05	 5.14462000E-03	 7.37583000E-05
					 8.85265000E-04	 1.04989000E-02	-2.89235000E-03
					 1.22950000E-03	 5.35737000E-03	-4.25384000E-03
					-2.32545000E-03	 8.69896000E-03	 6.10847000E-03
					-1.83144000E-03	 1.07491000E-02	 6.09164000E-03
					-1.78175000E-03	 3.92259000E-03	 4.41588000E-03
					-1.17532000E-03	 8.50566000E-03	 3.13679000E-03
					-2.07860000E-03	 9.78657000E-03	 6.03012000E-03
					-1.25535000E-03	 5.41902000E-03	 4.39637000E-03
					-9.28171000E-04	 1.05481000E-02	 3.03879000E-03
					-1.10496000E-05	 1.20545000E-02	 4.48717000E-05
					 1.33581000E-03	 1.22330000E-02	-5.96125000E-03
					-1.58133000E-05	 1.13206000E-02	 5.79095000E-05
					 1.56432000E-03	 1.15000000E-02	-6.05453000E-03
					-6.33901000E-06	 6.13559000E-03	 5.53441000E-05
					 6.64916000E-04	 1.20857000E-02	-2.81742000E-03
					 7.20332000E-04	 6.34086000E-03	-4.26804000E-03
					-1.35330000E-03	 1.23254000E-02	 6.04400000E-03
					-1.59212000E-03	 1.15987000E-02	 6.16248000E-03
					-7.28720000E-04	 6.39730000E-03	 4.37426000E-03
					-6.85664000E-04	 1.21288000E-02	 2.90630000E-03
					-6.48581000E-05	 2.32314000E-02	 7.29378000E-05
					 2.64009000E-03	 2.32155000E-02	-8.08349000E-03
					-4.81241000E-05	 2.58548000E-02	 1.51033000E-05
					 2.50043000E-03	 2.58472000E-02	-8.17714000E-03
					-4.75128000E-05	 1.51231000E-02	 1.03489000E-04
					 1.28709000E-03	 2.32068000E-02	-3.93214000E-03
					 2.57848000E-03	 1.51896000E-02	-7.22305000E-03
					-5.66172000E-05	 2.45602000E-02	 4.27416000E-05
					 2.57080000E-03	 2.45502000E-02	-8.13286000E-03
					-3.13300000E-05	 1.75652000E-02	 5.38753000E-05
					 1.22719000E-03	 2.58355000E-02	-4.00472000E-03
					 2.25234000E-03	 1.76533000E-02	-7.30946000E-03
					-2.76755000E-03	 2.33826000E-02	 8.22474000E-03
					-2.59514000E-03	 2.60118000E-02	 8.20341000E-03
					-2.66966000E-03	 1.53346000E-02	 7.42298000E-03
					-1.41620000E-03	 2.32880000E-02	 4.07731000E-03
					-2.68184000E-03	 2.47158000E-02	 8.21349000E-03
					-2.31136000E-03	 1.77906000E-02	 7.41004000E-03
					-1.32295000E-03	 2.59150000E-02	 4.03385000E-03
					-3.22085000E-05	 2.83258000E-02	-4.11058000E-05
					 2.38123000E-03	 2.83337000E-02	-8.19714000E-03
					-3.98481000E-05	 2.71098000E-02	-1.21822000E-05
					 2.44173000E-03	 2.71041000E-02	-8.22895000E-03
					-1.77860000E-05	 1.96857000E-02	 9.10564000E-06
					 1.17022000E-03	 2.83152000E-02	-4.00472000E-03
					 1.95208000E-03	 1.97882000E-02	-7.31763000E-03
					-2.44495000E-03	 2.84959000E-02	 8.11155000E-03
					-2.52055000E-03	 2.72688000E-02	 8.20159000E-03
					-1.98376000E-03	 1.99178000E-02	 7.32912000E-03
					-1.23434000E-03	 2.83922000E-02	 3.92106000E-03
					-8.21860000E-05	 4.05447000E-02	-3.55876000E-05
					 2.39889000E-03	 4.04390000E-02	-8.26997000E-03
					-6.96937000E-05	 4.30581000E-02	-7.97076000E-05
					 2.46577000E-03	 4.29492000E-02	-8.31844000E-03
					-7.89161000E-05	 3.19353000E-02	 2.10051000E-05
					 1.16026000E-03	 4.05024000E-02	-4.12905000E-03
					 2.54195000E-03	 3.18695000E-02	-8.33437000E-03
					-7.62843000E-05	 4.17924000E-02	-5.67947000E-05
					 2.43230000E-03	 4.16838000E-02	-8.31291000E-03
					-6.41967000E-05	 3.45525000E-02	-3.21461000E-05
					 1.19869000E-03	 4.30152000E-02	-4.19535000E-03
					 2.54450000E-03	 3.44858000E-02	-8.41058000E-03
					-2.56452000E-03	 4.05979000E-02	 8.19948000E-03
					-2.60663000E-03	 4.31114000E-02	 8.15935000E-03
					-2.70029000E-03	 3.20354000E-02	 8.37445000E-03
					-1.32480000E-03	 4.05811000E-02	 4.05774000E-03
					-2.58610000E-03	 4.18449000E-02	 8.20004000E-03
					-2.67375000E-03	 3.46548000E-02	 8.34491000E-03
					-1.33826000E-03	 4.30962000E-02	 4.03587000E-03
					-5.51846000E-05	 4.56165000E-02	-1.26122000E-04
					 2.54485000E-03	 4.55173000E-02	-8.36064000E-03
					-6.27479000E-05	 4.43291000E-02	-1.03100000E-04
					 2.50511000E-03	 4.42222000E-02	-8.31952000E-03
					-4.82816000E-05	 3.71527000E-02	-8.67159000E-05
					 1.24200000E-03	 4.55773000E-02	-4.25917000E-03
					 2.56609000E-03	 3.71017000E-02	-8.44176000E-03
					-2.65718000E-03	 4.56836000E-02	 8.10793000E-03
					-2.63241000E-03	 4.43856000E-02	 8.11310000E-03
					-2.66449000E-03	 3.72742000E-02	 8.26694000E-03
					-1.35266000E-03	 4.56609000E-02	 4.00687000E-03
					-8.08187000E-05	 5.69700000E-02	-1.33923000E-04
					 2.11688000E-03	 5.68833000E-02	-8.10785000E-03
					-7.15221000E-05	 5.91735000E-02	-1.70699000E-04
					 2.14368000E-03	 5.90902000E-02	-8.14511000E-03
					-8.02471000E-05	 4.88154000E-02	-8.50882000E-05
					 1.01672000E-03	 5.69279000E-02	-4.09512000E-03
					 2.27599000E-03	 4.87191000E-02	-8.16362000E-03
					-7.61505000E-05	 5.80703000E-02	-1.52463000E-04
					 2.13085000E-03	 5.79862000E-02	-8.15365000E-03
					-6.92091000E-05	 5.11899000E-02	-1.24620000E-04
					 1.03624000E-03	 5.91321000E-02	-4.15922000E-03
					 2.32308000E-03	 5.10938000E-02	-8.19748000E-03
					-2.27882000E-03	 5.70297000E-02	 7.83914000E-03
					-2.28669000E-03	 5.92371000E-02	 7.80291000E-03
					-2.43675000E-03	 4.88724000E-02	 7.99371000E-03
					-1.17853000E-03	 5.70004000E-02	 3.82726000E-03
					-2.28334000E-03	 5.81337000E-02	 7.84779000E-03
					-2.46189000E-03	 5.12474000E-02	 7.94809000E-03
					-1.17930000E-03	 5.92058000E-02	 3.81772000E-03
					-6.18621000E-05	 6.13992000E-02	-2.09298000E-04
					 2.17359000E-03	 6.13148000E-02	-8.18213000E-03
					-6.66825000E-05	 6.02848000E-02	-1.89466000E-04
					 2.15820000E-03	 6.02022000E-02	-8.13506000E-03
					-5.72384000E-05	 5.35996000E-02	-1.65976000E-04
					 1.05689000E-03	 6.13575000E-02	-4.22475000E-03
					 2.37447000E-03	 5.35057000E-02	-8.24422000E-03
					-2.29682000E-03	 6.14613000E-02	 7.76296000E-03
					-2.29121000E-03	 6.03483000E-02	 7.75538000E-03
					-2.48928000E-03	 5.36603000E-02	 7.91163000E-03
					-1.18057000E-03	 6.14317000E-02	 3.80609000E-03
					-7.83418000E-05	 7.32813000E-02	-2.52179000E-04
					 1.65076000E-03	 7.31785000E-02	-7.92820000E-03
					-7.49281000E-05	 7.50559000E-02	-2.75742000E-04
					 1.74246000E-03	 7.49485000E-02	-7.95873000E-03
					-8.17403000E-05	 6.51675000E-02	-1.90284000E-04
					 7.87483000E-04	 7.32422000E-02	-4.03914000E-03
					 1.89654000E-03	 6.50713000E-02	-8.06607000E-03
					-7.67788000E-05	 7.41579000E-02	-2.63574000E-04
					 1.69623000E-03	 7.40512000E-02	-7.97908000E-03
					-7.53673000E-05	 6.71645000E-02	-2.21306000E-04
					 8.34230000E-04	 7.50143000E-02	-4.10087000E-03
					 1.94429000E-03	 6.70691000E-02	-8.10505000E-03
					-1.80896000E-03	 7.33040000E-02	 7.42361000E-03
					-1.89296000E-03	 7.50773000E-02	 7.40707000E-03
					-2.06123000E-03	 6.52083000E-02	 7.68481000E-03
					-9.44458000E-04	 7.33036000E-02	 3.53470000E-03
					-1.85089000E-03	 7.41796000E-02	 7.45177000E-03
					-2.09543000E-03	 6.72086000E-02	 7.66188000E-03
					-9.84066000E-04	 7.50783000E-02	 3.54934000E-03
					-6.97379000E-05	 7.69140000E-02	-3.02510000E-04
					 1.83373000E-03	 7.68062000E-02	-7.97789000E-03
					-7.27091000E-05	 7.59732000E-02	-2.88658000E-04
					 1.78795000E-03	 7.58659000E-02	-7.94320000E-03
					-6.77960000E-05	 6.92056000E-02	-2.54980000E-04
					 8.81940000E-04	 7.68714000E-02	-4.14967000E-03
					 1.99460000E-03	 6.91086000E-02	-8.12940000E-03
					-1.97333000E-03	 7.69363000E-02	 7.37261000E-03
					-1.93360000E-03	 7.59947000E-02	 7.36571000E-03
					-2.13003000E-03	 6.92488000E-02	 7.61912000E-03
					-1.02128000E-03	 7.69368000E-02	 3.54455000E-03
					-6.58734000E-05	 8.82751000E-02	-3.68684000E-04
					 1.33666000E-03	 8.81890000E-02	-7.37108000E-03
					-6.55525000E-05	 8.97228000E-02	-3.82566000E-04
					 1.42586000E-03	 8.96310000E-02	-7.38082000E-03
					-7.19974000E-05	 8.10304000E-02	-3.12579000E-04
					 6.37620000E-04	 8.82439000E-02	-3.87448000E-03
					 1.44990000E-03	 8.09369000E-02	-7.65072000E-03
					-6.56786000E-05	 8.89892000E-02	-3.75634000E-04
					 1.38100000E-03	 8.88978000E-02	-7.38558000E-03
					-7.04952000E-05	 8.26094000E-02	-3.30270000E-04
					 6.80839000E-04	 8.96883000E-02	-3.89851000E-03
					 1.56072000E-03	 8.25078000E-02	-7.66853000E-03
					-1.46940000E-03	 8.82881000E-02	 6.63450000E-03
					-1.55691000E-03	 8.97320000E-02	 6.61616000E-03
					-1.59513000E-03	 8.10485000E-02	 7.02513000E-03
					-7.69551000E-04	 8.82934000E-02	 3.13724000E-03
					-1.51296000E-03	 8.89982000E-02	 6.63521000E-03
					-1.70228000E-03	 8.26219000E-02	 7.00769000E-03
					-8.11773000E-04	 8.97392000E-02	 3.13349000E-03
					-6.41985000E-05	 9.12541000E-02	-3.98161000E-04
					 1.50938000E-03	 9.11606000E-02	-7.40759000E-03
					-6.51461000E-05	 9.04761000E-02	-3.89992000E-04
					 1.46782000E-03	 9.03841000E-02	-7.37363000E-03
					-6.76065000E-05	 8.42889000E-02	-3.50694000E-04
					 7.22882000E-04	 9.12180000E-02	-3.93997000E-03
					 1.66657000E-03	 8.41869000E-02	-7.68993000E-03
					-1.63693000E-03	 9.12618000E-02	 6.61135000E-03
					-1.59742000E-03	 9.04849000E-02	 6.59357000E-03
					-1.80194000E-03	 8.43023000E-02	 6.98818000E-03
					-8.51004000E-04	 9.12693000E-02	 3.14385000E-03
					-5.34469000E-05	 1.01827000E-01	-4.66714000E-04
					 1.33203000E-03	 1.01768000E-01	-7.22133000E-03
					-5.38256000E-05	 1.03221000E-01	-4.78320000E-04
					 1.33853000E-03	 1.03165000E-01	-7.23569000E-03
					-6.03543000E-05	 9.51093000E-02	-4.19924000E-04
					 6.38590000E-04	 1.01796000E-01	-3.85552000E-03
					 1.31314000E-03	 9.50453000E-02	-7.23354000E-03
					-5.34834000E-05	 1.02523000E-01	-4.72514000E-04
					 1.33421000E-03	 1.02465000E-01	-7.22250000E-03
					-6.02672000E-05	 9.65051000E-02	-4.31609000E-04
					 6.39091000E-04	 1.03191000E-01	-3.86533000E-03
					 1.35768000E-03	 9.64388000E-02	-7.24430000E-03
					-1.43776000E-03	 1.01868000E-01	 6.29060000E-03
					-1.44260000E-03	 1.03262000E-01	 6.28177000E-03
					-1.43377000E-03	 9.51412000E-02	 6.39626000E-03
					-7.44911000E-04	 1.01847000E-01	 2.92261000E-03
					-1.43899000E-03	 1.02563000E-01	 6.28049000E-03
					-1.47606000E-03	 9.65351000E-02	 6.38282000E-03
					-7.45424000E-04	 1.03240000E-01	 2.90948000E-03
					-5.32559000E-05	 1.04632000E-01	-4.91084000E-04
					 1.33654000E-03	 1.04575000E-01	-7.27124000E-03
					-5.40003000E-05	 1.03930000E-01	-4.84563000E-04
					 1.33820000E-03	 1.03873000E-01	-7.25161000E-03
					-5.91307000E-05	 9.79413000E-02	-4.44550000E-04
					 6.39630000E-04	 1.04602000E-01	-3.89240000E-03
					 1.39217000E-03	 9.78739000E-02	-7.27670000E-03
					-1.43786000E-03	 1.04667000E-01	 6.29171000E-03
					-1.44116000E-03	 1.03968000E-01	 6.28483000E-03
					-1.50703000E-03	 9.79671000E-02	 6.38850000E-03
					-7.44751000E-04	 1.04648000E-01	 2.91128000E-03
					 0.00000000E+00	 0.00000000E+00	 0.00000000E+00
					 0.00000000E+00	 0.00000000E+00	 0.00000000E+00
					 2.83964000E-05	-6.54728000E-04	-1.73032000E-04
					-1.53643000E-03	-9.10376000E-04	 2.73772000E-03
					 0.00000000E+00	 0.00000000E+00	 0.00000000E+00
					 0.00000000E+00	 0.00000000E+00	 0.00000000E+00
					 2.34328000E-06	-1.94212000E-03	-1.82823000E-04
					-1.02288000E-03	-2.20174000E-03	 2.72994000E-03
					 0.00000000E+00	 0.00000000E+00	 0.00000000E+00
					 2.84748000E-05	 4.93096000E-04	-8.15633000E-05
					-7.58493000E-04	-7.01121000E-04	 1.44611000E-03
					-8.36856000E-04	 2.36908000E-04	 1.15358000E-03
					 0.00000000E+00	 0.00000000E+00	 0.00000000E+00
					 0.00000000E+00	 0.00000000E+00	 0.00000000E+00
					 1.58066000E-05	-1.38094000E-03	-1.76930000E-04
					-1.27570000E-03	-1.63305000E-03	 2.60832000E-03
					 0.00000000E+00	 0.00000000E+00	 0.00000000E+00
					 1.11261000E-06	-1.65222000E-04	-7.88496000E-05
					-5.10111000E-04	-1.98705000E-03	 1.31272000E-03
					-4.51698000E-04	-3.94187000E-04	 1.09609000E-03
					 0.00000000E+00	 0.00000000E+00	 0.00000000E+00
					 1.59188000E-03	-9.34776000E-04	-3.08483000E-03
					 0.00000000E+00	 0.00000000E+00	 0.00000000E+00
					 1.03099000E-03	-2.23121000E-03	-3.09644000E-03
					 0.00000000E+00	 0.00000000E+00	 0.00000000E+00
					 8.93559000E-04	 1.91199000E-04	-1.32510000E-03
					 8.14218000E-04	-7.11506000E-04	-1.79217000E-03
					 0.00000000E+00	 0.00000000E+00	 0.00000000E+00
					 1.30839000E-03	-1.65970000E-03	-2.96229000E-03
					 0.00000000E+00	 0.00000000E+00	 0.00000000E+00
					 4.56106000E-04	-4.42145000E-04	-1.26177000E-03
					 5.14518000E-04	-2.00062000E-03	-1.67832000E-03
					 0.00000000E+00	 0.00000000E+00	 0.00000000E+00
					 0.00000000E+00	 0.00000000E+00	 0.00000000E+00
					-2.59941000E-05	-2.70703000E-03	-1.87644000E-04
					-4.93328000E-04	-2.94198000E-03	 2.72393000E-03
					 0.00000000E+00	 0.00000000E+00	 0.00000000E+00
					 0.00000000E+00	 0.00000000E+00	 0.00000000E+00
					-1.16010000E-05	-2.40408000E-03	-1.86166000E-04
					-7.59876000E-04	-2.64922000E-03	 2.81607000E-03
					 0.00000000E+00	 0.00000000E+00	 0.00000000E+00
					-2.75542000E-05	-4.13933000E-04	-8.49956000E-05
					-2.60799000E-04	-2.74096000E-03	 1.21401000E-03
					-2.39742000E-05	-6.23420000E-04	 1.15015000E-03
					 0.00000000E+00	 0.00000000E+00	 0.00000000E+00
					 4.44606000E-04	-2.97108000E-03	-3.09980000E-03
					 0.00000000E+00	 0.00000000E+00	 0.00000000E+00
					 7.39231000E-04	-2.68349000E-03	-3.18947000E-03
					 0.00000000E+00	 0.00000000E+00	 0.00000000E+00
					-3.00856000E-05	-6.72328000E-04	-1.32848000E-03
					 2.10991000E-04	-2.75579000E-03	-1.58881000E-03
					 2.45645000E-05	-9.02105000E-03	-3.72672000E-04
					-3.04608000E-03	-9.29780000E-03	 6.40471000E-03
					 8.80533000E-06	-1.18112000E-02	-4.20488000E-04
					-2.52683000E-03	-1.20918000E-02	 6.37956000E-03
					 2.79606000E-05	-3.75234000E-03	-2.67292000E-04
					-1.50540000E-03	-9.09194000E-03	 3.06486000E-03
					-2.30013000E-03	-4.02791000E-03	 4.60818000E-03
					 1.71565000E-05	-1.04804000E-02	-3.97504000E-04
					-2.78505000E-03	-1.07622000E-02	 6.29316000E-03
					 4.57770000E-06	-5.78573000E-03	-2.91232000E-04
					-1.25508000E-03	-1.18801000E-02	 2.92926000E-03
					-1.74207000E-03	-6.06006000E-03	 4.58817000E-03
					 3.10401000E-03	-9.22380000E-03	-7.15787000E-03
					 2.54775000E-03	-1.20427000E-02	-7.22862000E-03
					 2.36008000E-03	-4.01340000E-03	-5.14837000E-03
					 1.55576000E-03	-9.05207000E-03	-3.81354000E-03
					 2.82823000E-03	-1.07079000E-02	-7.09275000E-03
					 1.75600000E-03	-6.05843000E-03	-5.17662000E-03
					 1.27810000E-03	-1.18561000E-02	-3.76945000E-03
					-1.98115000E-05	-1.40948000E-02	-4.59165000E-04
					-2.00360000E-03	-1.43417000E-02	 6.31602000E-03
					-4.41119000E-06	-1.30151000E-02	-4.41303000E-04
					-2.26392000E-03	-1.33167000E-02	 6.47449000E-03
					-2.43022000E-05	-7.25165000E-03	-3.08042000E-04
					-1.02507000E-03	-1.41450000E-02	 2.75303000E-03
					-1.17699000E-03	-7.50149000E-03	 4.56676000E-03
					 1.99719000E-03	-1.43255000E-02	-7.24356000E-03
					 2.27375000E-03	-1.32529000E-02	-7.37031000E-03
					 1.14237000E-03	-7.51608000E-03	-5.18773000E-03
					 9.94677000E-04	-1.41403000E-02	-3.66826000E-03
					-1.09778000E-05	-2.54488000E-02	-6.38735000E-04
					-3.93950000E-03	-2.55377000E-02	 8.45619000E-03
					-1.42893000E-05	-2.92731000E-02	-7.38236000E-04
					-3.78725000E-03	-2.94688000E-02	 8.40213000E-03
					 1.58421000E-05	-1.64557000E-02	-4.94352000E-04
					-1.97106000E-03	-2.54761000E-02	 3.83945000E-03
					-3.60249000E-03	-1.66610000E-02	 7.75689000E-03
					-1.02553000E-05	-2.73779000E-02	-6.85235000E-04
					-3.86553000E-03	-2.75353000E-02	 8.39106000E-03
					 5.49030000E-06	-1.98735000E-02	-5.72276000E-04
					-1.92709000E-03	-2.93597000E-02	 3.70919000E-03
					-3.23913000E-03	-2.00991000E-02	 7.72720000E-03
					 3.88948000E-03	-2.54228000E-02	-9.71922000E-03
					 3.76457000E-03	-2.92786000E-02	-9.89861000E-03
					 3.63709000E-03	-1.65395000E-02	-8.75082000E-03
					 1.93869000E-03	-2.54241000E-02	-5.10551000E-03
					 3.82708000E-03	-2.73630000E-02	-9.77605000E-03
					 3.26135000E-03	-1.99833000E-02	-8.87943000E-03
					 1.87654000E-03	-2.92703000E-02	-5.20599000E-03
					-3.34746000E-05	-3.29831000E-02	-8.37039000E-04
					-3.76431000E-03	-3.33012000E-02	 8.25528000E-03
					-2.19480000E-05	-3.11574000E-02	-7.90347000E-04
					-3.77759000E-03	-3.12807000E-02	 8.43308000E-03
					-7.97095000E-06	-2.29485000E-02	-6.43167000E-04
					-1.86475000E-03	-3.31350000E-02	 3.48109000E-03
					-2.93963000E-03	-2.31951000E-02	 7.61049000E-03
					 3.66137000E-03	-3.30381000E-02	-9.97631000E-03
					 3.71498000E-03	-3.11626000E-02	-1.00345000E-02
					 2.89448000E-03	-2.30699000E-02	-8.90772000E-03
					 1.80097000E-03	-3.30143000E-02	-5.20033000E-03
					-6.37039000E-05	-4.39565000E-02	-9.39314000E-04
					-4.17088000E-03	-4.38090000E-02	 7.48177000E-03