# vtk DataFile Version 3.0

ASCII
DATASET UNSTRUCTURED_GRID

POINTS 522 double
	 1.00000000E+00	 1.00000000E+00	-5.96046000E-08
	 1.00000000E+00	 5.00000000E-01	-5.96046000E-08
	 1.00000000E+00	 5.00000000E-01	 1.00000000E+00
	 1.00000000E+00	 1.00000000E+00	 1.00000000E+00
	 5.00000000E-01	 1.00000000E+00	-5.96046000E-08
	 5.00000000E-01	 5.00000000E-01	-5.96046000E-08
	 5.00000000E-01	 5.00000000E-01	 1.00000000E+00
	 5.00000000E-01	 1.00000000E+00	 1.00000000E+00
	 1.00000000E+00	 7.50000000E-01	-5.96046000E-08
	 1.00000000E+00	 5.00000000E-01	 5.00000000E-01
	 1.00000000E+00	 7.50000000E-01	 1.00000000E+00
	 1.00000000E+00	 1.00000000E+00	 5.00000000E-01
	 7.50000000E-01	 1.00000000E+00	-5.96046000E-08
	 7.50000000E-01	 5.00000000E-01	-5.96046000E-08
	 7.50000000E-01	 5.00000000E-01	 1.00000000E+00
	 7.50000000E-01	 1.00000000E+00	 1.00000000E+00
	 5.00000000E-01	 7.50000000E-01	-5.96046000E-08
	 5.00000000E-01	 5.00000000E-01	 5.00000000E-01
	 5.00000000E-01	 7.50000000E-01	 1.00000000E+00
	 5.00000000E-01	 1.00000000E+00	 5.00000000E-01
	 1.00000000E+00	-1.49012000E-08	-5.96046000E-08
	 1.00000000E+00	-1.49012000E-08	 1.00000000E+00
	 5.00000000E-01	-1.49012000E-08	-5.96046000E-08
	 5.00000000E-01	-1.49012000E-08	 1.00000000E+00
	 1.00000000E+00	 2.50000000E-01	-5.96046000E-08
	 1.00000000E+00	-1.49012000E-08	 5.00000000E-01
	 1.00000000E+00	 2.50000000E-01	 1.00000000E+00
	 7.50000000E-01	-1.49012000E-08	-5.96046000E-08
	 7.50000000E-01	-1.49012000E-08	 1.00000000E+00
	 5.00000000E-01	 2.50000000E-01	-5.96046000E-08
	 5.00000000E-01	-1.49012000E-08	 5.00000000E-01
	 5.00000000E-01	 2.50000000E-01	 1.00000000E+00
	-7.45058000E-09	 1.00000000E+00	-5.96046000E-08
	-7.45058000E-09	 5.00000000E-01	-5.96046000E-08
	-7.45058000E-09	 5.00000000E-01	 1.00000000E+00
	-7.45058000E-09	 1.00000000E+00	 1.00000000E+00
	 2.50000000E-01	 1.00000000E+00	-5.96046000E-08
	 2.50000000E-01	 5.00000000E-01	-5.96046000E-08
	 2.50000000E-01	 5.00000000E-01	 1.00000000E+00
	 2.50000000E-01	 1.00000000E+00	 1.00000000E+00
	-7.45058000E-09	 7.50000000E-01	-5.96046000E-08
	-7.45058000E-09	 5.00000000E-01	 5.00000000E-01
	-7.45058000E-09	 7.50000000E-01	 1.00000000E+00
	-7.45058000E-09	 1.00000000E+00	 5.00000000E-01
	-7.45058000E-09	-1.49012000E-08	-5.96046000E-08
	-7.45058000E-09	-1.49012000E-08	 1.00000000E+00
	 2.50000000E-01	-1.49012000E-08	-5.96046000E-08
	 2.50000000E-01	-1.49012000E-08	 1.00000000E+00
	-7.45058000E-09	 2.50000000E-01	-5.96046000E-08
	-7.45058000E-09	-1.49012000E-08	 5.00000000E-01
	-7.45058000E-09	 2.50000000E-01	 1.00000000E+00
	 1.00000000E+00	 5.00000000E-01	 2.00000000E+00
	 1.00000000E+00	 1.00000000E+00	 2.00000000E+00
	 5.00000000E-01	 5.00000000E-01	 2.00000000E+00
	 5.00000000E-01	 1.00000000E+00	 2.00000000E+00
	 1.00000000E+00	 5.00000000E-01	 1.50000000E+00
	 1.00000000E+00	 7.50000000E-01	 2.00000000E+00
	 1.00000000E+00	 1.00000000E+00	 1.50000000E+00
	 7.50000000E-01	 5.00000000E-01	 2.00000000E+00
	 7.50000000E-01	 1.00000000E+00	 2.00000000E+00
	 5.00000000E-01	 5.00000000E-01	 1.50000000E+00
	 5.00000000E-01	 7.50000000E-01	 2.00000000E+00
	 5.00000000E-01	 1.00000000E+00	 1.50000000E+00
	 1.00000000E+00	-1.49012000E-08	 2.00000000E+00
	 5.00000000E-01	-1.49012000E-08	 2.00000000E+00
	 1.00000000E+00	-1.49012000E-08	 1.50000000E+00
	 1.00000000E+00	 2.50000000E-01	 2.00000000E+00
	 7.50000000E-01	-1.49012000E-08	 2.00000000E+00
	 5.00000000E-01	-1.49012000E-08	 1.50000000E+00
	 5.00000000E-01	 2.50000000E-01	 2.00000000E+00
	-7.45058000E-09	 5.00000000E-01	 2.00000000E+00
	-7.45058000E-09	 1.00000000E+00	 2.00000000E+00
	 2.50000000E-01	 5.00000000E-01	 2.00000000E+00
	 2.50000000E-01	 1.00000000E+00	 2.00000000E+00
	-7.45058000E-09	 5.00000000E-01	 1.50000000E+00
	-7.45058000E-09	 7.50000000E-01	 2.00000000E+00
	-7.45058000E-09	 1.00000000E+00	 1.50000000E+00
	-7.45058000E-09	-1.49012000E-08	 2.00000000E+00
	 2.50000000E-01	-1.49012000E-08	 2.00000000E+00
	-7.45058000E-09	-1.49012000E-08	 1.50000000E+00
	-7.45058000E-09	 2.50000000E-01	 2.00000000E+00
	 1.00000000E+00	 5.00000000E-01	 3.00000000E+00
	 1.00000000E+00	 1.00000000E+00	 3.00000000E+00
	 5.00000000E-01	 5.00000000E-01	 3.00000000E+00
	 5.00000000E-01	 1.00000000E+00	 3.00000000E+00
	 1.00000000E+00	 5.00000000E-01	 2.50000000E+00
	 1.00000000E+00	 7.50000000E-01	 3.00000000E+00
	 1.00000000E+00	 1.00000000E+00	 2.50000000E+00
	 7.50000000E-01	 5.00000000E-01	 3.00000000E+00
	 7.50000000E-01	 1.00000000E+00	 3.00000000E+00
	 5.00000000E-01	 5.00000000E-01	 2.50000000E+00
	 5.00000000E-01	 7.50000000E-01	 3.00000000E+00
	 5.00000000E-01	 1.00000000E+00	 2.50000000E+00
	 1.00000000E+00	-1.49012000E-08	 3.00000000E+00
	 5.00000000E-01	-1.49012000E-08	 3.00000000E+00
	 1.00000000E+00	-1.49012000E-08	 2.50000000E+00
	 1.00000000E+00	 2.50000000E-01	 3.00000000E+00
	 7.50000000E-01	-1.49012000E-08	 3.00000000E+00
	 5.00000000E-01	-1.49012000E-08	 2.50000000E+00
	 5.00000000E-01	 2.50000000E-01	 3.00000000E+00
	-7.45058000E-09	 5.00000000E-01	 3.00000000E+00
	-7.45058000E-09	 1.00000000E+00	 3.00000000E+00
	 2.50000000E-01	 5.00000000E-01	 3.00000000E+00
	 2.50000000E-01	 1.00000000E+00	 3.00000000E+00
	-7.45058000E-09	 5.00000000E-01	 2.50000000E+00
	-7.45058000E-09	 7.50000000E-01	 3.00000000E+00
	-7.45058000E-09	 1.00000000E+00	 2.50000000E+00
	-7.45058000E-09	-1.49012000E-08	 3.00000000E+00
	 2.50000000E-01	-1.49012000E-08	 3.00000000E+00
	-7.45058000E-09	-1.49012000E-08	 2.50000000E+00
	-7.45058000E-09	 2.50000000E-01	 3.00000000E+00
	 1.00000000E+00	 5.00000000E-01	 4.00000000E+00
	 1.00000000E+00	 1.00000000E+00	 4.00000000E+00
	 5.00000000E-01	 5.00000000E-01	 4.00000000E+00
	 5.00000000E-01	 1.00000000E+00	 4.00000000E+00
	 1.00000000E+00	 5.00000000E-01	 3.50000000E+00
	 1.00000000E+00	 7.50000000E-01	 4.00000000E+00
	 1.00000000E+00	 1.00000000E+00	 3.50000000E+00
	 7.50000000E-01	 5.00000000E-01	 4.00000000E+00
	 7.50000000E-01	 1.00000000E+00	 4.00000000E+00
	 5.00000000E-01	 5.00000000E-01	 3.50000000E+00
	 5.00000000E-01	 7.50000000E-01	 4.00000000E+00
	 5.00000000E-01	 1.00000000E+00	 3.50000000E+00
	 1.00000000E+00	-1.49012000E-08	 4.00000000E+00
	 5.00000000E-01	-1.49012000E-08	 4.00000000E+00
	 1.00000000E+00	-1.49012000E-08	 3.50000000E+00
	 1.00000000E+00	 2.50000000E-01	 4.00000000E+00
	 7.50000000E-01	-1.49012000E-08	 4.00000000E+00
	 5.00000000E-01	-1.49012000E-08	 3.50000000E+00
	 5.00000000E-01	 2.50000000E-01	 4.00000000E+00
	-7.45058000E-09	 5.00000000E-01	 4.00000000E+00
	-7.45058000E-09	 1.00000000E+00	 4.00000000E+00
	 2.50000000E-01	 5.00000000E-01	 4.00000000E+00
	 2.50000000E-01	 1.00000000E+00	 4.00000000E+00
	-7.45058000E-09	 5.00000000E-01	 3.50000000E+00
	-7.45058000E-09	 7.50000000E-01	 4.00000000E+00
	-7.45058000E-09	 1.00000000E+00	 3.50000000E+00
	-7.45058000E-09	-1.49012000E-08	 4.00000000E+00
	 2.50000000E-01	-1.49012000E-08	 4.00000000E+00
	-7.45058000E-09	-1.49012000E-08	 3.50000000E+00
	-7.45058000E-09	 2.50000000E-01	 4.00000000E+00
	 1.00000000E+00	 5.00000000E-01	 5.00000000E+00
	 1.00000000E+00	 1.00000000E+00	 5.00000000E+00
	 5.00000000E-01	 5.00000000E-01	 5.00000000E+00
	 5.00000000E-01	 1.00000000E+00	 5.00000000E+00
	 1.00000000E+00	 5.00000000E-01	 4.50000000E+00
	 1.00000000E+00	 7.50000000E-01	 5.00000000E+00
	 1.00000000E+00	 1.00000000E+00	 4.50000000E+00
	 7.50000000E-01	 5.00000000E-01	 5.00000000E+00
	 7.50000000E-01	 1.00000000E+00	 5.00000000E+00
	 5.00000000E-01	 5.00000000E-01	 4.50000000E+00
	 5.00000000E-01	 7.50000000E-01	 5.00000000E+00
	 5.00000000E-01	 1.00000000E+00	 4.50000000E+00
	 1.00000000E+00	-1.49012000E-08	 5.00000000E+00
	 5.00000000E-01	-1.49012000E-08	 5.00000000E+00
	 1.00000000E+00	-1.49012000E-08	 4.50000000E+00
	 1.00000000E+00	 2.50000000E-01	 5.00000000E+00
	 7.50000000E-01	-1.49012000E-08	 5.00000000E+00
	 5.00000000E-01	-1.49012000E-08	 4.50000000E+00
	 5.00000000E-01	 2.50000000E-01	 5.00000000E+00
	-7.45058000E-09	 5.00000000E-01	 5.00000000E+00
	-7.45058000E-09	 1.00000000E+00	 5.00000000E+00
	 2.50000000E-01	 5.00000000E-01	 5.00000000E+00
	 2.50000000E-01	 1.00000000E+00	 5.00000000E+00
	-7.45058000E-09	 5.00000000E-01	 4.50000000E+00
	-7.45058000E-09	 7.50000000E-01	 5.00000000E+00
	-7.45058000E-09	 1.00000000E+00	 4.50000000E+00
	-7.45058000E-09	-1.49012000E-08	 5.00000000E+00
	 2.50000000E-01	-1.49012000E-08	 5.00000000E+00
	-7.45058000E-09	-1.49012000E-08	 4.50000000E+00
	-7.45058000E-09	 2.50000000E-01	 5.00000000E+00
	 1.00000000E+00	 5.00000000E-01	 6.00000000E+00
	 1.00000000E+00	 1.00000000E+00	 6.00000000E+00
	 5.00000000E-01	 5.00000000E-01	 6.00000000E+00
	 5.00000000E-01	 1.00000000E+00	 6.00000000E+00
	 1.00000000E+00	 5.00000000E-01	 5.50000000E+00
	 1.00000000E+00	 7.50000000E-01	 6.00000000E+00
	 1.00000000E+00	 1.00000000E+00	 5.50000000E+00
	 7.50000000E-01	 5.00000000E-01	 6.00000000E+00
	 7.50000000E-01	 1.00000000E+00	 6.00000000E+00
	 5.00000000E-01	 5.00000000E-01	 5.50000000E+00
	 5.00000000E-01	 7.50000000E-01	 6.00000000E+00
	 5.00000000E-01	 1.00000000E+00	 5.50000000E+00
	 1.00000000E+00	-1.49012000E-08	 6.00000000E+00
	 5.00000000E-01	-1.49012000E-08	 6.00000000E+00
	 1.00000000E+00	-1.49012000E-08	 5.50000000E+00
	 1.00000000E+00	 2.50000000E-01	 6.00000000E+00
	 7.50000000E-01	-1.49012000E-08	 6.00000000E+00
	 5.00000000E-01	-1.49012000E-08	 5.50000000E+00
	 5.00000000E-01	 2.50000000E-01	 6.00000000E+00
	-7.45058000E-09	 5.00000000E-01	 6.00000000E+00
	-7.45058000E-09	 1.00000000E+00	 6.00000000E+00
	 2.50000000E-01	 5.00000000E-01	 6.00000000E+00
	 2.50000000E-01	 1.00000000E+00	 6.00000000E+00
	-7.45058000E-09	 5.00000000E-01	 5.50000000E+00
	-7.45058000E-09	 7.50000000E-01	 6.00000000E+00
	-7.45058000E-09	 1.00000000E+00	 5.50000000E+00
	-7.45058000E-09	-1.49012000E-08	 6.00000000E+00
	 2.50000000E-01	-1.49012000E-08	 6.00000000E+00
	-7.45058000E-09	-1.49012000E-08	 5.50000000E+00
	-7.45058000E-09	 2.50000000E-01	 6.00000000E+00
	 1.00000000E+00	 5.00000000E-01	 7.00000000E+00
[...]
POINT_DATA 522
FIELD U 1
	U 3 522 double
		 0.00000000E+00	 0.00000000E+00	 0.00000000E+00
		 0.00000000E+00	 0.00000000E+00	 0.00000000E+00
		-1.19832000E-05	 3.42330000E-03	 1.68278000E-05
		-1.34421000E-03	 3.43729000E-03	-1.23212000E-03
		 0.00000000E+00	 0.00000000E+00	 0.00000000E+00
		 0.00000000E+00	 0.00000000E+00	 0.00000000E+00
		-8.17022000E-06	 2.04552000E-03	 1.89954000E-05
		-1.42812000E-03	 2.07004000E-03	-1.25921000E-03
		 0.00000000E+00	 0.00000000E+00	 0.00000000E+00
		-7.51929000E-06	 1.34702000E-03	 9.68211000E-06
		-6.80317000E-04	 3.40885000E-03	-4.24023000E-04
		-5.00505000E-04	 1.41475000E-03	-7.36400000E-04
		 0.00000000E+00	 0.00000000E+00	 0.00000000E+00
		 0.00000000E+00	 0.00000000E+00	 0.00000000E+00
		-1.00009000E-05	 2.75259000E-03	 1.76936000E-05
		-1.38659000E-03	 2.77511000E-03	-1.38227000E-03
		 0.00000000E+00	 0.00000000E+00	 0.00000000E+00
		-4.20138000E-06	 7.14793000E-04	 9.02603000E-06
		-7.16755000E-04	 2.03554000E-03	-5.69657000E-04
		-7.14607000E-04	 8.13834000E-04	-7.29014000E-04
		 0.00000000E+00	 0.00000000E+00	 0.00000000E+00
		 1.31958000E-03	 3.45138000E-03	 1.26508000E-03
		 0.00000000E+00	 0.00000000E+00	 0.00000000E+00
		 1.41278000E-03	 2.08547000E-03	 1.29641000E-03
		 0.00000000E+00	 0.00000000E+00	 0.00000000E+00
		 4.85457000E-04	 1.42509000E-03	 7.57171000E-04
		 6.56051000E-04	 3.41539000E-03	 4.57573000E-04
		 0.00000000E+00	 0.00000000E+00	 0.00000000E+00
		 1.36659000E-03	 2.79084000E-03	 1.41649000E-03
		 0.00000000E+00	 0.00000000E+00	 0.00000000E+00
		 7.07318000E-04	 8.24426000E-04	 7.48159000E-04
		 7.00742000E-04	 2.04352000E-03	 6.07265000E-04
		 0.00000000E+00	 0.00000000E+00	 0.00000000E+00
		 0.00000000E+00	 0.00000000E+00	 0.00000000E+00
		-3.48297000E-06	 5.81720000E-04	 2.00603000E-05
		-1.49878000E-03	 6.08485000E-04	-1.22836000E-03
		 0.00000000E+00	 0.00000000E+00	 0.00000000E+00
		 0.00000000E+00	 0.00000000E+00	 0.00000000E+00
		-6.13577000E-06	 1.33421000E-03	 1.98011000E-05
		-1.46171000E-03	 1.35623000E-03	-1.12539000E-03
		 0.00000000E+00	 0.00000000E+00	 0.00000000E+00
		-4.33946000E-07	-7.50764000E-05	 9.29451000E-06
		-7.53759000E-04	 5.74758000E-04	-6.74704000E-04
		-8.74425000E-04	 4.70547000E-05	-7.36815000E-04
		 0.00000000E+00	 0.00000000E+00	 0.00000000E+00
		 1.49430000E-03	 6.21350000E-04	 1.26782000E-03
		 0.00000000E+00	 0.00000000E+00	 0.00000000E+00
		 1.45152000E-03	 1.37053000E-03	 1.16454000E-03
		 0.00000000E+00	 0.00000000E+00	 0.00000000E+00
		 8.75705000E-04	 5.56029000E-05	 7.55837000E-04
		 7.47373000E-04	 5.81340000E-04	 7.14353000E-04
		-2.11618000E-05	 7.77340000E-03	 2.56390000E-05
		-2.64725000E-03	 7.77137000E-03	-1.42990000E-03
		-1.26048000E-05	 5.16487000E-03	 2.97578000E-05
		-2.61820000E-03	 5.14981000E-03	-1.43077000E-03
		-1.61254000E-05	 5.65248000E-03	 2.13220000E-05
		-1.32911000E-03	 7.77841000E-03	-6.31039000E-04
		-2.07784000E-03	 5.68575000E-03	-1.41168000E-03
		-1.65604000E-05	 6.46755000E-03	 2.78569000E-05
		-2.63335000E-03	 6.45237000E-03	-1.49319000E-03
		-1.02144000E-05	 3.59466000E-03	 2.53029000E-05
		-1.31695000E-03	 5.16250000E-03	-6.92826000E-04
		-2.08361000E-03	 3.61000000E-03	-1.41868000E-03
		 2.60303000E-03	 7.79348000E-03	 1.47983000E-03
		 2.59207000E-03	 5.17318000E-03	 1.48890000E-03
		 2.04356000E-03	 5.70425000E-03	 1.45289000E-03
		 1.28627000E-03	 7.78871000E-03	 6.81790000E-04
		 2.59862000E-03	 6.47598000E-03	 1.54773000E-03
		 2.06302000E-03	 3.62991000E-03	 1.46827000E-03
		 1.29136000E-03	 5.17449000E-03	 7.51968000E-04
		-5.33916000E-06	 2.56240000E-03	 3.37888000E-05
		-2.61224000E-03	 2.53789000E-03	-1.42193000E-03
		-8.99146000E-06	 3.85827000E-03	 3.17023000E-05
		-2.61622000E-03	 3.84228000E-03	-1.36653000E-03
		-4.67995000E-06	 1.50495000E-03	 2.85562000E-05
		-1.30724000E-03	 2.55345000E-03	-7.45865000E-04
		-2.11648000E-03	 1.51127000E-03	-1.40367000E-03
		 2.60183000E-03	 2.56063000E-03	 1.48814000E-03
		 2.59791000E-03	 3.86498000E-03	 1.42858000E-03
		 2.10871000E-03	 1.52980000E-03	 1.46040000E-03
		 1.29673000E-03	 2.56569000E-03	 8.13093000E-04
		-3.74486000E-05	 1.12831000E-02	 3.67444000E-05
		-3.28821000E-03	 1.12622000E-02	-1.29376000E-03
		-2.47781000E-05	 8.05237000E-03	 3.46958000E-05
		-3.24189000E-03	 8.02685000E-03	-1.29716000E-03
		-2.80572000E-05	 9.64719000E-03	 3.07092000E-05
		-1.66245000E-03	 1.12757000E-02	-6.01476000E-04
		-3.04236000E-03	 9.63560000E-03	-1.37815000E-03
		-3.09526000E-05	 9.66537000E-03	 3.57040000E-05
		-3.26489000E-03	 9.64099000E-03	-1.31944000E-03
		-1.72416000E-05	 6.65188000E-03	 3.28670000E-05
		-1.63411000E-03	 8.04251000E-03	-6.27920000E-04
		-3.00322000E-03	 6.63045000E-03	-1.37875000E-03
		 3.21682000E-03	 1.12929000E-02	 1.36648000E-03
		 3.19476000E-03	 8.05192000E-03	 1.36539000E-03
		 2.98653000E-03	 9.66219000E-03	 1.43868000E-03
		 1.58836000E-03	 1.12909000E-02	 6.74438000E-04
		 3.20621000E-03	 9.66861000E-03	 1.39032000E-03
		 2.96910000E-03	 6.65540000E-03	 1.44275000E-03
		 1.58516000E-03	 8.05465000E-03	 6.96931000E-04
		-1.36387000E-05	 4.84649000E-03	 3.37402000E-05
		-3.21092000E-03	 4.81625000E-03	-1.29782000E-03
		-1.88768000E-05	 6.44622000E-03	 3.40403000E-05
		-3.22648000E-03	 6.41981000E-03	-1.27488000E-03
		-7.90082000E-06	 3.67441000E-03	 3.54744000E-05
		-1.61161000E-03	 4.83402000E-03	-6.52005000E-04
		-2.98364000E-03	 3.64623000E-03	-1.37474000E-03
		 3.18509000E-03	 4.83805000E-03	 1.36378000E-03
		 3.19044000E-03	 6.44299000E-03	 1.34138000E-03
		 2.96825000E-03	 3.66974000E-03	 1.44318000E-03
		 1.58461000E-03	 4.84467000E-03	 7.19053000E-04
		-7.09409000E-05	 1.38294000E-02	 4.87604000E-05
		-3.41773000E-03	 1.38149000E-02	-1.11405000E-03
		-5.69779000E-05	 1.04956000E-02	 4.07643000E-05
		-3.38589000E-03	 1.04758000E-02	-1.11716000E-03
		-5.21460000E-05	 1.26692000E-02	 4.38190000E-05
		-1.74291000E-03	 1.38254000E-02	-5.50578000E-04
		-3.40517000E-03	 1.26507000E-02	-1.19294000E-03
		-6.45105000E-05	 1.21606000E-02	 4.40081000E-05
		-3.40212000E-03	 1.21416000E-02	-1.10692000E-03
		-3.84237000E-05	 9.33512000E-03	 3.68329000E-05
		-1.72222000E-03	 1.04894000E-02	-5.47210000E-04
		-3.36045000E-03	 9.31163000E-03	-1.19846000E-03
		 3.27942000E-03	 1.38434000E-02	 1.21104000E-03
		 3.27312000E-03	 1.05011000E-02	 1.19887000E-03
		 3.30548000E-03	 1.26821000E-02	 1.27978000E-03
		 1.60205000E-03	 1.38398000E-02	 6.48179000E-04
		 3.27614000E-03	 1.21677000E-02	 1.19440000E-03
		 3.28624000E-03	 9.33693000E-03	 1.27182000E-03
		 1.60882000E-03	 1.05015000E-02	 6.28700000E-04
		-4.18247000E-05	 7.17121000E-03	 3.37743000E-05
		-3.36299000E-03	 7.14747000E-03	-1.12824000E-03
		-4.91974000E-05	 8.83075000E-03	 3.78130000E-05
		-3.37501000E-03	 8.81005000E-03	-1.12678000E-03
		-2.49929000E-05	 6.02315000E-03	 3.12375000E-05
		-1.70205000E-03	 7.16235000E-03	-5.51204000E-04
		-3.32932000E-03	 5.99546000E-03	-1.20554000E-03
		 3.27751000E-03	 7.17527000E-03	 1.19665000E-03
		 3.27593000E-03	 8.83619000E-03	 1.20338000E-03
		 3.28006000E-03	 6.01892000E-03	 1.26820000E-03
		 1.61796000E-03	 7.17576000E-03	 6.18517000E-04
		-9.01212000E-05	 1.57666000E-02	 4.88160000E-05
		-3.16043000E-03	 1.57822000E-02	-1.24032000E-03
		-7.74124000E-05	 1.26610000E-02	 5.27697000E-05
		-3.21235000E-03	 1.26794000E-02	-1.22809000E-03
		-8.53357000E-05	 1.48059000E-02	 4.90423000E-05
		-1.62638000E-03	 1.57656000E-02	-6.39501000E-04
		-3.32408000E-03	 1.48083000E-02	-1.11863000E-03
		-8.44876000E-05	 1.42217000E-02	 5.12363000E-05
		-3.18696000E-03	 1.42402000E-02	-1.20732000E-03
		-7.17549000E-05	 1.15613000E-02	 4.64121000E-05
		-1.64433000E-03	 1.26617000E-02	-6.06244000E-04
		-3.32644000E-03	 1.15600000E-02	-1.11259000E-03
		 2.98197000E-03	 1.58062000E-02	 1.33767000E-03
		 3.05656000E-03	 1.27036000E-02	 1.33335000E-03
		 3.15558000E-03	 1.48336000E-02	 1.21656000E-03
		 1.44676000E-03	 1.57780000E-02	 7.36912000E-04
		 3.01902000E-03	 1.42635000E-02	 1.30957000E-03
		 3.18262000E-03	 1.15848000E-02	 1.20559000E-03
		 1.48946000E-03	 1.26732000E-02	 7.11738000E-04
		-6.24645000E-05	 9.49732000E-03	 5.65664000E-05
		-3.25957000E-03	 9.51228000E-03	-1.23231000E-03
		-6.99103000E-05	 1.10872000E-02	 5.42476000E-05
		-3.23576000E-03	 1.11042000E-02	-1.24555000E-03
		-5.62291000E-05	 8.29719000E-03	 4.41306000E-05
		-1.66008000E-03	 9.49645000E-03	-5.90176000E-04
		-3.33328000E-03	 8.29109000E-03	-1.12259000E-03
		 3.13037000E-03	 9.54277000E-03	 1.34518000E-03
		 3.09283000E-03	 1.11310000E-02	 1.35374000E-03
		 3.21712000E-03	 8.32150000E-03	 1.21135000E-03
		 1.53419000E-03	 9.51144000E-03	 7.03428000E-04
		-8.76601000E-05	 1.87294000E-02	 5.11697000E-05
		-3.02122000E-03	 1.87546000E-02	-1.83969000E-03
		-7.57334000E-05	 1.57427000E-02	 6.06896000E-05
		-3.10695000E-03	 1.57752000E-02	-1.83525000E-03
		-8.87449000E-05	 1.69990000E-02	 5.04001000E-05
		-1.55684000E-03	 1.87293000E-02	-8.71543000E-04
		-3.02877000E-03	 1.70172000E-02	-1.51694000E-03
		-8.20162000E-05	 1.72472000E-02	 5.64043000E-05
		-3.06404000E-03	 1.72789000E-02	-1.84752000E-03
		-7.65950000E-05	 1.40021000E-02	 5.80419000E-05
		-1.59085000E-03	 1.57460000E-02	-8.74133000E-04
		-3.11712000E-03	 1.40302000E-02	-1.50589000E-03
		 2.84657000E-03	 1.87797000E-02	 1.94229000E-03
		 2.95383000E-03	 1.58008000E-02	 1.95679000E-03
		 2.85284000E-03	 1.70411000E-02	 1.61717000E-03
		 1.38186000E-03	 1.87411000E-02	 9.74292000E-04
		 2.89969000E-03	 1.73040000E-02	 1.96029000E-03
		 2.96259000E-03	 1.40541000E-02	 1.62140000E-03
		 1.43888000E-03	 1.57580000E-02	 9.95670000E-04
		-6.33504000E-05	 1.26710000E-02	 6.93072000E-05
		-3.18361000E-03	 1.27021000E-02	-1.82220000E-03
		-6.92834000E-05	 1.42196000E-02	 6.46917000E-05
		-3.14486000E-03	 1.42509000E-02	-1.82566000E-03
		-6.31448000E-05	 1.09190000E-02	 6.53199000E-05
		-1.62318000E-03	 1.26742000E-02	-8.67476000E-04
		-3.19177000E-03	 1.09472000E-02	-1.50280000E-03
		 3.05331000E-03	 1.27321000E-02	 1.96095000E-03
		 3.00329000E-03	 1.42782000E-02	 1.95515000E-03
		 3.06139000E-03	 1.09765000E-02	 1.63292000E-03
		 1.49541000E-03	 1.26890000E-02	 1.00628000E-03
		-9.07590000E-05	 2.34289000E-02	 4.42088000E-05
		-3.32672000E-03	 2.34151000E-02	-2.17579000E-03
		-8.05376000E-05	 2.01961000E-02	 5.78604000E-05
		-3.31931000E-03	 2.01805000E-02	-2.16269000E-03
		-8.91308000E-05	 2.09674000E-02	 4.88279000E-05
		-1.70937000E-03	 2.34217000E-02	-1.02521000E-03
		-3.14974000E-03	 2.09726000E-02	-2.07195000E-03
		-8.57707000E-05	 2.18110000E-02	 5.14060000E-05
		-3.32330000E-03	 2.17964000E-02	-2.19517000E-03
		-7.82016000E-05	 1.78818000E-02	 6.04107000E-05
		-1.70166000E-03	 2.01890000E-02	-1.03471000E-03
		-3.19152000E-03	 1.78905000E-02	-2.06995000E-03
		 3.14792000E-03	 2.34497000E-02	 2.26392000E-03
		 3.15903000E-03	 2.02128000E-02	 2.27745000E-03
		 2.97172000E-03	 2.10012000E-02	 2.17095000E-03
		 1.52868000E-03	 2.34395000E-02	 1.11290000E-03
		 3.15414000E-03	 2.18295000E-02	 2.29802000E-03
		 3.03409000E-03	 1.79198000E-02	 2.19178000E-03
		 1.54101000E-03	 2.02052000E-02	 1.14990000E-03
		-6.92489000E-05	 1.69567000E-02	 7.06934000E-05
		-3.31193000E-03	 1.69409000E-02	-2.13710000E-03
		-7.50346000E-05	 1.85780000E-02	 6.42230000E-05
		-3.31651000E-03	 1.85618000E-02	-2.13223000E-03
		-6.64836000E-05	 1.47482000E-02	 7.02014000E-05
		-1.69154000E-03	 1.69492000E-02	-1.03145000E-03
		-3.22603000E-03	 1.47577000E-02	-2.04873000E-03
		 3.17181000E-03	 1.69753000E-02	 2.27676000E-03
		 3.16562000E-03	 1.85946000E-02	 2.25912000E-03
		 3.09058000E-03	 1.47903000E-02	 2.18982000E-03
		 1.55270000E-03	 1.69670000E-02	 1.17203000E-03
		-9.50926000E-05	 2.80283000E-02	 3.77743000E-05
		-3.47363000E-03	 2.80190000E-02	-2.14261000E-03
		-7.92228000E-05	 2.46256000E-02	 4.84684000E-05
		-3.44959000E-03	 2.46117000E-02	-2.10409000E-03
		-9.13881000E-05	 2.58036000E-02	 4.08702000E-05
		-1.77918000E-03	 2.80256000E-02	-1.05767000E-03
		-3.44670000E-03	 2.57940000E-02	-2.16534000E-03
		-8.78762000E-05	 2.63313000E-02	 4.25449000E-05
		-3.46257000E-03	 2.63162000E-02	-2.12575000E-03
		-7.97508000E-05	 2.24548000E-02	 5.37668000E-05
		-1.75977000E-03	 2.46212000E-02	-1.03171000E-03
		-3.42321000E-03	 2.24397000E-02	-2.13618000E-03
		 3.29491000E-03	 2.80502000E-02	 2.20863000E-03
		 3.29595000E-03	 2.46311000E-02	 2.19233000E-03
		 3.27194000E-03	 2.58323000E-02	 2.24155000E-03
		 1.59214000E-03	 2.80414000E-02	 1.13007000E-03
		 3.29624000E-03	 2.63394000E-02	 2.20211000E-03
		 3.26698000E-03	 2.24697000E-02	 2.23750000E-03
		 1.60308000E-03	 2.46291000E-02	 1.12620000E-03
		-6.20884000E-05	 2.12348000E-02	 6.56815000E-05
		-3.42814000E-03	 2.12123000E-02	-2.06278000E-03
		-7.02038000E-05	 2.29229000E-02	 5.61347000E-05
		-3.43840000E-03	 2.29069000E-02	-2.07782000E-03
		-6.72052000E-05	 1.91163000E-02	 6.99921000E-05
		-1.74251000E-03	 2.12261000E-02	-1.00416000E-03
		-3.40102000E-03	 1.90959000E-02	-2.10168000E-03
		 3.30128000E-03	 2.12328000E-02	 2.18569000E-03
		 3.29836000E-03	 2.29254000E-02	 2.18149000E-03
		 3.26434000E-03	 1.91274000E-02	 2.23459000E-03
		 1.61775000E-03	 2.12348000E-02	 1.13328000E-03
		 0.00000000E+00	 0.00000000E+00	 0.00000000E+00
		 0.00000000E+00	 0.00000000E+00	 0.00000000E+00
		-2.52031000E-05	-5.89852000E-03	 7.64618000E-05
		-3.43855000E-04	-6.09867000E-03	 4.36849000E-03
		 0.00000000E+00	 0.00000000E+00	 0.00000000E+00
		 0.00000000E+00	 0.00000000E+00	 0.00000000E+00
		-1.04064000E-05	-6.01020000E-03	 6.86272000E-05
		 8.10947000E-05	-6.23221000E-03	 4.44165000E-03
		 0.00000000E+00	 0.00000000E+00	 0.00000000E+00
		-1.63379000E-05	-1.68533000E-03	 3.91632000E-05
		-1.84276000E-04	-5.91250000E-03	 2.08473000E-03
		-6.04794000E-04	-2.05739000E-03	 2.42615000E-03
		 0.00000000E+00	 0.00000000E+00	 0.00000000E+00
		 0.00000000E+00	 0.00000000E+00	 0.00000000E+00
		-1.72202000E-05	-6.03444000E-03	 7.14152000E-05
		-1.27176000E-04	-6.24667000E-03	 4.42571000E-03
		 0.00000000E+00	 0.00000000E+00	 0.00000000E+00
		-4.20765000E-06	-1.89643000E-03	 3.19338000E-05
		 3.39923000E-05	-6.03153000E-03	 2.13165000E-03
		 6.39050000E-05	-2.28102000E-03	 2.37609000E-03
		 0.00000000E+00	 0.00000000E+00	 0.00000000E+00
		 2.91508000E-04	-6.02528000E-03	-4.21987000E-03
		 0.00000000E+00	 0.00000000E+00	 0.00000000E+00
		-1.00094000E-04	-6.15432000E-03	-4.30952000E-03
		 0.00000000E+00	 0.00000000E+00	 0.00000000E+00
		 5.70865000E-04	-2.01012000E-03	-2.34506000E-03
		 1.33398000E-04	-5.87743000E-03	-1.93329000E-03
		 0.00000000E+00	 0.00000000E+00	 0.00000000E+00
		 9.20406000E-05	-6.16910000E-03	-4.28834000E-03
		 0.00000000E+00	 0.00000000E+00	 0.00000000E+00
		-7.04695000E-05	-2.23499000E-03	-2.30939000E-03
		-5.56093000E-05	-5.99353000E-03	-1.99724000E-03
		 0.00000000E+00	 0.00000000E+00	 0.00000000E+00
		 0.00000000E+00	 0.00000000E+00	 0.00000000E+00
		 4.48682000E-06	-5.71557000E-03	 6.62539000E-05
		 5.09431000E-04	-5.91343000E-03	 4.35906000E-03
		 0.00000000E+00	 0.00000000E+00	 0.00000000E+00
		 0.00000000E+00	 0.00000000E+00	 0.00000000E+00
		-3.25400000E-06	-5.94317000E-03	 6.59092000E-05
		 2.91143000E-04	-6.14772000E-03	 4.41406000E-03
		 0.00000000E+00	 0.00000000E+00	 0.00000000E+00
		 7.54402000E-06	-1.55003000E-03	 3.37000000E-05
		 2.57061000E-04	-5.72895000E-03	 2.08051000E-03
		 7.28072000E-04	-1.92397000E-03	 2.41993000E-03
		 0.00000000E+00	 0.00000000E+00	 0.00000000E+00
		-4.99272000E-04	-5.83840000E-03	-4.23033000E-03
		 0.00000000E+00	 0.00000000E+00	 0.00000000E+00
		-2.96259000E-04	-6.07622000E-03	-4.28617000E-03
		 0.00000000E+00	 0.00000000E+00	 0.00000000E+00
		-7.11171000E-04	-1.87901000E-03	-2.35112000E-03
		-2.47582000E-04	-5.69332000E-03	-1.95045000E-03
		-5.13766000E-05	-1.75916000E-02	 1.36083000E-04
		-2.73436000E-04	-1.76907000E-02	 6.09153000E-03
		-2.99748000E-05	-1.77878000E-02	 1.18722000E-04
		-1.95141000E-04	-1.78735000E-02	 6.10975000E-03
		-3.56827000E-05	-1.14135000E-02	 1.07170000E-04
		-1.67123000E-04	-1.76410000E-02	 3.06875000E-03
		-2.40700000E-04	-1.16178000E-02	 5.52682000E-03
		-4.08645000E-05	-1.76929000E-02	 1.25613000E-04
		-2.33131000E-04	-1.77779000E-02	 6.08007000E-03
		-1.86512000E-05	-1.15105000E-02	 9.47613000E-05
		-1.05598000E-04	-1.78295000E-02	 3.05023000E-03
		 8.21402000E-06	-1.16990000E-02	 5.55648000E-03
		 1.71559000E-04	-1.75764000E-02	-5.82215000E-03
		 1.29068000E-04	-1.77650000E-02	-5.87297000E-03
		 1.67142000E-04	-1.15189000E-02	-5.31752000E-03
		 6.42339000E-05	-1.75847000E-02	-2.79822000E-03
		 1.50636000E-04	-1.76708000E-02	-5.82827000E-03
		-4.57284000E-05	-1.16008000E-02	-5.37115000E-03
		 4.85251000E-05	-1.77763000E-02	-2.81031000E-03
		-1.51290000E-05	-1.79152000E-02	 1.04745000E-04
		-7.67004000E-05	-1.79719000E-02	 6.05919000E-03
		-2.24599000E-05	-1.78485000E-02	 1.13227000E-04
		-1.34204000E-04	-1.79557000E-02	 6.14004000E-03
		-2.98367000E-06	-1.13607000E-02	 8.79081000E-05
		-5.43164000E-05	-1.79382000E-02	 2.96632000E-03
		 2.82337000E-04	-1.15344000E-02	 5.50801000E-03
		 6.96964000E-05	-1.78818000E-02	-5.85106000E-03
		 9.87409000E-05	-1.78275000E-02	-5.91739000E-03
		-2.77106000E-04	-1.14470000E-02	-5.33389000E-03
		 3.02251000E-05	-1.78947000E-02	-2.75317000E-03
		-7.58302000E-05	-2.95360000E-02	 1.85042000E-04
		-8.86792000E-04	-2.94298000E-02	 5.59029000E-03
		-5.48152000E-05	-3.04332000E-02	 1.80465000E-04
		-1.08149000E-03	-3.04290000E-02	 5.61371000E-03
		-6.58544000E-05	-2.37945000E-02	 1.63033000E-04
		-4.77700000E-04	-2.95105000E-02	 2.89374000E-03
		-4.92227000E-04	-2.38149000E-02	 6.08711000E-03
		-6.44545000E-05	-2.99603000E-02	 1.86690000E-04
		-9.87074000E-04	-2.99162000E-02	 5.52640000E-03
		-4.55366000E-05	-2.42632000E-02	 1.45862000E-04
		-5.91240000E-04	-3.04634000E-02	 2.81358000E-03
		-5.58653000E-04	-2.42834000E-02	 6.10705000E-03
		 6.95391000E-04	-2.93829000E-02	-5.20292000E-03
		 9.66603000E-04	-3.02851000E-02	-5.26895000E-03
		 3.51941000E-04	-2.37120000E-02	-5.75950000E-03
		 3.12652000E-04	-2.94891000E-02	-2.51169000E-03
		 8.28955000E-04	-2.98012000E-02	-5.16414000E-03
		 4.67408000E-04	-2.41635000E-02	-5.81496000E-03
		 4.56891000E-04	-3.03941000E-02	-2.47222000E-03
		-3.86125000E-05	-3.15685000E-02	 1.69732000E-04
		-1.36063000E-03	-3.16807000E-02	 5.57403000E-03
		-4.61720000E-05	-3.09856000E-02	 1.73668000E-04
		-1.22290000E-03	-3.09110000E-02	 5.71232000E-03
		-1.92535000E-05	-2.48138000E-02	 1.28109000E-04
		-6.68128000E-04	-3.16613000E-02	 2.66752000E-03
		-6.33229000E-04	-2.48510000E-02	 6.05557000E-03
		 1.23640000E-03	-3.14410000E-02	-5.27717000E-03
		 1.10096000E-03	-3.08295000E-02	-5.38143000E-03
		 5.53966000E-04	-2.47000000E-02	-5.80188000E-03
		 5.91909000E-04	-3.15475000E-02	-2.37273000E-03
		-2.90347000E-07	-3.75157000E-02	 2.19940000E-04
		-1.91432000E-03	-3.72076000E-02	 3.10994000E-03
		 1.15258000E-05	-3.97254000E-02	 2.72442000E-04
		-2.49408000E-03	-3.98693000E-02	 3.16319000E-03
		-8.65474000E-05	-3.42587000E-02	 2.05292000E-04
		-9.59738000E-04	-3.74242000E-02	 1.74626000E-03
		-1.38909000E-03	-3.41413000E-02	 4.51144000E-03
		 5.69059000E-06	-3.85258000E-02	 2.46747000E-04
		-2.19558000E-03	-3.83860000E-02	 3.05582000E-03
		-7.52711000E-05	-3.58012000E-02	 1.79451000E-04
		-1.11685000E-03	-3.98467000E-02	 1.71752000E-03
		-1.81391000E-03	-3.56202000E-02	 4.58672000E-03
		 1.74283000E-03	-3.72851000E-02	-2.67081000E-03
		 2.21870000E-03	-3.93268000E-02	-2.61815000E-03
		 1.18857000E-03	-3.40615000E-02	-4.09751000E-03
		 8.73583000E-04	-3.74681000E-02	-1.30594000E-03
		 1.98337000E-03	-3.82385000E-02	-2.56358000E-03
		 1.59288000E-03	-3.55501000E-02	-4.12238000E-03
		 1.10299000E-03	-3.95675000E-02	-1.17295000E-03
		-1.09552000E-04	-4.24164000E-02	 3.19506000E-04
		-2.92752000E-03	-4.29296000E-02	 3.21032000E-03
		-4.78799000E-05	-4.09726000E-02	 2.96674000E-04
		-2.71037000E-03	-4.18226000E-02	 3.26868000E-03
		-8.44765000E-05	-3.77214000E-02	 1.21765000E-04
		-1.63467000E-03	-4.27052000E-02	 1.68266000E-03
		-2.06851000E-03	-3.74294000E-02	 4.56360000E-03
		 2.70933000E-03	-4.18593000E-02	-2.57033000E-03