<?xml version="1.0"?>
<VTKFile type="UnstructuredGrid" version="0.1" byte_order="LittleEndian">
	<UnstructuredGrid>
		<Piece NumberOfPoints="522" NumberOfCells="64">
			<Points>
				<DataArray type="Float64" NumberOfComponents="3" format="ascii">
					 1.00000000E+00	 1.00000000E+00	-5.96046000E-08
					 1.00000000E+00	 5.00000000E-01	-5.96046000E-08
					 1.00000000E+00	 5.00000000E-01	 1.00000000E+00
					 1.00000000E+00	 1.00000000E+00	 1.00000000E+00
					 5.00000000E-01	 1.00000000E+00	-5.96046000E-08
					 5.00000000E-01	 5.00000000E-01	-5.96046000E-08
					 5.00000000E-01	 5.00000000E-01	 1.00000000E+00
					 5.00000000E-01	 1.00000000E+00	 1.00000000E+00
					 1.00000000E+00	 7.50000000E-01	-5.96046000E-08
					 1.00000000E+00	 5.00000000E-01	 5.00000000E-01
					 1.00000000E+00	 7.50000000E-01	 1.00000000E+00
					 1.00000000E+00	 1.00000000E+00	 5.00000000E-01
					 7.50000000E-01	 1.00000000E+00	-5.96046000E-08
					 7.50000000E-01	 5.00000000E-01	-5.96046000E-08
					 7.50000000E-01	 5.00000000E-01	 1.00000000E+00
					 7.50000000E-01	 1.00000000E+00	 1.00000000E+00
					 5.00000000E-01	 7.50000000E-01	-5.96046000E-08
					 5.00000000E-01	 5.00000000E-01	 5.00000000E-01
					 5.00000000E-01	 7.50000000E-01	 1.00000000E+00
					 5.00000000E-01	 1.00000000E+00	 5.00000000E-01
					 1.00000000E+00	-1.49012000E-08	-5.96046000E-08
					 1.00000000E+00	-1.49012000E-08	 1.00000000E+00
					 5.00000000E-01	-1.49012000E-08	-5.96046000E-08
					 5.00000000E-01	-1.49012000E-08	 1.00000000E+00
					 1.00000000E+00	 2.50000000E-01	-5.96046000E-08
					 1.00000000E+00	-1.49012000E-08	 5.00000000E-01
					 1.00000000E+00	 2.50000000E-01	 1.00000000E+00
					 7.50000000E-01	-1.49012000E-08	-5.96046000E-08
					 7.50000000E-01	-1.49012000E-08	 1.00000000E+00
					 5.00000000E-01	 2.50000000E-01	-5.96046000E-08
					 5.00000000E-01	-1.49012000E-08	 5.00000000E-01
					 5.00000000E-01	 2.50000000E-01	 1.00000000E+00
					-7.45058000E-09	 1.00000000E+00	-5.96046000E-08
					-7.45058000E-09	 5.00000000E-01	-5.96046000E-08
					-7.45058000E-09	 5.00000000E-01	 1.00000000E+00
					-7.45058000E-09	 1.00000000E+00	 1.00000000E+00
					 2.50000000E-01	 1.00000000E+00	-5.96046000E-08
					 2.50000000E-01	 5.00000000E-01	-5.96046000E-08
					 2.50000000E-01	 5.00000000E-01	 1.00000000E+00
					 2.50000000E-01	 1.00000000E+00	 1.00000000E+00
					-7.45058000E-09	 7.50000000E-01	-5.96046000E-08
					-7.45058000E-09	 5.00000000E-01	 5.00000000E-01
					-7.45058000E-09	 7.50000000E-01	 1.00000000E+00
					-7.45058000E-09	 1.00000000E+00	 5.00000000E-01
					-7.45058000E-09	-1.49012000E-08	-5.96046000E-08
					-7.45058000E-09	-1.49012000E-08	 1.00000000E+00
					 2.50000000E-01	-1.49012000E-08	-5.96046000E-08
					 2.50000000E-01	-1.49012000E-08	 1.00000000E+00
					-7.45058000E-09	 2.50000000E-01	-5.96046000E-08
					-7.45058000E-09	-1.49012000E-08	 5.00000000E-01
					-7.45058000E-09	 2.50000000E-01	 1.00000000E+00
					 1.00000000E+00	 5.00000000E-01	 2.00000000E+00
					 1.00000000E+00	 1.00000000E+00	 2.00000000E+00
					 5.00000000E-01	 5.00000000E-01	 2.00000000E+00
					 5.00000000E-01	 1.00000000E+00	 2.00000000E+00
					 1.00000000E+00	 5.00000000E-01	 1.50000000E+00
					 1.00000000E+00	 7.50000000E-01	 2.00000000E+00
					 1.00000000E+00	 1.00000000E+00	 1.50000000E+00
					 7.50000000E-01	 5.00000000E-01	 2.00000000E+00
					 7.50000000E-01	 1.00000000E+00	 2.00000000E+00
					 5.00000000E-01	 5.00000000E-01	 1.50000000E+00
					 5.00000000E-01	 7.50000000E-01	 2.00000000E+00
					 5.00000000E-01	 1.00000000E+00	 1.50000000E+00
					 1.00000000E+00	-1.49012000E-08	 2.00000000E+00
					 5.00000000E-01	-1.49012000E-08	 2.00000000E+00
					 1.00000000E+00	-1.49012000E-08	 1.50000000E+00
					 1.00000000E+00	 2.50000000E-01	 2.00000000E+00
					 7.50000000E-01	-1.49012000E-08	 2.00000000E+00
					 5.00000000E-01	-1.49012000E-08	 1.50000000E+00
					 5.00000000E-01	 2.50000000E-01	 2.00000000E+00
					-7.45058000E-09	 5.00000000E-01	 2.00000000E+00
					-7.45058000E-09	 1.00000000E+00	 2.00000000E+00
					 2.50000000E-01	 5.00000000E-01	 2.00000000E+00
					 2.50000000E-01	 1.00000000E+00	 2.00000000E+00
					-7.45058000E-09	 5.00000000E-01	 1.50000000E+00
					-7.45058000E-09	 7.50000000E-01	 2.00000000E+00
					-7.45058000E-09	 1.00000000E+00	 1.50000000E+00
					-7.45058000E-09	-1.49012000E-08	 2.00000000E+00
					 2.50000000E-01	-1.49012000E-08	 2.00000000E+00
					-7.45058000E-09	-1.49012000E-08	 1.50000000E+00
					-7.45058000E-09	 2.50000000E-01	 2.00000000E+00
					 1.00000000E+00	 5.00000000E-01	 3.00000000E+00
					 1.00000000E+00	 1.00000000E+00	 3.00000000E+00
					 5.00000000E-01	 5.00000000E-01	 3.00000000E+00
					 5.00000000E-01	 1.00000000E+00	 3.00000000E+00
					 1.00000000E+00	 5.00000000E-01	 2.50000000E+00
					 1.00000000E+00	 7.50000000E-01	 3.00000000E+00
					 1.00000000E+00	 1.00000000E+00	 2.50000000E+00
					 7.50000000E-01	 5.00000000E-01	 3.00000000E+00
					 7.50000000E-01	 1.00000000E+00	 3.00000000E+00
					 5.00000000E-01	 5.00000000E-01	 2.50000000E+00
					 5.00000000E-01	 7.50000000E-01	 3.00000000E+00
					 5.00000000E-01	 1.00000000E+00	 2.50000000E+00
					 1.00000000E+00	-1.49012000E-08	 3.00000000E+00
					 5.00000000E-01	-1.49012000E-08	 3.00000000E+00
					 1.00000000E+00	-1.49012000E-08	 2.50000000E+00
					 1.00000000E+00	 2.50000000E-01	 3.00000000E+00
					 7.50000000E-01	-1.49012000E-08	 3.00000000E+00
					 5.00000000E-01	-1.49012000E-08	 2.50000000E+00
					 5.00000000E-01	 2.50000000E-01	 3.00000000E+00
					-7.45058000E-09	 5.00000000E-01	 3.00000000E+00
					-7.45058000E-09	 1.00000000E+00	 3.00000000E+00
					 2.50000000E-01	 5.00000000E-01	 3.00000000E+00
					 2.50000000E-01	 1.00000000E+00	 3.00000000E+00
					-7.45058000E-09	 5.00000000E-01	 2.50000000E+00
					-7.45058000E-09	 7.50000000E-01	 3.00000000E+00
					-7.45058000E-09	 1.00000000E+00	 2.50000000E+00
					-7.45058000E-09	-1.49012000E-08	 3.00000000E+00
					 2.50000000E-01	-1.49012000E-08	 3.00000000E+00
					-7.45058000E-09	-1.49012000E-08	 2.50000000E+00
					-7.45058000E-09	 2.50000000E-01	 3.00000000E+00
					 1.00000000E+00	 5.00000000E-01	 4.00000000E+00
					 1.00000000E+00	 1.00000000E+00	 4.00000000E+00
					 5.00000000E-01	 5.00000000E-01	 4.00000000E+00
					 5.00000000E-01	 1.00000000E+00	 4.00000000E+00
					 1.00000000E+00	 5.00000000E-01	 3.50000000E+00
					 1.00000000E+00	 7.50000000E-01	 4.00000000E+00
					 1.00000000E+00	 1.00000000E+00	 3.50000000E+00
					 7.50000000E-01	 5.00000000E-01	 4.00000000E+00
					 7.50000000E-01	 1.00000000E+00	 4.00000000E+00
					 5.00000000E-01	 5.00000000E-01	 3.50000000E+00
					 5.00000000E-01	 7.50000000E-01	 4.00000000E+00
					 5.00000000E-01	 1.00000000E+00	 3.50000000E+00
					 1.00000000E+00	-1.49012000E-08	 4.00000000E+00
					 5.00000000E-01	-1.49012000E-08	 4.00000000E+00
					 1.00000000E+00	-1.49012000E-08	 3.50000000E+00
					 1.00000000E+00	 2.50000000E-01	 4.00000000E+00
					 7.50000000E-01	-1.49012000E-08	 4.00000000E+00
					 5.00000000E-01	-1.49012000E-08	 3.50000000E+00
					 5.00000000E-01	 2.50000000E-01	 4.00000000E+00
					-7.45058000E-09	 5.00000000E-01	 4.00000000E+00
					-7.45058000E-09	 1.00000000E+00	 4.00000000E+00
					 2.50000000E-01	 5.00000000E-01	 4.00000000E+00
					 2.50000000E-01	 1.00000000E+00	 4.00000000E+00
					-7.45058000E-09	 5.00000000E-01	 3.50000000E+00
					-7.45058000E-09	 7.50000000E-01	 4.00000000E+00
					-7.45058000E-09	 1.00000000E+00	 3.50000000E+00
					-7.45058000E-09	-1.49012000E-08	 4.00000000E+00
					 2.50000000E-01	-1.49012000E-08	 4.00000000E+00
					-7.45058000E-09	-1.49012000E-08	 3.50000000E+00
					-7.45058000E-09	 2.50000000E-01	 4.00000000E+00
					 1.00000000E+00	 5.00000000E-01	 5.00000000E+00
					 1.00000000E+00	 1.00000000E+00	 5.00000000E+00
					 5.00000000E-01	 5.00000000E-01	 5.00000000E+00
					 5.00000000E-01	 1.00000000E+00	 5.00000000E+00
					 1.00000000E+00	 5.00000000E-01	 4.50000000E+00
					 1.00000000E+00	 7.50000000E-01	 5.00000000E+00
					 1.00000000E+00	 1.00000000E+00	 4.50000000E+00
					 7.50000000E-01	 5.00000000E-01	 5.00000000E+00
					 7.50000000E-01	 1.00000000E+00	 5.00000000E+00
					 5.00000000E-01	 5.00000000E-01	 4.50000000E+00
					 5.00000000E-01	 7.50000000E-01	 5.00000000E+00
					 5.00000000E-01	 1.00000000E+00	 4.50000000E+00
					 1.00000000E+00	-1.49012000E-08	 5.00000000E+00
					 5.00000000E-01	-1.49012000E-08	 5.00000000E+00
					 1.00000000E+00	-1.49012000E-08	 4.50000000E+00
					 1.00000000E+00	 2.50000000E-01	 5.00000000E+00
					 7.50000000E-01	-1.49012000E-08	 5.00000000E+00
					 5.00000000E-01	-1.49012000E-08	 4.50000000E+00
					 5.00000000E-01	 2.50000000E-01	 5.00000000E+00
					-7.45058000E-09	 5.00000000E-01	 5.00000000E+00
					-7.45058000E-09	 1.00000000E+00	 5.00000000E+00
					 2.50000000E-01	 5.00000000E-01	 5.00000000E+00
					 2.50000000E-01	 1.00000000E+00	 5.00000000E+00
					-7.45058000E-09	 5.00000000E-01	 4.50000000E+00
					-7.45058000E-09	 7.50000000E-01	 5.00000000E+00
					-7.45058000E-09	 1.00000000E+00	 4.50000000E+00
					-7.45058000E-09	-1.49012000E-08	 5.00000000E+00
					 2.50000000E-01	-1.49012000E-08	 5.00000000E+00
					-7.45058000E-09	-1.49012000E-08	 4.50000000E+00
					-7.45058000E-09	 2.50000000E-01	 5.00000000E+00
					 1.00000000E+00	 5.00000000E-01	 6.00000000E+00
					 1.00000000E+00	 1.00000000E+00	 6.00000000E+00
					 5.00000000E-01	 5.00000000E-01	 6.00000000E+00
					 5.00000000E-01	 1.00000000E+00	 6.00000000E+00
					 1.00000000E+00	 5.00000000E-01	 5.50000000E+00
					 1.00000000E+00	 7.50000000E-01	 6.00000000E+00
					 1.00000000E+00	 1.00000000E+00	 5.50000000E+00
					 7.50000000E-01	 5.00000000E-01	 6.00000000E+00
					 7.50000000E-01	 1.00000000E+00	 6.00000000E+00
					 5.00000000E-01	 5.00000000E-01	 5.50000000E+00
					 5.00000000E-01	 7.50000000E-01	 6.00000000E+00
					 5.00000000E-01	 1.00000000E+00	 5.50000000E+00
					 1.00000000E+00	-1.49012000E-08	 6.00000000E+00
[...]
			<PointData>
				<DataArray type="Float32" Name="U" NumberOfComponents="3" ComponentName0="D1" ComponentName1="D2" ComponentName2="D3" format="ascii">
					 0.00000000E+00	 0.00000000E+00	 0.00000000E+00
					 0.00000000E+00	 0.00000000E+00	 0.00000000E+00
					-8.23120000E-06	-4.30843000E-03	-3.63452000E-05
					 1.03074000E-03	-4.48603000E-03	 2.87199000E-03
					 0.00000000E+00	 0.00000000E+00	 0.00000000E+00
					 0.00000000E+00	 0.00000000E+00	 0.00000000E+00
					-7.20985000E-06	-3.05335000E-03	-3.23596000E-05
					 1.43342000E-03	-3.25843000E-03	 2.90295000E-03
					 0.00000000E+00	 0.00000000E+00	 0.00000000E+00
					-6.92264000E-06	-1.28281000E-03	-1.24499000E-05
					 5.12659000E-04	-4.32645000E-03	 1.26947000E-03
					 2.54467000E-04	-1.50637000E-03	 1.43166000E-03
					 0.00000000E+00	 0.00000000E+00	 0.00000000E+00
					 0.00000000E+00	 0.00000000E+00	 0.00000000E+00
					-9.26494000E-06	-3.74490000E-03	-3.30326000E-05
					 1.23452000E-03	-3.93994000E-03	 3.01730000E-03
					 0.00000000E+00	 0.00000000E+00	 0.00000000E+00
					-7.31984000E-06	-7.55875000E-04	-1.76956000E-05
					 7.12009000E-04	-3.08313000E-03	 1.41256000E-03
					 7.12942000E-04	-1.00300000E-03	 1.38218000E-03
					 0.00000000E+00	 0.00000000E+00	 0.00000000E+00
					-1.05390000E-03	-4.47426000E-03	-2.94246000E-03
					 0.00000000E+00	 0.00000000E+00	 0.00000000E+00
					-1.45464000E-03	-3.23710000E-03	-2.96058000E-03
					 0.00000000E+00	 0.00000000E+00	 0.00000000E+00
					-2.56008000E-04	-1.50046000E-03	-1.45564000E-03
					-5.32539000E-04	-4.32129000E-03	-1.33810000E-03
					 0.00000000E+00	 0.00000000E+00	 0.00000000E+00
					-1.25881000E-03	-3.92295000E-03	-3.08323000E-03
					 0.00000000E+00	 0.00000000E+00	 0.00000000E+00
					-7.13815000E-04	-1.01125000E-03	-1.41419000E-03
					-7.28861000E-04	-3.07181000E-03	-1.47420000E-03
					 0.00000000E+00	 0.00000000E+00	 0.00000000E+00
					 0.00000000E+00	 0.00000000E+00	 0.00000000E+00
					-2.59419000E-06	-1.41915000E-03	-3.42340000E-05
					 1.82789000E-03	-1.62085000E-03	 2.87265000E-03
					 0.00000000E+00	 0.00000000E+00	 0.00000000E+00
					 0.00000000E+00	 0.00000000E+00	 0.00000000E+00
					-4.28125000E-06	-2.30252000E-03	-3.39357000E-05
					 1.62574000E-03	-2.50148000E-03	 2.75542000E-03
					 0.00000000E+00	 0.00000000E+00	 0.00000000E+00
					-5.66069000E-06	 1.43391000E-04	-2.08234000E-05
					 9.16379000E-04	-1.45224000E-03	 1.52862000E-03
					 1.11870000E-03	-1.19603000E-04	 1.41938000E-03
					 0.00000000E+00	 0.00000000E+00	 0.00000000E+00
					-1.83961000E-03	-1.58656000E-03	-2.92920000E-03
					 0.00000000E+00	 0.00000000E+00	 0.00000000E+00
					-1.64197000E-03	-2.47470000E-03	-2.80837000E-03
					 0.00000000E+00	 0.00000000E+00	 0.00000000E+00
					-1.10991000E-03	-1.43183000E-04	-1.45625000E-03
					-9.23526000E-04	-1.43256000E-03	-1.59551000E-03
					-1.13386000E-05	-1.43119000E-02	-1.27367000E-04
					 2.36847000E-03	-1.44917000E-02	 5.22988000E-03
					-1.38890000E-05	-1.17882000E-02	-9.35494000E-05
					 2.65574000E-03	-1.19662000E-02	 5.26977000E-03
					-6.78121000E-06	-8.72732000E-03	-7.30495000E-05
					 1.17699000E-03	-1.43675000E-02	 2.45132000E-03
					 1.76167000E-03	-8.93777000E-03	 4.15492000E-03
					-1.12317000E-05	-1.30855000E-02	-1.12520000E-04
					 2.51277000E-03	-1.32613000E-02	 5.32068000E-03
					-9.83697000E-06	-6.78045000E-03	-5.07916000E-05
					 1.32378000E-03	-1.18453000E-02	 2.55798000E-03
					 2.10611000E-03	-6.98969000E-03	 4.18765000E-03
					-2.40601000E-03	-1.44492000E-02	-5.49130000E-03
					-2.69134000E-03	-1.19049000E-02	-5.46833000E-03
					-1.79221000E-03	-8.91440000E-03	-4.30811000E-03
					-1.20329000E-03	-1.43512000E-02	-2.71007000E-03
					-2.54866000E-03	-1.32055000E-02	-5.55169000E-03
					-2.14368000E-03	-6.94306000E-03	-4.29766000E-03
					-1.35364000E-03	-1.18148000E-02	-2.74873000E-03
					-1.38664000E-05	-8.96648000E-03	-5.37365000E-05
					 2.97040000E-03	-9.13332000E-03	 5.29545000E-03
					-1.57325000E-05	-1.04095000E-02	-7.34888000E-05
					 2.81351000E-03	-1.05866000E-02	 5.22687000E-03
					-9.85486000E-06	-4.47604000E-03	-3.46492000E-05
					 1.47573000E-03	-9.01660000E-03	 2.64675000E-03
					 2.48071000E-03	-4.68406000E-03	 4.18908000E-03
					-2.99628000E-03	-9.06825000E-03	-5.41765000E-03
					-2.84682000E-03	-1.05242000E-02	-5.39093000E-03
					-2.52308000E-03	-4.60918000E-03	-4.26686000E-03
					-1.50157000E-03	-8.98331000E-03	-2.75623000E-03
					-7.18332000E-06	-2.75662000E-02	-2.44356000E-04
					 3.03775000E-03	-2.77567000E-02	 6.76534000E-03
					 3.28591000E-06	-2.44285000E-02	-1.99741000E-04
					 3.26588000E-03	-2.45988000E-02	 6.80730000E-03
					-1.11345000E-05	-2.06643000E-02	-1.87619000E-04
					 1.51045000E-03	-2.76365000E-02	 3.24924000E-03
					 2.79663000E-03	-2.08538000E-02	 6.05327000E-03
					-4.33604000E-06	-2.60267000E-02	-2.21091000E-04
					 3.15018000E-03	-2.62027000E-02	 6.80683000E-03
					-5.63306000E-06	-1.77498000E-02	-1.48381000E-04
					 1.63480000E-03	-2.44872000E-02	 3.31140000E-03
					 3.04343000E-03	-1.79226000E-02	 6.09519000E-03
					-3.03665000E-03	-2.76292000E-02	-7.25739000E-03
					-3.25306000E-03	-2.44863000E-02	-7.21021000E-03
					-2.81574000E-03	-2.07626000E-02	-6.42674000E-03
					-1.52064000E-03	-2.75696000E-02	-3.73809000E-03
					-3.14495000E-03	-2.60845000E-02	-7.25297000E-03
					-3.04870000E-03	-1.78354000E-02	-6.39215000E-03
					-1.62619000E-03	-2.44319000E-02	-3.71199000E-03
					 1.86946000E-05	-2.10463000E-02	-1.50664000E-04
					 3.51285000E-03	-2.12198000E-02	 6.85581000E-03
					 1.18997000E-05	-2.27659000E-02	-1.75881000E-04
					 3.39086000E-03	-2.29366000E-02	 6.80947000E-03
					 2.87315000E-06	-1.45750000E-02	-9.79443000E-05
					 1.76724000E-03	-2.11055000E-02	 3.37980000E-03
					 3.31358000E-03	-1.47390000E-02	 6.13447000E-03
					-3.48400000E-03	-2.10978000E-02	-7.15875000E-03
					-3.36945000E-03	-2.28208000E-02	-7.16264000E-03
					-3.29812000E-03	-1.46597000E-02	-6.33273000E-03
					-1.73395000E-03	-2.10454000E-02	-3.68268000E-03
					 1.14852000E-05	-4.29704000E-02	-4.13877000E-04
					 2.96113000E-03	-4.32236000E-02	 8.43746000E-03
					 9.28931000E-06	-3.98427000E-02	-3.56297000E-04
					 3.29713000E-03	-4.01032000E-02	 8.48312000E-03
					 6.38753000E-07	-3.49125000E-02	-3.17808000E-04
					 1.48738000E-03	-4.30525000E-02	 4.06933000E-03
					 3.07519000E-03	-3.51311000E-02	 7.51759000E-03
					 1.14168000E-05	-4.14499000E-02	-3.86238000E-04
					 3.13144000E-03	-4.17053000E-02	 8.43220000E-03
					 1.81321000E-06	-3.17120000E-02	-2.64898000E-04
					 1.65508000E-03	-3.99287000E-02	 4.09664000E-03
					 3.33777000E-03	-3.19224000E-02	 7.56053000E-03
					-2.95252000E-03	-4.30734000E-02	-9.26698000E-03
					-3.28862000E-03	-3.99336000E-02	-9.19194000E-03
					-3.07597000E-03	-3.50012000E-02	-8.16052000E-03
					-1.46763000E-03	-4.29781000E-02	-4.89598000E-03
					-3.12287000E-03	-4.15451000E-02	-9.20490000E-03
					-3.33457000E-03	-3.17881000E-02	-8.09491000E-03
					-1.63910000E-03	-3.98420000E-02	-4.80675000E-03
					 1.02528000E-05	-3.63853000E-02	-2.89949000E-04
					 3.65289000E-03	-3.66393000E-02	 8.56463000E-03
					 7.95297000E-06	-3.81560000E-02	-3.23886000E-04
					 3.47190000E-03	-3.84169000E-02	 8.52878000E-03
					 8.86940000E-06	-2.82401000E-02	-2.11392000E-04
					 1.83004000E-03	-3.64682000E-02	 4.16328000E-03
					 3.62301000E-03	-2.84487000E-02	 7.62488000E-03
					-3.63092000E-03	-3.64646000E-02	-9.14046000E-03
					-3.45937000E-03	-3.82424000E-02	-9.17144000E-03
					-3.60319000E-03	-2.83095000E-02	-8.05107000E-03
					-1.80852000E-03	-3.63792000E-02	-4.74124000E-03
					 6.66192000E-06	-6.28027000E-02	-6.68686000E-04
					 2.55082000E-03	-6.31221000E-02	 1.08159000E-02
					 8.77757000E-06	-6.00522000E-02	-5.88959000E-04
					 2.95147000E-03	-6.03855000E-02	 1.09070000E-02
					 9.65436000E-06	-5.21569000E-02	-5.27285000E-04
					 1.28295000E-03	-6.29109000E-02	 5.07648000E-03
					 2.75848000E-03	-5.24416000E-02	 9.61181000E-03
					 6.13577000E-06	-6.14788000E-02	-6.30742000E-04
					 2.74857000E-03	-6.18071000E-02	 1.08312000E-02
					 1.26751000E-05	-4.91996000E-02	-4.62565000E-04
					 1.48080000E-03	-6.01650000E-02	 5.13299000E-03
					 3.15775000E-03	-4.94988000E-02	 9.66833000E-03
					-2.54015000E-03	-6.28575000E-02	-1.21629000E-02
					-2.93935000E-03	-6.01078000E-02	-1.20955000E-02
					-2.75237000E-03	-5.22427000E-02	-1.06656000E-02
					-1.26982000E-03	-6.27767000E-02	-6.41605000E-03
					-2.73957000E-03	-6.15383000E-02	-1.21026000E-02
					-3.14547000E-03	-4.92761000E-02	-1.05924000E-02
					-1.46417000E-03	-6.00272000E-02	-6.31210000E-03
					 1.88254000E-05	-5.69132000E-02	-5.06114000E-04
					 3.36014000E-03	-5.72460000E-02	 1.09826000E-02
					 1.34131000E-05	-5.85338000E-02	-5.47653000E-04
					 3.15644000E-03	-5.88708000E-02	 1.09862000E-02
					 1.99907000E-05	-4.58540000E-02	-3.86968000E-04
					 1.68653000E-03	-5.70258000E-02	 5.17414000E-03
					 3.57094000E-03	-4.61515000E-02	 9.75635000E-03
					-3.33066000E-03	-5.69523000E-02	-1.20025000E-02
					-3.13735000E-03	-5.85838000E-02	-1.20913000E-02
					-3.54239000E-03	-4.59105000E-02	-1.05267000E-02
					-1.65078000E-03	-5.68816000E-02	-6.18509000E-03
					 6.45624000E-05	-8.83584000E-02	-1.05601000E-03
					 2.47509000E-03	-8.86046000E-02	 1.23535000E-02
					 6.20186000E-05	-8.58568000E-02	-9.62787000E-04
					 2.64288000E-03	-8.61215000E-02	 1.24757000E-02
					 3.29244000E-05	-7.50155000E-02	-8.48620000E-04
					 1.27368000E-03	-8.84591000E-02	 5.59782000E-03
					 2.46004000E-03	-7.53004000E-02	 1.17734000E-02
					 6.47228000E-05	-8.71262000E-02	-1.00844000E-03
					 2.55870000E-03	-8.73854000E-02	 1.24135000E-02
					 3.05978000E-05	-7.24335000E-02	-7.59513000E-04
					 1.35279000E-03	-8.59698000E-02	 5.70130000E-03
					 2.76144000E-03	-7.27331000E-02	 1.18966000E-02
					-2.36952000E-03	-8.82602000E-02	-1.44585000E-02
					-2.53235000E-03	-8.57472000E-02	-1.43875000E-02
					-2.40246000E-03	-7.49915000E-02	-1.34832000E-02
					-1.15076000E-03	-8.82936000E-02	-7.70691000E-03
					-2.45038000E-03	-8.70221000E-02	-1.44227000E-02
					-2.70568000E-03	-7.24103000E-02	-1.34211000E-02
					-1.23392000E-03	-8.57853000E-02	-7.62251000E-03
					 5.84602000E-05	-8.31898000E-02	-8.68957000E-04
					 2.79476000E-03	-8.34664000E-02	 1.25465000E-02
					 5.89701000E-05	-8.45435000E-02	-9.17381000E-04
					 2.71793000E-03	-8.48126000E-02	 1.25442000E-02
					 3.19011000E-05	-6.95525000E-02	-6.69283000E-04
					 1.42886000E-03	-8.33074000E-02	 5.75217000E-03
					 3.05956000E-03	-6.98532000E-02	 1.19620000E-02
					-2.68139000E-03	-8.30882000E-02	-1.42641000E-02
					-2.60682000E-03	-8.44328000E-02	-1.43606000E-02
					-2.99507000E-03	-6.95280000E-02	-1.32992000E-02
					-1.31464000E-03	-8.31231000E-02	-7.48243000E-03
					 1.23954000E-04	-1.16324000E-01	-1.45705000E-03
					 2.76423000E-03	-1.16549000E-01	 1.23858000E-02
					 1.17971000E-04	-1.13685000E-01	-1.35482000E-03
					 2.76658000E-03	-1.13906000E-01	 1.24788000E-02
					 9.15342000E-05	-1.02238000E-01	-1.26485000E-03
					 1.44298000E-03	-1.16439000E-01	 5.42526000E-03
					 2.56152000E-03	-1.02470000E-01	 1.24817000E-02
					 1.23368000E-04	-1.15002000E-01	-1.40617000E-03
					 2.76853000E-03	-1.15225000E-01	 1.24660000E-02
					 8.66291000E-05	-9.97274000E-02	-1.16345000E-03
					 1.44470000E-03	-1.13801000E-01	 5.55225000E-03
					 2.62853000E-03	-9.99764000E-02	 1.25934000E-02
					-2.52001000E-03	-1.16124000E-01	-1.53160000E-02
					-2.53900000E-03	-1.13477000E-01	-1.52037000E-02
					-2.40025000E-03	-1.02080000E-01	-1.49945000E-02
					-1.19719000E-03	-1.16220000E-01	-8.34899000E-03
					-2.52745000E-03	-1.14798000E-01	-1.52921000E-02
					-2.46820000E-03	-9.95592000E-02	-1.49055000E-02
					-1.21132000E-03	-1.13578000E-01	-8.26866000E-03
					 1.08414000E-04	-1.11030000E-01	-1.24534000E-03
					 2.76952000E-03	-1.11257000E-01	 1.25713000E-02
					 1.11503000E-04	-1.12361000E-01	-1.29937000E-03
					 2.76586000E-03	-1.12582000E-01	 1.24956000E-02
					 8.06269000E-05	-9.71535000E-02	-1.06566000E-03
					 1.44349000E-03	-1.11152000E-01	 5.67775000E-03
					 2.67486000E-03	-9.74199000E-02	 1.26739000E-02
					-2.55099000E-03	-1.10822000E-01	-1.50767000E-02
					-2.54871000E-03	-1.12149000E-01	-1.51076000E-02
					-2.51308000E-03	-9.70002000E-02	-1.47906000E-02
					-1.22495000E-03	-1.10921000E-01	-8.17720000E-03
					 1.26830000E-04	-1.44415000E-01	-1.83709000E-03
					 3.08165000E-03	-1.44596000E-01	 1.20279000E-02
					 1.85961000E-04	-1.41433000E-01	-1.75048000E-03
					 3.10726000E-03	-1.41578000E-01	 1.20648000E-02
					 1.38876000E-04	-1.30420000E-01	-1.63975000E-03
					 1.59136000E-03	-1.44498000E-01	 5.09440000E-03
					 2.98862000E-03	-1.30636000E-01	 1.22166000E-02
					 1.52885000E-04	-1.42938000E-01	-1.80313000E-03
					 3.09106000E-03	-1.43091000E-01	 1.20585000E-02
					 1.49924000E-04	-1.27575000E-01	-1.54980000E-03
					 1.63579000E-03	-1.41498000E-01	 5.16742000E-03
					 2.99352000E-03	-1.27770000E-01	 1.22734000E-02
					-2.79789000E-03	-1.44287000E-01	-1.57880000E-02
					-2.76970000E-03	-1.41280000E-01	-1.56402000E-02
					-2.69640000E-03	-1.30232000E-01	-1.55673000E-02
					-1.32888000E-03	-1.44357000E-01	-8.79298000E-03
					-2.78210000E-03	-1.42797000E-01	-1.57445000E-02
					-2.71546000E-03	-1.27379000E-01	-1.54327000E-02
					-1.27695000E-03	-1.41365000E-01	-8.68962000E-03
					 2.34110000E-04	-1.38434000E-01	-1.59087000E-03
					 3.13697000E-03	-1.38601000E-01	 1.21608000E-02
					 2.15974000E-04	-1.39922000E-01	-1.67648000E-03
					 3.12609000E-03	-1.40073000E-01	 1.20883000E-02
					 1.55302000E-04	-1.24715000E-01	-1.41361000E-03
					 1.68747000E-03	-1.38517000E-01	 5.30647000E-03
					 2.98706000E-03	-1.24931000E-01	 1.23722000E-02
					-2.76338000E-03	-1.38218000E-01	-1.54297000E-02
					-2.76751000E-03	-1.39750000E-01	-1.55172000E-02
					-2.72304000E-03	-1.24489000E-01	-1.52598000E-02
					-1.24792000E-03	-1.38327000E-01	-8.51871000E-03
					 0.00000000E+00	 0.00000000E+00	 0.00000000E+00
					 0.00000000E+00	 0.00000000E+00	 0.00000000E+00
					 5.17633000E-05	-1.17922000E-02	-9.35463000E-05
					-3.93258000E-03	-1.27774000E-02	 1.30868000E-02
					 0.00000000E+00	 0.00000000E+00	 0.00000000E+00
					 0.00000000E+00	 0.00000000E+00	 0.00000000E+00
					 6.22139000E-05	-1.48945000E-02	-1.43445000E-04
					-2.18251000E-03	-1.59299000E-02	 1.31888000E-02
					 0.00000000E+00	 0.00000000E+00	 0.00000000E+00
					 2.15222000E-05	-2.01192000E-03	-1.58093000E-05
					-1.94539000E-03	-1.19870000E-02	 6.55429000E-03
					-3.04628000E-03	-3.24566000E-03	 6.67050000E-03
					 0.00000000E+00	 0.00000000E+00	 0.00000000E+00
					 0.00000000E+00	 0.00000000E+00	 0.00000000E+00
					 5.77175000E-05	-1.36371000E-02	-1.20506000E-04
					-3.04485000E-03	-1.46394000E-02	 1.29320000E-02
					 0.00000000E+00	 0.00000000E+00	 0.00000000E+00
					 1.75098000E-05	-4.01431000E-03	-3.92349000E-05
					-1.05946000E-03	-1.50994000E-02	 6.36861000E-03
					-1.07441000E-03	-5.20519000E-03	 6.47155000E-03
					 0.00000000E+00	 0.00000000E+00	 0.00000000E+00
					 4.00872000E-03	-1.23430000E-02	-1.33290000E-02
					 0.00000000E+00	 0.00000000E+00	 0.00000000E+00
					 2.30934000E-03	-1.54898000E-02	-1.35289000E-02
					 0.00000000E+00	 0.00000000E+00	 0.00000000E+00
					 3.08864000E-03	-3.08098000E-03	-6.71863000E-03
					 2.03808000E-03	-1.17606000E-02	-6.75950000E-03
					 0.00000000E+00	 0.00000000E+00	 0.00000000E+00
					 3.15253000E-03	-1.42043000E-02	-1.32260000E-02
					 0.00000000E+00	 0.00000000E+00	 0.00000000E+00
					 1.13213000E-03	-5.06759000E-03	-6.55098000E-03
					 1.18285000E-03	-1.48776000E-02	-6.67304000E-03
					 0.00000000E+00	 0.00000000E+00	 0.00000000E+00
					 0.00000000E+00	 0.00000000E+00	 0.00000000E+00
					 6.49731000E-05	-1.62840000E-02	-1.54671000E-04
					-4.22976000E-04	-1.72461000E-02	 1.30433000E-02
					 0.00000000E+00	 0.00000000E+00	 0.00000000E+00
					 0.00000000E+00	 0.00000000E+00	 0.00000000E+00
					 6.51816000E-05	-1.58796000E-02	-1.60106000E-04
					-1.31111000E-03	-1.68841000E-02	 1.33137000E-02
					 0.00000000E+00	 0.00000000E+00	 0.00000000E+00
					 1.09927000E-05	-4.21747000E-03	-2.96835000E-05
					-1.80480000E-04	-1.64563000E-02	 6.09142000E-03
					 9.82510000E-04	-5.34302000E-03	 6.67156000E-03
					 0.00000000E+00	 0.00000000E+00	 0.00000000E+00
					 5.79027000E-04	-1.68200000E-02	-1.33874000E-02
					 0.00000000E+00	 0.00000000E+00	 0.00000000E+00
					 1.45015000E-03	-1.64413000E-02	-1.36790000E-02
					 0.00000000E+00	 0.00000000E+00	 0.00000000E+00
					-9.14707000E-04	-5.22762000E-03	-6.73220000E-03
					 3.20752000E-04	-1.62531000E-02	-6.40950000E-03
					 1.73803000E-04	-4.88161000E-02	-7.47120000E-04
					-5.49215000E-03	-5.00594000E-02	 2.29347000E-02
					 1.98031000E-04	-5.37769000E-02	-8.92976000E-04
					-4.09566000E-03	-5.50375000E-02	 2.28345000E-02
					 1.13305000E-04	-2.75859000E-02	-3.19218000E-04
					-2.65558000E-03	-4.92883000E-02	 1.11012000E-02
					-4.82953000E-03	-2.87817000E-02	 1.84914000E-02
					 1.89941000E-04	-5.14445000E-02	-8.31902000E-04
					-4.79219000E-03	-5.26983000E-02	 2.27883000E-02
					 1.20700000E-04	-3.17214000E-02	-4.10883000E-04
					-1.94658000E-03	-5.42583000E-02	 1.08945000E-02
					-3.22722000E-03	-3.29291000E-02	 1.84572000E-02
					 5.82863000E-03	-4.88401000E-02	-2.45088000E-02
					 4.49498000E-03	-5.38326000E-02	-2.47063000E-02
					 5.02538000E-03	-2.79904000E-02	-1.92132000E-02
					 2.99755000E-03	-4.86797000E-02	-1.26175000E-02
					 5.16830000E-03	-5.14957000E-02	-2.45276000E-02
					 3.46233000E-03	-3.21338000E-02	-1.93652000E-02
					 2.34725000E-03	-5.36618000E-02	-1.26989000E-02
					 2.02494000E-04	-5.74056000E-02	-9.67050000E-04
					-2.71899000E-03	-5.86319000E-02	 2.27126000E-02
					 1.99770000E-04	-5.57408000E-02	-9.36806000E-04
					-3.40657000E-03	-5.70195000E-02	 2.29056000E-02
					 1.16474000E-04	-3.42805000E-02	-4.50591000E-04
					-1.26394000E-03	-5.78584000E-02	 1.06593000E-02
					-1.66683000E-03	-3.54993000E-02	 1.83621000E-02
					 3.17953000E-03	-5.74827000E-02	-2.47365000E-02
					 3.83717000E-03	-5.57977000E-02	-2.48751000E-02
					 1.92367000E-03	-3.47208000E-02	-1.93472000E-02
					 1.68655000E-03	-5.73052000E-02	-1.26083000E-02
					 4.29597000E-04	-1.04641000E-01	-2.25745000E-03
					-6.07733000E-03	-1.06055000E-01	 2.88804000E-02
					 4.82389000E-04	-1.10671000E-01	-2.46479000E-03
					-5.12563000E-03	-1.12191000E-01	 2.87292000E-02
					 2.79849000E-04	-7.47229000E-02	-1.39332000E-03
					-2.81901000E-03	-1.05228000E-01	 1.32392000E-02
					-5.89974000E-03	-7.60904000E-02	 2.63895000E-02
					 4.56300000E-04	-1.07772000E-01	-2.36311000E-03
					-5.60172000E-03	-1.09253000E-01	 2.87510000E-02
					 3.16716000E-04	-8.03199000E-02	-1.58223000E-03
					-2.34893000E-03	-1.11309000E-01	 1.29990000E-02
					-4.71892000E-03	-8.16980000E-02	 2.62608000E-02
					 6.92447000E-03	-1.04023000E-01	-3.34352000E-02
					 6.10944000E-03	-1.10099000E-01	-3.37378000E-02
					 6.45959000E-03	-7.44345000E-02	-2.92428000E-02
					 3.67251000E-03	-1.04220000E-01	-1.77559000E-02
					 6.51505000E-03	-1.07176000E-01	-3.35481000E-02
					 5.37533000E-03	-8.00521000E-02	-2.94941000E-02
					 3.29644000E-03	-1.10281000E-01	-1.79626000E-02
					 5.22094000E-04	-1.15863000E-01	-2.61600000E-03
					-4.30543000E-03	-1.17491000E-01	 2.85184000E-02
					 5.05137000E-04	-1.13393000E-01	-2.55085000E-03
					-4.71888000E-03	-1.14845000E-01	 2.87325000E-02
					 3.47934000E-04	-8.48085000E-02	-1.69639000E-03
					-1.86446000E-03	-1.16554000E-01	 1.27038000E-02
					-3.60195000E-03	-8.61986000E-02	 2.60946000E-02
					 5.31308000E-03	-1.15329000E-01	-3.38551000E-02
					 5.71499000E-03	-1.12815000E-01	-3.39150000E-02
					 4.29369000E-03	-8.45691000E-02	-2.95595000E-02
					 2.90898000E-03	-1.15509000E-01	-1.79929000E-02
					 9.06301000E-04	-1.72860000E-01	-4.53305000E-03
					-5.60392000E-03	-1.74108000E-01	 3.01722000E-02