<?xml version="1.0"?>
<VTKFile type="UnstructuredGrid" version="0.1" byte_order="LittleEndian">
	<UnstructuredGrid>
		<Piece NumberOfPoints="522" NumberOfCells="64">
			<Points>
				<DataArray type="Float64" NumberOfComponents="3" format="ascii">
					 1.00000000E+00	 1.00000000E+00	-5.96046000E-08
					 1.00000000E+00	 5.00000000E-01	-5.96046000E-08
					 1.00000000E+00	 5.00000000E-01	 1.00000000E+00
					 1.00000000E+00	 1.00000000E+00	 1.00000000E+00
					 5.00000000E-01	 1.00000000E+00	-5.96046000E-08
					 5.00000000E-01	 5.00000000E-01	-5.96046000E-08
					 5.00000000E-01	 5.00000000E-01	 1.00000000E+00
					 5.00000000E-01	 1.00000000E+00	 1.00000000E+00
					 1.00000000E+00	 7.50000000E-01	-5.96046000E-08
					 1.00000000E+00	 5.00000000E-01	 5.00000000E-01
					 1.00000000E+00	 7.50000000E-01	 1.00000000E+00
					 1.00000000E+00	 1.00000000E+00	 5.00000000E-01
					 7.50000000E-01	 1.00000000E+00	-5.96046000E-08
					 7.50000000E-01	 5.00000000E-01	-5.96046000E-08
					 7.50000000E-01	 5.00000000E-01	 1.00000000E+00
					 7.50000000E-01	 1.00000000E+00	 1.00000000E+00
					 5.00000000E-01	 7.50000000E-01	-5.96046000E-08
					 5.00000000E-01	 5.00000000E-01	 5.00000000E-01
					 5.00000000E-01	 7.50000000E-01	 1.00000000E+00
					 5.00000000E-01	 1.00000000E+00	 5.00000000E-01
					 1.00000000E+00	-1.49012000E-08	-5.96046000E-08
					 1.00000000E+00	-1.49012000E-08	 1.00000000E+00
					 5.00000000E-01	-1.49012000E-08	-5.96046000E-08
					 5.00000000E-01	-1.49012000E-08	 1.00000000E+00
					 1.00000000E+00	 2.50000000E-01	-5.96046000E-08
					 1.00000000E+00	-1.49012000E-08	 5.00000000E-01
					 1.00000000E+00	 2.50000000E-01	 1.00000000E+00
					 7.50000000E-01	-1.49012000E-08	-5.96046000E-08
					 7.50000000E-01	-1.49012000E-08	 1.00000000E+00
					 5.00000000E-01	 2.50000000E-01	-5.96046000E-08
					 5.00000000E-01	-1.49012000E-08	 5.00000000E-01
					 5.00000000E-01	 2.50000000E-01	 1.00000000E+00
					-7.45058000E-09	 1.00000000E+00	-5.96046000E-08
					-7.45058000E-09	 5.00000000E-01	-5.96046000E-08
					-7.45058000E-09	 5.00000000E-01	 1.00000000E+00
					-7.45058000E-09	 1.00000000E+00	 1.00000000E+00
					 2.50000000E-01	 1.00000000E+00	-5.96046000E-08
					 2.50000000E-01	 5.00000000E-01	-5.96046000E-08
					 2.50000000E-01	 5.00000000E-01	 1.00000000E+00
					 2.50000000E-01	 1.00000000E+00	 1.00000000E+00
					-7.45058000E-09	 7.50000000E-01	-5.96046000E-08
					-7.45058000E-09	 5.00000000E-01	 5.00000000E-01
					-7.45058000E-09	 7.50000000E-01	 1.00000000E+00
					-7.45058000E-09	 1.00000000E+00	 5.00000000E-01
					-7.45058000E-09	-1.49012000E-08	-5.96046000E-08
					-7.45058000E-09	-1.49012000E-08	 1.00000000E+00
					 2.50000000E-01	-1.49012000E-08	-5.96046000E-08
					 2.50000000E-01	-1.49012000E-08	 1.00000000E+00
					-7.45058000E-09	 2.50000000E-01	-5.96046000E-08
					-7.45058000E-09	-1.49012000E-08	 5.00000000E-01
					-7.45058000E-09	 2.50000000E-01	 1.00000000E+00
					 1.00000000E+00	 5.00000000E-01	 2.00000000E+00
					 1.00000000E+00	 1.00000000E+00	 2.00000000E+00
					 5.00000000E-01	 5.00000000E-01	 2.00000000E+00
					 5.00000000E-01	 1.00000000E+00	 2.00000000E+00
					 1.00000000E+00	 5.00000000E-01	 1.50000000E+00
					 1.00000000E+00	 7.50000000E-01	 2.00000000E+00
					 1.00000000E+00	 1.00000000E+00	 1.50000000E+00
					 7.50000000E-01	 5.00000000E-01	 2.00000000E+00
					 7.50000000E-01	 1.00000000E+00	 2.00000000E+00
					 5.00000000E-01	 5.00000000E-01	 1.50000000E+00
					 5.00000000E-01	 7.50000000E-01	 2.00000000E+00
					 5.00000000E-01	 1.00000000E+00	 1.50000000E+00
					 1.00000000E+00	-1.49012000E-08	 2.00000000E+00
					 5.00000000E-01	-1.49012000E-08	 2.00000000E+00
					 1.00000000E+00	-1.49012000E-08	 1.50000000E+00
					 1.00000000E+00	 2.50000000E-01	 2.00000000E+00
					 7.50000000E-01	-1.49012000E-08	 2.00000000E+00
					 5.00000000E-01	-1.49012000E-08	 1.50000000E+00
					 5.00000000E-01	 2.50000000E-01	 2.00000000E+00
					-7.45058000E-09	 5.00000000E-01	 2.00000000E+00
					-7.45058000E-09	 1.00000000E+00	 2.00000000E+00
					 2.50000000E-01	 5.00000000E-01	 2.00000000E+00
					 2.50000000E-01	 1.00000000E+00	 2.00000000E+00
					-7.45058000E-09	 5.00000000E-01	 1.50000000E+00
					-7.45058000E-09	 7.50000000E-01	 2.00000000E+00
					-7.45058000E-09	 1.00000000E+00	 1.50000000E+00
					-7.45058000E-09	-1.49012000E-08	 2.00000000E+00
					 2.50000000E-01	-1.49012000E-08	 2.00000000E+00
					-7.45058000E-09	-1.49012000E-08	 1.50000000E+00
					-7.45058000E-09	 2.50000000E-01	 2.00000000E+00
					 1.00000000E+00	 5.00000000E-01	 3.00000000E+00
					 1.00000000E+00	 1.00000000E+00	 3.00000000E+00
					 5.00000000E-01	 5.00000000E-01	 3.00000000E+00
					 5.00000000E-01	 1.00000000E+00	 3.00000000E+00
					 1.00000000E+00	 5.00000000E-01	 2.50000000E+00
					 1.00000000E+00	 7.50000000E-01	 3.00000000E+00
					 1.00000000E+00	 1.00000000E+00	 2.50000000E+00
					 7.50000000E-01	 5.00000000E-01	 3.00000000E+00
					 7.50000000E-01	 1.00000000E+00	 3.00000000E+00
					 5.00000000E-01	 5.00000000E-01	 2.50000000E+00
					 5.00000000E-01	 7.50000000E-01	 3.00000000E+00
					 5.00000000E-01	 1.00000000E+00	 2.50000000E+00
					 1.00000000E+00	-1.49012000E-08	 3.00000000E+00
					 5.00000000E-01	-1.49012000E-08	 3.00000000E+00
					 1.00000000E+00	-1.49012000E-08	 2.50000000E+00
					 1.00000000E+00	 2.50000000E-01	 3.00000000E+00
					 7.50000000E-01	-1.49012000E-08	 3.00000000E+00
					 5.00000000E-01	-1.49012000E-08	 2.50000000E+00
					 5.00000000E-01	 2.50000000E-01	 3.00000000E+00
					-7.45058000E-09	 5.00000000E-01	 3.00000000E+00
					-7.45058000E-09	 1.00000000E+00	 3.00000000E+00
					 2.50000000E-01	 5.00000000E-01	 3.00000000E+00
					 2.50000000E-01	 1.00000000E+00	 3.00000000E+00
					-7.45058000E-09	 5.00000000E-01	 2.50000000E+00
					-7.45058000E-09	 7.50000000E-01	 3.00000000E+00
					-7.45058000E-09	 1.00000000E+00	 2.50000000E+00
					-7.45058000E-09	-1.49012000E-08	 3.00000000E+00
					 2.50000000E-01	-1.49012000E-08	 3.00000000E+00
					-7.45058000E-09	-1.49012000E-08	 2.50000000E+00
					-7.45058000E-09	 2.50000000E-01	 3.00000000E+00
					 1.00000000E+00	 5.00000000E-01	 4.00000000E+00
					 1.00000000E+00	 1.00000000E+00	 4.00000000E+00
					 5.00000000E-01	 5.00000000E-01	 4.00000000E+00
					 5.00000000E-01	 1.00000000E+00	 4.00000000E+00
					 1.00000000E+00	 5.00000000E-01	 3.50000000E+00
					 1.00000000E+00	 7.50000000E-01	 4.00000000E+00
					 1.00000000E+00	 1.00000000E+00	 3.50000000E+00
					 7.50000000E-01	 5.00000000E-01	 4.00000000E+00
					 7.50000000E-01	 1.00000000E+00	 4.00000000E+00
					 5.00000000E-01	 5.00000000E-01	 3.50000000E+00
					 5.00000000E-01	 7.50000000E-01	 4.00000000E+00
					 5.00000000E-01	 1.00000000E+00	 3.50000000E+00
					 1.00000000E+00	-1.49012000E-08	 4.00000000E+00
					 5.00000000E-01	-1.49012000E-08	 4.00000000E+00
					 1.00000000E+00	-1.49012000E-08	 3.50000000E+00
					 1.00000000E+00	 2.50000000E-01	 4.00000000E+00
					 7.50000000E-01	-1.49012000E-08	 4.00000000E+00
					 5.00000000E-01	-1.49012000E-08	 3.50000000E+00
					 5.00000000E-01	 2.50000000E-01	 4.00000000E+00
					-7.45058000E-09	 5.00000000E-01	 4.00000000E+00
					-7.45058000E-09	 1.00000000E+00	 4.00000000E+00
					 2.50000000E-01	 5.00000000E-01	 4.00000000E+00
					 2.50000000E-01	 1.00000000E+00	 4.00000000E+00
					-7.45058000E-09	 5.00000000E-01	 3.50000000E+00
					-7.45058000E-09	 7.50000000E-01	 4.00000000E+00
					-7.45058000E-09	 1.00000000E+00	 3.50000000E+00
					-7.45058000E-09	-1.49012000E-08	 4.00000000E+00
					 2.50000000E-01	-1.49012000E-08	 4.00000000E+00
					-7.45058000E-09	-1.49012000E-08	 3.50000000E+00
					-7.45058000E-09	 2.50000000E-01	 4.00000000E+00
					 1.00000000E+00	 5.00000000E-01	 5.00000000E+00
					 1.00000000E+00	 1.00000000E+00	 5.00000000E+00
					 5.00000000E-01	 5.00000000E-01	 5.00000000E+00
					 5.00000000E-01	 1.00000000E+00	 5.00000000E+00
					 1.00000000E+00	 5.00000000E-01	 4.50000000E+00
					 1.00000000E+00	 7.50000000E-01	 5.00000000E+00
					 1.00000000E+00	 1.00000000E+00	 4.50000000E+00
					 7.50000000E-01	 5.00000000E-01	 5.00000000E+00
					 7.50000000E-01	 1.00000000E+00	 5.00000000E+00
					 5.00000000E-01	 5.00000000E-01	 4.50000000E+00
					 5.00000000E-01	 7.50000000E-01	 5.00000000E+00
					 5.00000000E-01	 1.00000000E+00	 4.50000000E+00
					 1.00000000E+00	-1.49012000E-08	 5.00000000E+00
					 5.00000000E-01	-1.49012000E-08	 5.00000000E+00
					 1.00000000E+00	-1.49012000E-08	 4.50000000E+00
					 1.00000000E+00	 2.50000000E-01	 5.00000000E+00
					 7.50000000E-01	-1.49012000E-08	 5.00000000E+00
					 5.00000000E-01	-1.49012000E-08	 4.50000000E+00
					 5.00000000E-01	 2.50000000E-01	 5.00000000E+00
					-7.45058000E-09	 5.00000000E-01	 5.00000000E+00
					-7.45058000E-09	 1.00000000E+00	 5.00000000E+00
					 2.50000000E-01	 5.00000000E-01	 5.00000000E+00
					 2.50000000E-01	 1.00000000E+00	 5.00000000E+00
					-7.45058000E-09	 5.00000000E-01	 4.50000000E+00
					-7.45058000E-09	 7.50000000E-01	 5.00000000E+00
					-7.45058000E-09	 1.00000000E+00	 4.50000000E+00
					-7.45058000E-09	-1.49012000E-08	 5.00000000E+00
					 2.50000000E-01	-1.49012000E-08	 5.00000000E+00
					-7.45058000E-09	-1.49012000E-08	 4.50000000E+00
					-7.45058000E-09	 2.50000000E-01	 5.00000000E+00
					 1.00000000E+00	 5.00000000E-01	 6.00000000E+00
					 1.00000000E+00	 1.00000000E+00	 6.00000000E+00
					 5.00000000E-01	 5.00000000E-01	 6.00000000E+00
					 5.00000000E-01	 1.00000000E+00	 6.00000000E+00
					 1.00000000E+00	 5.00000000E-01	 5.50000000E+00
					 1.00000000E+00	 7.50000000E-01	 6.00000000E+00
					 1.00000000E+00	 1.00000000E+00	 5.50000000E+00
					 7.50000000E-01	 5.00000000E-01	 6.00000000E+00
					 7.50000000E-01	 1.00000000E+00	 6.00000000E+00
					 5.00000000E-01	 5.00000000E-01	 5.50000000E+00
					 5.00000000E-01	 7.50000000E-01	 6.00000000E+00
					 5.00000000E-01	 1.00000000E+00	 5.50000000E+00
					 1.00000000E+00	-1.49012000E-08	 6.00000000E+00
[...]
			<PointData>
				<DataArray type="Float32" Name="U" NumberOfComponents="3" ComponentName0="D1" ComponentName1="D2" ComponentName2="D3" format="ascii">
					 0.00000000E+00	 0.00000000E+00	 0.00000000E+00
					 0.00000000E+00	 0.00000000E+00	 0.00000000E+00
					 2.77106000E-05	-9.20852000E-04	-6.74061000E-05
					 1.52169000E-03	-8.04209000E-04	-1.07545000E-03
					 0.00000000E+00	 0.00000000E+00	 0.00000000E+00
					 0.00000000E+00	 0.00000000E+00	 0.00000000E+00
					 2.04648000E-05	 4.64314000E-04	-5.92848000E-05
					 1.30063000E-03	 5.81304000E-04	-1.05980000E-03
					 0.00000000E+00	 0.00000000E+00	 0.00000000E+00
					 1.51039000E-05	-7.34408000E-04	-3.38555000E-05
					 7.77385000E-04	-8.94124000E-04	-7.26879000E-04
					 7.72783000E-04	-6.08680000E-04	-4.27348000E-04
					 0.00000000E+00	 0.00000000E+00	 0.00000000E+00
					 0.00000000E+00	 0.00000000E+00	 0.00000000E+00
					 2.41820000E-05	-1.95726000E-04	-6.20095000E-05
					 1.40988000E-03	-8.26816000E-05	-9.39942000E-04
					 0.00000000E+00	 0.00000000E+00	 0.00000000E+00
					 5.94107000E-06	-2.81444000E-05	-2.58533000E-05
					 6.59190000E-04	 4.89905000E-04	-5.90580000E-04
					 6.39429000E-04	 6.91816000E-05	-3.94714000E-04
					 0.00000000E+00	 0.00000000E+00	 0.00000000E+00
					-1.46614000E-03	-8.12243000E-04	 9.42531000E-04
					 0.00000000E+00	 0.00000000E+00	 0.00000000E+00
					-1.25761000E-03	 5.69975000E-04	 9.42423000E-04
					 0.00000000E+00	 0.00000000E+00	 0.00000000E+00
					-7.43535000E-04	-6.27258000E-04	 3.57059000E-04
					-7.22112000E-04	-8.97504000E-04	 5.92428000E-04
					 0.00000000E+00	 0.00000000E+00	 0.00000000E+00
					-1.36030000E-03	-9.24544000E-05	 8.18185000E-04
					 0.00000000E+00	 0.00000000E+00	 0.00000000E+00
					-6.27468000E-04	 5.28109000E-05	 3.40488000E-04
					-6.17513000E-04	 4.84617000E-04	 4.72722000E-04
					 0.00000000E+00	 0.00000000E+00	 0.00000000E+00
					 0.00000000E+00	 0.00000000E+00	 0.00000000E+00
					 1.18895000E-05	 1.63711000E-03	-5.13942000E-05
					 1.06581000E-03	 1.74484000E-03	-1.05987000E-03
					 0.00000000E+00	 0.00000000E+00	 0.00000000E+00
					 0.00000000E+00	 0.00000000E+00	 0.00000000E+00
					 1.61782000E-05	 1.08061000E-03	-5.61850000E-05
					 1.18330000E-03	 1.19580000E-03	-1.16570000E-03
					 0.00000000E+00	 0.00000000E+00	 0.00000000E+00
					-2.08681000E-06	 5.32545000E-04	-2.12455000E-05
					 5.40358000E-04	 1.65853000E-03	-4.79673000E-04
					 4.58204000E-04	 6.07729000E-04	-4.14528000E-04
					 0.00000000E+00	 0.00000000E+00	 0.00000000E+00
					-1.03834000E-03	 1.72986000E-03	 9.57462000E-04
					 0.00000000E+00	 0.00000000E+00	 0.00000000E+00
					-1.14803000E-03	 1.18338000E-03	 1.05334000E-03
					 0.00000000E+00	 0.00000000E+00	 0.00000000E+00
					-4.61880000E-04	 5.92514000E-04	 3.69424000E-04
					-5.15177000E-04	 1.65065000E-03	 3.77967000E-04
					 4.06223000E-05	 1.53587000E-03	-1.13247000E-04
					 2.71220000E-03	 1.64629000E-03	-2.87988000E-03
					 3.81685000E-05	 4.05792000E-03	-1.28199000E-04
					 2.43158000E-03	 4.18503000E-03	-2.89765000E-03
					 3.94871000E-05	-2.46115000E-04	-9.12859000E-05
					 1.37198000E-03	 1.55570000E-03	-1.54722000E-03
					 2.20115000E-03	-1.37998000E-04	-1.94551000E-03
					 4.04098000E-05	 2.82889000E-03	-1.21273000E-04
					 2.57352000E-03	 2.95310000E-03	-2.83068000E-03
					 3.40408000E-05	 1.76676000E-03	-9.19143000E-05
					 1.23583000E-03	 4.08668000E-03	-1.50428000E-03
					 1.91969000E-03	 1.89272000E-03	-1.94189000E-03
					-2.62912000E-03	 1.66587000E-03	 2.65182000E-03
					-2.35134000E-03	 4.19733000E-03	 2.63963000E-03
					-2.12023000E-03	-1.33000000E-04	 1.76332000E-03
					-1.29066000E-03	 1.56638000E-03	 1.32025000E-03
					-2.49004000E-03	 2.96865000E-03	 2.58666000E-03
					-1.84818000E-03	 1.89133000E-03	 1.75807000E-03
					-1.15872000E-03	 4.09342000E-03	 1.24740000E-03
					 3.10623000E-05	 6.31805000E-03	-1.40797000E-04
					 2.16475000E-03	 6.45517000E-03	-2.90770000E-03
					 3.49727000E-05	 5.22251000E-03	-1.34610000E-04
					 2.29940000E-03	 5.35155000E-03	-2.96828000E-03
					 2.54902000E-05	 3.52108000E-03	-9.24431000E-05
					 1.09631000E-03	 6.35335000E-03	-1.45104000E-03
					 1.65694000E-03	 3.65814000E-03	-1.94689000E-03
					-2.09632000E-03	 6.45745000E-03	 2.62487000E-03
					-2.22425000E-03	 5.36010000E-03	 2.69750000E-03
					-1.60065000E-03	 3.64819000E-03	 1.76175000E-03
					-1.03262000E-03	 6.35408000E-03	 1.16915000E-03
					 2.18579000E-05	 8.20789000E-03	-1.73697000E-04
					 3.31075000E-03	 8.28344000E-03	-4.54226000E-03
					 2.58684000E-05	 1.13810000E-02	-2.11013000E-04
					 3.09314000E-03	 1.14673000E-02	-4.58351000E-03
					 3.28609000E-05	 4.41060000E-03	-1.40490000E-04
					 1.66529000E-03	 8.21880000E-03	-2.37860000E-03
					 3.07120000E-03	 4.50648000E-03	-3.74887000E-03
					 2.41221000E-05	 9.82047000E-03	-1.92851000E-04
					 3.20244000E-03	 9.90287000E-03	-4.53493000E-03
					 3.36204000E-05	 7.31985000E-03	-1.68120000E-04
					 1.55970000E-03	 1.13980000E-02	-2.38918000E-03
					 2.82562000E-03	 7.42683000E-03	-3.78313000E-03
					-3.26391000E-03	 8.33274000E-03	 4.19232000E-03
					-3.03810000E-03	 1.15095000E-02	 4.15900000E-03
					-3.00316000E-03	 4.54017000E-03	 3.46519000E-03
					-1.62080000E-03	 8.24378000E-03	 2.03043000E-03
					-3.15082000E-03	 9.94822000E-03	 4.14682000E-03
					-2.75482000E-03	 7.45389000E-03	 3.44435000E-03
					-1.50712000E-03	 1.14189000E-02	 1.96647000E-03
					 2.64062000E-05	 1.43388000E-02	-2.44513000E-04
					 2.88839000E-03	 1.44375000E-02	-4.61385000E-03
					 2.66181000E-05	 1.28873000E-02	-2.28170000E-04
					 2.99162000E-03	 1.29770000E-02	-4.63181000E-03
					 3.03731000E-05	 9.99044000E-03	-1.91792000E-04
					 1.45518000E-03	 1.43625000E-02	-2.38891000E-03
					 2.59116000E-03	 1.01087000E-02	-3.80086000E-03
					-2.83231000E-03	 1.44735000E-02	 4.12243000E-03
					-2.93524000E-03	 1.30167000E-02	 4.17320000E-03
					-2.52554000E-03	 1.01276000E-02	 3.41493000E-03
					-1.40140000E-03	 1.43797000E-02	 1.89908000E-03
					-6.08229000E-07	 1.82896000E-02	-2.57038000E-04
					 3.34651000E-03	 1.83448000E-02	-5.98671000E-03
					 6.05175000E-06	 2.15285000E-02	-3.07625000E-04
					 3.14490000E-03	 2.15936000E-02	-6.03623000E-03
					 1.08241000E-05	 1.28441000E-02	-2.12588000E-04
					 1.67140000E-03	 1.82926000E-02	-3.10523000E-03
					 3.40794000E-03	 1.29063000E-02	-5.27181000E-03
					 3.02792000E-06	 1.99330000E-02	-2.82422000E-04
					 3.24661000E-03	 1.99951000E-02	-6.02946000E-03
					 1.67275000E-05	 1.61281000E-02	-2.57166000E-04
					 1.57592000E-03	 2.15369000E-02	-3.17324000E-03
					 3.19988000E-03	 1.62033000E-02	-5.31798000E-03
					-3.34393000E-03	 1.84244000E-02	 5.47147000E-03
					-3.13034000E-03	 2.16656000E-02	 5.41960000E-03
					-3.38278000E-03	 1.29703000E-02	 4.84454000E-03
					-1.67178000E-03	 1.83317000E-02	 2.59087000E-03
					-3.23716000E-03	 2.00710000E-02	 5.46325000E-03
					-3.16366000E-03	 1.62601000E-02	 4.80156000E-03
					-1.56335000E-03	 2.15725000E-02	 2.55761000E-03
					 8.98994000E-06	 2.45642000E-02	-3.54934000E-04
					 2.95491000E-03	 2.46406000E-02	-6.08489000E-03
					 8.20703000E-06	 2.30721000E-02	-3.31977000E-04
					 3.05080000E-03	 2.31403000E-02	-6.04239000E-03
					 1.90984000E-05	 1.92075000E-02	-2.98512000E-04
					 1.47958000E-03	 2.45782000E-02	-3.24006000E-03
					 3.00964000E-03	 1.92970000E-02	-5.35821000E-03
					-2.93548000E-03	 2.47084000E-02	 5.37334000E-03
					-3.03285000E-03	 2.32094000E-02	 5.37701000E-03
					-2.96935000E-03	 1.93491000E-02	 4.75908000E-03
					-1.46128000E-03	 2.46124000E-02	 2.52970000E-03
					-3.44483000E-05	 3.14090000E-02	-3.59885000E-04
					 2.95092000E-03	 3.14705000E-02	-7.52763000E-03
					-2.82917000E-05	 3.42696000E-02	-4.21627000E-04
					 2.71202000E-03	 3.43355000E-02	-7.58256000E-03
					-1.47628000E-05	 2.44783000E-02	-3.05529000E-04
					 1.45808000E-03	 3.14105000E-02	-3.92208000E-03
					 3.18102000E-03	 2.45366000E-02	-6.72239000E-03
					-3.10520000E-05	 3.28694000E-02	-3.91615000E-04
					 2.83206000E-03	 3.29326000E-02	-7.59153000E-03
					-8.18629000E-06	 2.75608000E-02	-3.62281000E-04
					 1.34175000E-03	 3.42730000E-02	-4.01692000E-03
					 2.96778000E-03	 2.76263000E-02	-6.77454000E-03
					-3.01610000E-03	 3.15882000E-02	 6.80628000E-03
					-2.76595000E-03	 3.44455000E-02	 6.73776000E-03
					-3.20672000E-03	 2.46336000E-02	 6.11053000E-03
					-1.52608000E-03	 3.14686000E-02	 3.20206000E-03
					-2.89073000E-03	 3.30473000E-02	 6.80656000E-03
					-2.98154000E-03	 2.77153000E-02	 6.04898000E-03
					-1.39777000E-03	 3.43283000E-02	 3.17321000E-03
					-2.57217000E-05	 3.68853000E-02	-4.79182000E-04
					 2.47305000E-03	 3.69560000E-02	-7.64742000E-03
					-2.64105000E-05	 3.56074000E-02	-4.50517000E-04
					 2.59293000E-03	 3.56759000E-02	-7.57038000E-03
					-5.30427000E-06	 3.04262000E-02	-4.15362000E-04
					 1.22288000E-03	 3.68901000E-02	-4.12210000E-03
					 2.76087000E-03	 3.05006000E-02	-6.83249000E-03
					-2.52262000E-03	 3.70614000E-02	 6.68745000E-03
					-2.64387000E-03	 3.57821000E-02	 6.66798000E-03
					-2.76964000E-03	 3.05848000E-02	 6.00044000E-03
					-1.27386000E-03	 3.69446000E-02	 3.16305000E-03
					-7.93770000E-05	 4.78500000E-02	-5.02794000E-04
					 2.45347000E-03	 4.79142000E-02	-9.53552000E-03
					-7.40044000E-05	 5.02233000E-02	-5.67099000E-04
					 2.14797000E-03	 5.02925000E-02	-9.59895000E-03
					-5.72049000E-05	 3.91559000E-02	-4.24789000E-04
					 1.18501000E-03	 4.78416000E-02	-4.99326000E-03
					 2.69453000E-03	 3.92226000E-02	-8.47395000E-03
					-7.65673000E-05	 4.90768000E-02	-5.36025000E-04
					 2.30120000E-03	 4.91438000E-02	-9.59932000E-03
					-5.20704000E-05	 4.17654000E-02	-4.88512000E-04
					 1.03605000E-03	 5.02163000E-02	-5.08867000E-03
					 2.41921000E-03	 4.18355000E-02	-8.53013000E-03
					-2.60770000E-03	 4.80916000E-02	 8.52438000E-03
					-2.29320000E-03	 5.04621000E-02	 8.45883000E-03
					-2.80514000E-03	 3.93664000E-02	 7.62113000E-03
					-1.34282000E-03	 4.79297000E-02	 3.98620000E-03
					-2.44998000E-03	 4.93178000E-02	 8.52165000E-03
					-2.52083000E-03	 4.19720000E-02	 7.54987000E-03
					-1.18331000E-03	 5.03012000E-02	 3.95302000E-03
					-7.08487000E-05	 5.22917000E-02	-6.22805000E-04
					 1.83370000E-03	 5.23544000E-02	-9.65618000E-03
					-7.19998000E-05	 5.12972000E-02	-5.96011000E-04
					 1.99054000E-03	 5.13669000E-02	-9.59355000E-03
					-4.98022000E-05	 4.40946000E-02	-5.46380000E-04
					 8.84104000E-04	 5.22809000E-02	-5.17957000E-03
					 2.13758000E-03	 4.41630000E-02	-8.59654000E-03
					-1.97456000E-03	 5.25215000E-02	 8.40460000E-03
					-2.13334000E-03	 5.15334000E-02	 8.39567000E-03
					-2.23602000E-03	 4.42965000E-02	 7.50060000E-03
					-1.02541000E-03	 5.23663000E-02	 3.93232000E-03
					-1.21634000E-04	 6.84682000E-02	-7.12261000E-04
					 2.03820000E-03	 6.84539000E-02	-1.16425000E-02
					-1.13406000E-04	 7.05229000E-02	-7.76052000E-04
					 1.83383000E-03	 7.05088000E-02	-1.17213000E-02
					-1.00524000E-04	 5.76386000E-02	-5.97316000E-04
					 9.57303000E-04	 6.84349000E-02	-6.12011000E-03
					 2.23040000E-03	 5.76659000E-02	-1.06520000E-02
					-1.18220000E-04	 6.95220000E-02	-7.45119000E-04
					 1.93528000E-03	 6.95076000E-02	-1.17048000E-02
					-9.34352000E-05	 5.98244000E-02	-6.62367000E-04
					 8.58230000E-04	 7.04895000E-02	-6.20831000E-03
					 1.95053000E-03	 5.98552000E-02	-1.07270000E-02
					-2.27704000E-03	 6.87030000E-02	 1.02139000E-02
					-2.05757000E-03	 7.07521000E-02	 1.01654000E-02
					-2.42564000E-03	 5.78811000E-02	 9.45089000E-03
					-1.19941000E-03	 6.85563000E-02	 4.69533000E-03
					-2.16765000E-03	 6.97543000E-02	 1.02101000E-02
					-2.13419000E-03	 6.00619000E-02	 9.39560000E-03
					-1.08410000E-03	 7.06083000E-02	 4.65563000E-03
					-1.06324000E-04	 7.23625000E-02	-8.36437000E-04
					 1.62187000E-03	 7.23452000E-02	-1.17547000E-02
					-1.08854000E-04	 7.14711000E-02	-8.06664000E-04
					 1.72783000E-03	 7.14565000E-02	-1.17423000E-02
					-8.82151000E-05	 6.17269000E-02	-7.18329000E-04
					 7.57910000E-04	 7.23281000E-02	-6.25166000E-03
					 1.65760000E-03	 6.17483000E-02	-1.07709000E-02
					-1.83319000E-03	 7.25846000E-02	 1.00785000E-02
					-1.94345000E-03	 7.16978000E-02	 1.01251000E-02
					-1.83371000E-03	 6.19522000E-02	 9.32778000E-03
					-9.70202000E-04	 7.24447000E-02	 4.57872000E-03
					-1.48113000E-04	 9.17899000E-02	-9.85984000E-04
					 1.75905000E-03	 9.16806000E-02	-1.25564000E-02
					-1.52229000E-04	 9.36934000E-02	-1.04188000E-03
					 1.74980000E-03	 9.35686000E-02	-1.26153000E-02
					-1.37989000E-04	 8.00570000E-02	-8.47037000E-04
					 8.07705000E-04	 9.17377000E-02	-6.74559000E-03
					 1.86691000E-03	 7.99762000E-02	-1.22626000E-02
					-1.49287000E-04	 9.27462000E-02	-1.01262000E-03
					 1.75769000E-03	 9.26272000E-02	-1.25975000E-02
					-1.33434000E-04	 8.20134000E-02	-9.05820000E-04
					 8.03828000E-04	 9.36342000E-02	-6.80980000E-03
					 1.77060000E-03	 8.19267000E-02	-1.23303000E-02
					-2.06101000E-03	 9.19628000E-02	 1.05927000E-02
					-2.05327000E-03	 9.38582000E-02	 1.05414000E-02
					-2.14456000E-03	 8.02434000E-02	 1.05723000E-02
					-1.10499000E-03	 9.18782000E-02	 4.77585000E-03
					-2.05948000E-03	 9.29153000E-02	 1.05808000E-02
					-2.03575000E-03	 8.21954000E-02	 1.05234000E-02
					-1.10773000E-03	 9.37794000E-02	 4.72846000E-03
					-1.56610000E-04	 9.55472000E-02	-1.11023000E-03
					 1.74320000E-03	 9.54279000E-02	-1.26335000E-02
					-1.55433000E-04	 9.46148000E-02	-1.07429000E-03
					 1.74303000E-03	 9.44941000E-02	-1.26307000E-02
					-1.29207000E-04	 8.38631000E-02	-9.72093000E-04
					 7.97684000E-04	 9.54902000E-02	-6.84396000E-03
					 1.67684000E-03	 8.37767000E-02	-1.23553000E-02
					-2.04872000E-03	 9.57077000E-02	 1.04236000E-02
					-2.04864000E-03	 9.47812000E-02	 1.04922000E-02
					-1.93018000E-03	 8.40376000E-02	 1.04165000E-02
					-1.10897000E-03	 9.56292000E-02	 4.62643000E-03
					 0.00000000E+00	 0.00000000E+00	 0.00000000E+00
					 0.00000000E+00	 0.00000000E+00	 0.00000000E+00
					-9.42750000E-05	-2.22987000E-03	 2.47848000E-04
					-2.72882000E-03	-2.50058000E-03	 4.11944000E-03
					 0.00000000E+00	 0.00000000E+00	 0.00000000E+00
					 0.00000000E+00	 0.00000000E+00	 0.00000000E+00
					-5.53821000E-05	-4.63216000E-03	 1.84438000E-04
					-2.22470000E-03	-4.90926000E-03	 4.11124000E-03
					 0.00000000E+00	 0.00000000E+00	 0.00000000E+00
					-5.22485000E-05	 2.61351000E-05	 1.19615000E-04
					-1.41577000E-03	-2.27982000E-03	 2.31318000E-03
					-1.66742000E-03	-3.85290000E-04	 2.13612000E-03
					 0.00000000E+00	 0.00000000E+00	 0.00000000E+00
					 0.00000000E+00	 0.00000000E+00	 0.00000000E+00
					-7.30409000E-05	-3.51599000E-03	 2.14650000E-04
					-2.47077000E-03	-3.78440000E-03	 3.92276000E-03
					 0.00000000E+00	 0.00000000E+00	 0.00000000E+00
					-1.60063000E-05	-1.30341000E-03	 8.33809000E-05
					-1.14056000E-03	-4.67964000E-03	 2.08204000E-03
					-1.08408000E-03	-1.67166000E-03	 2.04956000E-03
					 0.00000000E+00	 0.00000000E+00	 0.00000000E+00
					 2.54639000E-03	-2.38138000E-03	-3.63361000E-03
					 0.00000000E+00	 0.00000000E+00	 0.00000000E+00
					 2.12178000E-03	-4.79987000E-03	-3.75003000E-03
					 0.00000000E+00	 0.00000000E+00	 0.00000000E+00
					 1.56915000E-03	-2.89769000E-04	-1.88769000E-03
					 1.22848000E-03	-2.21799000E-03	-1.82251000E-03
					 0.00000000E+00	 0.00000000E+00	 0.00000000E+00
					 2.33112000E-03	-3.67089000E-03	-3.50152000E-03
					 0.00000000E+00	 0.00000000E+00	 0.00000000E+00
					 1.06077000E-03	-1.59380000E-03	-1.87249000E-03
					 1.02979000E-03	-4.62479000E-03	-1.71749000E-03
					 0.00000000E+00	 0.00000000E+00	 0.00000000E+00
					 0.00000000E+00	 0.00000000E+00	 0.00000000E+00
					-2.40961000E-05	-6.57379000E-03	 1.21597000E-04
					-1.70869000E-03	-6.81267000E-03	 3.99726000E-03
					 0.00000000E+00	 0.00000000E+00	 0.00000000E+00
					 0.00000000E+00	 0.00000000E+00	 0.00000000E+00
					-3.81881000E-05	-5.68423000E-03	 1.52350000E-04
					-1.96764000E-03	-5.94335000E-03	 4.25503000E-03
					 0.00000000E+00	 0.00000000E+00	 0.00000000E+00
					 1.01985000E-05	-2.11751000E-03	 6.07204000E-05
					-8.70597000E-04	-6.60374000E-03	 1.79474000E-03
					-4.30364000E-04	-2.43009000E-03	 2.07727000E-03
					 0.00000000E+00	 0.00000000E+00	 0.00000000E+00
					 1.66633000E-03	-6.71915000E-03	-3.75776000E-03
					 0.00000000E+00	 0.00000000E+00	 0.00000000E+00
					 1.89751000E-03	-5.84475000E-03	-3.95684000E-03
					 0.00000000E+00	 0.00000000E+00	 0.00000000E+00
					 4.58797000E-04	-2.36928000E-03	-1.94687000E-03
					 8.23685000E-04	-6.56005000E-03	-1.55373000E-03
					-2.23994000E-04	-1.17759000E-02	 4.29586000E-04
					-4.60719000E-03	-1.19502000E-02	 6.75435000E-03
					-1.76398000E-04	-1.60422000E-02	 3.14419000E-04
					-4.34703000E-03	-1.62249000E-02	 6.67699000E-03
					-1.54094000E-04	-6.25868000E-03	 3.51938000E-04
					-2.41295000E-03	-1.18428000E-02	 3.61816000E-03
					-3.76514000E-03	-6.50608000E-03	 5.68647000E-03
					-2.00119000E-04	-1.39274000E-02	 3.69321000E-04
					-4.47705000E-03	-1.41077000E-02	 6.61684000E-03
					-1.12302000E-04	-9.67064000E-03	 2.58528000E-04
					-2.25798000E-03	-1.61120000E-02	 3.42412000E-03
					-3.34126000E-03	-9.92725000E-03	 5.62758000E-03
					 4.16147000E-03	-1.17683000E-02	-5.90326000E-03
					 3.99083000E-03	-1.60529000E-02	-6.05397000E-03
					 3.45915000E-03	-6.35153000E-03	-4.99194000E-03
					 1.96501000E-03	-1.17503000E-02	-2.76120000E-03
					 4.07847000E-03	-1.39373000E-02	-5.88336000E-03
					 3.12114000E-03	-9.78495000E-03	-5.11879000E-03
					 1.90894000E-03	-1.60272000E-02	-2.79384000E-03
					-1.36657000E-04	-2.01115000E-02	 2.01506000E-04
					-4.09033000E-03	-2.02805000E-02	 6.52602000E-03
					-1.56650000E-04	-1.80953000E-02	 2.60622000E-04
					-4.21882000E-03	-1.83016000E-02	 6.74286000E-03
					-7.71702000E-05	-1.27209000E-02	 1.66959000E-04
					-2.11853000E-03	-2.01712000E-02	 3.15734000E-03
					-2.94678000E-03	-1.29767000E-02	 5.50320000E-03
					 3.84362000E-03	-2.01322000E-02	-6.12893000E-03
					 3.91805000E-03	-1.81097000E-02	-6.23010000E-03
					 2.80851000E-03	-1.28542000E-02	-5.17399000E-03
					 1.85266000E-03	-2.01015000E-02	-2.75174000E-03
					-3.37957000E-04	-2.46603000E-02	 5.11362000E-04
					-5.91088000E-03	-2.46380000E-02	 7.02169000E-03
					-2.79748000E-04	-3.02507000E-02	 4.03909000E-04
					-5.95102000E-03	-3.03474000E-02	 6.94139000E-03
					-2.87084000E-04	-1.81371000E-02	 4.79621000E-04
					-3.11874000E-03	-2.46644000E-02	 3.77977000E-03
					-5.31158000E-03	-1.82379000E-02	 7.16264000E-03
					-3.08066000E-04	-2.74419000E-02	 4.61736000E-04
					-5.93461000E-03	-2.74931000E-02	 6.90133000E-03
					-2.35361000E-04	-2.31309000E-02	 3.59493000E-04
					-3.13961000E-03	-3.03202000E-02	 3.59232000E-03
					-5.21971000E-03	-2.32502000E-02	 7.08334000E-03
					 5.19173000E-03	-2.44954000E-02	-5.98349000E-03
					 5.38333000E-03	-3.01028000E-02	-6.15187000E-03
					 4.72757000E-03	-1.80530000E-02	-6.20638000E-03
					 2.42868000E-03	-2.45957000E-02	-2.74570000E-03
					 5.28556000E-03	-2.72799000E-02	-5.99118000E-03
					 4.74866000E-03	-2.30466000E-02	-6.36831000E-03
					 2.55438000E-03	-3.02007000E-02	-2.80472000E-03
					-2.25158000E-04	-3.59775000E-02	 2.90856000E-04
					-6.10615000E-03	-3.62100000E-02	 6.79948000E-03
					-2.52200000E-04	-3.31119000E-02	 3.45520000E-04
					-6.03192000E-03	-3.31443000E-02	 6.99196000E-03
					-1.77453000E-04	-2.80969000E-02	 2.39235000E-04
					-3.13150000E-03	-3.61188000E-02	 3.34028000E-03
					-5.17179000E-03	-2.82516000E-02	 6.92601000E-03
					 5.60715000E-03	-3.58650000E-02	-6.26240000E-03
					 5.49529000E-03	-3.29589000E-02	-6.31903000E-03
					 4.77712000E-03	-2.80168000E-02	-6.45363000E-03
					 2.68117000E-03	-3.59539000E-02	-2.80381000E-03
					-3.51479000E-04	-3.60761000E-02	 5.61165000E-04
					-6.51361000E-03	-3.58615000E-02	 5.27010000E-03