<?xml version="1.0"?>
<VTKFile type="UnstructuredGrid" version="0.1" byte_order="LittleEndian">
	<UnstructuredGrid>
		<Piece NumberOfPoints="522" NumberOfCells="64">
			<Points>
				<DataArray type="Float64" NumberOfComponents="3" format="ascii">
					 1.00000000E+00	 1.00000000E+00	-5.96046000E-08
					 1.00000000E+00	 5.00000000E-01	-5.96046000E-08
					 1.00000000E+00	 5.00000000E-01	 1.00000000E+00
					 1.00000000E+00	 1.00000000E+00	 1.00000000E+00
					 5.00000000E-01	 1.00000000E+00	-5.96046000E-08
					 5.00000000E-01	 5.00000000E-01	-5.96046000E-08
					 5.00000000E-01	 5.00000000E-01	 1.00000000E+00
					 5.00000000E-01	 1.00000000E+00	 1.00000000E+00
					 1.00000000E+00	 7.50000000E-01	-5.96046000E-08
					 1.00000000E+00	 5.00000000E-01	 5.00000000E-01
					 1.00000000E+00	 7.50000000E-01	 1.00000000E+00
					 1.00000000E+00	 1.00000000E+00	 5.00000000E-01
					 7.50000000E-01	 1.00000000E+00	-5.96046000E-08
					 7.50000000E-01	 5.00000000E-01	-5.96046000E-08
					 7.50000000E-01	 5.00000000E-01	 1.00000000E+00
					 7.50000000E-01	 1.00000000E+00	 1.00000000E+00
					 5.00000000E-01	 7.50000000E-01	-5.96046000E-08
					 5.00000000E-01	 5.00000000E-01	 5.00000000E-01
					 5.00000000E-01	 7.50000000E-01	 1.00000000E+00
					 5.00000000E-01	 1.00000000E+00	 5.00000000E-01
					 1.00000000E+00	-1.49012000E-08	-5.96046000E-08
					 1.00000000E+00	-1.49012000E-08	 1.00000000E+00
					 5.00000000E-01	-1.49012000E-08	-5.96046000E-08
					 5.00000000E-01	-1.49012000E-08	 1.00000000E+00
					 1.00000000E+00	 2.50000000E-01	-5.96046000E-08
					 1.00000000E+00	-1.49012000E-08	 5.00000000E-01
					 1.00000000E+00	 2.50000000E-01	 1.00000000E+00
					 7.50000000E-01	-1.49012000E-08	-5.96046000E-08
					 7.50000000E-01	-1.49012000E-08	 1.00000000E+00
					 5.00000000E-01	 2.50000000E-01	-5.96046000E-08
					 5.00000000E-01	-1.49012000E-08	 5.00000000E-01
					 5.00000000E-01	 2.50000000E-01	 1.00000000E+00
					-7.45058000E-09	 1.00000000E+00	-5.96046000E-08
					-7.45058000E-09	 5.00000000E-01	-5.96046000E-08
					-7.45058000E-09	 5.00000000E-01	 1.00000000E+00
					-7.45058000E-09	 1.00000000E+00	 1.00000000E+00
					 2.50000000E-01	 1.00000000E+00	-5.96046000E-08
					 2.50000000E-01	 5.00000000E-01	-5.96046000E-08
					 2.50000000E-01	 5.00000000E-01	 1.00000000E+00
					 2.50000000E-01	 1.00000000E+00	 1.00000000E+00
					-7.45058000E-09	 7.50000000E-01	-5.96046000E-08
					-7.45058000E-09	 5.00000000E-01	 5.00000000E-01
					-7.45058000E-09	 7.50000000E-01	 1.00000000E+00
					-7.45058000E-09	 1.00000000E+00	 5.00000000E-01
					-7.45058000E-09	-1.49012000E-08	-5.96046000E-08
					-7.45058000E-09	-1.49012000E-08	 1.00000000E+00
					 2.50000000E-01	-1.49012000E-08	-5.96046000E-08
					 2.50000000E-01	-1.49012000E-08	 1.00000000E+00
					-7.45058000E-09	 2.50000000E-01	-5.96046000E-08
					-7.45058000E-09	-1.49012000E-08	 5.00000000E-01
					-7.45058000E-09	 2.50000000E-01	 1.00000000E+00
					 1.00000000E+00	 5.00000000E-01	 2.00000000E+00
					 1.00000000E+00	 1.00000000E+00	 2.00000000E+00
					 5.00000000E-01	 5.00000000E-01	 2.00000000E+00
					 5.00000000E-01	 1.00000000E+00	 2.00000000E+00
					 1.00000000E+00	 5.00000000E-01	 1.50000000E+00
					 1.00000000E+00	 7.50000000E-01	 2.00000000E+00
					 1.00000000E+00	 1.00000000E+00	 1.50000000E+00
					 7.50000000E-01	 5.00000000E-01	 2.00000000E+00
					 7.50000000E-01	 1.00000000E+00	 2.00000000E+00
					 5.00000000E-01	 5.00000000E-01	 1.50000000E+00
					 5.00000000E-01	 7.50000000E-01	 2.00000000E+00
					 5.00000000E-01	 1.00000000E+00	 1.50000000E+00
					 1.00000000E+00	-1.49012000E-08	 2.00000000E+00
					 5.00000000E-01	-1.49012000E-08	 2.00000000E+00
					 1.00000000E+00	-1.49012000E-08	 1.50000000E+00
					 1.00000000E+00	 2.50000000E-01	 2.00000000E+00
					 7.50000000E-01	-1.49012000E-08	 2.00000000E+00
					 5.00000000E-01	-1.49012000E-08	 1.50000000E+00
					 5.00000000E-01	 2.50000000E-01	 2.00000000E+00
					-7.45058000E-09	 5.00000000E-01	 2.00000000E+00
					-7.45058000E-09	 1.00000000E+00	 2.00000000E+00
					 2.50000000E-01	 5.00000000E-01	 2.00000000E+00
					 2.50000000E-01	 1.00000000E+00	 2.00000000E+00
					-7.45058000E-09	 5.00000000E-01	 1.50000000E+00
					-7.45058000E-09	 7.50000000E-01	 2.00000000E+00
					-7.45058000E-09	 1.00000000E+00	 1.50000000E+00
					-7.45058000E-09	-1.49012000E-08	 2.00000000E+00
					 2.50000000E-01	-1.49012000E-08	 2.00000000E+00
					-7.45058000E-09	-1.49012000E-08	 1.50000000E+00
					-7.45058000E-09	 2.50000000E-01	 2.00000000E+00
					 1.00000000E+00	 5.00000000E-01	 3.00000000E+00
					 1.00000000E+00	 1.00000000E+00	 3.00000000E+00
					 5.00000000E-01	 5.00000000E-01	 3.00000000E+00
					 5.00000000E-01	 1.00000000E+00	 3.00000000E+00
					 1.00000000E+00	 5.00000000E-01	 2.50000000E+00
					 1.00000000E+00	 7.50000000E-01	 3.00000000E+00
					 1.00000000E+00	 1.00000000E+00	 2.50000000E+00
					 7.50000000E-01	 5.00000000E-01	 3.00000000E+00
					 7.50000000E-01	 1.00000000E+00	 3.00000000E+00
					 5.00000000E-01	 5.00000000E-01	 2.50000000E+00
					 5.00000000E-01	 7.50000000E-01	 3.00000000E+00
					 5.00000000E-01	 1.00000000E+00	 2.50000000E+00
					 1.00000000E+00	-1.49012000E-08	 3.00000000E+00
					 5.00000000E-01	-1.49012000E-08	 3.00000000E+00
					 1.00000000E+00	-1.49012000E-08	 2.50000000E+00
					 1.00000000E+00	 2.50000000E-01	 3.00000000E+00
					 7.50000000E-01	-1.49012000E-08	 3.00000000E+00
					 5.00000000E-01	-1.49012000E-08	 2.50000000E+00
					 5.00000000E-01	 2.50000000E-01	 3.00000000E+00
					-7.45058000E-09	 5.00000000E-01	 3.00000000E+00
					-7.45058000E-09	 1.00000000E+00	 3.00000000E+00
					 2.50000000E-01	 5.00000000E-01	 3.00000000E+00
					 2.50000000E-01	 1.00000000E+00	 3.00000000E+00
					-7.45058000E-09	 5.00000000E-01	 2.50000000E+00
					-7.45058000E-09	 7.50000000E-01	 3.00000000E+00
					-7.45058000E-09	 1.00000000E+00	 2.50000000E+00
					-7.45058000E-09	-1.49012000E-08	 3.00000000E+00
					 2.50000000E-01	-1.49012000E-08	 3.00000000E+00
					-7.45058000E-09	-1.49012000E-08	 2.50000000E+00
					-7.45058000E-09	 2.50000000E-01	 3.00000000E+00
					 1.00000000E+00	 5.00000000E-01	 4.00000000E+00
					 1.00000000E+00	 1.00000000E+00	 4.00000000E+00
					 5.00000000E-01	 5.00000000E-01	 4.00000000E+00
					 5.00000000E-01	 1.00000000E+00	 4.00000000E+00
					 1.00000000E+00	 5.00000000E-01	 3.50000000E+00
					 1.00000000E+00	 7.50000000E-01	 4.00000000E+00
					 1.00000000E+00	 1.00000000E+00	 3.50000000E+00
					 7.50000000E-01	 5.00000000E-01	 4.00000000E+00
					 7.50000000E-01	 1.00000000E+00	 4.00000000E+00
					 5.00000000E-01	 5.00000000E-01	 3.50000000E+00
					 5.00000000E-01	 7.50000000E-01	 4.00000000E+00
					 5.00000000E-01	 1.00000000E+00	 3.50000000E+00
					 1.00000000E+00	-1.49012000E-08	 4.00000000E+00
					 5.00000000E-01	-1.49012000E-08	 4.00000000E+00
					 1.00000000E+00	-1.49012000E-08	 3.50000000E+00
					 1.00000000E+00	 2.50000000E-01	 4.00000000E+00
					 7.50000000E-01	-1.49012000E-08	 4.00000000E+00
					 5.00000000E-01	-1.49012000E-08	 3.50000000E+00
					 5.00000000E-01	 2.50000000E-01	 4.00000000E+00
					-7.45058000E-09	 5.00000000E-01	 4.00000000E+00
					-7.45058000E-09	 1.00000000E+00	 4.00000000E+00
					 2.50000000E-01	 5.00000000E-01	 4.00000000E+00
					 2.50000000E-01	 1.00000000E+00	 4.00000000E+00
					-7.45058000E-09	 5.00000000E-01	 3.50000000E+00
					-7.45058000E-09	 7.50000000E-01	 4.00000000E+00
					-7.45058000E-09	 1.00000000E+00	 3.50000000E+00
					-7.45058000E-09	-1.49012000E-08	 4.00000000E+00
					 2.50000000E-01	-1.49012000E-08	 4.00000000E+00
					-7.45058000E-09	-1.49012000E-08	 3.50000000E+00
					-7.45058000E-09	 2.50000000E-01	 4.00000000E+00
					 1.00000000E+00	 5.00000000E-01	 5.00000000E+00
					 1.00000000E+00	 1.00000000E+00	 5.00000000E+00
					 5.00000000E-01	 5.00000000E-01	 5.00000000E+00
					 5.00000000E-01	 1.00000000E+00	 5.00000000E+00
					 1.00000000E+00	 5.00000000E-01	 4.50000000E+00
					 1.00000000E+00	 7.50000000E-01	 5.00000000E+00
					 1.00000000E+00	 1.00000000E+00	 4.50000000E+00
					 7.50000000E-01	 5.00000000E-01	 5.00000000E+00
					 7.50000000E-01	 1.00000000E+00	 5.00000000E+00
					 5.00000000E-01	 5.00000000E-01	 4.50000000E+00
					 5.00000000E-01	 7.50000000E-01	 5.00000000E+00
					 5.00000000E-01	 1.00000000E+00	 4.50000000E+00
					 1.00000000E+00	-1.49012000E-08	 5.00000000E+00
					 5.00000000E-01	-1.49012000E-08	 5.00000000E+00
					 1.00000000E+00	-1.49012000E-08	 4.50000000E+00
					 1.00000000E+00	 2.50000000E-01	 5.00000000E+00
					 7.50000000E-01	-1.49012000E-08	 5.00000000E+00
					 5.00000000E-01	-1.49012000E-08	 4.50000000E+00
					 5.00000000E-01	 2.50000000E-01	 5.00000000E+00
					-7.45058000E-09	 5.00000000E-01	 5.00000000E+00
					-7.45058000E-09	 1.00000000E+00	 5.00000000E+00
					 2.50000000E-01	 5.00000000E-01	 5.00000000E+00
					 2.50000000E-01	 1.00000000E+00	 5.00000000E+00
					-7.45058000E-09	 5.00000000E-01	 4.50000000E+00
					-7.45058000E-09	 7.50000000E-01	 5.00000000E+00
					-7.45058000E-09	 1.00000000E+00	 4.50000000E+00
					-7.45058000E-09	-1.49012000E-08	 5.00000000E+00
					 2.50000000E-01	-1.49012000E-08	 5.00000000E+00
					-7.45058000E-09	-1.49012000E-08	 4.50000000E+00
					-7.45058000E-09	 2.50000000E-01	 5.00000000E+00
					 1.00000000E+00	 5.00000000E-01	 6.00000000E+00
					 1.00000000E+00	 1.00000000E+00	 6.00000000E+00
					 5.00000000E-01	 5.00000000E-01	 6.00000000E+00
					 5.00000000E-01	 1.00000000E+00	 6.00000000E+00
					 1.00000000E+00	 5.00000000E-01	 5.50000000E+00
					 1.00000000E+00	 7.50000000E-01	 6.00000000E+00
					 1.00000000E+00	 1.00000000E+00	 5.50000000E+00
					 7.50000000E-01	 5.00000000E-01	 6.00000000E+00
					 7.50000000E-01	 1.00000000E+00	 6.00000000E+00
					 5.00000000E-01	 5.00000000E-01	 5.50000000E+00
					 5.00000000E-01	 7.50000000E-01	 6.00000000E+00
					 5.00000000E-01	 1.00000000E+00	 5.50000000E+00
					 1.00000000E+00	-1.49012000E-08	 6.00000000E+00
[...]
			<PointData>
				<DataArray type="Float32" Name="U" NumberOfComponents="3" ComponentName0="D1" ComponentName1="D2" ComponentName2="D3" format="ascii">
					 0.00000000E+00	 0.00000000E+00	 0.00000000E+00
					 0.00000000E+00	 0.00000000E+00	 0.00000000E+00
					-3.51912000E-05	-3.68226000E-03	-3.10327000E-05
					-2.62084000E-04	-3.88176000E-03	 3.64437000E-03
					 0.00000000E+00	 0.00000000E+00	 0.00000000E+00
					 0.00000000E+00	 0.00000000E+00	 0.00000000E+00
					 5.95512000E-06	-3.66387000E-03	-2.70925000E-05
					 2.32280000E-04	-3.95309000E-03	 3.70665000E-03
					 0.00000000E+00	 0.00000000E+00	 0.00000000E+00
					-3.13625000E-05	-7.74263000E-04	 2.07746000E-05
					-1.39547000E-04	-3.70071000E-03	 1.76763000E-03
					-4.13739000E-04	-1.05744000E-03	 1.75688000E-03
					 0.00000000E+00	 0.00000000E+00	 0.00000000E+00
					 0.00000000E+00	 0.00000000E+00	 0.00000000E+00
					-1.72481000E-05	-3.73676000E-03	-3.24094000E-05
					-6.52864000E-06	-3.98832000E-03	 3.69187000E-03
					 0.00000000E+00	 0.00000000E+00	 0.00000000E+00
					-2.31632000E-05	-8.69372000E-04	-2.41309000E-05
					 1.09402000E-04	-3.70355000E-03	 1.83668000E-03
					 1.53508000E-04	-1.22162000E-03	 1.71697000E-03
					 0.00000000E+00	 0.00000000E+00	 0.00000000E+00
					 3.46791000E-04	-3.88854000E-03	-3.72058000E-03
					 0.00000000E+00	 0.00000000E+00	 0.00000000E+00
					-2.56642000E-04	-3.81346000E-03	-3.74842000E-03
					 0.00000000E+00	 0.00000000E+00	 0.00000000E+00
					 4.37151000E-04	-1.03980000E-03	-1.82657000E-03
					 1.69560000E-04	-3.68401000E-03	-1.85737000E-03
					 0.00000000E+00	 0.00000000E+00	 0.00000000E+00
					 4.88358000E-05	-3.96649000E-03	-3.73053000E-03
					 0.00000000E+00	 0.00000000E+00	 0.00000000E+00
					-1.46522000E-04	-1.18000000E-03	-1.73879000E-03
					-1.02756000E-04	-3.66518000E-03	-1.86624000E-03
					 0.00000000E+00	 0.00000000E+00	 0.00000000E+00
					 0.00000000E+00	 0.00000000E+00	 0.00000000E+00
					 3.81269000E-05	-3.13659000E-03	 4.21189000E-06
					 8.13189000E-04	-3.39591000E-03	 3.65194000E-03
					 0.00000000E+00	 0.00000000E+00	 0.00000000E+00
					 0.00000000E+00	 0.00000000E+00	 0.00000000E+00
					 3.53601000E-05	-3.51530000E-03	-1.76557000E-05
					 4.99993000E-04	-3.77349000E-03	 3.68169000E-03
					 0.00000000E+00	 0.00000000E+00	 0.00000000E+00
					 1.59284000E-06	-4.89598000E-04	 2.47648000E-05
					 3.76075000E-04	-3.19345000E-03	 1.80925000E-03
					 7.25463000E-04	-8.19623000E-04	 1.78510000E-03
					 0.00000000E+00	 0.00000000E+00	 0.00000000E+00
					-9.01664000E-04	-3.36441000E-03	-3.72026000E-03
					 0.00000000E+00	 0.00000000E+00	 0.00000000E+00
					-5.80206000E-04	-3.73165000E-03	-3.73527000E-03
					 0.00000000E+00	 0.00000000E+00	 0.00000000E+00
					-7.28585000E-04	-7.40663000E-04	-1.81968000E-03
					-4.21096000E-04	-3.16280000E-03	-1.82800000E-03
					-2.69303000E-06	-1.45921000E-02	-1.65287000E-05
					-7.47047000E-04	-1.47462000E-02	 7.10966000E-03
					 3.28047000E-05	-1.50111000E-02	-8.90008000E-05
					-1.92341000E-04	-1.52809000E-02	 7.07524000E-03
					 2.54217000E-05	-8.19839000E-03	-3.95580000E-05
					-3.21520000E-04	-1.46269000E-02	 3.54739000E-03
					-5.16164000E-04	-8.53247000E-03	 5.49960000E-03
					 9.57959000E-06	-1.48713000E-02	-3.97464000E-05
					-4.54532000E-04	-1.51103000E-02	 7.07100000E-03
					 3.27528000E-05	-8.46690000E-03	-3.82296000E-05
					-9.60065000E-05	-1.50868000E-02	 3.44837000E-03
					 5.00367000E-05	-8.78200000E-03	 5.45723000E-03
					 6.78077000E-04	-1.47506000E-02	-7.22743000E-03
					 2.26440000E-04	-1.51481000E-02	-7.22726000E-03
					 5.01042000E-04	-8.40724000E-03	-5.56980000E-03
					 3.37990000E-04	-1.46323000E-02	-3.60443000E-03
					 4.59405000E-04	-1.50126000E-02	-7.18737000E-03
					-1.14845000E-05	-8.65128000E-03	-5.58718000E-03
					 1.21512000E-04	-1.50302000E-02	-3.62878000E-03
					 3.91993000E-05	-1.50298000E-02	-1.21617000E-04
					 2.47657000E-04	-1.52904000E-02	 7.05288000E-03
					 2.45343000E-05	-1.50504000E-02	-9.98987000E-05
					 4.45956000E-05	-1.53112000E-02	 7.09005000E-03
					 5.65927000E-05	-8.15258000E-03	-7.20056000E-05
					 1.52433000E-04	-1.51137000E-02	 3.42884000E-03
					 5.84181000E-04	-8.40044000E-03	 5.47508000E-03
					-1.34788000E-04	-1.52640000E-02	-7.28450000E-03
					 3.08251000E-05	-1.52136000E-02	-7.26126000E-03
					-5.32880000E-04	-8.40292000E-03	-5.59088000E-03
					-8.97821000E-05	-1.50767000E-02	-3.63757000E-03
					 6.93341000E-05	-3.20954000E-02	-1.92974000E-04
					-1.07743000E-04	-3.24344000E-02	 9.45732000E-03
					 5.27671000E-05	-3.22013000E-02	-1.26514000E-04
					 1.29328000E-04	-3.24181000E-02	 9.43918000E-03
					 1.33208000E-05	-2.26253000E-02	-1.39157000E-04
					-6.37378000E-05	-3.22282000E-02	 4.50956000E-03
					-5.31451000E-04	-2.28593000E-02	 8.38741000E-03
					 6.80055000E-05	-3.22021000E-02	-1.67144000E-04
					-6.42482000E-06	-3.24624000E-02	 9.48738000E-03
					 2.56834000E-05	-2.30114000E-02	-8.77733000E-05
					 1.01397000E-04	-3.22798000E-02	 4.61931000E-03
					-1.19243000E-04	-2.32626000E-02	 8.39714000E-03
					 3.38991000E-04	-3.20727000E-02	-9.70677000E-03
					 1.19383000E-05	-3.22792000E-02	-9.76678000E-03
					 5.82818000E-04	-2.27298000E-02	-8.55555000E-03
					 1.62100000E-04	-3.20479000E-02	-4.84233000E-03
					 1.72512000E-04	-3.22578000E-02	-9.77923000E-03
					 1.67427000E-04	-2.30557000E-02	-8.60031000E-03
					 2.13252000E-05	-3.22048000E-02	-4.90298000E-03
					 5.18356000E-05	-3.20181000E-02	-1.39556000E-04
					 3.86288000E-04	-3.22673000E-02	 9.46508000E-03
					 5.84095000E-05	-3.21359000E-02	-1.27812000E-04
					 2.55045000E-04	-3.23910000E-02	 9.38375000E-03
					 4.39342000E-05	-2.29587000E-02	-9.84397000E-05
					 2.34739000E-04	-3.20986000E-02	 4.63316000E-03
					 2.24960000E-04	-2.32296000E-02	 8.37360000E-03
					-3.25631000E-04	-3.18914000E-02	-9.69891000E-03
					-1.47483000E-04	-3.22034000E-02	-9.71660000E-03
					-1.58126000E-04	-2.30595000E-02	-8.56351000E-03
					-1.12234000E-04	-3.19257000E-02	-4.91164000E-03
					 6.61060000E-05	-5.38637000E-02	-3.90882000E-04
					 6.28389000E-04	-5.41002000E-02	 1.01449000E-02
					 7.44816000E-05	-5.33626000E-02	-3.71538000E-04
					 6.66923000E-04	-5.34826000E-02	 1.02734000E-02
					 5.08915000E-05	-4.28368000E-02	-2.63635000E-04
					 3.09493000E-04	-5.39631000E-02	 4.83580000E-03
					 3.43300000E-04	-4.30927000E-02	 1.00104000E-02
					 6.13387000E-05	-5.35988000E-02	-3.91042000E-04
					 6.53680000E-04	-5.37381000E-02	 1.02047000E-02
					 3.69984000E-05	-4.25117000E-02	-2.46593000E-04
					 3.25160000E-04	-5.34149000E-02	 4.92043000E-03
					 4.31960000E-04	-4.26842000E-02	 1.00699000E-02
					-4.38510000E-04	-5.38125000E-02	-1.10733000E-02
					-5.01793000E-04	-5.32738000E-02	-1.09551000E-02
					-1.87421000E-04	-4.28119000E-02	-1.05805000E-02
					-1.55976000E-04	-5.38283000E-02	-5.66362000E-03
					-4.69017000E-04	-5.34868000E-02	-1.10113000E-02
					-3.25377000E-04	-4.25176000E-02	-1.05474000E-02
					-1.85481000E-04	-5.33081000E-02	-5.64505000E-03
					 5.58076000E-05	-5.27796000E-02	-3.01366000E-04
					 6.64677000E-04	-5.28997000E-02	 1.02954000E-02
					 6.81810000E-05	-5.30692000E-02	-3.28340000E-04
					 6.68535000E-04	-5.31933000E-02	 1.02874000E-02
					 5.02866000E-05	-4.20829000E-02	-2.22283000E-04
					 3.40287000E-04	-5.28318000E-02	 4.95548000E-03
					 5.53753000E-04	-4.22666000E-02	 1.00811000E-02
					-4.90043000E-04	-5.26894000E-02	-1.09140000E-02
					-4.96708000E-04	-5.29009000E-02	-1.09487000E-02
					-4.31772000E-04	-4.20255000E-02	-1.05083000E-02
					-2.46720000E-04	-5.27321000E-02	-5.56053000E-03
					 7.00069000E-05	-7.49645000E-02	-6.25998000E-04
					 3.51124000E-04	-7.50928000E-02	 1.01570000E-02
					 7.71503000E-05	-7.47079000E-02	-6.19939000E-04
					 3.97740000E-04	-7.48546000E-02	 1.01882000E-02
					 1.06784000E-04	-6.44772000E-02	-5.18836000E-04
					 1.88588000E-04	-7.49986000E-02	 4.81105000E-03
					 5.80415000E-04	-6.46546000E-02	 1.02010000E-02
					 1.02222000E-04	-7.48486000E-02	-6.09379000E-04
					 3.47396000E-04	-7.49715000E-02	 1.01458000E-02
					 1.15898000E-04	-6.39713000E-02	-4.97279000E-04
					 2.53159000E-04	-7.48000000E-02	 4.80191000E-03
					 5.59000000E-04	-6.41106000E-02	 1.02013000E-02
					-2.38545000E-04	-7.49807000E-02	-1.14074000E-02
					-1.54332000E-04	-7.46172000E-02	-1.13956000E-02
					-3.69102000E-04	-6.44353000E-02	-1.12509000E-02
					-5.93184000E-05	-7.49777000E-02	-6.06419000E-03
					-2.14746000E-04	-7.47555000E-02	-1.13811000E-02
					-3.46476000E-04	-6.39550000E-02	-1.11796000E-02
					-4.97563000E-05	-7.46346000E-02	-6.01451000E-03
					 9.83116000E-05	-7.43853000E-02	-5.70537000E-04
					 5.50695000E-04	-7.44770000E-02	 1.01794000E-02
					 7.31621000E-05	-7.45621000E-02	-5.95630000E-04
					 4.85786000E-04	-7.46634000E-02	 1.02042000E-02
					 9.40916000E-05	-6.35543000E-02	-4.31311000E-04
					 3.42307000E-04	-7.44023000E-02	 4.82681000E-03
					 5.47039000E-04	-6.36941000E-02	 1.02045000E-02
					-1.72338000E-04	-7.43715000E-02	-1.13582000E-02
					-1.48900000E-04	-7.44836000E-02	-1.14007000E-02
					-2.87295000E-04	-6.35240000E-02	-1.11226000E-02
					-5.61434000E-05	-7.43851000E-02	-5.96724000E-03
					 9.13047000E-05	-9.69638000E-02	-8.04177000E-04
					 2.63054000E-04	-9.72026000E-02	 1.05401000E-02
					 1.27531000E-04	-9.68630000E-02	-7.43937000E-04
					 2.77651000E-04	-9.70353000E-02	 1.05370000E-02
					 1.32421000E-04	-8.57686000E-02	-7.00185000E-04
					 1.69994000E-04	-9.71044000E-02	 4.84910000E-03
					 2.16853000E-04	-8.59475000E-02	 1.03214000E-02
					 8.23725000E-05	-9.69426000E-02	-7.96524000E-04
					 2.98888000E-04	-9.71503000E-02	 1.05394000E-02
					 1.05285000E-04	-8.56400000E-02	-6.89024000E-04
					 2.05452000E-04	-9.69169000E-02	 4.86644000E-03
					 3.05469000E-04	-8.58311000E-02	 1.03843000E-02
					 2.32377000E-04	-9.67150000E-02	-1.21372000E-02
					-3.90794000E-05	-9.67404000E-02	-1.21106000E-02
					-5.07494000E-06	-8.56509000E-02	-1.17742000E-02
					 1.31584000E-04	-9.68190000E-02	-6.42579000E-03
					 1.05632000E-04	-9.68351000E-02	-1.21427000E-02
					-2.47648000E-05	-8.55201000E-02	-1.17369000E-02
					 4.39850000E-05	-9.68071000E-02	-6.42035000E-03
					 1.74336000E-04	-9.65924000E-02	-8.07755000E-04
					 3.26659000E-04	-9.68655000E-02	 1.04793000E-02
					 1.69604000E-04	-9.67516000E-02	-8.04050000E-04
					 2.93443000E-04	-9.69489000E-02	 1.04841000E-02
					 1.07753000E-04	-8.54222000E-02	-7.06491000E-04
					 2.68935000E-04	-9.67373000E-02	 4.85140000E-03
					 3.65862000E-04	-8.55984000E-02	 1.03368000E-02
					-2.52589000E-04	-9.64042000E-02	-1.21706000E-02
					-1.62291000E-04	-9.66305000E-02	-1.21075000E-02
					-8.52242000E-05	-8.53318000E-02	-1.17592000E-02
					-2.30279000E-05	-9.64743000E-02	-6.47835000E-03
					 2.20764000E-04	-1.20789000E-01	-1.07574000E-03
					 6.73739000E-04	-1.20817000E-01	 1.02561000E-02
					 1.71566000E-04	-1.20302000E-01	-1.10314000E-03
					 6.61156000E-04	-1.20351000E-01	 1.02350000E-02
					 1.40160000E-04	-1.08848000E-01	-9.14010000E-04
					 4.61971000E-04	-1.20779000E-01	 4.53106000E-03
					 4.73706000E-04	-1.08942000E-01	 1.04923000E-02
					 2.25877000E-04	-1.20507000E-01	-1.12310000E-03
					 6.48057000E-04	-1.20598000E-01	 1.03075000E-02
					 1.34390000E-04	-1.08527000E-01	-9.00706000E-04
					 4.08190000E-04	-1.20347000E-01	 4.55465000E-03
					 4.64947000E-04	-1.08634000E-01	 1.05499000E-02
					-4.36922000E-04	-1.20861000E-01	-1.26043000E-02
					-2.80445000E-04	-1.20073000E-01	-1.26223000E-02
					-1.57927000E-04	-1.08694000E-01	-1.24915000E-02
					-1.35027000E-04	-1.20842000E-01	-6.81580000E-03
					-3.57229000E-04	-1.20389000E-01	-1.25883000E-02
					-1.90609000E-04	-1.08435000E-01	-1.25416000E-02
					-6.01079000E-05	-1.20181000E-01	-6.79036000E-03
					 1.33855000E-04	-1.19902000E-01	-1.01410000E-03
					 6.76663000E-04	-1.19778000E-01	 1.03394000E-02
					 1.36765000E-04	-1.20030000E-01	-1.07187000E-03
					 6.52157000E-04	-1.20092000E-01	 1.03504000E-02
					 1.11112000E-04	-1.08214000E-01	-8.73001000E-04
					 3.92014000E-04	-1.19831000E-01	 4.59316000E-03
					 5.18942000E-04	-1.08277000E-01	 1.05933000E-02
					-8.81405000E-05	-1.19939000E-01	-1.25194000E-02
					-1.86899000E-04	-1.19902000E-01	-1.25726000E-02
					-1.92174000E-04	-1.08061000E-01	-1.24450000E-02
					-3.47121000E-06	-1.19946000E-01	-6.77136000E-03
					 7.21527000E-05	-1.43197000E-01	-1.46761000E-03
					 7.82639000E-04	-1.43502000E-01	 9.77728000E-03
					 2.75570000E-04	-1.42419000E-01	-1.56949000E-03
					 9.24886000E-04	-1.42578000E-01	 9.61866000E-03
					 1.34241000E-04	-1.32152000E-01	-1.32842000E-03
					 4.12759000E-04	-1.43374000E-01	 4.17765000E-03
					 9.37835000E-04	-1.32224000E-01	 9.90736000E-03
					 1.49605000E-04	-1.42800000E-01	-1.47753000E-03
					 8.64916000E-04	-1.42981000E-01	 9.63156000E-03
					 1.56796000E-04	-1.31464000E-01	-1.33720000E-03
					 6.17611000E-04	-1.42478000E-01	 4.05839000E-03
					 8.05283000E-04	-1.31532000E-01	 9.83400000E-03
					-8.31035000E-04	-1.43163000E-01	-1.24461000E-02
					-7.20626000E-04	-1.42056000E-01	-1.21212000E-02
					-5.95664000E-04	-1.32008000E-01	-1.24720000E-02
					-2.57644000E-04	-1.43180000E-01	-6.89797000E-03
					-7.67501000E-04	-1.42647000E-01	-1.23941000E-02
					-5.03792000E-04	-1.31366000E-01	-1.23606000E-02
					-1.99909000E-04	-1.42277000E-01	-6.96744000E-03
					 5.37138000E-04	-1.41573000E-01	-1.18795000E-03
					 1.01261000E-03	-1.42085000E-01	 9.98790000E-03
					 4.27198000E-04	-1.42018000E-01	-1.35907000E-03
					 9.71908000E-04	-1.42271000E-01	 9.67559000E-03
					 1.65444000E-04	-1.30828000E-01	-1.24833000E-03
					 7.77141000E-04	-1.41875000E-01	 4.45350000E-03
					 6.88507000E-04	-1.30941000E-01	 1.00721000E-02
					-9.82939000E-04	-1.41112000E-01	-1.24389000E-02
					-8.30470000E-04	-1.41760000E-01	-1.21980000E-02
					-3.90863000E-04	-1.30607000E-01	-1.23385000E-02
					-1.94182000E-04	-1.41326000E-01	-6.93364000E-03
					 0.00000000E+00	 0.00000000E+00	 0.00000000E+00
					 0.00000000E+00	 0.00000000E+00	 0.00000000E+00
					 3.25799000E-05	-1.34930000E-02	-3.70135000E-04
					-3.18598000E-03	-1.44837000E-02	 1.32061000E-02
					 0.00000000E+00	 0.00000000E+00	 0.00000000E+00
					 0.00000000E+00	 0.00000000E+00	 0.00000000E+00
					-2.39849000E-05	-1.59063000E-02	-5.10724000E-04
					-1.53957000E-03	-1.69791000E-02	 1.33438000E-02
					 0.00000000E+00	 0.00000000E+00	 0.00000000E+00
					 4.40829000E-05	-2.64611000E-03	-1.21715000E-04
					-1.59116000E-03	-1.37018000E-02	 6.34900000E-03
					-2.74482000E-03	-3.92875000E-03	 6.81881000E-03
					 0.00000000E+00	 0.00000000E+00	 0.00000000E+00
					 0.00000000E+00	 0.00000000E+00	 0.00000000E+00
					-6.67504000E-06	-1.50583000E-02	-4.72534000E-04
					-2.33946000E-03	-1.60085000E-02	 1.31949000E-02
					 0.00000000E+00	 0.00000000E+00	 0.00000000E+00
					-3.34335000E-05	-4.37004000E-03	-1.91972000E-04
					-7.48857000E-04	-1.61008000E-02	 6.19470000E-03
					-7.82624000E-04	-5.53851000E-03	 6.66765000E-03
					 0.00000000E+00	 0.00000000E+00	 0.00000000E+00
					 3.32856000E-03	-1.41194000E-02	-1.42005000E-02
					 0.00000000E+00	 0.00000000E+00	 0.00000000E+00
					 1.49559000E-03	-1.66215000E-02	-1.44037000E-02
					 0.00000000E+00	 0.00000000E+00	 0.00000000E+00
					 2.89236000E-03	-3.81098000E-03	-7.22053000E-03
					 1.65105000E-03	-1.34948000E-02	-7.21202000E-03
					 0.00000000E+00	 0.00000000E+00	 0.00000000E+00
					 2.41009000E-03	-1.56580000E-02	-1.41676000E-02
					 0.00000000E+00	 0.00000000E+00	 0.00000000E+00
					 8.17502000E-04	-5.51879000E-03	-7.08097000E-03
					 7.04858000E-04	-1.59528000E-02	-7.22719000E-03
					 0.00000000E+00	 0.00000000E+00	 0.00000000E+00
					 0.00000000E+00	 0.00000000E+00	 0.00000000E+00
					-3.58021000E-05	-1.66766000E-02	-4.65801000E-04
					 5.71004000E-05	-1.74932000E-02	 1.30618000E-02
					 0.00000000E+00	 0.00000000E+00	 0.00000000E+00
					 0.00000000E+00	 0.00000000E+00	 0.00000000E+00
					-4.50831000E-06	-1.65530000E-02	-4.87710000E-04
					-7.69306000E-04	-1.75040000E-02	 1.32898000E-02
					 0.00000000E+00	 0.00000000E+00	 0.00000000E+00
					-8.68125000E-05	-4.23182000E-03	-1.74541000E-04
					 1.53780000E-05	-1.67715000E-02	 6.02846000E-03
					 1.24312000E-03	-5.41564000E-03	 6.77619000E-03
					 0.00000000E+00	 0.00000000E+00	 0.00000000E+00
					-1.60978000E-04	-1.73742000E-02	-1.43095000E-02
					 0.00000000E+00	 0.00000000E+00	 0.00000000E+00
					 6.44334000E-04	-1.72279000E-02	-1.44641000E-02
					 0.00000000E+00	 0.00000000E+00	 0.00000000E+00
					-1.30575000E-03	-5.32719000E-03	-7.24540000E-03
					-1.51656000E-04	-1.67038000E-02	-7.07047000E-03
					-6.01481000E-05	-5.33474000E-02	-1.44374000E-03
					-3.07755000E-03	-5.43019000E-02	 2.18636000E-02
					-3.69000000E-05	-5.57618000E-02	-1.58629000E-03
					-1.94464000E-03	-5.68279000E-02	 2.18564000E-02
					 1.16738000E-05	-3.09490000E-02	-8.54322000E-04
					-1.53155000E-03	-5.36895000E-02	 1.00370000E-02
					-3.20599000E-03	-3.20357000E-02	 1.81762000E-02
					-5.08557000E-05	-5.46346000E-02	-1.49094000E-03
					-2.49803000E-03	-5.57098000E-02	 2.18861000E-02
					-1.71445000E-05	-3.34024000E-02	-9.43356000E-04
					-9.98643000E-04	-5.61730000E-02	 9.99409000E-03
					-1.75855000E-03	-3.45015000E-02	 1.82031000E-02
					 2.94619000E-03	-5.33381000E-02	-2.47837000E-02
					 1.92597000E-03	-5.57549000E-02	-2.49839000E-02
					 3.29673000E-03	-3.12153000E-02	-1.99273000E-02
					 1.44660000E-03	-5.32394000E-02	-1.29020000E-02
					 2.43524000E-03	-5.46738000E-02	-2.49616000E-02
					 1.75963000E-03	-3.38591000E-02	-2.02171000E-02
					 9.65737000E-04	-5.56676000E-02	-1.31369000E-02
					 2.11829000E-06	-5.70450000E-02	-1.68220000E-03
					-7.57561000E-04	-5.80520000E-02	 2.16315000E-02
					-2.80918000E-05	-5.65641000E-02	-1.64020000E-03
					-1.35941000E-03	-5.76391000E-02	 2.18169000E-02
					-2.43495000E-05	-3.44462000E-02	-1.03560000E-03
					-4.36925000E-04	-5.74409000E-02	 9.77403000E-03
					-3.23656000E-04	-3.54648000E-02	 1.79959000E-02
					 7.34357000E-04	-5.71194000E-02	-2.50538000E-02
					 1.34633000E-03	-5.65698000E-02	-2.50832000E-02
					 3.38269000E-04	-3.49621000E-02	-2.01016000E-02
					 3.77746000E-04	-5.69781000E-02	-1.31478000E-02
					 7.99168000E-05	-1.07202000E-01	-3.08824000E-03
					-3.21418000E-03	-1.08332000E-01	 2.51917000E-02
					-9.67494000E-06	-1.10409000E-01	-3.17621000E-03
					-2.71317000E-03	-1.11344000E-01	 2.51225000E-02
					-3.68099000E-05	-7.92369000E-02	-2.24808000E-03
					-1.62225000E-03	-1.07721000E-01	 1.10441000E-02
					-2.99032000E-03	-8.03181000E-02	 2.41333000E-02
					 2.49647000E-05	-1.08850000E-01	-3.14014000E-03
					-2.97813000E-03	-1.09824000E-01	 2.50780000E-02
					-2.86528000E-05	-8.18318000E-02	-2.32914000E-03
					-1.40616000E-03	-1.10808000E-01	 1.08525000E-02
					-2.34193000E-03	-8.29512000E-02	 2.41029000E-02
					 3.20806000E-03	-1.06582000E-01	-3.13395000E-02
					 3.04774000E-03	-1.09784000E-01	-3.15940000E-02
					 2.91817000E-03	-7.90355000E-02	-2.85604000E-02
					 1.73320000E-03	-1.06789000E-01	-1.72038000E-02
					 3.13971000E-03	-1.08119000E-01	-3.13636000E-02
					 2.26542000E-03	-8.15482000E-02	-2.87530000E-02
					 1.47695000E-03	-1.10043000E-01	-1.72462000E-02
					 1.08739000E-04	-1.13073000E-01	-3.25503000E-03
					-2.53590000E-03	-1.14407000E-01	 2.50529000E-02
					 5.82068000E-05	-1.11797000E-01	-3.19119000E-03
					-2.61919000E-03	-1.12724000E-01	 2.52102000E-02
					-2.54572000E-05	-8.38116000E-02	-2.36902000E-03
					-1.11563000E-03	-1.13646000E-01	 1.06378000E-02
					-1.67644000E-03	-8.49439000E-02	 2.39771000E-02
					 2.50676000E-03	-1.12617000E-01	-3.15521000E-02
					 2.77712000E-03	-1.11270000E-01	-3.17636000E-02
					 1.43691000E-03	-8.34139000E-02	-2.87758000E-02
					 1.32870000E-03	-1.12827000E-01	-1.71437000E-02
					 4.12654000E-04	-1.65647000E-01	-5.04734000E-03
					-3.83110000E-03	-1.66250000E-01	 2.45392000E-02