# vtk DataFile Version 3.0

ASCII
DATASET UNSTRUCTURED_GRID

POINTS 522 double
	 1.00000000E+00	 1.00000000E+00	-5.96046000E-08
	 1.00000000E+00	 5.00000000E-01	-5.96046000E-08
	 1.00000000E+00	 5.00000000E-01	 1.00000000E+00
	 1.00000000E+00	 1.00000000E+00	 1.00000000E+00
	 5.00000000E-01	 1.00000000E+00	-5.96046000E-08
	 5.00000000E-01	 5.00000000E-01	-5.96046000E-08
	 5.00000000E-01	 5.00000000E-01	 1.00000000E+00
	 5.00000000E-01	 1.00000000E+00	 1.00000000E+00
	 1.00000000E+00	 7.50000000E-01	-5.96046000E-08
	 1.00000000E+00	 5.00000000E-01	 5.00000000E-01
	 1.00000000E+00	 7.50000000E-01	 1.00000000E+00
	 1.00000000E+00	 1.00000000E+00	 5.00000000E-01
	 7.50000000E-01	 1.00000000E+00	-5.96046000E-08
	 7.50000000E-01	 5.00000000E-01	-5.96046000E-08
	 7.50000000E-01	 5.00000000E-01	 1.00000000E+00
	 7.50000000E-01	 1.00000000E+00	 1.00000000E+00
	 5.00000000E-01	 7.50000000E-01	-5.96046000E-08
	 5.00000000E-01	 5.00000000E-01	 5.00000000E-01
	 5.00000000E-01	 7.50000000E-01	 1.00000000E+00
	 5.00000000E-01	 1.00000000E+00	 5.00000000E-01
	 1.00000000E+00	-1.49012000E-08	-5.96046000E-08
	 1.00000000E+00	-1.49012000E-08	 1.00000000E+00
	 5.00000000E-01	-1.49012000E-08	-5.96046000E-08
	 5.00000000E-01	-1.49012000E-08	 1.00000000E+00
	 1.00000000E+00	 2.50000000E-01	-5.96046000E-08
	 1.00000000E+00	-1.49012000E-08	 5.00000000E-01
	 1.00000000E+00	 2.50000000E-01	 1.00000000E+00
	 7.50000000E-01	-1.49012000E-08	-5.96046000E-08
	 7.50000000E-01	-1.49012000E-08	 1.00000000E+00
	 5.00000000E-01	 2.50000000E-01	-5.96046000E-08
	 5.00000000E-01	-1.49012000E-08	 5.00000000E-01
	 5.00000000E-01	 2.50000000E-01	 1.00000000E+00
	-7.45058000E-09	 1.00000000E+00	-5.96046000E-08
	-7.45058000E-09	 5.00000000E-01	-5.96046000E-08
	-7.45058000E-09	 5.00000000E-01	 1.00000000E+00
	-7.45058000E-09	 1.00000000E+00	 1.00000000E+00
	 2.50000000E-01	 1.00000000E+00	-5.96046000E-08
	 2.50000000E-01	 5.00000000E-01	-5.96046000E-08
	 2.50000000E-01	 5.00000000E-01	 1.00000000E+00
	 2.50000000E-01	 1.00000000E+00	 1.00000000E+00
	-7.45058000E-09	 7.50000000E-01	-5.96046000E-08
	-7.45058000E-09	 5.00000000E-01	 5.00000000E-01
	-7.45058000E-09	 7.50000000E-01	 1.00000000E+00
	-7.45058000E-09	 1.00000000E+00	 5.00000000E-01
	-7.45058000E-09	-1.49012000E-08	-5.96046000E-08
	-7.45058000E-09	-1.49012000E-08	 1.00000000E+00
	 2.50000000E-01	-1.49012000E-08	-5.96046000E-08
	 2.50000000E-01	-1.49012000E-08	 1.00000000E+00
	-7.45058000E-09	 2.50000000E-01	-5.96046000E-08
	-7.45058000E-09	-1.49012000E-08	 5.00000000E-01
	-7.45058000E-09	 2.50000000E-01	 1.00000000E+00
	 1.00000000E+00	 5.00000000E-01	 2.00000000E+00
	 1.00000000E+00	 1.00000000E+00	 2.00000000E+00
	 5.00000000E-01	 5.00000000E-01	 2.00000000E+00
	 5.00000000E-01	 1.00000000E+00	 2.00000000E+00
	 1.00000000E+00	 5.00000000E-01	 1.50000000E+00
	 1.00000000E+00	 7.50000000E-01	 2.00000000E+00
	 1.00000000E+00	 1.00000000E+00	 1.50000000E+00
	 7.50000000E-01	 5.00000000E-01	 2.00000000E+00
	 7.50000000E-01	 1.00000000E+00	 2.00000000E+00
	 5.00000000E-01	 5.00000000E-01	 1.50000000E+00
	 5.00000000E-01	 7.50000000E-01	 2.00000000E+00
	 5.00000000E-01	 1.00000000E+00	 1.50000000E+00
	 1.00000000E+00	-1.49012000E-08	 2.00000000E+00
	 5.00000000E-01	-1.49012000E-08	 2.00000000E+00
	 1.00000000E+00	-1.49012000E-08	 1.50000000E+00
	 1.00000000E+00	 2.50000000E-01	 2.00000000E+00
	 7.50000000E-01	-1.49012000E-08	 2.00000000E+00
	 5.00000000E-01	-1.49012000E-08	 1.50000000E+00
	 5.00000000E-01	 2.50000000E-01	 2.00000000E+00
	-7.45058000E-09	 5.00000000E-01	 2.00000000E+00
	-7.45058000E-09	 1.00000000E+00	 2.00000000E+00
	 2.50000000E-01	 5.00000000E-01	 2.00000000E+00
	 2.50000000E-01	 1.00000000E+00	 2.00000000E+00
	-7.45058000E-09	 5.00000000E-01	 1.50000000E+00
	-7.45058000E-09	 7.50000000E-01	 2.00000000E+00
	-7.45058000E-09	 1.00000000E+00	 1.50000000E+00
	-7.45058000E-09	-1.49012000E-08	 2.00000000E+00
	 2.50000000E-01	-1.49012000E-08	 2.00000000E+00
	-7.45058000E-09	-1.49012000E-08	 1.50000000E+00
	-7.45058000E-09	 2.50000000E-01	 2.00000000E+00
	 1.00000000E+00	 5.00000000E-01	 3.00000000E+00
	 1.00000000E+00	 1.00000000E+00	 3.00000000E+00
	 5.00000000E-01	 5.00000000E-01	 3.00000000E+00
	 5.00000000E-01	 1.00000000E+00	 3.00000000E+00
	 1.00000000E+00	 5.00000000E-01	 2.50000000E+00
	 1.00000000E+00	 7.50000000E-01	 3.00000000E+00
	 1.00000000E+00	 1.00000000E+00	 2.50000000E+00
	 7.50000000E-01	 5.00000000E-01	 3.00000000E+00
	 7.50000000E-01	 1.00000000E+00	 3.00000000E+00
	 5.00000000E-01	 5.00000000E-01	 2.50000000E+00
	 5.00000000E-01	 7.50000000E-01	 3.00000000E+00
	 5.00000000E-01	 1.00000000E+00	 2.50000000E+00
	 1.00000000E+00	-1.49012000E-08	 3.00000000E+00
	 5.00000000E-01	-1.49012000E-08	 3.00000000E+00
	 1.00000000E+00	-1.49012000E-08	 2.50000000E+00
	 1.00000000E+00	 2.50000000E-01	 3.00000000E+00
	 7.50000000E-01	-1.49012000E-08	 3.00000000E+00
	 5.00000000E-01	-1.49012000E-08	 2.50000000E+00
	 5.00000000E-01	 2.50000000E-01	 3.00000000E+00
	-7.45058000E-09	 5.00000000E-01	 3.00000000E+00
	-7.45058000E-09	 1.00000000E+00	 3.00000000E+00
	 2.50000000E-01	 5.00000000E-01	 3.00000000E+00
	 2.50000000E-01	 1.00000000E+00	 3.00000000E+00
	-7.45058000E-09	 5.00000000E-01	 2.50000000E+00
	-7.45058000E-09	 7.50000000E-01	 3.00000000E+00
	-7.45058000E-09	 1.00000000E+00	 2.50000000E+00
	-7.45058000E-09	-1.49012000E-08	 3.00000000E+00
	 2.50000000E-01	-1.49012000E-08	 3.00000000E+00
	-7.45058000E-09	-1.49012000E-08	 2.50000000E+00
	-7.45058000E-09	 2.50000000E-01	 3.00000000E+00
	 1.00000000E+00	 5.00000000E-01	 4.00000000E+00
	 1.00000000E+00	 1.00000000E+00	 4.00000000E+00
	 5.00000000E-01	 5.00000000E-01	 4.00000000E+00
	 5.00000000E-01	 1.00000000E+00	 4.00000000E+00
	 1.00000000E+00	 5.00000000E-01	 3.50000000E+00
	 1.00000000E+00	 7.50000000E-01	 4.00000000E+00
	 1.00000000E+00	 1.00000000E+00	 3.50000000E+00
	 7.50000000E-01	 5.00000000E-01	 4.00000000E+00
	 7.50000000E-01	 1.00000000E+00	 4.00000000E+00
	 5.00000000E-01	 5.00000000E-01	 3.50000000E+00
	 5.00000000E-01	 7.50000000E-01	 4.00000000E+00
	 5.00000000E-01	 1.00000000E+00	 3.50000000E+00
	 1.00000000E+00	-1.49012000E-08	 4.00000000E+00
	 5.00000000E-01	-1.49012000E-08	 4.00000000E+00
	 1.00000000E+00	-1.49012000E-08	 3.50000000E+00
	 1.00000000E+00	 2.50000000E-01	 4.00000000E+00
	 7.50000000E-01	-1.49012000E-08	 4.00000000E+00
	 5.00000000E-01	-1.49012000E-08	 3.50000000E+00
	 5.00000000E-01	 2.50000000E-01	 4.00000000E+00
	-7.45058000E-09	 5.00000000E-01	 4.00000000E+00
	-7.45058000E-09	 1.00000000E+00	 4.00000000E+00
	 2.50000000E-01	 5.00000000E-01	 4.00000000E+00
	 2.50000000E-01	 1.00000000E+00	 4.00000000E+00
	-7.45058000E-09	 5.00000000E-01	 3.50000000E+00
	-7.45058000E-09	 7.50000000E-01	 4.00000000E+00
	-7.45058000E-09	 1.00000000E+00	 3.50000000E+00
	-7.45058000E-09	-1.49012000E-08	 4.00000000E+00
	 2.50000000E-01	-1.49012000E-08	 4.00000000E+00
	-7.45058000E-09	-1.49012000E-08	 3.50000000E+00
	-7.45058000E-09	 2.50000000E-01	 4.00000000E+00
	 1.00000000E+00	 5.00000000E-01	 5.00000000E+00
	 1.00000000E+00	 1.00000000E+00	 5.00000000E+00
	 5.00000000E-01	 5.00000000E-01	 5.00000000E+00
	 5.00000000E-01	 1.00000000E+00	 5.00000000E+00
	 1.00000000E+00	 5.00000000E-01	 4.50000000E+00
	 1.00000000E+00	 7.50000000E-01	 5.00000000E+00
	 1.00000000E+00	 1.00000000E+00	 4.50000000E+00
	 7.50000000E-01	 5.00000000E-01	 5.00000000E+00
	 7.50000000E-01	 1.00000000E+00	 5.00000000E+00
	 5.00000000E-01	 5.00000000E-01	 4.50000000E+00
	 5.00000000E-01	 7.50000000E-01	 5.00000000E+00
	 5.00000000E-01	 1.00000000E+00	 4.50000000E+00
	 1.00000000E+00	-1.49012000E-08	 5.00000000E+00
	 5.00000000E-01	-1.49012000E-08	 5.00000000E+00
	 1.00000000E+00	-1.49012000E-08	 4.50000000E+00
	 1.00000000E+00	 2.50000000E-01	 5.00000000E+00
	 7.50000000E-01	-1.49012000E-08	 5.00000000E+00
	 5.00000000E-01	-1.49012000E-08	 4.50000000E+00
	 5.00000000E-01	 2.50000000E-01	 5.00000000E+00
	-7.45058000E-09	 5.00000000E-01	 5.00000000E+00
	-7.45058000E-09	 1.00000000E+00	 5.00000000E+00
	 2.50000000E-01	 5.00000000E-01	 5.00000000E+00
	 2.50000000E-01	 1.00000000E+00	 5.00000000E+00
	-7.45058000E-09	 5.00000000E-01	 4.50000000E+00
	-7.45058000E-09	 7.50000000E-01	 5.00000000E+00
	-7.45058000E-09	 1.00000000E+00	 4.50000000E+00
	-7.45058000E-09	-1.49012000E-08	 5.00000000E+00
	 2.50000000E-01	-1.49012000E-08	 5.00000000E+00
	-7.45058000E-09	-1.49012000E-08	 4.50000000E+00
	-7.45058000E-09	 2.50000000E-01	 5.00000000E+00
	 1.00000000E+00	 5.00000000E-01	 6.00000000E+00
	 1.00000000E+00	 1.00000000E+00	 6.00000000E+00
	 5.00000000E-01	 5.00000000E-01	 6.00000000E+00
	 5.00000000E-01	 1.00000000E+00	 6.00000000E+00
	 1.00000000E+00	 5.00000000E-01	 5.50000000E+00
	 1.00000000E+00	 7.50000000E-01	 6.00000000E+00
	 1.00000000E+00	 1.00000000E+00	 5.50000000E+00
	 7.50000000E-01	 5.00000000E-01	 6.00000000E+00
	 7.50000000E-01	 1.00000000E+00	 6.00000000E+00
	 5.00000000E-01	 5.00000000E-01	 5.50000000E+00
	 5.00000000E-01	 7.50000000E-01	 6.00000000E+00
	 5.00000000E-01	 1.00000000E+00	 5.50000000E+00
	 1.00000000E+00	-1.49012000E-08	 6.00000000E+00
	 5.00000000E-01	-1.49012000E-08	 6.00000000E+00
	 1.00000000E+00	-1.49012000E-08	 5.50000000E+00
	 1.00000000E+00	 2.50000000E-01	 6.00000000E+00
	 7.50000000E-01	-1.49012000E-08	 6.00000000E+00
	 5.00000000E-01	-1.49012000E-08	 5.50000000E+00
	 5.00000000E-01	 2.50000000E-01	 6.00000000E+00
	-7.45058000E-09	 5.00000000E-01	 6.00000000E+00
	-7.45058000E-09	 1.00000000E+00	 6.00000000E+00
	 2.50000000E-01	 5.00000000E-01	 6.00000000E+00
	 2.50000000E-01	 1.00000000E+00	 6.00000000E+00
	-7.45058000E-09	 5.00000000E-01	 5.50000000E+00
	-7.45058000E-09	 7.50000000E-01	 6.00000000E+00
	-7.45058000E-09	 1.00000000E+00	 5.50000000E+00
	-7.45058000E-09	-1.49012000E-08	 6.00000000E+00
	 2.50000000E-01	-1.49012000E-08	 6.00000000E+00
	-7.45058000E-09	-1.49012000E-08	 5.50000000E+00
	-7.45058000E-09	 2.50000000E-01	 6.00000000E+00
	 1.00000000E+00	 5.00000000E-01	 7.00000000E+00
[...]
POINT_DATA 522
FIELD U 1
	U 3 522 double
		 0.00000000E+00	 0.00000000E+00	 0.00000000E+00
		 0.00000000E+00	 0.00000000E+00	 0.00000000E+00
		 1.05778000E-05	 4.28730000E-04	-2.58447000E-05
		-2.15713000E-04	 5.14472000E-04	-7.47960000E-04
		 0.00000000E+00	 0.00000000E+00	 0.00000000E+00
		 0.00000000E+00	 0.00000000E+00	 0.00000000E+00
		 6.75620000E-06	 9.86931000E-05	-2.79315000E-05
		-4.04838000E-04	 1.96160000E-04	-7.45857000E-04
		 0.00000000E+00	 0.00000000E+00	 0.00000000E+00
		 9.73398000E-06	-3.65719000E-05	-1.34399000E-05
		-1.04336000E-04	 4.44917000E-04	-3.77540000E-04
		-7.15906000E-05	 2.36332000E-05	-2.52795000E-04
		 0.00000000E+00	 0.00000000E+00	 0.00000000E+00
		 0.00000000E+00	 0.00000000E+00	 0.00000000E+00
		 8.84172000E-06	 2.88205000E-04	-2.66715000E-05
		-3.10573000E-04	 3.81944000E-04	-7.78198000E-04
		 0.00000000E+00	 0.00000000E+00	 0.00000000E+00
		 5.72497000E-06	-1.79627000E-04	-1.18224000E-05
		-1.98546000E-04	 1.19766000E-04	-4.11046000E-04
		-1.90315000E-04	-1.12765000E-04	-2.30620000E-04
		 0.00000000E+00	 0.00000000E+00	 0.00000000E+00
		 2.37555000E-04	 5.09953000E-04	 6.96835000E-04
		 0.00000000E+00	 0.00000000E+00	 0.00000000E+00
		 4.19064000E-04	 1.88904000E-04	 6.89768000E-04
		 0.00000000E+00	 0.00000000E+00	 0.00000000E+00
		 9.01456000E-05	 1.50663000E-05	 2.24827000E-04
		 1.25595000E-04	 4.42606000E-04	 3.25968000E-04
		 0.00000000E+00	 0.00000000E+00	 0.00000000E+00
		 3.29078000E-04	 3.76142000E-04	 7.25440000E-04
		 0.00000000E+00	 0.00000000E+00	 0.00000000E+00
		 2.00983000E-04	-1.20749000E-04	 2.05636000E-04
		 2.12230000E-04	 1.16294000E-04	 3.55302000E-04
		 0.00000000E+00	 0.00000000E+00	 0.00000000E+00
		 0.00000000E+00	 0.00000000E+00	 0.00000000E+00
		 1.29956000E-06	-3.95643000E-04	-3.01166000E-05
		-5.89798000E-04	-3.02262000E-04	-7.53200000E-04
		 0.00000000E+00	 0.00000000E+00	 0.00000000E+00
		 0.00000000E+00	 0.00000000E+00	 0.00000000E+00
		 4.23201000E-06	-1.23139000E-04	-2.89871000E-05
		-4.96133000E-04	-2.82127000E-05	-7.01429000E-04
		 0.00000000E+00	 0.00000000E+00	 0.00000000E+00
		 1.20313000E-06	-4.28162000E-04	-1.20202000E-05
		-2.94353000E-04	-3.75386000E-04	-4.62047000E-04
		-2.92573000E-04	-3.51579000E-04	-2.51629000E-04
		 0.00000000E+00	 0.00000000E+00	 0.00000000E+00
		 5.93466000E-04	-3.11096000E-04	 6.91910000E-04
		 0.00000000E+00	 0.00000000E+00	 0.00000000E+00
		 5.05275000E-04	-3.63903000E-05	 6.42485000E-04
		 0.00000000E+00	 0.00000000E+00	 0.00000000E+00
		 2.94248000E-04	-3.58962000E-04	 2.25983000E-04
		 2.97371000E-04	-3.79299000E-04	 4.01843000E-04
		-1.02895000E-05	 3.82021000E-03	-5.42088000E-05
		-7.63073000E-04	 3.86387000E-03	-1.91014000E-03
		-1.44790000E-05	 3.01190000E-03	-6.52885000E-05
		-8.67263000E-04	 3.06048000E-03	-1.94155000E-03
		 3.75934000E-06	 1.73497000E-03	-3.82024000E-05
		-3.88531000E-04	 3.82844000E-03	-8.94942000E-04
		-4.62866000E-04	 1.80235000E-03	-1.39374000E-03
		-1.24287000E-05	 3.42932000E-03	-6.04023000E-05
		-8.15123000E-04	 3.47616000E-03	-1.96780000E-03
		-7.91967000E-07	 1.17449000E-03	-4.51699000E-05
		-4.41408000E-04	 3.02230000E-03	-9.54521000E-04
		-6.40618000E-04	 1.24899000E-03	-1.41125000E-03
		 7.46818000E-04	 3.86755000E-03	 1.80012000E-03
		 8.42023000E-04	 3.05883000E-03	 1.80954000E-03
		 4.73976000E-04	 1.80242000E-03	 1.31697000E-03
		 3.69077000E-04	 3.83037000E-03	 7.86252000E-04
		 7.94737000E-04	 3.47692000E-03	 1.84527000E-03
		 6.42007000E-04	 1.24425000E-03	 1.31978000E-03
		 4.13740000E-04	 3.02095000E-03	 8.23519000E-04
		-1.84025000E-05	 2.11006000E-03	-7.47562000E-05
		-9.75372000E-04	 2.15394000E-03	-1.93110000E-03
		-1.64626000E-05	 2.57304000E-03	-6.97631000E-05
		-9.21656000E-04	 2.62242000E-03	-1.92320000E-03
		-5.77194000E-06	 4.51643000E-04	-5.16012000E-05
		-4.94090000E-04	 2.11834000E-03	-9.70283000E-04
		-8.23796000E-04	 5.17920000E-04	-1.40821000E-03
		 9.41021000E-04	 2.14875000E-03	 1.78053000E-03
		 8.91749000E-04	 2.61891000E-03	 1.78271000E-03
		 8.14692000E-04	 5.09572000E-04	 1.30320000E-03
		 4.57966000E-04	 2.11495000E-03	 8.20183000E-04
		-4.80746000E-05	 8.66595000E-03	-9.54024000E-05
		-1.33925000E-03	 8.61858000E-03	-1.87065000E-03
		-4.92002000E-05	 7.43107000E-03	-1.05378000E-04
		-1.23695000E-03	 7.38019000E-03	-1.89560000E-03
		-2.90609000E-05	 6.30558000E-03	-7.42213000E-05
		-6.92374000E-04	 8.65762000E-03	-9.25762000E-04
		-1.07380000E-03	 6.30470000E-03	-2.04659000E-03
		-4.90707000E-05	 8.03484000E-03	-1.00838000E-04
		-1.28785000E-03	 7.98472000E-03	-1.91273000E-03
		-3.17787000E-05	 5.26867000E-03	-8.62966000E-05
		-6.42922000E-04	 7.42179000E-03	-9.71269000E-04
		-1.06332000E-03	 5.26634000E-03	-2.08149000E-03
		 1.24547000E-03	 8.61814000E-03	 1.67978000E-03
		 1.13874000E-03	 7.37789000E-03	 1.68509000E-03
		 1.01910000E-03	 6.30706000E-03	 1.89613000E-03
		 5.97018000E-04	 8.65646000E-03	 7.34847000E-04
		 1.19142000E-03	 7.98304000E-03	 1.71104000E-03
		 1.00167000E-03	 5.26528000E-03	 1.90801000E-03
		 5.44735000E-04	 7.41966000E-03	 7.60472000E-04
		-4.99459000E-05	 6.29047000E-03	-1.14371000E-04
		-1.13428000E-03	 6.24271000E-03	-1.89038000E-03
		-4.92729000E-05	 6.84743000E-03	-1.09604000E-04
		-1.18584000E-03	 6.79651000E-03	-1.87896000E-03
		-3.40958000E-05	 4.23988000E-03	-9.64801000E-05
		-5.93771000E-04	 6.28183000E-03	-9.88227000E-04
		-1.05539000E-03	 4.23798000E-03	-2.06888000E-03
		 1.03209000E-03	 6.24307000E-03	 1.66210000E-03
		 1.08590000E-03	 6.79496000E-03	 1.66030000E-03
		 9.87053000E-04	 4.23666000E-03	 1.87611000E-03
		 4.93373000E-04	 6.28165000E-03	 7.59432000E-04
		-7.50893000E-05	 1.18786000E-02	-1.27749000E-04
		-1.77996000E-03	 1.17974000E-02	-9.10819000E-04
		-7.47026000E-05	 1.02647000E-02	-1.34215000E-04
		-1.60404000E-03	 1.01812000E-02	-9.19534000E-04
		-6.32623000E-05	 1.05608000E-02	-1.14085000E-04
		-9.26842000E-04	 1.18607000E-02	-4.88960000E-04
		-1.56207000E-03	 1.04930000E-02	-1.44586000E-03
		-7.50738000E-05	 1.10495000E-02	-1.31125000E-04
		-1.69192000E-03	 1.09663000E-02	-9.44426000E-04
		-6.32580000E-05	 9.13784000E-03	-1.21275000E-04
		-8.39834000E-04	 1.02462000E-02	-5.25457000E-04
		-1.41477000E-03	 9.06941000E-03	-1.46129000E-03
		 1.63323000E-03	 1.17995000E-02	 6.57676000E-04
		 1.45698000E-03	 1.01785000E-02	 6.53265000E-04
		 1.43802000E-03	 1.04923000E-02	 1.21980000E-03
		 7.77537000E-04	 1.18618000E-02	 2.34094000E-04
		 1.54502000E-03	 1.09657000E-02	 6.84679000E-04
		 1.28903000E-03	 9.06588000E-03	 1.22022000E-03
		 6.91154000E-04	 1.02444000E-02	 2.57711000E-04
		-7.48042000E-05	 8.81849000E-03	-1.42356000E-04
		-1.43259000E-03	 8.73702000E-03	-9.24809000E-04
		-7.44327000E-05	 9.51971000E-03	-1.37814000E-04
		-1.51829000E-03	 9.43647000E-03	-8.94526000E-04
		-6.33249000E-05	 7.85813000E-03	-1.28939000E-04
		-7.54996000E-04	 8.80073000E-03	-5.59293000E-04
		-1.26436000E-03	 7.79449000E-03	-1.46164000E-03
		 1.28379000E-03	 8.73256000E-03	 6.42054000E-04
		 1.37082000E-03	 9.43259000E-03	 6.20517000E-04
		 1.13625000E-03	 7.79213000E-03	 1.20455000E-03
		 6.05594000E-04	 8.79805000E-03	 2.75505000E-04
		-9.30358000E-05	 1.24448000E-02	-1.50115000E-04
		-2.01509000E-03	 1.23813000E-02	 1.72374000E-04
		-9.43312000E-05	 1.06043000E-02	-1.54848000E-04
		-1.86318000E-03	 1.05311000E-02	 1.75468000E-04
		-8.54471000E-05	 1.25156000E-02	-1.38441000E-04
		-1.05170000E-03	 1.24317000E-02	-4.80233000E-06
		-1.94767000E-03	 1.24418000E-02	-3.47563000E-04
		-9.36347000E-05	 1.15074000E-02	-1.52559000E-04
		-1.93973000E-03	 1.14359000E-02	 1.73142000E-04
		-8.58626000E-05	 1.07436000E-02	-1.45185000E-04
		-9.79603000E-04	 1.05860000E-02	-6.97688000E-06
		-1.77422000E-03	 1.06637000E-02	-3.50338000E-04
		 1.82808000E-03	 1.23835000E-02	-4.71032000E-04
		 1.67540000E-03	 1.05348000E-02	-4.83052000E-04
		 1.77897000E-03	 1.24446000E-02	 7.23999000E-05
		 8.65478000E-04	 1.24332000E-02	-2.94593000E-04
		 1.75242000E-03	 1.14390000E-02	-4.76946000E-04
		 1.60484000E-03	 1.06636000E-02	 6.21931000E-05
		 7.91448000E-04	 1.05882000E-02	-3.02134000E-04
		-9.41543000E-05	 8.90600000E-03	-1.60148000E-04
		-1.72595000E-03	 8.82648000E-03	 1.63868000E-04
		-9.47284000E-05	 9.73595000E-03	-1.57357000E-04
		-1.79522000E-03	 9.66183000E-03	 1.79395000E-04
		-8.60252000E-05	 9.13679000E-03	-1.53665000E-04
		-9.08723000E-04	 8.88413000E-03	-2.38757000E-05
		-1.61118000E-03	 9.05531000E-03	-3.60828000E-04
		 1.53960000E-03	 8.82920000E-03	-4.81496000E-04
		 1.60750000E-03	 9.66552000E-03	-4.91483000E-04
		 1.44136000E-03	 9.05267000E-03	 5.62612000E-05
		 7.21066000E-04	 8.88531000E-03	-2.95799000E-04
		-8.52474000E-05	 1.04788000E-02	-1.71929000E-04
		-1.63525000E-03	 1.04458000E-02	 8.34338000E-04
		-8.57515000E-05	 8.96635000E-03	-1.67643000E-04
		-1.56412000E-03	 8.92948000E-03	 8.44180000E-04
		-9.27023000E-05	 1.17074000E-02	-1.62673000E-04
		-8.59630000E-04	 1.04702000E-02	 2.68482000E-04
		-1.91356000E-03	 1.16645000E-02	 5.62011000E-04
		-8.53207000E-05	 9.71480000E-03	-1.70020000E-04
		-1.59989000E-03	 9.67859000E-03	 8.89928000E-04
		-9.39317000E-05	 9.95015000E-03	-1.62483000E-04
		-8.25657000E-04	 8.95501000E-03	 3.25993000E-04
		-1.79912000E-03	 9.89454000E-03	 5.71211000E-04
		 1.46343000E-03	 1.04516000E-02	-1.17957000E-03
		 1.39285000E-03	 8.93712000E-03	-1.18124000E-03
		 1.72578000E-03	 1.16683000E-02	-8.86335000E-04
		 6.88701000E-04	 1.04735000E-02	-6.13079000E-04
		 1.42859000E-03	 9.68559000E-03	-1.23117000E-03
		 1.61104000E-03	 9.90168000E-03	-8.95152000E-04
		 6.54386000E-04	 8.95961000E-03	-6.61822000E-04
		-8.55131000E-05	 7.52346000E-03	-1.61056000E-04
		-1.50140000E-03	 7.48138000E-03	 8.44315000E-04
		-8.59794000E-05	 8.23646000E-03	-1.64652000E-04
		-1.53324000E-03	 8.19879000E-03	 7.99573000E-04
		-9.37424000E-05	 8.29691000E-03	-1.61334000E-04
		-7.92202000E-04	 7.50950000E-03	 3.74408000E-04
		-1.70739000E-03	 8.22908000E-03	 5.63318000E-04
		 1.33214000E-03	 7.48793000E-03	-1.16867000E-03
		 1.36243000E-03	 8.20602000E-03	-1.13088000E-03
		 1.52112000E-03	 8.23642000E-03	-8.84995000E-04
		 6.21945000E-04	 7.51351000E-03	-6.97252000E-04
		-6.82135000E-05	 7.37703000E-03	-1.90113000E-04
		-9.55335000E-04	 7.35456000E-03	 1.13222000E-03
		-6.83105000E-05	 6.50541000E-03	-1.76304000E-04
		-9.23295000E-04	 6.48642000E-03	 1.15376000E-03
		-7.78560000E-05	 8.98015000E-03	-1.78944000E-04
		-5.13809000E-04	 7.37005000E-03	 4.26763000E-04
		-1.27864000E-03	 8.95066000E-03	 1.00930000E-03
		-6.87710000E-05	 6.93476000E-03	-1.83751000E-04
		-9.40319000E-04	 6.91627000E-03	 1.18111000E-03
		-7.77854000E-05	 7.80289000E-03	-1.71782000E-04
		-4.96487000E-04	 6.50061000E-03	 4.84775000E-04
		-1.23216000E-03	 7.77606000E-03	 1.02006000E-03
		 8.16959000E-04	 7.35158000E-03	-1.51055000E-03
		 7.87716000E-04	 6.48719000E-03	-1.50455000E-03
		 1.12309000E-03	 8.95315000E-03	-1.37011000E-03
		 3.77023000E-04	 7.36717000E-03	-8.05360000E-04
		 8.01789000E-04	 6.91576000E-03	-1.54726000E-03
		 1.07756000E-03	 7.77925000E-03	-1.36671000E-03
		 3.60505000E-04	 6.50005000E-03	-8.36386000E-04
		-6.57170000E-05	 5.67124000E-03	-1.63470000E-04
		-8.78818000E-04	 5.65736000E-03	 1.16808000E-03
		-6.71699000E-05	 6.08581000E-03	-1.69455000E-04
		-9.00562000E-04	 6.06693000E-03	 1.12451000E-03
		-7.61533000E-05	 6.67557000E-03	-1.62218000E-04
		-4.74256000E-04	 5.67016000E-03	 5.37056000E-04
		-1.18052000E-03	 6.65015000E-03	 1.02698000E-03
		 7.50378000E-04	 5.65646000E-03	-1.49316000E-03
		 7.69194000E-04	 6.06751000E-03	-1.46206000E-03
		 1.02974000E-03	 6.65235000E-03	-1.35467000E-03
		 3.43642000E-04	 5.66778000E-03	-8.62617000E-04
		-1.19003000E-05	 4.24781000E-03	-2.11576000E-04
		-6.17013000E-04	 4.22933000E-03	 1.22566000E-03
		-2.33710000E-05	 3.61907000E-03	-1.82274000E-04
		-6.28538000E-04	 3.59936000E-03	 1.27926000E-03
		-4.59561000E-05	 5.76679000E-03	-2.04211000E-04
		-3.10808000E-04	 4.23766000E-03	 4.97987000E-04
		-7.31183000E-04	 5.75274000E-03	 1.20352000E-03
		-1.63153000E-05	 3.93622000E-03	-1.94698000E-04
		-6.22573000E-04	 3.91587000E-03	 1.25491000E-03
		-4.85559000E-05	 5.08594000E-03	-1.80177000E-04
		-3.21214000E-04	 3.60767000E-03	 5.41958000E-04
		-7.19673000E-04	 5.07346000E-03	 1.24468000E-03
		 5.79929000E-04	 4.24603000E-03	-1.63166000E-03
		 5.84027000E-04	 3.62863000E-03	-1.62693000E-03
		 6.30371000E-04	 5.75106000E-03	-1.59966000E-03
		 2.83862000E-04	 4.24749000E-03	-9.16306000E-04
		 5.82304000E-04	 3.94261000E-03	-1.62754000E-03
		 6.24108000E-04	 5.08169000E-03	-1.59314000E-03
		 2.75384000E-04	 3.62577000E-03	-9.01818000E-04
		-3.30696000E-05	 3.00005000E-03	-1.66497000E-04
		-6.18561000E-04	 2.99266000E-03	 1.30821000E-03
		-2.99222000E-05	 3.30628000E-03	-1.73516000E-04
		-6.23143000E-04	 3.28894000E-03	 1.29891000E-03
		-4.96587000E-05	 4.42525000E-03	-1.64874000E-04
		-3.27777000E-04	 2.99682000E-03	 5.63644000E-04
		-6.84724000E-04	 4.42473000E-03	 1.26832000E-03
		 5.69328000E-04	 3.00548000E-03	-1.62412000E-03
		 5.75277000E-04	 3.31362000E-03	-1.62970000E-03
		 5.96125000E-04	 4.42348000E-03	-1.58640000E-03
		 2.66331000E-04	 3.00394000E-03	-8.90999000E-04
		 0.00000000E+00	 0.00000000E+00	 0.00000000E+00
		 0.00000000E+00	 0.00000000E+00	 0.00000000E+00
		-3.50617000E-05	-2.30322000E-03	 1.86308000E-04
		-1.25425000E-03	-2.55144000E-03	 3.41778000E-03
		 0.00000000E+00	 0.00000000E+00	 0.00000000E+00
		 0.00000000E+00	 0.00000000E+00	 0.00000000E+00
		-4.61897000E-06	-3.27999000E-03	 1.88184000E-04
		-7.62230000E-04	-3.54978000E-03	 3.45426000E-03
		 0.00000000E+00	 0.00000000E+00	 0.00000000E+00
		-3.39033000E-05	-1.59638000E-04	 9.03990000E-05
		-6.44614000E-04	-2.34760000E-03	 1.84274000E-03
		-8.86201000E-04	-4.78712000E-04	 1.66972000E-03
		 0.00000000E+00	 0.00000000E+00	 0.00000000E+00
		 0.00000000E+00	 0.00000000E+00	 0.00000000E+00
		-1.98224000E-05	-2.86825000E-03	 1.85744000E-04
		-1.00506000E-03	-3.12652000E-03	 3.36569000E-03
		 0.00000000E+00	 0.00000000E+00	 0.00000000E+00
		-4.41937000E-06	-7.54728000E-04	 8.36717000E-05
		-3.83800000E-04	-3.33136000E-03	 1.79142000E-03
		-3.82321000E-04	-1.06506000E-03	 1.61334000E-03
		 0.00000000E+00	 0.00000000E+00	 0.00000000E+00
		 1.18218000E-03	-2.47013000E-03	-3.05024000E-03
		 0.00000000E+00	 0.00000000E+00	 0.00000000E+00
		 7.51246000E-04	-3.46050000E-03	-3.08344000E-03
		 0.00000000E+00	 0.00000000E+00	 0.00000000E+00
		 8.15598000E-04	-4.11516000E-04	-1.47969000E-03
		 5.74439000E-04	-2.30631000E-03	-1.47304000E-03
		 0.00000000E+00	 0.00000000E+00	 0.00000000E+00
		 9.63192000E-04	-3.04090000E-03	-2.99933000E-03
		 0.00000000E+00	 0.00000000E+00	 0.00000000E+00
		 3.72014000E-04	-9.95701000E-04	-1.43494000E-03
		 3.72811000E-04	-3.28657000E-03	-1.41879000E-03
		 0.00000000E+00	 0.00000000E+00	 0.00000000E+00
		 0.00000000E+00	 0.00000000E+00	 0.00000000E+00
		 2.74787000E-05	-3.81533000E-03	 1.92047000E-04
		-2.63672000E-04	-4.06577000E-03	 3.42478000E-03
		 0.00000000E+00	 0.00000000E+00	 0.00000000E+00
		 0.00000000E+00	 0.00000000E+00	 0.00000000E+00
		 1.13239000E-05	-3.62358000E-03	 1.89305000E-04
		-5.15952000E-04	-3.87972000E-03	 3.50349000E-03
		 0.00000000E+00	 0.00000000E+00	 0.00000000E+00
		 2.55211000E-05	-9.12937000E-04	 8.96471000E-05
		-1.18438000E-04	-3.86047000E-03	 1.71443000E-03
		 1.47700000E-04	-1.20895000E-03	 1.67029000E-03
		 0.00000000E+00	 0.00000000E+00	 0.00000000E+00
		 3.12333000E-04	-3.97048000E-03	-3.04541000E-03
		 0.00000000E+00	 0.00000000E+00	 0.00000000E+00
		 5.34029000E-04	-3.79292000E-03	-3.13001000E-03
		 0.00000000E+00	 0.00000000E+00	 0.00000000E+00
		-9.97448000E-05	-1.13513000E-03	-1.47984000E-03
		 1.71824000E-04	-3.81312000E-03	-1.33386000E-03
		-3.67152000E-06	-1.17859000E-02	 3.36374000E-04
		-1.69943000E-03	-1.19528000E-02	 6.09678000E-03
		 3.12094000E-05	-1.33687000E-02	 3.45272000E-04
		-1.44874000E-03	-1.35366000E-02	 6.14481000E-03
		-2.56232000E-05	-6.28214000E-03	 2.67120000E-04
		-8.50314000E-04	-1.18453000E-02	 3.15874000E-03
		-1.53414000E-03	-6.51213000E-03	 4.97661000E-03
		 1.28308000E-05	-1.26005000E-02	 3.39460000E-04
		-1.57398000E-03	-1.27670000E-02	 6.09691000E-03
		 5.76855000E-06	-7.59217000E-03	 2.72319000E-04
		-7.03287000E-04	-1.34265000E-02	 3.16207000E-03
		-1.11854000E-03	-7.82915000E-03	 5.01183000E-03
		 1.69658000E-03	-1.18127000E-02	-5.42893000E-03
		 1.50778000E-03	-1.34043000E-02	-5.45799000E-03
		 1.48251000E-03	-6.39923000E-03	-4.44675000E-03
		 8.43889000E-04	-1.17749000E-02	-2.48796000E-03
		 1.60307000E-03	-1.26363000E-02	-5.41992000E-03
		 1.12956000E-03	-7.71728000E-03	-4.47290000E-03
		 7.69977000E-04	-1.33621000E-02	-2.46956000E-03
		 6.36179000E-05	-1.47425000E-02	 3.58596000E-04
		-1.17695000E-03	-1.48890000E-02	 6.11753000E-03
		 4.70169000E-05	-1.40756000E-02	 3.52727000E-04
		-1.31247000E-03	-1.42677000E-02	 6.20266000E-03
		 3.87141000E-05	-8.53205000E-03	 2.82125000E-04
		-5.65938000E-04	-1.47866000E-02	 3.08965000E-03
		-7.00459000E-04	-8.75977000E-03	 4.99064000E-03
		 1.32743000E-03	-1.47733000E-02	-5.40552000E-03
		 1.41710000E-03	-1.41145000E-02	-5.50493000E-03
		 7.85754000E-04	-8.65214000E-03	-4.43121000E-03
		 6.99717000E-04	-1.47321000E-02	-2.36930000E-03
		 7.97409000E-05	-2.44089000E-02	 4.54510000E-04
		-1.99672000E-03	-2.43577000E-02	 6.35003000E-03
		 1.19564000E-04	-2.65262000E-02	 4.84325000E-04
		-2.08285000E-03	-2.65817000E-02	 6.40947000E-03
		 3.34454000E-05	-1.80970000E-02	 3.97585000E-04
		-9.54803000E-04	-2.44018000E-02	 3.37248000E-03
		-1.83245000E-03	-1.81801000E-02	 6.51541000E-03
		 1.00460000E-04	-2.54515000E-02	 4.74099000E-04
		-2.04351000E-03	-2.54662000E-02	 6.33885000E-03
		 6.95708000E-05	-1.99480000E-02	 4.12851000E-04
		-1.00561000E-03	-2.65785000E-02	 3.36232000E-03
		-1.77114000E-03	-2.00396000E-02	 6.57525000E-03
		 2.11927000E-03	-2.42665000E-02	-5.42391000E-03
		 2.31757000E-03	-2.63967000E-02	-5.45793000E-03
		 1.89437000E-03	-1.80408000E-02	-5.72169000E-03
		 1.10185000E-03	-2.43600000E-02	-2.45188000E-03
		 2.21707000E-03	-2.53081000E-02	-5.40223000E-03
		 1.91213000E-03	-1.98859000E-02	-5.75191000E-03
		 1.22025000E-03	-2.64896000E-02	-2.41355000E-03
		 1.53075000E-04	-2.87951000E-02	 5.09383000E-04
		-2.27294000E-03	-2.89784000E-02	 6.40340000E-03
		 1.37289000E-04	-2.76553000E-02	 4.94203000E-04
		-2.17946000E-03	-2.76422000E-02	 6.48957000E-03
		 1.13312000E-04	-2.17744000E-02	 4.29427000E-04
		-1.02577000E-03	-2.89161000E-02	 3.28464000E-03
		-1.73717000E-03	-2.18940000E-02	 6.55156000E-03
		 2.53132000E-03	-2.86982000E-02	-5.42889000E-03
		 2.42431000E-03	-2.75208000E-02	-5.51916000E-03
		 1.92279000E-03	-2.17081000E-02	-5.69729000E-03
		 1.33248000E-03	-2.87819000E-02	-2.31061000E-03
		 2.40499000E-04	-3.47596000E-02	 5.83903000E-04
		-2.13004000E-03	-3.45056000E-02	 4.48453000E-03
		 2.70870000E-04	-3.73891000E-02	 6.47524000E-04
		-2.62276000E-03	-3.75875000E-02	 4.55559000E-03
		 1.19657000E-04	-3.00958000E-02	 5.17851000E-04
		-9.45788000E-04	-3.46842000E-02	 2.52208000E-03
		-2.12415000E-03	-3.00310000E-02	 5.58767000E-03
		 2.56752000E-04	-3.59877000E-02	 6.17009000E-04
		-2.36703000E-03	-3.59057000E-02	 4.52333000E-03
		 1.51140000E-04	-3.25310000E-02	 5.19473000E-04
		-1.05304000E-03	-3.75271000E-02	 2.58993000E-03
		-2.43955000E-03	-3.24099000E-02	 5.69169000E-03
		 2.44601000E-03	-3.45272000E-02	-3.31477000E-03
		 2.87177000E-03	-3.70024000E-02	-3.25795000E-03
		 2.33949000E-03	-2.98990000E-02	-4.54580000E-03
		 1.34242000E-03	-3.47015000E-02	-1.35340000E-03
		 2.66239000E-03	-3.57078000E-02	-3.28717000E-03
		 2.67434000E-03	-3.22950000E-02	-4.54591000E-03
		 1.55890000E-03	-3.72266000E-02	-1.29451000E-03
		 1.60643000E-04	-4.04424000E-02	 7.01494000E-04
		-2.98488000E-03	-4.10041000E-02	 4.60231000E-03
		 2.18111000E-04	-3.88269000E-02	 6.75365000E-04
		-2.80259000E-03	-3.97270000E-02	 4.58483000E-03
		 1.57259000E-04	-3.52666000E-02	 4.88261000E-04
		-1.52886000E-03	-4.07464000E-02	 2.63502000E-03
		-2.60946000E-03	-3.50398000E-02	 5.69186000E-03
		 3.31350000E-03	-3.99061000E-02	-3.19590000E-03