<?xml version="1.0"?>
<VTKFile type="UnstructuredGrid" version="0.1" byte_order="LittleEndian">
	<UnstructuredGrid>
		<Piece NumberOfPoints="522" NumberOfCells="64">
			<Points>
				<DataArray type="Float64" NumberOfComponents="3" format="ascii">
					 1.00000000E+00	 1.00000000E+00	-5.96046000E-08
					 1.00000000E+00	 5.00000000E-01	-5.96046000E-08
					 1.00000000E+00	 5.00000000E-01	 1.00000000E+00
					 1.00000000E+00	 1.00000000E+00	 1.00000000E+00
					 5.00000000E-01	 1.00000000E+00	-5.96046000E-08
					 5.00000000E-01	 5.00000000E-01	-5.96046000E-08
					 5.00000000E-01	 5.00000000E-01	 1.00000000E+00
					 5.00000000E-01	 1.00000000E+00	 1.00000000E+00
					 1.00000000E+00	 7.50000000E-01	-5.96046000E-08
					 1.00000000E+00	 5.00000000E-01	 5.00000000E-01
					 1.00000000E+00	 7.50000000E-01	 1.00000000E+00
					 1.00000000E+00	 1.00000000E+00	 5.00000000E-01
					 7.50000000E-01	 1.00000000E+00	-5.96046000E-08
					 7.50000000E-01	 5.00000000E-01	-5.96046000E-08
					 7.50000000E-01	 5.00000000E-01	 1.00000000E+00
					 7.50000000E-01	 1.00000000E+00	 1.00000000E+00
					 5.00000000E-01	 7.50000000E-01	-5.96046000E-08
					 5.00000000E-01	 5.00000000E-01	 5.00000000E-01
					 5.00000000E-01	 7.50000000E-01	 1.00000000E+00
					 5.00000000E-01	 1.00000000E+00	 5.00000000E-01
					 1.00000000E+00	-1.49012000E-08	-5.96046000E-08
					 1.00000000E+00	-1.49012000E-08	 1.00000000E+00
					 5.00000000E-01	-1.49012000E-08	-5.96046000E-08
					 5.00000000E-01	-1.49012000E-08	 1.00000000E+00
					 1.00000000E+00	 2.50000000E-01	-5.96046000E-08
					 1.00000000E+00	-1.49012000E-08	 5.00000000E-01
					 1.00000000E+00	 2.50000000E-01	 1.00000000E+00
					 7.50000000E-01	-1.49012000E-08	-5.96046000E-08
					 7.50000000E-01	-1.49012000E-08	 1.00000000E+00
					 5.00000000E-01	 2.50000000E-01	-5.96046000E-08
					 5.00000000E-01	-1.49012000E-08	 5.00000000E-01
					 5.00000000E-01	 2.50000000E-01	 1.00000000E+00
					-7.45058000E-09	 1.00000000E+00	-5.96046000E-08
					-7.45058000E-09	 5.00000000E-01	-5.96046000E-08
					-7.45058000E-09	 5.00000000E-01	 1.00000000E+00
					-7.45058000E-09	 1.00000000E+00	 1.00000000E+00
					 2.50000000E-01	 1.00000000E+00	-5.96046000E-08
					 2.50000000E-01	 5.00000000E-01	-5.96046000E-08
					 2.50000000E-01	 5.00000000E-01	 1.00000000E+00
					 2.50000000E-01	 1.00000000E+00	 1.00000000E+00
					-7.45058000E-09	 7.50000000E-01	-5.96046000E-08
					-7.45058000E-09	 5.00000000E-01	 5.00000000E-01
					-7.45058000E-09	 7.50000000E-01	 1.00000000E+00
					-7.45058000E-09	 1.00000000E+00	 5.00000000E-01
					-7.45058000E-09	-1.49012000E-08	-5.96046000E-08
					-7.45058000E-09	-1.49012000E-08	 1.00000000E+00
					 2.50000000E-01	-1.49012000E-08	-5.96046000E-08
					 2.50000000E-01	-1.49012000E-08	 1.00000000E+00
					-7.45058000E-09	 2.50000000E-01	-5.96046000E-08
					-7.45058000E-09	-1.49012000E-08	 5.00000000E-01
					-7.45058000E-09	 2.50000000E-01	 1.00000000E+00
					 1.00000000E+00	 5.00000000E-01	 2.00000000E+00
					 1.00000000E+00	 1.00000000E+00	 2.00000000E+00
					 5.00000000E-01	 5.00000000E-01	 2.00000000E+00
					 5.00000000E-01	 1.00000000E+00	 2.00000000E+00
					 1.00000000E+00	 5.00000000E-01	 1.50000000E+00
					 1.00000000E+00	 7.50000000E-01	 2.00000000E+00
					 1.00000000E+00	 1.00000000E+00	 1.50000000E+00
					 7.50000000E-01	 5.00000000E-01	 2.00000000E+00
					 7.50000000E-01	 1.00000000E+00	 2.00000000E+00
					 5.00000000E-01	 5.00000000E-01	 1.50000000E+00
					 5.00000000E-01	 7.50000000E-01	 2.00000000E+00
					 5.00000000E-01	 1.00000000E+00	 1.50000000E+00
					 1.00000000E+00	-1.49012000E-08	 2.00000000E+00
					 5.00000000E-01	-1.49012000E-08	 2.00000000E+00
					 1.00000000E+00	-1.49012000E-08	 1.50000000E+00
					 1.00000000E+00	 2.50000000E-01	 2.00000000E+00
					 7.50000000E-01	-1.49012000E-08	 2.00000000E+00
					 5.00000000E-01	-1.49012000E-08	 1.50000000E+00
					 5.00000000E-01	 2.50000000E-01	 2.00000000E+00
					-7.45058000E-09	 5.00000000E-01	 2.00000000E+00
					-7.45058000E-09	 1.00000000E+00	 2.00000000E+00
					 2.50000000E-01	 5.00000000E-01	 2.00000000E+00
					 2.50000000E-01	 1.00000000E+00	 2.00000000E+00
					-7.45058000E-09	 5.00000000E-01	 1.50000000E+00
					-7.45058000E-09	 7.50000000E-01	 2.00000000E+00
					-7.45058000E-09	 1.00000000E+00	 1.50000000E+00
					-7.45058000E-09	-1.49012000E-08	 2.00000000E+00
					 2.50000000E-01	-1.49012000E-08	 2.00000000E+00
					-7.45058000E-09	-1.49012000E-08	 1.50000000E+00
					-7.45058000E-09	 2.50000000E-01	 2.00000000E+00
					 1.00000000E+00	 5.00000000E-01	 3.00000000E+00
					 1.00000000E+00	 1.00000000E+00	 3.00000000E+00
					 5.00000000E-01	 5.00000000E-01	 3.00000000E+00
					 5.00000000E-01	 1.00000000E+00	 3.00000000E+00
					 1.00000000E+00	 5.00000000E-01	 2.50000000E+00
					 1.00000000E+00	 7.50000000E-01	 3.00000000E+00
					 1.00000000E+00	 1.00000000E+00	 2.50000000E+00
					 7.50000000E-01	 5.00000000E-01	 3.00000000E+00
					 7.50000000E-01	 1.00000000E+00	 3.00000000E+00
					 5.00000000E-01	 5.00000000E-01	 2.50000000E+00
					 5.00000000E-01	 7.50000000E-01	 3.00000000E+00
					 5.00000000E-01	 1.00000000E+00	 2.50000000E+00
					 1.00000000E+00	-1.49012000E-08	 3.00000000E+00
					 5.00000000E-01	-1.49012000E-08	 3.00000000E+00
					 1.00000000E+00	-1.49012000E-08	 2.50000000E+00
					 1.00000000E+00	 2.50000000E-01	 3.00000000E+00
					 7.50000000E-01	-1.49012000E-08	 3.00000000E+00
					 5.00000000E-01	-1.49012000E-08	 2.50000000E+00
					 5.00000000E-01	 2.50000000E-01	 3.00000000E+00
					-7.45058000E-09	 5.00000000E-01	 3.00000000E+00
					-7.45058000E-09	 1.00000000E+00	 3.00000000E+00
					 2.50000000E-01	 5.00000000E-01	 3.00000000E+00
					 2.50000000E-01	 1.00000000E+00	 3.00000000E+00
					-7.45058000E-09	 5.00000000E-01	 2.50000000E+00
					-7.45058000E-09	 7.50000000E-01	 3.00000000E+00
					-7.45058000E-09	 1.00000000E+00	 2.50000000E+00
					-7.45058000E-09	-1.49012000E-08	 3.00000000E+00
					 2.50000000E-01	-1.49012000E-08	 3.00000000E+00
					-7.45058000E-09	-1.49012000E-08	 2.50000000E+00
					-7.45058000E-09	 2.50000000E-01	 3.00000000E+00
					 1.00000000E+00	 5.00000000E-01	 4.00000000E+00
					 1.00000000E+00	 1.00000000E+00	 4.00000000E+00
					 5.00000000E-01	 5.00000000E-01	 4.00000000E+00
					 5.00000000E-01	 1.00000000E+00	 4.00000000E+00
					 1.00000000E+00	 5.00000000E-01	 3.50000000E+00
					 1.00000000E+00	 7.50000000E-01	 4.00000000E+00
					 1.00000000E+00	 1.00000000E+00	 3.50000000E+00
					 7.50000000E-01	 5.00000000E-01	 4.00000000E+00
					 7.50000000E-01	 1.00000000E+00	 4.00000000E+00
					 5.00000000E-01	 5.00000000E-01	 3.50000000E+00
					 5.00000000E-01	 7.50000000E-01	 4.00000000E+00
					 5.00000000E-01	 1.00000000E+00	 3.50000000E+00
					 1.00000000E+00	-1.49012000E-08	 4.00000000E+00
					 5.00000000E-01	-1.49012000E-08	 4.00000000E+00
					 1.00000000E+00	-1.49012000E-08	 3.50000000E+00
					 1.00000000E+00	 2.50000000E-01	 4.00000000E+00
					 7.50000000E-01	-1.49012000E-08	 4.00000000E+00
					 5.00000000E-01	-1.49012000E-08	 3.50000000E+00
					 5.00000000E-01	 2.50000000E-01	 4.00000000E+00
					-7.45058000E-09	 5.00000000E-01	 4.00000000E+00
					-7.45058000E-09	 1.00000000E+00	 4.00000000E+00
					 2.50000000E-01	 5.00000000E-01	 4.00000000E+00
					 2.50000000E-01	 1.00000000E+00	 4.00000000E+00
					-7.45058000E-09	 5.00000000E-01	 3.50000000E+00
					-7.45058000E-09	 7.50000000E-01	 4.00000000E+00
					-7.45058000E-09	 1.00000000E+00	 3.50000000E+00
					-7.45058000E-09	-1.49012000E-08	 4.00000000E+00
					 2.50000000E-01	-1.49012000E-08	 4.00000000E+00
					-7.45058000E-09	-1.49012000E-08	 3.50000000E+00
					-7.45058000E-09	 2.50000000E-01	 4.00000000E+00
					 1.00000000E+00	 5.00000000E-01	 5.00000000E+00
					 1.00000000E+00	 1.00000000E+00	 5.00000000E+00
					 5.00000000E-01	 5.00000000E-01	 5.00000000E+00
					 5.00000000E-01	 1.00000000E+00	 5.00000000E+00
					 1.00000000E+00	 5.00000000E-01	 4.50000000E+00
					 1.00000000E+00	 7.50000000E-01	 5.00000000E+00
					 1.00000000E+00	 1.00000000E+00	 4.50000000E+00
					 7.50000000E-01	 5.00000000E-01	 5.00000000E+00
					 7.50000000E-01	 1.00000000E+00	 5.00000000E+00
					 5.00000000E-01	 5.00000000E-01	 4.50000000E+00
					 5.00000000E-01	 7.50000000E-01	 5.00000000E+00
					 5.00000000E-01	 1.00000000E+00	 4.50000000E+00
					 1.00000000E+00	-1.49012000E-08	 5.00000000E+00
					 5.00000000E-01	-1.49012000E-08	 5.00000000E+00
					 1.00000000E+00	-1.49012000E-08	 4.50000000E+00
					 1.00000000E+00	 2.50000000E-01	 5.00000000E+00
					 7.50000000E-01	-1.49012000E-08	 5.00000000E+00
					 5.00000000E-01	-1.49012000E-08	 4.50000000E+00
					 5.00000000E-01	 2.50000000E-01	 5.00000000E+00
					-7.45058000E-09	 5.00000000E-01	 5.00000000E+00
					-7.45058000E-09	 1.00000000E+00	 5.00000000E+00
					 2.50000000E-01	 5.00000000E-01	 5.00000000E+00
					 2.50000000E-01	 1.00000000E+00	 5.00000000E+00
					-7.45058000E-09	 5.00000000E-01	 4.50000000E+00
					-7.45058000E-09	 7.50000000E-01	 5.00000000E+00
					-7.45058000E-09	 1.00000000E+00	 4.50000000E+00
					-7.45058000E-09	-1.49012000E-08	 5.00000000E+00
					 2.50000000E-01	-1.49012000E-08	 5.00000000E+00
					-7.45058000E-09	-1.49012000E-08	 4.50000000E+00
					-7.45058000E-09	 2.50000000E-01	 5.00000000E+00
					 1.00000000E+00	 5.00000000E-01	 6.00000000E+00
					 1.00000000E+00	 1.00000000E+00	 6.00000000E+00
					 5.00000000E-01	 5.00000000E-01	 6.00000000E+00
					 5.00000000E-01	 1.00000000E+00	 6.00000000E+00
					 1.00000000E+00	 5.00000000E-01	 5.50000000E+00
					 1.00000000E+00	 7.50000000E-01	 6.00000000E+00
					 1.00000000E+00	 1.00000000E+00	 5.50000000E+00
					 7.50000000E-01	 5.00000000E-01	 6.00000000E+00
					 7.50000000E-01	 1.00000000E+00	 6.00000000E+00
					 5.00000000E-01	 5.00000000E-01	 5.50000000E+00
					 5.00000000E-01	 7.50000000E-01	 6.00000000E+00
					 5.00000000E-01	 1.00000000E+00	 5.50000000E+00
					 1.00000000E+00	-1.49012000E-08	 6.00000000E+00
[...]
			<PointData>
				<DataArray type="Float32" Name="U" NumberOfComponents="3" ComponentName0="D1" ComponentName1="D2" ComponentName2="D3" format="ascii">
					 0.00000000E+00	 0.00000000E+00	 0.00000000E+00
					 0.00000000E+00	 0.00000000E+00	 0.00000000E+00
					-8.69764000E-06	-5.30770000E-03	 3.32275000E-05
					 8.95805000E-04	-5.55856000E-03	 3.43796000E-03
					 0.00000000E+00	 0.00000000E+00	 0.00000000E+00
					 0.00000000E+00	 0.00000000E+00	 0.00000000E+00
					 4.32169000E-07	-4.21657000E-03	 3.01270000E-06
					 1.28739000E-03	-4.40903000E-03	 3.47824000E-03
					 0.00000000E+00	 0.00000000E+00	 0.00000000E+00
					 2.57666000E-05	-1.64435000E-03	 3.16081000E-05
					 4.09928000E-04	-5.34921000E-03	 1.58216000E-03
					 1.88415000E-04	-1.96445000E-03	 1.77670000E-03
					 0.00000000E+00	 0.00000000E+00	 0.00000000E+00
					 0.00000000E+00	 0.00000000E+00	 0.00000000E+00
					-1.00114000E-05	-4.82624000E-03	 1.36979000E-06
					 1.08981000E-03	-5.00860000E-03	 3.57484000E-03
					 0.00000000E+00	 0.00000000E+00	 0.00000000E+00
					 7.45059000E-06	-1.17303000E-03	-1.85098000E-06
					 6.46243000E-04	-4.23121000E-03	 1.67809000E-03
					 6.95501000E-04	-1.48511000E-03	 1.75803000E-03
					 0.00000000E+00	 0.00000000E+00	 0.00000000E+00
					-9.74408000E-04	-5.57936000E-03	-3.52282000E-03
					 0.00000000E+00	 0.00000000E+00	 0.00000000E+00
					-1.33397000E-03	-4.34233000E-03	-3.50843000E-03
					 0.00000000E+00	 0.00000000E+00	 0.00000000E+00
					-1.63523000E-04	-1.92118000E-03	-1.81874000E-03
					-4.51213000E-04	-5.34256000E-03	-1.61413000E-03
					 0.00000000E+00	 0.00000000E+00	 0.00000000E+00
					-1.13958000E-03	-4.98694000E-03	-3.58641000E-03
					 0.00000000E+00	 0.00000000E+00	 0.00000000E+00
					-6.63455000E-04	-1.48911000E-03	-1.77531000E-03
					-6.62608000E-04	-4.19977000E-03	-1.72132000E-03
					 0.00000000E+00	 0.00000000E+00	 0.00000000E+00
					 0.00000000E+00	 0.00000000E+00	 0.00000000E+00
					-6.37293000E-06	-2.66196000E-03	-5.76092000E-05
					 1.80094000E-03	-2.82830000E-03	 3.42439000E-03
					 0.00000000E+00	 0.00000000E+00	 0.00000000E+00
					 0.00000000E+00	 0.00000000E+00	 0.00000000E+00
					-3.88466000E-06	-3.54051000E-03	-3.09939000E-05
					 1.52453000E-03	-3.70369000E-03	 3.38026000E-03
					 0.00000000E+00	 0.00000000E+00	 0.00000000E+00
					 1.63679000E-05	-3.04446000E-04	-2.14050000E-05
					 8.84819000E-04	-2.67740000E-03	 1.69708000E-03
					 1.21150000E-03	-5.81701000E-04	 1.81080000E-03
					 0.00000000E+00	 0.00000000E+00	 0.00000000E+00
					-1.76565000E-03	-2.86947000E-03	-3.54450000E-03
					 0.00000000E+00	 0.00000000E+00	 0.00000000E+00
					-1.54061000E-03	-3.68445000E-03	-3.43451000E-03
					 0.00000000E+00	 0.00000000E+00	 0.00000000E+00
					-1.15633000E-03	-6.25361000E-04	-1.85632000E-03
					-8.83625000E-04	-2.68125000E-03	-1.80276000E-03
					 3.95192000E-05	-1.55790000E-02	-1.86140000E-04
					 1.35586000E-03	-1.59174000E-02	 5.91085000E-03
					 4.49683000E-05	-1.42145000E-02	-1.54894000E-04
					 1.67039000E-03	-1.43092000E-02	 5.92668000E-03
					 3.46572000E-05	-9.91207000E-03	-7.11203000E-05
					 6.53233000E-04	-1.57051000E-02	 2.86471000E-03
					 1.24604000E-03	-1.01366000E-02	 4.74642000E-03
					 3.85454000E-05	-1.49580000E-02	-1.45434000E-04
					 1.51376000E-03	-1.51470000E-02	 5.89009000E-03
					 9.13382000E-06	-8.52638000E-03	-5.29343000E-05
					 8.39465000E-04	-1.42234000E-02	 2.84247000E-03
					 1.56782000E-03	-8.77598000E-03	 4.78244000E-03
					-1.25113000E-03	-1.58597000E-02	-6.12401000E-03
					-1.63722000E-03	-1.42870000E-02	-6.20974000E-03
					-1.26820000E-03	-1.01907000E-02	-4.95806000E-03
					-5.81985000E-04	-1.56958000E-02	-3.14670000E-03
					-1.42997000E-03	-1.50654000E-02	-6.13960000E-03
					-1.58244000E-03	-8.75136000E-03	-4.92158000E-03
					-7.87900000E-04	-1.42166000E-02	-3.15430000E-03
					 3.44353000E-05	-1.23447000E-02	-8.75697000E-05
					 2.03772000E-03	-1.25411000E-02	 5.86809000E-03
					 5.02267000E-05	-1.33272000E-02	-1.19734000E-04
					 1.85283000E-03	-1.34960000E-02	 5.94017000E-03
					-3.04453000E-05	-6.78106000E-03	-6.96189000E-05
					 1.02382000E-03	-1.24121000E-02	 2.86515000E-03
					 1.98627000E-03	-6.99675000E-03	 4.78841000E-03
					-2.05312000E-03	-1.24254000E-02	-6.13593000E-03
					-1.84957000E-03	-1.34021000E-02	-6.20024000E-03
					-1.98499000E-03	-6.91772000E-03	-4.91684000E-03
					-1.00560000E-03	-1.23576000E-02	-3.07094000E-03
					 7.22974000E-06	-2.99788000E-02	-2.23972000E-04
					 1.39076000E-03	-3.02312000E-02	 7.49503000E-03
					 1.13210000E-05	-2.86123000E-02	-2.09755000E-04
					 1.44561000E-03	-2.87329000E-02	 7.48312000E-03
					 1.57014000E-05	-2.23937000E-02	-2.16880000E-04
					 6.61244000E-04	-3.00792000E-02	 3.60932000E-03
					 1.37581000E-03	-2.26477000E-02	 6.85951000E-03
					 5.17382000E-06	-2.92734000E-02	-2.34308000E-04
					 1.40299000E-03	-2.94337000E-02	 7.49970000E-03
					 5.81371000E-06	-2.09522000E-02	-1.72833000E-04
					 7.33892000E-04	-2.86453000E-02	 3.63740000E-03
					 1.55488000E-03	-2.11573000E-02	 6.85007000E-03
					-1.15337000E-03	-2.99021000E-02	-8.02206000E-03
					-1.41250000E-03	-2.86161000E-02	-7.95013000E-03
					-1.28571000E-03	-2.24370000E-02	-7.20070000E-03
					-6.07865000E-04	-2.98978000E-02	-4.10348000E-03
					-1.28201000E-03	-2.93194000E-02	-7.98300000E-03
					-1.52781000E-03	-2.10497000E-02	-7.21506000E-03
					-6.90956000E-04	-2.85982000E-02	-4.05716000E-03
					 5.93409000E-05	-2.71031000E-02	-2.06713000E-04
					 1.57383000E-03	-2.73368000E-02	 7.59308000E-03
					 3.90589000E-05	-2.78797000E-02	-2.30217000E-04
					 1.50691000E-03	-2.80079000E-02	 7.54511000E-03
					 1.47770000E-05	-1.93350000E-02	-1.61486000E-04
					 8.66073000E-04	-2.71858000E-02	 3.63021000E-03
					 1.74065000E-03	-1.95377000E-02	 6.82666000E-03
					-1.58594000E-03	-2.70871000E-02	-7.93354000E-03
					-1.49836000E-03	-2.78758000E-02	-7.96496000E-03
					-1.75047000E-03	-1.93879000E-02	-7.15467000E-03
					-7.64541000E-04	-2.70545000E-02	-4.01459000E-03
					 9.83859000E-05	-4.59450000E-02	-3.85535000E-04
					 6.18536000E-04	-4.60375000E-02	 8.54999000E-03
					 5.94702000E-05	-4.52012000E-02	-3.95677000E-04
					 9.36262000E-04	-4.53870000E-02	 8.55248000E-03
					 6.40526000E-05	-3.76764000E-02	-2.76706000E-04
					 4.11188000E-04	-4.59758000E-02	 4.11135000E-03
					 1.04248000E-03	-3.78414000E-02	 7.97765000E-03
					 6.96527000E-05	-4.56129000E-02	-3.86434000E-04
					 8.00447000E-04	-4.58138000E-02	 8.51116000E-03
					 7.28720000E-05	-3.66176000E-02	-2.82734000E-04
					 4.86045000E-04	-4.52676000E-02	 4.08291000E-03
					 1.22012000E-03	-3.67425000E-02	 8.00453000E-03
					-6.05124000E-04	-4.60277000E-02	-9.29001000E-03
					-7.97646000E-04	-4.52971000E-02	-9.34267000E-03
					-9.03425000E-04	-3.77118000E-02	-8.62324000E-03
					-2.40264000E-04	-4.59641000E-02	-4.93662000E-03
					-6.98980000E-04	-4.56595000E-02	-9.29373000E-03
					-1.07200000E-03	-3.66519000E-02	-8.62182000E-03
					-3.69923000E-04	-4.52214000E-02	-4.87851000E-03
					 1.91416000E-05	-4.42196000E-02	-4.12457000E-04
					 1.14024000E-03	-4.43725000E-02	 8.49719000E-03
					 4.75480000E-05	-4.47307000E-02	-3.99201000E-04
					 1.03384000E-03	-4.49133000E-02	 8.54080000E-03
					 5.77112000E-05	-3.53671000E-02	-2.65432000E-04
					 5.62410000E-04	-4.42771000E-02	 4.06587000E-03
					 1.38873000E-03	-3.55842000E-02	 8.04761000E-03
					-8.81950000E-04	-4.43874000E-02	-9.34600000E-03
					-8.60594000E-04	-4.48018000E-02	-9.38666000E-03
					-1.21752000E-03	-3.54400000E-02	-8.61771000E-03
					-4.67737000E-04	-4.42778000E-02	-4.85766000E-03
					 5.90170000E-05	-6.52729000E-02	-7.27488000E-04
					 7.65747000E-04	-6.56608000E-02	 9.68040000E-03
					 7.71939000E-05	-6.46457000E-02	-6.97257000E-04
					 9.21810000E-04	-6.48492000E-02	 9.75820000E-03
					 8.37110000E-05	-5.52209000E-02	-5.75725000E-04
					 3.94052000E-04	-6.54375000E-02	 4.44851000E-03
					 5.74136000E-04	-5.53697000E-02	 9.13904000E-03
					 7.20395000E-05	-6.50046000E-02	-6.96160000E-04
					 8.28365000E-04	-6.52675000E-02	 9.73831000E-03
					 4.32225000E-05	-5.45274000E-02	-5.61034000E-04
					 4.97879000E-04	-6.47298000E-02	 4.52033000E-03
					 8.40627000E-04	-5.47084000E-02	 9.17661000E-03
					-3.79476000E-04	-6.51705000E-02	-1.11919000E-02
					-6.93469000E-04	-6.46170000E-02	-1.11269000E-02
					-4.73155000E-04	-5.52276000E-02	-1.02366000E-02
					-1.95441000E-04	-6.51985000E-02	-5.89277000E-03
					-5.51371000E-04	-6.49743000E-02	-1.11694000E-02
					-7.27308000E-04	-5.45745000E-02	-1.02124000E-02
					-2.98602000E-04	-6.46063000E-02	-5.89175000E-03
					 7.84660000E-05	-6.37202000E-02	-5.74818000E-04
					 1.03437000E-03	-6.39822000E-02	 9.84642000E-03
					 6.90046000E-05	-6.42149000E-02	-6.18693000E-04
					 9.94142000E-04	-6.44335000E-02	 9.79110000E-03
					 4.40206000E-05	-5.36250000E-02	-5.15340000E-04
					 5.92535000E-04	-6.38061000E-02	 4.59525000E-03
					 1.05582000E-03	-5.37983000E-02	 9.21209000E-03
					-1.03295000E-03	-6.36457000E-02	-1.10248000E-02
					-8.60889000E-04	-6.41911000E-02	-1.10703000E-02
					-9.55524000E-04	-5.36331000E-02	-1.01766000E-02
					-4.49876000E-04	-6.36622000E-02	-5.80068000E-03
					 1.10254000E-04	-8.82558000E-02	-9.59399000E-04
					 1.27573000E-03	-8.83871000E-02	 1.04512000E-02
					 1.05570000E-04	-8.70187000E-02	-9.22997000E-04
					 1.37737000E-03	-8.71280000E-02	 1.05825000E-02
					 1.19732000E-04	-7.65686000E-02	-8.33494000E-04
					 7.08873000E-04	-8.83052000E-02	 4.72474000E-03
					 1.05584000E-03	-7.67800000E-02	 1.02000000E-02
					 1.11128000E-04	-8.76132000E-02	-9.40412000E-04
					 1.32536000E-03	-8.77673000E-02	 1.05290000E-02
					 1.23148000E-04	-7.55638000E-02	-7.98257000E-04
					 7.35448000E-04	-8.70585000E-02	 4.81727000E-03
					 1.20982000E-03	-7.57819000E-02	 1.02504000E-02
					-1.16163000E-03	-8.82664000E-02	-1.24384000E-02
					-1.14274000E-03	-8.69107000E-02	-1.23535000E-02
					-7.59194000E-04	-7.65283000E-02	-1.19006000E-02
					-4.83619000E-04	-8.82384000E-02	-6.66032000E-03
					-1.14866000E-03	-8.75617000E-02	-1.24354000E-02
					-9.33263000E-04	-7.54769000E-02	-1.18613000E-02
					-5.09828000E-04	-8.69529000E-02	-6.62381000E-03
					 1.24089000E-04	-8.57010000E-02	-9.10548000E-04
					 1.59631000E-03	-8.57810000E-02	 1.05318000E-02
					 1.12822000E-04	-8.63760000E-02	-9.15413000E-04
					 1.46447000E-03	-8.64962000E-02	 1.05566000E-02
					 9.80200000E-05	-7.44604000E-02	-7.46225000E-04
					 8.48127000E-04	-8.57327000E-02	 4.83238000E-03
					 1.34754000E-03	-7.46421000E-02	 1.02622000E-02
					-1.20095000E-03	-8.56650000E-02	-1.23546000E-02
					-1.16650000E-03	-8.62816000E-02	-1.23479000E-02
					-1.06754000E-03	-7.44591000E-02	-1.17649000E-02
					-5.53126000E-04	-8.56614000E-02	-6.62883000E-03
					 2.08696000E-04	-1.11553000E-01	-1.19822000E-03
					 1.00923000E-03	-1.11940000E-01	 1.08437000E-02
					 1.69264000E-04	-1.10726000E-01	-1.20044000E-03
					 1.10583000E-03	-1.10920000E-01	 1.08633000E-02
					 1.01762000E-04	-9.97945000E-02	-1.09430000E-03
					 5.39937000E-04	-1.11728000E-01	 4.84177000E-03
					 1.26567000E-03	-1.00022000E-01	 1.06937000E-02
					 1.90443000E-04	-1.11197000E-01	-1.23726000E-03
					 1.04043000E-03	-1.11395000E-01	 1.08360000E-02
					 1.18388000E-04	-9.86720000E-02	-1.06110000E-03
					 6.25430000E-04	-1.10797000E-01	 4.85221000E-03
					 1.30566000E-03	-9.88823000E-02	 1.07000000E-02
					-6.86792000E-04	-1.11540000E-01	-1.33621000E-02
					-8.33971000E-04	-1.10514000E-01	-1.33537000E-02
					-9.34356000E-04	-9.97272000E-02	-1.29066000E-02
					-2.01886000E-04	-1.11524000E-01	-7.30202000E-03
					-7.44783000E-04	-1.11048000E-01	-1.33016000E-02
					-1.04904000E-03	-9.85565000E-02	-1.28606000E-02
					-3.06419000E-04	-1.10636000E-01	-7.23522000E-03
					 1.78653000E-04	-1.09690000E-01	-1.05509000E-03
					 1.38208000E-03	-1.09792000E-01	 1.10849000E-02
					 1.78550000E-04	-1.10205000E-01	-1.13762000E-03
					 1.24635000E-03	-1.10377000E-01	 1.10464000E-02
					 1.43759000E-04	-9.74604000E-02	-9.58594000E-04
					 7.26901000E-04	-1.09735000E-01	 4.93357000E-03
					 1.39759000E-03	-9.76348000E-02	 1.08278000E-02
					-9.08626000E-04	-1.09582000E-01	-1.32175000E-02
					-8.88907000E-04	-1.10069000E-01	-1.33206000E-02
					-1.13237000E-03	-9.73571000E-02	-1.28203000E-02
					-3.76577000E-04	-1.09622000E-01	-7.10899000E-03
					 6.32079000E-04	-1.35774000E-01	-2.11008000E-03
					 2.77080000E-04	-1.36105000E-01	 1.13309000E-02
					 1.80074000E-04	-1.35443000E-01	-1.41704000E-03
					 6.61927000E-04	-1.35866000E-01	 1.12176000E-02
					 1.13551000E-04	-1.23586000E-01	-1.45602000E-03
					 6.13620000E-04	-1.35927000E-01	 4.56541000E-03
					 6.47252000E-04	-1.23629000E-01	 1.09859000E-02
					 3.91218000E-04	-1.35587000E-01	-1.62521000E-03
					 4.89343000E-04	-1.36091000E-01	 1.11008000E-02
					 1.39781000E-04	-1.22981000E-01	-1.36466000E-03
					 4.82413000E-04	-1.35699000E-01	 4.81325000E-03
					 7.56912000E-04	-1.23153000E-01	 1.11801000E-02
					-5.85144000E-04	-1.35367000E-01	-1.31283000E-02
					-4.14168000E-04	-1.35100000E-01	-1.38608000E-02
					-5.57671000E-04	-1.23651000E-01	-1.35333000E-02
					 4.14558000E-05	-1.35621000E-01	-7.72635000E-03
					-4.75239000E-04	-1.35105000E-01	-1.34739000E-02
					-4.43574000E-04	-1.22887000E-01	-1.36137000E-02
					-1.72916000E-04	-1.35224000E-01	-7.70018000E-03
					-7.87466000E-05	-1.35355000E-01	-1.63270000E-03
					 9.60060000E-04	-1.35780000E-01	 1.19991000E-02
					 3.62058000E-05	-1.35464000E-01	-1.42764000E-03
					 7.95316000E-04	-1.35845000E-01	 1.15183000E-02
					 1.98001000E-04	-1.22289000E-01	-1.30012000E-03
					 4.89151000E-04	-1.35498000E-01	 5.07246000E-03
					 9.01040000E-04	-1.22502000E-01	 1.13897000E-02
					-3.97691000E-04	-1.35228000E-01	-1.41054000E-02
					-3.81705000E-04	-1.35118000E-01	-1.40175000E-02
					-5.08104000E-04	-1.22288000E-01	-1.37476000E-02
					-2.95092000E-04	-1.35282000E-01	-7.82088000E-03
					 0.00000000E+00	 0.00000000E+00	 0.00000000E+00
					 0.00000000E+00	 0.00000000E+00	 0.00000000E+00
					 2.18900000E-06	-4.02847000E-03	 3.38856000E-04
					-4.36220000E-03	-4.44908000E-03	 7.21887000E-03
					 0.00000000E+00	 0.00000000E+00	 0.00000000E+00
					 0.00000000E+00	 0.00000000E+00	 0.00000000E+00
					 3.04798000E-05	-7.70046000E-03	 2.08196000E-04
					-3.21980000E-03	-8.33449000E-03	 7.36068000E-03
					 0.00000000E+00	 0.00000000E+00	 0.00000000E+00
					-1.99690000E-05	 6.82100000E-05	 1.34099000E-04
					-2.10324000E-03	-4.12378000E-03	 3.95488000E-03
					-2.73367000E-03	-6.21709000E-04	 3.67425000E-03
					 0.00000000E+00	 0.00000000E+00	 0.00000000E+00
					 0.00000000E+00	 0.00000000E+00	 0.00000000E+00
					 9.14024000E-06	-6.02393000E-03	 2.78368000E-04
					-3.75623000E-03	-6.61456000E-03	 7.01483000E-03
					 0.00000000E+00	 0.00000000E+00	 0.00000000E+00
					 1.93460000E-05	-2.07057000E-03	 1.14932000E-04
					-1.60624000E-03	-7.85051000E-03	 3.67780000E-03
					-1.59442000E-03	-2.68904000E-03	 3.54815000E-03
					 0.00000000E+00	 0.00000000E+00	 0.00000000E+00
					 4.28300000E-03	-4.07282000E-03	-6.65196000E-03
					 0.00000000E+00	 0.00000000E+00	 0.00000000E+00
					 3.31374000E-03	-8.05254000E-03	-6.82602000E-03
					 0.00000000E+00	 0.00000000E+00	 0.00000000E+00
					 2.64882000E-03	-4.57024000E-04	-3.35267000E-03
					 2.09612000E-03	-3.89459000E-03	-3.37166000E-03
					 0.00000000E+00	 0.00000000E+00	 0.00000000E+00
					 3.78498000E-03	-6.30971000E-03	-6.46773000E-03
					 0.00000000E+00	 0.00000000E+00	 0.00000000E+00
					 1.65639000E-03	-2.54593000E-03	-3.29363000E-03
					 1.66779000E-03	-7.71503000E-03	-3.22620000E-03
					 0.00000000E+00	 0.00000000E+00	 0.00000000E+00
					 0.00000000E+00	 0.00000000E+00	 0.00000000E+00
					 8.43680000E-05	-1.05799000E-02	 1.71971000E-04
					-2.27625000E-03	-1.09654000E-02	 7.12528000E-03
					 0.00000000E+00	 0.00000000E+00	 0.00000000E+00
					 0.00000000E+00	 0.00000000E+00	 0.00000000E+00
					 4.87258000E-05	-9.26304000E-03	 1.90009000E-04
					-2.73869000E-03	-9.78488000E-03	 7.47541000E-03
					 0.00000000E+00	 0.00000000E+00	 0.00000000E+00
					 7.14593000E-05	-3.18137000E-03	 1.13143000E-04
					-1.08103000E-03	-1.06037000E-02	 3.32625000E-03
					-4.49390000E-04	-3.76340000E-03	 3.62467000E-03
					 0.00000000E+00	 0.00000000E+00	 0.00000000E+00
					 2.61966000E-03	-1.10136000E-02	-6.77445000E-03
					 0.00000000E+00	 0.00000000E+00	 0.00000000E+00
					 2.94847000E-03	-9.67231000E-03	-7.05702000E-03
					 0.00000000E+00	 0.00000000E+00	 0.00000000E+00
					 6.35385000E-04	-3.73718000E-03	-3.40483000E-03
					 1.30746000E-03	-1.06190000E-02	-2.96176000E-03
					 7.80647000E-05	-2.26055000E-02	 2.94591000E-04
					-5.82326000E-03	-2.30921000E-02	 1.25110000E-02
					 2.04587000E-04	-2.82851000E-02	 2.68905000E-04
					-5.32958000E-03	-2.88000000E-02	 1.23897000E-02
					 3.84806000E-05	-1.18511000E-02	 3.22700000E-04
					-2.85347000E-03	-2.27669000E-02	 6.45307000E-03
					-5.27996000E-03	-1.22987000E-02	 1.01282000E-02
					 1.29008000E-04	-2.54698000E-02	 2.76082000E-04
					-5.57327000E-03	-2.60230000E-02	 1.24109000E-02
					 1.45565000E-04	-1.67371000E-02	 2.85660000E-04
					-2.55146000E-03	-2.84602000E-02	 6.27826000E-03
					-4.37433000E-03	-1.72467000E-02	 1.01899000E-02
					 6.31759000E-03	-2.25167000E-02	-1.18290000E-02
					 5.92057000E-03	-2.85335000E-02	-1.19606000E-02
					 5.39316000E-03	-1.20541000E-02	-9.55648000E-03
					 3.20334000E-03	-2.24805000E-02	-5.75222000E-03
					 6.12631000E-03	-2.55519000E-02	-1.18377000E-02
					 4.63853000E-03	-1.69518000E-02	-9.65835000E-03
					 3.02927000E-03	-2.83543000E-02	-5.78772000E-03
					 3.41900000E-04	-3.35390000E-02	 2.81530000E-04
					-4.63568000E-03	-3.40372000E-02	 1.23931000E-02
					 2.93965000E-04	-3.09798000E-02	 2.82895000E-04
					-4.99081000E-03	-3.14916000E-02	 1.25058000E-02
					 2.25306000E-04	-2.08521000E-02	 2.34426000E-04
					-2.16197000E-03	-3.37112000E-02	 6.16952000E-03
					-3.63818000E-03	-2.15269000E-02	 1.00959000E-02
					 5.34630000E-03	-3.37630000E-02	-1.20225000E-02
					 5.63130000E-03	-3.11357000E-02	-1.21140000E-02
					 4.00484000E-03	-2.11500000E-02	-9.57312000E-03
					 2.80209000E-03	-3.35900000E-02	-5.67837000E-03
					 3.64769000E-04	-4.93508000E-02	 2.49310000E-04
					-7.35718000E-03	-4.99517000E-02	 1.58473000E-02
					 4.79553000E-04	-5.69723000E-02	 2.06782000E-04
					-6.78107000E-03	-5.76064000E-02	 1.58550000E-02
					 2.26815000E-04	-3.50375000E-02	 2.89984000E-04
					-3.50100000E-03	-4.96344000E-02	 8.11682000E-03
					-6.73812000E-03	-3.56328000E-02	 1.43032000E-02
					 4.20264000E-04	-5.32989000E-02	 2.38711000E-04
					-7.06272000E-03	-5.38397000E-02	 1.56756000E-02
					 3.33294000E-04	-4.17987000E-02	 2.37156000E-04
					-3.17334000E-03	-5.72298000E-02	 7.92710000E-03
					-6.08488000E-03	-4.23297000E-02	 1.43150000E-02
					 8.31649000E-03	-4.90927000E-02	-1.53432000E-02
					 7.83813000E-03	-5.68592000E-02	-1.54921000E-02
					 7.27376000E-03	-3.49880000E-02	-1.36793000E-02
					 4.26989000E-03	-4.91895000E-02	-7.62812000E-03
					 8.06157000E-03	-5.31161000E-02	-1.52676000E-02
					 6.79157000E-03	-4.17682000E-02	-1.38502000E-02
					 4.16545000E-03	-5.68832000E-02	-7.56103000E-03
					 6.75731000E-04	-6.40928000E-02	 4.82810000E-05
					-6.42465000E-03	-6.48911000E-02	 1.56662000E-02
					 5.81611000E-04	-6.05903000E-02	 1.05227000E-04
					-6.59879000E-03	-6.12004000E-02	 1.58999000E-02
					 4.32361000E-04	-4.78818000E-02	 1.16553000E-04
					-2.85424000E-03	-6.44658000E-02	 7.62768000E-03
					-5.42736000E-03	-4.84036000E-02	 1.42634000E-02
					 7.47277000E-03	-6.37762000E-02	-1.55329000E-02
					 7.65001000E-03	-6.04262000E-02	-1.56918000E-02
					 6.27263000E-03	-4.78779000E-02	-1.39347000E-02
					 4.13460000E-03	-6.39150000E-02	-7.51473000E-03
					 7.71946000E-04	-8.27783000E-02	-4.95661000E-05
					-7.52585000E-03	-8.29745000E-02	 1.64974000E-02