# vtk DataFile Version 3.0

ASCII
DATASET UNSTRUCTURED_GRID

POINTS 522 double
	 1.00000000E+00	 1.00000000E+00	-5.96046000E-08
	 1.00000000E+00	 5.00000000E-01	-5.96046000E-08
	 1.00000000E+00	 5.00000000E-01	 1.00000000E+00
	 1.00000000E+00	 1.00000000E+00	 1.00000000E+00
	 5.00000000E-01	 1.00000000E+00	-5.96046000E-08
	 5.00000000E-01	 5.00000000E-01	-5.96046000E-08
	 5.00000000E-01	 5.00000000E-01	 1.00000000E+00
	 5.00000000E-01	 1.00000000E+00	 1.00000000E+00
	 1.00000000E+00	 7.50000000E-01	-5.96046000E-08
	 1.00000000E+00	 5.00000000E-01	 5.00000000E-01
	 1.00000000E+00	 7.50000000E-01	 1.00000000E+00
	 1.00000000E+00	 1.00000000E+00	 5.00000000E-01
	 7.50000000E-01	 1.00000000E+00	-5.96046000E-08
	 7.50000000E-01	 5.00000000E-01	-5.96046000E-08
	 7.50000000E-01	 5.00000000E-01	 1.00000000E+00
	 7.50000000E-01	 1.00000000E+00	 1.00000000E+00
	 5.00000000E-01	 7.50000000E-01	-5.96046000E-08
	 5.00000000E-01	 5.00000000E-01	 5.00000000E-01
	 5.00000000E-01	 7.50000000E-01	 1.00000000E+00
	 5.00000000E-01	 1.00000000E+00	 5.00000000E-01
	 1.00000000E+00	-1.49012000E-08	-5.96046000E-08
	 1.00000000E+00	-1.49012000E-08	 1.00000000E+00
	 5.00000000E-01	-1.49012000E-08	-5.96046000E-08
	 5.00000000E-01	-1.49012000E-08	 1.00000000E+00
	 1.00000000E+00	 2.50000000E-01	-5.96046000E-08
	 1.00000000E+00	-1.49012000E-08	 5.00000000E-01
	 1.00000000E+00	 2.50000000E-01	 1.00000000E+00
	 7.50000000E-01	-1.49012000E-08	-5.96046000E-08
	 7.50000000E-01	-1.49012000E-08	 1.00000000E+00
	 5.00000000E-01	 2.50000000E-01	-5.96046000E-08
	 5.00000000E-01	-1.49012000E-08	 5.00000000E-01
	 5.00000000E-01	 2.50000000E-01	 1.00000000E+00
	-7.45058000E-09	 1.00000000E+00	-5.96046000E-08
	-7.45058000E-09	 5.00000000E-01	-5.96046000E-08
	-7.45058000E-09	 5.00000000E-01	 1.00000000E+00
	-7.45058000E-09	 1.00000000E+00	 1.00000000E+00
	 2.50000000E-01	 1.00000000E+00	-5.96046000E-08
	 2.50000000E-01	 5.00000000E-01	-5.96046000E-08
	 2.50000000E-01	 5.00000000E-01	 1.00000000E+00
	 2.50000000E-01	 1.00000000E+00	 1.00000000E+00
	-7.45058000E-09	 7.50000000E-01	-5.96046000E-08
	-7.45058000E-09	 5.00000000E-01	 5.00000000E-01
	-7.45058000E-09	 7.50000000E-01	 1.00000000E+00
	-7.45058000E-09	 1.00000000E+00	 5.00000000E-01
	-7.45058000E-09	-1.49012000E-08	-5.96046000E-08
	-7.45058000E-09	-1.49012000E-08	 1.00000000E+00
	 2.50000000E-01	-1.49012000E-08	-5.96046000E-08
	 2.50000000E-01	-1.49012000E-08	 1.00000000E+00
	-7.45058000E-09	 2.50000000E-01	-5.96046000E-08
	-7.45058000E-09	-1.49012000E-08	 5.00000000E-01
	-7.45058000E-09	 2.50000000E-01	 1.00000000E+00
	 1.00000000E+00	 5.00000000E-01	 2.00000000E+00
	 1.00000000E+00	 1.00000000E+00	 2.00000000E+00
	 5.00000000E-01	 5.00000000E-01	 2.00000000E+00
	 5.00000000E-01	 1.00000000E+00	 2.00000000E+00
	 1.00000000E+00	 5.00000000E-01	 1.50000000E+00
	 1.00000000E+00	 7.50000000E-01	 2.00000000E+00
	 1.00000000E+00	 1.00000000E+00	 1.50000000E+00
	 7.50000000E-01	 5.00000000E-01	 2.00000000E+00
	 7.50000000E-01	 1.00000000E+00	 2.00000000E+00
	 5.00000000E-01	 5.00000000E-01	 1.50000000E+00
	 5.00000000E-01	 7.50000000E-01	 2.00000000E+00
	 5.00000000E-01	 1.00000000E+00	 1.50000000E+00
	 1.00000000E+00	-1.49012000E-08	 2.00000000E+00
	 5.00000000E-01	-1.49012000E-08	 2.00000000E+00
	 1.00000000E+00	-1.49012000E-08	 1.50000000E+00
	 1.00000000E+00	 2.50000000E-01	 2.00000000E+00
	 7.50000000E-01	-1.49012000E-08	 2.00000000E+00
	 5.00000000E-01	-1.49012000E-08	 1.50000000E+00
	 5.00000000E-01	 2.50000000E-01	 2.00000000E+00
	-7.45058000E-09	 5.00000000E-01	 2.00000000E+00
	-7.45058000E-09	 1.00000000E+00	 2.00000000E+00
	 2.50000000E-01	 5.00000000E-01	 2.00000000E+00
	 2.50000000E-01	 1.00000000E+00	 2.00000000E+00
	-7.45058000E-09	 5.00000000E-01	 1.50000000E+00
	-7.45058000E-09	 7.50000000E-01	 2.00000000E+00
	-7.45058000E-09	 1.00000000E+00	 1.50000000E+00
	-7.45058000E-09	-1.49012000E-08	 2.00000000E+00
	 2.50000000E-01	-1.49012000E-08	 2.00000000E+00
	-7.45058000E-09	-1.49012000E-08	 1.50000000E+00
	-7.45058000E-09	 2.50000000E-01	 2.00000000E+00
	 1.00000000E+00	 5.00000000E-01	 3.00000000E+00
	 1.00000000E+00	 1.00000000E+00	 3.00000000E+00
	 5.00000000E-01	 5.00000000E-01	 3.00000000E+00
	 5.00000000E-01	 1.00000000E+00	 3.00000000E+00
	 1.00000000E+00	 5.00000000E-01	 2.50000000E+00
	 1.00000000E+00	 7.50000000E-01	 3.00000000E+00
	 1.00000000E+00	 1.00000000E+00	 2.50000000E+00
	 7.50000000E-01	 5.00000000E-01	 3.00000000E+00
	 7.50000000E-01	 1.00000000E+00	 3.00000000E+00
	 5.00000000E-01	 5.00000000E-01	 2.50000000E+00
	 5.00000000E-01	 7.50000000E-01	 3.00000000E+00
	 5.00000000E-01	 1.00000000E+00	 2.50000000E+00
	 1.00000000E+00	-1.49012000E-08	 3.00000000E+00
	 5.00000000E-01	-1.49012000E-08	 3.00000000E+00
	 1.00000000E+00	-1.49012000E-08	 2.50000000E+00
	 1.00000000E+00	 2.50000000E-01	 3.00000000E+00
	 7.50000000E-01	-1.49012000E-08	 3.00000000E+00
	 5.00000000E-01	-1.49012000E-08	 2.50000000E+00
	 5.00000000E-01	 2.50000000E-01	 3.00000000E+00
	-7.45058000E-09	 5.00000000E-01	 3.00000000E+00
	-7.45058000E-09	 1.00000000E+00	 3.00000000E+00
	 2.50000000E-01	 5.00000000E-01	 3.00000000E+00
	 2.50000000E-01	 1.00000000E+00	 3.00000000E+00
	-7.45058000E-09	 5.00000000E-01	 2.50000000E+00
	-7.45058000E-09	 7.50000000E-01	 3.00000000E+00
	-7.45058000E-09	 1.00000000E+00	 2.50000000E+00
	-7.45058000E-09	-1.49012000E-08	 3.00000000E+00
	 2.50000000E-01	-1.49012000E-08	 3.00000000E+00
	-7.45058000E-09	-1.49012000E-08	 2.50000000E+00
	-7.45058000E-09	 2.50000000E-01	 3.00000000E+00
	 1.00000000E+00	 5.00000000E-01	 4.00000000E+00
	 1.00000000E+00	 1.00000000E+00	 4.00000000E+00
	 5.00000000E-01	 5.00000000E-01	 4.00000000E+00
	 5.00000000E-01	 1.00000000E+00	 4.00000000E+00
	 1.00000000E+00	 5.00000000E-01	 3.50000000E+00
	 1.00000000E+00	 7.50000000E-01	 4.00000000E+00
	 1.00000000E+00	 1.00000000E+00	 3.50000000E+00
	 7.50000000E-01	 5.00000000E-01	 4.00000000E+00
	 7.50000000E-01	 1.00000000E+00	 4.00000000E+00
	 5.00000000E-01	 5.00000000E-01	 3.50000000E+00
	 5.00000000E-01	 7.50000000E-01	 4.00000000E+00
	 5.00000000E-01	 1.00000000E+00	 3.50000000E+00
	 1.00000000E+00	-1.49012000E-08	 4.00000000E+00
	 5.00000000E-01	-1.49012000E-08	 4.00000000E+00
	 1.00000000E+00	-1.49012000E-08	 3.50000000E+00
	 1.00000000E+00	 2.50000000E-01	 4.00000000E+00
	 7.50000000E-01	-1.49012000E-08	 4.00000000E+00
	 5.00000000E-01	-1.49012000E-08	 3.50000000E+00
	 5.00000000E-01	 2.50000000E-01	 4.00000000E+00
	-7.45058000E-09	 5.00000000E-01	 4.00000000E+00
	-7.45058000E-09	 1.00000000E+00	 4.00000000E+00
	 2.50000000E-01	 5.00000000E-01	 4.00000000E+00
	 2.50000000E-01	 1.00000000E+00	 4.00000000E+00
	-7.45058000E-09	 5.00000000E-01	 3.50000000E+00
	-7.45058000E-09	 7.50000000E-01	 4.00000000E+00
	-7.45058000E-09	 1.00000000E+00	 3.50000000E+00
	-7.45058000E-09	-1.49012000E-08	 4.00000000E+00
	 2.50000000E-01	-1.49012000E-08	 4.00000000E+00
	-7.45058000E-09	-1.49012000E-08	 3.50000000E+00
	-7.45058000E-09	 2.50000000E-01	 4.00000000E+00
	 1.00000000E+00	 5.00000000E-01	 5.00000000E+00
	 1.00000000E+00	 1.00000000E+00	 5.00000000E+00
	 5.00000000E-01	 5.00000000E-01	 5.00000000E+00
	 5.00000000E-01	 1.00000000E+00	 5.00000000E+00
	 1.00000000E+00	 5.00000000E-01	 4.50000000E+00
	 1.00000000E+00	 7.50000000E-01	 5.00000000E+00
	 1.00000000E+00	 1.00000000E+00	 4.50000000E+00
	 7.50000000E-01	 5.00000000E-01	 5.00000000E+00
	 7.50000000E-01	 1.00000000E+00	 5.00000000E+00
	 5.00000000E-01	 5.00000000E-01	 4.50000000E+00
	 5.00000000E-01	 7.50000000E-01	 5.00000000E+00
	 5.00000000E-01	 1.00000000E+00	 4.50000000E+00
	 1.00000000E+00	-1.49012000E-08	 5.00000000E+00
	 5.00000000E-01	-1.49012000E-08	 5.00000000E+00
	 1.00000000E+00	-1.49012000E-08	 4.50000000E+00
	 1.00000000E+00	 2.50000000E-01	 5.00000000E+00
	 7.50000000E-01	-1.49012000E-08	 5.00000000E+00
	 5.00000000E-01	-1.49012000E-08	 4.50000000E+00
	 5.00000000E-01	 2.50000000E-01	 5.00000000E+00
	-7.45058000E-09	 5.00000000E-01	 5.00000000E+00
	-7.45058000E-09	 1.00000000E+00	 5.00000000E+00
	 2.50000000E-01	 5.00000000E-01	 5.00000000E+00
	 2.50000000E-01	 1.00000000E+00	 5.00000000E+00
	-7.45058000E-09	 5.00000000E-01	 4.50000000E+00
	-7.45058000E-09	 7.50000000E-01	 5.00000000E+00
	-7.45058000E-09	 1.00000000E+00	 4.50000000E+00
	-7.45058000E-09	-1.49012000E-08	 5.00000000E+00
	 2.50000000E-01	-1.49012000E-08	 5.00000000E+00
	-7.45058000E-09	-1.49012000E-08	 4.50000000E+00
	-7.45058000E-09	 2.50000000E-01	 5.00000000E+00
	 1.00000000E+00	 5.00000000E-01	 6.00000000E+00
	 1.00000000E+00	 1.00000000E+00	 6.00000000E+00
	 5.00000000E-01	 5.00000000E-01	 6.00000000E+00
	 5.00000000E-01	 1.00000000E+00	 6.00000000E+00
	 1.00000000E+00	 5.00000000E-01	 5.50000000E+00
	 1.00000000E+00	 7.50000000E-01	 6.00000000E+00
	 1.00000000E+00	 1.00000000E+00	 5.50000000E+00
	 7.50000000E-01	 5.00000000E-01	 6.00000000E+00
	 7.50000000E-01	 1.00000000E+00	 6.00000000E+00
	 5.00000000E-01	 5.00000000E-01	 5.50000000E+00
	 5.00000000E-01	 7.50000000E-01	 6.00000000E+00
	 5.00000000E-01	 1.00000000E+00	 5.50000000E+00
	 1.00000000E+00	-1.49012000E-08	 6.00000000E+00
	 5.00000000E-01	-1.49012000E-08	 6.00000000E+00
	 1.00000000E+00	-1.49012000E-08	 5.50000000E+00
	 1.00000000E+00	 2.50000000E-01	 6.00000000E+00
	 7.50000000E-01	-1.49012000E-08	 6.00000000E+00
	 5.00000000E-01	-1.49012000E-08	 5.50000000E+00
	 5.00000000E-01	 2.50000000E-01	 6.00000000E+00
	-7.45058000E-09	 5.00000000E-01	 6.00000000E+00
	-7.45058000E-09	 1.00000000E+00	 6.00000000E+00
	 2.50000000E-01	 5.00000000E-01	 6.00000000E+00
	 2.50000000E-01	 1.00000000E+00	 6.00000000E+00
	-7.45058000E-09	 5.00000000E-01	 5.50000000E+00
	-7.45058000E-09	 7.50000000E-01	 6.00000000E+00
	-7.45058000E-09	 1.00000000E+00	 5.50000000E+00
	-7.45058000E-09	-1.49012000E-08	 6.00000000E+00
	 2.50000000E-01	-1.49012000E-08	 6.00000000E+00
	-7.45058000E-09	-1.49012000E-08	 5.50000000E+00
	-7.45058000E-09	 2.50000000E-01	 6.00000000E+00
	 1.00000000E+00	 5.00000000E-01	 7.00000000E+00
[...]
POINT_DATA 522
FIELD U 1
	U 3 522 double
		 0.00000000E+00	 0.00000000E+00	 0.00000000E+00
		 0.00000000E+00	 0.00000000E+00	 0.00000000E+00
		-9.01353000E-06	-4.14008000E-03	-3.04424000E-05
		 1.01926000E-03	-4.32848000E-03	 2.82914000E-03
		 0.00000000E+00	 0.00000000E+00	 0.00000000E+00
		 0.00000000E+00	 0.00000000E+00	 0.00000000E+00
		-1.06557000E-05	-2.90084000E-03	-2.83465000E-05
		 1.42244000E-03	-3.10498000E-03	 2.86044000E-03
		 0.00000000E+00	 0.00000000E+00	 0.00000000E+00
		-7.50751000E-06	-1.20027000E-03	-1.11554000E-05
		 5.04779000E-04	-4.16564000E-03	 1.25988000E-03
		 2.56940000E-04	-1.42693000E-03	 1.39626000E-03
		 0.00000000E+00	 0.00000000E+00	 0.00000000E+00
		 0.00000000E+00	 0.00000000E+00	 0.00000000E+00
		-1.15785000E-05	-3.58461000E-03	-2.81519000E-05
		 1.22226000E-03	-3.78390000E-03	 2.96999000E-03
		 0.00000000E+00	 0.00000000E+00	 0.00000000E+00
		-1.09091000E-05	-6.84044000E-04	-1.27325000E-05
		 7.03591000E-04	-2.93096000E-03	 1.40183000E-03
		 7.09432000E-04	-9.29108000E-04	 1.35090000E-03
		 0.00000000E+00	 0.00000000E+00	 0.00000000E+00
		-1.02800000E-03	-4.30292000E-03	-2.89769000E-03
		 0.00000000E+00	 0.00000000E+00	 0.00000000E+00
		-1.43429000E-03	-3.08859000E-03	-2.92067000E-03
		 0.00000000E+00	 0.00000000E+00	 0.00000000E+00
		-2.49946000E-04	-1.40893000E-03	-1.41495000E-03
		-5.20994000E-04	-4.15074000E-03	-1.32083000E-03
		 0.00000000E+00	 0.00000000E+00	 0.00000000E+00
		-1.23457000E-03	-3.76326000E-03	-3.03725000E-03
		 0.00000000E+00	 0.00000000E+00	 0.00000000E+00
		-7.10729000E-04	-9.34443000E-04	-1.37583000E-03
		-7.21664000E-04	-2.92283000E-03	-1.46015000E-03
		 0.00000000E+00	 0.00000000E+00	 0.00000000E+00
		 0.00000000E+00	 0.00000000E+00	 0.00000000E+00
		-6.02997000E-06	-1.28092000E-03	-2.67795000E-05
		 1.81763000E-03	-1.47230000E-03	 2.83727000E-03
		 0.00000000E+00	 0.00000000E+00	 0.00000000E+00
		 0.00000000E+00	 0.00000000E+00	 0.00000000E+00
		-8.64632000E-06	-2.15739000E-03	-2.86756000E-05
		 1.61606000E-03	-2.35108000E-03	 2.71953000E-03
		 0.00000000E+00	 0.00000000E+00	 0.00000000E+00
		-8.91607000E-06	 2.13612000E-04	-1.22185000E-05
		 9.08154000E-04	-1.30711000E-03	 1.52307000E-03
		 1.11281000E-03	-4.82945000E-05	 1.39291000E-03
		 0.00000000E+00	 0.00000000E+00	 0.00000000E+00
		-1.82175000E-03	-1.46374000E-03	-2.88844000E-03
		 0.00000000E+00	 0.00000000E+00	 0.00000000E+00
		-1.62421000E-03	-2.33833000E-03	-2.77299000E-03
		 0.00000000E+00	 0.00000000E+00	 0.00000000E+00
		-1.11249000E-03	-7.03343000E-05	-1.42203000E-03
		-9.18451000E-04	-1.30534000E-03	-1.57842000E-03
		-9.60845000E-06	-1.39748000E-02	-1.23656000E-04
		 2.32401000E-03	-1.41549000E-02	 5.21383000E-03
		-1.04393000E-05	-1.14834000E-02	-9.13544000E-05
		 2.62159000E-03	-1.16704000E-02	 5.25441000E-03
		-8.14221000E-06	-8.47777000E-03	-6.70244000E-05
		 1.15782000E-03	-1.40273000E-02	 2.45450000E-03
		 1.72536000E-03	-8.68631000E-03	 4.11727000E-03
		-8.57900000E-06	-1.27663000E-02	-1.08834000E-04
		 2.47389000E-03	-1.29480000E-02	 5.30506000E-03
		-1.03678000E-05	-6.56036000E-03	-5.17887000E-05
		 1.30916000E-03	-1.15433000E-02	 2.55951000E-03
		 2.08055000E-03	-6.76698000E-03	 4.15042000E-03
		-2.36862000E-03	-1.41193000E-02	-5.46462000E-03
		-2.66726000E-03	-1.16013000E-02	-5.44075000E-03
		-1.76206000E-03	-8.66892000E-03	-4.26539000E-03
		-1.18281000E-03	-1.40168000E-02	-2.70332000E-03
		-2.51889000E-03	-1.28906000E-02	-5.52464000E-03
		-2.11436000E-03	-6.72672000E-03	-4.25845000E-03
		-1.33821000E-03	-1.15077000E-02	-2.74298000E-03
		-1.12407000E-05	-8.68823000E-03	-5.66148000E-05
		 2.94247000E-03	-8.87634000E-03	 5.27594000E-03
		-1.18025000E-05	-1.01188000E-02	-7.38617000E-05
		 2.78222000E-03	-1.03113000E-02	 5.20864000E-03
		-9.25290000E-06	-4.27860000E-03	-4.18321000E-05
		 1.46352000E-03	-8.74964000E-03	 2.64329000E-03
		 2.46321000E-03	-4.47745000E-03	 4.15203000E-03
		-2.98563000E-03	-8.77551000E-03	-5.39589000E-03
		-2.82837000E-03	-1.02278000E-02	-5.36300000E-03
		-2.49010000E-03	-4.42166000E-03	-4.22890000E-03
		-1.49235000E-03	-8.69318000E-03	-2.75747000E-03
		-1.07328000E-05	-2.73218000E-02	-2.48920000E-04
		 3.01816000E-03	-2.75107000E-02	 6.82376000E-03
		-3.24887000E-06	-2.41994000E-02	-1.98016000E-04
		 3.24545000E-03	-2.43675000E-02	 6.87274000E-03
		-1.09420000E-05	-2.03215000E-02	-1.86271000E-04
		 1.49839000E-03	-2.73912000E-02	 3.26179000E-03
		 2.75770000E-03	-2.05070000E-02	 6.08667000E-03
		-8.90714000E-06	-2.57898000E-02	-2.23996000E-04
		 3.13035000E-03	-2.59636000E-02	 6.87246000E-03
		-6.21200000E-06	-1.74332000E-02	-1.41005000E-04
		 1.62090000E-03	-2.42568000E-02	 3.33492000E-03
		 3.01426000E-03	-1.76113000E-02	 6.13098000E-03
		-3.02538000E-03	-2.73845000E-02	-7.32638000E-03
		-3.24166000E-03	-2.42575000E-02	-7.27561000E-03
		-2.78671000E-03	-2.04271000E-02	-6.45674000E-03
		-1.51681000E-03	-2.73254000E-02	-3.76249000E-03
		-3.13322000E-03	-2.58476000E-02	-7.32472000E-03
		-3.03261000E-03	-1.75195000E-02	-6.41930000E-03
		-1.62370000E-03	-2.42031000E-02	-3.73263000E-03
		 9.88026000E-06	-2.08336000E-02	-1.45792000E-04
		 3.49390000E-03	-2.09966000E-02	 6.91998000E-03
		 3.63646000E-06	-2.25447000E-02	-1.72150000E-04
		 3.37071000E-03	-2.27094000E-02	 6.87572000E-03
		-1.29810000E-07	-1.42773000E-02	-8.81319000E-05
		 1.75277000E-03	-2.08867000E-02	 3.40348000E-03
		 3.29359000E-03	-1.44502000E-02	 6.16755000E-03
		-3.46991000E-03	-2.08913000E-02	-7.21613000E-03
		-3.35728000E-03	-2.26028000E-02	-7.22595000E-03
		-3.29464000E-03	-1.43549000E-02	-6.36079000E-03
		-1.73150000E-03	-2.08369000E-02	-3.69580000E-03
		 9.58092000E-06	-4.28223000E-02	-4.10072000E-04
		 2.98668000E-03	-4.30699000E-02	 8.36635000E-03
		 1.11285000E-05	-3.96858000E-02	-3.56070000E-04
		 3.29991000E-03	-3.99332000E-02	 8.40367000E-03
		-1.58317000E-06	-3.47771000E-02	-3.21962000E-04
		 1.49797000E-03	-4.29067000E-02	 4.04205000E-03
		 3.08800000E-03	-3.49952000E-02	 7.52630000E-03
		 1.02127000E-05	-4.12942000E-02	-3.83056000E-04
		 3.14530000E-03	-4.15402000E-02	 8.35681000E-03
		 2.72584000E-06	-3.15774000E-02	-2.69090000E-04
		 1.65655000E-03	-3.97694000E-02	 4.06135000E-03
		 3.32935000E-03	-3.17779000E-02	 7.57157000E-03
		-2.98037000E-03	-4.29112000E-02	-9.18824000E-03
		-3.27937000E-03	-3.97636000E-02	-9.11469000E-03
		-3.08351000E-03	-3.48545000E-02	-8.17823000E-03
		-1.48261000E-03	-4.28260000E-02	-4.85974000E-03
		-3.13292000E-03	-4.13745000E-02	-9.12579000E-03
		-3.31917000E-03	-3.16486000E-02	-8.11659000E-03
		-1.63404000E-03	-3.96828000E-02	-4.77333000E-03
		 1.66127000E-05	-3.62428000E-02	-2.90402000E-04
		 3.62941000E-03	-3.64827000E-02	 8.48323000E-03
		 1.32139000E-05	-3.80022000E-02	-3.24112000E-04
		 3.46267000E-03	-3.82482000E-02	 8.44530000E-03
		 1.24763000E-05	-2.81268000E-02	-2.12035000E-04
		 1.82204000E-03	-3.63224000E-02	 4.12784000E-03
		 3.58952000E-03	-2.83289000E-02	 7.63582000E-03
		-3.58925000E-03	-3.63116000E-02	-9.06707000E-03
		-3.43274000E-03	-3.80774000E-02	-9.09435000E-03
		-3.56745000E-03	-2.81907000E-02	-8.06075000E-03
		-1.78440000E-03	-3.62354000E-02	-4.71071000E-03
		 1.81885000E-05	-6.22405000E-02	-6.61178000E-04
		 2.46649000E-03	-6.25638000E-02	 1.07244000E-02
		 1.29444000E-05	-5.95718000E-02	-5.84940000E-04
		 2.87659000E-03	-5.99133000E-02	 1.08054000E-02
		 1.21251000E-05	-5.18225000E-02	-5.17566000E-04
		 1.24606000E-03	-6.23484000E-02	 5.05055000E-03
		 2.74154000E-03	-5.21053000E-02	 9.49926000E-03
		 1.52106000E-05	-6.09598000E-02	-6.24935000E-04
		 2.66977000E-03	-6.12930000E-02	 1.07249000E-02
		 1.16105000E-05	-4.88838000E-02	-4.56947000E-04
		 1.44620000E-03	-5.96877000E-02	 5.08905000E-03
		 3.13555000E-03	-4.91808000E-02	 9.54647000E-03
		-2.44431000E-03	-6.23094000E-02	-1.20463000E-02
		-2.85891000E-03	-5.96336000E-02	-1.19807000E-02
		-2.73841000E-03	-5.19118000E-02	-1.05342000E-02
		-1.21356000E-03	-6.22189000E-02	-6.37252000E-03
		-2.65176000E-03	-6.10277000E-02	-1.19741000E-02
		-3.12335000E-03	-4.89593000E-02	-1.04570000E-02
		-1.42177000E-03	-5.95454000E-02	-6.25844000E-03
		 1.53772000E-05	-5.65073000E-02	-5.03975000E-04
		 3.29990000E-03	-5.68458000E-02	 1.08799000E-02
		 1.22385000E-05	-5.80926000E-02	-5.44210000E-04
		 3.08763000E-03	-5.84394000E-02	 1.08914000E-02
		 1.69682000E-05	-4.55639000E-02	-3.86408000E-04
		 1.65373000E-03	-5.66207000E-02	 5.11922000E-03
		 3.54980000E-03	-4.58512000E-02	 9.62900000E-03
		-3.26539000E-03	-5.65559000E-02	-1.18903000E-02
		-3.06457000E-03	-5.81483000E-02	-1.19853000E-02
		-3.51559000E-03	-4.56212000E-02	-1.04021000E-02
		-1.62167000E-03	-5.64772000E-02	-6.12503000E-03
		 5.44778000E-05	-8.75861000E-02	-1.03235000E-03
		 2.25913000E-03	-8.78560000E-02	 1.24273000E-02
		 5.51590000E-05	-8.52880000E-02	-9.52576000E-04
		 2.45241000E-03	-8.55630000E-02	 1.25371000E-02
		 3.58577000E-05	-7.42988000E-02	-8.37035000E-04
		 1.15816000E-03	-8.76980000E-02	 5.65191000E-03
		 2.31466000E-03	-7.46046000E-02	 1.17571000E-02
		 5.40121000E-05	-8.64582000E-02	-9.93330000E-04
		 2.35582000E-03	-8.67327000E-02	 1.24728000E-02
		 3.03301000E-05	-7.18581000E-02	-7.53109000E-04
		 1.25347000E-03	-8.54010000E-02	 5.73600000E-03
		 2.63004000E-03	-7.21726000E-02	 1.18635000E-02
		-2.14119000E-03	-8.74862000E-02	-1.45065000E-02
		-2.34356000E-03	-8.51984000E-02	-1.44517000E-02
		-2.23784000E-03	-7.42745000E-02	-1.34362000E-02
		-1.04720000E-03	-8.75133000E-02	-7.72050000E-03
		-2.24076000E-03	-8.63686000E-02	-1.44735000E-02
		-2.56884000E-03	-7.18435000E-02	-1.33801000E-02
		-1.14377000E-03	-8.52237000E-02	-7.64358000E-03
		 5.82270000E-05	-8.27953000E-02	-8.53334000E-04
		 2.63361000E-03	-8.30863000E-02	 1.26140000E-02
		 5.68692000E-05	-8.40666000E-02	-9.06187000E-04
		 2.54137000E-03	-8.43452000E-02	 1.26153000E-02
		 2.97608000E-05	-6.91021000E-02	-6.60376000E-04
		 1.35026000E-03	-8.29167000E-02	 5.78606000E-03
		 2.94495000E-03	-6.94208000E-02	 1.19340000E-02
		-2.52968000E-03	-8.27083000E-02	-1.43269000E-02
		-2.43765000E-03	-8.39748000E-02	-1.44325000E-02
		-2.88404000E-03	-6.90852000E-02	-1.32621000E-02
		-1.23709000E-03	-8.27322000E-02	-7.49413000E-03
		 1.01281000E-04	-1.15868000E-01	-1.45518000E-03
		 2.51861000E-03	-1.16069000E-01	 1.25520000E-02
		 1.21163000E-04	-1.13452000E-01	-1.36096000E-03
		 2.54751000E-03	-1.13649000E-01	 1.26464000E-02
		 7.53558000E-05	-1.01582000E-01	-1.24121000E-03
		 1.30860000E-03	-1.15964000E-01	 5.50287000E-03
		 2.31584000E-03	-1.01810000E-01	 1.26228000E-02
		 1.09160000E-04	-1.14660000E-01	-1.40831000E-03
		 2.53076000E-03	-1.14858000E-01	 1.26337000E-02
		 8.80444000E-05	-9.93018000E-02	-1.15972000E-03
		 1.33678000E-03	-1.13550000E-01	 5.62933000E-03
		 2.41097000E-03	-9.95378000E-02	 1.27264000E-02
		-2.31810000E-03	-1.15691000E-01	-1.54739000E-02
		-2.31922000E-03	-1.13268000E-01	-1.53792000E-02
		-2.16270000E-03	-1.01433000E-01	-1.51215000E-02
		-1.10703000E-03	-1.15783000E-01	-8.41822000E-03
		-2.32097000E-03	-1.14478000E-01	-1.54622000E-02
		-2.24465000E-03	-9.91586000E-02	-1.50572000E-02
		-1.09955000E-03	-1.13363000E-01	-8.35532000E-03
		 1.39145000E-04	-1.11013000E-01	-1.26066000E-03
		 2.56840000E-03	-1.11232000E-01	 1.27351000E-02
		 1.33173000E-04	-1.12236000E-01	-1.31184000E-03
		 2.56115000E-03	-1.12436000E-01	 1.26608000E-02
		 1.00086000E-04	-9.69399000E-02	-1.05908000E-03
		 1.36178000E-03	-1.11124000E-01	 5.75138000E-03
		 2.47770000E-03	-9.72063000E-02	 1.28097000E-02
		-2.31279000E-03	-1.10828000E-01	-1.52609000E-02
		-2.31460000E-03	-1.12049000E-01	-1.52903000E-02
		-2.30084000E-03	-9.68058000E-02	-1.49341000E-02
		-1.08971000E-03	-1.10921000E-01	-8.27538000E-03
		 1.57532000E-04	-1.44314000E-01	-1.87818000E-03
		 2.91404000E-03	-1.44519000E-01	 1.21588000E-02
		 1.88020000E-04	-1.41556000E-01	-1.75965000E-03
		 2.91492000E-03	-1.41741000E-01	 1.22671000E-02
		 1.24653000E-04	-1.30156000E-01	-1.66841000E-03
		 1.52888000E-03	-1.44413000E-01	 5.13047000E-03
		 2.76144000E-03	-1.30355000E-01	 1.23686000E-02
		 1.69806000E-04	-1.42942000E-01	-1.82074000E-03
		 2.91201000E-03	-1.43131000E-01	 1.22298000E-02
		 1.49199000E-04	-1.27522000E-01	-1.56016000E-03
		 1.54720000E-03	-1.41645000E-01	 5.25740000E-03
		 2.78059000E-03	-1.27711000E-01	 1.24656000E-02
		-2.58344000E-03	-1.44145000E-01	-1.59242000E-02
		-2.57060000E-03	-1.41366000E-01	-1.57760000E-02
		-2.50891000E-03	-1.29978000E-01	-1.57172000E-02
		-1.21006000E-03	-1.44233000E-01	-8.89024000E-03
		-2.57503000E-03	-1.42763000E-01	-1.58688000E-02
		-2.50632000E-03	-1.27338000E-01	-1.55861000E-02
		-1.18393000E-03	-1.41466000E-01	-8.77155000E-03
		 2.12612000E-04	-1.38783000E-01	-1.63350000E-03
		 2.93893000E-03	-1.38974000E-01	 1.23497000E-02
		 2.04680000E-04	-1.40164000E-01	-1.69631000E-03
		 2.92858000E-03	-1.40351000E-01	 1.22921000E-02
		 1.70566000E-04	-1.24873000E-01	-1.44911000E-03
		 1.57477000E-03	-1.38881000E-01	 5.37604000E-03
		 2.79895000E-03	-1.25083000E-01	 1.25543000E-02
		-2.58728000E-03	-1.38542000E-01	-1.56297000E-02
		-2.58052000E-03	-1.39959000E-01	-1.56804000E-02
		-2.50017000E-03	-1.24663000E-01	-1.54577000E-02
		-1.17461000E-03	-1.38661000E-01	-8.65102000E-03
		 0.00000000E+00	 0.00000000E+00	 0.00000000E+00
		 0.00000000E+00	 0.00000000E+00	 0.00000000E+00
		 5.83740000E-05	-1.18334000E-02	-1.24713000E-04
		-3.92912000E-03	-1.28162000E-02	 1.30370000E-02
		 0.00000000E+00	 0.00000000E+00	 0.00000000E+00
		 0.00000000E+00	 0.00000000E+00	 0.00000000E+00
		 6.38181000E-05	-1.49511000E-02	-1.77098000E-04
		-2.18942000E-03	-1.59772000E-02	 1.31312000E-02
		 0.00000000E+00	 0.00000000E+00	 0.00000000E+00
		 3.09417000E-05	-2.05134000E-03	-3.54958000E-05
		-1.94121000E-03	-1.20281000E-02	 6.51191000E-03
		-3.03654000E-03	-3.28534000E-03	 6.65401000E-03
		 0.00000000E+00	 0.00000000E+00	 0.00000000E+00
		 0.00000000E+00	 0.00000000E+00	 0.00000000E+00
		 6.17331000E-05	-1.36850000E-02	-1.53273000E-04
		-3.04526000E-03	-1.46815000E-02	 1.28783000E-02
		 0.00000000E+00	 0.00000000E+00	 0.00000000E+00
		 1.71037000E-05	-4.05528000E-03	-5.30448000E-05
		-1.06342000E-03	-1.51502000E-02	 6.31768000E-03
		-1.08702000E-03	-5.24083000E-03	 6.45384000E-03
		 0.00000000E+00	 0.00000000E+00	 0.00000000E+00
		 4.03493000E-03	-1.23766000E-02	-1.33512000E-02
		 0.00000000E+00	 0.00000000E+00	 0.00000000E+00
		 2.33693000E-03	-1.55518000E-02	-1.35490000E-02
		 0.00000000E+00	 0.00000000E+00	 0.00000000E+00
		 3.10838000E-03	-3.11889000E-03	-6.74130000E-03
		 2.05274000E-03	-1.17970000E-02	-6.78339000E-03
		 0.00000000E+00	 0.00000000E+00	 0.00000000E+00
		 3.17812000E-03	-1.42515000E-02	-1.32490000E-02
		 0.00000000E+00	 0.00000000E+00	 0.00000000E+00
		 1.15037000E-03	-5.11215000E-03	-6.56640000E-03
		 1.19610000E-03	-1.49372000E-02	-6.69399000E-03
		 0.00000000E+00	 0.00000000E+00	 0.00000000E+00
		 0.00000000E+00	 0.00000000E+00	 0.00000000E+00
		 6.39379000E-05	-1.63629000E-02	-1.80816000E-04
		-4.37297000E-04	-1.73025000E-02	 1.29929000E-02
		 0.00000000E+00	 0.00000000E+00	 0.00000000E+00
		 0.00000000E+00	 0.00000000E+00	 0.00000000E+00
		 6.43666000E-05	-1.59461000E-02	-1.90745000E-04
		-1.32330000E-03	-1.69357000E-02	 1.32557000E-02
		 0.00000000E+00	 0.00000000E+00	 0.00000000E+00
		 4.70930000E-06	-4.28047000E-03	-3.77441000E-05
		-1.90583000E-04	-1.65207000E-02	 6.04702000E-03
		 9.45931000E-04	-5.39874000E-03	 6.65114000E-03
		 0.00000000E+00	 0.00000000E+00	 0.00000000E+00
		 6.07047000E-04	-1.69144000E-02	-1.33983000E-02
		 0.00000000E+00	 0.00000000E+00	 0.00000000E+00
		 1.47916000E-03	-1.65182000E-02	-1.36931000E-02
		 0.00000000E+00	 0.00000000E+00	 0.00000000E+00
		-8.94987000E-04	-5.29171000E-03	-6.74018000E-03
		 3.32834000E-04	-1.63428000E-02	-6.42030000E-03
		 1.85239000E-04	-4.88816000E-02	-7.98284000E-04
		-5.49998000E-03	-5.01237000E-02	 2.28704000E-02
		 2.11664000E-04	-5.38642000E-02	-9.45312000E-04
		-4.11212000E-03	-5.51274000E-02	 2.27707000E-02
		 1.20580000E-04	-2.76235000E-02	-3.62005000E-04
		-2.65310000E-03	-4.93530000E-02	 1.10346000E-02
		-4.83902000E-03	-2.88118000E-02	 1.84325000E-02
		 2.02259000E-04	-5.15201000E-02	-8.82782000E-04
		-4.80529000E-03	-5.27742000E-02	 2.27238000E-02
		 1.27352000E-04	-3.17739000E-02	-4.60321000E-04
		-1.94648000E-03	-5.43483000E-02	 1.08262000E-02
		-3.23428000E-03	-3.29761000E-02	 1.83941000E-02
		 5.85265000E-03	-4.89053000E-02	-2.45385000E-02
		 4.52234000E-03	-5.39135000E-02	-2.47337000E-02
		 5.04412000E-03	-2.80328000E-02	-1.92440000E-02
		 3.01720000E-03	-4.87478000E-02	-1.26493000E-02
		 5.19443000E-03	-5.15671000E-02	-2.45550000E-02
		 3.48807000E-03	-3.21929000E-02	-1.93936000E-02
		 2.36865000E-03	-5.37471000E-02	-1.27307000E-02
		 2.15535000E-04	-5.75133000E-02	-1.02236000E-03
		-2.74480000E-03	-5.87603000E-02	 2.26448000E-02
		 2.14393000E-04	-5.58381000E-02	-9.91026000E-04
		-3.42657000E-03	-5.71278000E-02	 2.28435000E-02
		 1.22705000E-04	-3.43520000E-02	-5.03952000E-04
		-1.26764000E-03	-5.79800000E-02	 1.05852000E-02
		-1.66771000E-03	-3.55581000E-02	 1.83017000E-02
		 3.20577000E-03	-5.75696000E-02	-2.47664000E-02
		 3.86389000E-03	-5.58812000E-02	-2.49057000E-02
		 1.95423000E-03	-3.48070000E-02	-1.93736000E-02
		 1.70684000E-03	-5.74011000E-02	-1.26423000E-02
		 4.32847000E-04	-1.04546000E-01	-2.29199000E-03
		-6.13907000E-03	-1.05965000E-01	 2.87873000E-02
		 4.85368000E-04	-1.10636000E-01	-2.49829000E-03
		-5.17229000E-03	-1.12159000E-01	 2.86342000E-02
		 2.90062000E-04	-7.47539000E-02	-1.44003000E-03
		-2.84825000E-03	-1.05134000E-01	 1.31925000E-02
		-5.92419000E-03	-7.61189000E-02	 2.62929000E-02
		 4.60098000E-04	-1.07708000E-01	-2.39891000E-03
		-5.65563000E-03	-1.09192000E-01	 2.86497000E-02
		 3.28418000E-04	-8.03857000E-02	-1.62416000E-03
		-2.37059000E-03	-1.11275000E-01	 1.29485000E-02
		-4.74827000E-03	-8.17668000E-02	 2.61648000E-02
		 6.98941000E-03	-1.03936000E-01	-3.34167000E-02
		 6.16647000E-03	-1.10071000E-01	-3.37165000E-02
		 6.49557000E-03	-7.44743000E-02	-2.92377000E-02
		 3.70607000E-03	-1.04126000E-01	-1.77825000E-02
		 6.57642000E-03	-1.07121000E-01	-3.35228000E-02
		 5.41646000E-03	-8.01172000E-02	-2.94871000E-02
		 3.32573000E-03	-1.10247000E-01	-1.79806000E-02
		 5.24439000E-04	-1.15873000E-01	-2.65189000E-03
		-4.33448000E-03	-1.17496000E-01	 2.84277000E-02
		 5.07268000E-04	-1.13382000E-01	-2.58515000E-03
		-4.75692000E-03	-1.14833000E-01	 2.86386000E-02
		 3.58514000E-04	-8.49113000E-02	-1.73720000E-03
		-1.87817000E-03	-1.16560000E-01	 1.26553000E-02
		-3.63595000E-03	-8.63113000E-02	 2.59962000E-02
		 5.36362000E-03	-1.15356000E-01	-3.38416000E-02
		 5.76821000E-03	-1.12816000E-01	-3.38968000E-02
		 4.33888000E-03	-8.46679000E-02	-2.95582000E-02
		 2.93461000E-03	-1.15526000E-01	-1.80162000E-02
		 9.09321000E-04	-1.72728000E-01	-4.55286000E-03
		-5.74137000E-03	-1.74009000E-01	 3.03250000E-02
		 9.59079000E-04	-1.79302000E-01	-4.75887000E-03
		-5.55162000E-03	-1.81047000E-01	 3.01876000E-02
		 6.14804000E-04	-1.37550000E-01	-3.34606000E-03
		-2.41506000E-03	-1.73330000E-01	 1.27380000E-02
		-6.08812000E-03	-1.39018000E-01	 3.01109000E-02
		 9.36003000E-04	-1.76008000E-01	-4.65489000E-03
		-5.63937000E-03	-1.77474000E-01	 3.02880000E-02
		 6.61991000E-04	-1.43998000E-01	-3.60328000E-03
		-2.17445000E-03	-1.80124000E-01	 1.25829000E-02
		-5.50785000E-03	-1.45415000E-01	 3.00028000E-02
		 7.39012000E-03	-1.71576000E-01	-3.94421000E-02
		 7.18158000E-03	-1.78003000E-01	-3.97053000E-02
		 7.30853000E-03	-1.36634000E-01	-3.68442000E-02
		 4.14728000E-03	-1.72142000E-01	-2.18393000E-02
		 7.29308000E-03	-1.74811000E-01	-3.96103000E-02
		 6.77662000E-03	-1.43071000E-01	-3.71479000E-02
		 4.05824000E-03	-1.78614000E-01	-2.21043000E-02
		 8.63507000E-04	-1.85650000E-01	-4.94282000E-03
		-5.25423000E-03	-1.87753000E-01	 2.99462000E-02
		 9.14210000E-04	-1.82468000E-01	-4.85685000E-03
		-5.39693000E-03	-1.84913000E-01	 3.01031000E-02
		 6.77640000E-04	-1.49877000E-01	-3.84638000E-03
		-2.30996000E-03	-1.86635000E-01	 1.23303000E-02
		-4.78613000E-03	-1.51175000E-01	 2.97665000E-02
		 6.99754000E-03	-1.84220000E-01	-3.98269000E-02