# vtk DataFile Version 3.0

ASCII
DATASET UNSTRUCTURED_GRID

POINTS 522 double
	 1.00000000E+00	 1.00000000E+00	-5.96046000E-08
	 1.00000000E+00	 5.00000000E-01	-5.96046000E-08
	 1.00000000E+00	 5.00000000E-01	 1.00000000E+00
	 1.00000000E+00	 1.00000000E+00	 1.00000000E+00
	 5.00000000E-01	 1.00000000E+00	-5.96046000E-08
	 5.00000000E-01	 5.00000000E-01	-5.96046000E-08
	 5.00000000E-01	 5.00000000E-01	 1.00000000E+00
	 5.00000000E-01	 1.00000000E+00	 1.00000000E+00
	 1.00000000E+00	 7.50000000E-01	-5.96046000E-08
	 1.00000000E+00	 5.00000000E-01	 5.00000000E-01
	 1.00000000E+00	 7.50000000E-01	 1.00000000E+00
	 1.00000000E+00	 1.00000000E+00	 5.00000000E-01
	 7.50000000E-01	 1.00000000E+00	-5.96046000E-08
	 7.50000000E-01	 5.00000000E-01	-5.96046000E-08
	 7.50000000E-01	 5.00000000E-01	 1.00000000E+00
	 7.50000000E-01	 1.00000000E+00	 1.00000000E+00
	 5.00000000E-01	 7.50000000E-01	-5.96046000E-08
	 5.00000000E-01	 5.00000000E-01	 5.00000000E-01
	 5.00000000E-01	 7.50000000E-01	 1.00000000E+00
	 5.00000000E-01	 1.00000000E+00	 5.00000000E-01
	 1.00000000E+00	-1.49012000E-08	-5.96046000E-08
	 1.00000000E+00	-1.49012000E-08	 1.00000000E+00
	 5.00000000E-01	-1.49012000E-08	-5.96046000E-08
	 5.00000000E-01	-1.49012000E-08	 1.00000000E+00
	 1.00000000E+00	 2.50000000E-01	-5.96046000E-08
	 1.00000000E+00	-1.49012000E-08	 5.00000000E-01
	 1.00000000E+00	 2.50000000E-01	 1.00000000E+00
	 7.50000000E-01	-1.49012000E-08	-5.96046000E-08
	 7.50000000E-01	-1.49012000E-08	 1.00000000E+00
	 5.00000000E-01	 2.50000000E-01	-5.96046000E-08
	 5.00000000E-01	-1.49012000E-08	 5.00000000E-01
	 5.00000000E-01	 2.50000000E-01	 1.00000000E+00
	-7.45058000E-09	 1.00000000E+00	-5.96046000E-08
	-7.45058000E-09	 5.00000000E-01	-5.96046000E-08
	-7.45058000E-09	 5.00000000E-01	 1.00000000E+00
	-7.45058000E-09	 1.00000000E+00	 1.00000000E+00
	 2.50000000E-01	 1.00000000E+00	-5.96046000E-08
	 2.50000000E-01	 5.00000000E-01	-5.96046000E-08
	 2.50000000E-01	 5.00000000E-01	 1.00000000E+00
	 2.50000000E-01	 1.00000000E+00	 1.00000000E+00
	-7.45058000E-09	 7.50000000E-01	-5.96046000E-08
	-7.45058000E-09	 5.00000000E-01	 5.00000000E-01
	-7.45058000E-09	 7.50000000E-01	 1.00000000E+00
	-7.45058000E-09	 1.00000000E+00	 5.00000000E-01
	-7.45058000E-09	-1.49012000E-08	-5.96046000E-08
	-7.45058000E-09	-1.49012000E-08	 1.00000000E+00
	 2.50000000E-01	-1.49012000E-08	-5.96046000E-08
	 2.50000000E-01	-1.49012000E-08	 1.00000000E+00
	-7.45058000E-09	 2.50000000E-01	-5.96046000E-08
	-7.45058000E-09	-1.49012000E-08	 5.00000000E-01
	-7.45058000E-09	 2.50000000E-01	 1.00000000E+00
	 1.00000000E+00	 5.00000000E-01	 2.00000000E+00
	 1.00000000E+00	 1.00000000E+00	 2.00000000E+00
	 5.00000000E-01	 5.00000000E-01	 2.00000000E+00
	 5.00000000E-01	 1.00000000E+00	 2.00000000E+00
	 1.00000000E+00	 5.00000000E-01	 1.50000000E+00
	 1.00000000E+00	 7.50000000E-01	 2.00000000E+00
	 1.00000000E+00	 1.00000000E+00	 1.50000000E+00
	 7.50000000E-01	 5.00000000E-01	 2.00000000E+00
	 7.50000000E-01	 1.00000000E+00	 2.00000000E+00
	 5.00000000E-01	 5.00000000E-01	 1.50000000E+00
	 5.00000000E-01	 7.50000000E-01	 2.00000000E+00
	 5.00000000E-01	 1.00000000E+00	 1.50000000E+00
	 1.00000000E+00	-1.49012000E-08	 2.00000000E+00
	 5.00000000E-01	-1.49012000E-08	 2.00000000E+00
	 1.00000000E+00	-1.49012000E-08	 1.50000000E+00
	 1.00000000E+00	 2.50000000E-01	 2.00000000E+00
	 7.50000000E-01	-1.49012000E-08	 2.00000000E+00
	 5.00000000E-01	-1.49012000E-08	 1.50000000E+00
	 5.00000000E-01	 2.50000000E-01	 2.00000000E+00
	-7.45058000E-09	 5.00000000E-01	 2.00000000E+00
	-7.45058000E-09	 1.00000000E+00	 2.00000000E+00
	 2.50000000E-01	 5.00000000E-01	 2.00000000E+00
	 2.50000000E-01	 1.00000000E+00	 2.00000000E+00
	-7.45058000E-09	 5.00000000E-01	 1.50000000E+00
	-7.45058000E-09	 7.50000000E-01	 2.00000000E+00
	-7.45058000E-09	 1.00000000E+00	 1.50000000E+00
	-7.45058000E-09	-1.49012000E-08	 2.00000000E+00
	 2.50000000E-01	-1.49012000E-08	 2.00000000E+00
	-7.45058000E-09	-1.49012000E-08	 1.50000000E+00
	-7.45058000E-09	 2.50000000E-01	 2.00000000E+00
	 1.00000000E+00	 5.00000000E-01	 3.00000000E+00
	 1.00000000E+00	 1.00000000E+00	 3.00000000E+00
	 5.00000000E-01	 5.00000000E-01	 3.00000000E+00
	 5.00000000E-01	 1.00000000E+00	 3.00000000E+00
	 1.00000000E+00	 5.00000000E-01	 2.50000000E+00
	 1.00000000E+00	 7.50000000E-01	 3.00000000E+00
	 1.00000000E+00	 1.00000000E+00	 2.50000000E+00
	 7.50000000E-01	 5.00000000E-01	 3.00000000E+00
	 7.50000000E-01	 1.00000000E+00	 3.00000000E+00
	 5.00000000E-01	 5.00000000E-01	 2.50000000E+00
	 5.00000000E-01	 7.50000000E-01	 3.00000000E+00
	 5.00000000E-01	 1.00000000E+00	 2.50000000E+00
	 1.00000000E+00	-1.49012000E-08	 3.00000000E+00
	 5.00000000E-01	-1.49012000E-08	 3.00000000E+00
	 1.00000000E+00	-1.49012000E-08	 2.50000000E+00
	 1.00000000E+00	 2.50000000E-01	 3.00000000E+00
	 7.50000000E-01	-1.49012000E-08	 3.00000000E+00
	 5.00000000E-01	-1.49012000E-08	 2.50000000E+00
	 5.00000000E-01	 2.50000000E-01	 3.00000000E+00
	-7.45058000E-09	 5.00000000E-01	 3.00000000E+00
	-7.45058000E-09	 1.00000000E+00	 3.00000000E+00
	 2.50000000E-01	 5.00000000E-01	 3.00000000E+00
	 2.50000000E-01	 1.00000000E+00	 3.00000000E+00
	-7.45058000E-09	 5.00000000E-01	 2.50000000E+00
	-7.45058000E-09	 7.50000000E-01	 3.00000000E+00
	-7.45058000E-09	 1.00000000E+00	 2.50000000E+00
	-7.45058000E-09	-1.49012000E-08	 3.00000000E+00
	 2.50000000E-01	-1.49012000E-08	 3.00000000E+00
	-7.45058000E-09	-1.49012000E-08	 2.50000000E+00
	-7.45058000E-09	 2.50000000E-01	 3.00000000E+00
	 1.00000000E+00	 5.00000000E-01	 4.00000000E+00
	 1.00000000E+00	 1.00000000E+00	 4.00000000E+00
	 5.00000000E-01	 5.00000000E-01	 4.00000000E+00
	 5.00000000E-01	 1.00000000E+00	 4.00000000E+00
	 1.00000000E+00	 5.00000000E-01	 3.50000000E+00
	 1.00000000E+00	 7.50000000E-01	 4.00000000E+00
	 1.00000000E+00	 1.00000000E+00	 3.50000000E+00
	 7.50000000E-01	 5.00000000E-01	 4.00000000E+00
	 7.50000000E-01	 1.00000000E+00	 4.00000000E+00
	 5.00000000E-01	 5.00000000E-01	 3.50000000E+00
	 5.00000000E-01	 7.50000000E-01	 4.00000000E+00
	 5.00000000E-01	 1.00000000E+00	 3.50000000E+00
	 1.00000000E+00	-1.49012000E-08	 4.00000000E+00
	 5.00000000E-01	-1.49012000E-08	 4.00000000E+00
	 1.00000000E+00	-1.49012000E-08	 3.50000000E+00
	 1.00000000E+00	 2.50000000E-01	 4.00000000E+00
	 7.50000000E-01	-1.49012000E-08	 4.00000000E+00
	 5.00000000E-01	-1.49012000E-08	 3.50000000E+00
	 5.00000000E-01	 2.50000000E-01	 4.00000000E+00
	-7.45058000E-09	 5.00000000E-01	 4.00000000E+00
	-7.45058000E-09	 1.00000000E+00	 4.00000000E+00
	 2.50000000E-01	 5.00000000E-01	 4.00000000E+00
	 2.50000000E-01	 1.00000000E+00	 4.00000000E+00
	-7.45058000E-09	 5.00000000E-01	 3.50000000E+00
	-7.45058000E-09	 7.50000000E-01	 4.00000000E+00
	-7.45058000E-09	 1.00000000E+00	 3.50000000E+00
	-7.45058000E-09	-1.49012000E-08	 4.00000000E+00
	 2.50000000E-01	-1.49012000E-08	 4.00000000E+00
	-7.45058000E-09	-1.49012000E-08	 3.50000000E+00
	-7.45058000E-09	 2.50000000E-01	 4.00000000E+00
	 1.00000000E+00	 5.00000000E-01	 5.00000000E+00
	 1.00000000E+00	 1.00000000E+00	 5.00000000E+00
	 5.00000000E-01	 5.00000000E-01	 5.00000000E+00
	 5.00000000E-01	 1.00000000E+00	 5.00000000E+00
	 1.00000000E+00	 5.00000000E-01	 4.50000000E+00
	 1.00000000E+00	 7.50000000E-01	 5.00000000E+00
	 1.00000000E+00	 1.00000000E+00	 4.50000000E+00
	 7.50000000E-01	 5.00000000E-01	 5.00000000E+00
	 7.50000000E-01	 1.00000000E+00	 5.00000000E+00
	 5.00000000E-01	 5.00000000E-01	 4.50000000E+00
	 5.00000000E-01	 7.50000000E-01	 5.00000000E+00
	 5.00000000E-01	 1.00000000E+00	 4.50000000E+00
	 1.00000000E+00	-1.49012000E-08	 5.00000000E+00
	 5.00000000E-01	-1.49012000E-08	 5.00000000E+00
	 1.00000000E+00	-1.49012000E-08	 4.50000000E+00
	 1.00000000E+00	 2.50000000E-01	 5.00000000E+00
	 7.50000000E-01	-1.49012000E-08	 5.00000000E+00
	 5.00000000E-01	-1.49012000E-08	 4.50000000E+00
	 5.00000000E-01	 2.50000000E-01	 5.00000000E+00
	-7.45058000E-09	 5.00000000E-01	 5.00000000E+00
	-7.45058000E-09	 1.00000000E+00	 5.00000000E+00
	 2.50000000E-01	 5.00000000E-01	 5.00000000E+00
	 2.50000000E-01	 1.00000000E+00	 5.00000000E+00
	-7.45058000E-09	 5.00000000E-01	 4.50000000E+00
	-7.45058000E-09	 7.50000000E-01	 5.00000000E+00
	-7.45058000E-09	 1.00000000E+00	 4.50000000E+00
	-7.45058000E-09	-1.49012000E-08	 5.00000000E+00
	 2.50000000E-01	-1.49012000E-08	 5.00000000E+00
	-7.45058000E-09	-1.49012000E-08	 4.50000000E+00
	-7.45058000E-09	 2.50000000E-01	 5.00000000E+00
	 1.00000000E+00	 5.00000000E-01	 6.00000000E+00
	 1.00000000E+00	 1.00000000E+00	 6.00000000E+00
	 5.00000000E-01	 5.00000000E-01	 6.00000000E+00
	 5.00000000E-01	 1.00000000E+00	 6.00000000E+00
	 1.00000000E+00	 5.00000000E-01	 5.50000000E+00
	 1.00000000E+00	 7.50000000E-01	 6.00000000E+00
	 1.00000000E+00	 1.00000000E+00	 5.50000000E+00
	 7.50000000E-01	 5.00000000E-01	 6.00000000E+00
	 7.50000000E-01	 1.00000000E+00	 6.00000000E+00
	 5.00000000E-01	 5.00000000E-01	 5.50000000E+00
	 5.00000000E-01	 7.50000000E-01	 6.00000000E+00
	 5.00000000E-01	 1.00000000E+00	 5.50000000E+00
	 1.00000000E+00	-1.49012000E-08	 6.00000000E+00
	 5.00000000E-01	-1.49012000E-08	 6.00000000E+00
	 1.00000000E+00	-1.49012000E-08	 5.50000000E+00
	 1.00000000E+00	 2.50000000E-01	 6.00000000E+00
	 7.50000000E-01	-1.49012000E-08	 6.00000000E+00
	 5.00000000E-01	-1.49012000E-08	 5.50000000E+00
	 5.00000000E-01	 2.50000000E-01	 6.00000000E+00
	-7.45058000E-09	 5.00000000E-01	 6.00000000E+00
	-7.45058000E-09	 1.00000000E+00	 6.00000000E+00
	 2.50000000E-01	 5.00000000E-01	 6.00000000E+00
	 2.50000000E-01	 1.00000000E+00	 6.00000000E+00
	-7.45058000E-09	 5.00000000E-01	 5.50000000E+00
	-7.45058000E-09	 7.50000000E-01	 6.00000000E+00
	-7.45058000E-09	 1.00000000E+00	 5.50000000E+00
	-7.45058000E-09	-1.49012000E-08	 6.00000000E+00
	 2.50000000E-01	-1.49012000E-08	 6.00000000E+00
	-7.45058000E-09	-1.49012000E-08	 5.50000000E+00
	-7.45058000E-09	 2.50000000E-01	 6.00000000E+00
	 1.00000000E+00	 5.00000000E-01	 7.00000000E+00
[...]
POINT_DATA 522
FIELD U 1
	U 3 522 double
		 0.00000000E+00	 0.00000000E+00	 0.00000000E+00
		 0.00000000E+00	 0.00000000E+00	 0.00000000E+00
		-1.79986000E-05	 6.88540000E-03	-9.06041000E-05
		-6.83162000E-04	 7.06803000E-03	-4.61552000E-03
		 0.00000000E+00	 0.00000000E+00	 0.00000000E+00
		 0.00000000E+00	 0.00000000E+00	 0.00000000E+00
		-2.81306000E-05	 5.97318000E-03	-9.42588000E-05
		-1.18482000E-03	 6.17903000E-03	-4.68841000E-03
		 0.00000000E+00	 0.00000000E+00	 0.00000000E+00
		-2.27875000E-07	 2.13752000E-03	-3.40581000E-05
		-3.51843000E-04	 6.88348000E-03	-2.14581000E-03
		 1.28749000E-04	 2.49093000E-03	-2.48412000E-03
		 0.00000000E+00	 0.00000000E+00	 0.00000000E+00
		 0.00000000E+00	 0.00000000E+00	 0.00000000E+00
		-2.32720000E-05	 6.51722000E-03	-9.41806000E-05
		-9.37050000E-04	 6.71326000E-03	-4.76812000E-03
		 0.00000000E+00	 0.00000000E+00	 0.00000000E+00
		-1.22954000E-05	 1.85661000E-03	-3.82933000E-05
		-6.05439000E-04	 5.97866000E-03	-2.29257000E-03
		-5.89904000E-04	 2.24146000E-03	-2.43752000E-03
		 0.00000000E+00	 0.00000000E+00	 0.00000000E+00
		 6.43509000E-04	 7.09380000E-03	 4.42884000E-03
		 0.00000000E+00	 0.00000000E+00	 0.00000000E+00
		 1.12770000E-03	 6.20798000E-03	 4.49310000E-03
		 0.00000000E+00	 0.00000000E+00	 0.00000000E+00
		-1.30136000E-04	 2.48890000E-03	 2.40923000E-03
		 3.14036000E-04	 6.89349000E-03	 1.96427000E-03
		 0.00000000E+00	 0.00000000E+00	 0.00000000E+00
		 8.89014000E-04	 6.74282000E-03	 4.57256000E-03
		 0.00000000E+00	 0.00000000E+00	 0.00000000E+00
		 5.65588000E-04	 2.23762000E-03	 2.35403000E-03
		 5.48818000E-04	 5.99220000E-03	 2.10241000E-03
		 0.00000000E+00	 0.00000000E+00	 0.00000000E+00
		 0.00000000E+00	 0.00000000E+00	 0.00000000E+00
		-3.59972000E-05	 4.57321000E-03	-9.12030000E-05
		-1.67338000E-03	 4.76408000E-03	-4.61683000E-03
		 0.00000000E+00	 0.00000000E+00	 0.00000000E+00
		 0.00000000E+00	 0.00000000E+00	 0.00000000E+00
		-3.22450000E-05	 5.36351000E-03	-9.24453000E-05
		-1.42522000E-03	 5.55898000E-03	-4.56010000E-03
		 0.00000000E+00	 0.00000000E+00	 0.00000000E+00
		-2.44731000E-05	 9.82002000E-04	-4.18729000E-05
		-8.57537000E-04	 4.57494000E-03	-2.35320000E-03
		-1.26510000E-03	 1.37975000E-03	-2.49312000E-03
		 0.00000000E+00	 0.00000000E+00	 0.00000000E+00
		 1.60363000E-03	 4.79515000E-03	 4.42829000E-03
		 0.00000000E+00	 0.00000000E+00	 0.00000000E+00
		 1.36074000E-03	 5.58840000E-03	 4.36961000E-03
		 0.00000000E+00	 0.00000000E+00	 0.00000000E+00
		 1.21814000E-03	 1.37616000E-03	 2.40104000E-03
		 7.86347000E-04	 4.59091000E-03	 2.16885000E-03
		-5.06212000E-05	 2.05935000E-02	-2.59588000E-04
		-1.88722000E-03	 2.07019000E-02	-7.45276000E-03
		-5.66772000E-05	 1.86115000E-02	-2.42162000E-04
		-2.19110000E-03	 1.87133000E-02	-7.45370000E-03
		-3.45179000E-05	 1.31510000E-02	-1.66696000E-04
		-9.65114000E-04	 2.06205000E-02	-3.76021000E-03
		-1.34222000E-03	 1.33553000E-02	-6.20491000E-03
		-5.42492000E-05	 1.96352000E-02	-2.51606000E-04
		-2.03946000E-03	 1.97352000E-02	-7.51602000E-03
		-4.30244000E-05	 1.16634000E-02	-1.60427000E-04
		-1.12479000E-03	 1.86351000E-02	-3.81438000E-03
		-1.73221000E-03	 1.18504000E-02	-6.22327000E-03
		 1.78452000E-03	 2.07919000E-02	 6.92772000E-03
		 2.07586000E-03	 1.88074000E-02	 6.96369000E-03
		 1.27017000E-03	 1.34118000E-02	 5.86353000E-03
		 8.63720000E-04	 2.06624000E-02	 3.23971000E-03
		 1.92958000E-03	 1.98291000E-02	 7.00695000E-03
		 1.64486000E-03	 1.19113000E-02	 5.89446000E-03
		 1.01124000E-03	 1.86807000E-02	 3.32868000E-03
		-5.96243000E-05	 1.63270000E-02	-2.19401000E-04
		-2.50666000E-03	 1.64159000E-02	-7.41212000E-03
		-5.84834000E-05	 1.74997000E-02	-2.31434000E-04
		-2.35073000E-03	 1.75984000E-02	-7.38807000E-03
		-4.92390000E-05	 9.77446000E-03	-1.48382000E-04
		-1.28197000E-03	 1.63414000E-02	-3.82742000E-03
		-2.14017000E-03	 9.95502000E-03	-6.18666000E-03
		 2.38460000E-03	 1.65160000E-02	 6.96828000E-03
		 2.23129000E-03	 1.76937000E-02	 6.92022000E-03
		 2.04166000E-03	 1.00192000E-02	 5.88204000E-03
		 1.16231000E-03	 1.63914000E-02	 3.38731000E-03
		-7.41592000E-05	 3.79408000E-02	-4.81532000E-04
		-2.73258000E-03	 3.79312000E-02	-9.12470000E-03
		-7.50195000E-05	 3.52282000E-02	-4.41209000E-04
		-2.84810000E-03	 3.52141000E-02	-9.10863000E-03
		-6.41331000E-05	 2.89227000E-02	-3.65839000E-04
		-1.40340000E-03	 3.79202000E-02	-4.70814000E-03
		-2.34099000E-03	 2.89737000E-02	-8.42885000E-03
		-7.49055000E-05	 3.66017000E-02	-4.61377000E-04
		-2.79059000E-03	 3.65888000E-02	-9.16451000E-03
		-6.75996000E-05	 2.65408000E-02	-3.36506000E-04
		-1.46162000E-03	 3.52039000E-02	-4.72489000E-03
		-2.56153000E-03	 2.65840000E-02	-8.42029000E-03
		 2.58292000E-03	 3.80753000E-02	 8.16092000E-03
		 2.69585000E-03	 3.53622000E-02	 8.22529000E-03
		 2.21108000E-03	 2.90926000E-02	 7.69337000E-03
		 1.25468000E-03	 3.79888000E-02	 3.74492000E-03
		 2.63921000E-03	 3.67364000E-02	 8.24088000E-03
		 2.42397000E-03	 2.67079000E-02	 7.74378000E-03
		 1.31098000E-03	 3.52760000E-02	 3.84228000E-03
		-7.41458000E-05	 3.23975000E-02	-3.98280000E-04
		-2.96968000E-03	 3.23759000E-02	-9.04169000E-03
		-7.46691000E-05	 3.38294000E-02	-4.20444000E-04
		-2.90938000E-03	 3.38136000E-02	-9.05576000E-03
		-6.83947000E-05	 2.39377000E-02	-3.02908000E-04
		-1.52015000E-03	 3.23694000E-02	-4.69301000E-03
		-2.78959000E-03	 2.39734000E-02	-8.36563000E-03
		 2.81856000E-03	 3.25283000E-02	 8.24420000E-03
		 2.75723000E-03	 3.39630000E-02	 8.21380000E-03
		 2.64936000E-03	 2.41031000E-02	 7.75659000E-03
		 1.37114000E-03	 3.24446000E-02	 3.89638000E-03
		-8.97677000E-05	 5.64817000E-02	-7.04454000E-04
		-3.27282000E-03	 5.63677000E-02	-9.39035000E-03
		-8.60563000E-05	 5.33524000E-02	-6.52551000E-04
		-3.17916000E-03	 5.32308000E-02	-9.34936000E-03
		-8.24128000E-05	 4.72768000E-02	-5.96845000E-04
		-1.67836000E-03	 5.64405000E-02	-5.00310000E-03
		-3.04530000E-03	 4.72127000E-02	-9.41996000E-03
		-8.79034000E-05	 5.49041000E-02	-6.78638000E-04
		-3.22578000E-03	 5.47835000E-02	-9.39104000E-03
		-8.08668000E-05	 4.43192000E-02	-5.49523000E-04
		-1.63257000E-03	 5.33083000E-02	-4.97637000E-03
		-3.04451000E-03	 4.42468000E-02	-9.39670000E-03
		 3.09340000E-03	 5.65266000E-02	 7.98449000E-03
		 3.00706000E-03	 5.33899000E-02	 8.04756000E-03
		 2.88002000E-03	 4.73703000E-02	 8.22784000E-03
		 1.49878000E-03	 5.65184000E-02	 3.59481000E-03
		 3.05011000E-03	 5.49432000E-02	 8.03710000E-03
		 2.88174000E-03	 4.44062000E-02	 8.29913000E-03
		 1.46041000E-03	 5.33869000E-02	 3.67196000E-03
		-8.20608000E-05	 5.02965000E-02	-6.00662000E-04
		-3.08450000E-03	 5.01833000E-02	-9.28693000E-03
		-8.40827000E-05	 5.18117000E-02	-6.26416000E-04
		-3.13194000E-03	 5.16915000E-02	-9.31121000E-03
		-7.84929000E-05	 4.13514000E-02	-5.01265000E-04
		-1.58663000E-03	 5.02553000E-02	-4.92747000E-03
		-3.05125000E-03	 4.12773000E-02	-9.32481000E-03
		 2.92006000E-03	 5.03424000E-02	 8.08858000E-03
		 2.96362000E-03	 5.18503000E-02	 8.06151000E-03
		 2.89275000E-03	 4.14381000E-02	 8.32348000E-03
		 1.42234000E-03	 5.03342000E-02	 3.72675000E-03
		-8.66467000E-05	 7.33931000E-02	-8.81263000E-04
		-3.57071000E-03	 7.33106000E-02	-9.00288000E-03
		-7.76256000E-05	 6.99228000E-02	-8.17506000E-04
		-3.54307000E-03	 6.98383000E-02	-8.91931000E-03
		-9.19828000E-05	 6.51697000E-02	-7.99285000E-04
		-1.82810000E-03	 7.33552000E-02	-4.95846000E-03
		-3.41833000E-03	 6.50650000E-02	-9.15175000E-03
		-8.22530000E-05	 7.16546000E-02	-8.49082000E-04
		-3.55661000E-03	 7.15706000E-02	-8.98781000E-03
		-8.58017000E-05	 6.18913000E-02	-7.41985000E-04
		-1.81001000E-03	 6.98842000E-02	-4.91488000E-03
		-3.32596000E-03	 6.17843000E-02	-9.08667000E-03
		 3.39660000E-03	 7.34609000E-02	 7.24274000E-03
		 3.38755000E-03	 6.99892000E-02	 7.28666000E-03
		 3.23409000E-03	 6.52171000E-02	 7.55599000E-03
		 1.65464000E-03	 7.34310000E-02	 3.19644000E-03
		 3.39156000E-03	 7.17222000E-02	 7.29200000E-03
		 3.15434000E-03	 6.19366000E-02	 7.60555000E-03
		 1.65474000E-03	 6.99612000E-02	 3.28036000E-03
		-6.77525000E-05	 6.64643000E-02	-7.52843000E-04
		-3.51131000E-03	 6.63847000E-02	-8.87504000E-03
		-7.28172000E-05	 6.81912000E-02	-7.85649000E-04
		-3.52723000E-03	 6.81076000E-02	-8.84228000E-03
		-7.92938000E-05	 5.86907000E-02	-6.84404000E-04
		-1.79171000E-03	 6.64271000E-02	-4.91273000E-03
		-3.22130000E-03	 5.85982000E-02	-9.03756000E-03
		 3.37577000E-03	 6.65368000E-02	 7.37146000E-03
		 3.38157000E-03	 6.82574000E-02	 7.27323000E-03
		 3.06255000E-03	 5.87507000E-02	 7.67107000E-03
		 1.65622000E-03	 6.65063000E-02	 3.40749000E-03
		-6.86561000E-05	 8.99725000E-02	-1.03062000E-03
		-3.89841000E-03	 8.99639000E-02	-9.74805000E-03
		-5.45175000E-05	 8.60570000E-02	-9.56875000E-04
		-4.05174000E-03	 8.60489000E-02	-9.66673000E-03
		-7.66502000E-05	 8.14974000E-02	-9.55167000E-04
		-1.98509000E-03	 8.99439000E-02	-5.37822000E-03
		-3.73268000E-03	 8.14550000E-02	-9.23017000E-03
		-6.17233000E-05	 8.80379000E-02	-9.94211000E-04
		-3.97539000E-03	 8.80297000E-02	-9.73505000E-03
		-6.51414000E-05	 7.77963000E-02	-8.85716000E-04
		-2.05395000E-03	 8.60268000E-02	-5.32865000E-03
		-3.81238000E-03	 7.77543000E-02	-9.13893000E-03
		 3.75994000E-03	 9.01454000E-02	 7.68320000E-03
		 3.94139000E-03	 8.62328000E-02	 7.74917000E-03
		 3.57824000E-03	 8.16165000E-02	 7.32020000E-03
		 1.84737000E-03	 9.00349000E-02	 3.31605000E-03
		 3.85085000E-03	 8.82131000E-02	 7.74302000E-03
		 3.68125000E-03	 7.79173000E-02	 7.36775000E-03
		 1.94470000E-03	 8.61199000E-02	 3.41404000E-03
		-3.86289000E-05	 8.19826000E-02	-8.78813000E-04
		-4.21394000E-03	 8.19607000E-02	-9.59591000E-03
		-4.68175000E-05	 8.40421000E-02	-9.18470000E-04
		-4.13376000E-03	 8.40322000E-02	-9.59575000E-03
		-5.22459000E-05	 7.40063000E-02	-8.14002000E-04
		-2.12198000E-03	 8.19456000E-02	-5.28954000E-03
		-3.89508000E-03	 7.39578000E-02	-9.08930000E-03
		 4.13564000E-03	 8.21481000E-02	 7.83475000E-03
		 4.03873000E-03	 8.42166000E-02	 7.75515000E-03
		 3.79008000E-03	 7.41236000E-02	 7.46163000E-03
		 2.04470000E-03	 8.20416000E-02	 3.53101000E-03
		-6.93025000E-05	 1.08832000E-01	-1.21841000E-03
		-4.10231000E-03	 1.08780000E-01	-1.10021000E-02
		-5.26803000E-05	 1.04749000E-01	-1.13560000E-03
		-4.19142000E-03	 1.04693000E-01	-1.09297000E-02
		-6.72328000E-05	 9.91154000E-02	-1.11704000E-03
		-2.08560000E-03	 1.08792000E-01	-6.08315000E-03
		-4.04328000E-03	 9.90903000E-02	-1.04135000E-02
		-6.17696000E-05	 1.06804000E-01	-1.17772000E-03
		-4.14823000E-03	 1.06749000E-01	-1.09674000E-02
		-5.10940000E-05	 9.50640000E-02	-1.03977000E-03
		-2.12284000E-03	 1.04708000E-01	-6.00329000E-03
		-4.18301000E-03	 9.50340000E-02	-1.03432000E-02
		 3.96172000E-03	 1.08997000E-01	 8.56371000E-03
		 4.08489000E-03	 1.04914000E-01	 8.65732000E-03
		 3.90838000E-03	 9.92924000E-02	 8.17416000E-03
		 1.94658000E-03	 1.08899000E-01	 3.64673000E-03
		 4.02301000E-03	 1.06969000E-01	 8.61013000E-03
		 4.07983000E-03	 9.52386000E-02	 8.25856000E-03
		 2.01740000E-03	 1.04817000E-01	 3.73221000E-03
		-3.29676000E-05	 1.00559000E-01	-1.05205000E-03
		-4.28409000E-03	 1.00497000E-01	-1.08300000E-02
		-4.28281000E-05	 1.02668000E-01	-1.09371000E-03
		-4.23778000E-03	 1.02610000E-01	-1.08978000E-02
		-3.24573000E-05	 9.08570000E-02	-9.57892000E-04
		-2.15763000E-03	 1.00516000E-01	-5.89467000E-03
		-4.33870000E-03	 9.08104000E-02	-1.02524000E-02
		 4.21734000E-03	 1.00722000E-01	 8.72521000E-03
		 4.15142000E-03	 1.02834000E-01	 8.70914000E-03
		 4.27235000E-03	 9.10189000E-02	 8.33227000E-03
		 2.09158000E-03	 1.00625000E-01	 3.79110000E-03
		-4.99296000E-05	 1.29014000E-01	-1.43826000E-03
		-4.09688000E-03	 1.28902000E-01	-1.15030000E-02
		-4.19897000E-05	 1.24969000E-01	-1.34263000E-03
		-4.08816000E-03	 1.24850000E-01	-1.14091000E-02
		-6.47602000E-05	 1.18891000E-01	-1.33014000E-03
		-2.07055000E-03	 1.28960000E-01	-6.46737000E-03
		-4.10628000E-03	 1.18804000E-01	-1.13387000E-02
		-4.50423000E-05	 1.26992000E-01	-1.38888000E-03
		-4.09116000E-03	 1.26875000E-01	-1.14543000E-02
		-5.01521000E-05	 1.14833000E-01	-1.23903000E-03
		-2.06286000E-03	 1.24912000E-01	-6.37015000E-03
		-4.13248000E-03	 1.14740000E-01	-1.12537000E-02
		 3.98800000E-03	 1.29143000E-01	 8.63769000E-03
		 4.00356000E-03	 1.25102000E-01	 8.73501000E-03
		 3.97042000E-03	 1.19031000E-01	 8.68513000E-03
		 1.96855000E-03	 1.29081000E-01	 3.59378000E-03
		 3.99514000E-03	 1.27123000E-01	 8.68756000E-03
		 4.03120000E-03	 1.14975000E-01	 8.78252000E-03
		 1.97869000E-03	 1.25039000E-01	 3.68771000E-03
		-3.30715000E-05	 1.20907000E-01	-1.25736000E-03
		-4.06705000E-03	 1.20800000E-01	-1.13034000E-02
		-3.86245000E-05	 1.22935000E-01	-1.29912000E-03
		-4.07906000E-03	 1.22820000E-01	-1.13628000E-02
		-3.40034000E-05	 1.10730000E-01	-1.15473000E-03
		-2.05057000E-03	 1.20856000E-01	-6.26631000E-03
		-4.15395000E-03	 1.10640000E-01	-1.11499000E-02
		 4.00849000E-03	 1.21042000E-01	 8.79932000E-03
		 4.00641000E-03	 1.23070000E-01	 8.77518000E-03
		 4.08990000E-03	 1.10871000E-01	 8.84740000E-03
		 1.98629000E-03	 1.20977000E-01	 3.75470000E-03
		 0.00000000E+00	 0.00000000E+00	 0.00000000E+00
		 0.00000000E+00	 0.00000000E+00	 0.00000000E+00
		-2.59067000E-05	-6.71659000E-03	 1.71915000E-04
		-9.42444000E-04	-7.05886000E-03	 5.87171000E-03
		 0.00000000E+00	 0.00000000E+00	 0.00000000E+00
		 0.00000000E+00	 0.00000000E+00	 0.00000000E+00
		 6.15483000E-06	-7.31378000E-03	 1.58349000E-04
		-2.69357000E-04	-7.67792000E-03	 5.93889000E-03
		 0.00000000E+00	 0.00000000E+00	 0.00000000E+00
		-2.37731000E-05	-1.72768000E-03	 8.51402000E-05
		-4.85986000E-04	-6.76587000E-03	 2.93620000E-03
		-1.00163000E-03	-2.25311000E-03	 3.13479000E-03
		 0.00000000E+00	 0.00000000E+00	 0.00000000E+00
		 0.00000000E+00	 0.00000000E+00	 0.00000000E+00
		-9.26201000E-06	-7.13116000E-03	 1.64590000E-04
		-6.00141000E-04	-7.48329000E-03	 5.88591000E-03
		 0.00000000E+00	 0.00000000E+00	 0.00000000E+00
		 4.59460000E-06	-2.22237000E-03	 7.46462000E-05
		-1.32615000E-04	-7.36916000E-03	 2.93735000E-03
		-1.13499000E-04	-2.75061000E-03	 3.05723000E-03
		 0.00000000E+00	 0.00000000E+00	 0.00000000E+00
		 8.91170000E-04	-6.92096000E-03	-5.53964000E-03
		 0.00000000E+00	 0.00000000E+00	 0.00000000E+00
		 2.85036000E-04	-7.54034000E-03	-5.63647000E-03
		 0.00000000E+00	 0.00000000E+00	 0.00000000E+00
		 9.52282000E-04	-2.16269000E-03	-2.95912000E-03
		 4.34521000E-04	-6.69791000E-03	-2.59750000E-03
		 0.00000000E+00	 0.00000000E+00	 0.00000000E+00
		 5.83616000E-04	-7.34419000E-03	-5.56946000E-03
		 0.00000000E+00	 0.00000000E+00	 0.00000000E+00
		 1.24138000E-04	-2.66330000E-03	-2.90164000E-03
		 1.44482000E-04	-7.30151000E-03	-2.62704000E-03
		 0.00000000E+00	 0.00000000E+00	 0.00000000E+00
		 0.00000000E+00	 0.00000000E+00	 0.00000000E+00
		 3.47041000E-05	-7.27020000E-03	 1.51689000E-04
		 4.06144000E-04	-7.60359000E-03	 5.85211000E-03
		 0.00000000E+00	 0.00000000E+00	 0.00000000E+00
		 0.00000000E+00	 0.00000000E+00	 0.00000000E+00
		 2.08909000E-05	-7.40787000E-03	 1.51695000E-04
		 6.38180000E-05	-7.75121000E-03	 5.93251000E-03
		 0.00000000E+00	 0.00000000E+00	 0.00000000E+00
		 3.11532000E-05	-1.96463000E-03	 8.13839000E-05
		 2.21383000E-04	-7.31490000E-03	 2.85637000E-03
		 7.82892000E-04	-2.47808000E-03	 3.13105000E-03
		 0.00000000E+00	 0.00000000E+00	 0.00000000E+00
		-3.34931000E-04	-7.47279000E-03	-5.56196000E-03
		 0.00000000E+00	 0.00000000E+00	 0.00000000E+00
		-2.03774000E-05	-7.62168000E-03	-5.64334000E-03
		 0.00000000E+00	 0.00000000E+00	 0.00000000E+00
		-7.19366000E-04	-2.39005000E-03	-2.96406000E-03
		-1.51252000E-04	-7.25144000E-03	-2.55832000E-03
		-6.19407000E-05	-2.24820000E-02	 2.80763000E-04
		-1.28699000E-03	-2.28108000E-02	 9.59122000E-03
		-2.73062000E-05	-2.35064000E-02	 2.21176000E-04
		-8.46962000E-04	-2.38213000E-02	 9.55930000E-03
		-3.40764000E-05	-1.37499000E-02	 2.38451000E-04
		-6.77886000E-04	-2.26044000E-02	 4.92451000E-03
		-1.06743000E-03	-1.41470000E-02	 7.96495000E-03
		-4.42637000E-05	-2.30383000E-02	 2.49436000E-04
		-1.06576000E-03	-2.33551000E-02	 9.53827000E-03
		-2.28036000E-06	-1.45286000E-02	 2.05271000E-04
		-4.31607000E-04	-2.36205000E-02	 4.84436000E-03
		-5.06934000E-04	-1.49077000E-02	 7.96187000E-03
		 1.17397000E-03	-2.25571000E-02	-9.04270000E-03
		 7.95204000E-04	-2.35910000E-02	-9.12850000E-03
		 1.00263000E-03	-1.39502000E-02	-7.50205000E-03
		 5.56196000E-04	-2.24775000E-02	-4.36694000E-03
		 9.86576000E-04	-2.31190000E-02	-9.04892000E-03
		 5.07802000E-04	-1.47243000E-02	-7.56623000E-03
		 3.82324000E-04	-2.35071000E-02	-4.40187000E-03
		-4.90476000E-06	-2.41231000E-02	 1.69039000E-04
		-3.81282000E-04	-2.44028000E-02	 9.47806000E-03
		-1.51014000E-05	-2.38545000E-02	 1.95353000E-04
		-6.11485000E-04	-2.41874000E-02	 9.57966000E-03
		 2.36631000E-05	-1.47666000E-02	 1.80264000E-04
		-2.02187000E-04	-2.42151000E-02	 4.71786000E-03
		 6.56168000E-05	-1.51316000E-02	 7.90624000E-03
		 4.02243000E-04	-2.42049000E-02	-9.15283000E-03
		 5.98645000E-04	-2.39434000E-02	-9.20441000E-03
		-1.28193000E-06	-1.49676000E-02	-7.55962000E-03
		 2.00603000E-04	-2.41197000E-02	-4.37843000E-03
		-1.68450000E-04	-4.35093000E-02	 2.73990000E-04
		-2.00919000E-03	-4.36781000E-02	 1.14207000E-02
		-1.35105000E-04	-4.52590000E-02	 1.71235000E-04
		-1.84348000E-03	-4.55282000E-02	 1.13544000E-02
		-1.06476000E-04	-3.25294000E-02	 2.93743000E-04
		-1.08450000E-03	-4.35748000E-02	 5.82230000E-03
		-1.60401000E-03	-3.28050000E-02	 1.07622000E-02
		-1.49685000E-04	-4.44043000E-02	 2.26543000E-04
		-1.92811000E-03	-4.46353000E-02	 1.13250000E-02
		-7.37405000E-05	-3.38845000E-02	 2.08213000E-04
		-1.01352000E-03	-4.53779000E-02	 5.66074000E-03
		-1.29102000E-03	-3.41596000E-02	 1.07136000E-02
		 1.64128000E-03	-4.34110000E-02	-1.08616000E-02
		 1.57616000E-03	-4.51797000E-02	-1.10348000E-02
		 1.39232000E-03	-3.25199000E-02	-1.01836000E-02
		 7.36571000E-04	-4.34453000E-02	-5.26395000E-03
		 1.60784000E-03	-4.43090000E-02	-1.08893000E-02
		 1.15230000E-03	-3.38749000E-02	-1.03066000E-02
		 7.20610000E-04	-4.52095000E-02	-5.33912000E-03
		-1.15746000E-04	-4.69099000E-02	 6.55239000E-05
		-1.77626000E-03	-4.72840000E-02	 1.12095000E-02
		-1.23730000E-04	-4.61133000E-02	 1.15876000E-04
		-1.81069000E-03	-4.63094000E-02	 1.13978000E-02
		-4.24937000E-05	-3.49640000E-02	 1.26505000E-04
		-9.17474000E-04	-4.70851000E-02	 5.41759000E-03
		-1.00241000E-03	-3.52485000E-02	 1.05985000E-02
		 1.50506000E-03	-4.68575000E-02	-1.11278000E-02
		 1.54136000E-03	-4.60295000E-02	-1.11901000E-02
		 8.84399000E-04	-3.49487000E-02	-1.03568000E-02
		 6.88250000E-04	-4.68835000E-02	-5.33154000E-03
		-2.82698000E-04	-6.55746000E-02	 1.97498000E-04
		-2.95095000E-03	-6.54793000E-02	 1.06561000E-02
		-2.57908000E-04	-6.84432000E-02	 7.43896000E-05
		-3.32478000E-03	-6.87929000E-02	 1.05492000E-02
		-2.58329000E-04	-5.47865000E-02	 2.37012000E-04
		-1.62067000E-03	-6.55668000E-02	 5.45684000E-03
		-2.46694000E-03	-5.49217000E-02	 1.13160000E-02
		-2.68368000E-04	-6.69367000E-02	 1.37329000E-04
		-3.12769000E-03	-6.70062000E-02	 1.05432000E-02
		-2.34034000E-04	-5.70952000E-02	 7.75319000E-05
		-1.66900000E-03	-6.86447000E-02	 5.27698000E-03
		-2.60453000E-03	-5.71626000E-02	 1.12770000E-02
		 2.22296000E-03	-6.53198000E-02	-1.02566000E-02
		 2.51899000E-03	-6.80313000E-02	-1.03927000E-02
		 1.93038000E-03	-5.46020000E-02	-1.08387000E-02
		 9.71752000E-04	-6.54925000E-02	-5.05965000E-03
		 2.37513000E-03	-6.66317000E-02	-1.02638000E-02
		 2.07291000E-03	-5.68675000E-02	-1.10161000E-02
		 1.11798000E-03	-6.82574000E-02	-5.12752000E-03
		-3.77643000E-04	-7.16000000E-02	-5.81783000E-05
		-3.57319000E-03	-7.23153000E-02	 1.04043000E-02
		-3.15436000E-04	-6.99466000E-02	 8.59318000E-06
		-3.44773000E-03	-7.09990000E-02	 1.05575000E-02
		-2.41155000E-04	-5.95104000E-02	-1.14456000E-04
		-2.09036000E-03	-7.19660000E-02	 5.05833000E-03
		-2.58089000E-03	-5.94560000E-02	 1.11033000E-02
		 2.82834000E-03	-7.10487000E-02	-1.05095000E-02