# vtk DataFile Version 3.0

ASCII
DATASET UNSTRUCTURED_GRID

POINTS 522 double
	 1.00000000E+00	 1.00000000E+00	-5.96046000E-08
	 1.00000000E+00	 5.00000000E-01	-5.96046000E-08
	 1.00000000E+00	 5.00000000E-01	 1.00000000E+00
	 1.00000000E+00	 1.00000000E+00	 1.00000000E+00
	 5.00000000E-01	 1.00000000E+00	-5.96046000E-08
	 5.00000000E-01	 5.00000000E-01	-5.96046000E-08
	 5.00000000E-01	 5.00000000E-01	 1.00000000E+00
	 5.00000000E-01	 1.00000000E+00	 1.00000000E+00
	 1.00000000E+00	 7.50000000E-01	-5.96046000E-08
	 1.00000000E+00	 5.00000000E-01	 5.00000000E-01
	 1.00000000E+00	 7.50000000E-01	 1.00000000E+00
	 1.00000000E+00	 1.00000000E+00	 5.00000000E-01
	 7.50000000E-01	 1.00000000E+00	-5.96046000E-08
	 7.50000000E-01	 5.00000000E-01	-5.96046000E-08
	 7.50000000E-01	 5.00000000E-01	 1.00000000E+00
	 7.50000000E-01	 1.00000000E+00	 1.00000000E+00
	 5.00000000E-01	 7.50000000E-01	-5.96046000E-08
	 5.00000000E-01	 5.00000000E-01	 5.00000000E-01
	 5.00000000E-01	 7.50000000E-01	 1.00000000E+00
	 5.00000000E-01	 1.00000000E+00	 5.00000000E-01
	 1.00000000E+00	-1.49012000E-08	-5.96046000E-08
	 1.00000000E+00	-1.49012000E-08	 1.00000000E+00
	 5.00000000E-01	-1.49012000E-08	-5.96046000E-08
	 5.00000000E-01	-1.49012000E-08	 1.00000000E+00
	 1.00000000E+00	 2.50000000E-01	-5.96046000E-08
	 1.00000000E+00	-1.49012000E-08	 5.00000000E-01
	 1.00000000E+00	 2.50000000E-01	 1.00000000E+00
	 7.50000000E-01	-1.49012000E-08	-5.96046000E-08
	 7.50000000E-01	-1.49012000E-08	 1.00000000E+00
	 5.00000000E-01	 2.50000000E-01	-5.96046000E-08
	 5.00000000E-01	-1.49012000E-08	 5.00000000E-01
	 5.00000000E-01	 2.50000000E-01	 1.00000000E+00
	-7.45058000E-09	 1.00000000E+00	-5.96046000E-08
	-7.45058000E-09	 5.00000000E-01	-5.96046000E-08
	-7.45058000E-09	 5.00000000E-01	 1.00000000E+00
	-7.45058000E-09	 1.00000000E+00	 1.00000000E+00
	 2.50000000E-01	 1.00000000E+00	-5.96046000E-08
	 2.50000000E-01	 5.00000000E-01	-5.96046000E-08
	 2.50000000E-01	 5.00000000E-01	 1.00000000E+00
	 2.50000000E-01	 1.00000000E+00	 1.00000000E+00
	-7.45058000E-09	 7.50000000E-01	-5.96046000E-08
	-7.45058000E-09	 5.00000000E-01	 5.00000000E-01
	-7.45058000E-09	 7.50000000E-01	 1.00000000E+00
	-7.45058000E-09	 1.00000000E+00	 5.00000000E-01
	-7.45058000E-09	-1.49012000E-08	-5.96046000E-08
	-7.45058000E-09	-1.49012000E-08	 1.00000000E+00
	 2.50000000E-01	-1.49012000E-08	-5.96046000E-08
	 2.50000000E-01	-1.49012000E-08	 1.00000000E+00
	-7.45058000E-09	 2.50000000E-01	-5.96046000E-08
	-7.45058000E-09	-1.49012000E-08	 5.00000000E-01
	-7.45058000E-09	 2.50000000E-01	 1.00000000E+00
	 1.00000000E+00	 5.00000000E-01	 2.00000000E+00
	 1.00000000E+00	 1.00000000E+00	 2.00000000E+00
	 5.00000000E-01	 5.00000000E-01	 2.00000000E+00
	 5.00000000E-01	 1.00000000E+00	 2.00000000E+00
	 1.00000000E+00	 5.00000000E-01	 1.50000000E+00
	 1.00000000E+00	 7.50000000E-01	 2.00000000E+00
	 1.00000000E+00	 1.00000000E+00	 1.50000000E+00
	 7.50000000E-01	 5.00000000E-01	 2.00000000E+00
	 7.50000000E-01	 1.00000000E+00	 2.00000000E+00
	 5.00000000E-01	 5.00000000E-01	 1.50000000E+00
	 5.00000000E-01	 7.50000000E-01	 2.00000000E+00
	 5.00000000E-01	 1.00000000E+00	 1.50000000E+00
	 1.00000000E+00	-1.49012000E-08	 2.00000000E+00
	 5.00000000E-01	-1.49012000E-08	 2.00000000E+00
	 1.00000000E+00	-1.49012000E-08	 1.50000000E+00
	 1.00000000E+00	 2.50000000E-01	 2.00000000E+00
	 7.50000000E-01	-1.49012000E-08	 2.00000000E+00
	 5.00000000E-01	-1.49012000E-08	 1.50000000E+00
	 5.00000000E-01	 2.50000000E-01	 2.00000000E+00
	-7.45058000E-09	 5.00000000E-01	 2.00000000E+00
	-7.45058000E-09	 1.00000000E+00	 2.00000000E+00
	 2.50000000E-01	 5.00000000E-01	 2.00000000E+00
	 2.50000000E-01	 1.00000000E+00	 2.00000000E+00
	-7.45058000E-09	 5.00000000E-01	 1.50000000E+00
	-7.45058000E-09	 7.50000000E-01	 2.00000000E+00
	-7.45058000E-09	 1.00000000E+00	 1.50000000E+00
	-7.45058000E-09	-1.49012000E-08	 2.00000000E+00
	 2.50000000E-01	-1.49012000E-08	 2.00000000E+00
	-7.45058000E-09	-1.49012000E-08	 1.50000000E+00
	-7.45058000E-09	 2.50000000E-01	 2.00000000E+00
	 1.00000000E+00	 5.00000000E-01	 3.00000000E+00
	 1.00000000E+00	 1.00000000E+00	 3.00000000E+00
	 5.00000000E-01	 5.00000000E-01	 3.00000000E+00
	 5.00000000E-01	 1.00000000E+00	 3.00000000E+00
	 1.00000000E+00	 5.00000000E-01	 2.50000000E+00
	 1.00000000E+00	 7.50000000E-01	 3.00000000E+00
	 1.00000000E+00	 1.00000000E+00	 2.50000000E+00
	 7.50000000E-01	 5.00000000E-01	 3.00000000E+00
	 7.50000000E-01	 1.00000000E+00	 3.00000000E+00
	 5.00000000E-01	 5.00000000E-01	 2.50000000E+00
	 5.00000000E-01	 7.50000000E-01	 3.00000000E+00
	 5.00000000E-01	 1.00000000E+00	 2.50000000E+00
	 1.00000000E+00	-1.49012000E-08	 3.00000000E+00
	 5.00000000E-01	-1.49012000E-08	 3.00000000E+00
	 1.00000000E+00	-1.49012000E-08	 2.50000000E+00
	 1.00000000E+00	 2.50000000E-01	 3.00000000E+00
	 7.50000000E-01	-1.49012000E-08	 3.00000000E+00
	 5.00000000E-01	-1.49012000E-08	 2.50000000E+00
	 5.00000000E-01	 2.50000000E-01	 3.00000000E+00
	-7.45058000E-09	 5.00000000E-01	 3.00000000E+00
	-7.45058000E-09	 1.00000000E+00	 3.00000000E+00
	 2.50000000E-01	 5.00000000E-01	 3.00000000E+00
	 2.50000000E-01	 1.00000000E+00	 3.00000000E+00
	-7.45058000E-09	 5.00000000E-01	 2.50000000E+00
	-7.45058000E-09	 7.50000000E-01	 3.00000000E+00
	-7.45058000E-09	 1.00000000E+00	 2.50000000E+00
	-7.45058000E-09	-1.49012000E-08	 3.00000000E+00
	 2.50000000E-01	-1.49012000E-08	 3.00000000E+00
	-7.45058000E-09	-1.49012000E-08	 2.50000000E+00
	-7.45058000E-09	 2.50000000E-01	 3.00000000E+00
	 1.00000000E+00	 5.00000000E-01	 4.00000000E+00
	 1.00000000E+00	 1.00000000E+00	 4.00000000E+00
	 5.00000000E-01	 5.00000000E-01	 4.00000000E+00
	 5.00000000E-01	 1.00000000E+00	 4.00000000E+00
	 1.00000000E+00	 5.00000000E-01	 3.50000000E+00
	 1.00000000E+00	 7.50000000E-01	 4.00000000E+00
	 1.00000000E+00	 1.00000000E+00	 3.50000000E+00
	 7.50000000E-01	 5.00000000E-01	 4.00000000E+00
	 7.50000000E-01	 1.00000000E+00	 4.00000000E+00
	 5.00000000E-01	 5.00000000E-01	 3.50000000E+00
	 5.00000000E-01	 7.50000000E-01	 4.00000000E+00
	 5.00000000E-01	 1.00000000E+00	 3.50000000E+00
	 1.00000000E+00	-1.49012000E-08	 4.00000000E+00
	 5.00000000E-01	-1.49012000E-08	 4.00000000E+00
	 1.00000000E+00	-1.49012000E-08	 3.50000000E+00
	 1.00000000E+00	 2.50000000E-01	 4.00000000E+00
	 7.50000000E-01	-1.49012000E-08	 4.00000000E+00
	 5.00000000E-01	-1.49012000E-08	 3.50000000E+00
	 5.00000000E-01	 2.50000000E-01	 4.00000000E+00
	-7.45058000E-09	 5.00000000E-01	 4.00000000E+00
	-7.45058000E-09	 1.00000000E+00	 4.00000000E+00
	 2.50000000E-01	 5.00000000E-01	 4.00000000E+00
	 2.50000000E-01	 1.00000000E+00	 4.00000000E+00
	-7.45058000E-09	 5.00000000E-01	 3.50000000E+00
	-7.45058000E-09	 7.50000000E-01	 4.00000000E+00
	-7.45058000E-09	 1.00000000E+00	 3.50000000E+00
	-7.45058000E-09	-1.49012000E-08	 4.00000000E+00
	 2.50000000E-01	-1.49012000E-08	 4.00000000E+00
	-7.45058000E-09	-1.49012000E-08	 3.50000000E+00
	-7.45058000E-09	 2.50000000E-01	 4.00000000E+00
	 1.00000000E+00	 5.00000000E-01	 5.00000000E+00
	 1.00000000E+00	 1.00000000E+00	 5.00000000E+00
	 5.00000000E-01	 5.00000000E-01	 5.00000000E+00
	 5.00000000E-01	 1.00000000E+00	 5.00000000E+00
	 1.00000000E+00	 5.00000000E-01	 4.50000000E+00
	 1.00000000E+00	 7.50000000E-01	 5.00000000E+00
	 1.00000000E+00	 1.00000000E+00	 4.50000000E+00
	 7.50000000E-01	 5.00000000E-01	 5.00000000E+00
	 7.50000000E-01	 1.00000000E+00	 5.00000000E+00
	 5.00000000E-01	 5.00000000E-01	 4.50000000E+00
	 5.00000000E-01	 7.50000000E-01	 5.00000000E+00
	 5.00000000E-01	 1.00000000E+00	 4.50000000E+00
	 1.00000000E+00	-1.49012000E-08	 5.00000000E+00
	 5.00000000E-01	-1.49012000E-08	 5.00000000E+00
	 1.00000000E+00	-1.49012000E-08	 4.50000000E+00
	 1.00000000E+00	 2.50000000E-01	 5.00000000E+00
	 7.50000000E-01	-1.49012000E-08	 5.00000000E+00
	 5.00000000E-01	-1.49012000E-08	 4.50000000E+00
	 5.00000000E-01	 2.50000000E-01	 5.00000000E+00
	-7.45058000E-09	 5.00000000E-01	 5.00000000E+00
	-7.45058000E-09	 1.00000000E+00	 5.00000000E+00
	 2.50000000E-01	 5.00000000E-01	 5.00000000E+00
	 2.50000000E-01	 1.00000000E+00	 5.00000000E+00
	-7.45058000E-09	 5.00000000E-01	 4.50000000E+00
	-7.45058000E-09	 7.50000000E-01	 5.00000000E+00
	-7.45058000E-09	 1.00000000E+00	 4.50000000E+00
	-7.45058000E-09	-1.49012000E-08	 5.00000000E+00
	 2.50000000E-01	-1.49012000E-08	 5.00000000E+00
	-7.45058000E-09	-1.49012000E-08	 4.50000000E+00
	-7.45058000E-09	 2.50000000E-01	 5.00000000E+00
	 1.00000000E+00	 5.00000000E-01	 6.00000000E+00
	 1.00000000E+00	 1.00000000E+00	 6.00000000E+00
	 5.00000000E-01	 5.00000000E-01	 6.00000000E+00
	 5.00000000E-01	 1.00000000E+00	 6.00000000E+00
	 1.00000000E+00	 5.00000000E-01	 5.50000000E+00
	 1.00000000E+00	 7.50000000E-01	 6.00000000E+00
	 1.00000000E+00	 1.00000000E+00	 5.50000000E+00
	 7.50000000E-01	 5.00000000E-01	 6.00000000E+00
	 7.50000000E-01	 1.00000000E+00	 6.00000000E+00
	 5.00000000E-01	 5.00000000E-01	 5.50000000E+00
	 5.00000000E-01	 7.50000000E-01	 6.00000000E+00
	 5.00000000E-01	 1.00000000E+00	 5.50000000E+00
	 1.00000000E+00	-1.49012000E-08	 6.00000000E+00
	 5.00000000E-01	-1.49012000E-08	 6.00000000E+00
	 1.00000000E+00	-1.49012000E-08	 5.50000000E+00
	 1.00000000E+00	 2.50000000E-01	 6.00000000E+00
	 7.50000000E-01	-1.49012000E-08	 6.00000000E+00
	 5.00000000E-01	-1.49012000E-08	 5.50000000E+00
	 5.00000000E-01	 2.50000000E-01	 6.00000000E+00
	-7.45058000E-09	 5.00000000E-01	 6.00000000E+00
	-7.45058000E-09	 1.00000000E+00	 6.00000000E+00
	 2.50000000E-01	 5.00000000E-01	 6.00000000E+00
	 2.50000000E-01	 1.00000000E+00	 6.00000000E+00
	-7.45058000E-09	 5.00000000E-01	 5.50000000E+00
	-7.45058000E-09	 7.50000000E-01	 6.00000000E+00
	-7.45058000E-09	 1.00000000E+00	 5.50000000E+00
	-7.45058000E-09	-1.49012000E-08	 6.00000000E+00
	 2.50000000E-01	-1.49012000E-08	 6.00000000E+00
	-7.45058000E-09	-1.49012000E-08	 5.50000000E+00
	-7.45058000E-09	 2.50000000E-01	 6.00000000E+00
	 1.00000000E+00	 5.00000000E-01	 7.00000000E+00
[...]
POINT_DATA 522
FIELD U 1
	U 3 522 double
		 0.00000000E+00	 0.00000000E+00	 0.00000000E+00
		 0.00000000E+00	 0.00000000E+00	 0.00000000E+00
		 1.47435000E-05	-3.65082000E-03	 1.28240000E-06
		 2.75074000E-04	-3.70303000E-03	 2.04350000E-03
		 0.00000000E+00	 0.00000000E+00	 0.00000000E+00
		 0.00000000E+00	 0.00000000E+00	 0.00000000E+00
		 1.71566000E-05	-3.32187000E-03	 6.41098000E-06
		 4.21622000E-04	-3.38437000E-03	 2.09416000E-03
		 0.00000000E+00	 0.00000000E+00	 0.00000000E+00
		 7.93672000E-06	-1.22264000E-03	-2.30762000E-07
		 1.45839000E-04	-3.64166000E-03	 8.95543000E-04
		-1.26333000E-04	-1.38201000E-03	 1.21687000E-03
		 0.00000000E+00	 0.00000000E+00	 0.00000000E+00
		 0.00000000E+00	 0.00000000E+00	 0.00000000E+00
		 1.59731000E-05	-3.51817000E-03	 4.54943000E-06
		 3.49727000E-04	-3.57742000E-03	 2.12300000E-03
		 0.00000000E+00	 0.00000000E+00	 0.00000000E+00
		 9.00912000E-06	-1.16515000E-03	 3.27982000E-06
		 2.18905000E-04	-3.31675000E-03	 9.72154000E-04
		 1.96496000E-04	-1.34079000E-03	 1.20662000E-03
		 0.00000000E+00	 0.00000000E+00	 0.00000000E+00
		-2.45715000E-04	-3.68755000E-03	-2.04245000E-03
		 0.00000000E+00	 0.00000000E+00	 0.00000000E+00
		-3.86700000E-04	-3.36914000E-03	-2.08368000E-03
		 0.00000000E+00	 0.00000000E+00	 0.00000000E+00
		 1.41053000E-04	-1.37434000E-03	-1.21727000E-03
		-1.16323000E-04	-3.63452000E-03	-8.93493000E-04
		 0.00000000E+00	 0.00000000E+00	 0.00000000E+00
		-3.17540000E-04	-3.56139000E-03	-2.11579000E-03
		 0.00000000E+00	 0.00000000E+00	 0.00000000E+00
		-1.78908000E-04	-1.33169000E-03	-1.20017000E-03
		-1.84383000E-04	-3.30922000E-03	-9.60131000E-04
		 0.00000000E+00	 0.00000000E+00	 0.00000000E+00
		 0.00000000E+00	 0.00000000E+00	 0.00000000E+00
		 1.86947000E-05	-2.84285000E-03	 1.18927000E-05
		 5.61880000E-04	-2.89932000E-03	 2.05361000E-03
		 0.00000000E+00	 0.00000000E+00	 0.00000000E+00
		 0.00000000E+00	 0.00000000E+00	 0.00000000E+00
		 1.79354000E-05	-3.11532000E-03	 8.21382000E-06
		 4.89862000E-04	-3.17356000E-03	 2.04666000E-03
		 0.00000000E+00	 0.00000000E+00	 0.00000000E+00
		 1.05743000E-05	-8.47457000E-04	 8.51250000E-06
		 2.91121000E-04	-2.83669000E-03	 9.85735000E-04
		 5.02881000E-04	-1.02518000E-03	 1.22542000E-03
		 0.00000000E+00	 0.00000000E+00	 0.00000000E+00
		-5.23133000E-04	-2.88656000E-03	-2.03271000E-03
		 0.00000000E+00	 0.00000000E+00	 0.00000000E+00
		-4.53009000E-04	-3.15949000E-03	-2.03299000E-03
		 0.00000000E+00	 0.00000000E+00	 0.00000000E+00
		-4.81578000E-04	-1.01482000E-03	-1.20893000E-03
		-2.53353000E-04	-2.83024000E-03	-9.62812000E-04
		 2.00666000E-05	-9.25730000E-03	-2.96674000E-06
		 8.48354000E-04	-9.27970000E-03	 2.49249000E-03
		 2.04017000E-05	-8.42885000E-03	-1.16058000E-06
		 8.63927000E-04	-8.44430000E-03	 2.49897000E-03
		 1.96148000E-05	-6.42951000E-03	 1.46752000E-06
		 4.30440000E-04	-9.27261000E-03	 1.21013000E-03
		 5.94273000E-04	-6.49681000E-03	 2.38108000E-03
		 2.02874000E-05	-8.84171000E-03	-1.93294000E-06
		 8.55866000E-04	-8.85731000E-03	 2.52459000E-03
		 2.07945000E-05	-5.83385000E-03	 5.45079000E-06
		 4.42706000E-04	-8.44156000E-03	 1.24353000E-03
		 6.55030000E-04	-5.89085000E-03	 2.40013000E-03
		-8.05105000E-04	-9.26404000E-03	-2.50101000E-03
		-8.21129000E-04	-8.43242000E-03	-2.50388000E-03
		-5.53933000E-04	-6.48031000E-03	-2.38121000E-03
		-3.89501000E-04	-9.26503000E-03	-1.21697000E-03
		-8.12366000E-04	-8.84372000E-03	-2.53073000E-03
		-6.11994000E-04	-5.87627000E-03	-2.39256000E-03
		-4.01231000E-04	-8.43610000E-03	-1.24656000E-03
		 2.05557000E-05	-7.57373000E-03	 3.67762000E-07
		 8.83416000E-04	-7.58955000E-03	 2.49507000E-03
		 2.05070000E-05	-7.99963000E-03	-2.94629000E-07
		 8.74682000E-04	-8.01399000E-03	 2.47163000E-03
		 2.18286000E-05	-5.16342000E-03	 8.55856000E-06
		 4.54129000E-04	-7.58540000E-03	 1.26682000E-03
		 7.20899000E-04	-5.22345000E-03	 2.38803000E-03
		-8.41762000E-04	-7.57922000E-03	-2.49697000E-03
		-8.32553000E-04	-8.00327000E-03	-2.47470000E-03
		-6.75565000E-04	-5.21144000E-03	-2.37454000E-03
		-4.12907000E-04	-7.58043000E-03	-1.26698000E-03
		 1.01930000E-05	-1.46774000E-02	-2.12857000E-05
		 1.17077000E-03	-1.46975000E-02	 2.56619000E-03
		 1.21191000E-05	-1.35115000E-02	-2.28512000E-05
		 1.19217000E-03	-1.35269000E-02	 2.55949000E-03
		 1.62467000E-05	-1.19904000E-02	-1.12490000E-05
		 5.89644000E-04	-1.46845000E-02	 1.26600000E-03
		 1.02716000E-03	-1.20119000E-02	 2.52952000E-03
		 1.08348000E-05	-1.40977000E-02	-2.19980000E-05
		 1.18121000E-03	-1.41148000E-02	 2.58110000E-03
		 1.70285000E-05	-1.09796000E-02	-1.14175000E-05
		 6.01830000E-04	-1.35163000E-02	 1.28012000E-03
		 1.03928000E-03	-1.09933000E-02	 2.52891000E-03
		-1.14642000E-03	-1.46838000E-02	-2.61017000E-03
		-1.16670000E-03	-1.35178000E-02	-2.60630000E-03
		-9.90267000E-04	-1.19970000E-02	-2.55406000E-03
		-5.68113000E-04	-1.46780000E-02	-1.30882000E-03
		-1.15647000E-03	-1.41039000E-02	-2.62676000E-03
		-1.00327000E-03	-1.09834000E-02	-2.55363000E-03
		-5.77217000E-04	-1.35126000E-02	-1.32619000E-03
		 1.35790000E-05	-1.23178000E-02	-2.30827000E-05
		 1.21322000E-03	-1.23358000E-02	 2.56294000E-03
		 1.33128000E-05	-1.29179000E-02	-2.33342000E-05
		 1.20297000E-03	-1.29333000E-02	 2.53732000E-03
		 1.75407000E-05	-9.94871000E-03	-1.03271000E-05
		 6.14235000E-04	-1.23240000E-02	 1.30486000E-03
		 1.05409000E-03	-9.96478000E-03	 2.52872000E-03
		-1.18766000E-03	-1.23260000E-02	-2.60998000E-03
		-1.17695000E-03	-1.29247000E-02	-2.58476000E-03
		-1.01961000E-03	-9.95501000E-03	-2.55120000E-03
		-5.87537000E-04	-1.23193000E-02	-1.35139000E-03
		-9.26576000E-06	-2.01625000E-02	-4.36416000E-05
		 1.35970000E-03	-2.02338000E-02	 2.99284000E-03
		-7.30031000E-06	-1.87262000E-02	-4.65353000E-05
		 1.48815000E-03	-1.87989000E-02	 2.97959000E-03
		 2.07822000E-06	-1.73311000E-02	-3.16095000E-05
		 6.75734000E-04	-2.01813000E-02	 1.47955000E-03
		 1.26914000E-03	-1.73734000E-02	 2.69881000E-03
		-8.39754000E-06	-1.94606000E-02	-4.53542000E-05
		 1.42407000E-03	-1.95331000E-02	 3.00519000E-03
		 4.59921000E-06	-1.60310000E-02	-3.43587000E-05
		 7.40166000E-04	-1.87455000E-02	 1.49265000E-03
		 1.33730000E-03	-1.60728000E-02	 2.68395000E-03
		-1.37868000E-03	-2.02166000E-02	-3.07821000E-03
		-1.50385000E-03	-1.87810000E-02	-3.07077000E-03
		-1.26389000E-03	-1.73606000E-02	-2.76224000E-03
		-6.94425000E-04	-2.01732000E-02	-1.56625000E-03
		-1.44169000E-03	-1.95155000E-02	-3.09391000E-03
		-1.32846000E-03	-1.60616000E-02	-2.75235000E-03
		-7.55150000E-04	-1.87367000E-02	-1.58515000E-03
		-5.37203000E-06	-1.71689000E-02	-5.05235000E-05
		 1.61942000E-03	-1.72382000E-02	 2.98605000E-03
		-6.16910000E-06	-1.79631000E-02	-4.80649000E-05
		 1.55356000E-03	-1.80346000E-02	 2.94836000E-03
		 6.70349000E-06	-1.46637000E-02	-3.71676000E-05
		 8.06312000E-04	-1.71872000E-02	 1.52687000E-03
		 1.40178000E-03	-1.47089000E-02	 2.69291000E-03
		-1.63173000E-03	-1.72181000E-02	-3.08521000E-03
		-1.56728000E-03	-1.80162000E-02	-3.04276000E-03
		-1.39029000E-03	-1.46963000E-02	-2.76644000E-03
		-8.17527000E-04	-1.71766000E-02	-1.62728000E-03
		-3.69356000E-05	-2.74911000E-02	-7.92959000E-05
		 1.58541000E-03	-2.75842000E-02	 4.00636000E-03
		-3.62628000E-05	-2.57967000E-02	-7.78994000E-05
		 1.72370000E-03	-2.58889000E-02	 4.01898000E-03
		-2.32569000E-05	-2.35069000E-02	-5.96022000E-05
		 7.74864000E-04	-2.75172000E-02	 1.92821000E-03
		 1.48043000E-03	-2.35913000E-02	 3.49105000E-03
		-3.67551000E-05	-2.66641000E-02	-7.86540000E-05
		 1.65531000E-03	-2.67562000E-02	 4.02622000E-03
		-2.22402000E-05	-2.19206000E-02	-6.07462000E-05
		 8.44713000E-04	-2.58209000E-02	 1.94749000E-03
		 1.63817000E-03	-2.20067000E-02	 3.48815000E-03
		-1.66017000E-03	-2.75445000E-02	-4.16501000E-03
		-1.79568000E-03	-2.58473000E-02	-4.17467000E-03
		-1.52673000E-03	-2.35623000E-02	-3.60779000E-03
		-8.48892000E-04	-2.74971000E-02	-2.08620000E-03
		-1.72888000E-03	-2.67151000E-02	-4.18387000E-03
		-1.68255000E-03	-2.19771000E-02	-3.60775000E-03
		-9.16774000E-04	-2.57999000E-02	-2.10294000E-03
		-3.36253000E-05	-2.39713000E-02	-7.58798000E-05
		 1.87921000E-03	-2.40495000E-02	 4.01108000E-03
		-3.54287000E-05	-2.49021000E-02	-7.73329000E-05
		 1.80118000E-03	-2.49923000E-02	 4.01433000E-03
		-2.01898000E-05	-2.01848000E-02	-6.23626000E-05
		 9.18631000E-04	-2.39887000E-02	 1.94630000E-03
		 1.80567000E-03	-2.02610000E-02	 3.48870000E-03
		-1.94511000E-03	-2.40079000E-02	-4.16230000E-03
		-1.87096000E-03	-2.49505000E-02	-4.16866000E-03
		-1.84606000E-03	-2.02301000E-02	-3.61194000E-03
		-9.85171000E-04	-2.39683000E-02	-2.09758000E-03
		-5.32338000E-05	-3.65349000E-02	-1.29209000E-04
		 1.44544000E-03	-3.65459000E-02	 4.36637000E-03
		-5.39829000E-05	-3.50612000E-02	-1.22271000E-04
		 1.40453000E-03	-3.50675000E-02	 4.39029000E-03
		-4.74914000E-05	-3.19665000E-02	-1.03552000E-04
		 6.94490000E-04	-3.65469000E-02	 2.11706000E-03
		 1.59769000E-03	-3.20258000E-02	 4.32419000E-03
		-5.31791000E-05	-3.57929000E-02	-1.24795000E-04
		 1.42530000E-03	-3.57991000E-02	 4.34248000E-03
		-4.66773000E-05	-3.02989000E-02	-9.89108000E-05
		 6.76122000E-04	-3.50714000E-02	 2.09298000E-03
		 1.65015000E-03	-3.03506000E-02	 4.35002000E-03
		-1.55745000E-03	-3.65025000E-02	-4.62069000E-03
		-1.51259000E-03	-3.50180000E-02	-4.63128000E-03
		-1.69702000E-03	-3.19836000E-02	-4.53151000E-03
		-8.02318000E-04	-3.65256000E-02	-2.37424000E-03
		-1.53546000E-03	-3.57520000E-02	-4.58807000E-03
		-1.74410000E-03	-3.03028000E-02	-4.54734000E-03
		-7.84057000E-04	-3.50464000E-02	-2.33649000E-03
		-5.45150000E-05	-3.36192000E-02	-1.19857000E-04
		 1.37317000E-03	-3.36213000E-02	 4.37427000E-03
		-5.46090000E-05	-3.43343000E-02	-1.21015000E-04
		 1.38929000E-03	-3.43403000E-02	 4.44196000E-03
		-4.47128000E-05	-2.85731000E-02	-9.48628000E-05
		 6.58998000E-04	-3.36256000E-02	 2.02879000E-03
		 1.72827000E-03	-2.86094000E-02	 4.33409000E-03
		-1.47674000E-03	-3.35772000E-02	-4.61120000E-03
		-1.49482000E-03	-3.42908000E-02	-4.68159000E-03
		-1.81519000E-03	-2.85631000E-02	-4.52255000E-03
		-7.66699000E-04	-3.36052000E-02	-2.26710000E-03
		-6.72824000E-05	-4.46046000E-02	-1.61703000E-04
		 8.78158000E-04	-4.45745000E-02	 3.71745000E-03
		-7.57356000E-05	-4.37076000E-02	-1.65422000E-04
		 7.77103000E-04	-4.36794000E-02	 3.70594000E-03
		-5.73498000E-05	-4.08045000E-02	-1.48574000E-04
		 4.05696000E-04	-4.46053000E-02	 1.82927000E-03
		 1.17719000E-03	-4.07925000E-02	 4.08916000E-03
		-7.00820000E-05	-4.41418000E-02	-1.64203000E-04
		 8.28697000E-04	-4.41135000E-02	 3.66892000E-03
		-6.30210000E-05	-3.96210000E-02	-1.45007000E-04
		 3.50063000E-04	-4.37098000E-02	 1.77975000E-03
		 1.07836000E-03	-3.96071000E-02	 4.09805000E-03
		-1.01414000E-03	-4.45329000E-02	-4.04344000E-03
		-9.23850000E-04	-4.36367000E-02	-4.03914000E-03
		-1.29582000E-03	-4.07476000E-02	-4.38120000E-03
		-5.40689000E-04	-4.45804000E-02	-2.15446000E-03
		-9.67511000E-04	-4.40713000E-02	-3.99937000E-03
		-1.20115000E-03	-3.95588000E-02	-4.38413000E-03
		-4.99721000E-04	-4.36853000E-02	-2.11190000E-03
		-8.21294000E-05	-4.29044000E-02	-1.66545000E-04
		 6.66863000E-04	-4.28802000E-02	 3.70847000E-03
		-8.08395000E-05	-4.32937000E-02	-1.65191000E-04
		 7.20237000E-04	-4.32652000E-02	 3.74155000E-03
		-6.77868000E-05	-3.85265000E-02	-1.46839000E-04
		 2.94120000E-04	-4.29073000E-02	 1.74471000E-03
		 9.75799000E-04	-3.85151000E-02	 4.08749000E-03
		-8.21653000E-04	-4.28470000E-02	-4.04369000E-03
		-8.73856000E-04	-4.32252000E-02	-4.07343000E-03
		-1.10121000E-03	-3.84779000E-02	-4.37861000E-03
		-4.55616000E-04	-4.28899000E-02	-2.07977000E-03
		-9.91509000E-05	-5.14543000E-02	-1.85701000E-04
		 4.68513000E-04	-5.14380000E-02	 3.37463000E-03
		-8.69319000E-05	-5.08674000E-02	-1.95591000E-04
		 4.82593000E-04	-5.08589000E-02	 3.34708000E-03
		-8.16962000E-05	-4.80236000E-02	-1.73065000E-04
		 1.82343000E-04	-5.14444000E-02	 1.61640000E-03
		 6.10891000E-04	-4.80132000E-02	 3.47060000E-03
		-9.45082000E-05	-5.11621000E-02	-1.92781000E-04
		 4.75426000E-04	-5.11487000E-02	 3.34903000E-03
		-8.42588000E-05	-4.73509000E-02	-1.82165000E-04
		 1.96042000E-04	-5.08605000E-02	 1.58821000E-03
		 5.64934000E-04	-4.73431000E-02	 3.44563000E-03
		-6.56405000E-04	-5.14261000E-02	-3.76662000E-03
		-6.55771000E-04	-5.08566000E-02	-3.75804000E-03
		-7.68963000E-04	-4.79791000E-02	-3.83209000E-03
		-3.77902000E-04	-5.14397000E-02	-1.99405000E-03
		-6.57901000E-04	-5.11445000E-02	-3.75470000E-03
		-7.31221000E-04	-4.73141000E-02	-3.82416000E-03
		-3.69331000E-04	-5.08616000E-02	-1.98486000E-03
		-7.37836000E-05	-5.03032000E-02	-1.82694000E-04
		 4.74065000E-04	-5.03072000E-02	 3.36497000E-03
		-7.92402000E-05	-5.05847000E-02	-1.92126000E-04
		 4.77775000E-04	-5.05799000E-02	 3.35262000E-03
		-8.55517000E-05	-4.67277000E-02	-1.74689000E-04
		 2.02422000E-04	-5.03038000E-02	 1.60179000E-03
		 5.04479000E-04	-4.67282000E-02	 3.46058000E-03
		-6.31262000E-04	-5.02935000E-02	-3.74899000E-03
		-6.41613000E-04	-5.05746000E-02	-3.75489000E-03
		-6.77119000E-04	-4.66967000E-02	-3.82291000E-03
		-3.51956000E-04	-5.02983000E-02	-1.97301000E-03
		 0.00000000E+00	 0.00000000E+00	 0.00000000E+00
		 0.00000000E+00	 0.00000000E+00	 0.00000000E+00
		-4.10348000E-07	-9.57294000E-04	 1.61900000E-04
		-1.81769000E-03	-1.22886000E-03	 3.13680000E-03
		 0.00000000E+00	 0.00000000E+00	 0.00000000E+00
		 0.00000000E+00	 0.00000000E+00	 0.00000000E+00
		 2.81596000E-05	-2.52613000E-03	 1.81982000E-04
		-1.31004000E-03	-2.81108000E-03	 3.17529000E-03
		 0.00000000E+00	 0.00000000E+00	 0.00000000E+00
		-1.99289000E-05	 3.97889000E-04	 7.68489000E-05
		-9.11778000E-04	-1.01617000E-03	 1.78835000E-03
		-1.07613000E-03	 8.54320000E-05	 1.44552000E-03
		 0.00000000E+00	 0.00000000E+00	 0.00000000E+00
		 0.00000000E+00	 0.00000000E+00	 0.00000000E+00
		 1.36344000E-05	-1.81899000E-03	 1.71979000E-04
		-1.56095000E-03	-2.09260000E-03	 3.01957000E-03
		 0.00000000E+00	 0.00000000E+00	 0.00000000E+00
		 6.89850000E-06	-4.40366000E-04	 8.11915000E-05
		-6.40246000E-04	-2.58771000E-03	 1.68098000E-03
		-6.27832000E-04	-7.29805000E-04	 1.39736000E-03
		 0.00000000E+00	 0.00000000E+00	 0.00000000E+00
		 1.81308000E-03	-1.15308000E-03	-2.81964000E-03
		 0.00000000E+00	 0.00000000E+00	 0.00000000E+00
		 1.36394000E-03	-2.72527000E-03	-2.81801000E-03
		 0.00000000E+00	 0.00000000E+00	 0.00000000E+00
		 1.03179000E-03	 1.45910000E-04	-1.28275000E-03
		 9.10566000E-04	-9.76259000E-04	-1.46820000E-03
		 0.00000000E+00	 0.00000000E+00	 0.00000000E+00
		 1.58462000E-03	-2.01176000E-03	-2.68182000E-03
		 0.00000000E+00	 0.00000000E+00	 0.00000000E+00
		 6.39239000E-04	-6.62553000E-04	-1.22350000E-03
		 6.94899000E-04	-2.54376000E-03	-1.32112000E-03
		 0.00000000E+00	 0.00000000E+00	 0.00000000E+00
		 0.00000000E+00	 0.00000000E+00	 0.00000000E+00
		 5.91777000E-05	-3.62983000E-03	 2.02570000E-04
		-7.83759000E-04	-3.89361000E-03	 3.17897000E-03
		 0.00000000E+00	 0.00000000E+00	 0.00000000E+00
		 0.00000000E+00	 0.00000000E+00	 0.00000000E+00
		 4.32538000E-05	-3.15252000E-03	 1.90534000E-04
		-1.04921000E-03	-3.42480000E-03	 3.29462000E-03
		 0.00000000E+00	 0.00000000E+00	 0.00000000E+00
		 3.68863000E-05	-8.67935000E-04	 9.69807000E-05
		-3.62877000E-04	-3.68272000E-03	 1.57290000E-03
		-1.24699000E-04	-1.13507000E-03	 1.46734000E-03
		 0.00000000E+00	 0.00000000E+00	 0.00000000E+00
		 8.95960000E-04	-3.80073000E-03	-2.77974000E-03
		 0.00000000E+00	 0.00000000E+00	 0.00000000E+00
		 1.13105000E-03	-3.34013000E-03	-2.92008000E-03
		 0.00000000E+00	 0.00000000E+00	 0.00000000E+00
		 1.94957000E-04	-1.06008000E-03	-1.26136000E-03
		 4.79976000E-04	-3.63665000E-03	-1.17146000E-03
		 9.40961000E-05	-9.07621000E-03	 2.83040000E-04
		-3.13141000E-03	-9.32135000E-03	 6.34370000E-03
		 1.27808000E-04	-1.21060000E-02	 3.11511000E-04
		-2.72333000E-03	-1.23550000E-02	 6.39527000E-03
		 3.78138000E-05	-4.14252000E-03	 2.32223000E-04
		-1.51583000E-03	-9.15440000E-03	 3.35511000E-03
		-2.52372000E-03	-4.41106000E-03	 4.85589000E-03
		 1.10154000E-04	-1.06342000E-02	 2.96277000E-04
		-2.92667000E-03	-1.08813000E-02	 6.28068000E-03
		 6.72239000E-05	-6.46265000E-03	 2.57546000E-04
		-1.29265000E-03	-1.21833000E-02	 3.30663000E-03
		-2.02716000E-03	-6.73961000E-03	 4.89723000E-03
		 3.32162000E-03	-9.17790000E-03	-5.78714000E-03
		 2.97357000E-03	-1.22179000E-02	-5.78057000E-03
		 2.59611000E-03	-4.30402000E-03	-4.39995000E-03
		 1.70388000E-03	-9.08032000E-03	-2.79253000E-03
		 3.14832000E-03	-1.07480000E-02	-5.69399000E-03
		 2.15924000E-03	-6.63130000E-03	-4.39116000E-03
		 1.55170000E-03	-1.21157000E-02	-2.68275000E-03
		 1.58417000E-04	-1.47735000E-02	 3.43934000E-04
		-2.29650000E-03	-1.50021000E-02	 6.40378000E-03
		 1.42838000E-04	-1.34804000E-02	 3.28280000E-04
		-2.51039000E-03	-1.37539000E-02	 6.51634000E-03
		 9.85972000E-05	-8.33082000E-03	 2.85779000E-04
		-1.07805000E-03	-1.48378000E-02	 3.21414000E-03
		-1.52941000E-03	-8.60095000E-03	 4.90956000E-03
		 2.63539000E-03	-1.48792000E-02	-5.72556000E-03
		 2.80478000E-03	-1.35937000E-02	-5.87250000E-03
		 1.73377000E-03	-8.49503000E-03	-4.34531000E-03
		 1.40124000E-03	-1.47795000E-02	-2.52397000E-03
		 2.72217000E-04	-2.26046000E-02	 3.22725000E-04
		-4.19582000E-03	-2.27156000E-02	 8.06044000E-03
		 3.16525000E-04	-2.69710000E-02	 3.65999000E-04
		-4.00524000E-03	-2.71924000E-02	 8.13273000E-03
		 1.73465000E-04	-1.53833000E-02	 3.12588000E-04
		-1.95674000E-03	-2.26424000E-02	 4.21496000E-03
		-3.67354000E-03	-1.55859000E-02	 7.41194000E-03
		 2.95390000E-04	-2.48071000E-02	 3.49182000E-04
		-4.10327000E-03	-2.49857000E-02	 8.00238000E-03
		 2.10368000E-04	-1.90940000E-02	 3.45575000E-04
		-1.86822000E-03	-2.70678000E-02	 4.16500000E-03
		-3.37899000E-03	-1.93103000E-02	 7.47570000E-03
		 4.70437000E-03	-2.25643000E-02	-7.40361000E-03
		 4.63471000E-03	-2.69496000E-02	-7.42385000E-03
		 4.01563000E-03	-1.54176000E-02	-6.79311000E-03
		 2.48898000E-03	-2.25693000E-02	-3.55924000E-03
		 4.66756000E-03	-2.47707000E-02	-7.32147000E-03
		 3.80129000E-03	-1.91289000E-02	-6.79262000E-03
		 2.47682000E-03	-2.69507000E-02	-3.45414000E-03
		 3.53874000E-04	-3.12325000E-02	 4.08302000E-04
		-3.91548000E-03	-3.15716000E-02	 8.14478000E-03
		 3.36222000E-04	-2.91309000E-02	 3.83242000E-04
		-3.96263000E-03	-2.92832000E-02	 8.27332000E-03
		 2.54101000E-04	-2.25588000E-02	 3.81813000E-04
		-1.75009000E-03	-3.13923000E-02	 4.05270000E-03
		-3.11383000E-03	-2.27991000E-02	 7.48539000E-03
		 4.57586000E-03	-3.12350000E-02	-7.37801000E-03
		 4.60563000E-03	-2.91021000E-02	-7.53097000E-03
		 3.58070000E-03	-2.25850000E-02	-6.73270000E-03
		 2.45795000E-03	-3.12336000E-02	-3.28149000E-03
		 5.55824000E-04	-3.78257000E-02	 3.23116000E-04
		-4.96708000E-03	-3.76958000E-02	 7.60160000E-03
		 6.03934000E-04	-4.35284000E-02	 3.90693000E-04
		-5.29002000E-03	-4.38573000E-02	 7.69311000E-03
		 3.71849000E-04	-3.03019000E-02	 3.24952000E-04
		-2.20630000E-03	-3.77933000E-02	 3.97647000E-03
		-4.62998000E-03	-3.03885000E-02	 8.09804000E-03
		 5.80620000E-04	-4.06098000E-02	 3.58220000E-04
		-5.11947000E-03	-4.06538000E-02	 7.58563000E-03
		 4.13905000E-04	-3.53789000E-02	 3.34603000E-04
		-2.21887000E-03	-4.37108000E-02	 3.98831000E-03
		-4.70812000E-03	-3.54114000E-02	 8.22546000E-03
		 5.90843000E-03	-3.76179000E-02	-6.94927000E-03
		 6.19595000E-03	-4.31634000E-02	-6.90401000E-03
		 5.34733000E-03	-3.01721000E-02	-7.44500000E-03
		 3.23201000E-03	-3.77613000E-02	-3.32795000E-03
		 6.05572000E-03	-4.03534000E-02	-6.86304000E-03
		 5.46504000E-03	-3.52076000E-02	-7.45065000E-03
		 3.38777000E-03	-4.33592000E-02	-3.20579000E-03
		 5.13079000E-04	-4.95016000E-02	 4.49802000E-04
		-5.48473000E-03	-5.02014000E-02	 7.73005000E-03
		 5.60731000E-04	-4.64451000E-02	 4.20639000E-04
		-5.38460000E-03	-4.74801000E-02	 7.80440000E-03
		 4.30642000E-04	-4.05320000E-02	 3.14086000E-04
		-2.60032000E-03	-4.98544000E-02	 3.94552000E-03
		-4.62879000E-03	-4.04496000E-02	 8.22421000E-03
		 6.50462000E-03	-4.89834000E-02	-6.82094000E-03