# vtk DataFile Version 3.0

ASCII
DATASET UNSTRUCTURED_GRID

POINTS 522 double
	 1.00000000E+00	 1.00000000E+00	-5.96046000E-08
	 1.00000000E+00	 5.00000000E-01	-5.96046000E-08
	 1.00000000E+00	 5.00000000E-01	 1.00000000E+00
	 1.00000000E+00	 1.00000000E+00	 1.00000000E+00
	 5.00000000E-01	 1.00000000E+00	-5.96046000E-08
	 5.00000000E-01	 5.00000000E-01	-5.96046000E-08
	 5.00000000E-01	 5.00000000E-01	 1.00000000E+00
	 5.00000000E-01	 1.00000000E+00	 1.00000000E+00
	 1.00000000E+00	 7.50000000E-01	-5.96046000E-08
	 1.00000000E+00	 5.00000000E-01	 5.00000000E-01
	 1.00000000E+00	 7.50000000E-01	 1.00000000E+00
	 1.00000000E+00	 1.00000000E+00	 5.00000000E-01
	 7.50000000E-01	 1.00000000E+00	-5.96046000E-08
	 7.50000000E-01	 5.00000000E-01	-5.96046000E-08
	 7.50000000E-01	 5.00000000E-01	 1.00000000E+00
	 7.50000000E-01	 1.00000000E+00	 1.00000000E+00
	 5.00000000E-01	 7.50000000E-01	-5.96046000E-08
	 5.00000000E-01	 5.00000000E-01	 5.00000000E-01
	 5.00000000E-01	 7.50000000E-01	 1.00000000E+00
	 5.00000000E-01	 1.00000000E+00	 5.00000000E-01
	 1.00000000E+00	-1.49012000E-08	-5.96046000E-08
	 1.00000000E+00	-1.49012000E-08	 1.00000000E+00
	 5.00000000E-01	-1.49012000E-08	-5.96046000E-08
	 5.00000000E-01	-1.49012000E-08	 1.00000000E+00
	 1.00000000E+00	 2.50000000E-01	-5.96046000E-08
	 1.00000000E+00	-1.49012000E-08	 5.00000000E-01
	 1.00000000E+00	 2.50000000E-01	 1.00000000E+00
	 7.50000000E-01	-1.49012000E-08	-5.96046000E-08
	 7.50000000E-01	-1.49012000E-08	 1.00000000E+00
	 5.00000000E-01	 2.50000000E-01	-5.96046000E-08
	 5.00000000E-01	-1.49012000E-08	 5.00000000E-01
	 5.00000000E-01	 2.50000000E-01	 1.00000000E+00
	-7.45058000E-09	 1.00000000E+00	-5.96046000E-08
	-7.45058000E-09	 5.00000000E-01	-5.96046000E-08
	-7.45058000E-09	 5.00000000E-01	 1.00000000E+00
	-7.45058000E-09	 1.00000000E+00	 1.00000000E+00
	 2.50000000E-01	 1.00000000E+00	-5.96046000E-08
	 2.50000000E-01	 5.00000000E-01	-5.96046000E-08
	 2.50000000E-01	 5.00000000E-01	 1.00000000E+00
	 2.50000000E-01	 1.00000000E+00	 1.00000000E+00
	-7.45058000E-09	 7.50000000E-01	-5.96046000E-08
	-7.45058000E-09	 5.00000000E-01	 5.00000000E-01
	-7.45058000E-09	 7.50000000E-01	 1.00000000E+00
	-7.45058000E-09	 1.00000000E+00	 5.00000000E-01
	-7.45058000E-09	-1.49012000E-08	-5.96046000E-08
	-7.45058000E-09	-1.49012000E-08	 1.00000000E+00
	 2.50000000E-01	-1.49012000E-08	-5.96046000E-08
	 2.50000000E-01	-1.49012000E-08	 1.00000000E+00
	-7.45058000E-09	 2.50000000E-01	-5.96046000E-08
	-7.45058000E-09	-1.49012000E-08	 5.00000000E-01
	-7.45058000E-09	 2.50000000E-01	 1.00000000E+00
	 1.00000000E+00	 5.00000000E-01	 2.00000000E+00
	 1.00000000E+00	 1.00000000E+00	 2.00000000E+00
	 5.00000000E-01	 5.00000000E-01	 2.00000000E+00
	 5.00000000E-01	 1.00000000E+00	 2.00000000E+00
	 1.00000000E+00	 5.00000000E-01	 1.50000000E+00
	 1.00000000E+00	 7.50000000E-01	 2.00000000E+00
	 1.00000000E+00	 1.00000000E+00	 1.50000000E+00
	 7.50000000E-01	 5.00000000E-01	 2.00000000E+00
	 7.50000000E-01	 1.00000000E+00	 2.00000000E+00
	 5.00000000E-01	 5.00000000E-01	 1.50000000E+00
	 5.00000000E-01	 7.50000000E-01	 2.00000000E+00
	 5.00000000E-01	 1.00000000E+00	 1.50000000E+00
	 1.00000000E+00	-1.49012000E-08	 2.00000000E+00
	 5.00000000E-01	-1.49012000E-08	 2.00000000E+00
	 1.00000000E+00	-1.49012000E-08	 1.50000000E+00
	 1.00000000E+00	 2.50000000E-01	 2.00000000E+00
	 7.50000000E-01	-1.49012000E-08	 2.00000000E+00
	 5.00000000E-01	-1.49012000E-08	 1.50000000E+00
	 5.00000000E-01	 2.50000000E-01	 2.00000000E+00
	-7.45058000E-09	 5.00000000E-01	 2.00000000E+00
	-7.45058000E-09	 1.00000000E+00	 2.00000000E+00
	 2.50000000E-01	 5.00000000E-01	 2.00000000E+00
	 2.50000000E-01	 1.00000000E+00	 2.00000000E+00
	-7.45058000E-09	 5.00000000E-01	 1.50000000E+00
	-7.45058000E-09	 7.50000000E-01	 2.00000000E+00
	-7.45058000E-09	 1.00000000E+00	 1.50000000E+00
	-7.45058000E-09	-1.49012000E-08	 2.00000000E+00
	 2.50000000E-01	-1.49012000E-08	 2.00000000E+00
	-7.45058000E-09	-1.49012000E-08	 1.50000000E+00
	-7.45058000E-09	 2.50000000E-01	 2.00000000E+00
	 1.00000000E+00	 5.00000000E-01	 3.00000000E+00
	 1.00000000E+00	 1.00000000E+00	 3.00000000E+00
	 5.00000000E-01	 5.00000000E-01	 3.00000000E+00
	 5.00000000E-01	 1.00000000E+00	 3.00000000E+00
	 1.00000000E+00	 5.00000000E-01	 2.50000000E+00
	 1.00000000E+00	 7.50000000E-01	 3.00000000E+00
	 1.00000000E+00	 1.00000000E+00	 2.50000000E+00
	 7.50000000E-01	 5.00000000E-01	 3.00000000E+00
	 7.50000000E-01	 1.00000000E+00	 3.00000000E+00
	 5.00000000E-01	 5.00000000E-01	 2.50000000E+00
	 5.00000000E-01	 7.50000000E-01	 3.00000000E+00
	 5.00000000E-01	 1.00000000E+00	 2.50000000E+00
	 1.00000000E+00	-1.49012000E-08	 3.00000000E+00
	 5.00000000E-01	-1.49012000E-08	 3.00000000E+00
	 1.00000000E+00	-1.49012000E-08	 2.50000000E+00
	 1.00000000E+00	 2.50000000E-01	 3.00000000E+00
	 7.50000000E-01	-1.49012000E-08	 3.00000000E+00
	 5.00000000E-01	-1.49012000E-08	 2.50000000E+00
	 5.00000000E-01	 2.50000000E-01	 3.00000000E+00
	-7.45058000E-09	 5.00000000E-01	 3.00000000E+00
	-7.45058000E-09	 1.00000000E+00	 3.00000000E+00
	 2.50000000E-01	 5.00000000E-01	 3.00000000E+00
	 2.50000000E-01	 1.00000000E+00	 3.00000000E+00
	-7.45058000E-09	 5.00000000E-01	 2.50000000E+00
	-7.45058000E-09	 7.50000000E-01	 3.00000000E+00
	-7.45058000E-09	 1.00000000E+00	 2.50000000E+00
	-7.45058000E-09	-1.49012000E-08	 3.00000000E+00
	 2.50000000E-01	-1.49012000E-08	 3.00000000E+00
	-7.45058000E-09	-1.49012000E-08	 2.50000000E+00
	-7.45058000E-09	 2.50000000E-01	 3.00000000E+00
	 1.00000000E+00	 5.00000000E-01	 4.00000000E+00
	 1.00000000E+00	 1.00000000E+00	 4.00000000E+00
	 5.00000000E-01	 5.00000000E-01	 4.00000000E+00
	 5.00000000E-01	 1.00000000E+00	 4.00000000E+00
	 1.00000000E+00	 5.00000000E-01	 3.50000000E+00
	 1.00000000E+00	 7.50000000E-01	 4.00000000E+00
	 1.00000000E+00	 1.00000000E+00	 3.50000000E+00
	 7.50000000E-01	 5.00000000E-01	 4.00000000E+00
	 7.50000000E-01	 1.00000000E+00	 4.00000000E+00
	 5.00000000E-01	 5.00000000E-01	 3.50000000E+00
	 5.00000000E-01	 7.50000000E-01	 4.00000000E+00
	 5.00000000E-01	 1.00000000E+00	 3.50000000E+00
	 1.00000000E+00	-1.49012000E-08	 4.00000000E+00
	 5.00000000E-01	-1.49012000E-08	 4.00000000E+00
	 1.00000000E+00	-1.49012000E-08	 3.50000000E+00
	 1.00000000E+00	 2.50000000E-01	 4.00000000E+00
	 7.50000000E-01	-1.49012000E-08	 4.00000000E+00
	 5.00000000E-01	-1.49012000E-08	 3.50000000E+00
	 5.00000000E-01	 2.50000000E-01	 4.00000000E+00
	-7.45058000E-09	 5.00000000E-01	 4.00000000E+00
	-7.45058000E-09	 1.00000000E+00	 4.00000000E+00
	 2.50000000E-01	 5.00000000E-01	 4.00000000E+00
	 2.50000000E-01	 1.00000000E+00	 4.00000000E+00
	-7.45058000E-09	 5.00000000E-01	 3.50000000E+00
	-7.45058000E-09	 7.50000000E-01	 4.00000000E+00
	-7.45058000E-09	 1.00000000E+00	 3.50000000E+00
	-7.45058000E-09	-1.49012000E-08	 4.00000000E+00
	 2.50000000E-01	-1.49012000E-08	 4.00000000E+00
	-7.45058000E-09	-1.49012000E-08	 3.50000000E+00
	-7.45058000E-09	 2.50000000E-01	 4.00000000E+00
	 1.00000000E+00	 5.00000000E-01	 5.00000000E+00
	 1.00000000E+00	 1.00000000E+00	 5.00000000E+00
	 5.00000000E-01	 5.00000000E-01	 5.00000000E+00
	 5.00000000E-01	 1.00000000E+00	 5.00000000E+00
	 1.00000000E+00	 5.00000000E-01	 4.50000000E+00
	 1.00000000E+00	 7.50000000E-01	 5.00000000E+00
	 1.00000000E+00	 1.00000000E+00	 4.50000000E+00
	 7.50000000E-01	 5.00000000E-01	 5.00000000E+00
	 7.50000000E-01	 1.00000000E+00	 5.00000000E+00
	 5.00000000E-01	 5.00000000E-01	 4.50000000E+00
	 5.00000000E-01	 7.50000000E-01	 5.00000000E+00
	 5.00000000E-01	 1.00000000E+00	 4.50000000E+00
	 1.00000000E+00	-1.49012000E-08	 5.00000000E+00
	 5.00000000E-01	-1.49012000E-08	 5.00000000E+00
	 1.00000000E+00	-1.49012000E-08	 4.50000000E+00
	 1.00000000E+00	 2.50000000E-01	 5.00000000E+00
	 7.50000000E-01	-1.49012000E-08	 5.00000000E+00
	 5.00000000E-01	-1.49012000E-08	 4.50000000E+00
	 5.00000000E-01	 2.50000000E-01	 5.00000000E+00
	-7.45058000E-09	 5.00000000E-01	 5.00000000E+00
	-7.45058000E-09	 1.00000000E+00	 5.00000000E+00
	 2.50000000E-01	 5.00000000E-01	 5.00000000E+00
	 2.50000000E-01	 1.00000000E+00	 5.00000000E+00
	-7.45058000E-09	 5.00000000E-01	 4.50000000E+00
	-7.45058000E-09	 7.50000000E-01	 5.00000000E+00
	-7.45058000E-09	 1.00000000E+00	 4.50000000E+00
	-7.45058000E-09	-1.49012000E-08	 5.00000000E+00
	 2.50000000E-01	-1.49012000E-08	 5.00000000E+00
	-7.45058000E-09	-1.49012000E-08	 4.50000000E+00
	-7.45058000E-09	 2.50000000E-01	 5.00000000E+00
	 1.00000000E+00	 5.00000000E-01	 6.00000000E+00
	 1.00000000E+00	 1.00000000E+00	 6.00000000E+00
	 5.00000000E-01	 5.00000000E-01	 6.00000000E+00
	 5.00000000E-01	 1.00000000E+00	 6.00000000E+00
	 1.00000000E+00	 5.00000000E-01	 5.50000000E+00
	 1.00000000E+00	 7.50000000E-01	 6.00000000E+00
	 1.00000000E+00	 1.00000000E+00	 5.50000000E+00
	 7.50000000E-01	 5.00000000E-01	 6.00000000E+00
	 7.50000000E-01	 1.00000000E+00	 6.00000000E+00
	 5.00000000E-01	 5.00000000E-01	 5.50000000E+00
	 5.00000000E-01	 7.50000000E-01	 6.00000000E+00
	 5.00000000E-01	 1.00000000E+00	 5.50000000E+00
	 1.00000000E+00	-1.49012000E-08	 6.00000000E+00
	 5.00000000E-01	-1.49012000E-08	 6.00000000E+00
	 1.00000000E+00	-1.49012000E-08	 5.50000000E+00
	 1.00000000E+00	 2.50000000E-01	 6.00000000E+00
	 7.50000000E-01	-1.49012000E-08	 6.00000000E+00
	 5.00000000E-01	-1.49012000E-08	 5.50000000E+00
	 5.00000000E-01	 2.50000000E-01	 6.00000000E+00
	-7.45058000E-09	 5.00000000E-01	 6.00000000E+00
	-7.45058000E-09	 1.00000000E+00	 6.00000000E+00
	 2.50000000E-01	 5.00000000E-01	 6.00000000E+00
	 2.50000000E-01	 1.00000000E+00	 6.00000000E+00
	-7.45058000E-09	 5.00000000E-01	 5.50000000E+00
	-7.45058000E-09	 7.50000000E-01	 6.00000000E+00
	-7.45058000E-09	 1.00000000E+00	 5.50000000E+00
	-7.45058000E-09	-1.49012000E-08	 6.00000000E+00
	 2.50000000E-01	-1.49012000E-08	 6.00000000E+00
	-7.45058000E-09	-1.49012000E-08	 5.50000000E+00
	-7.45058000E-09	 2.50000000E-01	 6.00000000E+00
	 1.00000000E+00	 5.00000000E-01	 7.00000000E+00
[...]
POINT_DATA 522
FIELD U 1
	U 3 522 double
		 0.00000000E+00	 0.00000000E+00	 0.00000000E+00
		 0.00000000E+00	 0.00000000E+00	 0.00000000E+00
		-8.94841000E-06	-1.51417000E-03	-4.40387000E-06
		 1.56995000E-04	-1.68533000E-03	 1.82717000E-03
		 0.00000000E+00	 0.00000000E+00	 0.00000000E+00
		 0.00000000E+00	 0.00000000E+00	 0.00000000E+00
		-1.09661000E-05	-1.15622000E-03	-7.21041000E-06
		 5.20761000E-04	-1.33986000E-03	 1.81837000E-03
		 0.00000000E+00	 0.00000000E+00	 0.00000000E+00
		-2.15397000E-06	-2.18123000E-04	-8.71012000E-07
		 7.43319000E-05	-1.54581000E-03	 9.04185000E-04
		-3.61699000E-05	-3.71303000E-04	 7.65092000E-04
		 0.00000000E+00	 0.00000000E+00	 0.00000000E+00
		 0.00000000E+00	 0.00000000E+00	 0.00000000E+00
		-1.01873000E-05	-1.38748000E-03	-6.53115000E-06
		 3.39749000E-04	-1.56660000E-03	 1.85873000E-03
		 0.00000000E+00	 0.00000000E+00	 0.00000000E+00
		-3.64910000E-06	-9.93521000E-05	-2.65873000E-06
		 2.53580000E-04	-1.19266000E-03	 9.36876000E-04
		 2.45927000E-04	-2.58676000E-04	 7.21970000E-04
		 0.00000000E+00	 0.00000000E+00	 0.00000000E+00
		-1.74245000E-04	-1.67633000E-03	-1.83830000E-03
		 0.00000000E+00	 0.00000000E+00	 0.00000000E+00
		-5.39577000E-04	-1.33270000E-03	-1.83459000E-03
		 0.00000000E+00	 0.00000000E+00	 0.00000000E+00
		 3.26595000E-05	-3.68263000E-04	-7.65564000E-04
		-9.20897000E-05	-1.54020000E-03	-9.13292000E-04
		 0.00000000E+00	 0.00000000E+00	 0.00000000E+00
		-3.58102000E-04	-1.55812000E-03	-1.87452000E-03
		 0.00000000E+00	 0.00000000E+00	 0.00000000E+00
		-2.50825000E-04	-2.57862000E-04	-7.27188000E-04
		-2.74305000E-04	-1.18837000E-03	-9.51902000E-04
		 0.00000000E+00	 0.00000000E+00	 0.00000000E+00
		 0.00000000E+00	 0.00000000E+00	 0.00000000E+00
		-1.09722000E-05	-4.51419000E-04	-8.99978000E-06
		 8.76541000E-04	-6.28317000E-04	 1.82122000E-03
		 0.00000000E+00	 0.00000000E+00	 0.00000000E+00
		 0.00000000E+00	 0.00000000E+00	 0.00000000E+00
		-1.13363000E-05	-8.56498000E-04	-7.46939000E-06
		 6.96668000E-04	-1.03497000E-03	 1.75633000E-03
		 0.00000000E+00	 0.00000000E+00	 0.00000000E+00
		-4.34800000E-06	 2.78530000E-04	-4.21446000E-06
		 4.33813000E-04	-4.85875000E-04	 9.99129000E-04
		 5.06167000E-04	 1.07223000E-04	 7.58672000E-04
		 0.00000000E+00	 0.00000000E+00	 0.00000000E+00
		-8.93959000E-04	-6.24717000E-04	-1.84035000E-03
		 0.00000000E+00	 0.00000000E+00	 0.00000000E+00
		-7.15134000E-04	-1.02940000E-03	-1.77209000E-03
		 0.00000000E+00	 0.00000000E+00	 0.00000000E+00
		-5.11956000E-04	 1.05041000E-04	-7.68541000E-04
		-4.54239000E-04	-4.84360000E-04	-1.01793000E-03
		-1.24241000E-05	-8.31487000E-03	-4.91221000E-05
		 7.08896000E-04	-8.52578000E-03	 4.47270000E-03
		-1.40172000E-05	-7.38572000E-03	-4.07707000E-05
		 1.11321000E-03	-7.60420000E-03	 4.48256000E-03
		-1.31985000E-05	-4.16516000E-03	-1.97347000E-05
		 3.49450000E-04	-8.37108000E-03	 2.15513000E-03
		 4.05281000E-04	-4.36510000E-03	 3.13252000E-03
		-1.30292000E-05	-7.89926000E-03	-4.48412000E-05
		 9.10190000E-04	-8.11495000E-03	 4.52465000E-03
		-1.55652000E-05	-3.53744000E-03	-1.84586000E-05
		 5.50028000E-04	-7.44743000E-03	 2.20990000E-03
		 8.10687000E-04	-3.74197000E-03	 3.13158000E-03
		-7.42369000E-04	-8.49397000E-03	-4.57350000E-03
		-1.14695000E-03	-7.56227000E-03	-4.56719000E-03
		-4.35881000E-04	-4.35057000E-03	-3.17726000E-03
		-3.76803000E-04	-8.35768000E-03	-2.25372000E-03
		-9.44198000E-04	-8.07627000E-03	-4.61749000E-03
		-8.43289000E-04	-3.72237000E-03	-3.17149000E-03
		-5.79912000E-04	-7.42620000E-03	-2.29217000E-03
		-1.51157000E-05	-6.05363000E-03	-2.90520000E-05
		 1.51629000E-03	-6.27466000E-03	 4.49360000E-03
		-1.47759000E-05	-6.76782000E-03	-3.59051000E-05
		 1.31544000E-03	-6.98871000E-03	 4.44908000E-03
		-1.64812000E-05	-2.50805000E-03	-1.50930000E-05
		 7.49666000E-04	-6.11653000E-03	 2.26050000E-03
		 1.22023000E-03	-2.70847000E-03	 3.13904000E-03
		-1.54823000E-03	-6.22699000E-03	-4.55524000E-03
		-1.34841000E-03	-6.94406000E-03	-4.52408000E-03
		-1.25202000E-03	-2.68673000E-03	-3.16976000E-03
		-7.80260000E-04	-6.09133000E-03	-2.31949000E-03
		-2.49457000E-05	-2.06159000E-02	-1.39353000E-04
		 1.40433000E-03	-2.08792000E-02	 7.02956000E-03
		-2.69297000E-05	-1.89671000E-02	-1.22921000E-04
		 1.83938000E-03	-1.92367000E-02	 7.03779000E-03
		-1.36446000E-05	-1.38316000E-02	-8.72342000E-05
		 6.91081000E-04	-2.06938000E-02	 3.41293000E-03
		 1.05311000E-03	-1.40678000E-02	 5.73524000E-03
		-2.61562000E-05	-1.98442000E-02	-1.32938000E-04
		 1.62149000E-03	-2.01133000E-02	 7.08574000E-03
		-1.52640000E-05	-1.25649000E-02	-7.49440000E-05
		 9.06007000E-04	-1.90491000E-02	 3.48142000E-03
		 1.45227000E-03	-1.28049000E-02	 5.74451000E-03
		-1.45646000E-03	-2.07708000E-02	-7.31336000E-03
		-1.89199000E-03	-1.91257000E-02	-7.28866000E-03
		-1.08640000E-03	-1.40023000E-02	-5.91005000E-03
		-7.41853000E-04	-2.06389000E-02	-3.69276000E-03
		-1.67416000E-03	-2.00019000E-02	-7.35657000E-03
		-1.48504000E-03	-1.27334000E-02	-5.89745000E-03
		-9.59238000E-04	-1.89922000E-02	-3.72835000E-03
		-2.52319000E-05	-1.68868000E-02	-1.02478000E-04
		 2.26839000E-03	-1.71617000E-02	 7.06811000E-03
		-2.67863000E-05	-1.79821000E-02	-1.11992000E-04
		 2.05292000E-03	-1.82513000E-02	 6.98446000E-03
		-1.52329000E-05	-1.08954000E-02	-5.90468000E-05
		 1.12318000E-03	-1.69719000E-02	 3.57425000E-03
		 1.84528000E-03	-1.11434000E-02	 5.76269000E-03
		-2.31476000E-03	-1.70517000E-02	-7.27814000E-03
		-2.10345000E-03	-1.81417000E-02	-7.21334000E-03
		-1.87416000E-03	-1.10712000E-02	-5.88683000E-03
		-1.17236000E-03	-1.69151000E-02	-3.78054000E-03
		-4.31007000E-05	-3.90070000E-02	-3.49767000E-04
		 2.37633000E-03	-3.93398000E-02	 9.96827000E-03
		-4.27102000E-05	-3.63336000E-02	-2.96818000E-04
		 2.85580000E-03	-3.66860000E-02	 1.00338000E-02
		-3.68028000E-05	-2.88941000E-02	-2.23754000E-04
		 1.17159000E-03	-3.91081000E-02	 4.69510000E-03
		 1.81797000E-03	-2.91878000E-02	 8.48615000E-03
		-4.33563000E-05	-3.77303000E-02	-3.23876000E-04
		 2.61561000E-03	-3.80786000E-02	 1.00949000E-02
		-3.92700000E-05	-2.67877000E-02	-1.93910000E-04
		 1.40797000E-03	-3.64459000E-02	 4.84877000E-03
		 2.30070000E-03	-2.70985000E-02	 8.51193000E-03
		-2.47803000E-03	-3.91306000E-02	-1.06777000E-02
		-2.95231000E-03	-3.64550000E-02	-1.06359000E-02
		-1.89779000E-03	-2.90350000E-02	-8.94326000E-03
		-1.26216000E-03	-3.90086000E-02	-5.39511000E-03
		-2.71604000E-03	-3.78532000E-02	-1.07548000E-02
		-2.38244000E-03	-2.69360000E-02	-8.90733000E-03
		-1.49660000E-03	-3.63303000E-02	-5.44421000E-03
		-3.66396000E-05	-3.32013000E-02	-2.34251000E-04
		 3.34118000E-03	-3.35542000E-02	 1.00869000E-02
		-4.08069000E-05	-3.48285000E-02	-2.67613000E-04
		 3.09693000E-03	-3.51815000E-02	 9.97462000E-03
		-3.66253000E-05	-2.42133000E-02	-1.56844000E-04
		 1.65105000E-03	-3.33170000E-02	 4.99212000E-03
		 2.77645000E-03	-2.45292000E-02	 8.55635000E-03
		-3.42019000E-03	-3.33087000E-02	-1.05621000E-02
		-3.18712000E-03	-3.49464000E-02	-1.05151000E-02
		-2.84910000E-03	-2.43601000E-02	-8.87538000E-03
		-1.72525000E-03	-3.31904000E-02	-5.46315000E-03
		-4.54894000E-05	-6.42905000E-02	-7.16871000E-04
		 3.73710000E-03	-6.45916000E-02	 1.21279000E-02
		-3.71964000E-05	-6.03812000E-02	-6.04679000E-04
		 3.99051000E-03	-6.06904000E-02	 1.22693000E-02
		-4.57373000E-05	-5.09842000E-02	-5.17004000E-04
		 1.84669000E-03	-6.44055000E-02	 5.56306000E-03
		 3.07288000E-03	-5.13051000E-02	 1.12387000E-02
		-4.09092000E-05	-6.23681000E-02	-6.62009000E-04
		 3.86399000E-03	-6.26741000E-02	 1.22823000E-02
		-4.14582000E-05	-4.76664000E-02	-4.34901000E-04
		 1.97918000E-03	-6.05036000E-02	 5.77229000E-03
		 3.45582000E-03	-4.80027000E-02	 1.13480000E-02
		-3.84880000E-03	-6.42515000E-02	-1.35681000E-02
		-4.08059000E-03	-6.03211000E-02	-1.34868000E-02
		-3.18660000E-03	-5.10297000E-02	-1.22817000E-02
		-1.94338000E-03	-6.42442000E-02	-6.99924000E-03
		-3.96562000E-03	-6.23127000E-02	-1.36122000E-02
		-3.55549000E-03	-4.76966000E-02	-1.22257000E-02
		-2.05865000E-03	-6.03201000E-02	-6.98378000E-03
		-2.57462000E-05	-5.62236000E-02	-4.87506000E-04
		 4.26399000E-03	-5.65325000E-02	 1.23586000E-02
		-3.25337000E-05	-5.83331000E-02	-5.45997000E-04
		 4.12671000E-03	-5.86442000E-02	 1.22637000E-02
		-3.24322000E-05	-4.39765000E-02	-3.45073000E-04
		 2.11811000E-03	-5.63473000E-02	 5.93009000E-03
		 3.85512000E-03	-4.43122000E-02	 1.14141000E-02
		-4.32326000E-03	-5.61483000E-02	-1.33429000E-02
		-4.20325000E-03	-5.82692000E-02	-1.33660000E-02
		-3.93029000E-03	-4.39878000E-02	-1.21103000E-02
		-2.17174000E-03	-5.61524000E-02	-6.90666000E-03
		-3.36692000E-05	-9.24044000E-02	-1.14013000E-03
		 4.58005000E-03	-9.26233000E-02	 1.24763000E-02
		-1.69317000E-05	-8.78083000E-02	-1.00096000E-03
		 4.59200000E-03	-8.80156000E-02	 1.26361000E-02
		-4.06259000E-05	-7.82745000E-02	-9.30513000E-04
		 2.27021000E-03	-9.25154000E-02	 5.60557000E-03
		 4.25013000E-03	-7.85446000E-02	 1.24923000E-02
		-2.48824000E-05	-9.01051000E-02	-1.07157000E-03
		 4.58671000E-03	-9.03161000E-02	 1.25849000E-02
		-2.92691000E-05	-7.39386000E-02	-7.97755000E-04
		 2.28857000E-03	-8.79143000E-02	 5.78361000E-03
		 4.36648000E-03	-7.42018000E-02	 1.26535000E-02
		-4.64525000E-03	-9.22103000E-02	-1.47629000E-02
		-4.62373000E-03	-8.76048000E-02	-1.46443000E-02
		-4.34007000E-03	-7.81553000E-02	-1.43571000E-02
		-2.33753000E-03	-9.23107000E-02	-7.88904000E-03
		-4.63391000E-03	-8.99029000E-02	-1.47333000E-02
		-4.43040000E-03	-7.37999000E-02	-1.42566000E-02
		-2.32200000E-03	-8.77104000E-02	-7.78778000E-03
		 9.33029000E-07	-8.31993000E-02	-8.52263000E-04
		 4.61517000E-03	-8.34057000E-02	 1.27677000E-02
		-8.76391000E-06	-8.55035000E-02	-9.27385000E-04
		 4.60339000E-03	-8.57090000E-02	 1.26921000E-02
		-1.57964000E-05	-6.94830000E-02	-6.60099000E-04
		 2.30965000E-03	-8.33037000E-02	 5.93541000E-03
		 4.50788000E-03	-6.97404000E-02	 1.27637000E-02
		-4.61214000E-03	-8.29980000E-02	-1.44792000E-02
		-4.61924000E-03	-8.53007000E-02	-1.45530000E-02
		-4.54004000E-03	-6.93354000E-02	-1.40956000E-02
		-2.30753000E-03	-8.31018000E-02	-7.64282000E-03
		-8.62522000E-06	-1.19903000E-01	-1.52871000E-03
		 4.94047000E-03	-1.20071000E-01	 1.17941000E-02
		 2.72161000E-05	-1.14993000E-01	-1.37805000E-03
		 4.91474000E-03	-1.15157000E-01	 1.19337000E-02
		-2.37881000E-05	-1.06318000E-01	-1.33789000E-03
		 2.46673000E-03	-1.19992000E-01	 5.12558000E-03
		 4.78460000E-03	-1.06508000E-01	 1.21729000E-02
		 7.37657000E-06	-1.17438000E-01	-1.45287000E-03
		 4.92616000E-03	-1.17605000E-01	 1.18816000E-02
		 3.94970000E-06	-1.01550000E-01	-1.19652000E-03
		 2.47394000E-03	-1.15082000E-01	 5.28522000E-03
		 4.75843000E-03	-1.01732000E-01	 1.23212000E-02
		-4.95988000E-03	-1.19689000E-01	-1.48517000E-02
		-4.86909000E-03	-1.14774000E-01	-1.46882000E-02
		-4.82854000E-03	-1.06104000E-01	-1.48583000E-02
		-2.48490000E-03	-1.19806000E-01	-8.18150000E-03
		-4.91704000E-03	-1.17221000E-01	-1.47883000E-02
		-4.75281000E-03	-1.01333000E-01	-1.47206000E-02
		-2.42314000E-03	-1.14894000E-01	-8.04035000E-03
		 5.93280000E-05	-1.10134000E-01	-1.22967000E-03
		 4.89020000E-03	-1.10304000E-01	 1.20760000E-02
		 4.62581000E-05	-1.12559000E-01	-1.30484000E-03
		 4.90576000E-03	-1.12722000E-01	 1.19803000E-02
		 2.97747000E-05	-9.68232000E-02	-1.04429000E-03
		 2.47814000E-03	-1.10227000E-01	 5.44971000E-03
		 4.73049000E-03	-9.70136000E-02	 1.24670000E-02
		-4.78457000E-03	-1.09908000E-01	-1.45323000E-02
		-4.82514000E-03	-1.12336000E-01	-1.45869000E-02
		-4.67851000E-03	-9.66093000E-02	-1.45593000E-02
		-2.36352000E-03	-1.10030000E-01	-7.90779000E-03
		 6.08819000E-05	-1.46332000E-01	-1.89900000E-03
		 5.06120000E-03	-1.46540000E-01	 1.12964000E-02
		 7.06915000E-05	-1.41291000E-01	-1.72573000E-03
		 5.07047000E-03	-1.41498000E-01	 1.14282000E-02
		 1.76265000E-05	-1.33172000E-01	-1.71698000E-03
		 2.55698000E-03	-1.46435000E-01	 4.70426000E-03
		 5.02736000E-03	-1.33355000E-01	 1.15050000E-02
		 6.71562000E-05	-1.43819000E-01	-1.80895000E-03
		 5.06803000E-03	-1.44025000E-01	 1.13675000E-02
		 4.82391000E-05	-1.28174000E-01	-1.55164000E-03
		 2.56423000E-03	-1.41393000E-01	 4.85327000E-03
		 5.03283000E-03	-1.28355000E-01	 1.16394000E-02
		-4.95363000E-03	-1.46131000E-01	-1.50627000E-02
		-4.93868000E-03	-1.41075000E-01	-1.48499000E-02
		-5.00304000E-03	-1.32979000E-01	-1.49198000E-02
		-2.43840000E-03	-1.46231000E-01	-8.49325000E-03
		-4.94573000E-03	-1.43606000E-01	-1.49538000E-02
		-4.94624000E-03	-1.27968000E-01	-1.47236000E-02
		-2.42657000E-03	-1.41181000E-01	-8.29636000E-03
		 7.88465000E-05	-1.36261000E-01	-1.58687000E-03
		 5.07903000E-03	-1.36456000E-01	 1.15353000E-02
		 7.39361000E-05	-1.38768000E-01	-1.65220000E-03
		 5.07309000E-03	-1.38973000E-01	 1.14786000E-02
		 7.62904000E-05	-1.23201000E-01	-1.41144000E-03
		 2.57310000E-03	-1.36359000E-01	 4.97695000E-03
		 5.03606000E-03	-1.23378000E-01	 1.17608000E-02
		-4.92386000E-03	-1.36034000E-01	-1.46823000E-02
		-4.93230000E-03	-1.38551000E-01	-1.47563000E-02
		-4.89091000E-03	-1.22984000E-01	-1.45650000E-02
		-2.41706000E-03	-1.36145000E-01	-8.14262000E-03
		 0.00000000E+00	 0.00000000E+00	 0.00000000E+00
		 0.00000000E+00	 0.00000000E+00	 0.00000000E+00
		 1.12598000E-04	-7.72098000E-03	-2.30402000E-04
		-1.80109000E-03	-8.16153000E-03	 7.36758000E-03
		 0.00000000E+00	 0.00000000E+00	 0.00000000E+00
		 0.00000000E+00	 0.00000000E+00	 0.00000000E+00
		 9.11365000E-05	-9.17726000E-03	-1.75407000E-04
		-9.15775000E-04	-9.65448000E-03	 7.52433000E-03
		 0.00000000E+00	 0.00000000E+00	 0.00000000E+00
		 5.43055000E-05	-1.61582000E-03	-9.99934000E-05
		-8.45985000E-04	-7.77681000E-03	 3.53654000E-03
		-1.56574000E-03	-2.26838000E-03	 3.86486000E-03
		 0.00000000E+00	 0.00000000E+00	 0.00000000E+00
		 0.00000000E+00	 0.00000000E+00	 0.00000000E+00
		 1.00725000E-04	-8.60785000E-03	-2.03365000E-04
		-1.35233000E-03	-9.06343000E-03	 7.36246000E-03
		 0.00000000E+00	 0.00000000E+00	 0.00000000E+00
		 2.49621000E-05	-2.60180000E-03	-6.78026000E-05
		-4.10684000E-04	-9.24370000E-03	 3.55129000E-03
		-4.56776000E-04	-3.25572000E-03	 3.80301000E-03
		 0.00000000E+00	 0.00000000E+00	 0.00000000E+00
		 2.00967000E-03	-8.07260000E-03	-7.84651000E-03
		 0.00000000E+00	 0.00000000E+00	 0.00000000E+00
		 1.09580000E-03	-9.54789000E-03	-7.89657000E-03
		 0.00000000E+00	 0.00000000E+00	 0.00000000E+00
		 1.66017000E-03	-2.27200000E-03	-4.08060000E-03
		 1.06696000E-03	-7.73062000E-03	-4.00232000E-03
		 0.00000000E+00	 0.00000000E+00	 0.00000000E+00
		 1.54517000E-03	-8.96438000E-03	-7.78853000E-03
		 0.00000000E+00	 0.00000000E+00	 0.00000000E+00
		 5.00928000E-04	-3.24190000E-03	-3.95069000E-03
		 5.92733000E-04	-9.19083000E-03	-3.90894000E-03
		 0.00000000E+00	 0.00000000E+00	 0.00000000E+00
		 0.00000000E+00	 0.00000000E+00	 0.00000000E+00
		 7.77467000E-05	-9.73707000E-03	-1.02383000E-04
		-1.22009000E-05	-1.01803000E-02	 7.49701000E-03
		 0.00000000E+00	 0.00000000E+00	 0.00000000E+00
		 0.00000000E+00	 0.00000000E+00	 0.00000000E+00
		 8.24320000E-05	-9.61569000E-03	-1.42907000E-04
		-4.71944000E-04	-1.00732000E-02	 7.61214000E-03
		 0.00000000E+00	 0.00000000E+00	 0.00000000E+00
		 7.78483000E-06	-2.57417000E-03	-3.06908000E-05
		 3.52250000E-05	-9.79014000E-03	 3.47599000E-03
		 7.01363000E-04	-3.20820000E-03	 3.93729000E-03
		 0.00000000E+00	 0.00000000E+00	 0.00000000E+00
		 1.72121000E-04	-1.00657000E-02	-7.72055000E-03
		 0.00000000E+00	 0.00000000E+00	 0.00000000E+00
		 6.37093000E-04	-9.96330000E-03	-7.91920000E-03
		 0.00000000E+00	 0.00000000E+00	 0.00000000E+00
		-6.88753000E-04	-3.17400000E-03	-4.01133000E-03
		 1.24349000E-04	-9.73880000E-03	-3.68557000E-03
		 3.51982000E-04	-2.85053000E-02	-6.08568000E-04
		-2.39138000E-03	-2.89624000E-02	 1.21971000E-02
		 3.39108000E-04	-3.09239000E-02	-5.30767000E-04
		-1.77051000E-03	-3.13882000E-02	 1.23000000E-02
		 2.17546000E-04	-1.68617000E-02	-3.95983000E-04
		-1.01924000E-03	-2.86659000E-02	 5.81097000E-03
		-2.11080000E-03	-1.73709000E-02	 1.00665000E-02
		 3.45632000E-04	-2.97828000E-02	-5.71142000E-04
		-2.08051000E-03	-3.02409000E-02	 1.21859000E-02
		 1.97273000E-04	-1.88075000E-02	-3.24978000E-04
		-7.09658000E-04	-3.10878000E-02	 5.84193000E-03
		-1.35949000E-03	-1.93187000E-02	 1.01761000E-02
		 3.08624000E-03	-2.86593000E-02	-1.34334000E-02
		 2.43759000E-03	-3.10806000E-02	-1.33811000E-02
		 2.53135000E-03	-1.71834000E-02	-1.08856000E-02
		 1.71962000E-03	-2.85146000E-02	-7.03388000E-03
		 2.76269000E-03	-2.99421000E-02	-1.33442000E-02
		 1.74895000E-03	-1.91174000E-02	-1.08514000E-02
		 1.38890000E-03	-3.09356000E-02	-6.90545000E-03
		 3.21114000E-04	-3.27201000E-02	-4.35515000E-04
		-1.12671000E-03	-3.31616000E-02	 1.23650000E-02
		 3.29888000E-04	-3.18877000E-02	-4.85864000E-04
		-1.44788000E-03	-3.23756000E-02	 1.24169000E-02
		 1.81521000E-04	-1.99794000E-02	-2.36642000E-04
		-4.09633000E-04	-3.28674000E-02	 5.83507000E-03
		-6.01548000E-04	-2.04941000E-02	 1.02265000E-02
		 1.79235000E-03	-3.28670000E-02	-1.32574000E-02
		 2.11510000E-03	-3.20413000E-02	-1.34128000E-02
		 9.78490000E-04	-2.02968000E-02	-1.07217000E-02
		 1.05820000E-03	-3.27254000E-02	-6.70661000E-03
		 6.81002000E-04	-5.77462000E-02	-1.16389000E-03
		-2.97399000E-03	-5.81162000E-02	 1.49404000E-02
		 6.76374000E-04	-6.12139000E-02	-1.09680000E-03
		-2.64734000E-03	-6.16875000E-02	 1.50482000E-02
		 5.11732000E-04	-4.22384000E-02	-8.62957000E-04
		-1.14277000E-03	-5.78880000E-02	 6.86571000E-03
		-2.68173000E-03	-4.26822000E-02	 1.38533000E-02
		 6.80610000E-04	-5.95258000E-02	-1.12750000E-03
		-2.81248000E-03	-5.99580000E-02	 1.49178000E-02
		 5.01709000E-04	-4.51721000E-02	-7.89287000E-04
		-1.01008000E-03	-6.14089000E-02	 6.86213000E-03
		-2.18685000E-03	-4.56279000E-02	 1.39625000E-02
		 4.30152000E-03	-5.76448000E-02	-1.72622000E-02
		 4.00389000E-03	-6.11281000E-02	-1.72717000E-02
		 3.69382000E-03	-4.22703000E-02	-1.55908000E-02
		 2.49280000E-03	-5.76550000E-02	-9.18546000E-03
		 4.15138000E-03	-5.94256000E-02	-1.71946000E-02
		 3.19165000E-03	-4.51982000E-02	-1.55570000E-02
		 2.34088000E-03	-6.11365000E-02	-9.07794000E-03
		 6.62738000E-04	-6.43888000E-02	-1.02410000E-03
		-2.41682000E-03	-6.49661000E-02	 1.50735000E-02
		 6.70125000E-04	-6.28546000E-02	-1.06425000E-03
		-2.53407000E-03	-6.32571000E-02	 1.51958000E-02
		 4.95784000E-04	-4.76170000E-02	-7.01671000E-04
		-8.49246000E-04	-6.46367000E-02	 6.77407000E-03
		-1.71602000E-03	-4.80868000E-02	 1.40115000E-02
		 3.70671000E-03	-6.43304000E-02	-1.71791000E-02
		 3.85546000E-03	-6.27621000E-02	-1.73578000E-02
		 2.67218000E-03	-4.76342000E-02	-1.54367000E-02
		 2.17794000E-03	-6.43378000E-02	-8.86760000E-03
		 1.09175000E-03	-9.07619000E-02	-1.82578000E-03
		-3.59962000E-03	-9.08899000E-02	 1.47452000E-02
		 1.09428000E-03	-9.55679000E-02	-1.77454000E-03
		-3.82413000E-03	-9.61465000E-02	 1.48129000E-02
		 8.44687000E-04	-7.42506000E-02	-1.49443000E-03
		-1.25694000E-03	-9.08448000E-02	 6.51578000E-03
		-3.26498000E-03	-7.46026000E-02	 1.51399000E-02
		 1.09511000E-03	-9.31150000E-02	-1.79766000E-03
		-3.70180000E-03	-9.34093000E-02	 1.46980000E-02
		 8.37678000E-04	-7.83807000E-02	-1.47916000E-03
		-1.24216000E-03	-9.58610000E-02	 6.48697000E-03
		-3.26434000E-03	-7.86664000E-02	 1.52800000E-02
		 5.61251000E-03	-9.04521000E-02	-1.83908000E-02
		 5.71427000E-03	-9.50960000E-02	-1.83492000E-02
		 4.93212000E-03	-7.40327000E-02	-1.81316000E-02
		 3.35449000E-03	-9.06303000E-02	-1.01634000E-02
		 5.66771000E-03	-9.27533000E-02	-1.82879000E-02
		 4.87482000E-03	-7.81145000E-02	-1.81359000E-02
		 3.39245000E-03	-9.53311000E-02	-1.00349000E-02
		 9.52813000E-04	-1.00492000E-01	-1.72581000E-03
		-3.92232000E-03	-1.01438000E-01	 1.48504000E-02
		 1.02564000E-03	-9.79757000E-02	-1.75285000E-03
		-3.87107000E-03	-9.92599000E-02	 1.49285000E-02
		 8.02034000E-04	-8.24441000E-02	-1.48862000E-03
		-1.59964000E-03	-1.00950000E-01	 6.42909000E-03
		-3.09588000E-03	-8.26082000E-02	 1.52872000E-02
		 5.83020000E-03	-9.98754000E-02	-1.82823000E-02