# vtk DataFile Version 3.0

ASCII
DATASET UNSTRUCTURED_GRID

POINTS 522 double
	 1.00000000E+00	 1.00000000E+00	-5.96046000E-08
	 1.00000000E+00	 5.00000000E-01	-5.96046000E-08
	 1.00000000E+00	 5.00000000E-01	 1.00000000E+00
	 1.00000000E+00	 1.00000000E+00	 1.00000000E+00
	 5.00000000E-01	 1.00000000E+00	-5.96046000E-08
	 5.00000000E-01	 5.00000000E-01	-5.96046000E-08
	 5.00000000E-01	 5.00000000E-01	 1.00000000E+00
	 5.00000000E-01	 1.00000000E+00	 1.00000000E+00
	 1.00000000E+00	 7.50000000E-01	-5.96046000E-08
	 1.00000000E+00	 5.00000000E-01	 5.00000000E-01
	 1.00000000E+00	 7.50000000E-01	 1.00000000E+00
	 1.00000000E+00	 1.00000000E+00	 5.00000000E-01
	 7.50000000E-01	 1.00000000E+00	-5.96046000E-08
	 7.50000000E-01	 5.00000000E-01	-5.96046000E-08
	 7.50000000E-01	 5.00000000E-01	 1.00000000E+00
	 7.50000000E-01	 1.00000000E+00	 1.00000000E+00
	 5.00000000E-01	 7.50000000E-01	-5.96046000E-08
	 5.00000000E-01	 5.00000000E-01	 5.00000000E-01
	 5.00000000E-01	 7.50000000E-01	 1.00000000E+00
	 5.00000000E-01	 1.00000000E+00	 5.00000000E-01
	 1.00000000E+00	-1.49012000E-08	-5.96046000E-08
	 1.00000000E+00	-1.49012000E-08	 1.00000000E+00
	 5.00000000E-01	-1.49012000E-08	-5.96046000E-08
	 5.00000000E-01	-1.49012000E-08	 1.00000000E+00
	 1.00000000E+00	 2.50000000E-01	-5.96046000E-08
	 1.00000000E+00	-1.49012000E-08	 5.00000000E-01
	 1.00000000E+00	 2.50000000E-01	 1.00000000E+00
	 7.50000000E-01	-1.49012000E-08	-5.96046000E-08
	 7.50000000E-01	-1.49012000E-08	 1.00000000E+00
	 5.00000000E-01	 2.50000000E-01	-5.96046000E-08
	 5.00000000E-01	-1.49012000E-08	 5.00000000E-01
	 5.00000000E-01	 2.50000000E-01	 1.00000000E+00
	-7.45058000E-09	 1.00000000E+00	-5.96046000E-08
	-7.45058000E-09	 5.00000000E-01	-5.96046000E-08
	-7.45058000E-09	 5.00000000E-01	 1.00000000E+00
	-7.45058000E-09	 1.00000000E+00	 1.00000000E+00
	 2.50000000E-01	 1.00000000E+00	-5.96046000E-08
	 2.50000000E-01	 5.00000000E-01	-5.96046000E-08
	 2.50000000E-01	 5.00000000E-01	 1.00000000E+00
	 2.50000000E-01	 1.00000000E+00	 1.00000000E+00
	-7.45058000E-09	 7.50000000E-01	-5.96046000E-08
	-7.45058000E-09	 5.00000000E-01	 5.00000000E-01
	-7.45058000E-09	 7.50000000E-01	 1.00000000E+00
	-7.45058000E-09	 1.00000000E+00	 5.00000000E-01
	-7.45058000E-09	-1.49012000E-08	-5.96046000E-08
	-7.45058000E-09	-1.49012000E-08	 1.00000000E+00
	 2.50000000E-01	-1.49012000E-08	-5.96046000E-08
	 2.50000000E-01	-1.49012000E-08	 1.00000000E+00
	-7.45058000E-09	 2.50000000E-01	-5.96046000E-08
	-7.45058000E-09	-1.49012000E-08	 5.00000000E-01
	-7.45058000E-09	 2.50000000E-01	 1.00000000E+00
	 1.00000000E+00	 5.00000000E-01	 2.00000000E+00
	 1.00000000E+00	 1.00000000E+00	 2.00000000E+00
	 5.00000000E-01	 5.00000000E-01	 2.00000000E+00
	 5.00000000E-01	 1.00000000E+00	 2.00000000E+00
	 1.00000000E+00	 5.00000000E-01	 1.50000000E+00
	 1.00000000E+00	 7.50000000E-01	 2.00000000E+00
	 1.00000000E+00	 1.00000000E+00	 1.50000000E+00
	 7.50000000E-01	 5.00000000E-01	 2.00000000E+00
	 7.50000000E-01	 1.00000000E+00	 2.00000000E+00
	 5.00000000E-01	 5.00000000E-01	 1.50000000E+00
	 5.00000000E-01	 7.50000000E-01	 2.00000000E+00
	 5.00000000E-01	 1.00000000E+00	 1.50000000E+00
	 1.00000000E+00	-1.49012000E-08	 2.00000000E+00
	 5.00000000E-01	-1.49012000E-08	 2.00000000E+00
	 1.00000000E+00	-1.49012000E-08	 1.50000000E+00
	 1.00000000E+00	 2.50000000E-01	 2.00000000E+00
	 7.50000000E-01	-1.49012000E-08	 2.00000000E+00
	 5.00000000E-01	-1.49012000E-08	 1.50000000E+00
	 5.00000000E-01	 2.50000000E-01	 2.00000000E+00
	-7.45058000E-09	 5.00000000E-01	 2.00000000E+00
	-7.45058000E-09	 1.00000000E+00	 2.00000000E+00
	 2.50000000E-01	 5.00000000E-01	 2.00000000E+00
	 2.50000000E-01	 1.00000000E+00	 2.00000000E+00
	-7.45058000E-09	 5.00000000E-01	 1.50000000E+00
	-7.45058000E-09	 7.50000000E-01	 2.00000000E+00
	-7.45058000E-09	 1.00000000E+00	 1.50000000E+00
	-7.45058000E-09	-1.49012000E-08	 2.00000000E+00
	 2.50000000E-01	-1.49012000E-08	 2.00000000E+00
	-7.45058000E-09	-1.49012000E-08	 1.50000000E+00
	-7.45058000E-09	 2.50000000E-01	 2.00000000E+00
	 1.00000000E+00	 5.00000000E-01	 3.00000000E+00
	 1.00000000E+00	 1.00000000E+00	 3.00000000E+00
	 5.00000000E-01	 5.00000000E-01	 3.00000000E+00
	 5.00000000E-01	 1.00000000E+00	 3.00000000E+00
	 1.00000000E+00	 5.00000000E-01	 2.50000000E+00
	 1.00000000E+00	 7.50000000E-01	 3.00000000E+00
	 1.00000000E+00	 1.00000000E+00	 2.50000000E+00
	 7.50000000E-01	 5.00000000E-01	 3.00000000E+00
	 7.50000000E-01	 1.00000000E+00	 3.00000000E+00
	 5.00000000E-01	 5.00000000E-01	 2.50000000E+00
	 5.00000000E-01	 7.50000000E-01	 3.00000000E+00
	 5.00000000E-01	 1.00000000E+00	 2.50000000E+00
	 1.00000000E+00	-1.49012000E-08	 3.00000000E+00
	 5.00000000E-01	-1.49012000E-08	 3.00000000E+00
	 1.00000000E+00	-1.49012000E-08	 2.50000000E+00
	 1.00000000E+00	 2.50000000E-01	 3.00000000E+00
	 7.50000000E-01	-1.49012000E-08	 3.00000000E+00
	 5.00000000E-01	-1.49012000E-08	 2.50000000E+00
	 5.00000000E-01	 2.50000000E-01	 3.00000000E+00
	-7.45058000E-09	 5.00000000E-01	 3.00000000E+00
	-7.45058000E-09	 1.00000000E+00	 3.00000000E+00
	 2.50000000E-01	 5.00000000E-01	 3.00000000E+00
	 2.50000000E-01	 1.00000000E+00	 3.00000000E+00
	-7.45058000E-09	 5.00000000E-01	 2.50000000E+00
	-7.45058000E-09	 7.50000000E-01	 3.00000000E+00
	-7.45058000E-09	 1.00000000E+00	 2.50000000E+00
	-7.45058000E-09	-1.49012000E-08	 3.00000000E+00
	 2.50000000E-01	-1.49012000E-08	 3.00000000E+00
	-7.45058000E-09	-1.49012000E-08	 2.50000000E+00
	-7.45058000E-09	 2.50000000E-01	 3.00000000E+00
	 1.00000000E+00	 5.00000000E-01	 4.00000000E+00
	 1.00000000E+00	 1.00000000E+00	 4.00000000E+00
	 5.00000000E-01	 5.00000000E-01	 4.00000000E+00
	 5.00000000E-01	 1.00000000E+00	 4.00000000E+00
	 1.00000000E+00	 5.00000000E-01	 3.50000000E+00
	 1.00000000E+00	 7.50000000E-01	 4.00000000E+00
	 1.00000000E+00	 1.00000000E+00	 3.50000000E+00
	 7.50000000E-01	 5.00000000E-01	 4.00000000E+00
	 7.50000000E-01	 1.00000000E+00	 4.00000000E+00
	 5.00000000E-01	 5.00000000E-01	 3.50000000E+00
	 5.00000000E-01	 7.50000000E-01	 4.00000000E+00
	 5.00000000E-01	 1.00000000E+00	 3.50000000E+00
	 1.00000000E+00	-1.49012000E-08	 4.00000000E+00
	 5.00000000E-01	-1.49012000E-08	 4.00000000E+00
	 1.00000000E+00	-1.49012000E-08	 3.50000000E+00
	 1.00000000E+00	 2.50000000E-01	 4.00000000E+00
	 7.50000000E-01	-1.49012000E-08	 4.00000000E+00
	 5.00000000E-01	-1.49012000E-08	 3.50000000E+00
	 5.00000000E-01	 2.50000000E-01	 4.00000000E+00
	-7.45058000E-09	 5.00000000E-01	 4.00000000E+00
	-7.45058000E-09	 1.00000000E+00	 4.00000000E+00
	 2.50000000E-01	 5.00000000E-01	 4.00000000E+00
	 2.50000000E-01	 1.00000000E+00	 4.00000000E+00
	-7.45058000E-09	 5.00000000E-01	 3.50000000E+00
	-7.45058000E-09	 7.50000000E-01	 4.00000000E+00
	-7.45058000E-09	 1.00000000E+00	 3.50000000E+00
	-7.45058000E-09	-1.49012000E-08	 4.00000000E+00
	 2.50000000E-01	-1.49012000E-08	 4.00000000E+00
	-7.45058000E-09	-1.49012000E-08	 3.50000000E+00
	-7.45058000E-09	 2.50000000E-01	 4.00000000E+00
	 1.00000000E+00	 5.00000000E-01	 5.00000000E+00
	 1.00000000E+00	 1.00000000E+00	 5.00000000E+00
	 5.00000000E-01	 5.00000000E-01	 5.00000000E+00
	 5.00000000E-01	 1.00000000E+00	 5.00000000E+00
	 1.00000000E+00	 5.00000000E-01	 4.50000000E+00
	 1.00000000E+00	 7.50000000E-01	 5.00000000E+00
	 1.00000000E+00	 1.00000000E+00	 4.50000000E+00
	 7.50000000E-01	 5.00000000E-01	 5.00000000E+00
	 7.50000000E-01	 1.00000000E+00	 5.00000000E+00
	 5.00000000E-01	 5.00000000E-01	 4.50000000E+00
	 5.00000000E-01	 7.50000000E-01	 5.00000000E+00
	 5.00000000E-01	 1.00000000E+00	 4.50000000E+00
	 1.00000000E+00	-1.49012000E-08	 5.00000000E+00
	 5.00000000E-01	-1.49012000E-08	 5.00000000E+00
	 1.00000000E+00	-1.49012000E-08	 4.50000000E+00
	 1.00000000E+00	 2.50000000E-01	 5.00000000E+00
	 7.50000000E-01	-1.49012000E-08	 5.00000000E+00
	 5.00000000E-01	-1.49012000E-08	 4.50000000E+00
	 5.00000000E-01	 2.50000000E-01	 5.00000000E+00
	-7.45058000E-09	 5.00000000E-01	 5.00000000E+00
	-7.45058000E-09	 1.00000000E+00	 5.00000000E+00
	 2.50000000E-01	 5.00000000E-01	 5.00000000E+00
	 2.50000000E-01	 1.00000000E+00	 5.00000000E+00
	-7.45058000E-09	 5.00000000E-01	 4.50000000E+00
	-7.45058000E-09	 7.50000000E-01	 5.00000000E+00
	-7.45058000E-09	 1.00000000E+00	 4.50000000E+00
	-7.45058000E-09	-1.49012000E-08	 5.00000000E+00
	 2.50000000E-01	-1.49012000E-08	 5.00000000E+00
	-7.45058000E-09	-1.49012000E-08	 4.50000000E+00
	-7.45058000E-09	 2.50000000E-01	 5.00000000E+00
	 1.00000000E+00	 5.00000000E-01	 6.00000000E+00
	 1.00000000E+00	 1.00000000E+00	 6.00000000E+00
	 5.00000000E-01	 5.00000000E-01	 6.00000000E+00
	 5.00000000E-01	 1.00000000E+00	 6.00000000E+00
	 1.00000000E+00	 5.00000000E-01	 5.50000000E+00
	 1.00000000E+00	 7.50000000E-01	 6.00000000E+00
	 1.00000000E+00	 1.00000000E+00	 5.50000000E+00
	 7.50000000E-01	 5.00000000E-01	 6.00000000E+00
	 7.50000000E-01	 1.00000000E+00	 6.00000000E+00
	 5.00000000E-01	 5.00000000E-01	 5.50000000E+00
	 5.00000000E-01	 7.50000000E-01	 6.00000000E+00
	 5.00000000E-01	 1.00000000E+00	 5.50000000E+00
	 1.00000000E+00	-1.49012000E-08	 6.00000000E+00
	 5.00000000E-01	-1.49012000E-08	 6.00000000E+00
	 1.00000000E+00	-1.49012000E-08	 5.50000000E+00
	 1.00000000E+00	 2.50000000E-01	 6.00000000E+00
	 7.50000000E-01	-1.49012000E-08	 6.00000000E+00
	 5.00000000E-01	-1.49012000E-08	 5.50000000E+00
	 5.00000000E-01	 2.50000000E-01	 6.00000000E+00
	-7.45058000E-09	 5.00000000E-01	 6.00000000E+00
	-7.45058000E-09	 1.00000000E+00	 6.00000000E+00
	 2.50000000E-01	 5.00000000E-01	 6.00000000E+00
	 2.50000000E-01	 1.00000000E+00	 6.00000000E+00
	-7.45058000E-09	 5.00000000E-01	 5.50000000E+00
	-7.45058000E-09	 7.50000000E-01	 6.00000000E+00
	-7.45058000E-09	 1.00000000E+00	 5.50000000E+00
	-7.45058000E-09	-1.49012000E-08	 6.00000000E+00
	 2.50000000E-01	-1.49012000E-08	 6.00000000E+00
	-7.45058000E-09	-1.49012000E-08	 5.50000000E+00
	-7.45058000E-09	 2.50000000E-01	 6.00000000E+00
	 1.00000000E+00	 5.00000000E-01	 7.00000000E+00
[...]
POINT_DATA 522
FIELD U 1
	U 3 522 double
		 0.00000000E+00	 0.00000000E+00	 0.00000000E+00
		 0.00000000E+00	 0.00000000E+00	 0.00000000E+00
		 4.96517000E-06	-5.10815000E-04	-1.58726000E-05
		 6.02360000E-04	-5.13275000E-04	-6.51395000E-05
		 0.00000000E+00	 0.00000000E+00	 0.00000000E+00
		 0.00000000E+00	 0.00000000E+00	 0.00000000E+00
		 3.40330000E-06	 7.69181000E-05	-1.50997000E-05
		 5.91564000E-04	 8.06590000E-05	-6.94750000E-05
		 0.00000000E+00	 0.00000000E+00	 0.00000000E+00
		 2.99937000E-06	-3.15250000E-04	-7.97449000E-06
		 3.01777000E-04	-5.14930000E-04	-7.53110000E-05
		 3.28721000E-04	-3.01990000E-04	-3.47958000E-05
		 0.00000000E+00	 0.00000000E+00	 0.00000000E+00
		 0.00000000E+00	 0.00000000E+00	 0.00000000E+00
		 4.30762000E-06	-2.15131000E-04	-1.51064000E-05
		 5.96981000E-04	-2.12839000E-04	-2.47180000E-05
		 0.00000000E+00	 0.00000000E+00	 0.00000000E+00
		 8.70184000E-07	 1.46002000E-05	-6.83930000E-06
		 2.97492000E-04	 7.52538000E-05	-3.49878000E-05
		 3.27926000E-04	 2.00362000E-05	-3.25983000E-05
		 0.00000000E+00	 0.00000000E+00	 0.00000000E+00
		-5.92654000E-04	-5.16696000E-04	 3.42358000E-05
		 0.00000000E+00	 0.00000000E+00	 0.00000000E+00
		-5.85036000E-04	 7.69328000E-05	 3.99146000E-05
		 0.00000000E+00	 0.00000000E+00	 0.00000000E+00
		-3.23064000E-04	-3.07209000E-04	 1.80226000E-05
		-2.92074000E-04	-5.16890000E-04	 4.37661000E-05
		 0.00000000E+00	 0.00000000E+00	 0.00000000E+00
		-5.88639000E-04	-2.16472000E-04	-4.61688000E-06
		 0.00000000E+00	 0.00000000E+00	 0.00000000E+00
		-3.26621000E-04	 1.54204000E-05	 1.81521000E-05
		-2.90861000E-04	 7.32730000E-05	 5.09596000E-06
		 0.00000000E+00	 0.00000000E+00	 0.00000000E+00
		 0.00000000E+00	 0.00000000E+00	 0.00000000E+00
		 1.54136000E-06	 6.65789000E-04	-1.38786000E-05
		 5.84126000E-04	 6.66931000E-04	-6.33616000E-05
		 0.00000000E+00	 0.00000000E+00	 0.00000000E+00
		 0.00000000E+00	 0.00000000E+00	 0.00000000E+00
		 2.55811000E-06	 3.73204000E-04	-1.48639000E-05
		 5.88007000E-04	 3.76975000E-04	-1.11039000E-04
		 0.00000000E+00	 0.00000000E+00	 0.00000000E+00
		-1.32902000E-06	 3.39305000E-04	-6.47274000E-06
		 2.94421000E-04	 6.63357000E-04	 1.30779000E-05
		 3.09445000E-04	 3.34299000E-04	-3.32061000E-05
		 0.00000000E+00	 0.00000000E+00	 0.00000000E+00
		-5.81043000E-04	 6.63290000E-04	 3.60081000E-05
		 0.00000000E+00	 0.00000000E+00	 0.00000000E+00
		-5.83082000E-04	 3.73369000E-04	 8.17028000E-05
		 0.00000000E+00	 0.00000000E+00	 0.00000000E+00
		-3.12511000E-04	 3.30253000E-04	 1.95832000E-05
		-2.91417000E-04	 6.61511000E-04	-4.04572000E-05
		 1.50623000E-08	-1.93650000E-04	-2.33082000E-05
		 5.64767000E-04	-2.67969000E-04	 2.28734000E-04
		-9.71612000E-07	 4.34232000E-04	-2.65617000E-05
		 6.95603000E-04	 3.65792000E-04	 2.02834000E-04
		 5.42956000E-06	-4.30736000E-04	-1.99067000E-05
		 2.80962000E-04	-2.14117000E-04	 1.80615000E-04
		 6.94235000E-04	-4.76884000E-04	-2.91956000E-05
		-6.29513000E-07	 1.02163000E-04	-2.60376000E-05
		 6.30680000E-04	 3.31787000E-05	 1.83202000E-04
		 4.24329000E-06	 2.60975000E-04	-2.15128000E-05
		 3.48269000E-04	 4.17075000E-04	 1.37743000E-04
		 7.19592000E-04	 2.32513000E-04	-4.69720000E-05
		-5.65841000E-04	-2.69482000E-04	-2.74966000E-04
		-6.98299000E-04	 3.65385000E-04	-2.54836000E-04
		-6.83244000E-04	-4.78305000E-04	-9.65578000E-06
		-2.81180000E-04	-2.14652000E-04	-2.26759000E-04
		-6.32823000E-04	 3.23343000E-05	-2.35001000E-04
		-7.11127000E-04	 2.30266000E-04	 4.89808000E-06
		-3.50362000E-04	 4.17133000E-04	-1.90608000E-04
		-1.42485000E-06	 1.20031000E-03	-2.90380000E-05
		 8.39463000E-04	 1.13706000E-03	 2.23804000E-04
		-1.27053000E-06	 8.00893000E-04	-2.68708000E-05
		 7.67669000E-04	 7.32744000E-04	 2.15758000E-04
		 3.05160000E-06	 9.99957000E-04	-2.25413000E-05
		 4.17668000E-04	 1.18632000E-03	 1.42233000E-04
		 7.70522000E-04	 9.79860000E-04	-3.19102000E-05
		-8.42621000E-04	 1.13818000E-03	-2.79959000E-04
		-7.70863000E-04	 7.33058000E-04	-2.67594000E-04
		-7.64045000E-04	 9.76940000E-04	-1.22497000E-05
		-4.20346000E-04	 1.18709000E-03	-2.00199000E-04
		 1.34188000E-07	-1.41707000E-03	-4.42997000E-05
		 1.93477000E-04	-1.56048000E-03	 1.79933000E-03
		-1.13307000E-06	-1.06910000E-03	-3.42475000E-05
		 4.87527000E-04	-1.21864000E-03	 1.80717000E-03
		-5.85848000E-06	-3.20456000E-04	-3.25026000E-05
		 9.95331000E-05	-1.44920000E-03	 8.96798000E-04
		 3.47533000E-04	-4.25673000E-04	 8.94690000E-04
		-9.43482000E-07	-1.28115000E-03	-3.86416000E-05
		 3.40013000E-04	-1.42974000E-03	 1.78818000E-03
		-7.12700000E-06	 1.61664000E-04	-3.03408000E-05
		 2.43523000E-04	-1.10341000E-03	 8.89757000E-04
		 5.91634000E-04	 4.86985000E-05	 8.78786000E-04
		-1.96269000E-04	-1.55724000E-03	-1.88845000E-03
		-4.91919000E-04	-1.21167000E-03	-1.87702000E-03
		-3.62636000E-04	-4.28892000E-04	-9.59681000E-04
		-1.00386000E-04	-1.44720000E-03	-9.86337000E-04
		-3.44369000E-04	-1.42468000E-03	-1.86543000E-03
		-6.08259000E-04	 5.05706000E-05	-9.38974000E-04
		-2.46384000E-04	-1.09950000E-03	-9.58709000E-04
		-9.55875000E-07	-4.37637000E-04	-2.40483000E-05
		 7.87605000E-04	-5.80588000E-04	 1.81856000E-03
		-1.02912000E-06	-7.91535000E-04	-2.98228000E-05
		 6.37756000E-04	-9.40206000E-04	 1.82692000E-03
		-6.86528000E-06	 8.79431000E-04	-2.72374000E-05
		 3.90939000E-04	-4.69630000E-04	 8.85851000E-04
		 8.37189000E-04	 7.69311000E-04	 9.00702000E-04
		-7.90349000E-04	-5.69819000E-04	-1.86909000E-03
		-6.41305000E-04	-9.31054000E-04	-1.88911000E-03
		-8.53003000E-04	 7.76599000E-04	-9.54061000E-04
		-3.92966000E-04	-4.63815000E-04	-9.34173000E-04
		 1.81472000E-05	-6.80555000E-03	-6.90788000E-05
		-7.77978000E-05	-6.92807000E-03	 3.54634000E-03
		 1.40705000E-05	-6.79394000E-03	-6.15678000E-05
		 1.35507000E-04	-6.91487000E-03	 3.56387000E-03
		 1.37069000E-05	-3.66908000E-03	-5.39118000E-05
		-3.04909000E-05	-6.83984000E-03	 1.74738000E-03
		 9.66550000E-05	-3.80647000E-03	 2.73218000E-03
		 1.65611000E-05	-6.82746000E-03	-6.59265000E-05
		 2.98049000E-05	-6.94810000E-03	 3.52332000E-03
		 1.15385000E-05	-3.45474000E-03	-4.34028000E-05
		 7.48463000E-05	-6.82678000E-03	 1.72794000E-03
		 3.57670000E-04	-3.59061000E-03	 2.75138000E-03
		 1.15205000E-04	-6.90494000E-03	-3.68856000E-03
		-1.07168000E-04	-6.89165000E-03	-3.69145000E-03
		-6.82355000E-05	-3.79099000E-03	-2.84158000E-03
		 6.75031000E-05	-6.82783000E-03	-1.88476000E-03
		 3.98763000E-06	-6.92521000E-03	-3.66124000E-03
		-3.33782000E-04	-3.57608000E-03	-2.84052000E-03
		-4.66897000E-05	-6.81554000E-03	-1.85206000E-03
		 1.14967000E-05	-6.56454000E-03	-5.34551000E-05
		 3.54311000E-04	-6.68275000E-03	 3.56143000E-03
		 1.21290000E-05	-6.70586000E-03	-5.73309000E-05
		 2.43857000E-04	-6.82672000E-03	 3.60782000E-03
		 1.02445000E-05	-2.97809000E-03	-3.40591000E-05
		 1.82148000E-04	-6.59513000E-03	 1.68771000E-03
		 6.29023000E-04	-3.10494000E-03	 2.75046000E-03
		-3.32599000E-04	-6.65848000E-03	-3.67102000E-03
		-2.20248000E-04	-6.80246000E-03	-3.72521000E-03
		-6.07316000E-04	-3.09215000E-03	-2.82221000E-03
		-1.59675000E-04	-6.58459000E-03	-1.79567000E-03
		 4.08640000E-05	-1.50854000E-02	-1.24122000E-04
		-4.47278000E-04	-1.51537000E-02	 4.56892000E-03
		 4.55992000E-05	-1.55144000E-02	-1.17071000E-04
		-3.24145000E-04	-1.55886000E-02	 4.58646000E-03
		 2.62840000E-05	-1.06765000E-02	-9.49065000E-05
		-2.02415000E-04	-1.51054000E-02	 2.23851000E-03
		-2.74883000E-04	-1.07714000E-02	 4.14182000E-03
		 4.24894000E-05	-1.53134000E-02	-1.20920000E-04
		-3.87797000E-04	-1.53849000E-02	 4.54963000E-03
		 2.34783000E-05	-1.08933000E-02	-8.99516000E-05
		-1.38523000E-04	-1.55383000E-02	 2.22009000E-03
		-1.14245000E-04	-1.09899000E-02	 4.16074000E-03
		 5.16636000E-04	-1.51267000E-02	-4.80912000E-03
		 4.08531000E-04	-1.55461000E-02	-4.81546000E-03
		 3.21730000E-04	-1.07477000E-02	-4.33736000E-03
		 2.78176000E-04	-1.50932000E-02	-2.48798000E-03
		 4.63097000E-04	-1.53508000E-02	-4.78019000E-03
		 1.58486000E-04	-1.09614000E-02	-4.34338000E-03
		 2.26815000E-04	-1.55178000E-02	-2.45282000E-03
		 4.53234000E-05	-1.58224000E-02	-1.09962000E-04
		-2.08640000E-04	-1.58999000E-02	 4.58405000E-03
		 4.67026000E-05	-1.56835000E-02	-1.13393000E-04
		-2.63726000E-04	-1.57594000E-02	 4.62448000E-03
		 2.03045000E-05	-1.09459000E-02	-7.70520000E-05
		-8.08281000E-05	-1.58483000E-02	 2.18266000E-03
		 4.54556000E-05	-1.10461000E-02	 4.16653000E-03
		 2.98564000E-04	-1.58559000E-02	-4.80302000E-03
		 3.53277000E-04	-1.57148000E-02	-4.85080000E-03
		-5.97733000E-06	-1.10135000E-02	-4.31979000E-03
		 1.71192000E-04	-1.58261000E-02	-2.40097000E-03
		 5.57103000E-05	-2.47756000E-02	-1.61256000E-04
		-8.08773000E-04	-2.48289000E-02	 4.96728000E-03
		 4.64237000E-05	-2.56314000E-02	-1.68425000E-04
		-7.98210000E-04	-2.56738000E-02	 4.98200000E-03
		 4.47115000E-05	-1.97959000E-02	-1.45269000E-04
		-3.77268000E-04	-2.48017000E-02	 2.41915000E-03
		-6.36874000E-04	-1.98647000E-02	 4.84114000E-03
		 5.24326000E-05	-2.52064000E-02	-1.63334000E-04
		-8.00931000E-04	-2.52539000E-02	 4.94384000E-03
		 4.36423000E-05	-2.04561000E-02	-1.37990000E-04
		-3.76976000E-04	-2.56497000E-02	 2.39709000E-03
		-5.72431000E-04	-2.05178000E-02	 4.85684000E-03
		 9.51685000E-04	-2.47466000E-02	-5.31273000E-03
		 9.19354000E-04	-2.56221000E-02	-5.33839000E-03
		 7.46479000E-04	-1.97876000E-02	-5.12532000E-03
		 5.02288000E-04	-2.47552000E-02	-2.74342000E-03
		 9.36720000E-04	-2.51880000E-02	-5.29941000E-03
		 6.68928000E-04	-2.04631000E-02	-5.13080000E-03
		 4.82116000E-04	-2.56226000E-02	-2.74116000E-03
		 4.70590000E-05	-2.64688000E-02	-1.63464000E-04
		-7.82239000E-04	-2.65084000E-02	 4.99236000E-03
		 4.44231000E-05	-2.60533000E-02	-1.68954000E-04
		-7.94142000E-04	-2.60926000E-02	 5.02292000E-03
		 4.42403000E-05	-2.10412000E-02	-1.39594000E-04
		-3.66856000E-04	-2.64834000E-02	 2.37240000E-03
		-5.03292000E-04	-2.11027000E-02	 4.83751000E-03
		 8.88704000E-04	-2.64756000E-02	-5.32673000E-03
		 9.03378000E-04	-2.60520000E-02	-5.36898000E-03
		 5.94607000E-04	-2.10553000E-02	-5.12330000E-03
		 4.66812000E-04	-2.64698000E-02	-2.70501000E-03
		 6.39496000E-05	-3.50144000E-02	-2.44987000E-04
		-1.09353000E-03	-3.50058000E-02	 4.99228000E-03
		 8.56971000E-05	-3.61381000E-02	-2.33040000E-04
		-1.06082000E-03	-3.61634000E-02	 5.02389000E-03
		 7.31832000E-05	-2.98684000E-02	-1.89892000E-04
		-5.11642000E-04	-3.49991000E-02	 2.37630000E-03
		-9.74689000E-04	-2.98668000E-02	 4.99875000E-03
		 7.39027000E-05	-3.55794000E-02	-2.40945000E-04
		-1.08493000E-03	-3.55885000E-02	 4.99099000E-03
		 8.40118000E-05	-3.08805000E-02	-2.04703000E-04
		-4.88554000E-04	-3.61494000E-02	 2.38954000E-03
		-9.41161000E-04	-3.09086000E-02	 5.00080000E-03
		 1.18576000E-03	-3.50274000E-02	-5.47169000E-03
		 1.20232000E-03	-3.61299000E-02	-5.46618000E-03
		 1.06660000E-03	-2.98865000E-02	-5.40590000E-03
		 6.33628000E-04	-3.50307000E-02	-2.86693000E-03
		 1.18503000E-03	-3.55782000E-02	-5.45054000E-03
		 1.07605000E-03	-3.08682000E-02	-5.42835000E-03
		 6.51195000E-04	-3.61332000E-02	-2.84573000E-03
		 9.34711000E-05	-3.72740000E-02	-2.42333000E-04
		-1.03058000E-03	-3.73015000E-02	 5.02220000E-03
		 9.33697000E-05	-3.67023000E-02	-2.35135000E-04
		-1.03903000E-03	-3.67367000E-02	 5.03767000E-03
		 8.56528000E-05	-3.18846000E-02	-1.98956000E-04
		-4.71963000E-04	-3.72859000E-02	 2.38064000E-03
		-9.23008000E-04	-3.19242000E-02	 5.03052000E-03
		 1.23769000E-03	-3.72612000E-02	-5.50284000E-03
		 1.23065000E-03	-3.66857000E-02	-5.50692000E-03
		 1.08807000E-03	-3.18682000E-02	-5.43351000E-03
		 6.65012000E-04	-3.72675000E-02	-2.85628000E-03
		 1.98776000E-04	-4.53926000E-02	-3.33254000E-04
		-1.03715000E-03	-4.54949000E-02	 4.89800000E-03
		 7.46756000E-05	-4.67039000E-02	-2.87278000E-04
		-1.09517000E-03	-4.68265000E-02	 5.02732000E-03
		 1.04457000E-04	-4.02044000E-02	-3.06286000E-04
		-4.05778000E-04	-4.54619000E-02	 2.26820000E-03
		-1.11913000E-03	-4.02399000E-02	 4.95083000E-03
		 1.47664000E-04	-4.60323000E-02	-2.92332000E-04
		-1.06039000E-03	-4.61606000E-02	 4.96968000E-03
		 7.81588000E-05	-4.14212000E-02	-2.53459000E-04
		-5.06020000E-04	-4.67775000E-02	 2.35811000E-03
		-1.11473000E-03	-4.14785000E-02	 5.04528000E-03
		 1.44090000E-03	-4.52548000E-02	-5.50671000E-03
		 1.37677000E-03	-4.65894000E-02	-5.49659000E-03
		 1.30800000E-03	-4.01566000E-02	-5.49903000E-03
		 8.08333000E-04	-4.53086000E-02	-2.92998000E-03
		 1.41601000E-03	-4.59146000E-02	-5.47995000E-03
		 1.32955000E-03	-4.13778000E-02	-5.47777000E-03
		 7.13611000E-04	-4.66335000E-02	-2.90444000E-03
		-1.91368000E-05	-4.79933000E-02	-3.73479000E-04
		-1.11377000E-03	-4.80084000E-02	 5.03473000E-03
		 8.59559000E-06	-4.73673000E-02	-3.16360000E-04
		-1.11619000E-03	-4.74500000E-02	 5.04700000E-03
		 6.00906000E-05	-4.26336000E-02	-3.04010000E-04
		-5.86696000E-04	-4.79960000E-02	 2.32500000E-03
		-1.07928000E-03	-4.26261000E-02	 5.03230000E-03
		 1.31221000E-03	-4.79941000E-02	-5.64698000E-03
		 1.33515000E-03	-4.72679000E-02	-5.55890000E-03
		 1.35491000E-03	-4.26642000E-02	-5.58178000E-03
		 6.08891000E-04	-4.79985000E-02	-3.02028000E-03
		 0.00000000E+00	 0.00000000E+00	 0.00000000E+00
		 0.00000000E+00	 0.00000000E+00	 0.00000000E+00
		-1.03038000E-05	-1.70649000E-02	-8.38293000E-05
		-3.88358000E-03	-1.84135000E-02	 1.72119000E-02
		 0.00000000E+00	 0.00000000E+00	 0.00000000E+00
		 0.00000000E+00	 0.00000000E+00	 0.00000000E+00
		 3.39210000E-06	-1.97744000E-02	-1.85662000E-04
		-1.60973000E-03	-2.12075000E-02	 1.73117000E-02
		 0.00000000E+00	 0.00000000E+00	 0.00000000E+00
		 1.31008000E-05	-3.35517000E-03	 1.88278000E-05
		-1.94709000E-03	-1.73437000E-02	 8.48604000E-03
		-3.42393000E-03	-4.98805000E-03	 8.84351000E-03
		 0.00000000E+00	 0.00000000E+00	 0.00000000E+00
		 0.00000000E+00	 0.00000000E+00	 0.00000000E+00
		-3.27021000E-07	-1.87999000E-02	-1.47038000E-04
		-2.72495000E-03	-2.01916000E-02	 1.71211000E-02
		 0.00000000E+00	 0.00000000E+00	 0.00000000E+00
		 4.29568000E-06	-5.34585000E-03	-3.15923000E-05
		-8.04524000E-04	-2.00769000E-02	 8.34335000E-03
		-8.19457000E-04	-6.96083000E-03	 8.56057000E-03
		 0.00000000E+00	 0.00000000E+00	 0.00000000E+00
		 3.82204000E-03	-1.76630000E-02	-1.74887000E-02
		 0.00000000E+00	 0.00000000E+00	 0.00000000E+00
		 1.62857000E-03	-2.04518000E-02	-1.78023000E-02
		 0.00000000E+00	 0.00000000E+00	 0.00000000E+00
		 3.42309000E-03	-4.68822000E-03	-8.83593000E-03
		 1.91160000E-03	-1.69618000E-02	-8.68997000E-03
		 0.00000000E+00	 0.00000000E+00	 0.00000000E+00
		 2.71701000E-03	-1.94330000E-02	-1.75262000E-02
		 0.00000000E+00	 0.00000000E+00	 0.00000000E+00
		 8.36731000E-04	-6.68456000E-03	-8.63774000E-03
		 8.13326000E-04	-1.96973000E-02	-8.75433000E-03
		 0.00000000E+00	 0.00000000E+00	 0.00000000E+00
		 0.00000000E+00	 0.00000000E+00	 0.00000000E+00
		 7.08819000E-06	-2.03004000E-02	-1.99847000E-04
		 6.60048000E-04	-2.16242000E-02	 1.71022000E-02
		 0.00000000E+00	 0.00000000E+00	 0.00000000E+00
		 0.00000000E+00	 0.00000000E+00	 0.00000000E+00
		 5.82443000E-06	-2.04163000E-02	-2.07158000E-04
		-4.92027000E-04	-2.18013000E-02	 1.73366000E-02
		 0.00000000E+00	 0.00000000E+00	 0.00000000E+00
		-1.35818000E-05	-5.01244000E-03	-2.32705000E-05
		 3.29788000E-04	-2.05577000E-02	 8.09830000E-03
		 1.83029000E-03	-6.57381000E-03	 8.80566000E-03
		 0.00000000E+00	 0.00000000E+00	 0.00000000E+00
		-5.87223000E-04	-2.09100000E-02	-1.76007000E-02
		 0.00000000E+00	 0.00000000E+00	 0.00000000E+00
		 5.31031000E-04	-2.10528000E-02	-1.78655000E-02
		 0.00000000E+00	 0.00000000E+00	 0.00000000E+00
		-1.81849000E-03	-6.30502000E-03	-8.87514000E-03
		-2.94364000E-04	-2.02117000E-02	-8.52527000E-03
		 1.38056000E-05	-6.74490000E-02	-1.22597000E-03
		-4.26953000E-03	-6.91182000E-02	 2.89387000E-02
		 4.66015000E-05	-7.09802000E-02	-1.40854000E-03
		-2.76560000E-03	-7.26617000E-02	 2.88538000E-02
		 1.89383000E-06	-3.88203000E-02	-4.81674000E-04
		-2.12818000E-03	-6.81168000E-02	 1.36711000E-02
		-4.24210000E-03	-4.04522000E-02	 2.39586000E-02
		 3.13964000E-05	-6.93721000E-02	-1.33169000E-03
		-3.51783000E-03	-7.10489000E-02	 2.88871000E-02
		 1.49979000E-05	-4.20678000E-02	-6.29947000E-04
		-1.35635000E-03	-7.16574000E-02	 1.35363000E-02
		-2.27307000E-03	-4.37145000E-02	 2.39141000E-02
		 4.29603000E-03	-6.71631000E-02	-3.15059000E-02
		 2.86218000E-03	-7.07202000E-02	-3.17879000E-02
		 4.21151000E-03	-3.91288000E-02	-2.50615000E-02
		 2.15311000E-03	-6.71637000E-02	-1.61490000E-02
		 3.58469000E-03	-6.91040000E-02	-3.16636000E-02
		 2.31063000E-03	-4.23906000E-02	-2.53155000E-02
		 1.45479000E-03	-7.07118000E-02	-1.63773000E-02
		 6.49670000E-05	-7.30705000E-02	-1.49335000E-03
		-1.26528000E-03	-7.47142000E-02	 2.86718000E-02
		 5.63420000E-05	-7.21818000E-02	-1.46168000E-03
		-2.01306000E-03	-7.38822000E-02	 2.88684000E-02
		 1.74573000E-05	-4.34008000E-02	-6.77696000E-04
		-6.06015000E-04	-7.37163000E-02	 1.32938000E-02
		-3.39289000E-04	-4.50354000E-02	 2.37647000E-02
		 1.43821000E-03	-7.28191000E-02	-3.17744000E-02
		 2.14869000E-03	-7.19195000E-02	-3.19103000E-02
		 4.33467000E-04	-4.37598000E-02	-2.52562000E-02
		 7.49328000E-04	-7.28077000E-02	-1.63033000E-02
		 1.42813000E-04	-1.37538000E-01	-3.53845000E-03
		-4.18146000E-03	-1.39213000E-01	 3.33215000E-02
		 1.85842000E-04	-1.41522000E-01	-3.73050000E-03
		-3.49615000E-03	-1.43303000E-01	 3.31948000E-02
		 6.33491000E-05	-1.00948000E-01	-2.26905000E-03
		-2.01767000E-03	-1.38287000E-01	 1.47895000E-02
		-4.19578000E-03	-1.02682000E-01	 3.18942000E-02
		 1.65326000E-04	-1.39614000E-01	-3.63745000E-03
		-3.84091000E-03	-1.41351000E-01	 3.32173000E-02
		 9.92785000E-05	-1.04703000E-01	-2.46517000E-03
		-1.67910000E-03	-1.42327000E-01	 1.45819000E-02
		-3.15181000E-03	-1.06438000E-01	 3.17979000E-02
		 4.42941000E-03	-1.36446000E-01	-4.04324000E-02
		 3.86852000E-03	-1.40436000E-01	-4.07277000E-02
		 4.31359000E-03	-1.00253000E-01	-3.65219000E-02
		 2.29083000E-03	-1.36922000E-01	-2.18703000E-02
		 4.14737000E-03	-1.38516000E-01	-4.05545000E-02
		 3.35800000E-03	-1.03989000E-01	-3.68160000E-02
		 2.02848000E-03	-1.40917000E-01	-2.20771000E-02
		 2.22467000E-04	-1.44886000E-01	-3.87587000E-03
		-2.91921000E-03	-1.46789000E-01	 3.29740000E-02
		 2.05005000E-04	-1.43298000E-01	-3.81091000E-03
		-3.21062000E-03	-1.45015000E-01	 3.31917000E-02
		 1.36483000E-04	-1.07446000E-01	-2.58621000E-03
		-1.31474000E-03	-1.45748000E-01	 1.42892000E-02
		-2.14279000E-03	-1.09206000E-01	 3.15822000E-02
		 3.32244000E-03	-1.43842000E-01	-4.08305000E-02
		 3.59620000E-03	-1.42202000E-01	-4.08921000E-02
		 2.38816000E-03	-1.06751000E-01	-3.68454000E-02
		 1.76030000E-03	-1.44316000E-01	-2.20991000E-02
		 4.53487000E-04	-2.15285000E-01	-6.43370000E-03
		-3.96160000E-03	-2.16796000E-01	 3.26194000E-02
		 4.90474000E-04	-2.19709000E-01	-6.58923000E-03
		-3.94879000E-03	-2.21678000E-01	 3.25037000E-02
		 2.45408000E-04	-1.75878000E-01	-4.94104000E-03
		-1.75435000E-03	-2.16026000E-01	 1.30202000E-02
		-4.17302000E-03	-1.77587000E-01	 3.34041000E-02
		 4.72740000E-04	-2.17471000E-01	-6.50980000E-03
		-3.94665000E-03	-2.19159000E-01	 3.25766000E-02
		 2.83197000E-04	-1.80169000E-01	-5.16384000E-03
		-1.60700000E-03	-2.20665000E-01	 1.28873000E-02
		-3.85815000E-03	-1.81830000E-01	 3.33180000E-02
		 4.70697000E-03	-2.13778000E-01	-4.54971000E-02
		 4.63717000E-03	-2.18049000E-01	-4.56829000E-02
		 4.64189000E-03	-1.74541000E-01	-4.33106000E-02
		 2.57846000E-03	-2.14534000E-01	-2.58836000E-02
		 4.67646000E-03	-2.15916000E-01	-4.56087000E-02
		 4.35675000E-03	-1.78793000E-01	-4.35694000E-02
		 2.55125000E-03	-2.18855000E-01	-2.60698000E-02
		 3.91285000E-04	-2.24058000E-01	-6.74538000E-03
		-3.81100000E-03	-2.26395000E-01	 3.23222000E-02
		 4.42381000E-04	-2.21856000E-01	-6.67100000E-03
		-3.87816000E-03	-2.24528000E-01	 3.24311000E-02
		 2.96822000E-04	-1.84130000E-01	-5.39017000E-03
		-1.82344000E-03	-2.25181000E-01	 1.26935000E-02
		-3.38549000E-03	-1.85686000E-01	 3.31030000E-02
		 4.59220000E-03	-2.22254000E-01	-4.57988000E-02