# vtk DataFile Version 3.0

ASCII
DATASET UNSTRUCTURED_GRID

POINTS 522 double
	 1.00000000E+00	 1.00000000E+00	-5.96046000E-08
	 1.00000000E+00	 5.00000000E-01	-5.96046000E-08
	 1.00000000E+00	 5.00000000E-01	 1.00000000E+00
	 1.00000000E+00	 1.00000000E+00	 1.00000000E+00
	 5.00000000E-01	 1.00000000E+00	-5.96046000E-08
	 5.00000000E-01	 5.00000000E-01	-5.96046000E-08
	 5.00000000E-01	 5.00000000E-01	 1.00000000E+00
	 5.00000000E-01	 1.00000000E+00	 1.00000000E+00
	 1.00000000E+00	 7.50000000E-01	-5.96046000E-08
	 1.00000000E+00	 5.00000000E-01	 5.00000000E-01
	 1.00000000E+00	 7.50000000E-01	 1.00000000E+00
	 1.00000000E+00	 1.00000000E+00	 5.00000000E-01
	 7.50000000E-01	 1.00000000E+00	-5.96046000E-08
	 7.50000000E-01	 5.00000000E-01	-5.96046000E-08
	 7.50000000E-01	 5.00000000E-01	 1.00000000E+00
	 7.50000000E-01	 1.00000000E+00	 1.00000000E+00
	 5.00000000E-01	 7.50000000E-01	-5.96046000E-08
	 5.00000000E-01	 5.00000000E-01	 5.00000000E-01
	 5.00000000E-01	 7.50000000E-01	 1.00000000E+00
	 5.00000000E-01	 1.00000000E+00	 5.00000000E-01
	 1.00000000E+00	-1.49012000E-08	-5.96046000E-08
	 1.00000000E+00	-1.49012000E-08	 1.00000000E+00
	 5.00000000E-01	-1.49012000E-08	-5.96046000E-08
	 5.00000000E-01	-1.49012000E-08	 1.00000000E+00
	 1.00000000E+00	 2.50000000E-01	-5.96046000E-08
	 1.00000000E+00	-1.49012000E-08	 5.00000000E-01
	 1.00000000E+00	 2.50000000E-01	 1.00000000E+00
	 7.50000000E-01	-1.49012000E-08	-5.96046000E-08
	 7.50000000E-01	-1.49012000E-08	 1.00000000E+00
	 5.00000000E-01	 2.50000000E-01	-5.96046000E-08
	 5.00000000E-01	-1.49012000E-08	 5.00000000E-01
	 5.00000000E-01	 2.50000000E-01	 1.00000000E+00
	-7.45058000E-09	 1.00000000E+00	-5.96046000E-08
	-7.45058000E-09	 5.00000000E-01	-5.96046000E-08
	-7.45058000E-09	 5.00000000E-01	 1.00000000E+00
	-7.45058000E-09	 1.00000000E+00	 1.00000000E+00
	 2.50000000E-01	 1.00000000E+00	-5.96046000E-08
	 2.50000000E-01	 5.00000000E-01	-5.96046000E-08
	 2.50000000E-01	 5.00000000E-01	 1.00000000E+00
	 2.50000000E-01	 1.00000000E+00	 1.00000000E+00
	-7.45058000E-09	 7.50000000E-01	-5.96046000E-08
	-7.45058000E-09	 5.00000000E-01	 5.00000000E-01
	-7.45058000E-09	 7.50000000E-01	 1.00000000E+00
	-7.45058000E-09	 1.00000000E+00	 5.00000000E-01
	-7.45058000E-09	-1.49012000E-08	-5.96046000E-08
	-7.45058000E-09	-1.49012000E-08	 1.00000000E+00
	 2.50000000E-01	-1.49012000E-08	-5.96046000E-08
	 2.50000000E-01	-1.49012000E-08	 1.00000000E+00
	-7.45058000E-09	 2.50000000E-01	-5.96046000E-08
	-7.45058000E-09	-1.49012000E-08	 5.00000000E-01
	-7.45058000E-09	 2.50000000E-01	 1.00000000E+00
	 1.00000000E+00	 5.00000000E-01	 2.00000000E+00
	 1.00000000E+00	 1.00000000E+00	 2.00000000E+00
	 5.00000000E-01	 5.00000000E-01	 2.00000000E+00
	 5.00000000E-01	 1.00000000E+00	 2.00000000E+00
	 1.00000000E+00	 5.00000000E-01	 1.50000000E+00
	 1.00000000E+00	 7.50000000E-01	 2.00000000E+00
	 1.00000000E+00	 1.00000000E+00	 1.50000000E+00
	 7.50000000E-01	 5.00000000E-01	 2.00000000E+00
	 7.50000000E-01	 1.00000000E+00	 2.00000000E+00
	 5.00000000E-01	 5.00000000E-01	 1.50000000E+00
	 5.00000000E-01	 7.50000000E-01	 2.00000000E+00
	 5.00000000E-01	 1.00000000E+00	 1.50000000E+00
	 1.00000000E+00	-1.49012000E-08	 2.00000000E+00
	 5.00000000E-01	-1.49012000E-08	 2.00000000E+00
	 1.00000000E+00	-1.49012000E-08	 1.50000000E+00
	 1.00000000E+00	 2.50000000E-01	 2.00000000E+00
	 7.50000000E-01	-1.49012000E-08	 2.00000000E+00
	 5.00000000E-01	-1.49012000E-08	 1.50000000E+00
	 5.00000000E-01	 2.50000000E-01	 2.00000000E+00
	-7.45058000E-09	 5.00000000E-01	 2.00000000E+00
	-7.45058000E-09	 1.00000000E+00	 2.00000000E+00
	 2.50000000E-01	 5.00000000E-01	 2.00000000E+00
	 2.50000000E-01	 1.00000000E+00	 2.00000000E+00
	-7.45058000E-09	 5.00000000E-01	 1.50000000E+00
	-7.45058000E-09	 7.50000000E-01	 2.00000000E+00
	-7.45058000E-09	 1.00000000E+00	 1.50000000E+00
	-7.45058000E-09	-1.49012000E-08	 2.00000000E+00
	 2.50000000E-01	-1.49012000E-08	 2.00000000E+00
	-7.45058000E-09	-1.49012000E-08	 1.50000000E+00
	-7.45058000E-09	 2.50000000E-01	 2.00000000E+00
	 1.00000000E+00	 5.00000000E-01	 3.00000000E+00
	 1.00000000E+00	 1.00000000E+00	 3.00000000E+00
	 5.00000000E-01	 5.00000000E-01	 3.00000000E+00
	 5.00000000E-01	 1.00000000E+00	 3.00000000E+00
	 1.00000000E+00	 5.00000000E-01	 2.50000000E+00
	 1.00000000E+00	 7.50000000E-01	 3.00000000E+00
	 1.00000000E+00	 1.00000000E+00	 2.50000000E+00
	 7.50000000E-01	 5.00000000E-01	 3.00000000E+00
	 7.50000000E-01	 1.00000000E+00	 3.00000000E+00
	 5.00000000E-01	 5.00000000E-01	 2.50000000E+00
	 5.00000000E-01	 7.50000000E-01	 3.00000000E+00
	 5.00000000E-01	 1.00000000E+00	 2.50000000E+00
	 1.00000000E+00	-1.49012000E-08	 3.00000000E+00
	 5.00000000E-01	-1.49012000E-08	 3.00000000E+00
	 1.00000000E+00	-1.49012000E-08	 2.50000000E+00
	 1.00000000E+00	 2.50000000E-01	 3.00000000E+00
	 7.50000000E-01	-1.49012000E-08	 3.00000000E+00
	 5.00000000E-01	-1.49012000E-08	 2.50000000E+00
	 5.00000000E-01	 2.50000000E-01	 3.00000000E+00
	-7.45058000E-09	 5.00000000E-01	 3.00000000E+00
	-7.45058000E-09	 1.00000000E+00	 3.00000000E+00
	 2.50000000E-01	 5.00000000E-01	 3.00000000E+00
	 2.50000000E-01	 1.00000000E+00	 3.00000000E+00
	-7.45058000E-09	 5.00000000E-01	 2.50000000E+00
	-7.45058000E-09	 7.50000000E-01	 3.00000000E+00
	-7.45058000E-09	 1.00000000E+00	 2.50000000E+00
	-7.45058000E-09	-1.49012000E-08	 3.00000000E+00
	 2.50000000E-01	-1.49012000E-08	 3.00000000E+00
	-7.45058000E-09	-1.49012000E-08	 2.50000000E+00
	-7.45058000E-09	 2.50000000E-01	 3.00000000E+00
	 1.00000000E+00	 5.00000000E-01	 4.00000000E+00
	 1.00000000E+00	 1.00000000E+00	 4.00000000E+00
	 5.00000000E-01	 5.00000000E-01	 4.00000000E+00
	 5.00000000E-01	 1.00000000E+00	 4.00000000E+00
	 1.00000000E+00	 5.00000000E-01	 3.50000000E+00
	 1.00000000E+00	 7.50000000E-01	 4.00000000E+00
	 1.00000000E+00	 1.00000000E+00	 3.50000000E+00
	 7.50000000E-01	 5.00000000E-01	 4.00000000E+00
	 7.50000000E-01	 1.00000000E+00	 4.00000000E+00
	 5.00000000E-01	 5.00000000E-01	 3.50000000E+00
	 5.00000000E-01	 7.50000000E-01	 4.00000000E+00
	 5.00000000E-01	 1.00000000E+00	 3.50000000E+00
	 1.00000000E+00	-1.49012000E-08	 4.00000000E+00
	 5.00000000E-01	-1.49012000E-08	 4.00000000E+00
	 1.00000000E+00	-1.49012000E-08	 3.50000000E+00
	 1.00000000E+00	 2.50000000E-01	 4.00000000E+00
	 7.50000000E-01	-1.49012000E-08	 4.00000000E+00
	 5.00000000E-01	-1.49012000E-08	 3.50000000E+00
	 5.00000000E-01	 2.50000000E-01	 4.00000000E+00
	-7.45058000E-09	 5.00000000E-01	 4.00000000E+00
	-7.45058000E-09	 1.00000000E+00	 4.00000000E+00
	 2.50000000E-01	 5.00000000E-01	 4.00000000E+00
	 2.50000000E-01	 1.00000000E+00	 4.00000000E+00
	-7.45058000E-09	 5.00000000E-01	 3.50000000E+00
	-7.45058000E-09	 7.50000000E-01	 4.00000000E+00
	-7.45058000E-09	 1.00000000E+00	 3.50000000E+00
	-7.45058000E-09	-1.49012000E-08	 4.00000000E+00
	 2.50000000E-01	-1.49012000E-08	 4.00000000E+00
	-7.45058000E-09	-1.49012000E-08	 3.50000000E+00
	-7.45058000E-09	 2.50000000E-01	 4.00000000E+00
	 1.00000000E+00	 5.00000000E-01	 5.00000000E+00
	 1.00000000E+00	 1.00000000E+00	 5.00000000E+00
	 5.00000000E-01	 5.00000000E-01	 5.00000000E+00
	 5.00000000E-01	 1.00000000E+00	 5.00000000E+00
	 1.00000000E+00	 5.00000000E-01	 4.50000000E+00
	 1.00000000E+00	 7.50000000E-01	 5.00000000E+00
	 1.00000000E+00	 1.00000000E+00	 4.50000000E+00
	 7.50000000E-01	 5.00000000E-01	 5.00000000E+00
	 7.50000000E-01	 1.00000000E+00	 5.00000000E+00
	 5.00000000E-01	 5.00000000E-01	 4.50000000E+00
	 5.00000000E-01	 7.50000000E-01	 5.00000000E+00
	 5.00000000E-01	 1.00000000E+00	 4.50000000E+00
	 1.00000000E+00	-1.49012000E-08	 5.00000000E+00
	 5.00000000E-01	-1.49012000E-08	 5.00000000E+00
	 1.00000000E+00	-1.49012000E-08	 4.50000000E+00
	 1.00000000E+00	 2.50000000E-01	 5.00000000E+00
	 7.50000000E-01	-1.49012000E-08	 5.00000000E+00
	 5.00000000E-01	-1.49012000E-08	 4.50000000E+00
	 5.00000000E-01	 2.50000000E-01	 5.00000000E+00
	-7.45058000E-09	 5.00000000E-01	 5.00000000E+00
	-7.45058000E-09	 1.00000000E+00	 5.00000000E+00
	 2.50000000E-01	 5.00000000E-01	 5.00000000E+00
	 2.50000000E-01	 1.00000000E+00	 5.00000000E+00
	-7.45058000E-09	 5.00000000E-01	 4.50000000E+00
	-7.45058000E-09	 7.50000000E-01	 5.00000000E+00
	-7.45058000E-09	 1.00000000E+00	 4.50000000E+00
	-7.45058000E-09	-1.49012000E-08	 5.00000000E+00
	 2.50000000E-01	-1.49012000E-08	 5.00000000E+00
	-7.45058000E-09	-1.49012000E-08	 4.50000000E+00
	-7.45058000E-09	 2.50000000E-01	 5.00000000E+00
	 1.00000000E+00	 5.00000000E-01	 6.00000000E+00
	 1.00000000E+00	 1.00000000E+00	 6.00000000E+00
	 5.00000000E-01	 5.00000000E-01	 6.00000000E+00
	 5.00000000E-01	 1.00000000E+00	 6.00000000E+00
	 1.00000000E+00	 5.00000000E-01	 5.50000000E+00
	 1.00000000E+00	 7.50000000E-01	 6.00000000E+00
	 1.00000000E+00	 1.00000000E+00	 5.50000000E+00
	 7.50000000E-01	 5.00000000E-01	 6.00000000E+00
	 7.50000000E-01	 1.00000000E+00	 6.00000000E+00
	 5.00000000E-01	 5.00000000E-01	 5.50000000E+00
	 5.00000000E-01	 7.50000000E-01	 6.00000000E+00
	 5.00000000E-01	 1.00000000E+00	 5.50000000E+00
	 1.00000000E+00	-1.49012000E-08	 6.00000000E+00
	 5.00000000E-01	-1.49012000E-08	 6.00000000E+00
	 1.00000000E+00	-1.49012000E-08	 5.50000000E+00
	 1.00000000E+00	 2.50000000E-01	 6.00000000E+00
	 7.50000000E-01	-1.49012000E-08	 6.00000000E+00
	 5.00000000E-01	-1.49012000E-08	 5.50000000E+00
	 5.00000000E-01	 2.50000000E-01	 6.00000000E+00
	-7.45058000E-09	 5.00000000E-01	 6.00000000E+00
	-7.45058000E-09	 1.00000000E+00	 6.00000000E+00
	 2.50000000E-01	 5.00000000E-01	 6.00000000E+00
	 2.50000000E-01	 1.00000000E+00	 6.00000000E+00
	-7.45058000E-09	 5.00000000E-01	 5.50000000E+00
	-7.45058000E-09	 7.50000000E-01	 6.00000000E+00
	-7.45058000E-09	 1.00000000E+00	 5.50000000E+00
	-7.45058000E-09	-1.49012000E-08	 6.00000000E+00
	 2.50000000E-01	-1.49012000E-08	 6.00000000E+00
	-7.45058000E-09	-1.49012000E-08	 5.50000000E+00
	-7.45058000E-09	 2.50000000E-01	 6.00000000E+00
	 1.00000000E+00	 5.00000000E-01	 7.00000000E+00
[...]
POINT_DATA 522
FIELD U 1
	U 3 522 double
		 0.00000000E+00	 0.00000000E+00	 0.00000000E+00
		 0.00000000E+00	 0.00000000E+00	 0.00000000E+00
		-1.17108000E-06	 6.49612000E-03	-1.09158000E-04
		-8.74352000E-04	 6.71697000E-03	-4.65784000E-03
		 0.00000000E+00	 0.00000000E+00	 0.00000000E+00
		 0.00000000E+00	 0.00000000E+00	 0.00000000E+00
		-1.33027000E-05	 5.33088000E-03	-1.08549000E-04
		-1.45163000E-03	 5.58017000E-03	-4.72019000E-03
		 0.00000000E+00	 0.00000000E+00	 0.00000000E+00
		 1.17862000E-05	 1.86129000E-03	-4.50484000E-05
		-4.40083000E-04	 6.50507000E-03	-2.17466000E-03
		 1.63777000E-05	 2.21590000E-03	-2.39256000E-03
		 0.00000000E+00	 0.00000000E+00	 0.00000000E+00
		 0.00000000E+00	 0.00000000E+00	 0.00000000E+00
		-7.44717000E-06	 6.00863000E-03	-1.10363000E-04
		-1.16587000E-03	 6.24666000E-03	-4.82810000E-03
		 0.00000000E+00	 0.00000000E+00	 0.00000000E+00
		-3.52917000E-06	 1.45341000E-03	-4.46422000E-05
		-7.31047000E-04	 5.34921000E-03	-2.33859000E-03
		-7.14838000E-04	 1.84308000E-03	-2.33227000E-03
		 0.00000000E+00	 0.00000000E+00	 0.00000000E+00
		 8.67643000E-04	 6.74151000E-03	 4.43471000E-03
		 0.00000000E+00	 0.00000000E+00	 0.00000000E+00
		 1.42416000E-03	 5.60734000E-03	 4.49640000E-03
		 0.00000000E+00	 0.00000000E+00	 0.00000000E+00
		 5.11186000E-06	 2.20691000E-03	 2.29663000E-03
		 4.35714000E-04	 6.51461000E-03	 1.95640000E-03
		 0.00000000E+00	 0.00000000E+00	 0.00000000E+00
		 1.14922000E-03	 6.27521000E-03	 4.60030000E-03
		 0.00000000E+00	 0.00000000E+00	 0.00000000E+00
		 7.07366000E-04	 1.83402000E-03	 2.23674000E-03
		 7.04204000E-04	 5.36249000E-03	 2.11991000E-03
		 0.00000000E+00	 0.00000000E+00	 0.00000000E+00
		 0.00000000E+00	 0.00000000E+00	 0.00000000E+00
		-2.34995000E-05	 3.62051000E-03	-9.97959000E-05
		-2.01419000E-03	 3.85164000E-03	-4.64968000E-03
		 0.00000000E+00	 0.00000000E+00	 0.00000000E+00
		 0.00000000E+00	 0.00000000E+00	 0.00000000E+00
		-1.87495000E-05	 4.57368000E-03	-1.04325000E-04
		-1.72907000E-03	 4.81107000E-03	-4.56043000E-03
		 0.00000000E+00	 0.00000000E+00	 0.00000000E+00
		-1.79886000E-05	 4.39010000E-04	-4.48152000E-05
		-1.02146000E-03	 3.63401000E-03	-2.42776000E-03
		-1.38987000E-03	 8.48134000E-04	-2.39384000E-03
		 0.00000000E+00	 0.00000000E+00	 0.00000000E+00
		 1.97028000E-03	 3.88099000E-03	 4.44360000E-03
		 0.00000000E+00	 0.00000000E+00	 0.00000000E+00
		 1.69191000E-03	 4.83839000E-03	 4.34636000E-03
		 0.00000000E+00	 0.00000000E+00	 0.00000000E+00
		 1.35562000E-03	 8.40689000E-04	 2.29596000E-03
		 9.75762000E-04	 3.65009000E-03	 2.22593000E-03
		-4.12931000E-05	 2.11003000E-02	-2.94965000E-04
		-2.41598000E-03	 2.11993000E-02	-7.82309000E-03
		-4.42796000E-05	 1.85869000E-02	-2.72553000E-04
		-2.70562000E-03	 1.86761000E-02	-7.83074000E-03
		-1.95717000E-05	 1.30958000E-02	-1.93581000E-04
		-1.22500000E-03	 2.11234000E-02	-3.91716000E-03
		-1.70713000E-03	 1.33082000E-02	-6.47027000E-03
		-4.33105000E-05	 1.98765000E-02	-2.84779000E-04
		-2.56143000E-03	 1.99645000E-02	-7.90918000E-03
		-2.80429000E-05	 1.12032000E-02	-1.83126000E-04
		-1.37640000E-03	 1.86042000E-02	-3.98909000E-03
		-2.14286000E-03	 1.13990000E-02	-6.49416000E-03
		 2.33191000E-03	 2.13057000E-02	 7.22807000E-03
		 2.61522000E-03	 1.87868000E-02	 7.28063000E-03
		 1.66469000E-03	 1.33723000E-02	 6.07512000E-03
		 1.14211000E-03	 2.11719000E-02	 3.32610000E-03
		 2.47344000E-03	 2.00756000E-02	 7.33448000E-03
		 2.08544000E-03	 1.14680000E-02	 6.11993000E-03
		 1.28760000E-03	 1.86572000E-02	 3.44278000E-03
		-4.43884000E-05	 1.57797000E-02	-2.42842000E-04
		-3.01511000E-03	 1.58514000E-02	-7.77057000E-03
		-4.45722000E-05	 1.72127000E-02	-2.58697000E-04
		-2.86234000E-03	 1.72991000E-02	-7.75642000E-03
		-3.39696000E-05	 8.86782000E-03	-1.64500000E-04
		-1.52640000E-03	 1.57852000E-02	-3.99144000E-03
		-2.60380000E-03	 9.04853000E-03	-6.44115000E-03
		 2.92389000E-03	 1.59673000E-02	 7.28076000E-03
		 2.77088000E-03	 1.74106000E-02	 7.23473000E-03
		 2.53618000E-03	 9.12086000E-03	 6.10463000E-03
		 1.43725000E-03	 1.58425000E-02	 3.50478000E-03
		-8.24099000E-05	 3.90397000E-02	-5.13957000E-04
		-3.36560000E-03	 3.89878000E-02	-9.07112000E-03
		-7.71965000E-05	 3.57596000E-02	-4.69948000E-04
		-3.37367000E-03	 3.56948000E-02	-9.05165000E-03
		-6.27613000E-05	 2.99079000E-02	-4.03779000E-04
		-1.72137000E-03	 3.90126000E-02	-4.70796000E-03
		-2.96904000E-03	 2.99315000E-02	-8.65727000E-03
		-8.02430000E-05	 3.74038000E-02	-4.92223000E-04
		-3.37019000E-03	 3.73420000E-02	-9.10024000E-03
		-6.09796000E-05	 2.69357000E-02	-3.70015000E-04
		-1.72565000E-03	 3.57254000E-02	-4.71211000E-03
		-3.11406000E-03	 2.69450000E-02	-8.65424000E-03
		 3.19965000E-03	 3.91405000E-02	 8.04360000E-03
		 3.21719000E-03	 3.58507000E-02	 8.11266000E-03
		 2.84228000E-03	 3.00671000E-02	 7.84716000E-03
		 1.55620000E-03	 3.90858000E-02	 3.68005000E-03
		 3.20835000E-03	 3.74975000E-02	 8.11640000E-03
		 2.99007000E-03	 2.70846000E-02	 7.91226000E-03
		 1.57066000E-03	 3.58015000E-02	 3.77231000E-03
		-7.05334000E-05	 3.24494000E-02	-4.24767000E-04
		-3.39515000E-03	 3.23788000E-02	-8.98164000E-03
		-7.37939000E-05	 3.41077000E-02	-4.47322000E-04
		-3.38468000E-03	 3.40402000E-02	-9.00508000E-03
		-5.70270000E-05	 2.38041000E-02	-3.31577000E-04
		-1.73316000E-03	 3.24115000E-02	-4.66890000E-03
		-3.27509000E-03	 2.38053000E-02	-8.58468000E-03
		 3.25105000E-03	 3.25390000E-02	 8.13330000E-03
		 3.23422000E-03	 3.41976000E-02	 8.11159000E-03
		 3.15809000E-03	 2.39493000E-02	 7.91998000E-03
		 1.59136000E-03	 3.24905000E-02	 3.81949000E-03
		-9.78381000E-05	 5.63987000E-02	-7.10432000E-04
		-3.59295000E-03	 5.62926000E-02	-8.88402000E-03
		-9.13751000E-05	 5.29664000E-02	-6.53613000E-04
		-3.48205000E-03	 5.28475000E-02	-8.82690000E-03
		-9.48406000E-05	 4.79726000E-02	-6.17892000E-04
		-1.84167000E-03	 5.63608000E-02	-4.80901000E-03
		-3.56866000E-03	 4.78888000E-02	-9.07550000E-03
		-9.46857000E-05	 5.46701000E-02	-6.81628000E-04
		-3.53774000E-03	 5.45536000E-02	-8.84369000E-03
		-8.84465000E-05	 4.45441000E-02	-5.65516000E-04
		-1.78754000E-03	 5.29227000E-02	-4.74107000E-03
		-3.49150000E-03	 4.44455000E-02	-9.03650000E-03
		 3.39767000E-03	 5.64395000E-02	 7.46504000E-03
		 3.29934000E-03	 5.29937000E-02	 7.52144000E-03
		 3.37820000E-03	 4.80422000E-02	 7.84123000E-03
		 1.64599000E-03	 5.64346000E-02	 3.38826000E-03
		 3.34880000E-03	 5.46996000E-02	 7.48273000E-03
		 3.31312000E-03	 4.46008000E-02	 7.90710000E-03
		 1.60477000E-03	 5.29958000E-02	 3.43425000E-03
		-8.44949000E-05	 4.96181000E-02	-5.98499000E-04
		-3.38491000E-03	 4.94978000E-02	-8.77260000E-03
		-8.78967000E-05	 5.12781000E-02	-6.25974000E-04
		-3.43410000E-03	 5.11589000E-02	-8.80949000E-03
		-8.11815000E-05	 4.11687000E-02	-5.14348000E-04
		-1.73540000E-03	 4.95726000E-02	-4.67622000E-03
		-3.42890000E-03	 4.10670000E-02	-8.97214000E-03
		 3.21535000E-03	 4.96450000E-02	 7.57686000E-03
		 3.25794000E-03	 5.13058000E-02	 7.55863000E-03
		 3.26399000E-03	 4.12255000E-02	 7.94480000E-03
		 1.56624000E-03	 4.96459000E-02	 3.47986000E-03
		-8.85040000E-05	 7.16124000E-02	-8.58683000E-04
		-3.13640000E-03	 7.15505000E-02	-8.64079000E-03
		-8.40243000E-05	 6.85672000E-02	-8.08095000E-04
		-3.13288000E-03	 6.85032000E-02	-8.57469000E-03
		-9.33749000E-05	 6.42073000E-02	-7.88742000E-04
		-1.61156000E-03	 7.15808000E-02	-4.83212000E-03
		-3.42787000E-03	 6.41251000E-02	-8.69319000E-03
		-8.62215000E-05	 7.00899000E-02	-8.33874000E-04
		-3.13444000E-03	 7.00268000E-02	-8.55783000E-03
		-8.76052000E-05	 6.09136000E-02	-7.33484000E-04
		-1.60869000E-03	 6.85356000E-02	-4.72517000E-03
		-3.35439000E-03	 6.08214000E-02	-8.62689000E-03
		 2.95971000E-03	 7.16817000E-02	 6.92417000E-03
		 2.96545000E-03	 6.86335000E-02	 6.95973000E-03
		 3.24215000E-03	 6.42632000E-02	 7.11674000E-03
		 1.43464000E-03	 7.16489000E-02	 3.11516000E-03
		 2.96246000E-03	 7.01560000E-02	 6.89076000E-03
		 3.18016000E-03	 6.09573000E-02	 7.16101000E-03
		 1.44085000E-03	 6.86018000E-02	 3.10923000E-03
		-7.92723000E-05	 6.55152000E-02	-7.57273000E-04
		-3.13029000E-03	 6.54529000E-02	-8.53902000E-03
		-8.17237000E-05	 6.70412000E-02	-7.82221000E-04
		-3.13191000E-03	 6.69772000E-02	-8.58733000E-03
		-8.17331000E-05	 5.76737000E-02	-6.79149000E-04
		-1.60549000E-03	 6.54847000E-02	-4.64921000E-03
		-3.29445000E-03	 5.75795000E-02	-8.58397000E-03
		 2.97260000E-03	 6.55828000E-02	 7.02606000E-03
		 2.96927000E-03	 6.71085000E-02	 7.02457000E-03
		 3.13206000E-03	 5.77143000E-02	 7.22650000E-03
		 1.44711000E-03	 6.55494000E-02	 3.13478000E-03
		-7.66830000E-05	 8.66397000E-02	-1.00628000E-03
		-2.54034000E-03	 8.66364000E-02	-9.35857000E-03
		-7.48482000E-05	 8.40811000E-02	-9.53871000E-04
		-2.71279000E-03	 8.40880000E-02	-9.29525000E-03
		-8.45799000E-05	 7.89317000E-02	-9.29082000E-04
		-1.31232000E-03	 8.66135000E-02	-5.22723000E-03
		-2.79517000E-03	 7.88997000E-02	-8.87199000E-03
		-7.61814000E-05	 8.53810000E-02	-9.80618000E-04
		-2.62622000E-03	 8.53881000E-02	-9.30616000E-03
		-8.20516000E-05	 7.61726000E-02	-8.80014000E-04
		-1.39227000E-03	 8.40604000E-02	-5.14961000E-03
		-2.88538000E-03	 7.61463000E-02	-8.80384000E-03
		 2.38473000E-03	 8.67793000E-02	 7.34335000E-03
		 2.56091000E-03	 8.42360000E-02	 7.38425000E-03
		 2.62434000E-03	 7.90314000E-02	 7.01348000E-03
		 1.15847000E-03	 8.66871000E-02	 3.21390000E-03
		 2.47185000E-03	 8.55327000E-02	 7.34214000E-03
		 2.71998000E-03	 7.62812000E-02	 7.04391000E-03
		 1.24229000E-03	 8.41356000E-02	 3.24108000E-03
		-6.95914000E-05	 8.13661000E-02	-8.96932000E-04
		-2.86711000E-03	 8.13721000E-02	-9.24920000E-03
		-7.27752000E-05	 8.27461000E-02	-9.25985000E-04
		-2.79011000E-03	 8.27514000E-02	-9.27995000E-03
		-7.75000000E-05	 7.33275000E-02	-8.28901000E-04
		-1.46762000E-03	 8.13462000E-02	-5.08939000E-03
		-2.96160000E-03	 7.33040000E-02	-8.77082000E-03
		 2.72527000E-03	 8.15266000E-02	 7.45177000E-03
		 2.64208000E-03	 8.29028000E-02	 7.42457000E-03
		 2.80514000E-03	 7.34430000E-02	 7.11365000E-03
		 1.32810000E-03	 8.14245000E-02	 3.29455000E-03
		-5.29215000E-05	 1.04749000E-01	-1.19787000E-03
		-2.70580000E-03	 1.04720000E-01	-1.07221000E-02
		-4.62000000E-05	 1.02022000E-01	-1.13240000E-03
		-2.83961000E-03	 1.01997000E-01	-1.06744000E-02
		-6.45489000E-05	 9.52233000E-02	-1.09531000E-03
		-1.38009000E-03	 1.04718000E-01	-5.89060000E-03
		-2.51084000E-03	 9.52035000E-02	-1.00537000E-02
		-5.01701000E-05	 1.03404000E-01	-1.16557000E-03
		-2.77302000E-03	 1.03378000E-01	-1.07404000E-02
		-6.05285000E-05	 9.26684000E-02	-1.03702000E-03
		-1.44183000E-03	 1.01991000E-01	-5.87509000E-03
		-2.70129000E-03	 9.26642000E-02	-9.99994000E-03
		 2.60037000E-03	 1.04909000E-01	 8.32593000E-03
		 2.74825000E-03	 1.02187000E-01	 8.40866000E-03
		 2.38188000E-03	 9.53687000E-02	 7.85996000E-03
		 1.27445000E-03	 1.04809000E-01	 3.49545000E-03
		 2.67334000E-03	 1.03569000E-01	 8.40834000E-03
		 2.57961000E-03	 9.28319000E-02	 7.92132000E-03
		 1.34997000E-03	 1.02085000E-01	 3.61052000E-03
		-3.78463000E-05	 9.91597000E-02	-1.06501000E-03
		-2.96981000E-03	 9.91339000E-02	-1.05971000E-02
		-4.18275000E-05	 1.00608000E-01	-1.09918000E-03
		-2.90399000E-03	 1.00584000E-01	-1.06133000E-02
		-5.37965000E-05	 8.99404000E-02	-9.73269000E-04
		-1.50295000E-03	 9.91288000E-02	-5.82924000E-03
		-2.86804000E-03	 8.99389000E-02	-9.93402000E-03
		 2.89533000E-03	 9.93235000E-02	 8.46592000E-03
		 2.82176000E-03	 1.00773000E-01	 8.41336000E-03
		 2.75871000E-03	 9.01106000E-02	 7.98182000E-03
		 1.42764000E-03	 9.92219000E-02	 3.69986000E-03
		-2.56838000E-05	 1.24960000E-01	-1.41423000E-03
		-3.10105000E-03	 1.24873000E-01	-1.13123000E-02
		-2.45453000E-05	 1.21929000E-01	-1.33782000E-03
		-3.08254000E-03	 1.21825000E-01	-1.12656000E-02
		-4.17003000E-05	 1.14866000E-01	-1.30894000E-03
		-1.56394000E-03	 1.24919000E-01	-6.33895000E-03
		-2.96530000E-03	 1.14797000E-01	-1.11251000E-02
		-2.41057000E-05	 1.23440000E-01	-1.37497000E-03
		-3.09025000E-03	 1.23343000E-01	-1.13001000E-02
		-3.53058000E-05	 1.11923000E-01	-1.23577000E-03
		-1.55751000E-03	 1.21879000E-01	-6.29063000E-03
		-3.00923000E-03	 1.11848000E-01	-1.10785000E-02
		 3.04188000E-03	 1.25096000E-01	 8.49472000E-03
		 3.03441000E-03	 1.22057000E-01	 8.60230000E-03
		 2.87781000E-03	 1.15003000E-01	 8.51446000E-03
		 1.51061000E-03	 1.25031000E-01	 3.51351000E-03
		 3.03756000E-03	 1.23573000E-01	 8.56120000E-03
		 2.93979000E-03	 1.12059000E-01	 8.61479000E-03
		 1.50884000E-03	 1.21997000E-01	 3.61808000E-03
		-2.33304000E-05	 1.18873000E-01	-1.27101000E-03
		-3.09025000E-03	 1.18770000E-01	-1.11978000E-02
		-2.49946000E-05	 1.20402000E-01	-1.30317000E-03
		-3.08841000E-03	 1.20298000E-01	-1.12307000E-02
		-2.78993000E-05	 1.08918000E-01	-1.16840000E-03
		-1.55867000E-03	 1.18823000E-01	-6.22668000E-03
		-3.06641000E-03	 1.08843000E-01	-1.10045000E-02
		 3.05317000E-03	 1.18993000E-01	 8.66904000E-03
		 3.04486000E-03	 1.20528000E-01	 8.63716000E-03
		 3.01707000E-03	 1.09048000E-01	 8.67612000E-03
		 1.51438000E-03	 1.18935000E-01	 3.68832000E-03
		 0.00000000E+00	 0.00000000E+00	 0.00000000E+00
		 0.00000000E+00	 0.00000000E+00	 0.00000000E+00
		-1.56576000E-05	-6.13144000E-03	 1.03441000E-04
		-5.15098000E-04	-6.47795000E-03	 5.51183000E-03
		 0.00000000E+00	 0.00000000E+00	 0.00000000E+00
		 0.00000000E+00	 0.00000000E+00	 0.00000000E+00
		 3.50819000E-06	-6.28501000E-03	 9.79525000E-05
		 1.79336000E-04	-6.65886000E-03	 5.57732000E-03
		 0.00000000E+00	 0.00000000E+00	 0.00000000E+00
		-1.39587000E-05	-1.43992000E-03	 5.43033000E-05
		-2.65689000E-04	-6.18196000E-03	 2.70961000E-03
		-7.36565000E-04	-1.92026000E-03	 2.83670000E-03
		 0.00000000E+00	 0.00000000E+00	 0.00000000E+00
		 0.00000000E+00	 0.00000000E+00	 0.00000000E+00
		-5.77266000E-06	-6.32431000E-03	 9.98904000E-05
		-1.62890000E-04	-6.68546000E-03	 5.56249000E-03
		 0.00000000E+00	 0.00000000E+00	 0.00000000E+00
		 3.27200000E-06	-1.69923000E-03	 4.86160000E-05
		 9.02337000E-05	-6.34473000E-03	 2.75324000E-03
		 1.05643000E-04	-2.19069000E-03	 2.75894000E-03
		 0.00000000E+00	 0.00000000E+00	 0.00000000E+00
		 4.81714000E-04	-6.37182000E-03	-5.31669000E-03
		 0.00000000E+00	 0.00000000E+00	 0.00000000E+00
		-1.70799000E-04	-6.55008000E-03	-5.39555000E-03
		 0.00000000E+00	 0.00000000E+00	 0.00000000E+00
		 7.06044000E-04	-1.85579000E-03	-2.72449000E-03
		 2.33772000E-04	-6.12981000E-03	-2.50682000E-03
		 0.00000000E+00	 0.00000000E+00	 0.00000000E+00
		 1.51164000E-04	-6.57594000E-03	-5.37608000E-03
		 0.00000000E+00	 0.00000000E+00	 0.00000000E+00
		-9.84748000E-05	-2.12721000E-03	-2.65742000E-03
		-8.40980000E-05	-6.29056000E-03	-2.56320000E-03
		 0.00000000E+00	 0.00000000E+00	 0.00000000E+00
		 0.00000000E+00	 0.00000000E+00	 0.00000000E+00
		 2.14353000E-05	-5.78053000E-03	 9.89618000E-05
		 8.75575000E-04	-6.12510000E-03	 5.50797000E-03
		 0.00000000E+00	 0.00000000E+00	 0.00000000E+00
		 0.00000000E+00	 0.00000000E+00	 0.00000000E+00
		 1.25782000E-05	-6.14954000E-03	 9.61014000E-05
		 5.22565000E-04	-6.50241000E-03	 5.53444000E-03
		 0.00000000E+00	 0.00000000E+00	 0.00000000E+00
		 2.01722000E-05	-1.23509000E-03	 5.48548000E-05
		 4.49748000E-04	-5.83118000E-03	 2.72945000E-03
		 9.39873000E-04	-1.72314000E-03	 2.83712000E-03
		 0.00000000E+00	 0.00000000E+00	 0.00000000E+00
		-8.31939000E-04	-6.01797000E-03	-5.32319000E-03
		 0.00000000E+00	 0.00000000E+00	 0.00000000E+00
		-4.97196000E-04	-6.39995000E-03	-5.35551000E-03
		 0.00000000E+00	 0.00000000E+00	 0.00000000E+00
		-8.98818000E-04	-1.65744000E-03	-2.72526000E-03
		-4.06230000E-04	-5.77785000E-03	-2.53703000E-03
		-3.69971000E-05	-2.19508000E-02	 1.19327000E-04
		-4.04956000E-04	-2.22465000E-02	 9.19336000E-03
		-1.56131000E-05	-2.21404000E-02	 9.11855000E-05
		-1.97710000E-05	-2.24207000E-02	 9.20071000E-03
		-2.11342000E-05	-1.31646000E-02	 1.24675000E-04
		-2.24372000E-04	-2.20594000E-02	 4.60205000E-03
		-3.95387000E-04	-1.35386000E-02	 7.63388000E-03
		-2.63272000E-05	-2.20866000E-02	 1.03958000E-04
		-2.10986000E-04	-2.23686000E-02	 9.18259000E-03
		-2.66042000E-06	-1.32797000E-02	 1.10411000E-04
		-1.09501000E-05	-2.22398000E-02	 4.57758000E-03
		 1.56513000E-04	-1.36376000E-02	 7.65808000E-03
		 3.38027000E-04	-2.20325000E-02	-8.96578000E-03
		-1.21425000E-05	-2.22223000E-02	-9.02828000E-03
		 3.53290000E-04	-1.33782000E-02	-7.39914000E-03
		 1.51828000E-04	-2.19542000E-02	-4.36702000E-03
		 1.63975000E-04	-2.21673000E-02	-8.98234000E-03
		-1.59624000E-04	-1.34835000E-02	-7.45244000E-03
		-1.57276000E-05	-2.21434000E-02	-4.39471000E-03
		-3.10546000E-06	-2.19582000E-02	 7.11691000E-05
		 4.04058000E-04	-2.22023000E-02	 9.14344000E-03
		-8.95382000E-06	-2.20844000E-02	 8.08901000E-05
		 1.94438000E-04	-2.23847000E-02	 9.22596000E-03
		 1.29586000E-05	-1.28507000E-02	 1.04425000E-04
		 1.89598000E-04	-2.20350000E-02	 4.48778000E-03
		 7.34940000E-04	-1.31878000E-02	 7.61349000E-03
		-3.83175000E-04	-2.20292000E-02	-9.01242000E-03
		-1.98555000E-04	-2.21697000E-02	-9.07832000E-03
		-6.95697000E-04	-1.30464000E-02	-7.41823000E-03
		-1.88414000E-04	-2.19525000E-02	-4.34353000E-03
		-1.01645000E-04	-4.22361000E-02	 6.54440000E-05
		-9.69136000E-04	-4.23532000E-02	 1.05124000E-02
		-7.59237000E-05	-4.30599000E-02	 1.75641000E-06
		-8.91304000E-04	-4.32686000E-02	 1.04797000E-02
		-6.13413000E-05	-3.18283000E-02	 9.70376000E-05
		-5.33646000E-04	-4.22884000E-02	 5.28252000E-03
		-5.94189000E-04	-3.20617000E-02	 1.01257000E-02
		-8.65448000E-05	-4.26573000E-02	 3.81246000E-05
		-9.31672000E-04	-4.28300000E-02	 1.04277000E-02
		-3.91826000E-05	-3.22619000E-02	 5.07005000E-05
		-5.07960000E-04	-4.31620000E-02	 5.15168000E-03
		-3.69319000E-04	-3.24892000E-02	 1.01203000E-02
		 7.36191000E-04	-4.21314000E-02	-1.03646000E-02
		 7.43231000E-04	-4.29681000E-02	-1.04938000E-02
		 4.71177000E-04	-3.18190000E-02	-9.93573000E-03
		 3.19660000E-04	-4.21808000E-02	-5.14046000E-03
		 7.38827000E-04	-4.25506000E-02	-1.03629000E-02
		 2.98094000E-04	-3.22435000E-02	-1.00243000E-02
		 3.33641000E-04	-4.30169000E-02	-5.16794000E-03
		-6.53447000E-05	-4.38529000E-02	-6.32077000E-05
		-9.08166000E-04	-4.41684000E-02	 1.03803000E-02
		-6.87736000E-05	-4.34745000E-02	-3.41633000E-05
		-9.00529000E-04	-4.36084000E-02	 1.05435000E-02
		-1.73368000E-05	-3.24883000E-02	 9.27235000E-06
		-4.55682000E-04	-4.40118000E-02	 4.95224000E-03
		-1.60076000E-04	-3.27259000E-02	 1.00404000E-02
		 7.38487000E-04	-4.37915000E-02	-1.05518000E-02
		 7.41918000E-04	-4.33778000E-02	-1.06314000E-02
		 9.06289000E-05	-3.24622000E-02	-1.00304000E-02
		 3.27582000E-04	-4.38338000E-02	-5.12266000E-03
		-1.99459000E-04	-6.21424000E-02	 3.17554000E-05
		-2.10769000E-03	-6.20630000E-02	 9.67469000E-03
		-1.77030000E-04	-6.42263000E-02	-7.14885000E-05
		-2.42882000E-03	-6.45835000E-02	 9.57439000E-03
		-1.77631000E-04	-5.25144000E-02	 4.28160000E-05
		-1.15795000E-03	-6.21344000E-02	 4.92925000E-03
		-1.49516000E-03	-5.26256000E-02	 1.02619000E-02
		-1.85831000E-04	-6.31214000E-02	-1.91802000E-05
		-2.25732000E-03	-6.32015000E-02	 9.54596000E-03
		-1.58076000E-04	-5.39478000E-02	-8.57080000E-05
		-1.18064000E-03	-6.44223000E-02	 4.74649000E-03
		-1.65939000E-03	-5.39836000E-02	 1.02373000E-02
		 1.55173000E-03	-6.19363000E-02	-9.60730000E-03
		 1.79077000E-03	-6.38654000E-02	-9.71053000E-03
		 1.12389000E-03	-5.23486000E-02	-1.01696000E-02
		 6.76781000E-04	-6.20745000E-02	-4.86382000E-03
		 1.67543000E-03	-6.28659000E-02	-9.58018000E-03
		 1.28306000E-03	-5.37392000E-02	-1.03002000E-02
		 7.92918000E-04	-6.40550000E-02	-4.88880000E-03
		-3.03118000E-04	-6.65443000E-02	-1.81133000E-04
		-2.61459000E-03	-6.72513000E-02	 9.46575000E-03
		-2.36952000E-04	-6.53179000E-02	-1.25990000E-04
		-2.51954000E-03	-6.63741000E-02	 9.60066000E-03
		-1.72565000E-04	-5.55049000E-02	-2.43575000E-04
		-1.57839000E-03	-6.68967000E-02	 4.55533000E-03
		-1.66215000E-03	-5.54168000E-02	 1.01135000E-02
		 2.02601000E-03	-6.60384000E-02	-9.81766000E-03