# vtk DataFile Version 3.0

ASCII
DATASET UNSTRUCTURED_GRID

POINTS 522 double
	 1.00000000E+00	 1.00000000E+00	-5.96046000E-08
	 1.00000000E+00	 5.00000000E-01	-5.96046000E-08
	 1.00000000E+00	 5.00000000E-01	 1.00000000E+00
	 1.00000000E+00	 1.00000000E+00	 1.00000000E+00
	 5.00000000E-01	 1.00000000E+00	-5.96046000E-08
	 5.00000000E-01	 5.00000000E-01	-5.96046000E-08
	 5.00000000E-01	 5.00000000E-01	 1.00000000E+00
	 5.00000000E-01	 1.00000000E+00	 1.00000000E+00
	 1.00000000E+00	 7.50000000E-01	-5.96046000E-08
	 1.00000000E+00	 5.00000000E-01	 5.00000000E-01
	 1.00000000E+00	 7.50000000E-01	 1.00000000E+00
	 1.00000000E+00	 1.00000000E+00	 5.00000000E-01
	 7.50000000E-01	 1.00000000E+00	-5.96046000E-08
	 7.50000000E-01	 5.00000000E-01	-5.96046000E-08
	 7.50000000E-01	 5.00000000E-01	 1.00000000E+00
	 7.50000000E-01	 1.00000000E+00	 1.00000000E+00
	 5.00000000E-01	 7.50000000E-01	-5.96046000E-08
	 5.00000000E-01	 5.00000000E-01	 5.00000000E-01
	 5.00000000E-01	 7.50000000E-01	 1.00000000E+00
	 5.00000000E-01	 1.00000000E+00	 5.00000000E-01
	 1.00000000E+00	-1.49012000E-08	-5.96046000E-08
	 1.00000000E+00	-1.49012000E-08	 1.00000000E+00
	 5.00000000E-01	-1.49012000E-08	-5.96046000E-08
	 5.00000000E-01	-1.49012000E-08	 1.00000000E+00
	 1.00000000E+00	 2.50000000E-01	-5.96046000E-08
	 1.00000000E+00	-1.49012000E-08	 5.00000000E-01
	 1.00000000E+00	 2.50000000E-01	 1.00000000E+00
	 7.50000000E-01	-1.49012000E-08	-5.96046000E-08
	 7.50000000E-01	-1.49012000E-08	 1.00000000E+00
	 5.00000000E-01	 2.50000000E-01	-5.96046000E-08
	 5.00000000E-01	-1.49012000E-08	 5.00000000E-01
	 5.00000000E-01	 2.50000000E-01	 1.00000000E+00
	-7.45058000E-09	 1.00000000E+00	-5.96046000E-08
	-7.45058000E-09	 5.00000000E-01	-5.96046000E-08
	-7.45058000E-09	 5.00000000E-01	 1.00000000E+00
	-7.45058000E-09	 1.00000000E+00	 1.00000000E+00
	 2.50000000E-01	 1.00000000E+00	-5.96046000E-08
	 2.50000000E-01	 5.00000000E-01	-5.96046000E-08
	 2.50000000E-01	 5.00000000E-01	 1.00000000E+00
	 2.50000000E-01	 1.00000000E+00	 1.00000000E+00
	-7.45058000E-09	 7.50000000E-01	-5.96046000E-08
	-7.45058000E-09	 5.00000000E-01	 5.00000000E-01
	-7.45058000E-09	 7.50000000E-01	 1.00000000E+00
	-7.45058000E-09	 1.00000000E+00	 5.00000000E-01
	-7.45058000E-09	-1.49012000E-08	-5.96046000E-08
	-7.45058000E-09	-1.49012000E-08	 1.00000000E+00
	 2.50000000E-01	-1.49012000E-08	-5.96046000E-08
	 2.50000000E-01	-1.49012000E-08	 1.00000000E+00
	-7.45058000E-09	 2.50000000E-01	-5.96046000E-08
	-7.45058000E-09	-1.49012000E-08	 5.00000000E-01
	-7.45058000E-09	 2.50000000E-01	 1.00000000E+00
	 1.00000000E+00	 5.00000000E-01	 2.00000000E+00
	 1.00000000E+00	 1.00000000E+00	 2.00000000E+00
	 5.00000000E-01	 5.00000000E-01	 2.00000000E+00
	 5.00000000E-01	 1.00000000E+00	 2.00000000E+00
	 1.00000000E+00	 5.00000000E-01	 1.50000000E+00
	 1.00000000E+00	 7.50000000E-01	 2.00000000E+00
	 1.00000000E+00	 1.00000000E+00	 1.50000000E+00
	 7.50000000E-01	 5.00000000E-01	 2.00000000E+00
	 7.50000000E-01	 1.00000000E+00	 2.00000000E+00
	 5.00000000E-01	 5.00000000E-01	 1.50000000E+00
	 5.00000000E-01	 7.50000000E-01	 2.00000000E+00
	 5.00000000E-01	 1.00000000E+00	 1.50000000E+00
	 1.00000000E+00	-1.49012000E-08	 2.00000000E+00
	 5.00000000E-01	-1.49012000E-08	 2.00000000E+00
	 1.00000000E+00	-1.49012000E-08	 1.50000000E+00
	 1.00000000E+00	 2.50000000E-01	 2.00000000E+00
	 7.50000000E-01	-1.49012000E-08	 2.00000000E+00
	 5.00000000E-01	-1.49012000E-08	 1.50000000E+00
	 5.00000000E-01	 2.50000000E-01	 2.00000000E+00
	-7.45058000E-09	 5.00000000E-01	 2.00000000E+00
	-7.45058000E-09	 1.00000000E+00	 2.00000000E+00
	 2.50000000E-01	 5.00000000E-01	 2.00000000E+00
	 2.50000000E-01	 1.00000000E+00	 2.00000000E+00
	-7.45058000E-09	 5.00000000E-01	 1.50000000E+00
	-7.45058000E-09	 7.50000000E-01	 2.00000000E+00
	-7.45058000E-09	 1.00000000E+00	 1.50000000E+00
	-7.45058000E-09	-1.49012000E-08	 2.00000000E+00
	 2.50000000E-01	-1.49012000E-08	 2.00000000E+00
	-7.45058000E-09	-1.49012000E-08	 1.50000000E+00
	-7.45058000E-09	 2.50000000E-01	 2.00000000E+00
	 1.00000000E+00	 5.00000000E-01	 3.00000000E+00
	 1.00000000E+00	 1.00000000E+00	 3.00000000E+00
	 5.00000000E-01	 5.00000000E-01	 3.00000000E+00
	 5.00000000E-01	 1.00000000E+00	 3.00000000E+00
	 1.00000000E+00	 5.00000000E-01	 2.50000000E+00
	 1.00000000E+00	 7.50000000E-01	 3.00000000E+00
	 1.00000000E+00	 1.00000000E+00	 2.50000000E+00
	 7.50000000E-01	 5.00000000E-01	 3.00000000E+00
	 7.50000000E-01	 1.00000000E+00	 3.00000000E+00
	 5.00000000E-01	 5.00000000E-01	 2.50000000E+00
	 5.00000000E-01	 7.50000000E-01	 3.00000000E+00
	 5.00000000E-01	 1.00000000E+00	 2.50000000E+00
	 1.00000000E+00	-1.49012000E-08	 3.00000000E+00
	 5.00000000E-01	-1.49012000E-08	 3.00000000E+00
	 1.00000000E+00	-1.49012000E-08	 2.50000000E+00
	 1.00000000E+00	 2.50000000E-01	 3.00000000E+00
	 7.50000000E-01	-1.49012000E-08	 3.00000000E+00
	 5.00000000E-01	-1.49012000E-08	 2.50000000E+00
	 5.00000000E-01	 2.50000000E-01	 3.00000000E+00
	-7.45058000E-09	 5.00000000E-01	 3.00000000E+00
	-7.45058000E-09	 1.00000000E+00	 3.00000000E+00
	 2.50000000E-01	 5.00000000E-01	 3.00000000E+00
	 2.50000000E-01	 1.00000000E+00	 3.00000000E+00
	-7.45058000E-09	 5.00000000E-01	 2.50000000E+00
	-7.45058000E-09	 7.50000000E-01	 3.00000000E+00
	-7.45058000E-09	 1.00000000E+00	 2.50000000E+00
	-7.45058000E-09	-1.49012000E-08	 3.00000000E+00
	 2.50000000E-01	-1.49012000E-08	 3.00000000E+00
	-7.45058000E-09	-1.49012000E-08	 2.50000000E+00
	-7.45058000E-09	 2.50000000E-01	 3.00000000E+00
	 1.00000000E+00	 5.00000000E-01	 4.00000000E+00
	 1.00000000E+00	 1.00000000E+00	 4.00000000E+00
	 5.00000000E-01	 5.00000000E-01	 4.00000000E+00
	 5.00000000E-01	 1.00000000E+00	 4.00000000E+00
	 1.00000000E+00	 5.00000000E-01	 3.50000000E+00
	 1.00000000E+00	 7.50000000E-01	 4.00000000E+00
	 1.00000000E+00	 1.00000000E+00	 3.50000000E+00
	 7.50000000E-01	 5.00000000E-01	 4.00000000E+00
	 7.50000000E-01	 1.00000000E+00	 4.00000000E+00
	 5.00000000E-01	 5.00000000E-01	 3.50000000E+00
	 5.00000000E-01	 7.50000000E-01	 4.00000000E+00
	 5.00000000E-01	 1.00000000E+00	 3.50000000E+00
	 1.00000000E+00	-1.49012000E-08	 4.00000000E+00
	 5.00000000E-01	-1.49012000E-08	 4.00000000E+00
	 1.00000000E+00	-1.49012000E-08	 3.50000000E+00
	 1.00000000E+00	 2.50000000E-01	 4.00000000E+00
	 7.50000000E-01	-1.49012000E-08	 4.00000000E+00
	 5.00000000E-01	-1.49012000E-08	 3.50000000E+00
	 5.00000000E-01	 2.50000000E-01	 4.00000000E+00
	-7.45058000E-09	 5.00000000E-01	 4.00000000E+00
	-7.45058000E-09	 1.00000000E+00	 4.00000000E+00
	 2.50000000E-01	 5.00000000E-01	 4.00000000E+00
	 2.50000000E-01	 1.00000000E+00	 4.00000000E+00
	-7.45058000E-09	 5.00000000E-01	 3.50000000E+00
	-7.45058000E-09	 7.50000000E-01	 4.00000000E+00
	-7.45058000E-09	 1.00000000E+00	 3.50000000E+00
	-7.45058000E-09	-1.49012000E-08	 4.00000000E+00
	 2.50000000E-01	-1.49012000E-08	 4.00000000E+00
	-7.45058000E-09	-1.49012000E-08	 3.50000000E+00
	-7.45058000E-09	 2.50000000E-01	 4.00000000E+00
	 1.00000000E+00	 5.00000000E-01	 5.00000000E+00
	 1.00000000E+00	 1.00000000E+00	 5.00000000E+00
	 5.00000000E-01	 5.00000000E-01	 5.00000000E+00
	 5.00000000E-01	 1.00000000E+00	 5.00000000E+00
	 1.00000000E+00	 5.00000000E-01	 4.50000000E+00
	 1.00000000E+00	 7.50000000E-01	 5.00000000E+00
	 1.00000000E+00	 1.00000000E+00	 4.50000000E+00
	 7.50000000E-01	 5.00000000E-01	 5.00000000E+00
	 7.50000000E-01	 1.00000000E+00	 5.00000000E+00
	 5.00000000E-01	 5.00000000E-01	 4.50000000E+00
	 5.00000000E-01	 7.50000000E-01	 5.00000000E+00
	 5.00000000E-01	 1.00000000E+00	 4.50000000E+00
	 1.00000000E+00	-1.49012000E-08	 5.00000000E+00
	 5.00000000E-01	-1.49012000E-08	 5.00000000E+00
	 1.00000000E+00	-1.49012000E-08	 4.50000000E+00
	 1.00000000E+00	 2.50000000E-01	 5.00000000E+00
	 7.50000000E-01	-1.49012000E-08	 5.00000000E+00
	 5.00000000E-01	-1.49012000E-08	 4.50000000E+00
	 5.00000000E-01	 2.50000000E-01	 5.00000000E+00
	-7.45058000E-09	 5.00000000E-01	 5.00000000E+00
	-7.45058000E-09	 1.00000000E+00	 5.00000000E+00
	 2.50000000E-01	 5.00000000E-01	 5.00000000E+00
	 2.50000000E-01	 1.00000000E+00	 5.00000000E+00
	-7.45058000E-09	 5.00000000E-01	 4.50000000E+00
	-7.45058000E-09	 7.50000000E-01	 5.00000000E+00
	-7.45058000E-09	 1.00000000E+00	 4.50000000E+00
	-7.45058000E-09	-1.49012000E-08	 5.00000000E+00
	 2.50000000E-01	-1.49012000E-08	 5.00000000E+00
	-7.45058000E-09	-1.49012000E-08	 4.50000000E+00
	-7.45058000E-09	 2.50000000E-01	 5.00000000E+00
	 1.00000000E+00	 5.00000000E-01	 6.00000000E+00
	 1.00000000E+00	 1.00000000E+00	 6.00000000E+00
	 5.00000000E-01	 5.00000000E-01	 6.00000000E+00
	 5.00000000E-01	 1.00000000E+00	 6.00000000E+00
	 1.00000000E+00	 5.00000000E-01	 5.50000000E+00
	 1.00000000E+00	 7.50000000E-01	 6.00000000E+00
	 1.00000000E+00	 1.00000000E+00	 5.50000000E+00
	 7.50000000E-01	 5.00000000E-01	 6.00000000E+00
	 7.50000000E-01	 1.00000000E+00	 6.00000000E+00
	 5.00000000E-01	 5.00000000E-01	 5.50000000E+00
	 5.00000000E-01	 7.50000000E-01	 6.00000000E+00
	 5.00000000E-01	 1.00000000E+00	 5.50000000E+00
	 1.00000000E+00	-1.49012000E-08	 6.00000000E+00
	 5.00000000E-01	-1.49012000E-08	 6.00000000E+00
	 1.00000000E+00	-1.49012000E-08	 5.50000000E+00
	 1.00000000E+00	 2.50000000E-01	 6.00000000E+00
	 7.50000000E-01	-1.49012000E-08	 6.00000000E+00
	 5.00000000E-01	-1.49012000E-08	 5.50000000E+00
	 5.00000000E-01	 2.50000000E-01	 6.00000000E+00
	-7.45058000E-09	 5.00000000E-01	 6.00000000E+00
	-7.45058000E-09	 1.00000000E+00	 6.00000000E+00
	 2.50000000E-01	 5.00000000E-01	 6.00000000E+00
	 2.50000000E-01	 1.00000000E+00	 6.00000000E+00
	-7.45058000E-09	 5.00000000E-01	 5.50000000E+00
	-7.45058000E-09	 7.50000000E-01	 6.00000000E+00
	-7.45058000E-09	 1.00000000E+00	 5.50000000E+00
	-7.45058000E-09	-1.49012000E-08	 6.00000000E+00
	 2.50000000E-01	-1.49012000E-08	 6.00000000E+00
	-7.45058000E-09	-1.49012000E-08	 5.50000000E+00
	-7.45058000E-09	 2.50000000E-01	 6.00000000E+00
	 1.00000000E+00	 5.00000000E-01	 7.00000000E+00
[...]
POINT_DATA 522
FIELD U 1
	U 3 522 double
		 0.00000000E+00	 0.00000000E+00	 0.00000000E+00
		 0.00000000E+00	 0.00000000E+00	 0.00000000E+00
		-1.50133000E-05	 1.64166000E-03	 2.37134000E-05
		 1.52541000E-03	 1.86012000E-03	-2.88673000E-03
		 0.00000000E+00	 0.00000000E+00	 0.00000000E+00
		 0.00000000E+00	 0.00000000E+00	 0.00000000E+00
		 3.95659000E-06	 2.94569000E-03	 2.60420000E-05
		 1.05345000E-03	 3.16182000E-03	-2.94526000E-03
		 0.00000000E+00	 0.00000000E+00	 0.00000000E+00
		-1.06184000E-05	-6.68814000E-06	 1.72151000E-05
		 7.59650000E-04	 1.68622000E-03	-1.52214000E-03
		 9.68097000E-04	 2.26586000E-04	-1.37635000E-03
		 0.00000000E+00	 0.00000000E+00	 0.00000000E+00
		 0.00000000E+00	 0.00000000E+00	 0.00000000E+00
		-9.89947000E-06	 2.37278000E-03	 3.58020000E-05
		 1.27855000E-03	 2.59377000E-03	-2.82323000E-03
		 0.00000000E+00	 0.00000000E+00	 0.00000000E+00
		 1.52520000E-05	 6.98371000E-04	 1.57444000E-05
		 5.38434000E-04	 2.98573000E-03	-1.46151000E-03
		 5.29015000E-04	 9.52419000E-04	-1.36994000E-03
		 0.00000000E+00	 0.00000000E+00	 0.00000000E+00
		-1.51575000E-03	 1.84171000E-03	 2.96399000E-03
		 0.00000000E+00	 0.00000000E+00	 0.00000000E+00
		-1.06916000E-03	 3.12900000E-03	 2.94994000E-03
		 0.00000000E+00	 0.00000000E+00	 0.00000000E+00
		-9.45890000E-04	 2.51289000E-04	 1.43394000E-03
		-7.43565000E-04	 1.68009000E-03	 1.58233000E-03
		 0.00000000E+00	 0.00000000E+00	 0.00000000E+00
		-1.27837000E-03	 2.56872000E-03	 2.83986000E-03
		 0.00000000E+00	 0.00000000E+00	 0.00000000E+00
		-5.25327000E-04	 9.75273000E-04	 1.40180000E-03
		-5.34712000E-04	 2.95594000E-03	 1.46228000E-03
		 0.00000000E+00	 0.00000000E+00	 0.00000000E+00
		 0.00000000E+00	 0.00000000E+00	 0.00000000E+00
		 4.19526000E-05	 3.82034000E-03	 1.43584000E-05
		 6.53338000E-04	 3.98802000E-03	-2.95870000E-03
		 0.00000000E+00	 0.00000000E+00	 0.00000000E+00
		 0.00000000E+00	 0.00000000E+00	 0.00000000E+00
		 2.43427000E-05	 3.43234000E-03	 9.07129000E-06
		 8.51367000E-04	 3.62630000E-03	-3.03689000E-03
		 0.00000000E+00	 0.00000000E+00	 0.00000000E+00
		 1.41574000E-05	 1.05336000E-03	 1.83792000E-05
		 3.33932000E-04	 3.82972000E-03	-1.36979000E-03
		 9.34172000E-05	 1.27224000E-03	-1.43894000E-03
		 0.00000000E+00	 0.00000000E+00	 0.00000000E+00
		-7.43038000E-04	 4.00070000E-03	 2.87992000E-03
		 0.00000000E+00	 0.00000000E+00	 0.00000000E+00
		-9.02589000E-04	 3.63691000E-03	 3.00791000E-03
		 0.00000000E+00	 0.00000000E+00	 0.00000000E+00
		-4.99196000E-05	 1.26621000E-03	 1.40572000E-03
		-3.67040000E-04	 3.83431000E-03	 1.36183000E-03
		-2.34078000E-05	 1.00584000E-02	-5.12345000E-05
		 1.91921000E-03	 1.01410000E-02	-5.80425000E-03
		-1.09050000E-05	 1.17144000E-02	-8.10213000E-05
		 1.45146000E-03	 1.18575000E-02	-5.90668000E-03
		-1.94917000E-05	 5.03003000E-03	-2.17233000E-05
		 9.06879000E-04	 1.00573000E-02	-2.91337000E-03
		 1.80909000E-03	 5.17701000E-03	-4.38172000E-03
		-1.09252000E-05	 1.09357000E-02	-6.82028000E-05
		 1.68566000E-03	 1.11048000E-02	-5.87683000E-03
		-1.72640000E-05	 6.59706000E-03	-1.96199000E-05
		 7.01620000E-04	 1.17383000E-02	-2.97128000E-03
		 1.31625000E-03	 6.77116000E-03	-4.41827000E-03
		-1.90490000E-03	 1.02728000E-02	 5.72895000E-03
		-1.50340000E-03	 1.19169000E-02	 5.74041000E-03
		-1.83522000E-03	 5.22020000E-03	 4.36596000E-03
		-9.61274000E-04	 1.01155000E-02	 2.83372000E-03
		-1.70477000E-03	 1.11546000E-02	 5.77464000E-03
		-1.36031000E-03	 6.83841000E-03	 4.35598000E-03
		-7.41319000E-04	 1.17698000E-02	 2.82839000E-03
		 9.34233000E-06	 1.29285000E-02	-1.17642000E-04
		 9.92965000E-04	 1.31146000E-02	-5.84837000E-03
		 9.08172000E-07	 1.23774000E-02	-1.08950000E-04
		 1.21680000E-03	 1.25475000E-02	-5.85205000E-03
		-2.12842000E-05	 7.71765000E-03	-5.94861000E-05
		 4.72844000E-04	 1.29634000E-02	-3.01116000E-03
		 9.25193000E-04	 7.96029000E-03	-4.39204000E-03
		-1.14122000E-03	 1.33168000E-02	 5.70172000E-03
		-1.31647000E-03	 1.26168000E-02	 5.72189000E-03
		-9.57752000E-04	 7.99861000E-03	 4.27385000E-03
		-5.22310000E-04	 1.30659000E-02	 2.81826000E-03
		-4.68990000E-05	 2.49986000E-02	-1.53098000E-04
		 1.33630000E-03	 2.50551000E-02	-8.51555000E-03
		-3.66916000E-05	 2.62751000E-02	-1.32606000E-04
		 1.02174000E-03	 2.63396000E-02	-8.58940000E-03
		-5.10346000E-05	 1.68130000E-02	-8.39482000E-05
		 6.74765000E-04	 2.49819000E-02	-4.22430000E-03
		 1.65462000E-03	 1.69297000E-02	-7.22499000E-03
		-4.65607000E-05	 2.56867000E-02	-1.49353000E-04
		 1.18167000E-03	 2.57396000E-02	-8.58019000E-03
		-3.57133000E-05	 1.83131000E-02	-1.01761000E-04
		 5.03676000E-04	 2.62742000E-02	-4.32380000E-03
		 1.27489000E-03	 1.84202000E-02	-7.30610000E-03
		-1.55212000E-03	 2.51898000E-02	 8.35553000E-03
		-1.15648000E-03	 2.65219000E-02	 8.23266000E-03
		-1.74305000E-03	 1.70297000E-02	 7.09941000E-03
		-7.65867000E-04	 2.50630000E-02	 3.99342000E-03
		-1.34978000E-03	 2.59302000E-02	 8.33961000E-03
		-1.31357000E-03	 1.85518000E-02	 7.04036000E-03
		-6.00967000E-04	 2.63536000E-02	 4.01033000E-03
		-4.91639000E-05	 2.71865000E-02	-1.91950000E-04
		 6.56430000E-04	 2.72007000E-02	-8.61886000E-03
		-3.84305000E-05	 2.67856000E-02	-1.57923000E-04
		 8.38316000E-04	 2.68521000E-02	-8.58224000E-03
		-3.58409000E-06	 1.93858000E-02	-1.33856000E-04
		 3.35645000E-04	 2.71609000E-02	-4.35363000E-03
		 8.59552000E-04	 1.95003000E-02	-7.32937000E-03
		-7.73791000E-04	 2.74251000E-02	 8.24972000E-03
		-9.69588000E-04	 2.70585000E-02	 8.20690000E-03
		-9.25780000E-04	 1.96499000E-02	 7.06049000E-03
		-4.49184000E-04	 2.72845000E-02	 3.98495000E-03
		-9.49921000E-05	 4.42939000E-02	-2.18719000E-04
		 8.93136000E-04	 4.43361000E-02	-9.79295000E-03
		-5.50747000E-05	 4.53425000E-02	-3.02784000E-04
		 1.00001000E-03	 4.52576000E-02	-9.89675000E-03
		-7.61155000E-05	 3.44018000E-02	-1.58943000E-04
		 4.12533000E-04	 4.43073000E-02	-4.97735000E-03
		 1.14502000E-03	 3.44341000E-02	-9.37968000E-03
		-7.01793000E-05	 4.48091000E-02	-2.55526000E-04
		 9.47987000E-04	 4.47435000E-02	-9.85814000E-03
		-4.91017000E-05	 3.55257000E-02	-2.16195000E-04
		 4.51377000E-04	 4.52931000E-02	-5.06113000E-03
		 9.94326000E-04	 3.55371000E-02	-9.46217000E-03
		-1.19632000E-03	 4.43657000E-02	 9.29337000E-03
		-1.16003000E-03	 4.54686000E-02	 9.31913000E-03
		-1.30031000E-03	 3.45920000E-02	 9.02767000E-03
		-6.63868000E-04	 4.43128000E-02	 4.49331000E-03
		-1.17809000E-03	 4.48853000E-02	 9.31569000E-03
		-1.12087000E-03	 3.57090000E-02	 9.00004000E-03
		-6.06862000E-04	 4.54012000E-02	 4.44312000E-03
		-7.14279000E-05	 4.63924000E-02	-4.00000000E-04
		 1.01555000E-03	 4.64228000E-02	-9.89327000E-03
		-6.15181000E-05	 4.58702000E-02	-3.56729000E-04
		 1.01363000E-03	 4.58210000E-02	-9.92286000E-03
		-6.22799000E-05	 3.65033000E-02	-2.64350000E-04
		 4.63064000E-04	 4.63932000E-02	-5.06767000E-03
		 7.90104000E-04	 3.64722000E-02	-9.47381000E-03
		-1.07346000E-03	 4.65374000E-02	 9.17213000E-03
		-1.11299000E-03	 4.59952000E-02	 9.28238000E-03
		-8.95433000E-04	 3.66398000E-02	 8.91478000E-03
		-5.66018000E-04	 4.64467000E-02	 4.34182000E-03
		-8.75857000E-05	 6.37404000E-02	-4.52122000E-04
		 1.01881000E-03	 6.36016000E-02	-9.96999000E-03
		-9.17930000E-05	 6.48196000E-02	-5.30164000E-04
		 9.07742000E-04	 6.46995000E-02	-1.00354000E-02
		-7.51099000E-05	 5.40393000E-02	-3.72050000E-04
		 4.32956000E-04	 6.36772000E-02	-5.19897000E-03
		 9.66624000E-04	 5.39702000E-02	-9.94447000E-03
		-9.77550000E-05	 6.42784000E-02	-4.85079000E-04
		 9.72192000E-04	 6.41634000E-02	-1.00200000E-02
		-9.29636000E-05	 5.51062000E-02	-3.94480000E-04
		 4.21309000E-04	 6.47643000E-02	-5.27071000E-03
		 9.70539000E-04	 5.50477000E-02	-9.98741000E-03
		-1.00899000E-03	 6.39685000E-02	 9.11959000E-03
		-1.12062000E-03	 6.48652000E-02	 9.04222000E-03
		-1.14599000E-03	 5.41520000E-02	 9.25912000E-03
		-5.63668000E-04	 6.38578000E-02	 4.30831000E-03
		-1.06401000E-03	 6.44107000E-02	 9.10834000E-03
		-1.16259000E-03	 5.52023000E-02	 9.24279000E-03
		-6.12559000E-04	 6.48415000E-02	 4.28289000E-03
		-1.31159000E-04	 6.57777000E-02	-5.18490000E-04
		 8.85504000E-04	 6.56668000E-02	-1.00893000E-02
		-1.03742000E-04	 6.52874000E-02	-5.20230000E-04
		 8.76072000E-04	 6.51466000E-02	-1.00421000E-02
		-1.14083000E-04	 5.61877000E-02	-4.91587000E-04
		 3.85046000E-04	 6.57199000E-02	-5.32474000E-03
		 1.00137000E-03	 5.61104000E-02	-1.00785000E-02
		-1.30435000E-03	 6.60864000E-02	 9.00883000E-03
		-1.21028000E-03	 6.54003000E-02	 8.99506000E-03
		-1.26533000E-03	 5.63932000E-02	 9.14785000E-03
		-6.28338000E-04	 6.59345000E-02	 4.28544000E-03
		-8.88556000E-05	 8.28137000E-02	-5.46900000E-04
		 5.24664000E-04	 8.29254000E-02	-1.00670000E-02
		-1.22266000E-04	 8.36026000E-02	-5.14780000E-04
		 6.39414000E-04	 8.34919000E-02	-1.00970000E-02
		-1.06734000E-04	 7.33438000E-02	-4.64306000E-04
		 2.33807000E-04	 8.28702000E-02	-5.33062000E-03
		 7.88606000E-04	 7.32133000E-02	-9.93665000E-03
		-9.87064000E-05	 8.32180000E-02	-5.44100000E-04
		 5.62465000E-04	 8.31807000E-02	-1.00987000E-02
		-1.09997000E-04	 7.42082000E-02	-5.42665000E-04
		 2.72169000E-04	 8.35305000E-02	-5.34524000E-03
		 7.85334000E-04	 7.41464000E-02	-1.00599000E-02
		-9.88618000E-04	 8.28501000E-02	 8.91276000E-03
		-9.12005000E-04	 8.37266000E-02	 8.92531000E-03
		-1.01998000E-03	 7.34309000E-02	 8.97369000E-03
		-5.17673000E-04	 8.28297000E-02	 4.19509000E-03
		-9.53565000E-04	 8.33140000E-02	 8.92028000E-03
		-9.87218000E-04	 7.43128000E-02	 8.92432000E-03
		-4.99894000E-04	 8.36780000E-02	 4.17518000E-03
		-8.51035000E-05	 8.43383000E-02	-6.58883000E-04
		 7.52928000E-04	 8.43566000E-02	-1.01572000E-02
		-1.12742000E-04	 8.39851000E-02	-5.89364000E-04
		 7.14599000E-04	 8.39212000E-02	-1.01175000E-02
		-8.10448000E-05	 7.50786000E-02	-5.57994000E-04
		 3.18019000E-04	 8.43592000E-02	-5.44855000E-03
		 8.09066000E-04	 7.49756000E-02	-1.00427000E-02
		-6.95898000E-04	 8.43291000E-02	 8.85726000E-03
		-7.98732000E-04	 8.40936000E-02	 8.85694000E-03
		-9.47391000E-04	 7.51395000E-02	 8.91216000E-03
		-4.86966000E-04	 8.43358000E-02	 4.10731000E-03
		-1.11356000E-04	 1.01839000E-01	-8.28539000E-04
		 8.41997000E-04	 1.01752000E-01	-1.04776000E-02
		-8.38924000E-05	 1.02665000E-01	-9.50367000E-04
		 7.40617000E-04	 1.02536000E-01	-1.04895000E-02
		-7.81108000E-05	 9.23523000E-02	-7.32058000E-04
		 3.77841000E-04	 1.01783000E-01	-5.64133000E-03
		 6.61346000E-04	 9.22980000E-02	-1.03012000E-02
		-9.74835000E-05	 1.02266000E-01	-8.86777000E-04
		 8.20251000E-04	 1.02140000E-01	-1.04709000E-02
		-1.13101000E-04	 9.30881000E-02	-7.29858000E-04
		 3.22406000E-04	 1.02621000E-01	-5.69440000E-03
		 6.27076000E-04	 9.30224000E-02	-1.01970000E-02
		-8.69989000E-04	 1.01951000E-01	 8.62709000E-03
		-9.41484000E-04	 1.02749000E-01	 8.62083000E-03
		-8.14302000E-04	 9.24552000E-02	 8.78519000E-03
		-5.52623000E-04	 1.01878000E-01	 3.92588000E-03
		-9.23999000E-04	 1.02306000E-01	 8.56884000E-03
		-8.58790000E-04	 9.31668000E-02	 8.79051000E-03
		-5.41817000E-04	 1.02696000E-01	 3.88188000E-03
		-1.35329000E-04	 1.03503000E-01	-8.82763000E-04
		 5.17187000E-04	 1.03423000E-01	-1.05351000E-02
		-1.05644000E-04	 1.03082000E-01	-9.20957000E-04
		 6.27477000E-04	 1.03022000E-01	-1.05892000E-02
		-1.37530000E-04	 9.38315000E-02	-7.63270000E-04
		 2.32204000E-04	 1.03464000E-01	-5.61377000E-03
		 5.53284000E-04	 9.36806000E-02	-1.03355000E-02
		-9.05069000E-04	 1.03508000E-01	 8.64857000E-03
		-9.45887000E-04	 1.03156000E-01	 8.72311000E-03
		-7.81258000E-04	 9.38667000E-02	 8.75258000E-03
		-5.26493000E-04	 1.03512000E-01	 3.86071000E-03
		 1.32629000E-04	 1.20224000E-01	-1.51694000E-03
		 1.41426000E-03	 1.19775000E-01	-1.02778000E-02
		-1.41789000E-04	 1.21680000E-01	-1.19745000E-03
		 1.13886000E-03	 1.21036000E-01	-1.02349000E-02
		-1.41898000E-04	 1.10946000E-01	-1.09961000E-03
		 8.26731000E-04	 1.20036000E-01	-6.05369000E-03
		 9.20322000E-04	 1.11065000E-01	-1.03867000E-02
		 4.52469000E-06	 1.20937000E-01	-1.27731000E-03
		 1.25390000E-03	 1.20362000E-01	-1.01893000E-02
		-2.03861000E-04	 1.12232000E-01	-1.10169000E-03
		 4.72564000E-04	 1.21349000E-01	-5.82286000E-03
		 1.12160000E-03	 1.12102000E-01	-1.04428000E-02
		-1.70506000E-03	 1.20007000E-01	 8.15431000E-03
		-1.65720000E-03	 1.22234000E-01	 8.76015000E-03
		-1.51230000E-03	 1.11007000E-01	 8.40499000E-03
		-7.06226000E-04	 1.20125000E-01	 3.42888000E-03
		-1.66794000E-03	 1.21173000E-01	 8.42530000E-03
		-1.51370000E-03	 1.12275000E-01	 8.61268000E-03
		-8.01776000E-04	 1.21985000E-01	 3.70070000E-03
		-2.66301000E-04	 1.23615000E-01	-1.12159000E-03
		 9.86027000E-04	 1.23530000E-01	-1.11283000E-02
		-2.26550000E-04	 1.22649000E-01	-1.12723000E-03
		 1.06971000E-03	 1.22296000E-01	-1.06350000E-02
		-2.15777000E-04	 1.13467000E-01	-1.03423000E-03
		 2.89060000E-04	 1.23547000E-01	-6.10532000E-03
		 1.17282000E-03	 1.13419000E-01	-1.08281000E-02
		-1.61339000E-03	 1.24146000E-01	 9.13660000E-03
		-1.61135000E-03	 1.23175000E-01	 8.96786000E-03
		-1.43893000E-03	 1.13560000E-01	 8.78917000E-03
		-8.98882000E-04	 1.23826000E-01	 3.81145000E-03
		 0.00000000E+00	 0.00000000E+00	 0.00000000E+00
		 0.00000000E+00	 0.00000000E+00	 0.00000000E+00
		-7.52500000E-05	-1.20843000E-03	 2.64109000E-04
		-3.52603000E-03	-1.43494000E-03	 4.10073000E-03
		 0.00000000E+00	 0.00000000E+00	 0.00000000E+00
		 0.00000000E+00	 0.00000000E+00	 0.00000000E+00
		 2.44563000E-05	-4.40956000E-03	 3.24638000E-04
		-2.93937000E-03	-4.59095000E-03	 4.07618000E-03
		 0.00000000E+00	 0.00000000E+00	 0.00000000E+00
		-8.20793000E-05	 4.55799000E-04	 1.69485000E-04
		-1.75104000E-03	-1.24817000E-03	 2.41743000E-03
		-2.03981000E-03	 4.46199000E-05	 2.06471000E-03
		 0.00000000E+00	 0.00000000E+00	 0.00000000E+00
		 0.00000000E+00	 0.00000000E+00	 0.00000000E+00
		-4.21163000E-05	-2.87923000E-03	 2.86973000E-04
		-3.21043000E-03	-3.15267000E-03	 3.80855000E-03
		 0.00000000E+00	 0.00000000E+00	 0.00000000E+00
		-7.64689000E-06	-1.21750000E-03	 1.24652000E-04
		-1.47923000E-03	-4.39589000E-03	 2.14306000E-03
		-1.44411000E-03	-1.56262000E-03	 2.03867000E-03
		 0.00000000E+00	 0.00000000E+00	 0.00000000E+00
		 3.40598000E-03	-1.45176000E-03	-3.51538000E-03
		 0.00000000E+00	 0.00000000E+00	 0.00000000E+00
		 2.96574000E-03	-4.62408000E-03	-3.62492000E-03
		 0.00000000E+00	 0.00000000E+00	 0.00000000E+00
		 1.95274000E-03	 1.99009000E-04	-1.79366000E-03
		 1.65594000E-03	-1.24949000E-03	-1.85101000E-03
		 0.00000000E+00	 0.00000000E+00	 0.00000000E+00
		 3.17436000E-03	-3.14525000E-03	-3.29904000E-03
		 0.00000000E+00	 0.00000000E+00	 0.00000000E+00
		 1.42522000E-03	-1.50445000E-03	-1.77647000E-03
		 1.52062000E-03	-4.43345000E-03	-1.61302000E-03
		 0.00000000E+00	 0.00000000E+00	 0.00000000E+00
		 0.00000000E+00	 0.00000000E+00	 0.00000000E+00
		 1.13649000E-04	-7.10131000E-03	 2.52092000E-04
		-2.58656000E-03	-7.36344000E-03	 4.00644000E-03
		 0.00000000E+00	 0.00000000E+00	 0.00000000E+00
		 0.00000000E+00	 0.00000000E+00	 0.00000000E+00
		 7.96690000E-05	-5.80610000E-03	 2.63247000E-04
		-2.75256000E-03	-6.03804000E-03	 4.32086000E-03
		 0.00000000E+00	 0.00000000E+00	 0.00000000E+00
		 5.57583000E-05	-2.42493000E-03	 1.71544000E-04
		-1.19705000E-03	-7.12860000E-03	 1.82731000E-03
		-8.26059000E-04	-2.75682000E-03	 2.04323000E-03
		 0.00000000E+00	 0.00000000E+00	 0.00000000E+00
		 2.57259000E-03	-7.25349000E-03	-3.57531000E-03
		 0.00000000E+00	 0.00000000E+00	 0.00000000E+00
		 2.76172000E-03	-5.95780000E-03	-3.86445000E-03
		 0.00000000E+00	 0.00000000E+00	 0.00000000E+00
		 9.01863000E-04	-2.66901000E-03	-1.84349000E-03
		 1.29188000E-03	-7.08665000E-03	-1.35043000E-03
		 6.06983000E-07	-9.95372000E-03	 4.20774000E-04
		-5.54997000E-03	-1.02097000E-02	 7.38695000E-03
		 9.20001000E-05	-1.53655000E-02	 4.06762000E-04
		-5.11415000E-03	-1.56866000E-02	 7.32152000E-03
		-3.60908000E-05	-4.67936000E-03	 3.48049000E-04
		-2.77839000E-03	-1.00302000E-02	 4.00218000E-03
		-4.75998000E-03	-4.91996000E-03	 5.76614000E-03
		 6.47408000E-05	-1.27222000E-02	 4.12495000E-04
		-5.33018000E-03	-1.29913000E-02	 7.28630000E-03
		 1.87967000E-05	-9.11474000E-03	 3.58611000E-04
		-2.47785000E-03	-1.54740000E-02	 3.85862000E-03
		-4.14747000E-03	-9.41744000E-03	 5.78934000E-03
		 5.76349000E-03	-1.00049000E-02	-6.45806000E-03
		 5.23385000E-03	-1.54327000E-02	-6.59631000E-03
		 4.71503000E-03	-4.74909000E-03	-5.05886000E-03
		 2.80841000E-03	-9.94736000E-03	-3.13991000E-03
		 5.49842000E-03	-1.28312000E-02	-6.44088000E-03
		 4.16461000E-03	-9.28217000E-03	-5.10025000E-03
		 2.63896000E-03	-1.53492000E-02	-3.07882000E-03
		 6.85923000E-05	-2.02544000E-02	 3.06983000E-04
		-4.74421000E-03	-2.08891000E-02	 7.27996000E-03
		 8.55996000E-05	-1.78672000E-02	 3.46546000E-04
		-4.92014000E-03	-1.82956000E-02	 7.39467000E-03
		 5.75361000E-05	-1.30157000E-02	 2.80667000E-04
		-2.28861000E-03	-2.05112000E-02	 3.73944000E-03
		-3.71517000E-03	-1.34321000E-02	 5.64514000E-03
		 4.69792000E-03	-2.03619000E-02	-6.52702000E-03
		 4.94774000E-03	-1.79499000E-02	-6.64318000E-03
		 3.83229000E-03	-1.32667000E-02	-5.06884000E-03
		 2.39246000E-03	-2.02405000E-02	-3.05826000E-03
		 1.71496000E-05	-2.59246000E-02	 5.44579000E-04
		-6.81396000E-03	-2.61371000E-02	 1.04629000E-02
		 1.35477000E-04	-3.25348000E-02	 4.39551000E-04
		-6.45342000E-03	-3.29767000E-02	 1.02241000E-02
		 2.39130000E-07	-1.71156000E-02	 5.08400000E-04
		-3.38718000E-03	-2.59919000E-02	 5.50763000E-03
		-6.23253000E-03	-1.75165000E-02	 9.03510000E-03
		 7.75057000E-05	-2.92955000E-02	 5.11602000E-04
		-6.64062000E-03	-2.96231000E-02	 1.02469000E-02
		 8.45764000E-05	-2.32126000E-02	 4.24555000E-04
		-3.19848000E-03	-3.27139000E-02	 5.25337000E-03
		-5.71924000E-03	-2.35528000E-02	 8.85586000E-03
		 6.83722000E-03	-2.58767000E-02	-9.11683000E-03
		 6.58896000E-03	-3.25125000E-02	-9.40866000E-03
		 6.42158000E-03	-1.70848000E-02	-7.88077000E-03
		 3.45693000E-03	-2.58584000E-02	-4.27070000E-03
		 6.70587000E-03	-2.92827000E-02	-9.18674000E-03
		 6.02165000E-03	-2.32703000E-02	-8.05664000E-03
		 3.36489000E-03	-3.24902000E-02	-4.42977000E-03
		 1.18337000E-04	-3.88033000E-02	 2.92176000E-04
		-5.95471000E-03	-3.91850000E-02	 1.00665000E-02
		 1.31588000E-04	-3.57447000E-02	 3.62910000E-04
		-6.21931000E-03	-3.61183000E-02	 1.02802000E-02
		 1.78136000E-04	-2.88249000E-02	 3.49874000E-04
		-2.97209000E-03	-3.89915000E-02	 4.95567000E-03
		-5.22260000E-03	-2.91310000E-02	 8.74529000E-03
		 6.22705000E-03	-3.87328000E-02	-9.52981000E-03
		 6.42436000E-03	-3.57428000E-02	-9.60901000E-03
		 5.54178000E-03	-2.88448000E-02	-8.14247000E-03
		 3.19779000E-03	-3.87615000E-02	-4.37552000E-03
		-9.61517000E-05	-4.64235000E-02	 7.16692000E-04
		-8.27765000E-03	-4.63879000E-02	 1.12456000E-02
		 4.64649000E-05	-5.46941000E-02	 4.40086000E-04
		-8.46676000E-03	-5.51767000E-02	 1.10681000E-02
		-5.13793000E-05	-3.60107000E-02	 6.39292000E-04
		-4.19788000E-03	-4.64119000E-02	 6.05134000E-03
		-7.54532000E-03	-3.63365000E-02	 1.11236000E-02
		-2.75319000E-05	-5.04631000E-02	 5.94844000E-04
		-8.34849000E-03	-5.06801000E-02	 1.10391000E-02
		 5.88829000E-05	-4.35016000E-02	 4.05826000E-04
		-4.08142000E-03	-5.49206000E-02	 5.68223000E-03
		-7.39234000E-03	-4.36840000E-02	 1.10094000E-02
		 7.95706000E-03	-4.62788000E-02	-9.84844000E-03
		 8.25395000E-03	-5.43361000E-02	-1.01115000E-02
		 7.46881000E-03	-3.58522000E-02	-9.82042000E-03
		 3.90702000E-03	-4.63545000E-02	-4.63318000E-03
		 8.11855000E-03	-5.02489000E-02	-9.89659000E-03
		 7.43168000E-03	-4.33042000E-02	-1.00765000E-02
		 4.12393000E-03	-5.45194000E-02	-4.79955000E-03
		-7.97593000E-05	-6.31248000E-02	 1.13215000E-04
		-8.42909000E-03	-6.40336000E-02	 1.06867000E-02
		-4.39970000E-06	-5.88547000E-02	 2.77161000E-04
		-8.44013000E-03	-6.00756000E-02	 1.09947000E-02
		 9.41507000E-05	-5.08715000E-02	 1.20499000E-04
		-4.34670000E-03	-6.35406000E-02	 5.23831000E-03
		-7.04918000E-03	-5.08876000E-02	 1.07099000E-02
		 8.45287000E-03	-6.28573000E-02	-1.03869000E-02