<?xml version="1.0"?>
<VTKFile type="UnstructuredGrid" version="0.1" byte_order="LittleEndian">
	<UnstructuredGrid>
		<Piece NumberOfPoints="522" NumberOfCells="64">
			<Points>
				<DataArray type="Float64" NumberOfComponents="3" format="ascii">
					 1.00000000E+00	 1.00000000E+00	-5.96046000E-08
					 1.00000000E+00	 5.00000000E-01	-5.96046000E-08
					 1.00000000E+00	 5.00000000E-01	 1.00000000E+00
					 1.00000000E+00	 1.00000000E+00	 1.00000000E+00
					 5.00000000E-01	 1.00000000E+00	-5.96046000E-08
					 5.00000000E-01	 5.00000000E-01	-5.96046000E-08
					 5.00000000E-01	 5.00000000E-01	 1.00000000E+00
					 5.00000000E-01	 1.00000000E+00	 1.00000000E+00
					 1.00000000E+00	 7.50000000E-01	-5.96046000E-08
					 1.00000000E+00	 5.00000000E-01	 5.00000000E-01
					 1.00000000E+00	 7.50000000E-01	 1.00000000E+00
					 1.00000000E+00	 1.00000000E+00	 5.00000000E-01
					 7.50000000E-01	 1.00000000E+00	-5.96046000E-08
					 7.50000000E-01	 5.00000000E-01	-5.96046000E-08
					 7.50000000E-01	 5.00000000E-01	 1.00000000E+00
					 7.50000000E-01	 1.00000000E+00	 1.00000000E+00
					 5.00000000E-01	 7.50000000E-01	-5.96046000E-08
					 5.00000000E-01	 5.00000000E-01	 5.00000000E-01
					 5.00000000E-01	 7.50000000E-01	 1.00000000E+00
					 5.00000000E-01	 1.00000000E+00	 5.00000000E-01
					 1.00000000E+00	-1.49012000E-08	-5.96046000E-08
					 1.00000000E+00	-1.49012000E-08	 1.00000000E+00
					 5.00000000E-01	-1.49012000E-08	-5.96046000E-08
					 5.00000000E-01	-1.49012000E-08	 1.00000000E+00
					 1.00000000E+00	 2.50000000E-01	-5.96046000E-08
					 1.00000000E+00	-1.49012000E-08	 5.00000000E-01
					 1.00000000E+00	 2.50000000E-01	 1.00000000E+00
					 7.50000000E-01	-1.49012000E-08	-5.96046000E-08
					 7.50000000E-01	-1.49012000E-08	 1.00000000E+00
					 5.00000000E-01	 2.50000000E-01	-5.96046000E-08
					 5.00000000E-01	-1.49012000E-08	 5.00000000E-01
					 5.00000000E-01	 2.50000000E-01	 1.00000000E+00
					-7.45058000E-09	 1.00000000E+00	-5.96046000E-08
					-7.45058000E-09	 5.00000000E-01	-5.96046000E-08
					-7.45058000E-09	 5.00000000E-01	 1.00000000E+00
					-7.45058000E-09	 1.00000000E+00	 1.00000000E+00
					 2.50000000E-01	 1.00000000E+00	-5.96046000E-08
					 2.50000000E-01	 5.00000000E-01	-5.96046000E-08
					 2.50000000E-01	 5.00000000E-01	 1.00000000E+00
					 2.50000000E-01	 1.00000000E+00	 1.00000000E+00
					-7.45058000E-09	 7.50000000E-01	-5.96046000E-08
					-7.45058000E-09	 5.00000000E-01	 5.00000000E-01
					-7.45058000E-09	 7.50000000E-01	 1.00000000E+00
					-7.45058000E-09	 1.00000000E+00	 5.00000000E-01
					-7.45058000E-09	-1.49012000E-08	-5.96046000E-08
					-7.45058000E-09	-1.49012000E-08	 1.00000000E+00
					 2.50000000E-01	-1.49012000E-08	-5.96046000E-08
					 2.50000000E-01	-1.49012000E-08	 1.00000000E+00
					-7.45058000E-09	 2.50000000E-01	-5.96046000E-08
					-7.45058000E-09	-1.49012000E-08	 5.00000000E-01
					-7.45058000E-09	 2.50000000E-01	 1.00000000E+00
					 1.00000000E+00	 5.00000000E-01	 2.00000000E+00
					 1.00000000E+00	 1.00000000E+00	 2.00000000E+00
					 5.00000000E-01	 5.00000000E-01	 2.00000000E+00
					 5.00000000E-01	 1.00000000E+00	 2.00000000E+00
					 1.00000000E+00	 5.00000000E-01	 1.50000000E+00
					 1.00000000E+00	 7.50000000E-01	 2.00000000E+00
					 1.00000000E+00	 1.00000000E+00	 1.50000000E+00
					 7.50000000E-01	 5.00000000E-01	 2.00000000E+00
					 7.50000000E-01	 1.00000000E+00	 2.00000000E+00
					 5.00000000E-01	 5.00000000E-01	 1.50000000E+00
					 5.00000000E-01	 7.50000000E-01	 2.00000000E+00
					 5.00000000E-01	 1.00000000E+00	 1.50000000E+00
					 1.00000000E+00	-1.49012000E-08	 2.00000000E+00
					 5.00000000E-01	-1.49012000E-08	 2.00000000E+00
					 1.00000000E+00	-1.49012000E-08	 1.50000000E+00
					 1.00000000E+00	 2.50000000E-01	 2.00000000E+00
					 7.50000000E-01	-1.49012000E-08	 2.00000000E+00
					 5.00000000E-01	-1.49012000E-08	 1.50000000E+00
					 5.00000000E-01	 2.50000000E-01	 2.00000000E+00
					-7.45058000E-09	 5.00000000E-01	 2.00000000E+00
					-7.45058000E-09	 1.00000000E+00	 2.00000000E+00
					 2.50000000E-01	 5.00000000E-01	 2.00000000E+00
					 2.50000000E-01	 1.00000000E+00	 2.00000000E+00
					-7.45058000E-09	 5.00000000E-01	 1.50000000E+00
					-7.45058000E-09	 7.50000000E-01	 2.00000000E+00
					-7.45058000E-09	 1.00000000E+00	 1.50000000E+00
					-7.45058000E-09	-1.49012000E-08	 2.00000000E+00
					 2.50000000E-01	-1.49012000E-08	 2.00000000E+00
					-7.45058000E-09	-1.49012000E-08	 1.50000000E+00
					-7.45058000E-09	 2.50000000E-01	 2.00000000E+00
					 1.00000000E+00	 5.00000000E-01	 3.00000000E+00
					 1.00000000E+00	 1.00000000E+00	 3.00000000E+00
					 5.00000000E-01	 5.00000000E-01	 3.00000000E+00
					 5.00000000E-01	 1.00000000E+00	 3.00000000E+00
					 1.00000000E+00	 5.00000000E-01	 2.50000000E+00
					 1.00000000E+00	 7.50000000E-01	 3.00000000E+00
					 1.00000000E+00	 1.00000000E+00	 2.50000000E+00
					 7.50000000E-01	 5.00000000E-01	 3.00000000E+00
					 7.50000000E-01	 1.00000000E+00	 3.00000000E+00
					 5.00000000E-01	 5.00000000E-01	 2.50000000E+00
					 5.00000000E-01	 7.50000000E-01	 3.00000000E+00
					 5.00000000E-01	 1.00000000E+00	 2.50000000E+00
					 1.00000000E+00	-1.49012000E-08	 3.00000000E+00
					 5.00000000E-01	-1.49012000E-08	 3.00000000E+00
					 1.00000000E+00	-1.49012000E-08	 2.50000000E+00
					 1.00000000E+00	 2.50000000E-01	 3.00000000E+00
					 7.50000000E-01	-1.49012000E-08	 3.00000000E+00
					 5.00000000E-01	-1.49012000E-08	 2.50000000E+00
					 5.00000000E-01	 2.50000000E-01	 3.00000000E+00
					-7.45058000E-09	 5.00000000E-01	 3.00000000E+00
					-7.45058000E-09	 1.00000000E+00	 3.00000000E+00
					 2.50000000E-01	 5.00000000E-01	 3.00000000E+00
					 2.50000000E-01	 1.00000000E+00	 3.00000000E+00
					-7.45058000E-09	 5.00000000E-01	 2.50000000E+00
					-7.45058000E-09	 7.50000000E-01	 3.00000000E+00
					-7.45058000E-09	 1.00000000E+00	 2.50000000E+00
					-7.45058000E-09	-1.49012000E-08	 3.00000000E+00
					 2.50000000E-01	-1.49012000E-08	 3.00000000E+00
					-7.45058000E-09	-1.49012000E-08	 2.50000000E+00
					-7.45058000E-09	 2.50000000E-01	 3.00000000E+00
					 1.00000000E+00	 5.00000000E-01	 4.00000000E+00
					 1.00000000E+00	 1.00000000E+00	 4.00000000E+00
					 5.00000000E-01	 5.00000000E-01	 4.00000000E+00
					 5.00000000E-01	 1.00000000E+00	 4.00000000E+00
					 1.00000000E+00	 5.00000000E-01	 3.50000000E+00
					 1.00000000E+00	 7.50000000E-01	 4.00000000E+00
					 1.00000000E+00	 1.00000000E+00	 3.50000000E+00
					 7.50000000E-01	 5.00000000E-01	 4.00000000E+00
					 7.50000000E-01	 1.00000000E+00	 4.00000000E+00
					 5.00000000E-01	 5.00000000E-01	 3.50000000E+00
					 5.00000000E-01	 7.50000000E-01	 4.00000000E+00
					 5.00000000E-01	 1.00000000E+00	 3.50000000E+00
					 1.00000000E+00	-1.49012000E-08	 4.00000000E+00
					 5.00000000E-01	-1.49012000E-08	 4.00000000E+00
					 1.00000000E+00	-1.49012000E-08	 3.50000000E+00
					 1.00000000E+00	 2.50000000E-01	 4.00000000E+00
					 7.50000000E-01	-1.49012000E-08	 4.00000000E+00
					 5.00000000E-01	-1.49012000E-08	 3.50000000E+00
					 5.00000000E-01	 2.50000000E-01	 4.00000000E+00
					-7.45058000E-09	 5.00000000E-01	 4.00000000E+00
					-7.45058000E-09	 1.00000000E+00	 4.00000000E+00
					 2.50000000E-01	 5.00000000E-01	 4.00000000E+00
					 2.50000000E-01	 1.00000000E+00	 4.00000000E+00
					-7.45058000E-09	 5.00000000E-01	 3.50000000E+00
					-7.45058000E-09	 7.50000000E-01	 4.00000000E+00
					-7.45058000E-09	 1.00000000E+00	 3.50000000E+00
					-7.45058000E-09	-1.49012000E-08	 4.00000000E+00
					 2.50000000E-01	-1.49012000E-08	 4.00000000E+00
					-7.45058000E-09	-1.49012000E-08	 3.50000000E+00
					-7.45058000E-09	 2.50000000E-01	 4.00000000E+00
					 1.00000000E+00	 5.00000000E-01	 5.00000000E+00
					 1.00000000E+00	 1.00000000E+00	 5.00000000E+00
					 5.00000000E-01	 5.00000000E-01	 5.00000000E+00
					 5.00000000E-01	 1.00000000E+00	 5.00000000E+00
					 1.00000000E+00	 5.00000000E-01	 4.50000000E+00
					 1.00000000E+00	 7.50000000E-01	 5.00000000E+00
					 1.00000000E+00	 1.00000000E+00	 4.50000000E+00
					 7.50000000E-01	 5.00000000E-01	 5.00000000E+00
					 7.50000000E-01	 1.00000000E+00	 5.00000000E+00
					 5.00000000E-01	 5.00000000E-01	 4.50000000E+00
					 5.00000000E-01	 7.50000000E-01	 5.00000000E+00
					 5.00000000E-01	 1.00000000E+00	 4.50000000E+00
					 1.00000000E+00	-1.49012000E-08	 5.00000000E+00
					 5.00000000E-01	-1.49012000E-08	 5.00000000E+00
					 1.00000000E+00	-1.49012000E-08	 4.50000000E+00
					 1.00000000E+00	 2.50000000E-01	 5.00000000E+00
					 7.50000000E-01	-1.49012000E-08	 5.00000000E+00
					 5.00000000E-01	-1.49012000E-08	 4.50000000E+00
					 5.00000000E-01	 2.50000000E-01	 5.00000000E+00
					-7.45058000E-09	 5.00000000E-01	 5.00000000E+00
					-7.45058000E-09	 1.00000000E+00	 5.00000000E+00
					 2.50000000E-01	 5.00000000E-01	 5.00000000E+00
					 2.50000000E-01	 1.00000000E+00	 5.00000000E+00
					-7.45058000E-09	 5.00000000E-01	 4.50000000E+00
					-7.45058000E-09	 7.50000000E-01	 5.00000000E+00
					-7.45058000E-09	 1.00000000E+00	 4.50000000E+00
					-7.45058000E-09	-1.49012000E-08	 5.00000000E+00
					 2.50000000E-01	-1.49012000E-08	 5.00000000E+00
					-7.45058000E-09	-1.49012000E-08	 4.50000000E+00
					-7.45058000E-09	 2.50000000E-01	 5.00000000E+00
					 1.00000000E+00	 5.00000000E-01	 6.00000000E+00
					 1.00000000E+00	 1.00000000E+00	 6.00000000E+00
					 5.00000000E-01	 5.00000000E-01	 6.00000000E+00
					 5.00000000E-01	 1.00000000E+00	 6.00000000E+00
					 1.00000000E+00	 5.00000000E-01	 5.50000000E+00
					 1.00000000E+00	 7.50000000E-01	 6.00000000E+00
					 1.00000000E+00	 1.00000000E+00	 5.50000000E+00
					 7.50000000E-01	 5.00000000E-01	 6.00000000E+00
					 7.50000000E-01	 1.00000000E+00	 6.00000000E+00
					 5.00000000E-01	 5.00000000E-01	 5.50000000E+00
					 5.00000000E-01	 7.50000000E-01	 6.00000000E+00
					 5.00000000E-01	 1.00000000E+00	 5.50000000E+00
					 1.00000000E+00	-1.49012000E-08	 6.00000000E+00
[...]
			<PointData>
				<DataArray type="Float32" Name="U" NumberOfComponents="3" ComponentName0="D1" ComponentName1="D2" ComponentName2="D3" format="ascii">
					 0.00000000E+00	 0.00000000E+00	 0.00000000E+00
					 0.00000000E+00	 0.00000000E+00	 0.00000000E+00
					 5.15546000E-06	-2.30767000E-03	-3.69838000E-05
					-1.10782000E-03	-2.42831000E-03	 2.49129000E-03
					 0.00000000E+00	 0.00000000E+00	 0.00000000E+00
					 0.00000000E+00	 0.00000000E+00	 0.00000000E+00
					 1.22824000E-06	-3.27679000E-03	-4.30679000E-05
					-8.29341000E-04	-3.40884000E-03	 2.52249000E-03
					 0.00000000E+00	 0.00000000E+00	 0.00000000E+00
					 6.66681000E-06	-4.01984000E-04	-1.61519000E-05
					-5.51650000E-04	-2.31387000E-03	 1.23972000E-03
					-7.98614000E-04	-6.22261000E-04	 1.33662000E-03
					 0.00000000E+00	 0.00000000E+00	 0.00000000E+00
					 0.00000000E+00	 0.00000000E+00	 0.00000000E+00
					 3.48862000E-06	-2.84396000E-03	-4.00814000E-05
					-9.65772000E-04	-2.96944000E-03	 2.44482000E-03
					 0.00000000E+00	 0.00000000E+00	 0.00000000E+00
					 1.52551000E-06	-1.00325000E-03	-1.83895000E-05
					-4.13481000E-04	-3.28626000E-03	 1.18736000E-03
					-4.35049000E-04	-1.21479000E-03	 1.30513000E-03
					 0.00000000E+00	 0.00000000E+00	 0.00000000E+00
					 1.11386000E-03	-2.42458000E-03	-2.56771000E-03
					 0.00000000E+00	 0.00000000E+00	 0.00000000E+00
					 8.28211000E-04	-3.40198000E-03	-2.61091000E-03
					 0.00000000E+00	 0.00000000E+00	 0.00000000E+00
					 8.09422000E-04	-6.28019000E-04	-1.37254000E-03
					 5.60446000E-04	-2.31219000E-03	-1.31434000E-03
					 0.00000000E+00	 0.00000000E+00	 0.00000000E+00
					 9.68862000E-04	-2.96405000E-03	-2.52713000E-03
					 0.00000000E+00	 0.00000000E+00	 0.00000000E+00
					 4.35955000E-04	-1.21977000E-03	-1.34411000E-03
					 4.14458000E-04	-3.28277000E-03	-1.27399000E-03
					 0.00000000E+00	 0.00000000E+00	 0.00000000E+00
					 0.00000000E+00	 0.00000000E+00	 0.00000000E+00
					-4.38541000E-06	-3.96487000E-03	-4.69735000E-05
					-5.47235000E-04	-4.08365000E-03	 2.48190000E-03
					 0.00000000E+00	 0.00000000E+00	 0.00000000E+00
					 0.00000000E+00	 0.00000000E+00	 0.00000000E+00
					-1.25108000E-06	-3.67138000E-03	-4.53167000E-05
					-6.90233000E-04	-3.79886000E-03	 2.57349000E-03
					 0.00000000E+00	 0.00000000E+00	 0.00000000E+00
					-5.30669000E-06	-1.27266000E-03	-2.12672000E-05
					-2.76698000E-04	-3.96975000E-03	 1.09627000E-03
					-4.49615000E-05	-1.46604000E-03	 1.33261000E-03
					 0.00000000E+00	 0.00000000E+00	 0.00000000E+00
					 5.36303000E-04	-4.07347000E-03	-2.57746000E-03
					 0.00000000E+00	 0.00000000E+00	 0.00000000E+00
					 6.84252000E-04	-3.78993000E-03	-2.66632000E-03
					 0.00000000E+00	 0.00000000E+00	 0.00000000E+00
					 3.33915000E-05	-1.46975000E-03	-1.37634000E-03
					 2.67441000E-04	-3.96447000E-03	-1.19030000E-03
					 7.57535000E-06	-9.08196000E-03	-9.82184000E-05
					-1.50762000E-03	-9.15787000E-03	 3.93554000E-03
					 4.09626000E-06	-1.05206000E-02	-1.06259000E-04
					-1.36288000E-03	-1.06024000E-02	 3.94600000E-03
					 5.56301000E-06	-5.26279000E-03	-6.35782000E-05
					-7.49119000E-04	-9.10526000E-03	 1.89555000E-03
					-1.36368000E-03	-5.38006000E-03	 3.34483000E-03
					 5.79200000E-06	-9.81547000E-03	-1.02448000E-04
					-1.43644000E-03	-9.89571000E-03	 3.92590000E-03
					 1.65725000E-06	-6.51095000E-03	-7.08348000E-05
					-6.79561000E-04	-1.05476000E-02	 1.88073000E-03
					-1.13420000E-03	-6.63734000E-03	 3.35471000E-03
					 1.52178000E-03	-9.13528000E-03	-4.13465000E-03
					 1.36993000E-03	-1.05787000E-02	-4.16140000E-03
					 1.37228000E-03	-5.36619000E-03	-3.47558000E-03
					 7.64053000E-04	-9.09482000E-03	-2.09264000E-03
					 1.44679000E-03	-9.87273000E-03	-4.13349000E-03
					 1.13506000E-03	-6.62121000E-03	-3.50084000E-03
					 6.87332000E-04	-1.05368000E-02	-2.09398000E-03
					 6.15309000E-07	-1.18161000E-02	-1.12334000E-04
					-1.22354000E-03	-1.18987000E-02	 3.92090000E-03
					 2.29312000E-06	-1.11840000E-02	-1.09578000E-04
					-1.29264000E-03	-1.12651000E-02	 3.96918000E-03
					-3.22596000E-06	-7.53242000E-03	-7.62016000E-05
					-6.10165000E-04	-1.18429000E-02	 1.83002000E-03
					-9.22216000E-04	-7.66858000E-03	 3.33176000E-03
					 1.22371000E-03	-1.18741000E-02	-4.14837000E-03
					 1.29618000E-03	-1.12404000E-02	-4.19121000E-03
					 9.14030000E-04	-7.65067000E-03	-3.48940000E-03
					 6.11106000E-04	-1.18324000E-02	-2.05540000E-03
					 2.23079000E-05	-1.78305000E-02	-1.74168000E-04
					-1.78865000E-03	-1.78258000E-02	 4.17571000E-03
					 2.29132000E-05	-1.96673000E-02	-1.83878000E-04
					-1.83360000E-03	-1.96620000E-02	 4.18037000E-03
					 1.33347000E-05	-1.34028000E-02	-1.38029000E-04
					-8.84337000E-04	-1.78340000E-02	 2.00141000E-03
					-1.62969000E-03	-1.34461000E-02	 4.20049000E-03
					 2.26591000E-05	-1.87433000E-02	-1.78769000E-04
					-1.81101000E-03	-1.87369000E-02	 4.14580000E-03
					 1.16751000E-05	-1.50270000E-02	-1.45822000E-04
					-9.05210000E-04	-1.96708000E-02	 1.96393000E-03
					-1.58662000E-03	-1.50656000E-02	 4.21430000E-03
					 1.83362000E-03	-1.77908000E-02	-4.52087000E-03
					 1.87753000E-03	-1.96275000E-02	-4.54577000E-03
					 1.65539000E-03	-1.34178000E-02	-4.47659000E-03
					 9.28888000E-04	-1.78172000E-02	-2.34920000E-03
					 1.85577000E-03	-1.87031000E-02	-4.50016000E-03
					 1.60799000E-03	-1.50355000E-02	-4.50554000E-03
					 9.50204000E-04	-1.96546000E-02	-2.33109000E-03
					 2.20099000E-05	-2.15420000E-02	-1.93329000E-04
					-1.88584000E-03	-2.15447000E-02	 4.15321000E-03
					 2.29334000E-05	-2.05993000E-02	-1.88990000E-04
					-1.85946000E-03	-2.05970000E-02	 4.21782000E-03
					 9.54902000E-06	-1.65989000E-02	-1.52297000E-04
					-9.30389000E-04	-2.15491000E-02	 1.89579000E-03
					-1.53686000E-03	-1.66374000E-02	 4.18481000E-03
					 1.92669000E-03	-2.15077000E-02	-4.53848000E-03
					 1.90221000E-03	-2.05609000E-02	-4.59417000E-03
					 1.55334000E-03	-1.66048000E-02	-4.48868000E-03
					 9.73416000E-04	-2.15316000E-02	-2.28198000E-03
					 1.57603000E-05	-2.58748000E-02	-2.18207000E-04
					-2.03236000E-03	-2.58403000E-02	 3.53628000E-03
					 1.79471000E-05	-2.79649000E-02	-2.40773000E-04
					-2.11442000E-03	-2.79356000E-02	 3.50877000E-03
					 2.44408000E-05	-2.20099000E-02	-1.99132000E-04
					-1.00792000E-03	-2.58712000E-02	 1.66647000E-03
					-1.96170000E-03	-2.19862000E-02	 3.89060000E-03
					 1.67594000E-05	-2.69060000E-02	-2.30288000E-04
					-2.07455000E-03	-2.68764000E-02	 3.52362000E-03
					 2.64201000E-05	-2.40379000E-02	-2.15895000E-04
					-1.04992000E-03	-2.79650000E-02	 1.64372000E-03
					-2.04355000E-03	-2.40174000E-02	 3.87719000E-03
					 2.06510000E-03	-2.58053000E-02	-3.96981000E-03
					 2.15215000E-03	-2.79029000E-02	-3.98730000E-03
					 2.01277000E-03	-2.19482000E-02	-4.28523000E-03
					 1.03970000E-03	-2.58532000E-02	-2.10177000E-03
					 2.10977000E-03	-2.68425000E-02	-3.98152000E-03
					 2.09704000E-03	-2.39830000E-02	-4.30650000E-03
					 1.08644000E-03	-2.79485000E-02	-2.12451000E-03
					 2.01580000E-05	-3.01401000E-02	-2.64227000E-04
					-2.21848000E-03	-3.01251000E-02	 3.48935000E-03
					 1.90673000E-05	-2.90410000E-02	-2.51525000E-04
					-2.16677000E-03	-2.90135000E-02	 3.49143000E-03
					 2.73905000E-05	-2.61496000E-02	-2.32982000E-04
					-1.09510000E-03	-3.01473000E-02	 1.62975000E-03
					-2.14670000E-03	-2.61444000E-02	 3.85334000E-03
					 2.26089000E-03	-3.00948000E-02	-4.01477000E-03
					 2.20689000E-03	-2.89821000E-02	-3.99161000E-03
					 2.20124000E-03	-2.61109000E-02	-4.31808000E-03
					 1.13610000E-03	-3.01323000E-02	-2.15738000E-03
					 3.65841000E-07	-3.30872000E-02	-2.52637000E-04
					-1.66740000E-03	-3.30978000E-02	 3.15131000E-03
					 5.27899000E-07	-3.47464000E-02	-2.73859000E-04
					-1.65595000E-03	-3.47639000E-02	 3.11768000E-03
					 6.10840000E-06	-2.95112000E-02	-2.37381000E-04
					-8.32081000E-04	-3.30920000E-02	 1.42459000E-03
					-1.93943000E-03	-2.94933000E-02	 3.26789000E-03
					 1.18273000E-06	-3.39164000E-02	-2.62467000E-04
					-1.66167000E-03	-3.39330000E-02	 3.18784000E-03
					 7.63138000E-06	-3.14716000E-02	-2.59361000E-04
					-8.28362000E-04	-3.47560000E-02	 1.45146000E-03
					-1.97687000E-03	-3.14645000E-02	 3.23564000E-03
					 1.66409000E-03	-3.30683000E-02	-3.65506000E-03
					 1.65741000E-03	-3.47319000E-02	-3.66409000E-03
					 1.94982000E-03	-2.94626000E-02	-3.73996000E-03
					 8.31596000E-04	-3.30774000E-02	-1.92919000E-03
					 1.66133000E-03	-3.39005000E-02	-3.71161000E-03
					 1.99311000E-03	-3.14324000E-02	-3.75131000E-03
					 8.29400000E-04	-3.47383000E-02	-1.99867000E-03
					-8.74050000E-07	-3.64010000E-02	-2.96268000E-04
					-1.65831000E-03	-3.64227000E-02	 3.10853000E-03
					-5.15506000E-07	-3.55747000E-02	-2.85661000E-04
					-1.65745000E-03	-3.55923000E-02	 3.04399000E-03
					 8.64316000E-06	-3.34803000E-02	-2.82705000E-04
					-8.28685000E-04	-3.64129000E-02	 1.50286000E-03
					-2.03984000E-03	-3.34867000E-02	 3.22310000E-03
					 1.66162000E-03	-3.63967000E-02	-3.70004000E-03
					 1.65993000E-03	-3.55633000E-02	-3.61416000E-03
					 2.06049000E-03	-3.34578000E-02	-3.78525000E-03
					 8.28367000E-04	-3.63981000E-02	-2.09480000E-03
					-3.13828000E-05	-4.06931000E-02	-2.76918000E-04
					-9.49252000E-04	-4.07712000E-02	 3.61289000E-03
					-3.47343000E-05	-4.15373000E-02	-3.04043000E-04
					-8.15653000E-04	-4.16227000E-02	 3.57847000E-03
					-1.03763000E-05	-3.67375000E-02	-2.62689000E-04
					-4.87557000E-04	-4.07126000E-02	 1.62204000E-03
					-1.31724000E-03	-3.67828000E-02	 3.28181000E-03
					-3.20128000E-05	-4.11321000E-02	-2.91241000E-04
					-8.81631000E-04	-4.12166000E-02	 3.65614000E-03
					-1.20943000E-05	-3.80031000E-02	-2.87767000E-04
					-4.24352000E-04	-4.15610000E-02	 1.65379000E-03
					-1.24275000E-03	-3.80537000E-02	 3.24293000E-03
					 8.78283000E-04	-4.07415000E-02	-4.16429000E-03
					 7.46417000E-04	-4.15860000E-02	-4.18398000E-03
					 1.29062000E-03	-3.67545000E-02	-3.80706000E-03
					 4.22650000E-04	-4.06990000E-02	-2.17459000E-03
					 8.11873000E-04	-4.11803000E-02	-4.23652000E-03
					 1.21903000E-03	-3.80218000E-02	-3.81828000E-03
					 3.54826000E-04	-4.15410000E-02	-2.26099000E-03
					-3.91764000E-05	-4.22588000E-02	-3.31841000E-04
					-6.79043000E-04	-4.23329000E-02	 3.55965000E-03
					-3.76568000E-05	-4.19159000E-02	-3.17168000E-04
					-7.47580000E-04	-4.19981000E-02	 3.49803000E-03
					-1.54721000E-05	-3.92004000E-02	-3.13358000E-04
					-3.62029000E-04	-4.22773000E-02	 1.70125000E-03
					-1.17167000E-03	-3.92464000E-02	 3.23317000E-03
					 6.09567000E-04	-4.23057000E-02	-4.22044000E-03
					 6.78491000E-04	-4.19651000E-02	-4.12987000E-03
					 1.14797000E-03	-3.92234000E-02	-3.85961000E-03
					 2.85821000E-04	-4.22626000E-02	-2.36381000E-03
					-7.36885000E-05	-5.03127000E-02	-3.19010000E-04
					-1.71758000E-04	-5.03975000E-02	 4.49176000E-03
					-7.90718000E-05	-5.03678000E-02	-3.42964000E-04
					-8.21102000E-05	-5.04482000E-02	 4.47246000E-03
					-5.36504000E-05	-4.52233000E-02	-2.98681000E-04
					-1.21924000E-04	-5.03425000E-02	 2.00858000E-03
					-5.49840000E-04	-4.53062000E-02	 4.07895000E-03
					-7.50411000E-05	-5.03520000E-02	-3.30784000E-04
					-1.25022000E-04	-5.04351000E-02	 4.53611000E-03
					-5.89397000E-05	-4.56485000E-02	-3.22685000E-04
					-7.82248000E-05	-5.03961000E-02	 2.03642000E-03
					-4.14011000E-04	-4.57358000E-02	 4.05758000E-03
					 2.02041000E-05	-5.03382000E-02	-5.13538000E-03
					-7.50103000E-05	-5.03860000E-02	-5.16381000E-03
					 4.33954000E-04	-4.52634000E-02	-4.67231000E-03
					-2.67575000E-05	-5.03111000E-02	-2.64998000E-03
					-2.71484000E-05	-5.03721000E-02	-5.20246000E-03
					 2.96802000E-04	-4.56848000E-02	-4.69941000E-03
					-7.96667000E-05	-5.03618000E-02	-2.72475000E-03
					-8.54351000E-05	-5.03263000E-02	-3.63262000E-04
					 2.00163000E-05	-5.03942000E-02	 4.43368000E-03
					-8.34987000E-05	-5.03611000E-02	-3.53682000E-04
					-3.11549000E-05	-5.04372000E-02	 4.41537000E-03
					-6.49167000E-05	-4.59423000E-02	-3.47443000E-04
					-3.41463000E-05	-5.03486000E-02	 2.04345000E-03
					-2.68835000E-04	-4.60145000E-02	 4.02784000E-03
					-1.84755000E-04	-5.03393000E-02	-5.16545000E-03
					-1.31726000E-04	-5.03784000E-02	-5.12709000E-03
					 1.48777000E-04	-4.59734000E-02	-4.71940000E-03
					-1.34868000E-04	-5.03181000E-02	-2.77309000E-03
					-1.44121000E-04	-6.09081000E-02	-3.58031000E-04
					 1.71119000E-04	-6.09497000E-02	 4.70491000E-03
					-1.29511000E-04	-6.05921000E-02	-3.93984000E-04
					 1.65051000E-04	-6.06087000E-02	 4.65369000E-03
					-1.01720000E-04	-5.56728000E-02	-3.35545000E-04
					 6.12244000E-06	-6.09303000E-02	 2.16301000E-03
					 9.76249000E-05	-5.57362000E-02	 4.67707000E-03
					-1.37814000E-04	-6.07550000E-02	-3.78775000E-04
					 1.67354000E-04	-6.07777000E-02	 4.68660000E-03
					-1.01883000E-04	-5.54651000E-02	-3.66723000E-04
					 1.26804000E-05	-6.06015000E-02	 2.12458000E-03
					 1.25363000E-04	-5.55125000E-02	 4.64058000E-03
					-4.46851000E-04	-6.09207000E-02	-5.45099000E-03
					-4.27039000E-04	-6.05903000E-02	-5.47015000E-03
					-2.95016000E-04	-5.56769000E-02	-5.37139000E-03
					-2.91439000E-04	-6.09190000E-02	-2.88794000E-03
					-4.36946000E-04	-6.07575000E-02	-5.47310000E-03
					-3.30258000E-04	-5.54597000E-02	-5.39579000E-03
					-2.72890000E-04	-6.05965000E-02	-2.92064000E-03
					-1.16556000E-04	-6.02648000E-02	-4.07348000E-04
					 1.72816000E-04	-6.02771000E-02	 4.60323000E-03
					-1.21499000E-04	-6.04201000E-02	-4.02842000E-04
					 1.70681000E-04	-6.04358000E-02	 4.62442000E-03
					-1.03221000E-04	-5.52184000E-02	-3.82874000E-04
					 2.53987000E-05	-6.02725000E-02	 2.09109000E-03
					 1.62678000E-04	-5.52577000E-02	 4.59408000E-03
					-4.23651000E-04	-6.02430000E-02	-5.44632000E-03
					-4.25745000E-04	-6.04135000E-02	-5.45734000E-03
					-3.76546000E-04	-5.51997000E-02	-5.38048000E-03
					-2.63400000E-04	-6.02572000E-02	-2.91499000E-03
					 0.00000000E+00	 0.00000000E+00	 0.00000000E+00
					 0.00000000E+00	 0.00000000E+00	 0.00000000E+00
					-1.25327000E-05	-3.61640000E-03	 1.60725000E-04
					-1.13210000E-03	-3.88143000E-03	 4.09418000E-03
					 0.00000000E+00	 0.00000000E+00	 0.00000000E+00
					 0.00000000E+00	 0.00000000E+00	 0.00000000E+00
					 1.56436000E-05	-4.48487000E-03	 1.71298000E-04
					-6.15618000E-04	-4.77041000E-03	 4.15688000E-03
					 0.00000000E+00	 0.00000000E+00	 0.00000000E+00
					-2.26640000E-05	-6.44895000E-04	 7.85308000E-05
					-5.74056000E-04	-3.66038000E-03	 2.13564000E-03
					-8.78749000E-04	-1.01980000E-03	 2.09301000E-03
					 0.00000000E+00	 0.00000000E+00	 0.00000000E+00
					 0.00000000E+00	 0.00000000E+00	 0.00000000E+00
					 1.73777000E-06	-4.13658000E-03	 1.65185000E-04
					-8.70215000E-04	-4.40885000E-03	 4.06123000E-03
					 0.00000000E+00	 0.00000000E+00	 0.00000000E+00
					 3.93783000E-06	-1.17836000E-03	 7.74246000E-05
					-2.99397000E-04	-4.53521000E-03	 2.10466000E-03
					-2.67801000E-04	-1.54856000E-03	 2.03988000E-03
					 0.00000000E+00	 0.00000000E+00	 0.00000000E+00
					 1.09946000E-03	-3.79762000E-03	-3.78063000E-03
					 0.00000000E+00	 0.00000000E+00	 0.00000000E+00
					 6.40161000E-04	-4.67223000E-03	-3.82265000E-03
					 0.00000000E+00	 0.00000000E+00	 0.00000000E+00
					 8.26941000E-04	-9.55665000E-04	-1.92903000E-03
					 5.47306000E-04	-3.61856000E-03	-1.81783000E-03
					 0.00000000E+00	 0.00000000E+00	 0.00000000E+00
					 8.65841000E-04	-4.31703000E-03	-3.73908000E-03
					 0.00000000E+00	 0.00000000E+00	 0.00000000E+00
					 2.70944000E-04	-1.47734000E-03	-1.87529000E-03
					 3.27234000E-04	-4.48595000E-03	-1.76663000E-03
					 0.00000000E+00	 0.00000000E+00	 0.00000000E+00
					 0.00000000E+00	 0.00000000E+00	 0.00000000E+00
					 4.47856000E-05	-4.87141000E-03	 1.84867000E-04
					-8.55033000E-05	-5.13697000E-03	 4.11953000E-03
					 0.00000000E+00	 0.00000000E+00	 0.00000000E+00
					 0.00000000E+00	 0.00000000E+00	 0.00000000E+00
					 3.00158000E-05	-4.76257000E-03	 1.76413000E-04
					-3.53717000E-04	-5.03450000E-03	 4.21068000E-03
					 0.00000000E+00	 0.00000000E+00	 0.00000000E+00
					 3.18083000E-05	-1.18302000E-03	 8.90902000E-05
					-1.96875000E-05	-4.91529000E-03	 2.02168000E-03
					 3.72063000E-04	-1.53800000E-03	 2.10567000E-03
					 0.00000000E+00	 0.00000000E+00	 0.00000000E+00
					 1.65639000E-04	-5.02855000E-03	-3.75683000E-03
					 0.00000000E+00	 0.00000000E+00	 0.00000000E+00
					 4.04866000E-04	-4.93634000E-03	-3.86545000E-03
					 0.00000000E+00	 0.00000000E+00	 0.00000000E+00
					-3.13399000E-04	-1.45812000E-03	-1.91694000E-03
					 1.06822000E-04	-4.86114000E-03	-1.65603000E-03
					 4.11226000E-05	-1.41660000E-02	 2.77299000E-04
					-1.90251000E-03	-1.43783000E-02	 6.90016000E-03
					 7.31423000E-05	-1.59644000E-02	 2.95313000E-04
					-1.58727000E-03	-1.61759000E-02	 6.93899000E-03
					 9.00562000E-06	-8.25313000E-03	 2.27032000E-04
					-9.31222000E-04	-1.42434000E-02	 3.62158000E-03
					-1.49318000E-03	-8.52595000E-03	 5.69190000E-03
					 5.62777000E-05	-1.50949000E-02	 2.84467000E-04
					-1.74462000E-03	-1.53036000E-02	 6.84922000E-03
					 3.74979000E-05	-9.55972000E-03	 2.40983000E-04
					-7.51213000E-04	-1.60401000E-02	 3.58192000E-03
					-1.07228000E-03	-9.82851000E-03	 5.73321000E-03
					 1.98286000E-03	-1.42320000E-02	-6.35328000E-03
					 1.72468000E-03	-1.60299000E-02	-6.35413000E-03
					 1.50449000E-03	-8.40967000E-03	-5.24654000E-03
					 1.01253000E-03	-1.41692000E-02	-3.06973000E-03
					 1.85388000E-03	-1.51633000E-02	-6.28455000E-03
					 1.14121000E-03	-9.70612000E-03	-5.26070000E-03
					 8.99733000E-04	-1.59681000E-02	-2.98997000E-03
					 1.02900000E-04	-1.74781000E-02	 3.18585000E-04
					-1.24673000E-03	-1.76735000E-02	 6.94063000E-03
					 8.76018000E-05	-1.67477000E-02	 3.08062000E-04
					-1.41702000E-03	-1.69844000E-02	 7.03203000E-03
					 6.73226000E-05	-1.04688000E-02	 2.60483000E-04
					-5.78388000E-04	-1.75416000E-02	 3.50526000E-03
					-6.34939000E-04	-1.07320000E-02	 5.72442000E-03
					 1.47250000E-03	-1.75385000E-02	-6.31019000E-03
					 1.59859000E-03	-1.68139000E-02	-6.42532000E-03
					 7.74222000E-04	-1.06094000E-02	-5.21174000E-03
					 7.89755000E-04	-1.74772000E-02	-2.86556000E-03
					 1.72173000E-04	-2.85250000E-02	 3.24432000E-04
					-2.68875000E-03	-2.86397000E-02	 8.33628000E-03
					 2.08816000E-04	-3.12760000E-02	 3.77595000E-04
					-2.49455000E-03	-3.15044000E-02	 8.40687000E-03
					 9.42625000E-05	-2.09825000E-02	 3.09603000E-04
					-1.25221000E-03	-2.85622000E-02	 4.35133000E-03
					-2.32131000E-03	-2.11625000E-02	 7.75254000E-03
					 1.91246000E-04	-2.99222000E-02	 3.55104000E-04
					-2.59483000E-03	-3.01070000E-02	 8.30654000E-03
					 1.27361000E-04	-2.32792000E-02	 3.39493000E-04
					-1.16619000E-03	-3.13744000E-02	 4.33679000E-03
					-2.07150000E-03	-2.34780000E-02	 7.80223000E-03
					 2.99038000E-03	-2.84989000E-02	-7.67328000E-03
					 2.90237000E-03	-3.12611000E-02	-7.67216000E-03
					 2.49786000E-03	-2.10010000E-02	-7.13650000E-03
					 1.58245000E-03	-2.84943000E-02	-3.69156000E-03
					 2.94419000E-03	-2.98958000E-02	-7.61061000E-03
					 2.32212000E-03	-2.32933000E-02	-7.12682000E-03
					 1.55762000E-03	-3.12555000E-02	-3.60186000E-03
					 2.41169000E-04	-3.39088000E-02	 4.28511000E-04
					-2.39309000E-03	-3.42564000E-02	 8.43912000E-03
					 2.25577000E-04	-3.26237000E-02	 4.00052000E-04
					-2.44640000E-03	-3.27831000E-02	 8.51369000E-03
					 1.69266000E-04	-2.53706000E-02	 3.71943000E-04
					-1.04462000E-03	-3.40721000E-02	 4.28243000E-03
					-1.85517000E-03	-2.56032000E-02	 7.81987000E-03
					 2.82278000E-03	-3.39099000E-02	-7.62953000E-03
					 2.86245000E-03	-3.25983000E-02	-7.73546000E-03
					 2.14852000E-03	-2.53786000E-02	-7.08133000E-03
					 1.52587000E-03	-3.39048000E-02	-3.47005000E-03
					 4.48451000E-04	-4.45908000E-02	 3.25481000E-04
					-3.30018000E-03	-4.45187000E-02	 8.33964000E-03