<?xml version="1.0"?>
<VTKFile type="UnstructuredGrid" version="0.1" byte_order="LittleEndian">
	<UnstructuredGrid>
		<Piece NumberOfPoints="522" NumberOfCells="64">
			<Points>
				<DataArray type="Float64" NumberOfComponents="3" format="ascii">
					 1.00000000E+00	 1.00000000E+00	-5.96046000E-08
					 1.00000000E+00	 5.00000000E-01	-5.96046000E-08
					 1.00000000E+00	 5.00000000E-01	 1.00000000E+00
					 1.00000000E+00	 1.00000000E+00	 1.00000000E+00
					 5.00000000E-01	 1.00000000E+00	-5.96046000E-08
					 5.00000000E-01	 5.00000000E-01	-5.96046000E-08
					 5.00000000E-01	 5.00000000E-01	 1.00000000E+00
					 5.00000000E-01	 1.00000000E+00	 1.00000000E+00
					 1.00000000E+00	 7.50000000E-01	-5.96046000E-08
					 1.00000000E+00	 5.00000000E-01	 5.00000000E-01
					 1.00000000E+00	 7.50000000E-01	 1.00000000E+00
					 1.00000000E+00	 1.00000000E+00	 5.00000000E-01
					 7.50000000E-01	 1.00000000E+00	-5.96046000E-08
					 7.50000000E-01	 5.00000000E-01	-5.96046000E-08
					 7.50000000E-01	 5.00000000E-01	 1.00000000E+00
					 7.50000000E-01	 1.00000000E+00	 1.00000000E+00
					 5.00000000E-01	 7.50000000E-01	-5.96046000E-08
					 5.00000000E-01	 5.00000000E-01	 5.00000000E-01
					 5.00000000E-01	 7.50000000E-01	 1.00000000E+00
					 5.00000000E-01	 1.00000000E+00	 5.00000000E-01
					 1.00000000E+00	-1.49012000E-08	-5.96046000E-08
					 1.00000000E+00	-1.49012000E-08	 1.00000000E+00
					 5.00000000E-01	-1.49012000E-08	-5.96046000E-08
					 5.00000000E-01	-1.49012000E-08	 1.00000000E+00
					 1.00000000E+00	 2.50000000E-01	-5.96046000E-08
					 1.00000000E+00	-1.49012000E-08	 5.00000000E-01
					 1.00000000E+00	 2.50000000E-01	 1.00000000E+00
					 7.50000000E-01	-1.49012000E-08	-5.96046000E-08
					 7.50000000E-01	-1.49012000E-08	 1.00000000E+00
					 5.00000000E-01	 2.50000000E-01	-5.96046000E-08
					 5.00000000E-01	-1.49012000E-08	 5.00000000E-01
					 5.00000000E-01	 2.50000000E-01	 1.00000000E+00
					-7.45058000E-09	 1.00000000E+00	-5.96046000E-08
					-7.45058000E-09	 5.00000000E-01	-5.96046000E-08
					-7.45058000E-09	 5.00000000E-01	 1.00000000E+00
					-7.45058000E-09	 1.00000000E+00	 1.00000000E+00
					 2.50000000E-01	 1.00000000E+00	-5.96046000E-08
					 2.50000000E-01	 5.00000000E-01	-5.96046000E-08
					 2.50000000E-01	 5.00000000E-01	 1.00000000E+00
					 2.50000000E-01	 1.00000000E+00	 1.00000000E+00
					-7.45058000E-09	 7.50000000E-01	-5.96046000E-08
					-7.45058000E-09	 5.00000000E-01	 5.00000000E-01
					-7.45058000E-09	 7.50000000E-01	 1.00000000E+00
					-7.45058000E-09	 1.00000000E+00	 5.00000000E-01
					-7.45058000E-09	-1.49012000E-08	-5.96046000E-08
					-7.45058000E-09	-1.49012000E-08	 1.00000000E+00
					 2.50000000E-01	-1.49012000E-08	-5.96046000E-08
					 2.50000000E-01	-1.49012000E-08	 1.00000000E+00
					-7.45058000E-09	 2.50000000E-01	-5.96046000E-08
					-7.45058000E-09	-1.49012000E-08	 5.00000000E-01
					-7.45058000E-09	 2.50000000E-01	 1.00000000E+00
					 1.00000000E+00	 5.00000000E-01	 2.00000000E+00
					 1.00000000E+00	 1.00000000E+00	 2.00000000E+00
					 5.00000000E-01	 5.00000000E-01	 2.00000000E+00
					 5.00000000E-01	 1.00000000E+00	 2.00000000E+00
					 1.00000000E+00	 5.00000000E-01	 1.50000000E+00
					 1.00000000E+00	 7.50000000E-01	 2.00000000E+00
					 1.00000000E+00	 1.00000000E+00	 1.50000000E+00
					 7.50000000E-01	 5.00000000E-01	 2.00000000E+00
					 7.50000000E-01	 1.00000000E+00	 2.00000000E+00
					 5.00000000E-01	 5.00000000E-01	 1.50000000E+00
					 5.00000000E-01	 7.50000000E-01	 2.00000000E+00
					 5.00000000E-01	 1.00000000E+00	 1.50000000E+00
					 1.00000000E+00	-1.49012000E-08	 2.00000000E+00
					 5.00000000E-01	-1.49012000E-08	 2.00000000E+00
					 1.00000000E+00	-1.49012000E-08	 1.50000000E+00
					 1.00000000E+00	 2.50000000E-01	 2.00000000E+00
					 7.50000000E-01	-1.49012000E-08	 2.00000000E+00
					 5.00000000E-01	-1.49012000E-08	 1.50000000E+00
					 5.00000000E-01	 2.50000000E-01	 2.00000000E+00
					-7.45058000E-09	 5.00000000E-01	 2.00000000E+00
					-7.45058000E-09	 1.00000000E+00	 2.00000000E+00
					 2.50000000E-01	 5.00000000E-01	 2.00000000E+00
					 2.50000000E-01	 1.00000000E+00	 2.00000000E+00
					-7.45058000E-09	 5.00000000E-01	 1.50000000E+00
					-7.45058000E-09	 7.50000000E-01	 2.00000000E+00
					-7.45058000E-09	 1.00000000E+00	 1.50000000E+00
					-7.45058000E-09	-1.49012000E-08	 2.00000000E+00
					 2.50000000E-01	-1.49012000E-08	 2.00000000E+00
					-7.45058000E-09	-1.49012000E-08	 1.50000000E+00
					-7.45058000E-09	 2.50000000E-01	 2.00000000E+00
					 1.00000000E+00	 5.00000000E-01	 3.00000000E+00
					 1.00000000E+00	 1.00000000E+00	 3.00000000E+00
					 5.00000000E-01	 5.00000000E-01	 3.00000000E+00
					 5.00000000E-01	 1.00000000E+00	 3.00000000E+00
					 1.00000000E+00	 5.00000000E-01	 2.50000000E+00
					 1.00000000E+00	 7.50000000E-01	 3.00000000E+00
					 1.00000000E+00	 1.00000000E+00	 2.50000000E+00
					 7.50000000E-01	 5.00000000E-01	 3.00000000E+00
					 7.50000000E-01	 1.00000000E+00	 3.00000000E+00
					 5.00000000E-01	 5.00000000E-01	 2.50000000E+00
					 5.00000000E-01	 7.50000000E-01	 3.00000000E+00
					 5.00000000E-01	 1.00000000E+00	 2.50000000E+00
					 1.00000000E+00	-1.49012000E-08	 3.00000000E+00
					 5.00000000E-01	-1.49012000E-08	 3.00000000E+00
					 1.00000000E+00	-1.49012000E-08	 2.50000000E+00
					 1.00000000E+00	 2.50000000E-01	 3.00000000E+00
					 7.50000000E-01	-1.49012000E-08	 3.00000000E+00
					 5.00000000E-01	-1.49012000E-08	 2.50000000E+00
					 5.00000000E-01	 2.50000000E-01	 3.00000000E+00
					-7.45058000E-09	 5.00000000E-01	 3.00000000E+00
					-7.45058000E-09	 1.00000000E+00	 3.00000000E+00
					 2.50000000E-01	 5.00000000E-01	 3.00000000E+00
					 2.50000000E-01	 1.00000000E+00	 3.00000000E+00
					-7.45058000E-09	 5.00000000E-01	 2.50000000E+00
					-7.45058000E-09	 7.50000000E-01	 3.00000000E+00
					-7.45058000E-09	 1.00000000E+00	 2.50000000E+00
					-7.45058000E-09	-1.49012000E-08	 3.00000000E+00
					 2.50000000E-01	-1.49012000E-08	 3.00000000E+00
					-7.45058000E-09	-1.49012000E-08	 2.50000000E+00
					-7.45058000E-09	 2.50000000E-01	 3.00000000E+00
					 1.00000000E+00	 5.00000000E-01	 4.00000000E+00
					 1.00000000E+00	 1.00000000E+00	 4.00000000E+00
					 5.00000000E-01	 5.00000000E-01	 4.00000000E+00
					 5.00000000E-01	 1.00000000E+00	 4.00000000E+00
					 1.00000000E+00	 5.00000000E-01	 3.50000000E+00
					 1.00000000E+00	 7.50000000E-01	 4.00000000E+00
					 1.00000000E+00	 1.00000000E+00	 3.50000000E+00
					 7.50000000E-01	 5.00000000E-01	 4.00000000E+00
					 7.50000000E-01	 1.00000000E+00	 4.00000000E+00
					 5.00000000E-01	 5.00000000E-01	 3.50000000E+00
					 5.00000000E-01	 7.50000000E-01	 4.00000000E+00
					 5.00000000E-01	 1.00000000E+00	 3.50000000E+00
					 1.00000000E+00	-1.49012000E-08	 4.00000000E+00
					 5.00000000E-01	-1.49012000E-08	 4.00000000E+00
					 1.00000000E+00	-1.49012000E-08	 3.50000000E+00
					 1.00000000E+00	 2.50000000E-01	 4.00000000E+00
					 7.50000000E-01	-1.49012000E-08	 4.00000000E+00
					 5.00000000E-01	-1.49012000E-08	 3.50000000E+00
					 5.00000000E-01	 2.50000000E-01	 4.00000000E+00
					-7.45058000E-09	 5.00000000E-01	 4.00000000E+00
					-7.45058000E-09	 1.00000000E+00	 4.00000000E+00
					 2.50000000E-01	 5.00000000E-01	 4.00000000E+00
					 2.50000000E-01	 1.00000000E+00	 4.00000000E+00
					-7.45058000E-09	 5.00000000E-01	 3.50000000E+00
					-7.45058000E-09	 7.50000000E-01	 4.00000000E+00
					-7.45058000E-09	 1.00000000E+00	 3.50000000E+00
					-7.45058000E-09	-1.49012000E-08	 4.00000000E+00
					 2.50000000E-01	-1.49012000E-08	 4.00000000E+00
					-7.45058000E-09	-1.49012000E-08	 3.50000000E+00
					-7.45058000E-09	 2.50000000E-01	 4.00000000E+00
					 1.00000000E+00	 5.00000000E-01	 5.00000000E+00
					 1.00000000E+00	 1.00000000E+00	 5.00000000E+00
					 5.00000000E-01	 5.00000000E-01	 5.00000000E+00
					 5.00000000E-01	 1.00000000E+00	 5.00000000E+00
					 1.00000000E+00	 5.00000000E-01	 4.50000000E+00
					 1.00000000E+00	 7.50000000E-01	 5.00000000E+00
					 1.00000000E+00	 1.00000000E+00	 4.50000000E+00
					 7.50000000E-01	 5.00000000E-01	 5.00000000E+00
					 7.50000000E-01	 1.00000000E+00	 5.00000000E+00
					 5.00000000E-01	 5.00000000E-01	 4.50000000E+00
					 5.00000000E-01	 7.50000000E-01	 5.00000000E+00
					 5.00000000E-01	 1.00000000E+00	 4.50000000E+00
					 1.00000000E+00	-1.49012000E-08	 5.00000000E+00
					 5.00000000E-01	-1.49012000E-08	 5.00000000E+00
					 1.00000000E+00	-1.49012000E-08	 4.50000000E+00
					 1.00000000E+00	 2.50000000E-01	 5.00000000E+00
					 7.50000000E-01	-1.49012000E-08	 5.00000000E+00
					 5.00000000E-01	-1.49012000E-08	 4.50000000E+00
					 5.00000000E-01	 2.50000000E-01	 5.00000000E+00
					-7.45058000E-09	 5.00000000E-01	 5.00000000E+00
					-7.45058000E-09	 1.00000000E+00	 5.00000000E+00
					 2.50000000E-01	 5.00000000E-01	 5.00000000E+00
					 2.50000000E-01	 1.00000000E+00	 5.00000000E+00
					-7.45058000E-09	 5.00000000E-01	 4.50000000E+00
					-7.45058000E-09	 7.50000000E-01	 5.00000000E+00
					-7.45058000E-09	 1.00000000E+00	 4.50000000E+00
					-7.45058000E-09	-1.49012000E-08	 5.00000000E+00
					 2.50000000E-01	-1.49012000E-08	 5.00000000E+00
					-7.45058000E-09	-1.49012000E-08	 4.50000000E+00
					-7.45058000E-09	 2.50000000E-01	 5.00000000E+00
					 1.00000000E+00	 5.00000000E-01	 6.00000000E+00
					 1.00000000E+00	 1.00000000E+00	 6.00000000E+00
					 5.00000000E-01	 5.00000000E-01	 6.00000000E+00
					 5.00000000E-01	 1.00000000E+00	 6.00000000E+00
					 1.00000000E+00	 5.00000000E-01	 5.50000000E+00
					 1.00000000E+00	 7.50000000E-01	 6.00000000E+00
					 1.00000000E+00	 1.00000000E+00	 5.50000000E+00
					 7.50000000E-01	 5.00000000E-01	 6.00000000E+00
					 7.50000000E-01	 1.00000000E+00	 6.00000000E+00
					 5.00000000E-01	 5.00000000E-01	 5.50000000E+00
					 5.00000000E-01	 7.50000000E-01	 6.00000000E+00
					 5.00000000E-01	 1.00000000E+00	 5.50000000E+00
					 1.00000000E+00	-1.49012000E-08	 6.00000000E+00
[...]
			<PointData>
				<DataArray type="Float32" Name="U" NumberOfComponents="3" ComponentName0="D1" ComponentName1="D2" ComponentName2="D3" format="ascii">
					 0.00000000E+00	 0.00000000E+00	 0.00000000E+00
					 0.00000000E+00	 0.00000000E+00	 0.00000000E+00
					-5.69510000E-06	 3.36160000E-03	 1.66371000E-05
					 9.29017000E-04	 3.55262000E-03	-3.65058000E-03
					 0.00000000E+00	 0.00000000E+00	 0.00000000E+00
					 0.00000000E+00	 0.00000000E+00	 0.00000000E+00
					-2.47630000E-06	 4.04721000E-03	 1.07087000E-05
					 4.49052000E-04	 4.25734000E-03	-3.70008000E-03
					 0.00000000E+00	 0.00000000E+00	 0.00000000E+00
					-3.42611000E-06	 5.57433000E-04	 1.09028000E-05
					 4.62271000E-04	 3.37150000E-03	-1.80897000E-03
					 7.81306000E-04	 8.62143000E-04	-1.83456000E-03
					 0.00000000E+00	 0.00000000E+00	 0.00000000E+00
					 0.00000000E+00	 0.00000000E+00	 0.00000000E+00
					-3.95270000E-06	 3.78569000E-03	 1.30012000E-05
					 6.86131000E-04	 3.98599000E-03	-3.64024000E-03
					 0.00000000E+00	 0.00000000E+00	 0.00000000E+00
					-7.95683000E-07	 1.04223000E-03	 7.12566000E-06
					 2.23018000E-04	 4.06322000E-03	-1.79845000E-03
					 2.38150000E-04	 1.34464000E-03	-1.78558000E-03
					 0.00000000E+00	 0.00000000E+00	 0.00000000E+00
					-9.42076000E-04	 3.59150000E-03	 3.67826000E-03
					 0.00000000E+00	 0.00000000E+00	 0.00000000E+00
					-4.53431000E-04	 4.29664000E-03	 3.71562000E-03
					 0.00000000E+00	 0.00000000E+00	 0.00000000E+00
					-7.88971000E-04	 8.81864000E-04	 1.85598000E-03
					-4.74220000E-04	 3.39146000E-03	 1.84029000E-03
					 0.00000000E+00	 0.00000000E+00	 0.00000000E+00
					-6.94236000E-04	 4.02520000E-03	 3.66068000E-03
					 0.00000000E+00	 0.00000000E+00	 0.00000000E+00
					-2.38968000E-04	 1.36264000E-03	 1.80035000E-03
					-2.27816000E-04	 4.08300000E-03	 1.81783000E-03
					 0.00000000E+00	 0.00000000E+00	 0.00000000E+00
					 0.00000000E+00	 0.00000000E+00	 0.00000000E+00
					 4.01299000E-07	 4.26403000E-03	 8.21818000E-06
					-3.10783000E-05	 4.45619000E-03	-3.65855000E-03
					 0.00000000E+00	 0.00000000E+00	 0.00000000E+00
					 0.00000000E+00	 0.00000000E+00	 0.00000000E+00
					-1.04221000E-06	 4.23648000E-03	 8.92304000E-06
					 2.11800000E-04	 4.43805000E-03	-3.71864000E-03
					 0.00000000E+00	 0.00000000E+00	 0.00000000E+00
					 1.17316000E-06	 1.03453000E-03	 6.77164000E-06
					-1.53145000E-05	 4.27480000E-03	-1.74278000E-03
					-3.21298000E-04	 1.32511000E-03	-1.83839000E-03
					 0.00000000E+00	 0.00000000E+00	 0.00000000E+00
					 3.44014000E-05	 4.49341000E-03	 3.67026000E-03
					 0.00000000E+00	 0.00000000E+00	 0.00000000E+00
					-2.12652000E-04	 4.47726000E-03	 3.73090000E-03
					 0.00000000E+00	 0.00000000E+00	 0.00000000E+00
					 3.25877000E-04	 1.34193000E-03	 1.85214000E-03
					 1.69779000E-05	 4.29286000E-03	 1.75781000E-03
					-1.94601000E-06	 1.41674000E-02	-2.07788000E-05
					 9.56927000E-04	 1.42533000E-02	-6.41257000E-03
					 1.86537000E-06	 1.49689000E-02	-2.86312000E-05
					 6.59875000E-04	 1.50661000E-02	-6.44558000E-03
					-4.92694000E-06	 7.99501000E-03	 6.16410000E-06
					 4.75265000E-04	 1.41792000E-02	-3.14944000E-03
					 1.00865000E-03	 8.16005000E-03	-5.19709000E-03
					 1.46128000E-07	 1.45995000E-02	-2.49487000E-05
					 8.09496000E-04	 1.46941000E-02	-6.44540000E-03
					-1.86020000E-06	 8.79701000E-03	-9.65999000E-07
					 3.31668000E-04	 1.49874000E-02	-3.18401000E-03
					 5.98647000E-04	 8.97130000E-03	-5.22963000E-03
					-9.60416000E-04	 1.43458000E-02	 6.36617000E-03
					-6.55236000E-04	 1.51578000E-02	 6.38291000E-03
					-1.02009000E-03	 8.22452000E-03	 5.20307000E-03
					-4.79108000E-04	 1.42237000E-02	 3.10686000E-03
					-8.08547000E-04	 1.47865000E-02	 6.39041000E-03
					-6.01883000E-04	 9.03616000E-03	 5.22094000E-03
					-3.27708000E-04	 1.50318000E-02	 3.12561000E-03
					 4.86840000E-06	 1.54824000E-02	-3.26256000E-05
					 3.75023000E-04	 1.55831000E-02	-6.42484000E-03
					 3.38943000E-06	 1.52587000E-02	-3.14077000E-05
					 5.17511000E-04	 1.53556000E-02	-6.45036000E-03
					 7.18856000E-07	 9.19547000E-03	-3.92141000E-06
					 1.88713000E-04	 1.55025000E-02	-3.16308000E-03
					 2.04195000E-04	 9.37739000E-03	-5.20735000E-03
					-3.63891000E-04	 1.56720000E-02	 6.35385000E-03
					-5.09581000E-04	 1.54464000E-02	 6.38196000E-03
					-2.00438000E-04	 9.44033000E-03	 5.19272000E-03
					-1.78594000E-04	 1.55451000E-02	 3.09666000E-03
					 6.47201000E-07	 2.93370000E-02	-1.09598000E-04
					 5.41546000E-04	 2.93004000E-02	-7.62515000E-03
					 4.07678000E-06	 2.98531000E-02	-1.18850000E-04
					 4.94579000E-04	 2.98181000E-02	-7.65895000E-03
					 1.30567000E-06	 2.14324000E-02	-6.01003000E-05
					 2.71461000E-04	 2.93134000E-02	-3.78370000E-03
					 7.94022000E-04	 2.14576000E-02	-7.20282000E-03
					 2.49373000E-06	 2.96017000E-02	-1.14629000E-04
					 5.18323000E-04	 2.95652000E-02	-7.68039000E-03
					 4.95910000E-06	 2.21349000E-02	-6.92983000E-05
					 2.49534000E-04	 2.98300000E-02	-3.84058000E-03
					 6.22443000E-04	 2.21648000E-02	-7.23956000E-03
					-5.39648000E-04	 2.94211000E-02	 7.40480000E-03
					-4.85811000E-04	 2.99385000E-02	 7.42028000E-03
					-7.90552000E-04	 2.15688000E-02	 7.07916000E-03
					-2.70032000E-04	 2.93711000E-02	 3.56424000E-03
					-5.12719000E-04	 2.96869000E-02	 7.44994000E-03
					-6.11501000E-04	 2.22749000E-02	 7.09740000E-03
					-2.41239000E-04	 2.98886000E-02	 3.60256000E-03
					 6.90229000E-06	 3.03171000E-02	-1.27226000E-04
					 4.53634000E-04	 3.02884000E-02	-7.64270000E-03
					 5.53780000E-06	 3.00923000E-02	-1.22841000E-04
					 4.74313000E-04	 3.00588000E-02	-7.63885000E-03
					 7.80121000E-06	 2.26661000E-02	-7.60234000E-05
					 2.28639000E-04	 3.02970000E-02	-3.85099000E-03
					 4.61336000E-04	 2.27047000E-02	-7.21890000E-03
					-4.39018000E-04	 3.04065000E-02	 7.38735000E-03
					-4.62520000E-04	 3.01777000E-02	 7.39239000E-03
					-4.44313000E-04	 2.28115000E-02	 7.06313000E-03
					-2.14674000E-04	 3.03549000E-02	 3.59610000E-03
					-4.89628000E-06	 4.52205000E-02	-2.16487000E-04
					-3.90055000E-05	 4.51109000E-02	-7.41711000E-03
					-2.21453000E-06	 4.52519000E-02	-2.17523000E-04
					 8.56180000E-05	 4.51374000E-02	-7.42905000E-03
					-2.43642000E-06	 3.73971000E-02	-1.64103000E-04
					-2.05084000E-05	 4.51832000E-02	-3.75868000E-03
					 2.50231000E-04	 3.73206000E-02	-7.65433000E-03
					-3.58884000E-06	 4.52206000E-02	-2.16990000E-04
					 2.33096000E-05	 4.51067000E-02	-7.46095000E-03
					 5.41348000E-07	 3.76761000E-02	-1.70194000E-04
					 4.16473000E-05	 4.52121000E-02	-3.80236000E-03
					 3.01708000E-04	 3.75973000E-02	-7.67938000E-03
					 2.84200000E-05	 4.52197000E-02	 6.98582000E-03
					-9.06096000E-05	 4.52480000E-02	 6.99616000E-03
					-2.55295000E-04	 3.74386000E-02	 7.32681000E-03
					 1.05148000E-05	 4.52360000E-02	 3.32615000E-03
					-3.12298000E-05	 4.52175000E-02	 7.02878000E-03
					-3.00667000E-04	 3.77163000E-02	 7.33990000E-03
					-4.62279000E-05	 4.52668000E-02	 3.36779000E-03
					 1.16136000E-06	 4.53966000E-02	-2.20159000E-04
					 2.09626000E-04	 4.52845000E-02	-7.42034000E-03
					-6.04946000E-07	 4.53084000E-02	-2.18374000E-04
					 1.47319000E-04	 4.51949000E-02	-7.39703000E-03
					 3.65663000E-06	 3.79993000E-02	-1.76855000E-04
					 1.04568000E-04	 4.53570000E-02	-3.82727000E-03
					 3.56430000E-04	 3.79257000E-02	-7.66694000E-03
					-2.07717000E-04	 4.53958000E-02	 6.98237000E-03
					-1.49040000E-04	 4.53051000E-02	 6.96267000E-03
					-3.49079000E-04	 3.80442000E-02	 7.31418000E-03
					-1.02387000E-04	 4.54129000E-02	 3.38743000E-03
					-3.37024000E-06	 5.91902000E-02	-3.02453000E-04
					-4.32784000E-04	 5.90730000E-02	-6.50202000E-03
					-1.50691000E-06	 5.88502000E-02	-2.89422000E-04
					-2.62398000E-04	 5.87265000E-02	-6.49002000E-03
					-5.73000000E-06	 5.25150000E-02	-2.62223000E-04
					-2.16288000E-04	 5.91538000E-02	-3.38350000E-03
					-2.68687000E-04	 5.24017000E-02	-6.99888000E-03
					-2.83222000E-06	 5.89995000E-02	-2.96328000E-04
					-3.47800000E-04	 5.88772000E-02	-6.51358000E-03
					-3.48378000E-06	 5.23344000E-02	-2.57411000E-04
					-1.31761000E-04	 5.88103000E-02	-3.38800000E-03
					-1.11446000E-04	 5.22132000E-02	-6.99847000E-03
					 4.23187000E-04	 5.91519000E-02	 5.89873000E-03
					 2.56528000E-04	 5.88107000E-02	 5.91313000E-03
					 2.55560000E-04	 5.24965000E-02	 6.47563000E-03
					 2.08687000E-04	 5.91927000E-02	 2.77872000E-03
					 3.39490000E-04	 5.89591000E-02	 5.92294000E-03
					 1.02838000E-04	 5.23109000E-02	 6.48591000E-03
					 1.28070000E-04	 5.88525000E-02	 2.80954000E-03
					 2.63168000E-06	 5.86716000E-02	-2.78195000E-04
					-9.21199000E-05	 5.85463000E-02	-6.47774000E-03
					 2.41478000E-07	 5.87396000E-02	-2.82961000E-04
					-1.77857000E-04	 5.86152000E-02	-6.46701000E-03
					 1.28087000E-07	 5.23007000E-02	-2.54447000E-04
					-4.47735000E-05	 5.86301000E-02	-3.39259000E-03
					 4.02472000E-05	 5.21773000E-02	-6.99015000E-03
					 9.51298000E-05	 5.86358000E-02	 5.92374000E-03
					 1.75756000E-04	 5.87016000E-02	 5.90322000E-03
					-4.11948000E-05	 5.22777000E-02	 6.48432000E-03
					 4.97900000E-05	 5.86757000E-02	 2.83664000E-03
					 3.59299000E-05	 7.06142000E-02	-3.67643000E-04
					-5.79380000E-04	 7.05220000E-02	-5.53023000E-03
					 3.82369000E-05	 7.00648000E-02	-3.31663000E-04
					-4.50647000E-04	 6.99712000E-02	-5.48455000E-03
					 9.10077000E-06	 6.52024000E-02	-3.39389000E-04
					-2.71187000E-04	 7.05837000E-02	-2.95393000E-03
					-5.23461000E-04	 6.50975000E-02	-5.98957000E-03
					 3.68891000E-05	 7.03225000E-02	-3.48677000E-04
					-5.15391000E-04	 7.02295000E-02	-5.52063000E-03
					 1.09203000E-05	 6.47528000E-02	-3.13886000E-04
					-2.06128000E-04	 7.00347000E-02	-2.92860000E-03
					-3.63323000E-04	 6.46429000E-02	-5.96123000E-03
					 6.50023000E-04	 7.05803000E-02	 4.79600000E-03
					 5.26633000E-04	 7.00319000E-02	 4.82187000E-03
					 5.38259000E-04	 6.51627000E-02	 5.31418000E-03
					 3.43695000E-04	 7.06139000E-02	 2.22004000E-03
					 5.87912000E-04	 7.02902000E-02	 4.82309000E-03
					 3.83085000E-04	 6.47140000E-02	 5.33517000E-03
					 2.82557000E-04	 7.00655000E-02	 2.26551000E-03
					 4.30749000E-05	 6.96382000E-02	-2.97845000E-04
					-3.17079000E-04	 6.95478000E-02	-5.46106000E-03
					 4.02388000E-05	 6.98361000E-02	-3.15237000E-04
					-3.84032000E-04	 6.97424000E-02	-5.44741000E-03
					 1.56266000E-05	 6.44567000E-02	-2.90482000E-04
					-1.39008000E-04	 6.96101000E-02	-2.92396000E-03
					-2.00252000E-04	 6.43477000E-02	-5.94295000E-03
					 4.00876000E-04	 6.96116000E-02	 4.86559000E-03
					 4.63300000E-04	 6.98040000E-02	 4.81786000E-03
					 2.28873000E-04	 6.44243000E-02	 5.36222000E-03
					 2.23756000E-04	 6.96417000E-02	 2.32853000E-03
					 1.08167000E-04	 8.04160000E-02	-4.12229000E-04
					-8.17750000E-04	 8.03901000E-02	-5.11505000E-03
					 1.10913000E-04	 7.94911000E-02	-3.60634000E-04
					-8.09226000E-04	 7.94629000E-02	-5.06717000E-03
					 7.15509000E-05	 7.55917000E-02	-3.86154000E-04
					-3.56823000E-04	 8.04063000E-02	-2.75149000E-03
					-6.62030000E-04	 7.55296000E-02	-5.23757000E-03
					 1.09296000E-04	 7.99545000E-02	-3.87114000E-04
					-8.12861000E-04	 7.99293000E-02	-5.12195000E-03
					 7.36018000E-05	 7.48883000E-02	-3.45948000E-04
					-3.47197000E-04	 7.94765000E-02	-2.73351000E-03
					-5.98660000E-04	 7.48287000E-02	-5.17993000E-03
					 1.03339000E-03	 8.04306000E-02	 4.30539000E-03
					 1.02597000E-03	 7.95121000E-02	 4.34683000E-03
					 8.01954000E-04	 7.55768000E-02	 4.45944000E-03
					 5.70815000E-04	 8.04231000E-02	 1.93040000E-03
					 1.02946000E-03	 7.99715000E-02	 4.35963000E-03
					 7.41696000E-04	 7.48809000E-02	 4.48801000E-03
					 5.68130000E-04	 7.95020000E-02	 2.01246000E-03
					 1.12172000E-04	 7.85767000E-02	-3.12109000E-04
					-8.06895000E-04	 7.85400000E-02	-5.03756000E-03
					 1.12109000E-04	 7.90319000E-02	-3.35563000E-04
					-8.07597000E-04	 7.90009000E-02	-5.00871000E-03
					 7.58279000E-05	 7.42517000E-02	-3.06152000E-04
					-3.43711000E-04	 7.85549000E-02	-2.73963000E-03
					-5.23277000E-04	 7.41947000E-02	-5.15191000E-03
					 1.02595000E-03	 7.85987000E-02	 4.40726000E-03
					 1.02545000E-03	 7.90554000E-02	 4.33293000E-03
					 6.74697000E-04	 7.42508000E-02	 4.54331000E-03
					 5.68181000E-04	 7.85907000E-02	 2.11156000E-03
					 1.67329000E-04	 9.00442000E-02	-4.31027000E-04
					-1.01128000E-03	 9.00748000E-02	-5.20457000E-03
					 1.67088000E-04	 8.89120000E-02	-3.99732000E-04
					-9.73542000E-04	 8.89141000E-02	-5.19724000E-03
					 1.43671000E-04	 8.52485000E-02	-4.26703000E-04
					-4.25056000E-04	 9.00460000E-02	-2.79355000E-03
					-9.49006000E-04	 8.52058000E-02	-5.13435000E-03
					 1.66187000E-04	 8.94695000E-02	-4.17669000E-04
					-9.89411000E-04	 8.94828000E-02	-5.19769000E-03
					 1.42934000E-04	 8.41517000E-02	-3.76059000E-04
					-4.21219000E-04	 8.89119000E-02	-2.78619000E-03
					-9.41917000E-04	 8.41260000E-02	-5.12075000E-03
					 1.39018000E-03	 9.01036000E-02	 4.30815000E-03
					 1.38409000E-03	 8.89278000E-02	 4.37419000E-03
					 1.26850000E-03	 8.52901000E-02	 4.29578000E-03
					 7.79771000E-04	 9.00773000E-02	 1.92366000E-03
					 1.38498000E-03	 8.95089000E-02	 4.34487000E-03
					 1.27077000E-03	 8.41726000E-02	 4.35446000E-03
					 7.81465000E-04	 8.89160000E-02	 1.98149000E-03
					 1.92676000E-04	 8.77772000E-02	-3.54440000E-04
					-9.78050000E-04	 8.78673000E-02	-5.22773000E-03
					 1.75205000E-04	 8.83568000E-02	-3.76991000E-04
					-9.77464000E-04	 8.84084000E-02	-5.22922000E-03
					 1.54179000E-04	 8.30397000E-02	-3.18619000E-04
					-4.03136000E-04	 8.78278000E-02	-2.76165000E-03
					-9.78542000E-04	 8.30204000E-02	-5.11344000E-03
					 1.42134000E-03	 8.77369000E-02	 4.44069000E-03
					 1.40556000E-03	 8.83429000E-02	 4.40759000E-03
					 1.30036000E-03	 8.30429000E-02	 4.42025000E-03
					 8.05011000E-04	 8.77425000E-02	 2.04094000E-03
					 0.00000000E+00	 0.00000000E+00	 0.00000000E+00
					 0.00000000E+00	 0.00000000E+00	 0.00000000E+00
					-2.23053000E-05	-1.30419000E-02	-2.23801000E-04
					-3.13211000E-03	-1.40176000E-02	 1.32760000E-02
					 0.00000000E+00	 0.00000000E+00	 0.00000000E+00
					 0.00000000E+00	 0.00000000E+00	 0.00000000E+00
					-4.39755000E-05	-1.52455000E-02	-3.42432000E-04
					-1.38559000E-03	-1.62743000E-02	 1.33148000E-02
					 0.00000000E+00	 0.00000000E+00	 0.00000000E+00
					 2.93214000E-05	-2.48444000E-03	-7.29202000E-05
					-1.58095000E-03	-1.32209000E-02	 6.48494000E-03
					-2.66406000E-03	-3.70714000E-03	 6.78038000E-03
					 0.00000000E+00	 0.00000000E+00	 0.00000000E+00
					 0.00000000E+00	 0.00000000E+00	 0.00000000E+00
					-2.95856000E-05	-1.44417000E-02	-2.90101000E-04
					-2.24128000E-03	-1.54419000E-02	 1.31737000E-02
					 0.00000000E+00	 0.00000000E+00	 0.00000000E+00
					-6.93509000E-06	-4.05867000E-03	-1.21302000E-04
					-7.16845000E-04	-1.54369000E-02	 6.31960000E-03
					-6.68215000E-04	-5.25772000E-03	 6.54698000E-03
					 0.00000000E+00	 0.00000000E+00	 0.00000000E+00
					 3.06750000E-03	-1.36108000E-02	-1.37860000E-02
					 0.00000000E+00	 0.00000000E+00	 0.00000000E+00
					 1.31136000E-03	-1.58815000E-02	-1.40668000E-02
					 0.00000000E+00	 0.00000000E+00	 0.00000000E+00
					 2.71344000E-03	-3.58192000E-03	-6.95371000E-03
					 1.52720000E-03	-1.30135000E-02	-6.95274000E-03
					 0.00000000E+00	 0.00000000E+00	 0.00000000E+00
					 2.18317000E-03	-1.50389000E-02	-1.38162000E-02
					 0.00000000E+00	 0.00000000E+00	 0.00000000E+00
					 6.66980000E-04	-5.16255000E-03	-6.80878000E-03
					 6.30363000E-04	-1.52395000E-02	-7.02593000E-03
					 0.00000000E+00	 0.00000000E+00	 0.00000000E+00
					 0.00000000E+00	 0.00000000E+00	 0.00000000E+00
					-8.02039000E-05	-1.57337000E-02	-4.02944000E-04
					 3.57203000E-04	-1.66736000E-02	 1.31036000E-02
					 0.00000000E+00	 0.00000000E+00	 0.00000000E+00
					 0.00000000E+00	 0.00000000E+00	 0.00000000E+00
					-6.03983000E-05	-1.57854000E-02	-3.81334000E-04
					-5.25704000E-04	-1.67725000E-02	 1.33263000E-02
					 0.00000000E+00	 0.00000000E+00	 0.00000000E+00
					-5.79729000E-05	-3.81743000E-03	-1.46509000E-04
					 1.35489000E-04	-1.58885000E-02	 6.06642000E-03
					 1.36109000E-03	-4.96543000E-03	 6.70839000E-03
					 0.00000000E+00	 0.00000000E+00	 0.00000000E+00
					-4.74343000E-04	-1.63169000E-02	-1.39630000E-02
					 0.00000000E+00	 0.00000000E+00	 0.00000000E+00
					 4.28025000E-04	-1.63913000E-02	-1.41530000E-02
					 0.00000000E+00	 0.00000000E+00	 0.00000000E+00
					-1.44662000E-03	-4.89001000E-03	-7.02713000E-03
					-2.80973000E-04	-1.57176000E-02	-6.88530000E-03
					-1.73857000E-04	-5.20002000E-02	-1.06211000E-03
					-3.98135000E-03	-5.31509000E-02	 2.26571000E-02
					-1.76505000E-04	-5.51894000E-02	-1.29434000E-03
					-2.77971000E-03	-5.63438000E-02	 2.24946000E-02
					-8.53960000E-05	-2.98514000E-02	-5.41904000E-04
					-2.07724000E-03	-5.24417000E-02	 1.07008000E-02
					-3.62876000E-03	-3.10108000E-02	 1.85905000E-02
					-1.73837000E-04	-5.37250000E-02	-1.18891000E-03
					-3.37988000E-03	-5.48775000E-02	 2.25330000E-02
					-1.04401000E-04	-3.26164000E-02	-7.21063000E-04
					-1.47487000E-03	-5.56333000E-02	 1.04677000E-02
					-2.10661000E-03	-3.37733000E-02	 1.84887000E-02
					 3.63841000E-03	-5.19802000E-02	-2.48509000E-02
					 2.43364000E-03	-5.51988000E-02	-2.51533000E-02
					 3.44480000E-03	-3.02454000E-02	-1.97565000E-02
					 1.72868000E-03	-5.18655000E-02	-1.28411000E-02
					 3.04067000E-03	-5.37269000E-02	-2.49776000E-02
					 1.91034000E-03	-3.30246000E-02	-2.00133000E-02
					 1.12800000E-03	-5.50737000E-02	-1.30697000E-02
					-1.96842000E-04	-5.72005000E-02	-1.46098000E-03
					-1.58082000E-03	-5.83152000E-02	 2.22593000E-02
					-1.85439000E-04	-5.63242000E-02	-1.38404000E-03
					-2.17761000E-03	-5.74960000E-02	 2.24869000E-02
					-1.38244000E-04	-3.38621000E-02	-8.33556000E-04
					-8.96826000E-04	-5.76144000E-02	 1.01547000E-02
					-6.08721000E-04	-3.50003000E-02	 1.83021000E-02
					 1.23195000E-03	-5.72193000E-02	-2.52495000E-02
					 1.83286000E-03	-5.63350000E-02	-2.53268000E-02
					 3.80425000E-04	-3.43001000E-02	-2.00472000E-02
					 5.16436000E-04	-5.70905000E-02	-1.30882000E-02
					-3.20508000E-04	-1.07269000E-01	-2.64769000E-03
					-4.47747000E-03	-1.08367000E-01	 2.67819000E-02
					-3.10784000E-04	-1.11116000E-01	-2.92755000E-03
					-3.91225000E-03	-1.12322000E-01	 2.65669000E-02
					-2.51664000E-04	-7.81863000E-02	-1.77265000E-03
					-2.39534000E-03	-1.07741000E-01	 1.19651000E-02
					-4.25539000E-03	-7.93575000E-02	 2.53190000E-02
					-3.13825000E-04	-1.09266000E-01	-2.78908000E-03
					-4.19686000E-03	-1.10429000E-01	 2.66353000E-02
					-2.49694000E-04	-8.17421000E-02	-2.03933000E-03
					-2.13635000E-03	-1.11645000E-01	 1.16687000E-02
					-3.38209000E-03	-8.29202000E-02	 2.51311000E-02
					 3.80097000E-03	-1.06655000E-01	-3.20959000E-02
					 3.29393000E-03	-1.10516000E-01	-3.24759000E-02
					 3.74765000E-03	-7.78660000E-02	-2.89214000E-02
					 1.74242000E-03	-1.06900000E-01	-1.72585000E-02
					 3.54662000E-03	-1.08651000E-01	-3.22610000E-02
					 2.89277000E-03	-8.14224000E-02	-2.92656000E-02
					 1.49283000E-03	-1.10761000E-01	-1.75524000E-02
					-3.12409000E-04	-1.14442000E-01	-3.17545000E-03
					-3.45892000E-03	-1.15761000E-01	 2.62477000E-02
					-3.10442000E-04	-1.12862000E-01	-3.05732000E-03
					-3.68786000E-03	-1.13999000E-01	 2.65173000E-02
					-2.50921000E-04	-8.44386000E-02	-2.25391000E-03
					-1.85408000E-03	-1.15027000E-01	 1.12739000E-02
					-2.55585000E-03	-8.56364000E-02	 2.48426000E-02
					 2.79677000E-03	-1.13882000E-01	-3.26805000E-02
					 3.04631000E-03	-1.12255000E-01	-3.26889000E-02
					 2.02812000E-03	-8.41348000E-02	-2.94077000E-02
					 1.23175000E-03	-1.14120000E-01	-1.76767000E-02
					-3.50327000E-04	-1.69368000E-01	-4.63925000E-03
					-4.70278000E-03	-1.70210000E-01	 2.62131000E-02