# vtk DataFile Version 3.0

ASCII
DATASET UNSTRUCTURED_GRID

POINTS 522 double
	 1.00000000E+00	 1.00000000E+00	-5.96046000E-08
	 1.00000000E+00	 5.00000000E-01	-5.96046000E-08
	 1.00000000E+00	 5.00000000E-01	 1.00000000E+00
	 1.00000000E+00	 1.00000000E+00	 1.00000000E+00
	 5.00000000E-01	 1.00000000E+00	-5.96046000E-08
	 5.00000000E-01	 5.00000000E-01	-5.96046000E-08
	 5.00000000E-01	 5.00000000E-01	 1.00000000E+00
	 5.00000000E-01	 1.00000000E+00	 1.00000000E+00
	 1.00000000E+00	 7.50000000E-01	-5.96046000E-08
	 1.00000000E+00	 5.00000000E-01	 5.00000000E-01
	 1.00000000E+00	 7.50000000E-01	 1.00000000E+00
	 1.00000000E+00	 1.00000000E+00	 5.00000000E-01
	 7.50000000E-01	 1.00000000E+00	-5.96046000E-08
	 7.50000000E-01	 5.00000000E-01	-5.96046000E-08
	 7.50000000E-01	 5.00000000E-01	 1.00000000E+00
	 7.50000000E-01	 1.00000000E+00	 1.00000000E+00
	 5.00000000E-01	 7.50000000E-01	-5.96046000E-08
	 5.00000000E-01	 5.00000000E-01	 5.00000000E-01
	 5.00000000E-01	 7.50000000E-01	 1.00000000E+00
	 5.00000000E-01	 1.00000000E+00	 5.00000000E-01
	 1.00000000E+00	-1.49012000E-08	-5.96046000E-08
	 1.00000000E+00	-1.49012000E-08	 1.00000000E+00
	 5.00000000E-01	-1.49012000E-08	-5.96046000E-08
	 5.00000000E-01	-1.49012000E-08	 1.00000000E+00
	 1.00000000E+00	 2.50000000E-01	-5.96046000E-08
	 1.00000000E+00	-1.49012000E-08	 5.00000000E-01
	 1.00000000E+00	 2.50000000E-01	 1.00000000E+00
	 7.50000000E-01	-1.49012000E-08	-5.96046000E-08
	 7.50000000E-01	-1.49012000E-08	 1.00000000E+00
	 5.00000000E-01	 2.50000000E-01	-5.96046000E-08
	 5.00000000E-01	-1.49012000E-08	 5.00000000E-01
	 5.00000000E-01	 2.50000000E-01	 1.00000000E+00
	-7.45058000E-09	 1.00000000E+00	-5.96046000E-08
	-7.45058000E-09	 5.00000000E-01	-5.96046000E-08
	-7.45058000E-09	 5.00000000E-01	 1.00000000E+00
	-7.45058000E-09	 1.00000000E+00	 1.00000000E+00
	 2.50000000E-01	 1.00000000E+00	-5.96046000E-08
	 2.50000000E-01	 5.00000000E-01	-5.96046000E-08
	 2.50000000E-01	 5.00000000E-01	 1.00000000E+00
	 2.50000000E-01	 1.00000000E+00	 1.00000000E+00
	-7.45058000E-09	 7.50000000E-01	-5.96046000E-08
	-7.45058000E-09	 5.00000000E-01	 5.00000000E-01
	-7.45058000E-09	 7.50000000E-01	 1.00000000E+00
	-7.45058000E-09	 1.00000000E+00	 5.00000000E-01
	-7.45058000E-09	-1.49012000E-08	-5.96046000E-08
	-7.45058000E-09	-1.49012000E-08	 1.00000000E+00
	 2.50000000E-01	-1.49012000E-08	-5.96046000E-08
	 2.50000000E-01	-1.49012000E-08	 1.00000000E+00
	-7.45058000E-09	 2.50000000E-01	-5.96046000E-08
	-7.45058000E-09	-1.49012000E-08	 5.00000000E-01
	-7.45058000E-09	 2.50000000E-01	 1.00000000E+00
	 1.00000000E+00	 5.00000000E-01	 2.00000000E+00
	 1.00000000E+00	 1.00000000E+00	 2.00000000E+00
	 5.00000000E-01	 5.00000000E-01	 2.00000000E+00
	 5.00000000E-01	 1.00000000E+00	 2.00000000E+00
	 1.00000000E+00	 5.00000000E-01	 1.50000000E+00
	 1.00000000E+00	 7.50000000E-01	 2.00000000E+00
	 1.00000000E+00	 1.00000000E+00	 1.50000000E+00
	 7.50000000E-01	 5.00000000E-01	 2.00000000E+00
	 7.50000000E-01	 1.00000000E+00	 2.00000000E+00
	 5.00000000E-01	 5.00000000E-01	 1.50000000E+00
	 5.00000000E-01	 7.50000000E-01	 2.00000000E+00
	 5.00000000E-01	 1.00000000E+00	 1.50000000E+00
	 1.00000000E+00	-1.49012000E-08	 2.00000000E+00
	 5.00000000E-01	-1.49012000E-08	 2.00000000E+00
	 1.00000000E+00	-1.49012000E-08	 1.50000000E+00
	 1.00000000E+00	 2.50000000E-01	 2.00000000E+00
	 7.50000000E-01	-1.49012000E-08	 2.00000000E+00
	 5.00000000E-01	-1.49012000E-08	 1.50000000E+00
	 5.00000000E-01	 2.50000000E-01	 2.00000000E+00
	-7.45058000E-09	 5.00000000E-01	 2.00000000E+00
	-7.45058000E-09	 1.00000000E+00	 2.00000000E+00
	 2.50000000E-01	 5.00000000E-01	 2.00000000E+00
	 2.50000000E-01	 1.00000000E+00	 2.00000000E+00
	-7.45058000E-09	 5.00000000E-01	 1.50000000E+00
	-7.45058000E-09	 7.50000000E-01	 2.00000000E+00
	-7.45058000E-09	 1.00000000E+00	 1.50000000E+00
	-7.45058000E-09	-1.49012000E-08	 2.00000000E+00
	 2.50000000E-01	-1.49012000E-08	 2.00000000E+00
	-7.45058000E-09	-1.49012000E-08	 1.50000000E+00
	-7.45058000E-09	 2.50000000E-01	 2.00000000E+00
	 1.00000000E+00	 5.00000000E-01	 3.00000000E+00
	 1.00000000E+00	 1.00000000E+00	 3.00000000E+00
	 5.00000000E-01	 5.00000000E-01	 3.00000000E+00
	 5.00000000E-01	 1.00000000E+00	 3.00000000E+00
	 1.00000000E+00	 5.00000000E-01	 2.50000000E+00
	 1.00000000E+00	 7.50000000E-01	 3.00000000E+00
	 1.00000000E+00	 1.00000000E+00	 2.50000000E+00
	 7.50000000E-01	 5.00000000E-01	 3.00000000E+00
	 7.50000000E-01	 1.00000000E+00	 3.00000000E+00
	 5.00000000E-01	 5.00000000E-01	 2.50000000E+00
	 5.00000000E-01	 7.50000000E-01	 3.00000000E+00
	 5.00000000E-01	 1.00000000E+00	 2.50000000E+00
	 1.00000000E+00	-1.49012000E-08	 3.00000000E+00
	 5.00000000E-01	-1.49012000E-08	 3.00000000E+00
	 1.00000000E+00	-1.49012000E-08	 2.50000000E+00
	 1.00000000E+00	 2.50000000E-01	 3.00000000E+00
	 7.50000000E-01	-1.49012000E-08	 3.00000000E+00
	 5.00000000E-01	-1.49012000E-08	 2.50000000E+00
	 5.00000000E-01	 2.50000000E-01	 3.00000000E+00
	-7.45058000E-09	 5.00000000E-01	 3.00000000E+00
	-7.45058000E-09	 1.00000000E+00	 3.00000000E+00
	 2.50000000E-01	 5.00000000E-01	 3.00000000E+00
	 2.50000000E-01	 1.00000000E+00	 3.00000000E+00
	-7.45058000E-09	 5.00000000E-01	 2.50000000E+00
	-7.45058000E-09	 7.50000000E-01	 3.00000000E+00
	-7.45058000E-09	 1.00000000E+00	 2.50000000E+00
	-7.45058000E-09	-1.49012000E-08	 3.00000000E+00
	 2.50000000E-01	-1.49012000E-08	 3.00000000E+00
	-7.45058000E-09	-1.49012000E-08	 2.50000000E+00
	-7.45058000E-09	 2.50000000E-01	 3.00000000E+00
	 1.00000000E+00	 5.00000000E-01	 4.00000000E+00
	 1.00000000E+00	 1.00000000E+00	 4.00000000E+00
	 5.00000000E-01	 5.00000000E-01	 4.00000000E+00
	 5.00000000E-01	 1.00000000E+00	 4.00000000E+00
	 1.00000000E+00	 5.00000000E-01	 3.50000000E+00
	 1.00000000E+00	 7.50000000E-01	 4.00000000E+00
	 1.00000000E+00	 1.00000000E+00	 3.50000000E+00
	 7.50000000E-01	 5.00000000E-01	 4.00000000E+00
	 7.50000000E-01	 1.00000000E+00	 4.00000000E+00
	 5.00000000E-01	 5.00000000E-01	 3.50000000E+00
	 5.00000000E-01	 7.50000000E-01	 4.00000000E+00
	 5.00000000E-01	 1.00000000E+00	 3.50000000E+00
	 1.00000000E+00	-1.49012000E-08	 4.00000000E+00
	 5.00000000E-01	-1.49012000E-08	 4.00000000E+00
	 1.00000000E+00	-1.49012000E-08	 3.50000000E+00
	 1.00000000E+00	 2.50000000E-01	 4.00000000E+00
	 7.50000000E-01	-1.49012000E-08	 4.00000000E+00
	 5.00000000E-01	-1.49012000E-08	 3.50000000E+00
	 5.00000000E-01	 2.50000000E-01	 4.00000000E+00
	-7.45058000E-09	 5.00000000E-01	 4.00000000E+00
	-7.45058000E-09	 1.00000000E+00	 4.00000000E+00
	 2.50000000E-01	 5.00000000E-01	 4.00000000E+00
	 2.50000000E-01	 1.00000000E+00	 4.00000000E+00
	-7.45058000E-09	 5.00000000E-01	 3.50000000E+00
	-7.45058000E-09	 7.50000000E-01	 4.00000000E+00
	-7.45058000E-09	 1.00000000E+00	 3.50000000E+00
	-7.45058000E-09	-1.49012000E-08	 4.00000000E+00
	 2.50000000E-01	-1.49012000E-08	 4.00000000E+00
	-7.45058000E-09	-1.49012000E-08	 3.50000000E+00
	-7.45058000E-09	 2.50000000E-01	 4.00000000E+00
	 1.00000000E+00	 5.00000000E-01	 5.00000000E+00
	 1.00000000E+00	 1.00000000E+00	 5.00000000E+00
	 5.00000000E-01	 5.00000000E-01	 5.00000000E+00
	 5.00000000E-01	 1.00000000E+00	 5.00000000E+00
	 1.00000000E+00	 5.00000000E-01	 4.50000000E+00
	 1.00000000E+00	 7.50000000E-01	 5.00000000E+00
	 1.00000000E+00	 1.00000000E+00	 4.50000000E+00
	 7.50000000E-01	 5.00000000E-01	 5.00000000E+00
	 7.50000000E-01	 1.00000000E+00	 5.00000000E+00
	 5.00000000E-01	 5.00000000E-01	 4.50000000E+00
	 5.00000000E-01	 7.50000000E-01	 5.00000000E+00
	 5.00000000E-01	 1.00000000E+00	 4.50000000E+00
	 1.00000000E+00	-1.49012000E-08	 5.00000000E+00
	 5.00000000E-01	-1.49012000E-08	 5.00000000E+00
	 1.00000000E+00	-1.49012000E-08	 4.50000000E+00
	 1.00000000E+00	 2.50000000E-01	 5.00000000E+00
	 7.50000000E-01	-1.49012000E-08	 5.00000000E+00
	 5.00000000E-01	-1.49012000E-08	 4.50000000E+00
	 5.00000000E-01	 2.50000000E-01	 5.00000000E+00
	-7.45058000E-09	 5.00000000E-01	 5.00000000E+00
	-7.45058000E-09	 1.00000000E+00	 5.00000000E+00
	 2.50000000E-01	 5.00000000E-01	 5.00000000E+00
	 2.50000000E-01	 1.00000000E+00	 5.00000000E+00
	-7.45058000E-09	 5.00000000E-01	 4.50000000E+00
	-7.45058000E-09	 7.50000000E-01	 5.00000000E+00
	-7.45058000E-09	 1.00000000E+00	 4.50000000E+00
	-7.45058000E-09	-1.49012000E-08	 5.00000000E+00
	 2.50000000E-01	-1.49012000E-08	 5.00000000E+00
	-7.45058000E-09	-1.49012000E-08	 4.50000000E+00
	-7.45058000E-09	 2.50000000E-01	 5.00000000E+00
	 1.00000000E+00	 5.00000000E-01	 6.00000000E+00
	 1.00000000E+00	 1.00000000E+00	 6.00000000E+00
	 5.00000000E-01	 5.00000000E-01	 6.00000000E+00
	 5.00000000E-01	 1.00000000E+00	 6.00000000E+00
	 1.00000000E+00	 5.00000000E-01	 5.50000000E+00
	 1.00000000E+00	 7.50000000E-01	 6.00000000E+00
	 1.00000000E+00	 1.00000000E+00	 5.50000000E+00
	 7.50000000E-01	 5.00000000E-01	 6.00000000E+00
	 7.50000000E-01	 1.00000000E+00	 6.00000000E+00
	 5.00000000E-01	 5.00000000E-01	 5.50000000E+00
	 5.00000000E-01	 7.50000000E-01	 6.00000000E+00
	 5.00000000E-01	 1.00000000E+00	 5.50000000E+00
	 1.00000000E+00	-1.49012000E-08	 6.00000000E+00
	 5.00000000E-01	-1.49012000E-08	 6.00000000E+00
	 1.00000000E+00	-1.49012000E-08	 5.50000000E+00
	 1.00000000E+00	 2.50000000E-01	 6.00000000E+00
	 7.50000000E-01	-1.49012000E-08	 6.00000000E+00
	 5.00000000E-01	-1.49012000E-08	 5.50000000E+00
	 5.00000000E-01	 2.50000000E-01	 6.00000000E+00
	-7.45058000E-09	 5.00000000E-01	 6.00000000E+00
	-7.45058000E-09	 1.00000000E+00	 6.00000000E+00
	 2.50000000E-01	 5.00000000E-01	 6.00000000E+00
	 2.50000000E-01	 1.00000000E+00	 6.00000000E+00
	-7.45058000E-09	 5.00000000E-01	 5.50000000E+00
	-7.45058000E-09	 7.50000000E-01	 6.00000000E+00
	-7.45058000E-09	 1.00000000E+00	 5.50000000E+00
	-7.45058000E-09	-1.49012000E-08	 6.00000000E+00
	 2.50000000E-01	-1.49012000E-08	 6.00000000E+00
	-7.45058000E-09	-1.49012000E-08	 5.50000000E+00
	-7.45058000E-09	 2.50000000E-01	 6.00000000E+00
	 1.00000000E+00	 5.00000000E-01	 7.00000000E+00
[...]
POINT_DATA 522
FIELD U 1
	U 3 522 double
		 0.00000000E+00	 0.00000000E+00	 0.00000000E+00
		 0.00000000E+00	 0.00000000E+00	 0.00000000E+00
		-1.40951000E-05	-4.78277000E-03	 3.20450000E-07
		 4.15550000E-04	-5.02493000E-03	 3.66597000E-03
		 0.00000000E+00	 0.00000000E+00	 0.00000000E+00
		 0.00000000E+00	 0.00000000E+00	 0.00000000E+00
		-1.65269000E-05	-4.11478000E-03	 7.39438000E-06
		 9.08532000E-04	-4.36238000E-03	 3.71129000E-03
		 0.00000000E+00	 0.00000000E+00	 0.00000000E+00
		-1.05551000E-05	-1.32364000E-03	 2.93669000E-06
		 1.98163000E-04	-4.82164000E-03	 1.71731000E-03
		-1.26186000E-04	-1.63499000E-03	 1.85878000E-03
		 0.00000000E+00	 0.00000000E+00	 0.00000000E+00
		 0.00000000E+00	 0.00000000E+00	 0.00000000E+00
		-1.71381000E-05	-4.52953000E-03	 2.37622000E-06
		 6.63960000E-04	-4.77471000E-03	 3.76705000E-03
		 0.00000000E+00	 0.00000000E+00	 0.00000000E+00
		-1.26439000E-05	-1.12583000E-03	 7.88370000E-06
		 4.43876000E-04	-4.15113000E-03	 1.82225000E-03
		 4.45794000E-04	-1.44666000E-03	 1.80981000E-03
		 0.00000000E+00	 0.00000000E+00	 0.00000000E+00
		-4.19123000E-04	-4.96281000E-03	-3.67316000E-03
		 0.00000000E+00	 0.00000000E+00	 0.00000000E+00
		-9.21888000E-04	-4.32664000E-03	-3.70215000E-03
		 0.00000000E+00	 0.00000000E+00	 0.00000000E+00
		 1.26585000E-04	-1.59652000E-03	-1.84906000E-03
		-2.19964000E-04	-4.78558000E-03	-1.71883000E-03
		 0.00000000E+00	 0.00000000E+00	 0.00000000E+00
		-6.71062000E-04	-4.72891000E-03	-3.77105000E-03
		 0.00000000E+00	 0.00000000E+00	 0.00000000E+00
		-4.49984000E-04	-1.42869000E-03	-1.79322000E-03
		-4.69542000E-04	-4.13502000E-03	-1.80931000E-03
		 0.00000000E+00	 0.00000000E+00	 0.00000000E+00
		 0.00000000E+00	 0.00000000E+00	 0.00000000E+00
		-1.01480000E-05	-2.95269000E-03	 1.43750000E-05
		 1.39723000E-03	-3.18791000E-03	 3.68563000E-03
		 0.00000000E+00	 0.00000000E+00	 0.00000000E+00
		 0.00000000E+00	 0.00000000E+00	 0.00000000E+00
		-1.42947000E-05	-3.61671000E-03	 1.13605000E-05
		 1.14880000E-03	-3.85402000E-03	 3.61569000E-03
		 0.00000000E+00	 0.00000000E+00	 0.00000000E+00
		-6.66680000E-06	-4.26363000E-04	 1.00811000E-05
		 6.95873000E-04	-2.98522000E-03	 1.89942000E-03
		 9.89245000E-04	-7.55576000E-04	 1.86341000E-03
		 0.00000000E+00	 0.00000000E+00	 0.00000000E+00
		-1.40887000E-03	-3.16074000E-03	-3.65936000E-03
		 0.00000000E+00	 0.00000000E+00	 0.00000000E+00
		-1.16481000E-03	-3.82328000E-03	-3.59466000E-03
		 0.00000000E+00	 0.00000000E+00	 0.00000000E+00
		-9.85952000E-04	-7.52604000E-04	-1.84765000E-03
		-7.13800000E-04	-2.97452000E-03	-1.87238000E-03
		-1.50138000E-05	-1.64429000E-02	-6.18374000E-05
		 1.26358000E-03	-1.67174000E-02	 6.82180000E-03
		-9.06992000E-06	-1.49235000E-02	-3.87880000E-05
		 1.73840000E-03	-1.52070000E-02	 6.85111000E-03
		-1.60383000E-05	-9.84819000E-03	-2.04738000E-05
		 6.26021000E-04	-1.65246000E-02	 3.32396000E-03
		 8.70002000E-04	-1.01421000E-02	 5.29606000E-03
		-1.20459000E-05	-1.57388000E-02	-5.13956000E-05
		 1.49949000E-03	-1.60182000E-02	 6.88569000E-03
		-1.45715000E-05	-8.73451000E-03	-9.08229000E-06
		 8.67061000E-04	-1.50129000E-02	 3.40257000E-03
		 1.34780000E-03	-9.01712000E-03	 5.31840000E-03
		-1.31083000E-03	-1.66268000E-02	-6.95785000E-03
		-1.76988000E-03	-1.50955000E-02	-6.93847000E-03
		-8.99048000E-04	-1.00713000E-02	-5.35206000E-03
		-6.60351000E-04	-1.64844000E-02	-3.44916000E-03
		-1.54040000E-03	-1.59133000E-02	-7.00286000E-03
		-1.37585000E-03	-8.94990000E-03	-5.34509000E-03
		-8.89220000E-04	-1.49568000E-02	-3.48340000E-03
		-2.80374000E-06	-1.29349000E-02	-6.89094000E-06
		 2.22755000E-03	-1.32148000E-02	 6.88036000E-03
		-5.84678000E-06	-1.39829000E-02	-2.40390000E-05
		 1.98478000E-03	-1.42675000E-02	 6.81526000E-03
		-9.01721000E-06	-7.12672000E-03	 9.99122000E-06
		 1.11089000E-03	-1.30226000E-02	 3.48174000E-03
		 1.84070000E-03	-7.40981000E-03	 5.33541000E-03
		-2.23974000E-03	-1.30893000E-02	-6.90050000E-03
		-2.00662000E-03	-1.41512000E-02	-6.86938000E-03
		-1.86219000E-03	-7.33584000E-03	-5.31635000E-03
		-1.11680000E-03	-1.29560000E-02	-3.49869000E-03
		-4.22461000E-06	-3.42449000E-02	-2.23853000E-04
		 1.96238000E-03	-3.45187000E-02	 9.55265000E-03
		 2.85910000E-06	-3.20912000E-02	-1.62654000E-04
		 2.31820000E-03	-3.23778000E-02	 9.64061000E-03
		-1.45126000E-05	-2.45732000E-02	-1.28759000E-04
		 9.81279000E-04	-3.43307000E-02	 4.56922000E-03
		 1.62710000E-03	-2.48473000E-02	 8.28812000E-03
		-5.67390000E-07	-3.32150000E-02	-1.93767000E-04
		 2.14124000E-03	-3.34965000E-02	 9.63748000E-03
		-6.31154000E-06	-2.27017000E-02	-8.74782000E-05
		 1.16186000E-03	-3.21834000E-02	 4.68292000E-03
		 2.07072000E-03	-2.29895000E-02	 8.34286000E-03
		-1.98480000E-03	-3.43244000E-02	-1.00049000E-02
		-2.32672000E-03	-3.21617000E-02	-9.97395000E-03
		-1.67924000E-03	-2.47175000E-02	-8.55343000E-03
		-9.93852000E-04	-3.42385000E-02	-5.01991000E-03
		-2.15721000E-03	-3.32891000E-02	-1.00286000E-02
		-2.10362000E-03	-2.28293000E-02	-8.52621000E-03
		-1.16090000E-03	-3.20769000E-02	-5.01039000E-03
		 1.18251000E-05	-2.96007000E-02	-9.79555000E-05
		 2.68728000E-03	-2.98829000E-02	 9.67678000E-03
		 6.74263000E-06	-3.08915000E-02	-1.30703000E-04
		 2.50099000E-03	-3.11789000E-02	 9.64913000E-03
		 2.92501000E-06	-2.03981000E-02	-4.04457000E-05
		 1.34754000E-03	-2.96930000E-02	 4.74596000E-03
		 2.52965000E-03	-2.06862000E-02	 8.37708000E-03
		-2.67392000E-03	-2.96505000E-02	-9.88386000E-03
		-2.50048000E-03	-3.09548000E-02	-9.92232000E-03
		-2.53904000E-03	-2.05023000E-02	-8.46751000E-03
		-1.32703000E-03	-2.95766000E-02	-4.94393000E-03
		 2.50572000E-05	-5.67016000E-02	-4.47886000E-04
		 2.48991000E-03	-5.68606000E-02	 1.06248000E-02
		 3.42235000E-05	-5.42335000E-02	-3.84793000E-04
		 2.51888000E-03	-5.43818000E-02	 1.07160000E-02
		 1.54656000E-05	-4.51712000E-02	-3.32762000E-04
		 1.25367000E-03	-5.67795000E-02	 5.00768000E-03
		 2.26699000E-03	-4.53999000E-02	 1.03463000E-02
		 2.96647000E-05	-5.54703000E-02	-4.17002000E-04
		 2.50551000E-03	-5.56215000E-02	 1.06898000E-02
		 2.15939000E-05	-4.28272000E-02	-2.65825000E-04
		 1.27543000E-03	-5.43063000E-02	 5.10108000E-03
		 2.45672000E-03	-4.30515000E-02	 1.04501000E-02
		-2.43336000E-03	-5.65871000E-02	-1.15283000E-02
		-2.44645000E-03	-5.41146000E-02	-1.14922000E-02
		-2.23355000E-03	-4.51464000E-02	-1.10172000E-02
		-1.20210000E-03	-5.66452000E-02	-5.90655000E-03
		-2.43981000E-03	-5.53512000E-02	-1.15307000E-02
		-2.41365000E-03	-4.27981000E-02	-1.09893000E-02
		-1.20583000E-03	-5.41760000E-02	-5.87306000E-03
		 4.37552000E-05	-5.17347000E-02	-3.13965000E-04
		 2.54876000E-03	-5.18848000E-02	 1.07592000E-02
		 3.89068000E-05	-5.29848000E-02	-3.50083000E-04
		 2.53315000E-03	-5.31327000E-02	 1.07507000E-02
		 2.83163000E-05	-4.03012000E-02	-1.93846000E-04
		 1.29767000E-03	-5.18071000E-02	 5.14832000E-03
		 2.65644000E-03	-4.05191000E-02	 1.04835000E-02
		-2.46132000E-03	-5.16205000E-02	-1.13933000E-02
		-2.45379000E-03	-5.28667000E-02	-1.14572000E-02
		-2.59902000E-03	-4.02666000E-02	-1.08811000E-02
		-1.21061000E-03	-5.16788000E-02	-5.77839000E-03
		 3.43055000E-05	-7.91037000E-02	-6.65828000E-04
		 2.73205000E-03	-7.91865000E-02	 9.95455000E-03
		 5.13215000E-05	-7.64716000E-02	-6.05040000E-04
		 2.64656000E-03	-7.65380000E-02	 1.00178000E-02
		 2.89624000E-05	-6.81311000E-02	-5.63529000E-04
		 1.37918000E-03	-7.91607000E-02	 4.64058000E-03
		 2.62778000E-03	-6.82459000E-02	 1.03859000E-02
		 4.15909000E-05	-7.77747000E-02	-6.35716000E-04
		 2.68693000E-03	-7.78468000E-02	 9.99407000E-03
		 4.33048000E-05	-6.55769000E-02	-5.00575000E-04
		 1.34763000E-03	-7.65206000E-02	 4.71125000E-03
		 2.57308000E-03	-6.56796000E-02	 1.04610000E-02
		-2.64906000E-03	-7.89302000E-02	-1.12876000E-02
		-2.53588000E-03	-7.63009000E-02	-1.12274000E-02
		-2.56118000E-03	-6.79823000E-02	-1.15167000E-02
		-1.30679000E-03	-7.90326000E-02	-5.97264000E-03
		-2.59110000E-03	-7.76018000E-02	-1.12664000E-02
		-2.48095000E-03	-6.54263000E-02	-1.14663000E-02
		-1.24238000E-03	-7.64043000E-02	-5.92083000E-03
		 6.74783000E-05	-7.39212000E-02	-5.43621000E-04
		 2.55742000E-03	-7.39930000E-02	 1.00797000E-02
		 6.07497000E-05	-7.51832000E-02	-5.74319000E-04
		 2.60451000E-03	-7.52492000E-02	 1.00379000E-02
		 5.80592000E-05	-6.30743000E-02	-4.32637000E-04
		 1.31466000E-03	-7.39721000E-02	 4.78269000E-03
		 2.51357000E-03	-6.31846000E-02	 1.05169000E-02
		-2.42209000E-03	-7.37600000E-02	-1.11655000E-02
		-2.47963000E-03	-7.50163000E-02	-1.11842000E-02
		-2.39798000E-03	-6.29336000E-02	-1.13866000E-02
		-1.17915000E-03	-7.38574000E-02	-5.86963000E-03
		 4.71777000E-05	-9.97446000E-02	-8.56609000E-04
		 2.82337000E-03	-9.98277000E-02	 9.27054000E-03
		 6.15065000E-05	-9.69832000E-02	-7.88373000E-04
		 2.79827000E-03	-9.70749000E-02	 9.33236000E-03
		 3.66849000E-05	-8.95683000E-02	-7.57478000E-04
		 1.43776000E-03	-9.97879000E-02	 4.21153000E-03
		 2.77345000E-03	-8.96472000E-02	 9.56446000E-03
		 5.40334000E-05	-9.83589000E-02	-8.20050000E-04
		 2.81010000E-03	-9.84483000E-02	 9.31344000E-03
		 5.55035000E-05	-8.68740000E-02	-6.98629000E-04
		 1.43080000E-03	-9.70323000E-02	 4.28677000E-03
		 2.71581000E-03	-8.69477000E-02	 9.62041000E-03
		-2.74032000E-03	-9.96198000E-02	-1.09615000E-02
		-2.68350000E-03	-9.68532000E-02	-1.08884000E-02
		-2.69486000E-03	-8.94187000E-02	-1.10798000E-02
		-1.34570000E-03	-9.96892000E-02	-5.91511000E-03
		-2.71293000E-03	-9.82309000E-02	-1.09341000E-02
		-2.60485000E-03	-8.67260000E-02	-1.10122000E-02
		-1.31064000E-03	-9.69230000E-02	-5.85684000E-03
		 7.39963000E-05	-9.42632000E-02	-7.36577000E-04
		 2.77175000E-03	-9.43580000E-02	 9.38807000E-03
		 6.86928000E-05	-9.56187000E-02	-7.61438000E-04
		 2.78593000E-03	-9.57120000E-02	 9.34157000E-03
		 7.22728000E-05	-8.42507000E-02	-6.44094000E-04
		 1.42303000E-03	-9.43153000E-02	 4.35873000E-03
		 2.65366000E-03	-8.43299000E-02	 9.68201000E-03
		-2.62943000E-03	-9.41291000E-02	-1.08413000E-02
		-2.65528000E-03	-9.54871000E-02	-1.08460000E-02
		-2.51439000E-03	-8.41046000E-02	-1.09604000E-02
		-1.27724000E-03	-9.42000000E-02	-5.82418000E-03
		 9.14368000E-05	-1.19872000E-01	-1.02964000E-03
		 3.03108000E-03	-1.20012000E-01	 8.98096000E-03
		 7.51348000E-05	-1.16935000E-01	-9.61775000E-04
		 3.01553000E-03	-1.17072000E-01	 9.04757000E-03
		 7.21825000E-05	-1.09818000E-01	-9.53163000E-04
		 1.56125000E-03	-1.19950000E-01	 3.96791000E-03
		 2.92402000E-03	-1.09927000E-01	 9.09941000E-03
		 8.71645000E-05	-1.18403000E-01	-9.94950000E-04
		 3.02852000E-03	-1.18543000E-01	 9.02706000E-03
		 6.91302000E-05	-1.06965000E-01	-8.75976000E-04
		 1.54415000E-03	-1.17009000E-01	 4.04740000E-03
		 2.91406000E-03	-1.07084000E-01	 9.17000000E-03
		-2.84678000E-03	-1.19731000E-01	-1.10408000E-02
		-2.84244000E-03	-1.16797000E-01	-1.09753000E-02
		-2.79731000E-03	-1.09689000E-01	-1.09695000E-02
		-1.37753000E-03	-1.19793000E-01	-6.03331000E-03
		-2.84212000E-03	-1.18261000E-01	-1.10138000E-02
		-2.77286000E-03	-1.06830000E-01	-1.08947000E-02
		-1.38523000E-03	-1.16859000E-01	-5.97421000E-03
		 6.57998000E-05	-1.14015000E-01	-8.96637000E-04
		 3.00415000E-03	-1.14131000E-01	 9.11155000E-03
		 6.48617000E-05	-1.15474000E-01	-9.27994000E-04
		 3.00454000E-03	-1.15603000E-01	 9.07135000E-03
		 6.84726000E-05	-1.04132000E-01	-8.21330000E-04
		 1.53131000E-03	-1.14077000E-01	 4.12196000E-03
		 2.90613000E-03	-1.04239000E-01	 9.22444000E-03
		-2.83778000E-03	-1.13893000E-01	-1.09136000E-02
		-2.84308000E-03	-1.15343000E-01	-1.09353000E-02
		-2.75181000E-03	-1.04003000E-01	-1.08470000E-02
		-1.38853000E-03	-1.13950000E-01	-5.92000000E-03
		 3.79409000E-05	-1.39877000E-01	-1.17783000E-03
		 3.02818000E-03	-1.39964000E-01	 8.77525000E-03
		 8.12503000E-05	-1.36918000E-01	-1.15714000E-03
		 3.04968000E-03	-1.36978000E-01	 8.80015000E-03
		 8.32797000E-05	-1.29885000E-01	-1.09479000E-03
		 1.52452000E-03	-1.39921000E-01	 3.81610000E-03
		 3.07415000E-03	-1.30030000E-01	 8.87616000E-03
		 5.55268000E-05	-1.38397000E-01	-1.17578000E-03
		 3.03999000E-03	-1.38462000E-01	 8.77381000E-03
		 7.93697000E-05	-1.26921000E-01	-1.05365000E-03
		 1.56465000E-03	-1.36942000E-01	 3.83312000E-03
		 3.05034000E-03	-1.27040000E-01	 8.91916000E-03
		-2.88117000E-03	-1.39781000E-01	-1.12388000E-02
		-2.86043000E-03	-1.36855000E-01	-1.12074000E-02
		-2.86295000E-03	-1.29745000E-01	-1.11348000E-02
		-1.42928000E-03	-1.39829000E-01	-6.20459000E-03
		-2.87304000E-03	-1.38324000E-01	-1.12263000E-02
		-2.86476000E-03	-1.26803000E-01	-1.10905000E-02
		-1.39152000E-03	-1.36892000E-01	-6.17350000E-03
		 1.29703000E-04	-1.33971000E-01	-1.06367000E-03
		 3.07219000E-03	-1.34038000E-01	 8.90256000E-03
		 1.07719000E-04	-1.35443000E-01	-1.11862000E-03
		 3.06031000E-03	-1.35504000E-01	 8.84879000E-03
		 8.29226000E-05	-1.23971000E-01	-9.69872000E-04
		 1.60309000E-03	-1.33999000E-01	 3.92540000E-03
		 3.03769000E-03	-1.24079000E-01	 9.00564000E-03
		-2.83663000E-03	-1.33896000E-01	-1.11158000E-02
		-2.84720000E-03	-1.35380000E-01	-1.11694000E-02
		-2.86665000E-03	-1.23855000E-01	-1.10086000E-02
		-1.34996000E-03	-1.33938000E-01	-6.08006000E-03
		 0.00000000E+00	 0.00000000E+00	 0.00000000E+00
		 0.00000000E+00	 0.00000000E+00	 0.00000000E+00
		-1.65453000E-06	-1.38966000E-02	-1.12945000E-04
		-2.74048000E-03	-1.48659000E-02	 1.34113000E-02
		 0.00000000E+00	 0.00000000E+00	 0.00000000E+00
		 0.00000000E+00	 0.00000000E+00	 0.00000000E+00
		-4.55060000E-06	-1.57729000E-02	-1.58506000E-04
		-1.04758000E-03	-1.67948000E-02	 1.35377000E-02
		 0.00000000E+00	 0.00000000E+00	 0.00000000E+00
		 8.72059000E-06	-2.90299000E-03	-1.79505000E-05
		-1.37569000E-03	-1.40790000E-02	 6.54794000E-03
		-2.52900000E-03	-4.15317000E-03	 6.94548000E-03
		 0.00000000E+00	 0.00000000E+00	 0.00000000E+00
		 0.00000000E+00	 0.00000000E+00	 0.00000000E+00
		-3.65601000E-06	-1.51264000E-02	-1.43999000E-04
		-1.87658000E-03	-1.61192000E-02	 1.33841000E-02
		 0.00000000E+00	 0.00000000E+00	 0.00000000E+00
		-7.99528000E-06	-4.31618000E-03	-3.70626000E-05
		-5.28181000E-04	-1.59627000E-02	 6.49392000E-03
		-5.06849000E-04	-5.54998000E-03	 6.74785000E-03
		 0.00000000E+00	 0.00000000E+00	 0.00000000E+00
		 2.73949000E-03	-1.43992000E-02	-1.37094000E-02
		 0.00000000E+00	 0.00000000E+00	 0.00000000E+00
		 1.06327000E-03	-1.63500000E-02	-1.39291000E-02
		 0.00000000E+00	 0.00000000E+00	 0.00000000E+00
		 2.55470000E-03	-3.95981000E-03	-7.00004000E-03
		 1.37053000E-03	-1.38371000E-02	-6.79684000E-03
		 0.00000000E+00	 0.00000000E+00	 0.00000000E+00
		 1.89220000E-03	-1.56642000E-02	-1.37457000E-02
		 0.00000000E+00	 0.00000000E+00	 0.00000000E+00
		 5.17838000E-04	-5.39108000E-03	-6.83376000E-03
		 5.26545000E-04	-1.57425000E-02	-6.83513000E-03
		 0.00000000E+00	 0.00000000E+00	 0.00000000E+00
		 0.00000000E+00	 0.00000000E+00	 0.00000000E+00
		-3.26037000E-06	-1.60054000E-02	-1.55364000E-04
		 6.55402000E-04	-1.69411000E-02	 1.33750000E-02
		 0.00000000E+00	 0.00000000E+00	 0.00000000E+00
		 0.00000000E+00	 0.00000000E+00	 0.00000000E+00
		-4.35091000E-06	-1.61787000E-02	-1.64922000E-04
		-2.12050000E-04	-1.71599000E-02	 1.35580000E-02
		 0.00000000E+00	 0.00000000E+00	 0.00000000E+00
		-2.01746000E-05	-3.92769000E-03	-2.85145000E-05
		 3.23291000E-04	-1.61606000E-02	 6.31456000E-03
		 1.55486000E-03	-5.11236000E-03	 6.93256000E-03
		 0.00000000E+00	 0.00000000E+00	 0.00000000E+00
		-6.26846000E-04	-1.65218000E-02	-1.37438000E-02
		 0.00000000E+00	 0.00000000E+00	 0.00000000E+00
		 2.26550000E-04	-1.67232000E-02	-1.39547000E-02
		 0.00000000E+00	 0.00000000E+00	 0.00000000E+00
		-1.55789000E-03	-4.97085000E-03	-7.01078000E-03
		-3.17153000E-04	-1.59623000E-02	-6.64188000E-03
		 4.42740000E-05	-5.27718000E-02	-8.58089000E-04
		-3.10494000E-03	-5.38077000E-02	 2.21108000E-02
		 5.75275000E-05	-5.53941000E-02	-9.32013000E-04
		-2.06910000E-03	-5.64459000E-02	 2.21120000E-02
		 1.39314000E-05	-3.08944000E-02	-3.85566000E-04
		-1.53101000E-03	-5.31768000E-02	 1.05068000E-02
		-2.98997000E-03	-3.20071000E-02	 1.84630000E-02
		 5.09885000E-05	-5.41901000E-02	-9.03162000E-04
		-2.58749000E-03	-5.52314000E-02	 2.20792000E-02
		 1.39298000E-05	-3.31878000E-02	-4.50960000E-04
		-9.99564000E-04	-5.58097000E-02	 1.04408000E-02
		-1.58256000E-03	-3.43003000E-02	 1.84881000E-02
		 3.17793000E-03	-5.27168000E-02	-2.38997000E-02
		 2.16824000E-03	-5.53430000E-02	-2.40460000E-02
		 3.00462000E-03	-3.12380000E-02	-1.93304000E-02
		 1.61433000E-03	-5.26479000E-02	-1.22395000E-02
		 2.67449000E-03	-5.41390000E-02	-2.39566000E-02
		 1.61374000E-03	-3.35340000E-02	-1.94799000E-02
		 1.11428000E-03	-5.52742000E-02	-1.23197000E-02
		 6.16965000E-05	-5.70104000E-02	-9.53691000E-04
		-1.02127000E-03	-5.80417000E-02	 2.20153000E-02
		 6.02862000E-05	-5.63078000E-02	-9.48014000E-04
		-1.54375000E-03	-5.73843000E-02	 2.21768000E-02
		 1.28780000E-05	-3.40911000E-02	-4.58354000E-04
		-4.82151000E-04	-5.74069000E-02	 1.02687000E-02
		-1.77726000E-04	-3.51959000E-02	 1.83976000E-02
		 1.16750000E-03	-5.69541000E-02	-2.39886000E-02
		 1.66789000E-03	-5.62503000E-02	-2.41419000E-02
		 2.30067000E-04	-3.44481000E-02	-1.93913000E-02
		 6.13996000E-04	-5.68868000E-02	-1.21889000E-02
		 2.19132000E-04	-1.05133000E-01	-2.25460000E-03
		-3.31087000E-03	-1.06064000E-01	 2.52828000E-02
		 2.31612000E-04	-1.08422000E-01	-2.29363000E-03
		-2.85399000E-03	-1.09470000E-01	 2.52803000E-02
		 1.10209000E-04	-7.79279000E-02	-1.49443000E-03
		-1.54128000E-03	-1.05542000E-01	 1.14713000E-02
		-3.21550000E-03	-7.89473000E-02	 2.42348000E-02
		 2.26589000E-04	-1.06836000E-01	-2.27349000E-03
		-3.08676000E-03	-1.07835000E-01	 2.52354000E-02
		 1.24349000E-04	-8.09004000E-02	-1.56045000E-03
		-1.33390000E-03	-1.08894000E-01	 1.13938000E-02
		-2.51208000E-03	-8.19398000E-02	 2.42374000E-02
		 3.69530000E-03	-1.04584000E-01	-2.97991000E-02
		 3.29992000E-03	-1.07866000E-01	-2.99120000E-02
		 3.40476000E-03	-7.76264000E-02	-2.72710000E-02
		 1.96266000E-03	-1.04810000E-01	-1.59785000E-02
		 3.49687000E-03	-1.06275000E-01	-2.98163000E-02
		 2.74247000E-03	-8.05695000E-02	-2.74046000E-02
		 1.76888000E-03	-1.08103000E-01	-1.60084000E-02
		 2.42285000E-04	-1.11280000E-01	-2.31524000E-03
		-2.49799000E-03	-1.12466000E-01	 2.52081000E-02
		 2.36398000E-04	-1.09919000E-01	-2.30783000E-03
		-2.67900000E-03	-1.10907000E-01	 2.53347000E-02
		 1.44117000E-04	-8.31812000E-02	-1.59257000E-03
		-1.09200000E-03	-1.11820000E-01	 1.12540000E-02
		-1.84572000E-03	-8.42702000E-02	 2.41343000E-02
		 2.92694000E-03	-1.10755000E-01	-2.99155000E-02
		 3.11147000E-03	-1.09351000E-01	-3.00017000E-02
		 2.08097000E-03	-8.28543000E-02	-2.73706000E-02
		 1.57360000E-03	-1.10987000E-01	-1.59357000E-02
		 6.27097000E-04	-1.62533000E-01	-3.95396000E-03
		-3.26421000E-03	-1.63358000E-01	 2.52522000E-02
		 6.32998000E-04	-1.66414000E-01	-3.92852000E-03
		-3.23384000E-03	-1.67702000E-01	 2.52991000E-02
		 3.64636000E-04	-1.33459000E-01	-3.07955000E-03
		-1.31720000E-03	-1.62928000E-01	 1.06415000E-02
		-3.35286000E-03	-1.34439000E-01	 2.54879000E-02
		 6.30262000E-04	-1.64455000E-01	-3.94120000E-03
		-3.24090000E-03	-1.65457000E-01	 2.52656000E-02
		 3.67273000E-04	-1.37094000E-01	-3.13175000E-03
		-1.17621000E-03	-1.67026000E-01	 1.06623000E-02
		-3.14549000E-03	-1.38028000E-01	 2.55434000E-02
		 4.35127000E-03	-1.61751000E-01	-3.31768000E-02
		 4.20270000E-03	-1.65476000E-01	-3.31636000E-02
		 4.05448000E-03	-1.32768000E-01	-3.16627000E-02
		 2.48679000E-03	-1.62132000E-01	-1.85509000E-02
		 4.28088000E-03	-1.63626000E-01	-3.31642000E-02
		 3.80568000E-03	-1.36359000E-01	-3.17202000E-02
		 2.40534000E-03	-1.65908000E-01	-1.85246000E-02
		 5.07540000E-04	-1.70175000E-01	-3.89153000E-03
		-3.06292000E-03	-1.71828000E-01	 2.53267000E-02
		 5.71086000E-04	-1.68274000E-01	-3.91417000E-03
		-3.14726000E-03	-1.70269000E-01	 2.53329000E-02
		 3.50346000E-04	-1.40463000E-01	-3.19558000E-03
		-1.39543000E-03	-1.70953000E-01	 1.06662000E-02
		-2.76838000E-03	-1.41294000E-01	 2.55160000E-02
		 4.07559000E-03	-1.69077000E-01	-3.31046000E-02