# vtk DataFile Version 3.0

ASCII
DATASET UNSTRUCTURED_GRID

POINTS 522 double
	 1.00000000E+00	 1.00000000E+00	-5.96046000E-08
	 1.00000000E+00	 5.00000000E-01	-5.96046000E-08
	 1.00000000E+00	 5.00000000E-01	 1.00000000E+00
	 1.00000000E+00	 1.00000000E+00	 1.00000000E+00
	 5.00000000E-01	 1.00000000E+00	-5.96046000E-08
	 5.00000000E-01	 5.00000000E-01	-5.96046000E-08
	 5.00000000E-01	 5.00000000E-01	 1.00000000E+00
	 5.00000000E-01	 1.00000000E+00	 1.00000000E+00
	 1.00000000E+00	 7.50000000E-01	-5.96046000E-08
	 1.00000000E+00	 5.00000000E-01	 5.00000000E-01
	 1.00000000E+00	 7.50000000E-01	 1.00000000E+00
	 1.00000000E+00	 1.00000000E+00	 5.00000000E-01
	 7.50000000E-01	 1.00000000E+00	-5.96046000E-08
	 7.50000000E-01	 5.00000000E-01	-5.96046000E-08
	 7.50000000E-01	 5.00000000E-01	 1.00000000E+00
	 7.50000000E-01	 1.00000000E+00	 1.00000000E+00
	 5.00000000E-01	 7.50000000E-01	-5.96046000E-08
	 5.00000000E-01	 5.00000000E-01	 5.00000000E-01
	 5.00000000E-01	 7.50000000E-01	 1.00000000E+00
	 5.00000000E-01	 1.00000000E+00	 5.00000000E-01
	 1.00000000E+00	-1.49012000E-08	-5.96046000E-08
	 1.00000000E+00	-1.49012000E-08	 1.00000000E+00
	 5.00000000E-01	-1.49012000E-08	-5.96046000E-08
	 5.00000000E-01	-1.49012000E-08	 1.00000000E+00
	 1.00000000E+00	 2.50000000E-01	-5.96046000E-08
	 1.00000000E+00	-1.49012000E-08	 5.00000000E-01
	 1.00000000E+00	 2.50000000E-01	 1.00000000E+00
	 7.50000000E-01	-1.49012000E-08	-5.96046000E-08
	 7.50000000E-01	-1.49012000E-08	 1.00000000E+00
	 5.00000000E-01	 2.50000000E-01	-5.96046000E-08
	 5.00000000E-01	-1.49012000E-08	 5.00000000E-01
	 5.00000000E-01	 2.50000000E-01	 1.00000000E+00
	-7.45058000E-09	 1.00000000E+00	-5.96046000E-08
	-7.45058000E-09	 5.00000000E-01	-5.96046000E-08
	-7.45058000E-09	 5.00000000E-01	 1.00000000E+00
	-7.45058000E-09	 1.00000000E+00	 1.00000000E+00
	 2.50000000E-01	 1.00000000E+00	-5.96046000E-08
	 2.50000000E-01	 5.00000000E-01	-5.96046000E-08
	 2.50000000E-01	 5.00000000E-01	 1.00000000E+00
	 2.50000000E-01	 1.00000000E+00	 1.00000000E+00
	-7.45058000E-09	 7.50000000E-01	-5.96046000E-08
	-7.45058000E-09	 5.00000000E-01	 5.00000000E-01
	-7.45058000E-09	 7.50000000E-01	 1.00000000E+00
	-7.45058000E-09	 1.00000000E+00	 5.00000000E-01
	-7.45058000E-09	-1.49012000E-08	-5.96046000E-08
	-7.45058000E-09	-1.49012000E-08	 1.00000000E+00
	 2.50000000E-01	-1.49012000E-08	-5.96046000E-08
	 2.50000000E-01	-1.49012000E-08	 1.00000000E+00
	-7.45058000E-09	 2.50000000E-01	-5.96046000E-08
	-7.45058000E-09	-1.49012000E-08	 5.00000000E-01
	-7.45058000E-09	 2.50000000E-01	 1.00000000E+00
	 1.00000000E+00	 5.00000000E-01	 2.00000000E+00
	 1.00000000E+00	 1.00000000E+00	 2.00000000E+00
	 5.00000000E-01	 5.00000000E-01	 2.00000000E+00
	 5.00000000E-01	 1.00000000E+00	 2.00000000E+00
	 1.00000000E+00	 5.00000000E-01	 1.50000000E+00
	 1.00000000E+00	 7.50000000E-01	 2.00000000E+00
	 1.00000000E+00	 1.00000000E+00	 1.50000000E+00
	 7.50000000E-01	 5.00000000E-01	 2.00000000E+00
	 7.50000000E-01	 1.00000000E+00	 2.00000000E+00
	 5.00000000E-01	 5.00000000E-01	 1.50000000E+00
	 5.00000000E-01	 7.50000000E-01	 2.00000000E+00
	 5.00000000E-01	 1.00000000E+00	 1.50000000E+00
	 1.00000000E+00	-1.49012000E-08	 2.00000000E+00
	 5.00000000E-01	-1.49012000E-08	 2.00000000E+00
	 1.00000000E+00	-1.49012000E-08	 1.50000000E+00
	 1.00000000E+00	 2.50000000E-01	 2.00000000E+00
	 7.50000000E-01	-1.49012000E-08	 2.00000000E+00
	 5.00000000E-01	-1.49012000E-08	 1.50000000E+00
	 5.00000000E-01	 2.50000000E-01	 2.00000000E+00
	-7.45058000E-09	 5.00000000E-01	 2.00000000E+00
	-7.45058000E-09	 1.00000000E+00	 2.00000000E+00
	 2.50000000E-01	 5.00000000E-01	 2.00000000E+00
	 2.50000000E-01	 1.00000000E+00	 2.00000000E+00
	-7.45058000E-09	 5.00000000E-01	 1.50000000E+00
	-7.45058000E-09	 7.50000000E-01	 2.00000000E+00
	-7.45058000E-09	 1.00000000E+00	 1.50000000E+00
	-7.45058000E-09	-1.49012000E-08	 2.00000000E+00
	 2.50000000E-01	-1.49012000E-08	 2.00000000E+00
	-7.45058000E-09	-1.49012000E-08	 1.50000000E+00
	-7.45058000E-09	 2.50000000E-01	 2.00000000E+00
	 1.00000000E+00	 5.00000000E-01	 3.00000000E+00
	 1.00000000E+00	 1.00000000E+00	 3.00000000E+00
	 5.00000000E-01	 5.00000000E-01	 3.00000000E+00
	 5.00000000E-01	 1.00000000E+00	 3.00000000E+00
	 1.00000000E+00	 5.00000000E-01	 2.50000000E+00
	 1.00000000E+00	 7.50000000E-01	 3.00000000E+00
	 1.00000000E+00	 1.00000000E+00	 2.50000000E+00
	 7.50000000E-01	 5.00000000E-01	 3.00000000E+00
	 7.50000000E-01	 1.00000000E+00	 3.00000000E+00
	 5.00000000E-01	 5.00000000E-01	 2.50000000E+00
	 5.00000000E-01	 7.50000000E-01	 3.00000000E+00
	 5.00000000E-01	 1.00000000E+00	 2.50000000E+00
	 1.00000000E+00	-1.49012000E-08	 3.00000000E+00
	 5.00000000E-01	-1.49012000E-08	 3.00000000E+00
	 1.00000000E+00	-1.49012000E-08	 2.50000000E+00
	 1.00000000E+00	 2.50000000E-01	 3.00000000E+00
	 7.50000000E-01	-1.49012000E-08	 3.00000000E+00
	 5.00000000E-01	-1.49012000E-08	 2.50000000E+00
	 5.00000000E-01	 2.50000000E-01	 3.00000000E+00
	-7.45058000E-09	 5.00000000E-01	 3.00000000E+00
	-7.45058000E-09	 1.00000000E+00	 3.00000000E+00
	 2.50000000E-01	 5.00000000E-01	 3.00000000E+00
	 2.50000000E-01	 1.00000000E+00	 3.00000000E+00
	-7.45058000E-09	 5.00000000E-01	 2.50000000E+00
	-7.45058000E-09	 7.50000000E-01	 3.00000000E+00
	-7.45058000E-09	 1.00000000E+00	 2.50000000E+00
	-7.45058000E-09	-1.49012000E-08	 3.00000000E+00
	 2.50000000E-01	-1.49012000E-08	 3.00000000E+00
	-7.45058000E-09	-1.49012000E-08	 2.50000000E+00
	-7.45058000E-09	 2.50000000E-01	 3.00000000E+00
	 1.00000000E+00	 5.00000000E-01	 4.00000000E+00
	 1.00000000E+00	 1.00000000E+00	 4.00000000E+00
	 5.00000000E-01	 5.00000000E-01	 4.00000000E+00
	 5.00000000E-01	 1.00000000E+00	 4.00000000E+00
	 1.00000000E+00	 5.00000000E-01	 3.50000000E+00
	 1.00000000E+00	 7.50000000E-01	 4.00000000E+00
	 1.00000000E+00	 1.00000000E+00	 3.50000000E+00
	 7.50000000E-01	 5.00000000E-01	 4.00000000E+00
	 7.50000000E-01	 1.00000000E+00	 4.00000000E+00
	 5.00000000E-01	 5.00000000E-01	 3.50000000E+00
	 5.00000000E-01	 7.50000000E-01	 4.00000000E+00
	 5.00000000E-01	 1.00000000E+00	 3.50000000E+00
	 1.00000000E+00	-1.49012000E-08	 4.00000000E+00
	 5.00000000E-01	-1.49012000E-08	 4.00000000E+00
	 1.00000000E+00	-1.49012000E-08	 3.50000000E+00
	 1.00000000E+00	 2.50000000E-01	 4.00000000E+00
	 7.50000000E-01	-1.49012000E-08	 4.00000000E+00
	 5.00000000E-01	-1.49012000E-08	 3.50000000E+00
	 5.00000000E-01	 2.50000000E-01	 4.00000000E+00
	-7.45058000E-09	 5.00000000E-01	 4.00000000E+00
	-7.45058000E-09	 1.00000000E+00	 4.00000000E+00
	 2.50000000E-01	 5.00000000E-01	 4.00000000E+00
	 2.50000000E-01	 1.00000000E+00	 4.00000000E+00
	-7.45058000E-09	 5.00000000E-01	 3.50000000E+00
	-7.45058000E-09	 7.50000000E-01	 4.00000000E+00
	-7.45058000E-09	 1.00000000E+00	 3.50000000E+00
	-7.45058000E-09	-1.49012000E-08	 4.00000000E+00
	 2.50000000E-01	-1.49012000E-08	 4.00000000E+00
	-7.45058000E-09	-1.49012000E-08	 3.50000000E+00
	-7.45058000E-09	 2.50000000E-01	 4.00000000E+00
	 1.00000000E+00	 5.00000000E-01	 5.00000000E+00
	 1.00000000E+00	 1.00000000E+00	 5.00000000E+00
	 5.00000000E-01	 5.00000000E-01	 5.00000000E+00
	 5.00000000E-01	 1.00000000E+00	 5.00000000E+00
	 1.00000000E+00	 5.00000000E-01	 4.50000000E+00
	 1.00000000E+00	 7.50000000E-01	 5.00000000E+00
	 1.00000000E+00	 1.00000000E+00	 4.50000000E+00
	 7.50000000E-01	 5.00000000E-01	 5.00000000E+00
	 7.50000000E-01	 1.00000000E+00	 5.00000000E+00
	 5.00000000E-01	 5.00000000E-01	 4.50000000E+00
	 5.00000000E-01	 7.50000000E-01	 5.00000000E+00
	 5.00000000E-01	 1.00000000E+00	 4.50000000E+00
	 1.00000000E+00	-1.49012000E-08	 5.00000000E+00
	 5.00000000E-01	-1.49012000E-08	 5.00000000E+00
	 1.00000000E+00	-1.49012000E-08	 4.50000000E+00
	 1.00000000E+00	 2.50000000E-01	 5.00000000E+00
	 7.50000000E-01	-1.49012000E-08	 5.00000000E+00
	 5.00000000E-01	-1.49012000E-08	 4.50000000E+00
	 5.00000000E-01	 2.50000000E-01	 5.00000000E+00
	-7.45058000E-09	 5.00000000E-01	 5.00000000E+00
	-7.45058000E-09	 1.00000000E+00	 5.00000000E+00
	 2.50000000E-01	 5.00000000E-01	 5.00000000E+00
	 2.50000000E-01	 1.00000000E+00	 5.00000000E+00
	-7.45058000E-09	 5.00000000E-01	 4.50000000E+00
	-7.45058000E-09	 7.50000000E-01	 5.00000000E+00
	-7.45058000E-09	 1.00000000E+00	 4.50000000E+00
	-7.45058000E-09	-1.49012000E-08	 5.00000000E+00
	 2.50000000E-01	-1.49012000E-08	 5.00000000E+00
	-7.45058000E-09	-1.49012000E-08	 4.50000000E+00
	-7.45058000E-09	 2.50000000E-01	 5.00000000E+00
	 1.00000000E+00	 5.00000000E-01	 6.00000000E+00
	 1.00000000E+00	 1.00000000E+00	 6.00000000E+00
	 5.00000000E-01	 5.00000000E-01	 6.00000000E+00
	 5.00000000E-01	 1.00000000E+00	 6.00000000E+00
	 1.00000000E+00	 5.00000000E-01	 5.50000000E+00
	 1.00000000E+00	 7.50000000E-01	 6.00000000E+00
	 1.00000000E+00	 1.00000000E+00	 5.50000000E+00
	 7.50000000E-01	 5.00000000E-01	 6.00000000E+00
	 7.50000000E-01	 1.00000000E+00	 6.00000000E+00
	 5.00000000E-01	 5.00000000E-01	 5.50000000E+00
	 5.00000000E-01	 7.50000000E-01	 6.00000000E+00
	 5.00000000E-01	 1.00000000E+00	 5.50000000E+00
	 1.00000000E+00	-1.49012000E-08	 6.00000000E+00
	 5.00000000E-01	-1.49012000E-08	 6.00000000E+00
	 1.00000000E+00	-1.49012000E-08	 5.50000000E+00
	 1.00000000E+00	 2.50000000E-01	 6.00000000E+00
	 7.50000000E-01	-1.49012000E-08	 6.00000000E+00
	 5.00000000E-01	-1.49012000E-08	 5.50000000E+00
	 5.00000000E-01	 2.50000000E-01	 6.00000000E+00
	-7.45058000E-09	 5.00000000E-01	 6.00000000E+00
	-7.45058000E-09	 1.00000000E+00	 6.00000000E+00
	 2.50000000E-01	 5.00000000E-01	 6.00000000E+00
	 2.50000000E-01	 1.00000000E+00	 6.00000000E+00
	-7.45058000E-09	 5.00000000E-01	 5.50000000E+00
	-7.45058000E-09	 7.50000000E-01	 6.00000000E+00
	-7.45058000E-09	 1.00000000E+00	 5.50000000E+00
	-7.45058000E-09	-1.49012000E-08	 6.00000000E+00
	 2.50000000E-01	-1.49012000E-08	 6.00000000E+00
	-7.45058000E-09	-1.49012000E-08	 5.50000000E+00
	-7.45058000E-09	 2.50000000E-01	 6.00000000E+00
	 1.00000000E+00	 5.00000000E-01	 7.00000000E+00
[...]
POINT_DATA 522
FIELD U 1
	U 3 522 double
		 0.00000000E+00	 0.00000000E+00	 0.00000000E+00
		 0.00000000E+00	 0.00000000E+00	 0.00000000E+00
		-7.80815000E-06	-5.08884000E-04	 2.68658000E-05
		-1.67819000E-03	-7.97367000E-04	 3.01043000E-03
		 0.00000000E+00	 0.00000000E+00	 0.00000000E+00
		 0.00000000E+00	 0.00000000E+00	 0.00000000E+00
		-5.64132000E-06	-1.87435000E-03	 1.63789000E-05
		-1.09151000E-03	-2.17904000E-03	 2.99932000E-03
		 0.00000000E+00	 0.00000000E+00	 0.00000000E+00
		-6.05580000E-06	 6.93333000E-04	 1.40495000E-05
		-8.43756000E-04	-5.67260000E-04	 1.66666000E-03
		-1.03486000E-03	 4.02790000E-04	 1.26811000E-03
		 0.00000000E+00	 0.00000000E+00	 0.00000000E+00
		 0.00000000E+00	 0.00000000E+00	 0.00000000E+00
		-5.98186000E-06	-1.27725000E-03	 2.14518000E-05
		-1.38291000E-03	-1.57299000E-03	 2.90400000E-03
		 0.00000000E+00	 0.00000000E+00	 0.00000000E+00
		-3.82249000E-06	-1.18065000E-04	 8.50003000E-06
		-5.48436000E-04	-1.93851000E-03	 1.55834000E-03
		-5.98341000E-04	-3.85442000E-04	 1.19827000E-03
		 0.00000000E+00	 0.00000000E+00	 0.00000000E+00
		 1.65662000E-03	-7.65231000E-04	-2.96339000E-03
		 0.00000000E+00	 0.00000000E+00	 0.00000000E+00
		 1.07933000E-03	-2.14405000E-03	-2.97246000E-03
		 0.00000000E+00	 0.00000000E+00	 0.00000000E+00
		 1.02303000E-03	 4.22879000E-04	-1.23837000E-03
		 8.26207000E-04	-5.49036000E-04	-1.61555000E-03
		 0.00000000E+00	 0.00000000E+00	 0.00000000E+00
		 1.36718000E-03	-1.53885000E-03	-2.86736000E-03
		 0.00000000E+00	 0.00000000E+00	 0.00000000E+00
		 5.93701000E-04	-3.68669000E-04	-1.17803000E-03
		 5.36496000E-04	-1.91854000E-03	-1.52822000E-03
		 0.00000000E+00	 0.00000000E+00	 0.00000000E+00
		 0.00000000E+00	 0.00000000E+00	 0.00000000E+00
		-5.16690000E-06	-2.67906000E-03	 9.10571000E-06
		-5.05224000E-04	-2.96620000E-03	 2.99418000E-03
		 0.00000000E+00	 0.00000000E+00	 0.00000000E+00
		 0.00000000E+00	 0.00000000E+00	 0.00000000E+00
		-5.53017000E-06	-2.36139000E-03	 1.21699000E-05
		-7.99430000E-04	-2.65878000E-03	 3.05624000E-03
		 0.00000000E+00	 0.00000000E+00	 0.00000000E+00
		-3.62299000E-06	-4.98391000E-04	 4.02763000E-06
		-2.55566000E-04	-2.73598000E-03	 1.48875000E-03
		-1.30436000E-04	-7.51189000E-04	 1.25926000E-03
		 0.00000000E+00	 0.00000000E+00	 0.00000000E+00
		 4.98907000E-04	-2.93370000E-03	-2.98053000E-03
		 0.00000000E+00	 0.00000000E+00	 0.00000000E+00
		 7.90023000E-04	-2.62350000E-03	-3.03745000E-03
		 0.00000000E+00	 0.00000000E+00	 0.00000000E+00
		 1.29518000E-04	-7.40276000E-04	-1.24743000E-03
		 2.46312000E-04	-2.71827000E-03	-1.47251000E-03
		-2.78207000E-06	-1.02219000E-02	-1.47160000E-05
		-2.11602000E-03	-1.05456000E-02	 7.09511000E-03
		 9.83793000E-07	-1.20307000E-02	-2.76305000E-05
		-1.53340000E-03	-1.23702000E-02	 7.10314000E-03
		-8.63012000E-06	-4.09968000E-03	 1.97673000E-05
		-1.05335000E-03	-1.03102000E-02	 3.49134000E-03
		-2.04030000E-03	-4.39976000E-03	 5.08586000E-03
		-5.57466000E-07	-1.11950000E-02	-2.24095000E-05
		-1.82421000E-03	-1.15334000E-02	 7.10650000E-03
		-6.09989000E-06	-5.79051000E-03	 7.22651000E-06
		-7.67487000E-04	-1.21267000E-02	 3.49546000E-03
		-1.39375000E-03	-6.11794000E-03	 5.07891000E-03
		 2.10925000E-03	-1.04286000E-02	-7.13363000E-03
		 1.53848000E-03	-1.22557000E-02	-7.16935000E-03
		 2.01450000E-03	-4.33801000E-03	-5.05440000E-03
		 1.04714000E-03	-1.02525000E-02	-3.52338000E-03
		 1.82394000E-03	-1.14171000E-02	-7.16030000E-03
		 1.38002000E-03	-6.05160000E-03	-5.07449000E-03
		 7.70436000E-04	-1.20699000E-02	-3.55301000E-03
		 3.36114000E-06	-1.32937000E-02	-3.43534000E-05
		-9.61808000E-04	-1.36222000E-02	 7.07641000E-03
		 2.23573000E-06	-1.27328000E-02	-3.18136000E-05
		-1.24878000E-03	-1.30690000E-02	 7.11154000E-03
		-4.98035000E-06	-6.87275000E-03	 1.15910000E-06
		-4.82693000E-04	-1.33848000E-02	 3.45877000E-03
		-7.79711000E-04	-7.20416000E-03	 5.06665000E-03
		 9.76126000E-04	-1.35158000E-02	-7.15677000E-03
		 1.25879000E-03	-1.29569000E-02	-7.18690000E-03
		 7.74424000E-04	-7.14123000E-03	-5.07561000E-03
		 4.91914000E-04	-1.33336000E-02	-3.52994000E-03
		 2.30331000E-05	-2.82421000E-02	-1.59258000E-04
		-2.09614000E-03	-2.84926000E-02	 9.81036000E-03
		 2.94474000E-05	-3.02340000E-02	-1.88292000E-04
		-1.82760000E-03	-3.04778000E-02	 9.81464000E-03
		 1.22214000E-05	-1.85051000E-02	-7.50308000E-05
		-1.04004000E-03	-2.83334000E-02	 4.77960000E-03
		-2.07480000E-03	-1.88062000E-02	 8.69104000E-03
		 2.64579000E-05	-2.92717000E-02	-1.75330000E-04
		-1.95967000E-03	-2.95147000E-02	 9.79624000E-03
		 1.63013000E-05	-2.03823000E-02	-9.40444000E-05
		-8.98101000E-04	-3.03209000E-02	 4.74967000E-03
		-1.65073000E-03	-2.06780000E-02	 8.70777000E-03
		 2.14516000E-03	-2.82771000E-02	-1.01363000E-02
		 1.88628000E-03	-3.02665000E-02	-1.01981000E-02
		 2.10413000E-03	-1.86329000E-02	-8.85160000E-03
		 1.08636000E-03	-2.82278000E-02	-5.09980000E-03
		 2.01509000E-03	-2.93025000E-02	-1.01544000E-02
		 1.68671000E-03	-2.05124000E-02	-8.90573000E-03
		 9.56482000E-04	-3.02187000E-02	-5.12815000E-03
		 3.23108000E-05	-3.19580000E-02	-2.09947000E-04
		-1.55571000E-03	-3.22011000E-02	 9.76409000E-03
		 3.15027000E-05	-3.11294000E-02	-1.99568000E-04
		-1.69235000E-03	-3.13731000E-02	 9.83980000E-03
		 1.76600000E-05	-2.18430000E-02	-1.06781000E-04
		-7.60133000E-04	-3.20442000E-02	 4.66732000E-03
		-1.21791000E-03	-2.21280000E-02	 8.66385000E-03
		 1.61751000E-03	-3.19901000E-02	-1.01906000E-02
		 1.75247000E-03	-3.11609000E-02	-1.02458000E-02
		 1.25628000E-03	-2.19680000E-02	-8.88610000E-03
		 8.23901000E-04	-3.19423000E-02	-5.08889000E-03
		 4.11588000E-05	-4.96586000E-02	-3.65959000E-04
		-2.33043000E-03	-4.98314000E-02	 1.06140000E-02
		 4.94892000E-05	-5.20007000E-02	-4.10909000E-04
		-2.24911000E-03	-5.21676000E-02	 1.05775000E-02
		 3.14450000E-05	-3.87936000E-02	-2.60614000E-04
		-1.14576000E-03	-4.97387000E-02	 5.13950000E-03
		-2.18264000E-03	-3.90039000E-02	 1.03713000E-02
		 4.59602000E-05	-5.08371000E-02	-3.87660000E-04
		-2.28992000E-03	-5.10058000E-02	 1.05648000E-02
		 3.97537000E-05	-4.09422000E-02	-2.97028000E-04
		-1.09987000E-03	-5.20786000E-02	 5.06717000E-03
		-2.03285000E-03	-4.11462000E-02	 1.03579000E-02
		 2.41036000E-03	-4.95715000E-02	-1.13460000E-02
		 2.35067000E-03	-5.19078000E-02	-1.13993000E-02
		 2.24484000E-03	-3.87634000E-02	-1.08948000E-02
		 1.22759000E-03	-4.96082000E-02	-5.87148000E-03
		 2.38055000E-03	-5.07458000E-02	-1.13403000E-02
		 2.11310000E-03	-4.09059000E-02	-1.09553000E-02
		 1.19937000E-03	-5.19485000E-02	-5.88913000E-03
		 5.49406000E-05	-5.42597000E-02	-4.57396000E-04
		-2.16967000E-03	-5.44263000E-02	 1.05238000E-02
		 5.22793000E-05	-5.31386000E-02	-4.34379000E-04
		-2.20859000E-03	-5.33045000E-02	 1.05869000E-02
		 4.49142000E-05	-4.29424000E-02	-3.29283000E-04
		-1.05595000E-03	-5.43352000E-02	 4.98152000E-03
		-1.88470000E-03	-4.31492000E-02	 1.03044000E-02
		 2.28714000E-03	-5.41778000E-02	-1.14389000E-02
		 2.31950000E-03	-5.30478000E-02	-1.14561000E-02
		 1.97650000E-03	-4.29139000E-02	-1.09679000E-02
		 1.16770000E-03	-5.42139000E-02	-5.89617000E-03
		 4.46450000E-05	-7.16236000E-02	-5.88040000E-04
		-2.85222000E-03	-7.18025000E-02	 1.08663000E-02
		 4.88625000E-05	-7.44756000E-02	-6.54948000E-04
		-2.76413000E-03	-7.46601000E-02	 1.08000000E-02
		 4.71880000E-05	-6.05593000E-02	-4.71385000E-04
		-1.40222000E-03	-7.17027000E-02	 5.17758000E-03
		-2.57422000E-03	-6.07342000E-02	 1.07414000E-02
		 4.79529000E-05	-7.30602000E-02	-6.21880000E-04
		-2.80780000E-03	-7.32420000E-02	 1.07934000E-02
		 5.27328000E-05	-6.31459000E-02	-5.28564000E-04
		-1.35684000E-03	-7.45571000E-02	 5.07181000E-03
		-2.49547000E-03	-6.33199000E-02	 1.06833000E-02
		 2.93231000E-03	-7.15256000E-02	-1.20461000E-02
		 2.85777000E-03	-7.43734000E-02	-1.21122000E-02
		 2.66305000E-03	-6.04647000E-02	-1.16867000E-02
		 1.48873000E-03	-7.15627000E-02	-6.35411000E-03
		 2.89588000E-03	-7.29606000E-02	-1.20408000E-02
		 2.60053000E-03	-6.30469000E-02	-1.17409000E-02
		 1.45301000E-03	-7.44123000E-02	-6.38198000E-03
		 5.26397000E-05	-7.72464000E-02	-7.20070000E-04
		-2.67393000E-03	-7.74281000E-02	 1.07347000E-02
		 4.98121000E-05	-7.58720000E-02	-6.87936000E-04
		-2.71913000E-03	-7.60574000E-02	 1.08045000E-02
		 5.62787000E-05	-6.56562000E-02	-5.88629000E-04
		-1.31169000E-03	-7.73258000E-02	 4.96846000E-03
		-2.41620000E-03	-6.58275000E-02	 1.06262000E-02
		 2.78101000E-03	-7.71429000E-02	-1.21758000E-02
		 2.81837000E-03	-7.57690000E-02	-1.21812000E-02
		 2.53446000E-03	-6.55622000E-02	-1.18020000E-02
		 1.41746000E-03	-7.71836000E-02	-6.40898000E-03
		 4.22540000E-05	-9.46789000E-02	-8.53143000E-04
		-3.34510000E-03	-9.48411000E-02	 1.10243000E-02
		 5.31993000E-05	-9.80469000E-02	-9.31297000E-04
		-3.29982000E-03	-9.82132000E-02	 1.09535000E-02
		 4.20371000E-05	-8.30153000E-02	-7.18136000E-04
		-1.64997000E-03	-9.47570000E-02	 5.10417000E-03
		-3.10819000E-03	-8.31869000E-02	 1.09914000E-02
		 4.83973000E-05	-9.63665000E-02	-8.92671000E-04
		-3.32353000E-03	-9.65314000E-02	 1.09519000E-02
		 5.00398000E-05	-8.61263000E-02	-7.89950000E-04
		-1.62359000E-03	-9.81278000E-02	 4.99200000E-03
		-3.03008000E-03	-8.63039000E-02	 1.09250000E-02
		 3.41965000E-03	-9.45400000E-02	-1.27301000E-02
		 3.40227000E-03	-9.79040000E-02	-1.28160000E-02
		 3.18199000E-03	-8.28980000E-02	-1.24302000E-02
		 1.73174000E-03	-9.46067000E-02	-6.81078000E-03
		 3.41155000E-03	-9.62256000E-02	-1.27367000E-02
		 3.12559000E-03	-8.60043000E-02	-1.25077000E-02
		 1.72801000E-03	-9.79730000E-02	-6.85484000E-03
		 5.98525000E-05	-1.01378000E-01	-1.01389000E-03
		-3.26065000E-03	-1.01544000E-01	 1.08629000E-02
		 5.68696000E-05	-9.97161000E-02	-9.71118000E-04
		-3.27863000E-03	-9.98839000E-02	 1.09560000E-02
		 5.64952000E-05	-8.91695000E-02	-8.58695000E-04
		-1.60145000E-03	-1.01457000E-01	 4.86066000E-03
		-2.95111000E-03	-8.93440000E-02	 1.08495000E-02
		 3.38441000E-03	-1.01241000E-01	-1.28911000E-02
		 3.39354000E-03	-9.95740000E-02	-1.28996000E-02
		 3.06587000E-03	-8.90466000E-02	-1.25699000E-02
		 1.72136000E-03	-1.01308000E-01	-6.88759000E-03
		 2.04670000E-05	-1.18052000E-01	-1.11424000E-03
		-3.83596000E-03	-1.18211000E-01	 1.07738000E-02
		 2.80942000E-05	-1.21898000E-01	-1.22639000E-03
		-3.81794000E-03	-1.22062000E-01	 1.06642000E-02
		 3.59413000E-05	-1.06386000E-01	-9.86509000E-04
		-1.90752000E-03	-1.18133000E-01	 4.86452000E-03
		-3.59871000E-03	-1.06547000E-01	 1.09156000E-02
		 2.73076000E-05	-1.19975000E-01	-1.17083000E-03
		-3.82490000E-03	-1.20137000E-01	 1.06902000E-02
		 4.29317000E-05	-1.10013000E-01	-1.07772000E-03
		-1.89581000E-03	-1.21982000E-01	 4.72733000E-03
		-3.58142000E-03	-1.10178000E-01	 1.08275000E-02
		 3.87163000E-03	-1.17893000E-01	-1.30132000E-02
		 3.86677000E-03	-1.21740000E-01	-1.31255000E-02
		 3.66173000E-03	-1.06235000E-01	-1.28873000E-02
		 1.94641000E-03	-1.17971000E-01	-7.09833000E-03
		 3.87303000E-03	-1.19818000E-01	-1.30417000E-02
		 3.66401000E-03	-1.09859000E-01	-1.29815000E-02
		 1.94875000E-03	-1.21818000E-01	-7.18387000E-03
		 3.22739000E-05	-1.25731000E-01	-1.32344000E-03
		-3.81061000E-03	-1.25904000E-01	 1.05727000E-02
		 2.80572000E-05	-1.23815000E-01	-1.27542000E-03
		-3.81683000E-03	-1.23982000E-01	 1.06444000E-02
		 4.57910000E-05	-1.13627000E-01	-1.17483000E-03
		-1.88758000E-03	-1.25820000E-01	 4.60682000E-03
		-3.57366000E-03	-1.13794000E-01	 1.07283000E-02
		 3.86812000E-03	-1.25576000E-01	-1.32254000E-02
		 3.86477000E-03	-1.23657000E-01	-1.31987000E-02
		 3.67075000E-03	-1.13482000E-01	-1.30766000E-02
		 1.94986000E-03	-1.25652000E-01	-7.25961000E-03
		-5.30360000E-05	-1.41745000E-01	-1.37719000E-03
		-4.03776000E-03	-1.41873000E-01	 1.05580000E-02
		 1.25107000E-05	-1.45744000E-01	-1.51020000E-03
		-3.98539000E-03	-1.45868000E-01	 1.04369000E-02
		-7.28754000E-06	-1.29823000E-01	-1.23924000E-03
		-2.04329000E-03	-1.41802000E-01	 4.58760000E-03
		-3.98196000E-03	-1.29970000E-01	 1.06703000E-02
		-2.63188000E-05	-1.43743000E-01	-1.44906000E-03
		-4.01588000E-03	-1.43870000E-01	 1.04962000E-02
		 2.01839000E-05	-1.33787000E-01	-1.37141000E-03
		-1.98298000E-03	-1.45799000E-01	 4.46579000E-03
		-3.94842000E-03	-1.33940000E-01	 1.05477000E-02
		 3.95010000E-03	-1.41610000E-01	-1.33501000E-02
		 3.98230000E-03	-1.45628000E-01	-1.35029000E-02
		 3.97568000E-03	-1.29661000E-01	-1.31827000E-02
		 1.93961000E-03	-1.41680000E-01	-7.35166000E-03
		 3.96379000E-03	-1.43626000E-01	-1.34351000E-02
		 3.96925000E-03	-1.33640000E-01	-1.33224000E-02
		 1.99683000E-03	-1.45689000E-01	-7.49809000E-03
		 7.38952000E-05	-1.49731000E-01	-1.58314000E-03
		-3.93984000E-03	-1.49897000E-01	 1.03665000E-02
		 5.10519000E-05	-1.47742000E-01	-1.55488000E-03
		-3.95876000E-03	-1.47879000E-01	 1.03952000E-02
		 4.17508000E-05	-1.37738000E-01	-1.45405000E-03
		-1.92340000E-03	-1.49813000E-01	 4.39504000E-03
		-3.92993000E-03	-1.37922000E-01	 1.04724000E-02
		 4.01470000E-03	-1.49582000E-01	-1.35843000E-02
		 4.00214000E-03	-1.47616000E-01	-1.35510000E-02
		 3.96817000E-03	-1.37573000E-01	-1.34101000E-02
		 2.05197000E-03	-1.49654000E-01	-7.57840000E-03
		 0.00000000E+00	 0.00000000E+00	 0.00000000E+00
		 0.00000000E+00	 0.00000000E+00	 0.00000000E+00
		 9.46716000E-05	-1.04546000E-02	 5.51391000E-06
		-1.90118000E-03	-1.10458000E-02	 9.47633000E-03
		 0.00000000E+00	 0.00000000E+00	 0.00000000E+00
		 0.00000000E+00	 0.00000000E+00	 0.00000000E+00
		 1.13675000E-04	-1.19046000E-02	 5.01905000E-05
		-8.07677000E-04	-1.25420000E-02	 9.65123000E-03
		 0.00000000E+00	 0.00000000E+00	 0.00000000E+00
		 2.83766000E-05	-2.51459000E-03	 1.38077000E-05
		-9.05509000E-04	-1.05476000E-02	 4.65770000E-03
		-1.77062000E-03	-3.37854000E-03	 5.03624000E-03
		 0.00000000E+00	 0.00000000E+00	 0.00000000E+00
		 0.00000000E+00	 0.00000000E+00	 0.00000000E+00
		 1.04506000E-04	-1.13736000E-02	 2.69659000E-05
		-1.34364000E-03	-1.19831000E-02	 9.47701000E-03
		 0.00000000E+00	 0.00000000E+00	 0.00000000E+00
		 3.61438000E-05	-3.51552000E-03	 3.68173000E-05
		-3.44828000E-04	-1.20112000E-02	 4.66984000E-03
		-3.45864000E-04	-4.38443000E-03	 4.94872000E-03
		 0.00000000E+00	 0.00000000E+00	 0.00000000E+00
		 2.06396000E-03	-1.08078000E-02	-9.49839000E-03
		 0.00000000E+00	 0.00000000E+00	 0.00000000E+00
		 1.02495000E-03	-1.22746000E-02	-9.58951000E-03
		 0.00000000E+00	 0.00000000E+00	 0.00000000E+00
		 1.80814000E-03	-3.27140000E-03	-5.01707000E-03
		 1.08825000E-03	-1.04293000E-02	-4.65813000E-03
		 0.00000000E+00	 0.00000000E+00	 0.00000000E+00
		 1.53450000E-03	-1.17277000E-02	-9.45827000E-03
		 0.00000000E+00	 0.00000000E+00	 0.00000000E+00
		 4.09609000E-04	-4.25799000E-03	-4.87682000E-03
		 5.68788000E-04	-1.18785000E-02	-4.58360000E-03
		 0.00000000E+00	 0.00000000E+00	 0.00000000E+00
		 0.00000000E+00	 0.00000000E+00	 0.00000000E+00
		 1.34540000E-04	-1.22892000E-02	 1.20071000E-04
		 3.09052000E-04	-1.28766000E-02	 9.58943000E-03
		 0.00000000E+00	 0.00000000E+00	 0.00000000E+00
		 0.00000000E+00	 0.00000000E+00	 0.00000000E+00
		 1.22358000E-04	-1.22879000E-02	 7.72072000E-05
		-2.60196000E-04	-1.29014000E-02	 9.73496000E-03
		 0.00000000E+00	 0.00000000E+00	 0.00000000E+00
		 5.31251000E-05	-3.27061000E-03	 8.38996000E-05
		 2.22135000E-04	-1.23766000E-02	 4.56138000E-03
		 1.13109000E-03	-4.11143000E-03	 5.10891000E-03
		 0.00000000E+00	 0.00000000E+00	 0.00000000E+00
		-3.79635000E-05	-1.26039000E-02	-9.38402000E-03
		 0.00000000E+00	 0.00000000E+00	 0.00000000E+00
		 4.99359000E-04	-1.26297000E-02	-9.61972000E-03
		 0.00000000E+00	 0.00000000E+00	 0.00000000E+00
		-1.02553000E-03	-3.96321000E-03	-4.94291000E-03
		 4.93990000E-05	-1.22461000E-02	-4.33179000E-03
		 2.90632000E-04	-3.58418000E-02	-1.84357000E-04
		-2.96448000E-03	-3.64744000E-02	 1.53476000E-02
		 3.21693000E-04	-3.87395000E-02	-1.60943000E-04
		-2.20450000E-03	-3.93656000E-02	 1.53949000E-02
		 1.88422000E-04	-2.17903000E-02	-5.62035000E-05
		-1.34123000E-03	-3.60888000E-02	 7.64384000E-03
		-2.37028000E-03	-2.24887000E-02	 1.27907000E-02
		 3.06356000E-04	-3.73666000E-02	-1.76097000E-04
		-2.58615000E-03	-3.79884000E-02	 1.52570000E-02
		 2.10166000E-04	-2.39121000E-02	-1.60559000E-05
		-9.36512000E-04	-3.89824000E-02	 7.56895000E-03
		-1.45775000E-03	-2.45986000E-02	 1.28754000E-02
		 3.54651000E-03	-3.59162000E-02	-1.57467000E-02
		 2.84679000E-03	-3.88173000E-02	-1.57467000E-02
		 2.72471000E-03	-2.21028000E-02	-1.29432000E-02
		 1.92143000E-03	-3.58064000E-02	-8.02258000E-03
		 3.20014000E-03	-3.74457000E-02	-1.56336000E-02
		 1.87183000E-03	-2.41973000E-02	-1.29496000E-02
		 1.58399000E-03	-3.87118000E-02	-7.89537000E-03
		 3.45608000E-04	-4.08979000E-02	-1.16975000E-04
		-1.42745000E-03	-4.15025000E-02	 1.54104000E-02
		 3.33985000E-04	-3.98921000E-02	-1.40204000E-04
		-1.81227000E-03	-4.05414000E-02	 1.55399000E-02
		 2.32261000E-04	-2.51260000E-02	 5.03898000E-05
		-5.45028000E-04	-4.11197000E-02	 7.45999000E-03
		-5.24645000E-04	-2.58076000E-02	 1.28937000E-02
		 2.15193000E-03	-4.09835000E-02	-1.56764000E-02
		 2.49769000E-03	-3.99698000E-02	-1.58552000E-02
		 1.00933000E-03	-2.54193000E-02	-1.28353000E-02
		 1.24543000E-03	-4.08735000E-02	-7.69724000E-03
		 5.54654000E-04	-7.05631000E-02	-6.64069000E-04
		-4.08009000E-03	-7.12169000E-02	 1.90940000E-02
		 5.91113000E-04	-7.48716000E-02	-6.77069000E-04
		-3.44575000E-03	-7.56387000E-02	 1.90951000E-02
		 4.16358000E-04	-5.21127000E-02	-3.80453000E-04
		-1.75533000E-03	-7.08155000E-02	 9.26489000E-03
		-3.57833000E-03	-5.27790000E-02	 1.73995000E-02
		 5.74806000E-04	-7.27950000E-02	-6.69914000E-04
		-3.76568000E-03	-7.35191000E-02	 1.90006000E-02
		 4.47623000E-04	-5.57798000E-02	-3.79464000E-04
		-1.45305000E-03	-7.51821000E-02	 9.15699000E-03
		-2.89054000E-03	-5.64544000E-02	 1.74206000E-02
		 5.15363000E-03	-7.04033000E-02	-2.04317000E-02
		 4.62710000E-03	-7.47384000E-02	-2.04940000E-02
		 4.40962000E-03	-5.20716000E-02	-1.81875000E-02
		 2.85187000E-03	-7.04070000E-02	-1.05877000E-02
		 4.89148000E-03	-7.26481000E-02	-2.03796000E-02
		 3.79247000E-03	-5.57434000E-02	-1.82062000E-02
		 2.61161000E-03	-7.47369000E-02	-1.05372000E-02
		 6.15937000E-04	-7.86255000E-02	-6.71387000E-04
		-2.93149000E-03	-7.95119000E-02	 1.90765000E-02
		 6.04623000E-04	-7.68363000E-02	-6.78962000E-04
		-3.19088000E-03	-7.75365000E-02	 1.91974000E-02
		 4.81006000E-04	-5.87949000E-02	-3.60403000E-04
		-1.12786000E-03	-7.89979000E-02	 9.03133000E-03
		-2.25329000E-03	-5.95037000E-02	 1.74193000E-02
		 4.11950000E-03	-7.85242000E-02	-2.04914000E-02
		 4.37285000E-03	-7.66962000E-02	-2.06028000E-02
		 3.18174000E-03	-5.87715000E-02	-1.81686000E-02
		 2.36057000E-03	-7.85185000E-02	-1.04236000E-02
		 9.56109000E-04	-1.13089000E-01	-1.48828000E-03
		-4.49552000E-03	-1.13673000E-01	 2.11399000E-02
		 9.93003000E-04	-1.18441000E-01	-1.49610000E-03
		-4.28291000E-03	-1.19490000E-01	 2.11605000E-02
		 7.00754000E-04	-9.09909000E-02	-1.03692000E-03
		-1.76824000E-03	-1.13343000E-01	 9.80425000E-03
		-4.40842000E-03	-9.17074000E-02	 2.03461000E-02
		 9.76542000E-04	-1.15766000E-01	-1.49147000E-03
		-4.37950000E-03	-1.16530000E-01	 2.11270000E-02
		 7.33821000E-04	-9.59110000E-02	-1.09533000E-03
		-1.52338000E-03	-1.18912000E-01	 9.77923000E-03
		-3.98136000E-03	-9.65835000E-02	 2.03939000E-02
		 6.24038000E-03	-1.12684000E-01	-2.41272000E-02
		 5.97791000E-03	-1.17892000E-01	-2.41583000E-02
		 5.78293000E-03	-9.07012000E-02	-2.24362000E-02
		 3.59573000E-03	-1.12858000E-01	-1.27808000E-02
		 6.11314000E-03	-1.15321000E-01	-2.41207000E-02
		 5.38157000E-03	-9.55929000E-02	-2.24995000E-02
		 3.47357000E-03	-1.18111000E-01	-1.27749000E-02
		 8.86667000E-04	-1.23542000E-01	-1.49718000E-03
		-3.95218000E-03	-1.24943000E-01	 2.11373000E-02
		 9.41858000E-04	-1.20989000E-01	-1.50055000E-03
		-4.11524000E-03	-1.22738000E-01	 2.12009000E-02
		 7.36571000E-04	-1.00403000E-01	-1.16301000E-03
		-1.65188000E-03	-1.24172000E-01	 9.70983000E-03
		-3.40779000E-03	-1.00956000E-01	 2.03579000E-02
		 5.73698000E-03	-1.22847000E-01	-2.41289000E-02