# vtk DataFile Version 3.0

ASCII
DATASET UNSTRUCTURED_GRID

POINTS 522 double
	 1.00000000E+00	 1.00000000E+00	-5.96046000E-08
	 1.00000000E+00	 5.00000000E-01	-5.96046000E-08
	 1.00000000E+00	 5.00000000E-01	 1.00000000E+00
	 1.00000000E+00	 1.00000000E+00	 1.00000000E+00
	 5.00000000E-01	 1.00000000E+00	-5.96046000E-08
	 5.00000000E-01	 5.00000000E-01	-5.96046000E-08
	 5.00000000E-01	 5.00000000E-01	 1.00000000E+00
	 5.00000000E-01	 1.00000000E+00	 1.00000000E+00
	 1.00000000E+00	 7.50000000E-01	-5.96046000E-08
	 1.00000000E+00	 5.00000000E-01	 5.00000000E-01
	 1.00000000E+00	 7.50000000E-01	 1.00000000E+00
	 1.00000000E+00	 1.00000000E+00	 5.00000000E-01
	 7.50000000E-01	 1.00000000E+00	-5.96046000E-08
	 7.50000000E-01	 5.00000000E-01	-5.96046000E-08
	 7.50000000E-01	 5.00000000E-01	 1.00000000E+00
	 7.50000000E-01	 1.00000000E+00	 1.00000000E+00
	 5.00000000E-01	 7.50000000E-01	-5.96046000E-08
	 5.00000000E-01	 5.00000000E-01	 5.00000000E-01
	 5.00000000E-01	 7.50000000E-01	 1.00000000E+00
	 5.00000000E-01	 1.00000000E+00	 5.00000000E-01
	 1.00000000E+00	-1.49012000E-08	-5.96046000E-08
	 1.00000000E+00	-1.49012000E-08	 1.00000000E+00
	 5.00000000E-01	-1.49012000E-08	-5.96046000E-08
	 5.00000000E-01	-1.49012000E-08	 1.00000000E+00
	 1.00000000E+00	 2.50000000E-01	-5.96046000E-08
	 1.00000000E+00	-1.49012000E-08	 5.00000000E-01
	 1.00000000E+00	 2.50000000E-01	 1.00000000E+00
	 7.50000000E-01	-1.49012000E-08	-5.96046000E-08
	 7.50000000E-01	-1.49012000E-08	 1.00000000E+00
	 5.00000000E-01	 2.50000000E-01	-5.96046000E-08
	 5.00000000E-01	-1.49012000E-08	 5.00000000E-01
	 5.00000000E-01	 2.50000000E-01	 1.00000000E+00
	-7.45058000E-09	 1.00000000E+00	-5.96046000E-08
	-7.45058000E-09	 5.00000000E-01	-5.96046000E-08
	-7.45058000E-09	 5.00000000E-01	 1.00000000E+00
	-7.45058000E-09	 1.00000000E+00	 1.00000000E+00
	 2.50000000E-01	 1.00000000E+00	-5.96046000E-08
	 2.50000000E-01	 5.00000000E-01	-5.96046000E-08
	 2.50000000E-01	 5.00000000E-01	 1.00000000E+00
	 2.50000000E-01	 1.00000000E+00	 1.00000000E+00
	-7.45058000E-09	 7.50000000E-01	-5.96046000E-08
	-7.45058000E-09	 5.00000000E-01	 5.00000000E-01
	-7.45058000E-09	 7.50000000E-01	 1.00000000E+00
	-7.45058000E-09	 1.00000000E+00	 5.00000000E-01
	-7.45058000E-09	-1.49012000E-08	-5.96046000E-08
	-7.45058000E-09	-1.49012000E-08	 1.00000000E+00
	 2.50000000E-01	-1.49012000E-08	-5.96046000E-08
	 2.50000000E-01	-1.49012000E-08	 1.00000000E+00
	-7.45058000E-09	 2.50000000E-01	-5.96046000E-08
	-7.45058000E-09	-1.49012000E-08	 5.00000000E-01
	-7.45058000E-09	 2.50000000E-01	 1.00000000E+00
	 1.00000000E+00	 5.00000000E-01	 2.00000000E+00
	 1.00000000E+00	 1.00000000E+00	 2.00000000E+00
	 5.00000000E-01	 5.00000000E-01	 2.00000000E+00
	 5.00000000E-01	 1.00000000E+00	 2.00000000E+00
	 1.00000000E+00	 5.00000000E-01	 1.50000000E+00
	 1.00000000E+00	 7.50000000E-01	 2.00000000E+00
	 1.00000000E+00	 1.00000000E+00	 1.50000000E+00
	 7.50000000E-01	 5.00000000E-01	 2.00000000E+00
	 7.50000000E-01	 1.00000000E+00	 2.00000000E+00
	 5.00000000E-01	 5.00000000E-01	 1.50000000E+00
	 5.00000000E-01	 7.50000000E-01	 2.00000000E+00
	 5.00000000E-01	 1.00000000E+00	 1.50000000E+00
	 1.00000000E+00	-1.49012000E-08	 2.00000000E+00
	 5.00000000E-01	-1.49012000E-08	 2.00000000E+00
	 1.00000000E+00	-1.49012000E-08	 1.50000000E+00
	 1.00000000E+00	 2.50000000E-01	 2.00000000E+00
	 7.50000000E-01	-1.49012000E-08	 2.00000000E+00
	 5.00000000E-01	-1.49012000E-08	 1.50000000E+00
	 5.00000000E-01	 2.50000000E-01	 2.00000000E+00
	-7.45058000E-09	 5.00000000E-01	 2.00000000E+00
	-7.45058000E-09	 1.00000000E+00	 2.00000000E+00
	 2.50000000E-01	 5.00000000E-01	 2.00000000E+00
	 2.50000000E-01	 1.00000000E+00	 2.00000000E+00
	-7.45058000E-09	 5.00000000E-01	 1.50000000E+00
	-7.45058000E-09	 7.50000000E-01	 2.00000000E+00
	-7.45058000E-09	 1.00000000E+00	 1.50000000E+00
	-7.45058000E-09	-1.49012000E-08	 2.00000000E+00
	 2.50000000E-01	-1.49012000E-08	 2.00000000E+00
	-7.45058000E-09	-1.49012000E-08	 1.50000000E+00
	-7.45058000E-09	 2.50000000E-01	 2.00000000E+00
	 1.00000000E+00	 5.00000000E-01	 3.00000000E+00
	 1.00000000E+00	 1.00000000E+00	 3.00000000E+00
	 5.00000000E-01	 5.00000000E-01	 3.00000000E+00
	 5.00000000E-01	 1.00000000E+00	 3.00000000E+00
	 1.00000000E+00	 5.00000000E-01	 2.50000000E+00
	 1.00000000E+00	 7.50000000E-01	 3.00000000E+00
	 1.00000000E+00	 1.00000000E+00	 2.50000000E+00
	 7.50000000E-01	 5.00000000E-01	 3.00000000E+00
	 7.50000000E-01	 1.00000000E+00	 3.00000000E+00
	 5.00000000E-01	 5.00000000E-01	 2.50000000E+00
	 5.00000000E-01	 7.50000000E-01	 3.00000000E+00
	 5.00000000E-01	 1.00000000E+00	 2.50000000E+00
	 1.00000000E+00	-1.49012000E-08	 3.00000000E+00
	 5.00000000E-01	-1.49012000E-08	 3.00000000E+00
	 1.00000000E+00	-1.49012000E-08	 2.50000000E+00
	 1.00000000E+00	 2.50000000E-01	 3.00000000E+00
	 7.50000000E-01	-1.49012000E-08	 3.00000000E+00
	 5.00000000E-01	-1.49012000E-08	 2.50000000E+00
	 5.00000000E-01	 2.50000000E-01	 3.00000000E+00
	-7.45058000E-09	 5.00000000E-01	 3.00000000E+00
	-7.45058000E-09	 1.00000000E+00	 3.00000000E+00
	 2.50000000E-01	 5.00000000E-01	 3.00000000E+00
	 2.50000000E-01	 1.00000000E+00	 3.00000000E+00
	-7.45058000E-09	 5.00000000E-01	 2.50000000E+00
	-7.45058000E-09	 7.50000000E-01	 3.00000000E+00
	-7.45058000E-09	 1.00000000E+00	 2.50000000E+00
	-7.45058000E-09	-1.49012000E-08	 3.00000000E+00
	 2.50000000E-01	-1.49012000E-08	 3.00000000E+00
	-7.45058000E-09	-1.49012000E-08	 2.50000000E+00
	-7.45058000E-09	 2.50000000E-01	 3.00000000E+00
	 1.00000000E+00	 5.00000000E-01	 4.00000000E+00
	 1.00000000E+00	 1.00000000E+00	 4.00000000E+00
	 5.00000000E-01	 5.00000000E-01	 4.00000000E+00
	 5.00000000E-01	 1.00000000E+00	 4.00000000E+00
	 1.00000000E+00	 5.00000000E-01	 3.50000000E+00
	 1.00000000E+00	 7.50000000E-01	 4.00000000E+00
	 1.00000000E+00	 1.00000000E+00	 3.50000000E+00
	 7.50000000E-01	 5.00000000E-01	 4.00000000E+00
	 7.50000000E-01	 1.00000000E+00	 4.00000000E+00
	 5.00000000E-01	 5.00000000E-01	 3.50000000E+00
	 5.00000000E-01	 7.50000000E-01	 4.00000000E+00
	 5.00000000E-01	 1.00000000E+00	 3.50000000E+00
	 1.00000000E+00	-1.49012000E-08	 4.00000000E+00
	 5.00000000E-01	-1.49012000E-08	 4.00000000E+00
	 1.00000000E+00	-1.49012000E-08	 3.50000000E+00
	 1.00000000E+00	 2.50000000E-01	 4.00000000E+00
	 7.50000000E-01	-1.49012000E-08	 4.00000000E+00
	 5.00000000E-01	-1.49012000E-08	 3.50000000E+00
	 5.00000000E-01	 2.50000000E-01	 4.00000000E+00
	-7.45058000E-09	 5.00000000E-01	 4.00000000E+00
	-7.45058000E-09	 1.00000000E+00	 4.00000000E+00
	 2.50000000E-01	 5.00000000E-01	 4.00000000E+00
	 2.50000000E-01	 1.00000000E+00	 4.00000000E+00
	-7.45058000E-09	 5.00000000E-01	 3.50000000E+00
	-7.45058000E-09	 7.50000000E-01	 4.00000000E+00
	-7.45058000E-09	 1.00000000E+00	 3.50000000E+00
	-7.45058000E-09	-1.49012000E-08	 4.00000000E+00
	 2.50000000E-01	-1.49012000E-08	 4.00000000E+00
	-7.45058000E-09	-1.49012000E-08	 3.50000000E+00
	-7.45058000E-09	 2.50000000E-01	 4.00000000E+00
	 1.00000000E+00	 5.00000000E-01	 5.00000000E+00
	 1.00000000E+00	 1.00000000E+00	 5.00000000E+00
	 5.00000000E-01	 5.00000000E-01	 5.00000000E+00
	 5.00000000E-01	 1.00000000E+00	 5.00000000E+00
	 1.00000000E+00	 5.00000000E-01	 4.50000000E+00
	 1.00000000E+00	 7.50000000E-01	 5.00000000E+00
	 1.00000000E+00	 1.00000000E+00	 4.50000000E+00
	 7.50000000E-01	 5.00000000E-01	 5.00000000E+00
	 7.50000000E-01	 1.00000000E+00	 5.00000000E+00
	 5.00000000E-01	 5.00000000E-01	 4.50000000E+00
	 5.00000000E-01	 7.50000000E-01	 5.00000000E+00
	 5.00000000E-01	 1.00000000E+00	 4.50000000E+00
	 1.00000000E+00	-1.49012000E-08	 5.00000000E+00
	 5.00000000E-01	-1.49012000E-08	 5.00000000E+00
	 1.00000000E+00	-1.49012000E-08	 4.50000000E+00
	 1.00000000E+00	 2.50000000E-01	 5.00000000E+00
	 7.50000000E-01	-1.49012000E-08	 5.00000000E+00
	 5.00000000E-01	-1.49012000E-08	 4.50000000E+00
	 5.00000000E-01	 2.50000000E-01	 5.00000000E+00
	-7.45058000E-09	 5.00000000E-01	 5.00000000E+00
	-7.45058000E-09	 1.00000000E+00	 5.00000000E+00
	 2.50000000E-01	 5.00000000E-01	 5.00000000E+00
	 2.50000000E-01	 1.00000000E+00	 5.00000000E+00
	-7.45058000E-09	 5.00000000E-01	 4.50000000E+00
	-7.45058000E-09	 7.50000000E-01	 5.00000000E+00
	-7.45058000E-09	 1.00000000E+00	 4.50000000E+00
	-7.45058000E-09	-1.49012000E-08	 5.00000000E+00
	 2.50000000E-01	-1.49012000E-08	 5.00000000E+00
	-7.45058000E-09	-1.49012000E-08	 4.50000000E+00
	-7.45058000E-09	 2.50000000E-01	 5.00000000E+00
	 1.00000000E+00	 5.00000000E-01	 6.00000000E+00
	 1.00000000E+00	 1.00000000E+00	 6.00000000E+00
	 5.00000000E-01	 5.00000000E-01	 6.00000000E+00
	 5.00000000E-01	 1.00000000E+00	 6.00000000E+00
	 1.00000000E+00	 5.00000000E-01	 5.50000000E+00
	 1.00000000E+00	 7.50000000E-01	 6.00000000E+00
	 1.00000000E+00	 1.00000000E+00	 5.50000000E+00
	 7.50000000E-01	 5.00000000E-01	 6.00000000E+00
	 7.50000000E-01	 1.00000000E+00	 6.00000000E+00
	 5.00000000E-01	 5.00000000E-01	 5.50000000E+00
	 5.00000000E-01	 7.50000000E-01	 6.00000000E+00
	 5.00000000E-01	 1.00000000E+00	 5.50000000E+00
	 1.00000000E+00	-1.49012000E-08	 6.00000000E+00
	 5.00000000E-01	-1.49012000E-08	 6.00000000E+00
	 1.00000000E+00	-1.49012000E-08	 5.50000000E+00
	 1.00000000E+00	 2.50000000E-01	 6.00000000E+00
	 7.50000000E-01	-1.49012000E-08	 6.00000000E+00
	 5.00000000E-01	-1.49012000E-08	 5.50000000E+00
	 5.00000000E-01	 2.50000000E-01	 6.00000000E+00
	-7.45058000E-09	 5.00000000E-01	 6.00000000E+00
	-7.45058000E-09	 1.00000000E+00	 6.00000000E+00
	 2.50000000E-01	 5.00000000E-01	 6.00000000E+00
	 2.50000000E-01	 1.00000000E+00	 6.00000000E+00
	-7.45058000E-09	 5.00000000E-01	 5.50000000E+00
	-7.45058000E-09	 7.50000000E-01	 6.00000000E+00
	-7.45058000E-09	 1.00000000E+00	 5.50000000E+00
	-7.45058000E-09	-1.49012000E-08	 6.00000000E+00
	 2.50000000E-01	-1.49012000E-08	 6.00000000E+00
	-7.45058000E-09	-1.49012000E-08	 5.50000000E+00
	-7.45058000E-09	 2.50000000E-01	 6.00000000E+00
	 1.00000000E+00	 5.00000000E-01	 7.00000000E+00
[...]
POINT_DATA 522
FIELD U 1
	U 3 522 double
		 0.00000000E+00	 0.00000000E+00	 0.00000000E+00
		 0.00000000E+00	 0.00000000E+00	 0.00000000E+00
		 5.04938000E-06	 1.55112000E-03	-3.23904000E-05
		 3.60351000E-04	 1.75479000E-03	-2.39728000E-03
		 0.00000000E+00	 0.00000000E+00	 0.00000000E+00
		 0.00000000E+00	 0.00000000E+00	 0.00000000E+00
		-2.06099000E-07	 1.69182000E-03	-3.12539000E-05
		-6.37598000E-05	 1.90199000E-03	-2.40050000E-03
		 0.00000000E+00	 0.00000000E+00	 0.00000000E+00
		 3.45421000E-06	 7.78560000E-05	-1.37242000E-05
		 1.84553000E-04	 1.58721000E-03	-1.24580000E-03
		 3.04281000E-04	 2.86330000E-04	-1.04303000E-03
		 0.00000000E+00	 0.00000000E+00	 0.00000000E+00
		 0.00000000E+00	 0.00000000E+00	 0.00000000E+00
		 2.36600000E-06	 1.68540000E-03	-3.18085000E-05
		 1.46322000E-04	 1.89051000E-03	-2.38834000E-03
		 0.00000000E+00	 0.00000000E+00	 0.00000000E+00
		-1.52630000E-06	 1.91079000E-04	-1.26756000E-05
		-3.23589000E-05	 1.72873000E-03	-1.23763000E-03
		-5.42933000E-05	 3.97328000E-04	-9.94672000E-04
		 0.00000000E+00	 0.00000000E+00	 0.00000000E+00
		-3.52346000E-04	 1.75902000E-03	 2.33066000E-03
		 0.00000000E+00	 0.00000000E+00	 0.00000000E+00
		 6.28166000E-05	 1.90691000E-03	 2.33596000E-03
		 0.00000000E+00	 0.00000000E+00	 0.00000000E+00
		-2.98673000E-04	 2.80944000E-04	 1.01440000E-03
		-1.75287000E-04	 1.58987000E-03	 1.18050000E-03
		 0.00000000E+00	 0.00000000E+00	 0.00000000E+00
		-1.42631000E-04	 1.89529000E-03	 2.32283000E-03
		 0.00000000E+00	 0.00000000E+00	 0.00000000E+00
		 5.08455000E-05	 3.92540000E-04	 9.68481000E-04
		 3.18060000E-05	 1.73182000E-03	 1.17455000E-03
		 0.00000000E+00	 0.00000000E+00	 0.00000000E+00
		 0.00000000E+00	 0.00000000E+00	 0.00000000E+00
		-4.98824000E-06	 1.42454000E-03	-2.82812000E-05
		-4.97571000E-04	 1.61700000E-03	-2.39326000E-03
		 0.00000000E+00	 0.00000000E+00	 0.00000000E+00
		 0.00000000E+00	 0.00000000E+00	 0.00000000E+00
		-2.64162000E-06	 1.62119000E-03	-3.00116000E-05
		-2.79249000E-04	 1.82331000E-03	-2.38476000E-03
		 0.00000000E+00	 0.00000000E+00	 0.00000000E+00
		-6.22519000E-06	-2.73117000E-05	-1.25902000E-05
		-2.51351000E-04	 1.45450000E-03	-1.24355000E-03
		-4.12426000E-04	 1.80584000E-04	-1.04183000E-03
		 0.00000000E+00	 0.00000000E+00	 0.00000000E+00
		 4.88688000E-04	 1.62323000E-03	 2.33476000E-03
		 0.00000000E+00	 0.00000000E+00	 0.00000000E+00
		 2.73963000E-04	 1.82902000E-03	 2.32283000E-03
		 0.00000000E+00	 0.00000000E+00	 0.00000000E+00
		 4.00525000E-04	 1.76634000E-04	 1.01562000E-03
		 2.41917000E-04	 1.45827000E-03	 1.18643000E-03
		 1.18135000E-05	 8.91170000E-03	-9.45395000E-05
		 7.07249000E-04	 9.10589000E-03	-5.42666000E-03
		 6.47383000E-06	 9.40359000E-03	-9.69383000E-05
		 2.85545000E-04	 9.58943000E-03	-5.43028000E-03
		 8.87229000E-06	 4.51806000E-03	-5.79094000E-05
		 3.61207000E-04	 8.95874000E-03	-2.79417000E-03
		 4.71862000E-04	 4.73265000E-03	-3.91720000E-03
		 9.14832000E-06	 9.20935000E-03	-9.61480000E-05
		 4.95997000E-04	 9.39691000E-03	-5.38435000E-03
		 3.24267000E-06	 4.76806000E-03	-5.75296000E-05
		 1.44893000E-04	 9.44683000E-03	-2.75177000E-03
		 3.34475000E-05	 4.97403000E-03	-3.91968000E-03
		-6.85414000E-04	 9.15479000E-03	 5.23239000E-03
		-2.72974000E-04	 9.63883000E-03	 5.23152000E-03
		-4.55804000E-04	 4.75458000E-03	 3.79734000E-03
		-3.38233000E-04	 8.98383000E-03	 2.60369000E-03
		-4.78676000E-04	 9.44549000E-03	 5.18731000E-03
		-2.73573000E-05	 4.99641000E-03	 3.80082000E-03
		-1.32062000E-04	 9.47150000E-03	 2.55676000E-03
		 8.52398000E-07	 9.47032000E-03	-9.51389000E-05
		-1.55538000E-04	 9.64506000E-03	-5.42693000E-03
		 3.67315000E-06	 9.48643000E-03	-9.67344000E-05
		 6.41958000E-05	 9.66987000E-03	-5.48333000E-03
		-2.49618000E-06	 4.57891000E-03	-5.39529000E-05
		-7.46999000E-05	 9.50730000E-03	-2.69629000E-03
		-4.27112000E-04	 4.77107000E-03	-3.91303000E-03
		 1.58407000E-04	 9.69462000E-03	 5.23224000E-03
		-5.66320000E-05	 9.72051000E-03	 5.28477000E-03
		 4.23137000E-04	 4.79371000E-03	 3.80167000E-03
		 7.69758000E-05	 9.53103000E-03	 2.50531000E-03
		 2.42878000E-05	 2.13098000E-02	-2.08078000E-04
		 1.72556000E-03	 2.14765000E-02	-8.38632000E-03
		 2.02993000E-05	 2.27860000E-02	-2.26836000E-04
		 1.26884000E-03	 2.29505000E-02	-8.39724000E-03
		 1.69701000E-05	 1.45161000E-02	-1.44592000E-04
		 8.76153000E-04	 2.13341000E-02	-4.41306000E-03
		 1.12576000E-03	 1.47059000E-02	-6.87350000E-03
		 2.26928000E-05	 2.21059000E-02	-2.17368000E-04
		 1.49733000E-03	 2.22710000E-02	-8.29358000E-03
		 1.17106000E-05	 1.54259000E-02	-1.52214000E-04
		 6.43847000E-04	 2.28104000E-02	-4.33155000E-03
		 7.07441000E-04	 1.56037000E-02	-6.87700000E-03
		-1.67656000E-03	 2.16097000E-02	 7.96346000E-03
		-1.22559000E-03	 2.30790000E-02	 7.93685000E-03
		-1.09318000E-03	 1.47894000E-02	 6.57843000E-03
		-8.27769000E-04	 2.14046000E-02	 3.99442000E-03
		-1.45024000E-03	 2.23992000E-02	 7.85318000E-03
		-6.83304000E-04	 1.56862000E-02	 6.56700000E-03
		-6.02562000E-04	 2.28757000E-02	 3.87615000E-03
		 1.37190000E-05	 2.38041000E-02	-2.38978000E-04
		 8.01146000E-04	 2.39676000E-02	-8.41742000E-03
		 1.72214000E-05	 2.33522000E-02	-2.34561000E-04
		 1.03508000E-03	 2.35151000E-02	-8.49307000E-03
		 5.16353000E-06	 1.59070000E-02	-1.54727000E-04
		 4.07033000E-04	 2.38293000E-02	-4.26212000E-03
		 2.69078000E-04	 1.60795000E-02	-6.88353000E-03
		-7.68864000E-04	 2.40905000E-02	 7.93248000E-03
		-9.97025000E-04	 2.36439000E-02	 8.01614000E-03
		-2.56157000E-04	 1.61602000E-02	 6.56844000E-03
		-3.78070000E-04	 2.38888000E-02	 3.78309000E-03
		 3.06365000E-05	 3.95813000E-02	-3.98255000E-04
		 3.03540000E-03	 3.96785000E-02	-1.18723000E-02
		 3.25551000E-05	 4.23223000E-02	-4.63932000E-04
		 2.53486000E-03	 4.24354000E-02	-1.19479000E-02
		 3.09359000E-05	 2.95510000E-02	-2.88775000E-04
		 1.52839000E-03	 3.95622000E-02	-6.20187000E-03
		 2.40469000E-03	 2.96871000E-02	-1.00870000E-02
		 3.26009000E-05	 4.10149000E-02	-4.32200000E-04
		 2.78641000E-03	 4.11258000E-02	-1.18269000E-02
		 2.89449000E-05	 3.16698000E-02	-3.27927000E-04
		 1.28325000E-03	 4.23122000E-02	-6.18758000E-03
		 1.90516000E-03	 3.18157000E-02	-1.01214000E-02
		-2.97055000E-03	 3.99586000E-02	 1.10642000E-02
		-2.46350000E-03	 4.27038000E-02	 1.10083000E-02
		-2.34031000E-03	 2.98870000E-02	 9.50092000E-03
		-1.46678000E-03	 3.97059000E-02	 5.40233000E-03
		-2.71607000E-03	 4.13965000E-02	 1.09512000E-02
		-1.84238000E-03	 3.20062000E-02	 9.45667000E-03
		-1.21671000E-03	 4.24464000E-02	 5.25703000E-03
		 2.82573000E-05	 4.45783000E-02	-5.17796000E-04
		 2.03275000E-03	 4.46930000E-02	-1.19921000E-02
		 3.10891000E-05	 4.35143000E-02	-4.92905000E-04
		 2.28464000E-03	 4.36274000E-02	-1.20647000E-02
		 2.23111000E-05	 3.32979000E-02	-3.57807000E-04
		 1.03187000E-03	 4.45725000E-02	-6.14469000E-03
		 1.40237000E-03	 3.34453000E-02	-1.01565000E-02
		-1.96725000E-03	 4.49473000E-02	 1.09453000E-02
		-2.21504000E-03	 4.38935000E-02	 1.10667000E-02
		-1.35032000E-03	 3.36253000E-02	 9.43186000E-03
		-9.72844000E-04	 4.46952000E-02	 5.10705000E-03
		 1.29009000E-05	 6.51699000E-02	-7.37909000E-04
		 3.85520000E-03	 6.50856000E-02	-1.49324000E-02
		 2.37193000E-05	 6.88678000E-02	-8.55558000E-04
		 3.59183000E-03	 6.87916000E-02	-1.50840000E-02
		 2.44330000E-05	 5.15640000E-02	-5.48217000E-04
		 1.93221000E-03	 6.50931000E-02	-7.81319000E-03
		 3.51053000E-03	 5.15674000E-02	-1.35585000E-02
		 1.90593000E-05	 6.70532000E-02	-7.98148000E-04
		 3.72430000E-03	 6.69754000E-02	-1.49630000E-02
		 3.03044000E-05	 5.48296000E-02	-6.41035000E-04
		 1.80719000E-03	 6.87962000E-02	-7.89719000E-03
		 3.09823000E-03	 5.48495000E-02	-1.36774000E-02
		-3.82567000E-03	 6.55168000E-02	 1.34483000E-02
		-3.53982000E-03	 6.92150000E-02	 1.33647000E-02
		-3.45763000E-03	 5.19285000E-02	 1.24508000E-02
		-1.90574000E-03	 6.53075000E-02	 6.33546000E-03
		-3.68201000E-03	 6.74002000E-02	 1.33584000E-02
		-3.03187000E-03	 5.52002000E-02	 1.23837000E-02
		-1.75876000E-03	 6.90039000E-02	 6.18418000E-03
		 2.93042000E-05	 7.22983000E-02	-9.63678000E-04
		 3.32672000E-03	 7.22275000E-02	-1.51580000E-02
		 2.72029000E-05	 7.06177000E-02	-9.10795000E-04
		 3.46002000E-03	 7.05420000E-02	-1.52100000E-02
		 3.02232000E-05	 5.76919000E-02	-7.21825000E-04
		 1.67800000E-03	 7.22322000E-02	-7.90449000E-03
		 2.68945000E-03	 5.77170000E-02	-1.37323000E-02
		-3.26236000E-03	 7.26385000E-02	 1.32231000E-02
		-3.40054000E-03	 7.09646000E-02	 1.33804000E-02
		-2.62136000E-03	 5.80535000E-02	 1.22778000E-02
		-1.61792000E-03	 7.24288000E-02	 5.97546000E-03
		-2.75860000E-05	 9.46418000E-02	-1.17893000E-03
		 4.46184000E-03	 9.43873000E-02	-1.60643000E-02
		-8.98314000E-06	 9.91569000E-02	-1.33540000E-03
		 4.52381000E-03	 9.88961000E-02	-1.62428000E-02
		-3.91813000E-06	 7.97819000E-02	-9.54473000E-04
		 2.22022000E-03	 9.45227000E-02	-8.63829000E-03
		 4.14166000E-03	 7.96082000E-02	-1.57368000E-02
		-1.82862000E-05	 9.68927000E-02	-1.25762000E-03
		 4.49278000E-03	 9.66341000E-02	-1.60941000E-02
		 1.08015000E-05	 8.38773000E-02	-1.09333000E-03
		 2.25751000E-03	 9.90375000E-02	-8.74357000E-03
		 4.05640000E-03	 8.37006000E-02	-1.59110000E-02
		-4.51756000E-03	 9.48682000E-02	 1.37079000E-02
		-4.54182000E-03	 9.93787000E-02	 1.35744000E-02
		-4.14754000E-03	 8.00772000E-02	 1.38242000E-02
		-2.27546000E-03	 9.47642000E-02	 6.28069000E-03
		-4.52976000E-03	 9.71125000E-02	 1.35806000E-02
		-4.03230000E-03	 8.41667000E-02	 1.37216000E-02
		-2.27543000E-03	 9.92762000E-02	 6.07306000E-03
		 9.23063000E-06	 1.03702000E-01	-1.49248000E-03
		 4.58917000E-03	 1.03451000E-01	-1.63770000E-02
		 1.45171000E-07	 1.01423000E-01	-1.41314000E-03
		 4.55648000E-03	 1.01162000E-01	-1.63944000E-02
		 2.26165000E-05	 8.78662000E-02	-1.22781000E-03
		 2.29628000E-03	 1.03589000E-01	-8.80620000E-03
		 3.96578000E-03	 8.76954000E-02	-1.60092000E-02
		-4.57005000E-03	 1.03932000E-01	 1.33945000E-02
		-4.55588000E-03	 1.01649000E-01	 1.35711000E-02
		-3.91709000E-03	 8.81532000E-02	 1.35515000E-02
		-2.27749000E-03	 1.03821000E-01	 5.82123000E-03
		-8.54732000E-05	 1.23177000E-01	-1.59846000E-03
		 5.23627000E-03	 1.22895000E-01	-1.58433000E-02
		-5.85968000E-05	 1.28540000E-01	-1.77766000E-03
		 5.35248000E-03	 1.28262000E-01	-1.60179000E-02
		-5.56732000E-05	 1.09149000E-01	-1.39569000E-03
		 2.57567000E-03	 1.23047000E-01	-8.79279000E-03
		 4.85294000E-03	 1.08878000E-01	-1.60046000E-02
		-7.21179000E-05	 1.25846000E-01	-1.68760000E-03
		 5.29487000E-03	 1.25568000E-01	-1.58722000E-02
		-3.31135000E-05	 1.14108000E-01	-1.56492000E-03
		 2.64833000E-03	 1.28414000E-01	-8.91374000E-03
		 4.97438000E-03	 1.13832000E-01	-1.61793000E-02
		-5.40937000E-03	 1.23356000E-01	 1.26491000E-02
		-5.47124000E-03	 1.28725000E-01	 1.24650000E-02
		-4.96611000E-03	 1.09350000E-01	 1.32158000E-02
		-2.74717000E-03	 1.23282000E-01	 5.59639000E-03
		-5.44092000E-03	 1.26027000E-01	 1.24995000E-02
		-5.04179000E-03	 1.14308000E-01	 1.30525000E-02
		-2.76585000E-03	 1.28647000E-01	 5.35879000E-03
		-3.02554000E-05	 1.33993000E-01	-1.95862000E-03
		 5.48590000E-03	 1.33725000E-01	-1.62069000E-02
		-4.48218000E-05	 1.31255000E-01	-1.86801000E-03
		 5.41926000E-03	 1.30976000E-01	-1.61589000E-02
		-9.59288000E-06	 1.19158000E-01	-1.73691000E-03
		 2.72550000E-03	 1.33874000E-01	-9.05104000E-03
		 5.10561000E-03	 1.18893000E-01	-1.63461000E-02
		-5.54739000E-03	 1.34192000E-01	 1.22913000E-02
		-5.51025000E-03	 1.31444000E-01	 1.24252000E-02
		-5.12529000E-03	 1.19371000E-01	 1.28748000E-02
		-2.78605000E-03	 1.34106000E-01	 5.13382000E-03
		-1.48833000E-04	 1.50684000E-01	-1.98041000E-03
		 5.64793000E-03	 1.50429000E-01	-1.59419000E-02
		-1.13633000E-04	 1.56462000E-01	-2.17133000E-03
		 5.67126000E-03	 1.56227000E-01	-1.61290000E-02
		-1.17101000E-04	 1.36887000E-01	-1.78924000E-03
		 2.74756000E-03	 1.50555000E-01	-8.97970000E-03
		 5.53572000E-03	 1.36627000E-01	-1.58211000E-02
		-1.31385000E-04	 1.53572000E-01	-2.07614000E-03
		 5.65884000E-03	 1.53330000E-01	-1.60248000E-02
		-8.55426000E-05	 1.42549000E-01	-1.97668000E-03
		 2.77824000E-03	 1.56343000E-01	-9.15954000E-03
		 5.60224000E-03	 1.42300000E-01	-1.60019000E-02
		-5.94479000E-03	 1.50884000E-01	 1.19807000E-02
		-5.89917000E-03	 1.56680000E-01	 1.17848000E-02
		-5.77019000E-03	 1.37084000E-01	 1.22429000E-02
		-3.04525000E-03	 1.50783000E-01	 5.01910000E-03
		-5.92133000E-03	 1.53783000E-01	 1.18716000E-02
		-5.77423000E-03	 1.42756000E-01	 1.20481000E-02
		-3.00587000E-03	 1.56569000E-01	 4.81669000E-03
		-7.82539000E-05	 1.62260000E-01	-2.35960000E-03
		 5.72183000E-03	 1.62035000E-01	-1.63341000E-02
		-9.56673000E-05	 1.59364000E-01	-2.26597000E-03
		 5.69810000E-03	 1.59131000E-01	-1.62339000E-02
		-5.33766000E-05	 1.48257000E-01	-2.16301000E-03
		 2.81933000E-03	 1.62147000E-01	-9.35434000E-03
		 5.68697000E-03	 1.48016000E-01	-1.62038000E-02
		-5.88040000E-03	 1.62492000E-01	 1.16127000E-02
		-5.89107000E-03	 1.59586000E-01	 1.17004000E-02
		-5.79519000E-03	 1.48476000E-01	 1.18767000E-02
		-2.97647000E-03	 1.62375000E-01	 4.63443000E-03
		 0.00000000E+00	 0.00000000E+00	 0.00000000E+00
		 0.00000000E+00	 0.00000000E+00	 0.00000000E+00
		-1.38102000E-04	-8.67005000E-03	 2.98049000E-04
		-1.44512000E-03	-9.32266000E-03	 8.92565000E-03
		 0.00000000E+00	 0.00000000E+00	 0.00000000E+00
		 0.00000000E+00	 0.00000000E+00	 0.00000000E+00
		-9.57807000E-05	-9.38059000E-03	 2.06424000E-04
		-2.39463000E-04	-1.00682000E-02	 8.93074000E-03
		 0.00000000E+00	 0.00000000E+00	 0.00000000E+00
		-6.94460000E-05	-1.74775000E-03	 1.59276000E-04
		-7.94005000E-04	-8.79320000E-03	 4.53902000E-03
		-1.42126000E-03	-2.56235000E-03	 4.48650000E-03
		 0.00000000E+00	 0.00000000E+00	 0.00000000E+00
		 0.00000000E+00	 0.00000000E+00	 0.00000000E+00
		-1.14637000E-04	-9.21981000E-03	 2.47702000E-04
		-8.32012000E-04	-9.89021000E-03	 8.90580000E-03
		 0.00000000E+00	 0.00000000E+00	 0.00000000E+00
		-2.73276000E-05	-2.37856000E-03	 1.04777000E-04
		-1.69960000E-04	-9.51331000E-03	 4.47210000E-03
		-7.14064000E-05	-3.18679000E-03	 4.30714000E-03
		 0.00000000E+00	 0.00000000E+00	 0.00000000E+00
		 1.16792000E-03	-9.05163000E-03	-8.36353000E-03
		 0.00000000E+00	 0.00000000E+00	 0.00000000E+00
		 5.70482000E-05	-9.80641000E-03	-8.55328000E-03
		 0.00000000E+00	 0.00000000E+00	 0.00000000E+00
		 1.28434000E-03	-2.39235000E-03	-4.15828000E-03
		 5.16062000E-04	-8.65696000E-03	-3.95507000E-03
		 0.00000000E+00	 0.00000000E+00	 0.00000000E+00
		 6.07745000E-04	-9.62063000E-03	-8.44556000E-03
		 0.00000000E+00	 0.00000000E+00	 0.00000000E+00
		 2.74662000E-05	-3.04219000E-03	-4.08623000E-03
		-2.16858000E-05	-9.38109000E-03	-4.07293000E-03
		 0.00000000E+00	 0.00000000E+00	 0.00000000E+00
		 0.00000000E+00	 0.00000000E+00	 0.00000000E+00
		-6.27265000E-05	-8.96245000E-03	 1.31825000E-04
		 9.67277000E-04	-9.58985000E-03	 8.76396000E-03
		 0.00000000E+00	 0.00000000E+00	 0.00000000E+00
		 0.00000000E+00	 0.00000000E+00	 0.00000000E+00
		-7.74980000E-05	-9.36545000E-03	 1.66258000E-04
		 3.57667000E-04	-1.00195000E-02	 8.86428000E-03
		 0.00000000E+00	 0.00000000E+00	 0.00000000E+00
		 9.40357000E-07	-1.84473000E-03	 7.69154000E-05
		 4.50645000E-04	-9.07299000E-03	 4.33641000E-03
		 1.27043000E-03	-2.62980000E-03	 4.40300000E-03
		 0.00000000E+00	 0.00000000E+00	 0.00000000E+00
		-1.07585000E-03	-9.35102000E-03	-8.52906000E-03
		 0.00000000E+00	 0.00000000E+00	 0.00000000E+00
		-5.01847000E-04	-9.77218000E-03	-8.56369000E-03
		 0.00000000E+00	 0.00000000E+00	 0.00000000E+00
		-1.25143000E-03	-2.50609000E-03	-4.24341000E-03
		-5.71795000E-04	-8.95326000E-03	-4.08358000E-03
		-3.62444000E-04	-3.41283000E-02	 2.77061000E-04
		-1.84964000E-03	-3.47880000E-02	 1.56132000E-02
		-3.22455000E-04	-3.52413000E-02	 1.13390000E-04
		-1.06395000E-03	-3.58866000E-02	 1.54998000E-02
		-2.35670000E-04	-1.97175000E-02	 3.38974000E-04
		-1.10965000E-03	-3.43757000E-02	 7.88304000E-03
		-1.58741000E-03	-2.04440000E-02	 1.26892000E-02
		-3.42074000E-04	-3.47689000E-02	 1.90325000E-04
		-1.45530000E-03	-3.54148000E-02	 1.55174000E-02
		-1.97282000E-04	-2.05755000E-02	 2.08793000E-04
		-6.86606000E-04	-3.54806000E-02	 7.70705000E-03
		-5.55873000E-04	-2.12838000E-02	 1.26147000E-02
		 1.12866000E-03	-3.42189000E-02	-1.50956000E-02
		 4.18690000E-04	-3.53326000E-02	-1.53064000E-02
		 1.11260000E-03	-2.00298000E-02	-1.20533000E-02
		 3.84952000E-04	-3.40953000E-02	-7.33802000E-03
		 7.75350000E-04	-3.48590000E-02	-1.51690000E-02
		 1.67937000E-04	-2.08828000E-02	-1.22381000E-02
		 4.62121000E-05	-3.52098000E-02	-7.48504000E-03
		-2.93931000E-04	-3.56026000E-02	-2.74368000E-05
		-2.41284000E-04	-3.62073000E-02	 1.53101000E-02
		-3.07731000E-04	-3.55003000E-02	 4.25528000E-05
		-6.50139000E-04	-3.61652000E-02	 1.55017000E-02
		-1.68514000E-04	-2.04377000E-02	 1.01824000E-04
		-2.78060000E-04	-3.58141000E-02	 7.44904000E-03
		 4.96571000E-04	-2.11155000E-02	 1.24553000E-02
		-3.14810000E-04	-3.56849000E-02	-1.53973000E-02
		 5.07897000E-05	-3.55932000E-02	-1.54527000E-02
		-8.07156000E-04	-2.07419000E-02	-1.22879000E-02
		-3.00440000E-04	-3.55642000E-02	-7.50690000E-03
		-6.31562000E-04	-6.89745000E-02	-9.91837000E-05
		-3.04815000E-03	-6.95176000E-02	 1.88454000E-02
		-5.94369000E-04	-7.11700000E-02	-3.03546000E-04
		-2.62147000E-03	-7.18132000E-02	 1.86709000E-02
		-4.96436000E-04	-5.08047000E-02	 1.25832000E-04
		-1.83745000E-03	-6.91993000E-02	 9.41566000E-03
		-2.33414000E-03	-5.14387000E-02	 1.75701000E-02
		-6.11311000E-04	-7.01242000E-02	-1.99768000E-04
		-2.83686000E-03	-7.07244000E-02	 1.86470000E-02
		-4.59987000E-04	-5.23749000E-02	-6.31456000E-05
		-1.63158000E-03	-7.14461000E-02	 9.10552000E-03
		-1.76348000E-03	-5.30015000E-02	 1.74284000E-02
		 1.74707000E-03	-6.87734000E-02	-1.90468000E-02
		 1.43144000E-03	-7.09749000E-02	-1.93142000E-02
		 1.33456000E-03	-5.07552000E-02	-1.73465000E-02
		 5.61628000E-04	-6.88270000E-02	-9.60825000E-03
		 1.58772000E-03	-6.99193000E-02	-1.90770000E-02
		 8.47971000E-04	-5.23066000E-02	-1.75810000E-02
		 4.19377000E-04	-7.10337000E-02	-9.73692000E-03
		-5.65509000E-04	-7.30005000E-02	-4.98135000E-04
		-2.28678000E-03	-7.37565000E-02	 1.84430000E-02
		-5.79221000E-04	-7.21458000E-02	-4.04111000E-04
		-2.45623000E-03	-7.27206000E-02	 1.87017000E-02
		-4.21916000E-04	-5.33995000E-02	-2.35064000E-04
		-1.39453000E-03	-7.33325000E-02	 8.74534000E-03
		-1.20538000E-03	-5.40415000E-02	 1.72142000E-02
		 1.11337000E-03	-7.28321000E-02	-1.95017000E-02
		 1.27261000E-03	-7.19402000E-02	-1.95479000E-02
		 3.27347000E-04	-5.33269000E-02	-1.77117000E-02
		 2.64857000E-04	-7.28898000E-02	-9.78916000E-03
		-8.10032000E-04	-1.08043000E-01	-7.02636000E-04
		-4.58822000E-03	-1.08420000E-01	 1.96743000E-02
		-7.76520000E-04	-1.11824000E-01	-9.14218000E-04
		-4.59823000E-03	-1.12665000E-01	 1.94891000E-02
		-7.69958000E-04	-8.81436000E-02	-3.78351000E-04
		-2.69701000E-03	-1.08223000E-01	 9.52817000E-03
		-3.86119000E-03	-8.87017000E-02	 1.94934000E-02
		-7.92261000E-04	-1.09908000E-01	-8.07662000E-04
		-4.58405000E-03	-1.10462000E-01	 1.94993000E-02
		-7.39325000E-04	-9.11582000E-02	-6.34371000E-04
		-2.56442000E-03	-1.12219000E-01	 9.24092000E-03
		-3.66731000E-03	-9.16640000E-02	 1.93479000E-02
		 2.79923000E-03	-1.07638000E-01	-2.10848000E-02
		 2.74903000E-03	-1.11268000E-01	-2.13170000E-02
		 2.29419000E-03	-8.78286000E-02	-2.02596000E-02
		 9.91711000E-04	-1.07835000E-01	-1.09322000E-02
		 2.77754000E-03	-1.09462000E-01	-2.11198000E-02
		 2.11851000E-03	-9.08018000E-02	-2.05224000E-02
		 9.74474000E-04	-1.11516000E-01	-1.10711000E-02
		-8.80995000E-04	-1.15564000E-01	-1.12819000E-03
		-4.47555000E-03	-1.16762000E-01	 1.92562000E-02
		-8.27102000E-04	-1.13665000E-01	-1.02274000E-03
		-4.53587000E-03	-1.15212000E-01	 1.94781000E-02
		-7.34492000E-04	-9.39631000E-02	-9.11157000E-04
		-2.79710000E-03	-1.16118000E-01	 8.90869000E-03
		-3.30887000E-03	-9.43517000E-02	 1.91045000E-02
		 2.71732000E-03	-1.14850000E-01	-2.15033000E-02