# vtk DataFile Version 3.0

ASCII
DATASET UNSTRUCTURED_GRID

POINTS 522 double
	 1.00000000E+00	 1.00000000E+00	-5.96046000E-08
	 1.00000000E+00	 5.00000000E-01	-5.96046000E-08
	 1.00000000E+00	 5.00000000E-01	 1.00000000E+00
	 1.00000000E+00	 1.00000000E+00	 1.00000000E+00
	 5.00000000E-01	 1.00000000E+00	-5.96046000E-08
	 5.00000000E-01	 5.00000000E-01	-5.96046000E-08
	 5.00000000E-01	 5.00000000E-01	 1.00000000E+00
	 5.00000000E-01	 1.00000000E+00	 1.00000000E+00
	 1.00000000E+00	 7.50000000E-01	-5.96046000E-08
	 1.00000000E+00	 5.00000000E-01	 5.00000000E-01
	 1.00000000E+00	 7.50000000E-01	 1.00000000E+00
	 1.00000000E+00	 1.00000000E+00	 5.00000000E-01
	 7.50000000E-01	 1.00000000E+00	-5.96046000E-08
	 7.50000000E-01	 5.00000000E-01	-5.96046000E-08
	 7.50000000E-01	 5.00000000E-01	 1.00000000E+00
	 7.50000000E-01	 1.00000000E+00	 1.00000000E+00
	 5.00000000E-01	 7.50000000E-01	-5.96046000E-08
	 5.00000000E-01	 5.00000000E-01	 5.00000000E-01
	 5.00000000E-01	 7.50000000E-01	 1.00000000E+00
	 5.00000000E-01	 1.00000000E+00	 5.00000000E-01
	 1.00000000E+00	-1.49012000E-08	-5.96046000E-08
	 1.00000000E+00	-1.49012000E-08	 1.00000000E+00
	 5.00000000E-01	-1.49012000E-08	-5.96046000E-08
	 5.00000000E-01	-1.49012000E-08	 1.00000000E+00
	 1.00000000E+00	 2.50000000E-01	-5.96046000E-08
	 1.00000000E+00	-1.49012000E-08	 5.00000000E-01
	 1.00000000E+00	 2.50000000E-01	 1.00000000E+00
	 7.50000000E-01	-1.49012000E-08	-5.96046000E-08
	 7.50000000E-01	-1.49012000E-08	 1.00000000E+00
	 5.00000000E-01	 2.50000000E-01	-5.96046000E-08
	 5.00000000E-01	-1.49012000E-08	 5.00000000E-01
	 5.00000000E-01	 2.50000000E-01	 1.00000000E+00
	-7.45058000E-09	 1.00000000E+00	-5.96046000E-08
	-7.45058000E-09	 5.00000000E-01	-5.96046000E-08
	-7.45058000E-09	 5.00000000E-01	 1.00000000E+00
	-7.45058000E-09	 1.00000000E+00	 1.00000000E+00
	 2.50000000E-01	 1.00000000E+00	-5.96046000E-08
	 2.50000000E-01	 5.00000000E-01	-5.96046000E-08
	 2.50000000E-01	 5.00000000E-01	 1.00000000E+00
	 2.50000000E-01	 1.00000000E+00	 1.00000000E+00
	-7.45058000E-09	 7.50000000E-01	-5.96046000E-08
	-7.45058000E-09	 5.00000000E-01	 5.00000000E-01
	-7.45058000E-09	 7.50000000E-01	 1.00000000E+00
	-7.45058000E-09	 1.00000000E+00	 5.00000000E-01
	-7.45058000E-09	-1.49012000E-08	-5.96046000E-08
	-7.45058000E-09	-1.49012000E-08	 1.00000000E+00
	 2.50000000E-01	-1.49012000E-08	-5.96046000E-08
	 2.50000000E-01	-1.49012000E-08	 1.00000000E+00
	-7.45058000E-09	 2.50000000E-01	-5.96046000E-08
	-7.45058000E-09	-1.49012000E-08	 5.00000000E-01
	-7.45058000E-09	 2.50000000E-01	 1.00000000E+00
	 1.00000000E+00	 5.00000000E-01	 2.00000000E+00
	 1.00000000E+00	 1.00000000E+00	 2.00000000E+00
	 5.00000000E-01	 5.00000000E-01	 2.00000000E+00
	 5.00000000E-01	 1.00000000E+00	 2.00000000E+00
	 1.00000000E+00	 5.00000000E-01	 1.50000000E+00
	 1.00000000E+00	 7.50000000E-01	 2.00000000E+00
	 1.00000000E+00	 1.00000000E+00	 1.50000000E+00
	 7.50000000E-01	 5.00000000E-01	 2.00000000E+00
	 7.50000000E-01	 1.00000000E+00	 2.00000000E+00
	 5.00000000E-01	 5.00000000E-01	 1.50000000E+00
	 5.00000000E-01	 7.50000000E-01	 2.00000000E+00
	 5.00000000E-01	 1.00000000E+00	 1.50000000E+00
	 1.00000000E+00	-1.49012000E-08	 2.00000000E+00
	 5.00000000E-01	-1.49012000E-08	 2.00000000E+00
	 1.00000000E+00	-1.49012000E-08	 1.50000000E+00
	 1.00000000E+00	 2.50000000E-01	 2.00000000E+00
	 7.50000000E-01	-1.49012000E-08	 2.00000000E+00
	 5.00000000E-01	-1.49012000E-08	 1.50000000E+00
	 5.00000000E-01	 2.50000000E-01	 2.00000000E+00
	-7.45058000E-09	 5.00000000E-01	 2.00000000E+00
	-7.45058000E-09	 1.00000000E+00	 2.00000000E+00
	 2.50000000E-01	 5.00000000E-01	 2.00000000E+00
	 2.50000000E-01	 1.00000000E+00	 2.00000000E+00
	-7.45058000E-09	 5.00000000E-01	 1.50000000E+00
	-7.45058000E-09	 7.50000000E-01	 2.00000000E+00
	-7.45058000E-09	 1.00000000E+00	 1.50000000E+00
	-7.45058000E-09	-1.49012000E-08	 2.00000000E+00
	 2.50000000E-01	-1.49012000E-08	 2.00000000E+00
	-7.45058000E-09	-1.49012000E-08	 1.50000000E+00
	-7.45058000E-09	 2.50000000E-01	 2.00000000E+00
	 1.00000000E+00	 5.00000000E-01	 3.00000000E+00
	 1.00000000E+00	 1.00000000E+00	 3.00000000E+00
	 5.00000000E-01	 5.00000000E-01	 3.00000000E+00
	 5.00000000E-01	 1.00000000E+00	 3.00000000E+00
	 1.00000000E+00	 5.00000000E-01	 2.50000000E+00
	 1.00000000E+00	 7.50000000E-01	 3.00000000E+00
	 1.00000000E+00	 1.00000000E+00	 2.50000000E+00
	 7.50000000E-01	 5.00000000E-01	 3.00000000E+00
	 7.50000000E-01	 1.00000000E+00	 3.00000000E+00
	 5.00000000E-01	 5.00000000E-01	 2.50000000E+00
	 5.00000000E-01	 7.50000000E-01	 3.00000000E+00
	 5.00000000E-01	 1.00000000E+00	 2.50000000E+00
	 1.00000000E+00	-1.49012000E-08	 3.00000000E+00
	 5.00000000E-01	-1.49012000E-08	 3.00000000E+00
	 1.00000000E+00	-1.49012000E-08	 2.50000000E+00
	 1.00000000E+00	 2.50000000E-01	 3.00000000E+00
	 7.50000000E-01	-1.49012000E-08	 3.00000000E+00
	 5.00000000E-01	-1.49012000E-08	 2.50000000E+00
	 5.00000000E-01	 2.50000000E-01	 3.00000000E+00
	-7.45058000E-09	 5.00000000E-01	 3.00000000E+00
	-7.45058000E-09	 1.00000000E+00	 3.00000000E+00
	 2.50000000E-01	 5.00000000E-01	 3.00000000E+00
	 2.50000000E-01	 1.00000000E+00	 3.00000000E+00
	-7.45058000E-09	 5.00000000E-01	 2.50000000E+00
	-7.45058000E-09	 7.50000000E-01	 3.00000000E+00
	-7.45058000E-09	 1.00000000E+00	 2.50000000E+00
	-7.45058000E-09	-1.49012000E-08	 3.00000000E+00
	 2.50000000E-01	-1.49012000E-08	 3.00000000E+00
	-7.45058000E-09	-1.49012000E-08	 2.50000000E+00
	-7.45058000E-09	 2.50000000E-01	 3.00000000E+00
	 1.00000000E+00	 5.00000000E-01	 4.00000000E+00
	 1.00000000E+00	 1.00000000E+00	 4.00000000E+00
	 5.00000000E-01	 5.00000000E-01	 4.00000000E+00
	 5.00000000E-01	 1.00000000E+00	 4.00000000E+00
	 1.00000000E+00	 5.00000000E-01	 3.50000000E+00
	 1.00000000E+00	 7.50000000E-01	 4.00000000E+00
	 1.00000000E+00	 1.00000000E+00	 3.50000000E+00
	 7.50000000E-01	 5.00000000E-01	 4.00000000E+00
	 7.50000000E-01	 1.00000000E+00	 4.00000000E+00
	 5.00000000E-01	 5.00000000E-01	 3.50000000E+00
	 5.00000000E-01	 7.50000000E-01	 4.00000000E+00
	 5.00000000E-01	 1.00000000E+00	 3.50000000E+00
	 1.00000000E+00	-1.49012000E-08	 4.00000000E+00
	 5.00000000E-01	-1.49012000E-08	 4.00000000E+00
	 1.00000000E+00	-1.49012000E-08	 3.50000000E+00
	 1.00000000E+00	 2.50000000E-01	 4.00000000E+00
	 7.50000000E-01	-1.49012000E-08	 4.00000000E+00
	 5.00000000E-01	-1.49012000E-08	 3.50000000E+00
	 5.00000000E-01	 2.50000000E-01	 4.00000000E+00
	-7.45058000E-09	 5.00000000E-01	 4.00000000E+00
	-7.45058000E-09	 1.00000000E+00	 4.00000000E+00
	 2.50000000E-01	 5.00000000E-01	 4.00000000E+00
	 2.50000000E-01	 1.00000000E+00	 4.00000000E+00
	-7.45058000E-09	 5.00000000E-01	 3.50000000E+00
	-7.45058000E-09	 7.50000000E-01	 4.00000000E+00
	-7.45058000E-09	 1.00000000E+00	 3.50000000E+00
	-7.45058000E-09	-1.49012000E-08	 4.00000000E+00
	 2.50000000E-01	-1.49012000E-08	 4.00000000E+00
	-7.45058000E-09	-1.49012000E-08	 3.50000000E+00
	-7.45058000E-09	 2.50000000E-01	 4.00000000E+00
	 1.00000000E+00	 5.00000000E-01	 5.00000000E+00
	 1.00000000E+00	 1.00000000E+00	 5.00000000E+00
	 5.00000000E-01	 5.00000000E-01	 5.00000000E+00
	 5.00000000E-01	 1.00000000E+00	 5.00000000E+00
	 1.00000000E+00	 5.00000000E-01	 4.50000000E+00
	 1.00000000E+00	 7.50000000E-01	 5.00000000E+00
	 1.00000000E+00	 1.00000000E+00	 4.50000000E+00
	 7.50000000E-01	 5.00000000E-01	 5.00000000E+00
	 7.50000000E-01	 1.00000000E+00	 5.00000000E+00
	 5.00000000E-01	 5.00000000E-01	 4.50000000E+00
	 5.00000000E-01	 7.50000000E-01	 5.00000000E+00
	 5.00000000E-01	 1.00000000E+00	 4.50000000E+00
	 1.00000000E+00	-1.49012000E-08	 5.00000000E+00
	 5.00000000E-01	-1.49012000E-08	 5.00000000E+00
	 1.00000000E+00	-1.49012000E-08	 4.50000000E+00
	 1.00000000E+00	 2.50000000E-01	 5.00000000E+00
	 7.50000000E-01	-1.49012000E-08	 5.00000000E+00
	 5.00000000E-01	-1.49012000E-08	 4.50000000E+00
	 5.00000000E-01	 2.50000000E-01	 5.00000000E+00
	-7.45058000E-09	 5.00000000E-01	 5.00000000E+00
	-7.45058000E-09	 1.00000000E+00	 5.00000000E+00
	 2.50000000E-01	 5.00000000E-01	 5.00000000E+00
	 2.50000000E-01	 1.00000000E+00	 5.00000000E+00
	-7.45058000E-09	 5.00000000E-01	 4.50000000E+00
	-7.45058000E-09	 7.50000000E-01	 5.00000000E+00
	-7.45058000E-09	 1.00000000E+00	 4.50000000E+00
	-7.45058000E-09	-1.49012000E-08	 5.00000000E+00
	 2.50000000E-01	-1.49012000E-08	 5.00000000E+00
	-7.45058000E-09	-1.49012000E-08	 4.50000000E+00
	-7.45058000E-09	 2.50000000E-01	 5.00000000E+00
	 1.00000000E+00	 5.00000000E-01	 6.00000000E+00
	 1.00000000E+00	 1.00000000E+00	 6.00000000E+00
	 5.00000000E-01	 5.00000000E-01	 6.00000000E+00
	 5.00000000E-01	 1.00000000E+00	 6.00000000E+00
	 1.00000000E+00	 5.00000000E-01	 5.50000000E+00
	 1.00000000E+00	 7.50000000E-01	 6.00000000E+00
	 1.00000000E+00	 1.00000000E+00	 5.50000000E+00
	 7.50000000E-01	 5.00000000E-01	 6.00000000E+00
	 7.50000000E-01	 1.00000000E+00	 6.00000000E+00
	 5.00000000E-01	 5.00000000E-01	 5.50000000E+00
	 5.00000000E-01	 7.50000000E-01	 6.00000000E+00
	 5.00000000E-01	 1.00000000E+00	 5.50000000E+00
	 1.00000000E+00	-1.49012000E-08	 6.00000000E+00
	 5.00000000E-01	-1.49012000E-08	 6.00000000E+00
	 1.00000000E+00	-1.49012000E-08	 5.50000000E+00
	 1.00000000E+00	 2.50000000E-01	 6.00000000E+00
	 7.50000000E-01	-1.49012000E-08	 6.00000000E+00
	 5.00000000E-01	-1.49012000E-08	 5.50000000E+00
	 5.00000000E-01	 2.50000000E-01	 6.00000000E+00
	-7.45058000E-09	 5.00000000E-01	 6.00000000E+00
	-7.45058000E-09	 1.00000000E+00	 6.00000000E+00
	 2.50000000E-01	 5.00000000E-01	 6.00000000E+00
	 2.50000000E-01	 1.00000000E+00	 6.00000000E+00
	-7.45058000E-09	 5.00000000E-01	 5.50000000E+00
	-7.45058000E-09	 7.50000000E-01	 6.00000000E+00
	-7.45058000E-09	 1.00000000E+00	 5.50000000E+00
	-7.45058000E-09	-1.49012000E-08	 6.00000000E+00
	 2.50000000E-01	-1.49012000E-08	 6.00000000E+00
	-7.45058000E-09	-1.49012000E-08	 5.50000000E+00
	-7.45058000E-09	 2.50000000E-01	 6.00000000E+00
	 1.00000000E+00	 5.00000000E-01	 7.00000000E+00
[...]
POINT_DATA 522
FIELD U 1
	U 3 522 double
		 0.00000000E+00	 0.00000000E+00	 0.00000000E+00
		 0.00000000E+00	 0.00000000E+00	 0.00000000E+00
		 2.08540000E-08	-7.81593000E-07	-3.60112000E-07
		-1.83871000E-05	-1.87031000E-07	 4.50628000E-06
		 0.00000000E+00	 0.00000000E+00	 0.00000000E+00
		 0.00000000E+00	 0.00000000E+00	 0.00000000E+00
		-3.74159000E-08	-2.00924000E-05	-4.14230000E-07
		-2.01474000E-05	-1.92408000E-05	 5.19783000E-06
		 0.00000000E+00	 0.00000000E+00	 0.00000000E+00
		 5.79615000E-08	 1.10531000E-06	-1.79848000E-07
		-9.18475000E-06	-5.02678000E-07	 2.63614000E-06
		-8.98698000E-06	 5.79787000E-07	 4.81259000E-06
		 0.00000000E+00	 0.00000000E+00	 0.00000000E+00
		 0.00000000E+00	 0.00000000E+00	 0.00000000E+00
		-6.48175000E-09	-1.04218000E-05	-3.90153000E-07
		-1.92273000E-05	-9.64398000E-06	 3.06178000E-06
		 0.00000000E+00	 0.00000000E+00	 0.00000000E+00
		-6.47082000E-09	-7.73563000E-06	-1.87954000E-07
		-1.00495000E-05	-1.96263000E-05	 1.11533000E-06
		-8.65659000E-06	-7.97730000E-06	 4.94303000E-06
		 0.00000000E+00	 0.00000000E+00	 0.00000000E+00
		 1.84351000E-05	-2.78772000E-07	-5.22719000E-06
		 0.00000000E+00	 0.00000000E+00	 0.00000000E+00
		 2.00828000E-05	-1.93533000E-05	-6.02298000E-06
		 0.00000000E+00	 0.00000000E+00	 0.00000000E+00
		 9.10687000E-06	 4.68232000E-07	-5.18958000E-06
		 9.22193000E-06	-5.43574000E-07	-3.35248000E-06
		 0.00000000E+00	 0.00000000E+00	 0.00000000E+00
		 1.92247000E-05	-9.74884000E-06	-3.83755000E-06
		 0.00000000E+00	 0.00000000E+00	 0.00000000E+00
		 8.65216000E-06	-8.10057000E-06	-5.33950000E-06
		 9.97571000E-06	-1.96841000E-05	-1.93412000E-06
		 0.00000000E+00	 0.00000000E+00	 0.00000000E+00
		 0.00000000E+00	 0.00000000E+00	 0.00000000E+00
		-9.86727000E-08	-4.10115000E-05	-4.46128000E-07
		-2.09201000E-05	-3.94086000E-05	 4.42775000E-06
		 0.00000000E+00	 0.00000000E+00	 0.00000000E+00
		 0.00000000E+00	 0.00000000E+00	 0.00000000E+00
		-6.67260000E-08	-3.04463000E-05	-4.32952000E-07
		-2.05252000E-05	-2.94212000E-05	 7.16594000E-06
		 0.00000000E+00	 0.00000000E+00	 0.00000000E+00
		-7.59497000E-08	-1.62026000E-05	-2.15840000E-07
		-1.06795000E-05	-4.01760000E-05	-1.59128000E-06
		-7.46653000E-06	-1.58470000E-05	 4.77386000E-06
		 0.00000000E+00	 0.00000000E+00	 0.00000000E+00
		 2.07314000E-05	-3.95302000E-05	-5.31149000E-06
		 0.00000000E+00	 0.00000000E+00	 0.00000000E+00
		 2.03960000E-05	-2.95401000E-05	-8.02359000E-06
		 0.00000000E+00	 0.00000000E+00	 0.00000000E+00
		 7.32132000E-06	-1.59834000E-05	-5.23003000E-06
		 1.04830000E-05	-4.02414000E-05	 7.09455000E-07
		-2.01799000E-07	 2.45512000E-05	-6.06327000E-07
		-5.15545000E-05	 2.93407000E-05	-3.20256000E-05
		-2.05786000E-07	-3.34985000E-05	-6.69430000E-07
		-6.40205000E-05	-2.78028000E-05	-3.06363000E-05
		-7.52653000E-08	 1.48871000E-06	-4.98477000E-07
		-2.59311000E-05	 2.55720000E-05	-1.57120000E-05
		-3.15306000E-05	 4.25265000E-06	-5.83915000E-06
		-2.02611000E-07	-3.17298000E-06	-6.42429000E-07
		-5.77736000E-05	 2.22032000E-06	-3.47982000E-05
		-1.04397000E-07	-3.28850000E-05	-5.76061000E-07
		-3.20292000E-05	-3.19785000E-05	-1.86854000E-05
		-3.72271000E-05	-2.98471000E-05	-4.80579000E-06
		 5.11277000E-05	 2.92688000E-05	 3.08982000E-05
		 6.35761000E-05	-2.78391000E-05	 2.93850000E-05
		 3.13873000E-05	 4.15942000E-06	 4.84663000E-06
		 2.55403000E-05	 2.55056000E-05	 1.45215000E-05
		 5.73324000E-05	 2.17529000E-06	 3.35850000E-05
		 3.70104000E-05	-2.99455000E-05	 3.66887000E-06
		 3.16118000E-05	-3.20003000E-05	 1.73506000E-05
		-2.09967000E-07	-1.03044000E-04	-7.14736000E-07
		-7.42773000E-05	-9.60963000E-05	-3.21472000E-05
		-2.12024000E-07	-6.68182000E-05	-6.78759000E-07
		-6.90801000E-05	-6.07887000E-05	-2.61098000E-05
		-1.37605000E-07	-7.27508000E-05	-6.31010000E-07
		-3.74629000E-05	-1.00886000E-04	-2.45528000E-05
		-4.19321000E-05	-6.90018000E-05	-5.95908000E-06
		 7.38549000E-05	-9.61112000E-05	 3.07983000E-05
		 6.86552000E-05	-6.08017000E-05	 2.48308000E-05
		 4.16582000E-05	-6.91048000E-05	 4.73048000E-06
		 3.70447000E-05	-1.00885000E-04	 2.31275000E-05
		-3.29420000E-07	 2.70570000E-04	-4.39359000E-07
		-1.43452000E-04	 2.80141000E-04	-1.65258000E-04
		-2.52874000E-07	 1.08698000E-04	-3.16653000E-07
		-1.74847000E-04	 1.22072000E-04	-1.65103000E-04
		-3.03375000E-07	 9.73396000E-05	-6.34534000E-07
		-7.25862000E-05	 2.71382000E-04	-7.36880000E-05
		-8.53584000E-05	 1.05449000E-04	-8.64419000E-05
		-2.99426000E-07	 1.93016000E-04	-4.29684000E-07
		-1.59158000E-04	 2.05293000E-04	-1.75942000E-04
		-3.04835000E-07	 6.20982000E-07	-6.21527000E-07
		-8.73571000E-05	 1.11434000E-04	-8.44742000E-05
		-1.06641000E-04	 1.04791000E-05	-8.45452000E-05
		 1.42742000E-04	 2.80499000E-04	 1.64340000E-04
		 1.74352000E-04	 1.22551000E-04	 1.64440000E-04
		 8.46841000E-05	 1.05564000E-04	 8.53002000E-05
		 7.18399000E-05	 2.71654000E-04	 7.28122000E-05
		 1.58569000E-04	 2.05685000E-04	 1.75071000E-04
		 1.06016000E-04	 1.06967000E-05	 8.34140000E-05
		 8.68453000E-05	 1.11674000E-04	 8.38905000E-05
		-5.83193000E-08	-7.86421000E-05	 1.71134000E-08
		-2.01034000E-04	-6.40255000E-05	-1.64746000E-04
		-1.67865000E-07	 1.88377000E-05	-1.85570000E-07
		-1.87759000E-04	 3.24495000E-05	-1.52544000E-04
		-2.38163000E-07	-1.15312000E-04	-5.38392000E-07
		-1.00667000E-04	-7.50199000E-05	-9.63462000E-05
		-1.24847000E-04	-1.04233000E-04	-8.63733000E-05
		 2.00821000E-04	-6.33749000E-05	 1.64777000E-04
		 1.87326000E-04	 3.29558000E-05	 1.52202000E-04
		 1.24329000E-04	-1.03934000E-04	 8.53599000E-05
		 1.00525000E-04	-7.47314000E-05	 9.64002000E-05
		-1.28014000E-07	 1.18916000E-03	 8.82764000E-07
		-4.42824000E-04	 1.17600000E-03	-3.11048000E-04
		 8.62726000E-07	 7.35518000E-04	 1.39914000E-06
		-4.47752000E-04	 7.32678000E-04	-3.21914000E-04
		-3.32267000E-07	 6.20862000E-04	-2.08915000E-08
		-2.24437000E-04	 1.18022000E-03	-1.03308000E-04
		-2.55168000E-04	 6.21771000E-04	-2.63886000E-04
		 3.71958000E-07	 9.62705000E-04	 1.29340000E-06
		-4.45243000E-04	 9.57941000E-04	-3.48838000E-04
		 1.74927000E-07	 3.47867000E-04	 3.27839000E-07
		-2.22866000E-04	 7.31188000E-04	-1.40453000E-04
		-2.82310000E-04	 3.55444000E-04	-2.66730000E-04
		 4.42727000E-04	 1.17764000E-03	 3.13721000E-04
		 4.49514000E-04	 7.34048000E-04	 3.25472000E-04
		 2.54598000E-04	 6.22438000E-04	 2.63840000E-04
		 2.24564000E-04	 1.18060000E-03	 1.05289000E-04
		 4.45999000E-04	 9.59621000E-04	 3.52227000E-04
		 2.82598000E-04	 3.56092000E-04	 2.67433000E-04
		 2.24706000E-04	 7.31812000E-04	 1.43289000E-04
		 1.49916000E-06	 2.91967000E-04	 1.90897000E-06
		-4.42920000E-04	 2.88935000E-04	-3.10359000E-04
		 1.17030000E-06	 5.15004000E-04	 1.59711000E-06
		-4.44809000E-04	 5.12604000E-04	-2.93080000E-04
		 5.90522000E-07	 5.59452000E-05	 9.07822000E-07
		-2.19314000E-04	 2.88277000E-04	-1.58041000E-04
		-3.02264000E-04	 6.39516000E-05	-2.62856000E-04
		 4.46311000E-04	 2.89876000E-04	 3.14649000E-04
		 4.47538000E-04	 5.13913000E-04	 2.96692000E-04
		 3.03443000E-04	 6.46460000E-05	 2.64877000E-04
		 2.22474000E-04	 2.88869000E-04	 1.61946000E-04
		-1.66338000E-06	 2.74538000E-03	 9.24422000E-06
		-1.24545000E-03	 2.63364000E-03	 2.55115000E-04
		 4.19678000E-07	 1.59823000E-03	 5.90423000E-06
		-1.04239000E-03	 1.49385000E-03	 2.23321000E-04
		 2.08433000E-07	 1.98292000E-03	 3.44676000E-06
		-6.25950000E-04	 2.71394000E-03	 2.71612000E-04
		-7.67710000E-04	 1.91899000E-03	-1.85619000E-04
		-4.14179000E-07	 2.14552000E-03	 7.55281000E-06
		-1.14287000E-03	 2.03978000E-03	 1.60631000E-04
		 1.34931000E-06	 1.24312000E-03	 3.04403000E-06
		-5.20939000E-04	 1.57112000E-03	 1.79731000E-04
		-6.94505000E-04	 1.19172000E-03	-2.08697000E-04
		 1.24367000E-03	 2.64346000E-03	-2.37120000E-04
		 1.04564000E-03	 1.50022000E-03	-2.11803000E-04
		 7.68426000E-04	 1.92356000E-03	 1.94228000E-04
		 6.21831000E-04	 2.72003000E-03	-2.53612000E-04
		 1.14439000E-03	 2.04767000E-03	-1.45540000E-04
		 6.98360000E-04	 1.19525000E-03	 2.16036000E-04
		 5.22108000E-04	 1.57435000E-03	-1.67499000E-04
		 1.75218000E-06	 6.56794000E-04	 3.54879000E-06
		-8.30983000E-04	 5.58753000E-04	 2.50079000E-04
		 1.28650000E-06	 1.10302000E-03	 4.29821000E-06
		-9.36815000E-04	 1.00013000E-03	 2.76627000E-04
		 2.05631000E-06	 5.90046000E-04	 2.78787000E-06
		-4.16196000E-04	 6.33964000E-04	 1.47446000E-04
		-6.08098000E-04	 5.41868000E-04	-1.86990000E-04
		 8.35737000E-04	 5.62467000E-04	-2.42880000E-04
		 9.40663000E-04	 1.00447000E-03	-2.67835000E-04
		 6.13121000E-04	 5.43782000E-04	 1.92903000E-04
		 4.19998000E-04	 6.35245000E-04	-1.39980000E-04
		-1.66270000E-05	 1.88132000E-03	 1.46337000E-05
		-2.46222000E-03	 1.67672000E-03	 2.53346000E-03
		-9.08352000E-06	-3.29333000E-04	 7.20426000E-06
		-2.01770000E-03	-5.52280000E-04	 2.52610000E-03
		-8.87305000E-06	 2.95611000E-03	 1.60402000E-05
		-1.23061000E-03	 1.83975000E-03	 1.35631000E-03
		-1.84767000E-03	 2.79304000E-03	 1.22578000E-03
		-1.27720000E-05	 7.21433000E-04	 1.05446000E-05
		-2.24080000E-03	 5.01723000E-04	 2.45130000E-03
		-4.01929000E-06	 1.29106000E-03	 8.52092000E-06
		-1.01185000E-03	-3.80118000E-04	 1.26880000E-03
		-1.50071000E-03	 1.12690000E-03	 1.19261000E-03
		 2.42860000E-03	 1.69792000E-03	-2.50150000E-03
		 1.99755000E-03	-5.32151000E-04	-2.50778000E-03
		 1.83253000E-03	 2.80594000E-03	-1.19678000E-03
		 1.20066000E-03	 1.84759000E-03	-1.32519000E-03
		 2.21323000E-03	 5.21927000E-04	-2.42692000E-03
		 1.49347000E-03	 1.13491000E-03	-1.17640000E-03
		 9.94240000E-04	-3.69431000E-04	-1.25446000E-03
		-4.89067000E-06	-2.13341000E-03	-2.35421000E-06
		-1.57890000E-03	-2.34605000E-03	 2.51765000E-03
		-6.65835000E-06	-1.28881000E-03	 3.75092000E-06
		-1.79690000E-03	-1.51203000E-03	 2.59979000E-03
		-1.41880000E-06	-3.78689000E-05	 1.98990000E-06
		-7.96615000E-04	-2.18239000E-03	 1.18321000E-03
		-1.14453000E-03	-1.88751000E-04	 1.21536000E-03
		 1.57516000E-03	-2.32870000E-03	-2.51761000E-03
		 1.78667000E-03	-1.48878000E-03	-2.58999000E-03
		 1.14534000E-03	-1.84637000E-04	-1.20869000E-03
		 7.88412000E-04	-2.17165000E-03	-1.18629000E-03
		 2.92038000E-05	-5.75421000E-03	-3.84556000E-06
		-2.79632000E-03	-5.88212000E-03	 4.72342000E-03
		 2.71974000E-05	-8.51226000E-03	-2.61877000E-05
		-2.63109000E-03	-8.63038000E-03	 4.73535000E-03
		 1.40437000E-06	-1.12537000E-03	 1.68705000E-07
		-1.39152000E-03	-5.80350000E-03	 2.28458000E-03
		-2.80122000E-03	-1.28528000E-03	 3.83727000E-03
		 2.82807000E-05	-7.15579000E-03	-1.24189000E-05
		-2.71282000E-03	-7.28264000E-03	 4.73952000E-03
		 1.93112000E-06	-3.73402000E-03	-3.25475000E-06
		-1.31048000E-03	-8.55085000E-03	 2.28790000E-03
		-2.43385000E-03	-3.91695000E-03	 3.86000000E-03
		 2.88078000E-03	-5.77922000E-03	-4.75962000E-03
		 2.70522000E-03	-8.55786000E-03	-4.81649000E-03
		 2.79644000E-03	-1.23227000E-03	-3.82651000E-03
		 1.45092000E-03	-5.73756000E-03	-2.31070000E-03
		 2.79728000E-03	-7.19161000E-03	-4.79087000E-03
		 2.44342000E-03	-3.86009000E-03	-3.86398000E-03
		 1.36642000E-03	-8.51472000E-03	-2.34761000E-03
		 2.33367000E-05	-1.10976000E-02	-4.20724000E-05
		-2.49560000E-03	-1.12260000E-02	 4.69457000E-03
		 2.45412000E-05	-9.82608000E-03	-3.86588000E-05
		-2.56680000E-03	-9.93606000E-03	 4.75238000E-03
		 2.89250000E-06	-6.01025000E-03	-9.60076000E-06
		-1.22922000E-03	-1.11352000E-02	 2.22002000E-03
		-2.10692000E-03	-6.19699000E-03	 3.81337000E-03
		 2.53928000E-03	-1.11629000E-02	-4.78839000E-03
		 2.62079000E-03	-9.88190000E-03	-4.84415000E-03
		 2.11126000E-03	-6.14344000E-03	-3.84266000E-03
		 1.27875000E-03	-1.11130000E-02	-2.30470000E-03
		-3.32308000E-07	-1.60482000E-02	-4.56849000E-05
		-2.87360000E-03	-1.58023000E-02	 4.80960000E-03
		 9.12758000E-05	-1.89669000E-02	-9.83453000E-05
		-2.84429000E-03	-1.91145000E-02	 5.01631000E-03
		 1.46349000E-05	-1.09674000E-02	 3.87083000E-06
		-1.39935000E-03	-1.59161000E-02	 2.44147000E-03
		-2.78745000E-03	-1.10097000E-02	 4.91947000E-03
		 5.10448000E-05	-1.74791000E-02	-7.16334000E-05
		-2.85447000E-03	-1.74082000E-02	 4.86853000E-03
		 5.06383000E-05	-1.37731000E-02	-7.03351000E-05
		-1.32150000E-03	-1.90372000E-02	 2.43147000E-03
		-2.78545000E-03	-1.38330000E-02	 4.97437000E-03
		 2.74900000E-03	-1.61433000E-02	-5.08791000E-03
		 2.81743000E-03	-1.89492000E-02	-5.16521000E-03
		 2.83029000E-03	-1.09766000E-02	-5.05625000E-03
		 1.36474000E-03	-1.61314000E-02	-2.55835000E-03
		 2.77582000E-03	-1.75420000E-02	-5.13983000E-03
		 2.79384000E-03	-1.37915000E-02	-5.13067000E-03
		 1.44838000E-03	-1.89679000E-02	-2.62672000E-03
		 7.69017000E-05	-2.18691000E-02	-9.54412000E-05
		-2.81783000E-03	-2.20874000E-02	 5.07406000E-03
		 9.80254000E-05	-2.04250000E-02	-1.04116000E-04
		-2.83666000E-03	-2.06505000E-02	 5.08173000E-03
		 5.14554000E-05	-1.65452000E-02	-9.43392000E-05
		-1.38088000E-03	-2.20104000E-02	 2.43529000E-03
		-2.70512000E-03	-1.66432000E-02	 4.99766000E-03
		 2.85561000E-03	-2.17210000E-02	-5.15244000E-03
		 2.84203000E-03	-2.03385000E-02	-5.16159000E-03
		 2.75733000E-03	-1.65273000E-02	-5.11305000E-03
		 1.47735000E-03	-2.17795000E-02	-2.62156000E-03
		 0.00000000E+00	 0.00000000E+00	 0.00000000E+00
		 0.00000000E+00	 0.00000000E+00	 0.00000000E+00
		 7.09834000E-05	-1.13318000E-02	-1.49216000E-04
		-3.25718000E-03	-1.23222000E-02	 1.26790000E-02
		 0.00000000E+00	 0.00000000E+00	 0.00000000E+00
		 0.00000000E+00	 0.00000000E+00	 0.00000000E+00
		 6.38287000E-05	-1.37540000E-02	-1.77982000E-04
		-1.48931000E-03	-1.47953000E-02	 1.27712000E-02
		 0.00000000E+00	 0.00000000E+00	 0.00000000E+00
		 4.38916000E-05	-1.89756000E-03	-4.49896000E-05
		-1.59773000E-03	-1.15279000E-02	 6.32075000E-03
		-2.62843000E-03	-3.07896000E-03	 6.34167000E-03
		 0.00000000E+00	 0.00000000E+00	 0.00000000E+00
		 0.00000000E+00	 0.00000000E+00	 0.00000000E+00
		 6.90906000E-05	-1.28361000E-02	-1.67342000E-04
		-2.35842000E-03	-1.38462000E-02	 1.25699000E-02
		 0.00000000E+00	 0.00000000E+00	 0.00000000E+00
		 2.41421000E-05	-3.51847000E-03	-5.05282000E-05
		-7.12495000E-04	-1.39620000E-02	 6.19354000E-03
		-7.27326000E-04	-4.67788000E-03	 6.15051000E-03
		 0.00000000E+00	 0.00000000E+00	 0.00000000E+00
		 3.37048000E-03	-1.19354000E-02	-1.30338000E-02
		 0.00000000E+00	 0.00000000E+00	 0.00000000E+00
		 1.62207000E-03	-1.44042000E-02	-1.31886000E-02
		 0.00000000E+00	 0.00000000E+00	 0.00000000E+00
		 2.69625000E-03	-2.95539000E-03	-6.44987000E-03
		 1.72986000E-03	-1.13266000E-02	-6.63985000E-03
		 0.00000000E+00	 0.00000000E+00	 0.00000000E+00
		 2.48859000E-03	-1.34554000E-02	-1.29597000E-02
		 0.00000000E+00	 0.00000000E+00	 0.00000000E+00
		 7.77433000E-04	-4.55751000E-03	-6.25899000E-03
		 8.40813000E-04	-1.37628000E-02	-6.57077000E-03
		 0.00000000E+00	 0.00000000E+00	 0.00000000E+00
		 0.00000000E+00	 0.00000000E+00	 0.00000000E+00
		 5.04915000E-05	-1.44424000E-02	-1.58192000E-04
		 2.89253000E-04	-1.54088000E-02	 1.26741000E-02
		 0.00000000E+00	 0.00000000E+00	 0.00000000E+00
		 0.00000000E+00	 0.00000000E+00	 0.00000000E+00
		 5.70451000E-05	-1.43885000E-02	-1.77727000E-04
		-6.11867000E-04	-1.53943000E-02	 1.28474000E-02
		 0.00000000E+00	 0.00000000E+00	 0.00000000E+00
		 3.42414000E-06	-3.40145000E-03	-3.10082000E-05
		 1.69793000E-04	-1.46192000E-02	 6.02570000E-03
		 1.23103000E-03	-4.52368000E-03	 6.35920000E-03
		 0.00000000E+00	 0.00000000E+00	 0.00000000E+00
		-1.55251000E-04	-1.50356000E-02	-1.30417000E-02
		 0.00000000E+00	 0.00000000E+00	 0.00000000E+00
		 7.40316000E-04	-1.50060000E-02	-1.32632000E-02
		 0.00000000E+00	 0.00000000E+00	 0.00000000E+00
		-1.20511000E-03	-4.39961000E-03	-6.43236000E-03
		-5.55023000E-05	-1.44374000E-02	-6.35607000E-03
		 1.82579000E-04	-4.82006000E-02	-8.57156000E-04
		-4.51320000E-03	-4.95454000E-02	 2.31805000E-02
		 1.91630000E-04	-5.21318000E-02	-9.80509000E-04
		-2.99154000E-03	-5.34744000E-02	 2.30900000E-02
		 1.27135000E-04	-2.68961000E-02	-4.02299000E-04
		-2.16496000E-03	-4.87057000E-02	 1.11828000E-02
		-3.94123000E-03	-2.81321000E-02	 1.83196000E-02
		 1.88936000E-04	-5.03358000E-02	-9.28806000E-04
		-3.75061000E-03	-5.16774000E-02	 2.30431000E-02
		 1.19854000E-04	-3.01164000E-02	-4.71666000E-04
		-1.39678000E-03	-5.26339000E-02	 1.09924000E-02
		-2.25827000E-03	-3.13496000E-02	 1.82920000E-02
		 4.87854000E-03	-4.82993000E-02	-2.49795000E-02
		 3.38342000E-03	-5.22608000E-02	-2.51369000E-02
		 4.17424000E-03	-2.73687000E-02	-1.92027000E-02
		 2.52665000E-03	-4.80789000E-02	-1.29186000E-02
		 4.13624000E-03	-5.04588000E-02	-2.49811000E-02
		 2.50491000E-03	-3.05958000E-02	-1.93155000E-02
		 1.78618000E-03	-5.20314000E-02	-1.29710000E-02
		 1.80987000E-04	-5.45774000E-02	-1.02751000E-03
		-1.47062000E-03	-5.58780000E-02	 2.30059000E-02
		 1.87681000E-04	-5.35233000E-02	-1.01336000E-03
		-2.22865000E-03	-5.48840000E-02	 2.31674000E-02
		 1.02277000E-04	-3.16647000E-02	-4.76032000E-04
		-6.53991000E-04	-5.50474000E-02	 1.07985000E-02
		-5.91068000E-04	-3.28850000E-02	 1.82453000E-02
		 1.88628000E-03	-5.47160000E-02	-2.51469000E-02
		 2.63463000E-03	-5.36530000E-02	-2.52853000E-02
		 8.40118000E-04	-3.21659000E-02	-1.92756000E-02
		 1.03221000E-03	-5.44844000E-02	-1.28679000E-02
		 3.62117000E-04	-1.05348000E-01	-2.49516000E-03
		-5.50600000E-03	-1.06991000E-01	 3.03459000E-02
		 3.87434000E-04	-1.10592000E-01	-2.72845000E-03
		-4.29754000E-03	-1.12340000E-01	 3.01498000E-02
		 2.64187000E-04	-7.45327000E-02	-1.54602000E-03
		-2.56721000E-03	-1.06021000E-01	 1.39381000E-02
		-5.02873000E-03	-7.60519000E-02	 2.71695000E-02
		 3.78953000E-04	-1.08121000E-01	-2.61674000E-03
		-4.90096000E-03	-1.09827000E-01	 3.01487000E-02
		 2.78134000E-04	-7.91488000E-02	-1.72729000E-03
		-1.98166000E-03	-1.11316000E-01	 1.36220000E-02
		-3.67306000E-03	-8.06679000E-02	 2.70315000E-02
		 6.19241000E-03	-1.04789000E-01	-3.53992000E-02
		 5.08497000E-03	-1.10063000E-01	-3.57082000E-02
		 5.55156000E-03	-7.43265000E-02	-3.03500000E-02
		 3.27737000E-03	-1.04921000E-01	-1.89378000E-02
		 5.63977000E-03	-1.07574000E-01	-3.54741000E-02
		 4.24978000E-03	-7.89523000E-02	-3.05727000E-02
		 2.73618000E-03	-1.10189000E-01	-1.91187000E-02
		 3.88395000E-04	-1.14710000E-01	-2.89240000E-03
		-3.21780000E-03	-1.16554000E-01	 2.99419000E-02
		 3.90225000E-04	-1.12811000E-01	-2.82314000E-03
		-3.75946000E-03	-1.14487000E-01	 3.01731000E-02
		 2.81806000E-04	-8.24435000E-02	-1.83186000E-03
		-1.38778000E-03	-1.15479000E-01	 1.32982000E-02
		-2.36738000E-03	-8.39694000E-02	 2.68875000E-02
		 3.97471000E-03	-1.14227000E-01	-3.58583000E-02
		 4.53256000E-03	-1.12276000E-01	-3.59270000E-02
		 2.92626000E-03	-8.22685000E-02	-3.06388000E-02
		 2.17065000E-03	-1.14347000E-01	-1.91458000E-02
		 6.61915000E-04	-1.78111000E-01	-5.14568000E-03
		-5.96201000E-03	-1.79896000E-01	 3.37945000E-02
		 6.91817000E-04	-1.84428000E-01	-5.47456000E-03
		-5.36035000E-03	-1.86673000E-01	 3.35183000E-02
		 4.67459000E-04	-1.40087000E-01	-3.69887000E-03
		-2.64787000E-03	-1.78912000E-01	 1.42713000E-02
		-5.84277000E-03	-1.41911000E-01	 3.25337000E-02
		 6.81557000E-04	-1.81318000E-01	-5.31420000E-03
		-5.64848000E-03	-1.83283000E-01	 3.36260000E-02
		 4.89664000E-04	-1.45959000E-01	-4.02567000E-03
		-2.21411000E-03	-1.85442000E-01	 1.39311000E-02
		-4.94510000E-03	-1.47733000E-01	 3.23389000E-02
		 7.12607000E-03	-1.76880000E-01	-4.41404000E-02
		 6.46104000E-03	-1.83068000E-01	-4.45138000E-02
		 6.75483000E-03	-1.39175000E-01	-3.99990000E-02
		 3.88778000E-03	-1.77421000E-01	-2.45708000E-02
		 6.80040000E-03	-1.80058000E-01	-4.43099000E-02
		 5.86523000E-03	-1.45030000E-01	-4.03580000E-02
		 3.56213000E-03	-1.83647000E-01	-2.48949000E-02
		 5.61501000E-04	-1.90108000E-01	-5.75643000E-03
		-4.66004000E-03	-1.92689000E-01	 3.31983000E-02
		 6.30248000E-04	-1.87315000E-01	-5.62588000E-03
		-5.00696000E-03	-1.90256000E-01	 3.34239000E-02
		 4.66569000E-04	-1.50927000E-01	-4.31731000E-03
		-2.16966000E-03	-1.91271000E-01	 1.35517000E-02
		-3.90769000E-03	-1.52565000E-01	 3.20675000E-02
		 5.80692000E-03	-1.88617000E-01	-4.47426000E-02